A-SYNC WITH LIG-47 in water
35301
  121NASP     N    1   4.992   5.716   4.548  0.1606 -0.2801 -0.0993
  121NASP    H1    2   5.063   5.755   4.607 -1.0888  0.5205  0.9130
  121NASP    H2    3   5.029   5.676   4.463  1.4484 -0.5816  0.5759
  121NASP    H3    4   4.946   5.649   4.608 -2.2115 -0.6360 -2.1041
  121NASP    CA    5   4.885   5.814   4.517 -0.4163  0.2589  0.0889
  121NASP    HA    6   4.815   5.765   4.450  1.9277 -2.7912 -0.3367
  121NASP    CB    7   4.821   5.867   4.649  0.1875 -0.4752 -0.3268
  121NASP   HB1    8   4.754   5.791   4.688 -2.2243  0.6708 -1.9143
  121NASP   HB2    9   4.750   5.946   4.623  1.9919  1.1359 -0.5363
  121NASP    CG   10   4.923   5.928   4.748 -0.1538  0.5171 -0.4001
  121NASP   OD1   11   4.899   5.971   4.862  0.6083  0.8224  0.0056
  121NASP   OD2   12   5.045   5.935   4.711 -0.4001 -0.0406 -0.5097
  121NASP     C   13   4.954   5.923   4.426 -0.5063  0.4028 -0.1503
  121NASP     O   14   5.082   5.935   4.428 -0.0636 -0.2391 -0.0350
  122ASN      N   15   4.867   6.003   4.360  0.2854 -0.0116 -0.1653
  122ASN      H   16   4.769   5.985   4.371  0.6722 -1.8112  0.7363
  122ASN     CA   17   4.900   6.114   4.268 -0.0586  0.0464 -0.1634
  122ASN     HA   18   4.997   6.154   4.296 -0.8457  1.6351  0.4263
  122ASN     CB   19   4.893   6.070   4.117  0.7835  0.8645  0.1719
  122ASN    HB1   20   4.957   6.131   4.054  2.4355  1.3610  2.2417
  122ASN    HB2   21   4.792   6.088   4.081  1.2407  0.6255 -1.2721
  122ASN     CG   22   4.945   5.924   4.082 -0.0590 -0.2573 -0.9602
  122ASN    OD1   23   5.048   5.880   4.124  0.5883 -0.1696  0.2771
  122ASN    ND2   24   4.862   5.841   4.031  0.7184  0.9004 -0.5270
  122ASN   HD21   25   4.892   5.752   3.994 -0.5025 -0.5977  1.8441
  122ASN   HD22   26   4.776   5.884   4.002  0.6326  1.4481  0.4818
  122ASN      C   27   4.809   6.235   4.292 -0.0006  0.1738  0.0514
  122ASN      O   28   4.693   6.230   4.336  0.0317  0.6360 -0.4556
  123GLU      N   29   4.868   6.349   4.253  0.4076 -0.2825  0.0674
  123GLU      H   30   4.966   6.345   4.228  0.4890 -2.3019  0.4964
  123GLU     CA   31   4.802   6.475   4.216  0.5419  0.7047 -0.0695
  123GLU     HA   32   4.756   6.521   4.302 -2.0329  1.7643 -1.8896
  123GLU     CB   33   4.910   6.572   4.163  0.8131 -0.2688 -0.0281
  123GLU    HB1   34   4.957   6.514   4.083  1.3857 -1.2736  0.9919
  123GLU    HB2   35   4.994   6.587   4.232 -1.1394  1.8127  2.0767
  123GLU     CG   36   4.869   6.710   4.121  0.8316  0.2635 -0.4273
  123GLU    HG1   37   4.808   6.752   4.200 -1.0910 -0.0977 -1.6620
  123GLU    HG2   38   4.799   6.708   4.038 -1.2541  2.3997  1.1436
  123GLU     CD   39   4.980   6.802   4.078  0.1232 -0.0585  0.2837
  123GLU    OE1   40   5.081   6.756   4.023  0.6334 -0.0535 -0.5237
  123GLU    OE2   41   4.974   6.924   4.098  0.6884 -0.6244 -0.1813
  123GLU      C   42   4.701   6.454   4.100  0.0353 -0.8643 -0.5410
  123GLU      O   43   4.727   6.395   3.995 -0.0215 -0.4336  0.0555
  124ALA      N   44   4.588   6.526   4.110  0.4070 -0.1661 -0.7302
  124ALA      H   45   4.573   6.587   4.189  0.0256 -0.4226 -0.6016
  124ALA     CA   46   4.478   6.515   4.019 -0.1036 -0.0735  0.3502
  124ALA     HA   47   4.453   6.409   4.015  1.2843 -0.6635  3.7043
  124ALA     CB   48   4.356   6.591   4.075 -0.1571  0.0406  0.4073
  124ALA    HB1   49   4.282   6.589   3.994  0.5364  0.4423 -0.2473
  124ALA    HB2   50   4.372   6.697   4.096  1.3083 -0.2312  0.7423
  124ALA    HB3   51   4.321   6.552   4.170 -1.6724  0.7983  0.2007
  124ALA      C   52   4.511   6.552   3.868  1.1474 -0.1938 -0.4775
  124ALA      O   53   4.416   6.540   3.785  0.0641 -0.6697 -0.3622
  125TYR      N   54   4.631   6.597   3.836 -0.2746  0.3616  0.0502
  125TYR      H   55   4.701   6.592   3.909 -1.4407 -0.6026  1.1603
  125TYR     CA   56   4.682   6.609   3.695  0.1910 -0.3044 -0.6677
  125TYR     HA   57   4.612   6.660   3.629  0.5056 -0.2944 -0.9965
  125TYR     CB   58   4.797   6.708   3.698 -0.9259 -0.6717  0.4953
  125TYR    HB1   59   4.887   6.665   3.742 -0.4865  0.1929  0.4776
  125TYR    HB2   60   4.770   6.802   3.747  1.1967 -0.7357  1.9487
  125TYR     CG   61   4.834   6.750   3.556 -0.2470 -0.3062  0.2845
  125TYR    CD1   62   4.783   6.864   3.491 -0.1447  0.1372 -0.3761
  125TYR    HD1   63   4.706   6.926   3.535 -3.3812 -2.6821 -1.5803
  125TYR    CE1   64   4.840   6.907   3.373  0.1186  0.5883  1.0911
  125TYR    HE1   65   4.801   6.993   3.321  0.0172 -0.7648 -1.2114
  125TYR     CZ   66   4.944   6.835   3.308 -0.0330 -0.4274 -0.1562
  125TYR     OH   67   4.990   6.870   3.187 -0.1157  0.2840  0.1640
  125TYR     HH   68   4.941   6.942   3.148  3.5967  2.2012 -1.4819
  125TYR    CE2   69   4.980   6.709   3.367 -0.2392 -0.4935  0.9614
  125TYR    HE2   70   5.051   6.649   3.313 -0.7285 -0.3568  0.1454
  125TYR    CD2   71   4.934   6.673   3.494 -0.3013  0.0850 -0.2222
  125TYR    HD2   72   4.971   6.581   3.537 -0.3457  0.0623 -0.2333
  125TYR      C   73   4.714   6.476   3.630  0.3979 -0.1651 -0.4181
  125TYR      O   74   4.716   6.474   3.502  0.0895  0.0158 -0.9819
  126GLU      N   75   4.721   6.364   3.706  0.2929  0.1030  0.0085
  126GLU      H   76   4.705   6.366   3.806 -0.8488 -0.6013 -0.1440
  126GLU     CA   77   4.743   6.236   3.639 -0.1027 -0.5288 -0.7140
  126GLU     HA   78   4.784   6.258   3.540  0.8942  1.0050  0.0123
  126GLU     CB   79   4.851   6.145   3.713  0.6816  0.1203  0.6034
  126GLU    HB1   80   4.873   6.069   3.638 -1.3722 -0.5632  0.6281
  126GLU    HB2   81   4.802   6.099   3.799  0.0874 -1.5293 -0.5706
  126GLU     CG   82   4.976   6.218   3.755 -0.7117  0.0507  0.4409
  126GLU    HG1   83   4.953   6.271   3.848 -2.4613 -0.2969  0.2375
  126GLU    HG2   84   5.010   6.284   3.675  1.1320  0.3542  1.4109
  126GLU     CD   85   5.091   6.128   3.790 -0.0092  0.1298  0.1539
  126GLU    OE1   86   5.153   6.156   3.898  0.4976 -0.0417 -0.0564
  126GLU    OE2   87   5.137   6.045   3.705 -0.1167 -0.3720  0.1840
  126GLU      C   88   4.621   6.158   3.585 -0.3443  0.8848 -0.2528
  126GLU      O   89   4.633   6.051   3.532 -0.2738 -0.4370 -0.5766
  127MET      N   90   4.502   6.220   3.594  0.4110  0.5275  0.1277
  127MET      H   91   4.503   6.310   3.640 -0.9214 -0.5255  2.3916
  127MET     CA   92   4.384   6.155   3.548  0.6885  0.4936  0.6118
  127MET     HA   93   4.379   6.056   3.593 -0.3703  0.5954  0.7531
  127MET     CB   94   4.260   6.222   3.600 -0.8107 -0.0882 -0.3905
  127MET    HB1   95   4.177   6.158   3.567  1.4618 -3.2581 -0.3573
  127MET    HB2   96   4.255   6.326   3.569  0.2285  0.2525  0.5391
  127MET     CG   97   4.261   6.224   3.757  0.2877  0.5478  0.2688
  127MET    HG1   98   4.312   6.312   3.798 -1.6336  1.0297  1.7564
  127MET    HG2   99   4.306   6.137   3.805 -0.3278  0.9718  1.6821
  127MET     SD  100   4.091   6.218   3.822 -0.3257  0.1788 -0.3532
  127MET     CE  101   4.109   6.227   4.005 -0.6659 -0.4490  0.4580
  127MET    HE1  102   4.141   6.325   4.041 -1.6700  0.2783 -0.5496
  127MET    HE2  103   4.181   6.152   4.036  3.3759  2.3741 -1.2176
  127MET    HE3  104   4.007   6.226   4.044 -0.3098 -0.1603  1.4197
  127MET      C  105   4.385   6.150   3.389  0.0400 -0.3918  0.3062
  127MET      O  106   4.407   6.250   3.325 -0.4264  0.2291 -0.4680
  128PRO      N  107   4.338   6.042   3.322 -0.5468  0.0933 -0.5094
  128PRO     CD  108   4.311   5.908   3.382 -0.3520 -0.0704  0.2745
  128PRO    HD1  109   4.243   5.919   3.467  2.1910 -0.5401  2.5217
  128PRO    HD2  110   4.407   5.868   3.414  0.9622  2.2601 -0.4569
  128PRO     CG  111   4.248   5.830   3.268  0.7325  0.4819  0.1425
  128PRO    HG1  112   4.140   5.846   3.274  0.7260  0.8546 -0.9417
  128PRO    HG2  113   4.274   5.724   3.278 -1.5847 -0.0582  1.2414
  128PRO     CB  114   4.309   5.890   3.147  0.2652 -0.6153  0.7205
  128PRO    HB1  115   4.409   5.847   3.131  0.4584 -0.5618  1.7166
  128PRO    HB2  116   4.248   5.876   3.058 -2.2157  0.5448  2.1441
  128PRO     CA  117   4.313   6.042   3.183  0.3531 -0.5149  0.2176
  128PRO     HA  118   4.385   6.099   3.125  1.9883 -1.3335  1.3620
  128PRO      C  119   4.174   6.111   3.159 -0.2456  0.1900  0.8301
  128PRO      O  120   4.084   6.110   3.244 -0.0688 -0.1322 -0.1711
  129SER      N  121   4.155   6.171   3.039  0.1748 -0.2071  0.0086
  129SER      H  122   4.233   6.168   2.975  0.0698 -1.6919 -0.0876
  129SER     CA  123   4.028   6.224   2.979 -1.2504 -0.1118  0.1249
  129SER     HA  124   3.962   6.252   3.062 -1.6200 -0.6104 -0.0018
  129SER     CB  125   4.053   6.343   2.885  0.3814  0.1276 -0.1647
  129SER    HB1  126   4.087   6.422   2.952 -0.2881  0.3418 -0.0709
  129SER    HB2  127   3.955   6.360   2.839 -0.8657 -0.8117  1.9873
  129SER     OG  128   4.137   6.319   2.780  0.0626 -0.7958  0.4494
  129SER    HG1  129   4.226   6.326   2.816  0.0256  2.7077  0.1729
  129SER      C  130   3.944   6.122   2.896  0.2511  0.0973  0.2465
  129SER      O  131   3.840   6.162   2.843  0.0407  0.3986 -0.3696
  130GLU      N  132   3.994   6.002   2.874 -0.0502  0.3030  0.2456
  130GLU      H  133   4.077   5.990   2.931  0.5434  1.4969 -0.3220
  130GLU     CA  134   3.921   5.892   2.815  0.4583 -0.0784  0.4811
  130GLU     HA  135   3.866   5.925   2.726  1.5380  1.3437  0.3084
  130GLU     CB  136   4.026   5.790   2.771  0.4613  0.3464  0.0817
  130GLU    HB1  137   4.086   5.761   2.858 -0.8749  0.5354  1.0992
  130GLU    HB2  138   4.077   5.847   2.694 -3.2280  1.1561 -2.0015
  130GLU     CG  139   3.964   5.654   2.722 -0.4285  0.6526  0.4888
  130GLU    HG1  140   3.886   5.661   2.646 -1.4386  0.7759  1.5035
  130GLU    HG2  141   3.922   5.586   2.797 -0.3480 -1.8970 -1.6408
  130GLU     CD  142   4.065   5.560   2.646  0.3164 -0.7358 -0.2975
  130GLU    OE1  143   4.177   5.542   2.695  0.1041 -0.0443  0.4963
  130GLU    OE2  144   4.031   5.513   2.537 -0.1943  0.0398  0.5089
  130GLU      C  145   3.818   5.832   2.919 -0.3292 -0.3737 -0.0083
  130GLU      O  146   3.856   5.813   3.036 -0.3057 -0.2054 -0.9974
  131GLU      N  147   3.698   5.792   2.880 -0.0202  0.6424  0.1059
  131GLU      H  148   3.678   5.801   2.782 -1.8126 -1.2956  0.2225
  131GLU     CA  149   3.591   5.748   2.965 -0.7006 -0.4805 -0.4134
  131GLU     HA  150   3.606   5.779   3.069 -0.2734  0.8478 -0.8484
  131GLU     CB  151   3.458   5.822   2.922 -0.0882  0.5867  0.1841
  131GLU    HB1  152   3.383   5.813   3.001 -1.1300 -0.3159 -0.8858
  131GLU    HB2  153   3.412   5.787   2.830 -0.4353 -0.4581  0.7378
  131GLU     CG  154   3.485   5.973   2.918  0.1691 -0.2559 -0.5121
  131GLU    HG1  155   3.566   6.000   2.849 -0.9309  0.5978 -1.5064
  131GLU    HG2  156   3.514   6.003   3.019 -1.7341 -1.4108  0.4379
  131GLU     CD  157   3.362   6.050   2.871  1.2580  0.0587 -0.4748
  131GLU    OE1  158   3.246   6.004   2.899 -0.5798 -0.6261 -0.4360
  131GLU    OE2  159   3.383   6.161   2.822  0.1028  0.2757  0.0115
  131GLU      C  160   3.566   5.598   2.962  0.2861  0.2420  0.0133
  131GLU      O  161   3.545   5.535   3.063 -0.3942 -0.0213  0.1752
  132GLY      N  162   3.586   5.530   2.848 -0.2105 -0.3113  0.1047
  132GLY      H  163   3.582   5.579   2.759  2.7784 -2.0644 -1.1347
  132GLY     CA  164   3.574   5.387   2.825 -0.9225  0.5403  0.3406
  132GLY    HA1  165   3.540   5.366   2.724 -1.9027 -1.0515  0.9582
  132GLY    HA2  166   3.508   5.336   2.896 -0.8816  0.4758  0.3332
  132GLY      C  167   3.710   5.316   2.836 -0.2892 -0.2666  0.5336
  132GLY      O  168   3.812   5.347   2.776 -0.1398 -0.0837  0.8272
  133TYR      N  169   3.721   5.216   2.918  0.3600  0.6282 -0.8024
  133TYR      H  170   3.638   5.185   2.966  0.0727 -0.5296 -1.9800
  133TYR     CA  171   3.834   5.132   2.950  0.6217  0.4204  0.2471
  133TYR     HA  172   3.889   5.122   2.856 -1.7345 -3.8025 -0.9241
  133TYR     CB  173   3.923   5.189   3.056 -0.0306  0.1510 -0.5757
  133TYR    HB1  174   3.867   5.204   3.148  1.1711  0.6048  0.1091
  133TYR    HB2  175   3.957   5.284   3.015 -2.8976  0.5331 -2.3317
  133TYR     CG  176   4.047   5.104   3.086 -0.6902 -0.4600 -0.3610
  133TYR    CD1  177   4.081   5.064   3.218  0.0607  0.1201  0.2021
  133TYR    HD1  178   4.030   5.113   3.300 -1.6815 -2.3521  0.7107
  133TYR    CE1  179   4.176   4.966   3.246  0.0824  0.2138  0.6420
  133TYR    HE1  180   4.193   4.944   3.350 -1.6968  1.1721  1.1806
  133TYR     CZ  181   4.252   4.907   3.139  0.9973 -0.5567  0.0000
  133TYR     OH  182   4.345   4.812   3.164  0.1451  0.5024  0.5202
  133TYR     HH  183   4.352   4.800   3.259 -0.2594 -0.5008  0.4342
  133TYR    CE2  184   4.228   4.956   3.007  0.0918 -0.1087  0.5506
  133TYR    HE2  185   4.282   4.922   2.920 -0.9930 -0.6380  0.0648
  133TYR    CD2  186   4.125   5.045   2.984  0.2236  0.7916 -0.0762
  133TYR    HD2  187   4.114   5.081   2.883 -2.5857  1.6461  0.4440
  133TYR      C  188   3.781   5.000   2.991  0.6208 -0.1516 -0.2911
  133TYR      O  189   3.681   4.987   3.063 -0.4113 -0.5251  0.4529
  134GLN      N  190   3.858   4.899   2.954  0.4767 -1.1181 -0.1343
  134GLN      H  191   3.941   4.920   2.899 -0.2916  1.2240 -0.5049
  134GLN     CA  192   3.833   4.764   2.988 -0.9987 -0.2804  0.0013
  134GLN     HA  193   3.743   4.746   2.931  0.3716 -0.0606 -2.3526
  134GLN     CB  194   3.952   4.681   2.935  1.0008  0.2473 -0.4729
  134GLN    HB1  195   4.036   4.711   2.998  1.5712  2.4687 -2.1512
  134GLN    HB2  196   3.982   4.718   2.837  2.5218 -0.0151 -0.1343
  134GLN     CG  197   3.935   4.532   2.916 -0.7888  0.5588 -0.2977
  134GLN    HG1  198   3.856   4.518   2.842  0.5054 -0.6489 -1.5130
  134GLN    HG2  199   3.921   4.491   3.017  0.7537  0.6989  0.0039
  134GLN     CD  200   4.061   4.467   2.871  0.5598 -0.4533  0.5143
  134GLN    OE1  201   4.174   4.512   2.890 -0.1913 -0.6794 -0.0266
  134GLN    NE2  202   4.055   4.352   2.815 -0.1309  0.7399 -0.1852
  134GLN   HE21  203   4.137   4.309   2.775 -0.0866  0.0819  0.5945
  134GLN   HE22  204   3.971   4.297   2.807 -0.5442  0.9709  2.0542
  134GLN      C  205   3.802   4.743   3.138 -0.5395 -0.1607 -0.4102
  134GLN      O  206   3.870   4.791   3.230  0.5966 -0.1974 -0.5190
  135ASP      N  207   3.694   4.675   3.168  0.4515 -0.2756 -0.1740
  135ASP      H  208   3.642   4.647   3.086 -0.6538  1.1755 -0.0069
  135ASP     CA  209   3.632   4.652   3.302  0.0898 -0.5290  0.1423
  135ASP     HA  210   3.701   4.632   3.384 -1.2176 -0.7142  1.2333
  135ASP     CB  211   3.549   4.773   3.342  0.5174  0.4086  0.3441
  135ASP    HB1  212   3.610   4.864   3.341  0.6926  0.2937  0.5152
  135ASP    HB2  213   3.520   4.763   3.447 -0.1196  0.4113  0.1730
  135ASP     CG  214   3.420   4.798   3.256  0.2817 -0.1332 -0.0837
  135ASP    OD1  215   3.400   4.733   3.148 -0.1234 -0.1029 -0.3612
  135ASP    OD2  216   3.345   4.895   3.284 -0.0738  0.5133  0.5483
  135ASP      C  217   3.547   4.524   3.306  0.6900 -0.0647  0.5664
  135ASP      O  218   3.431   4.530   3.351 -0.5158 -1.0863  0.3404
  136TYR      N  219   3.586   4.408   3.261 -0.0635 -0.0340 -0.0891
  136TYR      H  220   3.686   4.401   3.249  0.6971  2.0143  3.5938
  136TYR     CA  221   3.524   4.274   3.264 -0.4619 -0.5827  0.4365
  136TYR     HA  222   3.419   4.297   3.244  0.0152  0.5792 -0.8414
  136TYR     CB  223   3.595   4.201   3.156 -0.0804  0.5764 -0.5515
  136TYR    HB1  224   3.561   4.098   3.166 -2.2148  1.3104  0.1760
  136TYR    HB2  225   3.700   4.215   3.182 -0.5214 -0.9778  2.5958
  136TYR     CG  226   3.563   4.241   3.013 -0.0206  0.2151  0.0115
  136TYR    CD1  227   3.434   4.214   2.965 -0.2823 -0.4620  0.0866
  136TYR    HD1  228   3.359   4.169   3.028 -0.9559  0.6770  0.1288
  136TYR    CE1  229   3.407   4.244   2.832  0.2390 -0.3554 -0.6913
  136TYR    HE1  230   3.309   4.219   2.794 -0.9493  2.6726  0.1404
  136TYR     CZ  231   3.507   4.300   2.751 -0.0480  0.4240  0.7690
  136TYR     OH  232   3.486   4.324   2.619  0.0458 -0.2469 -0.0878
  136TYR     HH  233   3.393   4.314   2.594 -0.6456 -0.1255  2.2153
  136TYR    CE2  234   3.638   4.323   2.797 -0.4198  0.4982  0.0080
  136TYR    HE2  235   3.719   4.366   2.740 -1.2979  1.5519 -0.4858
  136TYR    CD2  236   3.667   4.278   2.925 -0.2696 -0.3447 -0.8683
  136TYR    HD2  237   3.766   4.295   2.967 -1.1454  0.1214  1.1317
  136TYR      C  238   3.536   4.206   3.398 -0.5087 -0.5463 -0.6042
  136TYR      O  239   3.616   4.246   3.486 -0.1592  0.2088 -0.0214
  137GLU      N  240   3.463   4.093   3.421  0.3460 -0.1174  0.5704
  137GLU      H  241   3.397   4.065   3.350  2.0919  0.6067 -1.4429
  137GLU     CA  242   3.494   4.011   3.538  0.7858 -0.3740 -0.2853
  137GLU     HA  243   3.491   4.071   3.629  1.2749  0.9695 -1.1308
  137GLU     CB  244   3.385   3.903   3.556  0.1682  0.5596 -0.3223
  137GLU    HB1  245   3.421   3.845   3.641  3.2607  1.4318 -0.9211
  137GLU    HB2  246   3.369   3.838   3.470 -0.3618  0.1547  0.0736
  137GLU     CG  247   3.252   3.970   3.590  0.0802 -0.4745 -0.6246
  137GLU    HG1  248   3.227   4.039   3.510 -2.1793 -0.4120  0.0773
  137GLU    HG2  249   3.275   4.024   3.682  1.3086 -3.7377  1.1425
  137GLU     CD  250   3.136   3.877   3.627  0.4560  0.5676  0.3583
  137GLU    OE1  251   3.022   3.921   3.659 -0.4822  0.0012  0.1680
  137GLU    OE2  252   3.150   3.754   3.625 -0.0025  0.1375 -0.2511
  137GLU      C  253   3.629   3.948   3.512 -0.6614  0.8813 -0.1074
  137GLU      O  254   3.660   3.918   3.392  0.9343 -0.4628 -0.0572
  138PRO      N  255   3.708   3.923   3.621 -0.2455  0.5147  0.1209
  138PRO     CD  256   3.687   3.961   3.753  0.4496  0.1848  0.0054
  138PRO    HD1  257   3.598   3.919   3.800  0.0640 -0.0928 -0.9651
  138PRO    HD2  258   3.667   4.068   3.755 -0.7138  0.0992 -2.9097
  138PRO     CG  259   3.800   3.910   3.840  0.0355 -0.0004  0.1189
  138PRO    HG1  260   3.762   3.825   3.896 -2.3628 -0.0176 -1.3711
  138PRO    HG2  261   3.843   3.990   3.900  2.1644 -1.8118  1.2007
  138PRO     CB  262   3.910   3.877   3.737 -0.0767 -0.3136  0.0551
  138PRO    HB1  263   3.976   3.962   3.719  0.4427 -0.7105  0.0522
  138PRO    HB2  264   3.968   3.788   3.764  0.8314 -0.4988 -2.2960
  138PRO     CA  265   3.834   3.857   3.604  0.4745 -0.7166 -0.1091
  138PRO     HA  266   3.886   3.904   3.520  0.6699 -2.9475 -1.3010
  138PRO      C  267   3.817   3.713   3.558 -0.2929 -0.0142 -0.2936
  138PRO      O  268   3.724   3.644   3.594  0.0921  0.1357 -0.2128
  139GLU      N  269   3.907   3.668   3.469  0.1813  0.0280  0.6086
  139GLU      H  270   3.991   3.722   3.456 -0.8223  2.2474  2.5225
  139GLU     CA  271   3.902   3.540   3.395  0.8756  0.4816  0.4820
  139GLU     HA  272   3.822   3.482   3.441 -3.2094  3.4904 -2.1563
  139GLU     CB  273   3.860   3.561   3.251  0.4396  0.0320  0.2769
  139GLU    HB1  274   3.941   3.600   3.189  1.6076 -3.7216 -0.8330
  139GLU    HB2  275   3.776   3.631   3.249  1.1647  0.9099  0.0343
  139GLU     CG  276   3.819   3.435   3.178 -0.1410  0.5941  0.3786
  139GLU    HG1  277   3.768   3.372   3.250  1.1395  1.0335  1.6984
  139GLU    HG2  278   3.914   3.401   3.136  0.8920  3.1060  0.5116
  139GLU     CD  279   3.738   3.469   3.060  0.2015  0.0213  0.6962
  139GLU    OE1  280   3.770   3.559   2.979  0.1860  0.6383 -0.4548
  139GLU    OE2  281   3.632   3.398   3.043  0.1427 -0.3360 -0.3074
  139GLU      C  282   4.037   3.457   3.409 -0.0947 -0.5765 -0.0142
  139GLU      O  283   4.143   3.507   3.369  0.1003 -0.3437  0.0631
  140CALA     N  284   4.028   3.331   3.442  0.2898 -0.1410 -0.0921
  140CALA     H  285   3.935   3.302   3.469 -0.6158  2.0883 -0.5564
  140CALA    CA  286   4.134   3.236   3.469  0.6666  0.3520  0.0143
  140CALA    HA  287   4.218   3.292   3.510  0.9540 -0.4446  0.5399
  140CALA    CB  288   4.089   3.133   3.581  0.0434 -0.1251  0.1371
  140CALA   HB1  289   4.162   3.054   3.602 -1.7469 -1.4029  1.8429
  140CALA   HB2  290   3.993   3.088   3.556  0.4748 -0.2335 -1.4944
  140CALA   HB3  291   4.071   3.196   3.667  0.1174  0.7249 -0.4560
  140CALA     C  292   4.190   3.167   3.341  0.5277 -0.5748  0.1342
  140CALA   OC1  293   4.300   3.206   3.299  0.4267 -0.1479  0.3341
  140CALA   OC2  294   4.130   3.066   3.289  0.2052 -0.1146  0.8623
  141L47      C  295   3.782   5.587   3.267  0.0530 -0.8080 -0.1288
  141L47      H  296   3.704   5.550   3.335  0.0094  0.4959  0.5646
  141L47     H1  297   3.757   5.577   3.160 -2.4834 -0.6506  0.3833
  141L47     H2  298   3.790   5.696   3.272 -0.4439 -0.6787 -1.5888
  141L47     C1  299   3.915   5.528   3.315  0.0192 -0.5629 -0.1953
  141L47      O  300   3.922   5.506   3.433 -0.2557 -0.2259  0.2358
  141L47      N  301   4.021   5.506   3.229 -0.9536  0.0618  0.3347
  141L47     C2  302   4.029   5.563   3.087 -0.0825  0.4740  0.5852
  141L47     H3  303   4.051   5.670   3.087  0.7240  0.3191  1.1192
  141L47     H4  304   3.935   5.542   3.034 -1.3077  1.4098  2.2935
  141L47     C3  305   4.145   5.489   3.020 -0.0811 -0.7445 -0.0371
  141L47     H5  306   4.215   5.564   2.982  0.3181 -0.1038  1.8509
  141L47     H6  307   4.108   5.434   2.933 -1.7557 -2.1184  1.4651
  141L47     C4  308   4.197   5.402   3.132 -1.3024  0.5094 -0.4411
  141L47     C5  309   4.130   5.415   3.251  0.5556  0.1286 -0.5735
  141L47     C6  310   4.158   5.333   3.358  0.5663  0.3326 -0.9876
  141L47     H7  311   4.103   5.336   3.452  1.6583  0.3677 -0.3370
  141L47     C7  312   4.269   5.250   3.356 -0.5572  0.1606  0.1643
  141L47     H8  313   4.296   5.207   3.452  0.1046  1.8801  0.8013
  141L47     C8  314   4.352   5.253   3.243 -0.0327 -0.2557  0.6108
  141L47     C9  315   4.312   5.324   3.129  0.0950  0.4512  0.0876
  141L47     H9  316   4.375   5.319   3.041 -1.2441  2.1052 -1.0095
  141L47      S  317   4.497   5.156   3.237 -0.4722 -0.1505 -0.2054
  141L47     O1  318   4.555   5.137   3.102 -0.3858 -0.3898 -0.0409
  141L47     O2  319   4.480   5.053   3.341  0.1402  0.0273 -0.0310
  141L47     N1  320   4.602   5.264   3.322  0.3823  0.2356 -1.0537
  141L47    C10  321   4.562   5.393   3.386 -0.1606  0.5211 -0.6536
  141L47    H10  322   4.616   5.393   3.482 -0.8839  0.8909 -0.2439
  141L47    H11  323   4.458   5.390   3.419  0.2981 -4.1119  1.0476
  141L47    C11  324   4.580   5.528   3.316  0.4661 -0.0194  0.4333
  141L47    H12  325   4.517   5.599   3.370  0.6078  0.4646 -0.0242
  141L47    H13  326   4.554   5.528   3.209  2.3348  2.4907 -0.1174
  141L47    C12  327   4.730   5.562   3.330  0.2068 -0.7872  0.3855
  141L47    H14  328   4.744   5.579   3.437  0.8433 -0.1187  0.2015
  141L47    H15  329   4.759   5.660   3.290 -2.0804  0.6727  2.0221
  141L47     N2  330   4.830   5.460   3.268  0.0894 -0.4672  0.2317
  141L47    H16  331   4.796   5.436   3.174  0.1286 -0.4934  0.2247
  141L47    H17  332   4.926   5.496   3.257  0.0900 -0.2125  0.9678
  141L47    C13  333   4.845   5.336   3.354 -0.5520  0.1062 -0.8158
  141L47    H18  334   4.877   5.364   3.454  1.0183  2.6733 -1.9436
  141L47    H19  335   4.936   5.285   3.322 -0.0770 -0.8853  1.8282
  141L47    C14  336   4.739   5.214   3.336 -0.3302 -0.0402 -0.5568
  141L47    H20  337   4.767   5.171   3.239 -0.1643  1.1388 -1.0492
  141L47    H21  338   4.753   5.147   3.421  2.5510 -0.4891 -1.2645
  142SOL     OW  339   3.872   0.439   1.310  0.5303 -0.4068 -0.6295
  142SOL    HW2  340   3.820   0.399   1.381 -0.4280  1.6938 -0.0775
  142SOL    HW3  341   3.952   0.387   1.307  0.4546 -0.7787  1.8070
  142SOL    MW4  342   3.876   0.427   1.319  0.1593  0.2842  0.1861
  143SOL     OW  343   1.777   3.348   1.548 -0.2623 -0.9754 -0.0830
  143SOL    HW2  344   1.793   3.438   1.521 -0.6253 -0.0686  2.4804
  143SOL    HW3  345   1.858   3.302   1.523  0.8255  0.5380  0.4747
  143SOL    MW4  346   1.790   3.354   1.541  0.4002  0.3859  0.1700
  144SOL     OW  347   5.548   0.495   6.339 -0.1293 -0.1653 -0.0776
  144SOL    HW2  348   5.592   0.492   6.255  0.4536  4.5667 -0.2339
  144SOL    HW3  349   5.456   0.512   6.318 -0.4186 -1.1447  0.3083
  144SOL    MW4  350   5.541   0.497   6.325 -0.2499  0.2202  0.3121
  145SOL     OW  351   1.160   4.594   0.922 -0.2526  0.1569 -0.4310
  145SOL    HW2  352   1.218   4.599   0.998 -0.0209 -0.9718 -0.5201
  145SOL    HW3  353   1.132   4.503   0.919 -0.2983  0.1910 -1.6656
  145SOL    MW4  354   1.164   4.583   0.931 -0.5018 -0.3686  0.5019
  146SOL     OW  355   3.779   5.434   5.537  0.1463 -0.0007  0.5636
  146SOL    HW2  356   3.799   5.346   5.566  0.6074 -0.5658 -1.3308
  146SOL    HW3  357   3.838   5.490   5.588 -0.9356 -0.6204  2.5973
  146SOL    MW4  358   3.790   5.430   5.547  0.3662  0.0161 -0.1242
  147SOL     OW  359   4.642   5.237   4.085 -0.0451  0.3835 -0.3974
  147SOL    HW2  360   4.735   5.234   4.065 -0.1797 -0.9427 -0.9712
  147SOL    HW3  361   4.638   5.242   4.181  0.6751 -1.9564 -0.1680
  147SOL    MW4  362   4.654   5.237   4.095  0.2654  0.2077 -0.3242
  148SOL     OW  363   3.278   1.241   0.090 -0.7849  0.2336  0.1025
  148SOL    HW2  364   3.206   1.302   0.106  0.5841  1.5218  1.5536
  148SOL    HW3  365   3.356   1.295   0.081  0.6250 -1.2523  2.2311
  148SOL    MW4  366   3.279   1.256   0.091 -0.2226  0.3854 -0.0555
  149SOL     OW  367   0.441   3.235   3.189  0.0543  0.3230 -0.4505
  149SOL    HW2  368   0.415   3.144   3.173  1.0959  0.1504 -1.2369
  149SOL    HW3  369   0.533   3.239   3.165  0.1787  1.4645  0.1223
  149SOL    MW4  370   0.450   3.223   3.184 -0.1215  0.7507  0.0620
  150SOL     OW  371   0.600   0.301   1.198  0.0013 -0.5187 -0.2158
  150SOL    HW2  372   0.641   0.261   1.122 -0.0267 -2.3817  0.7048
  150SOL    HW3  373   0.632   0.250   1.273  0.0597  1.2717  1.0478
  150SOL    MW4  374   0.609   0.289   1.198 -0.2514 -0.4625 -0.2493
  151SOL     OW  375   5.791   1.758   2.663  0.2267  0.3515 -0.3266
  151SOL    HW2  376   5.699   1.739   2.678 -0.1184  1.6468 -0.6879
  151SOL    HW3  377   5.798   1.772   2.568  0.6593  0.8975 -0.2241
  151SOL    MW4  378   5.780   1.757   2.652  0.1585  0.7005  0.8154
  152SOL     OW  379   5.789   4.731   2.293 -0.1610 -0.4905 -0.6338
  152SOL    HW2  380   5.697   4.727   2.265 -0.8746 -2.2048  1.6601
  152SOL    HW3  381   5.797   4.818   2.333  0.2484  1.0475 -3.7391
  152SOL    MW4  382   5.778   4.742   2.295  0.0659  0.2785  0.1808
  153SOL     OW  383   4.784   2.915   2.505 -0.7485 -0.6708 -0.2054
  153SOL    HW2  384   4.757   2.874   2.422 -1.1613 -2.3139  0.6901
  153SOL    HW3  385   4.811   2.841   2.560 -0.7126  0.3646  1.2066
  153SOL    MW4  386   4.784   2.900   2.501  0.1314 -0.4961  0.2609
  154SOL     OW  387   1.970   5.414   6.259  0.0071 -0.2481  0.0804
  154SOL    HW2  388   1.895   5.450   6.211  0.4040 -1.1793 -1.3136
  154SOL    HW3  389   2.043   5.472   6.234  0.0257 -0.1622  0.3349
  154SOL    MW4  390   1.970   5.427   6.249  0.0216  0.0729  0.1038
  155SOL     OW  391   6.062   2.927   3.162 -0.0510  0.2330 -0.6880
  155SOL    HW2  392   6.037   2.880   3.082 -1.7799  0.2626 -0.1866
  155SOL    HW3  393   6.028   3.015   3.150 -0.9173  0.0563  0.3546
  155SOL    MW4  394   6.054   2.932   3.150 -0.4678 -0.0350 -0.2567
  156SOL     OW  395   5.669   6.096   3.404 -0.2858  0.2709  0.3894
  156SOL    HW2  396   5.609   6.118   3.476 -0.0923 -1.9789  1.3309
  156SOL    HW3  397   5.741   6.159   3.412 -0.7314  0.6470  1.6012
  156SOL    MW4  398   5.671   6.107   3.415 -0.0587  0.4568 -0.9492
  157SOL     OW  399   2.636   4.499   3.587 -0.7350  1.1261 -0.3031
  157SOL    HW2  400   2.612   4.418   3.632 -0.4611  1.9894  1.4833
  157SOL    HW3  401   2.610   4.485   3.496 -1.2795 -0.7120  0.1045
  157SOL    MW4  402   2.629   4.487   3.581  0.0274  0.3551 -0.0931
  158SOL     OW  403   0.552   6.231   1.814 -0.3592  0.4634  0.0030
  158SOL    HW2  404   0.489   6.225   1.742  0.4419  0.7766 -0.7497
  158SOL    HW3  405   0.536   6.318   1.852 -3.0688 -0.9116  2.4482
  158SOL    MW4  406   0.541   6.242   1.810  0.6343  0.3267 -0.0199
  159SOL     OW  407   4.944   1.547   2.925  0.4013  0.1923 -0.4605
  159SOL    HW2  408   5.018   1.596   2.959  1.0765 -1.1157 -0.0149
  159SOL    HW3  409   4.928   1.585   2.838  1.1196  0.9577 -0.2625
  159SOL    MW4  410   4.952   1.559   2.918 -0.7528  0.2342  0.4777
  160SOL     OW  411   4.429   1.369   5.760 -0.1939  0.5993 -0.5367
  160SOL    HW2  412   4.428   1.454   5.802 -1.8607  1.5086 -2.2391
  160SOL    HW3  413   4.344   1.330   5.782 -0.1593  0.1357 -1.1766
  160SOL    MW4  414   4.417   1.375   5.768 -0.9805 -0.0604  0.6110
  161SOL     OW  415   1.788   3.652   5.593  0.1824 -0.2640  0.7256
  161SOL    HW2  416   1.692   3.660   5.594  0.1874  0.3059 -0.7113
  161SOL    HW3  417   1.811   3.657   5.501  1.6875  0.7566  1.1246
  161SOL    MW4  418   1.778   3.654   5.581 -0.1645  0.4354  0.4123
  162SOL     OW  419   2.194   1.328   5.080 -0.1996  0.0790  0.1772
  162SOL    HW2  420   2.162   1.272   5.009  0.1903 -1.3845  1.1161
  162SOL    HW3  421   2.270   1.373   5.042 -1.1280  0.7917 -0.9091
  162SOL    MW4  422   2.200   1.327   5.066 -0.2677 -0.4207 -0.2572
  163SOL     OW  423   4.986   5.893   3.390  0.3711 -0.2410  0.2394
  163SOL    HW2  424   5.051   5.963   3.397 -1.8862  1.9643  0.5230
  163SOL    HW3  425   4.982   5.856   3.478  1.0288 -0.2349  0.2803
  163SOL    MW4  426   4.994   5.897   3.403 -0.4837  0.9056 -0.1715
  164SOL     OW  427   4.320   4.193   6.023 -0.2456  0.2905 -0.2293
  164SOL    HW2  428   4.290   4.203   5.932  0.5890 -4.5752 -1.3331
  164SOL    HW3  429   4.410   4.225   6.022 -0.1800  0.1235 -1.2092
  164SOL    MW4  430   4.328   4.199   6.011 -0.1397  0.2247 -0.0912
  165SOL     OW  431   5.263   1.204   3.338 -0.0405 -0.2216  0.3000
  165SOL    HW2  432   5.352   1.235   3.355 -0.1734  1.3132 -1.5231
  165SOL    HW3  433   5.212   1.232   3.414  0.5275  1.0935  0.2073
  165SOL    MW4  434   5.268   1.212   3.350  0.1594 -0.5449  0.2070
  166SOL     OW  435   4.698   1.160   6.402 -0.0666 -0.0799 -0.0966
  166SOL    HW2  436   4.752   1.152   6.481  1.3535 -1.1141 -1.1358
  166SOL    HW3  437   4.621   1.209   6.431  0.8139  0.3053  1.7306
  166SOL    MW4  438   4.695   1.165   6.416 -0.0980 -0.3403 -0.3726
  167SOL     OW  439   1.167   6.389   0.813  0.1201  0.1235 -0.2405
  167SOL    HW2  440   1.194   6.301   0.841  0.1213  0.2499  0.1523
  167SOL    HW3  441   1.092   6.410   0.868  0.8086  0.8332  0.4459
  167SOL    MW4  442   1.161   6.380   0.824 -0.0582  0.0510 -0.0713
  168SOL     OW  443   4.865   2.036   4.656  0.0926  0.2371  0.4687
  168SOL    HW2  444   4.937   2.032   4.593  1.4688  0.1531  1.9799
  168SOL    HW3  445   4.835   1.945   4.662  0.2886  0.1570  0.2859
  168SOL    MW4  446   4.871   2.023   4.648  0.0775  0.2340 -0.0835
  169SOL     OW  447   4.780   2.630   3.938  0.4041  0.0696  0.3921
  169SOL    HW2  448   4.704   2.626   3.880  0.1238  0.3985  0.7314
  169SOL    HW3  449   4.849   2.671   3.886  0.2120  0.1951  0.2375
  169SOL    MW4  450   4.779   2.635   3.924  0.0225  0.1840 -0.0933
  170SOL     OW  451   4.831   3.416   0.883 -0.1548 -0.0528 -0.3313
  170SOL    HW2  452   4.894   3.461   0.826  1.5188 -1.3959  0.3538
  170SOL    HW3  453   4.867   3.426   0.971 -0.6639 -1.2066  0.0351
  170SOL    MW4  454   4.844   3.423   0.887 -0.1283  0.0350 -0.1905
  171SOL     OW  455   0.254   2.759   5.728 -0.0681 -0.0285  0.2428
  171SOL    HW2  456   0.201   2.788   5.654 -1.1424 -0.8180  0.6728
  171SOL    HW3  457   0.205   2.786   5.806  0.5534 -0.0814  0.6670
  171SOL    MW4  458   0.241   2.766   5.729 -0.1747  0.2234 -0.3483
  172SOL     OW  459   2.019   3.325   2.043 -0.6057 -0.3388  0.1903
  172SOL    HW2  460   1.965   3.371   2.107 -0.6779  1.8596 -1.3193
  172SOL    HW3  461   1.990   3.358   1.958  2.4573  0.3239 -0.7527
  172SOL    MW4  462   2.008   3.336   2.040  0.2007  0.2453  0.4262
  173SOL     OW  463   5.816   6.306   3.835  0.0855  0.0729 -0.0967
  173SOL    HW2  464   5.893   6.258   3.804 -0.3447 -0.6128 -0.1420
  173SOL    HW3  465   5.774   6.337   3.755 -0.3646 -0.6460 -0.1466
  173SOL    MW4  466   5.821   6.304   3.820  0.1455 -0.2242  0.3958
  174SOL     OW  467   5.992   3.066   2.304  0.0960  0.1329 -0.3918
  174SOL    HW2  468   5.944   3.093   2.226  0.2995  1.6742 -0.0221
  174SOL    HW3  469   6.082   3.056   2.274  0.0098 -0.1826 -0.5453
  174SOL    MW4  470   5.998   3.068   2.290 -0.5478 -0.0969 -0.0683
  175SOL     OW  471   3.822   0.718   1.380 -0.7646  0.0083  0.3870
  175SOL    HW2  472   3.842   0.757   1.295 -1.4807  1.1938  0.7385
  175SOL    HW3  473   3.840   0.625   1.368 -0.8250  0.1494 -1.0607
  175SOL    MW4  474   3.827   0.711   1.367 -0.2916  0.6325 -0.0082
  176SOL     OW  475   4.133   1.924   1.385  0.6304 -0.0916  0.8545
  176SOL    HW2  476   4.190   1.914   1.461  0.8729 -1.6174  0.5228
  176SOL    HW3  477   4.133   1.837   1.344 -1.3462  0.0708  0.4218
  176SOL    MW4  478   4.140   1.911   1.389 -0.3528 -0.3441 -0.3477
  177SOL     OW  479   5.417   1.866   1.909  0.0788  0.1121  0.0301
  177SOL    HW2  480   5.474   1.827   1.976  0.3282 -1.1652 -0.8730
  177SOL    HW3  481   5.338   1.892   1.956  0.5430 -0.0906  0.9456
  177SOL    MW4  482   5.414   1.864   1.924 -0.8685  0.4053 -0.4501
  178SOL     OW  483   3.820   5.522   5.098 -0.5690 -0.2806  0.1048
  178SOL    HW2  484   3.846   5.469   5.173  0.8816  0.7849  0.4085
  178SOL    HW3  485   3.901   5.536   5.050 -1.1604  0.5563 -0.6768
  178SOL    MW4  486   3.834   5.517   5.102 -0.4610 -0.6980 -0.1301
  179SOL     OW  487   0.311   1.745   2.538  0.0498 -0.3340 -0.1146
  179SOL    HW2  488   0.314   1.702   2.452 -0.8991  0.7048 -0.6907
  179SOL    HW3  489   0.377   1.814   2.532  0.4399 -0.6699  0.2353
  179SOL    MW4  490   0.320   1.748   2.526  0.5310 -0.2328  0.1168
  180SOL     OW  491   4.608   2.972   5.170  0.1709 -0.1991  0.4054
  180SOL    HW2  492   4.651   3.056   5.184  1.3894 -0.9654  1.4973
  180SOL    HW3  493   4.515   2.993   5.166  0.5085  1.3277 -0.4825
  180SOL    MW4  494   4.601   2.986   5.171  0.1228 -0.1259 -0.1540
  181SOL     OW  495   0.256   2.730   2.980  0.2319 -0.2915 -0.3762
  181SOL    HW2  496   0.192   2.720   3.051 -1.0482  0.9417 -1.2908
  181SOL    HW3  497   0.296   2.816   2.995 -1.6301  1.0128 -2.2642
  181SOL    MW4  498   0.253   2.740   2.992  0.0300  0.1424 -0.7664
  182SOL     OW  499   4.824   6.230   0.389  0.6386 -0.0712 -0.4325
  182SOL    HW2  500   4.775   6.269   0.462  0.2389  0.1036 -0.7931
  182SOL    HW3  501   4.823   6.296   0.321  2.1777  0.3042 -0.1258
  182SOL    MW4  502   4.817   6.244   0.390  0.1241 -0.1234 -0.0446
  183SOL     OW  503   5.697   0.096   1.884 -0.0741 -0.4957  0.0365
  183SOL    HW2  504   5.769   0.034   1.877  0.4895  0.0065  1.1767
  183SOL    HW3  505   5.618   0.044   1.867  0.4043 -1.4912  0.8203
  183SOL    MW4  506   5.696   0.081   1.881 -0.2824  0.0726  0.0534
  184SOL     OW  507   1.693   0.054   5.952 -0.2200 -0.2914  1.1695
  184SOL    HW2  508   1.690  -0.042   5.951 -1.0119 -0.2671  0.6141
  184SOL    HW3  509   1.737   0.075   6.035  1.7423 -1.1637  0.4163
  184SOL    MW4  510   1.699   0.044   5.963 -0.3484  0.6187  0.3837
  185SOL     OW  511   3.390   1.806   0.456  0.2970  0.6999 -0.2745
  185SOL    HW2  512   3.342   1.889   0.448  0.4073  1.1204  2.5440
  185SOL    HW3  513   3.360   1.768   0.538  1.4177 -1.3251 -0.7282
  185SOL    MW4  514   3.380   1.812   0.466 -0.2608  0.3098  0.2657
  186SOL     OW  515   6.247   4.104   4.780  0.3020  0.3116  0.4865
  186SOL    HW2  516   6.209   4.039   4.839  0.6553  0.8247  1.3141
  186SOL    HW3  517   6.215   4.188   4.814  1.9011  0.7355  1.0243
  186SOL    MW4  518   6.238   4.107   4.793 -0.5015 -0.5650 -0.2520
  187SOL     OW  519   1.392   0.406   0.583  0.3808  0.2266 -0.3463
  187SOL    HW2  520   1.420   0.317   0.602 -1.8206 -0.3582  0.5210
  187SOL    HW3  521   1.470   0.459   0.595  1.5532 -1.4786 -0.0718
  187SOL    MW4  522   1.406   0.401   0.587 -0.2903  0.6323  0.1300
  188SOL     OW  523   2.791   0.883   5.324 -0.1048  0.6080  0.3253
  188SOL    HW2  524   2.774   0.925   5.408 -1.4836 -0.3216  0.5531
  188SOL    HW3  525   2.809   0.955   5.264  0.7556  1.2929  1.3689
  188SOL    MW4  526   2.791   0.898   5.327  0.3256  0.0176 -0.1942
  189SOL     OW  527   4.424   2.634   1.154 -0.0327  0.0136  0.0832
  189SOL    HW2  528   4.340   2.658   1.114 -0.2536  0.0709  0.5670
  189SOL    HW3  529   4.435   2.541   1.132 -0.1303  0.0565 -0.1464
  189SOL    MW4  530   4.414   2.625   1.146  0.1073 -0.1325  0.1068
  190SOL     OW  531   3.853   3.254   4.325 -0.5310 -0.1891 -0.2697
  190SOL    HW2  532   3.846   3.330   4.383 -2.1850 -0.8836  0.5033
  190SOL    HW3  533   3.787   3.269   4.258 -1.1426 -1.0915  0.1068
  190SOL    MW4  534   3.843   3.266   4.324 -0.1351  0.4126 -0.6922
  191SOL     OW  535   4.652   4.503   6.397 -0.1167  0.1187 -0.3231
  191SOL    HW2  536   4.622   4.499   6.488  1.3696  0.9845  0.2309
  191SOL    HW3  537   4.636   4.415   6.363  0.5959 -0.6400  1.2057
  191SOL    MW4  538   4.646   4.491   6.405 -0.5019  0.1445 -0.1805
  192SOL     OW  539   4.856   0.296   0.829 -0.5266 -0.0118 -0.1565
  192SOL    HW2  540   4.796   0.350   0.780 -2.1171 -1.2556  0.3423
  192SOL    HW3  541   4.902   0.244   0.763 -1.3932 -0.4287 -0.4366
  192SOL    MW4  542   4.854   0.296   0.814  0.5872  0.6930 -0.3667
  193SOL     OW  543   4.483   0.894   5.820 -0.2269  0.2106  0.6115
  193SOL    HW2  544   4.426   0.903   5.896  2.1183 -2.4513  2.9466
  193SOL    HW3  545   4.552   0.959   5.834  0.8092 -1.0286  1.4433
  193SOL    MW4  546   4.485   0.904   5.832  0.3828 -0.2530  0.1374
  194SOL     OW  547   1.654   4.975   1.060  0.0190 -0.0481 -0.3783
  194SOL    HW2  548   1.587   4.988   1.127 -0.0350  0.2422 -0.4873
  194SOL    HW3  549   1.730   4.940   1.108  0.8662  2.4767  0.2743
  194SOL    MW4  550   1.655   4.972   1.075  0.5552 -0.1275 -1.3682
  195SOL     OW  551   3.314   3.741   4.728 -1.2265 -0.4359  0.1387
  195SOL    HW2  552   3.381   3.744   4.796 -1.9285 -0.6387  0.8516
  195SOL    HW3  553   3.323   3.824   4.681  2.0324 -1.9276 -2.2775
  195SOL    MW4  554   3.324   3.753   4.731  0.4287 -0.0962 -0.4340
  196SOL     OW  555   4.121   4.334   4.754 -0.3568 -0.1710 -0.4258
  196SOL    HW2  556   4.070   4.260   4.721 -0.5448  0.2638 -1.1389
  196SOL    HW3  557   4.056   4.394   4.789 -0.0936 -1.0828  1.7362
  196SOL    MW4  558   4.106   4.333   4.754  0.2381 -0.1706 -0.3380
  197SOL     OW  559   2.377   5.400   5.979 -0.1667 -0.2921  0.1270
  197SOL    HW2  560   2.333   5.446   6.050 -1.0102 -1.1163  0.1644
  197SOL    HW3  561   2.470   5.401   6.003 -0.2312  0.8917  0.3863
  197SOL    MW4  562   2.384   5.406   5.992  0.5508 -0.4796  0.4792
  198SOL     OW  563   6.253   1.817   3.262  0.2906 -0.0377  0.2430
  198SOL    HW2  564   6.204   1.870   3.324  0.2075 -0.2608  0.3671
  198SOL    HW3  565   6.203   1.822   3.181  0.9585  1.1524 -0.1363
  198SOL    MW4  566   6.240   1.825   3.259 -0.4922 -0.4140 -0.1652
  199SOL     OW  567   6.085   6.164   2.965  0.7885  0.0959  0.3733
  199SOL    HW2  568   6.022   6.163   3.036  0.4125  0.3533  0.0478
  199SOL    HW3  569   6.170   6.164   3.008  0.5618  0.7861  0.8299
  199SOL    MW4  570   6.088   6.164   2.980 -0.3474  0.4497 -0.1752
  200SOL     OW  571   5.473   1.037   4.927 -0.1553 -0.1902 -0.2854
  200SOL    HW2  572   5.508   1.098   4.862 -0.1264 -0.0863 -0.1732
  200SOL    HW3  573   5.493   0.950   4.892  1.5365 -0.1540  0.4589
  200SOL    MW4  574   5.481   1.034   4.914  0.0837  0.4173 -0.8166
  201SOL     OW  575   5.019   3.315   5.768 -0.0056  0.0224 -0.2734
  201SOL    HW2  576   5.031   3.373   5.692 -1.4583 -0.6530 -1.0466
  201SOL    HW3  577   4.925   3.308   5.778  0.1659 -0.8476  0.8883
  201SOL    MW4  578   5.008   3.322   5.759  0.1287  0.1263  0.3151
  202SOL     OW  579   1.370   0.999   0.293  0.0733  0.5738 -0.7089
  202SOL    HW2  580   1.319   1.080   0.296  0.1161  0.5831 -0.0171
  202SOL    HW3  581   1.307   0.932   0.266 -0.1422  0.7074 -0.5457
  202SOL    MW4  582   1.355   1.001   0.290  0.1070 -0.4462 -0.0873
  203SOL     OW  583   5.254   4.725   0.543  0.1284  0.1899  0.3238
  203SOL    HW2  584   5.174   4.746   0.495 -0.1506  2.0059  1.4637
  203SOL    HW3  585   5.241   4.635   0.573 -1.2327  0.2552 -0.0073
  203SOL    MW4  586   5.242   4.716   0.541 -0.3580 -0.2128 -0.3321
  204SOL     OW  587   2.480   5.862   1.011  0.2316 -0.4630 -0.2411
  204SOL    HW2  588   2.438   5.856   0.924 -0.9980 -1.3758  0.3805
  204SOL    HW3  589   2.574   5.861   0.992  0.0047  0.4181 -1.6206
  204SOL    MW4  590   2.487   5.861   0.997  0.5459  0.3298 -1.0645
  205SOL     OW  591   3.155   2.016   2.518 -0.9669 -0.2177  0.8061
  205SOL    HW2  592   3.076   2.038   2.567 -1.4599 -0.3564  0.0913
  205SOL    HW3  593   3.126   2.013   2.427 -0.3435 -1.2131  0.6295
  205SOL    MW4  594   3.141   2.018   2.513  0.2957  0.4154  0.1851
  206SOL     OW  595   2.199   1.691   2.666 -0.0634 -0.6720  0.0403
  206SOL    HW2  596   2.169   1.656   2.750 -2.8188  1.1832 -0.0373
  206SOL    HW3  597   2.120   1.695   2.613  1.2569  0.1047 -1.9627
  206SOL    MW4  598   2.184   1.687   2.670  0.1940  0.0410 -0.0320
  207SOL     OW  599   4.791   0.454   1.273 -0.4367  0.8182 -0.8261
  207SOL    HW2  600   4.849   0.389   1.234 -0.6559  0.3580 -0.4039
  207SOL    HW3  601   4.843   0.534   1.278 -0.6051  1.0659 -2.6328
  207SOL    MW4  602   4.806   0.456   1.269 -0.0579  0.5615 -0.5435
  208SOL     OW  603   5.952   1.799   1.107  0.3391  0.0356 -0.2585
  208SOL    HW2  604   6.035   1.844   1.089  1.2216 -1.3359  0.2316
  208SOL    HW3  605   5.920   1.773   1.021  1.7018 -1.5958 -0.3145
  208SOL    MW4  606   5.959   1.802   1.093 -0.0706  0.0270  0.2101
  209SOL     OW  607   4.743   2.422   0.870  0.5623  0.6703  0.2172
  209SOL    HW2  608   4.720   2.449   0.959  0.6674 -0.3085  0.5550
  209SOL    HW3  609   4.694   2.340   0.857  1.8481 -0.0955  0.0208
  209SOL    MW4  610   4.734   2.414   0.880 -0.9349  0.3378 -0.0815
  210SOL     OW  611   2.550   6.110   3.780 -0.5373 -0.1498  0.4845
  210SOL    HW2  612   2.521   6.077   3.695 -1.1668 -0.1486  0.6873
  210SOL    HW3  613   2.524   6.202   3.780  1.0158  0.3121  0.0035
  210SOL    MW4  614   2.543   6.118   3.769 -0.8163 -0.4446  0.3033
  211SOL     OW  615   2.994   1.234   0.394 -0.0418  0.1748 -0.6648
  211SOL    HW2  616   2.984   1.259   0.486 -0.8889 -0.5593 -0.5452
  211SOL    HW3  617   2.958   1.145   0.389  2.3565 -0.8576 -1.1794
  211SOL    MW4  618   2.988   1.225   0.406 -0.0684 -0.3565  0.3825
  212SOL     OW  619   3.452   5.207   0.982 -0.1550 -0.4395 -0.1487
  212SOL    HW2  620   3.474   5.289   0.939 -2.4774  0.4454  0.2077
  212SOL    HW3  621   3.400   5.159   0.917  1.4915 -1.8776 -0.5039
  212SOL    MW4  622   3.448   5.212   0.968  0.2117  0.2196 -0.0634
  213SOL     OW  623   4.313   0.398   0.787 -0.1231 -0.5206 -0.8214
  213SOL    HW2  624   4.242   0.371   0.846 -0.8155  1.6292 -0.5728
  213SOL    HW3  625   4.280   0.479   0.746  2.5328  1.1115  0.0148
  213SOL    MW4  626   4.299   0.405   0.789 -0.4127 -0.4019 -0.4431
  214SOL     OW  627   0.135   0.775   1.064 -0.3512 -0.2222 -0.6790
  214SOL    HW2  628   0.160   0.817   1.145 -1.4748  0.7662 -0.8140
  214SOL    HW3  629   0.075   0.837   1.022 -1.8773 -1.8272 -1.0073
  214SOL    MW4  630   0.130   0.788   1.069  0.0588 -0.5003 -0.2065
  215SOL     OW  631   1.893   5.302   2.636 -0.4783 -0.5187 -0.5976
  215SOL    HW2  632   1.883   5.395   2.616 -3.7056 -0.7299 -0.5419
  215SOL    HW3  633   1.965   5.273   2.580 -1.2539  1.4537 -2.8088
  215SOL    MW4  634   1.901   5.310   2.626  0.0699 -0.5515 -0.3681
  216SOL     OW  635   3.943   4.439   3.604  0.1105 -0.0264 -0.0068
  216SOL    HW2  636   3.884   4.514   3.615  1.7292  1.9027 -3.0525
  216SOL    HW3  637   3.922   4.405   3.518  1.4468 -1.1679  0.0892
  216SOL    MW4  638   3.932   4.445   3.594 -0.3578 -0.0605  0.2918
  217SOL     OW  639   0.917   1.496   5.415 -0.0415  0.1202 -0.4265
  217SOL    HW2  640   0.838   1.545   5.435  0.1181  0.8797 -1.5296
  217SOL    HW3  641   0.952   1.469   5.500 -1.7994 -0.7719  0.0496
  217SOL    MW4  642   0.911   1.499   5.428  0.5487  0.0902 -0.6032
  218SOL     OW  643   3.686   4.451   3.946 -0.8162 -0.3003 -0.6766
  218SOL    HW2  644   3.705   4.414   3.859  0.0411 -0.6561 -0.3476
  218SOL    HW3  645   3.764   4.432   3.997 -1.8185 -1.2915  0.5651
  218SOL    MW4  646   3.699   4.443   3.941 -0.1381  0.3300 -0.0554
  219SOL     OW  647   0.161   3.856   1.093  0.0203 -0.3054 -0.1252
  219SOL    HW2  648   0.068   3.836   1.094 -0.2514  0.7856 -1.1249
  219SOL    HW3  649   0.172   3.915   1.018  1.1197  1.4098  1.3157
  219SOL    MW4  650   0.151   3.861   1.083  0.7455 -0.0627  0.3134
  220SOL     OW  651   5.794   1.248   1.338  0.2252 -0.3500  0.0708
  220SOL    HW2  652   5.818   1.158   1.315 -5.4591 -2.0942 -0.8788
  220SOL    HW3  653   5.755   1.283   1.258 -0.6129  1.6682  1.2954
  220SOL    MW4  654   5.792   1.240   1.324  0.0169 -0.4801  0.1122
  221SOL     OW  655   4.953   4.821   4.645 -0.1239  0.0515 -0.4639
  221SOL    HW2  656   4.875   4.766   4.654 -0.8404  0.8153 -1.7424
  221SOL    HW3  657   5.005   4.779   4.576  0.4346 -0.2552  0.1340
  221SOL    MW4  658   4.950   4.809   4.637 -0.3819 -0.1445  0.1940
  222SOL     OW  659   6.134   5.329   6.412  0.3397  0.4673 -0.7908
  222SOL    HW2  660   6.174   5.408   6.376  0.6403  0.3866 -0.6333
  222SOL    HW3  661   6.207   5.269   6.428  0.0011 -0.2818 -1.9801
  222SOL    MW4  662   6.149   5.331   6.410  0.1536 -0.3613  0.1905
  223SOL     OW  663   3.382   1.293   4.884 -0.2321 -0.0172 -0.5337
  223SOL    HW2  664   3.315   1.250   4.832 -0.3869 -1.3778  0.7178
  223SOL    HW3  665   3.362   1.269   4.975  0.0651  2.2004  0.1937
  223SOL    MW4  666   3.370   1.284   4.889 -0.0488 -0.0547 -0.3138
  224SOL     OW  667   0.159   0.886   2.461 -0.3955  0.7398 -0.3064
  224SOL    HW2  668   0.186   0.835   2.538  1.0966 -0.1687 -1.3568
  224SOL    HW3  669   0.064   0.877   2.457 -0.3862 -0.0162  0.8812
  224SOL    MW4  670   0.150   0.878   2.470 -0.2320  0.2233 -0.1357
  225SOL     OW  671   4.918   1.542   3.720 -0.7208 -0.0515  0.6073
  225SOL    HW2  672   4.862   1.478   3.677 -0.1138 -1.2159  1.5010
  225SOL    HW3  673   4.983   1.490   3.767  1.8462  1.1987 -1.2481
  225SOL    MW4  674   4.919   1.527   3.721 -0.3032 -0.2062 -0.0679
  226SOL     OW  675   4.838   4.498   1.400 -0.0103 -0.1974  0.0249
  226SOL    HW2  676   4.851   4.592   1.416 -0.2867 -0.3074  0.9836
  226SOL    HW3  677   4.748   4.481   1.428  0.8055 -1.2104  2.2529
  226SOL    MW4  678   4.828   4.508   1.406  0.0562 -0.0772 -0.3953
  227SOL     OW  679   0.127   0.383   2.130  0.1613 -0.4653 -0.4070
  227SOL    HW2  680   0.177   0.363   2.051  1.3231 -1.0617  0.4449
  227SOL    HW3  681   0.037   0.360   2.108  0.1572  0.9847 -2.1042
  227SOL    MW4  682   0.121   0.377   2.117 -0.2320  0.1128 -0.2306
  228SOL     OW  683   4.037   4.636   3.409 -0.3468  0.5461  0.1727
  228SOL    HW2  684   3.980   4.659   3.482 -1.4317  0.2614 -0.5638
  228SOL    HW3  685   3.999   4.682   3.333 -0.4968 -0.8425 -0.6237
  228SOL    MW4  686   4.024   4.645   3.408  0.3493 -0.3047 -0.0966
  229SOL     OW  687   6.139   1.908   1.763 -0.0445 -0.2834 -0.0558
  229SOL    HW2  688   6.216   1.942   1.718 -0.8706 -1.7918 -2.7951
  229SOL    HW3  689   6.077   1.981   1.762  1.1721  0.9028  2.0633
  229SOL    MW4  690   6.141   1.922   1.757 -0.1568  0.7722  0.0742
  230SOL     OW  691   3.891   0.071   1.409 -0.0530 -0.6160 -0.2912
  230SOL    HW2  692   3.966   0.115   1.370 -0.1388 -1.2661 -1.2281
  230SOL    HW3  693   3.829   0.062   1.337 -0.7399 -0.7115  0.3088
  230SOL    MW4  694   3.893   0.076   1.394  0.5198 -0.0001 -0.0315
  231SOL     OW  695   0.753   5.794   1.562 -0.4978 -0.1217 -0.1314
  231SOL    HW2  696   0.659   5.810   1.555 -0.3614  0.1138 -1.8142
  231SOL    HW3  697   0.781   5.775   1.473  0.9606 -0.7771  0.4282
  231SOL    MW4  698   0.744   5.793   1.550 -0.3739  0.4844  0.7501
  232SOL     OW  699   5.212   1.949   2.085 -0.2812 -0.1735  1.0827
  232SOL    HW2  700   5.164   2.019   2.041 -0.7007 -1.8144 -1.2361
  232SOL    HW3  701   5.143   1.890   2.118 -0.0127 -2.0291 -1.4075
  232SOL    MW4  702   5.196   1.951   2.084 -0.2686  0.0110  0.4549
  233SOL     OW  703   3.412   1.578   4.945  0.0881 -0.4324  0.1533
  233SOL    HW2  704   3.490   1.597   4.893  0.7721 -0.0620  1.2722
  233SOL    HW3  705   3.400   1.483   4.936  1.5646 -0.7545  1.1323
  233SOL    MW4  706   3.421   1.568   4.937  0.1771  0.9309 -0.1100
  234SOL     OW  707   2.431   6.112   0.451  0.4303  0.2878 -0.0990
  234SOL    HW2  708   2.482   6.192   0.451 -0.1120  0.6579 -1.2889
  234SOL    HW3  709   2.487   6.047   0.493  0.5667  1.4559  1.6314
  234SOL    MW4  710   2.445   6.114   0.457 -0.1784 -0.0638 -0.7155
  235SOL     OW  711   0.419   2.818   1.025 -0.1681 -0.3289  0.2265
  235SOL    HW2  712   0.373   2.857   0.951  0.0732 -0.9357 -0.2582
  235SOL    HW3  713   0.501   2.868   1.031 -0.5575  0.2675  0.6208
  235SOL    MW4  714   0.424   2.829   1.016 -0.5601  0.5250  0.2330
  236SOL     OW  715   4.863   3.228   2.308 -0.6385  0.4928 -0.1269
  236SOL    HW2  716   4.785   3.198   2.262  0.4775  0.0254 -1.8280
  236SOL    HW3  717   4.919   3.151   2.312 -0.5114  0.6523  1.6639
  236SOL    MW4  718   4.860   3.214   2.302  0.5670  0.1547  0.2176
  237SOL     OW  719   4.778   4.348   5.314  0.1306 -0.3431 -0.1425
  237SOL    HW2  720   4.767   4.257   5.339 -1.1359  0.2239  1.5474
  237SOL    HW3  721   4.705   4.365   5.253  0.1270 -0.3511 -0.1402
  237SOL    MW4  722   4.767   4.338   5.309  0.5437 -0.1617 -0.4548
  238SOL     OW  723   0.995   2.028   6.271  0.0670 -0.1876  0.8340
  238SOL    HW2  724   1.012   1.988   6.356  0.9429  0.2335  0.8782
  238SOL    HW3  725   0.941   2.105   6.292  2.6215  1.6078  1.4463
  238SOL    MW4  726   0.990   2.033   6.285 -0.1222 -0.3017  0.0890
  239SOL     OW  727   4.568   1.654   5.019  0.6082 -0.3319  0.6596
  239SOL    HW2  728   4.642   1.696   5.063  0.4567 -1.4710  2.0769
  239SOL    HW3  729   4.608   1.587   4.964  0.7603  0.7085 -0.5363
  239SOL    MW4  730   4.583   1.651   5.017  0.5192 -0.0137  0.4450
  240SOL     OW  731   6.160   6.050   0.548  0.2670 -0.0377 -0.9733
  240SOL    HW2  732   6.066   6.046   0.530  0.0115 -0.0221  0.2759
  240SOL    HW3  733   6.172   6.129   0.600  0.4851 -1.5132  1.3777
  240SOL    MW4  734   6.149   6.060   0.553  0.0823 -0.0948 -0.2392
  241SOL     OW  735   0.821   5.065   1.775 -0.1705 -0.7515  0.6708
  241SOL    HW2  736   0.855   5.075   1.864 -3.3275  1.8131  1.7623
  241SOL    HW3  737   0.844   5.147   1.731 -1.3386 -0.7018  0.1360
  241SOL    MW4  738   0.829   5.077   1.781  0.5212 -0.2031  0.2207
  242SOL     OW  739   6.372   0.620   2.522 -0.4961 -0.2053  0.1387
  242SOL    HW2  740   6.280   0.636   2.502 -0.5704 -1.5751 -0.7995
  242SOL    HW3  741   6.412   0.604   2.436  0.3680 -0.8102  0.6430
  242SOL    MW4  742   6.365   0.620   2.508 -0.3087 -0.4093 -0.1865
  243SOL     OW  743   5.966   0.153   5.261 -0.3507  0.0323 -0.4197
  243SOL    HW2  744   5.983   0.196   5.345  0.1413 -0.8614 -0.0486
  243SOL    HW3  745   5.975   0.223   5.197  1.1716  0.3628  0.1058
  243SOL    MW4  746   5.970   0.168   5.264  0.0146 -0.1956  0.2739
  244SOL     OW  747   3.493   0.664   1.270  0.1365  0.2197 -0.3275
  244SOL    HW2  748   3.456   0.732   1.214  1.7782  1.1424 -0.3430
  244SOL    HW3  749   3.524   0.711   1.347 -0.9482 -0.8675  0.8212
  244SOL    MW4  750   3.492   0.679   1.273 -0.2675 -0.2981 -0.1901
  245SOL     OW  751   1.215   2.359   5.970  0.2654  0.5766 -0.1164
  245SOL    HW2  752   1.202   2.328   5.880  0.3609 -0.2898  0.1594
  245SOL    HW3  753   1.297   2.408   5.967 -0.9784  2.7892 -1.0422
  245SOL    MW4  754   1.224   2.362   5.958  0.8214 -0.1708  0.2672
  246SOL     OW  755   2.643   1.038   1.747 -0.2277 -0.0541  0.1376
  246SOL    HW2  756   2.678   1.089   1.820 -1.4122 -1.3828  1.7175
  246SOL    HW3  757   2.550   1.061   1.743 -0.1836 -0.0225 -0.9398
  246SOL    MW4  758   2.635   1.048   1.756  0.1900 -0.2927  0.3649
  247SOL     OW  759   3.365   2.509   4.011  0.5587  0.1687 -0.1353
  247SOL    HW2  760   3.441   2.465   4.050  1.3439  0.7243 -1.0211
  247SOL    HW3  761   3.293   2.491   4.073  1.2035 -1.0731  0.2852
  247SOL    MW4  762   3.365   2.501   4.024  0.4334  0.5220 -0.8266
  248SOL     OW  763   5.092   2.083   1.516  0.7127 -0.3313  0.4921
  248SOL    HW2  764   5.137   2.105   1.434  1.5173 -0.0875  0.9963
  248SOL    HW3  765   5.081   2.167   1.560 -0.6709 -0.3211  0.1689
  248SOL    MW4  766   5.096   2.097   1.511  0.2310  0.0252 -0.4963
  249SOL     OW  767   2.023   6.343   0.287 -0.0360  0.2110  0.0928
  249SOL    HW2  768   2.024   6.255   0.249 -0.0543  0.0823  0.3886
  249SOL    HW3  769   2.080   6.337   0.363  0.3476  0.5805 -0.1616
  249SOL    MW4  770   2.031   6.331   0.292 -0.4407 -0.2678 -0.0477
  250SOL     OW  771   5.561   2.915   1.752 -0.1152 -0.0375 -0.0037
  250SOL    HW2  772   5.578   3.003   1.718 -1.9224  0.0696 -0.7074
  250SOL    HW3  773   5.574   2.858   1.677  1.9354 -0.5250  0.6594
  250SOL    MW4  774   5.565   2.919   1.738  0.3450 -0.7603  0.4512
  251SOL     OW  775   1.298   1.051   2.016  0.0961 -0.1303 -0.4818
  251SOL    HW2  776   1.300   1.070   2.109 -1.5443 -0.9543 -0.2388
  251SOL    HW3  777   1.284   0.956   2.011 -0.0036 -0.0729 -1.5501
  251SOL    MW4  778   1.296   1.041   2.027  0.0360 -0.4298 -0.3678
  252SOL     OW  779   2.931   4.153   5.848  0.1304  0.1150  0.0139
  252SOL    HW2  780   3.026   4.155   5.844  0.1492 -0.6066 -0.2456
  252SOL    HW3  781   2.905   4.238   5.884  0.7685  1.1510 -1.8550
  252SOL    MW4  782   2.940   4.164   5.852  0.1949 -0.7943  0.9091
  253SOL     OW  783   1.754   6.111   4.840  0.3143  0.1211 -0.2530
  253SOL    HW2  784   1.800   6.150   4.915 -0.4606  0.5938 -0.0011
  253SOL    HW3  785   1.806   6.035   4.816  1.3430  0.7660 -0.1289
  253SOL    MW4  786   1.767   6.106   4.847  0.2201  0.0180 -0.8822
  254SOL     OW  787   2.546   0.082   0.749  0.4181  0.0439 -0.7388
  254SOL    HW2  788   2.621   0.110   0.801  0.5654  0.4317 -1.1519
  254SOL    HW3  789   2.498   0.163   0.732  0.5159 -0.0361 -1.4307
  254SOL    MW4  790   2.549   0.096   0.753  0.1267 -0.5914  0.9958
  255SOL     OW  791   0.948   5.944   4.088 -0.7017  0.4541 -0.0472
  255SOL    HW2  792   0.882   5.926   4.020  1.0977 -2.1131 -1.2619
  255SOL    HW3  793   1.025   5.973   4.040 -0.2916  1.4647  1.1734
  255SOL    MW4  794   0.949   5.945   4.073  0.1436  0.7145 -0.1269
  256SOL     OW  795   1.395   6.190   2.588 -0.0380  0.3812 -0.1587
  256SOL    HW2  796   1.378   6.277   2.553 -1.1406  0.7890  1.2906
  256SOL    HW3  797   1.472   6.200   2.645  0.1453  0.2945 -0.3902
  256SOL    MW4  798   1.403   6.203   2.591  0.3565 -0.2031 -0.4686
  257SOL     OW  799   1.529   2.506   5.714  0.8645 -0.5554  0.2698
  257SOL    HW2  800   1.519   2.420   5.674  1.7023 -0.4514 -0.1835
  257SOL    HW3  801   1.501   2.567   5.646 -0.3250 -0.4901  0.8079
  257SOL    MW4  802   1.524   2.503   5.700  0.0593  0.3673  0.2541
  258SOL     OW  803   4.917   4.951   3.787 -0.3553 -0.1575 -0.2347
  258SOL    HW2  804   4.921   4.906   3.871  1.1869 -2.0485 -1.2243
  258SOL    HW3  805   5.006   4.943   3.752 -0.5508  2.0135 -1.3497
  258SOL    MW4  806   4.930   4.944   3.793 -0.4582 -0.0525  0.0906
  259SOL     OW  807   2.994   4.547   4.743 -1.1770  0.6525 -0.0909
  259SOL    HW2  808   3.020   4.511   4.827 -3.1140  1.3651  0.8831
  259SOL    HW3  809   3.031   4.635   4.741 -0.5752  0.4021 -0.3012
  259SOL    MW4  810   3.002   4.554   4.754  0.0382  0.2071  0.4889
  260SOL     OW  811   6.091   6.008   4.952  0.3235  0.0464  0.0500
  260SOL    HW2  812   6.065   6.011   4.860 -0.4117  2.0163  0.2868
  260SOL    HW3  813   6.008   6.014   5.000  0.6368 -1.6443  0.8751
  260SOL    MW4  814   6.077   6.009   4.946 -0.0334  0.2201  0.2905
  261SOL     OW  815   3.357   2.346   3.226 -0.4540  0.6804  0.5065
  261SOL    HW2  816   3.271   2.383   3.249 -1.0532  0.5079 -1.2355
  261SOL    HW3  817   3.408   2.421   3.195 -0.3377  0.6392  0.6011
  261SOL    MW4  818   3.352   2.361   3.225 -0.0396  0.1566  0.1512
  262SOL     OW  819   3.867   3.069   3.232 -0.3887 -0.0445  0.7250
  262SOL    HW2  820   3.957   3.065   3.265 -0.5352 -0.4776  1.0789
  262SOL    HW3  821   3.825   3.137   3.284 -0.0864  0.6424  0.0971
  262SOL    MW4  822   3.873   3.077   3.243  0.1959  0.1754  0.5192
  263SOL     OW  823   2.197   2.749   1.649 -0.2644  0.0237 -0.1372
  263SOL    HW2  824   2.148   2.672   1.621  0.4252 -0.8437  0.9346
  263SOL    HW3  825   2.149   2.780   1.726  0.3019 -0.2679  0.3459
  263SOL    MW4  826   2.184   2.743   1.656 -0.1440  0.4185 -0.4200
  264SOL     OW  827   4.625   6.016   2.002  0.4809 -0.0139  0.0122
  264SOL    HW2  828   4.624   5.995   1.909  0.5360  1.7969 -0.4229
  264SOL    HW3  829   4.685   5.952   2.040  0.2156 -0.9759 -1.1253
  264SOL    MW4  830   4.633   6.005   1.995 -0.2122 -0.0468  0.7486
  265SOL     OW  831   5.058   2.177   1.964 -0.2535 -0.4192 -0.2032
  265SOL    HW2  832   5.107   2.189   1.883  1.0444 -1.7913  0.3406
  265SOL    HW3  833   4.974   2.140   1.936 -0.2954  0.2250 -0.9875
  265SOL    MW4  834   5.053   2.174   1.950  0.0920 -0.2628 -0.6124
  266SOL     OW  835   1.893   1.675   1.546 -0.5216  0.2630  0.0502
  266SOL    HW2  836   1.907   1.768   1.528  0.0675  0.3058  0.6862
  266SOL    HW3  837   1.798   1.665   1.546 -0.6033  0.9588  0.3958
  266SOL    MW4  838   1.882   1.686   1.544 -0.0241  0.0459 -0.4169
  267SOL     OW  839   3.789   5.491   1.390  0.4996  0.2210 -0.0179
  267SOL    HW2  840   3.871   5.450   1.361 -0.4518 -1.4033 -0.5792
  267SOL    HW3  841   3.721   5.443   1.343 -0.8528  0.5547  1.5189
  267SOL    MW4  842   3.791   5.479   1.380 -0.0232  0.0661 -0.1708
  268SOL     OW  843   4.511   0.283   5.574  0.4207  0.0309  0.4368
  268SOL    HW2  844   4.528   0.274   5.480 -0.8562 -1.8121  0.3268
  268SOL    HW3  845   4.459   0.363   5.582  0.7464  0.3368 -0.3815
  268SOL    MW4  846   4.506   0.292   5.563 -0.1252 -0.0028 -0.2417
  269SOL     OW  847   0.573   2.915   2.189 -0.2159  0.4105  0.2497
  269SOL    HW2  848   0.583   2.850   2.120 -1.9335  1.1222 -0.7337
  269SOL    HW3  849   0.660   2.955   2.196  1.1845 -2.5619  1.6034
  269SOL    MW4  850   0.586   2.912   2.181 -0.0285 -0.3270  0.1098
  270SOL     OW  851   2.195   4.126   5.055 -0.0823  0.0071 -0.3709
  270SOL    HW2  852   2.120   4.184   5.070  0.0813  0.0227  0.4508
  270SOL    HW3  853   2.203   4.121   4.960 -0.0447  1.4050 -0.4640
  270SOL    MW4  854   2.186   4.133   5.045 -0.5098  0.1392 -0.8563
  271SOL     OW  855   1.290   6.183   3.575  0.1489 -0.3632  0.4343
  271SOL    HW2  856   1.254   6.209   3.491  0.4876 -0.1736  0.3465
  271SOL    HW3  857   1.215   6.182   3.635  0.2762  1.8230  0.6921
  271SOL    MW4  858   1.276   6.186   3.572  0.3300 -0.1276  0.1251
  272SOL     OW  859   3.417   0.754   4.886  0.5575 -0.1077  0.1374
  272SOL    HW2  860   3.388   0.673   4.927 -0.3696 -0.6218 -1.4530
  272SOL    HW3  861   3.512   0.745   4.879  0.3149 -1.8342 -1.5428
  272SOL    MW4  862   3.426   0.742   4.890 -0.0803 -0.4500 -0.2757
  273SOL     OW  863   4.589   3.027   6.400 -0.5885 -0.2125  0.1095
  273SOL    HW2  864   4.582   3.076   6.318 -0.1220 -1.0410 -0.4429
  273SOL    HW3  865   4.657   3.073   6.450  0.6953 -0.9529 -0.8995
  273SOL    MW4  866   4.597   3.039   6.396  0.1652  0.1858 -0.1239
  274SOL     OW  867   5.578   0.039   4.184 -0.1052 -0.1342 -0.0339
  274SOL    HW2  868   5.657  -0.014   4.188 -0.4091 -0.5107  1.5432
  274SOL    HW3  869   5.610   0.129   4.197  0.3428  0.0597 -2.1526
  274SOL    MW4  870   5.593   0.044   4.186 -0.3551 -0.0704 -0.1488
  275SOL     OW  871   6.322   5.928   5.936  0.6071 -0.2463  0.6501
  275SOL    HW2  872   6.262   5.892   6.002  0.7880 -0.8994  0.4611
  275SOL    HW3  873   6.376   5.854   5.909 -0.4876 -0.3801 -1.3712
  275SOL    MW4  874   6.321   5.913   5.941 -0.6064  0.4533  0.5496
  276SOL     OW  875   3.561   4.959   6.367 -0.9291 -0.3842 -0.1942
  276SOL    HW2  876   3.527   4.965   6.277 -2.7674  1.2614  0.5396
  276SOL    HW3  877   3.608   5.041   6.380 -1.2727 -0.3071  0.5767
  276SOL    MW4  878   3.563   4.971   6.357  0.4876 -0.2727  0.4401
  277SOL     OW  879   5.579   1.001   2.696  0.1082 -0.3913 -0.0638
  277SOL    HW2  880   5.594   0.919   2.650  0.0607 -0.2797 -0.2811
  277SOL    HW3  881   5.484   1.016   2.690  0.3996  0.9353 -2.2118
  277SOL    MW4  882   5.568   0.992   2.689 -0.0344 -0.5450  0.6777
  278SOL     OW  883   1.492   0.656   6.103 -0.2361 -0.1894  0.1270
  278SOL    HW2  884   1.520   0.678   6.015 -0.2196  1.0573  0.4214
  278SOL    HW3  885   1.571   0.667   6.157 -0.8681  1.8346  0.7168
  278SOL    MW4  886   1.506   0.661   6.099  0.4010  0.1195  0.2335
  279SOL     OW  887   0.470   6.222   4.741  0.0388  0.2182 -0.3494
  279SOL    HW2  888   0.534   6.165   4.784  1.5425  1.9762 -0.0973
  279SOL    HW3  889   0.459   6.184   4.654 -0.3009 -1.3632  0.3445
  279SOL    MW4  890   0.477   6.209   4.735 -0.0200 -0.4071 -0.1072
  280SOL     OW  891   5.246   1.488   6.247 -0.1554 -0.0902  0.2817
  280SOL    HW2  892   5.248   1.392   6.253 -3.1122 -0.5648 -2.8536
  280SOL    HW3  893   5.158   1.512   6.276 -0.4792  1.2741 -1.6239
  280SOL    MW4  894   5.235   1.478   6.251 -0.6256 -0.0449 -0.3646
  281SOL     OW  895   5.296   1.519   5.604  0.3634 -0.1076 -0.0035
  281SOL    HW2  896   5.252   1.531   5.520 -0.2589 -1.0778  0.1779
  281SOL    HW3  897   5.273   1.597   5.654 -1.4487 -0.7353  0.2102
  281SOL    MW4  898   5.287   1.531   5.599  0.3681 -1.4762  0.4349
  282SOL     OW  899   2.684   5.240   1.367  0.4146 -0.2294 -0.1144
  282SOL    HW2  900   2.713   5.289   1.290  1.9377 -0.4173  0.3025
  282SOL    HW3  901   2.686   5.149   1.339  0.2282 -0.2418 -0.0841
  282SOL    MW4  902   2.688   5.235   1.353 -0.6069  0.2809 -0.7287
  283SOL     OW  903   4.250   1.967   2.493 -0.1833  0.0455 -0.4372
  283SOL    HW2  904   4.203   1.938   2.415 -1.3548  0.5792  0.0440
  283SOL    HW3  905   4.211   1.915   2.564  0.7526 -0.3116 -0.1733
  283SOL    MW4  906   4.239   1.956   2.492  0.0050 -0.1738 -0.5976
  284SOL     OW  907   0.546   6.000   1.993  0.1657  0.3921 -0.4574
  284SOL    HW2  908   0.455   5.974   2.002 -0.1974  1.9493  0.7602
  284SOL    HW3  909   0.544   6.076   1.935  0.9817 -0.9270 -2.3121
  284SOL    MW4  910   0.534   6.007   1.987  0.3064 -0.2472 -0.3390
  285SOL     OW  911   0.323   5.145   5.511 -0.3793 -0.1671  0.5440
  285SOL    HW2  912   0.332   5.221   5.568 -0.7330 -0.4274  0.9513
  285SOL    HW3  913   0.241   5.160   5.464  0.8457  0.9979 -1.3433
  285SOL    MW4  914   0.313   5.157   5.512 -0.1022  0.9164 -0.0716
  286SOL     OW  915   3.038   4.092   0.950 -0.0847  0.1773 -0.5874
  286SOL    HW2  916   3.102   4.045   1.003 -1.0037 -0.7139 -0.2254
  286SOL    HW3  917   3.057   4.066   0.860 -0.0302 -0.1986 -0.4676
  286SOL    MW4  918   3.049   4.082   0.945  0.4466 -0.1184  0.2136
  287SOL     OW  919   3.827   2.972   3.912 -0.5824  0.0619  0.4450
  287SOL    HW2  920   3.747   2.937   3.952 -0.4309  0.0032  0.6967
  287SOL    HW3  921   3.898   2.918   3.948 -0.5155 -0.5175 -0.5193
  287SOL    MW4  922   3.826   2.960   3.922 -0.2921  0.4956 -0.3345
  288SOL     OW  923   0.727   2.249   4.275 -0.3474 -0.6384 -0.0618
  288SOL    HW2  924   0.784   2.180   4.240  0.0114 -0.8539  0.9272
  288SOL    HW3  925   0.787   2.316   4.306 -0.6988  0.4460 -1.5807
  288SOL    MW4  926   0.742   2.249   4.274  0.1896 -0.4498  0.3165
  289SOL     OW  927   2.717   5.952   2.271 -0.1115  0.3719  0.2192
  289SOL    HW2  928   2.758   6.031   2.307  0.6730 -0.1143  0.4319
  289SOL    HW3  929   2.648   5.930   2.333 -0.3999  0.9511  0.1036
  289SOL    MW4  930   2.713   5.959   2.284 -0.1470  0.9089  0.8150
  290SOL     OW  931   3.075   5.376   2.381 -0.1206  0.1211  0.0970
  290SOL    HW2  932   3.112   5.291   2.357 -0.0430  0.3043 -0.4602
  290SOL    HW3  933   2.984   5.356   2.403  0.0526 -0.1913  0.5474
  290SOL    MW4  934   3.068   5.362   2.381 -0.0108 -0.1127 -0.1575
  291SOL     OW  935   2.059   5.024   0.643 -0.1282 -0.1461  0.4398
  291SOL    HW2  936   1.965   5.042   0.648  0.2151  1.5543  1.5271
  291SOL    HW3  937   2.094   5.057   0.725  1.8856  2.4069 -1.2785
  291SOL    MW4  938   2.051   5.031   0.654  0.0430  0.1382  0.3530
  292SOL     OW  939   3.206   4.951   2.116  0.1329  0.0377  0.0780
  292SOL    HW2  940   3.265   4.879   2.139 -0.4722 -0.3460  0.4704
  292SOL    HW3  941   3.202   5.005   2.195  0.2065  0.2354 -0.0535
  292SOL    MW4  942   3.213   4.949   2.130 -0.3943  0.0495 -0.0631
  293SOL     OW  943   5.812   0.564   6.001  0.4141 -0.1336 -0.4676
  293SOL    HW2  944   5.785   0.650   6.034 -1.5639 -0.2835 -1.5244
  293SOL    HW3  945   5.740   0.506   6.024  1.8085 -1.6064  0.4016
  293SOL    MW4  946   5.799   0.568   6.008  0.0665  0.3153 -0.2437
  294SOL     OW  947   0.117   3.559   2.669 -0.1480  0.5557  0.2981
  294SOL    HW2  948   0.096   3.637   2.720 -0.2343  0.0070  1.1300
  294SOL    HW3  949   0.117   3.589   2.578  0.7168  1.7186  0.6540
  294SOL    MW4  950   0.115   3.573   2.664 -0.2223 -0.3112  0.0454
  295SOL     OW  951   5.916   3.533   4.020 -0.2150 -0.0232  0.3015
  295SOL    HW2  952   5.879   3.619   4.037 -0.9052 -0.5928  1.8663
  295SOL    HW3  953   5.954   3.540   3.933  0.4272  2.0842  0.6895
  295SOL    MW4  954   5.916   3.545   4.011  0.7969 -0.0784 -0.0266
  296SOL     OW  955   5.511   6.019   2.662 -0.0978  0.4727 -0.3041
  296SOL    HW2  956   5.450   6.028   2.590 -0.7860 -0.5741  0.1200
  296SOL    HW3  957   5.573   5.952   2.633 -0.4367 -0.0264  0.0971
  296SOL    MW4  958   5.511   6.011   2.649 -0.7047  0.3413 -0.0599
  297SOL     OW  959   4.099   4.858   4.915  0.2234  0.2813  0.2105
  297SOL    HW2  960   4.138   4.774   4.939  0.9769  0.2635 -1.0130
  297SOL    HW3  961   4.053   4.841   4.833 -0.7919  0.7603  0.6621
  297SOL    MW4  962   4.098   4.845   4.907 -0.7970  0.4428  0.3613
  298SOL     OW  963   4.792   3.454   4.796  0.3978 -0.1952 -0.1478
  298SOL    HW2  964   4.812   3.361   4.799  2.9026  0.2530 -0.0855
  298SOL    HW3  965   4.745   3.466   4.714  1.7254 -1.2907 -1.1323
  298SOL    MW4  966   4.789   3.444   4.785 -0.0205  0.3167  0.2641
  299SOL     OW  967   2.922   3.891   4.545 -0.2979  0.7507  0.0739
  299SOL    HW2  968   2.984   3.823   4.517  1.0978  0.7488  2.8153
  299SOL    HW3  969   2.857   3.845   4.597 -1.4828  1.0706 -1.0540
  299SOL    MW4  970   2.922   3.876   4.548 -0.3207 -0.3387  0.6610
  300SOL     OW  971   2.122   3.271   6.159 -0.3931 -0.5282  0.3560
  300SOL    HW2  972   2.153   3.192   6.115 -2.0140 -1.0702  0.1325
  300SOL    HW3  973   2.135   3.341   6.094  1.8720 -0.4085  0.8766
  300SOL    MW4  974   2.128   3.270   6.144 -0.7384 -0.1072  0.2867
  301SOL     OW  975   6.219   6.258   5.347  0.4159 -0.5783 -0.1382
  301SOL    HW2  976   6.296   6.313   5.358  0.6795 -1.4116  2.9274
  301SOL    HW3  977   6.151   6.301   5.398 -0.4592 -1.1516 -0.7847
  301SOL    MW4  978   6.220   6.271   5.355 -0.2952  0.2548 -0.3475
  302SOL     OW  979   5.484   0.745   0.197 -0.3558 -0.1712  0.6828
  302SOL    HW2  980   5.415   0.693   0.239  0.2331 -0.9031  0.7654
  302SOL    HW3  981   5.564   0.695   0.211 -0.0840 -0.2896 -1.0476
  302SOL    MW4  982   5.486   0.732   0.204 -0.2805 -0.1132 -0.2635
  303SOL     OW  983   6.252   2.608   1.487 -0.0725  0.2052 -0.6939
  303SOL    HW2  984   6.170   2.625   1.439 -0.1230 -0.3271 -0.8043
  303SOL    HW3  985   6.256   2.513   1.493  1.5039  0.1023 -2.4004
  303SOL    MW4  986   6.242   2.598   1.481  0.5102  0.7038  0.6974
  304SOL     OW  987   5.241   2.956   4.492 -0.0571 -0.6954 -0.0406
  304SOL    HW2  988   5.170   2.943   4.555  0.6073  0.9320  1.1157
  304SOL    HW3  989   5.246   2.873   4.445 -1.4813 -1.4998  1.1237
  304SOL    MW4  990   5.232   2.943   4.494  0.0826  0.1133  0.4562
  305SOL     OW  991   4.059   0.244   2.696 -0.0809 -0.2336 -0.2499
  305SOL    HW2  992   4.040   0.338   2.700 -1.6620 -0.3256 -3.0467
  305SOL    HW3  993   3.974   0.202   2.712  0.5754 -1.2266  0.7948
  305SOL    MW4  994   4.045   0.251   2.699 -0.4693 -0.5932  0.2142
  306SOL     OW  995   0.888   1.976   5.009  0.0506 -0.1902  0.2392
  306SOL    HW2  996   0.894   2.032   4.931  1.5491  0.3948  0.7417
  306SOL    HW3  997   0.937   1.897   4.985  0.2109 -0.1593  0.4677
  306SOL    MW4  998   0.895   1.973   4.996 -0.3154  0.0167  0.7489
  307SOL     OW  999   2.390   1.463   2.142 -0.4965 -0.2934 -0.5386
  307SOL    HW2 1000   2.460   1.517   2.105 -0.8547 -0.0944 -0.9356
  307SOL    HW3 1001   2.318   1.524   2.155 -0.6148 -0.5070 -0.1690
  307SOL    MW4 1002   2.390   1.479   2.139 -0.7269 -0.1004  0.1554
  308SOL     OW 1003   3.052   2.544   2.056  0.4118  0.3333  0.2609
  308SOL    HW2 1004   3.092   2.483   2.119  2.6821  1.4705  0.0137
  308SOL    HW3 1005   3.037   2.624   2.106 -0.8587  0.2065  0.1236
  308SOL    MW4 1006   3.055   2.546   2.071 -0.2219 -0.0736 -0.0624
  309SOL     OW 1007   4.932   0.827   0.882  0.6706 -0.9045  0.3322
  309SOL    HW2 1008   4.970   0.744   0.854  1.0437 -0.7418  0.3508
  309SOL    HW3 1009   4.898   0.809   0.970 -1.0808 -1.5920 -0.4516
  309SOL    MW4 1010   4.933   0.814   0.890  0.5844  0.2594 -0.3836
  310SOL     OW 1011   2.865   2.383   0.959 -0.4251  0.0084  0.0821
  310SOL    HW2 1012   2.877   2.416   1.048 -1.0820  0.4968  0.0006
  310SOL    HW3 1013   2.951   2.389   0.918  0.0932 -1.1212  0.9757
  310SOL    MW4 1014   2.878   2.389   0.965  0.1293 -0.0567 -0.6961
  311SOL     OW 1015   1.834   2.706   0.865 -0.1214 -0.1330 -0.4738
  311SOL    HW2 1016   1.841   2.636   0.930 -0.2778  0.3177  0.0372
  311SOL    HW3 1017   1.915   2.756   0.874 -1.3304  1.6905  1.4771
  311SOL    MW4 1018   1.845   2.704   0.875  0.5245  0.2070  0.0272
  312SOL     OW 1019   5.246   5.509   6.202 -0.3603  0.4466 -0.1880
  312SOL    HW2 1020   5.262   5.450   6.275  0.0383  0.8534  0.0555
  312SOL    HW3 1021   5.152   5.502   6.186 -0.8845  1.9868  1.7993
  312SOL    MW4 1022   5.235   5.500   6.210 -0.2885  0.5390 -0.1323
  313SOL     OW 1023   5.161   4.460   2.577 -0.8213  0.2173  0.1804
  313SOL    HW2 1024   5.169   4.408   2.657 -0.6478 -0.0407 -0.0036
  313SOL    HW3 1025   5.100   4.410   2.522 -0.0182 -0.2161 -0.3321
  313SOL    MW4 1026   5.154   4.446   2.580 -0.2828 -0.0232 -0.0857
  314SOL     OW 1027   1.580   5.863   2.910 -0.1030 -0.4780  0.5765
  314SOL    HW2 1028   1.593   5.773   2.939  2.3338 -0.5149 -0.4155
  314SOL    HW3 1029   1.575   5.914   2.991  2.4037 -1.0738  1.1794
  314SOL    MW4 1030   1.581   5.858   2.924  0.2506  0.4261  0.4456
  315SOL     OW 1031   5.754   0.837   0.529 -0.3279 -0.5560  0.4698
  315SOL    HW2 1032   5.822   0.787   0.484 -0.9586 -1.2672  0.2753
  315SOL    HW3 1033   5.732   0.907   0.469 -0.0110 -0.5304  0.3822
  315SOL    MW4 1034   5.760   0.839   0.515  0.3840 -0.3970 -0.3691
  316SOL     OW 1035   5.216   4.360   5.805 -0.2513 -0.4409 -0.3059
  316SOL    HW2 1036   5.202   4.305   5.728  0.9285  0.1692 -0.9950
  316SOL    HW3 1037   5.275   4.310   5.860 -0.1821 -0.3927 -0.3365
  316SOL    MW4 1038   5.222   4.346   5.802  0.1362 -0.2594 -0.3235
  317SOL     OW 1039   2.695   0.904   3.229  0.1524 -0.7645 -0.0472
  317SOL    HW2 1040   2.654   0.825   3.265  0.3122 -1.2504 -0.9125
  317SOL    HW3 1041   2.625   0.970   3.231 -0.2399 -1.1744 -0.1423
  317SOL    MW4 1042   2.680   0.902   3.234 -0.1419 -0.0999 -0.5162
  318SOL     OW 1043   5.726   1.487   2.413 -0.2089 -0.4240  0.3730
  318SOL    HW2 1044   5.770   1.497   2.497  1.0873  0.8825 -0.4263
  318SOL    HW3 1045   5.707   1.393   2.408  0.4433 -0.6651  1.7413
  318SOL    MW4 1046   5.729   1.476   2.423 -0.7698 -0.4741  0.1756
  319SOL     OW 1047   5.159   3.309   4.398 -0.2039  0.4450  0.7180
  319SOL    HW2 1048   5.192   3.297   4.487  1.2838  1.7313  0.3984
  319SOL    HW3 1049   5.097   3.382   4.405  0.1168  0.7271  0.6792
  319SOL    MW4 1050   5.155   3.317   4.411 -0.2062  0.0499  0.2147
  320SOL     OW 1051   5.065   4.879   0.427 -0.2891 -0.3672  0.0354
  320SOL    HW2 1052   5.072   4.955   0.369 -1.5621 -0.8413 -0.7772
  320SOL    HW3 1053   5.025   4.914   0.507 -0.5220 -0.1083 -0.1906
  320SOL    MW4 1054   5.061   4.894   0.430 -0.2984 -0.2163  0.2964
  321SOL     OW 1055   5.397   5.687   2.691  0.0081 -0.0876 -0.1458
  321SOL    HW2 1056   5.345   5.760   2.724  0.0761 -0.8154  1.6793
  321SOL    HW3 1057   5.465   5.674   2.757  0.8758 -0.8765 -1.1616
  321SOL    MW4 1058   5.399   5.695   2.704 -0.1285 -0.0784  0.4899
  322SOL     OW 1059   3.507   1.913   3.440 -0.4834  0.0553 -0.4175
  322SOL    HW2 1060   3.417   1.931   3.416 -0.4655 -1.4264 -1.7399
  322SOL    HW3 1061   3.505   1.827   3.482  0.5306 -0.9217 -2.2492
  322SOL    MW4 1062   3.495   1.904   3.443  0.2447  0.3050  0.2369
  323SOL     OW 1063   3.355   4.355   5.955 -0.2115 -0.4257 -0.2142
  323SOL    HW2 1064   3.448   4.347   5.976 -0.6008  0.6461  2.3684
  323SOL    HW3 1065   3.330   4.270   5.919  1.3724 -1.3519  0.7934
  323SOL    MW4 1066   3.364   4.343   5.953  0.0245 -0.3318  0.4679
  324SOL     OW 1067   5.091   3.378   2.297 -0.2241  0.0681  0.6140
  324SOL    HW2 1068   4.998   3.357   2.288 -0.2341  0.1052  0.6307
  324SOL    HW3 1069   5.096   3.473   2.284  0.0098 -0.1329 -1.0050
  324SOL    MW4 1070   5.080   3.388   2.294 -0.0816 -0.4466  0.9814
  325SOL     OW 1071   5.983   4.437   3.194  0.5682  0.1058  0.2313
  325SOL    HW2 1072   5.938   4.413   3.113  1.1501  0.9574 -0.3563
  325SOL    HW3 1073   5.951   4.525   3.215 -0.1259 -0.3884  1.3329
  325SOL    MW4 1074   5.973   4.445   3.186  0.0543 -0.0688 -0.2483
  326SOL     OW 1075   2.412   0.562   0.760  0.3799 -0.5965 -0.0167
  326SOL    HW2 1076   2.493   0.569   0.811  0.4152 -1.6473  0.0991
  326SOL    HW3 1077   2.405   0.468   0.740 -0.8459 -0.5280  0.0455
  326SOL    MW4 1078   2.422   0.550   0.764  0.1373 -0.1640  0.3128
  327SOL     OW 1079   3.074   3.446   2.088 -0.0615  0.1555  0.0978
  327SOL    HW2 1080   3.160   3.486   2.073 -0.6697  0.7958 -2.0375
  327SOL    HW3 1081   3.016   3.489   2.025 -1.6456 -1.2966  0.4830
  327SOL    MW4 1082   3.077   3.457   2.078 -0.4949  0.6258 -0.8032
  328SOL     OW 1083   3.364   2.942   4.935 -0.1253  0.1299 -0.4292
  328SOL    HW2 1084   3.453   2.977   4.925 -0.1749  0.4095  0.0926
  328SOL    HW3 1085   3.374   2.848   4.918  0.5304 -0.0775  0.9685
  328SOL    MW4 1086   3.377   2.934   4.931 -0.1450 -0.1343 -0.2930
  329SOL     OW 1087   3.567   1.799   2.517  0.7210  0.1477 -0.0240
  329SOL    HW2 1088   3.511   1.876   2.505 -0.4076 -0.6511  0.0381
  329SOL    HW3 1089   3.547   1.768   2.605  0.0651 -1.0913 -0.5951
  329SOL    MW4 1090   3.557   1.805   2.527  0.0838  0.2621  0.0647
  330SOL     OW 1091   1.896   4.215   2.807 -0.2679 -0.3581 -0.3641
  330SOL    HW2 1092   1.854   4.228   2.722 -0.6598  0.3580 -0.0707
  330SOL    HW3 1093   1.988   4.236   2.791 -0.4505  0.3955 -0.4770
  330SOL    MW4 1094   1.903   4.219   2.793 -0.6935  0.6681  0.0406
  331SOL     OW 1095   3.382   1.548   5.724  0.1977  0.1471 -0.4654
  331SOL    HW2 1096   3.462   1.522   5.679 -0.1005 -2.1602  0.1915
  331SOL    HW3 1097   3.311   1.522   5.666 -0.1395 -1.4064  0.5748
  331SOL    MW4 1098   3.383   1.541   5.711  0.1683 -1.0553 -0.1998
  332SOL     OW 1099   0.013   0.188   6.070  0.1869  0.1038  0.1136
  332SOL    HW2 1100  -0.007   0.209   6.162 -0.2558  0.4950 -0.0634
  332SOL    HW3 1101  -0.051   0.240   6.020  0.4808 -0.0439 -0.4171
  332SOL    MW4 1102   0.002   0.198   6.076  0.4129  0.3365  0.1336
  333SOL     OW 1103   4.616   1.134   4.545 -0.3543  0.0838 -0.6613
  333SOL    HW2 1104   4.647   1.052   4.507 -0.3374 -0.0785 -0.3024
  333SOL    HW3 1105   4.611   1.117   4.639  1.6743  1.1493 -0.3024
  333SOL    MW4 1106   4.619   1.121   4.552  0.4013  0.3771  0.4835
  334SOL     OW 1107   5.869   5.165   4.868 -0.1021 -0.1778 -0.4326
  334SOL    HW2 1108   5.921   5.236   4.906  0.9294 -1.1834  0.0798
  334SOL    HW3 1109   5.836   5.117   4.944  0.1477 -0.9196 -0.7923
  334SOL    MW4 1110   5.871   5.168   4.883 -0.3939  0.1280  0.0594
  335SOL     OW 1111   4.224   4.698   2.696  0.3696  0.0861 -0.6664
  335SOL    HW2 1112   4.144   4.740   2.663  0.2386 -0.1990 -0.7170
  335SOL    HW3 1113   4.193   4.641   2.767  0.5000 -0.1691 -0.8109
  335SOL    MW4 1114   4.209   4.696   2.701 -0.4232 -0.0022 -0.3071
  336SOL     OW 1115   1.528   3.697   1.637 -0.0769  0.4523 -0.0989
  336SOL    HW2 1116   1.439   3.732   1.625  0.4136  2.2083  1.0373
  336SOL    HW3 1117   1.516   3.602   1.637 -1.9625  0.6436  0.0279
  336SOL    MW4 1118   1.515   3.689   1.636  0.7165  0.6880 -0.3438
  337SOL     OW 1119   5.994   3.285   0.234 -0.5408 -0.0700 -0.3602
  337SOL    HW2 1120   5.979   3.281   0.328 -0.1653  0.3635 -0.2796
  337SOL    HW3 1121   6.007   3.378   0.215 -0.1248 -0.2009 -0.7602
  337SOL    MW4 1122   5.994   3.297   0.244  0.2682  0.9366  0.0446
  338SOL     OW 1123   1.729   0.021   0.412  0.1742  0.3799 -0.2828
  338SOL    HW2 1124   1.791   0.094   0.412  0.7803 -0.1248 -0.3328
  338SOL    HW3 1125   1.756  -0.033   0.338 -0.5357  0.3280 -0.5040
  338SOL    MW4 1126   1.741   0.023   0.403 -0.3574  0.4688  0.4035
  339SOL     OW 1127   1.702   2.019   3.156 -0.4332 -0.3095  0.1039
  339SOL    HW2 1128   1.696   2.014   3.251 -1.6692  0.7045  0.1116
  339SOL    HW3 1129   1.613   2.040   3.128 -0.2881 -1.4941 -1.3599
  339SOL    MW4 1130   1.690   2.021   3.165  0.0894  0.3247  0.4058
  340SOL     OW 1131   0.816   0.629   0.241  0.2154  0.5718  0.1938
  340SOL    HW2 1132   0.864   0.597   0.318 -0.1578 -0.3104  0.0721
  340SOL    HW3 1133   0.855   0.582   0.168  0.3905  1.2159 -0.1335
  340SOL    MW4 1134   0.828   0.618   0.242  0.1904  0.2499  0.2108
  341SOL     OW 1135   4.745   5.507   0.574 -0.1158 -0.0457 -0.4687
  341SOL    HW2 1136   4.789   5.587   0.604  2.7508 -2.0475  1.1609
  341SOL    HW3 1137   4.707   5.531   0.489 -1.0110  3.4863  0.7776
  341SOL    MW4 1138   4.746   5.521   0.567 -0.5252  0.3898 -0.1118
  342SOL     OW 1139   2.807   1.209   4.881  0.2505  0.1985  0.1606
  342SOL    HW2 1140   2.718   1.230   4.851  0.8222  1.8682 -0.4733
  342SOL    HW3 1141   2.848   1.166   4.806  0.0674 -0.3362  0.3634
  342SOL    MW4 1142   2.801   1.206   4.867 -0.5441  0.1755 -0.0071
  343SOL     OW 1143   4.186   2.310   3.010 -0.2451 -0.1784 -0.1097
  343SOL    HW2 1144   4.119   2.247   3.037  1.7860 -2.2989  0.2600
  343SOL    HW3 1145   4.242   2.261   2.950  1.0831  1.4585 -0.2744
  343SOL    MW4 1146   4.184   2.295   3.006 -0.4476 -0.2354  0.1123
  344SOL     OW 1147   1.074   0.559   3.464  0.4029  0.2085 -0.1330
  344SOL    HW2 1148   1.117   0.489   3.512  0.8722 -0.7064 -1.8111
  344SOL    HW3 1149   0.982   0.532   3.458  0.4773 -0.0029 -0.3231
  344SOL    MW4 1150   1.067   0.546   3.469 -0.3486  0.2071 -0.0106
  345SOL     OW 1151   6.311   2.339   4.233  0.5425  0.8326  0.7504
  345SOL    HW2 1152   6.351   2.418   4.198 -1.9500  0.8302 -2.6550
  345SOL    HW3 1153   6.342   2.269   4.174  0.5370 -0.2507  1.9954
  345SOL    MW4 1154   6.320   2.340   4.220 -0.0634  0.3776 -0.1643
  346SOL     OW 1155   1.197   0.444   4.334 -0.3351 -0.1066  0.0028
  346SOL    HW2 1156   1.199   0.536   4.358  0.3455 -0.2323  0.4674
  346SOL    HW3 1157   1.114   0.433   4.287 -0.4982  0.6993  0.0839
  346SOL    MW4 1158   1.186   0.454   4.331  0.1217  0.0353 -0.3230
  347SOL     OW 1159   0.433   2.663   4.049  0.3071  0.7324  0.0465
  347SOL    HW2 1160   0.480   2.628   3.973  0.4219  1.3422 -0.1720
  347SOL    HW3 1161   0.342   2.636   4.035  0.5619 -0.3514  0.4106
  347SOL    MW4 1162   0.427   2.655   4.037  0.4628  0.5431 -0.0078
  348SOL     OW 1163   4.715   3.391   5.677  0.1507  0.2060 -0.3464
  348SOL    HW2 1164   4.725   3.370   5.584 -0.0811  0.8938 -0.5311
  348SOL    HW3 1165   4.728   3.307   5.722  0.3976 -0.1057 -0.9873
  348SOL    MW4 1166   4.718   3.377   5.671 -0.1363 -0.3036  0.0340
  349SOL     OW 1167   0.995   4.174   5.612  0.0533 -0.5977  0.1682
  349SOL    HW2 1168   0.964   4.086   5.635  2.4044 -1.2248  1.3010
  349SOL    HW3 1169   0.986   4.224   5.693 -2.3612  0.6366 -0.7706
  349SOL    MW4 1170   0.990   4.169   5.626  0.1301  0.4006  0.2589
  350SOL     OW 1171   1.123   4.308   2.544  0.4235  0.4446 -0.4441
  350SOL    HW2 1172   1.139   4.242   2.477 -0.6913 -0.8813  0.5213
  350SOL    HW3 1173   1.051   4.361   2.510 -0.1950 -0.2775 -0.2957
  350SOL    MW4 1174   1.115   4.307   2.531 -0.0048 -0.3926  0.1086
  351SOL     OW 1175   0.875   1.617   0.354 -0.6110  0.2487  0.2705
  351SOL    HW2 1176   0.855   1.673   0.429  2.2273  0.8823  0.6721
  351SOL    HW3 1177   0.828   1.535   0.372 -3.1223  1.6779  0.7235
  351SOL    MW4 1178   0.866   1.614   0.367 -0.2689  0.9913  0.3107
  352SOL     OW 1179   5.101   5.089   0.710  0.4903  0.1539  0.4212
  352SOL    HW2 1180   5.102   5.163   0.770  1.1650 -0.1926  0.8492
  352SOL    HW3 1181   5.150   5.020   0.756  3.7952  0.8316 -1.7490
  352SOL    MW4 1182   5.107   5.089   0.724  0.6835 -0.1072 -0.1328
  353SOL     OW 1183   6.230   6.034   0.258  0.2927 -0.7438  0.2048
  353SOL    HW2 1184   6.217   6.030   0.353  1.9313  1.8628  0.6521
  353SOL    HW3 1185   6.325   6.037   0.247  0.1150 -0.1044 -1.4379
  353SOL    MW4 1186   6.241   6.034   0.269 -0.3266 -0.8167  0.3373
  354SOL     OW 1187   6.314   1.772   1.398 -0.0646  0.4119  0.0436
  354SOL    HW2 1188   6.303   1.732   1.312  2.4466 -1.0373  0.3053
  354SOL    HW3 1189   6.258   1.721   1.456 -0.5409  0.3787 -0.4344
  354SOL    MW4 1190   6.305   1.760   1.394 -0.1269 -0.1650  0.5741
  355SOL     OW 1191   5.463   3.636   2.783  0.3281  0.0995 -0.5449
  355SOL    HW2 1192   5.437   3.626   2.692  0.9242  0.2456 -0.7372
  355SOL    HW3 1193   5.520   3.561   2.800  1.2968  0.7710 -0.6986
  355SOL    MW4 1194   5.467   3.625   2.773  0.0508 -0.1612  0.4067
  356SOL     OW 1195   5.257   2.808   0.401  0.2497 -0.0932 -0.4778
  356SOL    HW2 1196   5.262   2.743   0.471 -2.0625  0.2650  0.0776
  356SOL    HW3 1197   5.296   2.887   0.438 -0.1354 -0.1669  0.0877
  356SOL    MW4 1198   5.263   2.810   0.415 -0.3936  0.2522 -0.3568
  357SOL     OW 1199   3.697   3.045   0.994  0.6311  0.0678 -0.3438
  357SOL    HW2 1200   3.610   3.058   1.033  1.4488 -0.6632  1.8788
  357SOL    HW3 1201   3.750   3.116   1.031  1.4860 -0.7683  0.0847
  357SOL    MW4 1202   3.692   3.056   1.004 -0.1327 -0.3258  0.6728
  358SOL     OW 1203   3.243   1.783   1.099 -0.1953  0.4712  0.0432
  358SOL    HW2 1204   3.271   1.830   1.177 -0.7093  1.6926 -0.4837
  358SOL    HW3 1205   3.254   1.846   1.028 -0.9784 -0.1693 -0.6683
  358SOL    MW4 1206   3.248   1.797   1.100  0.0782  0.5622 -0.0266
  359SOL     OW 1207   5.297   5.787   5.815 -0.5763  0.3567 -0.0901
  359SOL    HW2 1208   5.219   5.776   5.870 -0.1149 -1.1702  0.2956
  359SOL    HW3 1209   5.368   5.803   5.877 -0.5208  1.4933 -0.4275
  359SOL    MW4 1210   5.296   5.788   5.830  0.3636  0.3393 -0.4179
  360SOL     OW 1211   0.519   1.082   4.038  0.3676 -0.1165  0.8481
  360SOL    HW2 1212   0.615   1.081   4.046  0.5742 -3.1716 -0.4565
  360SOL    HW3 1213   0.494   0.990   4.047 -2.0643  0.0357 -2.5073
  360SOL    MW4 1214   0.529   1.070   4.040 -0.1903 -0.4160  0.4300
  361SOL     OW 1215   2.550   4.277   0.481 -0.9467 -0.3166  0.0108
  361SOL    HW2 1216   2.532   4.307   0.392 -1.0906 -0.5267 -0.0306
  361SOL    HW3 1217   2.512   4.189   0.485  0.4630 -0.9532 -0.2161
  361SOL    MW4 1218   2.542   4.270   0.470 -0.1748  0.0475 -0.0640
  362SOL     OW 1219   1.977   4.302   5.029 -0.0731  0.0813  0.3942
  362SOL    HW2 1220   1.913   4.263   4.969 -2.4136  1.3957  1.8868
  362SOL    HW3 1221   2.013   4.376   4.980 -0.5501  0.0145 -0.0633
  362SOL    MW4 1222   1.974   4.307   5.014  0.1698  0.1890 -0.4942
  363SOL     OW 1223   2.094   5.151   5.549 -0.0789 -0.0089 -0.8369
  363SOL    HW2 1224   2.138   5.068   5.532  1.5967  0.4761  0.7731
  363SOL    HW3 1225   2.046   5.137   5.631  0.6269  0.7144 -0.2756
  363SOL    MW4 1226   2.094   5.139   5.558  0.3262  0.3832  0.2383
  364SOL     OW 1227   6.413   2.588   4.115  0.3820  0.0222  0.6518
  364SOL    HW2 1228   6.398   2.611   4.206 -0.0789 -0.2197  0.6414
  364SOL    HW3 1229   6.333   2.615   4.070  1.7208  2.8820 -0.2204
  364SOL    MW4 1230   6.401   2.595   4.121  0.4551  0.2097 -0.0187
  365SOL     OW 1231   4.642   2.118   4.511 -0.3234 -0.1577 -0.6423
  365SOL    HW2 1232   4.592   2.036   4.516  0.3432 -0.5387  0.0000
  365SOL    HW3 1233   4.726   2.097   4.552 -0.6704  1.2281  0.9104
  365SOL    MW4 1234   4.646   2.104   4.517 -0.1533 -0.1871  0.1460
  366SOL     OW 1235   5.377   2.791   3.858  0.0066  0.4782 -0.2920
  366SOL    HW2 1236   5.351   2.858   3.921  0.2288  0.9328 -0.6753
  366SOL    HW3 1237   5.303   2.730   3.856 -0.6375  1.2606 -0.6940
  366SOL    MW4 1238   5.364   2.792   3.866 -0.1155 -0.2526  0.2411
  367SOL     OW 1239   1.843   4.756   6.114 -0.1992  0.1404 -0.3456
  367SOL    HW2 1240   1.937   4.747   6.104 -0.0305  1.8079 -0.5366
  367SOL    HW3 1241   1.812   4.668   6.133  1.2918 -0.5684 -1.0575
  367SOL    MW4 1242   1.851   4.743   6.115  0.1870 -0.0882  0.1953
  368SOL     OW 1243   1.520   5.518   3.967  0.0118 -0.0695  0.4693
  368SOL    HW2 1244   1.465   5.441   3.951 -0.4081  0.3562 -0.1297
  368SOL    HW3 1245   1.610   5.484   3.958 -0.1693 -0.1415 -1.5973
  368SOL    MW4 1246   1.525   5.503   3.964 -0.5077 -0.1539 -0.5010
  369SOL     OW 1247   2.075   4.026   0.393  0.1226  0.4959 -0.5160
  369SOL    HW2 1248   2.084   3.932   0.382  1.8398  0.3684  1.3869
  369SOL    HW3 1249   1.994   4.048   0.346 -0.6894 -2.0174 -0.4463
  369SOL    MW4 1250   2.065   4.016   0.386  0.4067  0.1346 -0.1058
  370SOL     OW 1251   1.107   3.390   1.314 -0.3769  0.2779  0.2666
  370SOL    HW2 1252   1.078   3.437   1.235 -1.0129  1.8209  1.3661
  370SOL    HW3 1253   1.031   3.338   1.340 -0.1917 -0.1748 -0.0976
  370SOL    MW4 1254   1.093   3.389   1.307 -0.0038  0.0187  0.2076
  371SOL     OW 1255   3.729   5.126   0.275 -0.3185  0.3000  0.1752
  371SOL    HW2 1256   3.814   5.085   0.292 -0.0084  0.6582 -0.5009
  371SOL    HW3 1257   3.723   5.197   0.339  1.0637  1.9627 -1.4383
  371SOL    MW4 1258   3.740   5.130   0.286 -0.2397  0.4115  0.0627
  372SOL     OW 1259   4.593   4.927   1.718 -0.5566 -0.9627 -0.3808
  372SOL    HW2 1260   4.587   4.969   1.803 -1.2884 -0.7700 -0.5228
  372SOL    HW3 1261   4.682   4.890   1.716  0.0789  0.4890 -0.2235
  372SOL    MW4 1262   4.604   4.928   1.729 -0.4390 -0.3848  0.0732
  373SOL     OW 1263   3.358   5.023   0.114  0.4702 -0.3362 -0.5120
  373SOL    HW2 1264   3.283   5.052   0.063  0.2703  1.1788  0.5585
  373SOL    HW3 1265   3.423   4.996   0.049 -0.4463 -0.2193 -1.4912
  373SOL    MW4 1266   3.357   5.023   0.099  0.4277 -0.2206 -0.3765
  374SOL     OW 1267   6.059   2.706   4.277 -0.4033  0.2030  0.0403
  374SOL    HW2 1268   5.969   2.685   4.254 -0.0079  0.3075 -1.8489
  374SOL    HW3 1269   6.094   2.625   4.315  0.0923 -1.6990 -3.8770
  374SOL    MW4 1270   6.052   2.692   4.279  0.0550 -0.1292  0.1013
  375SOL     OW 1271   5.564   6.075   0.677  0.5638  1.0991 -0.1502
  375SOL    HW2 1272   5.478   6.096   0.640  0.7396  0.4702 -0.9303
  375SOL    HW3 1273   5.545   6.050   0.768 -0.2561 -0.3185 -0.6826
  375SOL    MW4 1274   5.550   6.075   0.684 -0.7466 -0.0475 -0.5491
  376SOL     OW 1275   0.157   0.438   4.570  0.2692 -0.2111 -0.0131
  376SOL    HW2 1276   0.187   0.524   4.541 -0.9744  1.2325  2.5996
  376SOL    HW3 1277   0.232   0.400   4.616  0.1351  0.5334  0.8474
  376SOL    MW4 1278   0.171   0.444   4.572  0.6652 -0.2688 -0.2776
  377SOL     OW 1279   0.183   4.761   3.747  0.1192 -0.0032  0.0698
  377SOL    HW2 1280   0.227   4.731   3.668 -3.2644 -0.1074 -1.9861
  377SOL    HW3 1281   0.218   4.848   3.763  0.2645  0.4017 -2.1584
  377SOL    MW4 1282   0.193   4.769   3.738 -0.4288  0.1206 -0.3419
  378SOL     OW 1283   0.469   5.158   1.187 -0.0597  0.3440  0.0861
  378SOL    HW2 1284   0.488   5.159   1.281  0.1623 -0.1625  0.0488
  378SOL    HW3 1285   0.470   5.251   1.161  1.8997  0.3880  0.1896
  378SOL    MW4 1286   0.472   5.171   1.196  0.0335  1.1385 -0.4726
  379SOL     OW 1287   4.052   2.813   5.620  0.6717  0.5773  0.7164
  379SOL    HW2 1288   4.081   2.758   5.547  0.5571  0.0475  1.0695
  379SOL    HW3 1289   4.007   2.753   5.680  0.3732  1.0864  1.0123
  379SOL    MW4 1290   4.050   2.798   5.618 -0.1719  0.5081  1.0837
  380SOL     OW 1291   0.292   3.549   3.066 -0.7925  0.1627 -0.0032
  380SOL    HW2 1292   0.267   3.457   3.051 -0.5034  0.1118 -0.1789
  380SOL    HW3 1293   0.224   3.599   3.022 -1.8563  0.0708  1.4467
  380SOL    MW4 1294   0.280   3.543   3.058  0.2366  0.0135  0.4421
  381SOL     OW 1295   5.714   5.483   2.837 -0.3234 -0.1686 -0.1165
  381SOL    HW2 1296   5.735   5.428   2.913 -0.8072 -0.4327 -0.1688
  381SOL    HW3 1297   5.639   5.535   2.865  1.3159  1.9210  0.6204
  381SOL    MW4 1298   5.707   5.483   2.851 -0.0377  0.0581  0.2884
  382SOL     OW 1299   1.158   0.618   0.314 -0.4450  0.6950  0.3465
  382SOL    HW2 1300   1.144   0.534   0.357 -1.7467  0.2392 -0.8988
  382SOL    HW3 1301   1.200   0.673   0.381 -1.7751 -0.1876  1.9674
  382SOL    MW4 1302   1.162   0.614   0.328  0.1844  0.0823 -0.1071
  383SOL     OW 1303   2.216   5.494   1.920 -0.2489  0.2031 -0.1669
  383SOL    HW2 1304   2.257   5.568   1.874  0.0420 -0.6638 -1.3466
  383SOL    HW3 1305   2.188   5.435   1.850  1.5417 -1.8797  0.7605
  383SOL    MW4 1306   2.218   5.496   1.905  0.0854 -0.0087  0.4376
  384SOL     OW 1307   0.205   5.438   1.095 -0.3623  0.5428  0.0131
  384SOL    HW2 1308   0.162   5.452   1.180 -0.0964  0.4404  0.1668
  384SOL    HW3 1309   0.161   5.499   1.036 -1.4775 -0.3549 -0.0968
  384SOL    MW4 1310   0.194   5.448   1.099  0.4729 -0.5243  0.4671
  385SOL     OW 1311   0.647   1.554   0.039  0.0445  0.4412  0.0642
  385SOL    HW2 1312   0.682   1.630   0.086  0.6890 -0.1405  0.5528
  385SOL    HW3 1313   0.564   1.584   0.002  0.9198  1.7806 -0.8923
  385SOL    MW4 1314   0.641   1.568   0.040 -0.3584  0.7667  0.5688
  386SOL     OW 1315   3.237   6.160   2.122  0.0387  0.2477 -0.3601
  386SOL    HW2 1316   3.273   6.153   2.210 -0.8900 -0.7813 -0.0477
  386SOL    HW3 1317   3.144   6.174   2.135 -0.5372 -2.3277 -1.1338
  386SOL    MW4 1318   3.230   6.161   2.135  0.3097  0.0859 -0.4743
  387SOL     OW 1319   3.555   4.409   6.255  0.0550  0.3245  0.6447
  387SOL    HW2 1320   3.600   4.450   6.329  0.9981  1.0643 -0.3301
  387SOL    HW3 1321   3.508   4.481   6.213 -0.2920 -0.0566  0.3752
  387SOL    MW4 1322   3.555   4.424   6.259 -0.0894 -0.5985 -0.4308
  388SOL     OW 1323   1.468   0.965   6.323  0.1941  0.3018  0.0824
  388SOL    HW2 1324   1.551   0.927   6.351 -0.4468 -1.5074 -0.3233
  388SOL    HW3 1325   1.482   1.060   6.328  2.2060  0.0462  0.1940
  388SOL    MW4 1326   1.481   0.972   6.327  0.2808 -0.1932  0.0652
  389SOL     OW 1327   5.534   4.640   4.678  0.0926 -0.2780  0.1883
  389SOL    HW2 1328   5.521   4.592   4.759  2.2588 -2.3657 -0.5666
  389SOL    HW3 1329   5.593   4.712   4.701 -1.9989  1.2690  1.0352
  389SOL    MW4 1330   5.540   4.643   4.692 -0.5308  0.1356 -0.1500
  390SOL     OW 1331   1.358   2.831   3.257 -0.4955 -0.5763 -0.1728
  390SOL    HW2 1332   1.421   2.878   3.202  0.2408  0.4067  1.4364
  390SOL    HW3 1333   1.402   2.749   3.279 -0.2638 -0.4204 -0.0429
  390SOL    MW4 1334   1.372   2.827   3.253 -0.4075 -0.1634  0.0067
  391SOL     OW 1335   1.073   5.263   2.239  0.3424  0.4358  0.0513
  391SOL    HW2 1336   1.009   5.237   2.172 -2.1057  2.4840  1.4045
  391SOL    HW3 1337   1.143   5.307   2.190 -0.6265  0.5332 -1.3005
  391SOL    MW4 1338   1.074   5.266   2.224  0.3532  0.3369  0.5911
  392SOL     OW 1339   5.948   3.338   3.446  0.0284 -0.5651  0.1766
  392SOL    HW2 1340   5.904   3.365   3.365  1.9732  0.9546 -0.4473
  392SOL    HW3 1341   6.041   3.336   3.424  0.5987 -0.3102  2.3078
  392SOL    MW4 1342   5.954   3.341   3.432 -0.2436  0.0728 -0.5617
  393SOL     OW 1343   0.072   4.131   5.602 -0.0075 -0.2357  0.1216
  393SOL    HW2 1344   0.016   4.196   5.644  0.5183  0.4330 -0.1757
  393SOL    HW3 1345   0.117   4.180   5.533  0.4733 -0.8976 -0.0470
  393SOL    MW4 1346   0.071   4.146   5.598  0.2376 -0.6794  0.0488
  394SOL     OW 1347   0.724   5.118   3.788  0.2547  0.1111 -0.0532
  394SOL    HW2 1348   0.659   5.071   3.841  1.1505 -1.5282 -0.3467
  394SOL    HW3 1349   0.745   5.196   3.839 -0.4135 -0.3856  1.0233
  394SOL    MW4 1350   0.718   5.122   3.802 -0.0711  0.3806 -0.3873
  395SOL     OW 1351   4.262   4.535   6.207  0.6603  0.3177  0.2105
  395SOL    HW2 1352   4.169   4.527   6.183  0.3434  0.3415  1.3322
  395SOL    HW3 1353   4.261   4.540   6.303  1.7572  1.2785  0.1951
  395SOL    MW4 1354   4.249   4.535   6.217 -0.2849  0.1047  0.4022
  396SOL     OW 1355   3.437   3.285   4.867 -0.0840 -0.3420 -0.2922
  396SOL    HW2 1356   3.502   3.348   4.839  1.2312 -1.2303  0.6135
  396SOL    HW3 1357   3.379   3.274   4.791 -0.6132  2.1838 -0.3421
  396SOL    MW4 1358   3.438   3.292   4.853  0.0811  0.3888  0.2882
  397SOL     OW 1359   1.988   1.634   1.781 -0.7282 -0.0920 -0.4982
  397SOL    HW2 1360   1.945   1.555   1.813 -0.5305  0.0021  0.0130
  397SOL    HW3 1361   1.956   1.645   1.692 -0.2330 -1.1414 -0.8232
  397SOL    MW4 1362   1.978   1.625   1.774  0.6581  0.0809 -0.4658
  398SOL     OW 1363   4.918   0.685   3.851 -0.1315  0.7941  0.5549
  398SOL    HW2 1364   4.929   0.638   3.934  0.8424  0.4171  0.2285
  398SOL    HW3 1365   4.839   0.738   3.864 -3.1383 -3.0411 -0.0104
  398SOL    MW4 1366   4.909   0.686   3.864  0.1595 -0.0465  0.2561
  399SOL     OW 1367   4.153   4.694   4.425  0.0140  0.0250  0.0605
  399SOL    HW2 1368   4.231   4.744   4.448 -0.0125  0.5802 -1.0113
  399SOL    HW3 1369   4.086   4.727   4.485 -0.0492  1.4372 -0.7481
  399SOL    MW4 1370   4.154   4.705   4.436 -0.1448 -0.0666 -0.0120
  400SOL     OW 1371   2.514   4.411   0.194 -0.4611  0.2386  0.0623
  400SOL    HW2 1372   2.569   4.477   0.151 -0.4101 -0.4028 -0.8840
  400SOL    HW3 1373   2.441   4.461   0.230 -0.9424  0.7195 -1.4940
  400SOL    MW4 1374   2.512   4.426   0.193 -0.5306  0.4876 -0.3279
  401SOL     OW 1375   5.738   0.636   5.181 -0.5162  0.8161  0.1516
  401SOL    HW2 1376   5.769   0.574   5.247 -3.0567 -0.4769  0.2165
  401SOL    HW3 1377   5.818   0.679   5.150  1.0280 -0.4686  2.1004
  401SOL    MW4 1378   5.753   0.634   5.186 -0.6549 -0.3881  0.2200
  402SOL     OW 1379   3.725   0.277   3.551  0.2116  0.2888  0.2724
  402SOL    HW2 1380   3.814   0.244   3.553  1.4213  3.2069  0.0980
  402SOL    HW3 1381   3.703   0.282   3.458  0.0775  0.0836  0.2931
  402SOL    MW4 1382   3.734   0.273   3.539 -0.5484 -0.5123  0.3603
  403SOL     OW 1383   5.328   1.472   1.002  0.2040  1.0834  0.2627
  403SOL    HW2 1384   5.409   1.501   1.043 -0.3298  0.4889  1.8411
  403SOL    HW3 1385   5.336   1.497   0.910  1.5839  2.2347  0.6730
  403SOL    MW4 1386   5.340   1.479   0.996  0.1930  0.3524 -0.5575
  404SOL     OW 1387   1.288   1.341   5.364 -0.1583 -0.1839  0.3919
  404SOL    HW2 1388   1.220   1.355   5.430 -0.2374 -0.2525  0.3268
  404SOL    HW3 1389   1.245   1.364   5.281  0.5190  1.8374  0.5407
  404SOL    MW4 1390   1.273   1.346   5.362  0.1905  0.3421 -0.3384
  405SOL     OW 1391   0.874   3.713   1.341 -0.4460 -0.4253 -0.1010
  405SOL    HW2 1392   0.879   3.800   1.380  0.4848 -1.4950  2.3724
  405SOL    HW3 1393   0.877   3.729   1.246  0.5511  2.1605  0.2815
  405SOL    MW4 1394   0.875   3.726   1.333 -0.2643 -0.3632  0.7500
  406SOL     OW 1395   5.952   2.382   1.724  0.3488  0.0661  0.0558
  406SOL    HW2 1396   5.970   2.345   1.638  0.4367 -0.5626  0.3367
  406SOL    HW3 1397   5.950   2.477   1.710 -1.3913 -0.0804 -0.9770
  406SOL    MW4 1398   5.954   2.390   1.711  0.0741  0.4294 -0.5736
  407SOL     OW 1399   0.480   4.003   2.093  0.3460 -0.0862 -0.5895
  407SOL    HW2 1400   0.504   3.912   2.110 -0.7725 -0.3843 -0.5564
  407SOL    HW3 1401   0.409   4.021   2.154 -0.3602  0.3845 -1.5276
  407SOL    MW4 1402   0.474   3.993   2.103 -0.5687  0.3874 -0.4850
  408SOL     OW 1403   4.333   4.590   5.675  0.0634 -0.1721 -0.1394
  408SOL    HW2 1404   4.374   4.564   5.758  0.8011 -2.5015 -1.1473
  408SOL    HW3 1405   4.364   4.679   5.660  1.6598 -0.4785  1.0471
  408SOL    MW4 1406   4.343   4.598   5.684 -0.0832 -0.2706 -0.4368
  409SOL     OW 1407   4.315   5.527   3.935  0.2417  0.3385  0.1114
  409SOL    HW2 1408   4.286   5.606   3.980  0.7878 -0.6034  2.2595
  409SOL    HW3 1409   4.410   5.532   3.933  0.2245  0.6017 -1.4891
  409SOL    MW4 1410   4.324   5.538   3.941 -0.0119 -0.5116  0.3555
  410SOL     OW 1411   3.244   3.521   3.493 -0.5047  0.1043  0.3863
  410SOL    HW2 1412   3.211   3.607   3.516 -0.6779 -0.3301  1.8755
  410SOL    HW3 1413   3.166   3.469   3.475 -0.3674  0.4864 -1.5217
  410SOL    MW4 1414   3.230   3.525   3.494 -0.3867 -0.0116 -0.0871
  411SOL     OW 1415   4.536   4.752   3.834 -0.4965 -0.1386 -0.8107
  411SOL    HW2 1416   4.454   4.790   3.802 -0.6437  1.0954  0.9276
  411SOL    HW3 1417   4.602   4.780   3.770 -1.1699  0.1876 -1.3725
  411SOL    MW4 1418   4.534   4.761   3.821 -0.4189 -0.1889 -0.3188
  412SOL     OW 1419   5.256   4.957   2.522 -0.0902  0.4072 -0.3583
  412SOL    HW2 1420   5.350   4.950   2.510  0.0385  1.4825 -0.0722
  412SOL    HW3 1421   5.221   4.967   2.434  0.0688  0.0970 -0.4577
  412SOL    MW4 1422   5.264   4.957   2.509 -0.1741 -0.4217  0.0239
  413SOL     OW 1423   5.056   2.842   1.767 -0.3195 -0.2296  0.5305
  413SOL    HW2 1424   4.998   2.846   1.843 -1.3175 -0.3178 -0.1962
  413SOL    HW3 1425   4.999   2.813   1.696 -0.6350  4.2187 -1.3680
  413SOL    MW4 1426   5.041   2.839   1.768  0.2941  0.3015 -0.0800
  414SOL     OW 1427   0.434   2.432   3.625 -0.8778 -0.2895 -0.1725
  414SOL    HW2 1428   0.371   2.371   3.665 -0.5805 -1.3739 -1.3106
  414SOL    HW3 1429   0.379   2.495   3.578 -1.1387 -1.0000 -0.8368
  414SOL    MW4 1430   0.418   2.432   3.624  0.1762  0.0335 -0.3740
  415SOL     OW 1431   2.052   3.564   5.704  0.6209 -0.6553 -0.1549
  415SOL    HW2 1432   1.969   3.606   5.683  0.8708  0.0620  0.2772
  415SOL    HW3 1433   2.119   3.626   5.676  0.9846 -0.0133  1.9676
  415SOL    MW4 1434   2.050   3.577   5.697 -0.4318  0.3551  0.4147
  416SOL     OW 1435   1.407   4.057   0.713  0.1169  0.0532  0.2034
  416SOL    HW2 1436   1.379   3.999   0.783 -0.1999  1.3746  1.2149
  416SOL    HW3 1437   1.499   4.075   0.732 -0.1795  1.0379  0.7515
  416SOL    MW4 1438   1.415   4.052   0.725 -0.0660 -0.2899 -0.2214
  417SOL     OW 1439   4.913   5.375   5.632  0.5937  0.1746  0.6704
  417SOL    HW2 1440   4.853   5.329   5.573  0.3514  1.4889 -0.1289
  417SOL    HW3 1441   4.884   5.350   5.720  0.0583 -0.6688  0.2628
  417SOL    MW4 1442   4.901   5.365   5.636  0.4488  0.2202 -0.0928
  418SOL     OW 1443   3.756   5.630   6.289 -0.0861 -0.6034 -0.0333
  418SOL    HW2 1444   3.808   5.631   6.209  1.4691  0.2294  0.9436
  418SOL    HW3 1445   3.780   5.548   6.333  0.5268 -0.1657  0.4729
  418SOL    MW4 1446   3.766   5.619   6.285 -0.5271  0.5975 -0.1336
  419SOL     OW 1447   0.979   0.027   4.796  0.1094 -0.3300  0.5732
  419SOL    HW2 1448   1.056   0.026   4.739 -0.4085  0.9416 -0.1687
  419SOL    HW3 1449   0.909   0.062   4.741 -1.6022 -3.4437  0.5203
  419SOL    MW4 1450   0.980   0.031   4.781  0.5770 -0.7448 -0.2745
  420SOL     OW 1451   1.507   2.262   5.070  0.1849  0.0854  0.3400
  420SOL    HW2 1452   1.444   2.196   5.099  0.3643 -0.0568  0.4092
  420SOL    HW3 1453   1.566   2.273   5.144  1.1364 -0.8867 -0.2343
  420SOL    MW4 1454   1.507   2.255   5.083  0.2811 -0.3533 -0.4740
  421SOL     OW 1455   5.880   2.668   1.690  0.4483 -0.0107 -0.0475
  421SOL    HW2 1456   5.858   2.695   1.601  2.4196  1.6360 -0.0868
  421SOL    HW3 1457   5.868   2.747   1.743 -0.2313 -0.8433  1.1126
  421SOL    MW4 1458   5.875   2.682   1.685  0.4041 -0.0796 -0.4101
  422SOL     OW 1459   5.800   4.320   1.740  0.4719  0.1420 -0.2485
  422SOL    HW2 1460   5.876   4.300   1.795  0.1252 -0.9939 -0.1558
  422SOL    HW3 1461   5.838   4.352   1.658  1.0112  0.8528  0.2589
  422SOL    MW4 1462   5.815   4.322   1.737 -0.8868  0.1536 -0.1380
  423SOL     OW 1463   0.634   1.380   4.261 -0.2344  0.5071  0.3998
  423SOL    HW2 1464   0.565   1.315   4.271  0.2732  0.0039  0.6879
  423SOL    HW3 1465   0.643   1.419   4.348  2.0853 -1.7439  1.3041
  423SOL    MW4 1466   0.626   1.377   4.274  0.6971  0.0531  0.3527
  424SOL     OW 1467   3.295   0.076   3.658 -0.7897 -0.0992 -0.3063
  424SOL    HW2 1468   3.241   0.099   3.734 -1.6483  1.9431 -1.4404
  424SOL    HW3 1469   3.385   0.084   3.689 -1.1262  0.1788  0.6393
  424SOL    MW4 1470   3.300   0.080   3.672 -0.6919 -0.4111  0.3102
  425SOL     OW 1471   0.656   5.050   2.857 -0.2315  0.0004 -0.1453
  425SOL    HW2 1472   0.624   5.130   2.900  2.1048  0.2170  1.3753
  425SOL    HW3 1473   0.687   5.081   2.772  1.5808  0.9729  0.8176
  425SOL    MW4 1474   0.656   5.065   2.852 -0.0496  0.4680  0.1799
  426SOL     OW 1475   5.765   1.148   6.022 -0.3235 -0.6615  0.2342
  426SOL    HW2 1476   5.817   1.228   6.022 -0.4307 -0.5684  1.7845
  426SOL    HW3 1477   5.789   1.104   5.941  1.2145  0.0009  0.2970
  426SOL    MW4 1478   5.775   1.152   6.011  0.4200 -0.1339  0.2187
  427SOL     OW 1479   1.521   0.301   2.525 -0.1182  0.1826  0.7325
  427SOL    HW2 1480   1.495   0.276   2.436 -0.0775 -0.3823  0.8761
  427SOL    HW3 1481   1.592   0.364   2.512  0.4009 -0.4593  0.3629
  427SOL    MW4 1482   1.527   0.306   2.512  0.1697  0.0466  0.0466
  428SOL     OW 1483   2.890   0.417   3.311  0.1154 -0.0785  0.1306
  428SOL    HW2 1484   2.817   0.447   3.257  1.1548 -1.5292 -2.2307
  428SOL    HW3 1485   2.961   0.402   3.249  1.8872 -0.4046  2.1297
  428SOL    MW4 1486   2.890   0.419   3.296 -0.4438  0.1779 -0.5655
  429SOL     OW 1487   6.040   5.853   3.894  0.2200  0.1147  0.1731
  429SOL    HW2 1488   5.997   5.938   3.889 -3.6988 -1.3459  3.2306
  429SOL    HW3 1489   6.095   5.858   3.972  0.1701 -0.0152  0.2190
  429SOL    MW4 1490   6.041   5.865   3.904  0.7111 -0.2789 -0.2601
  430SOL     OW 1491   4.398   2.028   4.687  0.2300 -1.0052 -0.3135
  430SOL    HW2 1492   4.380   2.095   4.753  1.7924 -0.2712 -0.5683
  430SOL    HW3 1493   4.351   2.059   4.609 -1.8285 -2.0054  0.4477
  430SOL    MW4 1494   4.389   2.041   4.685  0.0429  0.2788  0.3170
  431SOL     OW 1495   2.804   0.556   6.205 -0.4528 -0.2089 -0.2413
  431SOL    HW2 1496   2.818   0.649   6.224  1.6150 -0.4613 -0.3322
  431SOL    HW3 1497   2.842   0.510   6.279 -2.1257 -1.0059  0.1591
  431SOL    MW4 1498   2.811   0.562   6.217 -0.4458 -0.1028 -0.1994
  432SOL     OW 1499   3.547   5.780   4.792 -0.3084  0.4371 -0.5127
  432SOL    HW2 1500   3.533   5.702   4.845  1.1491  1.0810  0.9011
  432SOL    HW3 1501   3.483   5.843   4.826 -0.5077  0.3209 -0.6698
  432SOL    MW4 1502   3.537   5.778   4.804 -0.2101  0.1588  0.3610
  433SOL     OW 1503   2.064   2.869   0.796  0.2732  0.4472 -0.1223
  433SOL    HW2 1504   2.113   2.826   0.867  0.1585  1.6931  0.7444
  433SOL    HW3 1505   2.019   2.942   0.839  1.8005  2.4987 -1.8017
  433SOL    MW4 1506   2.065   2.873   0.811 -0.1744 -0.0844  0.4183
  434SOL     OW 1507   0.050   5.677   5.886 -0.2943  0.2227 -0.2974
  434SOL    HW2 1508  -0.009   5.626   5.942  1.6497 -0.5987  1.0895
  434SOL    HW3 1509   0.133   5.677   5.932  1.0582  0.6527 -2.6008
  434SOL    MW4 1510   0.053   5.670   5.900  0.2643 -0.3936  0.6555
  435SOL     OW 1511   1.702   4.673   5.023  0.0159  0.3157  0.3407
  435SOL    HW2 1512   1.786   4.701   5.059 -0.8561  0.1646  2.7019
  435SOL    HW3 1513   1.662   4.754   4.990  0.4403  0.6652  0.6756
  435SOL    MW4 1514   1.708   4.688   5.024 -0.4057  0.0003  0.2200
  436SOL     OW 1515   2.460   2.650   6.166  0.2087 -0.3089  0.3716
  436SOL    HW2 1516   2.393   2.597   6.124 -0.3356  0.9138 -0.3678
  436SOL    HW3 1517   2.432   2.741   6.151  2.2246  0.2591 -0.3047
  436SOL    MW4 1518   2.447   2.655   6.159 -0.3391 -0.4134 -0.0180
  437SOL     OW 1519   2.107   4.498   2.472 -0.0704 -0.2591  0.4647
  437SOL    HW2 1520   2.011   4.508   2.473  0.0537  1.3521 -0.7046
  437SOL    HW3 1521   2.124   4.440   2.398  0.0272  2.5046 -1.8197
  437SOL    MW4 1522   2.096   4.491   2.463 -0.2064  0.3933 -1.0184
  438SOL     OW 1523   4.587   6.038   1.199 -0.3536 -0.0187  0.8124
  438SOL    HW2 1524   4.577   6.085   1.282 -1.5999  3.4957 -1.0774
  438SOL    HW3 1525   4.664   6.077   1.158 -0.2167 -1.1099 -0.0239
  438SOL    MW4 1526   4.596   6.050   1.204 -0.4076 -0.1809  0.1032
  439SOL     OW 1527   4.504   2.743   0.233 -0.3566 -0.3461 -0.0466
  439SOL    HW2 1528   4.420   2.698   0.225  0.7578 -2.8835  1.1309
  439SOL    HW3 1529   4.522   2.743   0.327  0.4647  1.1963 -0.1737
  439SOL    MW4 1530   4.495   2.737   0.245 -0.4991 -0.3326 -0.1489
  440SOL     OW 1531   0.792   1.080   4.093 -0.1528  0.0095 -0.2483
  440SOL    HW2 1532   0.835   1.073   4.179 -0.6222 -1.8974 -0.1089
  440SOL    HW3 1533   0.857   1.123   4.038  0.7502 -0.0742  0.7010
  440SOL    MW4 1534   0.806   1.084   4.097 -0.3389 -0.0123  0.5573
  441SOL     OW 1535   3.308   6.397   6.205  0.3341  0.3210 -0.8004
  441SOL    HW2 1536   3.321   6.403   6.300 -0.7770 -0.2836 -0.5951
  441SOL    HW3 1537   3.374   6.335   6.175  0.9926  0.8654 -0.4996
  441SOL    MW4 1538   3.319   6.390   6.214  0.1219  0.5324  0.4713
  442SOL     OW 1539   4.539   5.327   5.744 -0.1610  0.8694  0.0733
  442SOL    HW2 1540   4.492   5.409   5.729 -1.8286 -0.4080 -2.2538
  442SOL    HW3 1541   4.482   5.278   5.804 -0.3343  0.4870 -0.4030
  442SOL    MW4 1542   4.525   5.331   5.750  0.5429  0.0816 -0.2831
  443SOL     OW 1543   0.233   3.769   0.213 -0.2143 -0.2100  0.2136
  443SOL    HW2 1544   0.151   3.788   0.259 -0.9763 -2.7475  0.0817
  443SOL    HW3 1545   0.234   3.831   0.140 -0.6903  1.5918  1.6611
  443SOL    MW4 1546   0.222   3.780   0.209 -0.2326 -0.5052 -0.1265
  444SOL     OW 1547   2.587   2.544   0.424  0.3121  0.1181  0.0002
  444SOL    HW2 1548   2.589   2.479   0.354  1.4301 -0.3790  0.4642
  444SOL    HW3 1549   2.622   2.498   0.500 -1.7827  0.3347  1.1872
  444SOL    MW4 1550   2.592   2.529   0.425  0.4353  0.0182  0.0117
  445SOL     OW 1551   3.106   0.234   4.355 -0.2700  0.2365 -0.0769
  445SOL    HW2 1552   3.183   0.233   4.413 -0.2197  1.0132 -0.1229
  445SOL    HW3 1553   3.100   0.144   4.323  0.8005  0.2284 -0.3030
  445SOL    MW4 1554   3.115   0.222   4.358 -0.3606  0.4396  0.4169
  446SOL     OW 1555   0.679   4.863   5.793  0.0979 -0.3886 -0.3527
  446SOL    HW2 1556   0.770   4.841   5.814 -0.1021  0.2283  1.2978
  446SOL    HW3 1557   0.686   4.939   5.735  0.6427  0.0840  0.3092
  446SOL    MW4 1558   0.692   4.870   5.788  0.1086  0.4235 -0.2760
  447SOL     OW 1559   4.073   1.296   2.420 -0.4192  0.0990  0.0295
  447SOL    HW2 1560   4.140   1.348   2.464  0.1154  1.0346 -1.7853
  447SOL    HW3 1561   4.000   1.356   2.407 -0.3706  0.0000 -0.7748
  447SOL    MW4 1562   4.072   1.311   2.424  0.1796 -0.7119  0.5473
  448SOL     OW 1563   4.062   2.505   2.869 -0.3535  0.2718 -0.1695
  448SOL    HW2 1564   4.125   2.575   2.859 -1.7794  1.5970 -0.2552
  448SOL    HW3 1565   4.112   2.433   2.908  1.7259  0.3941 -2.3540
  448SOL    MW4 1566   4.077   2.505   2.873 -0.0788  0.4995 -0.1518
  449SOL     OW 1567   3.513   4.563   1.774 -0.2687  0.0260 -0.7593
  449SOL    HW2 1568   3.501   4.612   1.855  1.6412 -0.3412 -0.2154
  449SOL    HW3 1569   3.543   4.627   1.710  0.7223 -0.1240 -0.4621
  449SOL    MW4 1570   3.515   4.578   1.776 -0.5393 -0.0709 -0.1958
  450SOL     OW 1571   1.980   0.405   1.550  0.6472  0.1667 -0.1878
  450SOL    HW2 1572   2.041   0.455   1.497  0.7379  1.4282  1.0400
  450SOL    HW3 1573   2.034   0.370   1.622  0.5448 -1.5487 -0.8964
  450SOL    MW4 1574   1.995   0.407   1.553 -0.2317  0.3001 -0.1141
  451SOL     OW 1575   3.902   2.840   4.579 -0.2544 -0.3913  0.2215
  451SOL    HW2 1576   3.892   2.922   4.531  0.2874 -0.3190  0.2213
  451SOL    HW3 1577   3.883   2.863   4.670  0.3532 -0.1598  0.2922
  451SOL    MW4 1578   3.898   2.854   4.585 -0.4781 -0.2279 -0.4381
  452SOL     OW 1579   2.021   3.379   4.594  0.5311  0.1151 -0.0428
  452SOL    HW2 1580   2.062   3.381   4.507 -1.3804 -0.1678 -1.0175
  452SOL    HW3 1581   1.933   3.346   4.577  0.8156 -2.1831  2.3438
  452SOL    MW4 1582   2.015   3.375   4.580  0.1307  0.2512 -0.5352
  453SOL     OW 1583   2.195   6.262   0.898 -0.1806  0.8432  0.7130
  453SOL    HW2 1584   2.144   6.224   0.827  0.9091 -1.7027  1.1799
  453SOL    HW3 1585   2.286   6.248   0.872  0.2455 -0.2571  2.5987
  453SOL    MW4 1586   2.200   6.255   0.885 -0.3099 -0.0199  0.1341
  454SOL     OW 1587   4.277   2.082   4.447  0.2986 -0.5304 -0.5052
  454SOL    HW2 1588   4.252   2.172   4.467  0.7625 -0.7359  1.1846
  454SOL    HW3 1589   4.343   2.090   4.379  3.7077  0.8540  2.6032
  454SOL    MW4 1590   4.282   2.094   4.441 -0.1464 -1.0419  0.4300
  455SOL     OW 1591   5.666   2.908   5.920 -0.2169 -0.0945  0.3396
  455SOL    HW2 1592   5.598   2.974   5.935 -0.4321  0.4541 -2.4655
  455SOL    HW3 1593   5.619   2.834   5.881  0.7377  0.4460 -2.0125
  455SOL    MW4 1594   5.651   2.907   5.917 -0.4239 -0.8829  0.0346
  456SOL     OW 1595   3.738   0.561   5.508  0.0476 -0.3418  0.0784
  456SOL    HW2 1596   3.727   0.519   5.594  0.4006  1.2787  0.9580
  456SOL    HW3 1597   3.652   0.554   5.466 -0.6706  0.4784  1.3513
  456SOL    MW4 1598   3.725   0.555   5.514  0.3755 -0.0661  0.5510
  457SOL     OW 1599   4.290   3.791   4.283  0.3851  0.5284 -0.3396
  457SOL    HW2 1600   4.223   3.724   4.296  0.0327  0.9778  0.1998
  457SOL    HW3 1601   4.241   3.872   4.268  0.7644  1.0926  1.1982
  457SOL    MW4 1602   4.274   3.793   4.283 -0.1076 -0.6575  0.4707
  458SOL     OW 1603   0.007   2.273   4.869 -0.2859  0.2527  0.6685
  458SOL    HW2 1604   0.020   2.300   4.960 -1.1029  2.6140  0.1696
  458SOL    HW3 1605  -0.088   2.262   4.861 -0.2432  0.3020  0.0464
  458SOL    MW4 1606  -0.004   2.275   4.880  0.0571  0.2728 -0.1643
  459SOL     OW 1607   5.606   3.553   5.739 -0.9920 -0.1133  0.4023
  459SOL    HW2 1608   5.693   3.515   5.748 -0.1344  1.7340  0.3347
  459SOL    HW3 1609   5.598   3.613   5.813 -1.3509  1.2992 -0.7351
  459SOL    MW4 1610   5.616   3.556   5.750  0.4709 -0.1753 -0.9726
  460SOL     OW 1611   0.722   6.252   0.941 -0.7166  0.0052  0.5370
  460SOL    HW2 1612   0.782   6.192   0.896 -1.6028 -2.1338  2.0652
  460SOL    HW3 1613   0.657   6.275   0.874  0.2367  0.1743 -0.3648
  460SOL    MW4 1614   0.722   6.248   0.926  0.1242  0.0803  0.0491
  461SOL     OW 1615   1.112   6.390   1.244  0.1028  0.2681  0.2043
  461SOL    HW2 1616   1.095   6.296   1.237  2.1989 -0.0714 -1.6881
  461SOL    HW3 1617   1.074   6.426   1.164  2.6727  0.3327 -1.1134
  461SOL    MW4 1618   1.105   6.382   1.232  0.2671  0.1519 -0.5784
  462SOL     OW 1619   5.995   3.437   2.266  0.3319  0.0316  0.0665
  462SOL    HW2 1620   6.074   3.399   2.228  0.6072  0.9839 -0.3375
  462SOL    HW3 1621   5.964   3.371   2.328  0.5222 -1.0532 -0.9505
  462SOL    MW4 1622   6.001   3.424   2.269 -0.2700 -0.3370  0.3949
  463SOL     OW 1623   0.061   3.687   0.652 -0.7247  0.0262 -0.1215
  463SOL    HW2 1624   0.084   3.627   0.581 -0.0675  1.6891 -1.3942
  463SOL    HW3 1625   0.006   3.753   0.610 -1.0467  0.5612  1.1170
  463SOL    MW4 1626   0.057   3.688   0.637 -0.0745 -0.0838  0.5305
  464SOL     OW 1627   5.458   5.459   4.020 -0.4890 -0.7846  0.0529
  464SOL    HW2 1628   5.390   5.404   3.982 -0.4029 -0.8295 -0.0363
  464SOL    HW3 1629   5.529   5.399   4.040 -0.0477 -0.5793 -0.8472
  464SOL    MW4 1630   5.458   5.444   4.018 -0.1894 -0.2820  0.1168
  465SOL     OW 1631   4.974   5.494   5.148 -0.0950 -0.0266  0.5324
  465SOL    HW2 1632   4.908   5.424   5.140  0.3176 -0.3237 -0.4487
  465SOL    HW3 1633   4.939   5.552   5.215 -1.1191 -0.4512  0.3903
  465SOL    MW4 1634   4.960   5.492   5.156  0.2787  0.3414  0.3063
  466SOL     OW 1635   5.224   0.053   3.057  0.4391  0.1687  0.2479
  466SOL    HW2 1636   5.217  -0.002   2.980 -3.3263 -2.3517  2.0958
  466SOL    HW3 1637   5.240  -0.008   3.129 -0.9774  1.8004  2.0369
  466SOL    MW4 1638   5.225   0.038   3.056  0.1844 -0.0931 -0.6285
  467SOL     OW 1639   0.311   0.100   3.402 -0.0108  0.1551 -0.1858
  467SOL    HW2 1640   0.289   0.060   3.318 -3.1867  0.0824  0.5652
  467SOL    HW3 1641   0.260   0.181   3.405 -0.4688 -0.1454  1.9041
  467SOL    MW4 1642   0.302   0.105   3.391 -0.5134 -0.2011  0.1936
  468SOL     OW 1643   4.367   4.103   0.002  0.0473 -0.5160 -0.0078
  468SOL    HW2 1644   4.361   4.126   0.095 -0.9798 -0.3790 -0.0932
  468SOL    HW3 1645   4.436   4.160  -0.033 -1.1338  1.1034  0.2002
  468SOL    MW4 1646   4.375   4.114   0.009 -0.3128 -0.4473 -0.0773
  469SOL     OW 1647   2.763   2.701   0.726 -0.1680  0.4948 -0.2003
  469SOL    HW2 1648   2.732   2.733   0.641  1.1878 -1.1845 -1.4126
  469SOL    HW3 1649   2.712   2.621   0.741 -2.9345  2.5386  2.3814
  469SOL    MW4 1650   2.752   2.694   0.717  0.1137  0.2949  0.7132
  470SOL     OW 1651   0.417   5.351   4.710  0.0377  0.1950  0.4755
  470SOL    HW2 1652   0.430   5.438   4.672 -1.4427  1.1684  2.0262
  470SOL    HW3 1653   0.485   5.343   4.777 -0.4080  0.5921  0.9879
  470SOL    MW4 1654   0.427   5.362   4.714 -0.2235  0.2824  0.3472
  471SOL     OW 1655   4.161   5.037   4.282  0.3326 -0.4212  0.5329
  471SOL    HW2 1656   4.111   5.106   4.237  1.2019 -1.1356 -1.6778
  471SOL    HW3 1657   4.100   5.002   4.347 -0.8160  1.0370  0.3043
  471SOL    MW4 1658   4.146   5.042   4.285  0.3159 -0.1013 -0.2046
  472SOL     OW 1659   1.552   5.114   2.543 -0.1191 -0.8209  0.5227
  472SOL    HW2 1660   1.519   5.179   2.480 -1.2024 -0.8335  1.0600
  472SOL    HW3 1661   1.480   5.052   2.553  0.0600 -0.8448  1.7376
  472SOL    MW4 1662   1.538   5.115   2.536  0.6806 -0.2189  0.1650
  473SOL     OW 1663   0.404   0.433   0.916 -0.5810  0.0522 -0.1172
  473SOL    HW2 1664   0.403   0.410   1.009 -0.8263 -0.5026 -0.2499
  473SOL    HW3 1665   0.314   0.459   0.897 -0.2430  1.4629  0.1002
  473SOL    MW4 1666   0.392   0.433   0.926 -0.0837  0.0413 -0.4624
  474SOL     OW 1667   2.875   1.775   4.169 -0.0995  0.1753  0.5545
  474SOL    HW2 1668   2.968   1.795   4.159 -0.0208 -0.5864 -0.4472
  474SOL    HW3 1669   2.872   1.715   4.243 -0.0815  1.9971  2.0808
  474SOL    MW4 1670   2.887   1.769   4.177  0.0472 -0.6864 -0.1578
  475SOL     OW 1671   5.663   2.774   2.018 -0.4554  1.1776 -0.1735
  475SOL    HW2 1672   5.648   2.840   1.951 -2.3797  1.9765  0.9655
  475SOL    HW3 1673   5.641   2.691   1.976  1.4577  1.2580 -1.4484
  475SOL    MW4 1674   5.658   2.772   2.004 -0.0960 -0.4166 -0.0781
  476SOL     OW 1675   5.718   2.958   1.263 -0.2231 -0.4063  0.2034
  476SOL    HW2 1676   5.637   3.000   1.234  0.7037  0.1079 -1.8277
  476SOL    HW3 1677   5.754   3.018   1.328 -1.3716 -0.5689  1.0152
  476SOL    MW4 1678   5.713   2.971   1.268 -0.5484 -0.1022  0.6613
  477SOL     OW 1679   2.957   4.410   4.073  0.4180 -0.3747 -0.3086
  477SOL    HW2 1680   2.927   4.500   4.060 -2.1579 -1.1745 -0.5698
  477SOL    HW3 1681   2.998   4.386   3.990  1.7847  0.7383  0.0075
  477SOL    MW4 1682   2.958   4.418   4.060 -0.1504 -0.2857  0.5448
  478SOL     OW 1683   3.390   4.291   1.054  0.6981  0.2697  0.1383
  478SOL    HW2 1684   3.412   4.244   1.135 -1.4230 -1.1669 -0.0262
  478SOL    HW3 1685   3.438   4.374   1.061  1.9623 -0.5262  2.0204
  478SOL    MW4 1686   3.399   4.296   1.066  0.2862 -0.0573  0.5350
  479SOL     OW 1687   2.719   1.604   3.415 -0.1933  0.2624 -0.3570
  479SOL    HW2 1688   2.640   1.653   3.436  0.2426  0.9087 -0.1871
  479SOL    HW3 1689   2.790   1.667   3.428  0.3522 -0.3265 -0.4455
  479SOL    MW4 1690   2.718   1.619   3.420 -0.2619 -0.0621 -0.0755
  480SOL     OW 1691   0.658   4.307   0.574  0.3678  0.4403  0.1788
  480SOL    HW2 1692   0.700   4.265   0.649  0.1903  0.8702  0.5292
  480SOL    HW3 1693   0.705   4.273   0.498  1.8639  1.4429  0.5850
  480SOL    MW4 1694   0.670   4.297   0.574 -0.0167  0.1922  0.2916
  481SOL     OW 1695   2.066   3.711   1.869 -0.3249 -0.6690  0.3224
  481SOL    HW2 1696   2.155   3.734   1.893 -0.3965  0.7457 -0.6460
  481SOL    HW3 1697   2.074   3.625   1.827  0.7188 -0.2050 -0.4710
  481SOL    MW4 1698   2.078   3.702   1.866  0.2046 -0.5280 -0.0151
  482SOL     OW 1699   0.750   1.540   1.573 -0.2175 -0.2147  0.3563
  482SOL    HW2 1700   0.692   1.607   1.538  0.5144  0.4728  0.4265
  482SOL    HW3 1701   0.790   1.581   1.651 -0.1387 -0.9086  0.6866
  482SOL    MW4 1702   0.748   1.554   1.579 -0.8033 -0.5731  0.4396
  483SOL     OW 1703   1.840   4.550   0.515  0.0813  0.2374  0.7356
  483SOL    HW2 1704   1.794   4.466   0.517  0.6690 -0.0841  0.8101
  483SOL    HW3 1705   1.810   4.595   0.594 -0.5609  0.2839  0.4784
  483SOL    MW4 1706   1.830   4.545   0.526 -0.5810  0.3497  0.0257
  484SOL     OW 1707   0.173   0.710   4.832 -0.1903 -0.6368  0.3632
  484SOL    HW2 1708   0.079   0.722   4.818  0.1091  1.3874 -0.2901
  484SOL    HW3 1709   0.214   0.762   4.763  1.4386 -2.3567 -0.0354
  484SOL    MW4 1710   0.166   0.719   4.821  0.1812  0.2833  0.3641
  485SOL     OW 1711   4.421   0.007   4.970 -0.1349 -0.0931  0.1407
  485SOL    HW2 1712   4.377   0.087   4.998 -0.4660 -0.7723  1.6301
  485SOL    HW3 1713   4.362  -0.063   4.993  0.7085 -0.8698  0.0098
  485SOL    MW4 1714   4.408   0.009   4.976 -0.2094 -0.3236 -0.4726
  486SOL     OW 1715   6.382   5.647   1.158  0.3670  0.0300 -0.3584
  486SOL    HW2 1716   6.343   5.659   1.244 -0.4404 -1.7454 -0.4330
  486SOL    HW3 1717   6.462   5.699   1.160  0.2856  0.1356  1.3993
  486SOL    MW4 1718   6.387   5.655   1.169 -0.0424  0.0378  0.0634
  487SOL     OW 1719   1.557   1.635   6.171 -0.0651 -0.1256  0.2224
  487SOL    HW2 1720   1.630   1.694   6.152 -1.0048  0.4768 -1.8689
  487SOL    HW3 1721   1.487   1.664   6.112 -1.4065 -1.7844  0.9093
  487SOL    MW4 1722   1.557   1.647   6.160 -0.4561  0.0049  0.7077
  488SOL     OW 1723   4.487   4.689   6.234  0.4867  0.4062 -0.3680
  488SOL    HW2 1724   4.536   4.625   6.286  1.1355  0.5780 -0.7554
  488SOL    HW3 1725   4.412   4.640   6.201  1.1846 -0.2899 -0.9864
  488SOL    MW4 1726   4.484   4.674   6.236  0.1561  0.1284  0.0175
  489SOL     OW 1727   4.061   3.960   4.240  0.5769  0.1145  0.3019
  489SOL    HW2 1728   4.073   3.979   4.333  0.8841  0.0585  0.2746
  489SOL    HW3 1729   4.011   4.035   4.206  2.9531  1.5967 -0.1004
  489SOL    MW4 1730   4.056   3.972   4.248 -0.6957 -0.5604  0.2585
  490SOL     OW 1731   2.786   1.596   5.379  0.0675  0.1048  0.2681
  490SOL    HW2 1732   2.741   1.664   5.329 -2.1023 -1.0068  0.5954
  490SOL    HW3 1733   2.858   1.568   5.322 -0.6769  0.7709 -1.0508
  490SOL    MW4 1734   2.789   1.601   5.365 -0.7417  0.1808  0.0912
  491SOL     OW 1735   4.536   2.859   5.608  0.1573  0.3013 -0.6427
  491SOL    HW2 1736   4.589   2.869   5.529  0.8222  0.1873 -0.2138
  491SOL    HW3 1737   4.560   2.774   5.644 -0.6186  0.0665 -0.6645
  491SOL    MW4 1738   4.546   2.849   5.603  0.2179  0.8257  0.4787
  492SOL     OW 1739   3.572   3.594   3.864  0.0670  0.5775  0.2296
  492SOL    HW2 1740   3.483   3.628   3.850 -0.0135  0.2460 -0.1011
  492SOL    HW3 1741   3.613   3.600   3.778  0.0563 -0.1300  0.1654
  492SOL    MW4 1742   3.565   3.599   3.851 -0.4765 -0.1884  0.4109
  493SOL     OW 1743   5.531   4.483   0.469 -0.0434  0.0118  0.4928
  493SOL    HW2 1744   5.583   4.403   0.467 -0.6197 -0.3563 -1.6667
  493SOL    HW3 1745   5.576   4.542   0.408 -0.6755  0.6772  0.6536
  493SOL    MW4 1746   5.544   4.480   0.461 -0.5073 -0.0027  0.7777
  494SOL     OW 1747   2.672   1.174   6.319  0.0775  0.2315 -0.1245
  494SOL    HW2 1748   2.633   1.222   6.392  0.0316 -0.4888  0.3357
  494SOL    HW3 1749   2.614   1.191   6.245 -0.2192  0.4658  0.1603
  494SOL    MW4 1750   2.659   1.182   6.319 -0.6472 -0.2981  0.7147
  495SOL     OW 1751   0.115   3.719   2.892  0.5465 -0.1727 -0.0727
  495SOL    HW2 1752   0.027   3.751   2.911  0.3158 -1.1593  0.6533
  495SOL    HW3 1753   0.149   3.779   2.826 -0.9590 -0.2313 -0.9579
  495SOL    MW4 1754   0.108   3.731   2.886  0.2040 -0.1015 -0.4541
  496SOL     OW 1755   3.046   4.987   0.842 -0.4434 -0.6955  0.3199
  496SOL    HW2 1756   3.135   5.001   0.810 -0.4671 -1.7804 -0.2684
  496SOL    HW3 1757   3.043   4.893   0.864 -1.1136 -0.4429  1.3722
  496SOL    MW4 1758   3.057   4.976   0.841 -0.2314 -0.2455  0.4608
  497SOL     OW 1759   5.392   3.873   3.352  0.3792 -0.0878 -0.4072
  497SOL    HW2 1760   5.415   3.924   3.430 -1.4354 -0.0266  0.1273
  497SOL    HW3 1761   5.476   3.839   3.320  1.0514 -1.3156  2.3809
  497SOL    MW4 1762   5.406   3.875   3.358  0.0027  0.1322 -0.0533
  498SOL     OW 1763   0.976   5.291   5.191  0.1051 -0.0773 -0.4131
  498SOL    HW2 1764   0.893   5.304   5.146 -1.4165 -0.2434  2.1007
  498SOL    HW3 1765   0.984   5.196   5.199 -0.2628 -0.0375  0.6178
  498SOL    MW4 1766   0.966   5.280   5.186  0.0993 -0.5952  0.6370
  499SOL     OW 1767   0.639   5.221   3.193 -0.4782 -0.2971  0.1832
  499SOL    HW2 1768   0.581   5.236   3.118 -0.0009  0.2214 -0.0970
  499SOL    HW3 1769   0.655   5.309   3.229 -0.1077 -0.4613  0.4285
  499SOL    MW4 1770   0.634   5.235   3.188  0.2799  0.4555 -0.0274
  500SOL     OW 1771   4.819   4.029   0.910  0.0175 -0.7462  0.2012
  500SOL    HW2 1772   4.805   4.033   1.004 -1.1403 -1.6706  0.0922
  500SOL    HW3 1773   4.738   4.063   0.872  0.1569 -1.1247 -0.4540
  500SOL    MW4 1774   4.807   4.034   0.917  0.3242  0.4061  0.3809
  501SOL     OW 1775   0.769   5.876   5.021 -0.3082 -0.2036  0.1989
  501SOL    HW2 1776   0.725   5.951   4.980  1.9021  0.6795 -0.7198
  501SOL    HW3 1777   0.849   5.912   5.058  0.1017 -1.8830  1.0595
  501SOL    MW4 1778   0.774   5.891   5.020 -0.5362  0.2415  0.4585
  502SOL     OW 1779   2.425   5.470   1.121  0.1346  0.4592 -0.0423
  502SOL    HW2 1780   2.406   5.415   1.197 -0.1733  1.8829  0.9460
  502SOL    HW3 1781   2.442   5.557   1.158  1.6995  0.8065 -1.4556
  502SOL    MW4 1782   2.425   5.474   1.136 -0.1065 -0.1062 -0.2860
  503SOL     OW 1783   5.415   0.311   3.842  0.4461  0.5001  0.2153
  503SOL    HW2 1784   5.325   0.281   3.833  0.4888  0.4618 -0.1134
  503SOL    HW3 1785   5.468   0.234   3.823  0.5501  0.6249 -0.0094
  503SOL    MW4 1786   5.410   0.297   3.838 -0.0106 -0.4505  0.2300
  504SOL     OW 1787   3.022   0.395   5.889 -0.1969  0.3634  0.0637
  504SOL    HW2 1788   3.062   0.355   5.966  0.2658 -1.7285 -1.2006
  504SOL    HW3 1789   2.928   0.375   5.898 -0.0508 -0.4983 -0.2494
  504SOL    MW4 1790   3.015   0.387   5.901 -0.2664  0.1844 -0.3885
  505SOL     OW 1791   1.284   5.549   6.050  0.2338  0.3078  0.0220
  505SOL    HW2 1792   1.331   5.559   6.133  0.0510 -0.1310  0.1801
  505SOL    HW3 1793   1.241   5.634   6.037  0.1346  0.3278  0.4554
  505SOL    MW4 1794   1.285   5.562   6.059 -0.4760  0.9101  0.0190
  506SOL     OW 1795   0.490   5.411   1.059  0.1088  0.2316 -0.1312
  506SOL    HW2 1796   0.394   5.407   1.057 -0.0540  2.7329 -1.0603
  506SOL    HW3 1797   0.517   5.379   0.973  0.0868 -0.1168 -0.0091
  506SOL    MW4 1798   0.481   5.406   1.048  0.1175 -0.0350  0.6699
  507SOL     OW 1799   5.623   3.909   5.282 -0.1672 -0.2060 -0.2219
  507SOL    HW2 1800   5.641   3.894   5.375 -0.3470 -1.4045 -0.3651
  507SOL    HW3 1801   5.563   3.983   5.281 -4.0400 -3.0417  0.9839
  507SOL    MW4 1802   5.618   3.917   5.294 -0.6675  0.3305  0.0267
  508SOL     OW 1803   3.474   3.929   5.139  0.1066 -0.7306 -0.0047
  508SOL    HW2 1804   3.552   3.875   5.148  1.1819  0.5701 -1.0065
  508SOL    HW3 1805   3.484   3.997   5.206 -1.1296 -1.5897  1.1068
  508SOL    MW4 1806   3.486   3.931   5.149 -0.2137  0.4999  0.4707
  509SOL     OW 1807   5.397   1.440   0.250 -0.1069 -0.0052  0.6817
  509SOL    HW2 1808   5.489   1.426   0.273 -0.0345  0.5218  0.7290
  509SOL    HW3 1809   5.368   1.355   0.217 -0.3704 -0.9527  3.1863
  509SOL    MW4 1810   5.406   1.427   0.248 -0.0508  0.3182 -0.2803
  510SOL     OW 1811   5.286   1.845   4.376 -0.1811 -0.1389 -0.3891
  510SOL    HW2 1812   5.254   1.755   4.365 -1.0736  0.1351 -0.1419
  510SOL    HW3 1813   5.277   1.885   4.290 -2.1303  0.4266  0.0228
  510SOL    MW4 1814   5.281   1.838   4.364 -0.3419 -0.1024 -0.7797
  511SOL     OW 1815   2.918   1.094   6.004  0.6482 -0.3160  0.2192
  511SOL    HW2 1816   2.999   1.088   5.953  0.8871  2.2263  0.1395
  511SOL    HW3 1817   2.948   1.097   6.095  0.5574 -0.4670  0.2539
  511SOL    MW4 1818   2.933   1.094   6.009  0.0856 -0.2864 -0.5305
  512SOL     OW 1819   4.921   2.848   2.018 -0.4535  0.6046 -0.5596
  512SOL    HW2 1820   4.986   2.898   2.068  0.0470 -1.1231  0.5978
  512SOL    HW3 1821   4.842   2.903   2.022  0.2434  1.6108  0.1110
  512SOL    MW4 1822   4.919   2.862   2.025  1.1404  0.0284 -0.0360
  513SOL     OW 1823   2.226   0.402   0.103 -0.3978  0.3849  0.0866
  513SOL    HW2 1824   2.176   0.333   0.148 -1.3088 -0.9294 -2.7516
  513SOL    HW3 1825   2.177   0.420   0.023  2.3012  0.9218 -1.5748
  513SOL    MW4 1826   2.213   0.395   0.099  0.2296 -0.0293 -0.5806
  514SOL     OW 1827   0.496   5.986   0.012 -0.7129  0.4860 -0.4377
  514SOL    HW2 1828   0.587   6.013   0.024 -0.4284 -1.0133  1.3047
  514SOL    HW3 1829   0.493   5.945  -0.074 -0.1193  1.9181 -1.1545
  514SOL    MW4 1830   0.507   5.984   0.003  0.1786  0.5985  0.3237
  515SOL     OW 1831   6.346   4.856   3.076 -0.1052  0.4268 -0.3434
  515SOL    HW2 1832   6.428   4.891   3.111  0.5355 -0.3630 -0.9980
  515SOL    HW3 1833   6.350   4.876   2.983 -0.4616  0.0253 -0.4483
  515SOL    MW4 1834   6.357   4.863   3.068  0.3542  1.0141  0.3375
  516SOL     OW 1835   6.213   3.910   2.047  0.8429  0.1702  0.4020
  516SOL    HW2 1836   6.265   3.894   2.125 -0.7849 -1.1797  1.2671
  516SOL    HW3 1837   6.149   3.976   2.073 -0.1456 -0.7787  0.4590
  516SOL    MW4 1838   6.211   3.917   2.061 -0.6377 -0.6414 -0.3869
  517SOL     OW 1839   3.134   2.433   5.495 -0.1224  0.3534  0.4594
  517SOL    HW2 1840   3.215   2.480   5.515 -0.7304  0.5016  2.9695
  517SOL    HW3 1841   3.147   2.347   5.536 -0.3856 -0.4504 -1.0829
  517SOL    MW4 1842   3.147   2.428   5.503  0.2934 -0.0755  0.1779
  518SOL     OW 1843   4.839   3.748   4.610 -0.0014  0.3796 -0.1271
  518SOL    HW2 1844   4.896   3.816   4.648  0.0657  0.0267  0.4244
  518SOL    HW3 1845   4.900   3.682   4.576 -0.0748  0.1598  0.1640
  518SOL    MW4 1846   4.855   3.748   4.611 -0.1978 -0.0757 -0.4815
  519SOL     OW 1847   6.109   6.280   1.338  0.0865  0.2266  0.4189
  519SOL    HW2 1848   6.194   6.236   1.326 -0.1483 -0.4147  1.0886
  519SOL    HW3 1849   6.050   6.233   1.280 -0.3964 -1.0308  1.8747
  519SOL    MW4 1850   6.112   6.268   1.328 -0.3331 -0.1272 -0.5736
  520SOL     OW 1851   4.004   2.510   1.346 -0.2598 -0.1887 -0.6093
  520SOL    HW2 1852   4.092   2.476   1.363 -0.7922 -0.7702  1.2483
  520SOL    HW3 1853   4.012   2.605   1.357 -0.0485 -0.3308  0.5858
  520SOL    MW4 1854   4.017   2.518   1.349  0.2750  0.0381 -0.2314
  521SOL     OW 1855   2.628   4.104   5.445 -0.1601 -0.2614  0.0278
  521SOL    HW2 1856   2.721   4.113   5.464  0.1153 -1.9900 -0.3750
  521SOL    HW3 1857   2.623   4.100   5.350 -0.8734  1.6346 -0.0763
  521SOL    MW4 1858   2.640   4.105   5.435 -0.0960 -0.3066  0.7830
  522SOL     OW 1859   2.776   2.072   4.294 -0.1087  0.3499 -0.6616
  522SOL    HW2 1860   2.834   2.003   4.326  0.2233  1.7296  2.0063
  522SOL    HW3 1861   2.694   2.057   4.340 -0.2258  1.3585 -0.5194
  522SOL    MW4 1862   2.773   2.061   4.304  0.0654  0.3201 -0.1991
  523SOL     OW 1863   6.126   5.420   3.212 -0.1995 -0.4417 -0.0593
  523SOL    HW2 1864   6.082   5.351   3.262 -1.0176  1.2870  1.7253
  523SOL    HW3 1865   6.189   5.457   3.274  1.2312 -0.4644 -1.4341
  523SOL    MW4 1866   6.129   5.415   3.227 -0.4745 -0.0574  0.5221
  524SOL     OW 1867   2.684   2.398   3.618 -0.0892 -0.1530  0.0882
  524SOL    HW2 1868   2.746   2.390   3.545  1.2504 -0.3624  1.2098
  524SOL    HW3 1869   2.639   2.313   3.621  1.2083 -0.8514  0.6591
  524SOL    MW4 1870   2.686   2.385   3.609  0.2388 -0.2714  0.2675
  525SOL     OW 1871   1.025   3.050   5.716  0.3586  0.1707 -0.3620
  525SOL    HW2 1872   1.016   3.099   5.635  0.0370  1.5511  0.4658
  525SOL    HW3 1873   1.091   3.098   5.767  2.0980 -1.8189 -0.5850
  525SOL    MW4 1874   1.032   3.063   5.712  0.3285 -0.2131  1.0876
  526SOL     OW 1875   3.975   5.170   5.873 -0.4897  0.4035  0.4234
  526SOL    HW2 1876   3.913   5.115   5.921 -0.6689  0.7388  0.5703
  526SOL    HW3 1877   4.051   5.112   5.859 -0.8988 -0.0630  0.0859
  526SOL    MW4 1878   3.977   5.155   5.877  1.0128 -0.1383  0.2479
  527SOL     OW 1879   1.640   4.541   5.755  0.0872 -0.5515  0.0529
  527SOL    HW2 1880   1.601   4.625   5.778 -1.8837 -1.5271  0.4516
  527SOL    HW3 1881   1.631   4.535   5.660 -1.2990 -1.0134  0.2009
  527SOL    MW4 1882   1.634   4.551   5.746  0.6960  0.0360 -0.0437
  528SOL     OW 1883   3.882   1.780   6.222  0.5408  0.4788 -0.4591
  528SOL    HW2 1884   3.963   1.788   6.272  0.8592  0.2457 -0.9285
  528SOL    HW3 1885   3.839   1.865   6.233  0.6060  0.4327  0.2036
  528SOL    MW4 1886   3.887   1.793   6.230  0.4776  0.1051 -0.1490
  529SOL     OW 1887   2.868   1.635   3.924  0.1170  0.0146  0.4541
  529SOL    HW2 1888   2.860   1.704   3.990  0.0196 -1.2027  1.7705
  529SOL    HW3 1889   2.800   1.654   3.860  1.9729  2.8125 -0.8847
  529SOL    MW4 1890   2.858   1.646   3.924 -0.3293 -0.4219  0.3525
  530SOL     OW 1891   1.900   2.575   2.026 -0.0642 -0.1276  0.1323
  530SOL    HW2 1892   1.809   2.562   2.053 -0.2627  0.8444 -0.0399
  530SOL    HW3 1893   1.951   2.554   2.104 -0.3642 -1.6027 -0.0373
  530SOL    MW4 1894   1.894   2.571   2.040 -0.7148  0.8931 -0.2682
  531SOL     OW 1895   4.308   1.979   5.542  0.3946  0.5361 -0.1910
  531SOL    HW2 1896   4.393   1.967   5.583  0.0839 -1.3904  0.0075
  531SOL    HW3 1897   4.303   1.911   5.475 -0.4795  1.4376 -1.0778
  531SOL    MW4 1898   4.318   1.968   5.539  0.7249 -0.0583  0.4902
  532SOL     OW 1899   4.258   3.113   1.848 -0.2700  0.2215  0.4729
  532SOL    HW2 1900   4.204   3.043   1.886 -0.0166  0.4339  1.2439
  532SOL    HW3 1901   4.264   3.091   1.755 -1.9822  0.3695  0.2849
  532SOL    MW4 1902   4.251   3.101   1.841 -0.3917  0.1817 -1.1828
  533SOL     OW 1903   3.045   3.745   5.535  0.4206 -0.1442 -0.0212
  533SOL    HW2 1904   3.104   3.724   5.607  0.9657 -1.2233 -0.7694
  533SOL    HW3 1905   3.098   3.798   5.475  0.7550 -1.3417 -0.8270
  533SOL    MW4 1906   3.060   3.749   5.536 -0.0333 -0.3051  0.5487
  534SOL     OW 1907   5.688   2.877   2.743 -0.0107  0.0033  0.1856
  534SOL    HW2 1908   5.745   2.849   2.671  0.1485 -0.3057  0.4314
  534SOL    HW3 1909   5.736   2.949   2.784 -0.4646  0.7102 -0.5064
  534SOL    MW4 1910   5.702   2.883   2.739 -0.0730 -0.1339  0.1382
  535SOL     OW 1911   6.232   2.198   3.914  0.5876  0.1524  0.2660
  535SOL    HW2 1912   6.220   2.269   3.852 -2.3707 -1.2989 -1.0361
  535SOL    HW3 1913   6.305   2.147   3.878  1.3523  1.3590  0.0761
  535SOL    MW4 1914   6.240   2.200   3.901 -0.3542 -0.1108 -0.2607
  536SOL     OW 1915   1.931   2.427   2.947 -0.1297  0.2203  0.2356
  536SOL    HW2 1916   1.863   2.485   2.983 -0.1968  0.0495  0.3840
  536SOL    HW3 1917   1.918   2.344   2.992  0.5555  0.3572  0.6939
  536SOL    MW4 1918   1.920   2.424   2.958 -0.2224  0.3292  0.0837
  537SOL     OW 1919   5.118   5.420   2.137  0.1437  0.0485  0.4797
  537SOL    HW2 1920   5.210   5.446   2.134 -0.8500  4.1748 -0.1999
  537SOL    HW3 1921   5.101   5.403   2.230  1.3881  0.0260  0.7229
  537SOL    MW4 1922   5.128   5.421   2.149  0.4774 -0.0566 -0.4482
  538SOL     OW 1923   0.662   3.716   6.014  0.0275  0.2116  0.2006
  538SOL    HW2 1924   0.637   3.685   6.100 -0.0346  0.3421  0.2292
  538SOL    HW3 1925   0.621   3.655   5.953  0.6642 -0.3092  0.2813
  538SOL    MW4 1926   0.653   3.704   6.017  0.7265  0.5197  0.1441
  539SOL     OW 1927   0.110   0.541   5.287 -0.3140 -0.0249 -0.3398
  539SOL    HW2 1928   0.135   0.575   5.373 -0.4931  0.8461 -0.6246
  539SOL    HW3 1929   0.176   0.575   5.227 -0.3053 -0.4583 -0.5811
  539SOL    MW4 1930   0.122   0.550   5.291 -0.0606  0.1734 -0.5432
  540SOL     OW 1931   4.877   0.896   6.199  0.5209 -0.4610  0.5740
  540SOL    HW2 1932   4.903   0.871   6.111 -0.1165 -0.0781  0.2656
  540SOL    HW3 1933   4.781   0.906   6.193  0.5310  0.0511  1.1823
  540SOL    MW4 1934   4.868   0.894   6.187  0.0321 -0.1534 -0.4759
  541SOL     OW 1935   0.063   0.192   4.690  0.0861 -0.5245 -0.3290
  541SOL    HW2 1936   0.077   0.285   4.671  0.3429 -0.3090  0.8501
  541SOL    HW3 1937   0.072   0.185   4.785  2.4924 -2.1387 -0.5900
  541SOL    MW4 1938   0.066   0.203   4.700  0.3490  0.2953 -0.0876
  542SOL     OW 1939   6.250   2.062   2.819  1.2911 -0.0056  0.4308
  542SOL    HW2 1940   6.209   2.149   2.819  0.8989 -0.1523 -1.2143
  542SOL    HW3 1941   6.180   2.003   2.845  0.3768 -0.2324 -2.1868
  542SOL    MW4 1942   6.235   2.066   2.822  0.1618  0.1098  0.0658
  543SOL     OW 1943   5.871   1.273   0.747  0.6053 -0.0220 -0.6494
  543SOL    HW2 1944   5.940   1.320   0.700  0.3389 -0.0767 -1.0972
  543SOL    HW3 1945   5.801   1.264   0.683  0.1484  0.1043 -0.1703
  543SOL    MW4 1946   5.871   1.278   0.732 -0.4359 -0.6670  0.0195
  544SOL     OW 1947   2.397   0.795   0.359  0.0464  0.0914 -0.4592
  544SOL    HW2 1948   2.405   0.779   0.265 -2.1015 -2.5778 -0.3033
  544SOL    HW3 1949   2.321   0.744   0.386 -0.5631  2.2615  2.4509
  544SOL    MW4 1950   2.388   0.786   0.350  0.4698  0.0660  0.8232
  545SOL     OW 1951   2.780   0.537   5.748  0.0312 -0.0510 -0.1368
  545SOL    HW2 1952   2.803   0.602   5.814  2.0738  0.3247 -1.1268
  545SOL    HW3 1953   2.862   0.521   5.701 -1.5798  0.9801 -3.6905
  545SOL    MW4 1954   2.794   0.544   5.750  0.1976 -0.4659  0.3959
  546SOL     OW 1955   1.320   4.181   3.469  0.0927 -0.9376  0.5126
  546SOL    HW2 1956   1.361   4.183   3.383 -1.3191  2.5010 -0.2396
  546SOL    HW3 1957   1.390   4.204   3.530  0.0029  2.6399 -0.5043
  546SOL    MW4 1958   1.335   4.184   3.466  0.0160 -0.5590  0.2187
  547SOL     OW 1959   0.078   0.610   2.281  0.5953  0.3028 -0.3851
  547SOL    HW2 1960   0.090   0.524   2.240  1.2418  0.1940  0.0130
  547SOL    HW3 1961   0.105   0.672   2.215  0.8651  0.1634 -0.4059
  547SOL    MW4 1962   0.083   0.607   2.267  0.1560  0.6324 -0.1436
  548SOL     OW 1963   1.296   2.851   0.779  0.6564 -0.4264  0.3192
  548SOL    HW2 1964   1.262   2.908   0.710 -0.0133 -0.6726  0.4366
  548SOL    HW3 1965   1.275   2.895   0.860  2.3859  0.3843  0.3717
  548SOL    MW4 1966   1.289   2.864   0.780 -0.7775  0.5265  0.5642
  549SOL     OW 1967   6.117   3.628   4.605 -0.0396  0.2405 -0.4105
  549SOL    HW2 1968   6.172   3.701   4.630  0.1533 -0.8604  2.8489
  549SOL    HW3 1969   6.178   3.556   4.589 -0.3406  0.1086 -0.9906
  549SOL    MW4 1970   6.132   3.628   4.606 -0.2161  0.5760 -0.6557
  550SOL     OW 1971   6.274   4.796   1.038  0.6049 -0.2837 -0.1065
  550SOL    HW2 1972   6.252   4.715   1.084 -1.0874  1.2889  2.0402
  550SOL    HW3 1973   6.230   4.787   0.953  0.7448 -1.7291 -0.0595
  550SOL    MW4 1974   6.265   4.784   1.033 -0.3028 -0.5924 -0.0557
  551SOL     OW 1975   0.922   4.787   5.899  0.5708 -0.3645  0.2861
  551SOL    HW2 1976   0.899   4.838   5.977 -1.3689 -1.5913  0.5751
  551SOL    HW3 1977   0.920   4.696   5.928 -0.0248 -0.8330 -1.1555
  551SOL    MW4 1978   0.919   4.782   5.913  0.3665 -0.1509  0.1288
  552SOL     OW 1979   5.726   0.978   3.998 -0.3696 -0.5520  0.7350
  552SOL    HW2 1980   5.806   0.942   3.958 -0.7204 -0.6938  0.1496
  552SOL    HW3 1981   5.655   0.929   3.957 -0.7381 -0.8642  1.7151
  552SOL    MW4 1982   5.727   0.967   3.987  0.2266  0.3088 -0.1605
  553SOL     OW 1983   4.720   4.922   0.893  0.3639  0.1837  0.0886
  553SOL    HW2 1984   4.723   4.954   0.983  1.6092  0.5627 -0.0759
  553SOL    HW3 1985   4.644   4.864   0.892 -1.6385  2.5985  0.5579
  553SOL    MW4 1986   4.710   4.919   0.905 -0.5722 -0.2692 -0.4056
  554SOL     OW 1987   2.903   4.020   0.122  0.2353 -0.2285 -0.7791
  554SOL    HW2 1988   2.977   4.058   0.169 -0.2122  1.2800 -1.2274
  554SOL    HW3 1989   2.912   4.054   0.032 -1.2225  0.3682 -0.7345
  554SOL    MW4 1990   2.914   4.030   0.116 -0.6208  0.0715 -0.4699
  555SOL     OW 1991   2.777   5.347   0.643  0.3893 -0.3379  0.1500
  555SOL    HW2 1992   2.801   5.255   0.656  0.3441 -0.4491 -0.5302
  555SOL    HW3 1993   2.768   5.357   0.549  0.1400  0.3076  0.2333
  555SOL    MW4 1994   2.779   5.337   0.633 -0.0438  0.1573  0.2018
  556SOL     OW 1995   2.521   3.784   1.112  0.2152  0.1104 -0.1915
  556SOL    HW2 1996   2.554   3.755   1.027  0.6960  0.0699  0.0070
  556SOL    HW3 1997   2.442   3.834   1.091  0.9425  1.0638 -0.7645
  556SOL    MW4 1998   2.515   3.787   1.098 -0.7080  0.0859 -0.1991
  557SOL     OW 1999   1.962   0.259   4.607 -0.6948  0.2367  0.4390
  557SOL    HW2 2000   1.948   0.279   4.700 -1.5797 -0.2008  0.4119
  557SOL    HW3 2001   2.043   0.305   4.584 -1.3214  1.6753  1.0183
  557SOL    MW4 2002   1.971   0.268   4.616 -0.3571 -0.2859  0.4189
  558SOL     OW 2003   6.074   3.875   1.056  0.4407  0.0839  1.1771
  558SOL    HW2 2004   6.103   3.944   0.996 -1.0757  0.1415  0.4764
  558SOL    HW3 2005   6.150   3.818   1.067  0.5086 -0.4397 -1.5270
  558SOL    MW4 2006   6.088   3.877   1.050  0.3100 -0.4048  0.3749
  559SOL     OW 2007   3.739   4.751   2.085 -0.2423  0.1919  0.2943
  559SOL    HW2 2008   3.679   4.676   2.090  0.4176 -0.3298  0.5071
  559SOL    HW3 2009   3.726   4.787   1.997  0.3038 -0.9145 -0.2619
  559SOL    MW4 2010   3.729   4.746   2.074  0.2431 -0.4787  0.2199
  560SOL     OW 2011   5.424   1.224   1.308  0.1818 -0.3771 -0.0021
  560SOL    HW2 2012   5.507   1.176   1.302  0.1518 -0.5310  0.7552
  560SOL    HW3 2013   5.377   1.200   1.227  0.9514 -0.1314 -0.5233
  560SOL    MW4 2014   5.428   1.214   1.296 -0.4909 -0.3850 -0.3881
  561SOL     OW 2015   4.403   1.609   2.999 -0.3663 -0.1797  0.2053
  561SOL    HW2 2016   4.356   1.559   3.066 -1.1050  0.7952  0.4443
  561SOL    HW3 2017   4.343   1.611   2.924 -0.2225  0.1000  0.0988
  561SOL    MW4 2018   4.389   1.603   2.998  0.3080  0.5848 -0.0128
  562SOL     OW 2019   5.820   5.062   6.360 -0.1028 -0.0937 -0.0634
  562SOL    HW2 2020   5.876   5.139   6.355  0.9380 -0.8586 -0.3458
  562SOL    HW3 2021   5.781   5.066   6.448  0.0830  0.6458 -0.0120
  562SOL    MW4 2022   5.822   5.072   6.371  0.1725  0.0985  0.4667
  563SOL     OW 2023   3.012   2.586   4.739 -0.4425 -0.5101  0.1111
  563SOL    HW2 2024   3.050   2.499   4.728 -0.9992 -0.6833 -0.5323
  563SOL    HW3 2025   3.041   2.614   4.825  1.3375 -0.5284 -0.4492
  563SOL    MW4 2026   3.021   2.578   4.749  0.3279  0.0520 -0.4633
  564SOL     OW 2027   2.315   0.832   3.844  0.5190 -0.0995  0.6924
  564SOL    HW2 2028   2.333   0.856   3.753  0.6982 -0.2721  0.6839
  564SOL    HW3 2029   2.227   0.866   3.860 -1.0792 -3.2125 -0.6833
  564SOL    MW4 2030   2.306   0.840   3.834  0.5374 -0.3827  0.0301
  565SOL     OW 2031   2.811   6.168   2.804 -0.5803  0.3918 -0.0626
  565SOL    HW2 2032   2.878   6.182   2.871  0.6560 -3.3188 -0.3087
  565SOL    HW3 2033   2.728   6.177   2.851  0.0226  3.1404  0.6680
  565SOL    MW4 2034   2.809   6.171   2.819 -0.3327 -0.1562 -0.7975
  566SOL     OW 2035   3.976   2.154   3.113  0.0216 -0.4759  0.3878
  566SOL    HW2 2036   3.910   2.223   3.118  1.0573  0.6301 -0.5874
  566SOL    HW3 2037   3.991   2.128   3.204 -1.0584 -0.0848  0.6911
  566SOL    MW4 2038   3.969   2.159   3.126  0.0660  0.1166  0.4495
  567SOL     OW 2039   2.326   5.221   4.152 -0.1514 -0.0055 -0.4002
  567SOL    HW2 2040   2.331   5.132   4.118 -0.8417 -1.4446  2.8313
  567SOL    HW3 2041   2.238   5.228   4.189  0.6396  1.1539  1.4293
  567SOL    MW4 2042   2.315   5.211   4.153 -0.8794 -0.1345  0.2971
  568SOL     OW 2043   4.066   5.287   2.712  0.3277 -0.2469  0.6552
  568SOL    HW2 2044   4.096   5.355   2.652  2.4005  0.7979  2.7203
  568SOL    HW3 2045   3.972   5.305   2.724  0.8064  2.3198  1.1332
  568SOL    MW4 2046   4.057   5.298   2.706  0.0676  0.0841 -0.1250
  569SOL     OW 2047   2.666   1.089   2.804  0.2310 -0.7304 -0.6502
  569SOL    HW2 2048   2.723   1.024   2.844 -0.8406 -1.8179 -0.8275
  569SOL    HW3 2049   2.693   1.093   2.712  1.3339  0.2642 -0.3126
  569SOL    MW4 2050   2.677   1.081   2.797  0.4353 -0.4885  0.3046
  570SOL     OW 2051   5.201   0.858   0.099  0.2980  0.2796  0.6074
  570SOL    HW2 2052   5.128   0.913   0.073  1.4846  1.5297 -0.2266
  570SOL    HW3 2053   5.223   0.887   0.188 -1.6695 -1.7485  1.8715
  570SOL    MW4 2054   5.195   0.869   0.107 -0.1771 -0.3699  0.0196
  571SOL     OW 2055   1.947   2.345   1.201 -0.2126  0.1128  0.1826
  571SOL    HW2 2056   1.977   2.271   1.147 -0.3077  1.5929 -2.0198
  571SOL    HW3 2057   1.967   2.318   1.291  0.3996 -2.2792 -0.5806
  571SOL    MW4 2058   1.953   2.331   1.206 -0.4373  0.1173 -0.2018
  572SOL     OW 2059   2.809   0.327   0.864 -0.2322 -0.9313 -0.0321
  572SOL    HW2 2060   2.897   0.355   0.890  0.1698 -0.9019 -1.3240
  572SOL    HW3 2061   2.806   0.234   0.884  0.4683 -1.1514 -0.8693
  572SOL    MW4 2062   2.820   0.319   0.870 -0.3598 -0.1252  0.4292
  573SOL     OW 2063   2.687   5.857   3.673  0.9246  0.0907  0.2164
  573SOL    HW2 2064   2.738   5.879   3.750  0.2017  0.4315  0.6101
  573SOL    HW3 2065   2.744   5.878   3.599  2.2322 -1.7149  0.6316
  573SOL    MW4 2066   2.701   5.863   3.673  0.9416 -0.6268 -0.3088
  574SOL     OW 2067   5.220   6.108   3.448  0.3167 -0.4203 -0.2180
  574SOL    HW2 2068   5.208   6.089   3.541 -1.4359 -3.4983 -0.9277
  574SOL    HW3 2069   5.306   6.070   3.427  0.3333 -0.4791 -0.0404
  574SOL    MW4 2070   5.230   6.100   3.457 -0.3112 -0.4661 -0.3118
  575SOL     OW 2071   3.581   1.435   3.064 -0.0880  0.5373 -0.3290
  575SOL    HW2 2072   3.532   1.354   3.080 -0.6753  0.5542 -1.8871
  575SOL    HW3 2073   3.524   1.504   3.099  0.1452  0.3450  0.4605
  575SOL    MW4 2074   3.567   1.433   3.071 -0.3447  0.1730 -0.0675
  576SOL     OW 2075   3.686   0.942   3.147 -0.1487 -0.1223 -0.1135
  576SOL    HW2 2076   3.759   0.995   3.180 -1.2698  1.4190  0.0075
  576SOL    HW3 2077   3.608   0.988   3.176 -1.2059 -1.9642  0.1231
  576SOL    MW4 2078   3.686   0.955   3.155 -0.2887  0.1392  0.0408
  577SOL     OW 2079   4.602   2.168   2.541 -0.2086 -0.3993 -0.0703
  577SOL    HW2 2080   4.667   2.171   2.611 -0.4779 -2.6064  0.3412
  577SOL    HW3 2081   4.527   2.217   2.575  0.3320  0.1130  0.4098
  577SOL    MW4 2082   4.601   2.175   2.555  0.0473  0.1300 -0.4448
  578SOL     OW 2083   3.010   0.898   0.156  0.6350  0.4436 -0.1569
  578SOL    HW2 2084   3.086   0.953   0.175  1.9681 -1.8116  1.6308
  578SOL    HW3 2085   2.978   0.873   0.243 -1.4282  0.3376 -0.9057
  578SOL    MW4 2086   3.016   0.902   0.170  0.1714 -0.3441  0.0739
  579SOL     OW 2087   4.180   1.623   6.349 -0.4041  0.2226  0.2304
  579SOL    HW2 2088   4.128   1.549   6.318 -0.1969  0.1538  0.0511
  579SOL    HW3 2089   4.145   1.641   6.437  0.1172 -0.6357  0.6316
  579SOL    MW4 2090   4.168   1.616   6.357  0.3196 -0.1918  0.2952
  580SOL     OW 2091   2.719   2.736   5.055 -0.3257 -0.4151  0.3955
  580SOL    HW2 2092   2.797   2.791   5.046 -0.8472  0.1386 -1.2498
  580SOL    HW3 2093   2.666   2.781   5.120 -0.3384  0.5670 -0.2648
  580SOL    MW4 2094   2.723   2.749   5.062  0.4063  0.2821  0.3573
  581SOL     OW 2095   1.944   1.531   2.771  0.0577  0.2522 -0.4109
  581SOL    HW2 2096   2.029   1.527   2.814  1.2087  0.2639 -2.5244
  581SOL    HW3 2097   1.934   1.623   2.747 -0.8212  0.3490  0.2806
  581SOL    MW4 2098   1.954   1.543   2.773  0.6050 -0.2198 -0.5132
  582SOL     OW 2099   4.753   4.120   1.208  0.4411 -0.0981 -0.1734
  582SOL    HW2 2100   4.698   4.196   1.192 -0.2305 -0.6425 -0.5423
  582SOL    HW3 2101   4.820   4.150   1.269 -0.1587  0.6287  0.1368
  582SOL    MW4 2102   4.755   4.134   1.214 -0.0448 -0.5438  0.2994
  583SOL     OW 2103   0.594   0.396   1.578  0.2025 -0.7325 -0.3561
  583SOL    HW2 2104   0.584   0.491   1.577 -1.2820 -0.8631 -0.1491
  583SOL    HW3 2105   0.684   0.382   1.608  0.5062  0.5998 -0.5558
  583SOL    MW4 2106   0.605   0.407   1.582  0.0833  0.5422 -0.8604
  584SOL     OW 2107   6.045   1.015   0.685 -1.0186 -0.0380 -0.2940
  584SOL    HW2 2108   6.016   1.063   0.608 -1.5697  0.0938 -0.0124
  584SOL    HW3 2109   5.998   1.057   0.758  1.8880  2.0098  0.5700
  584SOL    MW4 2110   6.035   1.027   0.685 -0.3038 -0.0705  0.3309
  585SOL     OW 2111   3.313   1.438   0.383  0.4734 -0.1421 -0.4171
  585SOL    HW2 2112   3.236   1.494   0.378  0.2495 -0.5736 -2.4654
  585SOL    HW3 2113   3.281   1.356   0.420  0.4860  0.4862  1.0648
  585SOL    MW4 2114   3.299   1.435   0.387 -0.2452  0.5626 -0.3482
  586SOL     OW 2115   6.176   4.229   3.413  0.4955 -0.3145  0.0070
  586SOL    HW2 2116   6.100   4.220   3.357 -1.6226  0.2330  2.6092
  586SOL    HW3 2117   6.157   4.172   3.488  1.5662  1.5525  1.7808
  586SOL    MW4 2118   6.164   4.220   3.415 -1.0787 -0.7298  0.3192
  587SOL     OW 2119   2.025   0.974   3.183 -0.5557  0.1297 -0.4275
  587SOL    HW2 2120   1.940   1.017   3.183 -0.8679 -0.4721  0.4697
  587SOL    HW3 2121   2.082   1.032   3.233 -0.3704  0.6370 -1.2070
  587SOL    MW4 2122   2.021   0.987   3.189 -0.3048  0.2492 -0.2173
  588SOL     OW 2123   0.358   0.662   4.548  0.0899  0.1844 -0.2161
  588SOL    HW2 2124   0.419   0.708   4.605 -1.1198  0.0207  1.2620
  588SOL    HW3 2125   0.321   0.731   4.492  1.0104  0.3991 -0.5794
  588SOL    MW4 2126   0.361   0.678   4.548  0.2353  0.1104  0.0797
  589SOL     OW 2127   4.555   4.444   1.465  0.2711  0.2395 -0.5588
  589SOL    HW2 2128   4.534   4.536   1.448  0.4572 -0.0358 -2.4704
  589SOL    HW3 2129   4.478   4.410   1.511 -0.2013  1.1042 -0.6892
  589SOL    MW4 2130   4.542   4.451   1.469  0.3373 -0.3695 -0.3407
  590SOL     OW 2131   3.014   6.014   1.078 -0.9838  0.1331 -0.7187
  590SOL    HW2 2132   2.999   6.037   1.170  0.2390 -0.5881 -0.3146
  590SOL    HW3 2133   2.935   5.965   1.054 -2.2618  2.0753 -0.7168
  590SOL    MW4 2134   3.001   6.010   1.087 -0.2637  0.3028 -0.0765
  591SOL     OW 2135   0.555   2.056   3.718  0.2951 -0.0808 -0.1309
  591SOL    HW2 2136   0.560   2.105   3.800  3.2271 -1.9807  0.9968
  591SOL    HW3 2137   0.482   1.995   3.731 -0.2349  0.6693  0.4350
  591SOL    MW4 2138   0.546   2.054   3.731 -0.1362 -0.5102  0.0541
  592SOL     OW 2139   4.388   2.363   1.053  0.0943  0.9940  0.8197
  592SOL    HW2 2140   4.301   2.391   1.026  1.2068  2.9580 -1.1399
  592SOL    HW3 2141   4.427   2.325   0.974  0.5410 -1.2993  2.0581
  592SOL    MW4 2142   4.382   2.362   1.039  0.6351  0.0869 -0.4000
  593SOL     OW 2143   2.053   3.989   4.037  0.5350  0.2626  0.0628
  593SOL    HW2 2144   2.141   3.953   4.035  1.0369  1.4313  0.0170
  593SOL    HW3 2145   2.058   4.062   4.099 -0.7169 -0.4101  0.9988
  593SOL    MW4 2146   2.065   3.994   4.045  0.2093  0.7419  0.3830
  594SOL     OW 2147   1.381   2.089   3.563 -0.0913  0.4840  0.3831
  594SOL    HW2 2148   1.302   2.100   3.511  1.5814  2.1427 -2.0414
  594SOL    HW3 2149   1.439   2.037   3.507  0.3829 -1.1959  2.3370
  594SOL    MW4 2150   1.379   2.084   3.549 -0.0344  0.1416  0.0351
  595SOL     OW 2151   3.756   0.268   5.322 -0.4311  0.7619 -0.7044
  595SOL    HW2 2152   3.807   0.189   5.307 -1.5132 -0.5140  1.7578
  595SOL    HW3 2153   3.818   0.329   5.363 -0.4082 -0.0949  0.5674
  595SOL    MW4 2154   3.771   0.266   5.325 -0.6158 -0.2313 -0.1271
  596SOL     OW 2155   3.350   3.045   0.575 -0.3077 -0.7787  0.4340
  596SOL    HW2 2156   3.260   3.013   0.581 -0.5864 -0.2037 -0.4684
  596SOL    HW3 2157   3.402   2.978   0.620 -1.0153 -1.8480 -0.2847
  596SOL    MW4 2158   3.345   3.032   0.582  0.1646 -0.4474 -0.9938
  597SOL     OW 2159   3.701   6.190   0.033 -0.0768 -0.0553 -0.3915
  597SOL    HW2 2160   3.695   6.106   0.078  0.5018 -0.0026 -0.2111
  597SOL    HW3 2161   3.778   6.182  -0.024 -0.7162 -0.0739 -1.2886
  597SOL    MW4 2162   3.710   6.178   0.031  0.2289 -0.1378  0.3806
  598SOL     OW 2163   4.714   4.887   2.050  0.1270  0.3444  0.3403
  598SOL    HW2 2164   4.661   4.954   2.006  1.1063  1.1808  0.4187
  598SOL    HW3 2165   4.724   4.919   2.140  0.3267 -0.0749  0.4691
  598SOL    MW4 2166   4.708   4.900   2.056  0.3681  0.5727 -0.0949
  599SOL     OW 2167   4.820   4.042   4.842  0.1345  0.1639 -0.7765
  599SOL    HW2 2168   4.807   4.088   4.759  2.6456 -0.7271 -1.7365
  599SOL    HW3 2169   4.901   4.079   4.877  0.2001 -0.9230  0.2551
  599SOL    MW4 2170   4.829   4.053   4.835 -0.2964  0.4125 -0.2131
  600SOL     OW 2171   2.124   4.409   1.995  0.3018 -0.0587 -0.1618
  600SOL    HW2 2172   2.178   4.355   1.937 -1.5645 -0.9900 -1.1337
  600SOL    HW3 2173   2.165   4.495   1.992  2.1347 -0.8763 -0.2636
  600SOL    MW4 2174   2.136   4.413   1.987 -0.3860  0.0510 -0.0256
  601SOL     OW 2175   3.850   5.367   6.397  0.1933 -0.1817  0.4827
  601SOL    HW2 2176   3.874   5.424   6.469 -0.2653 -0.0005  0.4973
  601SOL    HW3 2177   3.770   5.324   6.426 -0.2653  0.2510 -0.0992
  601SOL    MW4 2178   3.842   5.369   6.410  0.9831 -0.0967 -0.1344
  602SOL     OW 2179   1.043   1.274   0.110 -0.0646 -0.2818 -0.0912
  602SOL    HW2 2180   0.953   1.241   0.116 -0.2873  0.0649 -1.2333
  602SOL    HW3 2181   1.034   1.367   0.093  0.5150 -0.2338 -0.1651
  602SOL    MW4 2182   1.030   1.282   0.109 -0.0553  0.2976  0.5883
  603SOL     OW 2183   6.389   1.973   1.096 -0.3944 -0.0794 -0.7057
  603SOL    HW2 2184   6.436   1.994   1.176 -1.8975  1.1036 -0.0856
  603SOL    HW3 2185   6.457   1.945   1.034  1.1806  2.0195 -0.0285
  603SOL    MW4 2186   6.404   1.972   1.098 -0.0220  0.2484  0.0437
  604SOL     OW 2187   6.090   3.393   5.390 -0.4680 -1.1339  0.2194
  604SOL    HW2 2188   6.058   3.451   5.321  1.3063 -0.5300 -0.1285
  604SOL    HW3 2189   6.116   3.313   5.343  0.0178 -1.0193  0.2963
  604SOL    MW4 2190   6.089   3.390   5.375  0.1393  0.7316 -0.1330
  605SOL     OW 2191   3.204   2.518   2.704  0.5200  0.4928  0.1329
  605SOL    HW2 2192   3.226   2.596   2.755  2.7536  1.6333 -2.3679
  605SOL    HW3 2193   3.248   2.530   2.621 -0.5087 -2.6801 -1.0232
  605SOL    MW4 2194   3.213   2.530   2.700 -0.7163 -0.1262  0.1556
  606SOL     OW 2195   4.195   0.421   1.573  0.2854  0.0499 -0.0035
  606SOL    HW2 2196   4.116   0.427   1.628 -0.0304  0.1020 -0.4524
  606SOL    HW3 2197   4.265   0.399   1.634  0.6307  3.4427  1.0422
  606SOL    MW4 2198   4.194   0.419   1.588  0.3613 -0.0626 -0.3322
  607SOL     OW 2199   6.375   1.969   4.917 -1.0438 -0.3973 -0.1240
  607SOL    HW2 2200   6.438   2.042   4.908 -0.2101 -1.0507  0.2677
  607SOL    HW3 2201   6.427   1.898   4.955 -2.1062 -0.8606  0.4771
  607SOL    MW4 2202   6.390   1.970   4.921 -0.3982  0.0645  0.8079
  608SOL     OW 2203   4.812   2.131   5.208 -0.3122  0.3874  0.0629
  608SOL    HW2 2204   4.736   2.190   5.203 -0.3047  0.6332  2.0147
  608SOL    HW3 2205   4.881   2.185   5.245  0.6046 -0.0686 -0.9392
  608SOL    MW4 2206   4.811   2.146   5.212  0.3844  0.0485  0.6234
  609SOL     OW 2207   5.966   0.792   5.614 -0.3660 -0.2877 -0.0621
  609SOL    HW2 2208   5.875   0.804   5.588 -0.2235  1.0201 -0.0579
  609SOL    HW3 2209   6.015   0.792   5.532 -0.0617  2.4418  0.0058
  609SOL    MW4 2210   5.960   0.794   5.600 -0.0989 -0.5832 -0.2535
  610SOL     OW 2211   5.499   0.115   3.001 -0.0778 -0.2740 -0.1303
  610SOL    HW2 2212   5.543   0.054   3.061  0.8844 -0.2154 -0.7664
  610SOL    HW3 2213   5.406   0.107   3.024  0.1466 -1.1573  0.5414
  610SOL    MW4 2214   5.492   0.106   3.012 -0.6976 -0.0528 -0.3570
  611SOL     OW 2215   2.826   1.433   5.048 -0.8295  0.4403 -0.1306
  611SOL    HW2 2216   2.750   1.491   5.036 -0.6368  0.6165 -0.5159
  611SOL    HW3 2217   2.827   1.378   4.970 -0.5651  0.4307 -0.1215
  611SOL    MW4 2218   2.816   1.433   5.036  0.3675  0.1218  0.5834
  612SOL     OW 2219   2.862   0.702   1.072 -0.0806 -0.2039 -0.1168
  612SOL    HW2 2220   2.890   0.621   1.114 -0.5269 -0.2163  0.1621
  612SOL    HW3 2221   2.801   0.742   1.134 -3.5369 -1.9220 -2.0979
  612SOL    MW4 2222   2.858   0.696   1.085 -0.1233 -0.0389 -0.0508
  613SOL     OW 2223   3.608   0.202   6.096 -0.1793 -0.3999 -0.6315
  613SOL    HW2 2224   3.655   0.118   6.095 -1.3684 -1.0836 -1.9320
  613SOL    HW3 2225   3.676   0.268   6.089  0.9217 -1.1428  1.8847
  613SOL    MW4 2226   3.623   0.200   6.095 -0.1200 -0.7576 -0.2314
  614SOL     OW 2227   3.627   5.762   3.653  0.4322  0.1610  0.6921
  614SOL    HW2 2228   3.532   5.754   3.664  0.2827 -0.7757 -0.9860
  614SOL    HW3 2229   3.659   5.672   3.656  0.9584  0.2542 -0.9890
  614SOL    MW4 2230   3.618   5.749   3.655  0.0092 -0.0558 -0.6595
  615SOL     OW 2231   3.201   0.429   4.062  0.7911 -0.3755 -0.5654
  615SOL    HW2 2232   3.261   0.493   4.025 -1.4534  0.8633 -2.4021
  615SOL    HW3 2233   3.208   0.440   4.157  0.7565  2.3919 -0.8118
  615SOL    MW4 2234   3.210   0.439   4.070  0.4744 -0.3953 -0.1324
  616SOL     OW 2235   4.400   2.786   1.430  0.6082 -0.3770  0.7139
  616SOL    HW2 2236   4.320   2.771   1.480  0.7185 -1.0859  0.6902
  616SOL    HW3 2237   4.403   2.714   1.367  0.1790  0.8028 -0.7253
  616SOL    MW4 2238   4.390   2.775   1.428 -0.0738  1.0236 -0.1620
  617SOL     OW 2239   0.259   3.984   5.782  0.2968  0.0382  0.4547
  617SOL    HW2 2240   0.320   3.940   5.723 -0.5517 -0.1132 -0.3269
  617SOL    HW3 2241   0.229   4.060   5.734  0.6017  0.6562  1.2190
  617SOL    MW4 2242   0.263   3.988   5.768 -0.0454  0.0982  0.5069
  618SOL     OW 2243   3.147   2.441   4.182  0.1953  0.0687 -0.2330
  618SOL    HW2 2244   3.143   2.359   4.133  0.0183  1.1814 -2.1787
  618SOL    HW3 2245   3.184   2.416   4.267  0.0158 -2.0276 -0.7119
  618SOL    MW4 2246   3.151   2.427   4.186  0.0559 -0.8988  0.1818
  619SOL     OW 2247   3.481   3.698   0.188  0.1853 -0.2482  1.0716
  619SOL    HW2 2248   3.532   3.763   0.237  1.9384 -1.6340  1.2020
  619SOL    HW3 2249   3.479   3.621   0.246  1.1480 -1.4692 -0.4383
  619SOL    MW4 2250   3.487   3.696   0.202 -0.1921 -0.1405  0.5341
  620SOL     OW 2251   1.018   3.739   5.195  0.3900 -0.0604 -0.1675
  620SOL    HW2 2252   1.058   3.773   5.115  1.1490 -0.4084  0.0601
  620SOL    HW3 2253   1.018   3.644   5.184  0.2528 -0.0961  0.1367
  620SOL    MW4 2254   1.023   3.731   5.183  0.6615  0.4008 -0.0082
  621SOL     OW 2255   0.252   3.736   1.346 -0.4224  0.3473  0.5198
  621SOL    HW2 2256   0.170   3.711   1.390 -0.4503  0.2430  0.4094
  621SOL    HW3 2257   0.226   3.805   1.284 -0.1636  1.4494  1.6063
  621SOL    MW4 2258   0.238   3.742   1.344  0.1890 -0.4972  0.0540
  622SOL     OW 2259   4.184   0.960   4.287  0.1678 -0.5329  0.3455
  622SOL    HW2 2260   4.280   0.964   4.287  0.1414  0.3739  0.8712
  622SOL    HW3 2261   4.164   0.880   4.336  0.6531 -0.2449  1.0390
  622SOL    MW4 2262   4.194   0.950   4.294 -0.0183  0.2727  0.2068
  623SOL     OW 2263   6.298   2.812   0.119 -0.2209 -0.7993 -0.2300
  623SOL    HW2 2264   6.377   2.862   0.144  0.7134 -2.3303 -0.0062
  623SOL    HW3 2265   6.293   2.742   0.184 -1.2272 -1.3018 -0.8315
  623SOL    MW4 2266   6.308   2.810   0.131 -0.1056  0.5410  0.4015
  624SOL     OW 2267   0.209   6.054   2.283 -0.4565  0.3753 -0.5965
  624SOL    HW2 2268   0.176   6.104   2.357 -0.4075  0.0216 -0.3326
  624SOL    HW3 2269   0.134   6.046   2.224 -0.5699  0.4226 -0.4595
  624SOL    MW4 2270   0.195   6.060   2.285  0.1658  0.1261 -0.3071
  625SOL     OW 2271   4.372   0.468   4.299 -0.1018  0.2453 -0.0482
  625SOL    HW2 2272   4.288   0.433   4.325 -1.3273  1.3869 -2.1904
  625SOL    HW3 2273   4.353   0.524   4.223  2.5510  0.6561 -0.5275
  625SOL    MW4 2274   4.359   0.471   4.293 -0.4516 -0.1852 -0.4839
  626SOL     OW 2275   3.374   0.431   3.311 -0.3029 -0.4236 -0.4335
  626SOL    HW2 2276   3.457   0.462   3.347 -0.1354 -0.9249 -0.3739
  626SOL    HW3 2277   3.326   0.397   3.387 -1.7326  2.3052  0.0152
  626SOL    MW4 2278   3.378   0.431   3.326 -0.8462  0.1511  0.3102
  627SOL     OW 2279   1.208   2.548   3.022  0.1080 -0.2506  0.2884
  627SOL    HW2 2280   1.125   2.516   2.986 -1.5112  2.6970  1.0662
  627SOL    HW3 2281   1.250   2.592   2.949 -1.0257  1.7386  0.7310
  627SOL    MW4 2282   1.202   2.550   3.008  0.2773 -0.0951 -0.0979
  628SOL     OW 2283   3.076   1.126   3.394  0.2926 -0.2258 -0.2712
  628SOL    HW2 2284   2.996   1.078   3.418  0.5538 -0.4038  0.2494
  628SOL    HW3 2285   3.045   1.214   3.372  0.1052  0.1398  1.3578
  628SOL    MW4 2286   3.061   1.131   3.394  0.7832  0.2144  0.1417
  629SOL     OW 2287   3.837   2.123   6.402 -0.0371  0.2345 -0.2291
  629SOL    HW2 2288   3.788   2.073   6.337 -1.0646 -0.2093  0.8332
  629SOL    HW3 2289   3.894   2.181   6.351 -0.2976 -0.5875 -1.4935
  629SOL    MW4 2290   3.838   2.124   6.387  0.0185  0.1975 -0.1725
  630SOL     OW 2291   2.412   5.975   2.959  0.0937  0.0309  0.1934
  630SOL    HW2 2292   2.350   5.929   3.017  0.6818 -0.3899  0.4974
  630SOL    HW3 2293   2.479   6.009   3.019  0.3496  0.1748 -0.1759
  630SOL    MW4 2294   2.412   5.974   2.975  0.5875  0.3274 -0.3979
  631SOL     OW 2295   2.434   3.382   0.153  0.2307 -0.5617 -0.9220
  631SOL    HW2 2296   2.432   3.307   0.212 -1.3062  0.5758  0.5559
  631SOL    HW3 2297   2.421   3.344   0.066 -2.3908 -1.9152 -0.0408
  631SOL    MW4 2298   2.432   3.367   0.149 -0.6523 -0.0575 -0.7692
  632SOL     OW 2299   3.105   4.067   2.969  0.6363  0.6796  0.7088
  632SOL    HW2 2300   3.161   4.084   3.044 -1.8545  2.6711  2.2829
  632SOL    HW3 2301   3.049   3.994   2.995  1.4115 -0.2912 -0.2514
  632SOL    MW4 2302   3.105   4.060   2.982  0.0111 -0.0967 -1.0935
  633SOL     OW 2303   0.602   2.696   0.796  0.7021 -0.2378  0.5640
  633SOL    HW2 2304   0.606   2.602   0.814 -0.1020  0.0432  2.4939
  633SOL    HW3 2305   0.646   2.736   0.871  2.6445  0.9085 -1.0821
  633SOL    MW4 2306   0.608   2.689   0.809 -0.7078  0.1305  0.0346
  634SOL     OW 2307   2.632   0.050   2.787  0.3325  0.0565 -0.0095
  634SOL    HW2 2308   2.709   0.028   2.735  0.8876  1.4801  0.1826
  634SOL    HW3 2309   2.581   0.110   2.732 -0.8050 -1.0862 -0.2513
  634SOL    MW4 2310   2.635   0.055   2.773  0.1503  0.4281 -0.1099
  635SOL     OW 2311   6.197   4.520   2.547 -0.1896  0.1929 -0.5784
  635SOL    HW2 2312   6.159   4.472   2.621  2.8026 -2.1386 -0.3548
  635SOL    HW3 2313   6.214   4.453   2.481  1.9185  1.3178 -1.2722
  635SOL    MW4 2314   6.194   4.505   2.548 -0.5664 -0.0098  0.0644
  636SOL     OW 2315   1.800   1.789   6.154  0.2082 -0.4547  0.4327
  636SOL    HW2 2316   1.871   1.794   6.217  0.5014 -0.2662  0.0854
  636SOL    HW3 2317   1.839   1.748   6.077 -0.3372 -1.3953  0.6422
  636SOL    MW4 2318   1.814   1.784   6.153 -0.5409 -0.6021  0.1594
  637SOL     OW 2319   3.655   2.684   4.934  0.2734 -0.6163  0.6782
  637SOL    HW2 2320   3.636   2.700   5.027 -1.3043 -0.6064  0.3866
  637SOL    HW3 2321   3.700   2.600   4.933  0.8244 -0.3418  1.4992
  637SOL    MW4 2322   3.658   2.675   4.946 -0.4641 -0.1617 -0.3280
  638SOL     OW 2323   6.301   3.422   2.617 -0.6878 -0.3403 -0.2996
  638SOL    HW2 2324   6.336   3.366   2.548 -0.2208  0.5156 -0.7622
  638SOL    HW3 2325   6.376   3.474   2.647 -1.2634  0.5597 -0.3762
  638SOL    MW4 2326   6.316   3.421   2.612 -0.8493 -0.1338  0.1287
  639SOL     OW 2327   1.893   6.021   1.270  0.0302 -0.0423  0.2620
  639SOL    HW2 2328   1.818   6.073   1.240  0.0800 -0.5677 -0.7866
  639SOL    HW3 2329   1.969   6.067   1.235  0.0761 -0.7889 -0.6369
  639SOL    MW4 2330   1.893   6.034   1.262 -0.2359  0.1448 -0.0938
  640SOL     OW 2331   0.991   0.742   5.639  0.1631  0.4742  0.2853
  640SOL    HW2 2332   1.034   0.811   5.589 -2.1347  0.2410 -2.2443
  640SOL    HW3 2333   1.036   0.661   5.612  0.2331  0.5591  0.1486
  640SOL    MW4 2334   1.003   0.740   5.629 -0.4034  0.6746 -0.0508
  641SOL     OW 2335   1.466   5.061   5.475 -0.2086 -0.5552 -0.3519
  641SOL    HW2 2336   1.474   4.979   5.426 -3.3978 -0.7639 -0.7781
  641SOL    HW3 2337   1.420   5.035   5.556 -0.2526  0.6302  0.0219
  641SOL    MW4 2338   1.461   5.047   5.479 -0.2796 -0.0446  0.1116
  642SOL     OW 2339   2.816   3.467   4.417 -0.2645 -0.2685 -0.5844
  642SOL    HW2 2340   2.774   3.455   4.331 -1.1905  1.0760 -0.3554
  642SOL    HW3 2341   2.813   3.381   4.458 -0.3426 -0.7970 -1.6639
  642SOL    MW4 2342   2.810   3.454   4.411 -0.1082 -0.6097 -0.1926
  643SOL     OW 2343   3.287   3.623   2.608 -0.3736  0.3999 -0.6699
  643SOL    HW2 2344   3.298   3.715   2.585  1.9657  0.3945  0.1280
  643SOL    HW3 2345   3.358   3.578   2.560  2.2362 -0.1161  3.2417
  643SOL    MW4 2346   3.298   3.629   2.598  0.1009 -0.0702  0.1387
  644SOL     OW 2347   6.112   5.877   1.560 -0.3668  0.5848  0.1773
  644SOL    HW2 2348   6.113   5.805   1.496  0.2678 -1.5093  2.4129
  644SOL    HW3 2349   6.041   5.934   1.531 -0.7129 -0.7802 -1.8304
  644SOL    MW4 2350   6.103   5.875   1.547 -0.4633  0.2677 -0.4392
  645SOL     OW 2351   3.747   4.280   3.733  0.3574  0.1234 -0.5392
  645SOL    HW2 2352   3.699   4.227   3.668  1.2673 -1.4751  0.0341
  645SOL    HW3 2353   3.828   4.303   3.689  1.4319 -1.8224  0.2944
  645SOL    MW4 2354   3.751   4.276   3.718  0.2975  0.4325 -0.5636
  646SOL     OW 2355   0.804   4.154   0.752  0.2484 -0.2525  0.0167
  646SOL    HW2 2356   0.737   4.089   0.771  0.6376 -0.5649  0.3262
  646SOL    HW3 2357   0.871   4.106   0.702  0.2969  0.0305 -0.1979
  646SOL    MW4 2358   0.804   4.139   0.748 -0.2199 -0.5524  0.1267
  647SOL     OW 2359   5.725   4.671   3.230  0.5741  0.2374 -0.2890
  647SOL    HW2 2360   5.803   4.687   3.283  2.4015 -1.7555 -2.1900
  647SOL    HW3 2361   5.675   4.606   3.279  1.0446  0.1322  0.0567
  647SOL    MW4 2362   5.728   4.665   3.243 -0.2928  0.4761 -0.0539
  648SOL     OW 2363   6.171   3.979   0.804  0.0935 -0.0913 -0.2814
  648SOL    HW2 2364   6.216   3.928   0.737 -0.0213 -0.6331  0.0415
  648SOL    HW3 2365   6.078   3.965   0.786  0.0347  1.1852 -1.0677
  648SOL    MW4 2366   6.165   3.970   0.793  0.7482 -0.7015  0.7148
  649SOL     OW 2367   5.203   6.341   3.301  0.2510  0.1895 -0.2945
  649SOL    HW2 2368   5.196   6.257   3.348  1.2036  1.3865  2.1721
  649SOL    HW3 2369   5.128   6.392   3.332  0.3943  0.7049 -0.7877
  649SOL    MW4 2370   5.192   6.336   3.311 -0.4358  0.0675 -0.0045
  650SOL     OW 2371   0.498   5.420   5.022 -0.7433 -0.2286 -0.2501
  650SOL    HW2 2372   0.588   5.452   5.030 -0.9536  0.3408 -0.1187
  650SOL    HW3 2373   0.487   5.358   5.093 -0.7062  0.3033  0.2231
  650SOL    MW4 2374   0.509   5.416   5.032  1.0934  0.0517  0.2042
  651SOL     OW 2375   3.776   1.087   4.469 -0.1375  0.2150  0.0818
  651SOL    HW2 2376   3.803   1.144   4.397  3.2324  0.2676  1.2508
  651SOL    HW3 2377   3.752   1.005   4.427  1.5353  0.3176 -1.1636
  651SOL    MW4 2378   3.776   1.084   4.454 -0.1818 -0.4652 -0.2026
  652SOL     OW 2379   2.911   3.827   2.964  0.2394 -0.0159 -0.0134
  652SOL    HW2 2380   2.821   3.793   2.966 -0.2877  1.3489  1.2407
  652SOL    HW3 2381   2.944   3.802   2.878 -1.3464 -0.5579 -0.4964
  652SOL    MW4 2382   2.903   3.820   2.953 -0.3858  0.7080  0.4198
  653SOL     OW 2383   2.737   3.235   0.793 -0.2830  0.2055  0.3884
  653SOL    HW2 2384   2.725   3.327   0.815  0.2116  0.3156  0.1993
  653SOL    HW3 2385   2.719   3.188   0.874 -0.7616  0.4519  0.4259
  653SOL    MW4 2386   2.733   3.241   0.806  0.6624 -0.2373  0.0034
  654SOL     OW 2387   1.840   4.079   3.031  0.4874 -0.2258 -0.1327
  654SOL    HW2 2388   1.779   4.034   2.972 -0.2697  0.0759  0.3995
  654SOL    HW3 2389   1.897   4.129   2.974  0.3107 -0.6087 -0.6489
  654SOL    MW4 2390   1.839   4.079   3.016 -0.5180  0.0744  0.1543
  655SOL     OW 2391   6.103   6.252   1.630  0.2306 -0.2385 -0.0295
  655SOL    HW2 2392   6.095   6.214   1.543 -0.6107  1.9142 -0.9655
  655SOL    HW3 2393   6.181   6.306   1.625  0.4398 -0.4702  0.7076
  655SOL    MW4 2394   6.112   6.254   1.618  0.0958  0.1696  0.0717
  656SOL     OW 2395   1.894   5.972   1.581 -0.3679  0.4477  0.0915
  656SOL    HW2 2396   1.943   5.897   1.613 -0.7160  0.5686  0.9426
  656SOL    HW3 2397   1.825   5.935   1.527  0.0539  0.2217 -0.2983
  656SOL    MW4 2398   1.891   5.957   1.578 -1.0699  0.3639  0.3092
  657SOL     OW 2399   1.550   4.262   0.294 -0.6700 -0.1896 -0.6084
  657SOL    HW2 2400   1.493   4.223   0.360 -0.8252  1.5479  0.3168
  657SOL    HW3 2401   1.496   4.266   0.215 -0.5638 -2.0362 -0.8267
  657SOL    MW4 2402   1.535   4.257   0.292 -0.2146  0.0986  0.1574
  658SOL     OW 2403   5.639   2.512   1.909 -0.3378  0.1365 -0.3373
  658SOL    HW2 2404   5.718   2.470   1.943  0.1610  2.2906  1.4427
  658SOL    HW3 2405   5.639   2.493   1.816  2.0604 -0.3015 -0.3090
  658SOL    MW4 2406   5.650   2.504   1.901 -0.3492 -0.5890 -0.6717
  659SOL     OW 2407   0.771   4.699   0.347  0.5069 -0.7251 -0.1732
  659SOL    HW2 2408   0.748   4.621   0.298 -0.8249 -1.3526  1.3821
  659SOL    HW3 2409   0.805   4.666   0.431 -0.2949  0.3379  0.5973
  659SOL    MW4 2410   0.773   4.685   0.352  0.6811  0.3129  0.5358
  660SOL     OW 2411   1.370   0.504   3.218  0.3862  0.0356  0.1769
  660SOL    HW2 2412   1.454   0.474   3.185 -0.0463 -0.8159 -0.1716
  660SOL    HW3 2413   1.308   0.488   3.146 -0.1451  0.2893  0.5656
  660SOL    MW4 2414   1.373   0.498   3.204 -0.2883 -0.0737  0.0815
  661SOL     OW 2415   2.242   3.861   1.067  0.0451 -0.4653  0.1570
  661SOL    HW2 2416   2.215   3.903   1.149  2.2436  1.2725  0.0695
  661SOL    HW3 2417   2.216   3.923   0.999  0.5518 -0.6845 -0.2424
  661SOL    MW4 2418   2.235   3.874   1.069 -0.3735 -0.3435 -0.5759
  662SOL     OW 2419   2.271   2.601   4.401 -0.2644  0.2652 -1.1313
  662SOL    HW2 2420   2.177   2.613   4.416  0.0694 -0.3234  2.1255
  662SOL    HW3 2421   2.306   2.690   4.395 -1.0097  0.4924 -2.8738
  662SOL    MW4 2422   2.263   2.615   4.402  0.1548  0.2160  0.0305
  663SOL     OW 2423   5.895   3.861   1.753 -0.5824 -0.7205  0.3017
  663SOL    HW2 2424   5.955   3.859   1.679 -1.8463  0.7726 -0.8375
  663SOL    HW3 2425   5.882   3.769   1.775 -0.4871 -1.2510 -1.6309
  663SOL    MW4 2426   5.901   3.848   1.746 -0.1702  0.1275  0.2474
  664SOL     OW 2427   4.781   3.804   4.948  0.8171  0.4798 -0.5420
  664SOL    HW2 2428   4.795   3.892   4.912 -0.3662  0.7891 -0.2987
  664SOL    HW3 2429   4.748   3.819   5.036  1.6278 -0.2385 -0.1116
  664SOL    MW4 2430   4.778   3.817   4.955 -0.6613  0.3192 -0.0380
  665SOL     OW 2431   5.324   2.288   4.050 -0.0189 -0.1693  0.0965
  665SOL    HW2 2432   5.291   2.327   4.130 -1.1599 -2.0384  0.5991
  665SOL    HW3 2433   5.247   2.250   4.008  0.8324 -0.7855 -0.9717
  665SOL    MW4 2434   5.310   2.288   4.055  0.2933  0.1898 -0.0516
  666SOL     OW 2435   0.018   3.892   5.444 -0.6031 -0.0268  0.0674
  666SOL    HW2 2436   0.002   3.821   5.508  2.0295 -0.9499 -0.1863
  666SOL    HW3 2437   0.039   3.968   5.498 -0.6816 -0.1902  0.3317
  666SOL    MW4 2438   0.019   3.892   5.460 -0.5921  0.4683 -0.2972
  667SOL     OW 2439   6.352   2.066   1.679 -0.1131 -0.5833  0.0605
  667SOL    HW2 2440   6.326   2.069   1.587  1.5186  0.6661 -0.4095
  667SOL    HW3 2441   6.309   2.142   1.719 -1.3505 -1.4953  0.5102
  667SOL    MW4 2442   6.343   2.076   1.672 -0.3490 -0.1359 -0.3702
  668SOL     OW 2443   2.625   1.888   0.980 -0.2506  0.2700  0.1175
  668SOL    HW2 2444   2.674   1.911   1.059 -0.9159  0.2007  0.5606
  668SOL    HW3 2445   2.596   1.798   0.995  3.2490 -1.4081 -2.0577
  668SOL    MW4 2446   2.627   1.879   0.993 -0.7512 -0.9737 -0.0128
  669SOL     OW 2447   3.099   5.517   4.010 -0.4520 -0.1404 -0.6136
  669SOL    HW2 2448   3.122   5.453   3.943 -2.3297 -1.8531  0.2758
  669SOL    HW3 2449   3.019   5.559   3.978 -1.2249 -0.7954  0.3857
  669SOL    MW4 2450   3.091   5.514   3.997 -0.5366  1.0919 -0.5332
  670SOL     OW 2451   4.214   4.157   3.685  0.6166 -0.0878 -0.0618
  670SOL    HW2 2452   4.213   4.151   3.780  1.2408  0.5167 -0.0082
  670SOL    HW3 2453   4.201   4.250   3.666 -0.6204 -0.3383 -0.6090
  670SOL    MW4 2454   4.212   4.169   3.695  0.3000  0.2513 -0.0165
  671SOL     OW 2455   4.889   3.635   6.113  0.1715  0.1721 -0.3135
  671SOL    HW2 2456   4.848   3.687   6.043  1.2061 -1.0286 -1.8713
  671SOL    HW3 2457   4.982   3.638   6.093  0.3765 -1.1356  0.3691
  671SOL    MW4 2458   4.895   3.642   6.101  0.0558  0.3410 -0.2938
  672SOL     OW 2459   3.952   0.495   1.717 -0.1854 -0.7656 -0.3278
  672SOL    HW2 2460   3.960   0.474   1.810 -0.4610  0.2646 -0.0564
  672SOL    HW3 2461   3.982   0.586   1.710  0.0330 -0.8987 -1.2807
  672SOL    MW4 2462   3.957   0.504   1.728 -0.0343  0.1190  0.6194
  673SOL     OW 2463   2.541   5.180   3.960  0.5616 -0.1602 -0.2109
  673SOL    HW2 2464   2.515   5.105   4.014  1.0601 -1.3210 -1.5449
  673SOL    HW3 2465   2.477   5.248   3.982 -0.1466 -1.0955  0.7341
  673SOL    MW4 2466   2.529   5.179   3.970  0.3340 -0.2207 -0.0979
  674SOL     OW 2467   0.942   3.409   6.200  0.7098 -0.3160  0.7452
  674SOL    HW2 2468   0.925   3.503   6.191 -0.7193 -0.7025 -1.4602
  674SOL    HW3 2469   0.907   3.386   6.286 -1.1176  0.7758  0.3468
  674SOL    MW4 2470   0.935   3.419   6.210  0.1072 -0.3303  0.0302
  675SOL     OW 2471   0.474   2.974   0.236  0.0124 -0.1722  0.3273
  675SOL    HW2 2472   0.507   2.912   0.301 -0.2386 -0.1515  0.4758
  675SOL    HW3 2473   0.464   2.922   0.156  1.4352  0.0524 -0.0336
  675SOL    MW4 2474   0.477   2.959   0.234 -0.0261  0.1369  0.8175
  676SOL     OW 2475   0.158   0.285   4.028  0.1442 -0.3479 -0.5874
  676SOL    HW2 2476   0.068   0.259   4.048 -0.6773  1.9372 -0.9938
  676SOL    HW3 2477   0.198   0.303   4.113 -0.6091  1.0332 -0.5004
  676SOL    MW4 2478   0.151   0.284   4.042  0.7438 -0.0534 -0.1459
  677SOL     OW 2479   1.511   1.394   2.699 -0.4373  0.0199 -0.3344
  677SOL    HW2 2480   1.572   1.388   2.626  0.2180  0.0538  0.1988
  677SOL    HW3 2481   1.531   1.478   2.740 -2.2931  1.0240 -1.4005
  677SOL    MW4 2482   1.522   1.404   2.695  0.4886 -0.1833 -0.0380
  678SOL     OW 2483   5.685   1.628   6.172 -0.4011  0.5154 -0.3654
  678SOL    HW2 2484   5.661   1.589   6.088  0.2669 -0.3820 -0.1578
  678SOL    HW3 2485   5.697   1.721   6.153 -0.1494  0.2981 -1.2858
  678SOL    MW4 2486   5.683   1.635   6.159  0.2209 -0.1686 -0.1455
  679SOL     OW 2487   0.850   3.123   3.756 -0.0543  0.0218  0.2577
  679SOL    HW2 2488   0.835   3.072   3.676 -0.0648 -0.8443  0.8011
  679SOL    HW3 2489   0.942   3.110   3.776 -0.5538 -1.7792  1.7042
  679SOL    MW4 2490   0.860   3.114   3.748  0.1175 -0.2595  0.9892
  680SOL     OW 2491   4.760   0.785   1.143  0.1431  0.7104  0.3559
  680SOL    HW2 2492   4.819   0.741   1.204 -0.7429  0.8133  1.3116
  680SOL    HW3 2493   4.674   0.747   1.161 -0.1559  0.8197 -0.7709
  680SOL    MW4 2494   4.756   0.774   1.154 -0.1526 -0.1792  0.1847
  681SOL     OW 2495   3.651   6.271   3.054 -0.5552 -0.0927  0.2987
  681SOL    HW2 2496   3.699   6.201   3.009  0.2400  1.1899 -0.9508
  681SOL    HW3 2497   3.588   6.226   3.109  2.1212 -1.8989  2.0959
  681SOL    MW4 2498   3.649   6.256   3.055  0.5762  0.0855 -0.0588
  682SOL     OW 2499   2.160   0.655   0.200 -0.2893  0.0000 -0.2194
  682SOL    HW2 2500   2.212   0.584   0.162  0.7643 -0.4241  1.8453
  682SOL    HW3 2501   2.125   0.703   0.124  1.6637 -0.7611 -1.6910
  682SOL    MW4 2502   2.162   0.652   0.185 -0.1877  0.3659 -0.0124
  683SOL     OW 2503   0.916   2.632   3.464  1.1010 -0.0607  0.2748
  683SOL    HW2 2504   0.904   2.548   3.507 -1.6937  0.4832  0.7514
  683SOL    HW3 2505   0.851   2.632   3.393  0.2649  2.0705  0.9666
  683SOL    MW4 2506   0.906   2.621   3.460  0.0734 -0.0192  0.2723
  684SOL     OW 2507   5.056   4.481   3.272  0.4244 -0.7840 -0.2612
  684SOL    HW2 2508   5.129   4.471   3.210 -0.4358 -1.9372 -1.1352
  684SOL    HW3 2509   5.002   4.402   3.259 -1.2603  0.2772 -0.0078
  684SOL    MW4 2510   5.059   4.469   3.262 -0.0380 -0.3130 -0.2548
  685SOL     OW 2511   2.782   2.000   5.741  0.1792 -0.1095 -0.3179
  685SOL    HW2 2512   2.874   2.028   5.743 -0.1332  0.9139 -0.1388
  685SOL    HW3 2513   2.785   1.911   5.779  0.9638  0.3154  0.6880
  685SOL    MW4 2514   2.795   1.992   5.746  0.4164 -0.1888  0.3031
  686SOL     OW 2515   3.752   4.998   5.988 -0.4428  0.1936  0.0333
  686SOL    HW2 2516   3.688   5.063   6.020 -1.1549 -0.1399 -0.6589
  686SOL    HW3 2517   3.759   4.934   6.059  0.1123  0.9166  0.6418
  686SOL    MW4 2518   3.744   4.998   6.002  0.1468  0.0019  0.1199
  687SOL     OW 2519   1.643   5.430   4.834 -0.2601  0.0995  0.2433
  687SOL    HW2 2520   1.574   5.490   4.806 -0.7587 -0.4704  0.2398
  687SOL    HW3 2521   1.618   5.404   4.922  0.3966  0.5319  0.5722
  687SOL    MW4 2522   1.631   5.435   4.842 -0.4703  0.2405  0.3172
  688SOL     OW 2523   3.014   4.053   3.286 -0.0054  0.3735  0.1439
  688SOL    HW2 2524   2.946   3.995   3.253 -0.3970  0.2236  1.2040
  688SOL    HW3 2525   2.978   4.091   3.366  1.3955 -0.2078  1.0856
  688SOL    MW4 2526   3.001   4.050   3.292  0.2605 -0.2159 -0.1456
  689SOL     OW 2527   1.030   0.503   5.048  0.1309  0.1001 -0.2364
  689SOL    HW2 2528   0.961   0.569   5.044 -0.1192  0.0906  2.1701
  689SOL    HW3 2529   1.109   0.553   5.069  0.8360  0.0607 -2.5558
  689SOL    MW4 2530   1.031   0.518   5.050  0.3574 -0.6510  0.2500
  690SOL     OW 2531   2.124   2.419   0.278 -0.0077  0.7691  0.0273
  690SOL    HW2 2532   2.159   2.385   0.361  0.9845 -1.9318 -1.3368
  690SOL    HW3 2533   2.198   2.413   0.217 -1.2447  0.6554 -1.5404
  690SOL    MW4 2534   2.139   2.413   0.281 -0.2594 -0.4557  0.3176
  691SOL     OW 2535   1.894   4.004   4.465 -0.0528 -0.1913 -0.3877
  691SOL    HW2 2536   1.834   3.938   4.500 -0.8700  1.0235  0.5802
  691SOL    HW3 2537   1.940   4.037   4.542 -0.7874  1.4733 -0.6286
  691SOL    MW4 2538   1.892   3.999   4.480  0.0702  0.5724  0.6972
  692SOL     OW 2539   0.006   4.580   0.712 -0.8400 -0.5754  0.0818
  692SOL    HW2 2540  -0.009   4.589   0.618 -1.1732 -0.2540  0.1622
  692SOL    HW3 2541  -0.017   4.666   0.748 -0.0431 -0.4711  0.3741
  692SOL    MW4 2542   0.001   4.593   0.704  0.2114  0.1852 -0.2241
  693SOL     OW 2543   1.570   2.216   1.707  1.1642  0.4455 -0.0064
  693SOL    HW2 2544   1.494   2.161   1.730  0.3356  0.9789 -1.3984
  693SOL    HW3 2545   1.632   2.200   1.779  0.1308 -0.7298  0.6847
  693SOL    MW4 2546   1.568   2.206   1.720 -0.6320  0.0043 -0.4936
  694SOL     OW 2547   5.557   3.168   5.941 -0.1622 -0.2544 -0.0397
  694SOL    HW2 2548   5.627   3.225   5.973  1.0830 -2.4907  1.4982
  694SOL    HW3 2549   5.553   3.187   5.847  1.6081  0.8730  0.0512
  694SOL    MW4 2550   5.566   3.178   5.933  0.4147  0.0897 -0.4069
  695SOL     OW 2551   1.840   0.247   2.689 -0.1345 -0.0077 -0.1607
  695SOL    HW2 2552   1.813   0.333   2.657  0.7489  0.1175 -0.5970
  695SOL    HW3 2553   1.882   0.206   2.614  2.9681  0.6960  1.0302
  695SOL    MW4 2554   1.842   0.253   2.675 -0.1473  0.1442  0.5838
  696SOL     OW 2555   3.334   5.811   3.691  0.0693  0.2065  0.0047
  696SOL    HW2 2556   3.288   5.831   3.609  1.3596  0.4913 -0.6820
  696SOL    HW3 2557   3.281   5.851   3.759 -0.6201  0.6409 -0.7660
  696SOL    MW4 2558   3.321   5.819   3.689 -0.1437  0.0030 -0.6759
  697SOL     OW 2559   3.108   0.075   2.699 -0.2889 -0.2771  0.7640
  697SOL    HW2 2560   3.187   0.032   2.731 -0.3417 -0.6623  0.3789
  697SOL    HW3 2561   3.125   0.168   2.711  1.2329 -0.1869 -1.5401
  697SOL    MW4 2562   3.121   0.082   2.705 -0.1859 -0.1539 -0.2081
  698SOL     OW 2563   3.400   3.266   0.748  0.0952 -0.2600  0.4442
  698SOL    HW2 2564   3.359   3.194   0.701  1.6377 -0.3720 -0.8151
  698SOL    HW3 2565   3.335   3.336   0.747 -1.8725 -1.9001  2.6209
  698SOL    MW4 2566   3.386   3.265   0.742 -0.2636  0.5563  0.0112
  699SOL     OW 2567   5.083   1.747   3.072  0.1842 -0.2838  0.0305
  699SOL    HW2 2568   5.027   1.724   3.146 -0.0924 -0.7459 -0.3243
  699SOL    HW3 2569   5.138   1.818   3.106 -1.4816  1.0954 -0.0049
  699SOL    MW4 2570   5.083   1.753   3.086  0.1613 -0.2013  0.4385
  700SOL     OW 2571   2.057   0.057   5.379  0.0597 -0.3097 -0.1380
  700SOL    HW2 2572   2.108   0.120   5.429 -1.4337 -0.1332  1.2528
  700SOL    HW3 2573   2.079  -0.028   5.417  0.4202 -0.4005 -0.5405
  700SOL    MW4 2574   2.067   0.054   5.391  0.1133 -0.2889  0.5853
  701SOL     OW 2575   3.528   3.491   0.376 -0.0316 -0.0273  0.4300
  701SOL    HW2 2576   3.578   3.462   0.452  1.0188 -0.3981 -0.3814
  701SOL    HW3 2577   3.528   3.415   0.317  0.2734  0.6664 -0.4843
  701SOL    MW4 2578   3.535   3.477   0.378 -0.1054 -0.1766 -0.0732
  702SOL     OW 2579   1.070   5.869   1.957 -0.5261 -0.0711  0.0478
  702SOL    HW2 2580   1.124   5.948   1.966  1.6739 -1.5969  1.3371
  702SOL    HW3 2581   1.059   5.838   2.047 -2.0723 -0.8011 -0.3713
  702SOL    MW4 2582   1.076   5.875   1.970 -0.2670  0.6453 -0.0113
  703SOL     OW 2583   0.081   3.015   4.722  0.5282 -0.0968  0.3885
  703SOL    HW2 2584   0.083   3.052   4.634  1.0516 -1.5869 -0.2443
  703SOL    HW3 2585   0.065   2.922   4.709 -0.8223 -0.1392  1.9453
  703SOL    MW4 2586   0.079   3.008   4.709 -0.0503  0.2197 -1.0718
  704SOL     OW 2587   4.103   4.768   6.370  0.3873 -0.0008 -0.3260
  704SOL    HW2 2588   4.046   4.743   6.443  0.8756  0.6301  0.2800
  704SOL    HW3 2589   4.060   4.730   6.293 -0.0240 -0.8521  0.3028
  704SOL    MW4 2590   4.090   4.760   6.370  0.8333  0.2640 -0.6143
  705SOL     OW 2591   1.746   3.640   0.237  0.1145 -0.1413  0.0362
  705SOL    HW2 2592   1.740   3.717   0.293  2.1577  0.7344 -0.8339
  705SOL    HW3 2593   1.662   3.596   0.248 -0.5590  1.4089  1.6931
  705SOL    MW4 2594   1.734   3.645   0.246  0.0939 -0.1988 -0.0639
  706SOL     OW 2595   1.568   4.843   3.868 -0.5091 -0.0320 -0.2738
  706SOL    HW2 2596   1.601   4.775   3.927  1.0187  0.5151 -0.4369
  706SOL    HW3 2597   1.523   4.905   3.926 -0.6319 -0.4338  0.0686
  706SOL    MW4 2598   1.567   4.842   3.884  0.4951 -0.5982  0.4047
  707SOL     OW 2599   3.990   5.584   1.633 -0.1202  0.3030 -0.5296
  707SOL    HW2 2600   3.962   5.674   1.645  0.6215  0.2340  2.6955
  707SOL    HW3 2601   3.909   5.533   1.632 -0.4789  0.8739 -1.0427
  707SOL    MW4 2602   3.976   5.589   1.634 -0.4558  0.1713  0.3171
  708SOL     OW 2603   1.686   5.247   0.916 -0.2253 -0.4878  0.2592
  708SOL    HW2 2604   1.777   5.272   0.931  0.0001 -0.1876 -1.4436
  708SOL    HW3 2605   1.672   5.171   0.973  1.3392 -1.0746 -0.0986
  708SOL    MW4 2606   1.696   5.240   0.926  0.7165 -0.4883 -0.0334
  709SOL     OW 2607   4.632   2.824   5.972  0.0569 -0.3469  0.4339
  709SOL    HW2 2608   4.551   2.773   5.969  0.1233 -0.5404  1.5208
  709SOL    HW3 2609   4.659   2.819   6.063  0.3115  1.2705  0.4620
  709SOL    MW4 2610   4.625   2.816   5.983  0.2946 -0.3664  0.2422
  710SOL     OW 2611   0.373   0.068   2.667 -0.1052  0.1357  0.1170
  710SOL    HW2 2612   0.339   0.025   2.746  0.7021 -0.5197  0.1213
  710SOL    HW3 2613   0.466   0.045   2.665  0.0636  0.8243 -0.5903
  710SOL    MW4 2614   0.381   0.059   2.677 -0.2357 -0.4582 -0.0920
  711SOL     OW 2615   5.269   3.866   4.244  0.0846  0.1956  0.1186
  711SOL    HW2 2616   5.226   3.813   4.311  0.3127  0.5827  0.5772
  711SOL    HW3 2617   5.258   3.816   4.163 -0.5430 -0.0815  0.3705
  711SOL    MW4 2618   5.262   3.852   4.242  0.2660 -0.4092 -0.1455
  712SOL     OW 2619   5.224   5.027   4.012 -0.3482  0.2150  0.0333
  712SOL    HW2 2620   5.235   4.992   3.924 -0.7892  1.5276 -0.5529
  712SOL    HW3 2621   5.309   5.011   4.054 -0.4034 -1.1876 -0.3243
  712SOL    MW4 2622   5.237   5.020   4.006  0.3351  0.0857  0.5329
  713SOL     OW 2623   3.121   3.200   5.812  0.4870 -0.0020 -0.2542
  713SOL    HW2 2624   3.207   3.237   5.794  1.7794 -1.1357  2.8375
  713SOL    HW3 2625   3.109   3.134   5.743  2.4012 -0.2451 -0.4234
  713SOL    MW4 2626   3.131   3.196   5.800  0.2602  0.3311 -0.0018
  714SOL     OW 2627   0.651   5.752   4.387 -0.1956 -0.4777  0.3244
  714SOL    HW2 2628   0.712   5.731   4.317  0.5097 -0.0641  0.8075
  714SOL    HW3 2629   0.664   5.845   4.404 -1.9214 -0.0397 -0.4770
  714SOL    MW4 2630   0.661   5.761   4.380 -0.0126  0.2285  0.0712
  715SOL     OW 2631   5.542   5.637   0.451 -0.0655  0.0192  0.2047
  715SOL    HW2 2632   5.520   5.584   0.527 -3.4708 -2.3197 -2.1346
  715SOL    HW3 2633   5.550   5.574   0.379  1.0421  2.2801 -1.7908
  715SOL    MW4 2634   5.540   5.622   0.452  0.1079 -0.1445 -0.5207
  716SOL     OW 2635   3.484   2.226   5.546 -0.0348  0.6024 -0.1559
  716SOL    HW2 2636   3.466   2.148   5.492 -0.2599  0.7968 -0.3619
  716SOL    HW3 2637   3.420   2.221   5.617  1.3522 -0.5796  1.0842
  716SOL    MW4 2638   3.473   2.215   5.549 -0.2881  0.5703  0.5615
  717SOL     OW 2639   5.788   0.723   2.014  0.1966  0.5206  0.5022
  717SOL    HW2 2640   5.809   0.635   2.044 -0.1481  0.5422  0.8003
  717SOL    HW3 2641   5.861   0.776   2.045  1.0293  0.1409 -0.7133
  717SOL    MW4 2642   5.801   0.718   2.022  0.3739 -0.0616  0.1406
  718SOL     OW 2643   1.471   4.944   5.049  0.2127  0.1938  0.1043
  718SOL    HW2 2644   1.482   5.001   4.973  1.0939 -0.9416 -0.6697
  718SOL    HW3 2645   1.545   4.965   5.106  0.4756 -0.0763 -0.1303
  718SOL    MW4 2646   1.483   4.954   5.046  0.1607 -0.1861 -0.2898
  719SOL     OW 2647   1.041   0.007   5.356 -0.3242 -0.1838  0.2743
  719SOL    HW2 2648   0.970   0.057   5.315 -0.1778  0.3122  0.6183
  719SOL    HW3 2649   1.003  -0.025   5.438 -0.3553 -0.4825  0.1460
  719SOL    MW4 2650   1.026   0.009   5.361  0.1423 -0.8525  0.3478
  720SOL     OW 2651   4.842   2.196   2.700 -0.3714  0.6815 -0.2123
  720SOL    HW2 2652   4.919   2.251   2.716 -1.8485  2.6949  0.4476
  720SOL    HW3 2653   4.873   2.107   2.716  1.5691  1.4919  1.0099
  720SOL    MW4 2654   4.857   2.191   2.704 -0.2816  0.2097 -0.3631
  721SOL     OW 2655   5.889   1.948   4.854 -0.4763  0.0997  0.1234
  721SOL    HW2 2656   5.879   2.022   4.913  1.1822 -0.4343  1.1511
  721SOL    HW3 2657   5.824   1.963   4.785  0.1161  2.7550  0.0343
  721SOL    MW4 2658   5.879   1.960   4.852  0.2934  0.1508  0.1435
  722SOL     OW 2659   3.390   5.629   3.421 -0.2832  0.2414  0.5242
  722SOL    HW2 2660   3.464   5.579   3.454 -0.5454 -0.8710 -0.5035
  722SOL    HW3 2661   3.422   5.719   3.415  0.0203  0.3714  2.9787
  722SOL    MW4 2662   3.404   5.634   3.425  0.7292  0.5728 -0.2195
  723SOL     OW 2663   2.937   2.760   0.992  0.2785 -1.2215  0.3104
  723SOL    HW2 2664   2.899   2.764   0.904  0.7347 -0.2550  0.1440
  723SOL    HW3 2665   2.964   2.850   1.010  0.1527 -1.4044  1.4608
  723SOL    MW4 2666   2.935   2.772   0.983  0.1241 -0.6667  0.4046
  724SOL     OW 2667   4.927   6.315   1.516 -0.3448  0.1562  0.7403
  724SOL    HW2 2668   4.865   6.241   1.519  0.0528 -0.3242 -1.2706
  724SOL    HW3 2669   4.963   6.312   1.427  0.6457  2.0142  1.0363
  724SOL    MW4 2670   4.924   6.305   1.504  0.1985  0.1714 -0.1754
  725SOL     OW 2671   0.934   4.496   2.157  0.2812  0.5558 -0.1458
  725SOL    HW2 2672   1.012   4.449   2.129  0.4397  0.4844  0.3999
  725SOL    HW3 2673   0.922   4.470   2.249 -0.8755 -0.1149 -0.4711
  725SOL    MW4 2674   0.943   4.487   2.166  0.1266 -0.0974 -0.3216
  726SOL     OW 2675   4.521   0.468   5.871 -0.7978  0.1338 -0.5004
  726SOL    HW2 2676   4.590   0.534   5.863 -0.7839 -0.0038 -1.5803
  726SOL    HW3 2677   4.569   0.387   5.892 -0.9099  0.6747  2.3143
  726SOL    MW4 2678   4.537   0.466   5.873 -0.2852  0.1542  0.1322
  727SOL     OW 2679   1.967   1.977   0.433 -0.1982 -0.2978  0.0207
  727SOL    HW2 2680   1.931   1.959   0.347  0.5129  2.0803 -0.8642
  727SOL    HW3 2681   2.061   1.988   0.418  0.1501 -1.1981  1.3636
  727SOL    MW4 2682   1.975   1.976   0.420  0.4184  0.2585 -0.1254
  728SOL     OW 2683   6.335   1.867   0.208  0.0357  0.4640 -0.3008
  728SOL    HW2 2684   6.362   1.937   0.268 -0.0175 -0.4625  0.8473
  728SOL    HW3 2685   6.246   1.846   0.235  0.0578 -0.0507 -0.6252
  728SOL    MW4 2686   6.327   1.874   0.219 -0.1109 -0.2487  0.3413
  729SOL     OW 2687   5.844   0.124   0.403 -0.1499  0.0865 -0.0267
  729SOL    HW2 2688   5.837   0.190   0.473 -2.7598 -1.2167  1.1001
  729SOL    HW3 2689   5.761   0.132   0.355  1.3391  0.5476 -2.6990
  729SOL    MW4 2690   5.832   0.134   0.406  0.9800 -0.0087 -0.1352
  730SOL     OW 2691   5.730   4.211   3.360 -0.9522 -0.1527  0.5816
  730SOL    HW2 2692   5.799   4.166   3.310 -0.5315 -2.1891  2.7777
  730SOL    HW3 2693   5.777   4.278   3.410 -0.9905  0.2602  0.0646
  730SOL    MW4 2694   5.745   4.214   3.360 -0.0317 -0.4310 -0.7297
  731SOL     OW 2695   2.633   2.749   3.589  0.2308  0.7214 -0.5183
  731SOL    HW2 2696   2.564   2.703   3.541  1.2241 -0.2564 -1.0610
  731SOL    HW3 2697   2.615   2.842   3.573  0.2128  0.4458 -2.3599
  731SOL    MW4 2698   2.621   2.755   3.580  0.0917 -0.4105 -0.2053
  732SOL     OW 2699   2.669   5.971   5.354 -0.2869  0.1839 -0.2717
  732SOL    HW2 2700   2.648   6.042   5.293 -1.0828  0.3111  0.1412
  732SOL    HW3 2701   2.607   5.902   5.333  0.1288 -0.1843 -0.3060
  732SOL    MW4 2702   2.658   5.971   5.343  0.7185 -0.4270  0.1397
  733SOL     OW 2703   4.089   0.165   1.687 -0.2141  0.0055 -0.2533
  733SOL    HW2 2704   4.159   0.153   1.624 -0.5652 -1.9990 -0.3386
  733SOL    HW3 2705   4.009   0.168   1.634 -0.4189 -0.5849  0.0166
  733SOL    MW4 2706   4.088   0.164   1.672  0.3216 -0.1191  0.0191
  734SOL     OW 2707   2.303   2.643   2.052 -0.1807  1.0392 -0.0805
  734SOL    HW2 2708   2.275   2.589   1.977 -1.4934  1.9586 -0.2923
  734SOL    HW3 2709   2.394   2.617   2.067 -1.4261 -3.2786  1.6022
  734SOL    MW4 2710   2.311   2.632   2.044  0.0516 -0.2441 -0.4008
  735SOL     OW 2711   2.165   0.366   1.756  0.3080 -0.1961 -0.3587
  735SOL    HW2 2712   2.226   0.438   1.768  0.4115  0.0462 -2.0711
  735SOL    HW3 2713   2.220   0.289   1.739  0.2180 -0.8430  1.9798
  735SOL    MW4 2714   2.180   0.365   1.755 -0.6155  0.0373  0.0441
  736SOL     OW 2715   5.348   3.494   4.305  0.4357 -0.5019  0.0435
  736SOL    HW2 2716   5.286   3.428   4.340 -0.5032  0.1713 -0.3048
  736SOL    HW3 2717   5.385   3.535   4.383 -0.3645 -0.1827  0.2667
  736SOL    MW4 2718   5.344   3.490   4.320  0.3112 -0.3679  0.2942
  737SOL     OW 2719   3.186   1.088   4.741 -0.0977  0.5398  0.5831
  737SOL    HW2 2720   3.141   1.172   4.746 -0.5489  0.3080  0.5197
  737SOL    HW3 2721   3.201   1.075   4.647 -0.3730  0.3757  0.5596
  737SOL    MW4 2722   3.182   1.097   4.729 -0.1736 -0.2944 -0.6955
  738SOL     OW 2723   1.112   5.868   3.411  0.3530 -0.1334  0.1342
  738SOL    HW2 2724   1.087   5.878   3.503 -0.9331 -2.8364  0.1750
  738SOL    HW3 2725   1.030   5.843   3.366  1.0976  0.4129 -1.6285
  738SOL    MW4 2726   1.098   5.866   3.417 -0.3794 -0.1686  0.6278
  739SOL     OW 2727   5.829   0.269   4.541 -0.5433 -0.5102 -0.0477
  739SOL    HW2 2728   5.916   0.230   4.538  0.6212  1.7228  1.2842
  739SOL    HW3 2729   5.774   0.203   4.584  0.9976 -1.1795  0.9782
  739SOL    MW4 2730   5.833   0.255   4.546  0.3395 -0.2349 -0.8117
  740SOL     OW 2731   4.097   5.781   1.064 -0.3030 -0.2117  0.8591
  740SOL    HW2 2732   4.049   5.704   1.033 -0.6603  0.1335  0.5422
  740SOL    HW3 2733   4.126   5.757   1.151  1.0422 -1.3523  0.1395
  740SOL    MW4 2734   4.094   5.768   1.071 -0.0185  0.7362  0.0440
  741SOL     OW 2735   1.690   0.269   1.543 -0.0281 -0.2601 -0.1115
  741SOL    HW2 2736   1.760   0.333   1.557  3.0935 -2.9213 -2.0897
  741SOL    HW3 2737   1.728   0.185   1.570 -2.4553 -1.8828 -1.3427
  741SOL    MW4 2738   1.704   0.266   1.548 -0.3705  1.1281  0.0830
  742SOL     OW 2739   1.555   5.311   2.307  0.3471  0.3506 -0.6509
  742SOL    HW2 2740   1.507   5.391   2.326  2.1818  1.5086 -0.6531
  742SOL    HW3 2741   1.523   5.283   2.221 -2.2144 -0.4621  0.4703
  742SOL    MW4 2742   1.544   5.318   2.298 -0.4283  0.3319 -0.1412
  743SOL     OW 2743   6.356   4.837   1.808 -0.8016 -0.7858 -0.1477
  743SOL    HW2 2744   6.399   4.790   1.879  2.5968  1.9081 -0.1707
  743SOL    HW3 2745   6.303   4.904   1.852  0.7154  0.3994 -0.0283
  743SOL    MW4 2746   6.355   4.840   1.823 -0.1362  0.7171 -0.0164
  744SOL     OW 2747   4.957   2.464   4.255  0.0046 -0.0725 -0.3009
  744SOL    HW2 2748   4.950   2.435   4.346  1.5113  1.6764  0.4555
  744SOL    HW3 2749   4.888   2.531   4.247  1.0247  1.0790  0.1713
  744SOL    MW4 2750   4.947   2.469   4.266  0.1568 -0.1973  0.3022
  745SOL     OW 2751   5.294   3.369   3.603 -0.2257  0.4087 -0.7455
  745SOL    HW2 2752   5.279   3.462   3.620 -2.6362  0.3070 -1.9354
  745SOL    HW3 2753   5.222   3.343   3.547 -0.2594 -2.4816  0.4778
  745SOL    MW4 2754   5.283   3.378   3.598  0.4491  0.3195 -0.1325
  746SOL     OW 2755   2.107   4.481   0.026  0.5107 -0.2050 -0.5207
  746SOL    HW2 2756   2.192   4.517   0.002  0.6391  0.4004  0.7524
  746SOL    HW3 2757   2.076   4.538   0.096  0.1523 -1.8242  0.7122
  746SOL    MW4 2758   2.114   4.493   0.032 -0.1702 -0.2479 -0.1824
  747SOL     OW 2759   3.289   2.719   2.874 -0.9389 -0.0043  0.6212
  747SOL    HW2 2760   3.380   2.750   2.868 -1.5231  1.5835 -0.6929
  747SOL    HW3 2761   3.279   2.697   2.967  0.9004 -0.6356  0.7238
  747SOL    MW4 2762   3.300   2.720   2.886  0.1089  0.1207  0.6854
  748SOL     OW 2763   2.789   2.157   4.009 -0.3024 -0.0629 -0.4122
  748SOL    HW2 2764   2.795   2.143   4.104 -2.6568  0.0722 -0.1831
  748SOL    HW3 2765   2.809   2.249   3.997 -1.7424  0.3612  0.2179
  748SOL    MW4 2766   2.792   2.167   4.020 -0.6531  0.3510 -0.1854
  749SOL     OW 2767   6.075   1.741   3.980  0.0308  0.5432 -0.0607
  749SOL    HW2 2768   6.040   1.819   4.022  0.5665  1.1357 -0.6910
  749SOL    HW3 2769   5.999   1.685   3.965 -0.2138  0.4470  1.4010
  749SOL    MW4 2770   6.060   1.744   3.984 -0.4065  0.3540 -0.0491
  750SOL     OW 2771   3.362   4.838   0.973  0.0236  0.3230 -0.5221
  750SOL    HW2 2772   3.354   4.754   0.927  0.8152 -0.3756  0.5519
  750SOL    HW3 2773   3.456   4.848   0.988 -0.0071  1.7243 -1.1817
  750SOL    MW4 2774   3.373   4.828   0.969  0.5170 -0.5795  0.5278
  751SOL     OW 2775   6.008   3.325   4.922  0.0605 -0.4860 -0.2720
  751SOL    HW2 2776   5.962   3.386   4.864 -0.2485 -0.0398  0.4300
  751SOL    HW3 2777   6.099   3.354   4.919  0.3064 -1.3002 -1.5739
  751SOL    MW4 2778   6.014   3.337   4.914 -0.2245  0.1669  0.2618
  752SOL     OW 2779   4.143   3.317   6.001  0.0291  0.1806 -0.5932
  752SOL    HW2 2780   4.157   3.272   5.918  0.2013 -0.2392 -0.3395
  752SOL    HW3 2781   4.231   3.331   6.036 -0.0570 -2.8172  1.2006
  752SOL    MW4 2782   4.157   3.313   5.995 -0.4321 -0.6384  0.0383
  753SOL     OW 2783   1.857   1.521   5.682 -0.0120  0.3405 -0.4138
  753SOL    HW2 2784   1.800   1.444   5.680 -0.4876  0.7000 -0.8401
  753SOL    HW3 2785   1.841   1.565   5.599 -0.6611  1.5708  0.3400
  753SOL    MW4 2786   1.847   1.517   5.671  0.4635  0.3948  0.3664
  754SOL     OW 2787   3.945   2.612   3.849 -0.3325 -0.0785 -0.0343
  754SOL    HW2 2788   3.874   2.607   3.914  0.2438  0.1223  0.6279
  754SOL    HW3 2789   3.914   2.675   3.784 -0.9302 -0.2964  0.0280
  754SOL    MW4 2790   3.932   2.620   3.849  0.7243  0.1028 -0.1982
  755SOL     OW 2791   5.313   2.735   1.311 -0.3067  0.1371 -0.2786
  755SOL    HW2 2792   5.270   2.654   1.286  0.2276  0.0928 -1.0757
  755SOL    HW3 2793   5.296   2.743   1.405 -1.9130  0.0443 -0.5361
  755SOL    MW4 2794   5.305   2.726   1.320  0.5181 -0.3148  0.0791
  756SOL     OW 2795   5.473   3.117   1.171 -0.3074  0.5545 -0.5175
  756SOL    HW2 2796   5.460   3.083   1.083  2.1737  1.9671 -1.5668
  756SOL    HW3 2797   5.489   3.211   1.158 -0.8192  0.9816  1.5544
  756SOL    MW4 2798   5.474   3.125   1.158  0.0045  0.0318 -0.3045
  757SOL     OW 2799   1.979   3.577   4.085  0.0948 -0.2531  0.0546
  757SOL    HW2 2800   1.897   3.529   4.078 -0.1266  0.1590 -0.1642
  757SOL    HW3 2801   1.960   3.649   4.145  0.8229 -1.2723  1.5740
  757SOL    MW4 2802   1.966   3.580   4.092  0.3093 -0.2437 -0.2426
  758SOL     OW 2803   2.469   0.498   4.510  0.2685  0.0281 -0.0044
  758SOL    HW2 2804   2.433   0.488   4.598 -2.6579 -0.0824 -1.1071
  758SOL    HW3 2805   2.500   0.410   4.486 -1.2850 -0.5552  0.0142
  758SOL    MW4 2806   2.468   0.485   4.518 -0.3740 -0.5469  0.3704
  759SOL     OW 2807   5.939   1.699   4.336  0.4097 -0.5540  0.6850
  759SOL    HW2 2808   5.990   1.765   4.290  0.0942 -0.5496  0.3400
  759SOL    HW3 2809   6.005   1.638   4.371  0.6232 -0.9560 -0.3842
  759SOL    MW4 2810   5.955   1.700   4.334  0.4197  0.1648  0.5096
  760SOL     OW 2811   5.714   3.743   0.373 -0.0420 -0.4121  0.1264
  760SOL    HW2 2812   5.673   3.747   0.459 -1.7066  3.4371 -0.6863
  760SOL    HW3 2813   5.799   3.786   0.384 -0.1662 -0.0995 -0.1363
  760SOL    MW4 2814   5.720   3.749   0.386  0.4304 -0.1711 -0.5976
  761SOL     OW 2815   4.989   2.234   4.796 -0.0866 -0.7606  0.1123
  761SOL    HW2 2816   4.959   2.189   4.718  0.0969 -1.5388  0.4799
  761SOL    HW3 2817   5.054   2.175   4.835  1.5917  0.6718 -0.4158
  761SOL    MW4 2818   4.994   2.220   4.791 -0.5505 -0.1546 -0.1560
  762SOL     OW 2819   4.571   3.284   3.926 -0.1829  0.0104 -0.1601
  762SOL    HW2 2820   4.645   3.272   3.867 -0.6933 -0.2341 -0.7654
  762SOL    HW3 2821   4.498   3.305   3.868 -0.4713  0.7840  0.4725
  762SOL    MW4 2822   4.571   3.285   3.910 -0.9155  0.5841 -0.3664
  763SOL     OW 2823   5.565   4.031   2.422 -0.3136 -0.5821  0.5680
  763SOL    HW2 2824   5.588   4.098   2.357  2.1267 -1.3312  0.5526
  763SOL    HW3 2825   5.490   3.985   2.383  1.3506 -1.3176 -2.0058
  763SOL    MW4 2826   5.558   4.034   2.408 -0.0941  0.7881  0.8108
  764SOL     OW 2827   3.398   1.115   2.523  0.3849 -0.7101 -0.2572
  764SOL    HW2 2828   3.309   1.091   2.496  0.0398 -0.0004  0.2249
  764SOL    HW3 2829   3.429   1.174   2.455 -0.5418  1.2008  0.9043
  764SOL    MW4 2830   3.390   1.119   2.510 -0.6293 -0.1104 -0.2783
  765SOL     OW 2831   3.297   4.879   1.247  0.4233 -0.2881  0.3644
  765SOL    HW2 2832   3.299   4.844   1.159  0.1929  0.0243  0.2336
  765SOL    HW3 2833   3.279   4.973   1.236  0.7537 -0.1759  0.7203
  765SOL    MW4 2834   3.295   4.887   1.234  0.1950  0.7987  0.2513
  766SOL     OW 2835   4.566   0.289   4.366 -0.4124 -0.3846  0.3651
  766SOL    HW2 2836   4.638   0.343   4.399 -1.2388 -1.0555  3.6869
  766SOL    HW3 2837   4.500   0.352   4.336 -0.2221  0.3993  1.5313
  766SOL    MW4 2838   4.567   0.305   4.366  0.0028 -0.2655 -0.0978
  767SOL     OW 2839   0.865   3.202   6.009 -0.1802  0.4207 -0.1389
  767SOL    HW2 2840   0.908   3.120   6.033 -2.9014 -0.9268  0.5656
  767SOL    HW3 2841   0.923   3.270   6.042  2.1306 -1.1751 -0.6617
  767SOL    MW4 2842   0.878   3.200   6.016  0.4305 -0.4770 -0.2784
  768SOL     OW 2843   3.573   4.806   3.755 -0.1514  0.0202 -0.0724
  768SOL    HW2 2844   3.655   4.793   3.803 -0.8598  0.2168  1.2289
  768SOL    HW3 2845   3.593   4.776   3.666  0.5621 -2.5764  0.8608
  768SOL    MW4 2846   3.587   4.800   3.750 -0.3331 -0.7632 -0.4052
  769SOL     OW 2847   1.962   2.762   3.734 -0.1152 -0.1766 -0.0933
  769SOL    HW2 2848   1.978   2.766   3.829 -1.2934 -1.4764  0.2140
  769SOL    HW3 2849   1.890   2.823   3.720  0.4377  0.4424 -0.2574
  769SOL    MW4 2850   1.954   2.770   3.745 -0.6123  0.5081  0.1106
  770SOL     OW 2851   2.846   1.471   0.341  0.1700  0.0436 -0.2960
  770SOL    HW2 2852   2.895   1.389   0.347 -0.2651 -0.3112 -1.4898
  770SOL    HW3 2853   2.803   1.468   0.256 -0.5823  1.1116  0.0247
  770SOL    MW4 2854   2.847   1.460   0.331  0.1285 -0.1353  0.1616
  771SOL     OW 2855   2.538   6.011   1.403 -0.7209  0.5737 -0.2213
  771SOL    HW2 2856   2.496   6.041   1.323 -2.2576  1.5857  0.8897
  771SOL    HW3 2857   2.577   6.089   1.441  1.6514 -0.2281 -0.8556
  771SOL    MW4 2858   2.537   6.025   1.398  0.2572 -0.1880  0.6282
  772SOL     OW 2859   2.303   3.942   2.429  0.0460  0.5748 -0.5195
  772SOL    HW2 2860   2.360   3.865   2.432  1.7821  1.5393 -4.0232
  772SOL    HW3 2861   2.224   3.912   2.384 -0.3270  0.3135  0.2898
  772SOL    MW4 2862   2.300   3.928   2.424  1.0076  0.2161  0.0755
  773SOL     OW 2863   2.093   3.953   5.436  0.0351  0.2969  0.2358
  773SOL    HW2 2864   2.112   3.885   5.372 -0.5314 -0.7423  1.1304
  773SOL    HW3 2865   2.179   3.979   5.470  0.4208  1.5535 -1.5885
  773SOL    MW4 2866   2.107   3.948   5.432 -0.6978 -0.3319  1.1088
  774SOL     OW 2867   0.638   5.904   0.989 -0.1628  0.2148  0.2068
  774SOL    HW2 2868   0.641   5.919   1.084 -1.6308 -1.4545  0.5614
  774SOL    HW3 2869   0.659   5.811   0.978  0.7849  0.5634 -1.1882
  774SOL    MW4 2870   0.641   5.894   1.000  0.6493 -0.2314  0.3612
  775SOL     OW 2871   1.483   3.150   5.949  0.2341 -0.7428  0.5122
  775SOL    HW2 2872   1.507   3.084   6.014  0.1952 -2.1513 -0.8150
  775SOL    HW3 2873   1.561   3.158   5.894  0.3881  0.6745  0.9191
  775SOL    MW4 2874   1.496   3.142   5.950 -0.1373  0.1445  1.0284
  776SOL     OW 2875   3.387   5.635   4.272 -0.2077  0.0529  0.2565
  776SOL    HW2 2876   3.302   5.645   4.314 -1.1245  0.3874 -1.5935
  776SOL    HW3 2877   3.450   5.660   4.340 -1.5806  0.1828  1.5357
  776SOL    MW4 2878   3.384   5.640   4.286  0.0013 -0.2662 -0.1462
  777SOL     OW 2879   4.022   0.465   2.405  0.2021  0.0676 -0.3632
  777SOL    HW2 2880   4.090   0.397   2.403  1.2719  1.0777  0.2296
  777SOL    HW3 2881   3.941   0.418   2.426  1.2096 -0.8224  1.8463
  777SOL    MW4 2882   4.020   0.450   2.407  0.3250 -0.2891  0.0559
  778SOL     OW 2883   4.849   2.812   6.159 -0.3264  0.1407 -0.1546
  778SOL    HW2 2884   4.924   2.771   6.117  0.4405 -1.9252  2.8972
  778SOL    HW3 2885   4.887   2.866   6.228 -1.5535  2.7222 -1.3695
  778SOL    MW4 2886   4.864   2.814   6.163  0.1060 -0.0530 -0.5007
  779SOL     OW 2887   4.901   1.899   1.199 -0.0422 -0.2726  0.1790
  779SOL    HW2 2888   4.996   1.903   1.195  0.1559 -0.7646  2.8536
  779SOL    HW3 2889   4.878   1.814   1.162  0.6934 -0.8324  0.9965
  779SOL    MW4 2890   4.910   1.889   1.193 -0.4469  0.5887 -0.5479
  780SOL     OW 2891   2.380   2.269   6.272 -0.6156  0.3602  0.3578
  780SOL    HW2 2892   2.367   2.311   6.357  1.3349  1.1986  0.2823
  780SOL    HW3 2893   2.356   2.336   6.208  1.1992  0.9588  0.2523
  780SOL    MW4 2894   2.375   2.283   6.275  0.5721 -0.2004  0.1506
  781SOL     OW 2895   4.590   0.816   3.608 -0.0432  0.1080  0.3347
  781SOL    HW2 2896   4.638   0.788   3.687  0.1538 -0.3109  0.0727
  781SOL    HW3 2897   4.517   0.755   3.603  0.9046 -0.9966 -0.7602
  781SOL    MW4 2898   4.587   0.804   3.618 -0.8749 -0.4172 -0.3905
  782SOL     OW 2899   5.726   1.971   1.578  0.2511  0.6643  0.8412
  782SOL    HW2 2900   5.725   2.045   1.517 -2.6263 -0.0718 -0.1178
  782SOL    HW3 2901   5.780   2.002   1.651  0.4819  3.0869 -0.2576
  782SOL    MW4 2902   5.733   1.985   1.580  0.4009 -0.1313  0.1827
  783SOL     OW 2903   3.528   2.571   3.189  0.3827  0.2968  0.3224
  783SOL    HW2 2904   3.492   2.653   3.157  0.5420  1.0049  1.9019
  783SOL    HW3 2905   3.559   2.590   3.277 -2.4673 -2.2080  2.0540
  783SOL    MW4 2906   3.527   2.584   3.196 -0.1701 -0.0796  0.1489
  784SOL     OW 2907   4.838   1.732   0.934  0.5201  0.1388 -0.3173
  784SOL    HW2 2908   4.760   1.760   0.886  0.4979  0.3789 -0.1433
  784SOL    HW3 2909   4.857   1.645   0.899  0.4161  0.2479 -0.6542
  784SOL    MW4 2910   4.830   1.724   0.923 -1.0941  0.4277 -0.4923
  785SOL     OW 2911   3.397   3.350   5.928  0.1123 -0.4441 -0.1225
  785SOL    HW2 2912   3.439   3.410   5.990 -2.7970  3.0547 -1.1752
  785SOL    HW3 2913   3.344   3.293   5.983 -1.6267  1.9226  0.8085
  785SOL    MW4 2914   3.396   3.350   5.943  0.0902 -0.4150  0.3808
  786SOL     OW 2915   0.976   3.744   0.160  0.5071  0.1969  0.2468
  786SOL    HW2 2916   1.020   3.676   0.108 -0.0682 -0.2018  0.2778
  786SOL    HW3 2917   0.961   3.702   0.245 -0.1481  0.2523  0.1587
  786SOL    MW4 2918   0.980   3.729   0.165 -0.2125 -0.3145  0.1113
  787SOL     OW 2919   2.004   1.972   2.162  0.3040 -0.4616 -0.2346
  787SOL    HW2 2920   2.056   1.965   2.242 -0.0556 -0.6910 -0.0156
  787SOL    HW3 2921   2.007   2.064   2.138  1.0222 -0.5181 -0.3643
  787SOL    MW4 2922   2.011   1.983   2.169 -0.1234 -0.0157 -0.6143
  788SOL     OW 2923   5.629   2.846   5.046 -0.8051  0.0386  0.3805
  788SOL    HW2 2924   5.661   2.757   5.031 -1.7584 -0.3468  0.5919
  788SOL    HW3 2925   5.534   2.839   5.038 -0.7998  1.3981 -1.4622
  788SOL    MW4 2926   5.621   2.833   5.043  0.0235  0.1367 -0.9516
  789SOL     OW 2927   4.028   5.408   1.226 -0.3046  0.0060 -0.1275
  789SOL    HW2 2928   4.073   5.416   1.310  0.4950  1.8715 -0.6594
  789SOL    HW3 2929   4.036   5.316   1.203 -0.0257 -0.4250  1.5546
  789SOL    MW4 2930   4.035   5.397   1.234 -0.3780  0.0766  0.2898
  790SOL     OW 2931   4.061   6.201   2.013 -0.3781  0.1217 -0.3901
  790SOL    HW2 2932   4.051   6.212   2.108 -1.9055  0.3684 -0.5538
  790SOL    HW3 2933   4.017   6.277   1.975 -1.6870 -1.0539 -1.3221
  790SOL    MW4 2934   4.054   6.212   2.021 -0.2431 -0.0991  0.2081
  791SOL     OW 2935   2.657   2.474   5.003  0.1209 -0.3607  0.4581
  791SOL    HW2 2936   2.688   2.563   5.017 -0.0361 -0.4958  1.8093
  791SOL    HW3 2937   2.671   2.458   4.910 -0.4340  1.2850  0.0624
  791SOL    MW4 2938   2.663   2.483   4.993  0.1581  0.8557 -0.0474
  792SOL     OW 2939   6.059   3.256   0.701  0.0943  0.1307  0.2364
  792SOL    HW2 2940   6.029   3.170   0.671 -1.3478  0.3210  1.0511
  792SOL    HW3 2941   6.077   3.243   0.794 -0.6964  0.8306  0.5027
  792SOL    MW4 2942   6.058   3.243   0.709 -0.6106  0.1280  0.1083
  793SOL     OW 2943   4.863   4.158   0.576 -0.3659  0.6668 -0.0318
  793SOL    HW2 2944   4.922   4.110   0.518 -0.6308  0.5185 -0.1792
  793SOL    HW3 2945   4.775   4.136   0.545 -0.5207  0.2044  0.7279
  793SOL    MW4 2946   4.859   4.149   0.564 -0.1761 -0.1288 -0.1412
  794SOL     OW 2947   1.827   6.255   4.595 -0.0089 -0.1852 -0.1770
  794SOL    HW2 2948   1.780   6.210   4.665 -1.0943  1.7829  0.4270
  794SOL    HW3 2949   1.759   6.297   4.544  0.7793 -1.3123 -2.3113
  794SOL    MW4 2950   1.812   6.254   4.597  0.2873  0.0340 -0.1719
  795SOL     OW 2951   4.535   1.180   3.436  0.2626  0.2740 -0.2643
  795SOL    HW2 2952   4.507   1.134   3.515  0.8475 -0.6719 -0.5909
  795SOL    HW3 2953   4.529   1.273   3.459  1.6961  0.0217  1.3695
  795SOL    MW4 2954   4.530   1.186   3.449 -0.3417  0.0048  0.3214
  796SOL     OW 2955   2.560   6.374   4.841  0.0002 -0.0270 -0.0361
  796SOL    HW2 2956   2.650   6.398   4.817 -0.8438  1.0436 -2.4180
  796SOL    HW3 2957   2.522   6.454   4.877 -0.2201 -0.2919  0.3292
  796SOL    MW4 2958   2.567   6.388   4.842 -0.4000 -0.0384  0.0421
  797SOL     OW 2959   0.922   1.050   3.846  0.2365 -0.6070  0.2606
  797SOL    HW2 2960   0.967   1.072   3.764  0.4739  2.1545  1.0231
  797SOL    HW3 2961   0.884   0.964   3.830 -0.0941 -0.0070 -2.9242
  797SOL    MW4 2962   0.922   1.042   3.833  0.1747  0.1473 -0.3378
  798SOL     OW 2963   5.567   5.709   2.927  0.5324 -0.0634  1.3176
  798SOL    HW2 2964   5.628   5.772   2.888  0.1810 -1.1451 -1.2236
  798SOL    HW3 2965   5.503   5.764   2.973  1.9167  1.2332  1.7790
  798SOL    MW4 2966   5.567   5.725   2.928 -0.0592  0.5443  0.4927
  799SOL     OW 2967   4.406   1.319   4.575 -0.5478  0.3912  0.0136
  799SOL    HW2 2968   4.472   1.250   4.588  0.2382  1.3326  1.3134
  799SOL    HW3 2969   4.329   1.272   4.542  1.0091 -0.6203 -2.4533
  799SOL    MW4 2970   4.405   1.304   4.573  0.2067  0.4499 -0.5215
  800SOL     OW 2971   4.614   4.768   5.657 -0.1910 -0.5294 -0.3541
  800SOL    HW2 2972   4.699   4.806   5.679 -0.1051 -1.2235  0.5541
  800SOL    HW3 2973   4.558   4.788   5.731 -1.4614  1.7395 -1.8211
  800SOL    MW4 2974   4.618   4.775   5.669  0.0516  0.7278  0.0923
  801SOL     OW 2975   1.079   5.788   0.981  0.1446  1.1649 -0.4197
  801SOL    HW2 2976   1.143   5.737   1.030 -1.3034  1.0826  1.5085
  801SOL    HW3 2977   1.038   5.724   0.922  0.3690  0.7565 -0.1399
  801SOL    MW4 2978   1.082   5.773   0.980  0.1869 -0.8664  0.2182
  802SOL     OW 2979   6.230   5.840   3.151 -0.3937  0.2178  0.3729
  802SOL    HW2 2980   6.307   5.784   3.161 -0.7240 -1.0172 -2.6505
  802SOL    HW3 2981   6.163   5.781   3.117 -1.9278  1.7498  0.6300
  802SOL    MW4 2982   6.232   5.824   3.148  0.0651  0.2209  0.0991
  803SOL     OW 2983   1.147   5.530   5.185  0.3417 -0.3690 -0.4028
  803SOL    HW2 2984   1.113   5.574   5.107  1.2927 -2.0527 -1.8527
  803SOL    HW3 2985   1.115   5.440   5.178 -0.2604 -0.3529  1.6380
  803SOL    MW4 2986   1.138   5.524   5.174 -0.7987  0.1197 -0.0756
  804SOL     OW 2987   1.218   2.048   0.752  0.1038 -0.3115  0.1527
  804SOL    HW2 2988   1.173   1.971   0.716  0.7980 -0.9212  0.5753
  804SOL    HW3 2989   1.276   2.077   0.682  0.6228 -0.8152  0.3743
  804SOL    MW4 2990   1.220   2.042   0.738  0.7322 -0.8338  0.4759
  805SOL     OW 2991   3.416   1.894   2.201  0.1660  0.2094 -0.2566
  805SOL    HW2 2992   3.345   1.906   2.138  0.8440 -0.3667 -1.1492
  805SOL    HW3 2993   3.386   1.940   2.280 -1.6648 -0.9217 -0.2369
  805SOL    MW4 2994   3.402   1.902   2.203 -0.0860  0.5767 -0.5645
  806SOL     OW 2995   0.515   3.716   3.105 -0.2796  0.0316 -0.6235
  806SOL    HW2 2996   0.441   3.655   3.105  0.1885 -0.5403 -0.5137
  806SOL    HW3 2997   0.564   3.695   3.184  0.9715 -0.7963 -1.5694
  806SOL    MW4 2998   0.512   3.705   3.115 -0.4442 -0.1045 -0.0172
  807SOL     OW 2999   3.333   4.402   3.798 -0.1126 -0.3174 -0.0055
  807SOL    HW2 3000   3.388   4.333   3.834  1.2182  0.3337 -0.7283
  807SOL    HW3 3001   3.362   4.481   3.844  0.5995  0.2785 -1.4354
  807SOL    MW4 3002   3.344   4.404   3.809  0.5660 -0.1869 -0.1603
  808SOL     OW 3003   2.507   2.554   2.649 -0.2007 -0.6040  0.4695
  808SOL    HW2 3004   2.584   2.520   2.602  0.1074  0.2357  0.3582
  808SOL    HW3 3005   2.432   2.524   2.597  0.1052 -0.3393 -0.1278
  808SOL    MW4 3006   2.507   2.545   2.636 -0.2852  0.1889  0.0249
  809SOL     OW 3007   3.945   3.198   1.808  0.0791  0.1706  0.1039
  809SOL    HW2 3008   3.861   3.212   1.851 -0.7197 -0.5403 -1.1750
  809SOL    HW3 3009   4.010   3.220   1.875 -1.1113  0.9864  1.0278
  809SOL    MW4 3010   3.943   3.202   1.823 -0.1294 -0.0935 -0.2002
  810SOL     OW 3011   0.850   1.890   1.569  0.1080 -0.0413 -0.1842
  810SOL    HW2 3012   0.886   1.808   1.535 -1.0669 -0.2930 -0.8675
  810SOL    HW3 3013   0.899   1.958   1.522  0.1290 -0.3662 -0.6380
  810SOL    MW4 3014   0.861   1.888   1.558  0.3606  0.3302  0.0338
  811SOL     OW 3015   0.356   5.671   5.049 -0.1890 -0.3853 -0.1171
  811SOL    HW2 3016   0.353   5.676   4.953 -0.4486 -0.4018 -0.1092
  811SOL    HW3 3017   0.416   5.598   5.066 -1.1818 -1.2551 -0.2854
  811SOL    MW4 3018   0.364   5.662   5.038  0.0898  0.2427  0.3841
  812SOL     OW 3019   4.024   0.588   0.309  0.1706 -0.4200 -0.0596
  812SOL    HW2 3020   4.029   0.677   0.343 -1.1309 -0.5112  0.4539
  812SOL    HW3 3021   3.983   0.596   0.223  0.3273 -0.4969 -0.1426
  812SOL    MW4 3022   4.019   0.601   0.302  0.3869  0.3372 -0.1822
  813SOL     OW 3023   1.299   6.378   4.392 -0.2647  0.0646 -0.1946
  813SOL    HW2 3024   1.380   6.387   4.442  0.3112  1.4098 -1.2913
  813SOL    HW3 3025   1.328   6.360   4.302 -1.0945  1.4917 -0.7951
  813SOL    MW4 3026   1.313   6.377   4.386  0.2972 -0.3423 -0.0975
  814SOL     OW 3027   3.998   5.939   1.892 -0.0816  0.2805  0.2958
  814SOL    HW2 3028   3.925   5.950   1.831 -0.1446 -1.6989 -0.0464
  814SOL    HW3 3029   4.002   6.022   1.940 -0.4155  1.6821 -1.9466
  814SOL    MW4 3030   3.989   5.951   1.890 -0.0895 -0.2762 -0.5846
  815SOL     OW 3031   3.481   0.240   1.327 -0.5567  0.2247 -0.0105
  815SOL    HW2 3032   3.509   0.253   1.236 -0.8098  0.4811 -0.0531
  815SOL    HW3 3033   3.562   0.237   1.377 -0.2723 -1.9526 -0.4918
  815SOL    MW4 3034   3.495   0.241   1.321  0.2167 -0.7686  0.9496
  816SOL     OW 3035   1.141   4.766   2.608 -0.2599 -0.4386 -0.0159
  816SOL    HW2 3036   1.138   4.739   2.516 -2.6227 -0.3326 -0.0495
  816SOL    HW3 3037   1.204   4.707   2.648  1.4992  0.0913 -1.8494
  816SOL    MW4 3038   1.149   4.755   2.601 -0.2814  0.4194 -0.2078
  817SOL     OW 3039   3.358   2.298   4.716  0.4162  0.4642 -1.0969
  817SOL    HW2 3040   3.437   2.341   4.682  0.5016  0.9287 -0.3247
  817SOL    HW3 3041   3.380   2.205   4.715  0.8226  0.5582 -1.2824
  817SOL    MW4 3042   3.371   2.291   4.711 -0.2444 -0.1875  0.7904
  818SOL     OW 3043   6.392   2.001   5.986  0.4365 -0.2122 -0.2824
  818SOL    HW2 3044   6.474   2.049   5.973  0.7078 -0.2108  1.3161
  818SOL    HW3 3045   6.335   2.033   5.916  1.7385 -0.1054 -1.3340
  818SOL    MW4 3046   6.396   2.012   5.975 -0.5171 -0.1284 -0.3420
  819SOL     OW 3047   2.272   5.085   3.202  0.1608  0.0341 -0.6240
  819SOL    HW2 3048   2.297   5.030   3.276 -0.4670 -0.3270 -0.6708
  819SOL    HW3 3049   2.349   5.086   3.145 -0.3542 -2.2101 -1.4623
  819SOL    MW4 3050   2.285   5.078   3.204  0.0697  0.4131 -0.2024
  820SOL     OW 3051   0.793   0.814   3.824  0.0108 -0.4970  0.0453
  820SOL    HW2 3052   0.783   0.811   3.919  0.3813  1.5692  0.2024
  820SOL    HW3 3053   0.721   0.871   3.795  1.0739  0.5394 -0.6549
  820SOL    MW4 3054   0.782   0.821   3.833  0.2738  0.4767  0.0443
  821SOL     OW 3055   5.868   1.646   3.374  0.1606  0.2988  0.3779
  821SOL    HW2 3056   5.897   1.558   3.350 -0.0073  0.8326 -1.9487
  821SOL    HW3 3057   5.933   1.675   3.438  2.1552 -0.2674 -1.2934
  821SOL    MW4 3058   5.880   1.638   3.379 -0.2060  0.2081  0.2858
  822SOL     OW 3059   4.165   2.736   3.653 -0.0866 -0.1102 -0.2307
  822SOL    HW2 3060   4.123   2.807   3.604  0.6451  1.0702  0.7966
  822SOL    HW3 3061   4.242   2.713   3.601 -1.0836 -1.1938 -1.3045
  822SOL    MW4 3062   4.170   2.742   3.640  0.2830 -0.2386 -0.2927
  823SOL     OW 3063   5.626   0.104   0.210 -0.5561 -0.1574  0.3288
  823SOL    HW2 3064   5.582   0.036   0.260 -0.9975  0.4126  0.7263
  823SOL    HW3 3065   5.555   0.153   0.168 -0.2118 -0.3615 -0.5111
  823SOL    MW4 3066   5.611   0.101   0.211  0.0201  0.4039  0.2889
  824SOL     OW 3067   2.547   1.597   4.785 -0.7583  0.3624 -0.0349
  824SOL    HW2 3068   2.552   1.692   4.801  1.6203  0.4258 -0.7336
  824SOL    HW3 3069   2.638   1.567   4.792 -0.9471 -1.3013 -3.0835
  824SOL    MW4 3070   2.560   1.606   4.788 -0.2492  0.6079  0.4696
  825SOL     OW 3071   5.233   2.586   4.706 -0.0835 -1.1029 -0.2177
  825SOL    HW2 3072   5.289   2.646   4.756 -0.0192 -1.3299 -0.0177
  825SOL    HW3 3073   5.255   2.604   4.615 -1.4886  0.6031 -0.2778
  825SOL    MW4 3074   5.244   2.597   4.701  0.0622 -1.2066 -0.4277
  826SOL     OW 3075   5.791   4.741   5.071 -0.1361  0.7814  0.2461
  826SOL    HW2 3076   5.715   4.685   5.088 -0.5061  1.2859  0.2935
  826SOL    HW3 3077   5.754   4.829   5.065  0.3315  0.9299 -0.5892
  826SOL    MW4 3078   5.776   4.745   5.072 -0.1370  0.0221 -0.2163
  827SOL     OW 3079   2.721   4.707   5.007 -0.0615  0.0709 -0.9651
  827SOL    HW2 3080   2.704   4.767   5.079 -0.0990  0.0411 -0.9495
  827SOL    HW3 3081   2.647   4.647   5.007  1.1689 -1.5995  0.6753
  827SOL    MW4 3082   2.709   4.707   5.017  0.2997  0.0028 -0.3019
  828SOL     OW 3083   5.300   5.910   2.049 -0.4110  0.3630  0.6928
  828SOL    HW2 3084   5.361   5.839   2.032  1.3707  1.7899  0.8575
  828SOL    HW3 3085   5.218   5.882   2.007  1.2101 -0.2347 -2.3890
  828SOL    MW4 3086   5.297   5.897   2.041 -0.4033  0.1971 -0.2152
  829SOL     OW 3087   0.136   6.393   1.932 -0.0018 -0.3400 -0.0969
  829SOL    HW2 3088   0.191   6.405   1.854  1.0817  0.7360  0.8018
  829SOL    HW3 3089   0.196   6.365   2.000 -0.9091 -1.0462  0.4388
  829SOL    MW4 3090   0.151   6.391   1.930  0.5326  0.0559 -0.8197
  830SOL     OW 3091   0.731   4.019   3.682 -0.0499  0.1677 -0.3780
  830SOL    HW2 3092   0.808   4.006   3.738  0.5494  0.1865 -1.1865
  830SOL    HW3 3093   0.750   4.098   3.633 -0.5810  0.1570 -0.6069
  830SOL    MW4 3094   0.744   4.028   3.683 -0.8413  0.3816  0.1115
  831SOL     OW 3095   2.060   2.722   5.921 -0.3812  0.1062 -0.0527
  831SOL    HW2 3096   2.101   2.788   5.976 -1.8131  0.8338  0.1854
  831SOL    HW3 3097   2.125   2.704   5.853  1.1140 -0.2741  1.4079
  831SOL    MW4 3098   2.074   2.728   5.919  0.4453 -0.1098  0.7566
  832SOL     OW 3099   3.116   4.044   0.676 -0.0303 -0.6071 -0.2418
  832SOL    HW2 3100   3.094   4.106   0.606 -0.7258  0.4689  0.8769
  832SOL    HW3 3101   3.211   4.049   0.683 -0.1572  1.3900  0.7041
  832SOL    MW4 3102   3.126   4.053   0.667  0.1205 -0.4546  0.1945
  833SOL     OW 3103   5.860   0.319   3.556 -0.1755  0.2891  0.1739
  833SOL    HW2 3104   5.931   0.345   3.497  0.3748 -1.4751 -0.0252
  833SOL    HW3 3105   5.809   0.256   3.506  0.7094 -1.7894  1.7194
  833SOL    MW4 3106   5.863   0.314   3.541  0.5997  0.1460  0.1507
  834SOL     OW 3107   1.495   5.230   2.815  0.1101 -0.0410  0.3926
  834SOL    HW2 3108   1.432   5.299   2.795 -1.0170 -1.1522 -0.0480
  834SOL    HW3 3109   1.518   5.194   2.730  1.1517  0.1721  0.5755
  834SOL    MW4 3110   1.489   5.234   2.801 -0.2770  0.1733  0.0232
  835SOL     OW 3111   1.764   0.274   1.064  0.0932 -0.2949 -0.5988
  835SOL    HW2 3112   1.781   0.359   1.104 -1.4925 -1.4423  2.8669
  835SOL    HW3 3113   1.851   0.239   1.046  0.7824  1.7207 -1.5203
  835SOL    MW4 3114   1.778   0.281   1.067 -0.0660 -0.2187 -0.3671
  836SOL     OW 3115   1.548   2.846   3.754  0.1176  0.0408 -0.1346
  836SOL    HW2 3116   1.617   2.897   3.713  1.0366 -2.2687 -1.6729
  836SOL    HW3 3117   1.484   2.832   3.684  0.0856 -1.1779  0.1053
  836SOL    MW4 3118   1.548   2.851   3.740 -0.5829  0.3569 -0.1240
  837SOL     OW 3119   6.318   4.456   1.676 -0.1192  0.3653 -0.8037
  837SOL    HW2 3120   6.255   4.464   1.748  0.6988 -0.8891  0.0915
  837SOL    HW3 3121   6.399   4.494   1.710  0.5593 -1.1150 -0.6345
  837SOL    MW4 3122   6.320   4.462   1.690 -0.7203 -1.0514  0.4507
  838SOL     OW 3123   1.759   6.202   5.936  0.4800  0.5852  0.3511
  838SOL    HW2 3124   1.845   6.236   5.913  1.6518 -1.9565  0.6773
  838SOL    HW3 3125   1.747   6.125   5.881 -1.8443  1.1483 -0.0442
  838SOL    MW4 3126   1.769   6.196   5.926  0.0689 -0.1736 -0.1808
  839SOL     OW 3127   3.029   4.051   3.894 -0.0460 -0.0475 -0.3048
  839SOL    HW2 3128   3.012   4.012   3.808  1.4704  0.1509 -0.7251
  839SOL    HW3 3129   3.040   4.145   3.877 -1.2392  0.2264  0.3416
  839SOL    MW4 3130   3.028   4.058   3.880  0.0165  0.4933 -0.8237
  840SOL     OW 3131   5.388   4.317   4.509 -0.2990  0.0155  0.0258
  840SOL    HW2 3132   5.314   4.374   4.532 -0.5127  0.0336 -0.6691
  840SOL    HW3 3133   5.346   4.238   4.474  0.0054 -0.2679  0.3017
  840SOL    MW4 3134   5.373   4.315   4.508  0.0253 -0.3024  0.1081
  841SOL     OW 3135   6.243   5.203   4.380 -0.2876  0.2411 -0.2924
  841SOL    HW2 3136   6.235   5.156   4.464  2.3780 -1.7988 -1.0415
  841SOL    HW3 3137   6.253   5.134   4.315  0.5679  1.8337 -1.9412
  841SOL    MW4 3138   6.243   5.188   4.383 -0.4402 -0.0736  0.5248
  842SOL     OW 3139   3.041   3.734   1.418 -0.8745  0.1666  0.1940
  842SOL    HW2 3140   2.991   3.724   1.337 -0.8658 -0.1135  0.2245
  842SOL    HW3 3141   3.086   3.819   1.408  0.0351 -0.3858 -0.5926
  842SOL    MW4 3142   3.041   3.744   1.406 -0.2263 -0.8908  0.5830
  843SOL     OW 3143   0.647   2.923   4.983  0.6543  0.0492  0.0016
  843SOL    HW2 3144   0.655   2.863   5.057 -0.1310  1.3805  1.2190
  843SOL    HW3 3145   0.723   2.981   4.991 -0.7972  1.8599  1.3814
  843SOL    MW4 3146   0.658   2.923   4.994 -0.0543 -0.8406 -0.1007
  844SOL     OW 3147   4.657   5.740   0.830 -0.1873 -0.1952 -0.4328
  844SOL    HW2 3148   4.697   5.755   0.916  3.1781  1.6667 -2.0976
  844SOL    HW3 3149   4.632   5.827   0.800 -0.1454 -0.6350 -1.8047
  844SOL    MW4 3150   4.659   5.753   0.838 -0.2409  0.1900 -0.0213
  845SOL     OW 3151   2.558   4.360   5.609  0.1235  0.0910  0.3962
  845SOL    HW2 3152   2.585   4.367   5.701  2.9502 -0.1083 -0.3254
  845SOL    HW3 3153   2.581   4.270   5.585  0.0484  0.3485 -0.6783
  845SOL    MW4 3154   2.565   4.349   5.618 -0.7093 -0.0949 -0.0260
  846SOL     OW 3155   1.580   5.148   0.669  0.0364 -0.1316 -0.4278
  846SOL    HW2 3156   1.620   5.194   0.743 -0.0505 -1.2400  0.3366
  846SOL    HW3 3157   1.499   5.196   0.652 -0.8338 -0.8696  1.3653
  846SOL    MW4 3158   1.575   5.161   0.676 -0.0375 -0.0010 -0.6848
  847SOL     OW 3159   4.026   6.045   4.369  0.6159 -0.5500 -0.0124
  847SOL    HW2 3160   3.961   6.034   4.439  1.1508 -0.2797  0.5363
  847SOL    HW3 3161   4.108   6.058   4.415  0.5995  2.2105 -0.6273
  847SOL    MW4 3162   4.028   6.045   4.385 -0.0652 -0.0520  0.6440
  848SOL     OW 3163   0.383   0.839   4.029 -0.2207  0.0949  0.1570
  848SOL    HW2 3164   0.360   0.847   3.936 -0.3901 -0.6026  0.1325
  848SOL    HW3 3165   0.306   0.797   4.068 -1.9044  3.8899  1.3870
  848SOL    MW4 3166   0.370   0.834   4.022  0.0793 -0.1506 -0.7841
  849SOL     OW 3167   2.608   1.237   0.672 -0.0701  0.2057 -0.6159
  849SOL    HW2 3168   2.606   1.299   0.599 -2.1737  0.5898 -0.3008
  849SOL    HW3 3169   2.519   1.237   0.706  0.5856 -0.8114  1.2626
  849SOL    MW4 3170   2.596   1.245   0.667 -0.5993  0.0692  0.0319
  850SOL     OW 3171   0.491   5.531   1.618  0.4098  0.7383 -0.0566
  850SOL    HW2 3172   0.520   5.450   1.660  0.6474  1.1492  0.5771
  850SOL    HW3 3173   0.493   5.510   1.525  1.6417  0.3820  0.0188
  850SOL    MW4 3174   0.495   5.517   1.611  0.1546  0.0046  0.2647
  851SOL     OW 3175   2.113   0.447   0.875 -0.4813 -0.4575 -0.1168
  851SOL    HW2 3176   2.191   0.413   0.831 -0.2104  1.0588 -0.8755
  851SOL    HW3 3177   2.040   0.408   0.828 -0.2825 -3.2700  1.6706
  851SOL    MW4 3178   2.114   0.437   0.863 -0.4761 -0.3864  0.3209
  852SOL     OW 3179   0.763   5.362   5.860 -0.7215 -0.1631 -0.0482
  852SOL    HW2 3180   0.818   5.438   5.878 -1.5049  0.3943  0.0806
  852SOL    HW3 3181   0.818   5.287   5.880 -0.0471  0.3793  0.1794
  852SOL    MW4 3182   0.777   5.362   5.865  0.2638 -0.3326  0.1032
  853SOL     OW 3183   4.183   1.044   3.060  0.3284 -0.1711  0.0856
  853SOL    HW2 3184   4.105   1.043   3.115  2.5015 -0.8529  3.4684
  853SOL    HW3 3185   4.187   0.956   3.022 -0.6672 -0.0398 -0.3454
  853SOL    MW4 3186   4.173   1.032   3.063  0.2369  0.0669 -0.1650
  854SOL     OW 3187   6.047   1.387   4.713  0.0292 -0.7750  0.5698
  854SOL    HW2 3188   6.056   1.300   4.675 -0.4710 -1.4478  1.9373
  854SOL    HW3 3189   6.135   1.410   4.743  0.2248 -0.6629 -0.0765
  854SOL    MW4 3190   6.060   1.379   4.712 -0.7934 -0.4753 -0.1147
  855SOL     OW 3191   6.090   1.992   3.422  0.0613 -0.0381 -0.1628
  855SOL    HW2 3192   6.043   1.943   3.489 -0.1454 -0.3039 -0.4974
  855SOL    HW3 3193   6.032   2.064   3.399  0.1670  0.1011 -0.0037
  855SOL    MW4 3194   6.076   1.995   3.428  0.2524 -0.0742 -0.8696
  856SOL     OW 3195   3.328   2.964   3.536 -0.7081 -0.6980 -0.7806
  856SOL    HW2 3196   3.261   3.031   3.552  1.7240  1.9915 -1.1012
  856SOL    HW3 3197   3.391   2.976   3.607  2.1764  0.6486 -3.3757
  856SOL    MW4 3198   3.327   2.974   3.548 -0.4160 -0.3474 -0.1417
  857SOL     OW 3199   4.058   0.772   4.441 -0.7939  0.0897 -0.4449
  857SOL    HW2 3200   4.039   0.822   4.520  0.0914  1.6828 -1.1927
  857SOL    HW3 3201   4.084   0.685   4.473 -1.0086  0.5256  0.9699
  857SOL    MW4 3202   4.059   0.767   4.456  0.3060 -0.2625 -0.3564
  858SOL     OW 3203   2.774   6.389   3.768 -0.1390  0.3537 -0.0587
  858SOL    HW2 3204   2.748   6.364   3.857  0.3477  3.3804  1.0618
  858SOL    HW3 3205   2.691   6.408   3.724 -0.3388 -0.4528 -0.0588
  858SOL    MW4 3206   2.760   6.388   3.774 -0.2143 -0.4085  0.0385
  859SOL     OW 3207   0.970   3.783   3.898 -0.0724  0.0194 -0.0082
  859SOL    HW2 3208   0.918   3.745   3.828  0.1689 -0.0962 -0.1259
  859SOL    HW3 3209   1.009   3.708   3.942 -0.9705  0.0301  0.8455
  859SOL    MW4 3210   0.968   3.768   3.895 -0.6447 -0.0674  0.1558
  860SOL     OW 3211   3.276   2.525   0.230 -0.6055 -0.3729  0.0009
  860SOL    HW2 3212   3.321   2.471   0.296 -2.1101 -0.0995  1.2980
  860SOL    HW3 3213   3.235   2.461   0.172  1.8440 -0.6507 -1.5905
  860SOL    MW4 3214   3.277   2.509   0.231 -0.1452  0.3388  0.5285
  861SOL     OW 3215   0.745   4.491   0.177 -0.5921 -0.1014 -0.3465
  861SOL    HW2 3216   0.658   4.452   0.169  0.1524 -1.6552 -1.4146
  861SOL    HW3 3217   0.762   4.529   0.091 -0.5692  1.0110  0.1414
  861SOL    MW4 3218   0.736   4.491   0.165  0.2713 -0.2906 -0.5273
  862SOL     OW 3219   4.381   5.108   2.717  0.6320 -0.0704 -0.5392
  862SOL    HW2 3220   4.418   5.059   2.790 -4.2145 -0.8051  1.8588
  862SOL    HW3 3221   4.344   5.187   2.756 -1.3706 -0.0459 -2.2683
  862SOL    MW4 3222   4.381   5.112   2.731  0.1203  0.3544  0.4255
  863SOL     OW 3223   0.362   6.361   4.354 -0.0297  0.1102 -0.0308
  863SOL    HW2 3224   0.346   6.401   4.439  0.2731  0.2594 -0.0451
  863SOL    HW3 3225   0.400   6.276   4.374  0.8882  0.5091 -0.0283
  863SOL    MW4 3226   0.365   6.355   4.368 -0.6863 -0.1602 -0.2340
  864SOL     OW 3227   3.387   4.828   5.386 -0.2140 -0.0974 -0.1694
  864SOL    HW2 3228   3.412   4.817   5.294  0.2492  0.4148 -0.1168
  864SOL    HW3 3229   3.292   4.837   5.385 -0.1897  0.1426 -0.6301
  864SOL    MW4 3230   3.378   4.828   5.374  0.5251  0.3042 -0.4878
  865SOL     OW 3231   1.112   4.858   5.661  0.4381 -0.0969  0.4907
  865SOL    HW2 3232   1.134   4.781   5.609 -0.8586  0.8259 -1.5591
  865SOL    HW3 3233   1.062   4.824   5.735 -0.5677 -1.2195 -0.6648
  865SOL    MW4 3234   1.108   4.844   5.664  0.1686 -0.3026  0.2769
  866SOL     OW 3235   4.695   0.869   2.943  0.2478 -0.3799  0.2267
  866SOL    HW2 3236   4.728   0.856   2.854  1.5036  0.9256  0.4702
  866SOL    HW3 3237   4.601   0.853   2.936 -0.1602  2.1729 -1.9385
  866SOL    MW4 3238   4.687   0.865   2.930  0.7216  1.1843  0.0864
  867SOL     OW 3239   3.529   1.618   0.954 -0.0141  0.4972 -0.0626
  867SOL    HW2 3240   3.500   1.582   1.038  0.1755  0.3411 -0.0623
  867SOL    HW3 3241   3.623   1.601   0.952 -0.0850  0.1313 -0.4853
  867SOL    MW4 3242   3.537   1.611   0.965 -0.0605  0.1580  0.4018
  868SOL     OW 3243   0.483   3.966   1.818 -1.3086  0.1117  0.4990
  868SOL    HW2 3244   0.518   3.959   1.907 -0.1600 -1.8192 -0.0416
  868SOL    HW3 3245   0.526   4.043   1.781 -2.4713  1.4731  1.8492
  868SOL    MW4 3246   0.494   3.976   1.825 -0.4810 -0.5010  0.1078
  869SOL     OW 3247   0.919   3.552   2.834 -0.2138  0.0449 -0.1072
  869SOL    HW2 3248   0.963   3.493   2.772 -3.2896 -2.6633 -0.0195
  869SOL    HW3 3249   0.959   3.531   2.919  1.8938  1.5706 -0.6314
  869SOL    MW4 3250   0.930   3.541   2.837  0.6288  0.3925 -0.4275
  870SOL     OW 3251   2.284   4.339   5.964 -0.0028  0.4855  0.4488
  870SOL    HW2 3252   2.366   4.378   5.994  0.4392  0.2787 -0.4416
  870SOL    HW3 3253   2.215   4.390   6.006  0.5810  1.1697  0.5812
  870SOL    MW4 3254   2.286   4.351   5.974 -0.4648 -0.3137  0.1758
  871SOL     OW 3255   1.521   3.722   5.639  0.0045 -0.0010  0.5777
  871SOL    HW2 3256   1.467   3.654   5.597  1.0443 -0.9054  0.6485
  871SOL    HW3 3257   1.491   3.804   5.599 -1.8075 -0.3864  1.0399
  871SOL    MW4 3258   1.510   3.723   5.628  0.6642 -0.1118 -0.4145
  872SOL     OW 3259   3.755   0.401   2.717  0.1719 -0.1944  0.4718
  872SOL    HW2 3260   3.768   0.366   2.629  1.4525  0.9107  0.1728
  872SOL    HW3 3261   3.678   0.457   2.710 -0.2700 -0.8200  0.2877
  872SOL    MW4 3262   3.747   0.404   2.705 -0.4541 -0.2935  0.0639
  873SOL     OW 3263   1.942   0.308   0.688 -0.5105  0.0966  0.5911
  873SOL    HW2 3264   1.980   0.238   0.636 -1.8827  0.4120 -0.9280
  873SOL    HW3 3265   1.878   0.265   0.744 -0.6198  0.0283  0.4114
  873SOL    MW4 3266   1.939   0.293   0.688 -0.3687  0.2757  0.2228
  874SOL     OW 3267   3.569   5.385   4.335  0.0195 -0.3242  0.0021
  874SOL    HW2 3268   3.601   5.460   4.285 -2.9093  0.9869 -0.1165
  874SOL    HW3 3269   3.644   5.358   4.388  2.0790  0.6683 -2.2347
  874SOL    MW4 3270   3.583   5.391   4.336 -0.3668 -0.1472  0.2923
  875SOL     OW 3271   0.923   1.536   6.360  0.1538 -0.7718 -0.0875
  875SOL    HW2 3272   0.833   1.512   6.379 -0.5867  1.3810 -0.6660
  875SOL    HW3 3273   0.942   1.491   6.277 -0.1431 -1.7133  0.3351
  875SOL    MW4 3274   0.914   1.527   6.351 -0.2521 -0.5457  0.0218
  876SOL     OW 3275   1.655   1.094   0.703  0.1520  0.0707  0.2029
  876SOL    HW2 3276   1.604   1.049   0.771  0.1628 -0.1062  0.0973
  876SOL    HW3 3277   1.595   1.159   0.668  0.1443  0.1583  0.3776
  876SOL    MW4 3278   1.640   1.096   0.707 -0.6096 -0.4063 -0.3596
  877SOL     OW 3279   2.434   1.477   5.009  0.3445 -0.6236  0.1786
  877SOL    HW2 3280   2.421   1.562   5.052 -0.2987 -0.3183 -0.5892
  877SOL    HW3 3281   2.465   1.501   4.921  0.6796 -1.2072  0.1355
  877SOL    MW4 3282   2.437   1.492   5.003  0.1251 -0.4113 -0.4368
  878SOL     OW 3283   0.019   6.197   3.383  0.0333  0.0646 -0.4484
  878SOL    HW2 3284  -0.046   6.267   3.374  1.2357  1.0366 -2.2409
  878SOL    HW3 3285   0.072   6.223   3.457  0.5520  1.1675 -1.1806
  878SOL    MW4 3286   0.017   6.209   3.391 -0.3163 -0.0968 -0.2726
  879SOL     OW 3287   6.109   6.122   0.923  0.0460 -0.1687 -0.4102
  879SOL    HW2 3288   6.046   6.059   0.888 -1.2526  0.5230  0.5665
  879SOL    HW3 3289   6.145   6.165   0.846 -0.6841 -0.5977 -1.0104
  879SOL    MW4 3290   6.105   6.120   0.908  0.3393  0.2323  0.2577
  880SOL     OW 3291   5.066   3.595   5.161  0.3443 -0.7289 -0.6664
  880SOL    HW2 3292   4.976   3.569   5.181  0.0994 -0.9386 -1.9803
  880SOL    HW3 3293   5.065   3.616   5.068  1.7262 -1.0141 -0.7620
  880SOL    MW4 3294   5.054   3.594   5.151  0.0013  0.3277 -1.0368
  881SOL     OW 3295   3.381   1.662   0.707  0.4131  0.3428 -0.2036
  881SOL    HW2 3296   3.412   1.588   0.655 -0.6869  0.4708 -1.0691
  881SOL    HW3 3297   3.418   1.647   0.794  1.1707 -0.5922 -0.6672
  881SOL    MW4 3298   3.390   1.651   0.712 -0.5507  0.3897 -0.5009
  882SOL     OW 3299   3.158   2.346   0.541 -0.0603 -0.4046 -0.3514
  882SOL    HW2 3300   3.231   2.299   0.501  0.5618 -1.0667  1.4444
  882SOL    HW3 3301   3.198   2.427   0.575 -0.4168 -0.1861 -0.4542
  882SOL    MW4 3302   3.173   2.351   0.541  0.2741  0.4707 -0.3913
  883SOL     OW 3303   1.232   0.131   3.734 -0.1568 -0.1708 -0.1276
  883SOL    HW2 3304   1.241   0.128   3.829 -2.2067 -0.2306  0.1059
  883SOL    HW3 3305   1.307   0.080   3.701  1.3265  0.9597  1.3569
  883SOL    MW4 3306   1.243   0.124   3.742  0.3800  0.2996 -0.1049
  884SOL     OW 3307   4.319   0.772   0.037 -0.2694  0.8979 -0.1194
  884SOL    HW2 3308   4.353   0.683   0.043 -1.1677  0.4865 -0.8616
  884SOL    HW3 3309   4.284   0.778  -0.052 -1.9495  1.3263  0.5227
  884SOL    MW4 3310   4.319   0.761   0.026 -0.3715 -0.4944  0.0117
  885SOL     OW 3311   2.361   0.339   2.062  0.0844 -0.2061  0.2601
  885SOL    HW2 3312   2.337   0.380   1.979  0.0523 -1.1067 -0.1850
  885SOL    HW3 3313   2.451   0.369   2.078  0.3757 -0.6393 -0.5020
  885SOL    MW4 3314   2.370   0.348   2.053  0.0342  0.0456 -0.3901
  886SOL     OW 3315   5.047   4.843   3.496  0.6784 -0.2791 -0.0391
  886SOL    HW2 3316   5.017   4.781   3.562  1.6083  1.5928  2.2705
  886SOL    HW3 3317   5.022   4.803   3.413 -3.1976 -1.4308  1.4433
  886SOL    MW4 3318   5.040   4.830   3.494 -0.3729 -0.8601 -0.3234
  887SOL     OW 3319   0.808   2.454   0.762  0.1896  0.2960  0.1000
  887SOL    HW2 3320   0.869   2.386   0.735  2.6131  1.2291  2.7078
  887SOL    HW3 3321   0.722   2.412   0.761  1.0263 -1.5327 -2.2700
  887SOL    MW4 3322   0.805   2.440   0.759 -0.4517 -0.3895  0.4794
  888SOL     OW 3323   3.308   3.910   2.578 -0.5916  0.1593  0.4327
  888SOL    HW2 3324   3.375   3.907   2.646  0.4931 -0.8288 -0.6117
  888SOL    HW3 3325   3.283   4.002   2.573  1.8283  0.8505 -0.1530
  888SOL    MW4 3326   3.314   3.922   2.586 -0.1075 -0.0264  0.0363
  889SOL     OW 3327   4.314   1.891   1.588  0.1189 -0.1033 -0.2326
  889SOL    HW2 3328   4.398   1.881   1.544 -0.2034  0.1454 -0.9073
  889SOL    HW3 3329   4.287   1.802   1.610  0.0665 -0.2615 -0.9380
  889SOL    MW4 3330   4.322   1.878   1.585  0.0302 -0.4849  1.0949
  890SOL     OW 3331   6.155   0.761   0.935  0.0446 -0.5343 -0.5895
  890SOL    HW2 3332   6.214   0.696   0.974  0.2199 -0.1609 -0.2224
  890SOL    HW3 3333   6.199   0.845   0.950 -1.0968 -0.1287  0.7237
  890SOL    MW4 3334   6.169   0.764   0.942 -0.5519  0.0288 -0.5125
  891SOL     OW 3335   3.527   3.457   1.090  0.3672  0.5212 -0.7619
  891SOL    HW2 3336   3.518   3.515   1.014 -0.7791 -0.1036 -1.1312
  891SOL    HW3 3337   3.461   3.390   1.076 -0.0481  0.5394  0.9204
  891SOL    MW4 3338   3.517   3.456   1.078 -0.0959 -0.1703 -0.1762
  892SOL     OW 3339   5.014   0.331   5.463  0.4801  0.3688 -0.6063
  892SOL    HW2 3340   5.092   0.380   5.437  1.1130 -0.8770 -1.1828
  892SOL    HW3 3341   4.984   0.289   5.382 -0.5571  0.5039 -0.3121
  892SOL    MW4 3342   5.020   0.332   5.449  0.2096 -0.4550 -0.1533
  893SOL     OW 3343   3.182   3.703   3.228  0.0883  0.0434  0.1341
  893SOL    HW2 3344   3.102   3.711   3.281  0.0192 -0.1940  0.0632
  893SOL    HW3 3345   3.241   3.649   3.281 -0.5887 -1.6102 -0.7396
  893SOL    MW4 3346   3.179   3.697   3.242  0.1340  0.4327 -0.0263
  894SOL     OW 3347   5.572   1.386   4.269 -0.0848  0.6325  0.4312
  894SOL    HW2 3348   5.596   1.473   4.237  0.8283  1.1282  2.2779
  894SOL    HW3 3349   5.577   1.394   4.365 -0.0618 -1.4271  0.6428
  894SOL    MW4 3350   5.576   1.399   4.278 -0.7995 -0.4070  0.3056
  895SOL     OW 3351   1.962   5.653   3.890 -0.1981  1.2890  0.4064
  895SOL    HW2 3352   1.927   5.565   3.902  0.5997  1.0960  1.4706
  895SOL    HW3 3353   1.886   5.711   3.899 -1.1370  0.6591 -2.3836
  895SOL    MW4 3354   1.947   5.649   3.893 -0.1273  0.2748 -0.0260
  896SOL     OW 3355   3.179   6.247   4.648  0.4514  0.4513  0.3299
  896SOL    HW2 3356   3.165   6.204   4.732 -0.0761  1.4970  0.7985
  896SOL    HW3 3357   3.111   6.212   4.590  0.5319  0.0667  0.4690
  896SOL    MW4 3358   3.168   6.237   4.651 -0.0989  0.1075  0.1105
  897SOL     OW 3359   3.011   1.863   4.434 -0.2937  0.1070  0.1417
  897SOL    HW2 3360   3.071   1.862   4.508  0.5415  1.1804 -0.4861
  897SOL    HW3 3361   3.049   1.803   4.370 -0.0706  0.5080 -0.1081
  897SOL    MW4 3362   3.024   1.855   4.435 -0.3536  0.1221  0.4806
  898SOL     OW 3363   2.173   0.169   0.265  0.4069 -0.6242  0.4938
  898SOL    HW2 3364   2.252   0.134   0.224 -0.6759 -0.8360 -1.5457
  898SOL    HW3 3365   2.110   0.096   0.262  0.1402 -0.5107  2.2064
  898SOL    MW4 3366   2.175   0.155   0.259  0.3401 -0.2118  0.4479
  899SOL     OW 3367   1.118   4.675   2.318  0.1770 -0.5130  0.0603
  899SOL    HW2 3368   1.091   4.621   2.243  0.1359  0.5112 -0.6846
  899SOL    HW3 3369   1.165   4.749   2.278 -2.7568  1.9039  0.7232
  899SOL    MW4 3370   1.121   4.678   2.303  0.3463  0.1343 -0.0431
  900SOL     OW 3371   2.897   5.382   5.651  0.3801  0.1373 -0.3428
  900SOL    HW2 3372   2.819   5.342   5.613 -0.2861  0.7398  0.3675
  900SOL    HW3 3373   2.949   5.409   5.575  1.1098 -2.4735 -0.8769
  900SOL    MW4 3374   2.894   5.380   5.636  0.6655 -0.2024 -0.1962
  901SOL     OW 3375   6.091   3.657   5.866 -0.1978 -0.0340 -0.3342
  901SOL    HW2 3376   6.167   3.712   5.886 -0.7771  0.8058 -0.3597
  901SOL    HW3 3377   6.019   3.720   5.854 -0.7844 -0.7789 -0.8118
  901SOL    MW4 3378   6.091   3.673   5.867  0.3336  0.0358 -0.6482
  902SOL     OW 3379   1.559   3.328   4.923  0.2666 -0.3478  0.0533
  902SOL    HW2 3380   1.543   3.323   4.829  1.7884 -0.7728 -0.1971
  902SOL    HW3 3381   1.653   3.317   4.933  0.4664  1.8939  1.4571
  902SOL    MW4 3382   1.569   3.326   4.912 -0.6770 -0.1487 -0.6457
  903SOL     OW 3383   3.640   4.023   4.052 -0.0499  0.3560 -0.0356
  903SOL    HW2 3384   3.605   4.076   3.981 -1.0463  0.3494  0.4317
  903SOL    HW3 3385   3.734   4.045   4.055 -0.4076  1.9856  0.0603
  903SOL    MW4 3386   3.648   4.033   4.043 -0.1942 -0.5312 -0.2953
  904SOL     OW 3387   4.690   1.819   2.192  0.4788  0.1777 -0.4011
  904SOL    HW2 3388   4.624   1.759   2.158  0.5677  0.3418 -0.8636
  904SOL    HW3 3389   4.678   1.815   2.287  0.1942 -0.2365 -0.4507
  904SOL    MW4 3390   4.680   1.811   2.200  0.5113 -0.3766 -0.5561
  905SOL     OW 3391   6.156   5.716   3.458 -0.1677 -0.0568  0.4435
  905SOL    HW2 3392   6.073   5.754   3.432 -0.0768  0.1025  0.3825
  905SOL    HW3 3393   6.222   5.780   3.429  0.0005 -0.3737  0.1277
  905SOL    MW4 3394   6.154   5.730   3.451  0.0855 -0.1230  0.2866
  906SOL     OW 3395   2.750   1.119   1.986  0.1265 -0.5175 -0.4072
  906SOL    HW2 3396   2.823   1.059   1.998  0.2105 -0.3784 -0.2246
  906SOL    HW3 3397   2.767   1.190   2.048  0.1060 -0.2353 -0.7218
  906SOL    MW4 3398   2.762   1.121   1.995 -0.1651  0.1491 -0.1757
  907SOL     OW 3399   3.930   3.659   2.642  0.2819 -0.7306 -0.2995
  907SOL    HW2 3400   3.987   3.648   2.718 -0.1140 -0.1029  0.0930
  907SOL    HW3 3401   3.852   3.607   2.663  1.1472 -2.5696 -1.3412
  907SOL    MW4 3402   3.927   3.651   2.655  0.2454  0.4913  0.7013
  908SOL     OW 3403   4.323   5.729   5.910  0.3282 -0.3115  0.3033
  908SOL    HW2 3404   4.407   5.773   5.903  0.8059 -1.0185  1.3471
  908SOL    HW3 3405   4.327   5.658   5.847 -0.0894  0.5344 -0.7182
  908SOL    MW4 3406   4.334   5.726   5.901 -0.0452 -0.4667  0.3202
  909SOL     OW 3407   3.807   5.333   4.497  0.0802 -0.1784  0.6637
  909SOL    HW2 3408   3.896   5.339   4.463  0.0912 -1.3321  0.4708
  909SOL    HW3 3409   3.805   5.399   4.567  1.3051 -0.5932  1.1336
  909SOL    MW4 3410   3.819   5.343   4.502 -0.2402 -0.2137  0.3460
  910SOL     OW 3411   3.902   5.877   3.665  0.0475  0.0582 -0.2013
  910SOL    HW2 3412   3.912   5.933   3.588  0.8983  0.0847 -0.0783
  910SOL    HW3 3413   3.835   5.813   3.640 -0.2313  0.5331 -0.6845
  910SOL    MW4 3414   3.895   5.876   3.652 -0.4196 -0.1864  1.0242
  911SOL     OW 3415   6.021   0.498   0.703  0.1754  0.1010 -0.1783
  911SOL    HW2 3416   5.972   0.564   0.752 -0.8843  0.0488 -1.1428
  911SOL    HW3 3417   6.077   0.456   0.768  0.2350  1.3587  0.6124
  911SOL    MW4 3418   6.022   0.501   0.718 -0.2829  0.1057 -0.5350
  912SOL     OW 3419   4.951   3.320   0.298 -0.6794 -0.5685  0.4256
  912SOL    HW2 3420   4.973   3.406   0.335 -0.7941  0.2967 -1.3933
  912SOL    HW3 3421   5.036   3.280   0.278 -0.6090  0.2410 -1.0679
  912SOL    MW4 3422   4.965   3.326   0.300  0.0088 -0.2161 -0.1488
  913SOL     OW 3423   3.751   3.244   1.564 -0.2491  0.0810  0.5300
  913SOL    HW2 3424   3.746   3.333   1.598 -0.4805  0.2152  0.1548
  913SOL    HW3 3425   3.704   3.191   1.628  1.7345 -0.1378  1.9091
  913SOL    MW4 3426   3.744   3.249   1.577  0.2437 -0.3611 -0.0590
  914SOL     OW 3427   0.353   1.755   2.808 -0.1150  0.3277  0.1369
  914SOL    HW2 3428   0.347   1.737   2.714  1.7176 -0.2456  0.1050
  914SOL    HW3 3429   0.377   1.672   2.847  0.3652  0.8462  0.9696
  914SOL    MW4 3430   0.355   1.742   2.800  0.0074 -0.2238  0.1805
  915SOL     OW 3431   2.854   2.792   2.902  0.0952  0.2445 -0.1326
  915SOL    HW2 3432   2.879   2.874   2.858 -1.5254  0.0840 -1.4819
  915SOL    HW3 3433   2.863   2.725   2.835  1.4422 -0.7280  0.9749
  915SOL    MW4 3434   2.858   2.794   2.887  0.3120  1.1308 -0.0687
  916SOL     OW 3435   6.027   5.859   1.160 -0.0022  0.2368  0.2576
  916SOL    HW2 3436   6.041   5.797   1.232  1.3695 -2.3922 -2.0817
  916SOL    HW3 3437   5.939   5.839   1.129  0.7440 -1.2715 -1.0309
  916SOL    MW4 3438   6.017   5.848   1.166 -0.9354  0.1625 -0.3573
  917SOL     OW 3439   2.015   1.354   2.148  0.4441  0.7908  0.1467
  917SOL    HW2 3440   2.082   1.352   2.080  1.3805 -0.3161  1.0739
  917SOL    HW3 3441   2.056   1.314   2.224 -1.3203 -0.0523  0.7117
  917SOL    MW4 3442   2.029   1.349   2.149  0.3836 -0.3305 -0.4678
  918SOL     OW 3443   6.397   0.894   0.500  0.5280 -0.3598  0.4714
  918SOL    HW2 3444   6.403   0.829   0.570 -0.3312 -0.5818  0.3461
  918SOL    HW3 3445   6.319   0.869   0.450 -0.6073  1.5454  1.2106
  918SOL    MW4 3446   6.388   0.882   0.502  0.2317 -0.1490 -0.2371
  919SOL     OW 3447   1.147   3.973   3.672 -0.3636  0.0280 -0.0228
  919SOL    HW2 3448   1.104   3.917   3.607  0.8475 -0.3086 -0.5628
  919SOL    HW3 3449   1.190   4.041   3.620  0.1395  0.0896  0.4658
  919SOL    MW4 3450   1.147   3.975   3.656  0.0337 -0.1288 -0.5557
  920SOL     OW 3451   3.959   1.342   0.547 -0.1020  0.5265 -0.0118
  920SOL    HW2 3452   3.929   1.254   0.525 -2.2403  1.0447  0.6627
  920SOL    HW3 3453   3.949   1.349   0.642  1.3832  1.0456  0.1330
  920SOL    MW4 3454   3.954   1.332   0.556  0.3179 -0.1303 -0.7767
  921SOL     OW 3455   5.055   0.581   0.545 -0.5013 -0.1264  0.2041
  921SOL    HW2 3456   5.044   0.498   0.499 -1.8105  0.1115  0.0355
  921SOL    HW3 3457   5.024   0.564   0.633 -1.7686  0.4203 -0.1089
  921SOL    MW4 3458   5.049   0.568   0.550  0.3359 -0.0163  0.3306
  922SOL     OW 3459   0.471   2.944   1.748  0.0747  0.4176  1.1033
  922SOL    HW2 3460   0.417   2.905   1.679  1.5105  0.0748  0.1261
  922SOL    HW3 3461   0.480   2.874   1.813  0.7496 -0.1164  0.4497
  922SOL    MW4 3462   0.465   2.929   1.748  0.4516  0.5603  0.1973
  923SOL     OW 3463   0.984   0.215   5.028  0.5533  0.1052 -0.2355
  923SOL    HW2 3464   0.961   0.184   4.941 -0.8400 -0.4932  0.3010
  923SOL    HW3 3465   0.990   0.310   5.019  0.0145  0.0830 -0.9059
  923SOL    MW4 3466   0.981   0.223   5.016 -0.1079  0.8179 -0.4172
  924SOL     OW 3467   0.172   0.717   2.032 -0.0822 -0.7942 -0.1156
  924SOL    HW2 3468   0.225   0.743   1.957 -0.5293 -2.0588 -0.8891
  924SOL    HW3 3469   0.232   0.665   2.086  0.0352 -0.4841  0.0579
  924SOL    MW4 3470   0.187   0.713   2.029 -0.1973 -0.1049  0.1092
  925SOL     OW 3471   2.517   4.497   6.071 -0.2422  0.1555  0.3122
  925SOL    HW2 3472   2.512   4.584   6.032 -3.4317  0.2033  0.5292
  925SOL    HW3 3473   2.453   4.499   6.143 -0.8735 -2.4868 -0.0597
  925SOL    MW4 3474   2.508   4.509   6.075 -0.5484  0.6758 -0.1901
  926SOL     OW 3475   0.160   3.828   4.850  0.3129  0.4379  0.8565
  926SOL    HW2 3476   0.137   3.911   4.892  0.6518  0.8608  0.2189
  926SOL    HW3 3477   0.254   3.835   4.831  0.6569 -0.6367  2.0016
  926SOL    MW4 3478   0.169   3.840   4.853 -0.1014 -0.3001 -0.7296
  927SOL     OW 3479   3.897   1.552   2.290  0.3328 -0.6426 -0.0460
  927SOL    HW2 3480   3.949   1.596   2.223  0.0355  0.3958  0.3880
  927SOL    HW3 3481   3.818   1.522   2.245  0.2329 -0.1364 -0.2084
  927SOL    MW4 3482   3.894   1.554   2.275 -0.4719 -0.1728  0.1959
  928SOL     OW 3483   4.552   1.997   5.284  0.3077  0.1839 -0.7742
  928SOL    HW2 3484   4.462   1.965   5.297  0.7792 -0.1775  2.4426
  928SOL    HW3 3485   4.593   1.931   5.229 -1.1477 -0.0790 -1.6075
  928SOL    MW4 3486   4.545   1.984   5.279 -1.0164  0.0681 -0.9974
  929SOL     OW 3487   1.140   5.008   3.528  0.1133  0.6518  0.1037
  929SOL    HW2 3488   1.085   5.078   3.494  0.3015  0.7827  0.0674
  929SOL    HW3 3489   1.091   4.928   3.508  0.4760  0.6841 -1.0001
  929SOL    MW4 3490   1.127   5.006   3.521 -0.2273  0.0045  0.3651
  930SOL     OW 3491   0.206   1.443   4.299 -0.2048  0.5643  0.4656
  930SOL    HW2 3492   0.266   1.481   4.234 -0.2178 -1.6945 -0.9762
  930SOL    HW3 3493   0.228   1.350   4.300 -1.9948  0.1007  1.7969
  930SOL    MW4 3494   0.217   1.436   4.291  0.1954  0.2614  0.2230
  931SOL     OW 3495   3.167   0.273   1.560  0.2361  0.7056  0.8446
  931SOL    HW2 3496   3.255   0.246   1.536 -0.5826  0.0053 -1.7307
  931SOL    HW3 3497   3.178   0.355   1.608  2.2049  1.4908 -0.8343
  931SOL    MW4 3498   3.180   0.280   1.563 -0.1483 -0.1805  0.1655
  932SOL     OW 3499   4.959   1.771   2.126  0.3558  0.3862 -0.0649
  932SOL    HW2 3500   4.984   1.699   2.184 -0.1062  0.1255 -0.1875
  932SOL    HW3 3501   4.864   1.779   2.138  0.5156  1.5276  0.5863
  932SOL    MW4 3502   4.950   1.763   2.135 -0.5023  0.4163  0.3739
  933SOL     OW 3503   0.652   4.018   0.014 -0.4383 -0.7920 -0.0047
  933SOL    HW2 3504   0.648   4.113   0.002  0.3424 -0.7504  0.0377
  933SOL    HW3 3505   0.699   3.986  -0.063 -1.5768 -1.2616 -0.5335
  933SOL    MW4 3506   0.658   4.026   0.002 -0.0844 -0.5079  0.0109
  934SOL     OW 3507   2.595   3.859   2.807 -0.2596  0.4340  0.1226
  934SOL    HW2 3508   2.598   3.851   2.903  0.8823  1.8651  0.2378
  934SOL    HW3 3509   2.685   3.879   2.782 -0.3810 -0.7591 -1.3549
  934SOL    MW4 3510   2.607   3.861   2.816  0.0381 -0.0699 -0.2932
  935SOL     OW 3511   3.847   0.794   2.986  0.1975 -0.2488 -0.0072
  935SOL    HW2 3512   3.807   0.852   3.052 -1.1790 -0.9458 -0.1845
  935SOL    HW3 3513   3.786   0.798   2.912  0.6463 -1.0764 -0.4299
  935SOL    MW4 3514   3.833   0.802   2.985 -0.8012 -0.0208  0.2851
  936SOL     OW 3515   4.299   1.070   3.303  0.3985  0.0630 -0.6245
  936SOL    HW2 3516   4.262   1.051   3.217 -0.7368  1.6390 -0.5228
  936SOL    HW3 3517   4.388   1.101   3.284 -0.0232  0.9105 -1.3145
  936SOL    MW4 3518   4.306   1.072   3.289  0.2690 -0.0242 -0.1092
  937SOL     OW 3519   0.247   0.057   2.381  0.8024 -0.1685 -0.2445
  937SOL    HW2 3520   0.276   0.098   2.462 -1.6590  2.1897 -0.4010
  937SOL    HW3 3521   0.311   0.085   2.316  0.7249  1.1451  0.2099
  937SOL    MW4 3522   0.259   0.066   2.383 -0.2214 -0.0105 -0.1326
  938SOL     OW 3523   5.350   1.966   4.122  0.0921  0.0050 -0.3369
  938SOL    HW2 3524   5.377   2.027   4.191  0.7320  1.1166 -1.5194
  938SOL    HW3 3525   5.256   1.983   4.110 -0.2400 -0.8346  0.8365
  938SOL    MW4 3526   5.341   1.976   4.130 -0.3159  0.2355  0.1354
  939SOL     OW 3527   3.449   3.651   4.279 -0.1150  0.2679  0.1518
  939SOL    HW2 3528   3.380   3.594   4.243  1.7976 -1.6638 -0.6403
  939SOL    HW3 3529   3.527   3.628   4.230  1.7606  0.4189  2.8810
  939SOL    MW4 3530   3.450   3.641   4.268  0.7529  0.2603 -0.0972
  940SOL     OW 3531   0.659   5.758   5.970  0.1757 -0.2404  0.0983
  940SOL    HW2 3532   0.662   5.848   5.937 -1.1679 -0.3583 -0.4151
  940SOL    HW3 3533   0.686   5.704   5.896 -0.6220 -0.3562 -0.1166
  940SOL    MW4 3534   0.663   5.763   5.956 -0.2187 -0.8980 -0.5022
  941SOL     OW 3535   0.855   4.589   3.249  0.3051  0.0617 -0.0025
  941SOL    HW2 3536   0.919   4.626   3.188 -0.3480  0.5000 -0.4437
  941SOL    HW3 3537   0.875   4.496   3.252  1.4606  0.3194  0.4853
  941SOL    MW4 3538   0.866   4.582   3.241  0.3363  0.3277  0.0830
  942SOL     OW 3539   2.503   4.392   3.851 -0.2233 -0.2780  0.3535
  942SOL    HW2 3540   2.535   4.461   3.909 -1.1654 -0.0541  0.6083
  942SOL    HW3 3541   2.438   4.345   3.902 -0.7022 -0.3896 -0.3450
  942SOL    MW4 3542   2.499   4.395   3.865 -0.3773 -0.0606 -0.4732
  943SOL     OW 3543   2.178   5.038   5.838  0.1714 -0.1402 -0.2583
  943SOL    HW2 3544   2.157   4.955   5.795  1.9352  0.3861 -2.2829
  943SOL    HW3 3545   2.093   5.081   5.849 -0.5931 -1.4568 -0.7728
  943SOL    MW4 3546   2.164   5.033   5.834  0.3074 -0.6259 -0.0780
  944SOL     OW 3547   0.548   6.314   3.076 -0.7325 -0.5090  0.5757
  944SOL    HW2 3548   0.498   6.344   3.152  0.0489 -2.8825  2.1231
  944SOL    HW3 3549   0.486   6.262   3.026 -0.5107 -1.4084  1.2025
  944SOL    MW4 3550   0.533   6.311   3.080 -0.3280  0.0380  0.2119
  945SOL     OW 3551   2.500   5.843   0.002 -0.3113 -0.0820  0.0906
  945SOL    HW2 3552   2.573   5.887   0.045  1.6995 -2.0271 -1.1469
  945SOL    HW3 3553   2.538   5.764  -0.037 -3.2526 -1.7115  0.1788
  945SOL    MW4 3554   2.514   5.838   0.003 -0.7335 -0.3944 -0.0103
  946SOL     OW 3555   3.132   0.665   5.314  0.0319 -0.3100 -0.0689
  946SOL    HW2 3556   3.160   0.576   5.291 -0.3204 -0.4887  0.1864
  946SOL    HW3 3557   3.098   0.657   5.403  1.4598  0.3851  0.5678
  946SOL    MW4 3558   3.131   0.652   5.323  0.3818 -0.3521 -0.2163
  947SOL     OW 3559   2.186   2.497   1.311  0.1848 -0.5385  0.1549
  947SOL    HW2 3560   2.265   2.526   1.357 -0.6129  0.8399  0.6956
  947SOL    HW3 3561   2.220   2.461   1.228  1.4178 -0.4813  0.6074
  947SOL    MW4 3562   2.201   2.496   1.306  0.2718  0.2458  0.1021
  948SOL     OW 3563   1.259   5.400   2.753  0.4578 -0.0769 -0.6444
  948SOL    HW2 3564   1.212   5.452   2.687  1.1742  0.1521 -0.9800
  948SOL    HW3 3565   1.191   5.345   2.793 -0.0229 -0.0337 -1.3929
  948SOL    MW4 3566   1.244   5.400   2.750  0.4951  0.1399  0.0246
  949SOL     OW 3567   1.804   3.360   3.453  0.3304  0.0517  0.2307
  949SOL    HW2 3568   1.799   3.277   3.406  0.8252 -0.0288  0.3143
  949SOL    HW3 3569   1.766   3.424   3.394  0.6972 -0.0949 -0.1701
  949SOL    MW4 3570   1.799   3.357   3.439  0.5366 -0.6119  0.9454
  950SOL     OW 3571   2.684   1.835   1.603  0.5003  0.1952  0.5847
  950SOL    HW2 3572   2.716   1.922   1.626 -0.0958  0.2198  1.3271
  950SOL    HW3 3573   2.655   1.844   1.512 -0.8075  1.1358  1.0733
  950SOL    MW4 3574   2.685   1.847   1.594 -0.0781 -0.2677 -0.8094
  951SOL     OW 3575   1.207   0.495   4.804 -0.1701  0.0456 -0.7171
  951SOL    HW2 3576   1.212   0.450   4.888 -0.0555  1.4002  0.0206
  951SOL    HW3 3577   1.296   0.522   4.785 -0.6119  2.5843  0.3677
  951SOL    MW4 3578   1.219   0.492   4.812 -0.0682 -0.0790  0.3520
  952SOL     OW 3579   1.877   5.639   4.663  0.0669  0.1087  0.4340
  952SOL    HW2 3580   1.949   5.583   4.634 -1.6365 -1.1854 -1.6311
  952SOL    HW3 3581   1.828   5.585   4.725 -0.5930 -0.0869 -0.2320
  952SOL    MW4 3582   1.880   5.624   4.667  0.0737  0.2659 -0.1117
  953SOL     OW 3583   4.915   5.226   0.135  0.2452 -0.5711 -0.5774
  953SOL    HW2 3584   4.955   5.250   0.052 -0.1466  2.5611  0.0204
  953SOL    HW3 3585   4.987   5.190   0.187  0.7667 -1.3493 -1.8034
  953SOL    MW4 3586   4.930   5.225   0.131  0.4248 -0.1241  0.4312
  954SOL     OW 3587   1.809   2.618   4.927  0.3898  0.6027 -0.4578
  954SOL    HW2 3588   1.792   2.703   4.966  0.1396  0.7085 -0.7905
  954SOL    HW3 3589   1.817   2.636   4.833 -1.0479  0.0878 -0.7166
  954SOL    MW4 3590   1.807   2.631   4.920  0.2618  0.6370 -0.4941
  955SOL     OW 3591   3.295   3.439   2.384  0.2399  0.0522 -0.1035
  955SOL    HW2 3592   3.268   3.378   2.315 -2.0164  1.7197 -0.7737
  955SOL    HW3 3593   3.330   3.515   2.338  1.2924  0.0876  0.6950
  955SOL    MW4 3594   3.296   3.441   2.369 -0.5594  0.7150 -0.1776
  956SOL     OW 3595   5.206   6.288   1.547  0.2151 -0.3702  0.1314
  956SOL    HW2 3596   5.112   6.296   1.561  0.2317 -1.0025  0.6905
  956SOL    HW3 3597   5.232   6.213   1.601  0.9555 -0.5099 -0.3922
  956SOL    MW4 3598   5.197   6.279   1.556 -0.5329 -0.1812  0.4668
  957SOL     OW 3599   5.035   4.765   5.737 -0.6844 -0.6741  0.3103
  957SOL    HW2 3600   5.090   4.745   5.813 -0.6204  0.9624  0.7333
  957SOL    HW3 3601   5.060   4.854   5.712 -1.9824 -0.5167 -0.5161
  957SOL    MW4 3602   5.046   4.774   5.744 -0.4219 -0.4622 -0.3668
  958SOL     OW 3603   5.890   2.275   4.651  0.0467  0.1571 -0.4526
  958SOL    HW2 3604   5.909   2.311   4.564  1.5549  0.5064 -0.0085
  958SOL    HW3 3605   5.919   2.184   4.645  0.1275  0.1744 -0.3315
  958SOL    MW4 3606   5.896   2.268   4.638 -0.0213 -0.1707 -0.1568
  959SOL     OW 3607   1.849   4.537   2.669 -0.0232 -0.3285 -0.6514
  959SOL    HW2 3608   1.849   4.631   2.651 -1.3212 -0.3509 -0.8676
  959SOL    HW3 3609   1.877   4.529   2.760 -1.1200  0.3722 -0.2380
  959SOL    MW4 3610   1.853   4.548   2.678 -0.6199  0.1295  0.6382
  960SOL     OW 3611   1.139   3.737   5.447 -0.9556 -0.8748 -0.0443
  960SOL    HW2 3612   1.098   3.749   5.361 -0.2259 -1.1327 -0.4384
  960SOL    HW3 3613   1.203   3.667   5.433  2.7412  2.2874 -0.6074
  960SOL    MW4 3614   1.142   3.729   5.434  0.6770 -0.0962  0.2748
  961SOL     OW 3615   3.212   0.029   2.461 -0.1669 -0.5784 -0.0545
  961SOL    HW2 3616   3.162   0.050   2.540 -1.0042 -2.2906 -0.0902
  961SOL    HW3 3617   3.285  -0.024   2.493  0.0343 -0.4817 -0.3470
  961SOL    MW4 3618   3.215   0.025   2.476 -0.1970 -0.4839 -0.1675
  962SOL     OW 3619   0.199   0.321   4.311  0.2341 -0.4635  0.5775
  962SOL    HW2 3620   0.203   0.351   4.402  0.3425  0.6593  0.2205
  962SOL    HW3 3621   0.159   0.234   4.316  0.8720 -0.7071  1.7520
  962SOL    MW4 3622   0.194   0.313   4.324  0.4768 -0.2085 -0.4885
  963SOL     OW 3623   1.995   0.616   1.726 -0.2379  0.6435 -0.1395
  963SOL    HW2 3624   1.962   0.539   1.679  0.9195  0.2648 -0.3433
  963SOL    HW3 3625   1.931   0.630   1.796 -1.2809  0.4305 -1.0239
  963SOL    MW4 3626   1.982   0.608   1.729  0.0949 -0.2621 -0.5207
  964SOL     OW 3627   1.859   5.899   4.459  0.3132  0.4045  0.3328
  964SOL    HW2 3628   1.921   5.913   4.530 -1.0283  1.9776  1.2775
  964SOL    HW3 3629   1.865   5.979   4.406  0.7507 -0.4281 -0.9253
  964SOL    MW4 3630   1.868   5.912   4.461  0.0652 -0.0018 -0.3313
  965SOL     OW 3631   3.206   3.267   4.670  0.3497  0.2766 -0.5632
  965SOL    HW2 3632   3.219   3.315   4.588 -3.5574 -0.5341 -1.8834
  965SOL    HW3 3633   3.197   3.176   4.644 -1.5606  0.0707  0.5966
  965SOL    MW4 3634   3.206   3.261   4.656 -0.1243  0.0075  0.4496
  966SOL     OW 3635   6.338   4.468   5.067 -0.3795 -0.1024 -0.1919
  966SOL    HW2 3636   6.264   4.410   5.049 -0.0932 -0.7657  0.6825
  966SOL    HW3 3637   6.301   4.541   5.116 -1.3461  2.2136 -3.9745
  966SOL    MW4 3638   6.324   4.470   5.071  0.4264 -0.4754  0.1681
  967SOL     OW 3639   4.406   0.863   1.466  0.3655 -0.3950  0.4548
  967SOL    HW2 3640   4.399   0.870   1.562  0.2205 -0.1140  0.4264
  967SOL    HW3 3641   4.480   0.920   1.444 -0.1594  0.2488  0.3168
  967SOL    MW4 3642   4.415   0.872   1.476 -0.0621  0.2347  0.4348
  968SOL     OW 3643   5.301   2.001   3.773 -0.4883 -0.7198 -0.0418
  968SOL    HW2 3644   5.341   2.019   3.688  0.2349  1.0982  0.6459
  968SOL    HW3 3645   5.241   2.073   3.787  2.1417  1.1880  2.5944
  968SOL    MW4 3646   5.299   2.013   3.763 -0.0581 -0.3331  0.3180
  969SOL     OW 3647   2.810   2.476   6.176  0.2272 -0.4964 -0.1993
  969SOL    HW2 3648   2.787   2.565   6.148  2.1539  0.1241  0.0413
  969SOL    HW3 3649   2.731   2.443   6.219 -0.5187  1.1146 -0.2628
  969SOL    MW4 3650   2.796   2.484   6.178 -0.0479 -0.3362  0.5576
  970SOL     OW 3651   5.481   4.812   2.384 -0.3280 -0.1468  0.1605
  970SOL    HW2 3652   5.441   4.731   2.414 -0.2019 -0.1021  0.4570
  970SOL    HW3 3653   5.422   4.845   2.316 -1.2320  0.3294  1.1452
  970SOL    MW4 3654   5.468   4.806   2.379  0.6872 -0.2875  0.0732
  971SOL     OW 3655   6.222   5.411   1.728  0.0154  0.2133  0.5570
  971SOL    HW2 3656   6.286   5.430   1.797  2.0914  0.7984 -1.4095
  971SOL    HW3 3657   6.233   5.318   1.710  1.7368  0.6553 -1.0112
  971SOL    MW4 3658   6.232   5.401   1.735  0.0524 -0.0579  0.3844
  972SOL     OW 3659   4.845   2.502   5.070 -0.2840  0.2398 -0.3181
  972SOL    HW2 3660   4.920   2.494   5.010  1.0133  0.2853  1.2328
  972SOL    HW3 3661   4.802   2.583   5.043  0.9830  0.9049 -0.4408
  972SOL    MW4 3662   4.849   2.511   5.058 -0.1008 -0.4148  0.7831
  973SOL     OW 3663   2.279   4.494   0.309 -0.4061  0.1231  0.0151
  973SOL    HW2 3664   2.265   4.565   0.246 -0.2940  0.0533 -0.0897
  973SOL    HW3 3665   2.228   4.519   0.386  1.5006  1.5033  0.9091
  973SOL    MW4 3666   2.271   4.507   0.311 -0.1705  0.2191  0.0119
  974SOL     OW 3667   5.041   5.707   5.864 -0.0921  0.2453 -0.0378
  974SOL    HW2 3668   5.075   5.663   5.786 -0.4162  0.0801 -0.0907
  974SOL    HW3 3669   4.963   5.753   5.833 -0.5805 -0.3294  0.3041
  974SOL    MW4 3670   5.035   5.707   5.849  0.2230 -0.1975 -0.1466
  975SOL     OW 3671   1.465   5.045   4.057  0.1160  0.0205  0.5070
  975SOL    HW2 3672   1.496   5.082   4.140 -1.4640  0.6025  0.8689
  975SOL    HW3 3673   1.383   5.002   4.078  0.2530 -0.8193 -0.5641
  975SOL    MW4 3674   1.458   5.044   4.071  0.0516 -0.2320 -0.1535
  976SOL     OW 3675   0.628   6.396   0.058  0.2562  0.4662  0.5677
  976SOL    HW2 3676   0.682   6.358   0.128 -0.3970  0.4077  1.0475
  976SOL    HW3 3677   0.632   6.332  -0.013  1.2890  0.7301  0.3619
  976SOL    MW4 3678   0.636   6.383   0.058  0.2002 -0.4816  0.2095
  977SOL     OW 3679   0.054   4.618   5.899  0.2788  0.4732  0.6870
  977SOL    HW2 3680   0.057   4.692   5.959 -0.4284  0.6603  0.5096
  977SOL    HW3 3681  -0.005   4.647   5.829  1.1818  0.3114 -0.1646
  977SOL    MW4 3682   0.047   4.632   5.897  0.4623 -0.6297  0.6417
  978SOL     OW 3683   3.910   4.014   6.236  0.3315  0.3984 -0.2472
  978SOL    HW2 3684   3.940   3.940   6.287 -1.0336  0.4850  0.7406
  978SOL    HW3 3685   3.979   4.080   6.244  0.2447  0.3224  1.3138
  978SOL    MW4 3686   3.923   4.013   6.244  0.3334  0.0406  0.1422
  979SOL     OW 3687   1.555   2.370   4.556  0.4258 -0.0104 -0.5103
  979SOL    HW2 3688   1.530   2.278   4.568  1.0639 -0.1011  0.2085
  979SOL    HW3 3689   1.587   2.397   4.642  1.6661  0.4452 -1.0972
  979SOL    MW4 3690   1.556   2.361   4.569 -0.0837  0.0693  0.4196
  980SOL     OW 3691   0.343   1.769   0.548 -0.9639  0.1914  0.0763
  980SOL    HW2 3692   0.384   1.854   0.560 -0.3140 -0.0000 -0.6693
  980SOL    HW3 3693   0.291   1.779   0.468  0.8373 -0.6891 -1.3008
  980SOL    MW4 3694   0.342   1.781   0.539  0.3283  0.3849  0.4176
  981SOL     OW 3695   0.674   6.137   2.283  0.2103 -0.9343  0.4446
  981SOL    HW2 3696   0.642   6.108   2.198  1.5628  0.5288 -0.6161
  981SOL    HW3 3697   0.769   6.129   2.278  0.4424  0.8070  1.1185
  981SOL    MW4 3698   0.682   6.132   2.271  0.3108  0.0168 -0.2313
  982SOL     OW 3699   5.903   5.256   5.735 -0.0781 -0.7176  0.2003
  982SOL    HW2 3700   5.991   5.283   5.709 -0.3064 -0.2330 -0.0753
  982SOL    HW3 3701   5.856   5.338   5.753 -0.0210 -1.0034  1.8790
  982SOL    MW4 3702   5.908   5.270   5.734  0.1063  0.4602 -0.2506
  983SOL     OW 3703   3.912   0.202   3.891  0.0392 -0.0797  0.2716
  983SOL    HW2 3704   3.983   0.220   3.829 -1.2606  1.2748 -0.9161
  983SOL    HW3 3705   3.863   0.130   3.851 -0.9419  0.9552 -0.4622
  983SOL    MW4 3706   3.915   0.195   3.878 -0.0647  0.0517  0.3038
  984SOL     OW 3707   5.521   0.034   3.895 -0.0573 -0.2411  0.5727
  984SOL    HW2 3708   5.448  -0.023   3.870  0.1413 -0.3380  0.2052
  984SOL    HW3 3709   5.546   0.004   3.982  0.4780 -1.1690  0.1224
  984SOL    MW4 3710   5.515   0.023   3.903 -0.2500  0.3450  0.0168
  985SOL     OW 3711   5.440   4.951   3.634 -0.0238 -0.5523 -0.4393
  985SOL    HW2 3712   5.452   4.917   3.723 -2.3868 -1.6621 -0.4563
  985SOL    HW3 3713   5.521   4.998   3.615 -0.2664  1.7405  3.1789
  985SOL    MW4 3714   5.452   4.953   3.643  0.1606  0.3769  0.0214
  986SOL     OW 3715   5.448   2.579   5.105  0.1586 -0.7842  0.7845
  986SOL    HW2 3716   5.435   2.489   5.133  0.6213 -0.0646  3.6502
  986SOL    HW3 3717   5.457   2.628   5.186  0.5003  1.7732 -0.6920
  986SOL    MW4 3718   5.448   2.574   5.119 -0.4930  0.1334 -0.5082
  987SOL     OW 3719   0.289   5.282   0.794 -0.1962  0.0278  0.0587
  987SOL    HW2 3720   0.241   5.237   0.864  0.3729  1.3483  1.3658
  987SOL    HW3 3721   0.222   5.310   0.733 -1.1165  1.5098  1.6540
  987SOL    MW4 3722   0.274   5.280   0.795 -0.4409 -0.0847  0.1055
  988SOL     OW 3723   2.386   4.843   0.016  0.7642 -0.2528 -0.1834
  988SOL    HW2 3724   2.353   4.932   0.002 -0.4679 -0.3088  1.9242
  988SOL    HW3 3725   2.329   4.807   0.084  0.3668 -3.1781 -1.9073
  988SOL    MW4 3726   2.374   4.850   0.023 -0.3534  0.4210  0.0936
  989SOL     OW 3727   5.172   3.611   4.707  0.4386 -0.4661 -0.0850
  989SOL    HW2 3728   5.175   3.519   4.682 -0.6693 -0.2199 -1.2694
  989SOL    HW3 3729   5.105   3.616   4.775 -0.1311 -0.4166 -0.6439
  989SOL    MW4 3730   5.164   3.600   4.713  0.3077  0.5879  0.3627
  990SOL     OW 3731   6.298   2.553   3.493  0.1660 -0.4892  0.0070
  990SOL    HW2 3732   6.283   2.631   3.439 -0.2989 -0.6372 -0.0858
  990SOL    HW3 3733   6.221   2.547   3.549 -0.4738 -1.6223 -0.9151
  990SOL    MW4 3734   6.286   2.562   3.493  0.1177  0.0990  0.1605
  991SOL     OW 3735   0.369   2.053   4.611  0.6660  0.3302 -0.4956
  991SOL    HW2 3736   0.437   2.067   4.545  1.0410  3.0913  0.3711
  991SOL    HW3 3737   0.416   2.052   4.694 -0.1503  0.2624 -0.0282
  991SOL    MW4 3738   0.384   2.055   4.613  0.7313 -0.1307  0.2645
  992SOL     OW 3739   3.740   1.786   0.128 -0.4590  0.0098  0.7977
  992SOL    HW2 3740   3.717   1.695   0.147 -1.3622  0.6644  3.1214
  992SOL    HW3 3741   3.701   1.836   0.199 -2.0800  2.5363 -1.6633
  992SOL    MW4 3742   3.732   1.780   0.139  0.2633 -0.2998 -0.3997
  993SOL     OW 3743   5.665   6.154   3.028 -0.0742 -0.5126  0.4814
  993SOL    HW2 3744   5.636   6.236   3.067 -1.9756 -0.4634 -0.8334
  993SOL    HW3 3745   5.682   6.176   2.936  2.8696 -0.8979  0.8622
  993SOL    MW4 3746   5.663   6.168   3.021 -0.0860 -0.8079  0.6146
  994SOL     OW 3747   0.867   6.409   4.284  0.1715  0.5208  0.5884
  994SOL    HW2 3748   0.929   6.400   4.356  0.8796  3.5111  0.4901
  994SOL    HW3 3749   0.801   6.470   4.316  0.4700  1.8878 -1.2084
  994SOL    MW4 3750   0.867   6.416   4.297 -0.4035 -0.0266 -0.1895
  995SOL     OW 3751   3.438   6.118   2.326 -0.4845 -1.0515  0.4392
  995SOL    HW2 3752   3.516   6.087   2.372 -0.2622  0.1848  0.9281
  995SOL    HW3 3753   3.397   6.179   2.387 -0.6719 -0.0552 -0.6567
  995SOL    MW4 3754   3.443   6.122   2.340 -0.1496  0.3233 -0.1566
  996SOL     OW 3755   5.308   3.068   2.562 -0.0482 -0.3085  0.1320
  996SOL    HW2 3756   5.217   3.041   2.574 -0.4045  0.9220  0.3546
  996SOL    HW3 3757   5.304   3.164   2.558  1.3849 -0.1571  1.4983
  996SOL    MW4 3758   5.295   3.077   2.563 -0.9690 -0.4589 -0.3180
  997SOL     OW 3759   3.894   6.320   0.523 -0.5082 -0.1863 -0.3731
  997SOL    HW2 3760   3.852   6.369   0.452 -0.7802 -0.1386 -0.1797
  997SOL    HW3 3761   3.892   6.379   0.598 -0.5725 -0.3832 -0.2184
  997SOL    MW4 3762   3.888   6.334   0.523 -0.3001 -0.3764 -0.5066
  998SOL     OW 3763   4.076   3.954   4.520 -0.1154  0.1081 -0.0991
  998SOL    HW2 3764   4.165   3.963   4.552 -0.1619 -0.1697  0.1114
  998SOL    HW3 3765   4.021   3.992   4.589 -0.1924 -0.1769 -0.0010
  998SOL    MW4 3766   4.080   3.960   4.533  0.4414  0.1531  0.0013
  999SOL     OW 3767   6.347   3.154   5.595 -0.0827  1.0832 -0.2419
  999SOL    HW2 3768   6.341   3.249   5.583  0.4738  1.4101  1.7301
  999SOL    HW3 3769   6.371   3.120   5.509 -1.9330  2.5372 -1.3978
  999SOL    MW4 3770   6.349   3.162   5.582  0.2448 -0.3008 -0.0227
 1000SOL     OW 3771   1.935   3.378   6.405  0.2648  0.3751 -1.0984
 1000SOL    HW2 3772   1.915   3.287   6.426  0.0089  1.1075  2.5451
 1000SOL    HW3 3773   1.851   3.415   6.377  0.0454 -0.1386 -1.1227
 1000SOL    MW4 3774   1.921   3.371   6.404  0.2477  0.2225 -0.1523
 1001SOL     OW 3775   1.618   3.128   3.377  0.1999  0.2437  0.3220
 1001SOL    HW2 3776   1.534   3.092   3.349  0.1028 -0.9543  2.0440
 1001SOL    HW3 3777   1.632   3.093   3.465  2.7288  0.0384 -0.0887
 1001SOL    MW4 3778   1.609   3.119   3.385 -0.7187 -0.1559  0.4822
 1002SOL     OW 3779   6.405   2.355   2.653 -0.1853 -0.6397 -0.0718
 1002SOL    HW2 3780   6.335   2.340   2.716 -1.1982  0.4477 -0.9028
 1002SOL    HW3 3781   6.379   2.307   2.575  0.3738 -0.8254 -0.1550
 1002SOL    MW4 3782   6.393   2.346   2.651 -0.2351 -0.1441 -0.4285
 1003SOL     OW 3783   5.559   2.061   3.934  0.0001  0.0820 -0.2089
 1003SOL    HW2 3784   5.472   2.029   3.959 -0.7570  1.2891 -1.1943
 1003SOL    HW3 3785   5.543   2.120   3.861  1.5171  1.3573  0.4278
 1003SOL    MW4 3786   5.546   2.064   3.928  0.2183 -0.9795 -0.2427
 1004SOL     OW 3787   1.324   0.090   1.775  0.0533 -0.3119  0.0689
 1004SOL    HW2 3788   1.288   0.178   1.760 -0.0690 -0.3065  0.3781
 1004SOL    HW3 3789   1.369   0.068   1.694  0.9897  0.4804  0.3401
 1004SOL    MW4 3790   1.325   0.099   1.762 -0.0595 -0.1190  0.0572
 1005SOL     OW 3791   3.715   3.730   0.671 -0.1727 -0.2615 -0.5263
 1005SOL    HW2 3792   3.781   3.795   0.691 -1.1090  1.1082 -1.6469
 1005SOL    HW3 3793   3.752   3.679   0.599  0.6258 -1.1089  0.4569
 1005SOL    MW4 3794   3.728   3.732   0.664 -0.1815  0.0306 -0.2325
 1006SOL     OW 3795   0.092   0.648   3.243 -0.4083  0.4819 -0.1891
 1006SOL    HW2 3796   0.067   0.722   3.299 -2.3653 -1.1617  1.2636
 1006SOL    HW3 3797   0.065   0.675   3.155 -2.0395  1.1321  0.4620
 1006SOL    MW4 3798   0.085   0.662   3.239  0.6517  0.5050  0.4591
 1007SOL     OW 3799   2.334   0.446   6.179  0.4756 -0.6348  0.0323
 1007SOL    HW2 3800   2.425   0.425   6.161  0.1097 -1.2587 -1.2239
 1007SOL    HW3 3801   2.287   0.416   6.102 -0.7890 -0.2502  0.6243
 1007SOL    MW4 3802   2.340   0.439   6.167 -0.3533  0.0554 -0.5370
 1008SOL     OW 3803   4.049   1.178   1.510  0.0355 -0.4495  0.0478
 1008SOL    HW2 3804   4.095   1.190   1.593 -1.9748 -0.4936  1.2397
 1008SOL    HW3 3805   4.059   1.085   1.490 -0.4665 -0.7088  0.9125
 1008SOL    MW4 3806   4.056   1.167   1.518 -0.0313  0.3427  0.6097
 1009SOL     OW 3807   3.775   1.394   2.586  0.2010 -0.3933  0.5910
 1009SOL    HW2 3808   3.709   1.415   2.652 -0.4765 -0.4905 -0.0386
 1009SOL    HW3 3809   3.787   1.300   2.593  1.3364 -0.1875  1.6677
 1009SOL    MW4 3810   3.768   1.385   2.596  0.4873 -0.0609 -0.3926
 1010SOL     OW 3811   4.256   1.426   3.173 -0.1167 -0.1133 -0.2282
 1010SOL    HW2 3812   4.320   1.360   3.149 -1.2608 -0.5370 -2.4353
 1010SOL    HW3 3813   4.187   1.377   3.219 -0.8761 -0.4895 -1.6995
 1010SOL    MW4 3814   4.255   1.411   3.176 -0.6947  0.1295 -0.1542
 1011SOL     OW 3815   5.364   4.448   0.692  0.0522 -0.5751  0.0710
 1011SOL    HW2 3816   5.404   4.524   0.735 -1.2139  0.2920 -0.2219
 1011SOL    HW3 3817   5.412   4.438   0.611 -1.1068  1.3089 -0.9308
 1011SOL    MW4 3818   5.375   4.457   0.687  0.2933  0.6115 -0.4154
 1012SOL     OW 3819   1.753   4.210   1.922  0.0648 -0.3437  0.8934
 1012SOL    HW2 3820   1.669   4.169   1.901  0.0757  0.8774 -1.8888
 1012SOL    HW3 3821   1.819   4.144   1.898 -0.0158  0.0320 -0.3998
 1012SOL    MW4 3822   1.751   4.196   1.916 -0.1963  0.7806 -0.3615
 1013SOL     OW 3823   1.249   6.407   2.461 -0.0266  0.3866 -0.1816
 1013SOL    HW2 3824   1.172   6.414   2.406 -0.6748  0.5519  0.7247
 1013SOL    HW3 3825   1.317   6.456   2.414 -0.7272  1.0304 -0.5388
 1013SOL    MW4 3826   1.248   6.415   2.448  0.2109 -0.0374 -0.2780
 1014SOL     OW 3827   0.269   3.201   5.554 -0.2055 -0.2524  0.1891
 1014SOL    HW2 3828   0.276   3.140   5.481 -0.6598  0.1638 -0.2081
 1014SOL    HW3 3829   0.215   3.155   5.618  1.8577 -1.4591  1.1684
 1014SOL    MW4 3830   0.263   3.187   5.553  0.4434 -0.5952 -0.0936
 1015SOL     OW 3831   4.093   5.345   0.456 -0.3493  0.4220 -0.5906
 1015SOL    HW2 3832   4.040   5.407   0.506 -0.3010 -1.2562  1.7355
 1015SOL    HW3 3833   4.048   5.261   0.468  1.0812 -0.4804 -1.2863
 1015SOL    MW4 3834   4.080   5.342   0.464  0.1934  0.1515 -0.1760
 1016SOL     OW 3835   2.760   6.362   1.730  0.2224  0.0298  0.1496
 1016SOL    HW2 3836   2.834   6.415   1.700  0.4096 -0.6320 -0.5907
 1016SOL    HW3 3837   2.717   6.332   1.650 -1.0652  0.6855  0.5763
 1016SOL    MW4 3838   2.764   6.365   1.715 -0.2962 -0.7168  0.0617
 1017SOL     OW 3839   6.370   2.001   6.343 -0.1766  0.1447 -0.1009
 1017SOL    HW2 3840   6.291   1.999   6.290  0.1559 -0.8238 -0.5826
 1017SOL    HW3 3841   6.352   1.941   6.416 -0.3017  0.7956  0.4147
 1017SOL    MW4 3842   6.358   1.993   6.346  0.6352 -0.0211 -0.7797
 1018SOL     OW 3843   5.148   4.775   4.167 -0.2231 -0.6650  0.1591
 1018SOL    HW2 3844   5.145   4.866   4.136  2.3347  0.3223  2.4080
 1018SOL    HW3 3845   5.212   4.732   4.110  0.4716 -0.3228  0.6664
 1018SOL    MW4 3846   5.156   4.781   4.156 -0.0623 -0.5306  0.6667
 1019SOL     OW 3847   2.688   2.947   4.812 -0.2622 -0.0576 -0.2719
 1019SOL    HW2 3848   2.649   2.905   4.736  2.1126 -0.8801 -1.1408
 1019SOL    HW3 3849   2.700   2.876   4.875  0.9080 -0.1143 -0.5276
 1019SOL    MW4 3850   2.685   2.932   4.810  0.0610  0.0194 -0.7106
 1020SOL     OW 3851   5.735   4.516   0.871  0.1507  0.4342  0.2425
 1020SOL    HW2 3852   5.732   4.434   0.920 -0.1605 -1.2281 -2.3567
 1020SOL    HW3 3853   5.645   4.549   0.874  0.0057  0.0388  0.3154
 1020SOL    MW4 3854   5.723   4.510   0.878 -0.4049 -0.2075  0.1041
 1021SOL     OW 3855   1.574   1.934   3.432  0.0987 -0.5952  0.6503
 1021SOL    HW2 3856   1.522   1.881   3.372 -1.4201  1.5853 -0.0690
 1021SOL    HW3 3857   1.611   1.871   3.494 -1.5653 -2.4623 -0.1647
 1021SOL    MW4 3858   1.572   1.918   3.432  0.7443  0.3225  0.1891
 1022SOL     OW 3859   2.810   4.186   4.106 -0.4164  0.5836 -0.2658
 1022SOL    HW2 3860   2.858   4.268   4.105 -1.0691  0.9809 -0.1308
 1022SOL    HW3 3861   2.719   4.212   4.123 -0.6233 -0.1686 -0.1733
 1022SOL    MW4 3862   2.804   4.200   4.108  0.6603  0.7638 -0.0490
 1023SOL     OW 3863   6.351   0.038   5.628 -0.3245 -0.0864  0.3581
 1023SOL    HW2 3864   6.398   0.121   5.633 -0.9243  0.2937 -0.1112
 1023SOL    HW3 3865   6.386  -0.013   5.701  2.9351 -0.9691 -1.6134
 1023SOL    MW4 3866   6.362   0.042   5.639 -0.7421 -0.2187  0.1901
 1024SOL     OW 3867   3.455   4.889   2.881 -0.4039  0.1557  0.2337
 1024SOL    HW2 3868   3.440   4.955   2.949  1.1103  0.5411  0.2214
 1024SOL    HW3 3869   3.491   4.814   2.927 -0.4109  0.0069 -0.0029
 1024SOL    MW4 3870   3.458   4.888   2.896 -0.2600 -0.0297  0.2295
 1025SOL     OW 3871   4.217   1.596   4.019  0.6209  0.1737 -0.0068
 1025SOL    HW2 3872   4.169   1.676   4.039  1.4167  0.6884 -0.1177
 1025SOL    HW3 3873   4.297   1.626   3.975  1.1075 -0.6483  0.2913
 1025SOL    MW4 3874   4.221   1.610   4.016  0.1188  0.1571 -0.5906
 1026SOL     OW 3875   6.300   3.882   0.556 -0.1834 -0.2985 -0.3172
 1026SOL    HW2 3876   6.361   3.956   0.567 -0.2506 -0.2112 -0.5231
 1026SOL    HW3 3877   6.290   3.874   0.461  0.8384 -1.4008 -0.3530
 1026SOL    MW4 3878   6.307   3.891   0.545 -0.1216 -0.0505  0.7089
 1027SOL     OW 3879   1.088   1.241   4.696 -0.7860  0.3107 -0.1102
 1027SOL    HW2 3880   1.006   1.215   4.653 -0.1146 -0.2620 -1.0819
 1027SOL    HW3 3881   1.134   1.158   4.711  0.0727  0.6999 -0.5343
 1027SOL    MW4 3882   1.083   1.227   4.692 -0.3986  0.3593 -0.0957
 1028SOL     OW 3883   2.375   3.050   2.842 -0.1719  0.8506  0.1136
 1028SOL    HW2 3884   2.454   2.998   2.826 -1.6430 -1.6122  0.4245
 1028SOL    HW3 3885   2.357   3.093   2.758 -0.2347 -1.0959 -0.9091
 1028SOL    MW4 3886   2.383   3.049   2.829  0.3869 -0.4963  0.3661
 1029SOL     OW 3887   4.955   0.405   0.341  0.3135  0.3425  0.0152
 1029SOL    HW2 3888   4.994   0.455   0.270  1.6703 -1.4469 -0.5967
 1029SOL    HW3 3889   4.862   0.401   0.320  0.2448  2.1347 -0.1557
 1029SOL    MW4 3890   4.948   0.411   0.329 -0.2870  0.1794  0.3659
 1030SOL     OW 3891   1.745   5.779   5.609 -0.1447  0.5031  0.3015
 1030SOL    HW2 3892   1.731   5.851   5.670  0.5736 -0.9391  2.2927
 1030SOL    HW3 3893   1.829   5.741   5.636 -1.0792 -1.8389  0.1585
 1030SOL    MW4 3894   1.755   5.783   5.621 -0.4947  0.9370 -0.1509
 1031SOL     OW 3895   6.111   1.817   0.349 -0.2646 -0.9062 -0.1576
 1031SOL    HW2 3896   6.031   1.803   0.299 -0.5547 -0.9803  0.3157
 1031SOL    HW3 3897   6.144   1.729   0.369  0.5235 -0.8779 -1.2583
 1031SOL    MW4 3898   6.105   1.804   0.345  0.3433 -0.2718 -0.5403
 1032SOL     OW 3899   3.785   0.522   2.129 -0.1494 -0.4016 -0.5931
 1032SOL    HW2 3900   3.850   0.586   2.160 -0.0146 -0.5587 -0.5548
 1032SOL    HW3 3901   3.730   0.572   2.069  0.1143 -0.3121 -0.7643
 1032SOL    MW4 3902   3.786   0.537   2.126  0.1382 -0.6428  0.0957
 1033SOL     OW 3903   4.718   2.945   4.904 -0.0503  0.1423 -0.3389
 1033SOL    HW2 3904   4.786   2.883   4.876  1.7460  0.7015  2.3448
 1033SOL    HW3 3905   4.693   2.914   4.991 -2.2717  0.7912 -0.7052
 1033SOL    MW4 3906   4.724   2.933   4.912  0.2941 -0.3245  0.4515
 1034SOL     OW 3907   1.402   4.435   6.138  0.0026  0.3286  0.1292
 1034SOL    HW2 3908   1.453   4.480   6.206  2.1575 -0.6741 -0.7172
 1034SOL    HW3 3909   1.385   4.348   6.175  2.2814 -0.6711 -0.9967
 1034SOL    MW4 3910   1.407   4.429   6.152 -0.0824 -0.2533  0.1608
 1035SOL     OW 3911   2.491   3.021   4.996 -0.0703 -0.2385  0.3161
 1035SOL    HW2 3912   2.547   2.987   4.926 -1.8588 -1.1469 -0.7239
 1035SOL    HW3 3913   2.487   3.115   4.978 -0.2134 -0.4055 -0.5911
 1035SOL    MW4 3914   2.498   3.029   4.984 -0.0369  0.0436 -0.2847
 1036SOL     OW 3915   0.018   2.997   1.254  0.0315  0.4484  0.5696
 1036SOL    HW2 3916   0.107   3.010   1.223 -0.0662 -2.8452 -1.5028
 1036SOL    HW3 3917   0.027   2.979   1.348  1.1163  3.0203  1.0574
 1036SOL    MW4 3918   0.031   2.996   1.263  0.0116  0.5406  0.1195
 1037SOL     OW 3919   4.296   3.548   5.265 -0.0738 -0.5389 -0.0498
 1037SOL    HW2 3920   4.231   3.483   5.241 -0.7615 -0.9026  2.5111
 1037SOL    HW3 3921   4.246   3.617   5.309  1.0753 -0.0556  0.5419
 1037SOL    MW4 3922   4.281   3.549   5.268  0.1971 -0.1796  0.2557
 1038SOL     OW 3923   5.232   0.500   2.880  0.2540  0.0626  0.5341
 1038SOL    HW2 3924   5.250   0.468   2.968 -1.2034  1.3553  1.3279
 1038SOL    HW3 3925   5.149   0.459   2.855 -0.6689  1.6622  0.8214
 1038SOL    MW4 3926   5.223   0.490   2.888  0.3916  0.0434  0.2037
 1039SOL     OW 3927   6.210   0.769   0.325  0.6345  0.2336  0.5456
 1039SOL    HW2 3928   6.140   0.715   0.360 -0.7088  1.2508 -0.4631
 1039SOL    HW3 3929   6.260   0.709   0.268 -0.1204 -0.2281  0.3556
 1039SOL    MW4 3930   6.208   0.754   0.322 -0.1207 -0.5443 -0.7113
 1040SOL     OW 3931   5.570   2.278   0.501  0.2207  0.3321 -0.2810
 1040SOL    HW2 3932   5.498   2.231   0.461 -1.2907  2.8104 -0.7113
 1040SOL    HW3 3933   5.615   2.320   0.427  1.1223  0.1299  0.1372
 1040SOL    MW4 3934   5.567   2.278   0.486  0.1610 -0.0166  0.2153
 1041SOL     OW 3935   4.602   1.576   2.518 -0.7545  0.0300  0.0669
 1041SOL    HW2 3936   4.627   1.667   2.505  0.1050 -0.2078 -0.0192
 1041SOL    HW3 3937   4.582   1.569   2.612 -0.3529  0.1952  0.1651
 1041SOL    MW4 3938   4.603   1.587   2.529  0.3859  0.6210 -0.2336
 1042SOL     OW 3939   6.141   2.353   4.751  0.4305  0.2000 -0.0447
 1042SOL    HW2 3940   6.109   2.402   4.826  0.5569  1.1673 -0.6054
 1042SOL    HW3 3941   6.063   2.315   4.711  0.4140 -0.7598  0.8594
 1042SOL    MW4 3942   6.127   2.354   4.756 -0.0168  0.4144  1.2994
 1043SOL     OW 3943   4.592   3.580   4.634 -0.0718  0.0948 -0.6776
 1043SOL    HW2 3944   4.653   3.650   4.613 -0.4431  0.7826  0.4511
 1043SOL    HW3 3945   4.558   3.551   4.549  0.7801  0.6360 -1.2125
 1043SOL    MW4 3946   4.595   3.585   4.620 -0.2077  0.5173 -0.1591
 1044SOL     OW 3947   5.761   5.865   4.795 -0.1454  0.1792  0.0381
 1044SOL    HW2 3948   5.753   5.856   4.700 -0.8471 -1.2116  0.1989
 1044SOL    HW3 3949   5.783   5.957   4.809 -2.4857  1.0117 -1.3267
 1044SOL    MW4 3950   5.763   5.876   4.785 -0.5636 -0.2115  0.0654
 1045SOL     OW 3951   1.499   0.574   0.014  0.1005 -0.4071  0.3255
 1045SOL    HW2 3952   1.414   0.617   0.004  0.3618 -0.1431 -1.0001
 1045SOL    HW3 3953   1.497   0.503  -0.051 -0.0425 -1.9820  1.9572
 1045SOL    MW4 3954   1.487   0.570   0.004  0.0412 -1.0058 -0.0948
 1046SOL     OW 3955   3.827   2.113   0.745  0.2868  0.1493 -0.6948
 1046SOL    HW2 3956   3.902   2.167   0.769  0.2732 -0.2702  0.3137
 1046SOL    HW3 3957   3.865   2.039   0.698  0.3581  0.6893 -1.5203
 1046SOL    MW4 3958   3.842   2.110   0.742 -0.0414 -0.2612 -0.3951
 1047SOL     OW 3959   6.036   0.696   3.496  0.3007 -0.6173  0.6453
 1047SOL    HW2 3960   5.977   0.688   3.422 -0.0530 -0.6415  0.9289
 1047SOL    HW3 3961   5.980   0.724   3.569  0.6903 -0.3161  0.8349
 1047SOL    MW4 3962   6.021   0.699   3.496  0.3454  0.2368  0.2830
 1048SOL     OW 3963   5.206   4.077   3.314 -0.1884 -0.0233 -0.3270
 1048SOL    HW2 3964   5.264   4.144   3.351  0.3929 -1.2624  1.1171
 1048SOL    HW3 3965   5.259   3.997   3.313 -1.4487 -0.8833 -0.2505
 1048SOL    MW4 3966   5.221   4.075   3.319  0.2156 -0.2529 -0.1549
 1049SOL     OW 3967   0.635   0.668   1.601  0.2416 -0.2439  0.4551
 1049SOL    HW2 3968   0.730   0.668   1.589  0.1531 -0.7589 -0.2803
 1049SOL    HW3 3969   0.616   0.753   1.640  0.8479  0.3956 -0.6177
 1049SOL    MW4 3970   0.645   0.679   1.605  0.5472 -0.7981  0.0047
 1050SOL     OW 3971   0.536   4.654   3.749  0.1888 -0.0225  0.5645
 1050SOL    HW2 3972   0.567   4.676   3.836 -0.7073  0.5396  0.7504
 1050SOL    HW3 3973   0.612   4.615   3.706  1.2549  1.5649  0.9090
 1050SOL    MW4 3974   0.550   4.652   3.755 -0.4752  0.1217  0.6748
 1051SOL     OW 3975   6.367   2.209   0.756  0.4406  0.0453  0.0781
 1051SOL    HW2 3976   6.330   2.280   0.702 -0.7767 -0.4719  0.2020
 1051SOL    HW3 3977   6.453   2.192   0.717 -0.0123  0.3426 -1.0989
 1051SOL    MW4 3978   6.373   2.216   0.744  0.0195 -0.0077  0.4607
 1052SOL     OW 3979   1.269   1.104   5.090 -0.6575 -0.2001 -0.6776
 1052SOL    HW2 3980   1.320   1.154   5.027  0.3357 -1.0726 -0.5841
 1052SOL    HW3 3981   1.320   1.025   5.107 -2.3188 -1.4217 -1.0498
 1052SOL    MW4 3982   1.282   1.100   5.084  0.2175  0.5055 -0.0273
 1053SOL     OW 3983   5.695   3.390   3.271  1.0315 -0.1142 -0.4069
 1053SOL    HW2 3984   5.605   3.417   3.286  2.0110  3.6938 -0.3242
 1053SOL    HW3 3985   5.689   3.298   3.247 -2.8607  0.0636 -0.7301
 1053SOL    MW4 3986   5.682   3.381   3.270  0.0353  0.2798 -0.4354
 1054SOL     OW 3987   0.226   5.367   4.944  0.0633 -0.2198  0.6545
 1054SOL    HW2 3988   0.199   5.294   5.000  0.1839  0.2663  1.3578
 1054SOL    HW3 3989   0.315   5.388   4.973 -0.4987  1.1673  1.4971
 1054SOL    MW4 3990   0.235   5.360   4.955 -0.8259 -0.2795 -0.0320
 1055SOL     OW 3991   0.295   0.506   2.791 -0.3845 -0.0926 -0.7367
 1055SOL    HW2 3992   0.318   0.463   2.708  1.0114  1.3118 -1.1183
 1055SOL    HW3 3993   0.261   0.591   2.765 -0.5737  0.0971  0.1084
 1055SOL    MW4 3994   0.294   0.512   2.777 -0.4011 -0.0519 -0.0246
 1056SOL     OW 3995   3.570   1.442   6.110 -0.3923 -0.0655 -0.1379
 1056SOL    HW2 3996   3.508   1.369   6.117  2.0039 -2.2345  0.0988
 1056SOL    HW3 3997   3.638   1.410   6.051  0.5986  2.1569 -0.3022
 1056SOL    MW4 3998   3.571   1.428   6.103 -0.7338  0.6006  0.0259
 1057SOL     OW 3999   4.118   6.065   4.913  0.7893  0.5075 -0.2751
 1057SOL    HW2 4000   4.180   6.122   4.959 -0.1924  1.8023 -0.4677
 1057SOL    HW3 4001   4.172   5.996   4.875  2.1572  1.7681 -0.7230
 1057SOL    MW4 4002   4.133   6.064   4.914 -0.0933  0.2705  0.1142
 1058SOL     OW 4003   0.867   5.952   1.799  0.0771 -0.3852  0.2410
 1058SOL    HW2 4004   0.807   5.880   1.783  0.0007 -0.5868  1.3294
 1058SOL    HW3 4005   0.922   5.921   1.871 -0.7362  1.0799  1.5584
 1058SOL    MW4 4006   0.867   5.939   1.806  0.1453 -0.0375 -0.5622
 1059SOL     OW 4007   0.562   4.237   1.703  0.2164  0.5373 -0.0133
 1059SOL    HW2 4008   0.581   4.302   1.635 -3.2971  1.9962  0.1604
 1059SOL    HW3 4009   0.470   4.253   1.726 -0.4419 -3.5933  1.1043
 1059SOL    MW4 4010   0.552   4.248   1.697  0.2881 -0.5254 -0.0944
 1060SOL     OW 4011   2.518   5.569   3.985 -0.3955  0.6847  0.1200
 1060SOL    HW2 4012   2.518   5.528   4.072 -0.2303  1.9252  0.7238
 1060SOL    HW3 4013   2.610   5.568   3.959 -0.3776  0.7474  0.1789
 1060SOL    MW4 4014   2.530   5.563   3.993  0.1460  0.5236  0.4277
 1061SOL     OW 4015   1.232   3.027   5.266  1.0031  0.0695  0.7304
 1061SOL    HW2 4016   1.239   2.964   5.195  2.4730  1.5197 -0.4809
 1061SOL    HW3 4017   1.281   3.103   5.236  1.6573  0.7605  3.2964
 1061SOL    MW4 4018   1.239   3.029   5.253 -0.2880  0.8262  0.2964
 1062SOL     OW 4019   3.734   6.031   1.777 -0.3040  0.0270 -0.2014
 1062SOL    HW2 4020   3.676   6.024   1.853 -0.7769  0.8619 -0.4661
 1062SOL    HW3 4021   3.740   6.125   1.760 -1.0925 -0.1671 -1.8492
 1062SOL    MW4 4022   3.727   6.042   1.785 -0.0059 -0.2008  0.2066
 1063SOL     OW 4023   4.922   1.861   1.487 -0.1967  0.2065 -0.0783
 1063SOL    HW2 4024   4.992   1.925   1.494  0.9679 -0.8019 -1.7473
 1063SOL    HW3 4025   4.885   1.875   1.400 -0.9347 -0.4065  0.1209
 1063SOL    MW4 4026   4.926   1.871   1.476  0.3251  0.0697  0.0524
 1064SOL     OW 4027   1.942   4.704   3.133 -0.3174 -0.4042  0.2837
 1064SOL    HW2 4028   1.965   4.797   3.119  0.5909 -0.6305  0.1638
 1064SOL    HW3 4029   2.003   4.675   3.201  0.8597 -1.4452 -1.1525
 1064SOL    MW4 4030   1.953   4.713   3.140  0.3632  0.1121 -0.1159
 1065SOL     OW 4031   1.039   5.221   4.797 -0.3386 -0.5461  0.0096
 1065SOL    HW2 4032   1.070   5.173   4.720 -0.6119 -0.7919  0.0533
 1065SOL    HW3 4033   1.023   5.310   4.765 -1.6776 -0.9643 -0.5158
 1065SOL    MW4 4034   1.041   5.227   4.783  0.2693 -0.0066 -0.3524
 1066SOL     OW 4035   5.248   5.829   2.297 -0.3002  0.3477  0.0438
 1066SOL    HW2 4036   5.278   5.861   2.212 -2.0102  3.3162  0.4445
 1066SOL    HW3 4037   5.317   5.769   2.326  0.2042 -1.0315 -3.5093
 1066SOL    MW4 4038   5.261   5.825   2.290  0.3118  0.2313  0.1157
 1067SOL     OW 4039   1.622   2.071   1.246  0.2522  0.5116  0.1817
 1067SOL    HW2 4040   1.640   2.065   1.340 -1.6005  0.7275  0.5846
 1067SOL    HW3 4041   1.690   2.017   1.206  1.0240  0.3351  1.6468
 1067SOL    MW4 4042   1.634   2.063   1.253 -0.2540 -0.0661 -0.2996
 1068SOL     OW 4043   5.078   0.387   4.748 -0.6924 -0.3426  0.3636
 1068SOL    HW2 4044   5.052   0.307   4.794 -0.0100 -0.3939  0.6581
 1068SOL    HW3 4045   5.057   0.369   4.656 -0.4775 -0.8820  0.4175
 1068SOL    MW4 4046   5.072   0.374   4.742 -0.2996  0.0533  0.0647
 1069SOL     OW 4047   2.641   3.289   5.746  0.2934  0.2359  0.5895
 1069SOL    HW2 4048   2.690   3.265   5.825  1.1191  0.3344  0.1124
 1069SOL    HW3 4049   2.619   3.381   5.759 -1.3424 -0.2627  1.6157
 1069SOL    MW4 4050   2.645   3.298   5.758 -0.4129 -0.2023 -0.2082
 1070SOL     OW 4051   6.242   0.457   0.522 -0.5693 -0.1561 -0.4166
 1070SOL    HW2 4052   6.160   0.477   0.567 -0.6966 -0.2151 -0.6235
 1070SOL    HW3 4053   6.300   0.530   0.544 -0.7237 -0.0425 -0.3886
 1070SOL    MW4 4054   6.239   0.469   0.531  0.2724  0.0611  0.2006
 1071SOL     OW 4055   4.469   5.173   4.883  0.6382  0.0332  0.1720
 1071SOL    HW2 4056   4.515   5.238   4.830  2.6301 -2.1729 -0.9996
 1071SOL    HW3 4057   4.389   5.154   4.834  0.5122  0.8693  0.0393
 1071SOL    MW4 4058   4.464   5.179   4.870  0.2568 -0.3328 -0.1779
 1072SOL     OW 4059   0.283   2.938   2.268 -0.1604  0.2514  0.6194
 1072SOL    HW2 4060   0.376   2.924   2.249 -0.3943  0.3119 -0.6411
 1072SOL    HW3 4061   0.243   2.853   2.257 -0.3560  0.3517  0.5519
 1072SOL    MW4 4062   0.290   2.925   2.264 -0.3346  0.7496  0.1803
 1073SOL     OW 4063   4.818   0.202   1.606  0.0468 -0.3465  0.0084
 1073SOL    HW2 4064   4.857   0.119   1.579 -1.3018 -1.2455  0.6664
 1073SOL    HW3 4065   4.770   0.180   1.686 -1.3022  0.7910 -0.4441
 1073SOL    MW4 4066   4.817   0.188   1.613  0.6791  0.6523 -0.4271
 1074SOL     OW 4067   5.539   3.574   4.817 -0.1980 -0.0549  0.1687
 1074SOL    HW2 4068   5.476   3.556   4.887  0.7291 -1.1681  0.7492
 1074SOL    HW3 4069   5.623   3.581   4.861  0.0810  1.7016 -0.5701
 1074SOL    MW4 4070   5.542   3.572   4.832 -0.1872 -0.3269 -0.6242
 1075SOL     OW 4071   0.143   5.150   5.132  0.5082 -0.2925  0.4840
 1075SOL    HW2 4072   0.119   5.173   5.222  1.5903 -0.1175  0.7430
 1075SOL    HW3 4073   0.137   5.054   5.130  1.0557 -0.3429  0.9236
 1075SOL    MW4 4074   0.139   5.140   5.144 -0.0575  0.0884 -0.1114
 1076SOL     OW 4075   2.535   1.626   1.028 -0.4184  0.7702  0.5853
 1076SOL    HW2 4076   2.594   1.556   1.057  0.7120  1.1056 -0.8385
 1076SOL    HW3 4077   2.474   1.636   1.101 -0.0476 -1.0630  1.2206
 1076SOL    MW4 4078   2.534   1.618   1.041 -0.6071 -0.2667 -0.2994
 1077SOL     OW 4079   5.221   0.698   3.277  0.1749 -0.5039 -0.0886
 1077SOL    HW2 4080   5.254   0.788   3.275  0.0364 -0.4395 -2.8108
 1077SOL    HW3 4081   5.241   0.668   3.366 -0.4842  2.4290  1.2063
 1077SOL    MW4 4082   5.228   0.706   3.289 -0.1447  0.3965 -0.3005
 1078SOL     OW 4083   5.145   5.570   0.726  0.0176 -0.3488 -0.7253
 1078SOL    HW2 4084   5.186   5.655   0.738 -1.2010  0.2909 -0.9857
 1078SOL    HW3 4085   5.197   5.529   0.656 -1.1816  1.4267 -2.7916
 1078SOL    MW4 4086   5.157   5.575   0.718  0.4614  0.0518  0.0413
 1079SOL     OW 4087   4.391   1.260   6.135  0.4722  0.3681  0.7250
 1079SOL    HW2 4088   4.461   1.292   6.079 -0.7346 -0.4509 -1.3793
 1079SOL    HW3 4089   4.310   1.295   6.096 -0.3691  0.9050  2.7938
 1079SOL    MW4 4090   4.389   1.269   6.123 -0.3792  0.0587 -0.7509
 1080SOL     OW 4091   3.865   4.711   0.202  0.0533 -0.0703 -0.1396
 1080SOL    HW2 4092   3.931   4.667   0.255  0.4644  1.3746  0.6002
 1080SOL    HW3 4093   3.836   4.784   0.256 -0.4773  0.6673 -1.3911
 1080SOL    MW4 4094   3.870   4.715   0.216  0.3440 -0.4854 -1.0593
 1081SOL     OW 4095   2.198   5.605   2.656 -0.1660 -0.0441 -0.4226
 1081SOL    HW2 4096   2.213   5.574   2.567 -1.1482  1.3092 -1.1098
 1081SOL    HW3 4097   2.189   5.525   2.708  0.5096 -0.8642 -1.5124
 1081SOL    MW4 4098   2.199   5.590   2.651  0.9003 -0.8477  0.2170
 1082SOL     OW 4099   5.690   0.515   4.911 -0.1456  0.9052 -0.0716
 1082SOL    HW2 4100   5.672   0.449   4.978  1.7096 -0.0887 -0.4735
 1082SOL    HW3 4101   5.724   0.590   4.960  3.0238 -0.4757  0.1363
 1082SOL    MW4 4102   5.692   0.516   4.926 -0.7557 -0.3080 -0.1042
 1083SOL     OW 4103   5.399   2.005   2.274 -0.0365 -0.3416 -0.3530
 1083SOL    HW2 4104   5.485   2.031   2.242  0.7409 -1.0812  1.0568
 1083SOL    HW3 4105   5.345   2.000   2.195  0.5616  2.3512 -1.0503
 1083SOL    MW4 4106   5.403   2.008   2.259  0.3586  0.2662 -0.1994
 1084SOL     OW 4107   2.669   1.381   5.687  0.9515 -0.0360  0.0655
 1084SOL    HW2 4108   2.756   1.414   5.709  0.2310  0.5036  2.2823
 1084SOL    HW3 4109   2.679   1.286   5.689  1.8325 -0.0041 -1.3024
 1084SOL    MW4 4110   2.682   1.373   5.690 -0.0226 -0.1507  0.1638
 1085SOL     OW 4111   2.836   1.023   5.577  0.1785 -0.6043  0.3678
 1085SOL    HW2 4112   2.858   1.102   5.527 -1.3475 -0.1537  0.3507
 1085SOL    HW3 4113   2.788   1.055   5.653 -0.7448 -1.5291  0.1994
 1085SOL    MW4 4114   2.832   1.038   5.580  0.5308  0.0752 -0.3472
 1086SOL     OW 4115   3.231   3.574   6.275 -0.2056  0.0149  0.1570
 1086SOL    HW2 4116   3.187   3.603   6.355 -1.3274 -2.9163  0.7491
 1086SOL    HW3 4117   3.313   3.623   6.273 -0.4697  0.6987  2.7238
 1086SOL    MW4 4118   3.236   3.584   6.285 -0.3267 -0.4244  0.5066
 1087SOL     OW 4119   2.511   4.518   4.993 -0.2861  0.2350  0.3405
 1087SOL    HW2 4120   2.479   4.523   4.903 -2.1577  3.4291  1.0115
 1087SOL    HW3 4121   2.431   4.522   5.047  0.8656  1.5650  2.0933
 1087SOL    MW4 4122   2.496   4.520   4.988  0.2027 -0.2864 -0.1675
 1088SOL     OW 4123   2.480   6.217   2.544 -0.3095 -0.1651  0.1091
 1088SOL    HW2 4124   2.437   6.146   2.592 -0.7396  0.2202  0.3050
 1088SOL    HW3 4125   2.509   6.176   2.463  0.8230 -0.9382  0.8735
 1088SOL    MW4 4126   2.478   6.202   2.540 -0.6421  0.6279  0.3475
 1089SOL     OW 4127   5.317   4.147   1.484  0.2592  0.2290  0.5718
 1089SOL    HW2 4128   5.316   4.054   1.506  1.1063 -0.0477 -0.4594
 1089SOL    HW3 4129   5.392   4.182   1.532  1.3019 -0.1050 -0.7433
 1089SOL    MW4 4130   5.327   4.139   1.493 -0.2053 -0.2810  0.7526
 1090SOL     OW 4131   5.631   3.865   3.939  0.4702 -0.4367 -0.2228
 1090SOL    HW2 4132   5.572   3.823   3.877  1.0211  0.1254 -1.1676
 1090SOL    HW3 4133   5.631   3.808   4.016 -2.2973  0.2012  0.3596
 1090SOL    MW4 4134   5.623   3.852   3.941  0.0279 -0.2797  0.4888
 1091SOL     OW 4135   3.102   1.901   0.667  0.5503 -0.3600 -0.0387
 1091SOL    HW2 4136   3.058   1.823   0.633  1.9082  0.2171 -3.5553
 1091SOL    HW3 4137   3.038   1.971   0.654  1.1113 -0.1171 -1.7800
 1091SOL    MW4 4138   3.087   1.900   0.661  0.0909 -0.1940 -0.2182
 1092SOL     OW 4139   0.380   0.895   5.555  0.5055  0.0801 -0.1624
 1092SOL    HW2 4140   0.335   0.945   5.487  0.6171 -0.4501 -0.6364
 1092SOL    HW3 4141   0.419   0.961   5.612  0.1586  0.5342 -0.4430
 1092SOL    MW4 4142   0.379   0.910   5.553  0.3830 -0.6895 -0.3596
 1093SOL     OW 4143   4.707   0.942   1.785 -0.6546 -0.1001 -0.0781
 1093SOL    HW2 4144   4.738   0.896   1.863 -0.5786 -0.5697 -0.3788
 1093SOL    HW3 4145   4.612   0.951   1.799 -0.7534 -0.8234 -0.2505
 1093SOL    MW4 4146   4.698   0.937   1.797  0.6887 -0.0781  0.0602
 1094SOL     OW 4147   5.123   4.721   1.715 -0.1950  0.6506 -0.1917
 1094SOL    HW2 4148   5.141   4.627   1.706  1.2364  1.0499 -2.1464
 1094SOL    HW3 4149   5.059   4.726   1.785 -0.1271 -1.7736  0.1371
 1094SOL    MW4 4150   5.117   4.709   1.723  0.3646 -0.6753 -0.0430
 1095SOL     OW 4151   4.963   6.190   5.515  0.7713 -0.0264 -0.4393
 1095SOL    HW2 4152   4.945   6.284   5.522  2.3812  0.3293 -0.7882
 1095SOL    HW3 4153   4.992   6.165   5.602 -0.8935 -0.5106  0.0096
 1095SOL    MW4 4154   4.964   6.199   5.527 -0.2509 -0.4426  0.2696
 1096SOL     OW 4155   1.243   1.642   5.088  0.0310  0.1694  0.3081
 1096SOL    HW2 4156   1.278   1.704   5.153  1.7683 -0.7405  0.3143
 1096SOL    HW3 4157   1.201   1.574   5.140 -1.1844  0.9225  0.3340
 1096SOL    MW4 4158   1.242   1.641   5.104 -0.2217 -0.4300  0.1330
 1097SOL     OW 4159   5.729   2.558   5.283 -0.2465 -0.2624 -0.3227
 1097SOL    HW2 4160   5.731   2.575   5.189  1.8938  1.6274 -0.0062
 1097SOL    HW3 4161   5.821   2.561   5.310 -0.8524 -0.1647  1.9327
 1097SOL    MW4 4162   5.741   2.560   5.274  0.3794  0.1469  0.6589
 1098SOL     OW 4163   4.461   4.041   5.333 -0.0979 -0.2092  0.0926
 1098SOL    HW2 4164   4.396   4.102   5.301 -1.0621  0.7523  3.4247
 1098SOL    HW3 4165   4.518   4.093   5.390  2.4577 -1.4232 -1.1491
 1098SOL    MW4 4166   4.460   4.056   5.337  0.1274 -0.5897  0.1402
 1099SOL     OW 4167   1.434   4.025   1.430 -0.1943 -0.6057  0.6846
 1099SOL    HW2 4168   1.479   3.972   1.364 -0.4783 -0.0157  0.0056
 1099SOL    HW3 4169   1.385   3.962   1.482 -1.7386 -0.9040 -1.0531
 1099SOL    MW4 4170   1.434   4.010   1.428 -0.3098  0.5078 -0.4449
 1100SOL     OW 4171   1.307   4.082   1.769  0.3645 -0.1802  0.0645
 1100SOL    HW2 4172   1.233   4.069   1.828 -1.1796  2.5161 -1.0831
 1100SOL    HW3 4173   1.270   4.073   1.682  1.3933  1.0007 -0.5367
 1100SOL    MW4 4174   1.293   4.079   1.765  0.0980  0.3762  0.1562
 1101SOL     OW 4175   5.997   6.085   5.767  0.0678  0.3698 -0.4719
 1101SOL    HW2 4176   6.089   6.112   5.768 -0.7959  3.7617  0.2173
 1101SOL    HW3 4177   5.975   6.077   5.675  1.0313 -0.5184 -0.6426
 1101SOL    MW4 4178   6.006   6.088   5.755  0.4858  0.4490 -0.7519
 1102SOL     OW 4179   0.943   0.691   1.549  0.2647  0.0170  0.3509
 1102SOL    HW2 4180   0.973   0.777   1.581 -0.2598  0.8519 -1.2752
 1102SOL    HW3 4181   0.991   0.628   1.603  2.6406  1.2919 -0.1038
 1102SOL    MW4 4182   0.953   0.694   1.561 -0.2371 -0.1883  0.3157
 1103SOL     OW 4183   1.967   2.888   2.825  0.2196 -0.5099  0.4956
 1103SOL    HW2 4184   2.007   2.882   2.912 -0.9293 -1.2267  1.0021
 1103SOL    HW3 4185   1.946   2.981   2.814  0.8019 -0.3412  0.7742
 1103SOL    MW4 4186   1.970   2.900   2.835 -0.5879 -0.4521  0.5644
 1104SOL     OW 4187   5.297   3.850   1.507  0.2987  0.0118 -0.6564
 1104SOL    HW2 4188   5.362   3.785   1.480  1.0191  0.7146 -0.6715
 1104SOL    HW3 4189   5.244   3.806   1.573  0.8413 -0.5570 -0.5927
 1104SOL    MW4 4190   5.298   3.836   1.512 -0.4203 -0.4380  0.4800
 1105SOL     OW 4191   6.065   1.298   1.311  0.1035  0.0582  0.1626
 1105SOL    HW2 4192   6.068   1.393   1.300 -0.0969  0.0267 -0.1977
 1105SOL    HW3 4193   5.976   1.281   1.343 -0.6774 -0.2020 -1.9547
 1105SOL    MW4 4194   6.054   1.309   1.314 -0.2539 -0.5244  0.6676
 1106SOL     OW 4195   0.349   4.629   1.956  0.5138 -0.3426 -0.0398
 1106SOL    HW2 4196   0.330   4.553   2.011 -0.9252 -0.5163 -0.7114
 1106SOL    HW3 4197   0.367   4.700   2.018 -0.3304 -0.7063  0.6445
 1106SOL    MW4 4198   0.349   4.628   1.971  0.4353 -0.0669 -0.1038
 1107SOL     OW 4199   3.147   2.943   2.748 -0.1731  0.1112  0.2394
 1107SOL    HW2 4200   3.166   2.861   2.793 -0.7749 -0.0600  0.1851
 1107SOL    HW3 4201   3.204   2.941   2.670  0.6407  0.2695  0.8193
 1107SOL    MW4 4202   3.157   2.932   2.743 -0.3179  0.0036  0.2133
 1108SOL     OW 4203   1.239   6.408   3.270 -0.1925  0.0897  0.1046
 1108SOL    HW2 4204   1.232   6.443   3.182  0.3788  1.8267  0.7102
 1108SOL    HW3 4205   1.203   6.320   3.264  0.2346  0.0154 -1.9386
 1108SOL    MW4 4206   1.233   6.401   3.258 -0.0930 -0.1571  0.8210
 1109SOL     OW 4207   0.361   4.545   0.934  0.3422 -0.2370 -0.0277
 1109SOL    HW2 4208   0.279   4.540   0.983  0.6460  1.0610  0.6465
 1109SOL    HW3 4209   0.335   4.536   0.843 -0.5128 -0.1186  0.1958
 1109SOL    MW4 4210   0.347   4.543   0.929  0.5195 -0.5411 -0.2390
 1110SOL     OW 4211   1.014   3.501   3.155  0.0570  0.1441  0.0507
 1110SOL    HW2 4212   0.940   3.497   3.215  0.2577  1.2005  0.3896
 1110SOL    HW3 4213   1.076   3.561   3.198  1.2850 -1.0229 -0.0337
 1110SOL    MW4 4214   1.013   3.509   3.169 -0.1794 -0.2313 -0.9426
 1111SOL     OW 4215   1.907   5.226   5.356 -0.1180  0.0216  0.1760
 1111SOL    HW2 4216   1.966   5.248   5.284  0.3692 -0.0500  0.5423
 1111SOL    HW3 4217   1.966   5.210   5.430 -0.2317 -4.2373 -0.4270
 1111SOL    MW4 4218   1.923   5.227   5.356  0.2452 -0.1028 -0.4082
 1112SOL     OW 4219   1.066   5.214   0.916 -0.7742 -0.2454  0.1643
 1112SOL    HW2 4220   0.977   5.246   0.928 -0.4591  0.9621 -0.5761
 1112SOL    HW3 4221   1.097   5.255   0.835  0.8479  0.2861  0.9949
 1112SOL    MW4 4222   1.059   5.223   0.907 -0.1324  0.4340  0.7452
 1113SOL     OW 4223   3.450   0.041   5.777  0.2386  0.3599  0.2203
 1113SOL    HW2 4224   3.363   0.007   5.797  0.0518 -0.0686 -1.2371
 1113SOL    HW3 4225   3.452   0.048   5.682  2.0306 -0.2760  0.1690
 1113SOL    MW4 4226   3.439   0.037   5.767 -0.2155 -0.4116 -0.2398
 1114SOL     OW 4227   3.580   3.858   5.986  0.4307 -0.3075 -0.0101
 1114SOL    HW2 4228   3.650   3.847   5.922 -0.0436  0.4763 -0.6937
 1114SOL    HW3 4229   3.614   3.922   6.048  0.1456  0.4594 -0.6286
 1114SOL    MW4 4230   3.593   3.865   5.986  0.2992  0.1858  0.6984
 1115SOL     OW 4231   6.210   2.727   3.275 -0.2260  0.3531 -0.2871
 1115SOL    HW2 4232   6.158   2.786   3.220  1.2728  0.7849 -1.2760
 1115SOL    HW3 4233   6.237   2.657   3.216  1.3106  0.7620 -0.0942
 1115SOL    MW4 4234   6.207   2.725   3.260  0.3418  0.3975 -0.6669
 1116SOL     OW 4235   4.147   0.038   5.428 -0.2858  0.4385  0.4474
 1116SOL    HW2 4236   4.185   0.119   5.393 -0.4509  0.7058  0.8681
 1116SOL    HW3 4237   4.066   0.027   5.378  0.3783 -0.1937 -0.5266
 1116SOL    MW4 4238   4.141   0.047   5.416 -0.5883  0.1283  0.1078
 1117SOL     OW 4239   4.262   4.887   2.208  0.0703  0.0384  0.4342
 1117SOL    HW2 4240   4.321   4.848   2.271 -0.3369  1.2456  1.6140
 1117SOL    HW3 4241   4.296   4.975   2.193 -1.1878  0.6326  0.8676
 1117SOL    MW4 4242   4.274   4.893   2.214  0.5629  0.4008 -0.0962
 1118SOL     OW 4243   6.207   4.513   4.102  0.1643 -0.1495 -0.0521
 1118SOL    HW2 4244   6.267   4.512   4.027  0.9614 -0.9460  0.5641
 1118SOL    HW3 4245   6.124   4.482   4.066  0.2356  0.5379 -0.8342
 1118SOL    MW4 4246   6.204   4.509   4.087 -0.3145  0.8249 -0.0961
 1119SOL     OW 4247   2.874   1.410   1.887  0.5055 -0.1254 -0.0708
 1119SOL    HW2 4248   2.899   1.498   1.913  0.8762 -0.3336  0.2848
 1119SOL    HW3 4249   2.858   1.417   1.793  3.3688 -0.2660 -0.6741
 1119SOL    MW4 4250   2.875   1.423   1.878 -0.0646 -0.2011  0.3278
 1120SOL     OW 4251   2.744   4.908   0.429 -0.5082  0.7260 -0.3405
 1120SOL    HW2 4252   2.679   4.974   0.402 -1.9191  0.4764  2.1025
 1120SOL    HW3 4253   2.692   4.830   0.446  0.7730 -0.1737 -0.4736
 1120SOL    MW4 4254   2.728   4.907   0.428  0.4361  0.5856 -0.0104
 1121SOL     OW 4255   5.318   0.911   3.570  0.1449 -0.0409  1.0592
 1121SOL    HW2 4256   5.328   0.822   3.538  1.2297  0.4727 -0.1113
 1121SOL    HW3 4257   5.258   0.903   3.645 -0.7969 -1.5640  0.1898
 1121SOL    MW4 4258   5.311   0.898   3.576  0.2544  0.7315 -0.3365
 1122SOL     OW 4259   4.393   2.298   3.209 -0.4228  0.5337 -0.1177
 1122SOL    HW2 4260   4.411   2.208   3.235 -0.0889  0.2408 -1.3134
 1122SOL    HW3 4261   4.352   2.291   3.123 -1.0772  1.4942  0.0960
 1122SOL    MW4 4262   4.390   2.285   3.201  0.5672  0.7964  0.0582
 1123SOL     OW 4263   4.253   0.265   0.066 -0.0696  0.4430  0.0283
 1123SOL    HW2 4264   4.171   0.257   0.115  0.1374  0.6574  0.4177
 1123SOL    HW3 4265   4.321   0.243   0.130  0.2153  0.8942 -0.1147
 1123SOL    MW4 4266   4.251   0.261   0.081  0.5808  0.0636  0.3593
 1124SOL     OW 4267   0.955   3.952   2.422 -0.2659 -0.4881 -0.2856
 1124SOL    HW2 4268   0.989   3.966   2.510 -2.0807  1.3713  0.2185
 1124SOL    HW3 4269   0.929   3.860   2.420 -0.5828 -0.4639  1.3006
 1124SOL    MW4 4270   0.956   3.942   2.433  0.4472 -0.6504  0.7200
 1125SOL     OW 4271   2.397   0.924   1.553  0.2150  0.3234 -0.5756
 1125SOL    HW2 4272   2.388   0.990   1.622  1.6137 -1.8637  1.9003
 1125SOL    HW3 4273   2.322   0.866   1.565 -0.6748  1.0367 -2.3318
 1125SOL    MW4 4274   2.386   0.925   1.564 -0.4897  0.4776 -0.6292
 1126SOL     OW 4275   2.909   5.770   2.928 -0.4212 -0.3623 -0.4307
 1126SOL    HW2 4276   2.826   5.742   2.889 -1.6508  1.1613  0.9310
 1126SOL    HW3 4277   2.956   5.812   2.856 -1.2630 -0.4117 -1.0256
 1126SOL    MW4 4278   2.904   5.772   2.913  0.5455  0.0242  0.6156
 1127SOL     OW 4279   1.642   3.585   3.775  0.4522  0.1379 -0.2578
 1127SOL    HW2 4280   1.599   3.533   3.707  0.3933  0.6865 -0.6471
 1127SOL    HW3 4281   1.571   3.633   3.817  0.6858  1.1561 -0.9971
 1127SOL    MW4 4282   1.627   3.584   3.771 -0.1356 -0.3568 -0.2192
 1128SOL     OW 4283   4.849   3.457   2.689 -0.1687  0.2427  0.8187
 1128SOL    HW2 4284   4.816   3.445   2.600 -0.0799 -0.1326  0.8374
 1128SOL    HW3 4285   4.841   3.551   2.704 -0.2560  0.2988  0.4419
 1128SOL    MW4 4286   4.844   3.468   2.679  0.1553  0.3597  0.2634
 1129SOL     OW 4287   4.315   0.606   4.068  0.0070  0.2023  0.0998
 1129SOL    HW2 4288   4.317   0.694   4.030 -3.4334  1.0143  1.4043
 1129SOL    HW3 4289   4.263   0.554   4.007  0.6339 -0.5099  0.1537
 1129SOL    MW4 4290   4.308   0.611   4.055 -0.3631 -0.4678  0.0116
 1130SOL     OW 4291   4.823   3.436   2.049 -0.1557 -0.2417  0.0077
 1130SOL    HW2 4292   4.891   3.500   2.068  2.0573 -2.3986 -0.1424
 1130SOL    HW3 4293   4.865   3.372   1.992 -1.9760 -2.2808  0.7952
 1130SOL    MW4 4294   4.837   3.436   2.044  0.4795 -0.3389 -0.0630
 1131SOL     OW 4295   0.634   0.019   3.896  0.0597 -0.0372 -0.3237
 1131SOL    HW2 4296   0.659  -0.073   3.901 -0.8699 -0.2532  0.7275
 1131SOL    HW3 4297   0.545   0.022   3.932 -0.0847  1.2035 -0.7426
 1131SOL    MW4 4298   0.625   0.007   3.902 -0.1601 -0.3296  0.1200
 1132SOL     OW 4299   0.157   2.052   0.633 -0.1415 -0.2774  0.0444
 1132SOL    HW2 4300   0.082   2.043   0.573  1.0323 -0.4662 -1.4343
 1132SOL    HW3 4301   0.230   2.075   0.577  1.0280 -0.5511  1.4131
 1132SOL    MW4 4302   0.156   2.054   0.618 -0.3049 -0.0034 -0.5837
 1133SOL     OW 4303   3.082   0.231   6.331 -0.1470  0.1869 -0.1671
 1133SOL    HW2 4304   3.123   0.282   6.261  0.1902 -0.9027 -0.7906
 1133SOL    HW3 4305   3.057   0.149   6.289  0.4436 -0.6675  1.0710
 1133SOL    MW4 4306   3.084   0.227   6.316 -0.2022  0.5397  0.1800
 1134SOL     OW 4307   2.969   1.665   1.923  0.0449  0.0845 -0.3208
 1134SOL    HW2 4308   3.029   1.666   1.849  0.6315  0.4466  0.1471
 1134SOL    HW3 4309   3.024   1.688   1.999 -0.4550 -0.6893  0.2895
 1134SOL    MW4 4310   2.984   1.668   1.923 -0.1285  0.8716  0.0454
 1135SOL     OW 4311   0.363   3.498   4.205 -0.4092  0.3478 -0.5687
 1135SOL    HW2 4312   0.408   3.581   4.194  0.3706  0.1614  0.8942
 1135SOL    HW3 4313   0.431   3.431   4.193 -0.7620 -0.0253 -0.5398
 1135SOL    MW4 4314   0.378   3.500   4.202 -0.3151  0.0267 -0.1906
 1136SOL     OW 4315   4.600   1.196   4.273 -0.0555  0.0456  0.0664
 1136SOL    HW2 4316   4.606   1.118   4.218 -0.0307  0.3250 -0.3272
 1136SOL    HW3 4317   4.584   1.162   4.361  0.2762 -0.4169 -0.0493
 1136SOL    MW4 4318   4.599   1.182   4.278  0.0080  0.0041  0.1232
 1137SOL     OW 4319   2.141   2.719   1.057  0.0682  0.8774  0.1255
 1137SOL    HW2 4320   2.214   2.752   1.109  0.6437  0.8801 -0.6580
 1137SOL    HW3 4321   2.176   2.643   1.011 -0.3097  1.0904 -0.5352
 1137SOL    MW4 4322   2.155   2.713   1.058  0.9513  0.6068  0.1610
 1138SOL     OW 4323   2.213   3.151   0.327 -0.1441 -0.5911 -0.2211
 1138SOL    HW2 4324   2.160   3.118   0.399 -0.9886 -0.5666 -0.8193
 1138SOL    HW3 4325   2.198   3.246   0.327  0.5615 -0.4725  0.1267
 1138SOL    MW4 4326   2.204   3.159   0.337  0.0500  0.4351  0.1723
 1139SOL     OW 4327   2.231   0.414   5.715  0.5104  0.3746 -0.0313
 1139SOL    HW2 4328   2.259   0.482   5.654  0.5635 -0.7766 -1.3159
 1139SOL    HW3 4329   2.307   0.358   5.726  0.1619 -0.0588  0.2328
 1139SOL    MW4 4330   2.245   0.416   5.708  0.0802  1.2442  0.0474
 1140SOL     OW 4331   3.069   4.236   0.482 -0.4045 -0.5059  0.0906
 1140SOL    HW2 4332   2.975   4.228   0.467 -0.4523  1.5039 -1.0499
 1140SOL    HW3 4333   3.109   4.200   0.403 -0.3041  0.4916 -0.3261
 1140SOL    MW4 4334   3.062   4.230   0.470  0.1000 -0.0791  0.1565
 1141SOL     OW 4335   4.891   5.709   0.704  0.0604 -0.3498  0.2067
 1141SOL    HW2 4336   4.945   5.632   0.725  0.2394 -0.2719  0.0374
 1141SOL    HW3 4337   4.812   5.698   0.757 -0.2600 -1.0583 -0.3971
 1141SOL    MW4 4338   4.888   5.697   0.714 -0.3408  0.2826  0.6986
 1142SOL     OW 4339   3.962   5.698   4.297  0.1623  0.2979  0.4197
 1142SOL    HW2 4340   4.001   5.612   4.281 -2.9830 -1.3405  0.8231
 1142SOL    HW3 4341   3.986   5.750   4.220  1.1678 -1.3075 -0.3971
 1142SOL    MW4 4342   3.970   5.694   4.285  0.1945 -0.1734 -0.8140
 1143SOL     OW 4343   2.356   2.423   2.382  0.6286  0.0610 -0.0947
 1143SOL    HW2 4344   2.433   2.457   2.336 -0.6392  1.2869 -1.3981
 1143SOL    HW3 4345   2.292   2.494   2.379 -1.4854 -1.7613 -1.2931
 1143SOL    MW4 4346   2.358   2.437   2.376  0.0717  0.3033  0.2030
 1144SOL     OW 4347   3.607   5.481   2.445 -0.0785  0.4980  0.2643
 1144SOL    HW2 4348   3.694   5.442   2.437 -0.0426  0.9192 -2.5945
 1144SOL    HW3 4349   3.551   5.409   2.476  0.6781 -0.7881 -1.2086
 1144SOL    MW4 4350   3.611   5.466   2.448  0.1625 -0.1806  0.1128
 1145SOL     OW 4351   2.437   1.571   0.308  0.1260 -0.0524  0.3447
 1145SOL    HW2 4352   2.392   1.501   0.259  1.3186 -0.2358 -0.5238
 1145SOL    HW3 4353   2.463   1.634   0.242 -0.6140  1.0786  1.0842
 1145SOL    MW4 4354   2.434   1.570   0.293 -0.4923 -0.2022  0.3613
 1146SOL     OW 4355   2.420   2.577   1.417 -0.0343 -0.0061 -0.0420
 1146SOL    HW2 4356   2.419   2.525   1.498 -0.7583 -1.1672 -0.7559
 1146SOL    HW3 4357   2.493   2.541   1.366 -0.6953 -0.5262 -0.6465
 1146SOL    MW4 4358   2.429   2.565   1.421 -0.1458 -0.2175 -0.5675
 1147SOL     OW 4359   5.569   4.961   5.487  0.4676  0.0544 -0.1044
 1147SOL    HW2 4360   5.581   5.056   5.483 -0.8372  0.2648  0.4054
 1147SOL    HW3 4361   5.635   4.931   5.550  1.2766  0.5363 -0.7141
 1147SOL    MW4 4362   5.579   4.969   5.495 -0.0989 -0.1319  0.1355
 1148SOL     OW 4363   3.207   0.787   6.308 -0.1731  0.5143  0.0815
 1148SOL    HW2 4364   3.146   0.748   6.245  0.0532  0.8360 -0.3452
 1148SOL    HW3 4365   3.196   0.882   6.297  1.3636  0.6067 -0.9819
 1148SOL    MW4 4366   3.198   0.795   6.298 -0.3535  0.8977  0.6038
 1149SOL     OW 4367   1.729   2.987   1.314  0.4180 -0.5787 -0.2226
 1149SOL    HW2 4368   1.647   2.950   1.348  0.8454 -1.8584 -0.5152
 1149SOL    HW3 4369   1.796   2.953   1.374  0.8141 -0.1289 -0.4080
 1149SOL    MW4 4370   1.727   2.977   1.327 -0.8010 -0.5831  0.3855
 1150SOL     OW 4371   4.274   6.283   4.283  0.4036 -0.1160 -0.4155
 1150SOL    HW2 4372   4.288   6.369   4.323 -0.1434 -0.5184  0.6717
 1150SOL    HW3 4373   4.232   6.231   4.351 -0.0752 -0.9884 -1.3512
 1150SOL    MW4 4374   4.270   6.288   4.297  0.4041 -0.5710  0.7110
 1151SOL     OW 4375   0.362   4.382   1.318  0.5178  0.1157 -0.5748
 1151SOL    HW2 4376   0.337   4.450   1.381  3.2729  2.9083 -2.1976
 1151SOL    HW3 4377   0.443   4.414   1.280  2.6639 -4.7259 -0.7551
 1151SOL    MW4 4378   0.369   4.395   1.321 -0.0675 -0.3814  0.1831
 1152SOL     OW 4379   2.414   3.603   6.353 -0.2209  0.4253  0.2594
 1152SOL    HW2 4380   2.324   3.570   6.358 -0.1843  0.1298 -0.6989
 1152SOL    HW3 4381   2.456   3.549   6.286  0.0665  1.8853 -0.8110
 1152SOL    MW4 4382   2.408   3.592   6.345 -0.0037 -0.6972  0.5670
 1153SOL     OW 4383   0.860   1.781   6.201  0.0858 -0.5900  0.1238
 1153SOL    HW2 4384   0.878   1.700   6.249  0.5523 -0.3622  0.3381
 1153SOL    HW3 4385   0.918   1.846   6.241 -1.3502  0.2240  0.9766
 1153SOL    MW4 4386   0.870   1.779   6.213  0.0628 -0.0450  0.1419
 1154SOL     OW 4387   2.152   3.268   3.414  0.4730 -0.5297 -0.3474
 1154SOL    HW2 4388   2.176   3.344   3.466 -0.1308 -0.1665 -0.5843
 1154SOL    HW3 4389   2.230   3.213   3.413  0.5236 -0.4991  0.8651
 1154SOL    MW4 4390   2.165   3.271   3.420 -0.1427 -0.2400 -0.2769
 1155SOL     OW 4391   3.974   5.548   0.993 -0.0778 -0.1847 -0.2587
 1155SOL    HW2 4392   3.994   5.522   1.083 -0.6761  0.3461  0.0358
 1155SOL    HW3 4393   4.024   5.487   0.939 -1.5381 -2.0435  0.3951
 1155SOL    MW4 4394   3.984   5.536   0.998  0.5034  0.2281  0.3899
 1156SOL     OW 4395   3.794   3.977   5.320  0.1372 -0.4363 -0.5563
 1156SOL    HW2 4396   3.767   4.058   5.362  1.1399  0.0553 -0.8297
 1156SOL    HW3 4397   3.831   3.924   5.391  0.9860  0.0219 -0.6403
 1156SOL    MW4 4398   3.796   3.980   5.335  0.1117  0.1960 -0.0718
 1157SOL     OW 4399   3.666   3.576   4.120 -0.6211  0.2992 -0.2095
 1157SOL    HW2 4400   3.742   3.632   4.133 -0.3348 -0.1938  0.3200
 1157SOL    HW3 4401   3.647   3.582   4.027  0.8826 -0.5926 -0.6072
 1157SOL    MW4 4402   3.674   3.584   4.110  0.3205  0.6658 -0.0906
 1158SOL     OW 4403   2.047   0.777   2.495  0.0944 -0.2505  0.2381
 1158SOL    HW2 4404   2.025   0.694   2.453  0.6548  0.3412 -1.2732
 1158SOL    HW3 4405   2.089   0.829   2.427 -1.3501  1.7636  0.7758
 1158SOL    MW4 4406   2.050   0.773   2.480  0.2986  0.1505 -0.3457
 1159SOL     OW 4407   1.140   3.003   2.688 -0.2502  0.3551 -0.1011
 1159SOL    HW2 4408   1.198   3.079   2.680  0.6451 -0.1960  0.8083
 1159SOL    HW3 4409   1.077   3.029   2.755 -0.3525  0.5406 -0.2680
 1159SOL    MW4 4410   1.140   3.017   2.696  0.4037  0.2926  0.0200
 1160SOL     OW 4411   0.228   1.130   2.589  0.2420  0.4064 -0.1492
 1160SOL    HW2 4412   0.204   1.049   2.545  3.5457 -2.2412  2.3681
 1160SOL    HW3 4413   0.188   1.124   2.676  1.5486  0.7912  0.5167
 1160SOL    MW4 4414   0.220   1.119   2.595 -0.3345  0.3329  0.4365
 1161SOL     OW 4415   6.381   2.989   0.648 -0.5480 -0.2292 -0.0605
 1161SOL    HW2 4416   6.405   2.924   0.583  0.0685 -1.2302  1.1198
 1161SOL    HW3 4417   6.438   3.064   0.630 -2.1563  0.5821 -2.2484
 1161SOL    MW4 4418   6.391   2.990   0.637 -0.0919 -0.2807  0.5656
 1162SOL     OW 4419   4.797   4.472   3.464 -0.3804  0.6712  0.6233
 1162SOL    HW2 4420   4.832   4.424   3.540  1.3372  0.9545  0.0468
 1162SOL    HW3 4421   4.827   4.562   3.476  0.3724  0.6117 -0.6456
 1162SOL    MW4 4422   4.806   4.477   3.476 -1.0739  0.6862 -0.8257
 1163SOL     OW 4423   4.672   1.417   1.509 -0.4629  0.0348 -0.3002
 1163SOL    HW2 4424   4.695   1.415   1.416 -1.2456 -0.2241 -0.4970
 1163SOL    HW3 4425   4.641   1.329   1.528  1.3201 -0.4379  0.6595
 1163SOL    MW4 4426   4.671   1.405   1.499 -0.1637  0.4654 -0.3773
 1164SOL     OW 4427   4.757   3.459   1.570  0.2070  0.1187  0.5296
 1164SOL    HW2 4428   4.753   3.551   1.595 -2.4588 -0.0094  0.8217
 1164SOL    HW3 4429   4.845   3.431   1.596  1.3004  2.7069 -0.1396
 1164SOL    MW4 4430   4.768   3.467   1.577 -0.2156  0.1535 -1.1891
 1165SOL     OW 4431   3.800   0.106   2.656  0.7839 -0.2293 -0.1426
 1165SOL    HW2 4432   3.828   0.025   2.614 -2.1429 -0.6591 -1.6031
 1165SOL    HW3 4433   3.736   0.078   2.722  0.2732  0.8037 -0.1743
 1165SOL    MW4 4434   3.795   0.092   2.659  0.5000  0.0191 -0.2011
 1166SOL     OW 4435   3.278   4.377   3.502  0.4159  0.4341 -0.0525
 1166SOL    HW2 4436   3.301   4.399   3.592  0.3216 -2.5448  0.7904
 1166SOL    HW3 4437   3.343   4.423   3.449  2.1017  0.2000  1.7034
 1166SOL    MW4 4438   3.290   4.386   3.507  0.2347 -0.4926 -0.2171
 1167SOL     OW 4439   3.103   1.894   4.962 -0.5985  0.1219 -0.2682
 1167SOL    HW2 4440   3.192   1.879   4.995 -1.5263 -1.4409  1.7544
 1167SOL    HW3 4441   3.094   1.989   4.960  0.8686  0.3048  0.1976
 1167SOL    MW4 4442   3.114   1.904   4.966  0.0050 -0.0305  0.0054
 1168SOL     OW 4443   3.840   4.364   2.201 -0.2159 -0.1082 -0.8181
 1168SOL    HW2 4444   3.797   4.322   2.126  0.7209  0.4802 -1.7196
 1168SOL    HW3 4445   3.866   4.450   2.168 -0.4411  0.4580  0.4264
 1168SOL    MW4 4446   3.838   4.370   2.187 -0.3367 -0.1114  0.3566
 1169SOL     OW 4447   2.342   4.916   3.411 -0.0731  0.3386  0.2509
 1169SOL    HW2 4448   2.374   4.853   3.347  2.3229  0.6905  1.0145
 1169SOL    HW3 4449   2.265   4.873   3.449 -0.8913 -0.3478 -2.0054
 1169SOL    MW4 4450   2.336   4.902   3.408 -0.3575  0.4611 -0.1332
 1170SOL     OW 4451   5.372   5.160   0.307 -0.3549 -0.0496 -0.2944
 1170SOL    HW2 4452   5.359   5.148   0.401 -1.1328  1.0416 -0.2431
 1170SOL    HW3 4453   5.382   5.071   0.273 -1.6768 -0.5732  0.5976
 1170SOL    MW4 4454   5.372   5.147   0.315  0.0480 -0.5485 -0.5272
 1171SOL     OW 4455   5.959   1.521   2.702 -0.3918  0.3429  0.2406
 1171SOL    HW2 4456   5.926   1.610   2.700  1.6472  1.1322  0.1201
 1171SOL    HW3 4457   6.021   1.516   2.629 -0.5371 -1.2128  0.1817
 1171SOL    MW4 4458   5.962   1.532   2.692 -0.2763  0.0451 -0.1858
 1172SOL     OW 4459   4.213   3.764   3.663 -0.1517  0.0946  0.1959
 1172SOL    HW2 4460   4.163   3.683   3.671 -0.8234  0.5253  0.3872
 1172SOL    HW3 4461   4.195   3.795   3.574 -0.9455  0.7168  0.5673
 1172SOL    MW4 4462   4.204   3.757   3.652 -0.3586 -0.5531 -0.7181
 1173SOL     OW 4463   3.112   5.412   5.082 -0.0610 -0.9906 -0.1163
 1173SOL    HW2 4464   3.031   5.399   5.132 -0.7222  0.3944 -0.7541
 1173SOL    HW3 4465   3.174   5.447   5.146 -0.1782 -1.4130  0.2292
 1173SOL    MW4 4466   3.109   5.415   5.097  0.2240  0.1393  0.0475
 1174SOL     OW 4467   3.911   3.940   5.965 -0.4017  0.0676  0.5446
 1174SOL    HW2 4468   3.876   3.852   5.954 -1.2978  0.5992 -1.4581
 1174SOL    HW3 4469   3.938   3.945   6.056 -0.2412 -2.2947  0.6753
 1174SOL    MW4 4470   3.910   3.929   5.975 -0.1232 -0.1945  0.1258
 1175SOL     OW 4471   1.951   5.886   5.898  0.4515  0.4431 -0.3650
 1175SOL    HW2 4472   1.875   5.861   5.951  0.1629  0.8223 -0.5912
 1175SOL    HW3 4473   2.024   5.889   5.959  0.1857  0.5523 -0.0528
 1175SOL    MW4 4474   1.950   5.883   5.913  0.8787  1.0013 -0.0967
 1176SOL     OW 4475   2.875   3.218   4.509 -0.6476 -0.4233  0.2975
 1176SOL    HW2 4476   2.877   3.166   4.589 -0.0906 -0.6151  0.1657
 1176SOL    HW3 4477   2.928   3.168   4.447 -2.4342 -1.1344 -0.7345
 1176SOL    MW4 4478   2.882   3.204   4.511  0.5149  0.6320  0.7609
 1177SOL     OW 4479   2.100   1.238   4.816  0.1778  0.0727  0.3870
 1177SOL    HW2 4480   2.161   1.290   4.764  0.6130  0.5661  1.3698
 1177SOL    HW3 4481   2.018   1.287   4.814  0.0265 -0.1868 -0.2657
 1177SOL    MW4 4482   2.097   1.251   4.809  0.5877  0.0863  0.3046
 1178SOL     OW 4483   0.565   5.300   0.807  0.6896 -0.4543 -0.6035
 1178SOL    HW2 4484   0.472   5.314   0.788  0.3288  2.0122  2.2169
 1178SOL    HW3 4485   0.611   5.358   0.747  0.5959 -2.5296 -2.8157
 1178SOL    MW4 4486   0.558   5.309   0.797 -0.3785  0.4146  0.1212
 1179SOL     OW 4487   4.835   5.893   5.847  0.0349 -0.4180 -0.0110
 1179SOL    HW2 4488   4.745   5.888   5.814 -0.3273 -0.7265  0.9777
 1179SOL    HW3 4489   4.870   5.974   5.809 -1.3910  0.8819  1.2915
 1179SOL    MW4 4490   4.828   5.903   5.838 -0.6067 -0.2227  0.4665
 1180SOL     OW 4491   3.369   0.800   5.364  0.6672 -0.4030 -0.1813
 1180SOL    HW2 4492   3.376   0.789   5.459 -0.0561  0.7737  0.0290
 1180SOL    HW3 4493   3.288   0.754   5.341  1.1018 -1.1115 -0.3095
 1180SOL    MW4 4494   3.359   0.793   5.374 -0.5502  0.1049 -0.0031
 1181SOL     OW 4495   0.606   0.940   4.408 -0.5172 -0.6051 -0.3192
 1181SOL    HW2 4496   0.692   0.979   4.394 -0.5027 -0.1071  0.9789
 1181SOL    HW3 4497   0.574   0.981   4.488 -1.3934 -1.7771 -0.0349
 1181SOL    MW4 4498   0.613   0.951   4.416  0.0722 -0.6958 -0.0045
 1182SOL     OW 4499   3.196   4.281   5.583 -0.3586 -0.0632 -0.3188
 1182SOL    HW2 4500   3.179   4.202   5.532  0.5295  0.1292 -0.9474
 1182SOL    HW3 4501   3.277   4.317   5.545  0.3820  0.0499  1.2903
 1182SOL    MW4 4502   3.205   4.275   5.571 -0.0937  0.5843  0.0780
 1183SOL     OW 4503   3.234   1.467   5.262 -0.4974  0.0702 -0.3075
 1183SOL    HW2 4504   3.191   1.552   5.252 -0.8305  0.0259  0.7118
 1183SOL    HW3 4505   3.196   1.413   5.193 -1.7850  0.1469  0.3230
 1183SOL    MW4 4506   3.223   1.471   5.251 -0.0174 -0.6008  0.4498
 1184SOL     OW 4507   3.213   5.883   4.619 -0.2841 -0.3102  0.3405
 1184SOL    HW2 4508   3.176   5.941   4.552  0.3657 -0.0100  0.2385
 1184SOL    HW3 4509   3.296   5.854   4.582  0.3160  0.2537  1.2252
 1184SOL    MW4 4510   3.219   5.887   4.605  0.4273 -0.0800  0.0619
 1185SOL     OW 4511   5.058   2.360   2.179 -0.1530  0.1130 -0.2220
 1185SOL    HW2 4512   5.061   2.295   2.108  1.0630 -0.9013  0.7045
 1185SOL    HW3 4513   5.008   2.433   2.143 -0.4958 -0.8285 -1.7385
 1185SOL    MW4 4514   5.052   2.361   2.165  0.1178  0.2533 -0.0493
 1186SOL     OW 4515   5.590   3.724   0.633  0.4437  0.5993  0.4404
 1186SOL    HW2 4516   5.620   3.734   0.723  2.4596  3.1947 -0.4028
 1186SOL    HW3 4517   5.510   3.776   0.628  1.3187  2.0003  0.3630
 1186SOL    MW4 4518   5.583   3.732   0.644  0.0629  0.1571 -0.2368
 1187SOL     OW 4519   6.319   1.728   4.762 -0.3178 -0.0499 -0.2169
 1187SOL    HW2 4520   6.350   1.813   4.793  0.1888 -0.8482  1.5608
 1187SOL    HW3 4521   6.258   1.750   4.691  0.7987  1.7250 -0.7014
 1187SOL    MW4 4522   6.315   1.742   4.756  0.0880  0.3952  0.1716
 1188SOL     OW 4523   5.657   0.540   5.607  0.0269 -0.2835  0.3129
 1188SOL    HW2 4524   5.562   0.536   5.609 -0.0167  0.5175 -0.0095
 1188SOL    HW3 4525   5.678   0.630   5.582  0.8573 -0.6082 -0.2255
 1188SOL    MW4 4526   5.647   0.551   5.604  1.2581  0.4879  0.3576
 1189SOL     OW 4527   2.265   0.157   5.576  0.3746  0.1205  0.3621
 1189SOL    HW2 4528   2.260   0.252   5.566 -0.5201  0.1661  1.0365
 1189SOL    HW3 4529   2.347   0.132   5.535 -0.2796  0.9416 -1.5472
 1189SOL    MW4 4530   2.275   0.166   5.570  0.1025 -0.1151  0.1852
 1190SOL     OW 4531   5.052   3.451   5.516 -0.3022  0.3056  0.1305
 1190SOL    HW2 4532   5.026   3.542   5.533  1.4311  0.7180  0.8452
 1190SOL    HW3 4533   5.119   3.459   5.448 -0.8624 -0.5546 -0.5375
 1190SOL    MW4 4534   5.058   3.464   5.509 -0.1672 -0.0016  0.1377
 1191SOL     OW 4535   0.815   3.950   5.636 -0.5394  1.0641 -0.4693
 1191SOL    HW2 4536   0.738   3.903   5.605 -1.6048  1.2561  1.6913
 1191SOL    HW3 4537   0.886   3.886   5.633 -1.7021 -0.4076  1.2817
 1191SOL    MW4 4538   0.814   3.935   5.632  0.1838  0.0857  0.5696
 1192SOL     OW 4539   0.679   1.373   0.994  0.2869 -0.5285  0.4175
 1192SOL    HW2 4540   0.647   1.457   0.960  1.3592 -0.5016 -0.5672
 1192SOL    HW3 4541   0.714   1.394   1.080  1.0376  0.1625 -0.0413
 1192SOL    MW4 4542   0.679   1.387   1.001  0.1448 -0.0127 -0.5060
 1193SOL     OW 4543   3.354   3.092   5.173 -0.1295  0.4047 -0.3905
 1193SOL    HW2 4544   3.288   3.161   5.165 -0.5122  0.0459 -0.3669
 1193SOL    HW3 4545   3.366   3.059   5.084  0.1583  0.5997 -0.4234
 1193SOL    MW4 4546   3.347   3.096   5.161  0.0883 -0.1458  0.7221
 1194SOL     OW 4547   4.317   5.749   0.629 -0.0199 -0.1020  0.4250
 1194SOL    HW2 4548   4.377   5.681   0.598 -2.2733 -1.5896 -0.9242
 1194SOL    HW3 4549   4.369   5.829   0.624  1.1125 -0.8194 -3.5068
 1194SOL    MW4 4550   4.332   5.750   0.624 -0.1499  0.0291  0.4229
 1195SOL     OW 4551   5.793   2.286   5.788  0.0588  0.0515  0.3253
 1195SOL    HW2 4552   5.754   2.233   5.857 -1.0640  0.1280 -0.2219
 1195SOL    HW3 4553   5.866   2.331   5.830  1.4603 -2.3659  0.6809
 1195SOL    MW4 4554   5.798   2.285   5.802  0.2478  0.5155  0.8709
 1196SOL     OW 4555   1.792   4.980   3.774 -0.5886 -0.0918 -0.1050
 1196SOL    HW2 4556   1.838   4.899   3.754  0.0838 -0.0998  1.3342
 1196SOL    HW3 4557   1.710   4.951   3.814 -0.7420 -0.0553 -0.3873
 1196SOL    MW4 4558   1.787   4.965   3.777 -0.1857 -0.8333 -0.3729
 1197SOL     OW 4559   3.534   4.456   4.895 -1.0838 -0.7143  0.3500
 1197SOL    HW2 4560   3.543   4.364   4.919  1.2637 -1.0647 -1.5191
 1197SOL    HW3 4561   3.595   4.502   4.954 -2.1623 -0.3197  1.1980
 1197SOL    MW4 4562   3.543   4.450   4.906 -0.6253  0.2771  0.3136
 1198SOL     OW 4563   3.421   6.262   5.226  0.0181  0.6167 -0.4069
 1198SOL    HW2 4564   3.426   6.187   5.286  1.0281  0.7164 -0.3532
 1198SOL    HW3 4565   3.327   6.276   5.213 -0.2116  0.2187  0.6886
 1198SOL    MW4 4566   3.409   6.254   5.232 -0.4570 -0.0936 -0.4354
 1199SOL     OW 4567   1.719   2.522   2.670  0.5966  0.0508 -0.5644
 1199SOL    HW2 4568   1.763   2.439   2.654  1.8720  1.1118 -3.1624
 1199SOL    HW3 4569   1.729   2.571   2.589 -0.4816  2.5985  0.7090
 1199SOL    MW4 4570   1.726   2.518   2.657 -0.4634  0.2796 -1.0342
 1200SOL     OW 4571   2.648   3.925   3.724  0.4147  0.1086 -0.0113
 1200SOL    HW2 4572   2.676   4.008   3.763  0.2871 -0.9200  2.4762
 1200SOL    HW3 4573   2.723   3.866   3.738  1.3006  0.1923 -3.4859
 1200SOL    MW4 4574   2.662   3.928   3.731  0.0061  0.0102 -0.2452
 1201SOL     OW 4575   4.342   0.861   4.909  0.2770 -0.7918  0.2629
 1201SOL    HW2 4576   4.268   0.922   4.916  2.1279  1.6808 -0.2189
 1201SOL    HW3 4577   4.380   0.880   4.823  2.6023 -0.5251  1.2739
 1201SOL    MW4 4578   4.337   0.872   4.898 -1.0232  0.2753  0.1337
 1202SOL     OW 4579   0.941   5.026   2.533  0.3493  0.1044 -0.0753
 1202SOL    HW2 4580   1.031   5.048   2.512 -0.0360  1.7363 -0.1326
 1202SOL    HW3 4581   0.941   5.010   2.628  0.5221  1.0995  0.0988
 1202SOL    MW4 4582   0.953   5.027   2.543 -0.4191  0.5843 -0.2906
 1203SOL     OW 4583   4.167   0.671   4.805 -0.2735 -0.4573  0.1585
 1203SOL    HW2 4584   4.208   0.586   4.818  0.2570 -0.1262  0.7745
 1203SOL    HW3 4585   4.229   0.733   4.844 -2.0072 -0.0477  2.4608
 1203SOL    MW4 4586   4.181   0.668   4.812 -0.2190 -0.5146  0.1020
 1204SOL     OW 4587   2.077   0.596   3.951  0.4241 -0.0044 -0.3015
 1204SOL    HW2 4588   2.161   0.596   3.997 -0.2174  1.1790  0.9408
 1204SOL    HW3 4589   2.077   0.678   3.902 -0.5378  0.6773  0.7861
 1204SOL    MW4 4590   2.088   0.607   3.951  0.6439 -0.4266 -0.7701
 1205SOL     OW 4591   0.163   3.156   2.139 -0.5521 -0.0821  0.1644
 1205SOL    HW2 4592   0.190   3.082   2.192  0.2108 -0.0772 -0.2075
 1205SOL    HW3 4593   0.162   3.123   2.049 -0.7233  0.2137  0.0534
 1205SOL    MW4 4594   0.166   3.142   2.134  0.2407  0.1551  0.5246
 1206SOL     OW 4595   1.413   1.569   4.490  0.6786 -0.3507 -0.2632
 1206SOL    HW2 4596   1.428   1.538   4.401  0.4851 -0.4874 -0.2500
 1206SOL    HW3 4597   1.324   1.604   4.489  0.8924  0.1937 -0.2733
 1206SOL    MW4 4598   1.403   1.569   4.478 -0.4733 -0.0322 -0.2040
 1207SOL     OW 4599   4.090   1.433   4.477 -0.3245 -0.3915  0.1665
 1207SOL    HW2 4600   4.133   1.489   4.412 -0.0652 -0.0453  0.6273
 1207SOL    HW3 4601   4.151   1.361   4.491 -0.9770 -1.1994 -0.9648
 1207SOL    MW4 4602   4.104   1.431   4.471  0.0880  0.3450 -0.9553
 1208SOL     OW 4603   0.057   2.839   3.212 -0.2848 -0.1783 -0.4786
 1208SOL    HW2 4604  -0.016   2.781   3.233  0.6438 -1.4242 -0.5234
 1208SOL    HW3 4605   0.093   2.864   3.298 -1.5454  1.5426 -0.4038
 1208SOL    MW4 4606   0.052   2.834   3.226 -0.2321 -0.2672 -0.1647
 1209SOL     OW 4607   4.763   1.504   4.466 -0.1488  0.0342 -0.7036
 1209SOL    HW2 4608   4.804   1.418   4.475 -1.5525 -0.7587 -1.6492
 1209SOL    HW3 4609   4.718   1.518   4.549  0.1859 -0.0789 -0.5003
 1209SOL    MW4 4610   4.763   1.495   4.478 -0.1792  0.1387 -0.0419
 1210SOL     OW 4611   5.748   5.275   3.438 -0.2395 -0.8667  0.2255
 1210SOL    HW2 4612   5.746   5.370   3.439  1.6108 -0.8002  0.9366
 1210SOL    HW3 4613   5.668   5.250   3.391 -1.5835  0.9761  1.3575
 1210SOL    MW4 4614   5.737   5.284   3.432  0.0878  0.0054 -0.5505
 1211SOL     OW 4615   4.750   2.206   1.397  0.5631 -0.3668  0.3343
 1211SOL    HW2 4616   4.794   2.291   1.391 -0.8986  0.4318  0.5011
 1211SOL    HW3 4617   4.756   2.169   1.309  0.7142  0.1552  0.1224
 1211SOL    MW4 4618   4.757   2.212   1.385 -0.1170 -0.1606 -0.5000
 1212SOL     OW 4619   1.447   4.564   0.537  0.0026 -0.0735 -0.2897
 1212SOL    HW2 4620   1.444   4.504   0.612 -2.5802  1.3836  0.9042
 1212SOL    HW3 4621   1.412   4.646   0.571  1.0106  1.3637 -2.5303
 1212SOL    MW4 4622   1.442   4.567   0.551 -0.4468 -0.2765 -0.2847
 1213SOL     OW 4623   1.194   6.191   4.093 -0.4736  0.0396 -0.1350
 1213SOL    HW2 4624   1.277   6.237   4.107 -0.9449  1.1138 -0.8382
 1213SOL    HW3 4625   1.161   6.175   4.182  1.4011 -2.1900  0.2765
 1213SOL    MW4 4626   1.201   6.195   4.107 -0.3127 -0.3076 -0.7730
 1214SOL     OW 4627   4.841   1.937   2.825 -0.2148  0.4279 -0.1660
 1214SOL    HW2 4628   4.787   1.858   2.834 -0.7833  0.3211 -3.3069
 1214SOL    HW3 4629   4.931   1.906   2.830 -0.4383 -0.3271 -0.7783
 1214SOL    MW4 4630   4.846   1.923   2.827 -0.2408  0.2976  0.2711
 1215SOL     OW 4631   1.598   5.683   1.688 -0.3811  0.3313 -0.1601
 1215SOL    HW2 4632   1.586   5.777   1.679 -0.2653  0.2003 -1.9978
 1215SOL    HW3 4633   1.598   5.650   1.598  2.0921 -1.1048  0.2838
 1215SOL    MW4 4634   1.596   5.691   1.675 -0.1952  0.2437 -0.2443
 1216SOL     OW 4635   1.896   5.139   5.758  0.3638  0.3917 -0.3040
 1216SOL    HW2 4636   1.836   5.087   5.705  0.2062  0.8980 -0.6358
 1216SOL    HW3 4637   1.845   5.217   5.781  0.0449 -0.3117  1.5408
 1216SOL    MW4 4638   1.881   5.143   5.754 -0.2171  0.1050  0.1805
 1217SOL     OW 4639   0.470   4.242   5.680 -0.3358  0.0572 -0.2522
 1217SOL    HW2 4640   0.384   4.264   5.717 -0.1461  0.9296 -0.3053
 1217SOL    HW3 4641   0.531   4.300   5.726  0.3646 -1.2487  0.4904
 1217SOL    MW4 4642   0.467   4.253   5.691 -0.2323 -0.1150  0.0102
 1218SOL     OW 4643   5.563   3.083   2.440  0.1872 -0.0280  0.1774
 1218SOL    HW2 4644   5.582   3.007   2.385  0.6659 -1.6318  2.4280
 1218SOL    HW3 4645   5.473   3.068   2.470  0.4132  0.1156  0.9240
 1218SOL    MW4 4646   5.553   3.071   2.436 -0.1191  0.1009 -0.4443
 1219SOL     OW 4647   5.136   2.589   3.518 -0.0209 -0.4926  0.2794
 1219SOL    HW2 4648   5.115   2.501   3.487  0.8980 -0.2778 -1.0461
 1219SOL    HW3 4649   5.051   2.631   3.533 -0.4846 -1.0399 -0.7542
 1219SOL    MW4 4650   5.122   2.583   3.516  0.1061  0.2692  0.0357
 1220SOL     OW 4651   2.859   4.153   4.565  0.0642  0.2898  0.4429
 1220SOL    HW2 4652   2.888   4.062   4.566  0.6749  0.4761  1.3745
 1220SOL    HW3 4653   2.937   4.203   4.542 -0.4151  0.5448 -0.6759
 1220SOL    MW4 4654   2.873   4.147   4.562  0.2468 -0.3150  0.1252
 1221SOL     OW 4655   4.683   4.537   4.027 -0.1890  0.1252  0.0504
 1221SOL    HW2 4656   4.689   4.504   4.116 -0.1785 -1.2517 -0.4433
 1221SOL    HW3 4657   4.617   4.606   4.031 -0.4553 -0.1800  1.0443
 1221SOL    MW4 4658   4.675   4.542   4.039  0.1261  0.2088 -0.2066
 1222SOL     OW 4659   1.513   2.329   2.831 -0.0637 -0.0048 -0.5300
 1222SOL    HW2 4660   1.434   2.286   2.800  1.2080 -1.0234 -2.5364
 1222SOL    HW3 4661   1.526   2.402   2.771 -1.2065  2.2767  1.7636
 1222SOL    MW4 4662   1.505   2.333   2.819 -0.2229 -0.4154 -0.7283
 1223SOL     OW 4663   5.654   4.152   2.158  0.1436  0.2207  0.2722
 1223SOL    HW2 4664   5.560   4.159   2.138  0.4673  2.1019 -0.8626
 1223SOL    HW3 4665   5.687   4.087   2.096 -0.4150 -0.5407  0.7565
 1223SOL    MW4 4666   5.646   4.145   2.147  0.6009 -0.3151 -0.0794
 1224SOL     OW 4667   2.560   1.231   4.747  0.2480 -0.0101 -0.0231
 1224SOL    HW2 4668   2.609   1.239   4.665 -1.5185 -0.7050 -1.2192
 1224SOL    HW3 4669   2.570   1.139   4.772  0.0692 -0.0129  0.0442
 1224SOL    MW4 4670   2.567   1.220   4.739  0.2808  0.5950  0.0010
 1225SOL     OW 4671   5.240   2.002   5.042  0.0268 -0.0202  0.4015
 1225SOL    HW2 4672   5.240   1.941   4.967  1.7658  0.1094  0.2359
 1225SOL    HW3 4673   5.209   1.950   5.115 -0.7682 -0.4334 -0.2155
 1225SOL    MW4 4674   5.236   1.987   5.042 -0.7806 -0.0336  0.5228
 1226SOL     OW 4675   5.077   1.583   3.482  1.0972 -0.3636 -0.1467
 1226SOL    HW2 4676   5.108   1.673   3.473  2.0610 -0.5381  1.1660
 1226SOL    HW3 4677   5.042   1.578   3.570  0.7701 -1.2055 -0.3143
 1226SOL    MW4 4678   5.077   1.594   3.492  0.4594 -0.2838  0.0286
 1227SOL     OW 4679   4.090   0.755   0.953 -0.0611  0.3196  0.5053
 1227SOL    HW2 4680   4.007   0.782   0.990 -0.0006  0.2037  0.7267
 1227SOL    HW3 4681   4.111   0.822   0.888 -0.6203  0.0304  0.0190
 1227SOL    MW4 4682   4.082   0.767   0.949 -0.6266  0.1435 -0.6959
 1228SOL     OW 4683   2.756   5.157   5.807  0.1446  0.1228  0.2166
 1228SOL    HW2 4684   2.846   5.162   5.774  0.8596 -2.3215  1.5567
 1228SOL    HW3 4685   2.741   5.243   5.846  1.6611  0.8008 -0.5784
 1228SOL    MW4 4686   2.766   5.169   5.808  0.5668  0.0826 -0.4763
 1229SOL     OW 4687   4.524   5.080   2.463  0.5403  0.0288 -0.5976
 1229SOL    HW2 4688   4.550   5.135   2.537 -3.2781  2.2389 -0.6150
 1229SOL    HW3 4689   4.482   5.004   2.503  0.0456  0.3554 -0.4913
 1229SOL    MW4 4690   4.522   5.077   2.478 -0.0923 -0.4730 -0.1693
 1230SOL     OW 4691   1.902   4.896   2.172 -0.0334  0.4341 -0.6178
 1230SOL    HW2 4692   1.815   4.885   2.136  0.2812 -0.1299 -1.2263
 1230SOL    HW3 4693   1.888   4.940   2.256 -0.8272  1.2147 -1.1335
 1230SOL    MW4 4694   1.889   4.901   2.179  1.0167 -1.0492 -0.1537
 1231SOL     OW 4695   3.000   3.183   4.100  0.3772 -0.6335 -0.3584
 1231SOL    HW2 4696   3.073   3.164   4.042  1.1871  0.6270  0.2133
 1231SOL    HW3 4697   2.925   3.140   4.059  0.3970  1.9974 -3.6230
 1231SOL    MW4 4698   3.000   3.175   4.087  0.0132  0.3518 -0.5463
 1232SOL     OW 4699   2.911   4.485   5.838  0.5428  0.1613  0.5378
 1232SOL    HW2 4700   2.933   4.477   5.745  0.1859  0.0627  0.4627
 1232SOL    HW3 4701   2.825   4.444   5.846 -0.0656  1.4053  0.6623
 1232SOL    MW4 4702   2.903   4.478   5.827  0.4031 -0.6035 -0.1588
 1233SOL     OW 4703   2.347   2.933   0.553  0.3655 -0.6256  0.4317
 1233SOL    HW2 4704   2.429   2.970   0.587  0.6655 -0.6196 -0.2833
 1233SOL    HW3 4705   2.372   2.848   0.517  0.4750  0.2412 -1.6686
 1233SOL    MW4 4706   2.361   2.927   0.553  0.2894 -0.0188  0.0275
 1234SOL     OW 4707   5.509   6.160   3.629  0.2721 -0.0617 -0.0590
 1234SOL    HW2 4708   5.541   6.096   3.692  0.0725  1.4429  1.6648
 1234SOL    HW3 4709   5.430   6.196   3.670  0.0155  0.8220 -1.2718
 1234SOL    MW4 4710   5.503   6.156   3.643 -0.4401 -0.3086  0.4336
 1235SOL     OW 4711   4.398   5.165   3.746  0.0544 -0.2647 -0.0928
 1235SOL    HW2 4712   4.451   5.094   3.710  1.9779  1.5858 -1.1359
 1235SOL    HW3 4713   4.396   5.149   3.840  1.5997 -0.9688 -0.1572
 1235SOL    MW4 4714   4.405   5.154   3.754  0.4806  0.3808 -0.1363
 1236SOL     OW 4715   5.114   3.616   1.017  0.2458 -0.2389 -0.1670
 1236SOL    HW2 4716   5.033   3.596   1.064  0.4236  1.2892  0.8938
 1236SOL    HW3 4717   5.093   3.694   0.965  1.0690  0.3379  0.3209
 1236SOL    MW4 4718   5.101   3.624   1.017  0.2775 -0.4018  0.3623
 1237SOL     OW 4719   5.099   5.398   4.236 -0.1344  0.4012 -0.4325
 1237SOL    HW2 4720   5.055   5.392   4.321  1.5178  0.7611  0.4745
 1237SOL    HW3 4721   5.078   5.487   4.205 -1.2066  0.0752 -0.7001
 1237SOL    MW4 4722   5.090   5.409   4.243  0.0181  0.2018 -0.0384
 1238SOL     OW 4723   1.895   5.209   0.307 -0.0779  0.1128 -0.0547
 1238SOL    HW2 4724   1.942   5.228   0.388  0.1064 -0.3779 -0.0478
 1238SOL    HW3 4725   1.922   5.280   0.248 -1.2193  1.2287  0.7051
 1238SOL    MW4 4726   1.905   5.221   0.310  0.8155  0.7000  0.2068
 1239SOL     OW 4727   3.588   4.783   1.604  0.2938 -0.0593  0.4184
 1239SOL    HW2 4728   3.678   4.814   1.599  0.0789  0.7058  1.1326
 1239SOL    HW3 4729   3.535   4.857   1.575 -0.0602 -0.9311 -1.2882
 1239SOL    MW4 4730   3.593   4.797   1.600 -0.4643  0.2706  0.2136
 1240SOL     OW 4731   0.649   1.816   5.849  0.1777 -0.2110  0.2139
 1240SOL    HW2 4732   0.702   1.792   5.773 -0.2115 -2.1546  0.5132
 1240SOL    HW3 4733   0.652   1.912   5.850  0.5680 -0.1349 -1.9807
 1240SOL    MW4 4734   0.656   1.826   5.839  0.3051  0.1117  0.1675
 1241SOL     OW 4735   1.624   3.076   0.971 -0.2710 -0.8493  0.5087
 1241SOL    HW2 4736   1.613   2.993   1.019 -2.1464 -0.7302  0.3509
 1241SOL    HW3 4737   1.605   3.053   0.880  1.5129 -0.6951  0.0632
 1241SOL    MW4 4738   1.620   3.062   0.966 -0.5678  0.0578 -0.0908
 1242SOL     OW 4739   1.288   1.018   4.605  0.0094 -0.8161 -0.4551
 1242SOL    HW2 4740   1.350   0.998   4.676  1.2375  0.8637 -1.0102
 1242SOL    HW3 4741   1.275   0.934   4.561  0.8504 -1.4635  0.4832
 1242SOL    MW4 4742   1.294   1.004   4.609 -0.1577 -0.2714 -0.1911
 1243SOL     OW 4743   5.922   0.138   3.954  0.4192  0.0148 -0.0477
 1243SOL    HW2 4744   6.014   0.122   3.934  0.6074  0.8890  0.0775
 1243SOL    HW3 4745   5.880   0.053   3.945  1.3209 -0.4788  0.3553
 1243SOL    MW4 4746   5.929   0.125   3.950 -0.1589 -0.2182 -0.1356
 1244SOL     OW 4747   0.288   2.178   1.060  0.0019  0.0851 -0.3773
 1244SOL    HW2 4748   0.257   2.131   1.138 -0.9552  0.5751 -0.4499
 1244SOL    HW3 4749   0.304   2.110   0.995  1.8494 -0.4415  0.5691
 1244SOL    MW4 4750   0.286   2.163   1.062  0.7297  0.7827  0.3316
 1245SOL     OW 4751   3.482   1.398   3.888 -0.1659 -0.3196  0.4432
 1245SOL    HW2 4752   3.508   1.421   3.799  1.3203 -1.6280  0.4892
 1245SOL    HW3 4753   3.391   1.429   3.896 -0.3337 -0.2015 -1.5150
 1245SOL    MW4 4754   3.473   1.405   3.877 -0.4325 -0.0781 -0.0876
 1246SOL     OW 4755   2.011   5.544   5.399  0.1027 -0.0389  0.0619
 1246SOL    HW2 4756   2.006   5.470   5.460 -1.6053  0.9866  1.2662
 1246SOL    HW3 4757   1.951   5.521   5.328  2.1571 -1.2725 -1.4007
 1246SOL    MW4 4758   2.003   5.532   5.398 -0.5140  0.2232 -0.2874
 1247SOL     OW 4759   5.944   2.447   4.430 -0.7159  0.0843 -0.1698
 1247SOL    HW2 4760   5.937   2.509   4.503 -1.4084 -1.5154  1.1599
 1247SOL    HW3 4761   5.854   2.431   4.402 -0.4521  0.9307 -1.6590
 1247SOL    MW4 4762   5.931   2.453   4.436 -0.0473 -0.1320  0.4726
 1248SOL     OW 4763   4.906   2.348   5.861 -0.4479  0.5215 -0.0947
 1248SOL    HW2 4764   4.846   2.406   5.906  2.2457  2.8535  0.7381
 1248SOL    HW3 4765   4.854   2.310   5.790 -3.4066  0.6943  1.8261
 1248SOL    MW4 4766   4.891   2.350   5.857 -0.0546  0.3713  0.3588
 1249SOL     OW 4767   2.520   5.436   4.803 -0.1894  0.2837  0.6355
 1249SOL    HW2 4768   2.578   5.400   4.735  0.6185 -0.5651  1.7337
 1249SOL    HW3 4769   2.481   5.513   4.763 -1.8284 -1.6260 -1.7679
 1249SOL    MW4 4770   2.523   5.441   4.789  0.5749 -0.3300  0.0446
 1250SOL     OW 4771   2.414   2.176   0.375  0.1176  0.1025 -0.5953
 1250SOL    HW2 4772   2.450   2.149   0.290 -0.2323 -1.6397 -0.2395
 1250SOL    HW3 4773   2.490   2.184   0.432  0.1442 -2.0190 -0.2520
 1250SOL    MW4 4774   2.429   2.173   0.371  0.4826  0.3084 -0.1811
 1251SOL     OW 4775   3.401   4.113   0.678  0.1287  0.1879  0.3808
 1251SOL    HW2 4776   3.465   4.143   0.743  0.2191 -0.3994  0.5700
 1251SOL    HW3 4777   3.447   4.042   0.631 -1.3246 -2.2546  2.4065
 1251SOL    MW4 4778   3.416   4.108   0.680 -0.0871  0.6785  0.4021
 1252SOL     OW 4779   0.763   4.439   5.668  0.0343  0.2272  0.4913
 1252SOL    HW2 4780   0.789   4.530   5.654  0.3121  0.0056 -0.4425
 1252SOL    HW3 4781   0.748   4.404   5.581 -2.9262  0.1814  0.8954
 1252SOL    MW4 4782   0.764   4.447   5.655  0.2535  0.1589  0.2294
 1253SOL     OW 4783   1.011   2.971   6.373  0.3195  0.2601  0.3535
 1253SOL    HW2 4784   1.099   3.005   6.354  0.0959  1.3826  1.2597
 1253SOL    HW3 4785   1.009   2.960   6.468 -0.2646 -0.5111  0.2627
 1253SOL    MW4 4786   1.022   2.974   6.383  0.4441  0.4958  0.5619
 1254SOL     OW 4787   5.156   3.988   5.845  0.2756 -0.0262 -0.1061
 1254SOL    HW2 4788   5.176   4.018   5.757  1.8820  0.2241  0.3040
 1254SOL    HW3 4789   5.240   3.994   5.892  0.5505 -4.1398  0.3128
 1254SOL    MW4 4790   5.170   3.993   5.840  0.1580 -0.2002 -0.1768
 1255SOL     OW 4791   2.177   1.543   2.942 -0.0587  0.0139  0.1306
 1255SOL    HW2 4792   2.159   1.586   3.026  0.5569  0.3066  0.1147
 1255SOL    HW3 4793   2.266   1.509   2.951  0.8279  1.8249 -1.1164
 1255SOL    MW4 4794   2.186   1.544   2.955  0.7459 -0.0633 -0.1142
 1256SOL     OW 4795   6.344   2.586   2.065  0.1563 -0.0789 -0.0517
 1256SOL    HW2 4796   6.285   2.588   2.141  0.4436  1.6210  0.1809
 1256SOL    HW3 4797   6.426   2.622   2.098  0.2471  0.7910 -1.1663
 1256SOL    MW4 4798   6.347   2.591   2.080  0.4762 -0.3173  0.6162
 1257SOL     OW 4799   2.992   2.850   6.083 -0.6406 -0.2032  0.6338
 1257SOL    HW2 4800   2.898   2.856   6.067 -0.3764  1.4480 -0.6383
 1257SOL    HW3 4801   3.012   2.925   6.139  0.0735  0.1782 -0.1068
 1257SOL    MW4 4802   2.983   2.861   6.088 -0.0201 -0.1392  0.1033
 1258SOL     OW 4803   1.670   4.193   1.472  0.1313  0.0540 -0.7925
 1258SOL    HW2 4804   1.733   4.132   1.509 -0.3672 -0.7883 -1.3093
 1258SOL    HW3 4805   1.592   4.140   1.455 -0.5724  0.9835 -0.5624
 1258SOL    MW4 4806   1.668   4.178   1.475  0.8027  0.1427  0.5744
 1259SOL     OW 4807   5.803   2.100   2.446 -0.0080 -0.8332  0.1950
 1259SOL    HW2 4808   5.808   2.027   2.385  1.4150  0.5286 -1.4285
 1259SOL    HW3 4809   5.890   2.106   2.485 -0.6867 -1.2179  1.8661
 1259SOL    MW4 4810   5.815   2.091   2.443  0.1311 -0.1216  0.1399
 1260SOL     OW 4811   5.833   5.525   1.959 -0.4947 -0.1683  0.3953
 1260SOL    HW2 4812   5.741   5.513   1.938 -0.1888 -1.6195 -0.2376
 1260SOL    HW3 4813   5.867   5.436   1.970  1.3139  0.1844 -1.6063
 1260SOL    MW4 4814   5.825   5.512   1.958 -0.2517 -0.4275  0.1201
 1261SOL     OW 4815   4.788   0.714   0.203 -0.5000 -0.2473  0.1261
 1261SOL    HW2 4816   4.808   0.721   0.297  1.3637  1.2996 -0.3077
 1261SOL    HW3 4817   4.725   0.784   0.187  2.1104  2.1901 -0.3688
 1261SOL    MW4 4818   4.783   0.724   0.213  0.1246 -0.4741  0.3019
 1262SOL     OW 4819   2.141   2.057   1.272  0.2688 -0.4501 -0.6168
 1262SOL    HW2 4820   2.118   2.072   1.180 -1.2903 -2.0836 -0.5552
 1262SOL    HW3 4821   2.120   1.964   1.286 -1.3862  0.2202  1.8770
 1262SOL    MW4 4822   2.135   2.047   1.261 -0.5260 -0.5156 -0.1205
 1263SOL     OW 4823   1.933   2.431   1.771  0.2662  0.8168 -0.2199
 1263SOL    HW2 4824   1.935   2.485   1.850 -1.1272  2.5211 -1.2707
 1263SOL    HW3 4825   1.897   2.488   1.703 -1.5276 -1.4941 -1.3765
 1263SOL    MW4 4826   1.929   2.446   1.772 -0.2015 -0.3732  0.0763
 1264SOL     OW 4827   0.472   3.488   1.786 -0.5262  0.0657 -0.2075
 1264SOL    HW2 4828   0.478   3.569   1.735  0.4538 -0.6394 -1.2433
 1264SOL    HW3 4829   0.560   3.475   1.821 -0.9610  0.0413  0.9168
 1264SOL    MW4 4830   0.484   3.497   1.784 -0.2108  0.4348 -0.4857
 1265SOL     OW 4831   5.429   3.839   3.736  0.0333  0.1618 -0.2342
 1265SOL    HW2 4832   5.444   3.903   3.667 -1.0422 -0.2514 -0.8819
 1265SOL    HW3 4833   5.347   3.867   3.777  0.7426  0.4952  0.9989
 1265SOL    MW4 4834   5.420   3.851   3.732  0.1185  0.1837  0.0474
 1266SOL     OW 4835   0.473   2.893   1.411  0.2934 -0.6207  0.1716
 1266SOL    HW2 4836   0.505   2.977   1.443 -1.5645  0.3465 -0.3665
 1266SOL    HW3 4837   0.421   2.915   1.334 -1.7032 -2.0451  1.0260
 1266SOL    MW4 4838   0.471   2.907   1.405  0.1841 -0.1865  0.0235
 1267SOL     OW 4839   6.231   4.253   3.903  0.2264 -0.5574  0.2207
 1267SOL    HW2 4840   6.286   4.304   3.845  0.4971 -0.1098  0.8681
 1267SOL    HW3 4841   6.216   4.171   3.855  0.1831 -0.0813 -0.6105
 1267SOL    MW4 4842   6.236   4.249   3.889 -0.2411  0.3327  0.2648
 1268SOL     OW 4843   4.756   0.794   2.061  0.2639  0.2726 -0.5811
 1268SOL    HW2 4844   4.752   0.719   2.002 -1.1323 -1.7147  1.8381
 1268SOL    HW3 4845   4.668   0.801   2.098  0.6125  2.5387  0.0173
 1268SOL    MW4 4846   4.744   0.785   2.058  0.9141 -0.2731  0.0458
 1269SOL     OW 4847   0.618   1.271   6.409 -0.9246  0.4263 -0.6331
 1269SOL    HW2 4848   0.551   1.243   6.347 -2.3768  1.4497  0.3941
 1269SOL    HW3 4849   0.619   1.366   6.402 -1.5522  0.6171  1.2693
 1269SOL    MW4 4850   0.609   1.280   6.400 -0.4806 -0.4376  0.2087
 1270SOL     OW 4851   6.237   3.684   3.430 -0.2167 -0.1782  0.2147
 1270SOL    HW2 4852   6.283   3.767   3.439  0.7006 -0.8005  1.5815
 1270SOL    HW3 4853   6.289   3.635   3.366 -0.8303  0.3224 -0.6894
 1270SOL    MW4 4854   6.250   3.688   3.423 -0.1533  0.4092 -0.2301
 1271SOL     OW 4855   4.549   5.604   3.664  0.0414 -0.0928 -0.3955
 1271SOL    HW2 4856   4.461   5.600   3.627 -0.6154 -0.2395  1.0860
 1271SOL    HW3 4857   4.563   5.516   3.699  0.5044  0.1171 -0.0469
 1271SOL    MW4 4858   4.539   5.591   3.664 -0.1777  0.4931  0.6722
 1272SOL     OW 4859   5.577   4.559   3.789 -1.0153 -0.0311  0.2118
 1272SOL    HW2 4860   5.510   4.504   3.829 -0.0153 -0.9427  0.7015
 1272SOL    HW3 4861   5.647   4.562   3.855 -0.2713  0.2842 -0.5799
 1272SOL    MW4 4862   5.577   4.552   3.803 -0.2172  0.5637  0.7123
 1273SOL     OW 4863   5.350   6.036   1.329  0.2087 -0.2087 -0.2379
 1273SOL    HW2 4864   5.444   6.047   1.316 -0.0416  1.3825 -0.9274
 1273SOL    HW3 4865   5.332   6.085   1.410  0.3169 -2.6013  1.3578
 1273SOL    MW4 4866   5.360   6.044   1.338 -0.0613  0.5085  0.1565
 1274SOL     OW 4867   4.892   3.759   1.340 -0.1719  0.2612  0.1281
 1274SOL    HW2 4868   4.963   3.822   1.328  0.5078 -0.5878 -0.4117
 1274SOL    HW3 4869   4.812   3.811   1.327  0.3421  1.1785  0.5046
 1274SOL    MW4 4870   4.891   3.774   1.337  0.1399 -0.6077  0.3071
 1275SOL     OW 4871   1.806   5.220   4.714 -0.3969 -0.3365 -0.7145
 1275SOL    HW2 4872   1.885   5.214   4.767 -1.0750  0.9418  0.5102
 1275SOL    HW3 4873   1.761   5.299   4.746 -2.0176 -0.8622 -1.5569
 1275SOL    MW4 4874   1.810   5.230   4.725  0.1261  0.2242  0.5105
 1276SOL     OW 4875   1.749   2.994   6.216  0.3033  0.3165  0.1024
 1276SOL    HW2 4876   1.729   2.901   6.225 -0.9434  0.5731  0.1665
 1276SOL    HW3 4877   1.795   3.002   6.133 -1.2207 -0.1275 -0.8194
 1276SOL    MW4 4878   1.752   2.983   6.206  0.1165  0.3281 -0.7764
 1277SOL     OW 4879   4.477   1.667   2.073  0.0911  0.5447  0.1759
 1277SOL    HW2 4880   4.491   1.591   2.016  2.0073  1.0348 -0.0757
 1277SOL    HW3 4881   4.453   1.630   2.158  1.2893 -0.3731  0.1330
 1277SOL    MW4 4882   4.476   1.652   2.077  0.0599  0.9965  0.4191
 1278SOL     OW 4883   1.501   4.754   5.843  0.2759  0.4140  0.5270
 1278SOL    HW2 4884   1.420   4.742   5.893  0.2638  0.8055  0.6072
 1278SOL    HW3 4885   1.481   4.824   5.781  0.1787 -0.3121 -0.2809
 1278SOL    MW4 4886   1.488   4.761   5.842 -0.1717  0.2449 -0.4053
 1279SOL     OW 4887   1.275   0.854   3.086  0.0345  0.4811 -0.1930
 1279SOL    HW2 4888   1.338   0.872   3.155  0.2323 -0.0769 -0.2296
 1279SOL    HW3 4889   1.190   0.878   3.124  0.0265 -0.7282  0.5739
 1279SOL    MW4 4890   1.272   0.860   3.100 -0.4177 -0.4927  0.3798
 1280SOL     OW 4891   2.715   2.537   5.803 -0.0603 -0.3572  0.0262
 1280SOL    HW2 4892   2.766   2.474   5.854  0.5920 -0.5809 -0.8806
 1280SOL    HW3 4893   2.774   2.564   5.733 -0.4757  0.9542  0.1569
 1280SOL    MW4 4894   2.730   2.533   5.801 -0.2122 -0.1801 -0.1990
 1281SOL     OW 4895   3.460   5.783   4.542  0.0361  0.1814  0.2724
 1281SOL    HW2 4896   3.484   5.775   4.634  1.8978 -0.2774 -0.2055
 1281SOL    HW3 4897   3.522   5.846   4.506 -0.5202  0.1890 -0.7177
 1281SOL    MW4 4898   3.471   5.790   4.549  0.0276  0.1065 -0.2247
 1282SOL     OW 4899   5.861   5.013   2.929  0.4103 -0.1051  0.1720
 1282SOL    HW2 4900   5.769   5.026   2.904  0.7487  0.1039 -1.0422
 1282SOL    HW3 4901   5.864   5.034   3.022 -0.8223 -0.3809  0.2912
 1282SOL    MW4 4902   5.849   5.017   2.938 -0.3041  0.1774 -0.2855
 1283SOL     OW 4903   2.175   5.933   4.929  0.1316  0.0395 -0.1607
 1283SOL    HW2 4904   2.089   5.903   4.900  0.6407  0.3778 -2.2302
 1283SOL    HW3 4905   2.158   6.017   4.972 -0.5865  0.0766 -0.5001
 1283SOL    MW4 4906   2.161   5.940   4.931  0.0549 -0.1592 -0.3759
 1284SOL     OW 4907   0.953   2.117   5.684  0.4206  0.4059 -0.5696
 1284SOL    HW2 4908   1.013   2.043   5.685  0.4370  0.4021 -1.2299
 1284SOL    HW3 4909   0.931   2.131   5.776  0.1301 -0.6572 -0.4549
 1284SOL    MW4 4910   0.958   2.109   5.696 -0.2026  0.3270 -0.6480
 1285SOL     OW 4911   0.940   5.667   5.565 -0.5810 -0.0016 -0.9061
 1285SOL    HW2 4912   1.003   5.604   5.531 -2.3148 -2.4437  0.1589
 1285SOL    HW3 4913   0.942   5.655   5.660 -0.4260  2.1238 -0.5963
 1285SOL    MW4 4914   0.949   5.657   5.573 -0.0737  0.1829 -0.2310
 1286SOL     OW 4915   2.313   4.554   3.726 -0.3948 -0.3471 -0.2471
 1286SOL    HW2 4916   2.381   4.499   3.764 -0.6357  0.5351  1.5522
 1286SOL    HW3 4917   2.290   4.510   3.644  1.5160 -1.2668 -0.3344
 1286SOL    MW4 4918   2.319   4.541   3.720 -0.0417  0.8470 -0.0484
 1287SOL     OW 4919   2.836   1.056   3.749 -0.1060  0.1971 -0.3235
 1287SOL    HW2 4920   2.827   1.056   3.654 -0.2395  0.3605 -0.3098
 1287SOL    HW3 4921   2.927   1.029   3.764 -0.4720 -1.1901 -0.4587
 1287SOL    MW4 4922   2.847   1.052   3.739  0.0299  0.2467 -0.9476
 1288SOL     OW 4923   5.466   5.002   4.162 -0.8118  0.2040  0.6652
 1288SOL    HW2 4924   5.475   4.916   4.201 -0.2367 -1.0465 -1.9763
 1288SOL    HW3 4925   5.556   5.034   4.154 -1.0262  1.1300  1.7246
 1288SOL    MW4 4926   5.479   4.995   4.166 -0.5550  0.3314  0.2110
 1289SOL     OW 4927   3.395   1.912   4.582 -0.4537  0.0895 -0.2308
 1289SOL    HW2 4928   3.453   1.918   4.658  1.0452 -1.6506 -1.1550
 1289SOL    HW3 4929   3.310   1.885   4.618  0.1262 -0.3484  0.8483
 1289SOL    MW4 4930   3.391   1.909   4.597 -0.3736  0.4742 -0.3383
 1290SOL     OW 4931   5.994   5.603   3.762 -0.0447 -0.3613  0.2505
 1290SOL    HW2 4932   6.000   5.680   3.819 -0.2140 -0.2418  0.1096
 1290SOL    HW3 4933   5.901   5.578   3.766 -0.4520  0.7469 -1.3961
 1290SOL    MW4 4934   5.982   5.610   3.770 -0.0005  0.0213 -0.2644
 1291SOL     OW 4935   2.665   1.717   6.078  0.6776 -0.6252 -0.1458
 1291SOL    HW2 4936   2.602   1.784   6.103  0.6630 -1.0278  0.9495
 1291SOL    HW3 4937   2.641   1.694   5.988 -0.2886 -0.2794  0.0103
 1291SOL    MW4 4938   2.654   1.723   6.070 -0.1548 -0.5972  0.5683
 1292SOL     OW 4939   2.026   3.278   5.667 -0.3698 -0.1064  0.4938
 1292SOL    HW2 4940   2.041   3.372   5.679 -2.3707  0.3466 -0.0850
 1292SOL    HW3 4941   2.040   3.263   5.574 -0.9740 -0.1686  0.4076
 1292SOL    MW4 4942   2.030   3.289   5.656  0.0294 -0.3545 -0.1876
 1293SOL     OW 4943   4.775   5.838   1.369  0.2441 -0.7888 -0.1314
 1293SOL    HW2 4944   4.803   5.916   1.417 -1.0168 -0.3526 -0.0766
 1293SOL    HW3 4945   4.831   5.768   1.402  1.2518  0.0397 -0.0258
 1293SOL    MW4 4946   4.786   5.839   1.380 -0.2200  0.2014  0.1258
 1294SOL     OW 4947   0.556   6.302   3.412  0.5240 -0.6381 -0.4162
 1294SOL    HW2 4948   0.550   6.210   3.437  0.0537 -0.5604 -0.2130
 1294SOL    HW3 4949   0.568   6.349   3.495  0.4636 -0.4956 -0.4869
 1294SOL    MW4 4950   0.557   6.296   3.427  0.8148  0.1460 -1.2305
 1295SOL     OW 4951   4.118   3.054   2.272 -0.1970 -0.2070 -0.2148
 1295SOL    HW2 4952   4.124   2.982   2.335 -0.7335 -1.9379 -2.0664
 1295SOL    HW3 4953   4.196   3.107   2.289  0.1979 -1.1914  1.2190
 1295SOL    MW4 4954   4.129   3.051   2.283 -0.0361  0.0671  0.0653
 1296SOL     OW 4955   0.280   5.648   6.073  0.3468  0.3140  0.2653
 1296SOL    HW2 4956   0.318   5.564   6.097 -2.1212 -1.2854 -1.0133
 1296SOL    HW3 4957   0.316   5.709   6.137  1.6001 -1.8478  1.7670
 1296SOL    MW4 4958   0.290   5.645   6.085 -0.7430 -0.9261  0.1307
 1297SOL     OW 4959   0.875   4.016   5.324 -1.1068  0.0362 -0.2177
 1297SOL    HW2 4960   0.935   4.086   5.298  0.1493 -0.7596  0.4385
 1297SOL    HW3 4961   0.857   4.033   5.417 -1.0416 -0.3280 -0.1371
 1297SOL    MW4 4962   0.880   4.027   5.333 -0.0456  0.3180 -0.2711
 1298SOL     OW 4963   0.148   5.838   5.126 -0.3564  0.7022  0.0546
 1298SOL    HW2 4964   0.209   5.765   5.116 -0.1032  0.5274  2.2997
 1298SOL    HW3 4965   0.186   5.908   5.073  0.6907 -0.0541 -0.2293
 1298SOL    MW4 4966   0.161   5.838   5.118 -0.0894  0.1956  0.3397
 1299SOL     OW 4967   1.511   4.051   4.647 -0.0593  0.0355 -0.1982
 1299SOL    HW2 4968   1.560   3.976   4.613 -1.3383 -1.4506  1.0847
 1299SOL    HW3 4969   1.575   4.122   4.651  1.9764 -1.7552  1.1757
 1299SOL    MW4 4970   1.526   4.051   4.643 -0.1940 -0.1450  0.2242
 1300SOL     OW 4971   2.858   4.816   5.736 -0.0203  0.8153  0.0988
 1300SOL    HW2 4972   2.770   4.779   5.736 -0.0522  0.8849  0.5648
 1300SOL    HW3 4973   2.916   4.740   5.739 -0.0477  0.7486 -0.8470
 1300SOL    MW4 4974   2.854   4.801   5.736 -0.5077 -0.0871 -0.3384
 1301SOL     OW 4975   2.591   4.700   0.470  0.1458 -0.3780  0.4274
 1301SOL    HW2 4976   2.647   4.638   0.518  0.6460  0.6296  1.1673
 1301SOL    HW3 4977   2.510   4.702   0.520 -0.2804 -1.2050 -0.1860
 1301SOL    MW4 4978   2.588   4.692   0.483 -0.7321 -0.1934 -0.0220
 1302SOL     OW 4979   2.484   2.917   2.294 -0.3733  0.7135  0.4347
 1302SOL    HW2 4980   2.558   2.865   2.262 -0.3073  0.2107  1.3801
 1302SOL    HW3 4981   2.465   2.881   2.381 -0.9175  1.6760  0.7260
 1302SOL    MW4 4982   2.491   2.905   2.301  0.2754 -0.2718 -0.0868
 1303SOL     OW 4983   3.527   6.093   4.149 -0.1451 -0.1096 -0.3933
 1303SOL    HW2 4984   3.586   6.090   4.074  0.3449 -1.0843  0.0109
 1303SOL    HW3 4985   3.477   6.012   4.144  0.5437 -0.6314  0.8385
 1303SOL    MW4 4986   3.528   6.082   4.138  0.5401  0.0730  1.0556
 1304SOL     OW 4987   6.148   2.946   1.931  0.3740  0.2907  0.1654
 1304SOL    HW2 4988   6.172   2.907   2.015  0.0786 -1.4377 -0.5297
 1304SOL    HW3 4989   6.053   2.940   1.928  0.4916 -1.5475 -1.1414
 1304SOL    MW4 4990   6.139   2.940   1.942 -0.4631  0.0057  0.1820
 1305SOL     OW 4991   0.015   4.910   4.590  0.4437  0.1968  0.2771
 1305SOL    HW2 4992   0.076   4.848   4.550 -0.5729  0.4922 -1.8807
 1305SOL    HW3 4993   0.063   4.947   4.664  0.3781 -4.6155  3.1380
 1305SOL    MW4 4994   0.029   4.907   4.594  0.2944 -0.3451 -0.0354
 1306SOL     OW 4995   6.219   4.146   2.626 -0.4100 -0.1307 -0.3214
 1306SOL    HW2 4996   6.309   4.171   2.649 -0.6876  0.1437  0.5213
 1306SOL    HW3 4997   6.209   4.172   2.534 -0.0582  1.0987 -0.0351
 1306SOL    MW4 4998   6.230   4.153   2.617  0.0497  0.4643  0.0885
 1307SOL     OW 4999   3.086   1.300   5.099 -0.5687 -0.2670 -0.6951
 1307SOL    HW2 5000   3.077   1.236   5.169 -2.2883  1.1440  0.4690
 1307SOL    HW3 5001   3.010   1.357   5.108  0.7451  1.8256 -1.7775
 1307SOL    MW4 5002   3.075   1.299   5.110  0.1866 -0.2653  0.3439
 1308SOL     OW 5003   2.124   0.232   3.714  0.0394  0.3553 -0.3743
 1308SOL    HW2 5004   2.029   0.241   3.703 -0.2051  0.0559  1.2518
 1308SOL    HW3 5005   2.150   0.172   3.644 -1.2038 -0.6309 -0.0442
 1308SOL    MW4 5006   2.115   0.225   3.704 -0.6087 -0.1774  0.2414
 1309SOL     OW 5007   6.192   5.569   2.457 -0.5550  0.7105  0.4329
 1309SOL    HW2 5008   6.262   5.633   2.465 -0.7996  1.0736 -0.2910
 1309SOL    HW3 5009   6.115   5.620   2.432 -0.3463 -0.0516 -2.0253
 1309SOL    MW4 5010   6.191   5.584   2.455  0.0479  0.3733 -0.2980
 1310SOL     OW 5011   5.397   2.766   6.190 -0.0645  0.3849 -0.3359
 1310SOL    HW2 5012   5.440   2.695   6.143  1.3227  0.5058  0.6835
 1310SOL    HW3 5013   5.314   2.729   6.220 -0.4396 -0.0474 -1.8162
 1310SOL    MW4 5014   5.392   2.752   6.187 -0.2073 -0.4322 -0.2323
 1311SOL     OW 5015   4.879   3.845   3.053  0.5672 -0.1571 -0.6259
 1311SOL    HW2 5016   4.789   3.869   3.032  0.3802 -1.5489 -1.5867
 1311SOL    HW3 5017   4.884   3.851   3.149 -0.0237  1.5553 -0.6665
 1311SOL    MW4 5018   4.868   3.849   3.063  0.2176  0.8074 -0.0948
 1312SOL     OW 5019   5.049   2.373   2.805 -0.3518 -0.5326  0.6277
 1312SOL    HW2 5020   5.121   2.414   2.758 -1.8667  0.8241 -0.6340
 1312SOL    HW3 5021   5.043   2.421   2.887  0.2774 -0.7622  0.8099
 1312SOL    MW4 5022   5.058   2.385   2.809  0.7159 -0.1130 -0.0878
 1313SOL     OW 5023   4.254   3.358   1.100  0.4987  0.1188 -0.3254
 1313SOL    HW2 5024   4.338   3.386   1.137  0.2970  1.5802 -0.8772
 1313SOL    HW3 5025   4.212   3.440   1.073 -1.1839 -0.5770  0.0863
 1313SOL    MW4 5026   4.260   3.373   1.101  0.2026  0.2038 -0.2938
 1314SOL     OW 5027   5.449   1.043   5.195 -0.4782  0.1797 -0.3085
 1314SOL    HW2 5028   5.416   1.129   5.221  0.5712  0.1069  1.4301
 1314SOL    HW3 5029   5.471   1.052   5.102 -0.2247  1.8463 -0.1117
 1314SOL    MW4 5030   5.447   1.055   5.186  0.1856  0.6052 -0.0185
 1315SOL     OW 5031   0.486   4.364   4.835  0.1536 -0.2200  0.0705
 1315SOL    HW2 5032   0.577   4.354   4.807 -0.1383 -0.3833 -0.8573
 1315SOL    HW3 5033   0.490   4.426   4.908  0.9904 -0.1469 -0.0252
 1315SOL    MW4 5034   0.499   4.371   4.841  0.6180 -0.5370 -0.3947
 1316SOL     OW 5035   3.003   3.454   5.742  0.0518 -0.1866  0.4107
 1316SOL    HW2 5036   3.010   3.503   5.824  0.8488 -0.3048  0.4215
 1316SOL    HW3 5037   3.038   3.368   5.763  0.4539 -0.1520 -0.1047
 1316SOL    MW4 5038   3.009   3.449   5.756 -0.5761 -0.1992  0.2442
 1317SOL     OW 5039   2.205   2.507   3.669 -0.3811  0.3709  0.0079
 1317SOL    HW2 5040   2.164   2.441   3.725  0.6390  0.0647  0.4146
 1317SOL    HW3 5041   2.220   2.582   3.726  0.4736  0.1336  0.1017
 1317SOL    MW4 5042   2.202   2.508   3.684  0.2267  0.3616 -0.0064
 1318SOL     OW 5043   2.083   1.535   4.210 -0.3299 -0.0214 -0.4309
 1318SOL    HW2 5044   2.112   1.483   4.285  1.0588  0.2029 -0.7659
 1318SOL    HW3 5045   2.125   1.493   4.134 -1.1982  0.1298 -1.0067
 1318SOL    MW4 5046   2.093   1.523   4.210  0.2112  0.0407  0.6688
 1319SOL     OW 5047   0.498   5.504   4.426 -0.1414 -0.7772  0.4646
 1319SOL    HW2 5048   0.569   5.556   4.389  0.5314 -1.2253  1.0951
 1319SOL    HW3 5049   0.446   5.478   4.351 -0.2962  0.4959  0.0975
 1319SOL    MW4 5050   0.501   5.508   4.411 -0.1057 -0.1730 -0.0229
 1320SOL     OW 5051   3.738   4.536   5.308  0.0037 -0.1824  0.0848
 1320SOL    HW2 5052   3.767   4.627   5.301  0.1143 -0.2556 -0.4866
 1320SOL    HW3 5053   3.738   4.518   5.402 -0.9473  0.6961  0.2620
 1320SOL    MW4 5054   3.742   4.545   5.319  0.4195 -0.1187 -0.7357
 1321SOL     OW 5055   5.317   6.309   3.770 -0.1970  0.1553 -0.1129
 1321SOL    HW2 5056   5.248   6.263   3.818 -0.4402  0.4191 -0.2064
 1321SOL    HW3 5057   5.270   6.369   3.712  0.0731 -0.7355 -1.2749
 1321SOL    MW4 5058   5.302   6.311   3.769  0.3138 -0.1689 -0.8339
 1322SOL     OW 5059   0.580   6.242   6.223  0.1740  0.2063  0.2853
 1322SOL    HW2 5060   0.660   6.271   6.179  0.5679  0.8718  1.4217
 1322SOL    HW3 5061   0.510   6.282   6.172  0.5769  0.1908 -0.2985
 1322SOL    MW4 5062   0.581   6.251   6.210  0.1913  0.2794  0.1839
 1323SOL     OW 5063   6.193   5.046   4.619  0.0239 -0.0849  0.0142
 1323SOL    HW2 5064   6.274   4.996   4.630 -0.0350  0.0865  1.3088
 1323SOL    HW3 5065   6.207   5.126   4.669 -0.6790  0.2777 -0.3504
 1323SOL    MW4 5066   6.205   5.050   4.627  0.3283  0.0126  0.0570
 1324SOL     OW 5067   0.629   5.342   5.601  0.0971  0.3106 -0.8797
 1324SOL    HW2 5068   0.692   5.358   5.531  0.5726  2.0533 -0.1180
 1324SOL    HW3 5069   0.672   5.375   5.680 -1.0993 -0.0396 -0.0554
 1324SOL    MW4 5070   0.643   5.349   5.602 -0.6105  0.2485 -0.3519
 1325SOL     OW 5071   5.502   4.745   4.253  0.2290  0.0097 -0.0210
 1325SOL    HW2 5072   5.468   4.739   4.342  0.0435 -1.2869 -0.1615
 1325SOL    HW3 5073   5.487   4.658   4.216 -1.3363  1.0201 -1.9072
 1325SOL    MW4 5074   5.496   4.733   4.260  0.5935 -0.4074 -0.3702
 1326SOL     OW 5075   1.690   3.134   0.221  0.1652 -0.1714  0.2102
 1326SOL    HW2 5076   1.696   3.082   0.301 -1.4763  1.5063  1.5282
 1326SOL    HW3 5077   1.772   3.118   0.175  1.3316 -0.9191  2.4145
 1326SOL    MW4 5078   1.701   3.125   0.225  0.0290  0.1076  0.2373
 1327SOL     OW 5079   6.325   1.107   0.694 -0.1275  0.0543 -0.2392
 1327SOL    HW2 5080   6.248   1.053   0.709  0.6169 -0.6735  1.2190
 1327SOL    HW3 5081   6.358   1.078   0.608 -0.2171 -1.2481  0.1366
 1327SOL    MW4 5082   6.319   1.096   0.684 -0.5030  0.4245  0.0698
 1328SOL     OW 5083   4.553   3.546   2.019 -0.0349  0.7035  0.0987
 1328SOL    HW2 5084   4.498   3.504   1.954 -0.3639  1.7491 -0.3120
 1328SOL    HW3 5085   4.631   3.490   2.024 -0.9668 -0.6369  0.4813
 1328SOL    MW4 5086   4.556   3.533   2.011 -0.4525  0.0444 -0.1098
 1329SOL     OW 5087   5.298   2.747   2.210  0.4226  0.2419  0.0688
 1329SOL    HW2 5088   5.321   2.663   2.170  0.4853  0.4942 -0.4371
 1329SOL    HW3 5089   5.316   2.811   2.141 -0.1249  0.6161  0.2723
 1329SOL    MW4 5090   5.304   2.744   2.195  0.2953  0.3226 -0.1757
 1330SOL     OW 5091   5.314   2.467   2.148 -0.4311  0.0956 -0.5621
 1330SOL    HW2 5092   5.364   2.462   2.229  0.3319 -0.3025 -1.0458
 1330SOL    HW3 5093   5.226   2.439   2.172 -0.6068  1.4279  0.4335
 1330SOL    MW4 5094   5.309   2.463   2.162 -0.2839 -0.4468  0.2201
 1331SOL     OW 5095   5.234   0.584   0.254  0.1124 -0.0747 -0.1676
 1331SOL    HW2 5096   5.204   0.632   0.177  1.1759  1.0775  0.1110
 1331SOL    HW3 5097   5.195   0.630   0.328 -0.3230 -0.7484  0.0368
 1331SOL    MW4 5098   5.225   0.596   0.254 -0.1963 -1.3016 -0.3191
 1332SOL     OW 5099   3.644   1.112   6.105  0.3523 -0.1122  0.1684
 1332SOL    HW2 5100   3.678   1.060   6.178  0.8694  0.1401  0.1108
 1332SOL    HW3 5101   3.712   1.106   6.037  0.1326  0.1225 -0.0757
 1332SOL    MW4 5102   3.658   1.104   6.106 -0.0083  0.3157  0.2615
 1333SOL     OW 5103   3.851   3.249   3.929  0.8184 -0.0555 -0.0030
 1333SOL    HW2 5104   3.836   3.302   3.851  2.0016  0.2833 -0.0243
 1333SOL    HW3 5105   3.846   3.158   3.898  1.0957  0.0757 -0.4413
 1333SOL    MW4 5106   3.849   3.244   3.915  0.3698 -0.2073  0.3795
 1334SOL     OW 5107   2.442   5.368   2.954  0.3195  0.2882  0.4409
 1334SOL    HW2 5108   2.437   5.443   3.013  0.6478  0.1528  0.6433
 1334SOL    HW3 5109   2.479   5.298   3.008 -0.3631 -0.1407  0.3720
 1334SOL    MW4 5110   2.446   5.369   2.969  0.7663 -0.7138  0.5130
 1335SOL     OW 5111   1.781   2.624   5.563 -0.3945  0.0573  0.0541
 1335SOL    HW2 5112   1.835   2.546   5.576 -0.9079 -0.2863  0.1622
 1335SOL    HW3 5113   1.709   2.613   5.625 -1.2840 -0.1354 -0.9856
 1335SOL    MW4 5114   1.779   2.612   5.573  0.3677  0.1648 -0.8698
 1336SOL     OW 5115   1.822   0.446   3.884 -0.6012 -0.6675 -0.3921
 1336SOL    HW2 5116   1.764   0.518   3.859  0.2803  0.5360  0.8807
 1336SOL    HW3 5117   1.902   0.489   3.914 -0.2533 -2.1336  0.9404
 1336SOL    MW4 5118   1.825   0.461   3.885  0.4413  0.0593  0.4480
 1337SOL     OW 5119   1.576   6.299   1.804  0.0677  0.8164  0.2635
 1337SOL    HW2 5120   1.589   6.346   1.886  0.6454  2.3875 -0.6909
 1337SOL    HW3 5121   1.655   6.246   1.794 -0.0188  0.5952  0.7142
 1337SOL    MW4 5122   1.588   6.298   1.814  0.2871  0.0701  0.2009
 1338SOL     OW 5123   3.578   4.967   4.643 -0.1749 -0.5441  0.6276
 1338SOL    HW2 5124   3.604   5.056   4.665 -0.4321 -0.6617  1.4446
 1338SOL    HW3 5125   3.526   4.976   4.562 -0.2103  0.0413  0.7120
 1338SOL    MW4 5126   3.574   4.980   4.635  0.1521  0.4918  0.6958
 1339SOL     OW 5127   6.118   1.703   1.581  0.0525 -0.2748 -0.0334
 1339SOL    HW2 5128   6.133   1.775   1.641 -1.7943 -0.6563  0.9404
 1339SOL    HW3 5129   6.027   1.713   1.553 -0.6738 -2.8820  1.1139
 1339SOL    MW4 5130   6.108   1.714   1.585  0.3438  0.3159  0.2895
 1340SOL     OW 5131   4.981   6.413   5.803  0.5306 -0.0114 -0.6297
 1340SOL    HW2 5132   5.065   6.425   5.759  0.3187 -0.5603 -1.2101
 1340SOL    HW3 5133   4.916   6.431   5.735  0.1771  0.7436 -0.0887
 1340SOL    MW4 5134   4.983   6.417   5.788  0.2661  0.1430 -0.3592
 1341SOL     OW 5135   2.727   4.477   0.586 -0.8652 -0.0195 -0.2159
 1341SOL    HW2 5136   2.782   4.500   0.511 -1.9906  0.9442 -0.7789
 1341SOL    HW3 5137   2.671   4.406   0.554 -1.4542  0.4981 -0.3488
 1341SOL    MW4 5138   2.727   4.471   0.572 -0.5202  0.3748  0.4544
 1342SOL     OW 5139   0.118   2.393   1.327  0.5405  0.4666 -0.5221
 1342SOL    HW2 5140   0.093   2.482   1.350 -0.0406  0.8145 -2.3398
 1342SOL    HW3 5141   0.204   2.403   1.285 -0.7207  0.6239 -3.2958
 1342SOL    MW4 5142   0.126   2.406   1.325  0.1699 -0.2205  0.1188
 1343SOL     OW 5143   2.289   4.898   2.821  0.0818 -0.8557  0.3211
 1343SOL    HW2 5144   2.238   4.974   2.795  0.6099 -0.3708  0.7030
 1343SOL    HW3 5145   2.248   4.825   2.774  1.6189  0.1078 -2.7529
 1343SOL    MW4 5146   2.277   4.898   2.811  0.9390  0.2464  0.2363
 1344SOL     OW 5147   6.272   0.393   5.562  0.2345 -0.0576 -0.1315
 1344SOL    HW2 5148   6.344   0.344   5.601  0.1300 -0.7300 -0.7600
 1344SOL    HW3 5149   6.293   0.485   5.579  0.7736 -0.2867  0.4805
 1344SOL    MW4 5150   6.284   0.399   5.569 -0.4767  0.2070 -0.2227
 1345SOL     OW 5151   2.928   1.661   0.583  0.1099 -0.3739  0.1741
 1345SOL    HW2 5152   2.926   1.565   0.578 -0.8287 -0.3160 -3.1158
 1345SOL    HW3 5153   2.843   1.688   0.547  0.4071  1.6956  0.9110
 1345SOL    MW4 5154   2.916   1.652   0.577  0.2905  0.5608 -0.5364
 1346SOL     OW 5155   0.400   5.938   5.560  0.4023  0.1206  0.6102
 1346SOL    HW2 5156   0.344   5.989   5.501  0.5855  0.8166  1.0237
 1346SOL    HW3 5157   0.341   5.911   5.631  0.3203 -0.2025  0.4244
 1346SOL    MW4 5158   0.385   5.941   5.561 -0.2162  0.7110  0.2731
 1347SOL     OW 5159   4.232   3.835   3.090 -0.8399 -0.0179 -0.2941
 1347SOL    HW2 5160   4.173   3.761   3.074 -2.6783  1.5242 -1.0134
 1347SOL    HW3 5161   4.217   3.894   3.015 -0.7435  1.8634  1.1036
 1347SOL    MW4 5162   4.222   3.833   3.078 -0.3291 -0.1795  0.0264
 1348SOL     OW 5163   0.920   4.465   5.247 -0.1852  0.4846  0.2488
 1348SOL    HW2 5164   0.881   4.478   5.161  0.5228  1.6487  0.0752
 1348SOL    HW3 5165   0.976   4.388   5.238 -0.9106 -0.0181 -0.0337
 1348SOL    MW4 5166   0.922   4.457   5.235 -0.2472 -0.1535 -0.3018
 1349SOL     OW 5167   2.155   4.268   5.660  0.5413  0.5514 -0.1634
 1349SOL    HW2 5168   2.180   4.360   5.655 -0.1035  0.6943 -0.8601
 1349SOL    HW3 5169   2.060   4.269   5.673  0.5899 -0.0135  0.3135
 1349SOL    MW4 5170   2.146   4.280   5.661  0.2746 -0.4835  0.5491
 1350SOL     OW 5171   6.071   4.755   2.459 -0.0079 -0.1674  0.3776
 1350SOL    HW2 5172   6.114   4.678   2.496 -0.1636 -1.0139 -1.1096
 1350SOL    HW3 5173   6.134   4.826   2.471  1.1174 -1.0231 -0.2300
 1350SOL    MW4 5174   6.085   4.754   2.465  0.1602  0.2759  0.3270
 1351SOL     OW 5175   6.135   4.425   0.720  0.1679  0.7856 -0.0257
 1351SOL    HW2 5176   6.052   4.417   0.674  0.0878 -0.8622  0.3316
 1351SOL    HW3 5177   6.201   4.417   0.652  0.0415 -0.0345 -0.0579
 1351SOL    MW4 5178   6.133   4.423   0.705 -0.5611  0.2342  0.3159
 1352SOL     OW 5179   5.131   6.115   5.000  0.7010 -0.0608  0.4093
 1352SOL    HW2 5180   5.069   6.077   4.939 -0.4365  1.7109  0.3895
 1352SOL    HW3 5181   5.093   6.100   5.086 -0.4223  2.0298  0.3383
 1352SOL    MW4 5182   5.118   6.108   5.004 -0.0094 -0.7818 -0.2174
 1353SOL     OW 5183   2.569   3.745   0.109  0.2693 -0.2420 -0.2234
 1353SOL    HW2 5184   2.516   3.821   0.133  1.8626  2.6554 -4.5708
 1353SOL    HW3 5185   2.513   3.694   0.052 -0.3442 -1.7373  1.6263
 1353SOL    MW4 5186   2.555   3.749   0.105  0.5140 -0.0614 -0.9212
 1354SOL     OW 5187   4.396   5.518   1.665  0.2288 -0.3235 -0.4172
 1354SOL    HW2 5188   4.348   5.464   1.602  1.4712 -1.3935 -0.4863
 1354SOL    HW3 5189   4.328   5.570   1.708 -1.0731 -2.1076 -0.1794
 1354SOL    MW4 5190   4.380   5.517   1.662  0.1310 -0.3542 -0.0021
 1355SOL     OW 5191   3.886   0.087   6.301  0.2715  0.2632 -0.2434
 1355SOL    HW2 5192   3.927   0.080   6.215  1.9888  0.2048  0.5362
 1355SOL    HW3 5193   3.893  -0.002   6.338 -0.4739  0.2806 -0.0401
 1355SOL    MW4 5194   3.892   0.074   6.294 -0.1548  0.3644  0.0117
 1356SOL     OW 5195   4.786   1.410   1.255  0.4524  0.7673  0.1392
 1356SOL    HW2 5196   4.773   1.316   1.248  0.0643  0.7736  0.6985
 1356SOL    HW3 5197   4.880   1.421   1.263  0.4714  0.4031  0.4169
 1356SOL    MW4 5198   4.796   1.399   1.255 -0.5035  1.0491  0.3989
 1357SOL     OW 5199   3.176   1.207   2.179 -0.0373  0.6201  0.1120
 1357SOL    HW2 5200   3.153   1.142   2.113 -2.0869 -0.1322  1.4619
 1357SOL    HW3 5201   3.143   1.290   2.144  0.3447  0.5125 -0.5087
 1357SOL    MW4 5202   3.169   1.209   2.166  0.0817  0.3251 -0.1132
 1358SOL     OW 5203   2.460   4.714   4.369 -0.1017 -0.8463  0.6488
 1358SOL    HW2 5204   2.417   4.799   4.358  1.0431 -0.3868 -0.5488
 1358SOL    HW3 5205   2.390   4.650   4.358 -0.6960 -0.0879 -0.1724
 1358SOL    MW4 5206   2.445   4.717   4.366  0.7279  0.1076 -0.0883
 1359SOL     OW 5207   2.353   0.862   0.991 -0.2139  0.2518 -0.0148
 1359SOL    HW2 5208   2.361   0.841   1.084  1.1989 -1.2259 -0.4326
 1359SOL    HW3 5209   2.279   0.811   0.960 -0.5843  0.6225  0.2454
 1359SOL    MW4 5210   2.344   0.853   0.999  0.3838  0.6089  0.5459
 1360SOL     OW 5211   0.633   3.386   6.077 -0.1564 -0.0447 -0.5553
 1360SOL    HW2 5212   0.586   3.351   6.001 -0.4371 -1.9889  0.4351
 1360SOL    HW3 5213   0.709   3.329   6.087 -1.3320 -1.3233  1.9122
 1360SOL    MW4 5214   0.637   3.374   6.068 -0.0851 -0.1907  0.3231
 1361SOL     OW 5215   5.463   2.286   1.502 -0.1356  0.4379 -0.2590
 1361SOL    HW2 5216   5.456   2.200   1.542  2.5363 -1.5748 -3.6211
 1361SOL    HW3 5217   5.541   2.325   1.542 -0.4251  0.6552  0.1064
 1361SOL    MW4 5218   5.472   2.280   1.513 -0.2928 -0.2135 -0.1713
 1362SOL     OW 5219   1.591   6.251   5.323 -0.5014  0.4691 -0.6029
 1362SOL    HW2 5220   1.659   6.301   5.368 -0.1387 -0.0249 -0.5979
 1362SOL    HW3 5221   1.620   6.160   5.328 -0.8267  0.3248 -1.1819
 1362SOL    MW4 5222   1.603   6.246   5.329  0.4369 -0.5797  0.1306
 1363SOL     OW 5223   0.024   3.484   1.791 -0.2424  0.1490  0.1739
 1363SOL    HW2 5224  -0.062   3.514   1.761  0.1361 -0.9807 -2.2783
 1363SOL    HW3 5225   0.061   3.560   1.838 -1.7539  1.3442 -0.4946
 1363SOL    MW4 5226   0.018   3.498   1.793  0.6625 -0.0015 -0.8548
 1364SOL     OW 5227   3.773   6.000   0.439 -0.0861  0.3453 -0.2581
 1364SOL    HW2 5228   3.720   6.036   0.368 -0.6532  0.4596  0.2180
 1364SOL    HW3 5229   3.814   5.922   0.400 -0.5246  0.3096 -0.6608
 1364SOL    MW4 5230   3.771   5.994   0.424 -0.4609 -0.3677  0.1975
 1365SOL     OW 5231   4.539   2.558   6.254 -0.1085 -0.1266 -0.5408
 1365SOL    HW2 5232   4.576   2.637   6.295 -1.1457  0.4187 -0.6099
 1365SOL    HW3 5233   4.504   2.508   6.328  0.9419 -0.7585 -0.4498
 1365SOL    MW4 5234   4.539   2.562   6.269 -0.4495  0.0266  0.3420
 1366SOL     OW 5235   5.845   4.414   1.487  0.2889  0.3166  0.0476
 1366SOL    HW2 5236   5.779   4.440   1.424  1.3525  1.3078 -0.6945
 1366SOL    HW3 5237   5.901   4.491   1.497  1.7062 -0.6877  0.1645
 1366SOL    MW4 5238   5.844   4.428   1.480  0.2465  0.1966  0.3666
 1367SOL     OW 5239   4.812   6.263   2.657 -0.1701  0.1274 -0.3586
 1367SOL    HW2 5240   4.779   6.200   2.593 -2.3364 -0.6833  1.4556
 1367SOL    HW3 5241   4.734   6.307   2.691  0.7144 -0.3137  2.5486
 1367SOL    MW4 5242   4.798   6.260   2.653 -0.6409 -0.1423  0.1837
 1368SOL     OW 5243   1.603   5.824   4.840 -0.5175 -0.0221  0.4122
 1368SOL    HW2 5244   1.694   5.833   4.869 -0.3744  0.3214 -0.1124
 1368SOL    HW3 5245   1.601   5.870   4.756 -0.7015 -1.7630 -0.5692
 1368SOL    MW4 5246   1.615   5.831   4.833 -0.1051 -0.7422  0.7632
 1369SOL     OW 5247   4.802   1.330   1.896 -0.3900  0.7150  0.2696
 1369SOL    HW2 5248   4.854   1.353   1.973 -1.3783 -1.1038  1.5680
 1369SOL    HW3 5249   4.724   1.384   1.902 -0.0934  1.1668  0.0797
 1369SOL    MW4 5250   4.799   1.340   1.907 -0.1801  0.2725 -0.2437
 1370SOL     OW 5251   3.161   3.425   0.786 -0.7372 -0.3630  0.0876
 1370SOL    HW2 5252   3.174   3.452   0.695 -0.6305 -1.9148 -0.3946
 1370SOL    HW3 5253   3.099   3.353   0.781 -0.3086 -0.8346  1.1859
 1370SOL    MW4 5254   3.155   3.419   0.773  0.2803 -0.4150 -0.0656
 1371SOL     OW 5255   6.347   1.327   4.337  0.4517  0.5728 -0.0909
 1371SOL    HW2 5256   6.319   1.256   4.279 -0.2552 -0.3312  1.3168
 1371SOL    HW3 5257   6.421   1.367   4.291  0.8168 -1.0193 -0.9771
 1371SOL    MW4 5258   6.353   1.323   4.323  0.4297  0.2960 -0.3465
 1372SOL     OW 5259   2.854   2.418   2.974 -0.3605 -0.0498 -0.3471
 1372SOL    HW2 5260   2.843   2.478   3.047 -0.2155 -1.0960  0.5634
 1372SOL    HW3 5261   2.768   2.412   2.933 -0.6930 -0.2466  0.3782
 1372SOL    MW4 5262   2.841   2.425   2.978 -0.0836  0.2740 -0.1169
 1373SOL     OW 5263   6.384   2.373   5.443 -0.5889 -0.5517 -0.5338
 1373SOL    HW2 5264   6.436   2.444   5.406 -2.2324  1.3055  0.5103
 1373SOL    HW3 5265   6.448   2.308   5.472  1.1524  1.5723  0.5894
 1373SOL    MW4 5266   6.399   2.374   5.442  0.6145 -0.4184 -0.2280
 1374SOL     OW 5267   0.593   2.332   2.410 -0.0653 -0.6546  0.1165
 1374SOL    HW2 5268   0.653   2.261   2.385 -0.0868 -0.5005 -0.3828
 1374SOL    HW3 5269   0.641   2.381   2.476  0.8143  0.1043 -1.0462
 1374SOL    MW4 5270   0.607   2.329   2.415 -0.2928 -0.4568  0.0716
 1375SOL     OW 5271   5.462   1.872   4.887  0.0443  0.0099 -0.7641
 1375SOL    HW2 5272   5.423   1.786   4.904 -1.2637  0.6857 -0.1826
 1375SOL    HW3 5273   5.464   1.879   4.791  1.8234 -1.3600 -0.8683
 1375SOL    MW4 5274   5.457   1.862   4.876 -0.4295  0.0230 -0.3253
 1376SOL     OW 5275   2.557   4.109   5.803  0.4332 -0.0912  0.1029
 1376SOL    HW2 5276   2.591   4.047   5.740  1.3233  1.8326 -1.4278
 1376SOL    HW3 5277   2.462   4.105   5.793  0.5590  1.0720 -2.4020
 1376SOL    MW4 5278   2.549   4.101   5.794 -0.2002 -0.3149  0.5206
 1377SOL     OW 5279   1.542   4.514   2.984 -0.9062 -0.0081 -0.2013
 1377SOL    HW2 5280   1.466   4.483   3.033 -0.1279  0.4613  1.3667
 1377SOL    HW3 5281   1.608   4.446   2.995 -0.3738  0.5796  0.2908
 1377SOL    MW4 5282   1.540   4.501   2.992 -0.2082 -0.5027 -0.3420
 1378SOL     OW 5283   4.868   0.140   2.984 -0.1586  0.2233 -0.1637
 1378SOL    HW2 5284   4.835   0.228   3.005 -2.6146 -0.6200 -0.1881
 1378SOL    HW3 5285   4.896   0.104   3.068  0.7178  0.9674 -0.1303
 1378SOL    MW4 5286   4.867   0.147   2.998 -0.3277  0.2902  0.5876
 1379SOL     OW 5287   3.092   3.527   5.354  0.3496  0.0428  0.2011
 1379SOL    HW2 5288   3.016   3.471   5.374 -1.0451  1.4836 -0.8321
 1379SOL    HW3 5289   3.096   3.590   5.426 -0.9861  1.4920 -0.9416
 1379SOL    MW4 5290   3.083   3.528   5.366 -0.4907  0.1101  0.0139
 1380SOL     OW 5291   5.699   3.705   4.147 -0.6915  0.5132  0.1358
 1380SOL    HW2 5292   5.658   3.618   4.157 -2.1162  1.1685  0.2774
 1380SOL    HW3 5293   5.719   3.732   4.236 -0.1124  0.2842  0.0810
 1380SOL    MW4 5294   5.696   3.697   4.160  0.3618 -0.0425 -0.4712
 1381SOL     OW 5295   2.314   4.644   4.080  0.0182  0.1688  0.2148
 1381SOL    HW2 5296   2.232   4.636   4.032  0.5651  0.6169 -0.8292
 1381SOL    HW3 5297   2.306   4.581   4.151 -0.4503 -1.1878 -0.9860
 1381SOL    MW4 5298   2.302   4.635   4.083 -0.2890 -0.7511 -0.3789
 1382SOL     OW 5299   2.450   4.396   2.864  0.3047 -0.5376 -0.1014
 1382SOL    HW2 5300   2.356   4.392   2.880  0.0720 -0.0822 -1.2787
 1382SOL    HW3 5301   2.478   4.304   2.863 -0.3196 -0.7272 -0.7672
 1382SOL    MW4 5302   2.442   4.383   2.866 -0.1879 -0.1602 -0.1799
 1383SOL     OW 5303   0.178   0.698   6.001 -0.1402 -0.1098 -0.4925
 1383SOL    HW2 5304   0.224   0.685   6.084  1.7585  0.1254 -1.4601
 1383SOL    HW3 5305   0.186   0.614   5.956 -0.3335  0.0541 -0.8337
 1383SOL    MW4 5306   0.185   0.685   6.006 -0.2509 -0.3300  0.7416
 1384SOL     OW 5307   5.521   5.543   3.660  0.0924  0.2704  0.2936
 1384SOL    HW2 5308   5.579   5.547   3.583  0.0981  3.0209  0.3419
 1384SOL    HW3 5309   5.581   5.534   3.734  0.4134  1.6764  0.2345
 1384SOL    MW4 5310   5.537   5.542   3.660 -0.0184 -0.2781 -0.6743
 1385SOL     OW 5311   6.155   1.469   1.898  0.4590 -0.6826 -0.1626
 1385SOL    HW2 5312   6.248   1.486   1.912  0.6506 -0.2404 -1.8160
 1385SOL    HW3 5313   6.114   1.556   1.904  0.3428 -0.6936 -0.7233
 1385SOL    MW4 5314   6.162   1.483   1.901  0.2673  0.7983 -0.3107
 1386SOL     OW 5315   4.291   2.244   5.449 -0.5797 -0.3786  0.0533
 1386SOL    HW2 5316   4.317   2.162   5.492 -0.1094 -1.0221 -1.3879
 1386SOL    HW3 5317   4.262   2.217   5.362 -1.1954  0.9155 -0.1654
 1386SOL    MW4 5318   4.290   2.230   5.443 -0.3129  0.0664 -0.0951
 1387SOL     OW 5319   3.193   6.344   1.881  0.0529  0.1458 -0.1758
 1387SOL    HW2 5320   3.286   6.357   1.861  0.3135  1.2086  1.5344
 1387SOL    HW3 5321   3.192   6.275   1.947 -0.1844  1.3982  1.1789
 1387SOL    MW4 5322   3.205   6.336   1.887 -0.1055 -0.2424 -0.6360
 1388SOL     OW 5323   1.433   1.722   3.292 -0.2143  0.3816  0.5332
 1388SOL    HW2 5324   1.375   1.654   3.326 -1.2771  0.9615 -0.0805
 1388SOL    HW3 5325   1.520   1.681   3.291 -0.4847 -0.3197  2.0023
 1388SOL    MW4 5326   1.437   1.707   3.297  0.2284  0.1705  0.9792
 1389SOL     OW 5327   4.694   5.231   5.520 -0.1098  0.0327 -0.2391
 1389SOL    HW2 5328   4.652   5.223   5.435  0.1462  2.4563 -0.6727
 1389SOL    HW3 5329   4.623   5.259   5.579  0.2668  1.2673 -0.3391
 1389SOL    MW4 5330   4.679   5.234   5.517  0.5906 -0.1234  0.2365
 1390SOL     OW 5331   6.128   3.667   5.556 -0.0541 -0.5785  0.0164
 1390SOL    HW2 5332   6.134   3.655   5.461 -1.1812  1.1944 -0.3058
 1390SOL    HW3 5333   6.219   3.659   5.586  0.4726 -0.0790 -1.3477
 1390SOL    MW4 5334   6.141   3.664   5.548  0.2016  0.0273 -0.3436
 1391SOL     OW 5335   0.312   5.503   3.548  0.5863 -0.6604 -0.0130
 1391SOL    HW2 5336   0.383   5.443   3.571  0.0593 -0.5899  2.0101
 1391SOL    HW3 5337   0.352   5.590   3.551  0.2648 -0.5232  2.1814
 1391SOL    MW4 5338   0.326   5.506   3.551  0.1311 -0.0013  1.0588
 1392SOL     OW 5339   2.366   5.065   0.594 -1.2677  0.8583  0.7567
 1392SOL    HW2 5340   2.436   5.044   0.657 -0.7795  1.4742  0.4284
 1392SOL    HW3 5341   2.333   4.979   0.567  1.2837  0.3758 -1.2256
 1392SOL    MW4 5342   2.371   5.051   0.599 -0.3614  0.0432 -0.0769
 1393SOL     OW 5343   5.333   4.626   4.009 -0.0870  1.0329 -0.4492
 1393SOL    HW2 5344   5.370   4.582   4.085  2.2454  2.0362 -0.9227
 1393SOL    HW3 5345   5.309   4.554   3.950 -2.5938  0.2071  1.4021
 1393SOL    MW4 5346   5.335   4.611   4.011  0.1533  0.3262  0.1896
 1394SOL     OW 5347   1.850   5.460   1.922  0.2206  0.5682 -0.0369
 1394SOL    HW2 5348   1.759   5.457   1.895  0.2649  0.8071 -0.2115
 1394SOL    HW3 5349   1.855   5.398   1.995 -0.0078  0.3085 -0.2388
 1394SOL    MW4 5350   1.839   5.452   1.928  0.9239  0.2635  0.3190
 1395SOL     OW 5351   0.733   3.075   6.339  0.4143  0.8923  0.1257
 1395SOL    HW2 5352   0.828   3.073   6.328  0.3895 -1.5612 -0.2451
 1395SOL    HW3 5353   0.720   3.105   6.429  1.3710  3.4716 -0.4874
 1395SOL    MW4 5354   0.744   3.079   6.349 -0.1680 -0.0538  0.8112
 1396SOL     OW 5355   4.058   5.074   0.286 -0.5270 -0.1373 -0.1124
 1396SOL    HW2 5356   4.078   5.125   0.207 -2.0287  0.6409 -0.0289
 1396SOL    HW3 5357   4.130   5.011   0.293  0.6414  1.0493 -1.0058
 1396SOL    MW4 5358   4.070   5.072   0.276 -0.0744 -0.5312  0.0715
 1397SOL     OW 5359   4.400   3.034   3.705 -0.3286 -0.4480 -0.3296
 1397SOL    HW2 5360   4.358   2.968   3.760 -0.5077 -0.1133 -0.0594
 1397SOL    HW3 5361   4.363   3.117   3.734  0.3608 -0.1635 -0.2404
 1397SOL    MW4 5362   4.389   3.036   3.716  0.4142 -0.2326  0.3921
 1398SOL     OW 5363   6.119   1.985   5.045  0.3377 -0.1184 -0.3585
 1398SOL    HW2 5364   6.057   1.951   4.980 -0.0863 -1.8907  0.8898
 1398SOL    HW3 5365   6.198   2.004   4.995  0.5465 -2.8292 -1.2616
 1398SOL    MW4 5366   6.121   1.983   5.030  0.8420 -0.0182 -0.4369
 1399SOL     OW 5367   3.221   5.304   3.674 -0.3404  0.2374  0.2091
 1399SOL    HW2 5368   3.268   5.386   3.691  0.1319 -0.0895  0.5196
 1399SOL    HW3 5369   3.158   5.326   3.606  0.2035  0.7158 -0.1560
 1399SOL    MW4 5370   3.219   5.318   3.667 -0.4367  0.2157 -0.3183
 1400SOL     OW 5371   3.148   1.947   1.967  0.2830  0.0337  0.5737
 1400SOL    HW2 5372   3.091   2.006   1.918 -0.0088  0.2477  1.1528
 1400SOL    HW3 5373   3.220   1.926   1.907 -1.6562 -2.2862 -1.1271
 1400SOL    MW4 5374   3.150   1.952   1.953 -0.3515 -0.1287  0.2532
 1401SOL     OW 5375   1.032   3.986   2.686  0.6770  0.0324  0.2048
 1401SOL    HW2 5376   1.128   3.977   2.687  0.5383 -2.9856 -1.3939
 1401SOL    HW3 5377   1.000   3.904   2.723 -1.3144  0.8515  0.3939
 1401SOL    MW4 5378   1.041   3.974   2.691  0.4450 -0.7737  0.3638
 1402SOL     OW 5379   0.083   4.126   5.187 -0.4681  0.3622  0.3379
 1402SOL    HW2 5380   0.076   4.220   5.199 -0.1478  0.4093  0.1709
 1402SOL    HW3 5381   0.097   4.115   5.093 -0.4629  0.1501  0.3631
 1402SOL    MW4 5382   0.084   4.137   5.176 -0.2025  0.6506 -0.6216
 1403SOL     OW 5383   1.663   0.213   4.701  0.0802  0.3681  0.0836
 1403SOL    HW2 5384   1.692   0.293   4.659 -0.0766 -1.1625 -3.2311
 1403SOL    HW3 5385   1.731   0.194   4.765  0.5384  2.6352  0.3535
 1403SOL    MW4 5386   1.676   0.221   4.704 -0.2291 -0.1057 -0.1027
 1404SOL     OW 5387   1.883   3.971   1.887 -0.4726  0.6188 -0.6220
 1404SOL    HW2 5388   1.976   3.963   1.866 -0.3536  2.9746 -1.3276
 1404SOL    HW3 5389   1.838   3.946   1.807 -0.4582 -0.3786 -0.3274
 1404SOL    MW4 5390   1.889   3.967   1.874 -0.1155  0.1266  0.4731
 1405SOL     OW 5391   4.947   3.703   5.598 -0.9073 -0.4093  0.2010
 1405SOL    HW2 5392   4.996   3.771   5.553 -1.1713 -0.3910 -0.0675
 1405SOL    HW3 5393   4.985   3.698   5.685  1.1863 -2.0630 -0.7239
 1405SOL    MW4 5394   4.958   3.711   5.603 -0.4455 -0.6302  0.4558
 1406SOL     OW 5395   1.651   4.849   3.372 -0.1917  0.6605  0.3639
 1406SOL    HW2 5396   1.670   4.777   3.312 -1.0840 -0.3829  1.3153
 1406SOL    HW3 5397   1.620   4.808   3.452 -2.3407  2.1263  0.3717
 1406SOL    MW4 5398   1.649   4.834   3.374  0.2680  0.0376 -0.3922
 1407SOL     OW 5399   5.846   3.395   5.766  0.1692  0.1927  0.2370
 1407SOL    HW2 5400   5.808   3.349   5.840  0.1084  1.2981  0.9146
 1407SOL    HW3 5401   5.857   3.328   5.698  0.4434 -0.8843  1.3178
 1407SOL    MW4 5402   5.843   3.380   5.767 -0.7701 -0.4029  0.2204
 1408SOL     OW 5403   3.552   1.632   3.480  0.1396  0.4027 -0.1065
 1408SOL    HW2 5404   3.647   1.620   3.491 -0.1209 -1.1856  0.7559
 1408SOL    HW3 5405   3.521   1.655   3.568 -0.2888  0.9207 -0.3878
 1408SOL    MW4 5406   3.561   1.634   3.493 -0.0520  0.0951 -0.2121
 1409SOL     OW 5407   5.651   0.340   5.127  0.3004 -0.3631 -0.5170
 1409SOL    HW2 5408   5.661   0.365   5.219  1.6845  1.3848 -1.0789
 1409SOL    HW3 5409   5.557   0.326   5.116  0.1906 -1.3849  1.3227
 1409SOL    MW4 5410   5.640   0.342   5.137  0.5984 -0.9902  0.5184
 1410SOL     OW 5411   0.082   4.599   2.230 -0.4988  0.0092 -0.0619
 1410SOL    HW2 5412   0.161   4.545   2.227 -1.3772 -1.3134 -0.1036
 1410SOL    HW3 5413   0.068   4.617   2.323  1.3367  2.6035 -0.1614
 1410SOL    MW4 5414   0.090   4.594   2.242 -0.1815  0.0941 -0.1309
 1411SOL     OW 5415   1.116   6.017   0.661 -0.0398 -0.1069 -0.0079
 1411SOL    HW2 5416   1.145   5.927   0.675 -0.9206 -0.5796 -1.0549
 1411SOL    HW3 5417   1.024   6.016   0.689  0.1804  0.6824  0.7653
 1411SOL    MW4 5418   1.107   6.005   0.667  0.4222  0.2070 -0.2541
 1412SOL     OW 5419   0.794   0.878   0.746 -0.7125 -0.2026 -0.7883
 1412SOL    HW2 5420   0.806   0.947   0.812 -2.1020  0.0279 -0.7486
 1412SOL    HW3 5421   0.815   0.797   0.793 -0.2404  0.0806 -0.4952
 1412SOL    MW4 5422   0.799   0.877   0.761 -0.3049 -0.5459  0.0426
 1413SOL     OW 5423   2.090   4.820   3.472  0.1567 -0.4377  0.4718
 1413SOL    HW2 5424   2.101   4.748   3.411 -1.5794 -0.9225  0.6846
 1413SOL    HW3 5425   2.029   4.880   3.428 -0.2456 -0.2601  1.2497
 1413SOL    MW4 5426   2.083   4.819   3.458  0.5424  0.3186 -0.6524
 1414SOL     OW 5427   1.145   2.688   1.360  0.3231  0.0671 -0.1072
 1414SOL    HW2 5428   1.232   2.686   1.319  0.4004  1.9132 -0.1032
 1414SOL    HW3 5429   1.132   2.780   1.384 -2.4645  0.2374 -1.8787
 1414SOL    MW4 5430   1.155   2.700   1.358 -0.7094 -0.1612  0.1846
 1415SOL     OW 5431   3.174   5.398   0.911 -0.6644  0.1604 -0.0859
 1415SOL    HW2 5432   3.232   5.439   0.975 -0.6811 -0.2786  0.2152
 1415SOL    HW3 5433   3.118   5.340   0.963 -0.3768 -0.5428 -0.5481
 1415SOL    MW4 5434   3.174   5.396   0.926 -0.1319  0.0329 -0.2405
 1416SOL     OW 5435   2.476   0.752   0.082 -0.3262 -0.3208 -0.4409
 1416SOL    HW2 5436   2.513   0.665   0.099 -0.7196 -0.1979  1.1750
 1416SOL    HW3 5437   2.552   0.810   0.080 -0.2105 -0.4396  0.3270
 1416SOL    MW4 5438   2.491   0.748   0.084 -0.0033 -0.1761 -0.5773
 1417SOL     OW 5439   3.820   3.454   1.172 -0.1859 -0.0252  0.2841
 1417SOL    HW2 5440   3.823   3.488   1.262  0.9312 -1.1543  0.7068
 1417SOL    HW3 5441   3.727   3.446   1.152 -0.4864 -1.3777  2.0031
 1417SOL    MW4 5442   3.808   3.458   1.181 -0.7755 -0.2902 -0.6613
 1418SOL     OW 5443   1.298   3.185   3.338 -0.6107 -0.1250  0.1547
 1418SOL    HW2 5444   1.346   3.262   3.309  2.4419 -1.4270  1.3390
 1418SOL    HW3 5445   1.277   3.138   3.257  0.3275  0.3697 -0.3890
 1418SOL    MW4 5446   1.301   3.189   3.323  0.1640  0.5614 -1.1660
 1419SOL     OW 5447   1.286   6.058   5.334  0.4891 -0.6925 -0.2043
 1419SOL    HW2 5448   1.255   6.140   5.295 -1.4021 -1.7125 -0.9803
 1419SOL    HW3 5449   1.290   6.076   5.428  2.5535  0.9949 -0.5217
 1419SOL    MW4 5450   1.283   6.072   5.341  0.3495 -0.3701 -0.0254
 1420SOL     OW 5451   4.627   2.293   6.289 -0.2124 -0.1849 -0.0194
 1420SOL    HW2 5452   4.711   2.302   6.333  1.3835 -2.6931 -2.2431
 1420SOL    HW3 5453   4.579   2.230   6.343  0.4483 -0.8072 -0.1361
 1420SOL    MW4 5454   4.632   2.286   6.302 -0.2335  0.3454  0.6753
 1421SOL     OW 5455   6.015   5.219   3.407  0.4983  0.3412  0.1807
 1421SOL    HW2 5456   5.923   5.243   3.422  0.3221 -1.4095  2.5352
 1421SOL    HW3 5457   6.023   5.132   3.446  3.1653  0.4415  0.0026
 1421SOL    MW4 5458   6.004   5.211   3.414 -0.3134 -0.2833  0.7939
 1422SOL     OW 5459   2.944   4.450   6.186 -0.2461  0.1940  0.1265
 1422SOL    HW2 5460   2.929   4.520   6.122 -1.4087 -0.4988 -0.3913
 1422SOL    HW3 5461   3.011   4.395   6.145  0.9377  1.1576  0.6924
 1422SOL    MW4 5462   2.951   4.452   6.172 -0.4107 -0.6500 -0.1173
 1423SOL     OW 5463   4.120   0.299   0.995 -0.6220 -0.3758 -0.5216
 1423SOL    HW2 5464   4.129   0.386   1.034 -2.6185 -0.2457 -0.2044
 1423SOL    HW3 5465   4.156   0.240   1.061 -2.3947 -0.0149  0.8701
 1423SOL    MW4 5466   4.126   0.303   1.009  0.9847 -0.1906 -0.4046
 1424SOL     OW 5467   2.601   3.560   5.388 -0.6248  0.5632  0.3576
 1424SOL    HW2 5468   2.681   3.611   5.376 -0.2822 -0.1545 -0.4637
 1424SOL    HW3 5469   2.613   3.517   5.472  1.5799 -2.5041 -1.3541
 1424SOL    MW4 5470   2.613   3.561   5.398  0.1588 -0.6829 -0.7768
 1425SOL     OW 5471   2.721   4.700   1.997 -1.0866  0.0966  0.1775
 1425SOL    HW2 5472   2.767   4.617   1.987 -1.0559  0.3081 -2.0389
 1425SOL    HW3 5473   2.782   4.766   1.965 -2.1289  0.6196 -0.8353
 1425SOL    MW4 5474   2.735   4.698   1.991  0.0649  0.2265 -0.0830
 1426SOL     OW 5475   4.630   3.524   5.028  0.4689 -0.5480 -0.2195
 1426SOL    HW2 5476   4.670   3.518   4.941 -2.3737 -0.2960 -1.6650
 1426SOL    HW3 5477   4.553   3.579   5.015 -1.0484 -1.9556  2.0832
 1426SOL    MW4 5478   4.625   3.531   5.015 -0.2769  0.0067 -0.1394
 1427SOL     OW 5479   3.232   4.611   1.828 -0.2693 -0.0304  0.0488
 1427SOL    HW2 5480   3.157   4.558   1.804 -1.6097  1.7388  0.0999
 1427SOL    HW3 5481   3.307   4.567   1.788 -1.3064 -1.8721  0.0453
 1427SOL    MW4 5482   3.232   4.598   1.819  0.1031 -0.1708  0.1988
 1428SOL     OW 5483   5.240   5.068   1.577 -0.4632 -0.6397  0.1540
 1428SOL    HW2 5484   5.252   5.022   1.660  0.8503 -0.4530  0.0919
 1428SOL    HW3 5485   5.212   5.156   1.602  1.2040 -0.1735  0.4944
 1428SOL    MW4 5486   5.238   5.074   1.591  0.6420 -0.3869  0.1458
 1429SOL     OW 5487   4.778   3.135   5.798 -0.1140  0.0643 -0.2861
 1429SOL    HW2 5488   4.701   3.168   5.844  0.2574 -0.0737  0.4448
 1429SOL    HW3 5489   4.839   3.110   5.867  0.4025 -0.2759 -0.8511
 1429SOL    MW4 5490   4.776   3.136   5.813  0.6565  0.2273  0.1615
 1430SOL     OW 5491   4.591   5.714   1.605 -0.5998 -0.5225 -0.2634
 1430SOL    HW2 5492   4.539   5.636   1.626 -1.8979  0.2591 -0.4926
 1430SOL    HW3 5493   4.547   5.753   1.530  0.1991  0.2930 -0.3213
 1430SOL    MW4 5494   4.578   5.709   1.598  0.3776 -0.2896  0.4170
 1431SOL     OW 5495   2.003   2.497   4.390  0.4408 -0.3836  0.4280
 1431SOL    HW2 5496   1.953   2.440   4.331 -0.7076  0.2779  0.7227
 1431SOL    HW3 5497   2.023   2.441   4.465 -0.6880 -0.4201  0.7241
 1431SOL    MW4 5498   1.999   2.482   4.392  0.5379  0.1840 -0.3079
 1432SOL     OW 5499   1.500   3.993   1.915  0.4516  0.5379 -0.2694
 1432SOL    HW2 5500   1.492   3.899   1.930  0.6922  0.5608  0.0081
 1432SOL    HW3 5501   1.446   4.010   1.838 -1.2225  0.5060  0.8580
 1432SOL    MW4 5502   1.492   3.983   1.907  0.6192 -0.0876  0.4562
 1433SOL     OW 5503   5.809   2.213   2.922  0.2921  0.4234  0.5315
 1433SOL    HW2 5504   5.754   2.185   2.849  2.4234  1.5952 -1.6777
 1433SOL    HW3 5505   5.747   2.237   2.991 -1.8581 -0.1879 -1.0770
 1433SOL    MW4 5506   5.794   2.212   2.922 -0.3319  0.4530  0.1991
 1434SOL     OW 5507   4.213   3.491   4.381 -0.0429  0.1128 -0.2114
 1434SOL    HW2 5508   4.167   3.432   4.322 -0.2085  0.8732 -0.8639
 1434SOL    HW3 5509   4.143   3.537   4.428  0.0877 -0.4503  0.5553
 1434SOL    MW4 5510   4.198   3.489   4.380 -0.1843 -0.2703 -0.5156
 1435SOL     OW 5511   2.481   3.725   2.429  0.0178  0.4519 -0.1299
 1435SOL    HW2 5512   2.481   3.661   2.500  1.1489  0.3318 -0.2287
 1435SOL    HW3 5513   2.443   3.678   2.355 -0.2906  0.2854  0.1275
 1435SOL    MW4 5514   2.476   3.710   2.429 -0.3515 -0.3430  0.1833
 1436SOL     OW 5515   6.093   1.272   2.091  0.8703  0.1496 -0.5526
 1436SOL    HW2 5516   6.113   1.358   2.052 -0.8256  1.6309  1.5940
 1436SOL    HW3 5517   6.089   1.289   2.185 -4.5742 -1.0051 -0.2404
 1436SOL    MW4 5518   6.095   1.286   2.098  0.1055 -0.4955 -0.1826
 1437SOL     OW 5519   3.353   2.818   3.133  0.3501 -0.6240 -0.1560
 1437SOL    HW2 5520   3.392   2.819   3.220  0.7119  0.1673 -0.3119
 1437SOL    HW3 5521   3.262   2.844   3.148  0.6585  0.5057 -0.0992
 1437SOL    MW4 5522   3.346   2.822   3.146  0.3878 -0.0645 -0.4953
 1438SOL     OW 5523   2.533   1.342   3.233 -0.3989 -0.4383  0.2872
 1438SOL    HW2 5524   2.523   1.371   3.324 -1.1633 -0.4311  0.2073
 1438SOL    HW3 5525   2.627   1.352   3.215 -0.2395 -0.4431  1.0723
 1438SOL    MW4 5526   2.544   1.347   3.243 -0.5279 -0.1360  0.1957
 1439SOL     OW 5527   3.476   4.602   1.344 -0.1536 -0.2016  0.4910
 1439SOL    HW2 5528   3.458   4.632   1.255 -0.3311 -0.9261  0.2798
 1439SOL    HW3 5529   3.411   4.647   1.398 -0.0245  0.2623  0.2630
 1439SOL    MW4 5530   3.465   4.612   1.339  0.1329 -0.3353  0.0896
 1440SOL     OW 5531   5.792   0.955   0.999 -0.1391 -0.1367 -0.0572
 1440SOL    HW2 5532   5.879   0.982   1.030 -0.3502  0.6098 -0.0860
 1440SOL    HW3 5533   5.780   0.867   1.035 -0.4920  0.7956  2.2620
 1440SOL    MW4 5534   5.802   0.947   1.008 -0.4353  0.5478 -0.5185
 1441SOL     OW 5535   5.675   5.456   5.408  0.2292 -0.0259 -0.4958
 1441SOL    HW2 5536   5.648   5.439   5.318  1.2915 -0.3589 -0.7689
 1441SOL    HW3 5537   5.642   5.544   5.427 -0.0885  0.0057 -1.1743
 1441SOL    MW4 5538   5.668   5.465   5.399 -0.3694  0.2716 -0.0055
 1442SOL     OW 5539   1.916   6.332   3.045 -0.2567 -0.9339 -0.0523
 1442SOL    HW2 5540   1.995   6.364   3.088 -0.4494 -0.5941  0.0562
 1442SOL    HW3 5541   1.935   6.338   2.952 -0.1245 -0.9325 -0.0262
 1442SOL    MW4 5542   1.929   6.337   3.038  0.2786  0.6228 -0.0488
 1443SOL     OW 5543   0.687   2.645   3.280 -0.1735  0.3061  0.9207
 1443SOL    HW2 5544   0.621   2.695   3.328 -1.5803  0.4211 -1.0202
 1443SOL    HW3 5545   0.637   2.579   3.232  0.8507  1.3441 -1.7921
 1443SOL    MW4 5546   0.672   2.643   3.280 -0.5975  0.3556  0.5190
 1444SOL     OW 5547   1.385   4.909   3.223 -0.0031 -0.0817 -0.1812
 1444SOL    HW2 5548   1.471   4.883   3.257  0.4004 -0.6687 -1.5750
 1444SOL    HW3 5549   1.400   4.926   3.130 -1.0015  1.8057 -0.0417
 1444SOL    MW4 5550   1.398   4.908   3.215  0.0056  0.4255  0.7753
 1445SOL     OW 5551   5.962   2.379   5.415  0.3040 -0.7175  0.0317
 1445SOL    HW2 5552   6.004   2.354   5.333  1.7201 -2.5755  1.2440
 1445SOL    HW3 5553   5.871   2.349   5.405 -0.0442  0.7285 -1.5103
 1445SOL    MW4 5554   5.955   2.371   5.403  0.0699 -0.2016  0.2002
 1446SOL     OW 5555   4.287   4.581   4.754 -0.2647  1.2567 -0.0859
 1446SOL    HW2 5556   4.210   4.632   4.730  0.1399  1.3348 -1.2940
 1446SOL    HW3 5557   4.257   4.491   4.759 -0.3044  1.1924 -1.2569
 1446SOL    MW4 5558   4.273   4.576   4.752 -0.1089 -0.2439  0.2938
 1447SOL     OW 5559   3.597   2.225   3.740  0.2558 -0.1112  0.3383
 1447SOL    HW2 5560   3.682   2.265   3.721 -0.1336  1.1716  1.1665
 1447SOL    HW3 5561   3.615   2.160   3.807  0.5985  0.1572  0.5095
 1447SOL    MW4 5562   3.610   2.222   3.746  0.5010  0.0884  0.1551
 1448SOL     OW 5563   3.398   3.985   4.575  0.4064  0.1614  0.2431
 1448SOL    HW2 5564   3.410   4.020   4.663  0.5047 -1.1559  0.7670
 1448SOL    HW3 5565   3.383   4.063   4.521 -1.0817  0.8962  1.6291
 1448SOL    MW4 5566   3.398   4.000   4.579 -0.0841  0.2185  0.0847
 1449SOL     OW 5567   5.792   2.451   1.339 -0.7491  0.4158 -0.1273
 1449SOL    HW2 5568   5.787   2.356   1.350 -0.5162  0.1935 -1.6798
 1449SOL    HW3 5569   5.701   2.481   1.344 -0.6911  0.3622  2.0690
 1449SOL    MW4 5570   5.779   2.442   1.341  0.1029  0.9342  0.2090
 1450SOL     OW 5571   2.501   1.201   1.137  0.1996 -0.5089  0.0261
 1450SOL    HW2 5572   2.554   1.131   1.099  0.1509 -0.1049 -0.8071
 1450SOL    HW3 5573   2.485   1.172   1.227  2.8269 -0.0872  0.7118
 1450SOL    MW4 5574   2.506   1.188   1.144  0.0446  0.1652  0.6366
 1451SOL     OW 5575   4.987   4.224   3.186  0.7160  0.0438 -0.3752
 1451SOL    HW2 5576   5.058   4.169   3.222  0.2742 -0.7617 -0.7038
 1451SOL    HW3 5577   4.907   4.176   3.208  0.2800  0.8724 -0.1454
 1451SOL    MW4 5578   4.986   4.210   3.193 -0.0818 -0.0208 -0.2511
 1452SOL     OW 5579   4.489   4.727   2.604 -0.0612  0.2639  0.8260
 1452SOL    HW2 5580   4.523   4.638   2.609  0.2751  0.4219  1.4454
 1452SOL    HW3 5581   4.400   4.720   2.641 -1.4681 -0.4871 -2.3796
 1452SOL    MW4 5582   4.481   4.715   2.610 -0.5791 -0.6946 -0.0673
 1453SOL     OW 5583   5.668   2.100   2.718 -0.0809 -0.1367 -0.2567
 1453SOL    HW2 5584   5.573   2.112   2.716 -0.0902 -0.2404 -0.3701
 1453SOL    HW3 5585   5.692   2.078   2.629  0.4575  2.9852 -1.0220
 1453SOL    MW4 5586   5.658   2.099   2.706 -0.3177  0.3300  0.0621
 1454SOL     OW 5587   0.660   5.703   4.686 -0.6470 -0.0105 -0.2138
 1454SOL    HW2 5588   0.703   5.620   4.706  1.7595  1.1676 -0.1401
 1454SOL    HW3 5589   0.651   5.703   4.590  0.7960  0.2723 -0.3675
 1454SOL    MW4 5590   0.664   5.692   4.676 -0.1468  0.4357 -0.4892
 1455SOL     OW 5591   0.747   1.300   3.856  0.5067  0.3087  0.0530
 1455SOL    HW2 5592   0.656   1.298   3.886  0.9185 -0.1793  1.3401
 1455SOL    HW3 5593   0.774   1.208   3.854  0.5023  0.3062 -1.9238
 1455SOL    MW4 5594   0.738   1.288   3.860 -0.0816 -0.7870  0.4681
 1456SOL     OW 5595   4.367   2.404   5.045  0.5668 -0.6133 -0.4727
 1456SOL    HW2 5596   4.407   2.424   4.960  0.6258 -2.3706 -0.9004
 1456SOL    HW3 5597   4.355   2.489   5.087 -1.1613  0.5096 -2.9779
 1456SOL    MW4 5598   4.371   2.418   5.039 -0.1649  0.1149  0.1114
 1457SOL     OW 5599   4.286   6.369   4.729  0.6240  0.3374  0.6157
 1457SOL    HW2 5600   4.329   6.406   4.806  0.1861  0.1963  0.9300
 1457SOL    HW3 5601   4.336   6.403   4.655  1.4137  0.0016  0.9832
 1457SOL    MW4 5602   4.298   6.378   4.729  0.5116  0.0263 -0.2511
 1458SOL     OW 5603   0.314   2.696   4.475 -0.4420  0.3430  0.0473
 1458SOL    HW2 5604   0.258   2.764   4.438  0.5874  1.4314  0.4124
 1458SOL    HW3 5605   0.372   2.743   4.535  1.8438 -0.4796 -1.3813
 1458SOL    MW4 5606   0.314   2.711   4.478  0.4528 -0.4990 -0.2276
 1459SOL     OW 5607   6.378   2.035   5.372 -0.3424 -0.3005 -0.2873
 1459SOL    HW2 5608   6.379   2.028   5.467 -0.8684 -0.3887 -0.2834
 1459SOL    HW3 5609   6.307   1.976   5.345 -3.0025  2.6877 -0.4614
 1459SOL    MW4 5610   6.369   2.026   5.381  0.6548  0.1303 -0.3430
 1460SOL     OW 5611   3.649   2.566   2.661  0.7054 -0.4767 -0.2071
 1460SOL    HW2 5612   3.646   2.499   2.730 -1.2883 -0.2140  0.0230
 1460SOL    HW3 5613   3.741   2.572   2.638  1.1126 -2.3072  0.7400
 1460SOL    MW4 5614   3.660   2.558   2.667  0.0463  0.4970 -0.4755
 1461SOL     OW 5615   4.441   3.840   6.353  0.3858 -0.3111 -0.4229
 1461SOL    HW2 5616   4.411   3.930   6.367  0.9489 -0.0100 -1.1178
 1461SOL    HW3 5617   4.364   3.794   6.319 -0.1698 -0.3372  0.8176
 1461SOL    MW4 5618   4.427   3.846   6.350  0.2732  0.3472 -0.6086
 1462SOL     OW 5619   4.649   3.296   3.102 -0.0248 -0.2096  0.0240
 1462SOL    HW2 5620   4.665   3.337   3.187 -0.4127 -0.6074  0.2966
 1462SOL    HW3 5621   4.642   3.369   3.041 -0.5038  0.1308  0.4701
 1462SOL    MW4 5622   4.650   3.311   3.105  0.0789 -0.0439 -0.2785
 1463SOL     OW 5623   2.797   3.731   4.783  0.3995 -0.3704 -0.1128
 1463SOL    HW2 5624   2.889   3.709   4.768  0.1128 -0.8156 -1.2645
 1463SOL    HW3 5625   2.800   3.804   4.845  1.4346 -2.5387  2.6089
 1463SOL    MW4 5626   2.809   3.738   4.789 -0.4944 -0.3309 -0.2988
 1464SOL     OW 5627   4.899   3.152   3.082  0.4054 -0.9608  0.1831
 1464SOL    HW2 5628   4.832   3.221   3.083 -0.4861 -1.8154  0.7648
 1464SOL    HW3 5629   4.937   3.157   2.995  0.6586  0.5493  0.3510
 1464SOL    MW4 5630   4.896   3.162   3.071 -0.0155 -0.1136  0.5789
 1465SOL     OW 5631   5.800   4.434   3.526  0.1169 -0.3337  0.4372
 1465SOL    HW2 5632   5.793   4.416   3.620  0.8948  1.0756  0.8056
 1465SOL    HW3 5633   5.743   4.510   3.512  0.7356  0.0595 -0.0195
 1465SOL    MW4 5634   5.792   4.442   3.537 -0.1976  0.4218 -0.1798
 1466SOL     OW 5635   3.891   2.286   4.735  0.1481  0.5130 -0.1397
 1466SOL    HW2 5636   3.831   2.315   4.666 -1.2560  0.5087  1.0347
 1466SOL    HW3 5637   3.977   2.286   4.693 -0.2593  3.0047 -1.1940
 1466SOL    MW4 5638   3.894   2.290   4.720 -0.6052 -0.4156  0.6388
 1467SOL     OW 5639   3.439   1.262   2.293 -0.5870  0.3073 -0.7238
 1467SOL    HW2 5640   3.372   1.267   2.225 -1.1250  0.9872 -0.1625
 1467SOL    HW3 5641   3.477   1.350   2.295  0.9913 -0.3227 -1.6835
 1467SOL    MW4 5642   3.435   1.274   2.285  0.3236  0.4733  0.1218
 1468SOL     OW 5643   3.747   1.746   3.812  0.5854  0.2708  0.0858
 1468SOL    HW2 5644   3.660   1.707   3.801  1.0531 -0.3880 -1.5609
 1468SOL    HW3 5645   3.791   1.690   3.875 -0.6141  1.4427  2.1143
 1468SOL    MW4 5646   3.741   1.734   3.819 -0.3122 -0.1225  0.0500
 1469SOL     OW 5647   3.384   0.458   2.467 -0.1972 -0.1629 -0.2596
 1469SOL    HW2 5648   3.401   0.379   2.518  1.0782  0.3160  0.1055
 1469SOL    HW3 5649   3.426   0.441   2.383  1.3004  0.6233  0.2864
 1469SOL    MW4 5650   3.392   0.445   2.463  0.4910 -0.1662  0.4040
 1470SOL     OW 5651   2.658   0.797   2.339 -0.5728  0.2326  0.2858
 1470SOL    HW2 5652   2.610   0.716   2.353  0.8016 -0.5898  0.4234
 1470SOL    HW3 5653   2.591   0.865   2.340 -1.6238 -0.7744  1.3033
 1470SOL    MW4 5654   2.643   0.796   2.341  0.6055  0.2265 -0.6314
 1471SOL     OW 5655   5.577   0.857   3.810  0.1946  0.1865 -0.3869
 1471SOL    HW2 5656   5.582   0.774   3.762  1.2470  0.2562 -0.4015
 1471SOL    HW3 5657   5.573   0.924   3.741  1.9016  0.2994 -0.4023
 1471SOL    MW4 5658   5.577   0.855   3.795  0.3364  0.0913  0.4011
 1472SOL     OW 5659   1.531   1.670   0.710 -0.2786 -0.4916 -0.3033
 1472SOL    HW2 5660   1.465   1.731   0.744 -0.7872 -1.2013  0.0118
 1472SOL    HW3 5661   1.614   1.704   0.743 -0.4618  0.4714 -0.7860
 1472SOL    MW4 5662   1.533   1.683   0.719  0.0014 -0.0370  0.1439
 1473SOL     OW 5663   5.487   5.740   2.416 -0.1449 -0.5468 -0.1871
 1473SOL    HW2 5664   5.446   5.740   2.502 -0.5681 -0.0808 -0.3791
 1473SOL    HW3 5665   5.571   5.784   2.430  0.6803 -2.2285  0.3692
 1473SOL    MW4 5666   5.493   5.746   2.429  0.1184 -0.2902  0.3590
 1474SOL     OW 5667   5.133   6.308   4.135 -0.1827 -0.0984 -0.3635
 1474SOL    HW2 5668   5.145   6.249   4.061  1.1440 -1.6580  1.0109
 1474SOL    HW3 5669   5.167   6.392   4.104  2.0535 -1.1426 -1.0098
 1474SOL    MW4 5670   5.139   6.311   4.121  0.3168  0.4834  0.2114
 1475SOL     OW 5671   1.713   3.330   5.683  0.1666  0.0011 -0.9787
 1475SOL    HW2 5672   1.799   3.354   5.648 -0.8304  0.9857 -2.9110
 1475SOL    HW3 5673   1.723   3.239   5.709  2.2618  0.5757  0.5017
 1475SOL    MW4 5674   1.726   3.321   5.682  0.0972  0.4083 -0.0878
 1476SOL     OW 5675   6.108   1.076   5.978 -0.5811  0.0737 -0.6250
 1476SOL    HW2 5676   6.180   1.109   5.924 -0.0564 -0.6395 -0.3823
 1476SOL    HW3 5677   6.031   1.083   5.922 -0.2461  0.4256 -1.0519
 1476SOL    MW4 5678   6.107   1.081   5.963 -0.4641 -0.2202  1.2665
 1477SOL     OW 5679   2.660   1.999   3.788 -0.4219 -0.3304  0.0111
 1477SOL    HW2 5680   2.631   1.908   3.797 -1.2108  0.0962  3.1681
 1477SOL    HW3 5681   2.633   2.040   3.870  3.1123  1.8956  0.2391
 1477SOL    MW4 5682   2.652   1.992   3.800 -0.1040  0.0550  0.6516
 1478SOL     OW 5683   6.317   3.594   2.177  0.2168 -0.1358 -0.1945
 1478SOL    HW2 5684   6.386   3.592   2.244  0.6415  1.9882 -0.5018
 1478SOL    HW3 5685   6.364   3.611   2.096 -0.3960 -1.7771 -0.9353
 1478SOL    MW4 5686   6.332   3.596   2.175 -0.1982  0.2537 -0.8443
 1479SOL     OW 5687   1.467   1.042   3.225 -0.1026 -0.2015 -0.5427
 1479SOL    HW2 5688   1.519   0.971   3.263  0.0083  0.3148  0.2955
 1479SOL    HW3 5689   1.497   1.048   3.134 -0.8131 -1.8673 -0.9137
 1479SOL    MW4 5690   1.478   1.034   3.218 -0.3515 -0.0864  0.7321
 1480SOL     OW 5691   2.146   5.523   4.698 -0.5298  0.6258  0.9429
 1480SOL    HW2 5692   2.178   5.611   4.677 -0.5427  0.5786  0.7239
 1480SOL    HW3 5693   2.206   5.464   4.651 -0.2905  0.5052  1.3944
 1480SOL    MW4 5694   2.158   5.527   4.689  0.0412  0.2230  0.0077
 1481SOL     OW 5695   2.328   0.019   2.666  0.3974 -0.3577 -0.2527
 1481SOL    HW2 5696   2.402  -0.035   2.635  1.2061 -0.1343  1.1926
 1481SOL    HW3 5697   2.289  -0.033   2.737 -0.5482 -0.2521 -0.6804
 1481SOL    MW4 5698   2.333   0.005   2.671 -0.4228  0.2634  0.1805
 1482SOL     OW 5699   2.829   2.121   6.266  0.2369 -0.0575  0.3118
 1482SOL    HW2 5700   2.781   2.204   6.269 -0.4048 -0.3368 -1.0507
 1482SOL    HW3 5701   2.774   2.060   6.314 -0.3973 -0.1747 -0.5272
 1482SOL    MW4 5702   2.815   2.124   6.273 -0.5852  0.1791 -0.5287
 1483SOL     OW 5703   3.097   0.038   0.842  0.0950 -0.7565  0.3606
 1483SOL    HW2 5704   3.168   0.101   0.856  1.2882 -1.6779 -1.1766
 1483SOL    HW3 5705   3.126  -0.041   0.890  0.6808 -1.4865 -1.1217
 1483SOL    MW4 5706   3.110   0.036   0.850 -0.3525  0.1994  0.0679
 1484SOL     OW 5707   0.097   4.796   0.924  0.5723  0.1088  0.1178
 1484SOL    HW2 5708   0.161   4.812   0.993  1.0528  0.0645 -0.3111
 1484SOL    HW3 5709   0.012   4.804   0.967  0.8679 -1.4040  1.0692
 1484SOL    MW4 5710   0.094   4.799   0.939 -0.0033 -0.2013 -0.4244
 1485SOL     OW 5711   3.465   0.931   0.526  0.1546  0.1999  0.1582
 1485SOL    HW2 5712   3.461   0.843   0.563  1.2501  0.7686  1.7186
 1485SOL    HW3 5713   3.535   0.927   0.461 -1.1432 -0.5566 -1.2676
 1485SOL    MW4 5714   3.474   0.919   0.522 -0.1645  0.8360 -0.5282
 1486SOL     OW 5715   1.976   6.263   3.512  0.0752 -0.3763 -0.7076
 1486SOL    HW2 5716   2.058   6.213   3.519  0.7167  0.8806  1.6917
 1486SOL    HW3 5717   1.908   6.196   3.514  0.9746 -1.3123  0.1989
 1486SOL    MW4 5718   1.978   6.247   3.513 -0.3753  0.1329 -0.0307
 1487SOL     OW 5719   3.019   5.077   5.327 -0.4376  0.9399  0.7480
 1487SOL    HW2 5720   2.955   5.081   5.256 -0.8556  0.0217  1.0550
 1487SOL    HW3 5721   3.090   5.135   5.299 -0.1903 -0.0789 -0.8210
 1487SOL    MW4 5722   3.020   5.085   5.314 -0.2494 -0.2103 -0.0478
 1488SOL     OW 5723   4.640   3.258   2.773  0.0659 -0.0015 -0.2433
 1488SOL    HW2 5724   4.699   3.332   2.762  1.5925 -1.3124 -1.5211
 1488SOL    HW3 5725   4.557   3.296   2.802  0.6578  2.2250 -1.3002
 1488SOL    MW4 5726   4.637   3.273   2.775  0.4917 -0.3322 -0.1853
 1489SOL     OW 5727   2.384   3.975   0.126 -0.1992  0.5157 -0.3181
 1489SOL    HW2 5728   2.470   4.008   0.099 -0.1346 -0.2032 -1.0115
 1489SOL    HW3 5729   2.360   4.031   0.201  0.6366  1.0525 -0.4322
 1489SOL    MW4 5730   2.393   3.987   0.132  0.2658 -0.1735  0.0327
 1490SOL     OW 5731   0.028   1.122   5.239  0.3957 -0.4202 -0.2125
 1490SOL    HW2 5732  -0.025   1.120   5.159  1.0575  1.8552 -0.7762
 1490SOL    HW3 5733  -0.034   1.101   5.309 -0.3169 -1.8858 -1.2285
 1490SOL    MW4 5734   0.013   1.119   5.238 -0.0060 -0.3721 -0.3593
 1491SOL     OW 5735   2.923   4.595   3.220  0.4739  0.2160 -0.0621
 1491SOL    HW2 5736   2.977   4.590   3.299 -0.1230 -0.5698  0.3101
 1491SOL    HW3 5737   2.980   4.636   3.155  1.2297  0.1853  0.5629
 1491SOL    MW4 5738   2.937   4.600   3.222  0.4181 -0.6252 -0.0680
 1492SOL     OW 5739   3.432   0.028   1.102  1.0785  0.1647 -0.3778
 1492SOL    HW2 5740   3.345   0.062   1.122  1.1275  0.7777 -1.1433
 1492SOL    HW3 5741   3.433  -0.060   1.139  0.0852  0.1013 -0.4779
 1492SOL    MW4 5742   3.421   0.021   1.110  0.1651 -0.0923 -0.4171
 1493SOL     OW 5743   3.181   0.406   5.204 -0.2821  0.1921  0.2802
 1493SOL    HW2 5744   3.089   0.410   5.177  0.0795  0.2123 -0.9978
 1493SOL    HW3 5745   3.229   0.448   5.133  0.4511  3.7332  2.5894
 1493SOL    MW4 5746   3.175   0.412   5.191 -0.2593 -0.0658  0.3697
 1494SOL     OW 5747   2.116   1.781   6.043 -0.2815 -0.1042  0.1521
 1494SOL    HW2 5748   2.204   1.791   6.008  0.1351  0.1154  1.2387
 1494SOL    HW3 5749   2.128   1.743   6.130 -1.1807  0.9358  0.7579
 1494SOL    MW4 5750   2.129   1.777   6.049  0.4085  0.0627 -0.2355
 1495SOL     OW 5751   5.353   6.142   4.232  0.0728 -0.3387 -0.0960
 1495SOL    HW2 5752   5.283   6.197   4.196  1.5489  0.8314 -1.3704
 1495SOL    HW3 5753   5.346   6.059   4.185 -0.7143 -0.3869  0.1024
 1495SOL    MW4 5754   5.343   6.139   4.221 -0.5061 -0.1653  0.6856
 1496SOL     OW 5755   2.495   3.299   1.967 -0.1050 -0.5991 -0.1575
 1496SOL    HW2 5756   2.462   3.340   1.886 -1.0243 -0.6457  0.1790
 1496SOL    HW3 5757   2.494   3.206   1.948 -0.5253 -0.6251 -0.0331
 1496SOL    MW4 5758   2.490   3.292   1.954 -0.3196 -0.4390  0.4369
 1497SOL     OW 5759   0.058   1.596   2.953 -0.1170 -0.2927 -0.0562
 1497SOL    HW2 5760   0.086   1.629   3.039 -0.4431  0.8445 -0.3642
 1497SOL    HW3 5761   0.067   1.672   2.895  0.4420 -1.1413 -1.1080
 1497SOL    MW4 5762   0.063   1.610   2.957 -0.2021 -0.1703 -0.1983
 1498SOL     OW 5763   5.049   3.357   6.293 -0.1810 -0.7478  0.0253
 1498SOL    HW2 5764   4.966   3.332   6.334 -0.2003  0.6216  0.8855
 1498SOL    HW3 5765   5.109   3.371   6.366  0.4290 -0.4245 -0.5275
 1498SOL    MW4 5766   5.046   3.356   6.308 -0.6798 -0.2721  1.1099
 1499SOL     OW 5767   3.021   0.102   2.271 -0.3427 -0.0355  0.1659
 1499SOL    HW2 5768   3.064   0.186   2.256 -2.5408  1.4913  1.7686
 1499SOL    HW3 5769   3.086   0.048   2.316  1.6906  0.0912 -2.3906
 1499SOL    MW4 5770   3.035   0.106   2.275 -0.3009 -0.1827  0.1900
 1500SOL     OW 5771   2.142   4.303   4.645  0.0985 -0.4324  0.6740
 1500SOL    HW2 5772   2.083   4.369   4.608  0.1976  0.1834  1.5725
 1500SOL    HW3 5773   2.084   4.239   4.685 -0.0621 -1.8654 -1.7098
 1500SOL    MW4 5774   2.127   4.304   4.646  0.4354 -0.0887  0.2694
 1501SOL     OW 5775   4.499   2.281   5.815 -0.0282  0.0605  0.1007
 1501SOL    HW2 5776   4.420   2.330   5.837 -0.2075 -0.0442 -0.2914
 1501SOL    HW3 5777   4.545   2.271   5.898 -0.3835  0.1999  0.3194
 1501SOL    MW4 5778   4.494   2.286   5.829  0.2910 -0.7928  0.1180
 1502SOL     OW 5779   0.429   6.103   1.343 -0.2708  0.4314  0.2407
 1502SOL    HW2 5780   0.468   6.175   1.293  1.3050  1.1911  2.3711
 1502SOL    HW3 5781   0.499   6.037   1.347 -0.7552 -0.0708  0.4949
 1502SOL    MW4 5782   0.444   6.104   1.337  0.0334 -0.7700 -0.6246
 1503SOL     OW 5783   2.090   4.002   2.598  0.5878  0.0172  0.2038
 1503SOL    HW2 5784   2.120   4.092   2.610  0.5966  0.0108  0.2321
 1503SOL    HW3 5785   2.163   3.959   2.554 -1.0962  1.1450 -4.1889
 1503SOL    MW4 5786   2.104   4.008   2.594 -0.0218  0.1893  0.1462
 1504SOL     OW 5787   4.466   3.348   4.922 -0.0629  0.0879 -0.5024
 1504SOL    HW2 5788   4.525   3.418   4.947 -1.1432  0.8320  0.0577
 1504SOL    HW3 5789   4.473   3.344   4.826  0.6818  0.3348 -0.4654
 1504SOL    MW4 5790   4.474   3.357   4.912 -0.2570 -0.1850  0.2301
 1505SOL     OW 5791   1.487   4.587   6.356 -0.5176  0.2913  0.1209
 1505SOL    HW2 5792   1.396   4.599   6.383 -0.8646 -1.4208 -0.1365
 1505SOL    HW3 5793   1.532   4.560   6.437 -0.4711  0.0921  0.0291
 1505SOL    MW4 5794   1.481   4.585   6.370  0.0650  0.5547  0.0932
 1506SOL     OW 5795   3.045   5.045   3.083  0.2725  0.4335 -0.6515
 1506SOL    HW2 5796   3.058   4.953   3.104  2.2593  0.6649 -0.7032
 1506SOL    HW3 5797   3.108   5.063   3.014  0.9277  2.1741  0.3482
 1506SOL    MW4 5798   3.055   5.035   3.077 -0.4698 -0.5656  0.1470
 1507SOL     OW 5799   5.504   1.484   1.216  1.0248  0.3219 -0.1623
 1507SOL    HW2 5800   5.485   1.395   1.247 -0.5852  0.6904  0.0327
 1507SOL    HW3 5801   5.427   1.534   1.242  0.7999  1.2534 -2.4244
 1507SOL    MW4 5802   5.491   1.479   1.224  0.3746  0.3427 -0.4253
 1508SOL     OW 5803   4.109   4.138   1.651 -0.8643  0.6254  0.2532
 1508SOL    HW2 5804   4.024   4.177   1.670 -0.6850  0.8739  0.5447
 1508SOL    HW3 5805   4.126   4.079   1.724 -1.4550 -0.5559 -0.5262
 1508SOL    MW4 5806   4.100   4.135   1.663  0.2332 -0.2282  0.0520
 1509SOL     OW 5807   3.948   5.116   0.858 -0.0922 -0.6122  0.0409
 1509SOL    HW2 5808   3.958   5.152   0.770 -2.8397 -3.1062 -1.4229
 1509SOL    HW3 5809   3.886   5.175   0.901  0.4209 -0.0102 -0.0193
 1509SOL    MW4 5810   3.941   5.129   0.852  0.2626  0.0905 -0.1908
 1510SOL     OW 5811   5.355   4.400   1.283  0.3876 -0.6266  0.3453
 1510SOL    HW2 5812   5.355   4.329   1.347 -2.2103 -0.3515  0.7838
 1510SOL    HW3 5813   5.345   4.356   1.198 -2.1733 -0.8732  0.6824
 1510SOL    MW4 5814   5.354   4.385   1.280 -0.3235  0.1680 -0.3350
 1511SOL     OW 5815   0.785   2.247   1.602 -0.1480  0.2803 -0.4240
 1511SOL    HW2 5816   0.784   2.285   1.514 -0.5808  3.2934  0.7579
 1511SOL    HW3 5817   0.706   2.194   1.606 -1.5883  2.2548 -1.0622
 1511SOL    MW4 5818   0.774   2.245   1.591  0.1604 -0.4285  0.1203
 1512SOL     OW 5819   1.328   1.823   3.659  0.5573  0.2857 -0.2125
 1512SOL    HW2 5820   1.353   1.914   3.642 -0.7667  0.7330  0.1552
 1512SOL    HW3 5821   1.242   1.813   3.618  0.8264 -0.8992 -0.5256
 1512SOL    MW4 5822   1.320   1.833   3.651 -0.2829 -0.4311  0.1938
 1513SOL     OW 5823   1.936   3.852   0.595  0.2155 -0.1359 -0.3240
 1513SOL    HW2 5824   1.906   3.896   0.515  2.6908 -0.2965 -1.4349
 1513SOL    HW3 5825   1.977   3.921   0.647 -1.7397  0.0543  1.1073
 1513SOL    MW4 5826   1.937   3.866   0.591  0.2383 -0.4812 -0.1630
 1514SOL     OW 5827   6.315   5.645   4.808  0.2543 -0.7323  0.7117
 1514SOL    HW2 5828   6.341   5.734   4.833 -1.1505 -0.6186  1.8602
 1514SOL    HW3 5829   6.369   5.626   4.731 -0.5231  1.7289 -0.5722
 1514SOL    MW4 5830   6.326   5.655   4.801 -0.3201 -0.9722 -0.2078
 1515SOL     OW 5831   5.478   6.268   2.284  0.4438  0.0102  0.1826
 1515SOL    HW2 5832   5.546   6.214   2.244 -0.6271 -0.5872 -0.8854
 1515SOL    HW3 5833   5.465   6.340   2.222  0.4353  0.3907  0.6178
 1515SOL    MW4 5834   5.485   6.271   2.271 -0.0723  0.2272 -0.0512
 1516SOL     OW 5835   3.380   1.937   3.771 -0.0156 -0.0030  0.1497
 1516SOL    HW2 5836   3.290   1.965   3.791 -0.6405 -0.1995 -2.1247
 1516SOL    HW3 5837   3.408   1.994   3.699  1.2842 -0.6591  0.1135
 1516SOL    MW4 5838   3.371   1.948   3.764 -0.4148  0.3310 -0.4028
 1517SOL     OW 5839   2.309   4.297   4.022  0.7025 -0.0334  0.3747
 1517SOL    HW2 5840   2.381   4.271   4.079  1.9209 -0.5931 -1.3280
 1517SOL    HW3 5841   2.292   4.220   3.967  0.0238  0.6866 -0.4641
 1517SOL    MW4 5842   2.316   4.284   4.022 -0.5341  0.1597 -0.2309
 1518SOL     OW 5843   5.785   4.170   0.244  0.1157 -0.0930  0.3064
 1518SOL    HW2 5844   5.728   4.219   0.185 -0.3414  0.1922  0.9658
 1518SOL    HW3 5845   5.781   4.080   0.213  0.2097  0.1168 -0.3396
 1518SOL    MW4 5846   5.777   4.165   0.232  0.2061 -0.1665 -0.3263
 1519SOL     OW 5847   4.391   3.329   5.553  0.1550 -0.3233 -0.6482
 1519SOL    HW2 5848   4.344   3.280   5.486 -0.9203 -0.0670 -0.0947
 1519SOL    HW3 5849   4.323   3.363   5.611  1.0662 -0.7084  0.6928
 1519SOL    MW4 5850   4.376   3.327   5.552 -0.0467  0.0417  0.3951
 1520SOL     OW 5851   6.135   0.586   5.029 -0.3567  0.7092  0.4715
 1520SOL    HW2 5852   6.194   0.604   5.102  1.4501 -1.1419 -0.4419
 1520SOL    HW3 5853   6.078   0.515   5.060  0.8471 -0.5339 -0.0912
 1520SOL    MW4 5854   6.135   0.579   5.042  0.4316  0.2010  0.1053
 1521SOL     OW 5855   5.504   4.525   6.065 -0.0554 -0.6916 -0.5342
 1521SOL    HW2 5856   5.593   4.503   6.093 -0.6356 -1.2263  1.0274
 1521SOL    HW3 5857   5.516   4.580   5.988  1.6905  0.6454  0.5887
 1521SOL    MW4 5858   5.517   4.529   6.059 -0.0784 -0.4893  0.2356
 1522SOL     OW 5859   2.848   1.121   1.040  0.0832 -0.3381  0.2746
 1522SOL    HW2 5860   2.847   1.190   0.974  0.6263 -0.2915  0.3080
 1522SOL    HW3 5861   2.778   1.061   1.014 -0.5435  0.3418  0.3743
 1522SOL    MW4 5862   2.839   1.122   1.028 -0.0761 -0.8085  0.0096
 1523SOL     OW 5863   0.083   1.375   1.830 -0.1139 -0.0027  0.6852
 1523SOL    HW2 5864   0.170   1.356   1.796 -0.0643 -0.3256  0.9910
 1523SOL    HW3 5865   0.096   1.453   1.884  0.5265 -1.5264  2.8863
 1523SOL    MW4 5866   0.096   1.383   1.832  0.5727 -0.1940 -0.4530
 1524SOL     OW 5867   4.609   5.708   0.270  0.9151  0.1584 -0.0649
 1524SOL    HW2 5868   4.657   5.629   0.244  0.6937  0.5089 -1.6187
 1524SOL    HW3 5869   4.638   5.775   0.208 -0.2946  0.8179  0.0571
 1524SOL    MW4 5870   4.619   5.706   0.258  0.9396  0.4707 -0.2626
 1525SOL     OW 5871   5.501   3.084   3.875  0.0066 -0.2826  0.9392
 1525SOL    HW2 5872   5.498   3.098   3.780  2.1825  0.8914  0.9845
 1525SOL    HW3 5873   5.415   3.115   3.906 -0.8492 -0.9530 -0.6420
 1525SOL    MW4 5874   5.489   3.090   3.866  0.4884 -0.5916 -0.3163
 1526SOL     OW 5875   1.774   2.649   5.903 -0.6900  0.3041  0.2562
 1526SOL    HW2 5876   1.867   2.665   5.890 -1.0750  1.2573 -1.6689
 1526SOL    HW3 5877   1.762   2.557   5.880 -0.5079  0.6788 -1.4638
 1526SOL    MW4 5878   1.784   2.639   5.899 -0.0105 -0.7402 -0.1137
 1527SOL     OW 5879   0.797   1.354   0.405 -0.4160  0.1074  0.1520
 1527SOL    HW2 5880   0.811   1.294   0.332 -1.3451  0.4233 -0.3064
 1527SOL    HW3 5881   0.842   1.313   0.479  0.6098 -0.1705 -0.6111
 1527SOL    MW4 5882   0.805   1.341   0.405  0.1151  0.3004 -0.1066
 1528SOL     OW 5883   4.002   3.699   4.429  0.1225  0.1106  0.3818
 1528SOL    HW2 5884   4.002   3.787   4.465  2.8298 -0.0857  1.0955
 1528SOL    HW3 5885   3.965   3.709   4.341  0.9558  2.0814  0.2064
 1528SOL    MW4 5886   3.997   3.712   4.422  0.2694 -0.1180  0.4660
 1529SOL     OW 5887   2.171   3.396   3.171 -0.1580 -0.2478  0.6218
 1529SOL    HW2 5888   2.167   3.356   3.258  1.3446 -0.2219  0.7401
 1529SOL    HW3 5889   2.136   3.330   3.112 -2.8949  0.3994  1.4037
 1529SOL    MW4 5890   2.166   3.382   3.175  0.4895 -0.8065  0.0607
 1530SOL     OW 5891   2.200   0.350   4.494  0.1223  0.1482  0.2102
 1530SOL    HW2 5892   2.219   0.443   4.509 -1.3394  0.6783 -0.9691
 1530SOL    HW3 5893   2.203   0.340   4.399  0.8650 -1.1727  0.3487
 1530SOL    MW4 5894   2.203   0.361   4.484 -0.4096  0.7704  0.7467
 1531SOL     OW 5895   4.428   2.769   3.535  0.2181  0.4158  0.5176
 1531SOL    HW2 5896   4.444   2.798   3.445  2.4321  1.4442  1.1669
 1531SOL    HW3 5897   4.473   2.685   3.542 -0.9854 -0.2734  0.3764
 1531SOL    MW4 5898   4.436   2.762   3.524  0.3283 -0.4422  0.4804
 1532SOL     OW 5899   1.907   4.525   5.757 -0.8480  0.3435 -0.0109
 1532SOL    HW2 5900   1.814   4.547   5.755 -1.2152 -0.9017  1.5213
 1532SOL    HW3 5901   1.926   4.507   5.849  1.1209  1.3426 -0.1687
 1532SOL    MW4 5902   1.897   4.526   5.769 -0.7708 -0.3526  0.3702
 1533SOL     OW 5903   3.336   1.657   2.410  0.0235  0.0579  0.0925
 1533SOL    HW2 5904   3.377   1.728   2.360 -0.6875 -0.6685 -1.5968
 1533SOL    HW3 5905   3.404   1.590   2.415  0.2637  0.3311  0.5582
 1533SOL    MW4 5906   3.351   1.658   2.404 -0.5452  0.1847  0.5163
 1534SOL     OW 5907   0.305   0.895   4.370  0.0321  0.1051  0.1617
 1534SOL    HW2 5908   0.334   0.847   4.293  0.3367  2.7226 -1.4741
 1534SOL    HW3 5909   0.376   0.956   4.389 -0.6232  0.4343  1.7014
 1534SOL    MW4 5910   0.318   0.897   4.362  0.1061 -0.1658 -0.4074
 1535SOL     OW 5911   3.038   6.408   4.046  0.1631 -0.0008 -0.1082
 1535SOL    HW2 5912   2.988   6.486   4.020  0.2019  0.1214  0.1801
 1535SOL    HW3 5913   2.971   6.341   4.062  0.0587  0.2946  0.7200
 1535SOL    MW4 5914   3.022   6.409   4.045  0.1503 -0.2645 -0.1453
 1536SOL     OW 5915   0.307   4.299   1.767  0.1104  0.5088 -0.0619
 1536SOL    HW2 5916   0.249   4.238   1.722  0.5392 -0.3452  0.5223
 1536SOL    HW3 5917   0.283   4.385   1.732 -2.1581  0.2996  0.8615
 1536SOL    MW4 5918   0.296   4.302   1.756  0.5585  0.2208  0.3624
 1537SOL     OW 5919   1.770   2.479   1.044  0.2691  0.4086 -0.1147
 1537SOL    HW2 5920   1.846   2.442   1.089 -0.0299  1.9939  1.8621
 1537SOL    HW3 5921   1.746   2.414   0.979  2.3382 -0.8500  0.2875
 1537SOL    MW4 5922   1.777   2.466   1.041  0.4650 -0.4278  0.0200
 1538SOL     OW 5923   0.337   0.954   2.245  0.3657 -0.4412 -0.5317
 1538SOL    HW2 5924   0.273   0.945   2.315  0.6435 -0.8993 -0.3273
 1538SOL    HW3 5925   0.361   0.864   2.222  1.5766 -0.2794  0.0017
 1538SOL    MW4 5926   0.332   0.941   2.251  0.8359 -0.3193  0.4405
 1539SOL     OW 5927   5.636   4.307   2.419 -0.4820  0.5170  0.5709
 1539SOL    HW2 5928   5.692   4.253   2.475 -0.8842  0.2116  0.6820
 1539SOL    HW3 5929   5.695   4.341   2.351 -0.1156  0.3937  0.8240
 1539SOL    MW4 5930   5.651   4.304   2.417 -0.3825  0.3843 -0.2501
 1540SOL     OW 5931   3.884   2.276   5.465  0.5313 -0.1865  0.4386
 1540SOL    HW2 5932   3.835   2.242   5.540 -1.9425 -1.3403 -1.5556
 1540SOL    HW3 5933   3.926   2.199   5.427  0.6967  0.1663 -0.1099
 1540SOL    MW4 5934   3.883   2.261   5.470  0.7731  0.2932 -0.0841
 1541SOL     OW 5935   3.980   1.436   0.831 -0.2857  0.3169 -0.2392
 1541SOL    HW2 5936   4.004   1.391   0.912 -1.4030  1.6100  0.8622
 1541SOL    HW3 5937   4.063   1.459   0.790  0.3286  0.6757  1.1518
 1541SOL    MW4 5938   3.994   1.433   0.836  0.1368 -0.1319 -0.3695
 1542SOL     OW 5939   4.859   1.344   5.457  0.1291  0.0801  0.1089
 1542SOL    HW2 5940   4.770   1.330   5.423  0.0096 -0.1421  0.5081
 1542SOL    HW3 5941   4.846   1.388   5.541  0.4092  0.2725  0.0518
 1542SOL    MW4 5942   4.846   1.348   5.464  0.4112  0.5038  0.2841
 1543SOL     OW 5943   0.478   4.652   5.770 -0.0770  0.1818  1.2154
 1543SOL    HW2 5944   0.527   4.733   5.782 -1.3525  1.0269  0.9839
 1543SOL    HW3 5945   0.502   4.622   5.683 -1.3032  1.5761  0.3508
 1543SOL    MW4 5946   0.488   4.659   5.760 -0.1017 -0.6228  0.2107
 1544SOL     OW 5947   5.273   3.559   0.497 -0.2426  0.4864  0.1541
 1544SOL    HW2 5948   5.316   3.587   0.416 -0.5245 -0.1669 -0.2271
 1544SOL    HW3 5949   5.288   3.631   0.558 -1.2752  1.6618 -0.9104
 1544SOL    MW4 5950   5.281   3.572   0.494 -0.2343  0.6112 -0.5400
 1545SOL     OW 5951   0.047   6.154   1.848  0.4210  0.3057 -0.0330
 1545SOL    HW2 5952  -0.042   6.159   1.814  0.2658 -0.4126  0.2403
 1545SOL    HW3 5953   0.066   6.242   1.879  0.3456  0.8253 -1.4073
 1545SOL    MW4 5954   0.038   6.166   1.848 -0.8126  0.0486 -0.1477
 1546SOL     OW 5955   6.237   2.636   2.786  0.0448  0.8116 -0.1667
 1546SOL    HW2 5956   6.305   2.701   2.768  0.9503  0.1255  0.6868
 1546SOL    HW3 5957   6.262   2.597   2.869 -0.2269 -0.9482 -0.8592
 1546SOL    MW4 5958   6.249   2.639   2.794 -0.0495 -0.2621 -0.0080
 1547SOL     OW 5959   0.892   4.981   0.771 -0.2891 -0.0355  0.0236
 1547SOL    HW2 5960   0.814   4.927   0.752 -0.0520  0.0060 -1.1470
 1547SOL    HW3 5961   0.965   4.921   0.757 -0.0680  0.2284  0.0655
 1547SOL    MW4 5962   0.891   4.966   0.767 -0.2463 -0.0996  0.1868
 1548SOL     OW 5963   3.405   2.893   4.288  0.1545 -0.5889  0.0598
 1548SOL    HW2 5964   3.456   2.902   4.368  2.9333 -2.1869 -1.3976
 1548SOL    HW3 5965   3.414   2.977   4.244  0.4809 -0.4488  0.3889
 1548SOL    MW4 5966   3.413   2.905   4.293  0.1366 -0.1664  0.3966
 1549SOL     OW 5967   4.761   3.207   3.498 -0.2628  0.0692  0.2414
 1549SOL    HW2 5968   4.675   3.174   3.471  0.3266 -0.6199 -0.9095
 1549SOL    HW3 5969   4.786   3.268   3.428  0.7504 -0.7704 -0.1595
 1549SOL    MW4 5970   4.753   3.211   3.485 -0.4224  0.4728  0.0608
 1550SOL     OW 5971   5.518   4.774   1.251  0.5841 -0.4490 -1.0024
 1550SOL    HW2 5972   5.463   4.801   1.177  0.5269  0.6240 -0.5934
 1550SOL    HW3 5973   5.458   4.766   1.325  0.8642  0.0457 -0.7152
 1550SOL    MW4 5974   5.503   4.777   1.251 -0.0163  0.0326 -0.3160
 1551SOL     OW 5975   2.211   2.897   3.012 -0.2293 -0.2062 -0.4242
 1551SOL    HW2 5976   2.273   2.931   2.947 -1.7692 -0.0218 -1.8504
 1551SOL    HW3 5977   2.228   2.803   3.015 -0.9789 -0.4182 -2.0719
 1551SOL    MW4 5978   2.222   2.889   3.004 -0.0925 -0.3390  0.1519
 1552SOL     OW 5979   3.521   4.527   1.014  0.0600  0.5913  0.0706
 1552SOL    HW2 5980   3.612   4.554   0.999  0.5362 -1.2457 -0.5863
 1552SOL    HW3 5981   3.487   4.508   0.926 -0.1346 -1.1678  0.4896
 1552SOL    MW4 5982   3.528   4.528   1.000 -0.8816  0.0283 -0.2324
 1553SOL     OW 5983   6.103   4.502   2.146 -0.6199 -0.3290  0.9946
 1553SOL    HW2 5984   6.031   4.498   2.208 -2.1426  1.5454 -0.5117
 1553SOL    HW3 5985   6.146   4.586   2.163  0.0325 -0.5874  0.6699
 1553SOL    MW4 5986   6.100   4.512   2.156  0.3921 -0.1088 -0.6807
 1554SOL     OW 5987   0.646   3.370   0.459  0.0290 -0.6195  0.6588
 1554SOL    HW2 5988   0.721   3.380   0.401 -0.1805 -1.4305  0.2385
 1554SOL    HW3 5989   0.590   3.445   0.438 -0.6562 -1.5738 -1.1196
 1554SOL    MW4 5990   0.649   3.381   0.449 -0.7093  0.2162 -0.3897
 1555SOL     OW 5991   4.535   0.557   2.690  0.1112 -0.3260 -0.0729
 1555SOL    HW2 5992   4.488   0.640   2.681  0.3126 -0.2700 -0.6772
 1555SOL    HW3 5993   4.470   0.490   2.670 -0.3312 -0.3857  1.4388
 1555SOL    MW4 5994   4.521   0.559   2.686  0.0117  0.6907  0.2330
 1556SOL     OW 5995   2.615   1.458   2.772 -0.5050  0.2455 -0.0484
 1556SOL    HW2 5996   2.631   1.552   2.787 -0.5248 -0.1804  3.4298
 1556SOL    HW3 5997   2.700   1.417   2.783 -0.6314 -0.2534 -0.8311
 1556SOL    MW4 5998   2.628   1.465   2.776 -0.3737 -0.3494 -0.6977
 1557SOL     OW 5999   3.211   4.245   2.044  0.1001  0.0353  0.1972
 1557SOL    HW2 6000   3.273   4.227   1.973  0.4452 -0.8641  0.7123
 1557SOL    HW3 6001   3.233   4.334   2.073  1.0771 -0.2202  0.2883
 1557SOL    MW4 6002   3.222   4.255   2.039 -0.4893  0.5341 -0.7050
 1558SOL     OW 6003   3.495   3.532   1.357  0.8521 -0.0979 -0.0207
 1558SOL    HW2 6004   3.479   3.504   1.268  2.4539  0.2639 -0.4524
 1558SOL    HW3 6005   3.542   3.459   1.398  1.0374  0.1501  0.2146
 1558SOL    MW4 6006   3.499   3.519   1.351 -0.0853  0.0404  0.1174
 1559SOL     OW 6007   4.579   0.519   4.013 -0.3624 -0.1948  0.0505
 1559SOL    HW2 6008   4.648   0.534   4.078  0.5241  0.7208 -1.0584
 1559SOL    HW3 6009   4.498   0.535   4.061  0.1862 -1.0018  1.3074
 1559SOL    MW4 6010   4.578   0.523   4.028 -0.4203  0.4011 -0.4894
 1560SOL     OW 6011   0.479   6.235   0.776  0.3743 -0.0271  0.0774
 1560SOL    HW2 6012   0.442   6.319   0.749 -2.2572 -1.0782  0.1430
 1560SOL    HW3 6013   0.527   6.204   0.700  1.5094  1.5618  0.1048
 1560SOL    MW4 6014   0.480   6.242   0.763  0.0532  0.3980  0.1288
 1561SOL     OW 6015   0.399   5.859   6.205  0.8960 -0.0238  0.2897
 1561SOL    HW2 6016   0.318   5.908   6.217  2.0655  1.7118  1.6381
 1561SOL    HW3 6017   0.441   5.900   6.129  1.6601  0.8209  1.1386
 1561SOL    MW4 6018   0.394   5.871   6.196 -0.2029  0.0143  0.2714
 1562SOL     OW 6019   5.826   5.761   6.009  0.1227 -0.0464  0.0455
 1562SOL    HW2 6020   5.738   5.724   5.999  1.1950 -3.1523  0.9082
 1562SOL    HW3 6021   5.856   5.775   5.919 -0.4410 -1.0900 -0.3235
 1562SOL    MW4 6022   5.818   5.758   5.996 -0.0930  0.4911 -0.0131
 1563SOL     OW 6023   2.954   2.045   4.723 -0.5650  0.2241  0.3952
 1563SOL    HW2 6024   2.999   2.127   4.698  2.4480 -1.5740 -0.6666
 1563SOL    HW3 6025   2.925   2.008   4.640  1.6680 -1.5984  0.3387
 1563SOL    MW4 6026   2.956   2.051   4.709  0.2060  0.1968 -0.4796
 1564SOL     OW 6027   1.421   5.614   2.378 -0.1177  0.0167  0.6930
 1564SOL    HW2 6028   1.351   5.586   2.437 -0.5252 -1.0108 -0.2285
 1564SOL    HW3 6029   1.473   5.676   2.429 -1.9341  1.1498  1.2822
 1564SOL    MW4 6030   1.418   5.619   2.392 -0.3583  0.2128  0.7544
 1565SOL     OW 6031   3.581   5.018   2.671 -0.1727  0.3494 -0.4366
 1565SOL    HW2 6032   3.542   5.100   2.640 -0.3218  0.0398 -1.0884
 1565SOL    HW3 6033   3.519   4.984   2.735  0.1797  1.0454  0.3015
 1565SOL    MW4 6034   3.568   5.025   2.675 -0.5391  0.8534  0.1488
 1566SOL     OW 6035   4.521   1.260   2.493 -0.0356  0.0550 -0.3789
 1566SOL    HW2 6036   4.481   1.204   2.559  1.2479 -1.1505 -0.5864
 1566SOL    HW3 6037   4.614   1.263   2.516 -0.0040  1.8559 -0.5688
 1566SOL    MW4 6038   4.528   1.253   2.505 -0.0860 -0.4978 -0.2361
 1567SOL     OW 6039   1.146   3.019   0.580  0.2940  0.4707  0.5744
 1567SOL    HW2 6040   1.125   3.100   0.626 -0.9966  0.1886  0.5095
 1567SOL    HW3 6041   1.080   2.957   0.610  1.1143 -0.5003  0.4392
 1567SOL    MW4 6042   1.135   3.021   0.590  0.1937 -0.1199  0.1415
 1568SOL     OW 6043   3.968   1.108   6.322  0.3229  0.1084 -0.1523
 1568SOL    HW2 6044   3.896   1.050   6.299  1.4407  0.0236 -4.2285
 1568SOL    HW3 6045   4.037   1.051   6.356  0.0234 -0.4111 -0.4221
 1568SOL    MW4 6046   3.968   1.093   6.323 -0.3682  0.2552 -0.3691
 1569SOL     OW 6047   1.371   1.786   2.469 -0.0815 -0.3173 -0.0809
 1569SOL    HW2 6048   1.312   1.840   2.417 -0.9479 -1.4166 -0.2883
 1569SOL    HW3 6049   1.392   1.711   2.413  0.3808 -0.6516  0.5102
 1569SOL    MW4 6050   1.366   1.783   2.455  0.1374  0.2969  1.0711
 1570SOL     OW 6051   3.628   5.222   0.026  1.0433 -0.7426 -0.1312
 1570SOL    HW2 6052   3.562   5.290   0.037  1.4513  0.3234 -3.2908
 1570SOL    HW3 6053   3.655   5.201   0.115 -1.3255  0.9754  1.1174
 1570SOL    MW4 6054   3.623   5.228   0.039  0.3474 -1.0358  0.7995
 1571SOL     OW 6055   0.215   2.536   1.823 -0.0124 -0.2512 -0.4505
 1571SOL    HW2 6056   0.145   2.503   1.767  1.8772 -0.4891 -2.8575
 1571SOL    HW3 6057   0.201   2.631   1.826 -1.6735 -0.5039  0.9891
 1571SOL    MW4 6058   0.204   2.545   1.816  0.3063 -0.3275 -0.3518
 1572SOL     OW 6059   0.198   2.282   3.705 -0.3612 -0.1283  0.2874
 1572SOL    HW2 6060   0.192   2.230   3.626 -1.7746 -0.5485  0.6504
 1572SOL    HW3 6061   0.152   2.364   3.684 -1.2833 -0.4856  0.8422
 1572SOL    MW4 6062   0.191   2.286   3.692 -0.2052 -0.0737  0.3746
 1573SOL     OW 6063   0.276   3.609   1.002 -0.2573 -0.4208  0.1291
 1573SOL    HW2 6064   0.355   3.596   1.054 -0.3148 -2.2551 -0.1917
 1573SOL    HW3 6065   0.235   3.687   1.040  0.7764 -0.4817  1.4361
 1573SOL    MW4 6066   0.281   3.618   1.014 -0.1712  0.3328  0.1212
 1574SOL     OW 6067   4.019   3.699   2.943 -0.5409 -0.4868 -0.2970
 1574SOL    HW2 6068   3.988   3.788   2.962  0.5182 -0.0330 -0.5827
 1574SOL    HW3 6069   3.946   3.642   2.966 -0.9229  0.3920  0.7454
 1574SOL    MW4 6070   4.005   3.703   2.948 -0.2512 -0.1590 -0.5565
 1575SOL     OW 6071   1.627   1.372   5.999  0.0422 -0.4210 -0.7146
 1575SOL    HW2 6072   1.540   1.347   5.966 -0.3398 -0.7961  0.5149
 1575SOL    HW3 6073   1.610   1.445   6.059  0.7471  0.4153 -1.5076
 1575SOL    MW4 6074   1.613   1.378   6.002 -0.3338  0.0762  0.2921
 1576SOL     OW 6075   5.969   5.088   4.246 -0.6821  0.2490 -0.0934
 1576SOL    HW2 6076   6.023   5.020   4.286  0.0273  0.3557 -0.8335
 1576SOL    HW3 6077   5.971   5.161   4.309 -0.1931  0.1440  0.0158
 1576SOL    MW4 6078   5.976   5.089   4.259 -0.0699  0.1847  0.2095
 1577SOL     OW 6079   2.887   3.269   3.235  0.0851  0.0059 -0.2516
 1577SOL    HW2 6080   2.811   3.323   3.257  0.6107  1.0039 -0.8381
 1577SOL    HW3 6081   2.897   3.278   3.140 -0.2556 -1.7272 -0.4866
 1577SOL    MW4 6082   2.879   3.277   3.226  0.0931 -0.2866  0.5481
 1578SOL     OW 6083   4.915   1.645   4.813 -0.2844  0.1037  0.2229
 1578SOL    HW2 6084   4.994   1.679   4.770 -0.3359 -2.6350 -2.3544
 1578SOL    HW3 6085   4.845   1.705   4.786 -0.2976 -1.4241 -3.7070
 1578SOL    MW4 6086   4.916   1.658   4.804 -0.0848  0.0735 -0.0912
 1579SOL     OW 6087   3.345   2.517   5.051 -0.0897  0.2126 -0.0580
 1579SOL    HW2 6088   3.279   2.470   5.102  0.1294 -1.5088 -1.2843
 1579SOL    HW3 6089   3.425   2.465   5.060  0.3036  0.6275 -1.0490
 1579SOL    MW4 6090   3.347   2.504   5.059 -0.2585 -0.2886 -0.0334
 1580SOL     OW 6091   1.387   0.710   1.749 -0.2057 -0.4140 -0.0032
 1580SOL    HW2 6092   1.395   0.786   1.690 -2.6224 -0.5495 -0.6033
 1580SOL    HW3 6093   1.354   0.747   1.831  0.8519 -0.5410  0.4907
 1580SOL    MW4 6094   1.383   0.725   1.752  0.0326 -0.2094  0.5473
 1581SOL     OW 6095   1.696   0.045   3.797 -0.6583  0.1298  0.6136
 1581SOL    HW2 6096   1.613   0.040   3.749 -0.8273 -0.0362  0.9165
 1581SOL    HW3 6097   1.680   0.109   3.866 -0.3468  0.5288  0.3234
 1581SOL    MW4 6098   1.683   0.053   3.800  0.0607  0.3756 -0.0105
 1582SOL     OW 6099   2.929   3.030   2.277 -0.1978 -0.2920 -0.5236
 1582SOL    HW2 6100   2.903   3.074   2.195 -1.1728 -0.9348 -0.5788
 1582SOL    HW3 6101   2.887   3.082   2.346 -1.2100 -0.9880 -0.5797
 1582SOL    MW4 6102   2.920   3.043   2.275 -0.2074  0.8878 -0.3354
 1583SOL     OW 6103   2.212   5.973   0.325  0.4518 -0.5115 -0.1047
 1583SOL    HW2 6104   2.192   5.904   0.389 -0.4529  0.7628  1.0548
 1583SOL    HW3 6105   2.286   6.020   0.363 -1.5735  1.7676  1.3778
 1583SOL    MW4 6106   2.219   5.970   0.339  0.0293 -0.2202  0.7283
 1584SOL     OW 6107   6.397   3.268   1.312  1.1318  0.2163  0.1431
 1584SOL    HW2 6108   6.337   3.277   1.386 -0.7917  1.2737 -1.4767
 1584SOL    HW3 6109   6.396   3.174   1.292 -1.9869  0.4394 -1.3454
 1584SOL    MW4 6110   6.389   3.257   1.319 -0.3641  0.3731  0.1846
 1585SOL     OW 6111   2.332   5.701   5.867 -0.3338 -0.1185  0.5374
 1585SOL    HW2 6112   2.366   5.624   5.822 -2.2827 -0.2634 -0.8101
 1585SOL    HW3 6113   2.287   5.666   5.945  1.5255 -0.0115  1.7225
 1585SOL    MW4 6114   2.330   5.686   5.872  0.1254 -0.6102 -0.3419
 1586SOL     OW 6115   5.352   3.733   5.906 -0.3425 -0.0447  0.3217
 1586SOL    HW2 6116   5.327   3.765   5.992  0.8097 -0.2468  0.7489
 1586SOL    HW3 6117   5.322   3.642   5.905 -1.2094  0.2340  0.1306
 1586SOL    MW4 6118   5.344   3.725   5.917  0.2349  0.3961 -0.0327
 1587SOL     OW 6119   3.689   5.394   5.904  0.2833  0.2368  0.1724
 1587SOL    HW2 6120   3.782   5.415   5.899 -0.0184  2.0045  1.3173
 1587SOL    HW3 6121   3.679   5.345   5.986 -0.0622  1.8463  1.1374
 1587SOL    MW4 6122   3.700   5.390   5.914  0.0721  0.4950  0.0637
 1588SOL     OW 6123   3.970   1.519   2.779  0.1529 -0.0198 -0.0103
 1588SOL    HW2 6124   3.930   1.482   2.700 -0.7237 -1.8912  1.2603
 1588SOL    HW3 6125   3.953   1.455   2.848 -0.6397  2.3440  2.1468
 1588SOL    MW4 6126   3.962   1.506   2.777 -0.0598  0.5216  0.0092
 1589SOL     OW 6127   2.012   0.143   2.518  0.2133 -0.0571  0.0921
 1589SOL    HW2 6128   1.944   0.172   2.456 -0.8735  0.2158  1.3519
 1589SOL    HW3 6129   2.036   0.056   2.488 -1.2370 -0.4624  0.0085
 1589SOL    MW4 6130   2.006   0.136   2.506 -0.0538 -0.8005  0.3730
 1590SOL     OW 6131   4.695   0.554   5.183 -0.4404  0.5043  0.1154
 1590SOL    HW2 6132   4.658   0.632   5.143 -0.1435  0.4516 -0.2756
 1590SOL    HW3 6133   4.765   0.587   5.239  0.5060  0.4534 -0.9929
 1590SOL    MW4 6134   4.700   0.568   5.185  0.2221 -0.2875 -0.0137
 1591SOL     OW 6135   3.671   3.986   2.721 -0.1792 -0.2081  0.2277
 1591SOL    HW2 6136   3.654   3.966   2.629  1.7475 -0.9331 -0.0094
 1591SOL    HW3 6137   3.644   4.078   2.730  0.7988  0.2861 -1.3964
 1591SOL    MW4 6138   3.665   3.996   2.710  0.5981  0.1280  0.0192
 1592SOL     OW 6139   0.834   0.995   1.135 -0.4952 -0.4151  0.4643
 1592SOL    HW2 6140   0.892   0.926   1.103 -0.5051  0.0696 -0.6349
 1592SOL    HW3 6141   0.871   1.076   1.101 -2.5415 -0.2001 -1.4667
 1592SOL    MW4 6142   0.847   0.997   1.126  0.1610  0.4570  0.3531
 1593SOL     OW 6143   5.241   3.426   1.505 -0.1417 -0.1052 -0.3111
 1593SOL    HW2 6144   5.299   3.354   1.529  0.7717  0.3919 -0.9577
 1593SOL    HW3 6145   5.237   3.481   1.583  0.0362 -0.2901 -0.1688
 1593SOL    MW4 6146   5.248   3.423   1.518 -0.1267  0.2816 -0.1264
 1594SOL     OW 6147   0.671   2.832   2.791  0.2617  0.1825 -0.5133
 1594SOL    HW2 6148   0.669   2.896   2.862  0.2712 -1.3810  0.9355
 1594SOL    HW3 6149   0.753   2.785   2.803 -0.5616 -1.2893 -0.4652
 1594SOL    MW4 6150   0.682   2.835   2.802  0.1068  0.2230 -0.5492
 1595SOL     OW 6151   0.229   5.826   1.497  0.2354  0.2186 -0.3217
 1595SOL    HW2 6152   0.230   5.862   1.408  0.7333  3.0049  0.7173
 1595SOL    HW3 6153   0.139   5.839   1.527 -0.0249 -1.0493 -0.4946
 1595SOL    MW4 6154   0.217   5.832   1.489  0.5941  0.1866 -0.2685
 1596SOL     OW 6155   2.274   4.933   5.478  0.2229  0.2896  0.6168
 1596SOL    HW2 6156   2.362   4.932   5.516  0.6348 -0.7629 -0.3148
 1596SOL    HW3 6157   2.261   4.844   5.444 -0.3164  1.0392 -1.2601
 1596SOL    MW4 6158   2.284   4.921   5.478  0.7736 -0.2874 -0.3380
 1597SOL     OW 6159   0.230   5.980   2.628 -0.3643 -0.1954  0.2715
 1597SOL    HW2 6160   0.169   6.030   2.573  0.0070  0.2615  0.2691
 1597SOL    HW3 6161   0.216   5.889   2.602  0.6036  0.0923 -1.4098
 1597SOL    MW4 6162   0.220   5.975   2.617  0.4228 -0.3073 -0.6070
 1598SOL     OW 6163   5.876   0.982   2.194  0.3484  0.7762 -0.2042
 1598SOL    HW2 6164   5.785   0.956   2.210  0.2226  1.4938  0.3296
 1598SOL    HW3 6165   5.878   1.009   2.102  0.0310  0.7045 -0.2333
 1598SOL    MW4 6166   5.864   0.983   2.184 -0.3478 -0.3930  0.0614
 1599SOL     OW 6167   3.414   4.764   2.195  0.0827 -0.2758  0.1155
 1599SOL    HW2 6168   3.454   4.758   2.282 -0.4460 -0.8470  0.3256
 1599SOL    HW3 6169   3.458   4.838   2.153  0.3324  0.0103  0.8753
 1599SOL    MW4 6170   3.425   4.773   2.201 -0.7261  0.9703 -0.2836
 1600SOL     OW 6171   6.017   2.640   3.616  0.5347 -0.2396  0.0084
 1600SOL    HW2 6172   5.930   2.609   3.641  1.0473 -1.5997  0.2149
 1600SOL    HW3 6173   6.007   2.669   3.525  0.3941 -2.8302 -0.8742
 1600SOL    MW4 6174   6.004   2.640   3.607 -0.2842 -0.1629  0.5397
 1601SOL     OW 6175   1.769   2.939   3.614 -0.2398 -0.1891 -0.7307
 1601SOL    HW2 6176   1.747   2.861   3.563 -1.8874  0.5729 -1.2691
 1601SOL    HW3 6177   1.811   2.998   3.551  0.9562 -0.5761 -0.3372
 1601SOL    MW4 6178   1.772   2.936   3.599 -0.0934 -0.4329 -0.0709
 1602SOL     OW 6179   5.218   3.069   6.097  0.1613  0.1293  0.5468
 1602SOL    HW2 6180   5.265   3.152   6.087  3.7947 -1.6172  1.4145
 1602SOL    HW3 6181   5.255   3.012   6.029 -0.2788 -1.5232  1.6213
 1602SOL    MW4 6182   5.229   3.072   6.087 -0.4942  0.1688  0.6211
 1603SOL     OW 6183   6.127   3.933   4.118 -0.2392 -0.6605 -0.3626
 1603SOL    HW2 6184   6.217   3.923   4.087 -0.0558 -0.4738  0.1029
 1603SOL    HW3 6185   6.126   4.018   4.162  0.6210 -2.5861  3.8335
 1603SOL    MW4 6186   6.139   3.943   4.119  0.0145 -0.6495  0.1589
 1604SOL     OW 6187   2.702   2.545   4.110 -0.0161  0.1722 -0.2784
 1604SOL    HW2 6188   2.795   2.559   4.128  0.9646 -1.6842 -3.2211
 1604SOL    HW3 6189   2.692   2.568   4.017 -2.1231 -1.1437 -0.4353
 1604SOL    MW4 6190   2.713   2.550   4.100 -0.1108  0.1310  0.3152
 1605SOL     OW 6191   5.777   4.946   3.829  0.3709 -0.1702 -0.2666
 1605SOL    HW2 6192   5.744   4.999   3.756  0.0778 -1.8633 -1.4398
 1605SOL    HW3 6193   5.698   4.906   3.867  0.7267 -1.7984 -1.1133
 1605SOL    MW4 6194   5.762   4.947   3.824  0.1508 -0.1920 -0.0526
 1606SOL     OW 6195   5.693   3.208   2.655  0.1332  0.6468 -0.1686
 1606SOL    HW2 6196   5.650   3.152   2.592  1.2088 -0.7940  0.3245
 1606SOL    HW3 6197   5.783   3.217   2.622  0.9561 -0.7789  1.4686
 1606SOL    MW4 6198   5.699   3.202   2.643 -0.3258 -0.4242 -0.0933
 1607SOL     OW 6199   2.076   5.640   0.841 -0.1785  0.2533  0.3709
 1607SOL    HW2 6200   2.002   5.594   0.882  0.3524 -0.1253  0.9291
 1607SOL    HW3 6201   2.065   5.731   0.869 -1.8764  0.7344 -1.6763
 1607SOL    MW4 6202   2.065   5.646   0.850 -0.2716  0.3468  0.0369
 1608SOL     OW 6203   2.847   5.433   3.063  0.7850 -0.2038 -0.0652
 1608SOL    HW2 6204   2.850   5.473   2.977  0.3924  1.9740  0.8824
 1608SOL    HW3 6205   2.778   5.479   3.110  0.1397 -2.1753  1.0494
 1608SOL    MW4 6206   2.839   5.444   3.058 -0.1762 -0.5046  0.0964
 1609SOL     OW 6207   6.354   0.920   2.844  0.7361  0.0472  0.0209
 1609SOL    HW2 6208   6.263   0.909   2.815 -0.0503  2.3510  1.3146
 1609SOL    HW3 6209   6.385   0.997   2.796  1.1470  0.7338  1.3177
 1609SOL    MW4 6210   6.346   0.929   2.834  0.2315 -0.2302 -0.0962
 1610SOL     OW 6211   2.327   1.197   4.344  0.3103 -0.3329  0.0447
 1610SOL    HW2 6212   2.388   1.267   4.322  0.8877 -0.6642  0.5832
 1610SOL    HW3 6213   2.358   1.163   4.428 -1.0342 -0.0297  0.6909
 1610SOL    MW4 6214   2.339   1.202   4.352 -0.4977  0.4051  0.4123
 1611SOL     OW 6215   2.204   3.017   6.063  0.1713  0.1648  0.5460
 1611SOL    HW2 6216   2.288   2.985   6.096  0.2290  0.2988  0.5260
 1611SOL    HW3 6217   2.223   3.048   5.975  0.0256 -0.1524  0.4009
 1611SOL    MW4 6218   2.218   3.017   6.056  0.2302  0.2319  0.3220
 1612SOL     OW 6219   3.642   1.940   1.902  0.4420 -0.4129 -0.1177
 1612SOL    HW2 6220   3.605   2.026   1.884  0.7054 -0.4016 -0.6092
 1612SOL    HW3 6221   3.571   1.879   1.883  0.6984 -0.3999 -1.1702
 1612SOL    MW4 6222   3.628   1.943   1.897 -0.0557  0.6499 -0.3413
 1613SOL     OW 6223   1.570   5.833   3.206 -0.1605  0.5666  0.2626
 1613SOL    HW2 6224   1.664   5.813   3.204 -0.2952 -0.0458 -0.3776
 1613SOL    HW3 6225   1.530   5.756   3.246 -0.3963  0.7907  0.4558
 1613SOL    MW4 6226   1.577   5.820   3.211  0.0824  0.2152  0.5913
 1614SOL     OW 6227   6.259   4.723   3.394  0.5459  0.9299 -0.4962
 1614SOL    HW2 6228   6.298   4.643   3.360  1.0809  0.8698  0.2174
 1614SOL    HW3 6229   6.167   4.718   3.370  0.4935 -0.1008 -0.0994
 1614SOL    MW4 6230   6.252   4.712   3.387  0.2316  0.0607  0.5003
 1615SOL     OW 6231   1.907   2.546   3.545 -0.3524  0.4902 -0.2554
 1615SOL    HW2 6232   1.977   2.488   3.516 -2.0715 -1.0051 -1.7082
 1615SOL    HW3 6233   1.939   2.584   3.627  2.1798  0.0254 -0.9413
 1615SOL    MW4 6234   1.920   2.543   3.552  0.4353 -0.3141  0.6841
 1616SOL     OW 6235   5.128   5.291   5.247 -0.4318 -0.2578 -0.3657
 1616SOL    HW2 6236   5.095   5.377   5.220 -1.2609 -0.1719  0.8327
 1616SOL    HW3 6237   5.207   5.310   5.296 -0.4386 -0.1999 -0.3771
 1616SOL    MW4 6238   5.134   5.305   5.250  0.4305  0.2229 -0.0640
 1617SOL     OW 6239   5.354   1.104   0.547 -0.2009  0.5336 -0.3389
 1617SOL    HW2 6240   5.326   1.037   0.610 -1.5869 -0.0937 -1.5611
 1617SOL    HW3 6241   5.436   1.071   0.511 -0.3475 -0.0122 -0.1831
 1617SOL    MW4 6242   5.361   1.091   0.551 -0.3716  0.3566 -0.1255
 1618SOL     OW 6243   0.282   3.242   0.392  0.1813 -0.4004  0.1119
 1618SOL    HW2 6244   0.312   3.167   0.341  1.6131  0.0179  0.2865
 1618SOL    HW3 6245   0.238   3.204   0.468 -0.5373 -1.0358 -0.6018
 1618SOL    MW4 6246   0.281   3.227   0.395  0.0954 -0.6191 -0.1024
 1619SOL     OW 6247   1.619   4.429   0.772  0.1529 -0.3284  0.2021
 1619SOL    HW2 6248   1.709   4.404   0.791  0.2272  1.2424  2.3316
 1619SOL    HW3 6249   1.577   4.433   0.858 -1.3718  0.9933 -0.5578
 1619SOL    MW4 6250   1.625   4.426   0.786 -0.1102 -0.5301 -0.6171
 1620SOL     OW 6251   6.386   5.180   5.729 -0.1362 -0.5541  0.2119
 1620SOL    HW2 6252   6.412   5.238   5.801  0.6345 -0.2847 -0.2722
 1620SOL    HW3 6253   6.326   5.233   5.677 -2.1943 -1.3694  1.6484
 1620SOL    MW4 6254   6.382   5.195   5.732 -0.6392  0.6499  0.8675
 1621SOL     OW 6255   3.375   5.182   1.645  0.0747 -0.1507 -0.1582
 1621SOL    HW2 6256   3.454   5.188   1.698  0.8621 -1.2526 -1.1397
 1621SOL    HW3 6257   3.393   5.109   1.585 -3.0076 -2.7739  1.7957
 1621SOL    MW4 6258   3.388   5.173   1.644 -0.0072 -0.0554 -0.2991
 1622SOL     OW 6259   1.361   0.459   1.983  0.6563  0.1039  0.0046
 1622SOL    HW2 6260   1.309   0.392   1.938 -0.2363  1.7783 -1.6075
 1622SOL    HW3 6261   1.451   0.442   1.955  0.7285 -1.5219  1.1148
 1622SOL    MW4 6262   1.366   0.448   1.973 -0.0509 -0.1340 -0.1890
 1623SOL     OW 6263   4.920   0.014   3.279  0.5193 -0.6902  0.5064
 1623SOL    HW2 6264   4.889  -0.076   3.273 -1.1566 -0.0679 -0.7968
 1623SOL    HW3 6265   4.853   0.060   3.330  0.1295  0.2935 -0.8257
 1623SOL    MW4 6266   4.907   0.008   3.285 -0.6551 -0.1901  0.0854
 1624SOL     OW 6267   6.344   2.681   5.700 -0.2022  0.2159  0.0172
 1624SOL    HW2 6268   6.295   2.760   5.722  0.8246  1.0374 -0.5231
 1624SOL    HW3 6269   6.425   2.714   5.661  0.1162 -1.1154 -0.4941
 1624SOL    MW4 6270   6.348   2.696   5.698  0.9751 -0.1375 -0.5054
 1625SOL     OW 6271   6.223   4.042   5.845  0.3839 -0.1606  0.3131
 1625SOL    HW2 6272   6.267   3.964   5.880  0.0125 -0.2962  0.4824
 1625SOL    HW3 6273   6.172   4.010   5.771  0.6131  0.0074  0.0809
 1625SOL    MW4 6274   6.222   4.027   5.840 -0.3230  0.1431  0.7643
 1626SOL     OW 6275   1.035   0.359   2.629  0.6173 -0.5922 -0.1371
 1626SOL    HW2 6276   0.981   0.416   2.683  1.5167 -0.0749  0.2218
 1626SOL    HW3 6277   0.972   0.300   2.587 -0.1763 -0.3637  0.7024
 1626SOL    MW4 6278   1.019   0.359   2.631  0.2631 -0.3302 -0.7547
 1627SOL     OW 6279   3.727   3.470   5.636 -0.0080 -0.0688  0.4287
 1627SOL    HW2 6280   3.652   3.528   5.649 -0.1842 -0.0443 -0.5914
 1627SOL    HW3 6281   3.797   3.527   5.604  0.6522  0.0086  1.9107
 1627SOL    MW4 6282   3.726   3.485   5.634  0.2994 -0.1204  0.2630
 1628SOL     OW 6283   2.269   0.104   3.941  0.2597  0.2052  0.2941
 1628SOL    HW2 6284   2.212   0.157   3.885 -0.0576 -1.5370 -1.1372
 1628SOL    HW3 6285   2.217   0.088   4.020 -0.8975 -0.5392 -0.5783
 1628SOL    MW4 6286   2.254   0.109   3.944  0.1025 -0.0743  0.5369
 1629SOL     OW 6287   0.934   6.014   0.920 -0.4537 -0.3405  0.4639
 1629SOL    HW2 6288   0.851   5.974   0.943 -0.7180 -2.1264 -3.0263
 1629SOL    HW3 6289   0.999   5.946   0.935  0.4289  0.9032  2.7578
 1629SOL    MW4 6290   0.932   6.000   0.925 -0.2143 -0.3257 -0.2483
 1630SOL     OW 6291   1.130   0.851   3.545  0.0266  0.0992  0.0586
 1630SOL    HW2 6292   1.208   0.886   3.503  0.2879  0.3453  0.7479
 1630SOL    HW3 6293   1.131   0.758   3.524  0.4667  0.1148  0.0126
 1630SOL    MW4 6294   1.140   0.843   3.537  0.2504 -0.3827  0.1831
 1631SOL     OW 6295   4.250   5.878   0.041 -0.9654 -0.0381  0.2954
 1631SOL    HW2 6296   4.311   5.891   0.114 -0.8897  0.4350  0.1515
 1631SOL    HW3 6297   4.206   5.795   0.062  0.2238 -0.7704  0.0397
 1631SOL    MW4 6298   4.252   5.869   0.054  0.3702  0.2010  0.0529
 1632SOL     OW 6299   4.946   5.018   1.798  0.2332  0.5656  0.3721
 1632SOL    HW2 6300   4.923   4.959   1.870 -0.6636  0.1621 -0.2290
 1632SOL    HW3 6301   5.025   5.064   1.829  0.0976  0.1133  1.4397
 1632SOL    MW4 6302   4.954   5.017   1.812  0.4562  0.0340 -0.5163
 1633SOL     OW 6303   2.286   4.633   2.064 -0.0692  0.1772 -0.0723
 1633SOL    HW2 6304   2.206   4.672   2.097 -0.9914 -1.3932 -0.3469
 1633SOL    HW3 6305   2.354   4.659   2.127 -1.3792 -1.0724  1.9510
 1633SOL    MW4 6306   2.285   4.642   2.076  0.2551 -0.0010  0.4450
 1634SOL     OW 6307   0.678   6.219   4.180  0.3442 -0.5935  0.3902
 1634SOL    HW2 6308   0.677   6.244   4.087  1.1182  2.1440  1.0442
 1634SOL    HW3 6309   0.731   6.286   4.222 -1.6037 -0.6364  3.1443
 1634SOL    MW4 6310   0.685   6.231   4.173 -0.6644 -0.0629  0.2273
 1635SOL     OW 6311   4.183   2.935   4.516 -0.5647  0.3443  0.0383
 1635SOL    HW2 6312   4.124   2.867   4.547  0.2900 -0.5590 -0.2733
 1635SOL    HW3 6313   4.177   3.004   4.582 -0.8673 -0.3523  0.7480
 1635SOL    MW4 6314   4.174   2.935   4.528  0.2780 -0.2637  0.2621
 1636SOL     OW 6315   2.800   0.155   3.014 -0.2213 -0.6953  0.1983
 1636SOL    HW2 6316   2.752   0.177   3.094 -0.2048 -0.7598  0.2258
 1636SOL    HW3 6317   2.732   0.129   2.952 -0.4534  1.3885 -0.4958
 1636SOL    MW4 6318   2.785   0.154   3.016 -0.5003 -0.0823  0.4056
 1637SOL     OW 6319   3.225   1.058   1.243 -0.3555  0.6912  0.1864
 1637SOL    HW2 6320   3.302   1.015   1.280  0.3748  0.7951 -1.1626
 1637SOL    HW3 6321   3.165   0.986   1.224  0.4575  0.3259 -1.1304
 1637SOL    MW4 6322   3.227   1.043   1.246  0.4923 -0.3019 -0.3622
 1638SOL     OW 6323   3.178   0.326   2.256  0.5314 -0.2536 -0.4389
 1638SOL    HW2 6324   3.168   0.329   2.351 -0.4843 -2.7321 -0.3896
 1638SOL    HW3 6325   3.124   0.398   2.224  0.5285  0.3309  0.8363
 1638SOL    MW4 6326   3.170   0.336   2.264  0.3037 -0.7035 -0.4241
 1639SOL     OW 6327   1.607   0.464   3.052  0.0407 -0.3170 -0.2114
 1639SOL    HW2 6328   1.653   0.385   3.023 -0.9385 -0.7566 -0.6289
 1639SOL    HW3 6329   1.565   0.497   2.973 -1.4294 -0.6724  0.3789
 1639SOL    MW4 6330   1.607   0.458   3.038  0.1762  0.0387  0.0619
 1640SOL     OW 6331   4.761   0.875   2.495  0.3366  0.0441  0.0340
 1640SOL    HW2 6332   4.812   0.880   2.575  1.3643  0.6966 -0.6386
 1640SOL    HW3 6333   4.826   0.868   2.425 -0.5032  0.4218 -0.8189
 1640SOL    MW4 6334   4.776   0.875   2.496  0.4109  0.0218  0.4280
 1641SOL     OW 6335   2.312   0.074   2.404  0.5502  0.6256 -0.3407
 1641SOL    HW2 6336   2.307   0.167   2.425  1.3478  0.6179 -0.0680
 1641SOL    HW3 6337   2.281   0.030   2.483  0.9066  0.6529 -0.1808
 1641SOL    MW4 6338   2.308   0.080   2.417 -0.1402 -0.1756  0.3126
 1642SOL     OW 6339   3.624   5.040   3.898 -0.2536  0.0865  0.2335
 1642SOL    HW2 6340   3.671   5.108   3.849 -0.3362 -0.0981 -0.1044
 1642SOL    HW3 6341   3.629   4.962   3.842  0.4521 -0.3863  0.9416
 1642SOL    MW4 6342   3.630   5.039   3.884  0.1006  0.0773 -0.2502
 1643SOL     OW 6343   3.451   1.758   5.519 -0.2972  0.3089 -0.4838
 1643SOL    HW2 6344   3.520   1.783   5.581 -0.9857  0.2411  0.3320
 1643SOL    HW3 6345   3.371   1.759   5.571 -0.6388 -1.6572 -0.8746
 1643SOL    MW4 6346   3.450   1.761   5.534 -0.0300  0.5023  0.9234
 1644SOL     OW 6347   1.818   5.212   4.388 -0.2796 -0.2835  0.4281
 1644SOL    HW2 6348   1.807   5.284   4.450  0.3026 -0.4210  0.6934
 1644SOL    HW3 6349   1.803   5.133   4.439  1.3018 -0.4541  0.6772
 1644SOL    MW4 6350   1.815   5.211   4.403  0.3670 -0.1226  0.3041
 1645SOL     OW 6351   0.256   6.383   3.167 -0.1255 -0.4431  0.3584
 1645SOL    HW2 6352   0.240   6.288   3.175  1.6616 -0.9158 -1.0808
 1645SOL    HW3 6353   0.240   6.402   3.075  1.7183  0.1788  0.1266
 1645SOL    MW4 6354   0.251   6.373   3.156  0.0585  0.3349  0.0330
 1646SOL     OW 6355   2.360   4.055   2.059 -0.1795 -0.2724 -0.1092
 1646SOL    HW2 6356   2.396   4.123   2.116  0.1476 -0.7021  0.2014
 1646SOL    HW3 6357   2.343   4.100   1.976  0.8410 -0.0058 -0.1849
 1646SOL    MW4 6358   2.363   4.070   2.055  0.1723 -0.0014 -0.2566
 1647SOL     OW 6359   0.989   1.050   0.434  0.0390  0.0655 -0.5892
 1647SOL    HW2 6360   0.903   1.010   0.422  0.0548  0.6219 -3.3756
 1647SOL    HW3 6361   1.043   1.010   0.366  1.5492  0.9124  0.0576
 1647SOL    MW4 6362   0.985   1.039   0.423 -0.0181  0.0866 -0.7735
 1648SOL     OW 6363   4.511   0.530   3.335 -0.0015  0.4781  1.1462
 1648SOL    HW2 6364   4.474   0.560   3.418 -0.0859  0.2976  1.1719
 1648SOL    HW3 6365   4.471   0.588   3.269  2.2820  2.6564  1.5040
 1648SOL    MW4 6366   4.501   0.542   3.337 -0.0736  0.0391 -0.0314
 1649SOL     OW 6367   5.416   2.737   4.885 -0.0053 -0.0959 -0.1087
 1649SOL    HW2 6368   5.414   2.675   4.957  0.4747  1.7500  1.5692
 1649SOL    HW3 6369   5.497   2.716   4.838 -0.1144 -1.0408  0.1013
 1649SOL    MW4 6370   5.427   2.726   4.888 -0.3762 -0.3184  0.3998
 1650SOL     OW 6371   2.408   5.514   5.643  0.0939 -0.0475  0.1073
 1650SOL    HW2 6372   2.357   5.439   5.673 -0.2847  0.6997  1.3611
 1650SOL    HW3 6373   2.351   5.559   5.581 -0.2148 -0.0143  0.4166
 1650SOL    MW4 6374   2.394   5.510   5.639  0.5482  0.2150  0.0874
 1651SOL     OW 6375   1.187   5.462   1.273 -0.8996  0.7407  0.2265
 1651SOL    HW2 6376   1.224   5.456   1.361 -2.1395  0.0631  0.7244
 1651SOL    HW3 6377   1.205   5.377   1.233  0.5487  1.3922 -0.5596
 1651SOL    MW4 6378   1.194   5.450   1.279 -0.1594 -0.5512  0.2202
 1652SOL     OW 6379   3.137   3.402   4.949  0.7077 -0.0337  0.7376
 1652SOL    HW2 6380   3.174   3.350   4.878  2.0408  0.5920  0.9505
 1652SOL    HW3 6381   3.132   3.341   5.023 -2.4379 -1.2459 -0.2822
 1652SOL    MW4 6382   3.141   3.387   4.949 -0.0860  0.3999 -0.1181
 1653SOL     OW 6383   1.874   5.663   2.152  0.2481 -0.0703 -0.0147
 1653SOL    HW2 6384   1.828   5.640   2.072  0.5682 -2.0545  0.3263
 1653SOL    HW3 6385   1.830   5.613   2.221  0.1869  1.3387  1.0291
 1653SOL    MW4 6386   1.862   5.653   2.150 -0.5101  0.3019  0.3465
 1654SOL     OW 6387   5.761   0.690   0.150  0.0005 -0.2244 -0.1609
 1654SOL    HW2 6388   5.824   0.702   0.078 -1.3207 -0.4256 -1.3874
 1654SOL    HW3 6389   5.738   0.597   0.146 -1.2511  0.0854 -0.4937
 1654SOL    MW4 6390   5.766   0.679   0.140 -0.3475  0.1785  0.7259
 1655SOL     OW 6391   5.822   5.606   4.878  0.0758  0.0596 -0.2726
 1655SOL    HW2 6392   5.736   5.601   4.920  1.2608  0.3512  2.4522
 1655SOL    HW3 6393   5.831   5.698   4.854 -0.6993 -0.1482 -1.4583
 1655SOL    MW4 6394   5.812   5.618   4.881 -0.4558 -0.8748 -0.2715
 1656SOL     OW 6395   2.946   4.425   1.338  0.0190  0.2304  0.9042
 1656SOL    HW2 6396   2.886   4.387   1.275 -1.6301  2.3367  1.0783
 1656SOL    HW3 6397   3.007   4.477   1.286  1.4971 -1.5522  0.7645
 1656SOL    MW4 6398   2.946   4.427   1.323  0.4909 -1.0730  0.4234
 1657SOL     OW 6399   2.859   3.165   2.043 -0.0949  0.3631 -0.2303
 1657SOL    HW2 6400   2.814   3.242   2.079 -1.7598 -1.8195  2.7875
 1657SOL    HW3 6401   2.799   3.131   1.976 -0.7091  0.1244  0.4331
 1657SOL    MW4 6402   2.845   3.171   2.039 -0.4989  0.1806  0.4734
 1658SOL     OW 6403   5.957   0.656   0.479 -0.3282  0.3502  0.0710
 1658SOL    HW2 6404   5.969   0.585   0.417  1.1029 -0.6926  1.4441
 1658SOL    HW3 6405   5.995   0.623   0.561 -0.0841  2.5098  0.8943
 1658SOL    MW4 6406   5.963   0.642   0.482  0.7818  0.0703  0.3637
 1659SOL     OW 6407   4.561   1.537   4.675 -0.4089  0.3799  0.2717
 1659SOL    HW2 6408   4.513   1.615   4.647 -2.5157 -0.5089  1.2158
 1659SOL    HW3 6409   4.513   1.464   4.636 -0.2097 -0.5834  1.7631
 1659SOL    MW4 6410   4.548   1.538   4.666  0.3289 -0.4981  0.3737
 1660SOL     OW 6411   5.655   5.404   2.290 -0.0760  0.7361 -0.2339
 1660SOL    HW2 6412   5.747   5.403   2.314 -0.0827 -1.2785 -0.1291
 1660SOL    HW3 6413   5.610   5.431   2.370  0.4358  2.6877 -0.5520
 1660SOL    MW4 6414   5.661   5.408   2.304  0.0155 -0.6264 -0.1655
 1661SOL     OW 6415   3.451   3.502   3.293 -0.6955  0.7226 -0.0458
 1661SOL    HW2 6416   3.445   3.526   3.386  1.0544  1.3612 -0.0609
 1661SOL    HW3 6417   3.468   3.585   3.249 -0.6432  0.2990 -0.8287
 1661SOL    MW4 6418   3.453   3.516   3.300  0.0311  0.0634  0.3394
 1662SOL     OW 6419   1.918   3.695   2.137  0.2524 -0.4706  0.8714
 1662SOL    HW2 6420   1.838   3.744   2.157 -0.3841 -1.2480  0.3448
 1662SOL    HW3 6421   1.931   3.708   2.043  0.5935 -0.5729  0.9030
 1662SOL    MW4 6422   1.909   3.703   2.127  0.1852  0.3118  0.1367
 1663SOL     OW 6423   0.411   3.897   4.762  0.2203  0.4745 -0.1732
 1663SOL    HW2 6424   0.443   3.889   4.852  1.6389  1.7421 -0.5104
 1663SOL    HW3 6425   0.381   3.988   4.756 -0.0553  0.3362 -0.9157
 1663SOL    MW4 6426   0.411   3.908   4.773  0.3108 -0.4296 -0.0553
 1664SOL     OW 6427   4.194   4.058   1.397 -0.0092 -0.2182 -0.5609
 1664SOL    HW2 6428   4.166   4.065   1.489 -0.1400  0.7127 -0.6694
 1664SOL    HW3 6429   4.116   4.081   1.347  0.7998  2.0815 -0.8701
 1664SOL    MW4 6430   4.180   4.062   1.403 -0.2010 -0.0856  0.3317
 1665SOL     OW 6431   0.429   5.044   5.077  0.0515  0.4084 -0.1855
 1665SOL    HW2 6432   0.338   5.068   5.058 -0.5440 -0.8114  0.9558
 1665SOL    HW3 6433   0.451   5.096   5.155  0.3426  0.7005 -0.4583
 1665SOL    MW4 6434   0.420   5.054   5.085 -0.2037 -0.3049 -0.0596
 1666SOL     OW 6435   3.566   5.848   6.357 -0.3315 -0.3092 -0.1462
 1666SOL    HW2 6436   3.621   5.770   6.349 -0.5668 -0.4833 -0.0514
 1666SOL    HW3 6437   3.557   5.862   6.451  0.1131  0.1179 -0.1601
 1666SOL    MW4 6438   3.572   5.840   6.368  0.7741  1.3320 -0.4902
 1667SOL     OW 6439   5.631   0.383   2.291  0.2039 -0.1788  0.4416
 1667SOL    HW2 6440   5.643   0.290   2.311  0.2630 -0.3346 -0.3120
 1667SOL    HW3 6441   5.687   0.399   2.215 -0.8581  0.1486 -0.2974
 1667SOL    MW4 6442   5.640   0.372   2.284 -0.0108  0.0843  1.0259
 1668SOL     OW 6443   1.177   5.389   0.713 -0.1208  0.0763  0.6209
 1668SOL    HW2 6444   1.221   5.350   0.637  0.7884  0.5653  0.8806
 1668SOL    HW3 6445   1.245   5.442   0.755 -1.0965  1.2665  0.7501
 1668SOL    MW4 6446   1.192   5.391   0.708  0.3276 -0.0658  0.5597
 1669SOL     OW 6447   4.601   5.029   3.579 -0.2168 -0.2367 -0.1512
 1669SOL    HW2 6448   4.537   5.057   3.513 -0.8141  1.6945  1.1569
 1669SOL    HW3 6449   4.654   5.107   3.596  1.4742 -1.3691 -0.0524
 1669SOL    MW4 6450   4.599   5.043   3.573  0.7505  0.4758  0.4869
 1670SOL     OW 6451   5.645   0.942   0.772 -0.4956  0.8978 -0.2301
 1670SOL    HW2 6452   5.684   0.932   0.684 -0.5901  1.6081 -0.3540
 1670SOL    HW3 6453   5.721   0.953   0.829 -0.3948 -0.2383 -0.1159
 1670SOL    MW4 6454   5.660   0.942   0.768  0.3995 -0.1593  0.9896
 1671SOL     OW 6455   1.554   1.400   1.946  0.3259  0.1968  0.4180
 1671SOL    HW2 6456   1.521   1.428   2.032  1.0090  1.1192  0.3971
 1671SOL    HW3 6457   1.481   1.353   1.906 -0.4678  0.9475  0.9545
 1671SOL    MW4 6458   1.540   1.398   1.952  0.6663 -0.0279 -0.4850
 1672SOL     OW 6459   6.164   3.705   4.290  0.4426 -0.2363 -0.1117
 1672SOL    HW2 6460   6.208   3.732   4.371 -2.3314  0.1718  1.3905
 1672SOL    HW3 6461   6.156   3.786   4.239  2.4926 -0.5517 -1.0634
 1672SOL    MW4 6462   6.169   3.719   4.294  0.0769  0.4782  0.8507
 1673SOL     OW 6463   2.445   6.377   4.581  0.5126  0.0659 -0.6803
 1673SOL    HW2 6464   2.481   6.345   4.664 -1.1073  1.6414  0.7124
 1673SOL    HW3 6465   2.446   6.473   4.590 -1.6107  0.2231 -1.5904
 1673SOL    MW4 6466   2.450   6.386   4.593 -0.0355 -0.1182 -0.6008
 1674SOL     OW 6467   4.187   2.101   5.874  0.6469  0.2281  0.4827
 1674SOL    HW2 6468   4.235   2.183   5.863  0.9597 -0.0097  0.0371
 1674SOL    HW3 6469   4.127   2.118   5.946  2.0409  0.2432  1.6883
 1674SOL    MW4 6470   4.185   2.114   5.882 -0.2118  0.0942  0.0105
 1675SOL     OW 6471   0.457   1.022   1.306 -0.1451  0.1143 -0.1190
 1675SOL    HW2 6472   0.472   1.117   1.308  0.2419  0.0557 -0.2789
 1675SOL    HW3 6473   0.397   1.006   1.379 -1.1564  0.6484 -0.8129
 1675SOL    MW4 6474   0.451   1.033   1.316  0.2523 -0.6472 -0.6103
 1676SOL     OW 6475   4.982   6.126   2.083 -0.5031  0.9205  0.0587
 1676SOL    HW2 6476   4.944   6.188   2.021 -1.1239  1.4297  0.9179
 1676SOL    HW3 6477   5.053   6.084   2.035 -3.0365 -1.1569 -2.1841
 1676SOL    MW4 6478   4.986   6.129   2.069  0.4586  0.3975 -0.0151
 1677SOL     OW 6479   4.189   2.400   2.057  0.1218  0.0123  0.1042
 1677SOL    HW2 6480   4.210   2.472   1.998  3.7954  0.2309  1.3793
 1677SOL    HW3 6481   4.258   2.336   2.041 -0.7045 -1.3904  1.8223
 1677SOL    MW4 6482   4.201   2.401   2.047 -0.1009 -0.0943  0.1203
 1678SOL     OW 6483   0.308   5.449   5.409  0.2932  0.0048 -0.6069
 1678SOL    HW2 6484   0.338   5.414   5.493  0.8318  0.0626 -0.7729
 1678SOL    HW3 6485   0.365   5.524   5.393 -0.5210  0.6616 -0.5012
 1678SOL    MW4 6486   0.319   5.454   5.418 -0.1752 -0.5072 -0.2526
 1679SOL     OW 6487   4.003   2.776   1.365  0.0687  0.0774  0.4520
 1679SOL    HW2 6488   4.065   2.787   1.436  1.0833 -1.2325 -0.1972
 1679SOL    HW3 6489   4.042   2.822   1.291 -0.6105  0.7699  0.5027
 1679SOL    MW4 6490   4.016   2.783   1.364  0.0848 -0.2743 -0.0195
 1680SOL     OW 6491   1.744   4.175   3.685  0.1942  0.1430 -0.3272
 1680SOL    HW2 6492   1.710   4.088   3.666  0.4666 -0.5023  1.8727
 1680SOL    HW3 6493   1.767   4.172   3.777  0.9928  2.3086 -0.4013
 1680SOL    MW4 6494   1.742   4.164   3.694  0.4700  0.4760  0.0750
 1681SOL     OW 6495   1.431   0.907   5.223  0.4536  0.3313  0.4506
 1681SOL    HW2 6496   1.443   0.990   5.270 -0.2810  0.2887  0.7382
 1681SOL    HW3 6497   1.515   0.862   5.231  0.0967 -0.0488  2.4879
 1681SOL    MW4 6498   1.444   0.912   5.230 -0.0396 -0.3655 -0.6388
 1682SOL     OW 6499   1.562   6.123   1.185  0.1677 -0.1740  0.1730
 1682SOL    HW2 6500   1.502   6.194   1.164 -0.1542 -0.6751 -0.6261
 1682SOL    HW3 6501   1.527   6.085   1.266 -2.1553 -2.1106 -1.5822
 1682SOL    MW4 6502   1.549   6.127   1.193  0.5551  0.1864  0.3691
 1683SOL     OW 6503   3.266   5.284   5.315 -0.1319  0.1770 -0.2376
 1683SOL    HW2 6504   3.330   5.322   5.255 -1.3113  1.7708 -0.5695
 1683SOL    HW3 6505   3.316   5.262   5.393  0.6987  2.2451 -0.1334
 1683SOL    MW4 6506   3.281   5.286   5.317 -0.2170  0.2002  0.3171
 1684SOL     OW 6507   1.492   2.571   6.345 -1.0833  0.1217 -0.4109
 1684SOL    HW2 6508   1.466   2.663   6.358 -0.9756  0.6838 -3.3953
 1684SOL    HW3 6509   1.560   2.556   6.411 -1.6690  1.9131  0.6798
 1684SOL    MW4 6510   1.498   2.581   6.356 -0.6263 -0.2726  0.4793
 1685SOL     OW 6511   0.627   3.279   2.950  0.5824 -0.0834 -0.1320
 1685SOL    HW2 6512   0.543   3.248   2.916  0.5588 -0.3514  0.1602
 1685SOL    HW3 6513   0.630   3.372   2.928  1.0072 -0.4525 -1.7222
 1685SOL    MW4 6514   0.616   3.287   2.943  0.2986  0.1152 -0.7261
 1686SOL     OW 6515   2.523   1.024   2.410  0.4944 -0.2377 -0.0567
 1686SOL    HW2 6516   2.472   1.006   2.488  2.0144 -1.1538  0.7936
 1686SOL    HW3 6517   2.488   1.106   2.376 -0.4465 -0.0068  1.3789
 1686SOL    MW4 6518   2.512   1.033   2.416 -0.3433  0.3051  0.0377
 1687SOL     OW 6519   1.129   5.358   5.813 -0.0723 -0.5052 -0.3472
 1687SOL    HW2 6520   1.107   5.314   5.731 -0.3664  0.1261 -0.6081
 1687SOL    HW3 6521   1.224   5.353   5.818 -0.1668 -2.8909  0.5828
 1687SOL    MW4 6522   1.139   5.351   5.803  0.0314 -0.0106 -0.6843
 1688SOL     OW 6523   4.372   3.498   1.801  0.3098  0.3065  0.1110
 1688SOL    HW2 6524   4.409   3.419   1.762  0.7238 -0.1661  1.3951
 1688SOL    HW3 6525   4.346   3.552   1.727 -0.9380 -1.4747 -0.8101
 1688SOL    MW4 6526   4.374   3.495   1.786  0.2104 -0.4323  0.3681
 1689SOL     OW 6527   4.998   5.585   1.939  0.0246  0.3371  0.6802
 1689SOL    HW2 6528   4.903   5.591   1.930  0.1047  2.1806  0.7276
 1689SOL    HW3 6529   5.012   5.509   1.995 -1.4394  0.3639  1.1258
 1689SOL    MW4 6530   4.987   5.576   1.945  0.4547  0.1102  0.0709
 1690SOL     OW 6531   4.549   0.200   5.319  0.5121 -0.4230 -0.1998
 1690SOL    HW2 6532   4.639   0.179   5.295  0.2257 -2.7287  0.5085
 1690SOL    HW3 6533   4.499   0.121   5.297 -1.4785  0.9981 -1.1177
 1690SOL    MW4 6534   4.555   0.187   5.313  0.4914 -0.1338  0.0815
 1691SOL     OW 6535   2.560   4.759   1.365  0.0084 -0.2756 -0.3282
 1691SOL    HW2 6536   2.587   4.839   1.320  1.1283 -0.8272 -0.6600
 1691SOL    HW3 6537   2.494   4.788   1.429  0.9997  1.0319  0.1315
 1691SOL    MW4 6538   2.555   4.773   1.368  0.1739  0.3425  0.0631
 1692SOL     OW 6539   1.623   1.733   1.490 -0.3245  0.0720 -0.0710
 1692SOL    HW2 6540   1.537   1.720   1.531  0.3273 -1.2706  0.9755
 1692SOL    HW3 6541   1.656   1.815   1.528 -1.1245  0.5997 -0.4871
 1692SOL    MW4 6542   1.616   1.742   1.501  0.1635  0.1081 -0.0241
 1693SOL     OW 6543   2.425   5.679   4.681 -0.3333  0.0700 -0.3420
 1693SOL    HW2 6544   2.486   5.735   4.729  0.1421 -0.6855 -0.0461
 1693SOL    HW3 6545   2.412   5.724   4.598 -0.2406  0.7992  0.0265
 1693SOL    MW4 6546   2.432   5.692   4.677 -0.0457  0.2089  0.8995
 1694SOL     OW 6547   2.877   5.471   2.751  0.1438  0.2183  0.1380
 1694SOL    HW2 6548   2.882   5.558   2.712 -0.2096  0.0455 -0.3055
 1694SOL    HW3 6549   2.787   5.443   2.736  0.7561 -1.0345 -1.5467
 1694SOL    MW4 6550   2.866   5.479   2.744  0.1409 -0.2696 -0.5350
 1695SOL     OW 6551   0.819   2.917   3.242 -0.3873  0.3595  0.0930
 1695SOL    HW2 6552   0.787   2.827   3.237 -1.6120  0.8340 -0.9619
 1695SOL    HW3 6553   0.907   2.913   3.204 -0.2110 -0.4839  0.5632
 1695SOL    MW4 6554   0.827   2.905   3.236  0.5300  0.3156 -0.0931
 1696SOL     OW 6555   1.820   1.666   5.435 -0.4651 -0.0572 -0.3145
 1696SOL    HW2 6556   1.770   1.606   5.379 -0.4409  0.0849 -0.4882
 1696SOL    HW3 6557   1.908   1.668   5.396 -0.2000 -0.6238  0.2238
 1696SOL    MW4 6558   1.825   1.658   5.423  0.3344 -0.1698  0.1635
 1697SOL     OW 6559   0.765   1.407   2.825 -0.4887 -0.0793 -0.1459
 1697SOL    HW2 6560   0.767   1.433   2.917 -0.3524  1.3175 -0.5083
 1697SOL    HW3 6561   0.835   1.342   2.816 -2.0769 -2.0621  1.2103
 1697SOL    MW4 6562   0.775   1.402   2.836  0.4245 -0.0571  0.0673
 1698SOL     OW 6563   2.590   6.347   0.452 -0.6347 -0.6001  1.0784
 1698SOL    HW2 6564   2.547   6.431   0.470  1.9987  1.1281 -0.0497
 1698SOL    HW3 6565   2.646   6.333   0.528  2.0765  0.9684 -0.4468
 1698SOL    MW4 6566   2.592   6.357   0.464 -0.1960  0.2234  0.1406
 1699SOL     OW 6567   0.572   4.522   2.347  0.5512  0.5231 -0.0224
 1699SOL    HW2 6568   0.520   4.597   2.317  0.0624  0.0437 -0.3940
 1699SOL    HW3 6569   0.548   4.451   2.288  0.1072 -0.2515  1.0709
 1699SOL    MW4 6570   0.562   4.523   2.335  0.0813 -0.4201  0.3485
 1700SOL     OW 6571   5.705   3.516   5.333  0.0087 -0.5179 -0.2094
 1700SOL    HW2 6572   5.749   3.533   5.416 -1.2814  2.1137  0.0280
 1700SOL    HW3 6573   5.776   3.510   5.269  0.9205 -0.8646  0.8047
 1700SOL    MW4 6574   5.720   3.517   5.335 -0.5968 -0.1786 -0.1093
 1701SOL     OW 6575   0.954   1.247   0.620 -0.2149  0.4093 -0.9030
 1701SOL    HW2 6576   0.973   1.183   0.552 -1.4013  1.2165 -2.0363
 1701SOL    HW3 6577   1.029   1.306   0.619  0.8451 -0.8440  0.0883
 1701SOL    MW4 6578   0.967   1.246   0.611 -0.3636 -0.5886  0.1633
 1702SOL     OW 6579   2.334   5.230   4.760 -0.9632 -0.0063  0.1205
 1702SOL    HW2 6580   2.383   5.166   4.811 -0.3283 -1.1094 -1.7940
 1702SOL    HW3 6581   2.388   5.309   4.762 -0.4353 -0.3719  0.2477
 1702SOL    MW4 6582   2.347   5.232   4.767  0.0298  0.4420  0.4534
 1703SOL     OW 6583   1.148   0.017   2.728  0.0076  0.3438 -0.2708
 1703SOL    HW2 6584   1.160   0.109   2.752  0.0762  0.5267 -0.9761
 1703SOL    HW3 6585   1.201   0.006   2.649 -0.5843 -0.1070 -0.6134
 1703SOL    MW4 6586   1.157   0.028   2.721  0.1212 -0.7608  0.1396
 1704SOL     OW 6587   3.822   6.215   5.175 -0.0954 -0.2991 -0.5236
 1704SOL    HW2 6588   3.851   6.131   5.141 -0.4367 -0.3374 -0.7193
 1704SOL    HW3 6589   3.778   6.257   5.101 -1.7302 -0.7875  0.1318
 1704SOL    MW4 6590   3.820   6.210   5.160 -0.5448  0.0595 -0.5232
 1705SOL     OW 6591   3.951   4.387   0.549  0.0445  0.1276 -0.4196
 1705SOL    HW2 6592   3.972   4.446   0.476 -1.3050 -0.2876 -1.1759
 1705SOL    HW3 6593   4.036   4.369   0.590  0.8177  0.5337 -1.7726
 1705SOL    MW4 6594   3.965   4.392   0.545  0.3554 -0.6712 -0.6581
 1706SOL     OW 6595   2.132   5.671   3.290 -0.5627 -0.7097  0.4920
 1706SOL    HW2 6596   2.213   5.650   3.337 -0.9927 -0.4083  1.3966
 1706SOL    HW3 6597   2.063   5.658   3.355 -1.0683  0.8653  0.3159
 1706SOL    MW4 6598   2.134   5.667   3.305 -0.4743  0.2334  0.0449
 1707SOL     OW 6599   5.169   2.856   4.926 -0.3196 -0.0715  0.8223
 1707SOL    HW2 6600   5.164   2.884   5.017 -0.4885 -0.2258  0.8608
 1707SOL    HW3 6601   5.252   2.808   4.921 -0.7226 -0.8167  1.1101
 1707SOL    MW4 6602   5.180   2.853   4.938  0.2964 -0.6314 -0.0339
 1708SOL     OW 6603   0.208   1.047   0.470 -0.0793  0.0493  0.1265
 1708SOL    HW2 6604   0.188   1.069   0.380 -1.2276 -0.3789  0.2595
 1708SOL    HW3 6605   0.132   0.997   0.500 -1.5351  3.3495  2.4996
 1708SOL    MW4 6606   0.195   1.043   0.462 -0.0166 -0.1445  0.2399
 1709SOL     OW 6607   3.559   0.360   2.252  0.5506 -0.1844 -0.1843
 1709SOL    HW2 6608   3.550   0.412   2.171  3.5084  0.3022 -0.2870
 1709SOL    HW3 6609   3.541   0.270   2.225 -1.4416  0.2982 -0.6803
 1709SOL    MW4 6610   3.555   0.355   2.238 -0.0503 -0.2814  0.0515
 1710SOL     OW 6611   0.861   5.700   4.226  0.1013  0.2403  0.5503
 1710SOL    HW2 6612   0.898   5.758   4.159 -0.9282 -0.5585 -0.7726
 1710SOL    HW3 6613   0.824   5.627   4.176  0.3522 -0.9953  2.0878
 1710SOL    MW4 6614   0.861   5.698   4.211 -0.6952  0.2515 -0.0517
 1711SOL     OW 6615   0.051   4.823   5.090 -0.2800 -0.0997 -0.1229
 1711SOL    HW2 6616  -0.012   4.869   5.035 -0.3731  2.3537  1.8743
 1711SOL    HW3 6617  -0.002   4.760   5.140 -0.3978 -1.2716 -1.6479
 1711SOL    MW4 6618   0.036   4.821   5.090  0.2089  0.0721  0.7626
 1712SOL     OW 6619   5.520   2.928   5.572 -0.2302  0.0416  0.3467
 1712SOL    HW2 6620   5.518   3.015   5.610 -0.9454 -0.0411  0.4945
 1712SOL    HW3 6621   5.588   2.933   5.505 -2.7712  1.8418 -2.3329
 1712SOL    MW4 6622   5.529   2.940   5.568  0.0871 -0.1155 -0.1477
 1713SOL     OW 6623   1.686   4.302   4.636 -0.1223  0.1553  0.1190
 1713SOL    HW2 6624   1.704   4.354   4.714 -0.4604 -1.1702  1.0947
 1713SOL    HW3 6625   1.615   4.349   4.592 -1.3901 -0.1841  1.7156
 1713SOL    MW4 6626   1.679   4.315   4.640  0.3757  0.1629  0.1830
 1714SOL     OW 6627   1.112   1.652   4.718 -0.2486  0.1052  0.0358
 1714SOL    HW2 6628   1.199   1.620   4.743  0.4177  0.7359 -1.3311
 1714SOL    HW3 6629   1.071   1.679   4.800  0.6519 -0.6693  0.7578
 1714SOL    MW4 6630   1.118   1.651   4.732 -0.8358 -0.3791 -0.2943
 1715SOL     OW 6631   5.327   6.327   6.228 -0.4416  0.4543  0.1628
 1715SOL    HW2 6632   5.356   6.317   6.138 -1.5313 -0.9857 -0.0628
 1715SOL    HW3 6633   5.408   6.338   6.278  0.2551  0.0639 -0.8472
 1715SOL    MW4 6634   5.342   6.327   6.223  0.2538  0.3808  0.5061
 1716SOL     OW 6635   0.995   1.719   4.965  0.0530 -0.4824  0.9011
 1716SOL    HW2 6636   0.927   1.655   4.985  0.2222 -0.7461  0.6285
 1716SOL    HW3 6637   1.066   1.698   5.026 -0.3500  0.1934  1.6293
 1716SOL    MW4 6638   0.995   1.708   4.976 -0.0315  0.2728 -0.7489
 1717SOL     OW 6639   0.995   5.467   0.120  0.9714 -0.8034  0.2797
 1717SOL    HW2 6640   0.950   5.407   0.061  1.3172  0.8243 -1.7439
 1717SOL    HW3 6641   0.925   5.520   0.159  0.8313 -1.1891  0.5662
 1717SOL    MW4 6642   0.980   5.466   0.118 -0.0891  0.5289  0.1941
 1718SOL     OW 6643   2.326   0.792   1.276 -0.4249 -0.0012  0.0214
 1718SOL    HW2 6644   2.269   0.718   1.298 -0.1021 -0.2603 -0.0135
 1718SOL    HW3 6645   2.344   0.833   1.360 -2.8885  1.7450 -0.1939
 1718SOL    MW4 6646   2.321   0.787   1.290  0.3165 -0.0834 -0.4727
 1719SOL     OW 6647   4.463   4.079   3.591 -0.1407  0.5234 -0.1088
 1719SOL    HW2 6648   4.374   4.095   3.622 -0.5359 -0.3102 -0.7686
 1719SOL    HW3 6649   4.520   4.121   3.656 -0.9522 -0.3899  1.2229
 1719SOL    MW4 6650   4.459   4.087   3.603  0.1153  0.1380 -0.2292
 1720SOL     OW 6651   2.382   0.331   2.524  0.0859 -0.4398  0.1060
 1720SOL    HW2 6652   2.471   0.358   2.499 -0.6041  1.7641 -0.2347
 1720SOL    HW3 6653   2.394   0.276   2.601  1.6724  1.4605  1.3074
 1720SOL    MW4 6654   2.396   0.328   2.530 -0.0992  0.0475 -0.1901
 1721SOL     OW 6655   2.858   1.569   4.374  0.1903 -0.5202 -0.1985
 1721SOL    HW2 6656   2.847   1.481   4.337 -2.7210 -0.5446  0.5058
 1721SOL    HW3 6657   2.896   1.553   4.460  1.6093 -0.8841 -0.8548
 1721SOL    MW4 6658   2.862   1.555   4.380 -0.0143 -0.4838 -0.1119
 1722SOL     OW 6659   4.292   0.057   0.785 -0.0584 -0.2339  0.5323
 1722SOL    HW2 6660   4.226   0.038   0.718 -1.6544 -1.4832  2.3609
 1722SOL    HW3 6661   4.353   0.116   0.741 -0.3321 -1.9093 -2.4158
 1722SOL    MW4 6662   4.291   0.062   0.770  0.1454 -0.1825  0.3047
 1723SOL     OW 6663   1.230   1.948   2.098 -0.1317 -0.8036  0.2486
 1723SOL    HW2 6664   1.317   1.981   2.075 -0.1874 -0.7299  0.1399
 1723SOL    HW3 6665   1.244   1.857   2.124 -0.0887 -0.9419 -0.2429
 1723SOL    MW4 6666   1.243   1.941   2.098 -0.2062  0.5021  0.5160
 1724SOL     OW 6667   3.575   0.437   3.747  0.2388 -0.1965  0.6291
 1724SOL    HW2 6668   3.624   0.406   3.672 -1.2401 -1.5866  0.1810
 1724SOL    HW3 6669   3.629   0.414   3.823  0.6616 -0.9373  0.1120
 1724SOL    MW4 6670   3.588   0.430   3.747 -0.5764 -0.7445  0.2579
 1725SOL     OW 6671   4.972   1.154   5.096  0.6039  0.2766 -0.2274
 1725SOL    HW2 6672   4.879   1.140   5.079  0.5888 -0.4204  0.3848
 1725SOL    HW3 6673   5.014   1.138   5.011  0.3864 -1.7120 -0.0132
 1725SOL    MW4 6674   4.965   1.150   5.082  0.3450 -0.3905 -0.1630
 1726SOL     OW 6675   5.209   1.646   5.015 -0.5219 -0.4665 -0.3684
 1726SOL    HW2 6676   5.122   1.680   5.037 -0.0101 -0.8471  2.6046
 1726SOL    HW3 6677   5.267   1.682   5.081  1.0856 -2.4246 -0.6197
 1726SOL    MW4 6678   5.205   1.655   5.026 -0.0351  0.1002 -0.0222
 1727SOL     OW 6679   3.814   3.503   5.174 -0.4384 -0.0357  0.7947
 1727SOL    HW2 6680   3.885   3.441   5.189  0.3356  0.6984  0.2883
 1727SOL    HW3 6681   3.735   3.457   5.202 -0.2235 -2.1302 -1.6534
 1727SOL    MW4 6682   3.813   3.489   5.180  0.2875 -0.7736 -0.0165
 1728SOL     OW 6683   4.853   5.103   0.565 -0.0238 -0.1183 -0.1806
 1728SOL    HW2 6684   4.807   5.112   0.648  1.6557  1.3166  0.6555
 1728SOL    HW3 6685   4.946   5.098   0.588  0.4215 -1.0076 -1.9116
 1728SOL    MW4 6686   4.859   5.103   0.579 -0.5957  0.1226  0.0211
 1729SOL     OW 6687   3.704   2.826   2.148  0.0016 -0.0018 -0.3084
 1729SOL    HW2 6688   3.732   2.752   2.200  0.3017 -1.1625 -2.0412
 1729SOL    HW3 6689   3.717   2.902   2.205 -1.0143 -1.3003  1.7859
 1729SOL    MW4 6690   3.709   2.827   2.162 -0.0927 -0.1585 -0.2021
 1730SOL     OW 6691   3.697   0.273   1.488 -0.4553  0.9101 -0.0347
 1730SOL    HW2 6692   3.709   0.288   1.582 -0.1799 -0.8839  0.2505
 1730SOL    HW3 6693   3.760   0.205   1.466 -0.6815  1.1367 -1.4836
 1730SOL    MW4 6694   3.707   0.266   1.498  0.3938 -0.0102  0.4063
 1731SOL     OW 6695   2.574   6.033   4.596 -0.3763  1.1085  0.4126
 1731SOL    HW2 6696   2.606   5.943   4.590 -0.6954  0.8777  1.7685
 1731SOL    HW3 6697   2.518   6.045   4.519 -2.5106 -0.7746  1.5567
 1731SOL    MW4 6698   2.571   6.023   4.585  0.0240 -0.0904 -0.0492
 1732SOL     OW 6699   1.075   1.679   3.001  0.1226 -1.0702 -0.0056
 1732SOL    HW2 6700   1.077   1.633   3.085  0.2832  2.1190  1.9104
 1732SOL    HW3 6701   1.162   1.718   2.994 -0.4693  0.1478 -0.7595
 1732SOL    MW4 6702   1.087   1.678   3.011  0.9084  0.6268  0.3524
 1733SOL     OW 6703   4.681   0.071   1.825  0.7788 -0.5852 -0.4897
 1733SOL    HW2 6704   4.669   0.114   1.909  0.0579 -1.5643 -0.0704
 1733SOL    HW3 6705   4.716  -0.015   1.847  1.0771 -0.6595 -1.2295
 1733SOL    MW4 6706   4.684   0.065   1.839  0.2674  0.5845  0.1406
 1734SOL     OW 6707   3.141   3.342   2.606  0.0848 -0.2623  0.0517
 1734SOL    HW2 6708   3.162   3.387   2.688  1.7957  0.2318 -0.6282
 1734SOL    HW3 6709   3.162   3.405   2.537 -0.0461 -1.1529 -0.8285
 1734SOL    MW4 6710   3.146   3.356   2.608 -0.2754  0.1489  0.0072
 1735SOL     OW 6711   6.107   2.956   0.661  0.5137 -0.5698  0.2828
 1735SOL    HW2 6712   6.201   2.963   0.644  1.0055  0.5104  2.9838
 1735SOL    HW3 6713   6.102   2.918   0.748 -1.6004 -0.8127  0.0920
 1735SOL    MW4 6714   6.119   2.952   0.670  0.9551  0.2341  0.3380
 1736SOL     OW 6715   3.099   4.759   3.102  0.5369  0.3155 -1.1301
 1736SOL    HW2 6716   3.075   4.726   3.016  2.6513 -0.9593 -1.3118
 1736SOL    HW3 6717   3.192   4.738   3.111  0.0717 -1.0558  2.0974
 1736SOL    MW4 6718   3.108   4.752   3.092  0.4908 -0.4047 -0.3775
 1737SOL     OW 6719   4.482   6.185   4.136 -0.4470  0.4589 -0.0823
 1737SOL    HW2 6720   4.550   6.198   4.202 -0.4275 -0.5929  0.1257
 1737SOL    HW3 6721   4.402   6.218   4.178 -0.4034 -0.0388  0.4041
 1737SOL    MW4 6722   4.480   6.191   4.150 -0.5774 -0.0095  0.1153
 1738SOL     OW 6723   5.424   2.078   0.865 -0.2051  0.0853 -0.2954
 1738SOL    HW2 6724   5.504   2.072   0.814  1.0923  2.2594  1.3194
 1738SOL    HW3 6725   5.371   2.003   0.835  1.9506 -0.8335 -2.1282
 1738SOL    MW4 6726   5.427   2.067   0.854  0.2473  0.5181  0.3067
 1739SOL     OW 6727   1.989   3.544   4.959  0.5179  0.3427 -0.2293
 1739SOL    HW2 6728   2.053   3.487   4.916 -0.5844  0.3395 -1.9266
 1739SOL    HW3 6729   1.934   3.484   5.009  0.4480  0.0996 -0.5951
 1739SOL    MW4 6730   1.990   3.528   4.960 -0.2497  0.3174  0.0418
 1740SOL     OW 6731   1.257   3.885   2.249  0.0299  0.1432 -0.0673
 1740SOL    HW2 6732   1.276   3.875   2.343  3.6361 -0.4263 -0.7155
 1740SOL    HW3 6733   1.243   3.979   2.237 -0.5905  0.2110  1.0536
 1740SOL    MW4 6734   1.258   3.896   2.260 -0.3057  0.1284 -0.1516
 1741SOL     OW 6735   0.124   2.883   3.479 -0.5781  0.1531  0.0648
 1741SOL    HW2 6736   0.212   2.918   3.494  0.6181 -2.2567 -0.8502
 1741SOL    HW3 6737   0.092   2.859   3.566  0.4139 -0.6056  0.2277
 1741SOL    MW4 6738   0.131   2.885   3.492  0.1798 -0.0077  0.5449
 1742SOL     OW 6739   6.273   1.688   3.593  0.3829 -0.9045 -0.0032
 1742SOL    HW2 6740   6.350   1.677   3.539  1.2142 -3.6957  1.5815
 1742SOL    HW3 6741   6.306   1.725   3.675 -0.1689 -0.9725  0.2568
 1742SOL    MW4 6742   6.287   1.692   3.597  0.4606 -0.2689  0.3097
 1743SOL     OW 6743   3.150   4.343   0.943 -0.1297 -0.6086  0.1374
 1743SOL    HW2 6744   3.237   4.339   0.981  0.2923 -0.0250 -0.7116
 1743SOL    HW3 6745   3.116   4.254   0.949  0.1590 -0.6478  1.2897
 1743SOL    MW4 6746   3.157   4.331   0.949 -0.7308 -0.4828 -0.5425
 1744SOL     OW 6747   5.846   0.325   2.946 -0.6027 -0.1141  0.2592
 1744SOL    HW2 6748   5.808   0.360   2.866  1.7021 -0.6895 -1.1575
 1744SOL    HW3 6749   5.828   0.231   2.942 -1.4591 -0.0009  1.0218
 1744SOL    MW4 6750   5.838   0.317   2.935 -0.3337  0.8952 -0.0997
 1745SOL     OW 6751   3.117   0.656   6.059  0.2444  0.1880  0.9217
 1745SOL    HW2 6752   3.205   0.618   6.066  0.2155  0.4037  3.7185
 1745SOL    HW3 6753   3.058   0.582   6.071  0.0019  0.1087 -0.5629
 1745SOL    MW4 6754   3.121   0.642   6.061  0.0502  0.3590 -0.0445
 1746SOL     OW 6755   3.456   4.302   1.877  0.0413 -0.1325  0.0532
 1746SOL    HW2 6756   3.479   4.280   1.786 -1.3120 -0.3767 -0.2668
 1746SOL    HW3 6757   3.481   4.394   1.887  1.3369 -0.4415 -0.1561
 1746SOL    MW4 6758   3.462   4.311   1.866  0.5186 -0.5211 -0.3714
 1747SOL     OW 6759   0.993   2.087   3.689  0.0756  0.3136  0.2776
 1747SOL    HW2 6760   0.910   2.043   3.711  0.7627 -1.0113  0.2796
 1747SOL    HW3 6761   0.967   2.177   3.672 -1.5902 -0.3698 -1.1496
 1747SOL    MW4 6762   0.978   2.093   3.690 -0.6720  0.0915 -0.0161
 1748SOL     OW 6763   2.355   2.883   5.522 -0.2947 -0.1562  0.4864
 1748SOL    HW2 6764   2.367   2.971   5.559  0.0175  2.0413 -4.1074
 1748SOL    HW3 6765   2.445   2.852   5.506 -0.4196 -1.1127  1.5196
 1748SOL    MW4 6766   2.369   2.891   5.525 -0.1789 -0.3224 -0.3505
 1749SOL     OW 6767   5.080   1.087   3.171  0.1826 -0.0171 -0.0389
 1749SOL    HW2 6768   5.033   1.150   3.117 -1.6945  0.4699  2.0219
 1749SOL    HW3 6769   5.147   1.138   3.215  0.1778  0.0570 -0.1170
 1749SOL    MW4 6770   5.083   1.102   3.170  0.1544  0.2023 -0.5294
 1750SOL     OW 6771   3.490   0.540   5.355  0.4013  0.7690  1.0274
 1750SOL    HW2 6772   3.523   0.524   5.266  0.2205 -1.4495  1.3108
 1750SOL    HW3 6773   3.467   0.633   5.355  1.2422  1.0382 -0.9592
 1750SOL    MW4 6774   3.492   0.550   5.343  0.0714  0.3537  0.3221
 1751SOL     OW 6775   3.154   2.535   1.322  0.0270 -0.2619 -0.2750
 1751SOL    HW2 6776   3.166   2.490   1.405  0.5532  0.2254 -0.0807
 1751SOL    HW3 6777   3.190   2.475   1.256  0.8563 -0.0773 -0.0050
 1751SOL    MW4 6778   3.160   2.521   1.324  0.3552 -0.3430  0.0159
 1752SOL     OW 6779   0.173   3.655   6.204  0.0104 -0.0016 -0.8599
 1752SOL    HW2 6780   0.234   3.728   6.193 -0.9560  0.7849 -1.0819
 1752SOL    HW3 6781   0.201   3.613   6.286  0.9376  0.2431 -1.0345
 1752SOL    MW4 6782   0.185   3.659   6.213 -0.1537  0.0772  0.3162
 1753SOL     OW 6783   2.524   5.412   4.215  0.2764  0.1818  0.1503
 1753SOL    HW2 6784   2.449   5.353   4.206  0.1429  0.0579  1.8188
 1753SOL    HW3 6785   2.600   5.354   4.217  0.0793 -0.1111  2.8319
 1753SOL    MW4 6786   2.524   5.397   4.214  0.1072 -0.0924  0.2050
 1754SOL     OW 6787   1.465   0.052   2.816  0.2295  0.4347  0.4786
 1754SOL    HW2 6788   1.384   0.004   2.832  0.6672 -0.3233  0.4642
 1754SOL    HW3 6789   1.458   0.130   2.872 -0.1767 -0.0032  1.0525
 1754SOL    MW4 6790   1.454   0.056   2.826 -0.3454  0.5358 -0.5400
 1755SOL     OW 6791   6.167   2.325   5.600  0.5572  0.2914 -0.0323
 1755SOL    HW2 6792   6.087   2.321   5.548 -0.6595 -0.0387  1.7785
 1755SOL    HW3 6793   6.237   2.338   5.536 -0.8033 -0.5641 -1.7610
 1755SOL    MW4 6794   6.166   2.327   5.585  0.4858  0.3923 -0.4557
 1756SOL     OW 6795   6.289   5.526   6.053 -0.2697  0.1786  0.1100
 1756SOL    HW2 6796   6.195   5.528   6.036  0.0500  2.2701 -2.0645
 1756SOL    HW3 6797   6.306   5.438   6.085 -3.0979  0.0911  1.6578
 1756SOL    MW4 6798   6.279   5.515   6.055 -0.6386  0.5103 -0.3863
 1757SOL     OW 6799   2.142   2.944   0.119  0.6232 -0.4290 -0.7875
 1757SOL    HW2 6800   2.176   2.998   0.190 -4.2361  2.0477  0.0796
 1757SOL    HW3 6801   2.129   2.858   0.157 -0.3743  0.4261  0.8976
 1757SOL    MW4 6802   2.145   2.940   0.133  0.5375 -0.2660  0.3392
 1758SOL     OW 6803   1.224   5.881   4.543 -0.5083 -0.2620  0.0813
 1758SOL    HW2 6804   1.283   5.831   4.487 -0.9217 -0.5514 -0.0989
 1758SOL    HW3 6805   1.164   5.923   4.481 -0.3973  0.1543  0.2544
 1758SOL    MW4 6806   1.224   5.880   4.527  0.2155  0.0936 -0.2197
 1759SOL     OW 6807   4.356   5.187   5.408  0.0788  0.0200  0.3187
 1759SOL    HW2 6808   4.442   5.152   5.433  1.3417 -0.2975 -3.8113
 1759SOL    HW3 6809   4.330   5.136   5.332 -2.1406  2.4276 -0.6934
 1759SOL    MW4 6810   4.364   5.176   5.402  0.3500  0.2510 -0.0302
 1760SOL     OW 6811   0.304   0.932   3.774  0.0054 -0.1759 -0.4186
 1760SOL    HW2 6812   0.342   0.898   3.694  0.2861 -1.7469  0.3445
 1760SOL    HW3 6813   0.225   0.978   3.746 -0.4966 -1.6279 -1.5166
 1760SOL    MW4 6814   0.298   0.934   3.760  0.3436 -0.2025 -0.0472
 1761SOL     OW 6815   3.848   1.067   2.598  0.3075  0.4326 -0.0362
 1761SOL    HW2 6816   3.862   0.973   2.607  1.0558  0.5672  0.3383
 1761SOL    HW3 6817   3.864   1.085   2.505  1.9484  0.4503  0.2216
 1761SOL    MW4 6818   3.852   1.057   2.587  0.1533 -0.0448 -0.5043
 1762SOL     OW 6819   1.937   1.796   2.637 -0.4902  0.0960 -0.5051
 1762SOL    HW2 6820   1.952   1.835   2.723 -1.0403  1.1594 -0.8772
 1762SOL    HW3 6821   1.842   1.784   2.633 -0.3239 -1.5037 -0.3197
 1762SOL    MW4 6822   1.926   1.799   2.648 -0.0602  0.1000  0.1803
 1763SOL     OW 6823   5.324   0.685   1.950  0.3141 -0.0725 -0.4437
 1763SOL    HW2 6824   5.234   0.707   1.929 -0.3592 -0.8048  1.4515
 1763SOL    HW3 6825   5.328   0.686   2.046  1.8842 -1.6577 -0.4284
 1763SOL    MW4 6826   5.313   0.688   1.960 -0.4115  0.3807  0.1125
 1764SOL     OW 6827   2.771   1.225   2.252 -0.6111  0.8321  0.5844
 1764SOL    HW2 6828   2.807   1.138   2.268 -2.1281  0.2319  0.8936
 1764SOL    HW3 6829   2.848   1.282   2.246  0.4942 -0.7505 -1.2182
 1764SOL    MW4 6830   2.786   1.221   2.253  0.7923 -0.1943 -0.1440
 1765SOL     OW 6831   3.062   3.043   5.588  0.5040  0.2154 -0.3830
 1765SOL    HW2 6832   3.108   3.022   5.507  0.4984  0.0262 -0.3379
 1765SOL    HW3 6833   2.971   3.052   5.563  0.5442  0.4409 -0.4470
 1765SOL    MW4 6834   3.056   3.042   5.574  0.0961  0.3503 -0.6585
 1766SOL     OW 6835   3.071   5.360   4.236 -0.2562 -0.0558  0.0279
 1766SOL    HW2 6836   3.102   5.402   4.156  0.8559 -1.2422 -0.1981
 1766SOL    HW3 6837   3.149   5.352   4.291 -0.9457  0.4926  1.1408
 1766SOL    MW4 6838   3.085   5.364   4.233  0.0367 -0.0744 -0.4656
 1767SOL     OW 6839   3.445   2.095   5.960 -0.1434 -0.7653  0.3030
 1767SOL    HW2 6840   3.366   2.103   6.014  0.1261  0.0787  0.5887
 1767SOL    HW3 6841   3.506   2.158   5.998  0.4278 -0.9244 -0.3397
 1767SOL    MW4 6842   3.443   2.104   5.973 -0.2822 -0.2091 -0.5133
 1768SOL     OW 6843   0.088   6.193   1.544  0.1835  0.3475  0.0080
 1768SOL    HW2 6844   0.067   6.273   1.591 -0.4079  2.7642 -3.8813
 1768SOL    HW3 6845   0.183   6.199   1.528  0.1618  0.2168 -0.1771
 1768SOL    MW4 6846   0.098   6.204   1.548 -0.1961 -0.1641 -1.6142
 1769SOL     OW 6847   2.551   2.644   3.254  0.5221  0.3270 -0.3234
 1769SOL    HW2 6848   2.508   2.729   3.246 -1.7543 -0.8641 -2.1791
 1769SOL    HW3 6849   2.498   2.597   3.319 -0.2642 -0.7000 -1.6507
 1769SOL    MW4 6850   2.538   2.649   3.261  0.3666 -0.4388  0.0469
 1770SOL     OW 6851   3.125   5.631   4.392  0.6401 -0.1251  0.7688
 1770SOL    HW2 6852   3.076   5.550   4.380 -0.9617  0.7486  1.2255
 1770SOL    HW3 6853   3.118   5.650   4.486  0.7863  0.6715  0.6253
 1770SOL    MW4 6854   3.118   5.623   4.403  0.4369 -0.1552 -0.0714
 1771SOL     OW 6855   2.584   4.740   5.721 -0.4264  0.1492 -0.7769
 1771SOL    HW2 6856   2.559   4.692   5.642 -1.7944 -0.5916  0.0601
 1771SOL    HW3 6857   2.571   4.832   5.699 -1.7554 -0.0979 -1.1263
 1771SOL    MW4 6858   2.579   4.745   5.708 -0.0763 -0.0371  0.1596
 1772SOL     OW 6859   3.211   0.667   2.457 -0.0291  0.7131 -0.1132
 1772SOL    HW2 6860   3.245   0.578   2.462 -1.0884  0.2651 -0.6590
 1772SOL    HW3 6861   3.172   0.682   2.543  0.8692  0.9690  0.2661
 1772SOL    MW4 6862   3.211   0.657   2.469 -0.3563  0.0947  0.0855
 1773SOL     OW 6863   3.218   1.087   6.304  0.7635  0.2633  0.3230
 1773SOL    HW2 6864   3.123   1.089   6.310  0.4933  1.9152 -2.4812
 1773SOL    HW3 6865   3.249   1.137   6.380 -0.6428  0.4718  0.7802
 1773SOL    MW4 6866   3.210   1.094   6.315 -0.2835  0.2334 -0.1260
 1774SOL     OW 6867   5.389   1.124   5.548  0.0555  0.1551  0.2120
 1774SOL    HW2 6868   5.366   1.045   5.499  0.7223  0.2990 -0.3435
 1774SOL    HW3 6869   5.409   1.189   5.481 -1.6265  1.1735  0.6265
 1774SOL    MW4 6870   5.388   1.123   5.533  0.0310  0.2809  0.8347
 1775SOL     OW 6871   0.819   0.955   6.332  0.6811 -0.0733  0.0896
 1775SOL    HW2 6872   0.839   0.865   6.306  1.0577 -0.3500  1.2946
 1775SOL    HW3 6873   0.868   1.009   6.269 -0.8653 -0.6542 -1.6790
 1775SOL    MW4 6874   0.828   0.950   6.320 -0.1000  0.0838  0.4215
 1776SOL     OW 6875   5.314   4.108   2.914  0.5931 -0.2547 -0.0446
 1776SOL    HW2 6876   5.254   4.035   2.900 -0.4197  0.8237 -1.6259
 1776SOL    HW3 6877   5.359   4.119   2.830  1.4076  0.3473  0.4526
 1776SOL    MW4 6878   5.312   4.100   2.901 -0.3272 -0.1273 -0.0682
 1777SOL     OW 6879   2.116   1.559   5.886 -0.0075  0.5877 -0.0672
 1777SOL    HW2 6880   2.204   1.522   5.895  0.0516  0.3990 -1.2549
 1777SOL    HW3 6881   2.106   1.616   5.962  0.5896 -0.4933  0.8516
 1777SOL    MW4 6882   2.126   1.561   5.897 -0.1394  0.2179  0.1424
 1778SOL     OW 6883   6.348   0.531   2.787  0.0198 -0.4729  0.0232
 1778SOL    HW2 6884   6.361   0.572   2.701 -1.8709 -0.2649 -0.2153
 1778SOL    HW3 6885   6.261   0.491   2.780 -0.2218 -0.3322  1.9001
 1778SOL    MW4 6886   6.338   0.531   2.774 -0.1497  0.7058 -0.1540
 1779SOL     OW 6887   1.326   1.610   3.966  0.1814 -0.8719 -0.1541
 1779SOL    HW2 6888   1.377   1.686   3.936  1.1842 -1.0831  0.9316
 1779SOL    HW3 6889   1.237   1.643   3.978  0.2664 -0.2481 -1.1379
 1779SOL    MW4 6890   1.321   1.624   3.963  0.2737  0.1926 -0.0960
 1780SOL     OW 6891   0.519   4.781   0.963 -0.6353  0.4918 -0.3594
 1780SOL    HW2 6892   0.466   4.702   0.959 -0.1130  0.1696 -1.0286
 1780SOL    HW3 6893   0.469   4.841   1.019 -1.1407 -0.2241 -0.0326
 1780SOL    MW4 6894   0.506   4.778   0.970 -0.3488 -0.5617 -0.2000
 1781SOL     OW 6895   0.591   4.793   3.011  0.0683  0.0674 -0.6339
 1781SOL    HW2 6896   0.600   4.860   2.944  0.3748 -1.4249 -2.1337
 1781SOL    HW3 6897   0.639   4.718   2.977 -1.7685 -1.5304  0.1485
 1781SOL    MW4 6898   0.599   4.792   2.998  0.4130  0.5456  0.2309
 1782SOL     OW 6899   1.356   4.230   0.501  0.1333 -0.0383 -0.1605
 1782SOL    HW2 6900   1.375   4.186   0.584  1.0573 -1.2011 -0.9513
 1782SOL    HW3 6901   1.327   4.318   0.526  1.0458 -0.1409  1.3717
 1782SOL    MW4 6902   1.355   4.236   0.515 -0.5958  0.2566 -0.1035
 1783SOL     OW 6903   1.964   0.550   2.352 -0.1172 -0.0214  0.3212
 1783SOL    HW2 6904   1.920   0.578   2.272 -0.0545  0.2505  0.3799
 1783SOL    HW3 6905   2.039   0.498   2.322 -0.4030 -0.3701  0.2183
 1783SOL    MW4 6906   1.968   0.547   2.338 -0.1122 -0.1451  0.0654
 1784SOL     OW 6907   5.200   2.266   5.007  0.7274 -0.3434 -0.3793
 1784SOL    HW2 6908   5.196   2.174   5.031  1.3978 -0.9813 -2.5048
 1784SOL    HW3 6909   5.128   2.307   5.056 -1.7824 -2.5996 -1.9266
 1784SOL    MW4 6910   5.190   2.259   5.017 -0.2577  0.3921 -0.2925
 1785SOL     OW 6911   5.948   1.081   3.744 -0.0623 -0.2103 -0.0329
 1785SOL    HW2 6912   5.918   1.024   3.673  0.0108 -0.9279  0.5015
 1785SOL    HW3 6913   5.975   1.021   3.814 -0.8214  0.4828  0.8862
 1785SOL    MW4 6914   5.948   1.066   3.744  0.6494 -0.6618  0.0020
 1786SOL     OW 6915   2.200   1.137   3.372  0.3116 -0.3038  0.2739
 1786SOL    HW2 6916   2.284   1.120   3.330 -1.0248 -2.3948 -1.8102
 1786SOL    HW3 6917   2.162   1.208   3.321  0.0402 -0.6557 -0.0216
 1786SOL    MW4 6918   2.206   1.144   3.360 -0.3104 -0.6779 -0.3203
 1787SOL     OW 6919   1.264   3.564   2.488  0.3832  0.0656 -0.2809
 1787SOL    HW2 6920   1.211   3.539   2.563  0.8161  0.0262  0.0188
 1787SOL    HW3 6921   1.288   3.481   2.446  0.7564  0.0407 -0.0279
 1787SOL    MW4 6922   1.260   3.550   2.492 -1.1204 -0.0476 -0.1413
 1788SOL     OW 6923   5.171   4.705   4.842  0.0491  0.0028  0.2576
 1788SOL    HW2 6924   5.173   4.786   4.893 -0.6530 -0.1479  0.5368
 1788SOL    HW3 6925   5.116   4.725   4.767  1.9876  0.5719 -1.0832
 1788SOL    MW4 6926   5.164   4.718   4.839 -0.3309  0.0685  0.5766
 1789SOL     OW 6927   4.163   4.615   5.095  0.4427 -0.5199  0.2924
 1789SOL    HW2 6928   4.087   4.631   5.151  0.4329 -1.0272  0.4341
 1789SOL    HW3 6929   4.138   4.539   5.042  1.1506 -1.2293  0.9296
 1789SOL    MW4 6930   4.150   4.607   5.096  0.3163 -0.2734 -0.6612
 1790SOL     OW 6931   0.170   1.804   6.062 -0.5299 -0.1535 -0.1169
 1790SOL    HW2 6932   0.227   1.876   6.090  0.1480 -0.2130 -1.2765
 1790SOL    HW3 6933   0.090   1.846   6.032 -0.6726  0.0114  0.4852
 1790SOL    MW4 6934   0.167   1.819   6.062 -0.0481 -0.4299  0.3254
 1791SOL     OW 6935   2.959   0.689   4.271  0.1748 -0.3902 -0.8087
 1791SOL    HW2 6936   3.040   0.741   4.264  0.0632 -0.3029 -1.5219
 1791SOL    HW3 6937   2.900   0.729   4.207 -1.2913  1.0710  1.3362
 1791SOL    MW4 6938   2.962   0.701   4.261 -0.0855  0.2620  0.0498
 1792SOL     OW 6939   5.072   5.620   5.609  0.2681  0.1275  0.5294
 1792SOL    HW2 6940   5.156   5.629   5.563  0.5456  0.9615  1.1799
 1792SOL    HW3 6941   5.046   5.529   5.593  1.1114 -0.0353  0.0117
 1792SOL    MW4 6942   5.080   5.609   5.601 -0.3655  0.9831  0.0762
 1793SOL     OW 6943   3.901   4.214   2.607  0.3347  0.0184 -0.1595
 1793SOL    HW2 6944   3.868   4.185   2.523 -0.8949  0.3707  0.1852
 1793SOL    HW3 6945   3.946   4.138   2.644  0.2100 -0.3603 -0.7870
 1793SOL    MW4 6946   3.903   4.200   2.601 -0.3193  0.6781 -0.2905
 1794SOL     OW 6947   2.194   2.454   2.902  0.2471 -0.1784  0.3193
 1794SOL    HW2 6948   2.100   2.441   2.914  0.2439 -0.4024  0.0642
 1794SOL    HW3 6949   2.202   2.489   2.813  0.4311 -0.4603  0.2258
 1794SOL    MW4 6950   2.182   2.457   2.892  0.1062 -0.1135 -0.5404
 1795SOL     OW 6951   3.638   3.036   1.735  0.2479  0.5544 -0.8760
 1795SOL    HW2 6952   3.626   2.943   1.717 -0.8369  0.4991  0.0049
 1795SOL    HW3 6953   3.580   3.054   1.809  0.4840  1.9207 -0.9880
 1795SOL    MW4 6954   3.629   3.026   1.743  0.2412 -0.8943  0.5873
 1796SOL     OW 6955   2.032   0.782   6.411 -0.3351  0.2240 -0.2745
 1796SOL    HW2 6956   2.045   0.834   6.333  0.2145 -0.5257 -0.6994
 1796SOL    HW3 6957   1.939   0.759   6.411 -0.2334 -0.2008 -0.9876
 1796SOL    MW4 6958   2.021   0.786   6.401 -0.4106 -0.5992  0.5189
 1797SOL     OW 6959   4.364   1.821   0.661 -0.0200 -0.3544  0.2374
 1797SOL    HW2 6960   4.309   1.822   0.739  0.4018 -0.8430  0.5455
 1797SOL    HW3 6961   4.345   1.904   0.617 -0.6113 -0.2875  0.6098
 1797SOL    MW4 6962   4.354   1.832   0.665 -0.0464  0.3787 -0.0873
 1798SOL     OW 6963   3.887   6.049   6.205 -0.2946 -0.3547  0.2257
 1798SOL    HW2 6964   3.977   6.020   6.189 -0.5203 -0.5829 -0.6765
 1798SOL    HW3 6965   3.854   5.988   6.272 -0.4118 -1.5561 -0.8756
 1798SOL    MW4 6966   3.895   6.037   6.212 -0.3657 -0.0502  0.1363
 1799SOL     OW 6967   0.164   2.099   2.689 -0.0903 -0.4663  0.0695
 1799SOL    HW2 6968   0.127   2.185   2.706  1.0601  0.2366 -0.8742
 1799SOL    HW3 6969   0.256   2.107   2.713 -0.2046 -1.8013  1.1043
 1799SOL    MW4 6970   0.171   2.111   2.695  0.0645 -0.4390  0.0434
 1800SOL     OW 6971   1.076   5.548   4.349  0.5596  0.4377  0.1339
 1800SOL    HW2 6972   1.164   5.586   4.342  0.5106  1.0606  2.1469
 1800SOL    HW3 6973   1.017   5.620   4.326  0.5468  0.8212  1.2686
 1800SOL    MW4 6974   1.080   5.563   4.345 -0.0046 -0.3522 -0.2413
 1801SOL     OW 6975   2.068   3.191   3.006 -0.2324 -0.3565 -0.4288
 1801SOL    HW2 6976   2.043   3.263   2.947 -0.4675  1.0467  1.3063
 1801SOL    HW3 6977   2.144   3.152   2.964  0.9091  1.9451 -0.7095
 1801SOL    MW4 6978   2.075   3.196   2.993 -0.0539 -0.1238 -0.1477
 1802SOL     OW 6979   3.452   0.873   1.699  0.1137  0.5795  0.0634
 1802SOL    HW2 6980   3.479   0.889   1.789 -0.8665 -3.6154  1.3391
 1802SOL    HW3 6981   3.529   0.893   1.647  2.7299 -2.1040  2.5303
 1802SOL    MW4 6982   3.465   0.877   1.704 -0.2829 -0.4646 -0.3604
 1803SOL     OW 6983   4.282   6.211   5.095 -0.1093  0.3386 -0.4243
 1803SOL    HW2 6984   4.348   6.154   5.055  1.3781  1.2945  0.5694
 1803SOL    HW3 6985   4.255   6.165   5.174 -0.0965  0.2735 -0.4582
 1803SOL    MW4 6986   4.287   6.197   5.100  0.9615  0.3960 -0.2342
 1804SOL     OW 6987   3.888   4.693   1.648  0.3177 -0.0512  0.2852
 1804SOL    HW2 6988   3.823   4.656   1.588  0.2529 -0.2494  0.4739
 1804SOL    HW3 6989   3.972   4.659   1.616  0.2340 -0.5995  0.6204
 1804SOL    MW4 6990   3.890   4.683   1.636  0.2243  0.3270 -0.4010
 1805SOL     OW 6991   6.281   0.520   4.156 -0.2373  0.3448 -0.4695
 1805SOL    HW2 6992   6.286   0.613   4.180  2.1399  0.0150  0.5535
 1805SOL    HW3 6993   6.297   0.473   4.238 -1.1240 -0.9950 -1.0277
 1805SOL    MW4 6994   6.284   0.526   4.170  0.5105 -0.1138 -0.0506
 1806SOL     OW 6995   2.421   2.384   5.784  0.3408  1.1749  0.7033
 1806SOL    HW2 6996   2.369   2.341   5.716 -0.5541 -1.7629  3.0642
 1806SOL    HW3 6997   2.483   2.438   5.735  0.1504 -1.1902 -2.5049
 1806SOL    MW4 6998   2.423   2.385   5.768 -0.2027 -0.0196 -0.3145
 1807SOL     OW 6999   5.254   5.275   3.917 -0.4045  0.1438  0.0323
 1807SOL    HW2 7000   5.228   5.189   3.952 -0.1249  0.3734  0.8290
 1807SOL    HW3 7001   5.303   5.254   3.837  0.4738 -0.4977  0.7226
 1807SOL    MW4 7002   5.257   5.261   3.911  0.5265  0.2445 -0.3896
 1808SOL     OW 7003   0.364   2.520   4.809  0.0716 -0.0444 -0.6200
 1808SOL    HW2 7004   0.271   2.500   4.798  0.1944 -2.0411  1.2711
 1808SOL    HW3 7005   0.366   2.612   4.836 -1.4196 -0.1215 -0.1436
 1808SOL    MW4 7006   0.352   2.530   4.811  0.1415 -0.1226  0.0897
 1809SOL     OW 7007   5.310   3.035   1.439 -0.4871  0.1528 -0.4310
 1809SOL    HW2 7008   5.217   3.037   1.417 -0.5846 -0.7088 -0.1270
 1809SOL    HW3 7009   5.354   3.070   1.361 -1.0326  0.0648 -0.7840
 1809SOL    MW4 7010   5.304   3.040   1.425  0.0954  0.2805  0.3023
 1810SOL     OW 7011   0.126   3.294   2.998  0.0570  0.0748 -0.1838
 1810SOL    HW2 7012   0.115   3.276   3.091  0.0682 -1.2641 -0.4197
 1810SOL    HW3 7013   0.069   3.369   2.981 -0.0391  0.2537  0.8686
 1810SOL    MW4 7014   0.117   3.301   3.008  0.2252  0.4446  0.0249
 1811SOL     OW 7015   3.549   4.536   2.065  0.2831 -0.0403  0.4164
 1811SOL    HW2 7016   3.567   4.465   2.126 -0.5241 -1.0699 -0.5220
 1811SOL    HW3 7017   3.489   4.594   2.112  1.4325  0.3999  1.4167
 1811SOL    MW4 7018   3.544   4.534   2.079 -0.1963  0.3337  0.2277
 1812SOL     OW 7019   2.001   4.993   4.009 -0.2729 -0.4436  0.2557
 1812SOL    HW2 7020   2.090   4.982   3.976 -0.1129 -0.5295  0.7160
 1812SOL    HW3 7021   1.946   4.986   3.930  0.1884  0.6423 -0.1806
 1812SOL    MW4 7022   2.006   4.990   3.994 -0.3834 -0.5877 -0.5649
 1813SOL     OW 7023   3.193   3.413   3.964 -0.2231 -0.2857  0.3490
 1813SOL    HW2 7024   3.282   3.379   3.970  0.9330  2.3025 -0.5909
 1813SOL    HW3 7025   3.203   3.500   3.926 -2.9571  0.9640  2.1271
 1813SOL    MW4 7026   3.206   3.420   3.960 -1.2293 -0.2125  0.0298
 1814SOL     OW 7027   3.770   3.173   5.171  0.1575  0.0576  0.1903
 1814SOL    HW2 7028   3.719   3.109   5.221 -0.0884  0.5387  0.5616
 1814SOL    HW3 7029   3.860   3.144   5.180  0.0086 -0.4816 -0.0008
 1814SOL    MW4 7030   3.775   3.160   5.179  0.4685  0.1255 -0.1667
 1815SOL     OW 7031   2.022   0.256   1.299  0.2369 -0.2141 -0.4518
 1815SOL    HW2 7032   1.951   0.318   1.317  0.5511 -0.3307  1.3056
 1815SOL    HW3 7033   1.998   0.177   1.346  1.9267  0.0336  0.9278
 1815SOL    MW4 7034   2.010   0.254   1.307 -0.1414 -0.2147  0.0221
 1816SOL     OW 7035   3.080   6.267   0.581  0.5000 -0.1367  0.1886
 1816SOL    HW2 7036   3.150   6.327   0.608  0.5161 -0.5660  1.1288
 1816SOL    HW3 7037   3.083   6.196   0.645  0.5488 -1.2021 -0.9850
 1816SOL    MW4 7038   3.089   6.266   0.593  0.6069 -0.1111 -0.1918
 1817SOL     OW 7039   4.182   1.964   4.972 -0.2809  0.1024  0.3236
 1817SOL    HW2 7040   4.249   1.899   4.952 -0.9008 -0.5218  0.1938
 1817SOL    HW3 7041   4.100   1.914   4.969 -0.8105  0.9841 -0.1851
 1817SOL    MW4 7042   4.180   1.949   4.969  0.5903 -0.5335  0.2381
 1818SOL     OW 7043   6.166   5.071   1.919 -0.6099  0.4484 -0.7249
 1818SOL    HW2 7044   6.118   5.151   1.898 -0.9293  0.2770 -0.6618
 1818SOL    HW3 7045   6.102   5.001   1.908 -0.1829  0.1419 -1.3184
 1818SOL    MW4 7046   6.151   5.073   1.915  0.0480 -0.4107  0.4232
 1819SOL     OW 7047   0.385   5.675   2.912 -0.8216  0.2074 -0.2351
 1819SOL    HW2 7048   0.460   5.701   2.858 -0.7133  1.4521  0.4813
 1819SOL    HW3 7049   0.344   5.603   2.863  0.2321  0.1938 -1.1419
 1819SOL    MW4 7050   0.389   5.669   2.899 -0.2672 -0.9830  0.4051
 1820SOL     OW 7051   3.768   5.104   4.282 -0.5167 -0.2442 -0.0580
 1820SOL    HW2 7052   3.791   5.175   4.223 -0.1020 -0.6578 -0.3979
 1820SOL    HW3 7053   3.741   5.032   4.224 -1.4886 -0.1829  0.2893
 1820SOL    MW4 7054   3.767   5.104   4.266  0.0153 -0.4637  0.5152
 1821SOL     OW 7055   2.659   4.041   3.456  1.0317  0.1933 -0.4255
 1821SOL    HW2 7056   2.643   3.990   3.535  0.0405  0.6056 -0.3501
 1821SOL    HW3 7057   2.732   4.099   3.478  0.1995  0.9194  0.4766
 1821SOL    MW4 7058   2.667   4.042   3.469 -0.3482 -0.0285  0.4957
 1822SOL     OW 7059   3.484   3.177   3.422  0.5105 -0.2208 -0.3102
 1822SOL    HW2 7060   3.487   3.190   3.327 -0.0582 -1.7694 -0.5727
 1822SOL    HW3 7061   3.437   3.095   3.433  2.4895 -1.2462  1.2096
 1822SOL    MW4 7062   3.478   3.168   3.411 -0.6567 -0.0684  0.2328
 1823SOL     OW 7063   3.047   5.017   1.688  0.0042 -0.2286  0.7630
 1823SOL    HW2 7064   3.126   4.980   1.727  0.5703 -1.1129 -1.1239
 1823SOL    HW3 7065   3.013   4.949   1.631 -0.8314  0.9547 -0.2209
 1823SOL    MW4 7066   3.053   5.003   1.685 -0.2754 -0.4491 -0.2513
 1824SOL     OW 7067   2.012   2.777   1.852  0.4260  0.0402  0.4350
 1824SOL    HW2 7068   1.964   2.711   1.901 -0.5459  0.4872  0.1133
 1824SOL    HW3 7069   2.022   2.850   1.914 -1.9385  1.1241 -0.3631
 1824SOL    MW4 7070   2.007   2.778   1.867 -0.0298  0.2925 -0.1843
 1825SOL     OW 7071   5.417   2.630   3.461 -0.3343 -0.0889  0.1323
 1825SOL    HW2 7072   5.330   2.629   3.502 -0.5855  0.3290 -0.3812
 1825SOL    HW3 7073   5.464   2.699   3.508  0.0921 -1.0505  1.1496
 1825SOL    MW4 7074   5.411   2.639   3.473  0.0391 -0.4519 -0.5810
 1826SOL     OW 7075   1.211   2.963   1.401  0.4391  0.5002 -0.6798
 1826SOL    HW2 7076   1.192   3.005   1.485  0.0671 -0.3245 -0.3472
 1826SOL    HW3 7077   1.214   3.036   1.338  2.3597  1.3219  0.2951
 1826SOL    MW4 7078   1.209   2.978   1.404 -0.7788  0.1098 -0.2274
 1827SOL     OW 7079   4.219   3.863   0.408  0.3141 -0.0480  0.0498
 1827SOL    HW2 7080   4.236   3.813   0.489  1.4006 -0.6037 -0.5005
 1827SOL    HW3 7081   4.253   3.807   0.338 -1.6109 -0.0797 -0.9161
 1827SOL    MW4 7082   4.226   3.849   0.410  0.6206 -0.2055 -0.3030
 1828SOL     OW 7083   2.114   2.584   2.260  0.3432  0.0000 -0.2928
 1828SOL    HW2 7084   2.188   2.599   2.201 -0.2827  1.2345 -0.8086
 1828SOL    HW3 7085   2.083   2.671   2.282 -0.1449 -0.4749  0.9807
 1828SOL    MW4 7086   2.120   2.597   2.255 -0.7042  0.0552  0.3929
 1829SOL     OW 7087   3.301   3.484   0.527  0.2343  0.4861  0.8354
 1829SOL    HW2 7088   3.377   3.465   0.473 -0.7847 -2.6847  0.2604
 1829SOL    HW3 7089   3.227   3.483   0.465 -0.3762  3.7943  1.3189
 1829SOL    MW4 7090   3.301   3.481   0.512  0.8319 -0.8749 -0.6479
 1830SOL     OW 7091   3.377   2.003   5.383  0.3402  0.3369 -0.0104
 1830SOL    HW2 7092   3.409   1.924   5.427 -0.6505 -1.3860 -2.1500
 1830SOL    HW3 7093   3.422   2.003   5.299 -0.1461  1.7340 -0.3002
 1830SOL    MW4 7094   3.387   1.992   5.378  0.0607  0.1319  0.7851
 1831SOL     OW 7095   4.629   6.376   2.254  0.4950 -0.2115  0.2367
 1831SOL    HW2 7096   4.569   6.313   2.214  0.9156  0.2896 -1.2398
 1831SOL    HW3 7097   4.710   6.326   2.269 -0.4397 -1.0809  2.8904
 1831SOL    MW4 7098   4.632   6.361   2.251  0.0863  0.0860 -0.2625
 1832SOL     OW 7099   2.166   2.977   1.525 -0.2169  0.2870 -0.4408
 1832SOL    HW2 7100   2.184   2.889   1.557 -0.2093  0.4456  0.0046
 1832SOL    HW3 7101   2.077   2.972   1.490 -0.1395  0.0519 -0.6053
 1832SOL    MW4 7102   2.157   2.965   1.524  0.4802  0.6093 -0.1687
 1833SOL     OW 7103   5.621   5.680   3.230  0.1054 -0.0244 -0.0168
 1833SOL    HW2 7104   5.687   5.724   3.176 -0.6397  0.8747 -0.2395
 1833SOL    HW3 7105   5.603   5.598   3.184  1.4977 -0.5822  0.3851
 1833SOL    MW4 7106   5.627   5.675   3.217 -0.5318  0.4900  0.2022
 1834SOL     OW 7107   4.983   4.583   4.045  0.0126  0.2529 -0.2176
 1834SOL    HW2 7108   4.903   4.607   3.999  0.4350 -1.2054 -1.8219
 1834SOL    HW3 7109   5.024   4.666   4.068 -0.7937  1.0343 -1.4898
 1834SOL    MW4 7110   4.978   4.597   4.042  0.2604 -0.0909 -0.0101
 1835SOL     OW 7111   4.489   4.984   1.475 -0.1938  0.7746  0.0720
 1835SOL    HW2 7112   4.399   4.954   1.487  0.2474 -0.7783 -0.3003
 1835SOL    HW3 7113   4.520   5.001   1.564 -0.7816  1.1459  0.2147
 1835SOL    MW4 7114   4.481   4.982   1.489  0.3354  0.3577  0.0581
 1836SOL     OW 7115   4.845   0.753   5.017  0.0498  0.1202 -0.3848
 1836SOL    HW2 7116   4.907   0.801   5.072 -0.8443  0.0409  0.7353
 1836SOL    HW3 7117   4.899   0.718   4.946  0.9002  1.8907 -0.6790
 1836SOL    MW4 7118   4.861   0.755   5.015  0.2270 -0.4710 -0.1230
 1837SOL     OW 7119   6.292   1.738   6.078  0.0458 -0.4381  0.0483
 1837SOL    HW2 7120   6.301   1.831   6.057 -0.9776  0.1123  1.8279
 1837SOL    HW3 7121   6.297   1.735   6.174 -0.8495 -2.0966  0.0683
 1837SOL    MW4 7122   6.294   1.750   6.088 -0.2888  0.2118 -0.6085
 1838SOL     OW 7123   2.006   0.840   0.439 -0.2618 -0.2972  0.0960
 1838SOL    HW2 7124   2.081   0.885   0.478  0.2221 -1.0813  0.0921
 1838SOL    HW3 7125   2.003   0.756   0.484 -0.9157 -0.4183 -0.1688
 1838SOL    MW4 7126   2.015   0.835   0.450  0.3511  0.0757  0.0625
 1839SOL     OW 7127   5.213   0.808   4.911  0.1000  0.3301  0.4448
 1839SOL    HW2 7128   5.294   0.776   4.873  0.8232 -0.0906  2.2410
 1839SOL    HW3 7129   5.144   0.765   4.860  1.0187 -2.3715  1.2937
 1839SOL    MW4 7130   5.215   0.798   4.899 -0.3012 -0.4683  0.0156
 1840SOL     OW 7131   3.066   6.032   0.740  0.3700 -0.5541  0.0364
 1840SOL    HW2 7132   3.114   6.065   0.816 -0.5263 -1.5566  1.0604
 1840SOL    HW3 7133   3.130   5.981   0.691  1.1383  0.6744 -0.2789
 1840SOL    MW4 7134   3.080   6.030   0.744 -0.3161 -0.3629 -0.6878
 1841SOL     OW 7135   0.329   4.971   1.969  0.1211  0.4220  0.2364
 1841SOL    HW2 7136   0.354   5.035   2.036  0.2378  0.7926 -0.1546
 1841SOL    HW3 7137   0.255   4.923   2.008  0.1691  0.6503  0.6162
 1841SOL    MW4 7138   0.322   4.973   1.983 -0.0015 -0.1480 -0.0624
 1842SOL     OW 7139   4.035   2.489   3.525 -0.7703  0.0286 -0.3074
 1842SOL    HW2 7140   4.120   2.468   3.486 -1.4238 -0.3391 -1.6002
 1842SOL    HW3 7141   4.049   2.571   3.572  0.7222 -0.9473  1.0202
 1842SOL    MW4 7142   4.048   2.497   3.526 -0.3590  0.1896  0.3300
 1843SOL     OW 7143   0.615   3.147   5.611 -0.1440  0.1676  0.7194
 1843SOL    HW2 7144   0.554   3.102   5.668  0.0981 -0.8983  0.1571
 1843SOL    HW3 7145   0.662   3.208   5.669 -0.7027 -0.0608  1.4203
 1843SOL    MW4 7146   0.613   3.149   5.626  0.4239 -0.6082  0.0248
 1844SOL     OW 7147   2.727   1.992   5.416  0.2679 -0.4316  0.4907
 1844SOL    HW2 7148   2.687   1.979   5.502  0.4969  2.2985  1.1028
 1844SOL    HW3 7149   2.817   1.961   5.426  0.1068 -0.7345  1.0388
 1844SOL    MW4 7150   2.734   1.987   5.428  0.0644 -0.4043  0.5625
 1845SOL     OW 7151   5.606   5.355   1.075 -0.0522  0.1106  0.1110
 1845SOL    HW2 7152   5.680   5.402   1.113  0.0182 -0.8810  1.2843
 1845SOL    HW3 7153   5.591   5.397   0.991  0.3571  1.8515  0.8543
 1845SOL    MW4 7154   5.614   5.367   1.069  0.0963  0.0615  0.0131
 1846SOL     OW 7155   0.742   3.427   1.009 -0.2557 -0.4299  0.0771
 1846SOL    HW2 7156   0.715   3.439   0.918  0.5255 -1.0863 -0.2449
 1846SOL    HW3 7157   0.662   3.443   1.060 -1.1789 -2.0109 -0.8294
 1846SOL    MW4 7158   0.728   3.431   1.004 -0.1744 -0.0060 -0.5491
 1847SOL     OW 7159   0.674   1.826   0.972  0.1240 -0.0332 -0.2336
 1847SOL    HW2 7160   0.658   1.902   0.916 -0.0877 -0.6912 -1.0772
 1847SOL    HW3 7161   0.636   1.752   0.925 -2.5243 -0.2480  1.9864
 1847SOL    MW4 7162   0.667   1.826   0.959  0.1859  0.3986  0.2782
 1848SOL     OW 7163   3.958   4.502   4.895  0.0433 -0.4943  0.5462
 1848SOL    HW2 7164   3.872   4.499   4.853  1.1160 -0.3203 -1.7628
 1848SOL    HW3 7165   3.947   4.449   4.975 -2.4014  0.2017  0.7653
 1848SOL    MW4 7166   3.945   4.495   4.900 -0.1973 -0.1934  0.1938
 1849SOL     OW 7167   2.219   3.421   0.418 -0.7351 -0.6442  0.6994
 1849SOL    HW2 7168   2.134   3.454   0.388 -1.3292 -1.5828  1.3241
 1849SOL    HW3 7169   2.272   3.501   0.431 -1.3755 -0.0758 -0.0711
 1849SOL    MW4 7170   2.215   3.436   0.415 -0.0572  0.7283 -0.3925
 1850SOL     OW 7171   2.141   5.245   3.395 -0.2574  0.2816  0.2637
 1850SOL    HW2 7172   2.173   5.199   3.317  2.2412 -0.4879  1.6274
 1850SOL    HW3 7173   2.057   5.280   3.369 -1.5118 -3.4788 -1.5239
 1850SOL    MW4 7174   2.134   5.243   3.381  0.1731 -0.0309  0.2663
 1851SOL     OW 7175   1.934   2.127   2.974 -0.2521  0.3570  0.2188
 1851SOL    HW2 7176   1.993   2.051   2.976 -0.1782  0.3894 -0.5677
 1851SOL    HW3 7177   1.856   2.096   3.020 -1.3098 -1.1469 -2.3918
 1851SOL    MW4 7178   1.932   2.113   2.980 -0.4235  0.4785  0.4468
 1852SOL     OW 7179   2.342   0.915   3.581 -0.2257  0.1820  0.9500
 1852SOL    HW2 7180   2.353   0.825   3.550  2.2824  1.0642 -1.1616
 1852SOL    HW3 7181   2.266   0.948   3.533  1.4807  0.4222 -1.8187
 1852SOL    MW4 7182   2.334   0.908   3.571 -0.4502 -0.0582  0.2588
 1853SOL     OW 7183   3.295   5.355   4.696 -0.3391  0.3989  0.2080
 1853SOL    HW2 7184   3.302   5.329   4.605  0.4369  1.1975  0.0218
 1853SOL    HW3 7185   3.201   5.369   4.711 -0.5605 -0.5792 -0.2069
 1853SOL    MW4 7186   3.284   5.353   4.686 -0.2028  0.4774  0.2679
 1854SOL     OW 7187   2.834   0.946   2.979  0.0551 -0.2130  0.4503
 1854SOL    HW2 7188   2.798   0.936   3.067  0.7641 -0.1990  0.7527
 1854SOL    HW3 7189   2.928   0.960   2.993  0.1777 -0.2132 -0.3078
 1854SOL    MW4 7190   2.842   0.946   2.992  0.1023  0.4377 -0.1142
 1855SOL     OW 7191   6.311   4.928   1.342  0.0596 -0.1252 -0.5611
 1855SOL    HW2 7192   6.236   4.943   1.285 -0.5341 -0.6735  0.0695
 1855SOL    HW3 7193   6.274   4.894   1.423  1.1295 -3.4128 -1.2821
 1855SOL    MW4 7194   6.296   4.925   1.345  0.3487  0.3604 -0.0581
 1856SOL     OW 7195   1.895   0.988   5.505  0.1647  0.2285 -0.3636
 1856SOL    HW2 7196   1.845   0.907   5.497 -0.6853  0.4999  1.5008
 1856SOL    HW3 7197   1.979   0.961   5.541  1.0900 -0.1202 -2.6215
 1856SOL    MW4 7198   1.899   0.974   5.509  0.4254  0.3564 -0.6220
 1857SOL     OW 7199   4.011   4.164   5.446  0.5779 -0.4760 -0.2457
 1857SOL    HW2 7200   3.919   4.172   5.471  0.4501  0.8068 -1.0269
 1857SOL    HW3 7201   4.015   4.083   5.395 -0.2787 -0.1741 -0.8166
 1857SOL    MW4 7202   3.999   4.154   5.443  0.5843  0.1473 -0.2764
 1858SOL     OW 7203   3.314   4.281   4.627  0.0577  0.1475  0.4404
 1858SOL    HW2 7204   3.222   4.306   4.622  0.2522  0.7074 -0.6969
 1858SOL    HW3 7205   3.352   4.342   4.690 -0.3503 -0.1359  0.9750
 1858SOL    MW4 7206   3.307   4.292   4.634 -0.5171  0.7454 -0.3487
 1859SOL     OW 7207   0.228   0.936   4.648 -0.1133  0.8286 -0.0752
 1859SOL    HW2 7208   0.203   1.027   4.661 -0.4803  0.7005  0.1469
 1859SOL    HW3 7209   0.323   0.937   4.648 -0.0863  1.4116 -1.5463
 1859SOL    MW4 7210   0.237   0.948   4.650  0.5355 -0.8706  0.5841
 1860SOL     OW 7211   2.850   6.154   4.661  0.2675 -0.1764 -0.3477
 1860SOL    HW2 7212   2.766   6.120   4.629  1.4129 -2.3648 -1.3006
 1860SOL    HW3 7213   2.864   6.234   4.611 -0.9820 -0.0860 -0.5916
 1860SOL    MW4 7214   2.841   6.160   4.650 -0.1200 -0.5271 -0.3994
 1861SOL     OW 7215   4.426   0.353   1.711  0.6486  0.0365 -0.3191
 1861SOL    HW2 7216   4.485   0.279   1.723  0.7813 -0.2025 -2.0692
 1861SOL    HW3 7217   4.470   0.407   1.645 -0.0250  1.0274  0.0280
 1861SOL    MW4 7218   4.440   0.350   1.704 -0.4354  0.3260 -0.3330
 1862SOL     OW 7219   1.182   3.461   4.336  0.0300  0.0990  0.1057
 1862SOL    HW2 7220   1.251   3.513   4.378 -1.2751  1.4590  0.6810
 1862SOL    HW3 7221   1.189   3.483   4.243  1.5646 -1.2721 -0.1483
 1862SOL    MW4 7222   1.192   3.471   4.329  0.1080  0.2149  0.6952
 1863SOL     OW 7223   5.031   0.706   1.868 -0.1636 -0.0820 -0.0548
 1863SOL    HW2 7224   5.008   0.787   1.915  1.1694  0.0502  0.4015
 1863SOL    HW3 7225   4.999   0.636   1.924 -0.7802  0.1101 -0.1566
 1863SOL    MW4 7226   5.024   0.708   1.881 -0.1709 -0.5303  0.1956
 1864SOL     OW 7227   0.909   3.085   4.168  0.3986 -0.5450  0.2905
 1864SOL    HW2 7228   0.878   3.033   4.094 -0.3881 -0.6662  0.6839
 1864SOL    HW3 7229   0.999   3.056   4.182  0.4639 -0.7131 -0.4461
 1864SOL    MW4 7230   0.917   3.074   4.160  0.5127 -0.3608 -0.4538
 1865SOL     OW 7231   3.734   2.456   1.310 -0.3041 -0.8751 -0.2424
 1865SOL    HW2 7232   3.828   2.459   1.325 -0.2791 -1.2741 -0.3211
 1865SOL    HW3 7233   3.721   2.386   1.246 -0.6815 -1.0309 -0.0037
 1865SOL    MW4 7234   3.745   2.447   1.304  0.8124 -0.2580 -0.1607
 1866SOL     OW 7235   0.462   5.139   2.153 -0.2230  0.6948 -0.0822
 1866SOL    HW2 7236   0.441   5.080   2.225 -0.0140 -0.2288 -0.7641
 1866SOL    HW3 7237   0.406   5.215   2.167 -0.8853  0.1062  0.5127
 1866SOL    MW4 7238   0.452   5.141   2.164 -0.1834 -0.5105 -0.2775
 1867SOL     OW 7239   1.992   0.783   5.798 -0.6448  0.0258  0.4816
 1867SOL    HW2 7240   1.951   0.714   5.747  1.1795 -0.6076 -0.1960
 1867SOL    HW3 7241   2.074   0.745   5.830  0.4867  1.8776 -0.0270
 1867SOL    MW4 7242   1.998   0.769   5.795  0.3802 -0.2057  0.0752
 1868SOL     OW 7243   5.504   4.509   3.264  0.3894  0.2520 -0.1821
 1868SOL    HW2 7244   5.469   4.441   3.322 -1.1195  0.1753 -1.1303
 1868SOL    HW3 7245   5.471   4.591   3.301 -0.7722  0.1871 -1.0204
 1868SOL    MW4 7246   5.495   4.511   3.277  0.5016  0.0703 -0.2792
 1869SOL     OW 7247   0.183   1.673   4.484 -0.3794  0.6322  0.0285
 1869SOL    HW2 7248   0.218   1.594   4.442 -2.1949 -0.5421  0.5902
 1869SOL    HW3 7249   0.088   1.663   4.479 -0.6560  2.3820  0.8908
 1869SOL    MW4 7250   0.175   1.661   4.478  0.5308  0.4443 -0.1047
 1870SOL     OW 7251   4.886   4.976   4.323 -0.4766  0.0414  0.3165
 1870SOL    HW2 7252   4.962   4.963   4.380 -1.1145 -0.8076  1.0176
 1870SOL    HW3 7253   4.834   4.897   4.335 -0.8768  0.0720 -1.0923
 1870SOL    MW4 7254   4.889   4.964   4.332 -0.5930 -0.6095 -0.0880
 1871SOL     OW 7255   4.092   4.550   5.812 -0.0480 -0.9019  0.2370
 1871SOL    HW2 7256   4.055   4.629   5.850 -1.3316 -0.8065 -1.1087
 1871SOL    HW3 7257   4.176   4.577   5.775 -0.0167 -0.4107  0.6698
 1871SOL    MW4 7258   4.098   4.564   5.812 -0.0684 -0.6940 -0.0018
 1872SOL     OW 7259   3.970   5.405   5.303 -0.0962 -0.1673 -0.0714
 1872SOL    HW2 7260   3.917   5.396   5.382 -0.4345 -2.2971 -0.4975
 1872SOL    HW3 7261   4.037   5.469   5.327 -0.9486  0.2011  1.5031
 1872SOL    MW4 7262   3.972   5.413   5.316 -0.2377 -0.4585  0.0894
 1873SOL     OW 7263   4.649   4.610   3.111  0.1519  0.5119  0.3762
 1873SOL    HW2 7264   4.720   4.584   3.053 -0.9513 -0.4798 -0.5905
 1873SOL    HW3 7265   4.571   4.571   3.072 -0.9454  1.6579  1.3501
 1873SOL    MW4 7266   4.648   4.601   3.098  0.3305  0.0631  0.5071
 1874SOL     OW 7267   4.959   0.151   4.881  0.6170  0.7061  0.5538
 1874SOL    HW2 7268   4.873   0.115   4.905  0.1904  0.7926 -0.7411
 1874SOL    HW3 7269   5.011   0.144   4.960 -0.4358  0.1705  1.2236
 1874SOL    MW4 7270   4.954   0.145   4.894 -0.1186 -0.2796 -0.4784
 1875SOL     OW 7271   4.326   2.969   5.183  0.2556  0.0553  0.8816
 1875SOL    HW2 7272   4.321   3.033   5.254 -0.2832 -0.6285  1.4655
 1875SOL    HW3 7273   4.302   3.019   5.105 -0.0565  0.5963  1.3133
 1875SOL    MW4 7274   4.322   2.984   5.182 -0.7424 -0.1549  0.3451
 1876SOL     OW 7275   2.568   1.058   1.382 -0.0069 -0.2097  0.0653
 1876SOL    HW2 7276   2.495   1.019   1.429  0.3380  0.2840  1.0469
 1876SOL    HW3 7277   2.646   1.026   1.428  0.2992  1.1662  0.5420
 1876SOL    MW4 7278   2.569   1.049   1.394 -0.2406  0.0291  0.4154
 1877SOL     OW 7279   1.817   3.576   3.035 -0.4532  0.2692  0.1767
 1877SOL    HW2 7280   1.899   3.613   3.068 -1.3896  0.2851  2.7597
 1877SOL    HW3 7281   1.782   3.644   2.978  1.4216  0.1302 -1.2507
 1877SOL    MW4 7282   1.823   3.590   3.032  0.2966  0.6890  0.7381
 1878SOL     OW 7283   2.346   4.258   5.470 -0.3669 -0.0447  0.6192
 1878SOL    HW2 7284   2.414   4.311   5.512  0.5883  0.8455 -1.8034
 1878SOL    HW3 7285   2.280   4.245   5.537  2.0409 -0.7043  3.0197
 1878SOL    MW4 7286   2.346   4.263   5.484  0.7607 -0.4009  0.1709
 1879SOL     OW 7287   1.673   2.674   2.156 -0.2669  0.1336  0.2444
 1879SOL    HW2 7288   1.729   2.748   2.134 -0.5261  0.7180  1.4692
 1879SOL    HW3 7289   1.661   2.679   2.251 -1.1895 -0.8361  0.2120
 1879SOL    MW4 7290   1.678   2.684   2.166 -0.2073 -0.2066  0.3552
 1880SOL     OW 7291   1.411   2.045   5.466  0.0672  0.2032 -0.6053
 1880SOL    HW2 7292   1.336   2.090   5.427  0.5470  1.6353  0.0627
 1880SOL    HW3 7293   1.398   2.055   5.560  1.0746  0.4380 -0.4882
 1880SOL    MW4 7294   1.399   2.052   5.473 -0.1785 -0.2568 -0.1176
 1881SOL     OW 7295   5.784   4.803   1.224 -0.4524  0.0240 -0.4924
 1881SOL    HW2 7296   5.689   4.800   1.233 -0.3860  0.8700  0.8003
 1881SOL    HW3 7297   5.802   4.758   1.142 -2.0223  0.4554 -1.1126
 1881SOL    MW4 7298   5.774   4.797   1.214 -0.4762 -0.2963  1.0801
 1882SOL     OW 7299   5.344   5.414   5.439  0.5776 -0.0922  0.0401
 1882SOL    HW2 7300   5.402   5.375   5.375  0.7358 -0.9382  0.6877
 1882SOL    HW3 7301   5.379   5.387   5.524 -0.8414 -0.7563  0.4465
 1882SOL    MW4 7302   5.356   5.406   5.442  0.2183 -0.2323  0.1061
 1883SOL     OW 7303   6.030   2.279   6.210  0.1413  0.3551  0.2880
 1883SOL    HW2 7304   5.944   2.274   6.170  0.9285  0.5615 -1.5146
 1883SOL    HW3 7305   6.038   2.369   6.241  0.1619  0.6746 -0.6314
 1883SOL    MW4 7306   6.020   2.290   6.209  0.1506  0.9171  0.1217
 1884SOL     OW 7307   4.030   4.608   1.141 -0.2197 -0.6076  0.7973
 1884SOL    HW2 7308   4.125   4.623   1.139 -0.1048 -1.2961  0.8082
 1884SOL    HW3 7309   4.020   4.528   1.193 -0.6690 -1.5479 -0.6794
 1884SOL    MW4 7310   4.041   4.599   1.148  0.1340 -0.1607  0.6245
 1885SOL     OW 7311   0.681   0.385   4.994 -0.3076 -0.1479  0.0244
 1885SOL    HW2 7312   0.640   0.337   5.066 -0.7060  0.2116  0.0421
 1885SOL    HW3 7313   0.720   0.462   5.036 -1.6507  0.7356 -0.3130
 1885SOL    MW4 7314   0.681   0.389   5.009  0.3525  0.1093 -0.0578
 1886SOL     OW 7315   0.264   2.931   0.810 -0.1091 -0.2073  0.0702
 1886SOL    HW2 7316   0.257   2.948   0.716 -0.1875  1.4826  0.3393
 1886SOL    HW3 7317   0.241   3.015   0.851  0.2056 -0.8279  1.5902
 1886SOL    MW4 7318   0.260   2.945   0.803  0.2270 -0.5727  0.2066
 1887SOL     OW 7319   6.156   0.570   2.069 -0.3817  0.2908 -0.4047
 1887SOL    HW2 7320   6.155   0.662   2.042 -1.6466  0.7977  1.1519
 1887SOL    HW3 7321   6.122   0.522   1.994 -0.1758  1.1483 -1.0614
 1887SOL    MW4 7322   6.151   0.576   2.056  0.5422 -0.4913 -0.3588
 1888SOL     OW 7323   0.794   4.507   4.989  0.0269  0.2695  0.1404
 1888SOL    HW2 7324   0.801   4.595   5.025 -1.1691  0.4441  0.0071
 1888SOL    HW3 7325   0.703   4.481   5.007  0.3820 -0.9537  0.2217
 1888SOL    MW4 7326   0.783   4.516   4.996  0.7547  0.0808 -0.2944
 1889SOL     OW 7327   2.070   2.561   3.993  0.6082 -0.0370 -0.4895
 1889SOL    HW2 7328   2.137   2.549   4.061  1.9891 -0.9327 -1.9340
 1889SOL    HW3 7329   2.059   2.656   3.987  1.0578  0.0874  0.4271
 1889SOL    MW4 7330   2.077   2.572   4.002  0.0702 -0.2233  0.2300
 1890SOL     OW 7331   1.329   1.250   0.849  0.8737 -0.0799 -0.0078
 1890SOL    HW2 7332   1.233   1.257   0.853  0.8822  0.4399 -0.5914
 1890SOL    HW3 7333   1.359   1.340   0.837  1.3111 -0.4473 -1.9975
 1890SOL    MW4 7334   1.320   1.263   0.848  0.0472  0.3525 -0.5049
 1891SOL     OW 7335   0.745   3.103   0.779  0.1038  0.5646 -0.0125
 1891SOL    HW2 7336   0.834   3.138   0.774 -0.0580  0.8217 -2.4892
 1891SOL    HW3 7337   0.714   3.127   0.867  1.7963  2.1429  0.2150
 1891SOL    MW4 7338   0.753   3.111   0.790 -0.2402  0.0496  0.0599
 1892SOL     OW 7339   5.531   1.657   2.707  0.2176  0.3188 -0.5827
 1892SOL    HW2 7340   5.453   1.680   2.757  1.4487  1.2601  1.0443
 1892SOL    HW3 7341   5.516   1.694   2.620  0.1681  3.4920  0.6331
 1892SOL    MW4 7342   5.519   1.665   2.702  0.0516 -0.6910 -0.2375
 1893SOL     OW 7343   2.335   3.295   0.823  0.0176  0.5021 -0.7887
 1893SOL    HW2 7344   2.398   3.342   0.769 -0.2373  0.5555 -1.0427
 1893SOL    HW3 7345   2.313   3.356   0.894  3.4441 -0.9727  1.8153
 1893SOL    MW4 7346   2.341   3.309   0.826 -0.6742 -0.2688 -0.0526
 1894SOL     OW 7347   1.794   1.069   1.005 -0.1622 -0.6999  0.4762
 1894SOL    HW2 7348   1.788   1.018   1.085 -2.6766  1.1753  1.6084
 1894SOL    HW3 7349   1.704   1.074   0.973  0.2767  1.4364 -0.5739
 1894SOL    MW4 7350   1.781   1.063   1.011 -0.2475 -0.4323 -0.0704
 1895SOL     OW 7351   4.186   3.990   2.216 -0.0866 -0.0083  0.0064
 1895SOL    HW2 7352   4.192   4.084   2.237  1.2133  0.1894 -1.0573
 1895SOL    HW3 7353   4.193   3.946   2.300 -1.1265  0.8544  0.5623
 1895SOL    MW4 7354   4.188   3.997   2.229  0.1998  0.0312  0.4384
 1896SOL     OW 7355   5.002   3.818   3.690  0.5697  0.4054  0.1842
 1896SOL    HW2 7356   4.955   3.890   3.732 -0.2943  0.5812 -1.0084
 1896SOL    HW3 7357   4.992   3.835   3.596 -0.8872 -1.9712 -0.1972
 1896SOL    MW4 7358   4.994   3.830   3.683  0.1454  0.0741  0.4311
 1897SOL     OW 7359   0.913   0.259   4.478  0.1676  0.1558  0.3944
 1897SOL    HW2 7360   0.921   0.333   4.538  0.3646  0.4233  0.0386
 1897SOL    HW3 7361   0.914   0.298   4.391 -0.6025 -0.1920  0.2193
 1897SOL    MW4 7362   0.914   0.274   4.474 -0.6134 -0.5781 -0.2601
 1898SOL     OW 7363   2.522   0.690   2.027  0.5173 -0.5781  0.4319
 1898SOL    HW2 7364   2.481   0.643   1.955  2.1610 -0.3081 -0.7555
 1898SOL    HW3 7365   2.562   0.622   2.081  0.9179 -0.6958 -0.0011
 1898SOL    MW4 7366   2.522   0.675   2.025  0.1074 -0.8630 -0.1426
 1899SOL     OW 7367   4.005   1.849   3.103 -0.0777  0.0991 -0.4054
 1899SOL    HW2 7368   3.959   1.785   3.157 -2.2292  1.2372 -0.7684
 1899SOL    HW3 7369   3.950   1.927   3.106  0.4801  0.6958 -3.0079
 1899SOL    MW4 7370   3.992   1.850   3.111 -0.1331  0.1813  0.5151
 1900SOL     OW 7371   0.439   4.108   1.272 -0.1612  0.6385 -0.0529
 1900SOL    HW2 7372   0.534   4.115   1.262 -0.2761  1.0474 -0.8648
 1900SOL    HW3 7373   0.408   4.198   1.277 -0.6313  0.5372 -1.0218
 1900SOL    MW4 7374   0.447   4.120   1.272  0.0490 -0.0352  0.6046
 1901SOL     OW 7375   1.917   1.586   2.370 -0.1428  0.4867 -0.2780
 1901SOL    HW2 7376   1.976   1.546   2.306  1.4536  2.0447  0.1678
 1901SOL    HW3 7377   1.856   1.637   2.317 -0.1735  0.0508 -0.6667
 1901SOL    MW4 7378   1.917   1.587   2.354  0.0082 -0.0689  0.0463
 1902SOL     OW 7379   5.114   1.963   5.707 -0.5025  0.3616  0.3456
 1902SOL    HW2 7380   5.150   2.029   5.766 -1.0283  0.7814  0.2049
 1902SOL    HW3 7381   5.177   1.891   5.710 -1.2537 -0.2864  2.6006
 1902SOL    MW4 7382   5.127   1.962   5.715 -0.3315 -0.2134 -0.0100
 1903SOL     OW 7383   3.682   3.053   0.500 -0.4074 -0.1537  0.4537
 1903SOL    HW2 7384   3.712   3.006   0.578  0.6008 -0.0850  0.1237
 1903SOL    HW3 7385   3.648   3.136   0.534  2.9443  1.2946  0.6306
 1903SOL    MW4 7386   3.681   3.058   0.515  0.0202 -0.3949  0.2380
 1904SOL     OW 7387   2.809   5.063   5.137 -0.0222 -0.5878 -0.3979
 1904SOL    HW2 7388   2.829   5.077   5.044  1.4266  0.5952  0.0411
 1904SOL    HW3 7389   2.793   5.151   5.171  0.3171 -0.9145  0.6488
 1904SOL    MW4 7390   2.809   5.077   5.129 -0.5609  0.0291  0.9034
 1905SOL     OW 7391   5.758   2.083   5.603  0.2461 -0.1997  0.0501
 1905SOL    HW2 7392   5.736   2.133   5.524 -3.2810 -0.0509  0.9614
 1905SOL    HW3 7393   5.770   2.150   5.671  1.0566 -0.3986  0.1016
 1905SOL    MW4 7394   5.756   2.099   5.602 -0.3830  0.2766 -0.0760
 1906SOL     OW 7395   2.065   2.303   3.438 -0.1491 -0.1029 -0.2536
 1906SOL    HW2 7396   2.103   2.333   3.355 -0.9080 -0.2606 -0.6676
 1906SOL    HW3 7397   1.985   2.257   3.412  0.9231 -2.4706  0.3398
 1906SOL    MW4 7398   2.060   2.301   3.424  0.9660  0.0819  0.6229
 1907SOL     OW 7399   3.913   6.390   4.514  0.3726  0.2509 -0.3331
 1907SOL    HW2 7400   3.843   6.431   4.564  0.0605 -2.0522  1.2707
 1907SOL    HW3 7401   3.958   6.334   4.577  2.9281  0.7103 -1.6029
 1907SOL    MW4 7402   3.910   6.388   4.529 -0.0254  0.2055 -0.6840
 1908SOL     OW 7403   5.625   0.460   1.084  0.4258 -0.0168 -0.7422
 1908SOL    HW2 7404   5.605   0.428   0.996 -1.8649  0.2738 -0.3854
 1908SOL    HW3 7405   5.696   0.523   1.071 -0.0263  0.1994 -2.4155
 1908SOL    MW4 7406   5.631   0.464   1.070 -0.3042 -0.4881 -0.2648
 1909SOL     OW 7407   0.579   2.143   1.250 -0.1171 -0.1557 -0.1910
 1909SOL    HW2 7408   0.658   2.192   1.273  0.3086  0.0740 -2.0418
 1909SOL    HW3 7409   0.507   2.202   1.273  0.3967  1.6889 -2.8947
 1909SOL    MW4 7410   0.580   2.157   1.256 -0.2635  0.1421  0.4347
 1910SOL     OW 7411   3.996   4.643   5.522  0.3342  0.0127  0.2519
 1910SOL    HW2 7412   4.053   4.570   5.544  0.1573 -0.0986  0.3439
 1910SOL    HW3 7413   3.912   4.622   5.564  0.5771  0.7550  1.1489
 1910SOL    MW4 7414   3.992   4.631   5.531 -0.0439  0.0701  0.0506
 1911SOL     OW 7415   4.805   4.879   5.851  0.8002 -0.6705  0.4152
 1911SOL    HW2 7416   4.891   4.839   5.834 -0.1820 -2.0319 -1.9246
 1911SOL    HW3 7417   4.769   4.829   5.924  1.5894 -0.7683  0.7407
 1911SOL    MW4 7418   4.811   4.867   5.858 -0.2683  0.0331  0.2794
 1912SOL     OW 7419   3.159   4.639   4.406  0.2292 -0.0293  0.2366
 1912SOL    HW2 7420   3.088   4.683   4.359  0.9625 -0.2336 -1.1139
 1912SOL    HW3 7421   3.170   4.556   4.360  1.4640  0.0893  0.2882
 1912SOL    MW4 7422   3.151   4.634   4.393 -0.2597  0.7474  0.6777
 1913SOL     OW 7423   5.008   5.793   3.645 -0.2897  0.6739  0.3952
 1913SOL    HW2 7424   5.046   5.877   3.669  0.6527 -0.0144  1.3759
 1913SOL    HW3 7425   5.081   5.741   3.612 -0.4570 -0.4427  1.6866
 1913SOL    MW4 7426   5.023   5.797   3.644  0.2361  0.2092 -0.0258
 1914SOL     OW 7427   3.349   4.751   4.248  0.5047  0.3812  0.1537
 1914SOL    HW2 7428   3.282   4.708   4.301 -0.0423 -1.9156 -2.1966
 1914SOL    HW3 7429   3.315   4.745   4.158  2.1725  2.5419 -0.7078
 1914SOL    MW4 7430   3.335   4.745   4.243 -0.6836 -0.3452  0.2724
 1915SOL     OW 7431   5.619   6.391   5.072  0.2272  0.2427 -0.0877
 1915SOL    HW2 7432   5.591   6.434   5.153  0.0958  0.8134 -0.4335
 1915SOL    HW3 7433   5.608   6.298   5.090 -0.7976  0.4040  0.1882
 1915SOL    MW4 7434   5.614   6.385   5.085  0.3710  0.1863  0.5695
 1916SOL     OW 7435   1.099   1.291   1.992 -0.3789  0.3319 -0.0115
 1916SOL    HW2 7436   1.186   1.306   2.029 -0.3992 -0.8002  0.5214
 1916SOL    HW3 7437   1.097   1.198   1.972 -1.4380  0.3696 -0.1208
 1916SOL    MW4 7438   1.111   1.281   1.994  0.3329  0.4449  0.1829
 1917SOL     OW 7439   1.905   4.757   3.665 -0.3279  0.3478  0.2207
 1917SOL    HW2 7440   1.862   4.689   3.614 -0.0149 -0.2536  0.7482
 1917SOL    HW3 7441   1.975   4.789   3.608 -0.2245 -0.0499  0.1245
 1917SOL    MW4 7442   1.909   4.753   3.651 -0.4543  0.1059 -0.4987
 1918SOL     OW 7443   0.528   3.485   3.576  0.2496  0.2114 -0.4691
 1918SOL    HW2 7444   0.477   3.525   3.646  2.1490  0.9184  0.5779
 1918SOL    HW3 7445   0.467   3.480   3.502 -1.1104  1.6864  0.4876
 1918SOL    MW4 7446   0.513   3.490   3.575 -0.0637 -0.1963 -1.0978
 1919SOL     OW 7447   2.640   2.211   0.565  0.1039 -0.1047  0.2135
 1919SOL    HW2 7448   2.631   2.134   0.621  0.4470 -0.0799  0.3090
 1919SOL    HW3 7449   2.693   2.181   0.491 -1.2822 -0.4259 -0.6694
 1919SOL    MW4 7450   2.646   2.197   0.563  0.5771 -0.3969 -0.0740
 1920SOL     OW 7451   0.124   1.154   4.119 -0.2421  0.1798  0.1844
 1920SOL    HW2 7452   0.113   1.209   4.042 -0.2362  0.5891  0.4707
 1920SOL    HW3 7453   0.201   1.100   4.100 -0.4432  0.0360 -0.2307
 1920SOL    MW4 7454   0.133   1.154   4.107  0.1762  0.5144  0.4405
 1921SOL     OW 7455   0.985   1.506   1.063 -0.6099 -0.0885  0.0255
 1921SOL    HW2 7456   1.061   1.531   1.114 -0.9741  0.5601  0.2678
 1921SOL    HW3 7457   1.006   1.533   0.973 -0.8674  0.8507  0.2288
 1921SOL    MW4 7458   0.997   1.513   1.058 -0.5540  0.1494  0.1626
 1922SOL     OW 7459   3.256   3.402   2.855  0.1296  0.5637  0.4426
 1922SOL    HW2 7460   3.341   3.446   2.850  0.3438  0.3156  1.5638
 1922SOL    HW3 7461   3.209   3.448   2.925  0.1495 -0.6083  1.2589
 1922SOL    MW4 7462   3.261   3.414   2.864  0.0951  0.2837  0.4981
 1923SOL     OW 7463   1.751   5.260   2.884  0.5118 -0.3276 -0.0820
 1923SOL    HW2 7464   1.656   5.259   2.867  0.3537  2.2777  0.1752
 1923SOL    HW3 7465   1.789   5.289   2.801  1.0514 -1.0174 -0.0744
 1923SOL    MW4 7466   1.743   5.264   2.871 -0.5036 -0.0743  0.6098
 1924SOL     OW 7467   5.878   4.022   5.565 -0.6165  0.1647 -0.1915
 1924SOL    HW2 7468   5.969   3.994   5.576 -0.6603  0.3013  0.5855
 1924SOL    HW3 7469   5.828   3.940   5.563 -0.8850  0.0664  3.3588
 1924SOL    MW4 7470   5.883   4.007   5.566 -0.3479  0.3919  0.4375
 1925SOL     OW 7471   1.162   3.610   2.246 -0.6826  1.1071 -0.3878
 1925SOL    HW2 7472   1.173   3.595   2.340  1.3935  1.2129 -0.5779
 1925SOL    HW3 7473   1.180   3.703   2.234 -0.4514  0.9982 -0.9390
 1925SOL    MW4 7474   1.166   3.620   2.257  0.0903 -0.1561  0.4393
 1926SOL     OW 7475   6.301   4.573   6.277 -0.3114 -0.0375  0.8143
 1926SOL    HW2 7476   6.384   4.613   6.250 -0.6244  0.8943  1.2046
 1926SOL    HW3 7477   6.234   4.626   6.233 -0.7031 -1.1149  0.0605
 1926SOL    MW4 7478   6.303   4.586   6.267  0.7084 -0.4920  0.5634
 1927SOL     OW 7479   5.684   0.585   0.703 -0.5881 -0.0344  0.1123
 1927SOL    HW2 7480   5.620   0.605   0.634 -2.6523  0.1006  1.9371
 1927SOL    HW3 7481   5.741   0.662   0.706 -0.2094 -0.2225 -1.6867
 1927SOL    MW4 7482   5.683   0.598   0.695 -0.0226  0.2703  0.4304
 1928SOL     OW 7483   0.710   5.635   0.923 -0.1189  0.3131 -0.4605
 1928SOL    HW2 7484   0.723   5.560   0.982 -0.5474  1.3699  1.0257
 1928SOL    HW3 7485   0.784   5.630   0.862  1.9241  0.7133  1.8465
 1928SOL    MW4 7486   0.721   5.624   0.923 -0.5630  0.3417  0.0732
 1929SOL     OW 7487   5.476   6.360   0.382  0.6121  0.0811  0.1851
 1929SOL    HW2 7488   5.480   6.412   0.462  0.1711  0.3360  0.0497
 1929SOL    HW3 7489   5.384   6.366   0.354  0.6880 -0.2745 -0.1595
 1929SOL    MW4 7490   5.464   6.368   0.389 -0.0896  0.2713 -0.2915
 1930SOL     OW 7491   1.007   5.427   6.099 -0.0085  0.5882  0.1377
 1930SOL    HW2 7492   0.971   5.347   6.060 -0.7680  1.2909 -0.6288
 1930SOL    HW3 7493   1.081   5.450   6.043 -0.0358  0.6508  0.1279
 1930SOL    MW4 7494   1.012   5.419   6.086 -0.4318  0.0687 -0.2910
 1931SOL     OW 7495   1.987   5.350   5.097  0.1467  0.0529  0.1274
 1931SOL    HW2 7496   2.071   5.380   5.131  0.8867 -0.5819 -1.0617
 1931SOL    HW3 7497   1.946   5.429   5.061  1.5849 -0.0661 -1.9719
 1931SOL    MW4 7498   1.992   5.364   5.097  0.3908 -0.4923  0.5882
 1932SOL     OW 7499   6.229   2.948   1.074 -0.1097  0.5176 -0.3445
 1932SOL    HW2 7500   6.170   2.890   1.122  0.9156  0.1343  0.4939
 1932SOL    HW3 7501   6.302   2.963   1.134  0.8636  0.6221 -1.5099
 1932SOL    MW4 7502   6.231   2.942   1.088  0.5060  0.2662 -0.7297
 1933SOL     OW 7503   4.724   1.143   1.241  0.0029  0.4487 -0.9310
 1933SOL    HW2 7504   4.744   1.107   1.328 -1.7430 -1.2231 -1.1387
 1933SOL    HW3 7505   4.786   1.098   1.183 -1.9309 -2.1924 -1.1388
 1933SOL    MW4 7506   4.735   1.132   1.245 -0.0191  0.1479  0.3088
 1934SOL     OW 7507   5.622   1.759   0.184 -0.1447 -0.4355  0.2019
 1934SOL    HW2 7508   5.586   1.720   0.105  0.5084 -0.2114 -0.2154
 1934SOL    HW3 7509   5.615   1.854   0.170  0.4647 -0.3892  0.1714
 1934SOL    MW4 7510   5.617   1.767   0.172 -0.0760  0.4471 -0.3344
 1935SOL     OW 7511   5.767   4.470   6.144 -0.3093 -0.5882 -0.4811
 1935SOL    HW2 7512   5.802   4.474   6.233 -1.0371  0.2234 -0.2112
 1935SOL    HW3 7513   5.797   4.386   6.109  0.3390 -0.7189  0.3808
 1935SOL    MW4 7514   5.775   4.459   6.151 -0.2149  1.0377 -0.4271
 1936SOL     OW 7515   4.084   4.691   3.871  0.3890 -0.2778 -0.0861
 1936SOL    HW2 7516   4.113   4.602   3.890  1.3105  0.0703  0.1678
 1936SOL    HW3 7517   4.119   4.744   3.943  3.0635  0.8983 -2.1107
 1936SOL    MW4 7518   4.092   4.686   3.883  0.0414  0.0475  0.3849
 1937SOL     OW 7519   5.152   0.662   1.059 -0.2350 -1.1103  0.3477
 1937SOL    HW2 7520   5.234   0.612   1.061 -0.0573 -0.8141  2.3970
 1937SOL    HW3 7521   5.178   0.753   1.068 -0.7839 -1.0314  1.2781
 1937SOL    MW4 7522   5.166   0.667   1.061 -0.5417 -0.1153  0.0255
 1938SOL     OW 7523   1.073   1.199   0.953 -0.0548 -0.6089  0.1406
 1938SOL    HW2 7524   1.050   1.281   0.998 -0.8260 -0.7749  0.0613
 1938SOL    HW3 7525   0.998   1.182   0.895  0.5440 -0.8489 -0.5813
 1938SOL    MW4 7526   1.060   1.208   0.951  0.1735 -0.2446  0.0910
 1939SOL     OW 7527   5.156   3.688   1.692  0.6344 -0.5192  0.1816
 1939SOL    HW2 7528   5.065   3.700   1.663  0.8564 -0.8889 -0.7195
 1939SOL    HW3 7529   5.151   3.619   1.758  0.4495 -1.8345 -1.1462
 1939SOL    MW4 7530   5.143   3.681   1.697 -0.6310  0.4320  0.3744
 1940SOL     OW 7531   2.920   1.807   3.129  0.0791  0.0061  0.3045
 1940SOL    HW2 7532   2.909   1.892   3.086 -2.5063 -0.5780 -0.3473
 1940SOL    HW3 7533   2.991   1.765   3.082  0.4431  1.2483 -0.2855
 1940SOL    MW4 7534   2.928   1.813   3.117 -0.0434 -0.2379  0.0399
 1941SOL     OW 7535   2.581   4.784   0.911  0.2957 -0.1065 -0.2890
 1941SOL    HW2 7536   2.665   4.767   0.955 -0.3257 -1.0684  0.5578
 1941SOL    HW3 7537   2.588   4.875   0.881  2.1035 -0.5394 -1.3022
 1941SOL    MW4 7538   2.593   4.794   0.913  0.0748  0.0464  0.3682
 1942SOL     OW 7539   1.755   4.184   0.980 -0.7530 -0.0315 -0.2547
 1942SOL    HW2 7540   1.669   4.226   0.993  0.1462  1.4098  1.5394
 1942SOL    HW3 7541   1.807   4.251   0.935 -0.0091 -0.1472  0.4243
 1942SOL    MW4 7542   1.750   4.199   0.976 -0.6247  0.1773 -0.1265
 1943SOL     OW 7543   2.139   5.245   4.366 -0.0044  0.2227 -0.2326
 1943SOL    HW2 7544   2.077   5.182   4.402  1.5512 -0.4785  1.3392
 1943SOL    HW3 7545   2.203   5.258   4.435  1.8290  0.6297 -1.9121
 1943SOL    MW4 7546   2.139   5.238   4.380  0.3547 -0.1131 -0.2891
 1944SOL     OW 7547   0.797   1.196   0.189  0.5401 -0.3789 -0.6880
 1944SOL    HW2 7548   0.794   1.100   0.183 -0.8184 -0.3608 -0.6510
 1944SOL    HW3 7549   0.741   1.226   0.118 -1.8267  0.2831  1.3317
 1944SOL    MW4 7550   0.789   1.187   0.179 -0.0127  0.3823  0.3694
 1945SOL     OW 7551   2.669   0.442   3.889 -0.1990 -0.2730  0.0388
 1945SOL    HW2 7552   2.692   0.503   3.959 -0.6371  0.9069 -0.8167
 1945SOL    HW3 7553   2.593   0.395   3.922 -1.0813  1.0500 -0.0559
 1945SOL    MW4 7554   2.662   0.444   3.903 -0.0848  0.1977 -0.2341
 1946SOL     OW 7555   0.500   4.063   3.834 -0.2993  0.2893  0.1425
 1946SOL    HW2 7556   0.572   4.038   3.776  0.7570  2.6156  0.3569
 1946SOL    HW3 7557   0.421   4.043   3.783  0.5666  1.2996 -1.7176
 1946SOL    MW4 7558   0.500   4.057   3.819  0.2353 -0.5702 -0.0996
 1947SOL     OW 7559   0.570   0.135   3.251 -0.4365 -0.0287  0.0221
 1947SOL    HW2 7560   0.535   0.213   3.293 -1.4603  0.4443 -1.6062
 1947SOL    HW3 7561   0.530   0.061   3.297  0.0270  0.4087  1.1445
 1947SOL    MW4 7562   0.560   0.135   3.263 -0.5559 -0.3579 -0.7313
 1948SOL     OW 7563   3.139   6.361   0.175  0.6399 -0.3797 -0.2386
 1948SOL    HW2 7564   3.143   6.393   0.085  0.8665 -2.5795 -1.0553
 1948SOL    HW3 7565   3.126   6.441   0.227 -2.7047  0.7323 -2.4157
 1948SOL    MW4 7566   3.138   6.376   0.170  0.6189 -0.3046 -0.4241
 1949SOL     OW 7567   2.022   2.298   6.037 -0.5186  0.5187 -0.3902
 1949SOL    HW2 7568   1.992   2.377   6.081 -1.3787  0.4650 -0.8470
 1949SOL    HW3 7569   2.015   2.229   6.103 -0.7036  0.6479 -0.2764
 1949SOL    MW4 7570   2.017   2.299   6.051 -0.5819 -0.7053  0.2824
 1950SOL     OW 7571   5.679   1.614   3.592  0.5326  0.1198 -0.0974
 1950SOL    HW2 7572   5.718   1.588   3.508 -0.0038  0.7863 -0.5694
 1950SOL    HW3 7573   5.586   1.595   3.581  0.1081  2.2534 -0.4846
 1950SOL    MW4 7574   5.672   1.608   3.579  0.2535 -0.5750  0.3791
 1951SOL     OW 7575   5.399   4.851   0.343 -0.7976 -0.4348 -0.2248
 1951SOL    HW2 7576   5.347   4.800   0.406 -0.0755  0.6529  1.3087
 1951SOL    HW3 7577   5.490   4.830   0.365 -0.5308 -0.4861 -1.3167
 1951SOL    MW4 7578   5.404   4.841   0.354 -0.1278 -0.4503  0.6045
 1952SOL     OW 7579   2.467   2.121   3.995  0.1823 -0.0361 -0.0251
 1952SOL    HW2 7580   2.524   2.053   4.031  0.1801  0.0910  0.2260
 1952SOL    HW3 7581   2.481   2.197   4.053  1.4575  0.7267 -1.2792
 1952SOL    MW4 7582   2.476   2.122   4.007 -0.1177  0.2822  0.0191
 1953SOL     OW 7583   3.061   4.545   1.128 -0.0401 -0.2260 -0.0363
 1953SOL    HW2 7584   3.086   4.467   1.078  3.6753  0.0185  1.1491
 1953SOL    HW3 7585   3.058   4.615   1.062  1.0606 -0.5835 -0.4857
 1953SOL    MW4 7586   3.064   4.544   1.112 -0.3570 -0.3791  0.1296
 1954SOL     OW 7587   6.104   0.592   2.342 -0.0941  0.3731  0.4296
 1954SOL    HW2 7588   6.119   0.687   2.348 -0.6426  0.4014  1.8819
 1954SOL    HW3 7589   6.133   0.568   2.254  0.8185  1.7525  0.3261
 1954SOL    MW4 7590   6.109   0.602   2.331 -0.3487  0.0538 -0.1756
 1955SOL     OW 7591   2.308   2.313   4.799 -0.0946  0.2016 -0.3702
 1955SOL    HW2 7592   2.298   2.221   4.823 -0.6747  0.7414  1.6858
 1955SOL    HW3 7593   2.317   2.312   4.703 -1.8739 -1.8436 -0.5995
 1955SOL    MW4 7594   2.308   2.300   4.789 -0.5581 -0.3772 -0.1101
 1956SOL     OW 7595   6.217   0.479   3.516 -0.6807  0.2295  0.2505
 1956SOL    HW2 7596   6.151   0.548   3.506 -1.0636  0.3386  2.8457
 1956SOL    HW3 7597   6.277   0.513   3.581  0.3288 -1.0627  0.0322
 1956SOL    MW4 7598   6.216   0.493   3.523  0.4322  0.2274 -0.7727
 1957SOL     OW 7599   5.080   3.126   2.854  0.5037 -0.1929  0.1549
 1957SOL    HW2 7600   5.072   3.068   2.778  1.8736 -0.4608  0.1815
 1957SOL    HW3 7601   5.152   3.089   2.905 -0.6204 -0.2286  1.7975
 1957SOL    MW4 7602   5.089   3.113   2.851  0.0254 -0.5301 -0.4212
 1958SOL     OW 7603   2.931   4.793   1.282  0.5363  0.2073  0.2560
 1958SOL    HW2 7604   2.858   4.748   1.240  0.5221  2.1445 -1.9489
 1958SOL    HW3 7605   3.009   4.760   1.237  0.5433  2.0803 -1.1997
 1958SOL    MW4 7606   2.932   4.782   1.271 -0.1098 -0.0917 -0.2084
 1959SOL     OW 7607   4.000   4.589   6.152  0.0982  0.0377 -0.3675
 1959SOL    HW2 7608   3.992   4.668   6.098 -0.2478 -0.2426 -0.7316
 1959SOL    HW3 7609   3.934   4.530   6.118 -1.5643  0.6005  1.6940
 1959SOL    MW4 7610   3.990   4.592   6.140  0.1837 -0.9992  0.0437
 1960SOL     OW 7611   1.807   0.999   1.848  0.2726  0.3186  0.2172
 1960SOL    HW2 7612   1.864   1.055   1.796 -0.6633  0.4155 -0.7364
 1960SOL    HW3 7613   1.766   1.059   1.910  0.4220  0.4265  0.2123
 1960SOL    MW4 7614   1.809   1.014   1.849 -0.3604 -0.7222  0.4329
 1961SOL     OW 7615   4.653   5.225   1.508 -0.2507  0.4327  0.8036
 1961SOL    HW2 7616   4.611   5.183   1.433 -0.0081 -1.2007  1.5505
 1961SOL    HW3 7617   4.736   5.179   1.518  0.2336  1.3972  1.3982
 1961SOL    MW4 7618   4.659   5.214   1.500 -0.5714 -0.3923 -0.0306
 1962SOL     OW 7619   3.000   3.401   3.444  0.0321 -0.0135 -0.0382
 1962SOL    HW2 7620   2.967   3.341   3.377 -1.3116  1.0321 -0.3480
 1962SOL    HW3 7621   2.954   3.374   3.524 -1.9499  1.6524 -0.5365
 1962SOL    MW4 7622   2.989   3.389   3.446 -0.1375  0.7468  0.2374
 1963SOL     OW 7623   0.191   1.074   1.204  0.1882 -0.0801  0.3914
 1963SOL    HW2 7624   0.193   1.158   1.158 -1.0717 -0.2253  0.0430
 1963SOL    HW3 7625   0.283   1.057   1.226  0.6732  0.5536 -1.0432
 1963SOL    MW4 7626   0.204   1.083   1.201 -0.4300 -0.0178 -0.5970
 1964SOL     OW 7627   0.192   0.689   6.296  0.2222  0.0933 -0.4452
 1964SOL    HW2 7628   0.099   0.709   6.303  0.6872  2.3527  0.0780
 1964SOL    HW3 7629   0.200   0.600   6.330 -1.6971 -0.0209 -0.1920
 1964SOL    MW4 7630   0.181   0.680   6.302 -0.0292  0.7132  0.3072
 1965SOL     OW 7631   4.431   2.906   2.204 -0.4209 -0.3692  1.0809
 1965SOL    HW2 7632   4.509   2.855   2.226 -1.0258 -2.2540 -0.8350
 1965SOL    HW3 7633   4.432   2.912   2.109 -0.2642  3.5755  1.1718
 1965SOL    MW4 7634   4.441   2.900   2.195 -0.1646 -0.4812  0.0087
 1966SOL     OW 7635   5.166   2.429   5.841  0.0946  0.2951  0.7816
 1966SOL    HW2 7636   5.217   2.450   5.763  2.8381 -0.1595  2.3208
 1966SOL    HW3 7637   5.077   2.417   5.809  1.0830  0.2503 -2.2423
 1966SOL    MW4 7638   5.161   2.430   5.827 -0.5929  0.1857  0.3113
 1967SOL     OW 7639   6.028   3.449   6.075  0.4175 -0.0157  0.1613
 1967SOL    HW2 7640   6.103   3.429   6.131 -0.6440  0.4110  1.8118
 1967SOL    HW3 7641   6.061   3.511   6.010  1.3968  0.4976  1.1278
 1967SOL    MW4 7642   6.042   3.454   6.073  0.2913 -0.0053 -0.2568
 1968SOL     OW 7643   4.147   3.140   4.676  0.5252 -0.0699  0.2955
 1968SOL    HW2 7644   4.086   3.186   4.734  1.2510 -0.4676  1.4167
 1968SOL    HW3 7645   4.208   3.208   4.646  0.4476  0.0472  0.4007
 1968SOL    MW4 7646   4.147   3.155   4.680  0.2751 -0.2110  0.7198
 1969SOL     OW 7647   2.764   4.058   1.010  0.0880  0.0462  0.4316
 1969SOL    HW2 7648   2.857   4.077   0.993  0.2824  0.7043  2.0620
 1969SOL    HW3 7649   2.765   3.993   1.080 -0.6954 -0.9930 -0.4871
 1969SOL    MW4 7650   2.777   4.052   1.017 -0.1632  0.2681  0.2559
 1970SOL     OW 7651   0.009   1.521   0.177  0.3452 -0.0719  0.0625
 1970SOL    HW2 7652  -0.005   1.474   0.095  0.8203  1.2985 -0.8427
 1970SOL    HW3 7653   0.094   1.491   0.207  1.2140  1.0617 -1.1532
 1970SOL    MW4 7654   0.018   1.511   0.170 -0.5708 -0.5519 -0.0850
 1971SOL     OW 7655   4.842   5.288   2.808 -0.4990 -0.6093 -0.1462
 1971SOL    HW2 7656   4.932   5.319   2.804 -1.0724  1.1619 -0.1829
 1971SOL    HW3 7657   4.805   5.331   2.885 -1.3755 -1.1710 -0.2330
 1971SOL    MW4 7658   4.849   5.298   2.818 -0.1287  0.0716  0.5627
 1972SOL     OW 7659   0.749   4.020   4.475  0.3259  0.1565 -0.3151
 1972SOL    HW2 7660   0.674   4.036   4.416  0.0190 -0.4386 -0.0977
 1972SOL    HW3 7661   0.821   4.069   4.436  0.0710 -0.0579 -1.0768
 1972SOL    MW4 7662   0.748   4.028   4.462 -0.5859  0.2699 -0.4696
 1973SOL     OW 7663   1.171   2.650   1.842 -0.6680 -0.6028 -0.1407
 1973SOL    HW2 7664   1.234   2.717   1.815 -0.0843 -1.1294 -0.1141
 1973SOL    HW3 7665   1.133   2.685   1.923  0.6564 -0.9100  0.6547
 1973SOL    MW4 7666   1.174   2.664   1.849 -0.3236  0.1875  0.2967
 1974SOL     OW 7667   2.547   2.145   3.585  0.3625 -0.4434  0.4313
 1974SOL    HW2 7668   2.555   2.086   3.660 -0.1628  0.0899  0.9164
 1974SOL    HW3 7669   2.453   2.160   3.576  0.2285 -1.9970 -1.5196
 1974SOL    MW4 7670   2.535   2.139   3.593  1.4058  0.8686  0.2925
 1975SOL     OW 7671   1.142   1.923   5.734  0.3422  0.9896  0.0938
 1975SOL    HW2 7672   1.113   1.881   5.814  1.0865  0.0050 -0.1315
 1975SOL    HW3 7673   1.185   1.853   5.684 -0.5223  1.4639 -1.3848
 1975SOL    MW4 7674   1.144   1.908   5.738 -0.5223 -0.5982  0.3526
 1976SOL     OW 7675   1.344   0.677   3.440  0.4580  0.4175 -0.7501
 1976SOL    HW2 7676   1.420   0.688   3.383  1.8014 -0.7605  0.7259
 1976SOL    HW3 7677   1.284   0.623   3.388  2.6563 -2.7094 -0.3430
 1976SOL    MW4 7678   1.346   0.671   3.425  0.5963 -0.3875  0.1358
 1977SOL     OW 7679   2.256   5.065   5.218  0.0858  0.4583  0.2224
 1977SOL    HW2 7680   2.323   5.125   5.184 -1.0087  2.2766  1.1377
 1977SOL    HW3 7681   2.291   5.036   5.303 -0.0470  0.9880  0.4601
 1977SOL    MW4 7682   2.270   5.069   5.225 -0.0941  0.5348  0.2388
 1978SOL     OW 7683   6.379   5.696   1.773 -0.1203  0.1551 -0.2678
 1978SOL    HW2 7684   6.384   5.783   1.732 -1.5154 -0.7667 -2.5844
 1978SOL    HW3 7685   6.460   5.652   1.745  0.6798  0.7071  1.0631
 1978SOL    MW4 7686   6.391   5.702   1.764 -0.0315 -0.2494 -0.5045
 1979SOL     OW 7687   5.187   4.848   0.823  0.2371 -0.1598  0.2700
 1979SOL    HW2 7688   5.242   4.820   0.750 -0.8819  0.6833 -0.9546
 1979SOL    HW3 7689   5.099   4.817   0.800 -0.3276  1.0487  0.6954
 1979SOL    MW4 7690   5.183   4.840   0.810  0.1081 -0.4102  0.1842
 1980SOL     OW 7691   4.042   5.221   4.665 -0.5546 -0.5636 -0.3161
 1980SOL    HW2 7692   4.110   5.286   4.682  0.4448 -1.5275 -0.5722
 1980SOL    HW3 7693   3.974   5.240   4.730  0.2038  0.0633  0.3019
 1980SOL    MW4 7694   4.042   5.232   4.676 -0.2695 -0.0795 -0.3110
 1981SOL     OW 7695   1.988   4.017   0.832 -0.1174  0.4724  0.0922
 1981SOL    HW2 7696   2.003   4.086   0.897  2.1489 -0.8385  1.0773
 1981SOL    HW3 7697   1.962   3.941   0.883  1.2079 -0.4432 -0.5326
 1981SOL    MW4 7698   1.987   4.016   0.847 -0.2397  0.8743  0.3422
 1982SOL     OW 7699   6.231   5.145   1.609 -0.2379  0.8394 -0.4168
 1982SOL    HW2 7700   6.172   5.077   1.641  0.1899 -0.1205 -1.5691
 1982SOL    HW3 7701   6.196   5.169   1.524 -1.9819  4.1202  1.0408
 1982SOL    MW4 7702   6.219   5.139   1.602 -0.2884 -0.2569  0.0331
 1983SOL     OW 7703   3.107   4.170   1.686 -0.0403 -0.3094  0.7322
 1983SOL    HW2 7704   3.032   4.112   1.697  0.0657 -0.6661 -0.3054
 1983SOL    HW3 7705   3.183   4.113   1.695  0.0812 -0.1567  0.6834
 1983SOL    MW4 7706   3.107   4.155   1.688  0.0371 -0.5627 -0.1815
 1984SOL     OW 7707   3.961   4.383   0.002  0.4699 -0.2120 -0.0185
 1984SOL    HW2 7708   3.895   4.330   0.049  0.1783  0.0555 -0.1255
 1984SOL    HW3 7709   3.984   4.329  -0.074 -0.7547  0.3438 -0.8171
 1984SOL    MW4 7710   3.955   4.369  -0.002  0.3146  0.2409 -0.0730
 1985SOL     OW 7711   1.073   0.541   1.793  0.3347 -0.1115 -0.6095
 1985SOL    HW2 7712   1.136   0.523   1.723  1.7492  1.1997  0.2646
 1985SOL    HW3 7713   1.067   0.458   1.840  0.8098 -0.4805 -1.1742
 1985SOL    MW4 7714   1.081   0.527   1.790 -0.1325 -0.1536 -0.0626
 1986SOL     OW 7715   3.559   2.782   2.482  0.2711 -0.1768 -0.1686
 1986SOL    HW2 7716   3.566   2.689   2.500 -2.3225 -0.5041 -0.5338
 1986SOL    HW3 7717   3.479   2.810   2.527 -0.2298  1.3756 -1.8821
 1986SOL    MW4 7718   3.550   2.774   2.490  0.1769  0.2484 -0.3932
 1987SOL     OW 7719   6.096   4.159   4.296  0.1537 -0.2384  0.2611
 1987SOL    HW2 7720   6.049   4.102   4.357 -1.2289  0.6869  0.1140
 1987SOL    HW3 7721   6.144   4.219   4.353 -0.2892 -0.0568  0.4550
 1987SOL    MW4 7722   6.096   4.159   4.312 -0.7783  0.2144  0.4784
 1988SOL     OW 7723   1.441   6.337   4.151  0.2597  0.7943  0.3015
 1988SOL    HW2 7724   1.426   6.421   4.108 -3.0323  0.7768  1.1227
 1988SOL    HW3 7725   1.493   6.287   4.088 -0.4802  2.3349 -1.6506
 1988SOL    MW4 7726   1.446   6.341   4.137  0.0249  0.4746 -0.5521
 1989SOL     OW 7727   3.971   4.804   4.658  0.2690 -0.4539  0.0795
 1989SOL    HW2 7728   3.960   4.878   4.598  0.6770 -0.4724 -0.0166
 1989SOL    HW3 7729   3.885   4.762   4.660 -0.1662  0.4495  0.6925
 1989SOL    MW4 7730   3.958   4.808   4.650 -0.4928 -0.1618 -0.5199
 1990SOL     OW 7731   1.664   3.497   0.515  0.2957  0.1924 -0.4089
 1990SOL    HW2 7732   1.619   3.431   0.462 -0.8294 -0.4629  1.2677
 1990SOL    HW3 7733   1.602   3.518   0.585  1.5666  1.2896  0.4335
 1990SOL    MW4 7734   1.650   3.491   0.517 -0.2045 -0.4498  0.2867
 1991SOL     OW 7735   0.228   3.301   1.779  0.0220  0.5676 -0.2262
 1991SOL    HW2 7736   0.296   3.365   1.799 -0.1370  1.0435 -1.1755
 1991SOL    HW3 7737   0.146   3.345   1.803  0.0161  0.0081  0.8868
 1991SOL    MW4 7738   0.226   3.315   1.785  0.3287  0.8101 -0.3102
 1992SOL     OW 7739   4.928   1.347   3.341  0.4828 -0.2267  0.0076
 1992SOL    HW2 7740   4.921   1.370   3.248  0.7997  0.0087  0.0420
 1992SOL    HW3 7741   4.874   1.268   3.350  1.4744 -1.0097 -0.6510
 1992SOL    MW4 7742   4.920   1.339   3.330 -0.4804  0.0177 -0.1278
 1993SOL     OW 7743   2.008   0.254   3.051  0.4773  0.4373  0.3718
 1993SOL    HW2 7744   2.049   0.193   3.113  0.0589  0.2427  0.4683
 1993SOL    HW3 7745   1.990   0.332   3.103 -0.8668 -0.1262  0.7961
 1993SOL    MW4 7746   2.011   0.256   3.066 -0.0218  0.1206  0.0680
 1994SOL     OW 7747   1.866   5.594   2.980  0.1028  0.3674 -0.0477
 1994SOL    HW2 7748   1.773   5.569   2.984  0.4257 -0.8469  0.1226
 1994SOL    HW3 7749   1.913   5.515   3.006  1.1375  1.5296  1.7869
 1994SOL    MW4 7750   1.860   5.580   2.984 -0.1010  0.1922 -0.2833
 1995SOL     OW 7751   2.762   2.071   4.920 -0.2162  0.0153  0.0465
 1995SOL    HW2 7752   2.822   2.050   4.849  0.6477  1.0330  0.4398
 1995SOL    HW3 7753   2.704   2.138   4.885  0.3653  0.6950  0.3452
 1995SOL    MW4 7754   2.762   2.077   4.906  0.7150  0.6171 -0.6136
 1996SOL     OW 7755   5.375   4.593   5.620  0.0858 -0.6382 -0.1650
 1996SOL    HW2 7756   5.444   4.530   5.599 -0.4082 -1.3226  0.1965
 1996SOL    HW3 7757   5.304   4.539   5.657  0.0265  0.2509  1.0770
 1996SOL    MW4 7758   5.374   4.577   5.622  0.3812  0.9189  0.5913
 1997SOL     OW 7759   5.085   2.269   6.326  0.0007  0.3372 -0.1432
 1997SOL    HW2 7760   5.058   2.229   6.243 -1.8216  0.3791  0.3818
 1997SOL    HW3 7761   5.110   2.358   6.304 -0.4126  0.3272 -0.6500
 1997SOL    MW4 7762   5.085   2.275   6.313  0.2757 -0.0709 -0.2888
 1998SOL     OW 7763   4.879   4.601   1.012 -0.1672  0.3846  0.1377
 1998SOL    HW2 7764   4.934   4.525   1.031 -0.0404  1.0270  2.6851
 1998SOL    HW3 7765   4.905   4.666   1.077 -3.6307  0.8648  1.2036
 1998SOL    MW4 7766   4.890   4.599   1.023  0.1799  0.4767  0.4271
 1999SOL     OW 7767   1.824   5.912   0.284 -0.2723 -0.1017  0.2742
 1999SOL    HW2 7768   1.760   5.958   0.338 -1.5946  0.2759 -1.5002
 1999SOL    HW3 7769   1.772   5.853   0.230  0.7049  0.9590 -1.9667
 1999SOL    MW4 7770   1.809   5.910   0.284 -0.4423 -0.6173  0.0550
 2000SOL     OW 7771   1.859   5.759   1.203 -0.1521 -0.4199  0.6306
 2000SOL    HW2 7772   1.865   5.854   1.216 -0.7272 -0.2839  0.0071
 2000SOL    HW3 7773   1.946   5.726   1.225  1.0086  0.6199 -1.9440
 2000SOL    MW4 7774   1.871   5.767   1.207 -0.5745 -0.5992 -0.7324
 2001SOL     OW 7775   1.606   2.222   0.379  0.0666  0.7874  0.0925
 2001SOL    HW2 7776   1.677   2.268   0.334  1.2010 -0.2449  0.7778
 2001SOL    HW3 7777   1.547   2.291   0.407  1.5488  1.8213  0.7921
 2001SOL    MW4 7778   1.608   2.237   0.377 -0.3228  0.4162 -0.4232
 2002SOL     OW 7779   3.317   2.174   0.762 -0.1684  0.0772  0.0126
 2002SOL    HW2 7780   3.309   2.092   0.811  0.8026  0.8146  1.4661
 2002SOL    HW3 7781   3.278   2.155   0.677 -0.5124 -1.7075  0.5353
 2002SOL    MW4 7782   3.310   2.161   0.757  0.7411 -0.1735  0.2118
 2003SOL     OW 7783   0.078   1.271   3.861 -0.5958 -0.4734 -0.3452
 2003SOL    HW2 7784   0.135   1.275   3.784  0.6745 -0.8367  0.5372
 2003SOL    HW3 7785   0.002   1.325   3.837  0.4077  0.5752 -1.3276
 2003SOL    MW4 7786   0.076   1.279   3.848  0.1834 -0.2404 -0.1318
 2004SOL     OW 7787   6.187   4.289   6.309 -0.6533  0.4415 -0.4544
 2004SOL    HW2 7788   6.252   4.358   6.298 -1.4456  1.0018 -1.7847
 2004SOL    HW3 7789   6.159   4.268   6.220 -2.4139  0.3358  0.1005
 2004SOL    MW4 7790   6.192   4.295   6.296 -0.3983 -0.0793 -0.8086
 2005SOL     OW 7791   2.540   1.623   5.769 -0.0117 -0.1404 -0.0398
 2005SOL    HW2 7792   2.570   1.538   5.737 -0.1927  0.2893 -1.4116
 2005SOL    HW3 7793   2.558   1.684   5.697  1.9731  1.4066  1.6489
 2005SOL    MW4 7794   2.546   1.620   5.755  0.2310 -0.4937  0.2241
 2006SOL     OW 7795   6.053   0.269   2.031  0.2026 -0.1518  0.3555
 2006SOL    HW2 7796   6.031   0.271   1.938  3.0079  1.2678 -0.3680
 2006SOL    HW3 7797   6.007   0.191   2.065 -1.1410 -0.5197 -2.1003
 2006SOL    MW4 7798   6.044   0.259   2.023  0.4139  0.2583  0.4741
 2007SOL     OW 7799   4.829   2.829   4.519 -0.6341  0.0048  0.0239
 2007SOL    HW2 7800   4.900   2.887   4.490 -1.0073  0.1201 -0.6703
 2007SOL    HW3 7801   4.871   2.770   4.582  0.3460 -0.6058 -1.1461
 2007SOL    MW4 7802   4.844   2.829   4.524  0.1775  0.1503 -0.1454
 2008SOL     OW 7803   6.069   0.124   4.583 -0.1817  0.7025 -0.4581
 2008SOL    HW2 7804   6.094   0.037   4.615 -1.5741  0.1851 -0.7353
 2008SOL    HW3 7805   6.116   0.133   4.500 -0.3008  0.0770 -0.5960
 2008SOL    MW4 7806   6.079   0.113   4.576  0.5627 -0.4333  0.9460
 2009SOL     OW 7807   3.259   1.188   0.470 -0.0888  0.2955  0.0542
 2009SOL    HW2 7808   3.297   1.134   0.402 -1.0455  0.2769 -0.4731
 2009SOL    HW3 7809   3.165   1.188   0.453 -0.4928 -0.5656  1.9792
 2009SOL    MW4 7810   3.252   1.181   0.459 -0.2277 -0.2821  0.5193
 2010SOL     OW 7811   2.897   0.415   1.680  0.2835  0.2975 -0.0827
 2010SOL    HW2 7812   2.944   0.491   1.647 -0.0111  1.3751  1.8091
 2010SOL    HW3 7813   2.892   0.429   1.775 -1.2622 -1.2520  0.1273
 2010SOL    MW4 7814   2.903   0.427   1.688  0.3593 -0.7736  0.1102
 2011SOL     OW 7815   3.671   0.692   3.756  0.0505  0.7101 -0.5864
 2011SOL    HW2 7816   3.635   0.748   3.688 -0.4876  1.1132  0.0273
 2011SOL    HW3 7817   3.631   0.606   3.740 -0.6169  0.9738 -0.3565
 2011SOL    MW4 7818   3.661   0.688   3.745  0.0659  0.3473 -0.0013
 2012SOL     OW 7819   5.928   0.040   3.599 -0.3205  0.7150  0.2643
 2012SOL    HW2 7820   6.019   0.010   3.598 -0.8733 -1.1499  0.4901
 2012SOL    HW3 7821   5.932   0.133   3.579  1.5527  0.4342 -0.8835
 2012SOL    MW4 7822   5.941   0.048   3.596  0.1336 -0.4449  0.0262
 2013SOL     OW 7823   4.488   4.529   4.955  0.0437 -0.1562  0.1698
 2013SOL    HW2 7824   4.530   4.459   4.905  2.0827 -0.8302  2.6134
 2013SOL    HW3 7825   4.418   4.561   4.898  0.1426 -3.0056 -1.7363
 2013SOL    MW4 7826   4.485   4.524   4.941 -0.1409  0.1532 -0.5122
 2014SOL     OW 7827   2.733   4.710   1.689  0.0197 -0.1053 -0.4045
 2014SOL    HW2 7828   2.654   4.691   1.740 -0.5401 -0.2535 -1.2994
 2014SOL    HW3 7829   2.776   4.781   1.737 -0.8487  0.2210 -0.0822
 2014SOL    MW4 7830   2.728   4.717   1.702  0.1285 -0.1985  0.2481
 2015SOL     OW 7831   0.689   0.363   4.088  0.2041  0.2757  0.0726
 2015SOL    HW2 7832   0.639   0.438   4.055 -0.8095  0.4781  1.9348
 2015SOL    HW3 7833   0.683   0.370   4.183  0.2541 -2.0475  0.3064
 2015SOL    MW4 7834   0.681   0.374   4.096  0.2373 -0.3505 -0.5085
 2016SOL     OW 7835   5.898   4.848   4.071  0.4492  0.1009  0.0571
 2016SOL    HW2 7836   5.835   4.786   4.034 -1.7807  2.9364 -1.3270
 2016SOL    HW3 7837   5.860   4.874   4.155  1.9882 -1.1958  1.2130
 2016SOL    MW4 7838   5.885   4.843   4.077 -0.3619  0.7770  0.3124
 2017SOL     OW 7839   0.119   5.500   2.367  0.2372  0.1966 -0.4005
 2017SOL    HW2 7840   0.069   5.422   2.343 -0.7403  0.5999  0.2600
 2017SOL    HW3 7841   0.169   5.522   2.288  0.2324 -0.8691 -0.7125
 2017SOL    MW4 7842   0.119   5.493   2.353  0.1995 -0.6353  0.3008
 2018SOL     OW 7843   2.740   0.236   5.925 -0.1766 -0.6000 -0.3794
 2018SOL    HW2 7844   2.677   0.276   5.866 -0.5204 -1.9458 -0.9734
 2018SOL    HW3 7845   2.701   0.243   6.012 -1.3540 -1.7551 -0.7851
 2018SOL    MW4 7846   2.727   0.242   5.929 -0.1281 -0.4402 -0.1151
 2019SOL     OW 7847   1.668   5.662   3.620  0.0921 -0.2872 -0.5223
 2019SOL    HW2 7848   1.646   5.753   3.600 -0.1115 -0.1456  0.3049
 2019SOL    HW3 7849   1.682   5.661   3.715 -1.3776 -1.4062 -0.2775
 2019SOL    MW4 7850   1.667   5.673   3.630 -0.2486 -0.1429  0.3465
 2020SOL     OW 7851   1.735   4.461   4.869  0.2541  0.3922 -0.2625
 2020SOL    HW2 7852   1.733   4.537   4.927  0.7863 -0.8704  1.5072
 2020SOL    HW3 7853   1.685   4.394   4.916  1.9741 -1.1491 -0.5133
 2020SOL    MW4 7854   1.728   4.462   4.883  0.2507  0.0005  0.3479
 2021SOL     OW 7855   2.511   1.474   3.770 -0.0484  0.1344 -0.1581
 2021SOL    HW2 7856   2.477   1.445   3.686 -0.6706  0.1536  0.0757
 2021SOL    HW3 7857   2.570   1.405   3.798 -1.4202 -0.8824  0.3423
 2021SOL    MW4 7858   2.514   1.461   3.763 -1.0823 -0.1366 -0.2770
 2022SOL     OW 7859   0.969   2.782   1.635  0.4024  0.0822 -0.1434
 2022SOL    HW2 7860   1.023   2.736   1.700 -0.6474  0.5613  1.1167
 2022SOL    HW3 7861   0.894   2.725   1.622  0.1444  0.4373 -0.2208
 2022SOL    MW4 7862   0.966   2.768   1.642 -0.2324  0.3597 -0.6793
 2023SOL     OW 7863   3.338   6.156   5.870  0.8045  0.1166 -0.5310
 2023SOL    HW2 7864   3.427   6.129   5.846  0.4286 -1.3122 -0.3588
 2023SOL    HW3 7865   3.281   6.107   5.811 -0.0073 -1.2877  1.3382
 2023SOL    MW4 7866   3.342   6.146   5.859 -0.5236 -0.3198 -1.1144
 2024SOL     OW 7867   0.472   3.578   0.324  0.0235  0.3391  0.2306
 2024SOL    HW2 7868   0.376   3.568   0.325  0.1449 -1.0089  0.1633
 2024SOL    HW3 7869   0.486   3.666   0.290 -1.2023  0.6615  0.4892
 2024SOL    MW4 7870   0.461   3.588   0.320 -0.0275 -0.7151  0.2366
 2025SOL     OW 7871   5.215   2.440   4.280 -0.3849  0.1436  0.5014
 2025SOL    HW2 7872   5.121   2.459   4.276 -0.0939  1.8231  0.9062
 2025SOL    HW3 7873   5.254   2.518   4.319  1.0448 -1.0814  1.6484
 2025SOL    MW4 7874   5.208   2.453   4.284 -0.1529 -0.5505  0.7601
 2026SOL     OW 7875   4.828   4.902   5.507 -0.2834 -0.6365  0.3497
 2026SOL    HW2 7876   4.870   4.820   5.478  1.1167 -0.4232  1.6835
 2026SOL    HW3 7877   4.889   4.971   5.480  0.0668 -0.2868  1.9261
 2026SOL    MW4 7878   4.842   4.900   5.499  0.0185 -0.0945 -0.3131
 2027SOL     OW 7879   4.124   2.069   4.161 -0.4064  0.0726 -0.0882
 2027SOL    HW2 7880   4.104   1.975   4.164 -0.4551  0.0608 -0.6517
 2027SOL    HW3 7881   4.201   2.079   4.217 -0.3229 -0.3299 -0.1284
 2027SOL    MW4 7882   4.132   2.058   4.169 -0.4257  0.0335 -0.4909
 2028SOL     OW 7883   4.527   5.709   2.470 -0.1446  0.4107 -0.6427
 2028SOL    HW2 7884   4.459   5.643   2.456 -0.4703  0.5954  0.0057
 2028SOL    HW3 7885   4.491   5.789   2.431 -0.5893  0.6644  0.2557
 2028SOL    MW4 7886   4.513   5.711   2.463 -0.5071  0.1007  0.2051
 2029SOL     OW 7887   1.421   4.318   1.797 -0.2379 -0.1575  0.0731
 2029SOL    HW2 7888   1.417   4.355   1.885  3.0620  0.4120  0.1242
 2029SOL    HW3 7889   1.379   4.232   1.805  0.0953 -0.1715  2.2346
 2029SOL    MW4 7890   1.415   4.312   1.810 -0.6632  0.2359 -0.1214
 2030SOL     OW 7891   2.518   4.973   5.606  0.3014 -0.2515  0.1582
 2030SOL    HW2 7892   2.552   5.009   5.524 -0.0088  0.4697  0.3368
 2030SOL    HW3 7893   2.462   5.043   5.641 -0.2306 -0.8722  0.5677
 2030SOL    MW4 7894   2.515   4.987   5.600  0.6058 -0.5111 -0.3224
 2031SOL     OW 7895   6.135   0.998   0.185  0.3652  0.3067  0.0952
 2031SOL    HW2 7896   6.040   0.999   0.198  0.2482  0.4846 -0.6898
 2031SOL    HW3 7897   6.168   0.940   0.253 -0.5303 -1.4018 -0.8549
 2031SOL    MW4 7898   6.127   0.990   0.195  0.5511  0.0928 -0.1368
 2032SOL     OW 7899   5.336   5.375   0.006 -0.0256  0.5418  0.2684
 2032SOL    HW2 7900   5.306   5.285  -0.004 -0.7030  0.8077 -0.1567
 2032SOL    HW3 7901   5.421   5.376  -0.038  0.3413 -0.0674  0.9464
 2032SOL    MW4 7902   5.343   5.364  -0.001  0.4209 -0.3843  0.3547
 2033SOL     OW 7903   4.758   4.221   4.613  0.7670  0.1598 -0.6095
 2033SOL    HW2 7904   4.689   4.190   4.554 -0.7192  1.1483  0.5306
 2033SOL    HW3 7905   4.839   4.212   4.562 -0.1860 -1.0158 -2.0025
 2033SOL    MW4 7906   4.759   4.216   4.598 -0.2119  0.1170  0.2488
 2034SOL     OW 7907   1.803   4.730   0.719 -0.2918 -0.1257 -0.0776
 2034SOL    HW2 7908   1.801   4.816   0.677 -0.1817 -0.6383 -1.1349
 2034SOL    HW3 7909   1.883   4.731   0.772 -0.9507  0.8999  0.9816
 2034SOL    MW4 7910   1.813   4.742   0.721 -0.5963  0.4811 -0.1661
 2035SOL     OW 7911   1.136   3.824   4.691 -0.3309 -0.1763 -0.1424
 2035SOL    HW2 7912   1.126   3.869   4.607  0.4819 -1.0415 -0.7231
 2035SOL    HW3 7913   1.054   3.776   4.702 -0.5441  0.1432 -0.3062
 2035SOL    MW4 7914   1.124   3.824   4.681  0.3170 -0.1035  0.7104
 2036SOL     OW 7915   2.638   6.163   0.979 -0.3218  0.2393 -0.1135
 2036SOL    HW2 7916   2.657   6.250   1.013 -0.1880  1.0210 -2.0422
 2036SOL    HW3 7917   2.713   6.110   1.004 -0.4972  0.6033  1.2531
 2036SOL    MW4 7918   2.650   6.167   0.987 -0.5668 -0.6992 -0.0652
 2037SOL     OW 7919   0.262   5.340   1.880 -0.7139 -0.4294 -0.2992
 2037SOL    HW2 7920   0.348   5.315   1.846 -0.8919 -0.8832 -0.4171
 2037SOL    HW3 7921   0.200   5.300   1.820 -1.0129 -0.1090 -0.2082
 2037SOL    MW4 7922   0.265   5.331   1.868 -0.0951  0.0436  0.0562
 2038SOL     OW 7923   0.322   0.872   2.915  0.2679 -0.4907  0.6663
 2038SOL    HW2 7924   0.293   0.955   2.951 -2.4881 -0.3795 -1.4583
 2038SOL    HW3 7925   0.296   0.807   2.981 -1.1248  0.0288  0.6611
 2038SOL    MW4 7926   0.315   0.874   2.929  0.2289 -0.4658 -0.0566
 2039SOL     OW 7927   5.364   2.004   3.473  0.4429 -0.2029 -0.0706
 2039SOL    HW2 7928   5.391   2.074   3.413 -1.7295 -0.7145 -1.7558
 2039SOL    HW3 7929   5.438   1.944   3.473  1.6881  1.2604  0.1195
 2039SOL    MW4 7930   5.378   2.005   3.465  0.2011 -0.4694  0.4662
 2040SOL     OW 7931   5.144   1.522   0.174  0.4451  0.0732 -0.1247
 2040SOL    HW2 7932   5.238   1.510   0.187  0.4810  0.5496  0.0842
 2040SOL    HW3 7933   5.103   1.466   0.239  0.5300 -2.0400 -1.7837
 2040SOL    MW4 7934   5.151   1.513   0.184  0.0953 -0.3802  0.5248
 2041SOL     OW 7935   6.086   5.588   4.268 -0.8334  0.3756  0.3749
 2041SOL    HW2 7936   6.036   5.513   4.299 -0.0992 -0.7705 -1.0852
 2041SOL    HW3 7937   6.085   5.581   4.173 -0.7093  2.2145  0.1920
 2041SOL    MW4 7938   6.079   5.577   4.260 -0.4157 -0.2151  0.4729
 2042SOL     OW 7939   0.439   4.043   5.984 -0.1249  0.5839  0.8444
 2042SOL    HW2 7940   0.526   4.043   5.945 -1.0167  0.2547 -1.3037
 2042SOL    HW3 7941   0.380   4.023   5.911 -1.8653 -0.8867  2.5529
 2042SOL    MW4 7942   0.443   4.041   5.969 -0.2027 -0.1213 -0.3426
 2043SOL     OW 7943   2.009   2.556   6.146 -0.1411 -0.4056  0.0075
 2043SOL    HW2 7944   2.005   2.622   6.077  1.2820  0.5736  0.8108
 2043SOL    HW3 7945   1.968   2.597   6.222  2.8557  0.5954  1.2333
 2043SOL    MW4 7946   2.003   2.570   6.147  0.3616  0.0648 -0.6640
 2044SOL     OW 7947   0.715   5.027   0.127 -0.0062 -0.4058  0.3457
 2044SOL    HW2 7948   0.672   5.106   0.094 -1.5002 -0.6880  1.5188
 2044SOL    HW3 7949   0.643   4.967   0.147  0.8293 -0.6521  3.0313
 2044SOL    MW4 7950   0.700   5.029   0.125  0.7498  0.3024  0.0428
 2045SOL     OW 7951   3.433   0.819   2.325 -0.4997 -0.2627 -0.2304
 2045SOL    HW2 7952   3.362   0.780   2.375 -0.4035  1.0961  1.0311
 2045SOL    HW3 7953   3.511   0.771   2.354 -0.2941  1.1244  1.7546
 2045SOL    MW4 7954   3.434   0.808   2.335  0.5132  0.0307 -0.4394
 2046SOL     OW 7955   0.175   4.805   5.483 -0.2485 -0.2961 -0.2032
 2046SOL    HW2 7956   0.188   4.855   5.563  1.4904 -0.7690 -0.1388
 2046SOL    HW3 7957   0.158   4.715   5.512 -0.6669 -0.2689 -0.3553
 2046SOL    MW4 7958   0.175   4.799   5.497 -0.1265  0.1022  0.0118
 2047SOL     OW 7959   2.294   4.936   6.075 -0.2461  0.2506  0.0132
 2047SOL    HW2 7960   2.237   4.963   6.003 -0.2452  1.1738  0.3464
 2047SOL    HW3 7961   2.309   5.016   6.125  0.7614 -0.1227  0.3380
 2047SOL    MW4 7962   2.288   4.950   6.072 -0.1582  0.6768 -0.0450
 2048SOL     OW 7963   4.376   4.246   2.942 -0.2065  0.4480  0.1787
 2048SOL    HW2 7964   4.384   4.334   2.979 -1.3074  1.4128 -1.7119
 2048SOL    HW3 7965   4.377   4.188   3.018  2.7473  1.8710  1.3599
 2048SOL    MW4 7966   4.377   4.250   2.957 -0.3222  0.4519 -0.7184
 2049SOL     OW 7967   2.275   4.097   5.820  0.1984 -0.1154  0.1653
 2049SOL    HW2 7968   2.268   4.165   5.887 -1.1817 -1.0780  1.0704
 2049SOL    HW3 7969   2.238   4.137   5.741  0.2596  0.4848  0.4350
 2049SOL    MW4 7970   2.269   4.111   5.819  0.0760 -0.0986 -0.0875
 2050SOL     OW 7971   2.867   0.869   4.896  0.3100 -0.2478 -0.2081
 2050SOL    HW2 7972   2.885   0.918   4.976  1.7535  1.0598 -1.2786
 2050SOL    HW3 7973   2.789   0.817   4.916 -1.6753  2.8942  0.8287
 2050SOL    MW4 7974   2.859   0.868   4.909  0.6787 -0.0448  0.2513
 2051SOL     OW 7975   1.443   6.202   0.338  0.1337  0.9171 -0.2189
 2051SOL    HW2 7976   1.381   6.133   0.364  2.4307  0.1171  4.1232
 2051SOL    HW3 7977   1.441   6.201   0.243 -4.4660 -0.8167 -0.3836
 2051SOL    MW4 7978   1.434   6.193   0.329  0.2421  0.0268  0.1484
 2052SOL     OW 7979   3.436   0.686   0.657  0.0583 -0.0362 -0.2411
 2052SOL    HW2 7980   3.348   0.713   0.682  0.0493 -0.5811  0.3685
 2052SOL    HW3 7981   3.485   0.684   0.740  0.3715 -0.6978 -0.4306
 2052SOL    MW4 7982   3.431   0.689   0.671  0.0993 -0.0767 -0.4452
 2053SOL     OW 7983   4.026   6.084   5.552 -0.1786  0.5231 -0.5122
 2053SOL    HW2 7984   4.023   6.004   5.603  1.6439 -0.0533 -1.2302
 2053SOL    HW3 7985   3.937   6.095   5.518 -0.5592 -0.9445 -0.0414
 2053SOL    MW4 7986   4.013   6.075   5.554 -0.3546 -0.0140  0.7391
 2054SOL     OW 7987   2.997   1.400   3.308 -0.0481  0.0800  0.5012
 2054SOL    HW2 7988   2.990   1.387   3.213  0.4165 -2.1465  0.7045
 2054SOL    HW3 7989   2.906   1.403   3.338 -0.2285  2.1028 -0.1103
 2054SOL    MW4 7990   2.984   1.399   3.299 -0.3110 -0.0464  0.3997
 2055SOL     OW 7991   1.302   1.629   1.891 -0.5800  0.4464  0.0735
 2055SOL    HW2 7992   1.312   1.544   1.847 -0.5649  0.8371 -0.6855
 2055SOL    HW3 7993   1.213   1.656   1.872 -0.7615  0.3613  0.7646
 2055SOL    MW4 7994   1.292   1.621   1.883 -0.1109 -0.0541 -0.1900
 2056SOL     OW 7995   5.301   3.454   2.094  0.1717 -0.0389 -0.3987
 2056SOL    HW2 7996   5.234   3.404   2.141  0.2396 -0.3899 -0.6743
 2056SOL    HW3 7997   5.382   3.436   2.141 -0.0287  0.9011  0.3291
 2056SOL    MW4 7998   5.303   3.445   2.107  0.6567  0.3384 -0.4104
 2057SOL     OW 7999   6.048   2.513   6.385  1.3951 -0.1354  0.0428
 2057SOL    HW2 8000   6.003   2.597   6.382 -0.0936 -0.9145 -0.0208
 2057SOL    HW3 8001   6.050   2.489   6.477 -0.4359 -1.1661 -0.1309
 2057SOL    MW4 8002   6.043   2.521   6.397 -0.0881 -0.3884 -0.4925
 2058SOL     OW 8003   0.947   2.118   4.775 -0.0245  0.6126  0.0880
 2058SOL    HW2 8004   0.909   2.191   4.726 -0.5180  0.9280  0.9300
 2058SOL    HW3 8005   0.942   2.044   4.714 -0.1033  1.1228 -0.5432
 2058SOL    MW4 8006   0.941   2.118   4.760  0.1597  0.0511  0.3418
 2059SOL     OW 8007   3.128   6.208   3.508  0.3488 -0.1280  0.3316
 2059SOL    HW2 8008   3.101   6.298   3.526  1.7701  0.8030 -1.7715
 2059SOL    HW3 8009   3.199   6.192   3.571 -0.5991 -0.2033  1.4187
 2059SOL    MW4 8010   3.134   6.218   3.519  0.0260  0.8098 -0.1708
 2060SOL     OW 8011   2.611   0.286   4.426 -0.5617 -0.3055 -0.4958
 2060SOL    HW2 8012   2.678   0.248   4.483 -0.1574  1.5627  0.3523
 2060SOL    HW3 8013   2.632   0.253   4.339  1.0063 -0.3735 -0.1269
 2060SOL    MW4 8014   2.623   0.277   4.422 -0.7392  0.3154 -0.5735
 2061SOL     OW 8015   5.321   0.729   4.551  0.0159  0.1278  0.0799
 2061SOL    HW2 8016   5.349   0.804   4.499 -1.1399  2.3443  2.4145
 2061SOL    HW3 8017   5.370   0.736   4.633 -2.4659  0.3420  1.6610
 2061SOL    MW4 8018   5.331   0.739   4.555 -0.2240 -0.6241 -0.3419
 2062SOL     OW 8019   0.175   3.726   5.832 -0.0162 -0.2092  0.9162
 2062SOL    HW2 8020   0.207   3.816   5.835 -0.7445  0.0563  4.1696
 2062SOL    HW3 8021   0.243   3.677   5.785  0.0838  2.0579 -1.5346
 2062SOL    MW4 8022   0.188   3.731   5.826  0.1577  0.3176  0.0362
 2063SOL     OW 8023   2.404   5.481   0.273 -0.2440 -0.5157  0.2704
 2063SOL    HW2 8024   2.407   5.443   0.361 -1.6328  0.7161  0.9059
 2063SOL    HW3 8025   2.446   5.566   0.282  0.0025 -0.5650 -0.3754
 2063SOL    MW4 8026   2.410   5.487   0.286 -0.0046 -0.5851  0.0499
 2064SOL     OW 8027   3.844   1.582   4.024 -0.3468 -0.3723  0.2968
 2064SOL    HW2 8028   3.764   1.582   4.076 -0.4225 -0.1216  0.1819
 2064SOL    HW3 8029   3.851   1.493   3.989 -2.7931  0.5535 -3.0748
 2064SOL    MW4 8030   3.835   1.571   4.026  0.1091  0.3168  0.3304
 2065SOL     OW 8031   4.993   0.170   2.733 -0.3593  0.3223 -0.0239
 2065SOL    HW2 8032   4.940   0.136   2.805  0.1012 -2.2549 -0.8195
 2065SOL    HW3 8033   5.084   0.153   2.760 -0.1897 -3.1597 -2.1644
 2065SOL    MW4 8034   4.998   0.163   2.746  0.3329 -0.2510  0.0700
 2066SOL     OW 8035   1.067   5.687   2.230 -0.6758  0.2745  0.0212
 2066SOL    HW2 8036   1.140   5.740   2.262 -0.4599  0.0209 -0.0459
 2066SOL    HW3 8037   1.054   5.620   2.297 -0.4250 -0.0692 -0.2701
 2066SOL    MW4 8038   1.075   5.686   2.243  0.6586  0.9367  0.4771
 2067SOL     OW 8039   3.336   2.800   3.933 -0.0649  0.2134  0.4825
 2067SOL    HW2 8040   3.280   2.790   3.857  0.3050  1.2338  0.0559
 2067SOL    HW3 8041   3.378   2.715   3.944 -0.6301 -0.1367 -0.0396
 2067SOL    MW4 8042   3.334   2.787   3.925  0.2956 -0.1563  0.4421
 2068SOL     OW 8043   4.328   4.327   1.638 -0.5214  0.1701 -0.6094
 2068SOL    HW2 8044   4.259   4.261   1.639 -0.7879  0.4102  1.0992
 2068SOL    HW3 8045   4.408   4.278   1.659 -0.6852  0.3200  0.4416
 2068SOL    MW4 8046   4.329   4.312   1.641 -0.1173  0.5269  0.5395
 2069SOL     OW 8047   4.611   3.459   0.255 -0.2682 -0.6101  0.4706
 2069SOL    HW2 8048   4.551   3.389   0.281 -0.7353 -0.1506  0.6484
 2069SOL    HW3 8049   4.652   3.486   0.337  1.3004 -1.9200  0.1607
 2069SOL    MW4 8050   4.608   3.454   0.269 -0.2428 -0.0249 -0.3113
 2070SOL     OW 8051   5.998   4.751   3.046  0.3334  0.5070  0.2479
 2070SOL    HW2 8052   6.032   4.800   3.121 -1.0635  0.2534  1.0821
 2070SOL    HW3 8053   5.950   4.817   2.995  0.3132  0.4483  0.1917
 2070SOL    MW4 8054   5.996   4.766   3.049  0.1522  0.1646 -0.2037
 2071SOL     OW 8055   1.757   0.834   0.316 -0.5197  0.5509  0.3413
 2071SOL    HW2 8056   1.714   0.867   0.395  0.3182 -0.2258  1.1548
 2071SOL    HW3 8057   1.849   0.824   0.341 -0.7237 -2.5649  0.2759
 2071SOL    MW4 8058   1.764   0.837   0.330 -0.6473 -0.3221 -0.1586
 2072SOL     OW 8059   3.177   6.013   5.674  0.4579 -0.0114 -0.1697
 2072SOL    HW2 8060   3.177   6.053   5.587  0.8712 -0.4981 -0.3936
 2072SOL    HW3 8061   3.170   5.919   5.658  2.5413 -0.2882  0.2176
 2072SOL    MW4 8062   3.176   6.006   5.660  0.6180 -0.5360 -0.1632
 2073SOL     OW 8063   5.115   3.394   1.261 -0.1865 -0.0589  0.3940
 2073SOL    HW2 8064   5.119   3.299   1.253  2.3813  0.0469 -0.4411
 2073SOL    HW3 8065   5.181   3.415   1.327  0.9339  1.2302 -1.0526
 2073SOL    MW4 8066   5.124   3.384   1.269 -0.6320  0.0453 -0.0967
 2074SOL     OW 8067   5.785   4.595   5.437 -0.0285 -0.6068 -0.5340
 2074SOL    HW2 8068   5.820   4.514   5.400  0.4266 -0.1480 -1.1329
 2074SOL    HW3 8069   5.846   4.663   5.407 -0.9717  0.0986 -0.9123
 2074SOL    MW4 8070   5.798   4.593   5.428  0.4066 -0.8958  0.0338
 2075SOL     OW 8071   0.711   5.231   1.425 -0.4341  0.2283  0.9348
 2075SOL    HW2 8072   0.737   5.180   1.348 -1.6786  0.0429  0.6240
 2075SOL    HW3 8073   0.685   5.316   1.390  0.1258  0.5454  1.2827
 2075SOL    MW4 8074   0.711   5.235   1.410 -0.2408  0.6871 -0.4077
 2076SOL     OW 8075   0.734   3.423   4.963  0.5088 -0.2770 -0.4117
 2076SOL    HW2 8076   0.682   3.363   4.910  2.0711 -1.6781 -0.4339
 2076SOL    HW3 8077   0.696   3.509   4.945 -1.9283 -1.2247 -0.2047
 2076SOL    MW4 8078   0.722   3.427   4.953  0.4685 -0.5480  0.1473
 2077SOL     OW 8079   4.785   0.435   4.466  0.2506 -0.4580  0.6918
 2077SOL    HW2 8080   4.869   0.391   4.452  1.7026  1.8181  1.6889
 2077SOL    HW3 8081   4.757   0.405   4.553  0.5096 -0.5183  0.7581
 2077SOL    MW4 8082   4.793   0.425   4.476  0.1784  0.0234 -0.2885
 2078SOL     OW 8083   4.103   0.104   2.434 -0.2602 -0.1815  1.1861
 2078SOL    HW2 8084   4.088   0.165   2.506 -1.5426  0.1416  0.6874
 2078SOL    HW3 8085   4.063   0.022   2.463  0.9727 -0.6382  1.6312
 2078SOL    MW4 8086   4.096   0.102   2.447 -0.4212 -0.4724  0.1437
 2079SOL     OW 8087   1.654   1.292   4.777 -0.2098 -0.5269 -0.0576
 2079SOL    HW2 8088   1.727   1.336   4.821  0.1715  0.4056 -1.5272
 2079SOL    HW3 8089   1.644   1.340   4.694 -1.9127 -1.2015 -0.2901
 2079SOL    MW4 8090   1.662   1.304   4.772 -0.2974 -0.2539  0.2787
 2080SOL     OW 8091   4.942   1.892   0.502 -0.4411  0.3522  0.0037
 2080SOL    HW2 8092   4.950   1.955   0.574  0.4828 -0.1861  0.3878
 2080SOL    HW3 8093   4.848   1.879   0.492 -0.5906  0.5814  0.9862
 2080SOL    MW4 8094   4.930   1.899   0.510 -0.0159  0.2527  0.0836
 2081SOL     OW 8095   1.258   6.127   6.269  0.0767 -0.5635 -0.2623
 2081SOL    HW2 8096   1.350   6.114   6.291  0.2392 -0.0307 -0.6198
 2081SOL    HW3 8097   1.246   6.222   6.266 -0.9163 -0.5853  1.5634
 2081SOL    MW4 8098   1.268   6.138   6.271 -0.5904  0.2171  0.4569
 2082SOL     OW 8099   1.853   2.567   1.540 -0.0739  0.3284  0.0898
 2082SOL    HW2 8100   1.780   2.506   1.530 -0.6572  0.7908  1.2217
 2082SOL    HW3 8101   1.890   2.576   1.453 -0.6490 -0.8145 -0.2858
 2082SOL    MW4 8102   1.848   2.560   1.527 -0.4024  0.4466 -0.2857
 2083SOL     OW 8103   3.836   2.448   4.961 -0.4846  0.2747  0.1201
 2083SOL    HW2 8104   3.854   2.399   4.881  0.8136  0.2901  0.3869
 2083SOL    HW3 8105   3.917   2.494   4.980 -1.1364  1.1703  0.8331
 2083SOL    MW4 8106   3.849   2.447   4.953  0.0201 -0.0844  0.1533
 2084SOL     OW 8107   2.882   0.224   4.509 -0.2198  0.0444  0.5003
 2084SOL    HW2 8108   2.939   0.250   4.437 -3.5546  1.9165 -1.7002
 2084SOL    HW3 8109   2.893   0.129   4.514  0.4648 -0.1054 -2.2221
 2084SOL    MW4 8110   2.891   0.215   4.501  0.7513  0.3202 -1.0497
 2085SOL     OW 8111   4.145   3.741   5.426 -0.3646  0.3129  0.4407
 2085SOL    HW2 8112   4.065   3.706   5.465  0.2495 -0.2754  1.2116
 2085SOL    HW3 8113   4.120   3.828   5.396 -1.2934  0.1427  0.6731
 2085SOL    MW4 8114   4.131   3.748   5.427  0.2622  1.0482  0.3540
 2086SOL     OW 8115   0.722   3.789   5.206 -0.2230  0.2402  0.6619
 2086SOL    HW2 8116   0.785   3.848   5.247  0.1660 -0.4365  1.0712
 2086SOL    HW3 8117   0.760   3.767   5.121  0.6696 -1.0297  1.3477
 2086SOL    MW4 8118   0.735   3.794   5.201  0.3363 -0.9725  0.5079
 2087SOL     OW 8119   4.384   2.702   6.031  0.1550 -0.0869  0.1836
 2087SOL    HW2 8120   4.335   2.780   6.057  0.7157  0.1892  0.4233
 2087SOL    HW3 8121   4.414   2.663   6.113  1.8484  0.7345 -0.0023
 2087SOL    MW4 8122   4.381   2.707   6.045 -0.1525  0.1366 -0.2149
 2088SOL     OW 8123   4.010   0.407   2.021 -0.5222  0.0243  0.5820
 2088SOL    HW2 8124   4.021   0.317   2.051 -1.3373  0.4423  2.2805
 2088SOL    HW3 8125   3.924   0.434   2.056 -0.3605  1.4072  0.0014
 2088SOL    MW4 8126   4.000   0.399   2.030 -0.3336 -0.0762  0.0071
 2089SOL     OW 8127   1.726   5.131   2.041  0.0269 -0.2443  0.1595
 2089SOL    HW2 8128   1.689   5.053   2.083 -0.0969 -0.8599 -1.0441
 2089SOL    HW3 8129   1.658   5.197   2.049 -0.2248 -0.5325  0.4131
 2089SOL    MW4 8130   1.712   5.129   2.048  0.0695  0.0465 -0.0362
 2090SOL     OW 8131   3.453   1.662   5.966 -0.2370  0.3261  0.1041
 2090SOL    HW2 8132   3.506   1.598   6.013  2.8663  2.0333 -0.8342
 2090SOL    HW3 8133   3.440   1.624   5.879  0.3356  0.3334  0.0152
 2090SOL    MW4 8134   3.458   1.649   5.960  0.0240 -0.4030 -0.0328
 2091SOL     OW 8135   2.976   5.554   1.228  0.1924  0.0735 -0.3457
 2091SOL    HW2 8136   3.067   5.583   1.225 -0.0389  0.7254 -1.4221
 2091SOL    HW3 8137   2.974   5.490   1.300  2.1951 -2.3253 -2.2128
 2091SOL    MW4 8138   2.988   5.549   1.237  0.3332 -0.2150  0.3529
 2092SOL     OW 8139   0.879   5.203   0.603 -0.1792  0.4012 -0.9073
 2092SOL    HW2 8140   0.960   5.197   0.552 -0.3866  0.0411 -1.1976
 2092SOL    HW3 8141   0.878   5.124   0.657  0.2240  0.9641 -0.0640
 2092SOL    MW4 8142   0.890   5.192   0.603  0.5880 -0.0206  0.0675
 2093SOL     OW 8143   4.057   5.449   4.157 -0.0518 -0.2358  0.4232
 2093SOL    HW2 8144   4.038   5.482   4.069  0.1291  1.4265  0.9817
 2093SOL    HW3 8145   4.152   5.451   4.164 -0.1117  0.7683  1.0624
 2093SOL    MW4 8146   4.067   5.454   4.147  0.4233 -0.3882  0.0597
 2094SOL     OW 8147   6.345   1.024   4.609 -0.0153  0.0657  0.0989
 2094SOL    HW2 8148   6.390   0.984   4.535 -2.2930 -1.8730 -0.3762
 2094SOL    HW3 8149   6.343   0.956   4.676  0.1095  1.0430  1.1285
 2094SOL    MW4 8150   6.351   1.010   4.608  0.2187  0.1522  0.7026
 2095SOL     OW 8151   2.272   1.471   3.987 -0.2582 -0.3915  0.6984
 2095SOL    HW2 8152   2.316   1.397   3.946 -0.3518  0.0452 -0.2148
 2095SOL    HW3 8153   2.332   1.545   3.976 -0.8406  0.0153  0.2065
 2095SOL    MW4 8154   2.285   1.471   3.980  0.1544  0.5775  0.0138
 2096SOL     OW 8155   5.179   2.054   5.475 -0.0324  0.5475  0.3114
 2096SOL    HW2 8156   5.142   2.030   5.560  0.4827 -0.5865  0.2289
 2096SOL    HW3 8157   5.154   1.983   5.416 -0.4217  1.3447 -0.5053
 2096SOL    MW4 8158   5.171   2.041   5.479  0.0082  0.2003  0.9001
 2097SOL     OW 8159   3.052   2.062   5.704  0.5514  0.0538  0.2502
 2097SOL    HW2 8160   3.045   2.075   5.610 -0.9257 -2.0483  0.0003
 2097SOL    HW3 8161   3.130   2.113   5.730 -0.4422  2.7151 -1.6146
 2097SOL    MW4 8162   3.062   2.070   5.695  0.0006 -0.5759 -0.0383
 2098SOL     OW 8163   0.506   1.186   4.896  0.1509 -0.0829  0.6296
 2098SOL    HW2 8164   0.537   1.184   4.987  1.5423  0.5674  0.2091
 2098SOL    HW3 8165   0.549   1.263   4.859 -1.1457  0.1937 -0.3370
 2098SOL    MW4 8166   0.516   1.196   4.903 -0.2653  0.0101  0.0800
 2099SOL     OW 8167   1.620   5.519   0.423  0.1184  0.4562  0.6184
 2099SOL    HW2 8168   1.587   5.603   0.452 -1.1122  1.0943 -2.3138
 2099SOL    HW3 8169   1.635   5.529   0.329  2.0352 -1.9564  0.5461
 2099SOL    MW4 8170   1.618   5.531   0.415  0.1562  0.8151  0.6297
 2100SOL     OW 8171   2.722   1.967   2.941  0.1446 -0.1078  0.2572
 2100SOL    HW2 8172   2.751   1.922   2.862 -0.6130  0.1467 -0.1708
 2100SOL    HW3 8173   2.786   2.037   2.954  0.2110 -0.0858 -0.1934
 2100SOL    MW4 8174   2.734   1.970   2.932 -0.0771  0.1913  0.3017
 2101SOL     OW 8175   2.448   1.097   5.437 -0.1049  0.2380 -0.0605
 2101SOL    HW2 8176   2.466   1.055   5.522  1.1531 -0.5120 -0.6552
 2101SOL    HW3 8177   2.363   1.139   5.448  0.9478  1.9581  2.2511
 2101SOL    MW4 8178   2.439   1.097   5.450  0.1896  0.5204  0.3085
 2102SOL     OW 8179   3.573   3.199   2.858 -0.2271  0.3909 -0.0078
 2102SOL    HW2 8180   3.658   3.204   2.815 -0.8143  1.1646 -1.1605
 2102SOL    HW3 8181   3.572   3.273   2.918  1.3395 -1.7665  2.9170
 2102SOL    MW4 8182   3.584   3.210   2.860  0.1567 -0.6382 -0.2321
 2103SOL     OW 8183   3.440   0.741   0.991 -0.2015  0.4551  0.4349
 2103SOL    HW2 8184   3.523   0.705   0.961  0.2513  1.9379 -0.1569
 2103SOL    HW3 8185   3.461   0.829   1.022 -1.5781  0.9168  0.1361
 2103SOL    MW4 8186   3.454   0.748   0.991  0.5444 -0.2612 -0.1865
 2104SOL     OW 8187   4.664   3.859   5.221 -0.4578 -0.0484  0.7010
 2104SOL    HW2 8188   4.699   3.800   5.288 -0.0946 -0.6405  0.0021
 2104SOL    HW3 8189   4.586   3.897   5.261  1.3894  2.0277  2.6967
 2104SOL    MW4 8190   4.659   3.857   5.235  0.3744 -0.2224 -0.4343
 2105SOL     OW 8191   6.331   0.078   4.491  0.4050  0.0167 -0.1865
 2105SOL    HW2 8192   6.356   0.080   4.584 -0.3238  0.4689  0.0032
 2105SOL    HW3 8193   6.315   0.169   4.468 -0.6401 -0.2095 -0.4164
 2105SOL    MW4 8194   6.332   0.090   4.500  0.2030  0.1838  0.4687
 2106SOL     OW 8195   1.371   1.783   6.013 -0.5950 -0.4554 -0.2160
 2106SOL    HW2 8196   1.408   1.869   6.031  1.4827 -1.3768  0.2959
 2106SOL    HW3 8197   1.434   1.743   5.952 -0.8929 -2.0045  0.4511
 2106SOL    MW4 8198   1.384   1.789   6.007  0.0929 -0.1704  0.8571
 2107SOL     OW 8199   4.653   0.971   4.103 -0.2596 -0.1464 -0.1287
 2107SOL    HW2 8200   4.604   1.036   4.051 -0.3610 -0.3797 -0.3279
 2107SOL    HW3 8201   4.744   0.984   4.077 -0.2418  0.1432  0.0804
 2107SOL    MW4 8202   4.658   0.982   4.092 -0.0444  0.1088  0.2298
 2108SOL     OW 8203   4.064   1.803   3.521  0.2181 -0.0433  0.6055
 2108SOL    HW2 8204   4.097   1.817   3.610 -0.8159  0.9990  0.8639
 2108SOL    HW3 8205   4.069   1.889   3.480  2.7542 -0.9112 -1.1514
 2108SOL    MW4 8206   4.069   1.816   3.528 -0.3584 -0.0163  0.3416
 2109SOL     OW 8207   1.784   2.800   0.201 -0.2639  0.1048  0.8486
 2109SOL    HW2 8208   1.692   2.808   0.174 -0.6128 -2.6562  0.8878
 2109SOL    HW3 8209   1.792   2.859   0.275 -1.2783  2.3089 -0.6742
 2109SOL    MW4 8210   1.773   2.808   0.207 -0.3906  0.7171 -0.3415
 2110SOL     OW 8211   5.699   4.198   5.413 -0.2660 -0.0559  0.2683
 2110SOL    HW2 8212   5.722   4.191   5.321 -0.0467 -0.4368  0.3479
 2110SOL    HW3 8213   5.765   4.145   5.458 -2.0494 -2.3820  0.3855
 2110SOL    MW4 8214   5.711   4.190   5.407  0.7186  0.7101  0.2070
 2111SOL     OW 8215   0.397   1.234   2.027  0.0681  0.0153 -0.0970
 2111SOL    HW2 8216   0.382   1.267   1.938  0.2409 -1.1849 -0.5912
 2111SOL    HW3 8217   0.459   1.296   2.065  1.1002 -0.2293 -1.3140
 2111SOL    MW4 8218   0.403   1.247   2.020 -0.0897  0.2201 -0.7457
 2112SOL     OW 8219   1.228   2.547   4.420  0.4571  0.3592 -0.0559
 2112SOL    HW2 8220   1.238   2.493   4.341  1.3702 -0.5444  0.6391
 2112SOL    HW3 8221   1.184   2.489   4.483  0.1291  0.9233  0.2431
 2112SOL    MW4 8222   1.224   2.532   4.418  0.1574 -0.1458 -0.3637
 2113SOL     OW 8223   5.703   3.358   3.896  0.1422  0.0062  0.3205
 2113SOL    HW2 8224   5.639   3.319   3.955 -0.1981 -2.1144 -1.3251
 2113SOL    HW3 8225   5.766   3.401   3.954 -1.7261  0.5665  2.0573
 2113SOL    MW4 8226   5.703   3.358   3.911 -0.0847  0.2813 -0.3661
 2114SOL     OW 8227   4.973   1.351   4.802  0.2318 -0.6080  0.0668
 2114SOL    HW2 8228   5.002   1.440   4.779  3.4145 -1.3577  0.5914
 2114SOL    HW3 8229   4.980   1.301   4.721  1.6876 -1.0330  0.4117
 2114SOL    MW4 8230   4.978   1.356   4.789  0.2963  0.5329  0.9730
 2115SOL     OW 8231   5.589   4.254   5.769 -0.3808  0.1931 -0.0821
 2115SOL    HW2 8232   5.604   4.337   5.723 -0.4197 -0.3994 -1.1644
 2115SOL    HW3 8233   5.526   4.207   5.716 -1.5483  0.0902  1.3263
 2115SOL    MW4 8234   5.583   4.259   5.756  0.0912  0.0630 -0.4611
 2116SOL     OW 8235   5.450   4.104   0.282 -0.2218 -0.0748  0.4942
 2116SOL    HW2 8236   5.448   4.199   0.270  1.1443  0.1522  1.7777
 2116SOL    HW3 8237   5.455   4.091   0.377  1.8234 -1.3295  0.2844
 2116SOL    MW4 8238   5.451   4.115   0.293 -0.0705 -0.0063  0.1325
 2117SOL     OW 8239   5.162   2.634   3.922 -0.6279  0.5736  0.6969
 2117SOL    HW2 8240   5.099   2.676   3.864 -0.9898  0.1176  0.7503
 2117SOL    HW3 8241   5.209   2.572   3.866  0.0330  1.1665  0.5762
 2117SOL    MW4 8242   5.160   2.631   3.907  0.0417 -0.7599 -0.3265
 2118SOL     OW 8243   3.958   6.317   2.561  0.1525 -0.7008  0.0122
 2118SOL    HW2 8244   4.027   6.335   2.626  0.1310 -0.4390 -0.0395
 2118SOL    HW3 8245   3.972   6.225   2.538  1.3860 -0.2706 -1.0616
 2118SOL    MW4 8246   3.969   6.307   2.567  0.0276  0.1394  0.2705
 2119SOL     OW 8247   4.061   1.210   5.251 -0.6856  0.4655 -0.4313
 2119SOL    HW2 8248   4.032   1.148   5.318 -0.0738  1.3321  0.6937
 2119SOL    HW3 8249   4.100   1.156   5.183  0.8207 -0.3626  1.0060
 2119SOL    MW4 8250   4.062   1.195   5.251 -0.0749  0.1440 -0.2955
 2120SOL     OW 8251   5.597   2.037   0.183 -0.5319 -0.3260 -0.1487
 2120SOL    HW2 8252   5.526   2.060   0.244 -0.7762  1.5682 -1.0847
 2120SOL    HW3 8253   5.566   2.067   0.098  0.5826 -1.2911 -0.9231
 2120SOL    MW4 8254   5.584   2.044   0.180  0.1025 -0.2930  0.5426
 2121SOL     OW 8255   3.189   1.545   2.158 -0.1356 -0.1046  0.0699
 2121SOL    HW2 8256   3.236   1.562   2.239  0.6366  0.2176 -0.4382
 2121SOL    HW3 8257   3.254   1.506   2.099 -0.2447  1.1468 -0.9324
 2121SOL    MW4 8258   3.204   1.542   2.161  0.1423 -0.6627 -0.0218
 2122SOL     OW 8259   4.549   0.410   1.366 -0.2412  0.1470  0.7110
 2122SOL    HW2 8260   4.637   0.431   1.336 -0.3653  0.2127  0.3952
 2122SOL    HW3 8261   4.558   0.326   1.412 -0.3521 -0.8849 -1.0382
 2122SOL    MW4 8262   4.562   0.401   1.368 -0.6013  0.0032 -0.8559
 2123SOL     OW 8263   1.711   4.296   0.507 -0.0715  0.2131  0.1497
 2123SOL    HW2 8264   1.651   4.285   0.433 -0.2135  1.4067  0.0684
 2123SOL    HW3 8265   1.659   4.337   0.575  0.2221 -0.3080  0.7002
 2123SOL    MW4 8266   1.697   4.300   0.506  0.5957 -0.2736  0.3033
 2124SOL     OW 8267   3.724   2.928   3.468  0.4930  0.5126 -0.2283
 2124SOL    HW2 8268   3.795   2.907   3.408  0.4660 -1.1288  0.2647
 2124SOL    HW3 8269   3.743   2.878   3.548 -0.3450  1.3389  0.5260
 2124SOL    MW4 8270   3.736   2.919   3.471  0.4271  0.2351  0.1019
 2125SOL     OW 8271   2.444   3.639   3.999  0.0168  0.1417 -0.2709
 2125SOL    HW2 8272   2.534   3.610   4.017 -0.4888 -1.8128 -0.6290
 2125SOL    HW3 8273   2.390   3.589   4.060 -0.7104  3.6719  2.3112
 2125SOL    MW4 8274   2.449   3.629   4.009  0.2662  0.0391  0.0492
 2126SOL     OW 8275   3.657   2.557   3.429 -0.5193 -0.0461 -0.3869
 2126SOL    HW2 8276   3.600   2.629   3.456  0.2996  0.9635 -1.2561
 2126SOL    HW3 8277   3.724   2.599   3.374 -0.1217 -1.4908 -1.0499
 2126SOL    MW4 8278   3.658   2.572   3.425  0.1043 -0.2854 -0.5352
 2127SOL     OW 8279   3.670   0.589   4.189 -0.1098  0.5701  0.0396
 2127SOL    HW2 8280   3.674   0.510   4.135 -2.4801  1.4852 -1.6218
 2127SOL    HW3 8281   3.577   0.607   4.199  0.1766  5.1555 -2.7846
 2127SOL    MW4 8282   3.659   0.581   4.183 -0.2668  0.1422 -0.2814
 2128SOL     OW 8283   6.371   2.264   6.195  0.1793 -0.1186  0.5783
 2128SOL    HW2 8284   6.345   2.337   6.251  1.4649  1.2178 -0.4984
 2128SOL    HW3 8285   6.358   2.187   6.250 -0.3164  0.9819  2.0874
 2128SOL    MW4 8286   6.366   2.263   6.210  0.2874  0.1521 -0.1148
 2129SOL     OW 8287   3.453   1.769   3.047  0.3246 -0.2152  0.0902
 2129SOL    HW2 8288   3.528   1.794   3.102  0.9372 -0.8519 -0.4379
 2129SOL    HW3 8289   3.410   1.698   3.095  1.1897 -1.1618 -0.4834
 2129SOL    MW4 8290   3.457   1.763   3.061  0.1984 -0.5440 -0.0339
 2130SOL     OW 8291   0.573   2.048   4.445  0.0131 -0.4302  0.7355
 2130SOL    HW2 8292   0.623   2.126   4.423 -1.4165  0.9519  2.0851
 2130SOL    HW3 8293   0.544   2.013   4.361  1.3170  0.0359  0.0731
 2130SOL    MW4 8294   0.576   2.054   4.431  0.5683 -0.1515 -0.0147
 2131SOL     OW 8295   1.104   3.377   2.101  0.1372 -0.2725 -0.3764
 2131SOL    HW2 8296   1.048   3.347   2.172  0.0323 -0.3861 -0.5071
 2131SOL    HW3 8297   1.153   3.451   2.138  2.4117 -2.2625  0.8148
 2131SOL    MW4 8298   1.103   3.383   2.115 -0.5489  0.0583  0.7093
 2132SOL     OW 8299   5.547   3.984   1.045 -0.0191  0.2606  0.0687
 2132SOL    HW2 8300   5.575   3.978   1.137  1.4043  0.3021 -0.3445
 2132SOL    HW3 8301   5.613   3.935   0.997 -1.0473 -0.2176 -0.8987
 2132SOL    MW4 8302   5.559   3.977   1.051 -0.1149 -0.1311  0.1140
 2133SOL     OW 8303   1.046   2.869   3.668  0.6471 -0.3831  0.3581
 2133SOL    HW2 8304   1.083   2.782   3.680  1.0649 -0.1934  0.4756
 2133SOL    HW3 8305   1.052   2.886   3.574 -1.0431 -1.1776  0.0758
 2133SOL    MW4 8306   1.052   2.860   3.657  0.0067 -0.1728  0.0486
 2134SOL     OW 8307   0.995   4.190   4.676 -0.0108  0.1710  0.1588
 2134SOL    HW2 8308   1.002   4.271   4.727  1.9858 -0.5036  1.0337
 2134SOL    HW3 8309   1.081   4.150   4.682 -1.4418 -3.0239  1.3496
 2134SOL    MW4 8310   1.007   4.196   4.684  0.1236 -0.6891  0.2917
 2135SOL     OW 8311   1.360   6.077   2.342 -0.0151  0.7117  0.3012
 2135SOL    HW2 8312   1.272   6.041   2.355  0.2544  0.1540  0.6170
 2135SOL    HW3 8313   1.376   6.130   2.420  0.5349 -0.4474  0.9956
 2135SOL    MW4 8314   1.350   6.079   2.354 -0.0524  0.1206 -0.0156
 2136SOL     OW 8315   0.747   2.964   3.951  0.2809 -0.4884  0.2366
 2136SOL    HW2 8316   0.785   3.017   3.881  0.5412 -1.3973 -0.3206
 2136SOL    HW3 8317   0.756   2.874   3.921  0.0848 -0.8731  1.2966
 2136SOL    MW4 8318   0.753   2.959   3.938  0.7747  0.1303 -0.7968
 2137SOL     OW 8319   4.960   0.767   5.943 -0.1978 -0.3978 -0.5802
 2137SOL    HW2 8320   5.046   0.765   5.984 -0.3815  0.8327 -0.0955
 2137SOL    HW3 8321   4.911   0.697   5.987 -0.1442  0.3789  0.7617
 2137SOL    MW4 8322   4.965   0.757   5.954  0.4304  0.1302  0.3939
 2138SOL     OW 8323   4.820   3.844   2.303 -0.1888 -0.6442 -0.2203
 2138SOL    HW2 8324   4.786   3.757   2.326 -0.4473 -0.8827 -1.4127
 2138SOL    HW3 8325   4.744   3.891   2.268 -0.6537  0.9884  2.6945
 2138SOL    MW4 8326   4.806   3.839   2.301  0.4692  0.7825  0.3896
 2139SOL     OW 8327   3.809   2.795   1.062  0.3257  0.7950 -0.0666
 2139SOL    HW2 8328   3.809   2.741   0.983  2.1359  1.6984 -0.7345
 2139SOL    HW3 8329   3.772   2.878   1.034  0.0846  0.8058  0.2812
 2139SOL    MW4 8330   3.804   2.799   1.048  0.2177  0.4340 -0.3482
 2140SOL     OW 8331   0.943   3.200   5.481 -0.4473  0.3532 -0.0522
 2140SOL    HW2 8332   0.930   3.283   5.527  0.5291  1.2445 -1.3182
 2140SOL    HW3 8333   0.926   3.221   5.389  0.1605 -0.7705 -0.4352
 2140SOL    MW4 8334   0.939   3.214   5.475  0.3807 -0.0083 -0.7298
 2141SOL     OW 8335   0.432   0.062   0.306 -0.0382 -0.5171  0.6314
 2141SOL    HW2 8336   0.454   0.071   0.213 -0.1741 -1.5928  0.4789
 2141SOL    HW3 8337   0.496   0.117   0.351  0.6117 -0.6956 -0.0477
 2141SOL    MW4 8338   0.443   0.070   0.300  0.1854 -0.5827 -0.5577
 2142SOL     OW 8339   2.377   0.469   4.778  0.5272 -0.1029 -0.7749
 2142SOL    HW2 8340   2.306   0.514   4.731 -0.7911 -0.7694  0.5192
 2142SOL    HW3 8341   2.406   0.532   4.843 -0.0208 -0.4095 -0.2213
 2142SOL    MW4 8342   2.371   0.483   4.780  0.4018  0.0323  0.7120
 2143SOL     OW 8343   4.235   3.163   5.396 -0.4278  0.1533 -0.1763
 2143SOL    HW2 8344   4.156   3.208   5.425 -0.0089  1.0243 -0.3337
 2143SOL    HW3 8345   4.260   3.108   5.470 -0.5428  0.7626  0.3272
 2143SOL    MW4 8346   4.228   3.162   5.410  0.8263  0.1105  0.1952
 2144SOL     OW 8347   5.188   1.410   2.732 -0.0109 -0.3305 -0.3526
 2144SOL    HW2 8348   5.275   1.387   2.698  0.6244  2.1835 -0.6745
 2144SOL    HW3 8349   5.207   1.462   2.811 -1.3605 -2.3752  1.4310
 2144SOL    MW4 8350   5.202   1.414   2.738  0.6853 -0.3063  0.2990
 2145SOL     OW 8351   3.925   0.609   3.191 -0.0414  0.0450  0.1843
 2145SOL    HW2 8352   3.958   0.521   3.175 -0.0708 -0.2133  1.4118
 2145SOL    HW3 8353   3.900   0.642   3.105  0.1479 -1.0709 -0.3144
 2145SOL    MW4 8354   3.926   0.602   3.178 -0.6243 -0.4208  0.0587
 2146SOL     OW 8355   1.434   2.095   3.065  0.5693  0.2423 -1.0293
 2146SOL    HW2 8356   1.436   2.190   3.061 -0.8355  0.3509  0.2104
 2146SOL    HW3 8357   1.395   2.068   2.981  1.3860  0.7121 -1.5724
 2146SOL    MW4 8358   1.429   2.104   3.053  0.1357 -0.2451 -0.3107
 2147SOL     OW 8359   3.172   6.099   0.042 -0.7935  0.2995 -0.2285
 2147SOL    HW2 8360   3.088   6.116  -0.001 -0.2795  0.9640 -1.0110
 2147SOL    HW3 8361   3.184   6.173   0.101 -0.7257  0.2537 -0.1856
 2147SOL    MW4 8362   3.163   6.111   0.044  0.4735 -0.3344 -0.0927
 2148SOL     OW 8363   1.146   1.159   4.119  0.7374 -0.1331  0.2102
 2148SOL    HW2 8364   1.076   1.224   4.127 -1.0394 -1.9916  0.6775
 2148SOL    HW3 8365   1.146   1.136   4.026  0.7622 -0.0794  0.1969
 2148SOL    MW4 8366   1.136   1.165   4.108  0.0627 -0.5623 -0.1384
 2149SOL     OW 8367   2.441   0.046   0.186  0.5019 -0.7793 -0.0775
 2149SOL    HW2 8368   2.486   0.086   0.260 -1.4117 -0.1930  0.8534
 2149SOL    HW3 8369   2.491  -0.033   0.166  0.8885 -1.1309  2.0884
 2149SOL    MW4 8370   2.453   0.041   0.193 -0.2707  0.4344  0.0404
 2150SOL     OW 8371   6.270   4.410   3.200 -0.4770 -0.0345  0.4942
 2150SOL    HW2 8372   6.264   4.340   3.264 -2.4231 -0.2146  0.1935
 2150SOL    HW3 8373   6.180   4.419   3.166  0.0677  1.4580 -0.6818
 2150SOL    MW4 8374   6.257   4.402   3.204 -0.5956  0.2257 -0.5755
 2151SOL     OW 8375   0.765   1.339   1.283 -0.0250  0.0097  0.1496
 2151SOL    HW2 8376   0.847   1.304   1.320 -1.0051 -0.8342  1.6255
 2151SOL    HW3 8377   0.776   1.434   1.287  0.8184 -0.0876  0.4972
 2151SOL    MW4 8378   0.778   1.347   1.288  0.1546 -0.2570  0.2147
 2152SOL     OW 8379   3.334   1.499   3.575  0.3705  0.3270  0.1414
 2152SOL    HW2 8380   3.282   1.559   3.523  2.7933  3.4523  1.0185
 2152SOL    HW3 8381   3.424   1.512   3.545  1.8614  1.9390  4.4451
 2152SOL    MW4 8382   3.339   1.508   3.564  0.2347  0.4035 -0.4252
 2153SOL     OW 8383   5.537   1.214   0.870  0.2259 -0.6561  0.3549
 2153SOL    HW2 8384   5.566   1.128   0.841  2.3684 -0.1015  0.6965
 2153SOL    HW3 8385   5.589   1.232   0.948 -2.7508 -0.5341  2.5049
 2153SOL    MW4 8386   5.548   1.205   0.876  0.2531 -0.0515 -0.3997
 2154SOL     OW 8387   3.959   0.115   0.702  0.1949 -0.1936  0.2563
 2154SOL    HW2 8388   3.892   0.178   0.675  1.7295  0.7734 -1.5214
 2154SOL    HW3 8389   3.975   0.135   0.794  0.4177  1.8682 -0.1704
 2154SOL    MW4 8390   3.952   0.126   0.710  0.1755  0.0007 -0.4994
 2155SOL     OW 8391   0.129   3.542   0.061  0.0598 -0.1590  0.1419
 2155SOL    HW2 8392   0.173   3.604   0.120 -0.0041 -0.4769  0.5307
 2155SOL    HW3 8393   0.171   3.458   0.080  0.3200 -0.1903 -0.5610
 2155SOL    MW4 8394   0.141   3.539   0.071 -0.5197 -0.1921  0.3344
 2156SOL     OW 8395   2.251   3.583   2.905  0.1796 -0.1235  0.1817
 2156SOL    HW2 8396   2.179   3.611   2.961  1.8853  0.9110  1.9883
 2156SOL    HW3 8397   2.209   3.534   2.834 -2.2542  0.3491  1.2037
 2156SOL    MW4 8398   2.236   3.580   2.903  0.1466  0.1205 -0.0882
 2157SOL     OW 8399   2.855   3.808   5.765 -0.6656 -0.5858 -0.3158
 2157SOL    HW2 8400   2.917   3.796   5.693  1.6516  3.3418  0.7242
 2157SOL    HW3 8401   2.774   3.836   5.722 -0.0534 -0.5425 -1.4995
 2157SOL    MW4 8402   2.852   3.810   5.750  0.1091  0.0376  0.7842
 2158SOL     OW 8403   3.733   6.299   6.085  0.4437 -0.2336 -0.0975
 2158SOL    HW2 8404   3.788   6.232   6.125  0.2437 -0.7007 -0.5976
 2158SOL    HW3 8405   3.645   6.264   6.091 -0.0329  1.1473  2.0291
 2158SOL    MW4 8406   3.729   6.285   6.091 -0.3633 -0.1821 -0.2605
 2159SOL     OW 8407   2.666   3.340   2.165 -0.1577  0.2099 -0.6170
 2159SOL    HW2 8408   2.594   3.312   2.109  0.4925 -2.4800 -0.2512
 2159SOL    HW3 8409   2.631   3.336   2.253 -0.1205  0.8737 -0.5656
 2159SOL    MW4 8410   2.652   3.336   2.169 -0.2446 -0.2326  0.5247
 2160SOL     OW 8411   3.189   0.290   6.076 -0.4019  0.3827  0.7620
 2160SOL    HW2 8412   3.255   0.359   6.077 -1.6159  1.6056 -0.0909
 2160SOL    HW3 8413   3.239   0.209   6.063  0.8358  1.3881 -1.2168
 2160SOL    MW4 8414   3.204   0.288   6.075 -0.2193 -0.0215 -0.3647
 2161SOL     OW 8415   4.100   2.627   5.396  0.3159  0.0736  0.0246
 2161SOL    HW2 8416   4.159   2.616   5.321  0.9589 -0.0263  0.5341
 2161SOL    HW3 8417   4.115   2.549   5.450 -0.6439 -0.1898 -0.0770
 2161SOL    MW4 8418   4.110   2.615   5.393 -0.0024 -0.8872 -0.6882
 2162SOL     OW 8419   4.029   0.858   0.381  0.1031 -0.4263 -0.3022
 2162SOL    HW2 8420   3.969   0.928   0.408  0.2365  0.3517 -1.9100
 2162SOL    HW3 8421   4.114   0.884   0.417 -0.1411 -0.5269  0.3516
 2162SOL    MW4 8422   4.032   0.871   0.389  0.1059 -0.1686  0.1411
 2163SOL     OW 8423   4.271   5.794   3.994  0.6514 -0.4609  0.0775
 2163SOL    HW2 8424   4.187   5.813   4.037  0.5810 -2.3581  0.9211
 2163SOL    HW3 8425   4.328   5.866   4.019 -0.4372  0.3147  0.3908
 2163SOL    MW4 8426   4.267   5.806   4.003  0.4057 -0.3152 -0.0628
 2164SOL     OW 8427   3.696   0.265   3.267 -0.1177 -1.4458  0.0100
 2164SOL    HW2 8428   3.694   0.360   3.276  0.9295 -1.3844 -0.2714
 2164SOL    HW3 8429   3.702   0.250   3.172  0.3999 -1.7724  0.0934
 2164SOL    MW4 8430   3.696   0.276   3.255 -0.5969  0.0143 -0.3115
 2165SOL     OW 8431   4.226   4.472   0.066  0.1106  0.4889 -0.1038
 2165SOL    HW2 8432   4.278   4.413   0.121  0.4239 -0.2747 -1.1869
 2165SOL    HW3 8433   4.146   4.423   0.047 -0.2203  0.9497  0.0831
 2165SOL    MW4 8434   4.222   4.458   0.071 -0.3422 -0.5901 -0.5794
 2166SOL     OW 8435   3.011   5.328   4.647  0.0342 -0.0311  0.4058
 2166SOL    HW2 8436   3.003   5.233   4.640  1.6884 -0.1595 -0.2781
 2166SOL    HW3 8437   2.954   5.363   4.579 -0.5255 -0.5371  0.6131
 2166SOL    MW4 8438   3.003   5.321   4.637  0.2587 -0.4023 -0.0790
 2167SOL     OW 8439   5.252   6.165   5.929  0.1532  0.3766  0.0672
 2167SOL    HW2 8440   5.347   6.175   5.933  0.2290  0.5411 -1.4309
 2167SOL    HW3 8441   5.232   6.098   5.994  1.1915  0.9425  0.9878
 2167SOL    MW4 8442   5.262   6.157   5.938  0.1411  0.5956 -0.4303
 2168SOL     OW 8443   4.904   3.584   0.671 -0.1462  0.2182 -0.4610
 2168SOL    HW2 8444   4.811   3.594   0.652 -0.9283 -1.2196  2.1724
 2168SOL    HW3 8445   4.931   3.670   0.704 -0.5127  0.6408 -1.2335
 2168SOL    MW4 8446   4.896   3.597   0.673 -0.0363 -0.6537 -0.1559
 2169SOL     OW 8447   6.029   3.842   6.168  0.6171 -0.2958 -0.1109
 2169SOL    HW2 8448   5.975   3.828   6.091 -0.8516  0.5064  0.7046
 2169SOL    HW3 8449   6.008   3.932   6.195  1.3609 -0.4358  0.9931
 2169SOL    MW4 8450   6.019   3.852   6.162 -0.5189  0.4575 -0.2198
 2170SOL     OW 8451   1.034   1.038   1.851 -0.1656 -0.3880  0.0182
 2170SOL    HW2 8452   1.036   0.987   1.770  0.3220  1.4249 -1.1784
 2170SOL    HW3 8453   1.016   0.974   1.920  0.8154 -2.2167 -1.3465
 2170SOL    MW4 8454   1.032   1.023   1.850 -0.0227  0.1517 -0.1184
 2171SOL     OW 8455   2.902   3.508   2.778  0.1812 -0.1113  0.3558
 2171SOL    HW2 8456   2.880   3.481   2.688 -0.7540 -0.7051  0.7514
 2171SOL    HW3 8457   2.955   3.587   2.766 -1.5238  0.9531 -0.7051
 2171SOL    MW4 8458   2.906   3.515   2.764 -0.3020 -0.1090 -0.0318
 2172SOL     OW 8459   3.180   2.926   2.324  0.1622  0.3849  0.1938
 2172SOL    HW2 8460   3.097   2.964   2.297 -1.7641 -2.6864  1.3783
 2172SOL    HW3 8461   3.236   2.934   2.247 -2.0112  0.3416 -1.4874
 2172SOL    MW4 8462   3.177   2.932   2.311 -0.1923 -0.0851  0.4875
 2173SOL     OW 8463   3.047   4.858   2.524 -0.1632  0.1545 -0.3621
 2173SOL    HW2 8464   2.976   4.878   2.584 -2.1163  0.6633 -2.7117
 2173SOL    HW3 8465   3.011   4.874   2.437  2.4758 -0.6936 -1.7251
 2173SOL    MW4 8466   3.033   4.862   2.521 -0.0228 -0.2045  0.0152
 2174SOL     OW 8467   2.772   5.311   4.127 -0.2443  0.1427 -0.6649
 2174SOL    HW2 8468   2.746   5.224   4.097  0.4241 -0.1866 -0.3202
 2174SOL    HW3 8469   2.868   5.310   4.122 -0.2633  1.0979 -1.2985
 2174SOL    MW4 8470   2.781   5.299   4.123  1.1623 -0.1805 -0.4400
 2175SOL     OW 8471   1.591   2.493   4.101  0.1040  0.6912  0.7673
 2175SOL    HW2 8472   1.648   2.557   4.144  2.2595  0.5045 -1.5869
 2175SOL    HW3 8473   1.558   2.539   4.024  0.1973 -0.4453  0.0329
 2175SOL    MW4 8474   1.594   2.508   4.096  0.4867  0.4917  0.0643
 2176SOL     OW 8475   4.438   1.278   2.845  0.0207 -0.4370  0.4734
 2176SOL    HW2 8476   4.343   1.283   2.837 -0.2738 -1.4051  2.7006
 2176SOL    HW3 8477   4.456   1.306   2.935  1.9336  0.5283 -0.1581
 2176SOL    MW4 8478   4.428   1.283   2.856 -0.2202 -0.0096 -0.1849
 2177SOL     OW 8479   1.905   1.910   3.967  0.3014 -0.2791  0.1663
 2177SOL    HW2 8480   1.998   1.899   3.986 -0.0927 -1.8622  1.5065
 2177SOL    HW3 8481   1.861   1.852   4.030 -1.5715  0.1542 -0.6647
 2177SOL    MW4 8482   1.912   1.901   3.978  0.2009 -0.2178 -0.2861
 2178SOL     OW 8483   3.192   5.150   2.321 -0.4789  0.0508  0.7492
 2178SOL    HW2 8484   3.270   5.182   2.274 -1.5403  2.0197  0.2179
 2178SOL    HW3 8485   3.227   5.111   2.402  1.1122  0.0576  0.0969
 2178SOL    MW4 8486   3.207   5.149   2.326 -0.5381  0.7412 -0.4110
 2179SOL     OW 8487   5.275   0.138   4.076  0.7380 -0.1777 -0.6162
 2179SOL    HW2 8488   5.366   0.162   4.058  0.7339 -0.2256 -0.7034
 2179SOL    HW3 8489   5.228   0.221   4.080  0.9057 -0.1055  0.1136
 2179SOL    MW4 8490   5.281   0.152   4.074  0.1466 -0.6045  0.2407
 2180SOL     OW 8491   1.043   0.762   1.977 -0.7523 -0.1762 -0.1557
 2180SOL    HW2 8492   0.984   0.725   2.043  0.7005 -1.7597  0.3418
 2180SOL    HW3 8493   1.038   0.702   1.903 -0.4369  0.1591 -0.4528
 2180SOL    MW4 8494   1.035   0.749   1.976 -0.3357 -0.0248  0.3410
 2181SOL     OW 8495   6.214   2.982   3.985 -0.1472  0.2366 -0.7036
 2181SOL    HW2 8496   6.295   2.934   4.002 -0.3340  0.2081  0.1356
 2181SOL    HW3 8497   6.222   3.011   3.894 -0.4850 -2.2961 -1.6272
 2181SOL    MW4 8498   6.226   2.979   3.975  0.0053 -0.1923  0.2435
 2182SOL     OW 8499   2.916   0.439   5.121 -0.2930  0.3260 -0.0458
 2182SOL    HW2 8500   2.855   0.371   5.094 -1.7726  1.8180 -0.6251
 2182SOL    HW3 8501   2.946   0.479   5.040 -0.1289  0.9349  0.3040
 2182SOL    MW4 8502   2.912   0.435   5.107  0.5030  0.4068  0.4746
 2183SOL     OW 8503   6.373   1.909   4.316 -0.2146  0.0278  0.4597
 2183SOL    HW2 8504   6.360   1.841   4.382  1.2967  0.5902  1.3880
 2183SOL    HW3 8505   6.335   1.988   4.354 -0.7765  0.0112 -0.0482
 2183SOL    MW4 8506   6.366   1.911   4.329 -0.6851 -0.2061  0.4526
 2184SOL     OW 8507   5.763   1.470   0.035 -0.0416  0.8896  0.2172
 2184SOL    HW2 8508   5.720   1.516  -0.037 -4.0144 -1.9204  0.4770
 2184SOL    HW3 8509   5.817   1.404  -0.008 -1.0497  0.3336 -0.2285
 2184SOL    MW4 8510   5.765   1.468   0.020  0.0243  0.0130  0.2008
 2185SOL     OW 8511   6.088  -0.005   4.946  0.6195 -0.1279  0.2635
 2185SOL    HW2 8512   6.149   0.055   4.989  1.7006 -1.0812  0.0975
 2185SOL    HW3 8513   6.071  -0.072   5.012  1.4681 -1.0324 -0.4179
 2185SOL    MW4 8514   6.094  -0.006   4.960  0.2784  0.1361  0.4192
 2186SOL     OW 8515   4.293   6.174   0.375  0.0691  0.0509  0.3179
 2186SOL    HW2 8516   4.223   6.123   0.415 -0.9381  1.3512  0.2780
 2186SOL    HW3 8517   4.272   6.176   0.282  1.2277 -1.1438 -0.0018
 2186SOL    MW4 8518   4.281   6.168   0.368  0.1890 -0.3155  0.0599
 2187SOL     OW 8519   4.851   1.445   2.458 -0.2629  0.1747  0.3207
 2187SOL    HW2 8520   4.770   1.495   2.466 -0.2857  0.2436 -0.2574
 2187SOL    HW3 8521   4.822   1.353   2.460 -0.1452  0.1524  2.1342
 2187SOL    MW4 8522   4.836   1.439   2.459 -0.3523  0.0727 -0.0424
 2188SOL     OW 8523   0.114   2.495   0.899  0.7416  0.2381  0.2612
 2188SOL    HW2 8524   0.054   2.442   0.951 -0.1215  0.2219 -0.7290
 2188SOL    HW3 8525   0.201   2.472   0.933  0.2409 -0.0745  1.4064
 2188SOL    MW4 8526   0.117   2.485   0.911 -0.4492  0.3577 -0.5199
 2189SOL     OW 8527   5.338   3.294   0.577 -0.3271  0.7142  0.3890
 2189SOL    HW2 8528   5.300   3.373   0.538 -1.0267  0.8689  1.3566
 2189SOL    HW3 8529   5.322   3.304   0.671  0.5887 -0.0470  0.6353
 2189SOL    MW4 8530   5.331   3.306   0.584 -0.1062  0.1786  0.0973
 2190SOL     OW 8531   5.463   0.270   0.052 -0.5270  0.0396 -0.3420
 2190SOL    HW2 8532   5.518   0.344   0.025 -0.1692  0.4961  1.4660
 2190SOL    HW3 8533   5.400   0.308   0.114  0.4486 -1.3077  1.5973
 2190SOL    MW4 8534   5.462   0.285   0.057  0.1440 -0.0973 -0.2774
 2191SOL     OW 8535   2.644   0.378   2.444  0.1707  0.6138 -0.8249
 2191SOL    HW2 8536   2.683   0.291   2.440 -0.4324  0.3571 -1.4341
 2191SOL    HW3 8537   2.716   0.436   2.468  0.5860 -0.0465 -0.4376
 2191SOL    MW4 8538   2.658   0.374   2.446 -0.0256 -0.1023 -0.1731
 2192SOL     OW 8539   5.707   5.509   5.760 -0.4081  0.0797 -0.0350
 2192SOL    HW2 8540   5.699   5.507   5.856  0.5477 -1.4140  0.0513
 2192SOL    HW3 8541   5.665   5.591   5.734  1.8328  2.0224  1.9155
 2192SOL    MW4 8542   5.701   5.520   5.770 -0.5874  0.1810 -0.0183
 2193SOL     OW 8543   5.992   1.630   2.241 -0.0003  0.1995  0.2323
 2193SOL    HW2 8544   6.055   1.623   2.313  0.9869  1.3190 -0.4768
 2193SOL    HW3 8545   5.939   1.707   2.262 -1.1177 -0.6916  0.7867
 2193SOL    MW4 8546   5.993   1.640   2.253 -0.0914  0.2573  0.1188
 2194SOL     OW 8547   5.103   3.086   4.748  0.2452 -0.7564 -0.3891
 2194SOL    HW2 8548   5.142   3.029   4.815 -0.4424 -1.1357 -0.3105
 2194SOL    HW3 8549   5.009   3.078   4.761  0.1209 -0.3065 -0.9743
 2194SOL    MW4 8550   5.096   3.078   4.759 -0.2898  0.2637 -0.4371
 2195SOL     OW 8551   5.877   3.403   2.927 -0.4948  0.2878 -0.2024
 2195SOL    HW2 8552   5.945   3.373   2.867 -1.2464 -2.2711  0.0875
 2195SOL    HW3 8553   5.918   3.473   2.978  1.0617  0.5433 -1.7244
 2195SOL    MW4 8554   5.891   3.408   2.926 -0.3202 -0.3306  0.6086
 2196SOL     OW 8555   0.817   1.795   4.156 -0.3399  0.5222 -0.1770
 2196SOL    HW2 8556   0.873   1.781   4.079 -0.5003  0.4331 -0.2782
 2196SOL    HW3 8557   0.739   1.742   4.139  0.0651 -0.3212  0.5242
 2196SOL    MW4 8558   0.814   1.786   4.143 -0.2244 -0.1035  0.2021
 2197SOL     OW 8559   3.453   6.347   0.038  0.4168  0.0149 -0.3059
 2197SOL    HW2 8560   3.486   6.437   0.032 -1.1531  0.5296 -2.2791
 2197SOL    HW3 8561   3.531   6.293   0.028  1.2692  1.1493 -0.0942
 2197SOL    MW4 8562   3.468   6.352   0.036  0.0665  0.1161  0.8147
 2198SOL     OW 8563   4.136   1.903   2.247  0.0084 -0.2096  0.3198
 2198SOL    HW2 8564   4.069   1.969   2.228  1.7010  0.9727 -2.0898
 2198SOL    HW3 8565   4.094   1.820   2.227 -0.7689  0.5081 -1.2203
 2198SOL    MW4 8566   4.121   1.901   2.241 -0.2396 -0.5898 -0.0311
 2199SOL     OW 8567   2.191   2.088   5.897 -0.8397  0.0582  0.2999
 2199SOL    HW2 8568   2.145   2.169   5.921  0.3193  0.4348  1.4058
 2199SOL    HW3 8569   2.214   2.048   5.981 -0.7309 -1.0414 -0.2348
 2199SOL    MW4 8570   2.188   2.094   5.912 -0.8730 -0.0912  0.2275
 2200SOL     OW 8571   6.221   3.198   5.865 -0.0919 -0.3982  0.0575
 2200SOL    HW2 8572   6.249   3.123   5.811 -0.0997 -0.6845  0.4469
 2200SOL    HW3 8573   6.204   3.268   5.802 -1.1178 -1.0391 -0.4049
 2200SOL    MW4 8574   6.223   3.197   5.849  0.1023  0.3367  0.0306
 2201SOL     OW 8575   1.260   4.693   3.825 -0.2446  0.0220 -0.6537
 2201SOL    HW2 8576   1.176   4.652   3.803 -0.1329 -0.7419  0.2506
 2201SOL    HW3 8577   1.311   4.621   3.862  0.4077  0.7320 -0.1712
 2201SOL    MW4 8578   1.255   4.678   3.827  0.3541  0.5975  0.4009
 2202SOL     OW 8579   3.455   3.052   1.157 -0.4473 -0.6787 -0.1989
 2202SOL    HW2 8580   3.483   3.082   1.244 -0.2268 -1.1830 -0.0914
 2202SOL    HW3 8581   3.408   2.970   1.173 -0.5520 -0.6891 -0.5402
 2202SOL    MW4 8582   3.453   3.045   1.171  0.3022 -0.0474 -0.4188
 2203SOL     OW 8583   2.242   3.400   5.236 -0.0203 -0.0209 -0.0049
 2203SOL    HW2 8584   2.324   3.433   5.200 -1.1261  2.6916 -0.2473
 2203SOL    HW3 8585   2.204   3.347   5.166  1.2150 -0.8197 -0.0969
 2203SOL    MW4 8586   2.248   3.397   5.222  0.6390 -0.0435  0.6406
 2204SOL     OW 8587   1.372   6.338   5.458 -0.1107  0.1885  0.2439
 2204SOL    HW2 8588   1.351   6.417   5.409 -1.6398 -0.1551  0.3163
 2204SOL    HW3 8589   1.443   6.297   5.409 -0.2209  0.9111 -0.5310
 2204SOL    MW4 8590   1.379   6.343   5.445  0.2842 -0.2670  0.1543
 2205SOL     OW 8591   4.991   0.676   4.805 -0.6005 -0.1009  0.0244
 2205SOL    HW2 8592   4.938   0.671   4.725  0.0993 -0.4000 -0.4320
 2205SOL    HW3 8593   5.013   0.585   4.825 -0.8847 -0.0374  0.6412
 2205SOL    MW4 8594   4.987   0.663   4.797 -0.6705  0.1906 -0.2922
 2206SOL     OW 8595   3.785   6.241   3.543 -0.5722  0.3343  0.2746
 2206SOL    HW2 8596   3.777   6.307   3.474 -0.0938  0.9887  0.8353
 2206SOL    HW3 8597   3.699   6.199   3.546 -1.2852  1.7821  0.7565
 2206SOL    MW4 8598   3.773   6.244   3.534 -0.1316  0.2482  0.6434
 2207SOL     OW 8599   3.734   2.437   0.795 -0.0879 -0.3217  0.3711
 2207SOL    HW2 8600   3.773   2.523   0.778 -0.0475 -0.2760  0.6991
 2207SOL    HW3 8601   3.799   2.391   0.848  0.1582 -0.7751 -0.3048
 2207SOL    MW4 8602   3.748   2.442   0.800 -0.7113 -0.4793 -0.0506
 2208SOL     OW 8603   5.906   1.066   5.767 -0.9095  0.3249 -0.0861
 2208SOL    HW2 8604   5.912   0.979   5.728  2.6851  0.0613  0.7470
 2208SOL    HW3 8605   5.909   1.125   5.692 -1.0268 -0.2238 -0.5353
 2208SOL    MW4 8606   5.907   1.062   5.752  0.0810 -0.1855  0.1454
 2209SOL     OW 8607   1.844   5.811   4.192  0.3000  0.8166  0.3059
 2209SOL    HW2 8608   1.862   5.718   4.198 -1.0279  0.5048 -0.1167
 2209SOL    HW3 8609   1.830   5.839   4.282 -0.6328  0.2961  0.3403
 2209SOL    MW4 8610   1.845   5.803   4.204  0.3098  0.8022  0.0815
 2210SOL     OW 8611   5.552   5.498   6.020  0.4981 -0.3714  0.2105
 2210SOL    HW2 8612   5.474   5.452   5.990  0.2680  0.1666 -0.0311
 2210SOL    HW3 8613   5.586   5.444   6.092 -1.4712  0.6086  1.9707
 2210SOL    MW4 8614   5.547   5.485   6.026  0.4276 -0.1097  0.8782
 2211SOL     OW 8615   3.540   2.241   0.918  0.0155 -0.2049 -0.0835
 2211SOL    HW2 8616   3.578   2.318   0.875  1.3701 -1.8043 -1.9324
 2211SOL    HW3 8617   3.456   2.229   0.875 -1.1477  1.3143  1.6014
 2211SOL    MW4 8618   3.534   2.249   0.907 -0.3440  0.3311  0.8408
 2212SOL     OW 8619   4.949   5.841   5.474 -0.5490  0.3673 -0.4523
 2212SOL    HW2 8620   4.969   5.757   5.516 -0.9953  0.8146  0.6943
 2212SOL    HW3 8621   5.022   5.898   5.499 -2.3327  1.5697  2.4945
 2212SOL    MW4 8622   4.961   5.838   5.483  0.4147 -0.0177 -0.8005
 2213SOL     OW 8623   0.559   3.152   1.464 -0.2130  0.1556 -0.0416
 2213SOL    HW2 8624   0.610   3.218   1.511  0.1379  0.3895 -0.7467
 2213SOL    HW3 8625   0.482   3.200   1.433 -0.6474 -0.0912  0.6234
 2213SOL    MW4 8626   0.555   3.167   1.466 -0.4322 -0.7256  0.0168
 2214SOL     OW 8627   0.231   1.910   4.324 -0.1044 -0.6924 -0.4753
 2214SOL    HW2 8628   0.246   1.833   4.379  0.9177 -0.6489 -0.6681
 2214SOL    HW3 8629   0.136   1.921   4.323 -0.1422  0.0005  2.2413
 2214SOL    MW4 8630   0.220   1.901   4.331 -0.2257 -0.4363  0.0692
 2215SOL     OW 8631   5.449   3.133   4.546 -0.1328  0.4837 -0.1600
 2215SOL    HW2 8632   5.496   3.146   4.464 -0.6392 -1.1485 -0.7501
 2215SOL    HW3 8633   5.377   3.074   4.523 -0.8517  0.7593  1.2684
 2215SOL    MW4 8634   5.445   3.127   4.532  0.2416  0.6501  0.1915
 2216SOL     OW 8635   6.016   5.857   2.684 -0.0759 -0.8752  0.3080
 2216SOL    HW2 8636   5.962   5.831   2.759  1.4996  0.5957  2.0732
 2216SOL    HW3 8637   5.995   5.950   2.671  1.6584 -0.3836  0.7723
 2216SOL    MW4 8638   6.006   5.866   2.692  0.0834 -0.1537 -0.5780
 2217SOL     OW 8639   2.575   0.392   3.436 -0.3168  0.0946 -0.0348
 2217SOL    HW2 8640   2.484   0.396   3.406 -0.7008  1.4364  1.1807
 2217SOL    HW3 8641   2.610   0.479   3.419  0.4624 -0.1346  0.3463
 2217SOL    MW4 8642   2.568   0.404   3.430 -0.2064  0.8113  0.0424
 2218SOL     OW 8643   4.705   2.729   3.248 -0.3561  0.1625  0.2199
 2218SOL    HW2 8644   4.751   2.770   3.175  0.6032  1.4349  1.4778
 2218SOL    HW3 8645   4.621   2.773   3.252 -0.5932 -0.2276 -0.3804
 2218SOL    MW4 8646   4.700   2.740   3.239 -0.4531  0.0179  0.1034
 2219SOL     OW 8647   3.582   3.871   5.584  0.4843  0.0773 -0.5596
 2219SOL    HW2 8648   3.563   3.807   5.516  0.0707  0.8318 -1.1632
 2219SOL    HW3 8649   3.585   3.955   5.538  1.1007  0.4842  0.2067
 2219SOL    MW4 8650   3.580   3.874   5.569  0.1700 -1.1519  0.4173
 2220SOL     OW 8651   3.713   5.590   4.166  0.0434 -0.0276 -0.4181
 2220SOL    HW2 8652   3.691   5.643   4.089 -0.5358  0.9823  0.4026
 2220SOL    HW3 8653   3.788   5.635   4.206  0.5747 -0.7534 -0.5894
 2220SOL    MW4 8654   3.720   5.603   4.161  0.4092  0.8248  0.1695
 2221SOL     OW 8655   2.075   2.720   0.276 -0.1304 -0.3562  0.3266
 2221SOL    HW2 8656   2.104   2.628   0.273  0.1590 -0.3084  1.4312
 2221SOL    HW3 8657   2.061   2.738   0.369 -1.8343  0.2166 -0.0101
 2221SOL    MW4 8658   2.077   2.710   0.288 -0.1808 -0.5952 -0.0785
 2222SOL     OW 8659   0.755   1.467   3.100  0.3279  0.6906 -0.7498
 2222SOL    HW2 8660   0.788   1.450   3.189 -0.4235  2.0142 -0.1729
 2222SOL    HW3 8661   0.679   1.411   3.092  0.1379  0.8856 -0.3718
 2222SOL    MW4 8662   0.750   1.458   3.111 -0.6843  0.4457 -0.3189
 2223SOL     OW 8663   1.787   0.135   5.191 -0.4905  0.2573 -0.2471
 2223SOL    HW2 8664   1.857   0.173   5.243 -0.6876  1.0311 -0.5220
 2223SOL    HW3 8665   1.707   0.169   5.231 -0.6822 -0.0218 -0.3891
 2223SOL    MW4 8666   1.785   0.145   5.203  0.3724 -0.0513  0.2254
 2224SOL     OW 8667   0.738   4.641   4.678 -0.3672 -0.4943  0.3324
 2224SOL    HW2 8668   0.714   4.602   4.594 -0.0896 -3.1974  1.4018
 2224SOL    HW3 8669   0.658   4.683   4.710 -0.9054 -0.8396 -0.5501
 2224SOL    MW4 8670   0.724   4.641   4.671  0.4731  0.0312 -0.4900
 2225SOL     OW 8671   3.829   1.039   1.259  0.3388  0.1590 -0.1842
 2225SOL    HW2 8672   3.850   1.095   1.185  0.8852  0.0230 -0.1357
 2225SOL    HW3 8673   3.913   1.024   1.303 -0.0601  0.7622  0.8331
 2225SOL    MW4 8674   3.842   1.045   1.255 -0.7691 -0.1632  0.5827
 2226SOL     OW 8675   2.445   0.300   1.606  0.6706 -0.8717 -0.4118
 2226SOL    HW2 8676   2.511   0.264   1.666  1.0192 -0.8177 -0.7601
 2226SOL    HW3 8677   2.493   0.365   1.555  0.5709 -1.4724 -1.2936
 2226SOL    MW4 8678   2.460   0.304   1.607  0.0195  0.2372 -0.0004
 2227SOL     OW 8679   5.747   5.937   1.305  0.0111  0.3454 -0.5010
 2227SOL    HW2 8680   5.746   5.868   1.238  0.2227 -1.0541  0.8681
 2227SOL    HW3 8681   5.700   6.010   1.265 -1.9745 -1.2685 -1.3557
 2227SOL    MW4 8682   5.740   5.937   1.291  0.3155 -0.2028 -0.6164
 2228SOL     OW 8683   4.898   3.011   4.106  0.3393  0.1170  0.5660
 2228SOL    HW2 8684   4.961   2.939   4.093 -1.6507 -1.5257 -0.6031
 2228SOL    HW3 8685   4.813   2.967   4.115 -0.8358  2.3020  0.8160
 2228SOL    MW4 8686   4.895   2.995   4.106 -0.5585  0.0734  0.1544
 2229SOL     OW 8687   3.569   1.032   2.212  0.5465 -0.0786  0.2378
 2229SOL    HW2 8688   3.526   0.963   2.263  0.0477 -0.1065 -0.2125
 2229SOL    HW3 8689   3.523   1.112   2.238  0.3750 -0.0755 -0.0650
 2229SOL    MW4 8690   3.557   1.033   2.222  0.0716  0.4064 -0.0371
 2230SOL     OW 8691   4.430   5.224   0.951 -0.0583  0.2260  0.1179
 2230SOL    HW2 8692   4.426   5.315   0.978  0.9209  0.0100  1.0207
 2230SOL    HW3 8693   4.487   5.224   0.874 -1.0703  0.5339 -0.6505
 2230SOL    MW4 8694   4.437   5.236   0.944 -0.4747 -0.0330 -0.7460
 2231SOL     OW 8695   2.926   4.837   0.236  0.2384  0.1277  0.1255
 2231SOL    HW2 8696   2.857   4.857   0.300  0.2562 -0.9210  0.4910
 2231SOL    HW3 8697   2.880   4.833   0.152  0.1307  1.0107  0.1287
 2231SOL    MW4 8698   2.911   4.839   0.233  0.0246  1.0866  0.0332
 2232SOL     OW 8699   5.658   1.347   1.577 -0.1172 -0.0490 -0.5583
 2232SOL    HW2 8700   5.684   1.322   1.489  0.1364  1.8873 -1.0819
 2232SOL    HW3 8701   5.581   1.402   1.566 -0.3751 -0.1650  0.4778
 2232SOL    MW4 8702   5.652   1.351   1.564  0.4109  0.1787 -0.1934
 2233SOL     OW 8703   3.953   0.315   4.550  0.1785 -0.0127  0.4203
 2233SOL    HW2 8704   3.968   0.254   4.622 -0.3315  1.3113  1.6911
 2233SOL    HW3 8705   3.896   0.267   4.490 -0.0180 -0.8763  1.2746
 2233SOL    MW4 8706   3.947   0.301   4.551 -0.4252 -0.3335  0.0150
 2234SOL     OW 8707   3.319   2.577   2.444  0.3000  0.2922  0.0777
 2234SOL    HW2 8708   3.368   2.604   2.367 -1.0381 -0.3190 -1.0222
 2234SOL    HW3 8709   3.238   2.630   2.441 -0.8705 -1.4532 -0.3083
 2234SOL    MW4 8710   3.315   2.588   2.434  0.2281 -0.2782 -0.2488
 2235SOL     OW 8711   6.322   0.335   4.405  0.2673  0.5035  0.1859
 2235SOL    HW2 8712   6.276   0.374   4.479  0.6672  2.2698 -0.4571
 2235SOL    HW3 8713   6.408   0.378   4.405  1.0890 -1.0298 -0.0507
 2235SOL    MW4 8714   6.327   0.346   4.415  0.6794 -0.1498  0.1744
 2236SOL     OW 8715   2.699   2.879   4.397 -0.3244  0.0754  0.5931
 2236SOL    HW2 8716   2.689   2.818   4.470 -1.9433 -0.1102  0.2582
 2236SOL    HW3 8717   2.774   2.847   4.347 -0.0733 -0.6026  1.3964
 2236SOL    MW4 8718   2.707   2.867   4.400  0.0776  0.0079 -0.1061
 2237SOL     OW 8719   3.021   6.061   1.347 -0.3118  0.0228 -0.1117
 2237SOL    HW2 8720   2.948   6.013   1.385 -0.0164 -1.2264 -1.0562
 2237SOL    HW3 8721   3.099   6.023   1.388 -0.0204 -1.0113 -1.5416
 2237SOL    MW4 8722   3.021   6.049   1.357  0.0365  0.3819 -0.3658
 2238SOL     OW 8723   0.383   5.362   4.204 -0.0004  0.3014  0.1132
 2238SOL    HW2 8724   0.314   5.324   4.258  0.5943 -0.0165  0.6669
 2238SOL    HW3 8725   0.436   5.287   4.177 -0.0501  0.5065 -0.5718
 2238SOL    MW4 8726   0.381   5.347   4.208  0.1027  0.2059 -0.0742
 2239SOL     OW 8727   5.459   5.111   3.336 -0.3995 -0.6444  0.1290
 2239SOL    HW2 8728   5.392   5.145   3.395 -0.1849  0.9585 -0.4757
 2239SOL    HW3 8729   5.410   5.074   3.262 -0.7549  2.7756 -1.5474
 2239SOL    MW4 8730   5.444   5.111   3.334  0.2360  0.1190  0.2644
 2240SOL     OW 8731   4.873   0.689   4.550  0.2069  0.5650 -0.1275
 2240SOL    HW2 8732   4.842   0.602   4.525  1.7490  0.0498 -0.3494
 2240SOL    HW3 8733   4.957   0.699   4.505  0.9974  1.3653  1.4325
 2240SOL    MW4 8734   4.880   0.679   4.541 -0.5405 -0.0574  0.0965
 2241SOL     OW 8735   3.967   2.818   5.129 -0.2431 -0.0363 -0.4475
 2241SOL    HW2 8736   3.925   2.840   5.045 -1.2362  0.3761  0.1344
 2241SOL    HW3 8737   4.006   2.900   5.158 -0.6662  0.0491 -0.0978
 2241SOL    MW4 8738   3.966   2.832   5.122  0.1737  0.9627  0.7462
 2242SOL     OW 8739   0.485   1.878   1.148  0.0425  0.5571 -0.4298
 2242SOL    HW2 8740   0.558   1.866   1.087 -1.5551  3.0791 -3.1059
 2242SOL    HW3 8741   0.502   1.962   1.190 -0.0115 -0.1185  1.0100
 2242SOL    MW4 8742   0.497   1.887   1.145 -0.1267 -0.2503 -0.0352
 2243SOL     OW 8743   3.176   1.434   5.550  0.2271  0.0311 -0.9878
 2243SOL    HW2 8744   3.135   1.519   5.567 -0.5108 -0.6821  1.1725
 2243SOL    HW3 8745   3.178   1.426   5.455 -3.1447  0.8514 -1.2334
 2243SOL    MW4 8746   3.171   1.444   5.540 -0.2366  0.1799  0.1580
 2244SOL     OW 8747   4.825   2.702   5.787  0.2175  0.2128  0.6065
 2244SOL    HW2 8748   4.763   2.758   5.834 -0.0328 -0.9375  1.7139
 2244SOL    HW3 8749   4.774   2.625   5.763  0.9713 -0.3055  0.6417
 2244SOL    MW4 8750   4.810   2.699   5.790  0.4765  0.0741 -0.3480
 2245SOL     OW 8751   0.430   3.113   4.307 -0.0789  0.6859  0.5703
 2245SOL    HW2 8752   0.486   3.180   4.269 -0.2229  0.5993  0.2068
 2245SOL    HW3 8753   0.458   3.032   4.266 -0.7189  0.6927  0.1062
 2245SOL    MW4 8754   0.441   3.111   4.297 -0.2656 -0.1875 -0.0022
 2246SOL     OW 8755   4.805   3.949   2.691 -0.5420 -0.0567 -0.2294
 2246SOL    HW2 8756   4.747   4.006   2.741 -1.1450  0.6753 -1.6856
 2246SOL    HW3 8757   4.776   3.959   2.600  0.1579 -1.7319 -0.6829
 2246SOL    MW4 8758   4.793   3.958   2.685  0.3842  0.4361  0.4647
 2247SOL     OW 8759   2.527   1.122   3.689 -0.3824 -0.4646  0.0348
 2247SOL    HW2 8760   2.586   1.053   3.720  0.2333  0.2637  0.5476
 2247SOL    HW3 8761   2.455   1.076   3.647  1.5691 -1.4056 -2.5811
 2247SOL    MW4 8762   2.525   1.107   3.687  0.4219  0.3336  0.1639
 2248SOL     OW 8763   4.973   3.838   0.779 -0.1150 -0.4322 -0.3407
 2248SOL    HW2 8764   5.038   3.893   0.735 -1.5760  0.5866 -1.3061
 2248SOL    HW3 8765   4.916   3.900   0.826 -0.2105 -1.3273  0.7761
 2248SOL    MW4 8766   4.974   3.853   0.779  0.2708  0.2269  0.9030
 2249SOL     OW 8767   0.371   6.193   1.598  0.0801 -0.3798  0.7039
 2249SOL    HW2 8768   0.400   6.164   1.511 -0.1512 -0.1700  0.5580
 2249SOL    HW3 8769   0.329   6.116   1.636  0.8916 -0.7173  0.9483
 2249SOL    MW4 8770   0.370   6.179   1.592 -0.2789  0.6715 -0.1321
 2250SOL     OW 8771   4.983   4.084   1.821  0.3908  0.2764  0.4548
 2250SOL    HW2 8772   5.067   4.093   1.867  1.2700 -3.1258 -0.2727
 2250SOL    HW3 8773   4.926   4.039   1.884 -1.2972  3.1870  1.2259
 2250SOL    MW4 8774   4.986   4.079   1.835 -0.0303 -0.3646  0.3723
 2251SOL     OW 8775   2.148   4.212   3.154  0.5141  0.1069  0.4313
 2251SOL    HW2 8776   2.168   4.141   3.093 -1.1155  0.1461 -0.2141
 2251SOL    HW3 8777   2.075   4.179   3.207  0.1211  1.0589  0.5165
 2251SOL    MW4 8778   2.141   4.199   3.153 -0.2350  0.1221  0.5518
 2252SOL     OW 8779   6.360   6.406   2.660 -0.1570  0.3643 -0.2788
 2252SOL    HW2 8780   6.385   6.497   2.643 -1.3745  0.7830  0.1021
 2252SOL    HW3 8781   6.373   6.395   2.754 -3.0071  1.1606  0.3044
 2252SOL    MW4 8782   6.365   6.416   2.670 -0.8903  0.2221 -0.4552
 2253SOL     OW 8783   0.045   3.514   3.963  0.6618 -0.2786 -0.0902
 2253SOL    HW2 8784  -0.035   3.508   4.014  0.1384 -1.5907 -1.0293
 2253SOL    HW3 8785   0.071   3.424   3.946  1.8304  0.1250 -0.5921
 2253SOL    MW4 8786   0.038   3.502   3.968  0.5156 -0.0437 -0.0858
 2254SOL     OW 8787   0.997   5.777   3.014 -0.4498  0.2488  0.4502
 2254SOL    HW2 8788   1.087   5.804   3.034 -0.7263  1.0022  0.7100
 2254SOL    HW3 8789   0.959   5.755   3.099  0.2334 -2.5648  0.1312
 2254SOL    MW4 8790   1.004   5.778   3.027  0.3069 -0.2909  0.5602
 2255SOL     OW 8791   3.158   1.086   5.879  0.5160 -0.0493  0.0401
 2255SOL    HW2 8792   3.151   1.009   5.823  1.2886 -0.1024  0.0082
 2255SOL    HW3 8793   3.241   1.076   5.924  0.6467  0.7875  0.0067
 2255SOL    MW4 8794   3.168   1.075   5.878 -0.1593  0.5980  0.2943
 2256SOL     OW 8795   1.270   6.148   4.651 -0.3787  0.1900  0.3297
 2256SOL    HW2 8796   1.349   6.159   4.705 -0.8831 -0.2895  1.1822
 2256SOL    HW3 8797   1.263   6.054   4.637 -1.1739  0.1647  0.8415
 2256SOL    MW4 8798   1.280   6.137   4.656 -0.0217 -0.1301  0.7248
 2257SOL     OW 8799   3.761   6.297   2.226 -0.4328  0.0156 -0.0095
 2257SOL    HW2 8800   3.715   6.238   2.166 -1.6876 -0.1882  1.1083
 2257SOL    HW3 8801   3.738   6.384   2.195  0.8825 -0.0297 -1.2540
 2257SOL    MW4 8802   3.752   6.301   2.214 -0.3266  0.3718 -0.2108
 2258SOL     OW 8803   4.584   4.296   3.369 -0.0652 -0.4069 -0.6312
 2258SOL    HW2 8804   4.545   4.275   3.454 -0.5379  0.3216 -0.6556
 2258SOL    HW3 8805   4.619   4.384   3.381 -1.3470  0.2689 -1.5754
 2258SOL    MW4 8806   4.583   4.305   3.382 -0.3127  0.5940  0.7358
 2259SOL     OW 8807   1.046   0.468   5.325 -0.4850  0.0953 -0.0281
 2259SOL    HW2 8808   0.987   0.408   5.371 -0.9805  0.6017  0.0142
 2259SOL    HW3 8809   1.014   0.468   5.234  1.5847 -2.2931 -0.8727
 2259SOL    MW4 8810   1.034   0.460   5.319  0.2811  0.4696  0.2857
 2260SOL     OW 8811   5.088   4.232   4.800  0.4653  0.0001 -0.6070
 2260SOL    HW2 8812   5.119   4.307   4.750  1.9540  0.3302  0.7313
 2260SOL    HW3 8813   5.023   4.268   4.860  0.2377 -0.0192 -0.8401
 2260SOL    MW4 8814   5.084   4.246   4.802 -0.1587 -0.2499 -0.4986
 2261SOL     OW 8815   2.022   3.089   4.643 -0.1534  0.0599  0.1680
 2261SOL    HW2 8816   2.024   3.181   4.616 -0.9983  0.0071 -0.1045
 2261SOL    HW3 8817   1.964   3.047   4.580 -0.2747 -0.5372  0.6665
 2261SOL    MW4 8818   2.015   3.095   4.631  0.2065 -0.1454  0.4945
 2262SOL     OW 8819   0.798   2.594   0.392 -0.1460  0.0906 -0.6442
 2262SOL    HW2 8820   0.762   2.505   0.398  1.2863 -0.5436 -1.1552
 2262SOL    HW3 8821   0.810   2.621   0.483  3.2039 -1.8829 -0.3374
 2262SOL    MW4 8822   0.795   2.586   0.405 -0.4827  0.0186 -0.1835
 2263SOL     OW 8823   3.947   5.724   2.384  0.5010  0.4098 -0.7543
 2263SOL    HW2 8824   3.854   5.716   2.365  0.2798  0.4986  0.2064
 2263SOL    HW3 8825   3.973   5.636   2.414  0.8574  0.2408 -1.5492
 2263SOL    MW4 8826   3.938   5.711   2.386  0.2326  0.3546 -0.6739
 2264SOL     OW 8827   4.789   1.457   5.689  0.6582  0.6898 -0.3746
 2264SOL    HW2 8828   4.729   1.531   5.676  0.7878  0.7007 -0.9169
 2264SOL    HW3 8829   4.871   1.498   5.716  0.8275  0.7720 -0.9980
 2264SOL    MW4 8830   4.792   1.472   5.691  0.0377  0.3077 -0.2360
 2265SOL     OW 8831   3.846   4.802   3.853  0.0451 -0.1844 -0.3815
 2265SOL    HW2 8832   3.917   4.738   3.856  1.1852  1.0276 -0.2370
 2265SOL    HW3 8833   3.890   4.887   3.859 -1.4354  0.6142 -0.2041
 2265SOL    MW4 8834   3.861   4.805   3.854  0.8465  0.2138 -0.5832
 2266SOL     OW 8835   1.591   1.835   4.359 -0.4974 -0.5822 -0.4902
 2266SOL    HW2 8836   1.637   1.856   4.440 -0.0397 -1.6802 -0.4513
 2266SOL    HW3 8837   1.528   1.767   4.385 -0.2333 -1.0555 -1.0846
 2266SOL    MW4 8838   1.589   1.829   4.373  0.1576 -0.5065 -0.8506
 2267SOL     OW 8839   3.710   4.702   4.590 -0.4737 -0.2467  0.5336
 2267SOL    HW2 8840   3.681   4.681   4.502  1.1915  1.4579 -0.4868
 2267SOL    HW3 8841   3.672   4.788   4.608  0.5512  0.1609  0.8060
 2267SOL    MW4 8842   3.701   4.710   4.581  0.0162 -0.1004  0.3130
 2268SOL     OW 8843   4.731   0.507   0.641  0.1375  0.2293 -0.3993
 2268SOL    HW2 8844   4.722   0.551   0.726  0.3493  0.7170 -0.6221
 2268SOL    HW3 8845   4.642   0.506   0.606 -0.3903 -2.0681  0.8167
 2268SOL    MW4 8846   4.718   0.513   0.648  0.3544  0.1063 -0.9534
 2269SOL     OW 8847   2.437   1.699   3.980  0.4431 -0.5102  0.3221
 2269SOL    HW2 8848   2.350   1.740   3.976  1.1194  1.0560  1.1178
 2269SOL    HW3 8849   2.468   1.699   3.889  0.6330  1.2336  0.3652
 2269SOL    MW4 8850   2.429   1.704   3.967 -0.1039 -0.4674  0.2898
 2270SOL     OW 8851   1.811   0.253   1.886 -0.3881 -0.2770 -0.5211
 2270SOL    HW2 8852   1.739   0.309   1.858  0.6377  0.6655 -1.3487
 2270SOL    HW3 8853   1.884   0.313   1.903  0.3141 -1.2293 -0.0310
 2270SOL    MW4 8854   1.811   0.268   1.885 -0.1540  0.2371  0.3547
 2271SOL     OW 8855   3.444   1.465   1.485  0.0917  0.2282  0.0116
 2271SOL    HW2 8856   3.475   1.375   1.492  0.4184  0.2704 -0.8148
 2271SOL    HW3 8857   3.523   1.518   1.482 -0.1006  0.5664  0.6384
 2271SOL    MW4 8858   3.458   1.460   1.486 -0.1889 -0.1707 -0.5810
 2272SOL     OW 8859   6.013   4.638   5.799 -0.2043 -0.1263 -0.0921
 2272SOL    HW2 8860   5.946   4.652   5.866 -0.3055 -0.5443 -0.1038
 2272SOL    HW3 8861   5.995   4.550   5.764  0.5454 -0.3804  0.1296
 2272SOL    MW4 8862   6.002   4.628   5.803 -0.1610 -0.5769 -0.5403
 2273SOL     OW 8863   3.613   4.488   0.240  0.1456 -0.4791 -0.8079
 2273SOL    HW2 8864   3.517   4.491   0.247  0.2768 -0.2318  2.6365
 2273SOL    HW3 8865   3.637   4.572   0.202 -0.9470  0.4907  0.5430
 2273SOL    MW4 8866   3.603   4.500   0.236 -0.3309 -0.0045  0.1992
 2274SOL     OW 8867   3.493   4.234   3.942  0.7205  0.3257  0.0968
 2274SOL    HW2 8868   3.561   4.301   3.943  0.1715  0.9097  1.2915
 2274SOL    HW3 8869   3.451   4.242   4.028 -0.0014 -0.8920 -0.1197
 2274SOL    MW4 8870   3.496   4.244   3.954  0.3641 -0.0943  0.2050
 2275SOL     OW 8871   5.562   2.064   5.084 -0.0507  0.1207  0.2779
 2275SOL    HW2 8872   5.497   2.133   5.099 -0.7843 -0.8757  2.0533
 2275SOL    HW3 8873   5.522   2.006   5.020 -0.3417  0.2389  0.3518
 2275SOL    MW4 8874   5.548   2.066   5.078  0.3739  0.4029  0.1050
 2276SOL     OW 8875   3.845   3.940   3.187 -0.0936 -0.1986 -0.2841
 2276SOL    HW2 8876   3.783   3.913   3.119 -0.0798  0.6475 -0.6478
 2276SOL    HW3 8877   3.795   3.931   3.269 -0.5460  0.0149 -0.5286
 2276SOL    MW4 8878   3.830   3.935   3.189 -0.5324 -0.2623  0.9686
 2277SOL     OW 8879   5.993   5.327   4.354 -0.5160 -0.7936 -0.6086
 2277SOL    HW2 8880   5.963   5.331   4.445 -0.5993  1.4127 -0.6869
 2277SOL    HW3 8881   6.085   5.302   4.360 -0.1888  0.5212  0.1857
 2277SOL    MW4 8882   6.001   5.324   4.367 -0.4726 -0.3348 -0.3571
 2278SOL     OW 8883   5.268   2.849   5.535  0.2636  0.4267  0.0976
 2278SOL    HW2 8884   5.226   2.892   5.610  0.0086 -0.4537  0.4696
 2278SOL    HW3 8885   5.359   2.879   5.538  0.4331 -0.1462  1.1846
 2278SOL    MW4 8886   5.274   2.858   5.545  0.5815  0.0987 -0.4277
 2279SOL     OW 8887   1.569   0.146   1.191 -0.2221  0.2930 -0.3083
 2279SOL    HW2 8888   1.491   0.168   1.141 -0.4653  4.5954  1.4789
 2279SOL    HW3 8889   1.638   0.201   1.154  0.7382  0.0965  1.0805
 2279SOL    MW4 8890   1.568   0.156   1.180 -0.0228  0.5906 -0.2980
 2280SOL     OW 8891   0.823   3.813   2.824 -0.6929  0.4714  0.1992
 2280SOL    HW2 8892   0.729   3.832   2.817 -0.4731  1.0422 -1.9945
 2280SOL    HW3 8893   0.830   3.718   2.814 -0.9912  0.4802 -0.0796
 2280SOL    MW4 8894   0.811   3.803   2.822  0.2416  0.4357  0.2243
 2281SOL     OW 8895   5.642   4.072   6.344 -0.2441 -0.0617  0.0692
 2281SOL    HW2 8896   5.736   4.073   6.323 -0.2394 -1.3691 -0.1011
 2281SOL    HW3 8897   5.635   4.005   6.413 -1.2501 -1.1074 -1.0161
 2281SOL    MW4 8898   5.654   4.063   6.350 -0.2004 -0.0759  0.2755
 2282SOL     OW 8899   2.611   3.650   0.672 -0.6269 -0.0231 -0.2882
 2282SOL    HW2 8900   2.623   3.576   0.731 -3.7142  0.0539  0.5786
 2282SOL    HW3 8901   2.651   3.724   0.718 -1.8419 -0.2235  1.1663
 2282SOL    MW4 8902   2.618   3.650   0.686 -0.6539  0.1215 -0.9190
 2283SOL     OW 8903   4.840   5.354   1.350  0.0111 -0.3170  0.7006
 2283SOL    HW2 8904   4.809   5.371   1.261  0.3773  2.4011  0.9909
 2283SOL    HW3 8905   4.764   5.320   1.396 -0.9434  0.7327 -0.0311
 2283SOL    MW4 8906   4.826   5.352   1.344 -0.4295 -0.2557 -0.2435
 2284SOL     OW 8907   1.411   2.613   2.348 -0.6398 -0.4730  0.3852
 2284SOL    HW2 8908   1.435   2.704   2.361 -0.2343 -0.4627 -0.3724
 2284SOL    HW3 8909   1.325   2.616   2.305 -0.5228 -0.4465  0.1551
 2284SOL    MW4 8910   1.403   2.625   2.344  0.2802  0.6043  0.1734
 2285SOL     OW 8911   5.238   5.762   6.307 -0.0090 -0.2861  0.0224
 2285SOL    HW2 8912   5.329   5.789   6.321  0.5330 -1.1376 -1.6436
 2285SOL    HW3 8913   5.244   5.684   6.251 -1.7754 -0.2048 -0.3442
 2285SOL    MW4 8914   5.251   5.755   6.302  0.5769 -0.1074 -0.4406
 2286SOL     OW 8915   4.417   4.108   3.224  0.7534  0.3673 -0.5055
 2286SOL    HW2 8916   4.475   4.172   3.266  1.4308 -0.5419 -0.0112
 2286SOL    HW3 8917   4.453   4.023   3.250 -0.7903 -0.2266 -0.2236
 2286SOL    MW4 8918   4.429   4.106   3.233 -0.2965 -0.3285 -0.0454
 2287SOL     OW 8919   3.448   6.094   5.437  0.0207  0.2217 -0.4064
 2287SOL    HW2 8920   3.481   6.036   5.505 -0.3225  3.1149  2.4523
 2287SOL    HW3 8921   3.354   6.078   5.435  0.0809 -0.1330 -0.5074
 2287SOL    MW4 8922   3.440   6.084   5.446 -0.7558 -0.0366 -0.0245
 2288SOL     OW 8923   2.301   0.746   5.867 -0.0291 -0.2936 -0.1806
 2288SOL    HW2 8924   2.351   0.668   5.889 -1.1869 -0.5557  1.7930
 2288SOL    HW3 8925   2.341   0.816   5.919 -0.1639  0.0431 -0.5197
 2288SOL    MW4 8926   2.313   0.745   5.877 -0.1963 -0.2234  0.0786
 2289SOL     OW 8927   6.120   6.213   6.183  0.0569  0.0937 -0.5338
 2289SOL    HW2 8928   6.045   6.198   6.125 -2.0239 -0.4413  2.0839
 2289SOL    HW3 8929   6.150   6.302   6.161  0.0024 -0.4234 -2.9874
 2289SOL    MW4 8930   6.114   6.223   6.172  1.0245  0.2374  0.0134
 2290SOL     OW 8931   5.281   5.825   4.700 -0.5176 -0.4092  0.0036
 2290SOL    HW2 8932   5.324   5.842   4.784  0.0760 -0.8513 -0.2119
 2290SOL    HW3 8933   5.198   5.873   4.706 -0.0583  0.3456  0.4649
 2290SOL    MW4 8934   5.276   5.834   4.712  0.3475 -0.2017  0.1433
 2291SOL     OW 8935   5.420   3.843   5.627 -0.0221  0.3792 -0.1442
 2291SOL    HW2 8936   5.350   3.804   5.574 -0.3669  0.6247  0.1255
 2291SOL    HW3 8937   5.405   3.810   5.715  0.1111  0.5582 -0.0538
 2291SOL    MW4 8938   5.409   3.834   5.631 -0.5424 -0.1972 -0.0318
 2292SOL     OW 8939   0.646   5.260   2.002 -0.6035 -0.0759  0.5463
 2292SOL    HW2 8940   0.638   5.355   1.994 -1.0715 -0.1262  0.3592
 2292SOL    HW3 8941   0.572   5.235   2.058 -0.1082 -0.2601  1.1265
 2292SOL    MW4 8942   0.635   5.270   2.009  0.0705 -0.4060 -0.0325
 2293SOL     OW 8943   0.171   0.524   3.826  0.0610  0.4498  0.5020
 2293SOL    HW2 8944   0.180   0.466   3.901  1.3045  0.3386  0.3029
 2293SOL    HW3 8945   0.262   0.541   3.799 -0.3586 -0.5455 -1.7550
 2293SOL    MW4 8946   0.184   0.518   3.832  0.7159 -0.3654  0.2624
 2294SOL     OW 8947   4.893   4.285   0.043  0.3776  1.0407 -0.0181
 2294SOL    HW2 8948   4.976   4.276   0.090 -0.8425  1.1644  2.3095
 2294SOL    HW3 8949   4.894   4.375   0.009  1.5793  0.7268 -0.8891
 2294SOL    MW4 8950   4.904   4.296   0.045 -0.0555 -0.2366 -0.0195
 2295SOL     OW 8951   0.319   0.565   2.451 -0.1561 -0.0560 -0.2170
 2295SOL    HW2 8952   0.234   0.580   2.409 -2.1790 -2.1980  2.6853
 2295SOL    HW3 8953   0.319   0.471   2.471  3.6162 -0.4644 -1.3380
 2295SOL    MW4 8954   0.308   0.555   2.448 -0.3967  0.0092  0.0397
 2296SOL     OW 8955   2.168   1.735   4.507 -0.7512  0.7494 -0.4078
 2296SOL    HW2 8956   2.178   1.825   4.539 -0.6584  1.6908 -2.8724
 2296SOL    HW3 8957   2.110   1.742   4.431  0.1597 -1.0862 -1.3657
 2296SOL    MW4 8958   2.162   1.748   4.501  0.0572  0.0612 -0.0438
 2297SOL     OW 8959   4.725   2.243   2.310 -0.4754 -0.0629 -0.1873
 2297SOL    HW2 8960   4.669   2.205   2.379  0.0580  0.5764  0.6226
 2297SOL    HW3 8961   4.715   2.183   2.236  1.3948 -2.6410  1.4376
 2297SOL    MW4 8962   4.716   2.230   2.310  0.0887 -0.0785  0.7081
 2298SOL     OW 8963   2.110   0.429   5.957  0.1503 -0.3146  0.2598
 2298SOL    HW2 8964   2.097   0.336   5.976 -2.5563 -0.8093 -3.0677
 2298SOL    HW3 8965   2.125   0.432   5.862  1.1333  2.6262  0.3970
 2298SOL    MW4 8966   2.110   0.417   5.947  0.3577  0.2235 -0.5995
 2299SOL     OW 8967   0.760   1.721   3.457 -0.1917 -0.0646 -0.0897
 2299SOL    HW2 8968   0.716   1.637   3.471  0.3049 -0.3825 -0.4375
 2299SOL    HW3 8969   0.749   1.739   3.364  0.7542 -0.3338 -0.2570
 2299SOL    MW4 8970   0.753   1.712   3.447 -0.3143  0.3699  0.4901
 2300SOL     OW 8971   5.830   3.034   0.643  0.0396  0.2456  0.0817
 2300SOL    HW2 8972   5.904   2.994   0.598 -0.6405 -1.6161  0.5207
 2300SOL    HW3 8973   5.774   3.068   0.573 -0.2895 -1.3040 -0.4469
 2300SOL    MW4 8974   5.833   3.033   0.628 -0.5948 -0.0512  0.0969
 2301SOL     OW 8975   0.626   3.412   1.554  0.1898  0.0524  0.3285
 2301SOL    HW2 8976   0.545   3.424   1.604 -1.2426 -2.0718 -1.2770
 2301SOL    HW3 8977   0.620   3.477   1.484  0.2172  0.3344  0.5830
 2301SOL    MW4 8978   0.614   3.422   1.551  0.1144 -0.0178 -0.5914
 2302SOL     OW 8979   4.603   0.885   3.296 -0.1403  0.1214 -0.7499
 2302SOL    HW2 8980   4.608   0.863   3.389 -0.2245  1.1891 -0.4761
 2302SOL    HW3 8981   4.653   0.966   3.288  0.0390 -0.0750 -1.6782
 2302SOL    MW4 8982   4.610   0.893   3.307  0.6156  0.4333  0.2792
 2303SOL     OW 8983   4.482   4.397   5.503  0.1182 -0.1193 -0.3823
 2303SOL    HW2 8984   4.557   4.385   5.561  0.0858  0.8042 -0.1191
 2303SOL    HW3 8985   4.417   4.441   5.558 -0.2818 -0.1360 -0.8430
 2303SOL    MW4 8986   4.484   4.401   5.518 -0.3035  0.6982 -0.3897
 2304SOL     OW 8987   0.560   0.652   1.017 -0.1536 -0.2104 -0.0440
 2304SOL    HW2 8988   0.564   0.745   1.038  1.6105 -0.4013  0.5718
 2304SOL    HW3 8989   0.466   0.634   1.005 -0.7364  1.1518  2.0125
 2304SOL    MW4 8990   0.548   0.662   1.018  0.9830  0.1964  0.4678
 2305SOL     OW 8991   4.453   1.208   0.128 -0.1851 -0.0131  0.2965
 2305SOL    HW2 8992   4.422   1.289   0.088  1.7905  0.7769  0.2426
 2305SOL    HW3 8993   4.477   1.234   0.217  0.5149 -0.5120  0.2628
 2305SOL    MW4 8994   4.452   1.222   0.135 -0.0657 -0.4764 -0.0807
 2306SOL     OW 8995   3.317   5.358   1.419 -0.5221 -0.3485 -0.3711
 2306SOL    HW2 8996   3.349   5.314   1.498 -0.2598  0.8845  0.2278
 2306SOL    HW3 8997   3.335   5.451   1.434 -2.6965  0.1899 -0.8273
 2306SOL    MW4 8998   3.324   5.364   1.432 -0.2940 -0.2904 -0.2576
 2307SOL     OW 8999   1.040   4.014   1.247  0.8559  0.3134  0.7395
 2307SOL    HW2 9000   1.091   4.095   1.237  2.2778 -0.7251 -1.1747
 2307SOL    HW3 9001   0.983   4.013   1.170  0.7179 -0.4118  0.8481
 2307SOL    MW4 9002   1.039   4.025   1.235  0.6123 -0.0149  0.0389
 2308SOL     OW 9003   2.718   3.482   0.880 -0.1138 -0.2897  0.2040
 2308SOL    HW2 9004   2.802   3.526   0.884  0.4403 -1.2077 -0.8196
 2308SOL    HW3 9005   2.677   3.499   0.965  1.5434 -0.6787  1.1128
 2308SOL    MW4 9006   2.723   3.490   0.892  0.2469  0.2326  0.0224
 2309SOL     OW 9007   5.580   1.060   3.557 -0.4290 -0.0199 -0.1053
 2309SOL    HW2 9008   5.493   1.026   3.536 -1.2554  2.5632 -1.2937
 2309SOL    HW3 9009   5.563   1.143   3.601  1.4528  0.5528 -0.3812
 2309SOL    MW4 9010   5.566   1.066   3.560  0.4648  0.2994 -0.2345
 2310SOL     OW 9011   5.094   3.713   2.318  0.4274 -0.0249  0.1098
 2310SOL    HW2 9012   5.014   3.719   2.265 -0.0127 -0.3355  0.7358
 2310SOL    HW3 9013   5.064   3.724   2.408  1.0903 -0.1664  0.3493
 2310SOL    MW4 9014   5.080   3.715   2.323  0.2751  0.1736  0.2686
 2311SOL     OW 9015   0.035   0.891   4.396 -0.0992 -0.1187  0.0261
 2311SOL    HW2 9016   0.009   0.799   4.399  0.1031 -0.2357 -1.2742
 2311SOL    HW3 9017   0.131   0.889   4.396 -0.0442 -0.0571 -2.3371
 2311SOL    MW4 9018   0.045   0.879   4.397 -0.6460  0.3195  0.4884
 2312SOL     OW 9019   1.679   2.023   0.853  0.1045  0.1273  0.2156
 2312SOL    HW2 9020   1.650   2.043   0.764 -0.0386  1.2139  0.5002
 2312SOL    HW3 9021   1.667   2.104   0.902  0.9852 -0.2028  1.0247
 2312SOL    MW4 9022   1.674   2.036   0.848 -0.5564 -0.3465  0.0134
 2313SOL     OW 9023   1.971   4.639   0.243 -0.3237  0.1542 -0.1561
 2313SOL    HW2 9024   1.894   4.606   0.197 -0.1252 -0.1241 -0.2931
 2313SOL    HW3 9025   1.970   4.594   0.328 -0.7203  0.7092  0.1383
 2313SOL    MW4 9026   1.961   4.629   0.248  0.5053 -0.4010  0.0338
 2314SOL     OW 9027   1.751   5.776   6.299 -0.2315  0.8013 -1.0073
 2314SOL    HW2 9028   1.842   5.793   6.324  0.4845  0.0155 -2.8896
 2314SOL    HW3 9029   1.700   5.796   6.378  1.8872 -2.2251  1.3686
 2314SOL    MW4 9030   1.756   5.781   6.313  0.6418 -0.2882  0.3700
 2315SOL     OW 9031   0.321   4.753   3.078  0.2543  0.1949 -0.2998
 2315SOL    HW2 9032   0.318   4.662   3.109  1.4796  0.5835  1.0509
 2315SOL    HW3 9033   0.410   4.764   3.045 -0.4428  0.3854 -2.2745
 2315SOL    MW4 9034   0.332   4.742   3.077  0.1969  0.6629 -0.4422
 2316SOL     OW 9035   6.036   6.025   4.609  0.1794  0.1307 -0.4908
 2316SOL    HW2 9036   5.949   5.989   4.594 -0.2404  0.7339  0.4623
 2316SOL    HW3 9037   6.095   5.952   4.588 -0.6295 -0.8800  0.6152
 2316SOL    MW4 9038   6.032   6.010   4.605  0.1984 -0.2462  0.1770
 2317SOL     OW 9039   0.930   4.925   0.294  0.8352 -0.5664 -0.4542
 2317SOL    HW2 9040   0.883   4.842   0.300  0.9319 -0.6476 -0.7818
 2317SOL    HW3 9041   0.867   4.984   0.252  1.0492 -0.6989 -0.9760
 2317SOL    MW4 9042   0.915   4.922   0.289 -0.5149 -0.0173 -0.0943
 2318SOL     OW 9043   2.545   1.807   3.488  0.0123  0.3151 -0.3309
 2318SOL    HW2 9044   2.455   1.801   3.456 -0.0865 -0.9248  0.1415
 2318SOL    HW3 9045   2.588   1.867   3.427 -1.6055  2.5298  0.5486
 2318SOL    MW4 9046   2.539   1.814   3.476 -0.1591  0.2930 -0.1458
 2319SOL     OW 9047   0.040   0.248   3.193 -0.3360 -0.0249 -0.2936
 2319SOL    HW2 9048   0.107   0.270   3.257  0.2782  0.0945 -0.9715
 2319SOL    HW3 9049   0.003   0.166   3.226 -1.3676  0.9934  1.2424
 2319SOL    MW4 9050   0.044   0.240   3.206 -0.2260  0.4118 -0.3399
 2320SOL     OW 9051   3.342   0.564   4.281  0.3018 -0.1868 -0.6926
 2320SOL    HW2 9052   3.338   0.652   4.245  0.0113 -0.5137 -1.4882
 2320SOL    HW3 9053   3.409   0.568   4.350 -0.5592  0.9379  0.1138
 2320SOL    MW4 9054   3.350   0.576   4.286 -0.4373 -0.6758  0.4896
 2321SOL     OW 9055   4.581   4.113   2.805 -0.7005 -0.3181 -0.1861
 2321SOL    HW2 9056   4.593   4.034   2.858  0.4448  0.9534  1.6055
 2321SOL    HW3 9057   4.517   4.165   2.854 -1.8052 -0.3106 -1.5843
 2321SOL    MW4 9058   4.574   4.110   2.819 -0.0654  0.0697  0.2865
 2322SOL     OW 9059   4.361   0.596   6.079 -0.1928 -0.1053  0.0074
 2322SOL    HW2 9060   4.330   0.515   6.119  2.1996 -1.6426 -0.9999
 2322SOL    HW3 9061   4.410   0.567   6.002  1.8988  2.1510  0.3673
 2322SOL    MW4 9062   4.364   0.581   6.074 -0.4033  0.2362 -0.2266
 2323SOL     OW 9063   2.085   5.261   0.495  0.2185  0.0845 -0.6210
 2323SOL    HW2 9064   2.094   5.188   0.556  1.8380  0.8171  0.0801
 2323SOL    HW3 9065   2.030   5.324   0.542  0.0424 -0.0646 -0.6259
 2323SOL    MW4 9066   2.079   5.260   0.509  0.0670 -0.6126  0.5324
 2324SOL     OW 9067   5.831   2.910   0.322  0.2305  0.1563  0.0629
 2324SOL    HW2 9068   5.910   2.899   0.269 -0.6926 -2.7130 -0.8975
 2324SOL    HW3 9069   5.759   2.891   0.262 -0.9294 -1.9339  1.9635
 2324SOL    MW4 9070   5.832   2.906   0.307  0.2149  0.8430 -0.2547
 2325SOL     OW 9071   2.912   5.759   1.582 -0.2177  0.0298  0.4252
 2325SOL    HW2 9072   2.834   5.723   1.625  0.0199 -0.3238  0.5658
 2325SOL    HW3 9073   2.878   5.803   1.504 -0.6528  0.6478  0.9514
 2325SOL    MW4 9074   2.897   5.760   1.577  0.1515  0.1219 -0.2999
 2326SOL     OW 9075   1.436   3.660   5.153 -0.2995 -0.0833 -0.1106
 2326SOL    HW2 9076   1.486   3.607   5.215 -1.4671 -0.2930  0.6838
 2326SOL    HW3 9077   1.499   3.683   5.085  0.8729 -0.3336  0.8530
 2326SOL    MW4 9078   1.451   3.656   5.152  0.2890 -0.4095  0.0017
 2327SOL     OW 9079   3.651   4.631   0.499 -0.3825  0.6046  0.1390
 2327SOL    HW2 9080   3.630   4.713   0.455 -2.0058 -0.0296 -0.3791
 2327SOL    HW3 9081   3.644   4.565   0.431 -0.7888 -0.1503  0.8914
 2327SOL    MW4 9082   3.647   4.633   0.484 -0.0550  0.4798 -0.1661
 2328SOL     OW 9083   5.522   1.813   5.232 -0.1559  0.2889  0.6519
 2328SOL    HW2 9084   5.476   1.808   5.316  2.4913 -0.3011  2.1549
 2328SOL    HW3 9085   5.528   1.907   5.214 -0.9429  0.4125  0.9782
 2328SOL    MW4 9086   5.517   1.825   5.241  0.7983  0.1597  0.4858
 2329SOL     OW 9087   4.978   5.848   2.372 -0.1257 -0.2089 -0.5397
 2329SOL    HW2 9088   5.007   5.925   2.422  0.9229 -0.9744  0.0601
 2329SOL    HW3 9089   5.057   5.819   2.326 -0.2569 -1.5711  0.0824
 2329SOL    MW4 9090   4.993   5.855   2.372  0.1083 -0.0114 -0.3557
 2330SOL     OW 9091   4.520   0.599   0.271 -0.0004 -0.1083  0.3704
 2330SOL    HW2 9092   4.492   0.538   0.203  0.1073  1.1230 -0.8155
 2330SOL    HW3 9093   4.614   0.611   0.256  0.1184 -0.1601  1.0180
 2330SOL    MW4 9094   4.529   0.593   0.260 -0.0693  0.0537 -0.7218
 2331SOL     OW 9095   0.324   0.475   1.205 -0.8392  0.1130 -0.3129
 2331SOL    HW2 9096   0.390   0.407   1.217  0.9810  2.2042  2.3526
 2331SOL    HW3 9097   0.241   0.432   1.229  0.3280 -1.0665  1.9040
 2331SOL    MW4 9098   0.321   0.460   1.209 -0.4775  0.4771  0.0814
 2332SOL     OW 9099   4.103   1.613   0.206  0.1034 -0.1471 -0.1220
 2332SOL    HW2 9100   4.185   1.646   0.242 -0.4572 -0.4218  1.4695
 2332SOL    HW3 9101   4.035   1.660   0.253 -0.7008 -2.8351  1.6251
 2332SOL    MW4 9102   4.105   1.623   0.217 -0.3109  0.5777 -0.4524
 2333SOL     OW 9103   2.806   0.038   0.891  0.6065 -0.1646 -0.1897
 2333SOL    HW2 9104   2.780   0.000   0.975  0.1743  3.1362  1.3083
 2333SOL    HW3 9105   2.902   0.034   0.892  0.7099  1.4748  1.3895
 2333SOL    MW4 9106   2.815   0.032   0.902 -0.0743  0.7035  1.2422
 2334SOL     OW 9107   5.059   6.194   2.804 -0.7813  0.4518 -0.3046
 2334SOL    HW2 9108   4.967   6.192   2.829 -0.5793  0.3651  0.4453
 2334SOL    HW3 9109   5.105   6.149   2.875  0.0978  2.4613  0.4805
 2334SOL    MW4 9110   5.053   6.188   2.817 -0.4338 -0.0466  0.7265
 2335SOL     OW 9111   3.822   3.598   0.456 -0.1957 -0.1203  0.0448
 2335SOL    HW2 9112   3.835   3.503   0.454 -0.8823 -0.2877  1.8832
 2335SOL    HW3 9113   3.851   3.628   0.369  1.5303 -1.8009 -0.0191
 2335SOL    MW4 9114   3.827   3.590   0.444 -0.1295 -0.3328  0.0856
 2336SOL     OW 9115   5.155   0.306   3.774 -0.5272  0.4558 -0.0053
 2336SOL    HW2 9116   5.124   0.296   3.864  0.4153 -0.0112  0.2813
 2336SOL    HW3 9117   5.132   0.395   3.751 -1.2543  0.4120  0.5128
 2336SOL    MW4 9118   5.148   0.316   3.783 -0.2526  0.1747  0.1371
 2337SOL     OW 9119   1.321   5.597   0.192 -0.6839  0.1842  0.1665
 2337SOL    HW2 9120   1.343   5.631   0.106  0.6808 -0.2724  0.3142
 2337SOL    HW3 9121   1.300   5.504   0.177 -1.6901  0.3934  0.1652
 2337SOL    MW4 9122   1.321   5.589   0.179  0.2429 -0.4501  0.1519
 2338SOL     OW 9123   0.142   1.107   6.297  0.3084  0.1847  0.4840
 2338SOL    HW2 9124   0.092   1.087   6.218 -1.6548 -0.2473  1.7594
 2338SOL    HW3 9125   0.102   1.053   6.365  0.5810  2.0298  2.2084
 2338SOL    MW4 9126   0.130   1.097   6.296 -0.1458  0.3400 -0.1555
 2339SOL     OW 9127   1.227   3.769   1.836  0.0377  0.2899  0.1237
 2339SOL    HW2 9128   1.208   3.677   1.852 -0.6393  0.2833 -0.6541
 2339SOL    HW3 9129   1.204   3.813   1.917 -0.9739 -0.0456  0.0282
 2339SOL    MW4 9130   1.222   3.762   1.848 -0.3371 -0.5668 -0.1237
 2340SOL     OW 9131   5.555   2.686   4.039  0.6754  0.0994  0.1521
 2340SOL    HW2 9132   5.497   2.704   3.965  0.5163  0.0080  0.2527
 2340SOL    HW3 9133   5.540   2.759   4.100  1.4148  0.6113 -0.2675
 2340SOL    MW4 9134   5.545   2.698   4.038 -0.4422 -0.0684 -0.4058
 2341SOL     OW 9135   1.602   3.209   3.930 -0.1249 -0.2361  0.3062
 2341SOL    HW2 9136   1.509   3.194   3.947 -0.6752 -0.8061 -2.6626
 2341SOL    HW3 9137   1.604   3.249   3.843  2.3802  0.8748  0.7888
 2341SOL    MW4 9138   1.590   3.212   3.920 -0.1459 -0.7467 -0.6318
 2342SOL     OW 9139   4.411   1.652   0.906  0.1211  0.1592  0.2518
 2342SOL    HW2 9140   4.379   1.727   0.956 -1.5581 -1.1324  1.2320
 2342SOL    HW3 9141   4.442   1.591   0.973 -0.1105 -0.7130 -0.4191
 2342SOL    MW4 9142   4.411   1.654   0.922  0.0491 -0.1181 -0.0063
 2343SOL     OW 9143   4.036   0.199   5.029  0.1284 -0.2686  0.0719
 2343SOL    HW2 9144   4.128   0.217   5.048  0.1512 -0.8028  0.5115
 2343SOL    HW3 9145   3.993   0.284   5.031  0.7428  0.0854 -0.9060
 2343SOL    MW4 9146   4.043   0.212   5.032  0.4005 -1.3208 -0.2882
 2344SOL     OW 9147   5.303   4.966   5.814 -0.5963  0.2359 -0.9658
 2344SOL    HW2 9148   5.316   4.923   5.730  2.4651 -0.5338 -0.2408
 2344SOL    HW3 9149   5.294   4.893   5.877  2.0628  0.5944 -0.0600
 2344SOL    MW4 9150   5.303   4.951   5.811 -0.1765 -0.3815 -0.4264
 2345SOL     OW 9151   3.030   1.900   0.311  0.4544 -0.1505 -0.0609
 2345SOL    HW2 9152   3.068   1.812   0.318  3.2677  1.0525  1.2682
 2345SOL    HW3 9153   3.059   1.932   0.226  1.0651  0.1539  0.2529
 2345SOL    MW4 9154   3.039   1.892   0.301  0.0582 -0.0843 -0.1569
 2346SOL     OW 9155   3.474   1.040   1.004  0.7267 -0.3718  0.1308
 2346SOL    HW2 9156   3.486   1.087   0.922 -0.8368  0.8617  0.5535
 2346SOL    HW3 9157   3.482   1.108   1.072 -2.7725 -0.3552  0.6950
 2346SOL    MW4 9158   3.477   1.055   1.002  0.0363 -0.4141  0.1802
 2347SOL     OW 9159   6.268   4.134   0.128  0.0587 -0.4533 -0.2343
 2347SOL    HW2 9160   6.339   4.094   0.078  0.5762  0.2695 -0.0876
 2347SOL    HW3 9161   6.212   4.173   0.061  1.0287  0.9711 -0.2509
 2347SOL    MW4 9162   6.270   4.134   0.112  0.5524 -0.0311  0.0883
 2348SOL     OW 9163   3.738   2.251   1.111  0.3039 -0.1260  0.2812
 2348SOL    HW2 9164   3.783   2.174   1.146  0.4583 -0.6998 -1.1075
 2348SOL    HW3 9165   3.666   2.215   1.060 -0.9567  0.7451  1.3909
 2348SOL    MW4 9166   3.735   2.236   1.109 -0.2153  1.0343  0.6429
 2349SOL     OW 9167   5.345   2.218   2.447 -0.2459  0.2733 -0.3438
 2349SOL    HW2 9168   5.350   2.140   2.391  1.6795 -0.5826  0.9095
 2349SOL    HW3 9169   5.396   2.284   2.400 -0.3817  0.2137 -0.5763
 2349SOL    MW4 9170   5.353   2.217   2.433  0.7474 -0.2894 -0.3292
 2350SOL     OW 9171   1.946   4.035   3.304 -0.6833 -0.2500 -0.3050
 2350SOL    HW2 9172   1.902   4.040   3.219  0.6096 -0.9456 -1.0426
 2350SOL    HW3 9173   2.024   3.982   3.288  0.0252  0.2994  1.1329
 2350SOL    MW4 9174   1.951   4.029   3.291 -0.7588 -0.4717 -0.1840
 2351SOL     OW 9175   4.985   0.836   3.276  0.1817  0.0561 -0.2631
 2351SOL    HW2 9176   5.061   0.778   3.281 -0.2837 -0.5067  0.4355
 2351SOL    HW3 9177   5.020   0.917   3.239  0.7410 -0.8050 -1.7085
 2351SOL    MW4 9178   5.000   0.839   3.272 -0.0920 -0.2399 -0.1222
 2352SOL     OW 9179   5.060   1.242   2.926  0.0973  0.6340 -0.0839
 2352SOL    HW2 9180   5.058   1.334   2.900 -0.0835  0.8170  0.5540
 2352SOL    HW3 9181   5.150   1.214   2.909  0.4180  1.2054  0.6403
 2352SOL    MW4 9182   5.072   1.250   2.920  0.6704  0.5420 -0.4293
 2353SOL     OW 9183   3.449   5.907   3.377 -0.3206  0.0441  0.1205
 2353SOL    HW2 9184   3.436   5.942   3.290  0.3786 -3.4756 -1.6007
 2353SOL    HW3 9185   3.361   5.899   3.414 -0.8927 -0.7394 -1.3508
 2353SOL    MW4 9186   3.436   5.910   3.371  0.5690  0.4994 -0.2928
 2354SOL     OW 9187   1.989   1.100   6.106  0.0365 -0.0840 -0.3168
 2354SOL    HW2 9188   1.979   1.187   6.068 -1.9202  0.2581  0.8417
 2354SOL    HW3 9189   1.933   1.044   6.050 -0.9167 -0.0337  0.5537
 2354SOL    MW4 9190   1.980   1.104   6.093 -0.1220 -0.4740  0.0532
 2355SOL     OW 9191   2.861   0.371   0.013 -0.4102 -0.4604  0.4451
 2355SOL    HW2 9192   2.937   0.320  -0.018 -0.0893  0.1805  0.1540
 2355SOL    HW3 9193   2.834   0.327   0.094  1.2048  0.1598  1.3787
 2355SOL    MW4 9194   2.868   0.358   0.020  0.2008  0.5970  0.3676
 2356SOL     OW 9195   5.802   0.453   2.071  0.0626 -0.1343  0.6010
 2356SOL    HW2 9196   5.753   0.435   1.990  1.1685  2.5353 -0.8111
 2356SOL    HW3 9197   5.882   0.400   2.063 -0.1942 -0.4885  0.3444
 2356SOL    MW4 9198   5.806   0.443   2.059  0.1637 -0.3556 -0.8976
 2357SOL     OW 9199   0.581   0.122   4.266 -0.7632 -0.3047  0.2511
 2357SOL    HW2 9200   0.582   0.127   4.170  0.4272  0.6267  0.2903
 2357SOL    HW3 9201   0.519   0.052   4.286 -2.5822  0.8249 -1.1468
 2357SOL    MW4 9202   0.573   0.114   4.256  0.0803  0.2671  0.1769
 2358SOL     OW 9203   5.533   0.108   5.285  0.1233 -0.8514  0.2004
 2358SOL    HW2 9204   5.593   0.174   5.250  1.6770 -0.6855  2.8877
 2358SOL    HW3 9205   5.588   0.053   5.341 -1.8401 -2.0647  1.0488
 2358SOL    MW4 9206   5.548   0.109   5.288  0.1539 -0.1205 -0.1051
 2359SOL     OW 9207   0.164   2.190   1.575 -0.4165  0.1155  0.2756
 2359SOL    HW2 9208   0.095   2.140   1.617 -0.7476 -0.7982 -1.2986
 2359SOL    HW3 9209   0.129   2.279   1.569 -1.3414 -0.2721 -0.2284
 2359SOL    MW4 9210   0.151   2.195   1.580  0.3109  0.3527  0.2729
 2360SOL     OW 9211   4.939   6.150   0.857  0.2842 -0.4057  0.2276
 2360SOL    HW2 9212   4.897   6.082   0.804 -0.1441 -1.3637  1.7313
 2360SOL    HW3 9213   5.029   6.120   0.869  0.5406  0.0917 -0.4053
 2360SOL    MW4 9214   4.945   6.137   0.852 -0.3928  0.4672 -0.7066
 2361SOL     OW 9215   4.765   4.170   4.232  0.1308  0.2253  0.2605
 2361SOL    HW2 9216   4.682   4.139   4.197  1.2370 -5.2748  1.5743
 2361SOL    HW3 9217   4.830   4.142   4.167  1.3151 -0.8179  1.8186
 2361SOL    MW4 9218   4.763   4.162   4.218  0.4176 -0.6354  0.1770
 2362SOL     OW 9219   6.213   1.479   5.769 -0.3451 -0.5206 -0.0280
 2362SOL    HW2 9220   6.308   1.472   5.781 -0.2708 -0.3916 -0.5471
 2362SOL    HW3 9221   6.193   1.418   5.698 -0.1204  2.1413 -2.5478
 2362SOL    MW4 9222   6.223   1.470   5.761  0.1143 -0.4494  0.0384
 2363SOL     OW 9223   2.463   1.063   3.238  0.3178 -0.2087 -0.1495
 2363SOL    HW2 9224   2.494   1.153   3.226  1.9915 -0.4867  1.4901
 2363SOL    HW3 9225   2.441   1.033   3.150 -1.5383  2.1775 -0.6011
 2363SOL    MW4 9226   2.464   1.071   3.225 -0.5123 -0.2150 -0.3127
 2364SOL     OW 9227   5.825   3.089   2.079  0.3698 -0.0186 -0.2960
 2364SOL    HW2 9228   5.854   3.178   2.059  1.2791 -0.2975 -0.2899
 2364SOL    HW3 9229   5.731   3.096   2.089 -0.0837  0.3697 -3.5793
 2364SOL    MW4 9230   5.817   3.101   2.077 -0.1872 -0.0591 -0.4678
 2365SOL     OW 9231   4.327   2.752   0.456 -0.0057 -0.2497  0.4788
 2365SOL    HW2 9232   4.341   2.713   0.543 -0.0675 -0.3917  0.4265
 2365SOL    HW3 9233   4.252   2.704   0.421 -0.4590  0.3222  0.6541
 2365SOL    MW4 9234   4.319   2.740   0.463 -0.0793 -0.5568  0.2348
 2366SOL     OW 9235   5.258   4.265   1.051  0.1694 -0.4518 -0.3474
 2366SOL    HW2 9236   5.233   4.274   0.959 -0.0280 -0.4454 -0.2951
 2366SOL    HW3 9237   5.283   4.173   1.060 -0.3312 -0.5888 -0.2884
 2366SOL    MW4 9238   5.258   4.254   1.040 -0.5295 -0.2529 -0.3775
 2367SOL     OW 9239   4.962   1.983   2.416 -0.0609 -0.7096  0.1631
 2367SOL    HW2 9240   5.008   1.978   2.332  1.3005 -0.1888  0.8535
 2367SOL    HW3 9241   4.945   2.077   2.428 -0.4758 -0.8066  0.3621
 2367SOL    MW4 9242   4.966   1.995   2.406 -0.4290  0.2045 -0.3728
 2368SOL     OW 9243   0.358   1.885   5.200 -0.0162  0.0642 -0.1871
 2368SOL    HW2 9244   0.340   1.850   5.287 -2.1816  0.7657 -0.2652
 2368SOL    HW3 9245   0.442   1.929   5.209  0.3004 -0.7632  1.2694
 2368SOL    MW4 9246   0.366   1.886   5.213  0.7097  0.1001  0.4036
 2369SOL     OW 9247   0.396   5.395   6.209  0.0050  0.0661 -0.4575
 2369SOL    HW2 9248   0.479   5.373   6.169  0.8905 -0.6013  1.6095
 2369SOL    HW3 9249   0.419   5.445   6.287 -1.5244 -0.1041  0.1516
 2369SOL    MW4 9250   0.410   5.399   6.214 -0.2615 -0.1481 -0.0877
 2370SOL     OW 9251   4.378   5.098   4.004  0.5972  0.3105 -0.1930
 2370SOL    HW2 9252   4.429   5.113   4.083 -0.6993  1.4584  0.4673
 2370SOL    HW3 9253   4.351   5.007   4.009  2.5594 -0.3265 -0.5714
 2370SOL    MW4 9254   4.381   5.088   4.015 -0.1064 -0.1455  0.1588
 2371SOL     OW 9255   2.734   2.505   4.733  0.5175 -0.4701 -0.0405
 2371SOL    HW2 9256   2.737   2.418   4.694  1.5670  0.2364 -1.6639
 2371SOL    HW3 9257   2.825   2.535   4.730 -0.3482  2.5347 -4.0616
 2371SOL    MW4 9258   2.747   2.498   4.728 -0.3696  0.2101  0.3318
 2372SOL     OW 9259   4.879   2.442   1.778 -0.4907 -0.2331 -0.0332
 2372SOL    HW2 9260   4.911   2.473   1.863 -0.0285 -2.2894  0.6018
 2372SOL    HW3 9261   4.802   2.389   1.798 -0.0317 -1.2430 -0.8110
 2372SOL    MW4 9262   4.873   2.439   1.792 -0.5204  0.8628  0.6072
 2373SOL     OW 9263   2.924   2.103   3.756 -0.2372  0.2030  0.0611
 2373SOL    HW2 9264   2.842   2.067   3.788 -0.3941 -0.9375 -1.5182
 2373SOL    HW3 9265   2.919   2.197   3.776 -1.3927 -0.0437  1.0315
 2373SOL    MW4 9266   2.913   2.111   3.763  0.0704 -0.7356  0.1333
 2374SOL     OW 9267   3.898   2.345   4.167 -0.3157 -0.4173 -0.8587
 2374SOL    HW2 9268   3.909   2.303   4.253 -1.2888  1.6726  0.3795
 2374SOL    HW3 9269   3.945   2.428   4.175 -2.3382  0.8620 -1.4884
 2374SOL    MW4 9270   3.905   2.351   4.180  0.1374 -0.1727  0.4823
 2375SOL     OW 9271   0.494   5.726   3.598 -0.3071  0.0250 -0.5265
 2375SOL    HW2 9272   0.459   5.790   3.659 -1.1136 -1.2379  0.3707
 2375SOL    HW3 9273   0.519   5.778   3.521 -3.4605  1.1125 -0.9496
 2375SOL    MW4 9274   0.493   5.741   3.596 -0.3399  0.2213  0.0116
 2376SOL     OW 9275   5.832   1.267   4.908  0.0708  0.0575  0.0952
 2376SOL    HW2 9276   5.759   1.224   4.865 -1.7252  2.1918  0.7893
 2376SOL    HW3 9277   5.884   1.304   4.837  0.3047 -1.1903 -0.3929
 2376SOL    MW4 9278   5.830   1.266   4.893 -0.0605 -0.1037 -0.5752
 2377SOL     OW 9279   3.544   3.372   5.242  0.0158 -0.5506  0.0461
 2377SOL    HW2 9280   3.514   3.337   5.326 -0.1448  0.3376  0.3691
 2377SOL    HW3 9281   3.569   3.294   5.191 -1.8867 -1.2721  0.1250
 2377SOL    MW4 9282   3.543   3.357   5.246 -0.1245  0.1808  0.0390
 2378SOL     OW 9283   3.595   5.212   5.743  0.5554  0.1094  0.1017
 2378SOL    HW2 9284   3.516   5.258   5.714  1.1652  0.1145 -1.6609
 2378SOL    HW3 9285   3.638   5.274   5.803 -0.6738  0.1558  0.9738
 2378SOL    MW4 9286   3.590   5.227   5.747 -1.4890  0.5407  0.3230
 2379SOL     OW 9287   0.824   5.765   6.382 -0.0145  0.2692  0.0843
 2379SOL    HW2 9288   0.905   5.713   6.375  0.5075  0.9434  0.8700
 2379SOL    HW3 9289   0.760   5.715   6.332  0.5768 -0.9333  0.4608
 2379SOL    MW4 9290   0.827   5.751   6.375  0.2271  0.1463 -0.1059
 2380SOL     OW 9291   5.120   4.985   6.164 -0.0369  0.2994 -0.1446
 2380SOL    HW2 9292   5.152   5.030   6.242  4.3016 -0.6917 -1.0311
 2380SOL    HW3 9293   5.122   5.051   6.095  0.5810  0.1750 -0.2582
 2380SOL    MW4 9294   5.125   4.999   6.165 -0.1670  0.1390 -0.1788
 2381SOL     OW 9295   5.819   3.083   2.893  0.4360  0.2544 -0.2374
 2381SOL    HW2 9296   5.787   3.098   2.982  0.4350  0.0361 -0.2006
 2381SOL    HW3 9297   5.770   3.145   2.840  0.6763  0.6178 -0.0407
 2381SOL    MW4 9298   5.808   3.093   2.898 -0.4475  0.1579 -0.5151
 2382SOL     OW 9299   4.497   3.494   2.283  0.1458 -0.0691  0.4109
 2382SOL    HW2 9300   4.512   3.507   2.190  2.7002 -0.9469  0.6245
 2382SOL    HW3 9301   4.459   3.406   2.289  0.4934 -0.2335  0.2274
 2382SOL    MW4 9302   4.494   3.484   2.272 -0.2574  0.1361  0.4240
 2383SOL     OW 9303   0.388   5.413   2.453  0.4804 -0.2060  0.2402
 2383SOL    HW2 9304   0.449   5.432   2.382 -1.2474  2.2328 -0.7527
 2383SOL    HW3 9305   0.305   5.452   2.424 -1.2560 -2.2529  2.0601
 2383SOL    MW4 9306   0.385   5.421   2.440 -0.2329  0.1113 -0.9115
 2384SOL     OW 9307   2.164   1.772   4.030 -0.2451  0.2384  0.1393
 2384SOL    HW2 9308   2.146   1.718   4.108 -1.0617 -2.0615 -1.5403
 2384SOL    HW3 9309   2.119   1.726   3.959  1.6585  1.4749 -1.9650
 2384SOL    MW4 9310   2.155   1.759   4.031  0.2126 -0.3395 -0.6104
 2385SOL     OW 9311   1.030   0.911   2.295  0.2372 -0.2823  0.5877
 2385SOL    HW2 9312   1.042   1.001   2.326 -2.8227  0.0066  1.2166
 2385SOL    HW3 9313   0.947   0.913   2.248  0.7906 -2.5260 -0.6100
 2385SOL    MW4 9314   1.021   0.923   2.293 -0.0090  0.7043  0.0420
 2386SOL     OW 9315   5.154   5.828   2.758 -0.0252 -0.2266  0.2771
 2386SOL    HW2 9316   5.077   5.831   2.701  0.7982 -1.2949 -0.9502
 2386SOL    HW3 9317   5.154   5.913   2.803 -2.1709 -0.3852  0.6888
 2386SOL    MW4 9318   5.144   5.840   2.756  0.2943 -0.2783  0.1646
 2387SOL     OW 9319   4.848   4.268   3.705  0.3879 -0.6119 -0.1614
 2387SOL    HW2 9320   4.868   4.330   3.775  0.1313  0.8830 -1.3632
 2387SOL    HW3 9321   4.934   4.236   3.676  0.5495 -0.4988  0.1922
 2387SOL    MW4 9322   4.862   4.272   3.710  0.4329 -0.1987  0.5447
 2388SOL     OW 9323   4.708   4.487   2.395  0.6960  0.0979  0.3088
 2388SOL    HW2 9324   4.779   4.424   2.407  0.5854 -0.5274 -1.8247
 2388SOL    HW3 9325   4.628   4.438   2.411  0.6799  0.3519  1.0314
 2388SOL    MW4 9326   4.707   4.472   2.398  0.2672  0.0120  0.9166
 2389SOL     OW 9327   6.215   0.243   3.766  0.1304  0.5520 -0.0154
 2389SOL    HW2 9328   6.231   0.252   3.860 -0.1295  0.0582  0.0755
 2389SOL    HW3 9329   6.143   0.303   3.748 -0.0644  0.3729  0.1676
 2389SOL    MW4 9330   6.208   0.252   3.776  0.1298  0.0780  0.1291
 2390SOL     OW 9331   6.056   1.064   1.613  0.1740  0.1464  0.2082
 2390SOL    HW2 9332   5.994   1.129   1.647  0.2986  0.5769 -0.3654
 2390SOL    HW3 9333   6.142   1.103   1.628  0.3892 -0.8915  1.9265
 2390SOL    MW4 9334   6.059   1.078   1.620  0.0825 -0.0960 -0.2002
 2391SOL     OW 9335   2.158   2.708   3.243 -0.0209  0.2010 -0.5057
 2391SOL    HW2 9336   2.175   2.618   3.270 -0.9481 -0.0476 -0.7063
 2391SOL    HW3 9337   2.155   2.758   3.325  2.3651  0.4316 -0.4778
 2391SOL    MW4 9338   2.160   2.703   3.257 -0.0203 -0.1223  0.4855
 2392SOL     OW 9339   1.649   6.002   5.765 -0.2115 -0.1086 -0.4815
 2392SOL    HW2 9340   1.609   5.939   5.826  1.7896 -0.6775  0.3494
 2392SOL    HW3 9341   1.581   6.019   5.700 -1.3132 -2.0688  0.0568
 2392SOL    MW4 9342   1.635   5.996   5.764 -0.1842  0.6863  0.3633
 2393SOL     OW 9343   3.951   5.198   1.519  0.3908 -0.1328  0.1479
 2393SOL    HW2 9344   3.932   5.118   1.567 -0.8922  0.7170  1.1144
 2393SOL    HW3 9345   4.037   5.226   1.553  1.8293 -2.0908 -1.6390
 2393SOL    MW4 9346   3.960   5.191   1.530  0.9163  0.0271 -0.2952
 2394SOL     OW 9347   4.554   4.465   2.736  0.2569 -0.0482 -0.3113
 2394SOL    HW2 9348   4.614   4.401   2.696  1.2849  0.8338 -0.2309
 2394SOL    HW3 9349   4.604   4.501   2.810  1.0466  3.1723 -2.2303
 2394SOL    MW4 9350   4.569   4.461   2.741  0.3789 -0.2036  0.1245
 2395SOL     OW 9351   5.805   1.766   5.312  0.4348  0.4160  0.6409
 2395SOL    HW2 9352   5.830   1.695   5.253  0.8371 -0.1141  1.4206
 2395SOL    HW3 9353   5.716   1.790   5.286  0.2254 -0.5090  0.4932
 2395SOL    MW4 9354   5.796   1.760   5.301  0.7392  0.1211  0.2548
 2396SOL     OW 9355   6.402   3.898   6.385  0.1213 -0.3810 -0.1823
 2396SOL    HW2 9356   6.360   3.822   6.345 -0.7475 -0.4778  0.8559
 2396SOL    HW3 9357   6.440   3.946   6.312  0.8836 -1.9163 -0.8469
 2396SOL    MW4 9358   6.401   3.894   6.370  0.4121  0.4230  0.1878
 2397SOL     OW 9359   0.464   2.558   0.067  0.3456  0.1502 -0.0488
 2397SOL    HW2 9360   0.453   2.644   0.027 -1.4707 -0.2228 -0.4326
 2397SOL    HW3 9361   0.559   2.542   0.064  0.7170  2.0754 -0.0278
 2397SOL    MW4 9362   0.475   2.567   0.062  0.4205 -0.4800 -0.1770
 2398SOL     OW 9363   5.491   0.753   4.756 -0.5260 -0.3851  0.4669
 2398SOL    HW2 9364   5.501   0.667   4.796 -0.0630 -0.5227  0.0590
 2398SOL    HW3 9365   5.565   0.761   4.697  0.4490  1.0288  1.8085
 2398SOL    MW4 9366   5.502   0.743   4.753 -0.1788  0.3432  0.0029
 2399SOL     OW 9367   0.821   5.650   0.220 -0.2508  0.0020 -0.1100
 2399SOL    HW2 9368   0.756   5.608   0.277  0.1180 -1.9992 -1.0720
 2399SOL    HW3 9369   0.769   5.686   0.149 -0.4705 -0.0145  0.0388
 2399SOL    MW4 9370   0.806   5.649   0.218  0.0876  0.5811 -0.5519
 2400SOL     OW 9371   3.278   2.406   1.127  0.2966  0.2708 -0.0702
 2400SOL    HW2 9372   3.316   2.320   1.148  0.8742  0.3108 -0.8889
 2400SOL    HW3 9373   3.352   2.466   1.131  0.5230  0.2523 -2.3372
 2400SOL    MW4 9374   3.293   2.402   1.130  0.3917 -0.5645  0.1963
 2401SOL     OW 9375   6.252   2.325   1.444  0.2775 -0.3711 -0.1004
 2401SOL    HW2 9376   6.321   2.361   1.388  1.3671 -1.5599  0.4343
 2401SOL    HW3 9377   6.264   2.230   1.438 -0.9478 -0.5779  0.4746
 2401SOL    MW4 9378   6.263   2.317   1.436 -0.1158 -0.1177  0.2445
 2402SOL     OW 9379   0.817   1.800   0.545  0.0577  0.1419 -0.3801
 2402SOL    HW2 9380   0.781   1.880   0.507  1.1415  1.1892  0.7246
 2402SOL    HW3 9381   0.740   1.747   0.567 -0.6368 -0.1071 -3.0552
 2402SOL    MW4 9382   0.802   1.803   0.543 -0.0626 -0.1888 -0.4854
 2403SOL     OW 9383   2.310   4.512   5.744 -0.5950 -0.1452 -0.3342
 2403SOL    HW2 9384   2.300   4.441   5.808 -0.3200 -2.0833 -2.3083
 2403SOL    HW3 9385   2.354   4.582   5.793 -1.5590 -1.0114  1.9037
 2403SOL    MW4 9386   2.315   4.512   5.759  0.4700 -0.5647 -0.2080
 2404SOL     OW 9387   0.081   1.626   3.441  0.3194 -0.4773 -0.2103
 2404SOL    HW2 9388   0.064   1.533   3.459  0.9233 -0.6692 -0.5844
 2404SOL    HW3 9389   0.165   1.643   3.484  0.1699 -0.0797 -0.0723
 2404SOL    MW4 9390   0.090   1.616   3.449 -0.2314  0.2276 -0.1924
 2405SOL     OW 9391   5.683   4.964   3.401 -0.0604 -0.3014 -0.1701
 2405SOL    HW2 9392   5.665   4.872   3.386  1.6552 -0.6608 -0.2342
 2405SOL    HW3 9393   5.605   5.010   3.369 -1.7869 -1.8123  1.6905
 2405SOL    MW4 9394   5.670   4.958   3.395 -0.2858  0.3001  0.6895
 2406SOL     OW 9395   3.601   2.253   0.585  0.0711 -0.4129 -0.5048
 2406SOL    HW2 9396   3.638   2.320   0.643  0.7839 -0.9813 -0.2936
 2406SOL    HW3 9397   3.543   2.201   0.641 -0.0252 -0.3413 -0.5370
 2406SOL    MW4 9398   3.598   2.255   0.600  0.4969  0.0007  0.3623
 2407SOL     OW 9399   5.022   1.360   2.075 -0.4515 -0.0724  0.3370
 2407SOL    HW2 9400   5.059   1.272   2.083  0.1986  0.1191 -0.4267
 2407SOL    HW3 9401   5.084   1.407   2.018 -1.0635  0.7210  0.3102
 2407SOL    MW4 9402   5.035   1.355   2.068  0.1344  0.0526  0.2380
 2408SOL     OW 9403   3.112   6.070   2.535  0.4824 -0.2139 -0.3327
 2408SOL    HW2 9404   3.030   6.108   2.504  0.8837  1.1904  0.2588
 2408SOL    HW3 9405   3.085   6.005   2.599 -0.1891 -0.2606 -0.6484
 2408SOL    MW4 9406   3.098   6.066   2.539 -0.5033  0.2277 -0.1274
 2409SOL     OW 9407   0.414   3.606   0.723 -0.3110 -0.0028 -0.6726
 2409SOL    HW2 9408   0.359   3.590   0.800 -2.6585 -0.3521 -2.3148
 2409SOL    HW3 9409   0.490   3.550   0.736 -1.2015 -0.9340  0.8689
 2409SOL    MW4 9410   0.416   3.596   0.735 -0.9396 -0.0143 -0.4059
 2410SOL     OW 9411   5.340   2.784   2.663 -0.2637  0.7136  1.2002
 2410SOL    HW2 9412   5.399   2.753   2.732 -0.0149 -0.7064  0.3975
 2410SOL    HW3 9413   5.389   2.770   2.581 -0.9556  1.3653  0.6606
 2410SOL    MW4 9414   5.354   2.778   2.661 -0.1425 -0.3188 -0.1882
 2411SOL     OW 9415   2.623   0.287   5.269  0.5001  0.1952 -0.3146
 2411SOL    HW2 9416   2.648   0.198   5.242 -0.7261 -0.5661  0.9018
 2411SOL    HW3 9417   2.686   0.344   5.226  2.6839 -1.4193  0.5868
 2411SOL    MW4 9418   2.635   0.283   5.260  0.2371  0.7009 -0.1141
 2412SOL     OW 9419   4.965   0.919   3.529 -0.3199 -0.1244  0.8155
 2412SOL    HW2 9420   4.975   0.886   3.440 -1.0108  1.7623 -0.0225
 2412SOL    HW3 9421   5.002   0.851   3.585  3.6849  0.2190 -1.1086
 2412SOL    MW4 9422   4.971   0.906   3.525  0.2062  0.0995 -0.2319
 2413SOL     OW 9423   6.381   5.217   2.304 -0.3217  0.3181  0.2303
 2413SOL    HW2 9424   6.321   5.230   2.378  1.3190 -0.9119  1.9032
 2413SOL    HW3 9425   6.457   5.172   2.343  0.7069 -0.2197 -2.2006
 2413SOL    MW4 9426   6.383   5.213   2.319 -0.2239 -0.1279  0.0952
 2414SOL     OW 9427   4.663   1.195   0.620  0.2357 -0.2440  0.1864
 2414SOL    HW2 9428   4.735   1.155   0.572 -0.2521 -0.9368  0.0137
 2414SOL    HW3 9429   4.641   1.132   0.688  1.1218  0.8565  1.5662
 2414SOL    MW4 9430   4.669   1.182   0.622  0.3102 -0.2506 -0.4572
 2415SOL     OW 9431   4.647   2.327   0.229 -0.6651 -0.5884 -0.5431
 2415SOL    HW2 9432   4.625   2.234   0.232 -0.1335 -0.8297 -2.6142
 2415SOL    HW3 9433   4.735   2.330   0.191 -0.8187  0.7544 -0.8446
 2415SOL    MW4 9434   4.656   2.315   0.224  0.5634  0.3138 -0.2117
 2416SOL     OW 9435   2.111   6.043   2.739  0.1699 -0.0994  0.1052
 2416SOL    HW2 9436   2.084   5.958   2.775  1.4000  0.2174  1.9146
 2416SOL    HW3 9437   2.032   6.096   2.743 -0.5255 -1.0388 -0.7085
 2416SOL    MW4 9438   2.097   6.039   2.744 -0.4259  0.0128  0.2823
 2417SOL     OW 9439   3.660   4.531   2.392  0.1925 -0.4316  0.5223
 2417SOL    HW2 9440   3.736   4.479   2.364  0.3457  0.5592 -1.0301
 2417SOL    HW3 9441   3.584   4.476   2.372  0.4421 -1.0035  1.1067
 2417SOL    MW4 9442   3.660   4.517   2.385 -0.4581  0.2671  0.1238
 2418SOL     OW 9443   2.133   4.373   1.605 -0.1681  0.2665  0.9694
 2418SOL    HW2 9444   2.115   4.297   1.660  0.0240  0.2609  1.0237
 2418SOL    HW3 9445   2.073   4.440   1.637 -1.1562 -0.2113  0.1738
 2418SOL    MW4 9446   2.122   4.371   1.616 -0.2243  0.6160 -0.4530
 2419SOL     OW 9447   2.227   0.410   1.157  0.1023  1.1255 -0.0395
 2419SOL    HW2 9448   2.183   0.444   1.078  1.0307  0.7932 -0.7190
 2419SOL    HW3 9449   2.172   0.336   1.185  0.8860 -0.1500 -1.6707
 2419SOL    MW4 9450   2.214   0.405   1.150  0.2166  0.6584  0.0706
 2420SOL     OW 9451   0.690   6.029   4.383 -0.2392  0.6448  0.0850
 2420SOL    HW2 9452   0.698   6.062   4.293 -0.1364  1.6463  0.4429
 2420SOL    HW3 9453   0.749   6.084   4.434  0.0127 -0.1870  0.7056
 2420SOL    MW4 9454   0.699   6.041   4.378  0.1844 -0.2272 -0.1451
 2421SOL     OW 9455   1.719   0.828   4.045  0.1879  0.0532  0.7503
 2421SOL    HW2 9456   1.697   0.874   3.964  3.2534 -1.6868 -1.2592
 2421SOL    HW3 9457   1.766   0.893   4.098  1.7823  0.1564 -0.7249
 2421SOL    MW4 9458   1.722   0.843   4.042 -0.4718 -0.2715  0.4644
 2422SOL     OW 9459   1.555   5.681   1.164 -0.3025  0.2325  0.1455
 2422SOL    HW2 9460   1.507   5.764   1.173  0.0082  0.2380  2.1638
 2422SOL    HW3 9461   1.647   5.705   1.171 -0.2224 -0.2972  1.0902
 2422SOL    MW4 9462   1.561   5.695   1.166 -0.0024  0.6847  0.4092
 2423SOL     OW 9463   2.918   1.424   4.616  0.0687 -0.3242 -0.0918
 2423SOL    HW2 9464   2.979   1.370   4.566 -0.5373 -1.8126  0.7279
 2423SOL    HW3 9465   2.831   1.394   4.590 -0.2720 -0.4329  1.0803
 2423SOL    MW4 9466   2.915   1.413   4.606  0.9050  0.0515  0.0523
 2424SOL     OW 9467   0.767   3.116   4.435  0.0169  0.6046 -0.4858
 2424SOL    HW2 9468   0.771   3.147   4.345 -0.8960  0.6359 -0.5244
 2424SOL    HW3 9469   0.755   3.021   4.427 -3.9174  0.9363 -0.5333
 2424SOL    MW4 9470   0.766   3.108   4.422 -0.1442 -0.2427 -0.7089
 2425SOL     OW 9471   6.077   1.305   2.993 -0.2777 -0.2860 -0.5937
 2425SOL    HW2 9472   6.125   1.386   3.009 -1.4523  0.6382 -1.5071
 2425SOL    HW3 9473   5.991   1.335   2.963 -1.6683 -1.8355  1.5720
 2425SOL    MW4 9474   6.072   1.320   2.991 -0.3728  0.9029 -0.4287
 2426SOL     OW 9475   0.651   5.056   4.867  0.1884 -0.6434  0.4732
 2426SOL    HW2 9476   0.590   5.037   4.939 -1.8806  0.1254 -0.9638
 2426SOL    HW3 9477   0.697   4.974   4.852 -0.7818 -1.3865  1.3643
 2426SOL    MW4 9478   0.649   5.043   4.875 -0.0787  0.1689  0.2603
 2427SOL     OW 9479   0.294   4.995   2.692  0.8045 -0.0443  0.0287
 2427SOL    HW2 9480   0.282   4.901   2.710 -0.0141  0.2513  1.1691
 2427SOL    HW3 9481   0.252   5.039   2.766  1.2535  1.2332 -0.4440
 2427SOL    MW4 9482   0.287   4.988   2.704 -0.0908  0.5246 -0.4780
 2428SOL     OW 9483   2.220   0.988   4.195  0.1533  0.0680 -0.1344
 2428SOL    HW2 9484   2.251   1.051   4.260  1.5040 -1.2155  0.5178
 2428SOL    HW3 9485   2.133   1.020   4.170  0.6988  2.0275  0.3530
 2428SOL    MW4 9486   2.212   1.000   4.201  0.4096  0.8821 -0.0319
 2429SOL     OW 9487   2.233   4.245   4.400  0.4724 -0.2701 -0.1165
 2429SOL    HW2 9488   2.302   4.178   4.403  1.1546  0.4598  1.4460
 2429SOL    HW3 9489   2.213   4.262   4.492 -0.8843  0.4791 -0.5372
 2429SOL    MW4 9490   2.240   4.238   4.413 -0.0588  0.4219 -0.8574
 2430SOL     OW 9491   0.566   0.933   6.178  0.2942 -0.2413 -0.0609
 2430SOL    HW2 9492   0.637   0.958   6.238 -0.2680  0.4552  0.3306
 2430SOL    HW3 9493   0.530   0.853   6.216 -0.1962  0.3089  0.6806
 2430SOL    MW4 9494   0.571   0.926   6.191 -0.3834  0.0016 -0.4247
 2431SOL     OW 9495   6.252   5.313   2.547  0.2059  0.1046 -0.0304
 2431SOL    HW2 9496   6.196   5.283   2.618  0.0271 -0.1888 -0.2925
 2431SOL    HW3 9497   6.217   5.399   2.523 -1.4571 -0.9453 -1.5847
 2431SOL    MW4 9498   6.240   5.320   2.553  0.2084  0.2472  0.5833
 2432SOL     OW 9499   1.421   5.892   6.114 -0.4143 -0.3360 -0.2312
 2432SOL    HW2 9500   1.332   5.895   6.077 -0.4484  0.6400 -0.0930
 2432SOL    HW3 9501   1.411   5.840   6.194 -0.5964 -1.3357 -0.8790
 2432SOL    MW4 9502   1.408   5.885   6.119  0.0393 -0.1337 -0.1112
 2433SOL     OW 9503   5.302   0.638   3.537  0.3413  0.7840 -0.5574
 2433SOL    HW2 9504   5.351   0.556   3.538 -0.9247 -0.1484 -3.3851
 2433SOL    HW3 9505   5.227   0.622   3.594  0.3014  0.0896 -0.8001
 2433SOL    MW4 9506   5.298   0.625   3.545 -0.0984  0.0175 -0.1019
 2434SOL     OW 9507   1.161   5.219   3.852 -0.1557 -0.0321 -0.4344
 2434SOL    HW2 9508   1.148   5.126   3.838 -1.6150 -0.4707  2.8071
 2434SOL    HW3 9509   1.245   5.225   3.898  0.1754  0.3206 -1.0724
 2434SOL    MW4 9510   1.170   5.208   3.857 -0.1991  0.2448  0.2509
 2435SOL     OW 9511   4.080   0.972   5.886 -0.6131 -0.4167 -0.6253
 2435SOL    HW2 9512   3.999   1.022   5.890 -1.0792 -1.2223  1.6401
 2435SOL    HW3 9513   4.078   0.917   5.965  1.7801 -0.9999 -0.8924
 2435SOL    MW4 9514   4.069   0.971   5.897 -0.7443  0.4543  0.2256
 2436SOL     OW 9515   4.622   3.882   2.944 -0.1709  0.2819  0.0721
 2436SOL    HW2 9516   4.651   3.822   2.875  1.0775  1.0554 -0.1034
 2436SOL    HW3 9517   4.572   3.827   3.004  3.5833 -1.7171  1.6741
 2436SOL    MW4 9518   4.619   3.867   2.942 -0.1091 -0.1011 -0.5086
 2437SOL     OW 9519   2.600   2.132   5.904  0.4265  0.7318 -0.2186
 2437SOL    HW2 9520   2.670   2.100   5.848 -0.8757 -0.1573 -1.3993
 2437SOL    HW3 9521   2.578   2.218   5.868  0.4673  0.7280 -0.2534
 2437SOL    MW4 9522   2.606   2.139   5.892 -0.5651  0.7633  0.3801
 2438SOL     OW 9523   0.380   6.338   6.012 -0.0822  0.5378  0.3668
 2438SOL    HW2 9524   0.382   6.430   5.988  1.0690  0.3714 -0.2658
 2438SOL    HW3 9525   0.440   6.296   5.950  0.1720 -0.4716  1.2691
 2438SOL    MW4 9526   0.388   6.344   6.001  0.0320 -0.1964 -0.0580
 2439SOL     OW 9527   2.479   5.232   5.115 -0.1335  0.0605 -0.3847
 2439SOL    HW2 9528   2.561   5.274   5.143  0.4749 -1.1587 -0.2528
 2439SOL    HW3 9529   2.503   5.182   5.037 -0.7621 -0.2600 -0.3788
 2439SOL    MW4 9530   2.493   5.231   5.109  0.3478  0.3746  0.0323
 2440SOL     OW 9531   2.757   1.072   5.133  0.1383 -0.5308  0.2420
 2440SOL    HW2 9532   2.673   1.118   5.121  1.0010  1.4844  1.3262
 2440SOL    HW3 9533   2.815   1.111   5.067  1.0461  0.4528  1.5619
 2440SOL    MW4 9534   2.753   1.084   5.123 -0.5520 -0.6442  0.2514
 2441SOL     OW 9535   3.138   4.560   0.455  0.0216 -0.1549 -0.0241
 2441SOL    HW2 9536   3.118   4.507   0.532  0.9956 -0.3688  0.0981
 2441SOL    HW3 9537   3.055   4.568   0.408 -0.7600  0.5983  1.4199
 2441SOL    MW4 9538   3.124   4.554   0.459  0.7171  0.1604  0.2003
 2442SOL     OW 9539   2.210   2.881   4.405  0.5918 -0.4344 -0.2377
 2442SOL    HW2 9540   2.135   2.888   4.463 -0.8966  0.0461 -2.1146
 2442SOL    HW3 9541   2.270   2.949   4.435 -0.6362  0.5458  0.0570
 2442SOL    MW4 9542   2.208   2.891   4.416 -0.8993 -0.1688 -0.4222
 2443SOL     OW 9543   5.842   2.118   2.052  0.1958  0.2724 -0.9639
 2443SOL    HW2 9544   5.839   2.213   2.061 -0.7039  0.1691  0.1898
 2443SOL    HW3 9545   5.750   2.091   2.053  0.4418 -0.7683  1.3199
 2443SOL    MW4 9546   5.829   2.127   2.053 -0.1447  0.5092 -0.0637
 2444SOL     OW 9547   5.881   4.634   0.414 -0.5784  0.6881 -0.3214
 2444SOL    HW2 9548   5.873   4.570   0.484 -2.6600 -0.5396 -1.5691
 2444SOL    HW3 9549   5.933   4.589   0.347  0.6387  1.5247  0.0217
 2444SOL    MW4 9550   5.887   4.620   0.414  0.1096 -0.1251  0.0222
 2445SOL     OW 9551   0.264   1.852   2.217  0.4084  0.5725 -0.3216
 2445SOL    HW2 9552   0.229   1.864   2.306 -0.8253 -2.4398 -0.2868
 2445SOL    HW3 9553   0.191   1.873   2.160 -0.8645 -3.0964 -0.3224
 2445SOL    MW4 9554   0.250   1.857   2.221  0.1289  0.2830  0.0841
 2446SOL     OW 9555   3.111   3.102   3.427  0.3411  0.0203 -0.0096
 2446SOL    HW2 9556   3.141   3.171   3.368 -3.0944  0.9287 -0.9674
 2446SOL    HW3 9557   3.110   3.143   3.513 -0.5334  0.8141 -0.3789
 2446SOL    MW4 9558   3.115   3.116   3.430 -0.0480 -0.2425 -0.1960
 2447SOL     OW 9559   4.518   4.112   4.068 -0.2827  0.1098  0.1104
 2447SOL    HW2 9560   4.512   4.016   4.069  0.9473 -0.0042  2.1688
 2447SOL    HW3 9561   4.546   4.133   3.978 -0.5205 -1.4499 -0.3630
 2447SOL    MW4 9562   4.521   4.102   4.056  0.3629  0.0922  0.3494
 2448SOL     OW 9563   4.389   4.705   3.442 -0.0099 -0.3629 -0.3061
 2448SOL    HW2 9564   4.373   4.746   3.527  0.1199 -1.8984  0.4827
 2448SOL    HW3 9565   4.475   4.738   3.416  0.0108  0.0135  0.2191
 2448SOL    MW4 9566   4.399   4.715   3.450 -0.2347 -0.4618 -0.5386
 2449SOL     OW 9567   5.027   1.565   5.812  0.3462 -0.2036 -0.2367
 2449SOL    HW2 9568   5.029   1.630   5.882  0.7961 -1.3073  0.8220
 2449SOL    HW3 9569   5.058   1.484   5.854  2.0597 -0.5727 -2.0761
 2449SOL    MW4 9570   5.031   1.563   5.827  0.0492  0.5415 -0.4971
 2450SOL     OW 9571   0.984   2.082   1.426 -0.0526  0.6175  0.0465
 2450SOL    HW2 9572   1.021   2.043   1.346 -1.3669  1.7052 -1.1262
 2450SOL    HW3 9573   1.052   2.143   1.456  1.2836 -1.2045  0.9227
 2450SOL    MW4 9574   0.998   2.085   1.419  0.8498  0.0485  0.8579
 2451SOL     OW 9575   1.026   1.206   2.268  0.3809  0.2418 -1.0237
 2451SOL    HW2 9576   1.121   1.202   2.269  0.3969  0.0525 -2.2779
 2451SOL    HW3 9577   1.005   1.270   2.200 -0.3687  2.0465  0.8060
 2451SOL    MW4 9578   1.036   1.214   2.259  0.4210 -0.2160  0.1711
 2452SOL     OW 9579   5.969   0.458   3.174 -0.4396  0.5041  0.2035
 2452SOL    HW2 9580   5.914   0.527   3.212 -2.3452 -0.3293 -0.9310
 2452SOL    HW3 9581   5.911   0.411   3.115  0.9446 -1.8084  0.5893
 2452SOL    MW4 9582   5.954   0.461   3.171  0.6181  0.0824  0.1642
 2453SOL     OW 9583   4.434   3.097   3.096  0.8745  0.1629  0.6889
 2453SOL    HW2 9584   4.363   3.113   3.159  0.6909  0.3556  0.4318
 2453SOL    HW3 9585   4.494   3.170   3.108  0.6691  0.3776  0.4005
 2453SOL    MW4 9586   4.433   3.109   3.106 -0.2307  0.5498  0.3229
 2454SOL     OW 9587   3.541   2.602   4.350 -0.0139 -0.1578  0.1581
 2454SOL    HW2 9588   3.494   2.568   4.426  1.7722  0.5955  1.6768
 2454SOL    HW3 9589   3.483   2.671   4.315 -0.5306  0.0089  1.3104
 2454SOL    MW4 9590   3.527   2.607   4.355 -0.3140  0.4289  0.4244
 2455SOL     OW 9591   1.319   4.173   6.242  0.2501 -0.0900 -0.3694
 2455SOL    HW2 9592   1.357   4.103   6.190 -1.2614 -1.9304  0.8382
 2455SOL    HW3 9593   1.251   4.211   6.186 -1.7555 -2.4267  0.3020
 2455SOL    MW4 9594   1.315   4.169   6.228 -0.1648  0.6660 -0.1267
 2456SOL     OW 9595   5.816   4.232   5.168 -0.6803  0.4747 -0.0129
 2456SOL    HW2 9596   5.773   4.251   5.084 -1.6734  0.1185  0.3943
 2456SOL    HW3 9597   5.863   4.312   5.189  1.5471 -0.1894 -2.0273
 2456SOL    MW4 9598   5.816   4.245   5.159 -0.2136  0.0880  0.1441
 2457SOL     OW 9599   6.259   0.010   3.325  0.3214  0.1966 -0.2919
 2457SOL    HW2 9600   6.240   0.020   3.419  1.3633 -0.4753  0.0078
 2457SOL    HW3 9601   6.174   0.024   3.282 -0.9299 -2.6497  0.9828
 2457SOL    MW4 9602   6.245   0.013   3.332  0.5557 -0.4154  0.0825
 2458SOL     OW 9603   2.074   5.808   5.217 -0.0391  0.2500  0.1992
 2458SOL    HW2 9604   2.154   5.774   5.177 -1.4210 -1.2645 -1.4687
 2458SOL    HW3 9605   2.078   5.781   5.308  1.8953  1.3086  0.4726
 2458SOL    MW4 9606   2.085   5.800   5.224 -0.3282 -0.1485  0.3327
 2459SOL     OW 9607   2.372   4.134   1.031  0.7571 -0.3145  0.0550
 2459SOL    HW2 9608   2.352   4.227   1.043  0.4197 -0.5358  1.2963
 2459SOL    HW3 9609   2.406   4.105   1.115  1.3936 -1.1990 -0.4825
 2459SOL    MW4 9610   2.374   4.142   1.044  0.1799  0.0960 -1.0831
 2460SOL     OW 9611   1.873   3.440   1.818 -0.0649  0.9388  0.3063
 2460SOL    HW2 9612   1.820   3.516   1.841 -0.4507  0.6585  0.3465
 2460SOL    HW3 9613   1.848   3.419   1.728 -1.3386 -0.2757  0.9091
 2460SOL    MW4 9614   1.863   3.447   1.809 -0.2257  0.2742  0.4517
 2461SOL     OW 9615   0.552   4.243   3.305 -0.1058 -0.4629 -0.7426
 2461SOL    HW2 9616   0.625   4.232   3.366 -1.2352 -0.1855  0.7333
 2461SOL    HW3 9617   0.552   4.336   3.283  0.2169 -0.5361 -1.0541
 2461SOL    MW4 9618   0.561   4.254   3.310  0.5672  0.3401  0.2018
 2462SOL     OW 9619   5.349   3.319   6.068 -0.1235  0.1399 -0.5649
 2462SOL    HW2 9620   5.288   3.379   6.023 -1.2252 -0.7574 -0.3188
 2462SOL    HW3 9621   5.410   3.291   5.999  0.6775  1.8298 -0.5971
 2462SOL    MW4 9622   5.349   3.323   6.053  0.5588 -0.7007 -0.6173
 2463SOL     OW 9623   2.651   3.262   1.433  0.0425  0.6950 -0.6318
 2463SOL    HW2 9624   2.655   3.348   1.476 -0.9759  0.1601  0.5729
 2463SOL    HW3 9625   2.728   3.215   1.467 -0.5390  0.4157  0.3469
 2463SOL    MW4 9626   2.662   3.267   1.443  0.6951  0.1260  0.0042
 2464SOL     OW 9627   5.533   5.757   2.029 -0.1872 -0.0411 -0.3143
 2464SOL    HW2 9628   5.588   5.797   1.961 -0.0313 -0.3353 -0.3617
 2464SOL    HW3 9629   5.596   5.716   2.088 -0.3494 -0.2385 -0.2793
 2464SOL    MW4 9630   5.549   5.757   2.028 -0.0698 -0.1896  0.0771
 2465SOL     OW 9631   5.707   0.357   1.332 -0.3709 -0.0221 -0.4043
 2465SOL    HW2 9632   5.670   0.383   1.248  0.6547  1.5409 -0.4142
 2465SOL    HW3 9633   5.658   0.409   1.397 -0.7473 -0.7670 -0.0820
 2465SOL    MW4 9634   5.696   0.367   1.330 -0.2107 -0.1972 -0.1830
 2466SOL     OW 9635   0.347   5.572   3.853  0.0981  0.3918 -0.0214
 2466SOL    HW2 9636   0.285   5.571   3.780 -0.1848  1.0700  0.2026
 2466SOL    HW3 9637   0.293   5.591   3.930  0.6905  2.0413  0.0378
 2466SOL    MW4 9638   0.332   5.575   3.854  0.5921  0.1045 -0.0463
 2467SOL     OW 9639   5.730   3.256   0.164 -0.0280  0.5787  0.1687
 2467SOL    HW2 9640   5.704   3.348   0.169 -0.0650  0.5131  1.9487
 2467SOL    HW3 9641   5.822   3.256   0.190  0.4299  0.2584 -1.3546
 2467SOL    MW4 9642   5.738   3.268   0.168  0.3673 -0.2866  0.0130
 2468SOL     OW 9643   5.680   4.618   0.063 -0.1100 -0.4942 -0.1423
 2468SOL    HW2 9644   5.680   4.522   0.054 -1.4240 -0.5091 -0.2871
 2468SOL    HW3 9645   5.593   4.644   0.031  0.0853  0.7093  0.2743
 2468SOL    MW4 9646   5.668   4.608   0.058  0.1309  0.1431  0.1304
 2469SOL     OW 9647   5.221   2.535   2.627 -0.7780  0.2035  0.1409
 2469SOL    HW2 9648   5.242   2.628   2.635  0.0630  0.1252 -0.9683
 2469SOL    HW3 9649   5.133   2.533   2.589 -0.7962  0.5431  0.1662
 2469SOL    MW4 9650   5.212   2.547   2.623 -0.0131  0.1683  0.5459
 2470SOL     OW 9651   3.516   5.045   0.620 -0.6784 -0.1146 -0.2723
 2470SOL    HW2 9652   3.464   4.982   0.570  1.1890 -0.7795 -1.4843
 2470SOL    HW3 9653   3.494   5.130   0.582 -2.3121 -0.1012  0.5752
 2470SOL    MW4 9654   3.506   5.048   0.609 -0.5321  0.3566 -0.1844
 2471SOL     OW 9655   1.400   3.451   3.281 -0.1817 -0.0630 -0.1632
 2471SOL    HW2 9656   1.364   3.477   3.366 -1.6611 -0.0548 -0.7628
 2471SOL    HW3 9657   1.487   3.492   3.278 -0.7575  1.2786  0.6828
 2471SOL    MW4 9658   1.407   3.460   3.292  0.1236  0.0510  0.2528
 2472SOL     OW 9659   5.430   0.065   2.109 -0.2393 -0.2849  0.5009
 2472SOL    HW2 9660   5.373   0.059   2.032  1.2316 -0.8651 -0.6097
 2472SOL    HW3 9661   5.447   0.158   2.119  0.7826 -0.2823 -0.8870
 2472SOL    MW4 9662   5.425   0.076   2.100 -0.2366  0.2934 -0.0507
 2473SOL     OW 9663   1.174   6.305   5.649  0.6814  0.4369  0.5307
 2473SOL    HW2 9664   1.206   6.353   5.726  1.2802  0.1279  0.4833
 2473SOL    HW3 9665   1.238   6.324   5.581  1.0149 -0.5468  0.5564
 2473SOL    MW4 9666   1.187   6.314   5.651  0.3236 -0.1547 -0.1892
 2474SOL     OW 9667   4.600   0.020   0.070  0.3101  0.2507 -0.3766
 2474SOL    HW2 9668   4.581   0.041  -0.022  1.0904  0.7769 -0.4203
 2474SOL    HW3 9669   4.575  -0.072   0.078 -3.7498  1.1841 -0.0231
 2474SOL    MW4 9670   4.594   0.010   0.059  0.2001 -0.4314  0.1130
 2475SOL     OW 9671   5.058   4.716   2.203 -0.3358 -0.3288 -0.5493
 2475SOL    HW2 9672   5.135   4.679   2.246  1.6710  2.3789 -1.4938
 2475SOL    HW3 9673   4.995   4.728   2.274  1.4276  0.5321  0.9773
 2475SOL    MW4 9674   5.060   4.713   2.218 -0.2777  0.1146 -0.4248
 2476SOL     OW 9675   4.912   1.020   3.985  0.0400  0.2676  0.2367
 2476SOL    HW2 9676   4.968   1.098   3.979  1.9959 -1.0264  0.6339
 2476SOL    HW3 9677   4.847   1.032   3.915  1.5225  1.3070 -1.0498
 2476SOL    MW4 9678   4.911   1.032   3.975  0.0072  0.2363 -0.1315
 2477SOL     OW 9679   4.219   4.041   1.948 -0.4450  0.1609  0.3068
 2477SOL    HW2 9680   4.308   4.078   1.941 -1.1480  1.8928 -0.0081
 2477SOL    HW3 9681   4.203   4.034   2.042  0.0979 -0.3661  0.3654
 2477SOL    MW4 9682   4.229   4.045   1.960  0.8992  0.6770 -0.3696
 2478SOL     OW 9683   3.799   1.444   4.496 -0.2615 -0.1227  0.5435
 2478SOL    HW2 9684   3.792   1.402   4.582  0.8061  0.1131  0.7566
 2478SOL    HW3 9685   3.885   1.419   4.464 -0.3928  0.3270 -0.1783
 2478SOL    MW4 9686   3.809   1.435   4.503  0.5200 -0.2278 -0.4783
 2479SOL     OW 9687   1.589   0.502   1.811  0.5423  0.0460  0.3314
 2479SOL    HW2 9688   1.517   0.559   1.782 -0.2291 -1.4211 -0.7462
 2479SOL    HW3 9689   1.646   0.561   1.860 -0.4870  1.6478 -0.2706
 2479SOL    MW4 9690   1.587   0.517   1.813 -0.1678 -0.0313 -0.3832
 2480SOL     OW 9691   5.630   2.444   3.494  0.7200  0.1923 -0.6924
 2480SOL    HW2 9692   5.693   2.399   3.437  0.6763 -1.4478  0.4942
 2480SOL    HW3 9693   5.589   2.509   3.437  1.3865 -0.7158 -2.2735
 2480SOL    MW4 9694   5.633   2.447   3.479  0.5103  0.2202  0.1440
 2481SOL     OW 9695   5.589   1.136   4.501 -0.5955 -0.3483  0.2212
 2481SOL    HW2 9696   5.657   1.088   4.453 -1.1895 -1.8630  0.8356
 2481SOL    HW3 9697   5.507   1.099   4.470 -1.0574 -0.0231  1.0244
 2481SOL    MW4 9698   5.587   1.125   4.491  1.2281  0.5609 -0.0568
 2482SOL     OW 9699   0.313   4.158   4.740  0.4934 -0.6524  0.1132
 2482SOL    HW2 9700   0.368   4.213   4.796  0.5559 -0.4233 -0.1715
 2482SOL    HW3 9701   0.342   4.177   4.651 -1.7712  1.4526 -0.2807
 2482SOL    MW4 9702   0.324   4.168   4.736  0.3345  0.2898  0.9127
 2483SOL     OW 9703   4.252   4.217   5.251 -0.1717 -0.2136 -0.3633
 2483SOL    HW2 9704   4.316   4.279   5.217  0.4344 -0.3463  0.5024
 2483SOL    HW3 9705   4.170   4.265   5.252 -0.6837 -0.7319 -3.7093
 2483SOL    MW4 9706   4.250   4.231   5.247 -0.2710  0.1906 -0.1403
 2484SOL     OW 9707   2.286   2.187   3.582 -0.6195  0.0692  0.4849
 2484SOL    HW2 9708   2.210   2.211   3.528 -0.0959  0.4502 -0.0999
 2484SOL    HW3 9709   2.294   2.259   3.645  0.0152  0.6900 -0.2777
 2484SOL    MW4 9710   2.277   2.200   3.583 -0.1638  0.1979  0.4224
 2485SOL     OW 9711   1.319   0.071   5.812 -0.2925  0.1800 -0.1253
 2485SOL    HW2 9712   1.368   0.135   5.760  0.5918 -0.4702 -0.1320
 2485SOL    HW3 9713   1.386   0.009   5.841 -0.8395  0.2750  1.4151
 2485SOL    MW4 9714   1.334   0.071   5.809  0.2076  0.0626  0.6186
 2486SOL     OW 9715   1.663   0.694   2.607 -0.2327 -0.3411  0.0812
 2486SOL    HW2 9716   1.603   0.719   2.677 -0.1911 -1.4373  0.5264
 2486SOL    HW3 9717   1.744   0.741   2.627 -0.7375  0.6947 -0.2042
 2486SOL    MW4 9718   1.666   0.704   2.619 -0.1166  0.3159  0.3283
 2487SOL     OW 9719   6.033   2.522   4.946  0.2275  0.1804 -0.2527
 2487SOL    HW2 9720   6.037   2.461   5.020  0.4687 -0.2488 -0.6142
 2487SOL    HW3 9721   6.117   2.568   4.949 -0.1526  0.8564  0.3165
 2487SOL    MW4 9722   6.045   2.520   4.957  0.5499 -0.4765  0.5553
 2488SOL     OW 9723   1.046   5.521   3.228  0.2921  0.2499  0.1532
 2488SOL    HW2 9724   1.041   5.462   3.303 -2.4161 -1.7048 -1.4197
 2488SOL    HW3 9725   0.956   5.550   3.213  1.0335  2.0308 -1.3106
 2488SOL    MW4 9726   1.034   5.517   3.236  0.1941  0.3520  0.8574
 2489SOL     OW 9727   0.258   5.724   1.987  0.1130  0.1131  0.1909
 2489SOL    HW2 9728   0.251   5.657   1.919  0.5294 -1.7126  1.8513
 2489SOL    HW3 9729   0.168   5.736   2.018 -0.2117  1.5533 -1.1349
 2489SOL    MW4 9730   0.245   5.717   1.982 -0.6111  0.3590  0.3001
 2490SOL     OW 9731   5.445   1.657   3.221  0.1085  0.4291 -0.5435
 2490SOL    HW2 9732   5.364   1.621   3.259  0.3005 -0.2972 -0.8082
 2490SOL    HW3 9733   5.423   1.748   3.199 -0.4602  0.4100 -0.0866
 2490SOL    MW4 9734   5.432   1.664   3.223  0.0341  0.5385 -0.5527
 2491SOL     OW 9735   2.892   3.013   2.738  0.2614 -0.3959 -0.1675
 2491SOL    HW2 9736   2.821   2.986   2.680  0.7797  1.8283 -1.9691
 2491SOL    HW3 9737   2.972   2.992   2.689  0.7062  1.9659 -0.5646
 2491SOL    MW4 9738   2.893   3.006   2.724 -0.0931  0.0590 -0.2041
 2492SOL     OW 9739   1.600   4.437   1.622 -0.2200  0.3533 -0.2861
 2492SOL    HW2 9740   1.636   4.371   1.562  0.2237  0.6857 -0.3948
 2492SOL    HW3 9741   1.553   4.386   1.688  0.4541 -0.0977 -0.1380
 2492SOL    MW4 9742   1.598   4.421   1.623 -0.7147 -0.2026  0.8233
 2493SOL     OW 9743   3.329   0.903   2.962 -0.4282 -0.1911  0.3825
 2493SOL    HW2 9744   3.340   0.895   2.867 -0.3539  0.9963  0.2777
 2493SOL    HW3 9745   3.372   0.825   2.997 -2.4922 -1.8950 -0.6500
 2493SOL    MW4 9746   3.336   0.891   2.954  0.3476  0.1666  0.4548
 2494SOL     OW 9747   1.314   0.758   2.015 -0.2722 -0.3025 -0.0450
 2494SOL    HW2 9748   1.218   0.748   2.012 -0.2009 -0.7782 -1.9598
 2494SOL    HW3 9749   1.346   0.672   2.041 -0.3370 -0.2946  0.0620
 2494SOL    MW4 9750   1.305   0.745   2.018  0.3862 -0.7333  0.2686
 2495SOL     OW 9751   0.069   5.493   0.205  0.7657 -0.0447 -0.9618
 2495SOL    HW2 9752   0.085   5.409   0.248  0.9134  0.6324  0.3826
 2495SOL    HW3 9753   0.142   5.548   0.232  0.7177  0.4907 -1.8939
 2495SOL    MW4 9754   0.080   5.490   0.214  0.0821 -0.6246  0.2414
 2496SOL     OW 9755   4.708   1.712   3.753  0.0405  0.3631 -0.1796
 2496SOL    HW2 9756   4.772   1.641   3.745 -0.2096  0.1473 -0.2886
 2496SOL    HW3 9757   4.698   1.745   3.663  1.0868  1.3710  0.0479
 2496SOL    MW4 9758   4.715   1.707   3.740  0.2430  1.2194 -0.0230
 2497SOL     OW 9759   1.886   3.997   4.960  0.1575  0.3475 -0.2804
 2497SOL    HW2 9760   1.824   3.941   4.913  0.2949 -0.0130 -0.0398
 2497SOL    HW3 9761   1.958   3.938   4.982  0.2341  0.5866  0.1110
 2497SOL    MW4 9762   1.887   3.981   4.957  0.0185 -0.3249  0.1327
 2498SOL     OW 9763   0.021   0.237   2.612 -0.1655  0.3616  0.1286
 2498SOL    HW2 9764  -0.050   0.289   2.575 -0.1652 -0.5049 -1.1910
 2498SOL    HW3 9765   0.022   0.259   2.705 -1.8372  0.7487  0.0801
 2498SOL    MW4 9766   0.012   0.247   2.619  1.2029 -0.1577  0.0980
 2499SOL     OW 9767   0.354   0.533   5.098 -0.7633 -0.0553 -0.7521
 2499SOL    HW2 9768   0.308   0.483   5.030 -0.9162 -0.8796 -0.0693
 2499SOL    HW3 9769   0.422   0.473   5.130  0.8228  1.1471 -1.7409
 2499SOL    MW4 9770   0.357   0.519   5.093 -0.2991  0.0321 -0.3270
 2500SOL     OW 9771   4.620   0.624   2.440 -0.1530  0.0702 -0.4076
 2500SOL    HW2 9772   4.640   0.713   2.468  1.3053 -0.3867  0.1550
 2500SOL    HW3 9773   4.618   0.574   2.522  2.5392 -1.0022 -0.8812
 2500SOL    MW4 9774   4.623   0.629   2.455 -0.4381 -0.2652 -0.4920
 2501SOL     OW 9775   4.751   4.771   3.659 -0.5670 -0.6989  0.2384
 2501SOL    HW2 9776   4.804   4.837   3.704 -1.7397 -0.0777  0.7622
 2501SOL    HW3 9777   4.711   4.818   3.586  0.2366 -1.3689 -0.6587
 2501SOL    MW4 9778   4.753   4.786   3.655  0.0890  0.4957  0.6053
 2502SOL     OW 9779   5.610   5.538   4.438 -0.4592  0.1593  0.3117
 2502SOL    HW2 9780   5.697   5.558   4.471 -1.0260  0.9781  1.3859
 2502SOL    HW3 9781   5.551   5.588   4.494 -1.4913  1.7447 -2.0055
 2502SOL    MW4 9782   5.614   5.547   4.450  0.0954 -0.4738  0.2605
 2503SOL     OW 9783   6.002   2.478   3.870 -0.2275  0.0499 -0.4024
 2503SOL    HW2 9784   5.983   2.441   3.956 -0.7086 -0.4906 -0.7264
 2503SOL    HW3 9785   5.918   2.475   3.823  0.3855 -1.4333 -1.5186
 2503SOL    MW4 9786   5.988   2.472   3.875 -0.0979  0.3118 -0.0089
 2504SOL     OW 9787   6.315   2.530   3.083 -0.3581  0.6840 -0.0697
 2504SOL    HW2 9788   6.270   2.454   3.121  0.7318  0.8102  1.5669
 2504SOL    HW3 9789   6.390   2.493   3.036  0.6540  0.7622  1.4344
 2504SOL    MW4 9790   6.319   2.515   3.081 -0.3577  0.3674 -0.5481
 2505SOL     OW 9791   3.848   5.883   5.982  0.0535 -0.1046  0.1803
 2505SOL    HW2 9792   3.881   5.802   6.021 -1.1141 -0.0431  1.3677
 2505SOL    HW3 9793   3.847   5.946   6.054  0.2214  0.7520 -0.5452
 2505SOL    MW4 9794   3.852   5.881   5.996  0.3686 -1.1281 -0.2799
 2506SOL     OW 9795   6.232   4.979   5.872 -0.4678  0.0906  0.1766
 2506SOL    HW2 9796   6.267   4.893   5.849 -1.1671 -0.5621  1.4754
 2506SOL    HW3 9797   6.266   5.038   5.804  0.8525 -1.0103 -0.1453
 2506SOL    MW4 9798   6.241   4.976   5.860 -0.7074 -0.4104 -0.4465
 2507SOL     OW 9799   0.793   0.624   3.627  0.3616  0.6955 -0.1961
 2507SOL    HW2 9800   0.781   0.687   3.698 -2.5608  0.0198  0.0367
 2507SOL    HW3 9801   0.831   0.547   3.669  0.3054  0.9330  0.2927
 2507SOL    MW4 9802   0.796   0.622   3.642  0.1366  0.7718 -0.1083
 2508SOL     OW 9803   1.080   6.049   4.329  0.4221  0.0359 -0.0223
 2508SOL    HW2 9804   1.025   6.010   4.262  0.4182  0.8479 -0.4957
 2508SOL    HW3 9805   1.019   6.090   4.390  0.4811  0.5969 -0.3360
 2508SOL    MW4 9806   1.065   6.049   4.329 -0.7908  0.2640  0.1128
 2509SOL     OW 9807   1.080   5.625   6.338 -0.0380  0.1027 -0.7239
 2509SOL    HW2 9808   1.074   5.581   6.423  1.4105  0.9428 -0.1323
 2509SOL    HW3 9809   1.109   5.557   6.277  1.2618 -0.0255 -0.0181
 2509SOL    MW4 9810   1.083   5.611   6.342 -0.1673 -0.0127 -0.1178
 2510SOL     OW 9811   0.105   3.103   6.384  1.4131  0.1856 -0.1619
 2510SOL    HW2 9812   0.156   3.177   6.418  3.1101 -0.3613 -1.3543
 2510SOL    HW3 9813   0.035   3.144   6.334  0.5986  0.9667  1.5582
 2510SOL    MW4 9814   0.103   3.119   6.382  0.2288  0.0819 -0.1490
 2511SOL     OW 9815   4.727   2.853   5.398  1.0526  0.6771 -0.0094
 2511SOL    HW2 9816   4.773   2.771   5.377 -0.5111 -0.8367  1.9856
 2511SOL    HW3 9817   4.695   2.885   5.314  0.5450 -1.5296 -0.7195
 2511SOL    MW4 9818   4.729   2.846   5.385 -0.0354 -0.3385  0.0433
 2512SOL     OW 9819   2.520   1.724   0.084 -0.3462  0.0582  0.2741
 2512SOL    HW2 9820   2.438   1.771   0.103 -1.1093 -1.2086  0.2207
 2512SOL    HW3 9821   2.493   1.651   0.029  0.4991 -1.5409  1.8772
 2512SOL    MW4 9822   2.506   1.721   0.079 -0.3164 -0.4903 -0.1935
 2513SOL     OW 9823   0.489   4.778   4.425 -0.4330 -0.0549  0.6410
 2513SOL    HW2 9824   0.479   4.793   4.331  0.4580 -0.0624  0.5379
 2513SOL    HW3 9825   0.574   4.816   4.447 -1.7424  2.3404  1.9605
 2513SOL    MW4 9826   0.499   4.785   4.416 -0.1417  0.3110  0.0733
 2514SOL     OW 9827   4.047   0.942   2.321  0.2507 -0.0513  1.1209
 2514SOL    HW2 9828   3.974   0.996   2.289  1.4369  0.1304 -1.5344
 2514SOL    HW3 9829   4.014   0.852   2.316  0.2631  0.0029 -0.3884
 2514SOL    MW4 9830   4.033   0.937   2.316  0.4774  0.0871 -0.2029
 2515SOL     OW 9831   2.471   5.652   2.661  0.0929  0.6952 -0.4226
 2515SOL    HW2 9832   2.519   5.573   2.685  1.7186  1.8801  0.4578
 2515SOL    HW3 9833   2.379   5.630   2.678  0.4350 -1.1475 -0.7173
 2515SOL    MW4 9834   2.465   5.639   2.667  0.1483 -0.1653 -0.1738
 2516SOL     OW 9835   5.477   5.958   3.105 -0.1142 -0.3450  0.3004
 2516SOL    HW2 9836   5.475   5.942   3.199 -0.5511  0.0180  0.3532
 2516SOL    HW3 9837   5.546   6.024   3.094 -0.0515 -0.3998  0.3611
 2516SOL    MW4 9838   5.486   5.964   3.116 -0.1696 -0.1286 -0.2024
 2517SOL     OW 9839   2.191   6.030   2.476  0.2797 -0.1773 -0.4926
 2517SOL    HW2 9840   2.272   5.979   2.472  0.4759  0.0461  0.3492
 2517SOL    HW3 9841   2.163   6.022   2.567 -0.1269  0.5412 -0.5457
 2517SOL    MW4 9842   2.198   6.022   2.487 -0.1675  0.3747  0.0325
 2518SOL     OW 9843   3.604   2.570   3.747  0.1830 -0.2154  0.1238
 2518SOL    HW2 9844   3.671   2.510   3.714  1.1095  0.9706 -0.2510
 2518SOL    HW3 9845   3.523   2.520   3.746  0.6513 -0.9993 -1.5914
 2518SOL    MW4 9846   3.603   2.556   3.743 -0.3560 -0.0615  0.0794
 2519SOL     OW 9847   0.831   4.711   1.978  0.2406 -0.5341  0.3219
 2519SOL    HW2 9848   0.756   4.661   1.947  1.1642 -0.9740 -1.3412
 2519SOL    HW3 9849   0.886   4.647   2.024  1.2130 -1.0108 -1.4311
 2519SOL    MW4 9850   0.829   4.696   1.980  0.4737 -0.0699 -0.1951
 2520SOL     OW 9851   0.993   3.640   0.701  0.3534  0.0939  0.1223
 2520SOL    HW2 9852   0.970   3.638   0.608 -2.0730  0.9830  0.6343
 2520SOL    HW3 9853   1.087   3.623   0.703  0.1751 -1.6202 -2.3524
 2520SOL    MW4 9854   1.002   3.638   0.689 -0.3423  0.0048 -0.0355
 2521SOL     OW 9855   2.326   0.938   2.598 -0.0763  0.1700  0.8329
 2521SOL    HW2 9856   2.325   1.022   2.644 -1.2692  0.2594  0.6865
 2521SOL    HW3 9857   2.244   0.938   2.548  0.7713 -0.3051 -0.5999
 2521SOL    MW4 9858   2.315   0.949   2.598 -0.2386 -0.0139  0.1051
 2522SOL     OW 9859   0.932   4.948   6.122  0.4231 -0.1438  0.6396
 2522SOL    HW2 9860   0.855   4.941   6.178 -1.2295 -1.2753 -1.6183
 2522SOL    HW3 9861   0.998   4.893   6.165 -0.7738 -0.9881  1.4722
 2522SOL    MW4 9862   0.931   4.940   6.135 -0.2108 -0.1682  0.3859
 2523SOL     OW 9863   5.001   4.216   4.454 -0.2634  0.0710 -0.2936
 2523SOL    HW2 9864   4.944   4.160   4.401 -2.6491  0.3219  1.7952
 2523SOL    HW3 9865   5.005   4.299   4.407  0.2029 -0.6424 -1.5506
 2523SOL    MW4 9866   4.994   4.220   4.441  0.1559 -0.5733  0.8572
 2524SOL     OW 9867   2.671   6.138   6.242  0.2529  0.1961  0.1686
 2524SOL    HW2 9868   2.705   6.077   6.177  2.8264  0.0609  1.5395
 2524SOL    HW3 9869   2.648   6.216   6.191  0.4188 -0.5521 -1.1115
 2524SOL    MW4 9870   2.672   6.140   6.227  0.7219  0.6588  0.4916
 2525SOL     OW 9871   3.296   3.775   0.867 -0.1742 -0.0374 -0.7096
 2525SOL    HW2 9872   3.262   3.706   0.924  0.8902  0.7281  0.9280
 2525SOL    HW3 9873   3.255   3.757   0.782 -3.5090 -0.0110  0.7146
 2525SOL    MW4 9874   3.286   3.763   0.863  0.3917 -0.3048 -0.2042
 2526SOL     OW 9875   4.950   1.529   4.172  0.2261 -0.0485 -0.1559
 2526SOL    HW2 9876   4.991   1.543   4.087 -0.2200 -1.5256 -0.6396
 2526SOL    HW3 9877   4.896   1.607   4.185  0.7655  0.4720 -0.9451
 2526SOL    MW4 9878   4.948   1.541   4.163  0.1561  0.0939 -0.2837
 2527SOL     OW 9879   0.687   3.992   5.884  0.8196 -0.0069  0.6413
 2527SOL    HW2 9880   0.682   3.909   5.931  0.5336 -0.4728 -0.1880
 2527SOL    HW3 9881   0.712   3.967   5.795  1.0167  0.8264  0.4540
 2527SOL    MW4 9882   0.690   3.978   5.879  0.1207 -0.7519 -0.4731
 2528SOL     OW 9883   0.095   2.570   3.638 -0.1758 -0.1592 -0.4527
 2528SOL    HW2 9884   0.075   2.654   3.680  1.3469  1.5844 -2.9378
 2528SOL    HW3 9885   0.018   2.551   3.584  0.1734  0.6279 -1.2597
 2528SOL    MW4 9886   0.082   2.579   3.636 -0.2135  0.1323  0.8526
 2529SOL     OW 9887   5.843   5.472   1.175  0.1245  0.0364 -0.1688
 2529SOL    HW2 9888   5.921   5.458   1.121 -0.4085 -0.7318 -0.7522
 2529SOL    HW3 9889   5.849   5.406   1.243 -0.7089 -0.9364 -1.0137
 2529SOL    MW4 9890   5.854   5.462   1.177  0.6694  1.0421 -0.4732
 2530SOL     OW 9891   1.691   0.809   2.882  0.0771 -0.0550 -0.2323
 2530SOL    HW2 9892   1.720   0.755   2.956 -0.2119 -1.7459 -1.2866
 2530SOL    HW3 9893   1.768   0.861   2.859  0.4367 -0.1505  0.6927
 2530SOL    MW4 9894   1.705   0.809   2.889  0.2257 -0.3754 -0.1068
 2531SOL     OW 9895   6.160   4.783   2.168  0.4419  0.4392  0.5263
 2531SOL    HW2 9896   6.217   4.858   2.153 -0.5973  1.1718  0.1025
 2531SOL    HW3 9897   6.120   4.799   2.253 -0.4208  0.8034  0.0582
 2531SOL    MW4 9898   6.162   4.795   2.177 -0.2996 -0.2803 -0.4218
 2532SOL     OW 9899   1.893   3.593   2.639  0.2140  0.0071 -0.1826
 2532SOL    HW2 9900   1.897   3.680   2.680 -0.6001 -0.0987  0.1353
 2532SOL    HW3 9901   1.807   3.559   2.664  0.5482 -0.9115 -0.2683
 2532SOL    MW4 9902   1.882   3.600   2.648 -0.5012  0.2289 -0.2695
 2533SOL     OW 9903   1.317   4.420   3.124 -0.2787 -0.2413 -0.0904
 2533SOL    HW2 9904   1.283   4.334   3.145 -1.6141  0.3963  0.4530
 2533SOL    HW3 9905   1.279   4.478   3.190  1.7117  0.5719  0.4431
 2533SOL    MW4 9906   1.308   4.417   3.135  0.4852 -0.1716 -0.3193
 2534SOL     OW 9907   5.173   1.972   2.817  0.1118  0.1980  0.1505
 2534SOL    HW2 9908   5.224   2.052   2.807 -1.9020  1.7407  1.3542
 2534SOL    HW3 9909   5.155   1.944   2.728  1.2135  0.8312 -0.2948
 2534SOL    MW4 9910   5.177   1.979   2.804  0.1283  0.0540 -0.5308
 2535SOL     OW 9911   1.404   4.941   0.747  0.6879  0.0049  0.8503
 2535SOL    HW2 9912   1.463   4.870   0.772  2.0474  0.8231  0.1193
 2535SOL    HW3 9913   1.462   5.015   0.729 -0.7259  1.6342  2.5296
 2535SOL    MW4 9914   1.419   4.941   0.748  0.0396 -0.1168 -0.1249
 2536SOL     OW 9915   1.582   5.963   1.683 -0.6710  0.2834  0.0379
 2536SOL    HW2 9916   1.518   5.960   1.754  2.8825 -5.0351  3.8960
 2536SOL    HW3 9917   1.655   6.014   1.718  0.2360 -0.4473 -0.7044
 2536SOL    MW4 9918   1.584   5.969   1.697 -0.7441 -0.0085 -0.0304
 2537SOL     OW 9919   0.392   4.232   0.540 -0.0561  0.3802  0.2130
 2537SOL    HW2 9920   0.484   4.255   0.558 -0.1628  1.8305 -0.8635
 2537SOL    HW3 9921   0.397   4.175   0.463  0.0096 -0.7759  1.0472
 2537SOL    MW4 9922   0.405   4.228   0.532  0.4620 -0.2434 -0.6358
 2538SOL     OW 9923   3.434   5.728   5.625  0.3678  0.3871 -0.0030
 2538SOL    HW2 9924   3.467   5.686   5.704 -1.9797  0.5506  1.1485
 2538SOL    HW3 9925   3.437   5.660   5.558  0.2384 -0.4725  0.8383
 2538SOL    MW4 9926   3.438   5.714   5.627 -0.1931 -0.2126 -0.3593
 2539SOL     OW 9927   5.425   2.320   5.173  0.6814  0.2680 -0.2079
 2539SOL    HW2 9928   5.401   2.307   5.264  1.6820  0.3994  0.0880
 2539SOL    HW3 9929   5.345   2.301   5.124 -0.1320  1.1297  0.7440
 2539SOL    MW4 9930   5.411   2.316   5.178  0.0824 -0.3823  0.1849
 2540SOL     OW 9931   4.838   6.120   1.112  0.6038  0.5660  0.4587
 2540SOL    HW2 9932   4.862   6.120   1.020  0.1002  0.1196  0.3180
 2540SOL    HW3 9933   4.912   6.081   1.157 -0.2018 -1.7230 -0.0812
 2540SOL    MW4 9934   4.851   6.115   1.106 -0.1963  0.5787  0.6136
 2541SOL     OW 9935   6.301   0.127   0.796 -0.4571  0.0892  0.4018
 2541SOL    HW2 9936   6.284   0.170   0.713  1.1066  0.2702  0.1469
 2541SOL    HW3 9937   6.339   0.195   0.852  0.7615 -0.5897  0.4410
 2541SOL    MW4 9938   6.304   0.141   0.793  0.1582 -0.2087  0.3357
 2542SOL     OW 9939   4.001   3.837   5.055  0.1287  0.3112 -0.4030
 2542SOL    HW2 9940   3.911   3.818   5.030  0.3709  2.4373 -3.3790
 2542SOL    HW3 9941   4.051   3.760   5.025 -0.6844 -1.4928  2.4407
 2542SOL    MW4 9942   3.996   3.824   5.048 -0.4966  0.0048  0.0589
 2543SOL     OW 9943   5.571   3.403   1.483  0.3917  0.3423 -0.8363
 2543SOL    HW2 9944   5.589   3.420   1.575  0.1154 -0.5305 -0.6121
 2543SOL    HW3 9945   5.607   3.316   1.467 -2.7635 -1.1419 -0.5780
 2543SOL    MW4 9946   5.578   3.394   1.493  0.8185 -0.1279  0.3119
 2544SOL     OW 9947   4.279   4.464   2.109 -0.4451  0.2434  0.2897
 2544SOL    HW2 9948   4.369   4.431   2.106 -0.3839  0.2708  1.5043
 2544SOL    HW3 9949   4.277   4.535   2.045  0.4099  0.2955  0.3135
 2544SOL    MW4 9950   4.290   4.469   2.100 -0.6060  0.0810 -0.3282
 2545SOL     OW 9951   4.130   2.652   2.218  0.4447  0.1031  0.5577
 2545SOL    HW2 9952   4.202   2.607   2.262 -0.5232  0.5413  2.7096
 2545SOL    HW3 9953   4.150   2.745   2.228  0.5310  0.2222 -0.5656
 2545SOL    MW4 9954   4.142   2.658   2.225 -0.2176  0.0792 -0.1604
 2546SOL     OW 9955   4.453   3.817   2.536  0.2013  0.6269  0.4416
 2546SOL    HW2 9956   4.437   3.800   2.443 -1.1129 -0.2305  0.7937
 2546SOL    HW3 9957   4.498   3.901   2.538 -2.1986  2.0440 -0.8207
 2546SOL    MW4 9958   4.457   3.826   2.524  0.2522  0.1076  0.4580
 2547SOL     OW 9959   3.413   3.535   5.062  0.4657 -0.2888 -0.0740
 2547SOL    HW2 9960   3.454   3.487   5.134 -1.2683 -0.1771  1.0459
 2547SOL    HW3 9961   3.383   3.466   5.003 -0.9188 -0.5750  0.9171
 2547SOL    MW4 9962   3.415   3.519   5.064 -0.1196  0.4713  0.2185
 2548SOL     OW 9963   5.688   2.162   1.370  0.1248 -0.2581  0.3167
 2548SOL    HW2 9964   5.598   2.189   1.349 -0.0853 -1.7571 -0.8367
 2548SOL    HW3 9965   5.732   2.155   1.286  1.0456 -0.5301  0.8056
 2548SOL    MW4 9966   5.682   2.165   1.356 -0.0840 -0.3440  0.1085
 2549SOL     OW 9967   0.199   3.409   5.333 -1.1804  0.7392 -0.1397
 2549SOL    HW2 9968   0.242   3.356   5.400 -1.0047  0.4044 -0.5141
 2549SOL    HW3 9969   0.232   3.498   5.348  0.1448  0.3854 -0.8100
 2549SOL    MW4 9970   0.209   3.414   5.344 -0.8018  0.5074  0.3580
 2550SOL     OW 9971   6.399   3.895   2.259 -0.1666 -0.3249 -0.1026
 2550SOL    HW2 9972   6.337   3.860   2.322  0.6853 -0.2741  0.7903
 2550SOL    HW3 9973   6.442   3.818   2.222  0.4216 -0.3129  0.5290
 2550SOL    MW4 9974   6.397   3.880   2.262 -0.1335  0.1580  0.0200
 2551SOL     OW 9975   4.555   5.455   5.032 -0.5392  0.2134  0.2985
 2551SOL    HW2 9976   4.491   5.439   5.101 -1.5032 -1.1259 -0.8452
 2551SOL    HW3 9977   4.630   5.400   5.056 -0.3845  0.6739  0.8914
 2551SOL    MW4 9978   4.557   5.445   5.044 -0.4918  0.0798  0.7833
 2552SOL     OW 9979   4.236   1.293   3.985  0.6821 -0.1494 -0.3361
 2552SOL    HW2 9980   4.223   1.303   3.891  1.9313 -1.5983 -0.6916
 2552SOL    HW3 9981   4.198   1.372   4.023  2.1374  1.5481 -2.2156
 2552SOL    MW4 9982   4.229   1.305   3.978 -0.2231  0.1731  0.5933
 2553SOL     OW 9983   6.195   6.265   0.714 -0.3070 -0.3648  0.3749
 2553SOL    HW2 9984   6.136   6.337   0.692 -1.7899 -1.9224 -1.0857
 2553SOL    HW3 9985   6.279   6.289   0.675 -0.6561  0.7608  0.3001
 2553SOL    MW4 9986   6.199   6.277   0.706 -0.7708  0.2946  0.3228
 2554SOL     OW 9987   0.818   1.626   1.248 -0.2972  0.2574  0.1529
 2554SOL    HW2 9988   0.741   1.654   1.198 -1.0567 -0.5208  0.8672
 2554SOL    HW3 9989   0.870   1.574   1.187 -0.7581  0.0792 -0.0827
 2554SOL    MW4 9990   0.815   1.623   1.233 -0.5697 -0.5166 -0.2841
 2555SOL     OW 9991   1.232   5.013   2.703  0.3980  0.0520 -0.2702
 2555SOL    HW2 9992   1.191   4.933   2.672  2.7158 -0.5997 -1.9919
 2555SOL    HW3 9993   1.235   5.070   2.626 -0.8486  1.6835  0.8233
 2555SOL    MW4 9994   1.227   5.010   2.688 -0.5758 -0.6563  0.3098
 2556SOL     OW 9995   3.582   3.338   0.007 -0.4368 -0.7025  0.3558
 2556SOL    HW2 9996   3.604   3.245   0.003 -1.2042 -0.8997  0.5046
 2556SOL    HW3 9997   3.597   3.371  -0.081  1.3659 -0.5892  0.6500
 2556SOL    MW4 9998   3.587   3.330  -0.005 -0.1791 -0.4764  0.3310
 2557SOL     OW 9999   4.852   5.596   1.503 -0.1437  0.3594  0.3830
 2557SOL    HW210000   4.868   5.521   1.446  0.0605  0.7941 -0.1435
 2557SOL    HW310001   4.761   5.586   1.532 -0.6567  0.7922 -1.0180
 2557SOL    MW410002   4.842   5.585   1.499 -0.4980 -0.5696  0.3623
 2558SOL     OW10003   1.648   0.390   2.184  0.1280  0.4192  0.0993
 2558SOL    HW210004   1.618   0.305   2.152  1.1818  0.1956 -0.3350
 2558SOL    HW310005   1.571   0.429   2.224 -0.8736  0.0707 -1.4195
 2558SOL    MW410006   1.634   0.384   2.185 -0.2488  0.5516 -0.4463
 2559SOL     OW10007   2.456   5.251   0.112  0.1874  0.0349  0.6276
 2559SOL    HW210008   2.370   5.210   0.117  0.6347 -0.8090  2.5470
 2559SOL    HW310009   2.452   5.323   0.175  0.4875  0.8321 -0.2436
 2559SOL    MW410010   2.444   5.255   0.121 -0.2372 -0.1836 -0.4341
 2560SOL     OW10011   0.366   2.513   5.449 -0.4210  0.1150  0.6744
 2560SOL    HW210012   0.387   2.493   5.540 -1.3224 -0.9775  0.6702
 2560SOL    HW310013   0.411   2.446   5.398  0.5784  1.0808  0.2484
 2560SOL    MW410014   0.374   2.502   5.454 -0.0635 -0.7216  0.1298
 2561SOL     OW10015   2.265   2.682   5.711 -0.4331  0.2246  0.6751
 2561SOL    HW210016   2.339   2.652   5.764 -0.0880  1.5718  0.9846
 2561SOL    HW310017   2.293   2.766   5.675 -0.5825 -0.7127 -1.8221
 2561SOL    MW410018   2.278   2.689   5.714 -0.1298  0.1498  0.1467
 2562SOL     OW10019   3.527   5.836   6.030 -0.4613 -0.1580  0.1203
 2562SOL    HW210020   3.442   5.812   6.068 -0.0169 -1.5385  0.3233
 2562SOL    HW310021   3.589   5.824   6.101  0.2303 -1.6788 -0.6894
 2562SOL    MW410022   3.524   5.831   6.044  0.4122  0.4453  0.3148
 2563SOL     OW10023   5.792   3.943   3.549  0.3864 -0.1471  0.3962
 2563SOL    HW210024   5.826   3.911   3.466  0.6876 -0.7630  0.7442
 2563SOL    HW310025   5.805   3.870   3.610 -0.8898 -0.1466  0.7116
 2563SOL    MW410026   5.798   3.929   3.546 -0.2177 -0.1643  0.1397
 2564SOL     OW10027   1.404   4.942   4.415 -0.7600  0.1617 -0.2157
 2564SOL    HW210028   1.457   5.018   4.391  0.2679 -0.2950  0.5031
 2564SOL    HW310029   1.462   4.867   4.398 -0.7763 -0.2921  1.5969
 2564SOL    MW410030   1.419   4.942   4.409 -0.0083  0.4009  0.9276
 2565SOL     OW10031   5.223   3.229   3.824 -0.1996  0.2762 -0.3325
 2565SOL    HW210032   5.257   3.270   3.745  0.7849  0.8468  0.3703
 2565SOL    HW310033   5.198   3.141   3.796 -1.2345  0.9300 -1.5896
 2565SOL    MW410034   5.224   3.223   3.810  0.0186  0.3874 -0.3700
 2566SOL     OW10035   1.099   0.689   4.178  0.0865  0.2661  0.1100
 2566SOL    HW210036   1.015   0.719   4.212 -0.5938 -1.0351 -0.3695
 2566SOL    HW310037   1.117   0.746   4.104 -1.0891 -0.3323 -0.6627
 2566SOL    MW410038   1.091   0.700   4.173 -0.4690 -0.5614  0.8269
 2567SOL     OW10039   6.180   4.507   1.135 -0.5638 -0.1471  0.0875
 2567SOL    HW210040   6.216   4.482   1.050  1.9892  0.9333  0.7655
 2567SOL    HW310041   6.222   4.448   1.197 -0.5411  0.6303  0.8326
 2567SOL    MW410042   6.190   4.496   1.132  0.1211  0.7201 -0.8692
 2568SOL     OW10043   2.104   6.182   5.026 -0.0990 -0.3818  0.3516
 2568SOL    HW210044   2.019   6.216   5.054 -0.7289 -1.0625 -0.6701
 2568SOL    HW310045   2.136   6.247   4.963  1.0573  0.8605  2.1435
 2568SOL    MW410046   2.097   6.195   5.021 -0.1220 -0.1207  0.6066
 2569SOL     OW10047   2.000   1.443   1.379  0.5049  0.1201  0.7024
 2569SOL    HW210048   1.954   1.495   1.446  2.4348  2.9170  0.0516
 2569SOL    HW310049   2.091   1.438   1.411  1.0624 -0.0665 -0.8357
 2569SOL    MW410050   2.006   1.449   1.392 -0.1834  0.0489 -0.0460
 2570SOL     OW10051   2.999   5.689   4.719 -0.5246  0.3620 -0.4090
 2570SOL    HW210052   3.059   5.758   4.692  0.0214 -0.4477 -1.3313
 2570SOL    HW310053   3.030   5.663   4.806 -1.0293  1.5856  0.1534
 2570SOL    MW410054   3.011   5.694   4.727 -0.5345 -0.0124  0.3967
 2571SOL     OW10055   2.508   3.474   5.142 -0.7106  0.0664  0.1687
 2571SOL    HW210056   2.476   3.553   5.099  1.4291  1.6092  1.2359
 2571SOL    HW310057   2.543   3.504   5.226  1.4158 -1.7545  0.0388
 2571SOL    MW410058   2.509   3.488   5.147 -0.4321 -0.5070  0.3108
 2572SOL     OW10059   0.508   3.493   1.133 -0.5654 -0.0742  0.0195
 2572SOL    HW210060   0.542   3.568   1.181  1.4843 -1.4106  0.7895
 2572SOL    HW310061   0.441   3.456   1.190  1.0490 -0.9739  1.4340
 2572SOL    MW410062   0.504   3.498   1.147 -0.1729 -0.1436 -0.2558
 2573SOL     OW10063   3.029   5.370   1.490  0.1313  0.4603 -0.1913
 2573SOL    HW210064   3.113   5.348   1.449  0.1539 -2.3927  1.1060
 2573SOL    HW310065   3.047   5.450   1.539  1.1196  1.7885 -2.5347
 2573SOL    MW410066   3.042   5.377   1.491 -0.5695  0.8656  0.0674
 2574SOL     OW10067   1.486   4.792   5.388 -0.1899  0.1513 -1.2065
 2574SOL    HW210068   1.571   4.785   5.432 -1.1402 -0.8802  0.5544
 2574SOL    HW310069   1.494   4.735   5.312  0.4677 -0.5174 -0.6494
 2574SOL    MW410070   1.498   4.784   5.384 -0.2391  0.2323  0.6563
 2575SOL     OW10071   4.752   5.221   4.339  0.6339  0.2158 -0.0007
 2575SOL    HW210072   4.795   5.140   4.313 -0.3189  0.0017 -0.9711
 2575SOL    HW310073   4.704   5.198   4.419  0.5468 -0.1209 -0.1506
 2575SOL    MW410074   4.751   5.207   4.346  0.2145  0.0143  0.1355
 2576SOL     OW10075   3.136   5.400   2.775 -0.1483  0.6470  0.0201
 2576SOL    HW210076   3.158   5.474   2.831 -0.2438 -0.6751  1.9190
 2576SOL    HW310077   3.040   5.404   2.767 -0.0682  1.2316 -0.6121
 2576SOL    MW410078   3.126   5.410   2.782  0.0938 -0.4937  0.1081
 2577SOL     OW10079   4.053   0.183   0.229  0.3143  0.0868  0.2883
 2577SOL    HW210080   4.100   0.180   0.312  1.4391 -1.4860 -0.3680
 2577SOL    HW310081   3.986   0.115   0.237  2.2470 -2.1387 -1.0592
 2577SOL    MW410082   4.050   0.174   0.241 -0.0082  1.0961 -0.3403
 2578SOL     OW10083   3.138   6.393   5.235  0.5038  0.0679  0.4803
 2578SOL    HW210084   3.179   6.463   5.286  0.7304  1.2436 -1.2492
 2578SOL    HW310085   3.063   6.366   5.288 -0.6279  2.8262  0.4715
 2578SOL    MW410086   3.133   6.399   5.249 -0.4475  0.0415 -0.1335
 2579SOL     OW10087   6.249   3.371   4.570 -0.3669  0.7103 -0.0490
 2579SOL    HW210088   6.244   3.316   4.649 -0.1766  0.9376  0.1223
 2579SOL    HW310089   6.218   3.314   4.500 -0.1095  0.3579  0.1176
 2579SOL    MW410090   6.244   3.356   4.571 -0.0901  0.1864 -0.2857
 2580SOL     OW10091   3.036   0.979   1.527 -0.1542  0.1821  0.2455
 2580SOL    HW210092   3.018   0.958   1.435  0.1117  1.0892 -0.0221
 2580SOL    HW310093   3.092   1.056   1.523  0.4227 -0.1772  1.1648
 2580SOL    MW410094   3.041   0.986   1.514  0.4646  0.2985  0.1284
 2581SOL     OW10095   1.329   0.429   5.340 -0.1184 -0.0033 -0.2692
 2581SOL    HW210096   1.358   0.433   5.249 -1.0335 -0.6915 -0.5946
 2581SOL    HW310097   1.235   0.446   5.337 -0.6580 -2.4446  0.2414
 2581SOL    MW410098   1.321   0.432   5.327  0.8130  0.0919 -0.0535
 2582SOL     OW10099   4.322   5.525   5.722  0.2833 -0.5803  0.4579
 2582SOL    HW210100   4.373   5.587   5.670 -2.1894  1.5850  0.4137
 2582SOL    HW310101   4.238   5.519   5.677 -0.2026 -2.5644  1.5073
 2582SOL    MW410102   4.318   5.532   5.709  0.0172 -0.6878  0.8282
 2583SOL     OW10103   5.844   0.950   0.239  0.1151  0.4872  0.5866
 2583SOL    HW210104   5.778   0.997   0.189 -0.4560  0.1364  0.9953
 2583SOL    HW310105   5.829   0.858   0.219 -0.3040  0.3245  1.6137
 2583SOL    MW410106   5.834   0.944   0.230  0.7212  0.0197 -0.2178
 2584SOL     OW10107   5.085   2.926   2.667 -0.1174  0.3610 -0.1347
 2584SOL    HW210108   5.020   2.882   2.613  0.1765  1.1640 -1.1767
 2584SOL    HW310109   5.161   2.866   2.666 -0.3535  0.0554 -0.0288
 2584SOL    MW410110   5.087   2.912   2.660 -0.1860  0.0024  0.1060
 2585SOL     OW10111   5.533   4.000   1.774  0.2047 -0.4590  0.0545
 2585SOL    HW210112   5.452   4.015   1.823 -0.2645 -2.2288 -0.0989
 2585SOL    HW310113   5.602   4.005   1.839 -0.1182  0.1723  0.3528
 2585SOL    MW410114   5.531   4.003   1.789  0.6942  0.8122 -0.4111
 2586SOL     OW10115   3.826   4.699   3.604  0.0987  0.1253 -0.1008
 2586SOL    HW210116   3.817   4.764   3.535 -0.9018  1.0509  0.8752
 2586SOL    HW310117   3.845   4.749   3.683  0.0375 -0.8219  0.5318
 2586SOL    MW410118   3.827   4.714   3.605 -0.4605  0.1431 -0.2283
 2587SOL     OW10119   0.969   4.153   3.811 -0.2952  0.0385  0.3308
 2587SOL    HW210120   0.977   4.164   3.906  0.2321  0.3630  0.2529
 2587SOL    HW310121   1.045   4.100   3.787  0.2722  1.0107 -0.0784
 2587SOL    MW410122   0.980   4.147   3.820 -0.6629  0.0895  0.1406
 2588SOL     OW10123   0.715   5.513   3.295  0.0064 -0.3921  0.0106
 2588SOL    HW210124   0.647   5.565   3.253  1.5084  1.4661 -0.2604
 2588SOL    HW310125   0.714   5.542   3.386 -2.0398 -3.1303  1.0169
 2588SOL    MW410126   0.706   5.524   3.301 -0.2632  0.3152  0.0240
 2589SOL     OW10127   3.467   6.293   1.804 -0.3021  0.7055  0.0092
 2589SOL    HW210128   3.552   6.301   1.761 -0.3919  0.2001 -0.2789
 2589SOL    HW310129   3.487   6.259   1.891 -0.3284 -1.5125 -0.7791
 2589SOL    MW410130   3.481   6.289   1.810  0.0224 -0.2123  0.3353
 2590SOL     OW10131   0.872   1.697   4.417  0.3643  0.6487  0.4302
 2590SOL    HW210132   0.863   1.744   4.334 -0.8982  2.1847  1.3694
 2590SOL    HW310133   0.840   1.759   4.483  0.2725 -0.9320  1.9468
 2590SOL    MW410134   0.867   1.712   4.415 -0.2077 -0.0692  0.2743
 2591SOL     OW10135   1.579   2.800   4.652  0.2915 -0.4106 -0.0880
 2591SOL    HW210136   1.585   2.849   4.734  0.2591  1.7091 -1.2673
 2591SOL    HW310137   1.512   2.845   4.601  0.8450 -1.1807 -1.5840
 2591SOL    MW410138   1.571   2.812   4.656 -0.2566 -0.1349  0.5407
 2592SOL     OW10139   1.897   2.120   3.662 -0.9290 -0.2015 -0.2280
 2592SOL    HW210140   1.818   2.099   3.712 -1.0573 -0.4305 -0.5199
 2592SOL    HW310141   1.931   2.200   3.702 -1.8831  0.4918 -0.7549
 2592SOL    MW410142   1.891   2.128   3.674  0.7990 -0.6276 -0.3670
 2593SOL     OW10143   1.429   5.264   3.895  0.2034  0.8274  0.2772
 2593SOL    HW210144   1.447   5.196   3.959  0.6651  1.7722  1.1829
 2593SOL    HW310145   1.488   5.244   3.822 -0.5516 -0.4382 -0.0128
 2593SOL    MW410146   1.440   5.252   3.894  0.1226  0.0909  0.4114
 2594SOL     OW10147   0.567   1.537   4.484  0.0107 -0.2428  0.6732
 2594SOL    HW210148   0.593   1.605   4.547  0.4795 -0.1007  0.3351
 2594SOL    HW310149   0.481   1.508   4.514  0.0157  0.1656  1.0977
 2594SOL    MW410150   0.559   1.542   4.496  0.0342  0.2945 -0.3107
 2595SOL     OW10151   0.324   2.980   0.512  0.8139  0.9063  0.0270
 2595SOL    HW210152   0.385   3.053   0.517  0.9145  0.8765 -0.6876
 2595SOL    HW310153   0.379   2.904   0.495  0.6289  0.7958 -0.0886
 2595SOL    MW410154   0.339   2.979   0.510 -0.3117  0.6624 -0.3921
 2596SOL     OW10155   1.060   5.161   4.500  0.1780  0.0254  0.2846
 2596SOL    HW210156   0.967   5.158   4.520 -0.1264  0.0108 -1.0541
 2596SOL    HW310157   1.065   5.153   4.405  1.6143 -1.4533  0.4243
 2596SOL    MW410158   1.048   5.160   4.490  0.4130 -0.2574 -0.3861
 2597SOL     OW10159   5.952   3.065   3.651 -0.2634 -0.4065  0.6961
 2597SOL    HW210160   6.006   3.101   3.580 -0.0687 -0.6185  0.7362
 2597SOL    HW310161   5.998   2.986   3.678 -0.5380 -0.5287  0.8059
 2597SOL    MW410162   5.966   3.059   3.645  0.3989  0.5808  0.7099
 2598SOL     OW10163   3.783   1.116   5.642 -0.0343  0.1936  0.5650
 2598SOL    HW210164   3.856   1.158   5.596  0.1728 -0.2857  0.4416
 2598SOL    HW310165   3.705   1.155   5.604  0.1373 -0.0888 -0.0952
 2598SOL    MW410166   3.783   1.127   5.631  0.6850  0.3377 -0.1415
 2599SOL     OW10167   2.626   3.582   4.608 -0.2086  0.1070 -0.0776
 2599SOL    HW210168   2.685   3.553   4.539 -0.6917 -0.3409 -0.3055
 2599SOL    HW310169   2.681   3.638   4.664 -0.0215  1.1742 -1.2760
 2599SOL    MW410170   2.641   3.586   4.607 -0.6842 -0.1802  0.1597
 2600SOL     OW10171   2.519   4.563   2.658  0.3370  0.1282  0.4671
 2600SOL    HW210172   2.503   4.534   2.748  0.5217 -1.3742  0.0542
 2600SOL    HW310173   2.591   4.626   2.666  0.1653  0.2220  1.3956
 2600SOL    MW410174   2.527   4.567   2.671  0.0592 -0.5771  0.4954
 2601SOL     OW10175   6.048   3.291   3.791 -0.0915  0.3193  0.5373
 2601SOL    HW210176   5.986   3.229   3.753  0.1264 -0.5097  1.4926
 2601SOL    HW310177   6.040   3.278   3.886 -0.2644  1.9834  0.7748
 2601SOL    MW410178   6.039   3.281   3.799 -0.7992 -0.4189 -0.1124
 2602SOL     OW10179   5.930   2.063   4.262  0.3367 -0.1248 -0.1443
 2602SOL    HW210180   5.954   2.122   4.190 -0.0319  1.3755  0.9155
 2602SOL    HW310181   5.840   2.037   4.242  0.3617 -0.0094 -0.4110
 2602SOL    MW410182   5.921   2.067   4.250 -0.0453  0.1908 -0.1378
 2603SOL     OW10183   2.777   4.850   4.661  0.0911  0.6163 -0.3072
 2603SOL    HW210184   2.682   4.863   4.663 -0.1467 -1.0484  0.9985
 2603SOL    HW310185   2.788   4.756   4.657  1.6516  0.5281  2.8751
 2603SOL    MW410186   2.766   4.840   4.661 -0.2663  0.6198 -0.0118
 2604SOL     OW10187   4.912   1.447   5.115 -0.4177  0.1020 -0.3163
 2604SOL    HW210188   4.818   1.435   5.102 -0.5764  0.7900  0.1475
 2604SOL    HW310189   4.951   1.364   5.089 -1.0540  0.1637 -1.5652
 2604SOL    MW410190   4.905   1.435   5.110 -0.2323 -0.0198  0.7296
 2605SOL     OW10191   5.404   4.127   6.226  0.6838 -0.0943 -0.0440
 2605SOL    HW210192   5.488   4.098   6.263  0.9035  0.2600 -0.2595
 2605SOL    HW310193   5.374   4.195   6.286  0.0735 -0.8918  0.5687
 2605SOL    MW410194   5.411   4.132   6.239  0.1582 -0.1673 -0.6721
 2606SOL     OW10195   4.884   0.689   5.578  0.3167  0.4252  0.2447
 2606SOL    HW210196   4.907   0.647   5.495 -1.1178  0.4621 -0.1985
 2606SOL    HW310197   4.790   0.700   5.573  0.1011 -0.2398  2.2068
 2606SOL    MW410198   4.875   0.685   5.566 -0.2470 -0.1124  1.2104
 2607SOL     OW10199   2.998   4.689   5.008 -0.1884  0.3148 -0.1090
 2607SOL    HW210200   2.905   4.681   4.985 -0.6424  0.1345  1.6227
 2607SOL    HW310201   3.033   4.601   4.998  0.0913  0.5853 -1.8053
 2607SOL    MW410202   2.990   4.676   5.004  0.5765 -0.3163 -0.0315
 2608SOL     OW10203   0.119   3.646   5.084  0.4115 -0.0074  0.2126
 2608SOL    HW210204   0.133   3.709   5.013  2.0117 -0.1260  0.4008
 2608SOL    HW310205   0.183   3.578   5.069 -0.5869 -1.0718  0.6425
 2608SOL    MW410206   0.129   3.646   5.073  0.0279  0.1271 -0.1577
 2609SOL     OW10207   2.417   4.188   3.235  0.2498  0.3296 -0.0533
 2609SOL    HW210208   2.421   4.092   3.239  0.4025  0.2890 -0.9757
 2609SOL    HW310209   2.324   4.207   3.227  0.1341  0.3167  1.0242
 2609SOL    MW410210   2.405   4.178   3.235  0.1542  0.9347 -0.4405
 2610SOL     OW10211   5.095   6.331   4.452 -0.5529 -0.2628  0.1897
 2610SOL    HW210212   5.165   6.382   4.412 -0.1940  0.4142  1.6251
 2610SOL    HW310213   5.140   6.269   4.509 -1.0578 -1.2367 -0.4291
 2610SOL    MW410214   5.110   6.329   4.454  0.4098 -0.1179  0.0494
 2611SOL     OW10215   3.059   6.062   4.460 -0.1148  0.7987 -0.2609
 2611SOL    HW210216   3.088   6.081   4.371  0.4494 -2.2202 -0.8434
 2611SOL    HW310217   2.971   6.024   4.449 -0.3753  1.1403  0.5538
 2611SOL    MW410218   3.051   6.059   4.447 -0.2238 -0.3308  0.3617
 2612SOL     OW10219   2.001   4.951   0.235  0.0877  0.5968  0.0605
 2612SOL    HW210220   1.987   5.028   0.290  3.0029  0.7662  0.7578
 2612SOL    HW310221   1.941   4.886   0.269  0.5003  1.2870  2.2746
 2612SOL    MW410222   1.991   4.953   0.247 -0.5834 -0.1113 -0.4696
 2613SOL     OW10223   4.934   0.876   2.283 -0.3798 -0.2280  0.2213
 2613SOL    HW210224   4.990   0.939   2.238 -2.1071  2.6331  1.7650
 2613SOL    HW310225   4.865   0.856   2.220 -1.0447  1.2912  0.3979
 2613SOL    MW410226   4.932   0.882   2.269 -0.4607 -0.2048  0.6771
 2614SOL     OW10227   4.934   4.352   2.464 -0.4012  0.0336 -0.3697
 2614SOL    HW210228   4.882   4.328   2.540  0.1808 -0.3766 -0.0905
 2614SOL    HW310229   4.962   4.269   2.426 -1.1959  0.2113 -1.4123
 2614SOL    MW410230   4.931   4.338   2.469 -0.4650  0.0505  0.3320
 2615SOL     OW10231   0.076   1.612   5.558 -0.0056  0.0053  0.2679
 2615SOL    HW210232   0.055   1.531   5.512  0.6495 -0.1108  0.1592
 2615SOL    HW310233   0.163   1.635   5.527  0.8971 -0.6231  2.1742
 2615SOL    MW410234   0.085   1.605   5.548  0.0446  0.8194 -1.0997
 2616SOL     OW10235   5.845   3.173   1.042  0.1870 -0.3977  0.1321
 2616SOL    HW210236   5.846   3.083   1.008 -2.0250 -0.1330 -0.8281
 2616SOL    HW310237   5.812   3.164   1.131 -1.2940 -0.4783 -0.3922
 2616SOL    MW410238   5.841   3.160   1.049 -0.2714 -0.0692  0.3546
 2617SOL     OW10239   4.687   5.587   4.249  0.5436 -0.5109  0.0319
 2617SOL    HW210240   4.661   5.569   4.159 -0.2106  1.8090 -0.2941
 2617SOL    HW310241   4.611   5.562   4.301 -0.5827  1.7006 -0.4309
 2617SOL    MW410242   4.673   5.581   4.244  0.6380 -0.4259  0.2933
 2618SOL     OW10243   2.259   5.191   6.204 -0.1115 -0.4795 -0.5890
 2618SOL    HW210244   2.197   5.200   6.133 -0.6266  0.3360 -0.0535
 2618SOL    HW310245   2.327   5.256   6.185  0.7874 -1.6114 -1.3625
 2618SOL    MW410246   2.260   5.201   6.192  0.1464  0.3391 -0.2234
 2619SOL     OW10247   3.877   0.166   0.997 -0.7498  0.2585 -0.5681
 2619SOL    HW210248   3.827   0.239   0.959  1.3999  2.1937  0.0396
 2619SOL    HW310249   3.968   0.195   0.991 -0.0176 -0.9438  2.6628
 2619SOL    MW410250   3.882   0.180   0.991  0.3463 -0.1497  0.3026
 2620SOL     OW10251   3.951   6.057   1.146  0.4329 -0.0364 -0.4790
 2620SOL    HW210252   3.938   6.019   1.233 -2.4660  1.5611 -0.1120
 2620SOL    HW310253   4.034   6.105   1.154  0.7915 -0.8239  1.0433
 2620SOL    MW410254   3.960   6.058   1.159  0.0943 -0.1914  0.1430
 2621SOL     OW10255   5.702   5.297   3.046  0.1363  0.1161  0.4077
 2621SOL    HW210256   5.753   5.241   3.105 -1.0976  1.3027  2.7610
 2621SOL    HW310257   5.615   5.298   3.085 -1.3795 -0.6916 -2.6856
 2621SOL    MW410258   5.697   5.290   3.059 -0.8113  0.2754 -0.4097
 2622SOL     OW10259   6.095   1.354   0.362 -0.0535  0.1218  0.0628
 2622SOL    HW210260   6.170   1.295   0.368  0.3949  0.6301 -0.5375
 2622SOL    HW310261   6.132   1.442   0.363 -0.6359  0.3782 -0.2241
 2622SOL    MW410262   6.110   1.357   0.363 -0.2142  0.2147  0.1535
 2623SOL     OW10263   4.456   0.895   4.303 -0.2967  0.1480  0.0653
 2623SOL    HW210264   4.450   0.824   4.367  0.6315  1.3528  1.5480
 2623SOL    HW310265   4.549   0.898   4.279 -0.4924  0.2584 -0.7043
 2623SOL    MW410266   4.468   0.886   4.308 -0.3594  0.4075 -0.6448
 2624SOL     OW10267   5.904   1.595   5.099 -0.2153 -0.2045 -0.8437
 2624SOL    HW210268   5.850   1.646   5.038  0.7458  0.2943 -1.3021
 2624SOL    HW310269   5.994   1.617   5.075  0.2088 -1.4832 -0.4888
 2624SOL    MW410270   5.909   1.605   5.087 -0.8381 -0.0152 -0.4779
 2625SOL     OW10271   0.161   5.993   6.278 -1.2464  0.0255 -0.0350
 2625SOL    HW210272   0.147   6.022   6.188 -0.9824  1.2085  0.2776
 2625SOL    HW310273   0.208   6.066   6.319 -1.6599 -0.3507  1.1497
 2625SOL    MW410274   0.165   6.007   6.271 -0.4409 -0.5892 -0.3724
 2626SOL     OW10275   1.480   3.858   0.487 -0.0349 -0.1400 -0.2070
 2626SOL    HW210276   1.433   3.921   0.542  2.0069  0.1713  1.2900
 2626SOL    HW310277   1.412   3.796   0.459 -1.5024  0.8304  1.0225
 2626SOL    MW410278   1.464   3.858   0.491 -0.1184 -0.0492  0.6175
 2627SOL     OW10279   0.679   1.724   2.390  0.2635 -0.2084 -0.4371
 2627SOL    HW210280   0.713   1.676   2.466 -1.9829 -1.1660  0.0650
 2627SOL    HW310281   0.603   1.672   2.361 -2.1470  2.8101 -0.0889
 2627SOL    MW410282   0.673   1.710   2.396  0.1850  0.3434 -0.2871
 2628SOL     OW10283   4.550   3.901   0.660  0.0211 -0.5410 -0.0270
 2628SOL    HW210284   4.563   3.873   0.569 -1.9243 -0.8141 -0.2731
 2628SOL    HW310285   4.571   3.994   0.660 -1.9137 -0.0452 -1.2744
 2628SOL    MW410286   4.554   3.909   0.648  0.1459 -0.1691  0.4815
 2629SOL     OW10287   1.796   3.154   5.252  0.1107  0.0680  0.3141
 2629SOL    HW210288   1.870   3.206   5.282 -0.6952  0.7687  1.1769
 2629SOL    HW310289   1.722   3.185   5.305 -0.7534 -0.7545 -0.3669
 2629SOL    MW410290   1.796   3.165   5.263 -0.5763  0.2619  0.1219
 2630SOL     OW10291   3.789   4.382   0.784 -0.0545 -0.8459 -0.1261
 2630SOL    HW210292   3.822   4.449   0.844 -0.5889 -0.1778 -0.5624
 2630SOL    HW310293   3.842   4.393   0.704  0.4916 -1.5723  0.1206
 2630SOL    MW410294   3.801   4.392   0.781  0.0244  0.6777  0.1876
 2631SOL     OW10295   2.409   5.284   1.329 -0.4853  0.0453 -0.2169
 2631SOL    HW210296   2.501   5.261   1.338 -0.5940  0.2311  1.9207
 2631SOL    HW310297   2.364   5.200   1.320 -0.1210 -0.0396 -1.3911
 2631SOL    MW410298   2.415   5.270   1.329  0.8673  0.2747  0.0573
 2632SOL     OW10299   4.990   1.611   2.657 -0.5351  0.5062  0.2161
 2632SOL    HW210300   5.061   1.548   2.668 -1.3669 -0.5622 -0.3372
 2632SOL    HW310301   4.935   1.574   2.588 -0.1517  2.6702 -1.3834
 2632SOL    MW410302   4.992   1.598   2.649  0.3717 -0.0701  0.2002
 2633SOL     OW10303   1.696   2.019   3.829 -0.3380  0.0865  0.5570
 2633SOL    HW210304   1.664   2.095   3.878  1.8092  1.6712 -0.3461
 2633SOL    HW310305   1.764   1.982   3.884  0.9429  0.8973 -0.4001
 2633SOL    MW410306   1.701   2.024   3.843  0.9833 -0.4055  0.2913
 2634SOL     OW10307   0.947   0.650   2.354 -0.1582  0.2353  0.3075
 2634SOL    HW210308   0.975   0.742   2.351 -0.1077  0.2667  1.3670
 2634SOL    HW310309   0.869   0.651   2.410  0.5504 -0.5281  1.3328
 2634SOL    MW410310   0.940   0.662   2.361  0.2948 -0.2870  0.3133
 2635SOL     OW10311   0.126   3.143   4.451  0.4437  0.0695 -0.0607
 2635SOL    HW210312   0.219   3.162   4.463  0.7490 -0.2035 -1.7705
 2635SOL    HW310313   0.089   3.224   4.416  0.0056  0.1926  0.6571
 2635SOL    MW410314   0.134   3.156   4.448 -0.4246  0.0181  0.7396
 2636SOL     OW10315   6.161   1.645   4.994  0.6956  0.0506 -0.4628
 2636SOL    HW210316   6.241   1.637   5.047  1.1134 -1.3713 -1.2590
 2636SOL    HW310317   6.189   1.688   4.913  0.2974  1.0954 -0.0669
 2636SOL    MW410318   6.175   1.649   4.990 -0.3575  0.0794 -0.3171
 2637SOL     OW10319   1.184   2.375   3.975  0.0914  0.1074 -0.2038
 2637SOL    HW210320   1.092   2.350   3.969 -0.4412  2.1770 -3.2728
 2637SOL    HW310321   1.229   2.314   3.917  0.4448 -0.1073  0.2956
 2637SOL    MW410322   1.178   2.364   3.966  0.0667 -0.2622  0.7155
 2638SOL     OW10323   6.181   4.779   0.191  0.2931  0.6619  0.1389
 2638SOL    HW210324   6.125   4.739   0.124  1.1875 -0.0557 -0.2018
 2638SOL    HW310325   6.160   4.872   0.187 -1.3073  0.3416  0.4379
 2638SOL    MW410326   6.171   4.786   0.182  0.7967  0.2538 -0.6646
 2639SOL     OW10327   5.038   0.383   1.540  0.1371  0.1390  0.9341
 2639SOL    HW210328   5.100   0.393   1.612 -0.2708 -0.2745  1.3397
 2639SOL    HW310329   4.968   0.328   1.574 -0.4853  0.6395  0.4943
 2639SOL    MW410330   5.037   0.377   1.554  0.1422  0.0929 -0.7244
 2640SOL     OW10331   1.753   0.386   6.338 -0.1259 -0.2720  0.4958
 2640SOL    HW210332   1.709   0.356   6.417 -0.4428 -0.2710  0.3225
 2640SOL    HW310333   1.766   0.307   6.286  0.2795 -0.3061  0.6405
 2640SOL    MW410334   1.749   0.372   6.342  0.0654 -0.1378 -1.0927
 2641SOL     OW10335   5.945   6.028   4.153 -0.2137  0.1454 -0.3881
 2641SOL    HW210336   5.876   6.061   4.096 -0.8285 -1.0742 -0.3787
 2641SOL    HW310337   5.999   6.104   4.173  0.0110  0.6071 -2.5758
 2641SOL    MW410338   5.943   6.042   4.148  0.0296 -0.3019 -0.6075
 2642SOL     OW10339   3.216   1.566   4.717  0.2601  0.0115 -0.5662
 2642SOL    HW210340   3.269   1.588   4.793  1.1411 -0.9298 -0.8847
 2642SOL    HW310341   3.169   1.487   4.743 -0.4178  0.4068 -0.5604
 2642SOL    MW410342   3.216   1.559   4.730 -0.3562  0.6800 -0.7294
 2643SOL     OW10343   3.311   5.644   1.485 -0.4551  0.2724  0.0087
 2643SOL    HW210344   3.255   5.617   1.558  0.5195 -0.0208  0.6783
 2643SOL    HW310345   3.397   5.655   1.525  0.5064 -1.5566 -1.3913
 2643SOL    MW410346   3.315   5.641   1.500 -0.1736 -0.1798  0.8594
 2644SOL     OW10347   3.344   1.062   5.399  0.1419  0.5445  0.2037
 2644SOL    HW210348   3.337   1.088   5.491  1.6112  0.7134  0.2905
 2644SOL    HW310349   3.350   0.967   5.402 -1.0231  0.4542  0.1786
 2644SOL    MW410350   3.343   1.053   5.412 -0.0060 -0.6153 -0.8488
 2645SOL     OW10351   5.983   2.007   1.351  0.5148  0.0758  0.2144
 2645SOL    HW210352   5.957   2.024   1.261  2.6243  0.7502 -0.3334
 2645SOL    HW310353   5.943   1.922   1.372 -1.3542  0.6686 -0.7553
 2645SOL    MW410354   5.975   1.998   1.342 -0.0158 -0.3378  0.3955
 2646SOL     OW10355   4.933   2.522   3.229  0.3532 -0.2029  0.0571
 2646SOL    HW210356   4.914   2.578   3.305  1.2146  0.9913 -0.5818
 2646SOL    HW310357   4.880   2.559   3.158 -1.1569 -1.8699  0.2498
 2646SOL    MW410358   4.924   2.535   3.230  0.1941 -0.0141 -0.0080
 2647SOL     OW10359   1.677   3.869   4.552  0.0767 -0.0511 -0.8288
 2647SOL    HW210360   1.699   3.796   4.493  2.7975  1.1045 -1.4339
 2647SOL    HW310361   1.700   3.838   4.639 -0.4836 -0.5148 -0.8434
 2647SOL    MW410362   1.683   3.855   4.555 -0.3261  0.1124 -0.0763
 2648SOL     OW10363   6.007   4.837   1.930 -0.0495  0.6267 -0.5771
 2648SOL    HW210364   5.979   4.762   1.877  3.1492  0.4373 -2.2493
 2648SOL    HW310365   6.057   4.798   2.001  0.4431  1.1259 -0.6459
 2648SOL    MW410366   6.010   4.822   1.932 -0.3195 -0.2290  0.7346
 2649SOL     OW10367   5.159   3.883   2.927 -0.1906 -0.3331 -0.3752
 2649SOL    HW210368   5.081   3.882   2.983 -0.5804 -2.5589 -0.8635
 2649SOL    HW310369   5.193   3.794   2.932  1.3328  0.1447 -1.5530
 2649SOL    MW410370   5.153   3.871   2.935  0.3762 -0.6002  0.0569
 2650SOL     OW10371   4.153   2.580   4.121 -0.0575 -0.1779 -0.0865
 2650SOL    HW210372   4.181   2.516   4.187  2.8828  0.2692 -0.7866
 2650SOL    HW310373   4.155   2.532   4.039  0.9751  0.4487 -0.4498
 2650SOL    MW410374   4.157   2.565   4.119 -0.1339  0.2408  0.0542
 2651SOL     OW10375   3.386   5.517   1.061 -0.8168 -0.0069  0.7912
 2651SOL    HW210376   3.449   5.581   1.027 -0.7380 -0.2706  0.4366
 2651SOL    HW310377   3.435   5.466   1.125 -0.6256 -0.3141  0.4016
 2651SOL    MW410378   3.401   5.519   1.065 -0.7522 -0.5539 -0.2705
 2652SOL     OW10379   2.982   2.714   5.336 -0.0114 -0.5912 -0.1423
 2652SOL    HW210380   3.042   2.651   5.297 -1.6727 -2.2574 -0.1713
 2652SOL    HW310381   2.950   2.672   5.416 -3.0803 -1.0421 -1.4340
 2652SOL    MW410382   2.986   2.700   5.341 -0.1915  0.3384  0.0726
 2653SOL     OW10383   0.124   2.202   4.621 -0.0598 -0.3737 -0.5135
 2653SOL    HW210384   0.212   2.167   4.637 -0.2304 -0.4620  0.3015
 2653SOL    HW310385   0.088   2.216   4.709 -1.1597 -1.0917 -0.8297
 2653SOL    MW410386   0.131   2.199   4.635  0.5074  0.3639 -0.1242
 2654SOL     OW10387   5.109   2.989   5.236  0.2863 -0.1854  0.0548
 2654SOL    HW210388   5.102   2.905   5.280 -0.1051  0.4098  1.1678
 2654SOL    HW310389   5.193   3.024   5.266  2.0671 -1.5340 -2.9252
 2654SOL    MW410390   5.119   2.983   5.246 -1.0259  0.3177 -0.6041
 2655SOL     OW10391   5.045   0.681   1.546  0.0495 -0.0591  0.1208
 2655SOL    HW210392   5.044   0.587   1.526 -1.3957 -0.0986  0.2229
 2655SOL    HW310393   5.058   0.685   1.641 -0.1741 -0.1816  0.1592
 2655SOL    MW410394   5.046   0.669   1.556  0.2188 -0.0183  0.0448
 2656SOL     OW10395   6.404   6.052   2.110 -1.0155  0.1178  0.0762
 2656SOL    HW210396   6.378   6.129   2.161  0.0318  1.2213 -0.9903
 2656SOL    HW310397   6.417   6.085   2.022  0.2592 -1.1186 -0.2368
 2656SOL    MW410398   6.402   6.066   2.105 -0.3447  0.5350  0.0789
 2657SOL     OW10399   1.328   0.890   2.463  0.5995  0.1737  0.0971
 2657SOL    HW210400   1.311   0.908   2.555  0.1331 -0.1482  0.0757
 2657SOL    HW310401   1.269   0.817   2.441  1.4010 -0.4092 -0.1957
 2657SOL    MW410402   1.318   0.882   2.472  0.2370 -0.5744  0.6386
 2658SOL     OW10403   5.042   4.314   3.910  0.1812  0.0055 -0.1276
 2658SOL    HW210404   5.020   4.393   3.959 -0.6044  0.9840 -1.9382
 2658SOL    HW310405   5.030   4.243   3.972  1.8962  1.3365  1.8565
 2658SOL    MW410406   5.037   4.315   3.924  0.2457  0.1448 -1.0333
 2659SOL     OW10407   2.225   0.145   5.145 -0.3713 -0.0241 -0.1691
 2659SOL    HW210408   2.255   0.213   5.206 -1.2774  1.5809 -1.4255
 2659SOL    HW310409   2.167   0.090   5.197  1.8093 -1.0331  1.3634
 2659SOL    MW410410   2.221   0.147   5.160 -0.6475  0.5754  0.0695
 2660SOL     OW10411   0.658   2.571   1.758 -0.1786 -0.1271 -1.1216
 2660SOL    HW210412   0.707   2.507   1.810 -2.7026  0.0727  1.7943
 2660SOL    HW310413   0.574   2.529   1.741 -1.7169  2.1102  0.4072
 2660SOL    MW410414   0.653   2.557   1.763 -0.5885  0.5794 -0.0629
 2661SOL     OW10415   2.909   2.793   3.797 -0.1513  0.5995 -0.1444
 2661SOL    HW210416   2.924   2.702   3.823  0.1576  0.6205 -0.2528
 2661SOL    HW310417   2.846   2.787   3.725 -0.9032  0.5335  0.5049
 2661SOL    MW410418   2.902   2.780   3.791  0.2611 -0.2790  0.6522
 2662SOL     OW10419   5.837   3.972   2.681 -0.0427 -0.4827 -0.1984
 2662SOL    HW210420   5.833   4.003   2.590 -0.9055 -1.3514 -0.4704
 2662SOL    HW310421   5.747   3.977   2.712  0.4790  1.3855  1.1855
 2662SOL    MW410422   5.825   3.977   2.673  0.2769  0.2809 -0.1469
 2663SOL     OW10423   5.585   4.861   3.063  0.0507  0.2875 -0.3558
 2663SOL    HW210424   5.496   4.862   3.100 -0.0086 -0.0553 -0.4860
 2663SOL    HW310425   5.634   4.802   3.120  0.4649  1.2524  0.3157
 2663SOL    MW410426   5.579   4.854   3.075  0.4350 -0.1084 -0.3625
 2664SOL     OW10427   6.120   5.227   1.356 -0.5764 -0.3226 -0.1323
 2664SOL    HW210428   6.179   5.293   1.320 -1.9262  0.2800 -1.3023
 2664SOL    HW310429   6.133   5.151   1.300 -0.9866 -0.1533 -0.4585
 2664SOL    MW410430   6.130   5.226   1.344 -0.6393  0.0069 -0.2561
 2665SOL     OW10431   3.025   3.593   2.325 -0.4876  0.5685 -0.0631
 2665SOL    HW210432   3.106   3.575   2.373 -0.5769 -1.6945 -0.6450
 2665SOL    HW310433   3.019   3.522   2.261 -2.0817  1.6428 -1.1691
 2665SOL    MW410434   3.035   3.581   2.323 -0.1333  0.1237  0.0858
 2666SOL     OW10435   3.065   4.318   3.816  0.1757 -0.1497 -0.5230
 2666SOL    HW210436   3.157   4.344   3.805 -0.1667  1.3915  0.0358
 2666SOL    HW310437   3.016   4.380   3.762 -0.8255  1.7118  2.3380
 2666SOL    MW410438   3.071   4.329   3.807 -0.1608 -0.1347  0.1935
 2667SOL     OW10439   0.176   0.777   2.712  0.2840 -0.6626  0.0678
 2667SOL    HW210440   0.083   0.800   2.714  0.2499 -0.5795 -1.4328
 2667SOL    HW310441   0.216   0.832   2.779 -0.5688  0.2099 -0.1208
 2667SOL    MW410442   0.169   0.787   2.721  0.4363  0.0034  0.4637
 2668SOL     OW10443   5.267   4.058   2.291  0.0654  0.0975 -0.1591
 2668SOL    HW210444   5.284   3.967   2.314  1.0274  1.0474  3.6260
 2668SOL    HW310445   5.172   4.065   2.293  0.0032 -0.3739  2.2426
 2668SOL    MW410446   5.257   4.047   2.294  0.6876  0.5290 -0.5789
 2669SOL     OW10447   4.662   0.010   4.541  0.4997 -0.2080  0.1357
 2669SOL    HW210448   4.742  -0.009   4.591  0.3284 -0.8377  0.1696
 2669SOL    HW310449   4.659  -0.057   4.473 -1.2732 -1.7242  1.6004
 2669SOL    MW410450   4.672  -0.001   4.539  0.2750  0.4428 -0.0121
 2670SOL     OW10451   4.056   2.093   6.158  0.6376  0.1346 -0.4560
 2670SOL    HW210452   4.055   2.179   6.198 -0.8891  0.1648 -0.5058
 2670SOL    HW310453   4.128   2.047   6.202  1.6769  1.5028 -0.6515
 2670SOL    MW410454   4.066   2.098   6.169 -0.1325 -0.4122  0.0400
 2671SOL     OW10455   5.081   0.486   0.029  0.4249 -0.4950  0.1417
 2671SOL    HW210456   5.012   0.549   0.009  0.0113 -0.3359  1.9043
 2671SOL    HW310457   5.049   0.403  -0.007  0.1171 -0.0814 -0.5606
 2671SOL    MW410458   5.068   0.484   0.022  0.3316  0.0602 -0.4135
 2672SOL     OW10459   5.694   2.970   5.290  0.2165 -0.0968  0.5632
 2672SOL    HW210460   5.782   2.980   5.328 -0.6193  1.5429  2.2220
 2672SOL    HW310461   5.711   2.947   5.199  2.3572 -0.8862  1.0806
 2672SOL    MW410462   5.708   2.968   5.283 -0.8484  0.2483 -0.7083
 2673SOL     OW10463   4.585   2.175   0.568  0.1711  0.4421 -0.0975
 2673SOL    HW210464   4.599   2.263   0.535  1.7243  0.3747  0.2987
 2673SOL    HW310465   4.667   2.152   0.611  0.1425 -1.5451 -0.9781
 2673SOL    MW410466   4.597   2.184   0.570 -0.0772 -0.6318  0.0179
 2674SOL     OW10467   5.553   2.472   0.727 -0.3103 -0.1515 -0.3630
 2674SOL    HW210468   5.570   2.398   0.668  1.2738  0.2262 -0.4204
 2674SOL    HW310469   5.636   2.520   0.729 -0.9846  1.0087  0.5441
 2674SOL    MW410470   5.566   2.469   0.719 -0.2265  0.0729  0.0705
 2675SOL     OW10471   3.453   2.922   5.967 -0.0969  0.3796 -0.7754
 2675SOL    HW210472   3.511   2.977   5.915 -0.3559  0.8015 -0.6232
 2675SOL    HW310473   3.395   2.984   6.012 -1.7168 -0.0620 -2.1522
 2675SOL    MW410474   3.453   2.937   5.966 -0.4714  0.6179 -0.3017
 2676SOL     OW10475   5.548   3.201   5.027 -0.2352 -0.0912 -0.2745
 2676SOL    HW210476   5.484   3.175   4.960 -1.3389  1.8462 -0.0652
 2676SOL    HW310477   5.513   3.166   5.109 -0.6372  0.2835 -0.2776
 2676SOL    MW410478   5.535   3.193   5.029  0.0971 -0.8692  0.9415
 2677SOL     OW10479   2.581   3.184   2.443  0.1507  0.2301  0.5899
 2677SOL    HW210480   2.515   3.192   2.512 -1.7122  1.1435 -1.1967
 2677SOL    HW310481   2.537   3.136   2.373  2.4231 -1.8448  0.4794
 2677SOL    MW410482   2.566   3.179   2.443  0.3157 -0.4206 -0.4469
 2678SOL     OW10483   5.716   5.564   3.478 -0.1920  0.7197  0.1739
 2678SOL    HW210484   5.767   5.630   3.525  1.1001 -0.4890  0.5523
 2678SOL    HW310485   5.679   5.610   3.403 -0.2521  2.1089  1.0225
 2678SOL    MW410486   5.718   5.579   3.475  0.2567 -0.2908 -0.0181
 2679SOL     OW10487   1.426   2.093   6.011  0.5268  0.0820  0.1396
 2679SOL    HW210488   1.365   2.131   6.075  0.3911  0.2977 -0.1162
 2679SOL    HW310489   1.388   2.116   5.926  0.9003  0.1083 -0.0187
 2679SOL    MW410490   1.413   2.101   6.008  0.5037 -0.2855  0.1459
 2680SOL     OW10491   5.482   2.849   4.284  0.5967  0.3800  0.2868
 2680SOL    HW210492   5.456   2.933   4.247 -0.3792 -0.3754 -0.8129
 2680SOL    HW310493   5.566   2.866   4.326  0.4365  1.8853  0.0469
 2680SOL    MW410494   5.489   2.863   4.285 -0.0068 -0.3163  0.3043
 2681SOL     OW10495   1.762   6.264   2.402 -0.3865  0.3632  0.3797
 2681SOL    HW210496   1.726   6.311   2.326  0.3723  1.1736  0.5124
 2681SOL    HW310497   1.717   6.302   2.477 -0.8263 -0.1455  0.3835
 2681SOL    MW410498   1.751   6.275   2.402 -0.5267  0.4380  0.4364
 2682SOL     OW10499   2.167   0.749   4.320  0.3612 -0.2404  0.5385
 2682SOL    HW210500   2.079   0.759   4.357  0.0350 -0.7524 -0.0782
 2682SOL    HW310501   2.176   0.823   4.261 -0.4811 -1.2863 -0.9666
 2682SOL    MW410502   2.156   0.760   4.317  0.4020  0.1010 -0.1868
 2683SOL     OW10503   3.528   0.154   3.987  0.7736 -0.0781 -0.3393
 2683SOL    HW210504   3.436   0.176   3.974  0.4030 -1.2129  0.2034
 2683SOL    HW310505   3.562   0.138   3.899  0.1301 -0.8249 -0.4631
 2683SOL    MW410506   3.521   0.155   3.974  0.3892  0.1198  0.1174
 2684SOL     OW10507   2.879   1.270   5.405  0.3213  0.3362 -0.7060
 2684SOL    HW210508   2.805   1.271   5.344  0.8113  0.4066 -1.3095
 2684SOL    HW310509   2.946   1.219   5.360  1.5459  2.3414 -1.2672
 2684SOL    MW410510   2.878   1.263   5.391  0.0399  0.4144 -0.2157
 2685SOL     OW10511   2.584   2.849   2.927  0.0244  0.1252  0.2897
 2685SOL    HW210512   2.671   2.809   2.920 -0.2156 -0.0943 -3.1917
 2685SOL    HW310513   2.523   2.776   2.921 -0.3974  0.5050 -0.1146
 2685SOL    MW410514   2.587   2.834   2.925 -0.3919 -0.5753  0.8526
 2686SOL     OW10515   0.910   5.535   1.142  0.3375  0.0349  0.0058
 2686SOL    HW210516   0.916   5.489   1.058 -0.9772 -3.0339  1.4213
 2686SOL    HW310517   0.988   5.509   1.190  1.4966  2.4183 -0.4392
 2686SOL    MW410518   0.921   5.526   1.137  0.3170 -0.0910  0.3114
 2687SOL     OW10519   4.190   0.819   6.192  0.1134  0.1681  0.1752
 2687SOL    HW210520   4.247   0.752   6.153 -0.4612  0.0383 -0.4693
 2687SOL    HW310521   4.101   0.789   6.171 -0.1878  0.4575  1.0202
 2687SOL    MW410522   4.186   0.806   6.184  0.1115  0.2240 -0.2944
 2688SOL     OW10523   1.656   4.016   3.982  0.7287 -0.0039  0.1879
 2688SOL    HW210524   1.638   4.050   4.070 -1.0324 -0.0266 -0.1244
 2688SOL    HW310525   1.696   3.931   3.997 -1.2408 -0.8367  1.0039
 2688SOL    MW410526   1.659   4.010   3.996 -0.6462 -0.5800 -0.2734
 2689SOL     OW10527   3.747   0.107   5.841  0.2075  0.2143  0.1046
 2689SOL    HW210528   3.654   0.094   5.863  0.1278  0.3582 -0.1399
 2689SOL    HW310529   3.747   0.118   5.746  0.3647  1.1697  0.2079
 2689SOL    MW410530   3.735   0.107   5.832 -0.3204  0.2352  0.0955
 2690SOL     OW10531   4.454   1.625   5.505 -0.1475 -0.7936 -0.3256
 2690SOL    HW210532   4.490   1.669   5.581 -0.8546 -0.3144 -0.2579
 2690SOL    HW310533   4.373   1.585   5.536 -0.6288 -0.2933 -0.8970
 2690SOL    MW410534   4.448   1.625   5.519  0.4193  0.3971 -0.2175
 2691SOL     OW10535   5.320   2.342   3.026 -0.3699 -0.4426  0.2795
 2691SOL    HW210536   5.267   2.262   3.029 -0.4221 -0.4627 -0.6786
 2691SOL    HW310537   5.266   2.405   2.979  0.3943 -0.4330 -0.6322
 2691SOL    MW410538   5.306   2.340   3.020 -0.1270  0.2636  0.0528
 2692SOL     OW10539   3.859   1.660   3.235  0.0321  0.0087 -0.3404
 2692SOL    HW210540   3.787   1.721   3.225  0.8266  1.1608  0.6314
 2692SOL    HW310541   3.861   1.641   3.329  0.2299 -0.9860 -0.5310
 2692SOL    MW410542   3.850   1.665   3.246 -0.2891 -0.2512  0.2652
 2693SOL     OW10543   0.062   0.328   0.892 -0.3325  0.3668  0.5335
 2693SOL    HW210544   0.108   0.272   0.955  1.0343  0.5690 -0.2407
 2693SOL    HW310545   0.090   0.295   0.807 -2.3245 -0.0446 -0.0049
 2693SOL    MW410546   0.072   0.316   0.889 -0.1512 -0.2315  0.3537
 2694SOL     OW10547   5.423   2.177   3.250 -0.2668 -0.0589 -0.5148
 2694SOL    HW210548   5.341   2.169   3.201 -0.4844  0.3443 -0.2299
 2694SOL    HW310549   5.405   2.246   3.315  0.4223  0.3144 -0.7071
 2694SOL    MW410550   5.410   2.185   3.252  0.4281  0.0319  0.5210
 2695SOL     OW10551   1.878   4.846   4.224  0.0240 -0.0143 -0.0333
 2695SOL    HW210552   1.874   4.763   4.177  0.2862 -1.0791  1.7494
 2695SOL    HW310553   1.912   4.908   4.159 -0.6296 -1.1597 -1.5413
 2695SOL    MW410554   1.882   4.843   4.209  0.3818  0.3870  0.1892
 2696SOL     OW10555   4.077   2.478   3.207  0.4846  0.1214 -0.2178
 2696SOL    HW210556   4.070   2.412   3.276  0.9517  0.9990  0.6883
 2696SOL    HW310557   4.128   2.435   3.139 -0.8596 -1.1144 -0.4846
 2696SOL    MW410558   4.083   2.463   3.207  0.1015  0.2288 -0.2959
 2697SOL     OW10559   2.656   5.030   1.857 -0.3458 -0.2835 -0.0952
 2697SOL    HW210560   2.609   5.009   1.938 -1.3096 -2.2640 -1.1015
 2697SOL    HW310561   2.588   5.055   1.795  0.1740 -0.7177 -0.8563
 2697SOL    MW410562   2.641   5.030   1.860  0.1310 -0.7251  0.2030
 2698SOL     OW10563   0.297   4.828   0.717 -0.5520 -0.6191 -0.2145
 2698SOL    HW210564   0.349   4.898   0.758 -0.6790 -0.1612 -0.8254
 2698SOL    HW310565   0.226   4.811   0.779  0.0025 -0.8617  0.3697
 2698SOL    MW410566   0.295   4.835   0.730 -0.3019  0.1512  0.2811
 2699SOL     OW10567   2.639   4.827   4.191  0.5436  0.6605 -0.3172
 2699SOL    HW210568   2.588   4.795   4.266  0.9426  0.1062 -0.2751
 2699SOL    HW310569   2.659   4.748   4.141  0.7503  0.9640 -0.7173
 2699SOL    MW410570   2.635   4.812   4.194 -0.2756 -0.5473  0.0588
 2700SOL     OW10571   1.619   3.940   1.233  0.4067 -0.1293  0.1926
 2700SOL    HW210572   1.601   3.930   1.140  0.7576  0.3191  0.0726
 2700SOL    HW310573   1.609   3.852   1.269  1.4710 -0.5432 -0.4809
 2700SOL    MW410574   1.616   3.927   1.226 -0.2803 -0.4117 -0.6659
 2701SOL     OW10575   3.096   0.177   1.853  0.1561 -0.1832  0.5271
 2701SOL    HW210576   3.126   0.213   1.769 -0.4494 -0.8775  0.0062
 2701SOL    HW310577   3.107   0.083   1.844  1.9949 -0.1807  1.9914
 2701SOL    MW410578   3.102   0.170   1.840 -0.3109  0.0448 -0.2167
 2702SOL     OW10579   2.414   5.199   5.769  0.1126  0.2278 -0.2943
 2702SOL    HW210580   2.344   5.140   5.796  0.2683 -0.1441 -0.6889
 2702SOL    HW310581   2.442   5.241   5.850 -0.1881 -0.0392 -0.0481
 2702SOL    MW410582   2.408   5.196   5.783  0.6322  0.2967  0.0962
 2703SOL     OW10583   0.166   3.428   2.200  0.2046  0.0417  0.5843
 2703SOL    HW210584   0.231   3.455   2.135  0.0192 -0.0829  0.3436
 2703SOL    HW310585   0.159   3.333   2.188  0.2127  0.0099  0.8291
 2703SOL    MW410586   0.174   3.419   2.190 -0.6966 -0.5306 -1.2347
 2704SOL     OW10587   2.117   3.753   0.353 -0.6543  0.1157 -0.0445
 2704SOL    HW210588   2.128   3.782   0.263  1.6232 -1.2646 -0.2903
 2704SOL    HW310589   2.098   3.659   0.346 -2.4670  0.3711  0.8854
 2704SOL    MW410590   2.116   3.744   0.340 -0.6992  0.2115 -0.8311
 2705SOL     OW10591   1.415   5.001   3.541  0.5875 -0.5688  0.0462
 2705SOL    HW210592   1.443   4.913   3.566 -1.0786 -0.8948  0.8705
 2705SOL    HW310593   1.322   4.992   3.520  0.5026  0.9108 -0.3518
 2705SOL    MW410594   1.406   4.988   3.541 -0.5576  0.5209 -0.5247
 2706SOL     OW10595   5.569   6.376   6.390 -0.7396 -0.0022 -0.2182
 2706SOL    HW210596   5.589   6.431   6.465 -0.3623  0.6994 -0.8179
 2706SOL    HW310597   5.646   6.319   6.381  0.7335  2.0931 -1.9833
 2706SOL    MW410598   5.582   6.376   6.398  0.1390 -0.2426  0.6772
 2707SOL     OW10599   4.791   1.179   2.405 -0.1163 -0.6377 -0.1367
 2707SOL    HW210600   4.745   1.101   2.437 -0.4928  0.3435  1.8499
 2707SOL    HW310601   4.806   1.161   2.312 -2.6297 -1.8848 -0.3884
 2707SOL    MW410602   4.787   1.166   2.397  0.0064  0.3532  0.5137
 2708SOL     OW10603   1.119   4.036   1.951  0.2188 -0.2131  0.1839
 2708SOL    HW210604   1.126   4.123   1.990  0.8279 -0.1341 -0.0988
 2708SOL    HW310605   1.027   4.012   1.965 -0.4762  1.2610 -1.4009
 2708SOL    MW410606   1.108   4.044   1.958 -0.0880 -0.5016 -0.9302
 2709SOL     OW10607   3.170   0.888   4.271  0.2449 -0.0289  0.1199
 2709SOL    HW210608   3.108   0.929   4.210  1.0350  0.7432 -0.1853
 2709SOL    HW310609   3.250   0.875   4.219 -0.1032 -2.4175  0.0666
 2709SOL    MW410610   3.173   0.891   4.256  0.3677  0.4501 -0.3445
 2710SOL     OW10611   3.101   3.162   1.865 -0.2144 -1.1492 -0.2815
 2710SOL    HW210612   3.076   3.221   1.795 -0.5032  0.2386  0.9380
 2710SOL    HW310613   3.033   3.175   1.932  1.9531  0.3073  1.7704
 2710SOL    MW410614   3.089   3.171   1.865 -0.0723  0.1719 -0.2748
 2711SOL     OW10615   4.657   3.525   4.033 -0.5048  0.8096  0.3431
 2711SOL    HW210616   4.728   3.491   4.087  1.1436  0.2915 -1.9774
 2711SOL    HW310617   4.608   3.447   4.006  0.0756  0.7874 -0.7030
 2711SOL    MW410618   4.660   3.510   4.036 -0.1944  0.3678 -0.4817
 2712SOL     OW10619   6.383   5.176   3.213  0.0253  0.3025 -0.1041
 2712SOL    HW210620   6.419   5.103   3.263 -0.5471  0.9072  1.2311
 2712SOL    HW310621   6.294   5.148   3.191  0.1753  0.1602 -0.5404
 2712SOL    MW410622   6.376   5.163   3.217  0.5074  0.9175  0.1598
 2713SOL     OW10623   5.776   2.965   3.452  0.2606 -0.2754  0.5259
 2713SOL    HW210624   5.694   2.930   3.488 -0.6847  0.7732 -0.5194
 2713SOL    HW310625   5.827   2.990   3.529 -2.1861  3.0145  1.3141
 2713SOL    MW410626   5.772   2.963   3.467  0.1206  0.1762  0.5918
 2714SOL     OW10627   3.823   0.759   2.559  0.2806  0.0850 -0.4920
 2714SOL    HW210628   3.770   0.719   2.490 -2.0324  2.0623 -0.0037
 2714SOL    HW310629   3.912   0.732   2.539 -0.4278 -0.4002 -3.5661
 2714SOL    MW410630   3.828   0.750   2.547  0.0195  0.2626  0.0241
 2715SOL     OW10631   4.396   0.552   1.902 -0.0821  0.1045  0.9130
 2715SOL    HW210632   4.386   0.471   1.851  0.1906  1.7719 -1.9740
 2715SOL    HW310633   4.490   0.559   1.916  0.0772  0.7155 -0.3202
 2715SOL    MW410634   4.407   0.542   1.897  0.3447 -0.3514  1.0616
 2716SOL     OW10635   1.036   2.829   2.043 -0.1063 -0.1027 -0.0937
 2716SOL    HW210636   0.975   2.761   2.071  0.2257 -0.0403  0.8310
 2716SOL    HW310637   0.992   2.873   1.971 -0.7083 -0.7193 -0.1101
 2716SOL    MW410638   1.022   2.826   2.038 -0.4680  0.1159  0.0003
 2717SOL     OW10639   2.263   1.300   0.439 -0.3548 -0.3819  0.1801
 2717SOL    HW210640   2.279   1.306   0.345 -1.2956  0.0618  0.0399
 2717SOL    HW310641   2.174   1.265   0.447 -0.4040 -0.1150  0.9003
 2717SOL    MW410642   2.253   1.296   0.428  0.3441  0.0826  0.0866
 2718SOL     OW10643   3.839   1.630   3.510  0.3860 -0.4141  0.3411
 2718SOL    HW210644   3.887   1.548   3.499  1.1414  0.1883 -0.9608
 2718SOL    HW310645   3.906   1.695   3.532  0.1224  0.3221 -0.9421
 2718SOL    MW410646   3.854   1.628   3.512 -0.2238 -0.2959  0.7116
 2719SOL     OW10647   2.411   4.976   2.455 -0.6328 -0.4151  0.3924
 2719SOL    HW210648   2.482   4.912   2.451 -1.7031 -1.5701 -1.7297
 2719SOL    HW310649   2.332   4.924   2.441 -1.9345  0.8584  2.4714
 2719SOL    MW410650   2.410   4.961   2.453  0.2720 -0.0597  0.2847
 2720SOL     OW10651   1.443   1.790   4.734 -0.1125  0.3228  0.4060
 2720SOL    HW210652   1.459   1.813   4.825 -1.3337 -1.4792  1.1462
 2720SOL    HW310653   1.510   1.724   4.714 -0.5663 -0.1437  0.4000
 2720SOL    MW410654   1.454   1.784   4.743 -0.0552 -0.6880  0.1624
 2721SOL     OW10655   1.542   2.301   3.482 -0.2964  0.0373 -0.7029
 2721SOL    HW210656   1.472   2.366   3.486 -0.5851 -0.2679 -0.7757
 2721SOL    HW310657   1.500   2.218   3.505  0.3847  0.1143  1.0106
 2721SOL    MW410658   1.528   2.298   3.485 -0.4383 -0.8880 -0.3044
 2722SOL     OW10659   1.648   0.749   0.720  0.0337 -0.1354  0.1485
 2722SOL    HW210660   1.637   0.785   0.632 -0.1365 -1.2612 -0.3051
 2722SOL    HW310661   1.729   0.789   0.752 -1.4506  2.6619  0.7180
 2722SOL    MW410662   1.657   0.759   0.713  0.3918  0.0487 -0.4187
 2723SOL     OW10663   3.617   2.408   2.446 -0.5782  0.2866  0.4590
 2723SOL    HW210664   3.615   2.471   2.518  1.7077  0.2999  0.5720
 2723SOL    HW310665   3.635   2.324   2.487 -0.7367  0.0359  0.0275
 2723SOL    MW410666   3.619   2.405   2.461 -0.1971 -0.1870  0.1355
 2724SOL     OW10667   5.383   2.559   5.966  0.2030 -1.0977 -0.1821
 2724SOL    HW210668   5.313   2.501   5.937  0.2931 -0.6394 -1.3533
 2724SOL    HW310669   5.400   2.616   5.891  0.3379  0.2443  0.8277
 2724SOL    MW410670   5.376   2.559   5.952  0.4544 -0.2041  0.3596
 2725SOL     OW10671   3.343   2.415   1.536  0.5035 -0.1225  0.0036
 2725SOL    HW210672   3.302   2.344   1.586  0.1838 -0.3541 -0.5694
 2725SOL    HW310673   3.435   2.412   1.560  0.1653  0.5295  1.4646
 2725SOL    MW410674   3.349   2.405   1.546  0.0710 -0.4881 -0.4628
 2726SOL     OW10675   2.982   4.567   2.194 -0.5483  0.3303  0.2619
 2726SOL    HW210676   2.970   4.660   2.215  1.2255  0.8191 -0.6757
 2726SOL    HW310677   2.972   4.522   2.277 -1.1141  1.3959  0.7905
 2726SOL    MW410678   2.979   4.574   2.208  0.1059 -0.3417 -0.2011
 2727SOL     OW10679   1.770   4.786   5.859 -0.1126  0.1903  0.2159
 2727SOL    HW210680   1.789   4.735   5.937  0.0006 -0.8212 -0.4539
 2727SOL    HW310681   1.674   4.783   5.852 -0.0551 -0.7659 -0.3480
 2727SOL    MW410682   1.760   4.779   5.868 -0.0838  0.3900  0.3224
 2728SOL     OW10683   5.473   1.658   6.349  0.2903  0.2298  0.5109
 2728SOL    HW210684   5.525   1.640   6.271 -2.0462  0.1967 -1.1738
 2728SOL    HW310685   5.396   1.602   6.340 -1.1152  1.8434  1.6580
 2728SOL    MW410686   5.470   1.648   6.337 -0.1487  0.8811 -0.6463
 2729SOL     OW10687   5.997   4.146   3.614 -0.2751  0.4597 -1.0291
 2729SOL    HW210688   6.036   4.098   3.687  0.3337  3.6906  0.9309
 2729SOL    HW310689   5.922   4.092   3.587  2.1884 -3.1965 -1.2957
 2729SOL    MW410690   5.992   4.132   3.620 -0.4042 -0.0600 -0.3236
 2730SOL     OW10691   5.267   4.091   4.420 -0.7689  0.7097 -0.5663
 2730SOL    HW210692   5.260   4.022   4.355  0.8825  2.1378 -2.3626
 2730SOL    HW310693   5.182   4.136   4.417 -2.5419 -2.1311  1.8666
 2730SOL    MW410694   5.255   4.088   4.411 -1.0477 -0.6069  0.4429
 2731SOL     OW10695   4.348   5.431   5.261  0.1309 -0.2112  0.5395
 2731SOL    HW210696   4.344   5.354   5.318  0.5217 -0.7006 -0.0842
 2731SOL    HW310697   4.291   5.409   5.187 -1.0373  0.7574  1.1295
 2731SOL    MW410698   4.340   5.418   5.259  0.0844  0.0358 -0.0819
 2732SOL     OW10699   4.069   2.607   4.983 -0.2984  0.0666  0.5584
 2732SOL    HW210700   4.028   2.683   5.025 -0.0771 -0.0554  1.0061
 2732SOL    HW310701   4.089   2.637   4.894 -3.3178 -0.5561 -0.4362
 2732SOL    MW410702   4.066   2.621   4.977  0.2296 -0.1636  0.6646
 2733SOL     OW10703   4.027   5.160   5.157  0.1550 -0.6962  0.6847
 2733SOL    HW210704   3.999   5.227   5.220  1.9600 -2.2212  3.3303
 2733SOL    HW310705   4.116   5.137   5.185  0.4892 -2.5533 -1.5687
 2733SOL    MW410706   4.035   5.166   5.169 -0.7371  0.0349 -0.1698
 2734SOL     OW10707   0.059   1.957   2.062  0.4721 -1.1636 -0.5390
 2734SOL    HW210708   0.056   1.903   1.984 -1.4400 -0.5770 -0.9199
 2734SOL    HW310709   0.073   2.046   2.029 -0.6075 -0.8769 -0.2664
 2734SOL    MW410710   0.060   1.962   2.048  0.3167  0.0559 -0.2234
 2735SOL     OW10711   0.850   5.726   0.583 -0.2821 -0.0540 -0.3240
 2735SOL    HW210712   0.887   5.795   0.527  1.2877  1.0620  1.9173
 2735SOL    HW310713   0.771   5.765   0.620 -0.4649 -0.2029 -0.5560
 2735SOL    MW410714   0.844   5.741   0.581  0.0014 -0.1676 -0.6140
 2736SOL     OW10715   4.570   4.324   6.010  0.3428 -0.0869  0.1873
 2736SOL    HW210716   4.580   4.280   5.925 -0.6705  0.8816 -0.4574
 2736SOL    HW310717   4.640   4.390   6.011 -0.8895  1.3061 -0.8420
 2736SOL    MW410718   4.581   4.327   5.999 -0.4860  0.2783  0.6274
 2737SOL     OW10719   1.373   0.425   0.859  0.4798 -0.2242 -0.5181
 2737SOL    HW210720   1.278   0.415   0.864  0.1954  1.1422 -2.0655
 2737SOL    HW310721   1.390   0.435   0.765  2.1671 -0.5670 -0.2630
 2737SOL    MW410722   1.362   0.425   0.847  0.5756 -0.1027 -0.5546
 2738SOL     OW10723   0.579   3.202   1.007 -0.3437  0.0114  0.1408
 2738SOL    HW210724   0.642   3.188   1.078  0.0477  1.0721  0.0136
 2738SOL    HW310725   0.574   3.297   0.998 -2.6782  0.0076  0.7808
 2738SOL    MW410726   0.587   3.213   1.015 -0.3011 -0.6452 -0.1180
 2739SOL     OW10727   4.972   5.489   6.051  0.2054  0.2031 -0.0221
 2739SOL    HW210728   4.981   5.576   6.013 -2.0511  0.3545 -0.3028
 2739SOL    HW310729   4.918   5.441   5.989  0.9595 -1.2553  0.3959
 2739SOL    MW410730   4.966   5.494   6.038  0.0470 -0.2398 -0.3110
 2740SOL     OW10731   0.212   6.354   5.723 -0.1807 -0.0016  0.0588
 2740SOL    HW210732   0.181   6.276   5.677 -0.1151  0.5894 -1.0327
 2740SOL    HW310733   0.300   6.369   5.689  0.4429 -0.3495  1.4445
 2740SOL    MW410734   0.220   6.346   5.712  0.1336  0.3358 -0.3469
 2741SOL     OW10735   5.296   1.077   1.482  0.1726 -0.4307  0.5017
 2741SOL    HW210736   5.347   1.136   1.426  0.3010 -0.7966  0.2327
 2741SOL    HW310737   5.317   1.106   1.571  1.2201 -0.8598  0.4139
 2741SOL    MW410738   5.306   1.089   1.487  0.3466  0.6291  0.1249
 2742SOL     OW10739   5.913   2.980   5.459 -1.0452 -0.2340 -0.0247
 2742SOL    HW210740   6.002   2.946   5.462  0.2046  2.7492 -0.2316
 2742SOL    HW310741   5.878   2.964   5.547  0.0385 -0.5836  0.3514
 2742SOL    MW410742   5.920   2.973   5.471  1.1328  0.1000 -0.3428
 2743SOL     OW10743   3.783   5.613   0.783 -0.1842  0.2806  0.4446
 2743SOL    HW210744   3.807   5.655   0.866 -1.1551  1.1304  0.3197
 2743SOL    HW310745   3.772   5.686   0.722 -0.4817 -0.2725 -0.1729
 2743SOL    MW410746   3.785   5.628   0.786 -0.5397  0.4975 -0.3013
 2744SOL     OW10747   0.056   5.233   0.353  0.2016  0.1197  0.4540
 2744SOL    HW210748   0.137   5.219   0.402  0.9556  0.9194 -0.5085
 2744SOL    HW310749   0.008   5.299   0.402  1.2910  1.4580 -0.2215
 2744SOL    MW410750   0.060   5.240   0.366  0.5826  0.4377  0.0809
 2745SOL     OW10751   2.775   0.663   4.046 -0.1550  0.3191  0.1244
 2745SOL    HW210752   2.701   0.653   4.106 -0.7187  1.4441 -0.3653
 2745SOL    HW310753   2.749   0.733   3.987  0.4132 -0.7192 -1.4169
 2745SOL    MW410754   2.762   0.671   4.046 -0.0562  0.0545 -0.0450
 2746SOL     OW10755   3.997   1.189   4.844  0.0179 -0.4120 -0.2108
 2746SOL    HW210756   4.085   1.226   4.838  0.1965 -0.8034 -0.0345
 2746SOL    HW310757   4.003   1.105   4.798 -0.7780  0.4592 -2.0198
 2746SOL    MW410758   4.009   1.182   4.837  0.4204  0.1152 -0.1507
 2747SOL     OW10759   3.717   6.408   0.867 -0.0795  0.3454 -0.0912
 2747SOL    HW210760   3.719   6.400   0.771  0.7363 -1.8688  0.0482
 2747SOL    HW310761   3.791   6.464   0.888  1.2228 -1.0683 -0.6806
 2747SOL    MW410762   3.727   6.414   0.857  0.7220 -0.3363  0.2086
 2748SOL     OW10763   3.127   5.428   3.177  0.3481  0.1355 -0.5988
 2748SOL    HW210764   3.104   5.512   3.217 -0.6544 -0.8780  1.0862
 2748SOL    HW310765   3.043   5.394   3.145  0.3114 -1.2708  0.9070
 2748SOL    MW410766   3.113   5.435   3.178 -0.3319 -0.1067  0.5884
 2749SOL     OW10767   0.812   3.931   3.313 -0.3161 -0.1746  0.4684
 2749SOL    HW210768   0.787   3.840   3.327  3.6632 -1.3221  1.3753
 2749SOL    HW310769   0.836   3.936   3.220 -1.6925  0.3382  0.1188
 2749SOL    MW410770   0.812   3.920   3.303 -0.2900  0.2301 -0.1498
 2750SOL     OW10771   5.741   0.579   4.078 -0.1866  0.5715 -0.9017
 2750SOL    HW210772   5.773   0.519   4.010 -0.3947 -0.7444  0.1090
 2750SOL    HW310773   5.646   0.583   4.064 -0.3225 -0.2453 -0.3007
 2750SOL    MW410774   5.733   0.571   4.067  0.2667  0.0133 -0.2008
 2751SOL     OW10775   2.353   2.264   5.505 -0.0598  0.7098  0.7418
 2751SOL    HW210776   2.442   2.298   5.502  0.3296 -0.3156  0.4406
 2751SOL    HW310777   2.299   2.334   5.468  0.6642  1.1788  0.5575
 2751SOL    MW410778   2.357   2.278   5.500 -0.0053 -0.7131  0.2189
 2752SOL     OW10779   0.438   5.688   0.875 -0.1994 -0.1010  0.2411
 2752SOL    HW210780   0.518   5.641   0.900  0.2634  0.1128 -0.7952
 2752SOL    HW310781   0.413   5.651   0.790 -1.4830 -0.5023  0.7616
 2752SOL    MW410782   0.445   5.677   0.867 -0.4119  0.1429  0.6478
 2753SOL     OW10783   2.000   3.424   3.669  0.0946  0.1819  0.0688
 2753SOL    HW210784   2.030   3.350   3.721  0.5649  1.1284  1.2032
 2753SOL    HW310785   1.920   3.393   3.627 -0.4533 -0.5585  1.5704
 2753SOL    MW410786   1.993   3.410   3.670  0.5135  0.6270 -0.0715
 2754SOL     OW10787   4.840   4.079   5.157 -0.1920 -0.1585 -0.0816
 2754SOL    HW210788   4.934   4.072   5.143 -0.0958  1.1906 -0.2169
 2754SOL    HW310789   4.815   3.995   5.196  1.2335 -0.1579  0.8937
 2754SOL    MW410790   4.849   4.067   5.161 -0.5359 -0.2518  0.2239
 2755SOL     OW10791   2.586   5.032   0.801  0.3076  0.1548  0.7104
 2755SOL    HW210792   2.575   5.095   0.872 -0.7207  0.8765 -0.0522
 2755SOL    HW310793   2.672   5.051   0.765  0.3606  0.5497  1.0342
 2755SOL    MW410794   2.596   5.043   0.806  0.0090  0.2904  0.0553
 2756SOL     OW10795   4.747   6.123   1.499  0.1923 -0.1380 -0.1828
 2756SOL    HW210796   4.706   6.202   1.464  1.0364  0.8917  1.0603
 2756SOL    HW310797   4.682   6.087   1.559 -0.4371 -0.7621 -1.2046
 2756SOL    MW410798   4.733   6.128   1.502 -0.1594  0.0903 -0.3108
 2757SOL     OW10799   0.529   4.510   5.072 -0.1647 -0.4038 -0.1276
 2757SOL    HW210800   0.515   4.458   5.152 -0.2412 -1.3629 -0.7504
 2757SOL    HW310801   0.517   4.600   5.101 -0.2606 -0.7334  0.9382
 2757SOL    MW410802   0.525   4.515   5.087  0.4210 -0.1086 -1.0572
 2758SOL     OW10803   6.408   1.442   1.513 -1.0713  0.3011  0.3346
 2758SOL    HW210804   6.500   1.418   1.504 -1.5018 -1.9877  1.1260
 2758SOL    HW310805   6.375   1.447   1.423 -0.7667 -1.6868  0.0654
 2758SOL    MW410806   6.415   1.439   1.500 -0.4497  0.4732 -0.8766
 2759SOL     OW10807   1.575   5.584   1.436 -0.2687 -0.1608 -0.4222
 2759SOL    HW210808   1.541   5.656   1.383  1.0985 -0.3114 -1.5858
 2759SOL    HW310809   1.603   5.519   1.371 -0.7621 -1.4105  0.5876
 2759SOL    MW410810   1.574   5.585   1.420 -0.4202 -0.0089  0.4563
 2760SOL     OW10811   4.278   4.230   4.146 -0.3635  0.1763  0.3036
 2760SOL    HW210812   4.298   4.316   4.109 -0.1941  0.1188  0.2579
 2760SOL    HW310813   4.357   4.178   4.129 -1.9772 -1.3702 -3.7025
 2760SOL    MW410814   4.291   4.235   4.139 -0.4067  0.5449  0.2366
 2761SOL     OW10815   0.709   4.124   4.919 -0.2441 -0.5635  0.1494
 2761SOL    HW210816   0.675   4.035   4.906 -1.8602 -0.1502  1.1843
 2761SOL    HW310817   0.722   4.158   4.830 -0.3898 -1.5613 -0.2639
 2761SOL    MW410818   0.706   4.117   4.905  0.6999  0.4855  0.0174
 2762SOL     OW10819   5.023   1.946   0.855  0.4071  0.2810  0.4096
 2762SOL    HW210820   4.957   1.879   0.875  0.3800  0.3359  0.5055
 2762SOL    HW310821   4.973   2.014   0.808  0.6925 -0.3712 -0.8789
 2762SOL    MW410822   5.007   1.946   0.851 -0.4673  0.3859  0.1537
 2763SOL     OW10823   1.759   2.743   3.431 -0.2869 -0.1480  0.8171
 2763SOL    HW210824   1.817   2.683   3.478 -0.0087 -1.5430 -1.1685
 2763SOL    HW310825   1.811   2.773   3.356 -1.2275  0.7647  0.5076
 2763SOL    MW410826   1.774   2.739   3.428  0.1775  0.0319  0.6870
 2764SOL     OW10827   2.288   5.768   2.116 -0.3772 -0.3211  0.0942
 2764SOL    HW210828   2.349   5.730   2.053 -0.0051 -1.1468  0.9246
 2764SOL    HW310829   2.218   5.703   2.123 -1.5727  0.7882 -1.1353
 2764SOL    MW410830   2.287   5.754   2.109 -0.3653  0.3142  0.2380
 2765SOL     OW10831   1.066   3.538   4.017 -0.4533 -0.7487  0.4364
 2765SOL    HW210832   1.156   3.513   4.038  0.1902  0.4151 -0.7867
 2765SOL    HW310833   1.012   3.475   4.065  1.0168 -2.1382  0.3621
 2765SOL    MW410834   1.071   3.526   4.026 -0.1235  0.2249  0.2940
 2766SOL     OW10835   3.967   0.450   5.419 -0.2686 -0.2770  0.2097
 2766SOL    HW210836   3.893   0.505   5.445  0.8047  0.8869  0.8678
 2766SOL    HW310837   4.013   0.431   5.500  1.3919  0.8505 -0.4155
 2766SOL    MW410838   3.963   0.455   5.433  0.5709 -0.2730 -0.2690
 2767SOL     OW10839   3.310   5.648   5.195  0.1832  0.1599  0.2757
 2767SOL    HW210840   3.404   5.633   5.205  0.2927  1.6036  1.8076
 2767SOL    HW310841   3.296   5.649   5.100  2.0621  1.7443 -0.0557
 2767SOL    MW410842   3.321   5.646   5.184 -1.1813 -0.2618  0.1333
 2768SOL     OW10843   1.174   4.637   2.029  0.0130  0.0397  0.2188
 2768SOL    HW210844   1.116   4.685   1.971  0.0328  0.5990  0.6513
 2768SOL    HW310845   1.262   4.661   2.001  0.0405 -0.5042 -0.1850
 2768SOL    MW410846   1.178   4.646   2.018 -0.9407 -0.6463 -0.1311
 2769SOL     OW10847   3.041   0.379   1.080  0.7367 -0.3806  0.5138
 2769SOL    HW210848   3.115   0.429   1.046  0.0976  0.2487  0.0179
 2769SOL    HW310849   3.081   0.305   1.126  1.6572 -0.6315 -0.6382
 2769SOL    MW410850   3.056   0.376   1.082 -0.5246  0.1291  0.5398
 2770SOL     OW10851   1.353   1.373   1.745 -0.0119  0.1407 -0.6856
 2770SOL    HW210852   1.328   1.281   1.749 -0.8017  0.3794  1.9113
 2770SOL    HW310853   1.287   1.414   1.688 -0.9711 -0.5499 -0.0980
 2770SOL    MW410854   1.341   1.366   1.738  0.0181  0.2666 -0.2770
 2771SOL     OW10855   4.902   4.392   0.686  0.0009 -0.0130  0.1388
 2771SOL    HW210856   4.874   4.382   0.778 -1.1716  0.8399 -0.1014
 2771SOL    HW310857   4.893   4.304   0.649 -1.7839  0.0778  0.2587
 2771SOL    MW410858   4.897   4.379   0.694  0.3952 -0.2336  0.4779
 2772SOL     OW10859   4.133   0.273   4.323  0.0369 -0.3586 -0.1286
 2772SOL    HW210860   4.078   0.276   4.401 -0.3754 -0.3872 -0.4133
 2772SOL    HW310861   4.088   0.213   4.264 -0.3145  0.6026 -0.8721
 2772SOL    MW410862   4.120   0.265   4.326  0.6099 -0.3629  0.4349
 2773SOL     OW10863   2.068   4.488   6.067  0.1324  0.2255 -0.1160
 2773SOL    HW210864   2.080   4.560   6.130 -0.8226  0.7426 -0.5046
 2773SOL    HW310865   1.993   4.440   6.101  0.8383 -0.6703  0.2008
 2773SOL    MW410866   2.060   4.491   6.080  0.1337  0.1604 -0.4350
 2774SOL     OW10867   2.504   1.224   5.137 -0.5616 -0.1689 -0.1340
 2774SOL    HW210868   2.501   1.318   5.123 -0.2593 -0.1026  0.2054
 2774SOL    HW310869   2.495   1.214   5.232  1.4584 -0.3445  0.0984
 2774SOL    MW410870   2.503   1.235   5.148  0.1802 -0.2073  0.2717
 2775SOL     OW10871   2.030   3.051   2.462  0.4751 -0.0888 -0.2819
 2775SOL    HW210872   2.078   3.133   2.451 -1.6049  1.2108 -0.1039
 2775SOL    HW310873   1.958   3.073   2.520 -0.3134 -1.9864 -0.4788
 2775SOL    MW410874   2.027   3.064   2.468 -0.2381  0.2463 -0.4095
 2776SOL     OW10875   3.125   2.493   3.327  0.2134 -0.1302 -0.0330
 2776SOL    HW210876   3.121   2.568   3.268 -1.5808  0.5511  0.8761
 2776SOL    HW310877   3.037   2.456   3.325  0.9752 -2.1017 -0.2522
 2776SOL    MW410878   3.113   2.498   3.319 -0.7574 -0.4977  0.1309
 2777SOL     OW10879   2.702   1.423   1.126 -0.1769  0.5036 -0.4037
 2777SOL    HW210880   2.641   1.350   1.128 -0.5014  0.7688  2.0847
 2777SOL    HW310881   2.784   1.386   1.158 -0.5146  1.3137  1.5093
 2777SOL    MW410882   2.705   1.409   1.130 -0.1773 -0.8861  0.2530
 2778SOL     OW10883   2.093   0.204   6.177  0.8026  0.0898  0.3580
 2778SOL    HW210884   2.099   0.285   6.228  1.3455 -0.1642  0.7041
 2778SOL    HW310885   2.180   0.166   6.183  1.0766  0.4015 -1.3475
 2778SOL    MW410886   2.105   0.210   6.185 -0.2215 -0.3675 -0.0133
 2779SOL     OW10887   5.085   4.940   5.077  0.3063  0.2138 -0.5974
 2779SOL    HW210888   5.117   5.027   5.054 -0.4981  0.2398 -1.6717
 2779SOL    HW310889   5.134   4.917   5.156  0.5842  1.6057 -0.3386
 2779SOL    MW410890   5.096   4.949   5.085 -0.0154 -0.4380  0.2486
 2780SOL     OW10891   0.777   0.627   5.080  0.3763 -0.2927 -0.5152
 2780SOL    HW210892   0.692   0.668   5.062  0.8380  0.7259 -0.4204
 2780SOL    HW310893   0.772   0.605   5.173 -0.4000 -1.7467 -0.8698
 2780SOL    MW410894   0.765   0.630   5.090 -0.4261  0.2900  0.1476
 2781SOL     OW10895   1.885   6.367   0.929 -0.6687  0.2315 -0.1494
 2781SOL    HW210896   1.938   6.440   0.962  0.4014 -1.1234  1.2532
 2781SOL    HW310897   1.826   6.345   1.000 -0.3617 -0.8355 -0.2058
 2781SOL    MW410898   1.884   6.374   0.943  0.4331 -0.5331 -0.3934
 2782SOL     OW10899   1.286   1.235   2.736  0.4431  0.0363  0.4740
 2782SOL    HW210900   1.225   1.299   2.701  0.6363 -0.5351 -1.0107
 2782SOL    HW310901   1.372   1.274   2.723  0.6210 -0.7763 -1.1748
 2782SOL    MW410902   1.289   1.248   2.729 -0.5234 -0.3348 -0.5304
 2783SOL     OW10903   6.152   6.343   3.966 -0.3377  0.0246  0.5501
 2783SOL    HW210904   6.246   6.354   3.979 -0.3982 -0.0630  1.0755
 2783SOL    HW310905   6.117   6.329   4.054 -0.7022 -0.9975  0.2557
 2783SOL    MW410906   6.160   6.342   3.979 -0.0856 -0.8736  0.0880
 2784SOL     OW10907   5.174   5.594   2.971 -0.3140  0.4674  0.5441
 2784SOL    HW210908   5.266   5.567   2.967 -0.7660 -1.2199  0.4654
 2784SOL    HW310909   5.161   5.648   2.893  0.4522  0.1577  0.1936
 2784SOL    MW410910   5.184   5.597   2.960 -0.1168  0.0112  0.0994
 2785SOL     OW10911   0.780   5.218   2.616 -0.4115 -0.7536  0.1513
 2785SOL    HW210912   0.835   5.148   2.581  0.0810 -0.3147  0.0248
 2785SOL    HW310913   0.697   5.210   2.570  0.4433  0.2362 -1.6478
 2785SOL    MW410914   0.776   5.208   2.606  0.2152 -0.3835 -0.4211
 2786SOL     OW10915   2.886   2.492   4.440 -0.0379 -0.4531 -0.2548
 2786SOL    HW210916   2.793   2.483   4.460 -0.2985  0.2993 -1.0261
 2786SOL    HW310917   2.913   2.405   4.410  0.0444 -1.2364  1.9442
 2786SOL    MW410918   2.877   2.479   4.439  0.2419  0.3996 -0.1133
 2787SOL     OW10919   4.637   1.484   2.781 -0.6296 -0.1473  0.2481
 2787SOL    HW210920   4.695   1.413   2.753 -0.4522 -1.3190  3.2821
 2787SOL    HW310921   4.560   1.439   2.816  0.0507  0.9790  3.4964
 2787SOL    MW410922   4.634   1.469   2.782 -0.0154 -0.4494  0.3307
 2788SOL     OW10923   5.639   2.382   0.985 -0.3140 -0.5032  0.7440
 2788SOL    HW210924   5.605   2.425   0.907  0.8240  1.1707  1.1191
 2788SOL    HW310925   5.562   2.363   1.038 -1.0537 -1.1698 -0.5110
 2788SOL    MW410926   5.625   2.385   0.982  0.2301 -0.0716  0.2513
 2789SOL     OW10927   4.346   5.142   2.153 -0.9138 -0.0949  0.7696
 2789SOL    HW210928   4.275   5.174   2.099 -0.8540  0.4321  0.9935
 2789SOL    HW310929   4.340   5.194   2.234 -0.1267  0.1434  0.6866
 2789SOL    MW410930   4.336   5.153   2.157  0.4257  0.0550 -0.0828
 2790SOL     OW10931   4.802   5.502   4.657  0.2363  0.0455 -0.5289
 2790SOL    HW210932   4.838   5.434   4.600  0.5091 -1.3190  1.1661
 2790SOL    HW310933   4.870   5.516   4.724 -0.4782  0.8187  0.0596
 2790SOL    MW410934   4.816   5.495   4.659  0.2265 -0.3682  0.0566
 2791SOL     OW10935   3.204   5.940   3.170  0.4129 -0.4200  0.1445
 2791SOL    HW210936   3.223   5.956   3.077  0.6559  1.3170  0.4549
 2791SOL    HW310937   3.157   6.019   3.198  0.1373 -1.0317  1.4512
 2791SOL    MW410938   3.200   5.952   3.161 -0.0851  0.2148 -0.3441
 2792SOL     OW10939   6.192   0.694   5.861 -0.1526  0.8409  0.7875
 2792SOL    HW210940   6.123   0.645   5.816 -0.2432  0.6751  1.1013
 2792SOL    HW310941   6.257   0.713   5.793  1.3458 -2.2838  1.1876
 2792SOL    MW410942   6.192   0.690   5.846 -0.3838 -0.1555  0.1934
 2793SOL     OW10943   4.867   3.721   1.611 -0.4205  0.0738 -0.3317
 2793SOL    HW210944   4.853   3.816   1.606  1.7082  0.4224 -0.4248
 2793SOL    HW310945   4.880   3.694   1.520  0.5304 -0.0116 -0.1839
 2793SOL    MW410946   4.867   3.730   1.598 -0.5957  0.0177 -0.4207
 2794SOL     OW10947   0.774   0.407   1.920  0.3233  0.2793  0.3328
 2794SOL    HW210948   0.816   0.394   1.835 -0.3173 -0.7914  0.1669
 2794SOL    HW310949   0.681   0.404   1.902  0.1618 -1.0788  1.2143
 2794SOL    MW410950   0.768   0.405   1.907 -0.4227 -0.0817  0.3813
 2795SOL     OW10951   2.444   5.440   1.550  0.2220 -0.0516 -0.0399
 2795SOL    HW210952   2.358   5.480   1.564 -0.2999 -0.8893 -0.7624
 2795SOL    HW310953   2.432   5.384   1.473  1.1324 -0.9780  0.4733
 2795SOL    MW410954   2.431   5.438   1.542 -0.1455  0.1919  0.4387
 2796SOL     OW10955   2.205   0.507   3.714  0.2142  0.2080 -0.2788
 2796SOL    HW210956   2.159   0.518   3.797  1.6575 -2.0963  0.9316
 2796SOL    HW310957   2.182   0.419   3.685  1.2908  0.2355 -1.3014
 2796SOL    MW410958   2.196   0.497   3.721 -0.2201  0.9404  0.3437
 2797SOL     OW10959   5.645   2.248   6.390 -0.4966 -0.3767 -0.3017
 2797SOL    HW210960   5.562   2.270   6.349 -1.2772 -0.2476  1.2518
 2797SOL    HW310961   5.673   2.329   6.434 -0.8063 -1.0409  1.1997
 2797SOL    MW410962   5.638   2.261   6.391  0.0944 -0.6900  0.0884
 2798SOL     OW10963   5.337   0.936   2.319 -0.2677 -0.1493  0.3344
 2798SOL    HW210964   5.318   0.953   2.411  0.8704  1.1981  0.3469
 2798SOL    HW310965   5.258   0.965   2.272 -0.2619  0.5889  0.7697
 2798SOL    MW410966   5.324   0.942   2.325  0.1423 -0.0735  0.3882
 2799SOL     OW10967   4.058   0.578   0.724 -0.1639  0.2331 -0.6037
 2799SOL    HW210968   4.085   0.623   0.805 -0.6371 -0.3383 -0.1257
 2799SOL    HW310969   3.990   0.634   0.687 -0.6145  0.0151 -0.1105
 2799SOL    MW410970   4.053   0.591   0.730 -0.3211  0.2241 -0.2632
 2800SOL     OW10971   1.922   3.061   5.995  0.1566  0.0688 -0.7863
 2800SOL    HW210972   1.893   3.147   6.026  0.3717  1.0727 -3.1643
 2800SOL    HW310973   2.017   3.065   5.998  0.1644 -0.1230 -0.7872
 2800SOL    MW410974   1.931   3.073   6.000  0.0977 -0.3789 -0.2495
 2801SOL     OW10975   5.943   0.932   5.228  0.0302 -0.3569 -0.4229
 2801SOL    HW210976   5.972   1.021   5.208 -0.4748 -0.1767 -0.3690
 2801SOL    HW310977   5.854   0.943   5.260  0.6456 -0.6669  1.5429
 2801SOL    MW410978   5.935   0.945   5.230 -0.0898  0.4701  0.0386
 2802SOL     OW10979   5.516   2.141   4.585  0.1229 -0.4158 -0.5022
 2802SOL    HW210980   5.486   2.050   4.577  0.8452 -0.5632 -1.6861
 2802SOL    HW310981   5.451   2.182   4.641  0.1650 -1.8389  0.6576
 2802SOL    MW410982   5.503   2.134   4.591  0.1973 -0.4904  0.4719
 2803SOL     OW10983   3.264   4.649   0.788 -0.1407 -0.8012 -0.3660
 2803SOL    HW210984   3.274   4.718   0.723  0.3459 -1.5148 -1.0758
 2803SOL    HW310985   3.243   4.571   0.736 -0.6362 -1.1981  0.4100
 2803SOL    MW410986   3.263   4.648   0.773 -0.0281 -0.0762  0.4368
 2804SOL     OW10987   0.833   4.222   1.593  0.5420  0.1134  0.0511
 2804SOL    HW210988   0.751   4.233   1.640 -0.1595  1.3465 -1.3490
 2804SOL    HW310989   0.838   4.129   1.574 -0.0451 -0.1172  0.9705
 2804SOL    MW410990   0.823   4.211   1.596 -0.4236  0.1924  0.5709
 2805SOL     OW10991   0.456   0.790   3.550  0.6149  0.3117  0.2782
 2805SOL    HW210992   0.450   0.701   3.586  2.0431  0.3864  0.7541
 2805SOL    HW310993   0.458   0.777   3.455 -0.2317 -0.0755  0.2968
 2805SOL    MW410994   0.455   0.776   3.542 -0.1419 -0.4736 -0.0699
 2806SOL     OW10995   4.055   1.915   0.695 -0.1112 -0.3083  0.8295
 2806SOL    HW210996   4.055   1.862   0.774 -2.0588  1.2762  1.9805
 2806SOL    HW310997   4.119   1.985   0.713 -0.6992  0.1647  1.1003
 2806SOL    MW410998   4.064   1.918   0.708 -0.1213 -0.0126  0.0176
 2807SOL     OW10999   1.144   1.493   2.791  0.2733  0.4904 -0.2603
 2807SOL    HW211000   1.105   1.474   2.877 -1.3269 -0.3720 -1.1193
 2807SOL    HW311001   1.170   1.585   2.797 -0.8406  0.7762  0.8030
 2807SOL    MW411002   1.142   1.503   2.803  0.2486 -0.1197 -0.3301
 2808SOL     OW11003   5.936   2.300   0.421 -0.2834  0.2178  0.6581
 2808SOL    HW211004   5.921   2.282   0.514 -0.9844  0.6069  0.6210
 2808SOL    HW311005   5.896   2.226   0.376 -0.4516  0.3199  0.6401
 2808SOL    MW411006   5.929   2.288   0.427 -0.0045 -0.1641  0.0360
 2809SOL     OW11007   2.072   2.766   4.758  0.4299 -0.3036 -0.4113
 2809SOL    HW211008   1.977   2.770   4.750  0.1073 -0.9203  2.3410
 2809SOL    HW311009   2.092   2.674   4.771  1.4017 -0.1444 -0.6706
 2809SOL    MW411010   2.062   2.755   4.758  0.0214  0.2120  0.0483
 2810SOL     OW11011   4.577   4.342   1.183  0.1350 -0.2189  0.5045
 2810SOL    HW211012   4.576   4.361   1.276 -0.2885 -0.1847  0.4959
 2810SOL    HW311013   4.578   4.427   1.140  2.0606 -0.2256  0.4764
 2810SOL    MW411014   4.577   4.355   1.190 -0.1278  0.2574 -0.8459
 2811SOL     OW11015   4.100   5.001   3.579  0.4263 -0.0166 -0.3874
 2811SOL    HW211016   4.018   4.991   3.532  0.2124 -0.4185  0.0647
 2811SOL    HW311017   4.074   5.028   3.667  0.8233  0.8733 -0.5206
 2811SOL    MW411018   4.086   5.003   3.585  0.1870  0.4832  0.4111
 2812SOL     OW11019   5.318   0.983   2.606  0.2888 -0.2340  0.3809
 2812SOL    HW211020   5.249   1.038   2.643 -0.9846 -0.2213 -1.8296
 2812SOL    HW311021   5.274   0.901   2.584  1.5313 -1.1098  1.0282
 2812SOL    MW411022   5.303   0.980   2.608 -0.4218 -0.3406  0.4214
 2813SOL     OW11023   1.412   5.111   5.932  0.4551 -0.6803 -0.1568
 2813SOL    HW211024   1.367   5.117   6.016  0.3399 -1.8731 -0.1184
 2813SOL    HW311025   1.407   5.200   5.896 -0.5383 -0.4296  0.5542
 2813SOL    MW411026   1.405   5.124   5.938  0.5594 -0.3251 -0.2693
 2814SOL     OW11027   1.011   3.108   4.573 -0.3974  0.2817  0.5065
 2814SOL    HW211028   0.926   3.138   4.541 -0.0270 -1.1777 -2.1217
 2814SOL    HW311029   1.026   3.025   4.529  1.8382 -0.1638  1.9106
 2814SOL    MW411030   1.002   3.101   4.563 -0.7604  0.1585 -0.0925
 2815SOL     OW11031   3.130   1.999   3.886 -0.5672 -0.1626 -0.0511
 2815SOL    HW211032   3.059   2.029   3.829 -0.6144  0.3837  0.2880
 2815SOL    HW311033   3.114   1.905   3.897 -1.3016 -0.0217  0.1174
 2815SOL    MW411034   3.119   1.990   3.880 -0.1068 -0.0623  0.4821
 2816SOL     OW11035   0.399   2.132   0.192  0.1956  0.0764  0.2978
 2816SOL    HW211036   0.337   2.194   0.153 -0.1939 -0.9167 -0.7156
 2816SOL    HW311037   0.395   2.150   0.286 -0.6961  0.8687  0.1239
 2816SOL    MW411038   0.390   2.142   0.200 -0.1673 -0.0371 -0.4184
 2817SOL     OW11039   4.583   6.306   1.345 -0.0872  0.0488  0.2088
 2817SOL    HW211040   4.505   6.253   1.325  1.0782 -1.9682  0.7035
 2817SOL    HW311041   4.612   6.338   1.260 -0.1213 -1.2162 -0.3156
 2817SOL    MW411042   4.577   6.303   1.331  0.2585 -0.7600 -0.1723
 2818SOL     OW11043   1.454   5.287   0.320  0.2156  0.0584 -0.5763
 2818SOL    HW211044   1.509   5.364   0.328  0.0153  0.0977  0.6384
 2818SOL    HW311045   1.369   5.320   0.289  0.5436  0.1360 -1.4019
 2818SOL    MW411046   1.450   5.301   0.317  0.2720  0.0174 -0.2438
 2819SOL     OW11047   3.799   4.859   5.760  0.4619 -0.0244 -0.0001
 2819SOL    HW211048   3.818   4.915   5.684 -3.6831 -0.0964 -1.2997
 2819SOL    HW311049   3.754   4.917   5.821  0.6457 -0.8252  0.9163
 2819SOL    MW411050   3.796   4.874   5.758  0.1677 -0.2139  0.3050
 2820SOL     OW11051   1.525   3.908   0.974  0.4612 -0.1555  0.0166
 2820SOL    HW211052   1.594   3.878   0.915 -0.2930 -1.5019 -0.2127
 2820SOL    HW311053   1.482   3.828   1.004  0.6895  0.4887  2.2594
 2820SOL    MW411054   1.528   3.894   0.970  0.2636 -0.1773  0.1162
 2821SOL     OW11055   6.301   0.961   2.515 -0.7529  0.5105 -0.2188
 2821SOL    HW211056   6.243   0.928   2.446 -0.3799 -0.1053 -0.2423
 2821SOL    HW311057   6.309   1.055   2.496 -1.7845  0.6174 -0.1761
 2821SOL    MW411058   6.294   0.969   2.503  0.3905  0.1532  0.2325
 2822SOL     OW11059   4.934   3.478   3.021 -0.4798  0.1186 -0.0291
 2822SOL    HW211060   4.979   3.530   2.954 -0.9547  0.0569 -0.4006
 2822SOL    HW311061   4.850   3.523   3.034 -0.0919  0.5589  1.0733
 2822SOL    MW411062   4.929   3.491   3.014  0.4757 -0.4678 -0.0900
 2823SOL     OW11063   5.432   0.082   4.890 -0.0196  0.0548  0.0714
 2823SOL    HW211064   5.487   0.117   4.820  0.6635  0.4127  0.7741
 2823SOL    HW311065   5.493   0.043   4.952 -0.4490  1.3697  1.3800
 2823SOL    MW411066   5.447   0.081   4.889  0.1408 -0.1499 -0.0274
 2824SOL     OW11067   3.558   5.911   5.167 -0.1239  0.2461 -0.0329
 2824SOL    HW211068   3.500   5.955   5.105 -0.6791  1.9170  1.5730
 2824SOL    HW311069   3.596   5.982   5.219  0.9131 -1.0316  1.0349
 2824SOL    MW411070   3.555   5.927   5.166  0.1170 -0.1231 -0.1705
 2825SOL     OW11071   2.601   3.955   1.442  0.0446 -0.1459  0.1416
 2825SOL    HW211072   2.662   3.936   1.371 -1.9567  0.3612 -1.8417
 2825SOL    HW311073   2.636   4.034   1.484  1.1030 -0.2678 -0.4943
 2825SOL    MW411074   2.613   3.963   1.438  0.0488 -0.5037  0.3600
 2826SOL     OW11075   1.409   0.316   6.314 -0.4162  0.2449 -0.2266
 2826SOL    HW211076   1.343   0.346   6.250 -1.7302 -3.5473 -0.8940
 2826SOL    HW311077   1.359   0.302   6.394 -0.0222 -0.7353 -0.1479
 2826SOL    MW411078   1.393   0.318   6.316  0.0880 -0.0821 -0.2386
 2827SOL     OW11079   0.743   2.517   5.123 -0.0513  0.6342 -0.2641
 2827SOL    HW211080   0.809   2.505   5.191  0.7895  1.1743 -0.9662
 2827SOL    HW311081   0.701   2.600   5.145  0.0978  0.7214 -0.3121
 2827SOL    MW411082   0.746   2.526   5.135  0.0083 -0.6390 -0.2974
 2828SOL     OW11083   1.235   2.157   6.186 -0.3550 -0.1686  0.5639
 2828SOL    HW211084   1.210   2.235   6.136  0.5467  0.9689  1.8238
 2828SOL    HW311085   1.152   2.113   6.206 -0.8759  0.4951 -0.0974
 2828SOL    MW411086   1.221   2.161   6.182 -0.1939 -0.6196 -0.2364
 2829SOL     OW11087   2.740   3.639   6.118 -0.0367  0.5173 -0.7679
 2829SOL    HW211088   2.813   3.580   6.100 -0.9389 -0.3210 -1.8054
 2829SOL    HW311089   2.666   3.581   6.138 -0.7427  1.3124 -1.0059
 2829SOL    MW411090   2.740   3.624   6.119 -0.6205 -0.1437 -0.3402
 2830SOL     OW11091   4.940   1.846   3.926  0.2516  0.7003 -0.0533
 2830SOL    HW211092   4.874   1.825   3.992  1.5078  1.3174  1.4602
 2830SOL    HW311093   4.891   1.852   3.844 -1.6496  1.4844  1.0735
 2830SOL    MW411094   4.925   1.844   3.924  0.0881  0.3763 -0.1019
 2831SOL     OW11095   6.284   5.918   1.004  0.3479 -0.0382 -0.4531
 2831SOL    HW211096   6.207   5.974   1.006 -0.5139 -1.1966  0.7927
 2831SOL    HW311097   6.289   5.881   1.092  2.1716 -0.2184 -0.6004
 2831SOL    MW411098   6.275   5.920   1.016 -0.2583  0.2281  0.5413
 2832SOL     OW11099   3.129   4.243   6.112  0.3810  0.1255 -0.3134
 2832SOL    HW211100   3.205   4.260   6.168  0.8589 -3.6170  0.4589
 2832SOL    HW311101   3.165   4.237   6.024  0.6414  0.2251 -0.2166
 2832SOL    MW411102   3.144   4.245   6.108  0.5209  0.0792  0.3103
 2833SOL     OW11103   1.349   2.871   4.430  0.4682  0.4298  0.2152
 2833SOL    HW211104   1.356   2.803   4.363  0.8593  0.2237  0.4617
 2833SOL    HW311105   1.255   2.887   4.439  0.2868 -0.9432  1.0165
 2833SOL    MW411106   1.337   2.864   4.422  0.3108  0.2473  0.5553
 2834SOL     OW11107   1.157   5.795   2.714  0.6643 -0.4076  0.2912
 2834SOL    HW211108   1.102   5.855   2.764  0.7982 -1.7712  2.1958
 2834SOL    HW311109   1.235   5.845   2.693  1.0459 -0.0492  2.3546
 2834SOL    MW411110   1.160   5.809   2.718 -0.4069 -0.2240 -0.2797
 2835SOL     OW11111   3.455   6.221   3.251 -0.0944  0.6634 -0.1690
 2835SOL    HW211112   3.363   6.220   3.222 -0.7227  0.2807  1.6898
 2835SOL    HW311113   3.462   6.301   3.303  1.1029  1.5221 -1.5568
 2835SOL    MW411114   3.443   6.231   3.254 -0.0396  0.2750 -0.0985
 2836SOL     OW11115   3.050   3.720   4.092 -0.5540  0.6369 -0.2648
 2836SOL    HW211116   3.125   3.773   4.065 -0.4657  0.0269 -1.2496
 2836SOL    HW311117   3.062   3.708   4.186  1.6560 -1.1091 -0.6985
 2836SOL    MW411118   3.061   3.726   4.101 -0.3051  0.0449 -0.1204
 2837SOL     OW11119   3.981   2.367   5.972 -0.1174  0.0543 -0.0134
 2837SOL    HW211120   3.941   2.423   6.038  0.6098  0.3610  0.1786
 2837SOL    HW311121   3.925   2.289   5.968 -0.6132  0.3932  0.3779
 2837SOL    MW411122   3.969   2.364   5.980 -0.4109 -0.3202  0.0737
 2838SOL     OW11123   5.544   0.125   0.560 -0.0081  0.3015  0.1481
 2838SOL    HW211124   5.497   0.158   0.637 -3.4481 -0.8074 -1.3013
 2838SOL    HW311125   5.560   0.202   0.506  0.5781  0.7994  1.0124
 2838SOL    MW411126   5.540   0.139   0.563  0.0535 -0.0175  0.0356
 2839SOL     OW11127   3.745   3.254   1.994 -0.4034  0.7438 -0.2711
 2839SOL    HW211128   3.801   3.216   2.061  0.2662  2.0887 -0.0334
 2839SOL    HW311129   3.714   3.336   2.033 -0.3409  1.3391 -1.4402
 2839SOL    MW411130   3.748   3.260   2.008  0.1801 -0.1364 -0.4113
 2840SOL     OW11131   3.325   4.004   1.696 -0.2536  0.4932 -0.2492
 2840SOL    HW211132   3.315   3.927   1.641 -1.6803  1.1644 -0.9620
 2840SOL    HW311133   3.380   4.063   1.645  0.6715  0.0684  0.2141
 2840SOL    MW411134   3.331   4.001   1.682  0.0563  0.4195  0.1745
 2841SOL     OW11135   1.082   6.151   0.424 -0.0077 -0.2771  0.3294
 2841SOL    HW211136   1.091   6.240   0.459  2.6456 -0.5472  0.4878
 2841SOL    HW311137   1.089   6.094   0.501 -0.3391 -0.6782  0.0698
 2841SOL    MW411138   1.084   6.155   0.439  0.3647  0.4845 -0.1180
 2842SOL     OW11139   0.686   3.469   4.011 -0.1601 -0.4172  0.0439
 2842SOL    HW211140   0.769   3.429   4.037  0.1544 -0.2008 -0.5827
 2842SOL    HW311141   0.678   3.447   3.918 -0.9192 -0.6265  0.1528
 2842SOL    MW411142   0.696   3.460   4.002 -0.4671 -0.2623  0.0007
 2843SOL     OW11143   0.840   0.733   3.258 -0.2029 -0.3241  0.2099
 2843SOL    HW211144   0.793   0.654   3.285 -0.0554  0.1268  1.9098
 2843SOL    HW311145   0.821   0.797   3.326 -1.2920  1.5477 -1.7301
 2843SOL    MW411146   0.831   0.731   3.270 -0.4243 -0.1005  0.1036
 2844SOL     OW11147   2.273   2.144   4.297 -0.1675  0.1423  0.1294
 2844SOL    HW211148   2.181   2.153   4.270 -0.3108  0.7729  0.7952
 2844SOL    HW311149   2.299   2.233   4.321  0.0472 -0.3345  1.7489
 2844SOL    MW411150   2.264   2.157   4.297 -0.0275  0.6446  0.3050
 2845SOL     OW11151   4.612   4.314   4.827 -0.0363 -0.2872 -0.4078
 2845SOL    HW211152   4.664   4.271   4.760  0.3760 -1.3892  0.5873
 2845SOL    HW311153   4.610   4.252   4.900 -0.9100  0.6553  0.4057
 2845SOL    MW411154   4.618   4.300   4.828 -0.5573  0.6922  0.0801
 2846SOL     OW11155   1.351   3.329   2.384 -0.2012 -0.3285  0.4936
 2846SOL    HW211156   1.310   3.270   2.321  0.4500 -0.0222 -0.2417
 2846SOL    HW311157   1.438   3.346   2.347 -0.7939  2.0648  0.0144
 2846SOL    MW411158   1.357   3.323   2.371  0.2063 -0.1841  0.0199
 2847SOL     OW11159   1.249   5.081   0.100  0.1871  0.2833  0.2297
 2847SOL    HW211160   1.163   5.095   0.061  0.1337  0.2507  0.3345
 2847SOL    HW311161   1.237   5.005   0.158  0.6753 -0.7419 -0.9664
 2847SOL    MW411162   1.236   5.073   0.102 -0.3496  0.1717  0.1974
 2848SOL     OW11163   1.560   4.748   0.896 -0.6107 -0.4883 -0.2054
 2848SOL    HW211164   1.603   4.820   0.940 -0.7655 -0.4208 -0.1659
 2848SOL    HW311165   1.632   4.699   0.855 -0.4893 -0.4258 -0.0675
 2848SOL    MW411166   1.575   4.751   0.896  0.3460 -0.0549 -0.0010
 2849SOL     OW11167   1.905   3.968   1.253  0.1600 -0.2548 -0.2628
 2849SOL    HW211168   1.923   3.982   1.160  0.3154  0.1428 -0.1736
 2849SOL    HW311169   1.811   3.951   1.256  0.0399  0.3436 -0.4295
 2849SOL    MW411170   1.895   3.967   1.241 -0.3789 -0.3239  0.4038
 2850SOL     OW11171   5.868   6.292   3.370 -0.3259 -0.1043 -0.6414
 2850SOL    HW211172   5.888   6.372   3.418 -0.4131 -0.4207 -0.0642
 2850SOL    HW311173   5.915   6.223   3.418  0.4972 -0.2772 -1.6621
 2850SOL    MW411174   5.876   6.293   3.383 -0.4018  0.1587  0.0392
 2851SOL     OW11175   5.748   3.842   2.387  0.3996  0.3196 -0.4229
 2851SOL    HW211176   5.733   3.796   2.470 -1.1808  0.8388 -0.3747
 2851SOL    HW311177   5.679   3.909   2.385  0.2800  0.1850 -2.2471
 2851SOL    MW411178   5.737   3.845   2.398  0.6615 -0.1682 -0.1156
 2852SOL     OW11179   2.916   0.293   4.790  0.0416  0.2383  0.1611
 2852SOL    HW211180   2.904   0.280   4.696  0.5332 -1.5984  0.3175
 2852SOL    HW311181   3.003   0.331   4.798  0.2308 -0.1344 -0.1047
 2852SOL    MW411182   2.926   0.296   4.779  0.3476 -0.0756  0.3090
 2853SOL     OW11183   4.469   1.044   1.191  0.3346 -0.1402 -0.3024
 2853SOL    HW211184   4.432   0.999   1.266 -0.2987  0.1083 -0.4579
 2853SOL    HW311185   4.559   1.064   1.216  0.4079 -0.8698  0.0311
 2853SOL    MW411186   4.476   1.041   1.204  0.1718  0.5909 -1.2952
 2854SOL     OW11187   2.465   3.505   3.696  0.3922 -0.1440  0.1417
 2854SOL    HW211188   2.509   3.572   3.643  3.4741 -1.8154  0.3880
 2854SOL    HW311189   2.451   3.547   3.781  0.3142  0.8287 -0.3297
 2854SOL    MW411190   2.469   3.519   3.700 -0.2222  0.1740 -0.7384
 2855SOL     OW11191   0.900   6.150   4.521 -0.1620  0.4758 -0.2805
 2855SOL    HW211192   0.896   6.076   4.582 -2.0824  1.1824  0.5435
 2855SOL    HW311193   0.890   6.227   4.577 -1.4654  1.1762 -1.4354
 2855SOL    MW411194   0.898   6.150   4.536  0.1888  0.6070  0.2772
 2856SOL     OW11195   6.331   4.537   5.471  0.1281  0.2458  0.1830
 2856SOL    HW211196   6.412   4.506   5.509  0.5567  0.3264 -0.6463
 2856SOL    HW311197   6.266   4.470   5.493  1.1005 -1.4660 -1.8735
 2856SOL    MW411198   6.333   4.524   5.479 -0.1117  0.4037 -0.0575
 2857SOL     OW11199   3.705   0.566   1.108  0.0368 -0.2753  0.5076
 2857SOL    HW211200   3.772   0.516   1.156 -0.2178  0.7149  1.9776
 2857SOL    HW311201   3.640   0.588   1.175 -1.9384 -1.4320 -0.9286
 2857SOL    MW411202   3.705   0.563   1.123 -0.1995 -0.4624  0.1595
 2858SOL     OW11203   2.827   1.555   6.224 -0.3881  0.3017 -0.9262
 2858SOL    HW211204   2.760   1.591   6.166 -0.5286 -1.1854 -1.7585
 2858SOL    HW311205   2.874   1.492   6.169 -1.1059 -1.8488  0.7501
 2858SOL    MW411206   2.824   1.551   6.209  0.1188  0.3172  0.0469
 2859SOL     OW11207   3.459   0.462   6.386 -0.4217 -0.2884  0.2510
 2859SOL    HW211208   3.475   0.369   6.400 -3.3697 -0.9854 -0.3392
 2859SOL    HW311209   3.466   0.501   6.473  0.2632 -1.1426  0.5939
 2859SOL    MW411210   3.462   0.455   6.399  0.2170  0.2197  0.0411
 2860SOL     OW11211   0.474   0.793   3.276 -0.6996  0.1276 -0.0531
 2860SOL    HW211212   0.554   0.820   3.231  0.0972  0.4669  1.4868
 2860SOL    HW311213   0.451   0.709   3.238 -0.7694  0.9511 -1.9259
 2860SOL    MW411214   0.481   0.786   3.265  0.1888  0.5086 -0.0888
 2861SOL     OW11215   0.511   0.437   1.898 -0.3180  0.3851 -0.1685
 2861SOL    HW211216   0.497   0.426   1.992 -0.6307  0.2350 -0.2327
 2861SOL    HW311217   0.428   0.414   1.858  0.4903 -1.9745 -0.6637
 2861SOL    MW411218   0.498   0.433   1.905  0.4279  0.1336  0.0980
 2862SOL     OW11219   4.139   2.272   4.583 -0.3934 -0.0544 -0.3259
 2862SOL    HW211220   4.179   2.359   4.579 -0.9654  0.3868  1.9616
 2862SOL    HW311221   4.183   2.229   4.657  0.5678 -2.1285 -1.9964
 2862SOL    MW411222   4.150   2.278   4.592 -0.2847 -0.0907  0.2419
 2863SOL     OW11223   3.455   5.224   4.048 -0.0159 -0.1589  0.2059
 2863SOL    HW211224   3.499   5.247   4.130  1.8512 -1.4076 -0.3912
 2863SOL    HW311225   3.522   5.180   3.996 -1.5321 -0.6110 -1.4649
 2863SOL    MW411226   3.470   5.221   4.052 -0.3034  0.2270  0.1375
 2864SOL     OW11227   1.951   1.777   6.386 -0.0735  0.5262 -0.1790
 2864SOL    HW211228   1.937   1.832   6.464  0.6301 -0.3135  0.5587
 2864SOL    HW311229   1.932   1.688   6.416  3.6629 -0.3410  0.1177
 2864SOL    MW411230   1.946   1.773   6.400  0.2937  0.2795 -0.3615
 2865SOL     OW11231   5.619   5.892   3.723 -0.1659 -0.1002 -0.8123
 2865SOL    HW211232   5.624   5.879   3.818 -2.9835 -0.9778 -0.6903
 2865SOL    HW311233   5.527   5.876   3.702  0.6000 -1.1298 -3.8699
 2865SOL    MW411234   5.607   5.888   3.733  0.2808  0.1860 -0.2247
 2866SOL     OW11235   6.250   5.249   4.785  0.7475 -0.1742 -0.3680
 2866SOL    HW211236   6.211   5.336   4.789  0.3920 -0.3079 -0.7801
 2866SOL    HW311237   6.263   5.223   4.876 -1.2702 -0.6186 -0.1577
 2866SOL    MW411238   6.247   5.257   4.797 -0.1537 -0.1589 -0.3974
 2867SOL     OW11239   3.988   0.100   4.134 -0.5667  0.1246  0.2428
 2867SOL    HW211240   3.977   0.110   4.039 -0.7929 -0.4234  0.2098
 2867SOL    HW311241   3.965   0.009   4.152 -2.9314  0.8373  1.1722
 2867SOL    MW411242   3.984   0.089   4.124  0.4393 -0.1782  0.2265
 2868SOL     OW11243   4.965   1.780   1.846 -0.6095 -0.0813  0.0029
 2868SOL    HW211244   4.971   1.754   1.938  0.8323  0.1687  0.0068
 2868SOL    HW311245   5.054   1.808   1.824 -0.9686 -0.0271 -1.4374
 2868SOL    MW411246   4.978   1.780   1.855 -0.0922 -0.4320 -0.1831
 2869SOL     OW11247   5.645   1.624   0.921  0.6508 -0.6501 -0.7183
 2869SOL    HW211248   5.725   1.664   0.886  0.4325 -1.2226 -1.8942
 2869SOL    HW311249   5.589   1.699   0.942  1.0995 -0.2730 -0.8389
 2869SOL    MW411250   5.649   1.639   0.919  0.3186  0.0099 -0.2687
 2870SOL     OW11251   6.073   4.576   3.780  0.5381  0.1215 -0.5170
 2870SOL    HW211252   6.153   4.627   3.767  1.8855 -1.6592  0.3053
 2870SOL    HW311253   6.058   4.534   3.695 -1.1029  2.4654 -1.4820
 2870SOL    MW411254   6.082   4.577   3.767 -0.5044 -0.8862 -0.1432
 2871SOL     OW11255   2.030   3.263   5.383  0.0649  0.2890 -0.6179
 2871SOL    HW211256   2.068   3.176   5.373 -0.2846  0.2035 -1.2903
 2871SOL    HW311257   2.089   3.321   5.335 -0.6236  0.1555 -1.6676
 2871SOL    MW411258   2.042   3.260   5.375  0.1935  0.2306  0.4714
 2872SOL     OW11259   0.550   2.771   5.984  0.3349  0.2976 -0.5415
 2872SOL    HW211260   0.554   2.848   6.041 -0.1533  0.5081 -0.7914
 2872SOL    HW311261   0.639   2.735   5.987  0.3275  0.3332  0.3127
 2872SOL    MW411262   0.563   2.777   5.992 -0.5928  0.1291  0.5784
 2873SOL     OW11263   1.926   1.055   2.198 -0.3858  0.4395  0.5286
 2873SOL    HW211264   1.997   1.009   2.243  0.8158  0.9132 -0.8237
 2873SOL    HW311265   1.859   0.988   2.186  0.1358 -0.2166  1.1501
 2873SOL    MW411266   1.927   1.040   2.202 -0.8953  0.4466  0.2241
 2874SOL     OW11267   5.946   3.515   4.297 -0.5168 -0.6843 -0.2843
 2874SOL    HW211268   6.027   3.565   4.288  0.0444 -1.6483 -0.6764
 2874SOL    HW311269   5.914   3.503   4.208  0.4308 -2.7359 -0.3933
 2874SOL    MW411270   5.952   3.520   4.284 -0.6744  0.1252  0.7355
 2875SOL     OW11271   3.755   4.053   4.852  0.5249 -0.2705 -0.8917
 2875SOL    HW211272   3.772   3.961   4.830  2.2687 -0.4167  0.8514
 2875SOL    HW311273   3.803   4.068   4.934 -1.3966  1.6497 -0.0308
 2875SOL    MW411274   3.764   4.043   4.860 -0.1091 -0.8924 -0.4598
 2876SOL     OW11275   5.795   2.943   0.901 -0.1126 -0.0403  0.7376
 2876SOL    HW211276   5.807   2.979   0.813 -0.2835  0.6415  0.9894
 2876SOL    HW311277   5.700   2.935   0.911 -0.0631 -2.3375 -0.0107
 2876SOL    MW411278   5.784   2.947   0.891  0.0151 -0.6801 -0.1538
 2877SOL     OW11279   1.268   0.706   4.565  0.4548 -0.2233 -0.6374
 2877SOL    HW211280   1.184   0.718   4.610  0.2035  1.1915 -1.3936
 2877SOL    HW311281   1.310   0.634   4.611  1.0631  2.2183  3.1522
 2877SOL    MW411282   1.262   0.698   4.577 -0.6008  0.4748  0.1241
 2878SOL     OW11283   1.108   0.339   0.388  0.3783  0.2104 -0.2317
 2878SOL    HW211284   1.146   0.323   0.474 -0.5779 -0.8917  0.0094
 2878SOL    HW311285   1.014   0.326   0.400  0.2668 -0.3089 -1.5038
 2878SOL    MW411286   1.101   0.335   0.401 -0.5329  0.0111 -0.2494
 2879SOL     OW11287   5.930   2.578   4.691 -0.4364  0.1173  0.2518
 2879SOL    HW211288   5.955   2.671   4.691 -0.7919  0.2164  0.0264
 2879SOL    HW311289   5.970   2.542   4.770  0.2582  0.3105 -0.0092
 2879SOL    MW411290   5.938   2.586   4.701 -0.1107  0.1977 -0.1694
 2880SOL     OW11291   6.205   1.291   5.546  0.0497 -0.3923 -0.2922
 2880SOL    HW211292   6.146   1.317   5.475 -1.2748 -0.7862  0.6096
 2880SOL    HW311293   6.290   1.326   5.521 -0.5391  0.1095 -1.7056
 2880SOL    MW411294   6.208   1.299   5.533  0.5046 -0.4539  0.9566
 2881SOL     OW11295   2.563   5.105   0.362  0.1881 -0.0863 -0.0033
 2881SOL    HW211296   2.481   5.110   0.412 -0.0132 -0.1262 -0.3274
 2881SOL    HW311297   2.535   5.105   0.271  0.5698  0.2824 -0.1223
 2881SOL    MW411298   2.548   5.106   0.357  0.5035  0.1300 -0.2642
 2882SOL     OW11299   1.198   4.415   0.684  0.3909 -0.1832 -0.7087
 2882SOL    HW211300   1.169   4.445   0.598  2.4558 -0.1146 -1.4342
 2882SOL    HW311301   1.211   4.496   0.734  3.2626  0.1598 -1.7749
 2882SOL    MW411302   1.196   4.430   0.679  0.2567 -0.0238  0.1970
 2883SOL     OW11303   1.049   2.852   3.089 -0.6894 -0.0410 -0.3543
 2883SOL    HW211304   1.005   2.867   3.005  1.5021 -0.1151 -1.5824
 2883SOL    HW311305   1.101   2.774   3.076  0.3058  0.3909  0.8307
 2883SOL    MW411306   1.050   2.844   3.076 -0.2440  0.2365  0.0359
 2884SOL     OW11307   5.817   3.813   4.376 -0.2019 -0.4744  0.1699
 2884SOL    HW211308   5.872   3.869   4.430 -0.0978  0.2714 -0.6998
 2884SOL    HW311309   5.863   3.729   4.375 -0.3288 -0.5803  1.4236
 2884SOL    MW411310   5.831   3.809   4.383  0.3113 -0.2728  0.8335
 2885SOL     OW11311   4.605   4.138   0.471 -0.3891 -0.0579  0.5286
 2885SOL    HW211312   4.597   4.233   0.480 -0.1737  0.1280 -1.0308
 2885SOL    HW311313   4.631   4.125   0.380 -2.1382 -1.7246  0.2292
 2885SOL    MW411314   4.607   4.149   0.460  0.0070 -0.1215 -0.4417
 2886SOL     OW11315   3.086   1.013   0.779  0.1244  0.5990  0.7985
 2886SOL    HW211316   3.075   1.058   0.863  0.0166  0.2907  0.9502
 2886SOL    HW311317   3.003   1.028   0.733 -0.5915 -0.9211  1.5586
 2886SOL    MW411318   3.073   1.021   0.784  0.0587 -0.0624 -0.7001
 2887SOL     OW11319   0.042   4.503   4.587  0.4989  0.3874  0.2028
 2887SOL    HW211320   0.030   4.551   4.669 -1.1024 -0.4076  0.4702
 2887SOL    HW311321   0.079   4.568   4.527 -0.6717  1.7149  0.8372
 2887SOL    MW411322   0.045   4.518   4.590 -0.4516 -0.5196  0.0623
 2888SOL     OW11323   4.604   2.358   1.747  0.5417 -0.1848 -0.3679
 2888SOL    HW211324   4.584   2.275   1.703  0.6390 -0.6502  0.4589
 2888SOL    HW311325   4.551   2.423   1.700  1.5947 -0.4451 -2.0083
 2888SOL    MW411326   4.595   2.356   1.735  0.4277 -0.5711  0.4670
 2889SOL     OW11327   0.828   1.053   4.970 -0.3899 -0.8330  0.5117
 2889SOL    HW211328   0.883   1.004   5.031  0.5648 -1.7205 -0.9798
 2889SOL    HW311329   0.876   1.134   4.954  1.4392 -2.2538 -1.9830
 2889SOL    MW411330   0.841   1.057   4.976  0.1224 -0.0345 -0.5063
 2890SOL     OW11331   0.189   2.753   5.020 -0.7918 -0.1579 -0.1817
 2890SOL    HW211332   0.149   2.833   5.054 -0.3515 -0.4944  1.2262
 2890SOL    HW311333   0.262   2.784   4.966 -0.0201  0.4059  1.1423
 2890SOL    MW411334   0.194   2.767   5.017  0.1179 -0.1544 -0.3549
 2891SOL     OW11335   1.507   1.859   3.960 -0.2553 -0.0566 -0.9727
 2891SOL    HW211336   1.564   1.910   3.902 -1.8491  1.2704 -1.4572
 2891SOL    HW311337   1.494   1.916   4.036  2.3872 -2.0448  1.1915
 2891SOL    MW411338   1.513   1.873   3.962 -0.1302 -0.1806 -0.1059
 2892SOL     OW11339   2.736   5.960   2.609 -0.2461 -0.3243  0.5743
 2892SOL    HW211340   2.775   6.039   2.644  0.3530  0.1749 -1.1280
 2892SOL    HW311341   2.651   5.953   2.654  0.5996  0.0739  2.2975
 2892SOL    MW411342   2.730   5.969   2.620  0.5168  0.1337 -0.1085
 2893SOL     OW11343   1.676   1.838   5.584  0.0403  0.0819  0.1896
 2893SOL    HW211344   1.701   1.930   5.579  2.0541 -0.3589  1.2285
 2893SOL    HW311345   1.751   1.791   5.547  0.6240 -1.2761  2.8564
 2893SOL    MW411346   1.689   1.844   5.578 -0.0984  0.2419  0.3414
 2894SOL     OW11347   5.918   1.524   0.594 -0.5707 -0.0314 -0.6760
 2894SOL    HW211348   5.926   1.485   0.507  0.8924 -1.0717 -0.1265
 2894SOL    HW311349   5.834   1.492   0.627 -1.5545  1.0731 -1.9956
 2894SOL    MW411350   5.908   1.514   0.587 -0.7248 -0.2420 -0.1262
 2895SOL     OW11351   1.995   5.118   3.601 -0.2571  0.3291  0.3454
 2895SOL    HW211352   2.049   5.069   3.662 -0.3896 -1.4097 -0.8475
 2895SOL    HW311353   2.057   5.155   3.538 -0.2145  1.1263  0.8461
 2895SOL    MW411354   2.010   5.116   3.600 -0.1272  0.4443 -0.0696
 2896SOL     OW11355   2.133   1.021   1.058 -0.0008 -0.2247 -0.2223
 2896SOL    HW211356   2.213   0.975   1.034 -0.3027 -0.7810 -0.1887
 2896SOL    HW311357   2.146   1.048   1.148 -0.7401 -2.3562  0.5892
 2896SOL    MW411358   2.145   1.018   1.067 -0.4501 -0.3247  0.1200
 2897SOL     OW11359   3.065   0.595   1.327 -0.6719  0.3718 -0.1111
 2897SOL    HW211360   2.992   0.533   1.324  0.0255 -0.4448 -1.3581
 2897SOL    HW311361   3.141   0.541   1.350  0.1554  0.4849 -2.3244
 2897SOL    MW411362   3.066   0.580   1.329 -0.3748 -0.1204  0.1568
 2898SOL     OW11363   2.691   1.565   1.408  0.3745 -0.1145 -0.0611
 2898SOL    HW211364   2.752   1.558   1.335  0.3927 -2.6651  0.1248
 2898SOL    HW311365   2.648   1.480   1.413 -0.9711  0.5878  1.7629
 2898SOL    MW411366   2.693   1.553   1.399  0.2742 -0.3476 -0.5046
 2899SOL     OW11367   5.476   1.783   2.451 -0.2716  0.1560 -0.0985
 2899SOL    HW211368   5.472   1.733   2.370  1.1228 -0.7187  0.3608
 2899SOL    HW311369   5.410   1.852   2.439  1.8475  1.8507 -3.1776
 2899SOL    MW411370   5.467   1.786   2.439  0.9133 -0.9205 -0.0981
 2900SOL     OW11371   1.106   5.572   3.744  0.5541  0.3782 -0.4727
 2900SOL    HW211372   1.085   5.502   3.682 -1.4135  0.1422  0.3554
 2900SOL    HW311373   1.200   5.585   3.735  0.6141 -0.8645 -2.2078
 2900SOL    MW411374   1.115   5.564   3.735 -0.6301  0.1190  0.2877
 2901SOL     OW11375   1.295   1.117   2.309  0.2382  0.8812  0.4549
 2901SOL    HW211376   1.278   1.048   2.373 -1.2950 -0.1540 -0.9856
 2901SOL    HW311377   1.315   1.194   2.361  1.6383 -0.5385  2.1254
 2901SOL    MW411378   1.295   1.118   2.324 -0.6252 -0.0534  0.0723
 2902SOL     OW11379   4.484   4.339   2.432 -0.4898  0.0215  0.2400
 2902SOL    HW211380   4.431   4.348   2.511 -0.9737  0.6848 -0.1535
 2902SOL    HW311381   4.421   4.335   2.361 -0.0621 -0.7204 -0.1079
 2902SOL    MW411382   4.469   4.340   2.433 -1.0420  0.4621 -1.1508
 2903SOL     OW11383   3.234   6.204   0.914  0.8675  0.0326  0.0148
 2903SOL    HW211384   3.257   6.219   1.006  0.9127 -0.1741  0.0382
 2903SOL    HW311385   3.316   6.220   0.867  0.4054  1.9878 -0.1942
 2903SOL    MW411386   3.248   6.208   0.920  0.2061  0.0384  0.2671
 2904SOL     OW11387   3.900   3.224   1.040  0.1006 -0.1369 -0.0299
 2904SOL    HW211388   3.972   3.177   1.083  0.5169  0.3959 -0.1398
 2904SOL    HW311389   3.880   3.296   1.100 -0.6714 -0.5587  0.2350
 2904SOL    MW411390   3.907   3.227   1.054  0.0309  0.3124 -0.2418
 2905SOL     OW11391   2.441   6.018   5.139 -0.3025  0.2151 -0.0950
 2905SOL    HW211392   2.419   5.925   5.132 -2.5866  0.7568 -1.3502
 2905SOL    HW311393   2.430   6.052   5.050 -0.3916  1.8534  0.5086
 2905SOL    MW411394   2.436   6.011   5.127  0.2466 -0.3724 -0.6473
 2906SOL     OW11395   2.542   4.979   2.923  0.0702 -0.6301 -0.1372
 2906SOL    HW211396   2.605   4.911   2.946 -0.9936 -0.7624  2.8161
 2906SOL    HW311397   2.462   4.931   2.901  0.0440 -0.3896 -0.5766
 2906SOL    MW411398   2.540   4.964   2.923  0.0487 -0.1268 -0.0463
 2907SOL     OW11399   1.525   5.372   3.158  0.6193 -0.0504  0.3094
 2907SOL    HW211400   1.496   5.432   3.227 -0.4187  0.2234 -0.3429
 2907SOL    HW311401   1.445   5.333   3.126  1.1351 -0.4775 -0.4733
 2907SOL    MW411402   1.511   5.375   3.163  0.0240 -0.0048 -0.1005
 2908SOL     OW11403   5.903   2.179   0.681 -0.2901  0.3912  0.4431
 2908SOL    HW211404   5.957   2.102   0.663 -0.2181  0.0570  1.9576
 2908SOL    HW311405   5.818   2.144   0.705 -0.7519  0.8625 -0.4712
 2908SOL    MW411406   5.899   2.164   0.682  0.0144  0.6060  0.2215
 2909SOL     OW11407   2.179   6.177   1.889 -0.3113 -0.7886 -0.0350
 2909SOL    HW211408   2.160   6.084   1.897  0.0735 -0.9583 -1.0546
 2909SOL    HW311409   2.218   6.200   1.974  1.0398 -1.9037 -0.3164
 2909SOL    MW411410   2.181   6.168   1.901 -1.0323  0.3222  0.0895
 2910SOL     OW11411   5.832   0.945   3.539 -0.3818 -0.2983  0.8590
 2910SOL    HW211412   5.869   0.992   3.465 -0.8862 -0.8013  0.2729
 2910SOL    HW311413   5.741   0.976   3.544 -0.5412 -0.7529  0.8491
 2910SOL    MW411414   5.825   0.955   3.530  0.0565  0.3952 -0.4857
 2911SOL     OW11415   5.670   3.775   0.914  0.3140 -0.0539 -0.2114
 2911SOL    HW211416   5.754   3.794   0.873  0.3043  1.9258  0.6136
 2911SOL    HW311417   5.692   3.725   0.992  0.7781  0.9468  0.3025
 2911SOL    MW411418   5.684   3.771   0.919  0.6641 -0.4021 -0.6136
 2912SOL     OW11419   1.206   0.275   2.837  0.0438  0.1262 -0.1074
 2912SOL    HW211420   1.165   0.318   2.761 -1.4535 -2.5051 -0.9201
 2912SOL    HW311421   1.150   0.300   2.911  0.2013  0.9273 -0.2504
 2912SOL    MW411422   1.193   0.284   2.837 -0.3680 -0.6194 -0.5490
 2913SOL     OW11423   6.374   5.475   5.011  0.1309  0.4985  0.1156
 2913SOL    HW211424   6.362   5.527   4.931  0.3406  0.4057  0.0244
 2913SOL    HW311425   6.469   5.474   5.025  0.1263  0.1259  0.1109
 2913SOL    MW411426   6.385   5.482   5.003 -0.1114  0.7364 -0.3069
 2914SOL     OW11427   2.314   4.589   1.602 -0.2199 -0.3666 -0.0082
 2914SOL    HW211428   2.348   4.597   1.692  0.6925 -0.1109 -0.3624
 2914SOL    HW311429   2.271   4.503   1.601  2.2244 -1.6885 -0.0624
 2914SOL    MW411430   2.313   4.578   1.614 -0.8377 -0.6277  0.0977
 2915SOL     OW11431   4.586   5.027   6.006 -0.3680 -0.3158  0.0819
 2915SOL    HW211432   4.581   4.990   5.918 -1.0504 -1.5728  0.6173
 2915SOL    HW311433   4.515   4.984   6.054  0.1095  0.2016  1.2960
 2915SOL    MW411434   4.576   5.017   6.001 -0.5225  0.4722  0.5734
 2916SOL     OW11435   1.484   1.723   5.412 -0.3258  0.0690  0.7528
 2916SOL    HW211436   1.548   1.742   5.480  0.8891 -1.2865  0.0336
 2916SOL    HW311437   1.489   1.799   5.353 -0.5042  0.6760  1.5066
 2916SOL    MW411438   1.493   1.736   5.413 -0.1827  0.3302 -0.0122
 2917SOL     OW11439   0.586   3.091   0.544  0.1138 -0.5918  0.2786
 2917SOL    HW211440   0.649   3.100   0.616  0.7514 -0.4773 -0.2781
 2917SOL    HW311441   0.593   3.173   0.496 -0.6062 -0.5089  0.3127
 2917SOL    MW411442   0.595   3.103   0.548  0.3962  0.1267 -0.1315
 2918SOL     OW11443   2.942   5.060   5.620  0.3702 -0.3668 -0.3340
 2918SOL    HW211444   2.904   4.978   5.653 -0.0766  0.0535  0.2129
 2918SOL    HW311445   2.934   5.053   5.525  2.1361 -1.8156 -0.4369
 2918SOL    MW411446   2.936   5.048   5.612 -0.1478  0.0330  0.0317
 2919SOL     OW11447   1.165   3.863   0.864  0.3911  0.2903  0.3735
 2919SOL    HW211448   1.210   3.796   0.813 -0.5174  1.3540 -1.9756
 2919SOL    HW311449   1.104   3.813   0.919 -0.6498 -0.8782 -1.6988
 2919SOL    MW411450   1.163   3.848   0.864  0.5425 -0.2017 -0.0320
 2920SOL     OW11451   4.043   1.611   5.955 -0.0127  0.2922 -0.3542
 2920SOL    HW211452   3.983   1.684   5.945 -0.0733  0.1801 -0.8340
 2920SOL    HW311453   4.121   1.637   5.906  0.2024  0.2936 -0.0160
 2920SOL    MW411454   4.046   1.624   5.947 -0.0944  0.6089 -0.0222
 2921SOL     OW11455   6.238   2.997   2.227  0.2265 -0.2412 -0.3335
 2921SOL    HW211456   6.316   3.039   2.189  0.5148 -0.2126  0.2716
 2921SOL    HW311457   6.273   2.924   2.278 -0.2921 -1.4798 -1.6757
 2921SOL    MW411458   6.253   2.993   2.229  0.2349  0.2401  0.4689
 2922SOL     OW11459   1.915   3.840   4.221 -0.5727  0.0121  0.0977
 2922SOL    HW211460   1.949   3.889   4.296 -0.7296 -2.4189  1.8702
 2922SOL    HW311461   1.967   3.872   4.147  1.7311  0.3731  1.7492
 2922SOL    MW411462   1.927   3.851   4.221 -0.5637  0.2661 -0.0639
 2923SOL     OW11463   4.908   4.578   0.009 -0.1516  0.1020 -0.3206
 2923SOL    HW211464   4.896   4.595   0.103 -1.2350 -1.5893 -0.1074
 2923SOL    HW311465   4.820   4.560  -0.023  0.2251  0.5687 -1.6660
 2923SOL    MW411466   4.895   4.578   0.017  0.1524  0.5727 -0.4729
 2924SOL     OW11467   4.508   2.604   2.478  0.4841 -0.1582 -0.6162
 2924SOL    HW211468   4.444   2.644   2.537  0.9507  0.0337 -0.2346
 2924SOL    HW311469   4.455   2.557   2.414 -0.0373 -0.0568 -0.2666
 2924SOL    MW411470   4.492   2.603   2.478 -0.3493 -0.1604  0.3541
 2925SOL     OW11471   1.171   1.569   0.029 -0.6707 -0.4250 -0.1863
 2925SOL    HW211472   1.080   1.553   0.003 -0.6210 -0.2350 -0.4885
 2925SOL    HW311473   1.222   1.519  -0.035 -0.5916 -2.0311  1.0692
 2925SOL    MW411474   1.166   1.560   0.017 -0.4198  0.4945 -0.4565
 2926SOL     OW11475   5.246   3.434   5.323  0.2624  0.1096  0.4333
 2926SOL    HW211476   5.184   3.474   5.262 -0.6376 -0.2399  1.1051
 2926SOL    HW311477   5.246   3.341   5.300  0.5693  0.1133  0.4101
 2926SOL    MW411478   5.238   3.427   5.312  0.6053 -0.1189  0.3041
 2927SOL     OW11479   3.344   2.684   1.626 -0.4508  0.5365  0.1212
 2927SOL    HW211480   3.357   2.593   1.599 -0.5792  0.7226 -0.5887
 2927SOL    HW311481   3.431   2.723   1.624 -0.4212  0.4768  0.2465
 2927SOL    MW411482   3.357   2.677   1.623 -0.0453  0.5998 -0.1595
 2928SOL     OW11483   6.308   3.739   1.087 -0.5239  0.8924  0.3470
 2928SOL    HW211484   6.290   3.677   1.158 -1.2665  1.5929  0.7910
 2928SOL    HW311485   6.341   3.685   1.016 -2.9303 -0.3307  0.0440
 2928SOL    MW411486   6.310   3.724   1.087 -0.4016 -0.3058 -0.0385
 2929SOL     OW11487   5.449   4.261   3.388 -0.5687  0.4545  0.5084
 2929SOL    HW211488   5.423   4.224   3.473  1.0656  0.6918  1.1607
 2929SOL    HW311489   5.545   4.252   3.387 -0.4523  1.5619 -0.7946
 2929SOL    MW411490   5.458   4.255   3.399  0.1997  0.0092 -0.3101
 2930SOL     OW11491   5.736   2.151   3.595 -0.0712  0.2666 -0.3935
 2930SOL    HW211492   5.712   2.117   3.508  0.7014 -1.4122  0.0106
 2930SOL    HW311493   5.654   2.188   3.629 -0.3947  0.9270 -1.8049
 2930SOL    MW411494   5.722   2.152   3.588 -0.3956  0.5632 -0.9493
 2931SOL     OW11495   3.270   5.568   6.337 -0.3124 -0.3301 -0.0461
 2931SOL    HW211496   3.273   5.630   6.264  2.7953  0.3774  0.5624
 2931SOL    HW311497   3.313   5.489   6.304 -2.1894 -1.4037 -0.0703
 2931SOL    MW411498   3.276   5.566   6.323 -0.2628  0.1512  0.2628
 2932SOL     OW11499   4.288   5.166   1.344 -0.0691 -0.0929  0.3208
 2932SOL    HW211500   4.256   5.202   1.427  0.1676  0.9553 -0.0368
 2932SOL    HW311501   4.260   5.074   1.346 -2.4802  0.5658  0.3468
 2932SOL    MW411502   4.280   5.158   1.355 -0.3579  0.1858 -0.3810
 2933SOL     OW11503   5.128   3.742   3.264  0.2085  0.0723 -0.7629
 2933SOL    HW211504   5.119   3.647   3.263 -1.8300  0.1543  1.3508
 2933SOL    HW311505   5.222   3.757   3.267  0.6311 -1.8032 -2.2739
 2933SOL    MW411506   5.139   3.731   3.264  0.0543  0.2003 -0.3004
 2934SOL     OW11507   0.651   2.369   0.451  0.9332 -0.0482 -0.2815
 2934SOL    HW211508   0.572   2.411   0.419  0.0284 -1.2598  0.2728
 2934SOL    HW311509   0.640   2.365   0.546  1.6853 -0.1645 -0.1907
 2934SOL    MW411510   0.639   2.374   0.460  0.0929 -0.1415 -0.2336
 2935SOL     OW11511   3.369   0.763   4.606  0.1075  0.6241  0.0024
 2935SOL    HW211512   3.343   0.853   4.585 -0.4019  0.4759 -0.0268
 2935SOL    HW311513   3.391   0.765   4.699  4.3089  1.7374 -0.8097
 2935SOL    MW411514   3.368   0.775   4.616  0.3707  0.0355 -0.6889
 2936SOL     OW11515   1.623   6.030   3.725 -0.3859 -0.2174 -0.1551
 2936SOL    HW211516   1.632   6.077   3.642  1.0996  0.9878  0.6289
 2936SOL    HW311517   1.713   6.006   3.749 -0.6288  0.5223  1.6657
 2936SOL    MW411518   1.636   6.033   3.717 -0.1406 -0.0154  0.2371
 2937SOL     OW11519   4.812   3.365   6.077 -0.2485  0.0063 -0.3798
 2937SOL    HW211520   4.904   3.339   6.077 -0.5146 -1.0023 -0.7024
 2937SOL    HW311521   4.813   3.460   6.089  0.8817  0.1626 -1.5416
 2937SOL    MW411522   4.824   3.374   6.079  0.2407 -0.6209 -0.1987
 2938SOL     OW11523   2.068   1.746   1.278 -0.5482 -0.2225  0.1649
 2938SOL    HW211524   2.044   1.673   1.336 -0.3685 -0.8062 -0.4936
 2938SOL    HW311525   2.075   1.707   1.191  1.0844  0.2818  0.0477
 2938SOL    MW411526   2.065   1.731   1.275 -0.1951 -0.1719  0.3262
 2939SOL     OW11527   3.956   0.687   3.764  0.1108 -0.2057 -0.1967
 2939SOL    HW211528   3.974   0.652   3.677  1.5377  0.6273 -0.2543
 2939SOL    HW311529   3.860   0.692   3.768  0.0040 -0.9179 -1.4408
 2939SOL    MW411530   3.945   0.683   3.753 -0.2162  0.2376 -0.0335
 2940SOL     OW11531   2.887   6.368   4.499  0.4161 -0.4771  0.3053
 2940SOL    HW211532   2.958   6.350   4.437 -0.1427  0.8021 -0.7669
 2940SOL    HW311533   2.807   6.350   4.449 -0.0606  1.2972  0.3574
 2940SOL    MW411534   2.886   6.364   4.484  0.6956 -0.8829  0.2711
 2941SOL     OW11535   0.978   2.656   5.531  0.0603 -0.2954 -0.3016
 2941SOL    HW211536   1.010   2.740   5.500  0.9698 -0.7089 -0.5115
 2941SOL    HW311537   1.041   2.628   5.597 -0.8465 -0.2968  0.6059
 2941SOL    MW411538   0.990   2.663   5.535 -0.2513  0.0525 -0.0936
 2942SOL     OW11539   0.254   3.177   0.898 -0.4470 -0.1561 -0.1086
 2942SOL    HW211540   0.338   3.212   0.927  0.1183  0.0270 -1.8788
 2942SOL    HW311541   0.190   3.222   0.953  0.4969  1.1032  0.0040
 2942SOL    MW411542   0.256   3.188   0.909  0.3921  0.3377 -0.7611
 2943SOL     OW11543   6.030   5.656   1.381 -0.3523 -0.5120 -0.0026
 2943SOL    HW211544   5.939   5.634   1.401 -0.2177  0.5740  2.1290
 2943SOL    HW311545   6.080   5.622   1.455  0.8172 -0.0473 -0.5544
 2943SOL    MW411546   6.025   5.649   1.393  0.5035 -0.0781  0.2456
 2944SOL     OW11547   1.847   2.425   0.577  0.2104 -0.2071 -0.2824
 2944SOL    HW211548   1.900   2.348   0.597  0.6981 -0.2305 -1.5642
 2944SOL    HW311549   1.907   2.499   0.590 -0.2469 -0.0198  0.9107
 2944SOL    MW411550   1.862   2.425   0.581 -0.1551  0.0796 -0.1826
 2945SOL     OW11551   0.295   2.421   5.094 -0.7820 -0.2934  0.3849
 2945SOL    HW211552   0.248   2.341   5.068 -2.5184  0.5988  0.6007
 2945SOL    HW311553   0.335   2.453   5.013 -0.3029 -1.2154  0.2428
 2945SOL    MW411554   0.294   2.414   5.080 -0.5363 -0.0455  0.2969
 2946SOL     OW11555   4.777   5.755   5.240  0.1962  0.6446  0.0436
 2946SOL    HW211556   4.794   5.774   5.333 -0.2126 -1.0556  0.4979
 2946SOL    HW311557   4.686   5.725   5.239  0.0444  1.1301 -0.9912
 2946SOL    MW411558   4.767   5.753   5.252  0.0504 -0.0490  0.1942
 2947SOL     OW11559   4.370   3.233   2.387 -0.0750  0.1188 -0.0217
 2947SOL    HW211560   4.448   3.197   2.429  0.9654  1.5792 -0.5962
 2947SOL    HW311561   4.317   3.265   2.460 -0.2145 -0.9971  0.3841
 2947SOL    MW411562   4.374   3.233   2.402 -0.1990 -0.0265  0.3622
 2948SOL     OW11563   0.891   6.341   1.515  0.3650  0.0695 -0.6892
 2948SOL    HW211564   0.986   6.349   1.506  0.5616  0.1367  1.1115
 2948SOL    HW311565   0.877   6.329   1.609 -1.4979  1.3137 -0.7560
 2948SOL    MW411566   0.902   6.341   1.526 -0.0585  0.2486 -0.5020
 2949SOL     OW11567   2.371   0.252   2.909  0.2809 -0.2337 -0.4645
 2949SOL    HW211568   2.297   0.249   2.849 -0.6609  0.0315  0.6468
 2949SOL    HW311569   2.438   0.301   2.862 -0.6313  0.4402 -1.0880
 2949SOL    MW411570   2.370   0.258   2.895  0.2650  0.0008 -0.2052
 2950SOL     OW11571   5.485   2.227   3.722 -0.0441 -0.0765  0.0232
 2950SOL    HW211572   5.414   2.236   3.659 -0.7496 -0.0430  0.8080
 2950SOL    HW311573   5.491   2.312   3.764  2.2781  0.8074 -1.8720
 2950SOL    MW411574   5.476   2.239   3.719  0.1775  0.2326  0.6213
 2951SOL     OW11575   2.303   3.900   4.148  0.4716 -0.1240 -0.0771
 2951SOL    HW211576   2.315   3.949   4.230  0.5387  0.6676 -0.5440
 2951SOL    HW311577   2.392   3.880   4.119  0.4930  0.4647 -0.4501
 2951SOL    MW411578   2.317   3.904   4.155 -0.3392 -0.2565 -0.1534
 2952SOL     OW11579   0.350   4.010   6.396  0.4538 -0.0453  0.1610
 2952SOL    HW211580   0.444   4.006   6.416  0.3692 -2.3536  0.3522
 2952SOL    HW311581   0.338   3.949   6.323 -0.8001  0.8895 -0.4720
 2952SOL    MW411582   0.361   4.002   6.389  0.7111  0.2437 -0.8493
 2953SOL     OW11583   5.815   4.334   2.678 -0.0672 -0.5125 -0.2549
 2953SOL    HW211584   5.848   4.419   2.651  0.8947 -1.4015 -2.0100
 2953SOL    HW311585   5.720   4.346   2.681  0.0971  0.8388  0.4037
 2953SOL    MW411586   5.807   4.347   2.675 -0.1959 -0.5940 -0.4680
 2954SOL     OW11587   4.548   0.253   2.780 -0.2168 -0.3685 -0.0462
 2954SOL    HW211588   4.591   0.273   2.864 -0.2338  1.9286 -0.5281
 2954SOL    HW311589   4.455   0.254   2.800 -0.2239  0.2441 -0.0807
 2954SOL    MW411590   4.542   0.256   2.794  0.1953 -0.1053  0.3449
 2955SOL     OW11591   0.180   4.361   4.239  0.6836 -0.5777 -0.0064
 2955SOL    HW211592   0.140   4.440   4.203  2.5909  0.1842 -0.5384
 2955SOL    HW311593   0.208   4.311   4.163  1.5421 -0.6637  0.3562
 2955SOL    MW411594   0.178   4.365   4.224  0.4546 -0.6909 -0.3456
 2956SOL     OW11595   3.342   3.532   2.027 -0.8164 -0.9575  0.1355
 2956SOL    HW211596   3.350   3.577   2.112 -0.2814  1.4667 -1.1222
 2956SOL    HW311597   3.426   3.487   2.016 -0.6509 -0.7727  0.6046
 2956SOL    MW411598   3.354   3.532   2.037  0.2078  0.0814  0.1923
 2957SOL     OW11599   4.972   5.939   0.153 -0.1309 -0.0986 -0.1084
 2957SOL    HW211600   4.890   5.914   0.110 -0.0408  1.8176 -1.5165
 2957SOL    HW311601   4.980   6.033   0.137  1.2231  0.1978  1.9648
 2957SOL    MW411602   4.962   5.948   0.145  0.4107 -0.2610  0.1226
 2958SOL     OW11603   5.758   2.486   2.599  0.0064  0.2141  0.4898
 2958SOL    HW211604   5.808   2.498   2.679  0.0493  3.0393  0.1446
 2958SOL    HW311605   5.673   2.452   2.628  0.5033 -0.1326  1.5793
 2958SOL    MW411606   5.753   2.483   2.613  0.2554  0.0475  0.4713
 2959SOL     OW11607   1.723   5.362   5.808  0.4056 -0.1608  0.0528
 2959SOL    HW211608   1.633   5.372   5.839  0.4473 -1.8405  0.8671
 2959SOL    HW311609   1.723   5.398   5.720 -1.1907 -0.5470 -0.1338
 2959SOL    MW411610   1.711   5.368   5.801 -0.1680 -0.1579  0.6513
 2960SOL     OW11611   2.679   5.572   5.373  0.6051 -0.2476  0.2047
 2960SOL    HW211612   2.603   5.618   5.339  0.2989 -1.6959 -1.2211
 2960SOL    HW311613   2.708   5.624   5.447 -1.9337  0.2144  0.9712
 2960SOL    MW411614   2.673   5.585   5.378 -0.3935  0.6577  0.1080
 2961SOL     OW11615   0.848   5.008   4.173  0.3501 -0.0071  0.2284
 2961SOL    HW211616   0.864   4.956   4.094 -1.5320  0.7038 -0.6882
 2961SOL    HW311617   0.916   5.076   4.171 -0.8508  1.2439 -1.9682
 2961SOL    MW411618   0.859   5.010   4.162 -0.2810 -1.0867  0.2238
 2962SOL     OW11619   2.169   0.156   4.871  0.4451 -0.5005  0.1541
 2962SOL    HW211620   2.246   0.184   4.821 -0.0674  2.1367  0.6527
 2962SOL    HW311621   2.194   0.167   4.963 -1.1649  2.8958  0.3568
 2962SOL    MW411622   2.182   0.161   4.877 -0.5938 -0.0862  0.0028
 2963SOL     OW11623   5.227   6.014   2.961  0.3879 -0.0544 -0.0198
 2963SOL    HW211624   5.299   5.984   3.017 -0.9429 -0.2881  1.6547
 2963SOL    HW311625   5.149   6.000   3.014 -0.8537  0.6817 -1.5896
 2963SOL    MW411626   5.226   6.008   2.975 -0.0015 -0.4504  0.5204
 2964SOL     OW11627   4.996   2.840   1.270 -0.1328 -0.4169 -0.6468
 2964SOL    HW211628   5.091   2.838   1.256 -0.2351 -0.3942 -1.4179
 2964SOL    HW311629   4.986   2.847   1.365  0.6101 -3.1221 -0.3019
 2964SOL    MW411630   5.007   2.841   1.281  1.2763 -0.1168 -0.5077
 2965SOL     OW11631   1.983   1.508   5.134  0.1505 -0.4211  0.2789
 2965SOL    HW211632   2.038   1.430   5.127  0.9581  0.2671 -1.6476
 2965SOL    HW311633   2.028   1.563   5.198  2.0332  0.3329 -1.6027
 2965SOL    MW411634   1.996   1.505   5.142 -0.1278  0.3261 -0.0609
 2966SOL     OW11635   5.915   0.768   4.991 -0.1696 -0.4221 -0.5071
 2966SOL    HW211636   5.950   0.830   5.055 -1.5391  1.2742 -1.3388
 2966SOL    HW311637   5.984   0.702   4.982  1.0500  0.5919  0.9175
 2966SOL    MW411638   5.929   0.767   4.998 -0.7815  0.8090  0.2533
 2967SOL     OW11639   3.038   1.670   5.616 -0.0764  0.2598 -0.2289
 2967SOL    HW211640   2.991   1.729   5.558  1.3405  1.0974 -0.5847
 2967SOL    HW311641   3.088   1.728   5.674  0.0594 -0.5851  0.5267
 2967SOL    MW411642   3.038   1.685   5.616 -0.3860 -0.2085  0.3926
 2968SOL     OW11643   5.320   4.920   3.166  0.5855 -0.3281 -0.8686
 2968SOL    HW211644   5.279   4.999   3.131 -2.6961 -1.0390  0.9398
 2968SOL    HW311645   5.300   4.852   3.101 -2.1659 -0.8489  0.3629
 2968SOL    MW411646   5.312   4.921   3.153 -0.6953  0.5342  0.5011
 2969SOL     OW11647   0.299   6.004   4.943 -0.7088  0.0419  0.5518
 2969SOL    HW211648   0.338   6.088   4.967  1.5525 -0.6102 -0.5822
 2969SOL    HW311649   0.362   5.964   4.884 -1.9428 -2.2769  0.6866
 2969SOL    MW411650   0.312   6.010   4.938 -0.2178  0.2823  0.4400
 2970SOL     OW11651   6.226   3.435   6.269 -0.2605  0.2034 -0.3470
 2970SOL    HW211652   6.296   3.377   6.238 -0.1910  0.3983 -0.5622
 2970SOL    HW311653   6.265   3.522   6.266  0.4028  0.0573  2.1401
 2970SOL    MW411654   6.241   3.439   6.264 -0.6737  0.1058 -0.2175
 2971SOL     OW11655   4.146   5.172   1.087  0.2454  0.2081 -0.4178
 2971SOL    HW211656   4.213   5.190   1.153  0.0831 -2.3802  0.5511
 2971SOL    HW311657   4.181   5.099   1.036 -1.2520 -0.3153 -0.7548
 2971SOL    MW411658   4.160   5.165   1.089  0.2523  0.4145  0.0327
 2972SOL     OW11659   5.752   1.351   5.722 -0.0818  0.5368 -0.0950
 2972SOL    HW211660   5.716   1.394   5.645  0.4969 -1.0562 -1.3378
 2972SOL    HW311661   5.825   1.407   5.750 -0.8213  1.5578 -0.1666
 2972SOL    MW411662   5.757   1.364   5.716 -0.5930  0.0243 -0.3870
 2973SOL     OW11663   0.935   4.197   4.378 -0.2738 -0.4036  0.4409
 2973SOL    HW211664   0.949   4.229   4.467  0.3525  0.9541 -0.1120
 2973SOL    HW311665   0.916   4.276   4.327  0.9431 -0.9262 -0.9146
 2973SOL    MW411666   0.935   4.211   4.383 -0.3484  0.3621 -0.0046
 2974SOL     OW11667   5.010   4.390   6.016  0.7803 -0.6174  0.2124
 2974SOL    HW211668   5.071   4.372   5.945  0.7127 -0.3592  0.0894
 2974SOL    HW311669   4.977   4.303   6.042  1.3594 -0.7787  0.4296
 2974SOL    MW411670   5.013   4.376   6.010 -0.2208 -0.1825 -0.5319
 2975SOL     OW11671   1.537   1.386   3.765  0.5494  0.3929 -0.5131
 2975SOL    HW211672   1.506   1.445   3.696 -0.1454  0.1559 -0.4211
 2975SOL    HW311673   1.457   1.343   3.796  1.1925 -1.9482 -1.8181
 2975SOL    MW411674   1.522   1.388   3.760  0.0296  0.1890 -0.3036
 2976SOL     OW11675   3.857   0.975   2.019 -0.5066 -0.0093 -0.1657
 2976SOL    HW211676   3.859   1.027   2.099 -2.3222  0.3354 -0.3041
 2976SOL    HW311677   3.788   0.910   2.034  1.4097 -2.1911 -0.1589
 2976SOL    MW411678   3.848   0.973   2.032  0.4330 -0.0121 -0.1103
 2977SOL     OW11679   4.246   5.051   4.774  0.6974 -0.0212 -0.3055
 2977SOL    HW211680   4.200   4.993   4.835  0.5489  0.1777 -0.2272
 2977SOL    HW311681   4.176   5.101   4.731  0.6969 -1.0899 -1.6039
 2977SOL    MW411682   4.230   5.050   4.777  0.1441 -0.1393 -0.0608
 2978SOL     OW11683   3.152   1.831   4.678 -0.3024  0.1474 -0.2573
 2978SOL    HW211684   3.092   1.846   4.750 -1.2714 -0.4493 -0.9219
 2978SOL    HW311685   3.156   1.736   4.669 -0.2544  0.2150 -1.0276
 2978SOL    MW411686   3.145   1.820   4.686 -0.7180  0.6891 -0.0840
 2979SOL     OW11687   5.536   5.081   1.080  0.0956 -0.4148 -0.4816
 2979SOL    HW211688   5.573   5.165   1.106  1.1521 -1.4646  1.6666
 2979SOL    HW311689   5.443   5.099   1.063  0.4058  1.2446 -0.5386
 2979SOL    MW411690   5.528   5.095   1.081 -0.0526 -0.2959 -0.7894
 2980SOL     OW11691   3.103   3.774   6.165 -0.4993 -0.4368 -0.2361
 2980SOL    HW211692   3.143   3.702   6.215 -1.2891  1.3338  3.1900
 2980SOL    HW311693   3.148   3.853   6.196 -1.5992  0.8599 -1.7841
 2980SOL    MW411694   3.114   3.775   6.176  0.8894  0.1739  0.7135
 2981SOL     OW11695   4.186   5.809   3.717  0.0146 -0.4001  0.0270
 2981SOL    HW211696   4.090   5.805   3.707 -0.1181 -3.3293  1.4706
 2981SOL    HW311697   4.200   5.812   3.811  1.3874  0.3473 -0.1808
 2981SOL    MW411698   4.175   5.809   3.728  0.4720  0.5606 -0.1390
 2982SOL     OW11699   5.335   0.448   1.102 -0.6242  0.5012 -0.2743
 2982SOL    HW211700   5.427   0.473   1.103 -0.6970  0.7854 -0.4484
 2982SOL    HW311701   5.312   0.434   1.194 -0.5774  1.0776 -0.1677
 2982SOL    MW411702   5.344   0.450   1.114 -0.1381 -0.4646 -0.2171
 2983SOL     OW11703   6.322   0.607   3.734 -0.6825 -0.0429  0.4868
 2983SOL    HW211704   6.255   0.563   3.786  0.5475  1.2273  3.3724
 2983SOL    HW311705   6.405   0.579   3.772  0.3016  0.9619 -0.8231
 2983SOL    MW411706   6.324   0.598   3.746 -0.2783 -0.1569  0.5320
 2984SOL     OW11707   6.128   0.523   3.894 -0.2500 -0.0823 -0.0649
 2984SOL    HW211708   6.157   0.538   3.984 -2.0685  1.6424  0.2804
 2984SOL    HW311709   6.047   0.473   3.902  0.8471 -2.1295 -0.9019
 2984SOL    MW411710   6.121   0.518   3.907  0.2152 -0.1844  0.3033
 2985SOL     OW11711   1.573   4.322   5.921  0.0694 -0.0231  0.1960
 2985SOL    HW211712   1.541   4.361   6.003 -1.4797 -0.1615 -0.3264
 2985SOL    HW311713   1.580   4.396   5.861  0.8108  0.0104  0.3046
 2985SOL    MW411714   1.570   4.337   5.924  0.3714  0.5505 -0.0220
 2986SOL     OW11715   4.553   4.383   2.132  0.2997  0.2755 -0.0993
 2986SOL    HW211716   4.569   4.477   2.132  0.0722  0.3161  0.1985
 2986SOL    HW311717   4.622   4.347   2.188 -0.1094  0.3570  0.4675
 2986SOL    MW411718   4.565   4.391   2.139 -0.0236  0.4553  0.6678
 2987SOL     OW11719   5.151   5.965   5.631  0.1110  0.0442 -0.2112
 2987SOL    HW211720   5.107   6.012   5.701  0.9914 -0.0887  0.4589
 2987SOL    HW311721   5.198   5.895   5.676  0.0794 -0.5023 -1.0229
 2987SOL    MW411722   5.152   5.962   5.646  0.0926 -0.4028 -0.0172
 2988SOL     OW11723   0.599   0.164   5.825 -0.2649 -0.7818  0.2405
 2988SOL    HW211724   0.690   0.169   5.794 -0.6817  1.7642 -0.9134
 2988SOL    HW311725   0.601   0.208   5.910 -0.5314  0.1814 -0.2322
 2988SOL    MW411726   0.611   0.171   5.832  0.0206 -0.4740 -0.0210
 2989SOL     OW11727   5.773   1.674   3.860  0.5240 -0.6765 -0.0918
 2989SOL    HW211728   5.761   1.767   3.838  1.1064 -0.7991 -0.9759
 2989SOL    HW311729   5.739   1.627   3.784 -1.1169 -1.2576  0.9465
 2989SOL    MW411730   5.767   1.680   3.848  0.4938  0.1710 -0.2992
 2990SOL     OW11731   3.399   4.083   5.364 -0.3518  0.6643  0.1824
 2990SOL    HW211732   3.321   4.034   5.390 -0.0890  0.4803  0.6267
 2990SOL    HW311733   3.366   4.153   5.307 -0.6683 -0.4854 -1.1117
 2990SOL    MW411734   3.384   4.086   5.360  0.2539 -0.3393  0.3031
 2991SOL     OW11735   3.885   1.869   5.946  0.0160 -0.3963  0.0818
 2991SOL    HW211736   3.912   1.853   6.036 -0.3593  0.1702  0.2999
 2991SOL    HW311737   3.790   1.862   5.949 -0.0621  0.5002 -0.0873
 2991SOL    MW411738   3.876   1.866   5.958 -0.3380 -0.0102  0.0782
 2992SOL     OW11739   0.535   5.858   5.166  0.4208 -0.1244  0.0791
 2992SOL    HW211740   0.495   5.794   5.107  1.7237 -0.9685  0.0704
 2992SOL    HW311741   0.624   5.869   5.133 -0.1732  2.8050 -0.7633
 2992SOL    MW411742   0.542   5.851   5.154  0.2531  0.3237 -0.5839
 2993SOL     OW11743   2.661   6.389   1.130 -0.1224  0.4182  0.3689
 2993SOL    HW211744   2.597   6.454   1.160  0.1593 -0.5038  3.3014
 2993SOL    HW311745   2.723   6.381   1.203 -0.0147 -2.9488  0.0810
 2993SOL    MW411746   2.661   6.397   1.143 -1.0786 -0.0452  0.6137
 2994SOL     OW11747   1.150   1.540   1.616 -0.3638  0.1876  0.4709
 2994SOL    HW211748   1.077   1.486   1.647 -1.3015  1.3263  0.3484
 2994SOL    HW311749   1.108   1.619   1.581  0.7378 -0.4390 -2.5105
 2994SOL    MW411750   1.135   1.543   1.616  0.0755  0.0983 -0.3545
 2995SOL     OW11751   5.293   3.758   2.003  0.2866  0.5177  0.7850
 2995SOL    HW211752   5.353   3.707   2.057  1.0036  0.1431 -0.3322
 2995SOL    HW311753   5.335   3.763   1.917  0.5582  3.5192  0.9649
 2995SOL    MW411754   5.306   3.752   1.999 -0.1487  0.0242  0.4329
 2996SOL     OW11755   3.999   3.041   0.747 -0.2045  0.2825 -0.5349
 2996SOL    HW211756   4.056   2.965   0.752 -0.6791 -0.0528 -0.1627
 2996SOL    HW311757   4.043   3.108   0.799 -0.7536 -0.3742  0.8293
 2996SOL    MW411758   4.012   3.040   0.755 -0.1661 -0.8549 -0.4491
 2997SOL     OW11759   5.696   3.031   4.082  0.3834  0.2806 -0.6359
 2997SOL    HW211760   5.770   2.973   4.067 -0.6828 -0.6421 -2.6360
 2997SOL    HW311761   5.649   3.032   3.999 -1.0933  1.9377  0.1655
 2997SOL    MW411762   5.700   3.024   4.069 -0.1051 -0.1221 -0.7382
 2998SOL     OW11763   4.563   2.212   0.847  0.2149 -0.2083  0.5998
 2998SOL    HW211764   4.574   2.137   0.906  4.7179 -1.3530 -1.2777
 2998SOL    HW311765   4.563   2.174   0.759  2.3349  1.8095 -0.3986
 2998SOL    MW411766   4.565   2.197   0.843 -0.1269 -0.1112 -0.0134
 2999SOL     OW11767   5.801   0.524   4.656  0.0371 -0.3876  0.2969
 2999SOL    HW211768   5.760   0.509   4.741  0.6705 -0.9513  0.5148
 2999SOL    HW311769   5.813   0.436   4.620 -1.8260 -0.1040 -1.1648
 2999SOL    MW411770   5.797   0.510   4.662  0.1990  0.1249 -0.2586
 3000SOL     OW11771   2.684   0.778   0.709  0.1483  0.0104  0.0989
 3000SOL    HW211772   2.766   0.732   0.726  0.8672  1.3456  0.3748
 3000SOL    HW311773   2.630   0.761   0.786  0.6754  0.2159  0.5174
 3000SOL    MW411774   2.687   0.769   0.721 -0.7791 -0.6492  0.1014
 3001SOL     OW11775   1.328   3.533   5.503 -0.2069 -0.4394 -0.0430
 3001SOL    HW211776   1.285   3.515   5.586  0.0893  0.8029  0.4096
 3001SOL    HW311777   1.305   3.459   5.447  0.8135 -2.0516  1.5844
 3001SOL    MW411778   1.319   3.521   5.506 -0.1705  0.3801 -0.0006
 3002SOL     OW11779   3.386   3.678   2.267  0.3915 -0.1377  0.1785
 3002SOL    HW211780   3.478   3.703   2.267  0.9726 -1.8789 -2.7167
 3002SOL    HW311781   3.339   3.760   2.255  1.7043  0.5431 -0.5118
 3002SOL    MW411782   3.392   3.692   2.266  0.5611  0.2618  0.6176
 3003SOL     OW11783   0.215   4.256   2.829 -0.2487  0.0224  0.4417
 3003SOL    HW211784   0.157   4.225   2.898 -1.0424 -0.3665 -0.3943
 3003SOL    HW311785   0.181   4.218   2.748  0.8337  0.2375 -0.1435
 3003SOL    MW411786   0.203   4.247   2.827 -0.2492  0.1506  0.3253
 3004SOL     OW11787   0.902   2.155   5.956 -0.8192 -0.5215 -0.0094
 3004SOL    HW211788   0.898   2.251   5.958 -0.5667 -0.5040  2.1325
 3004SOL    HW311789   0.812   2.128   5.938 -1.4224  0.1581  1.6911
 3004SOL    MW411790   0.889   2.164   5.954 -0.1312  0.2434 -0.4000
 3005SOL     OW11791   3.000   0.509   3.864 -0.2502  0.2138 -0.3197
 3005SOL    HW211792   2.930   0.545   3.918 -0.8396 -1.2819 -0.0315
 3005SOL    HW311793   3.069   0.486   3.926 -0.4500 -0.4209 -0.3234
 3005SOL    MW411794   3.000   0.510   3.879 -0.5438 -0.0389 -0.2444
 3006SOL     OW11795   3.950   4.400   5.167 -0.0600  0.4334  0.1282
 3006SOL    HW211796   3.891   4.449   5.224 -1.8112  0.3538 -1.5462
 3006SOL    HW311797   3.908   4.315   5.155  0.6600  0.1767 -0.6770
 3006SOL    MW411798   3.937   4.395   5.173 -0.0857  0.5764  0.5369
 3007SOL     OW11799   0.257   3.309   0.105  0.4921 -0.4910 -0.0191
 3007SOL    HW211800   0.287   3.310   0.196  0.1593 -1.2080  0.1039
 3007SOL    HW311801   0.334   3.332   0.053  0.4750  0.8066  0.4971
 3007SOL    MW411802   0.271   3.312   0.110 -0.0458 -0.0401 -0.2462
 3008SOL     OW11803   4.354   2.438   2.318 -0.0122 -0.4420  0.1582
 3008SOL    HW211804   4.307   2.362   2.352  0.3329 -1.1268 -0.8464
 3008SOL    HW311805   4.325   2.445   2.227 -0.2358  0.7915  0.3175
 3008SOL    MW411806   4.344   2.429   2.310 -0.0644  0.5743  0.2477
 3009SOL     OW11807   0.896   1.477   4.630 -0.2778 -0.0808 -0.6556
 3009SOL    HW211808   0.889   1.516   4.543 -0.6853  0.1709 -0.5096
 3009SOL    HW311809   0.964   1.528   4.674  0.3763 -0.6009 -1.0302
 3009SOL    MW411810   0.904   1.489   4.624 -0.3963 -0.0215  0.6084
 3010SOL     OW11811   2.345   2.411   0.086  0.2148 -0.1412  0.6511
 3010SOL    HW211812   2.422   2.425   0.142 -0.0172 -0.6064  1.0935
 3010SOL    HW311813   2.327   2.497   0.049 -0.3907  0.4749  2.2866
 3010SOL    MW411814   2.353   2.424   0.088  0.9441 -0.5762 -0.4609
 3011SOL     OW11815   0.700   3.116   1.737 -0.2772 -0.2031  0.1571
 3011SOL    HW211816   0.698   3.197   1.788  2.7664 -1.6143  2.8591
 3011SOL    HW311817   0.613   3.078   1.751 -0.2829  0.5035  2.6491
 3011SOL    MW411818   0.688   3.122   1.746  0.4078 -0.1793 -0.3461
 3012SOL     OW11819   5.964   5.891   2.192  0.3665 -0.6548 -0.5949
 3012SOL    HW211820   5.988   5.964   2.249 -0.3626 -1.2129  0.4598
 3012SOL    HW311821   5.950   5.817   2.252 -3.4458 -0.5266 -1.0834
 3012SOL    MW411822   5.966   5.891   2.208  0.1328  0.9684 -0.1428
 3013SOL     OW11823   1.321   5.271   4.935  0.7084  0.9141 -0.4306
 3013SOL    HW211824   1.267   5.208   4.982  1.2854  0.1768 -0.7273
 3013SOL    HW311825   1.319   5.242   4.844  0.9583  1.3454 -0.5787
 3013SOL    MW411826   1.314   5.259   4.929 -0.6042  0.3647  0.1465
 3014SOL     OW11827   0.496   2.568   1.173  0.5738  0.1247 -0.3366
 3014SOL    HW211828   0.587   2.556   1.146 -0.0422  0.1727 -2.6794
 3014SOL    HW311829   0.472   2.654   1.137  0.0050  0.8000  1.5452
 3014SOL    MW411830   0.505   2.578   1.164  0.0022 -0.4153  0.2243
 3015SOL     OW11831   5.710   2.283   5.353 -0.0297 -0.3334  0.3387
 3015SOL    HW211832   5.710   2.220   5.281  0.3738 -0.3012  0.3034
 3015SOL    HW311833   5.656   2.355   5.321 -1.3702 -1.1147  0.8041
 3015SOL    MW411834   5.703   2.285   5.339 -0.4638  0.0602  0.3983
 3016SOL     OW11835   1.932   4.673   5.166  0.0228  0.1415 -0.3418
 3016SOL    HW211836   1.999   4.627   5.217  0.3886  1.2397  0.1917
 3016SOL    HW311837   1.920   4.756   5.212 -0.8395  0.4627 -1.1240
 3016SOL    MW411838   1.939   4.678   5.179  0.2703  0.9966 -0.1044
 3017SOL     OW11839   5.074   2.063   4.057 -0.0491  0.7783 -0.1477
 3017SOL    HW211840   5.019   1.993   4.023  1.0060 -0.2629  0.2418
 3017SOL    HW311841   5.028   2.144   4.033 -1.6452 -0.0445  0.0197
 3017SOL    MW411842   5.061   2.065   4.050 -0.5314 -0.5033  0.6383
 3018SOL     OW11843   2.103   1.073   1.618  0.5322 -0.3975  0.0021
 3018SOL    HW211844   2.069   0.990   1.583  0.4093 -0.2489 -0.2285
 3018SOL    HW311845   2.025   1.124   1.639  0.6080  0.0344 -0.7429
 3018SOL    MW411846   2.088   1.069   1.616 -0.4259  1.2580  0.4395
 3019SOL     OW11847   4.599   6.216   0.838  0.2678  1.0462 -0.4468
 3019SOL    HW211848   4.609   6.127   0.803  1.2298 -0.2153  2.7079
 3019SOL    HW311849   4.505   6.233   0.833 -0.0125 -0.3923 -0.5817
 3019SOL    MW411850   4.588   6.206   0.833 -0.0104  0.0635  0.1773
 3020SOL     OW11851   4.437   6.206   0.063 -0.3175 -0.2971 -0.4770
 3020SOL    HW211852   4.446   6.127   0.117  3.2992  0.5407  0.3781
 3020SOL    HW311853   4.444   6.174  -0.027 -1.3748 -1.1670 -0.2764
 3020SOL    MW411854   4.439   6.191   0.059  0.2850  0.2699  0.9191
 3021SOL     OW11855   6.292   0.267   4.036 -0.1118  0.9829 -0.0362
 3021SOL    HW211856   6.237   0.231   4.106 -0.3431  1.7269  0.1685
 3021SOL    HW311857   6.300   0.360   4.057  1.6727  0.8029  0.2408
 3021SOL    MW411858   6.286   0.274   4.048  0.2810 -0.7187 -0.0669
 3022SOL     OW11859   1.650   5.753   0.149  0.1924  0.4915 -0.2693
 3022SOL    HW211860   1.561   5.790   0.148 -0.1040 -0.1937 -0.2657
 3022SOL    HW311861   1.636   5.659   0.135  0.8918  0.3178  0.1784
 3022SOL    MW411862   1.636   5.745   0.147 -0.2151 -0.8862 -0.2797
 3023SOL     OW11863   6.353   5.356   1.250  0.0280  0.0009  0.8848
 3023SOL    HW211864   6.353   5.311   1.166 -1.0221 -0.4466  1.1143
 3023SOL    HW311865   6.385   5.444   1.230  3.6799 -1.2193  0.6865
 3023SOL    MW411866   6.357   5.362   1.236 -0.1647  0.4425 -0.2223
 3024SOL     OW11867   1.564   0.992   1.649 -0.1664  0.5530 -0.0016
 3024SOL    HW211868   1.632   0.980   1.716 -2.0933  0.8163  2.1558
 3024SOL    HW311869   1.585   1.075   1.608  1.5244  0.0073 -0.3174
 3024SOL    MW411870   1.576   1.001   1.653 -0.0413 -0.8736 -0.0606
 3025SOL     OW11871   5.358   1.281   5.292 -0.6722 -0.4207 -0.0576
 3025SOL    HW211872   5.266   1.268   5.311 -0.5606 -0.0217  0.7829
 3025SOL    HW311873   5.369   1.376   5.284 -0.4997 -0.5117 -1.0556
 3025SOL    MW411874   5.348   1.292   5.293 -0.2928  0.6585  0.0467
 3026SOL     OW11875   2.236   5.391   5.205 -0.2387 -0.3148 -0.3545
 3026SOL    HW211876   2.263   5.422   5.119 -0.7414  0.0337 -0.3890
 3026SOL    HW311877   2.317   5.364   5.248 -0.0316 -0.8853 -1.0950
 3026SOL    MW411878   2.250   5.391   5.200 -0.5347 -0.3480  0.0930
 3027SOL     OW11879   5.900   3.133   1.619 -0.2958  0.2429  0.0352
 3027SOL    HW211880   5.936   3.221   1.614  0.6676 -0.1500 -0.2556
 3027SOL    HW311881   5.943   3.086   1.547  0.7972 -1.0113  1.4403
 3027SOL    MW411882   5.910   3.138   1.609  0.1907 -0.1074  0.3827
 3028SOL     OW11883   1.338   2.069   1.746  0.1585 -0.3947 -0.1253
 3028SOL    HW211884   1.356   1.977   1.726 -1.6255 -1.2595  1.8797
 3028SOL    HW311885   1.310   2.107   1.662  1.1413 -1.5852 -1.0282
 3028SOL    MW411886   1.336   2.062   1.732 -0.8681  0.0819  0.1504
 3029SOL     OW11887   4.210   4.257   2.283 -0.1281 -0.3734  0.4701
 3029SOL    HW211888   4.131   4.285   2.329  0.8475  1.4722  1.1353
 3029SOL    HW311889   4.215   4.314   2.207  0.7091 -0.2376  0.6093
 3029SOL    MW411890   4.200   4.269   2.279  0.4215  0.0025 -0.0929
 3030SOL     OW11891   0.405   0.840   0.454 -0.0540  0.1275  0.0343
 3030SOL    HW211892   0.340   0.909   0.467 -1.7835 -1.8297  2.8530
 3030SOL    HW311893   0.451   0.833   0.538  1.1347 -1.1082 -0.6754
 3030SOL    MW411894   0.403   0.848   0.467 -0.1873 -0.4024  0.1691
 3031SOL     OW11895   4.035   2.454   1.745 -0.3131  0.0800 -0.3426
 3031SOL    HW211896   4.061   2.531   1.795  0.2491 -0.3977  0.1098
 3031SOL    HW311897   4.010   2.390   1.811 -0.4534 -0.2462 -0.7079
 3031SOL    MW411898   4.035   2.456   1.760  0.7728  0.4976  0.6887
 3032SOL     OW11899   0.688   3.667   3.332 -0.8283 -0.0083  0.4816
 3032SOL    HW211900   0.649   3.684   3.418  1.4069  0.2677  1.5082
 3032SOL    HW311901   0.735   3.585   3.343  2.3290  1.6786  0.6550
 3032SOL    MW411902   0.689   3.659   3.344 -0.0399  0.4197 -0.0961
 3033SOL     OW11903   6.106   4.575   1.512  0.3358 -0.3099  0.1453
 3033SOL    HW211904   6.129   4.666   1.530 -0.0779 -0.5473  2.0768
 3033SOL    HW311905   6.179   4.524   1.546  0.8957 -0.6983 -1.5712
 3033SOL    MW411906   6.119   4.580   1.519 -0.2491 -0.7920  0.4243
 3034SOL     OW11907   5.117   0.293   2.181  0.3165  0.3523 -0.9947
 3034SOL    HW211908   5.204   0.330   2.167  0.8403 -0.3243  0.3204
 3034SOL    HW311909   5.126   0.201   2.154 -0.0904  0.3656 -1.1807
 3034SOL    MW411910   5.129   0.286   2.175  0.4362 -0.4214  0.1427
 3035SOL     OW11911   0.349   3.086   4.784  0.5072  0.4401 -0.5262
 3035SOL    HW211912   0.262   3.051   4.803  0.7437 -0.8281 -1.6246
 3035SOL    HW311913   0.336   3.143   4.707  0.5581  0.6892 -0.3509
 3035SOL    MW411914   0.336   3.089   4.776 -0.3365 -0.0531 -0.1439
 3036SOL     OW11915   6.035   1.857   2.765  0.3806 -0.4248  0.6229
 3036SOL    HW211916   5.946   1.824   2.751  0.1466  0.2001  0.6263
 3036SOL    HW311917   6.075   1.856   2.678  0.0057  0.3301  0.4314
 3036SOL    MW411918   6.028   1.852   2.752 -0.3729  0.1761  0.1472
 3037SOL     OW11919   2.556   4.506   1.493 -0.1267 -0.1128 -0.4202
 3037SOL    HW211920   2.584   4.581   1.440 -0.2596  0.8282  0.7887
 3037SOL    HW311921   2.472   4.533   1.529 -0.6991 -1.3096 -0.8402
 3037SOL    MW411922   2.549   4.520   1.491 -0.4643  0.3564  0.0693
 3038SOL     OW11923   3.836   4.130   2.366 -0.0368 -0.5789  0.0555
 3038SOL    HW211924   3.853   4.061   2.302 -0.2422  0.2287 -0.8921
 3038SOL    HW311925   3.851   4.212   2.318  0.0518  0.0427  1.1128
 3038SOL    MW411926   3.840   4.132   2.351 -0.5040  0.3394 -0.0509
 3039SOL     OW11927   0.280   4.388   6.249  0.2125  0.8874  0.0763
 3039SOL    HW211928   0.265   4.328   6.322  0.1439  1.4821  0.5537
 3039SOL    HW311929   0.354   4.349   6.201  0.8331  0.9400  0.9582
 3039SOL    MW411930   0.288   4.375   6.252  0.2411  0.2832  0.8692
 3040SOL     OW11931   3.298   4.793   0.527  0.0666  0.9389  0.2420
 3040SOL    HW211932   3.380   4.771   0.482  0.7423  0.3874  1.6786
 3040SOL    HW311933   3.242   4.717   0.513  0.5738  0.4088  0.9660
 3040SOL    MW411934   3.302   4.780   0.519  0.4659  0.3486 -0.7058
 3041SOL     OW11935   1.348   4.598   2.726  0.1355 -1.1735 -0.2321
 3041SOL    HW211936   1.389   4.540   2.661  0.9406  0.3781 -1.1573
 3041SOL    HW311937   1.416   4.660   2.750 -0.9780 -0.0050  0.0107
 3041SOL    MW411938   1.362   4.598   2.721 -0.0852  0.4796 -0.7700
 3042SOL     OW11939   1.598   4.435   2.685  0.4592  0.3300 -0.1711
 3042SOL    HW211940   1.685   4.474   2.690 -0.2109  1.7253  1.1155
 3042SOL    HW311941   1.568   4.430   2.776 -0.1781 -1.6645 -0.4373
 3042SOL    MW411942   1.606   4.440   2.698  0.2899 -1.0122 -0.3624
 3043SOL     OW11943   1.228   5.940   3.976  0.1376 -0.3982 -0.2018
 3043SOL    HW211944   1.219   6.033   3.996  1.3162 -0.4314  0.5179
 3043SOL    HW311945   1.289   5.937   3.902 -0.3639 -0.5834 -0.6230
 3043SOL    MW411946   1.235   5.951   3.969  0.1236  0.5185 -0.2565
 3044SOL     OW11947   2.118   4.587   0.536 -0.1191  0.1078  0.0779
 3044SOL    HW211948   2.025   4.572   0.548 -0.2393  0.7443 -0.0123
 3044SOL    HW311949   2.159   4.544   0.611 -0.5402  0.4323  0.5020
 3044SOL    MW411950   2.111   4.579   0.548 -0.0854 -0.7394 -0.6596
 3045SOL     OW11951   1.160   2.934   4.131  0.2889  0.1871 -0.1372
 3045SOL    HW211952   1.215   2.996   4.083  1.1435 -0.4334  0.0178
 3045SOL    HW311953   1.147   2.861   4.071 -0.1838  0.2249 -0.0882
 3045SOL    MW411954   1.166   2.932   4.117 -0.0083 -0.1106 -0.3097
 3046SOL     OW11955   0.733   2.875   0.436 -0.1204 -0.0130 -0.4548
 3046SOL    HW211956   0.679   2.937   0.485 -0.7125 -0.4731 -0.5171
 3046SOL    HW311957   0.679   2.797   0.427  0.6553 -0.5869 -0.2856
 3046SOL    MW411958   0.719   2.873   0.442  0.2201  0.0564  0.7324
 3047SOL     OW11959   6.163   3.437   0.999 -0.1416 -0.4022  0.4032
 3047SOL    HW211960   6.172   3.357   1.050 -0.8571 -0.3959  0.5517
 3047SOL    HW311961   6.251   3.456   0.968  0.0434 -1.2224  0.4046
 3047SOL    MW411962   6.176   3.429   1.001  0.3594  0.1925  0.5868
 3048SOL     OW11963   5.981   4.332   4.739 -0.1859  0.5957 -0.5221
 3048SOL    HW211964   5.939   4.382   4.669  0.8884 -0.3488 -1.9024
 3048SOL    HW311965   5.947   4.243   4.729  0.9691  0.1603 -0.7072
 3048SOL    MW411966   5.971   4.327   4.728  0.2411 -0.2775  0.1217
 3049SOL     OW11967   5.348   2.282   5.442  0.3605  0.0338  0.2557
 3049SOL    HW211968   5.291   2.210   5.469 -0.8183  0.7821 -0.1159
 3049SOL    HW311969   5.382   2.318   5.525 -0.4219  0.1198  0.5501
 3049SOL    MW411970   5.345   2.278   5.457 -0.2551 -0.4318 -0.3773
 3050SOL     OW11971   6.114   1.578   2.492  0.1650  0.6890  0.1131
 3050SOL    HW211972   6.107   1.485   2.471 -0.6328  0.8156 -0.2237
 3050SOL    HW311973   6.208   1.597   2.488  0.1724  0.4709 -2.4491
 3050SOL    MW411974   6.125   1.568   2.488  0.7192 -0.1473  0.3469
 3051SOL     OW11975   6.313   1.186   0.297 -0.5450 -0.4138  0.2417
 3051SOL    HW211976   6.256   1.119   0.260  0.6037 -2.4242  1.8404
 3051SOL    HW311977   6.400   1.165   0.263 -0.4118  1.4464 -0.6766
 3051SOL    MW411978   6.317   1.174   0.288 -0.1136  1.0143  0.8473
 3052SOL     OW11979   2.677   1.795   0.498 -0.1874 -0.9608  0.2539
 3052SOL    HW211980   2.584   1.783   0.482  0.0447 -1.0884 -1.1887
 3052SOL    HW311981   2.718   1.775   0.414  1.0319  0.3354  0.4965
 3052SOL    MW411982   2.670   1.791   0.485 -0.5337  0.2959  0.2737
 3053SOL     OW11983   1.542   2.558   3.836  0.1977  0.3633  0.1302
 3053SOL    HW211984   1.605   2.503   3.789  0.9428 -0.8472  2.3719
 3053SOL    HW311985   1.542   2.641   3.788  0.9268 -0.7414 -1.8997
 3053SOL    MW411986   1.551   2.562   3.824  0.7351 -0.1736 -0.2736
 3054SOL     OW11987   3.622   1.183   0.545  0.1716 -0.0687  0.4120
 3054SOL    HW211988   3.556   1.114   0.554 -0.8389  0.7411 -0.5372
 3054SOL    HW311989   3.571   1.263   0.531  1.3538  0.6585  0.1697
 3054SOL    MW411990   3.607   1.185   0.544  0.6566 -0.0096 -0.7666
 3055SOL     OW11991   1.517   4.750   3.596  0.4174  0.1999  0.3377
 3055SOL    HW211992   1.519   4.761   3.691  0.4374  0.0076  0.3584
 3055SOL    HW311993   1.479   4.664   3.582 -0.9966  0.8210  0.1340
 3055SOL    MW411994   1.512   4.740   3.607 -0.6517  0.1960  0.3216
 3056SOL     OW11995   5.767   5.902   4.519 -0.1237  0.3096 -0.3169
 3056SOL    HW211996   5.818   5.873   4.443  0.9865  1.2623  0.0440
 3056SOL    HW311997   5.680   5.865   4.505  0.4687 -0.7745 -1.3019
 3056SOL    MW411998   5.762   5.893   4.507  0.2306 -0.6913 -0.1965
 3057SOL     OW11999   3.984   2.234   3.883 -0.0821  0.4616 -0.6029
 3057SOL    HW212000   3.895   2.205   3.863 -1.0204  1.7412  1.3891
 3057SOL    HW312001   3.989   2.233   3.979  1.3841  2.3014 -0.6019
 3057SOL    MW412002   3.973   2.230   3.893 -0.1273  0.2648 -0.0189
 3058SOL     OW12003   6.166   2.110   5.815  0.1350 -0.3217  0.6396
 3058SOL    HW212004   6.162   2.185   5.875 -1.8258  0.2167 -0.0778
 3058SOL    HW312005   6.165   2.149   5.728 -1.2417 -1.1452  0.2542
 3058SOL    MW412006   6.165   2.125   5.812 -0.4683  0.0306 -0.4020
 3059SOL     OW12007   3.190   6.032   0.307 -0.6969 -0.3416  0.4860
 3059SOL    HW212008   3.189   6.010   0.214 -0.9150  0.7332  0.2280
 3059SOL    HW312009   3.099   6.053   0.328 -0.9204 -1.9319  1.2951
 3059SOL    MW412010   3.178   6.032   0.298  0.4609 -0.4134  0.3548
 3060SOL     OW12011   2.516   0.363   5.713  0.1205  0.1758  0.5694
 3060SOL    HW212012   2.564   0.329   5.638  0.8384 -0.4404  1.2923
 3060SOL    HW312013   2.576   0.426   5.754 -1.0876  2.2408 -0.6120
 3060SOL    MW412014   2.530   0.367   5.709 -0.5202 -0.2533 -0.2378
 3061SOL     OW12015   5.809   6.291   4.286  0.3176 -0.1902  0.0639
 3061SOL    HW212016   5.782   6.222   4.226  0.5525 -0.9470  0.8022
 3061SOL    HW312017   5.789   6.257   4.373  1.1174  0.3638  0.4843
 3061SOL    MW412018   5.803   6.278   4.290  0.1035  0.0040 -0.1542
 3062SOL     OW12019   1.378   1.492   5.733  0.4068 -0.0461  0.1788
 3062SOL    HW212020   1.394   1.408   5.690 -2.3486  0.0555 -1.2844
 3062SOL    HW312021   1.322   1.470   5.807  0.6869  0.3790  0.5191
 3062SOL    MW412022   1.373   1.478   5.737  0.3001 -0.1820  0.1627
 3063SOL     OW12023   1.309   5.732   1.410 -0.0563  0.1990 -0.0335
 3063SOL    HW212024   1.282   5.692   1.493  0.5072  0.8565  0.4795
 3063SOL    HW312025   1.233   5.784   1.382 -0.1509  0.1913  0.2098
 3063SOL    MW412026   1.295   5.734   1.417  0.0544 -0.2429  0.3744
 3064SOL     OW12027   0.061   4.734   4.220 -0.6181  0.0456  0.3964
 3064SOL    HW212028   0.037   4.826   4.206  0.8746  0.3790 -0.1062
 3064SOL    HW312029  -0.006   4.701   4.280 -1.3992  1.3497  0.2847
 3064SOL    MW412030   0.049   4.742   4.226 -0.1434 -0.7825  0.4346
 3065SOL     OW12031   5.889   1.544   4.106  0.3068 -0.5604  0.2158
 3065SOL    HW212032   5.901   1.604   4.179 -0.4608 -0.6565  0.4291
 3065SOL    HW312033   5.798   1.556   4.079  1.0113  0.6968 -1.8300
 3065SOL    MW412034   5.879   1.553   4.112 -0.2495 -0.5234 -0.0682
 3066SOL     OW12035   4.663   6.046   2.458  0.4556  0.1471  0.4344
 3066SOL    HW212036   4.733   6.081   2.403 -0.1058  0.3929 -0.1290
 3066SOL    HW312037   4.595   6.018   2.397  0.2741 -0.5809  0.9468
 3066SOL    MW412038   4.663   6.047   2.443  0.0641  0.1929  0.5565
 3067SOL     OW12039   6.399   4.185   4.124 -0.5105 -0.0734  0.3539
 3067SOL    HW212040   6.426   4.242   4.196 -0.9462 -1.1753  1.4077
 3067SOL    HW312041   6.334   4.236   4.076 -0.5821  0.4828  1.0316
 3067SOL    MW412042   6.394   4.199   4.127 -0.2681  0.0695 -0.0694
 3068SOL     OW12043   3.166   5.600   2.965  0.4861  0.0079  0.2729
 3068SOL    HW212044   3.171   5.553   3.048  0.4095 -0.5960 -0.0575
 3068SOL    HW312045   3.077   5.637   2.963 -0.6804 -2.6223 -0.9175
 3068SOL    MW412046   3.155   5.599   2.975 -0.3363  0.4118 -0.2122
 3069SOL     OW12047   0.235   1.515   5.000  0.0275 -0.0681 -0.2055
 3069SOL    HW212048   0.203   1.603   4.983 -0.2153 -0.5582 -2.5933
 3069SOL    HW312049   0.156   1.462   5.011  0.1112 -0.3924 -1.1247
 3069SOL    MW412050   0.221   1.520   4.999 -0.2411  0.1509  0.5231
 3070SOL     OW12051   5.012   0.563   0.833 -0.3221  0.2075 -0.0765
 3070SOL    HW212052   4.971   0.477   0.845 -1.2192  0.2211 -2.4299
 3070SOL    HW312053   5.061   0.578   0.913 -1.4332 -1.7927  1.0539
 3070SOL    MW412054   5.013   0.554   0.845 -1.0586 -0.1452  0.3728
 3071SOL     OW12055   0.721   2.930   4.722 -0.4453  0.6813 -0.2048
 3071SOL    HW212056   0.697   2.932   4.815  0.9362  0.8657  0.1727
 3071SOL    HW312057   0.794   2.868   4.717 -0.5859  0.5782 -1.1959
 3071SOL    MW412058   0.728   2.922   4.734  0.0278  0.6407 -0.2557
 3072SOL     OW12059   5.910   1.125   3.355 -0.1307  0.3143 -0.2660
 3072SOL    HW212060   5.881   1.082   3.275  0.2015 -0.3095 -0.0600
 3072SOL    HW312061   6.006   1.117   3.352 -0.0190  1.5796 -0.5199
 3072SOL    MW412062   5.919   1.118   3.344 -0.5970  0.8001  0.0120
 3073SOL     OW12063   4.259   4.868   4.064  0.0909 -0.0069  0.2710
 3073SOL    HW212064   4.337   4.819   4.088  0.1957  0.6216  1.2779
 3073SOL    HW312065   4.233   4.912   4.145 -0.7030  0.6111 -0.3087
 3073SOL    MW412066   4.266   4.868   4.078 -0.0798  0.3716  0.2563
 3074SOL     OW12067   4.627   6.014   2.743 -0.1704  0.6398  0.0166
 3074SOL    HW212068   4.533   6.004   2.757 -0.0093  0.6639  1.2091
 3074SOL    HW312069   4.636   6.033   2.649 -1.3940  1.2920  0.0238
 3074SOL    MW412070   4.616   6.015   2.732 -0.3504  0.2403 -0.6687
 3075SOL     OW12071   3.319   2.127   1.184 -0.5946 -0.0179  0.6631
 3075SOL    HW212072   3.395   2.076   1.155 -0.5462  0.3669  0.0889
 3075SOL    HW312073   3.328   2.133   1.279 -0.2095 -0.4536  0.6548
 3075SOL    MW412074   3.330   2.121   1.193 -0.3343 -0.2922 -0.5101
 3076SOL     OW12075   1.726   4.541   1.153  0.1194  0.1436  0.2572
 3076SOL    HW212076   1.756   4.462   1.198  0.2078 -0.5145 -0.9285
 3076SOL    HW312077   1.644   4.564   1.197  0.8309  0.2431  1.5661
 3076SOL    MW412078   1.719   4.534   1.165 -0.4089 -0.1886  0.3110
 3077SOL     OW12079   5.853   4.927   2.503 -0.2792 -0.4829  0.4677
 3077SOL    HW212080   5.929   4.870   2.498 -0.4103 -0.7536  1.4000
 3077SOL    HW312081   5.889   5.014   2.524 -0.2097 -0.5753  0.7336
 3077SOL    MW412082   5.868   4.931   2.505  0.1633 -0.0054  0.1684
 3078SOL     OW12083   4.871   1.431   0.910 -0.4622  0.1507  0.0818
 3078SOL    HW212084   4.926   1.431   0.989  0.6582 -0.2700 -0.6645
 3078SOL    HW312085   4.790   1.389   0.937  0.1415 -0.5580  0.8598
 3078SOL    MW412086   4.868   1.425   0.924  0.6735  0.1107  0.4241
 3079SOL     OW12087   2.990   3.101   0.158  0.1470 -0.3500 -0.9426
 3079SOL    HW212088   2.913   3.158   0.162 -0.2415 -0.8996  1.6718
 3079SOL    HW312089   3.063   3.158   0.181  0.0001 -0.5171 -0.0204
 3079SOL    MW412090   2.989   3.116   0.162 -0.4530  0.1349 -0.7116
 3080SOL     OW12091   5.887   1.945   3.751 -0.1803  0.5802  0.1966
 3080SOL    HW212092   5.844   2.018   3.706 -0.8989  0.3910  0.5612
 3080SOL    HW312093   5.934   1.898   3.682 -0.1826  1.0543 -0.1306
 3080SOL    MW412094   5.888   1.949   3.736 -0.4257  0.0157  0.2155
 3081SOL     OW12095   3.620   3.916   0.284  0.4553 -0.6441  0.2929
 3081SOL    HW212096   3.597   3.914   0.377  0.6926  1.2182  0.4149
 3081SOL    HW312097   3.697   3.973   0.279  0.0400 -0.1693 -1.1237
 3081SOL    MW412098   3.627   3.923   0.296 -0.0944 -0.5007  0.5939
 3082SOL     OW12099   1.853   2.892   5.105  0.2198  0.0081 -0.1478
 3082SOL    HW212100   1.838   2.958   5.173  2.3481 -1.6425  2.1098
 3082SOL    HW312101   1.873   2.942   5.026  1.4658  2.0915  1.4084
 3082SOL    MW412102   1.854   2.907   5.104 -0.0022  0.4914 -0.2588
 3083SOL     OW12103   3.319   1.016   3.370 -0.1651  0.3979  0.0473
 3083SOL    HW212104   3.230   1.048   3.364 -0.0015  0.9013  0.2672
 3083SOL    HW312105   3.310   0.921   3.375 -0.6142  0.3530 -1.3449
 3083SOL    MW412106   3.306   1.008   3.370 -0.8297 -0.0798  0.0853
 3084SOL     OW12107   5.151   5.520   1.157 -0.3083 -0.6133  0.0212
 3084SOL    HW212108   5.237   5.493   1.189  1.0130 -0.1196 -2.7939
 3084SOL    HW312109   5.120   5.445   1.105 -0.6930 -0.0687 -0.5561
 3084SOL    MW412110   5.158   5.506   1.154 -0.7734 -0.4112  0.2929
 3085SOL     OW12111   4.978   0.664   1.271  0.4144  0.2671 -0.3780
 3085SOL    HW212112   5.046   0.686   1.335 -0.3760  3.2948 -0.4365
 3085SOL    HW312113   5.027   0.644   1.191  1.3189 -1.2591  0.5139
 3085SOL    MW412114   4.994   0.664   1.269  0.0314 -0.5040  0.5205
 3086SOL     OW12115   2.380   1.447   2.621 -0.3626 -0.0502 -0.3058
 3086SOL    HW212116   2.329   1.524   2.645 -1.6057 -0.7578 -0.5614
 3086SOL    HW312117   2.469   1.468   2.646 -0.9886  0.7119  1.4413
 3086SOL    MW412118   2.385   1.460   2.627 -0.0505  0.0318  0.5026
 3087SOL     OW12119   5.992   5.304   1.980 -0.0129  0.1601  0.8446
 3087SOL    HW212120   6.070   5.359   1.978  1.7082 -2.0833  1.6990
 3087SOL    HW312121   5.984   5.274   2.070 -0.9092 -0.9402  0.4416
 3087SOL    MW412122   6.001   5.307   1.991  0.2654 -0.4350 -0.5340
 3088SOL     OW12123   1.893   3.848   2.746 -0.3655 -0.5869 -0.1296
 3088SOL    HW212124   1.822   3.894   2.790 -0.6692 -0.7657 -0.4264
 3088SOL    HW312125   1.955   3.917   2.723 -0.2148 -0.4888  0.5417
 3088SOL    MW412126   1.892   3.863   2.749 -0.0721  0.6672  0.5130
 3089SOL     OW12127   4.320   1.687   4.590 -0.8139  0.5511 -0.0591
 3089SOL    HW212128   4.254   1.617   4.596  0.8404 -1.2693 -1.5788
 3089SOL    HW312129   4.338   1.711   4.681 -0.6910 -1.8109  0.6100
 3089SOL    MW412130   4.314   1.681   4.603 -0.1377 -0.0673  0.1026
 3090SOL     OW12131   3.440   2.127   0.196  0.3721  0.0375  0.6671
 3090SOL    HW212132   3.475   2.044   0.229 -1.4774 -0.7493  0.7321
 3090SOL    HW312133   3.450   2.121   0.101  3.2569  1.2004  0.7640
 3090SOL    MW412134   3.446   2.115   0.188  0.3072  0.2285  0.7014
 3091SOL     OW12135   5.358   2.176   2.746 -0.2922 -0.0824  0.1746
 3091SOL    HW212136   5.329   2.198   2.657  0.1668 -0.2902 -0.0281
 3091SOL    HW312137   5.401   2.255   2.778 -1.0166  0.2086  0.4546
 3091SOL    MW412138   5.360   2.189   2.738 -0.8531  0.3947 -0.3170
 3092SOL     OW12139   4.531   5.356   4.683 -0.3530  0.2438  0.4289
 3092SOL    HW212140   4.595   5.421   4.709 -0.6371  1.2315 -1.1784
 3092SOL    HW312141   4.506   5.381   4.594  0.4249 -2.7398 -0.7531
 3092SOL    MW412142   4.536   5.368   4.674 -0.5339  0.2621  0.4364
 3093SOL     OW12143   5.252   2.711   1.592  0.2080  1.1280  0.7766
 3093SOL    HW212144   5.180   2.752   1.641 -1.3751 -0.9070  0.3160
 3093SOL    HW312145   5.264   2.626   1.635  1.8405  1.1242  0.3539
 3093SOL    MW412146   5.244   2.705   1.604 -0.3988  0.0360 -0.1583
 3094SOL     OW12147   0.927   2.887   0.204  0.2323 -0.5400  0.1902
 3094SOL    HW212148   0.860   2.884   0.272  1.0017  1.2046  1.0934
 3094SOL    HW312149   1.009   2.867   0.250  0.4953 -1.5077 -0.6661
 3094SOL    MW412150   0.929   2.884   0.219  0.2133 -0.6585 -0.1697
 3095SOL     OW12151   5.347   1.488   2.981 -0.5077  0.1163  0.0860
 3095SOL    HW212152   5.417   1.437   2.939 -0.6919 -0.3791  0.3792
 3095SOL    HW312153   5.372   1.491   3.073 -2.3367 -2.5852  0.7755
 3095SOL    MW412154   5.360   1.481   2.988  0.5337  0.1927 -0.5035
 3096SOL     OW12155   4.843   4.010   3.839  0.6363 -0.1048 -0.1141
 3096SOL    HW212156   4.822   4.084   3.783 -1.1459 -0.7466 -0.3588
 3096SOL    HW312157   4.764   3.956   3.839  1.5134 -1.4792  0.8971
 3096SOL    MW412158   4.830   4.012   3.832 -0.2361 -0.1371  0.3220
 3097SOL     OW12159   0.157   5.857   3.554 -0.3272  0.3694  0.5078
 3097SOL    HW212160   0.144   5.807   3.635  0.9712  2.2083  1.9454
 3097SOL    HW312161   0.071   5.892   3.533 -0.6104  0.1883  1.3311
 3097SOL    MW412162   0.144   5.855   3.562 -0.1557  0.3615 -0.6223
 3098SOL     OW12163   4.767   1.751   6.243 -0.1738 -0.4335  0.4140
 3098SOL    HW212164   4.728   1.787   6.323 -0.6458  0.4003 -0.1823
 3098SOL    HW312165   4.840   1.698   6.275  0.6289  1.1233  1.3531
 3098SOL    MW412166   4.772   1.749   6.258 -0.3599 -0.0905 -0.1940
 3099SOL     OW12167   3.874   5.515   0.214 -0.1986 -0.0663  0.1011
 3099SOL    HW212168   3.859   5.454   0.286 -0.3303 -0.4069 -0.2075
 3099SOL    HW312169   3.802   5.578   0.220  0.2538  0.4045  0.7642
 3099SOL    MW412170   3.862   5.515   0.224  0.3731  0.0717 -0.1301
 3100SOL     OW12171   0.778   4.974   3.561 -0.0013 -0.3766 -0.0167
 3100SOL    HW212172   0.709   5.018   3.512 -1.6441 -1.6756  1.0003
 3100SOL    HW312173   0.766   5.005   3.651  1.3303  0.0344  0.0360
 3100SOL    MW412174   0.767   4.984   3.566  0.3476  0.3741  0.5722
 3101SOL     OW12175   1.747   2.784   0.618  0.1419 -0.0296  0.5178
 3101SOL    HW212176   1.782   2.736   0.693 -0.9040 -2.0432 -0.2042
 3101SOL    HW312177   1.730   2.716   0.552 -1.8030  1.2820 -0.4296
 3101SOL    MW412178   1.749   2.769   0.619 -0.2035  0.1538 -0.1717
 3102SOL     OW12179   2.053   3.025   2.017  0.6263  0.0654  0.0643
 3102SOL    HW212180   2.035   3.118   2.030 -0.8830 -0.4709  2.3920
 3102SOL    HW312181   2.149   3.019   2.014  0.7698  1.6063  0.7522
 3102SOL    MW412182   2.063   3.036   2.018  0.0520  0.0823 -0.2220
 3103SOL     OW12183   3.196   5.629   4.931  0.1409 -0.4273 -0.4136
 3103SOL    HW212184   3.143   5.561   4.971  0.4924 -1.0012 -0.9083
 3103SOL    HW312185   3.268   5.582   4.889  1.8343  0.4149  1.4172
 3103SOL    MW412186   3.199   5.614   4.931 -0.5227  0.3621 -0.0333
 3104SOL     OW12187   5.195   5.703   1.370  0.4761  0.1855 -0.2887
 3104SOL    HW212188   5.262   5.648   1.412 -0.4920 -0.6081  0.2670
 3104SOL    HW312189   5.152   5.644   1.308  0.0713  0.6007 -0.4072
 3104SOL    MW412190   5.198   5.688   1.367  0.0720  0.0667 -0.1862
 3105SOL     OW12191   5.321   2.456   1.704  0.0280 -0.5528  0.0696
 3105SOL    HW212192   5.339   2.421   1.791 -1.1929 -0.3080  0.4441
 3105SOL    HW312193   5.358   2.392   1.644 -1.6050 -2.2430  0.7398
 3105SOL    MW412194   5.328   2.443   1.708  0.1624  0.1969  0.2279
 3106SOL     OW12195   0.119   3.703   3.774 -0.2386 -0.0846 -0.5612
 3106SOL    HW212196   0.140   3.640   3.704 -0.9990 -0.3202 -0.5820
 3106SOL    HW312197   0.100   3.649   3.850 -1.9684  0.0524 -0.8584
 3106SOL    MW412198   0.120   3.688   3.775  0.3386 -0.2559 -0.0582
 3107SOL     OW12199   3.444   2.161   4.191  0.1092 -0.0664 -0.1753
 3107SOL    HW212200   3.487   2.245   4.204  1.2356 -0.7634  0.8229
 3107SOL    HW312201   3.490   2.121   4.118  0.5646 -0.4146  0.2902
 3107SOL    MW412202   3.456   2.167   4.183 -0.4968  0.5180 -0.6337
 3108SOL     OW12203   1.624   3.396   0.873  0.0057  0.0963  0.9370
 3108SOL    HW212204   1.597   3.311   0.908  0.5756 -0.4593  0.0770
 3108SOL    HW312205   1.676   3.374   0.796 -0.2161  1.2486  0.4480
 3108SOL    MW412206   1.628   3.382   0.868  0.2092 -0.1460 -0.4008
 3109SOL     OW12207   2.450   0.268   3.716 -0.1915 -0.3079 -0.2441
 3109SOL    HW212208   2.476   0.268   3.624 -1.6900  0.1412 -0.6991
 3109SOL    HW312209   2.397   0.348   3.726 -0.9108 -0.8810  0.7394
 3109SOL    MW412210   2.446   0.279   3.705  0.2858  0.3691 -0.3852
 3110SOL     OW12211   6.076   5.412   0.998  0.0060 -0.0355 -0.0878
 3110SOL    HW212212   5.999   5.376   0.954 -0.9910  0.3744  1.2541
 3110SOL    HW312213   6.143   5.344   0.988 -0.7624 -0.7397 -0.6137
 3110SOL    MW412214   6.075   5.398   0.991  0.5420 -0.1688  0.2058
 3111SOL     OW12215   4.789   6.206   4.813 -0.3531 -0.0452  0.3910
 3111SOL    HW212216   4.833   6.128   4.848  1.1824  1.8064  2.9302
 3111SOL    HW312217   4.858   6.254   4.768 -0.8076  0.7711  0.5532
 3111SOL    MW412218   4.804   6.202   4.812 -0.1036  0.0169 -0.0268
 3112SOL     OW12219   5.673   1.296   0.546 -0.5197  0.8704  0.5635
 3112SOL    HW212220   5.689   1.352   0.470 -2.1523  1.0964  0.3471
 3112SOL    HW312221   5.602   1.339   0.594 -0.6249 -0.1148  1.3316
 3112SOL    MW412222   5.666   1.309   0.542  0.4758 -0.0524  0.0659
 3113SOL     OW12223   6.352   2.785   4.583 -0.0059  0.5888 -0.2622
 3113SOL    HW212224   6.324   2.695   4.571  0.0219  0.2799  1.6556
 3113SOL    HW312225   6.284   2.837   4.542 -1.7546 -0.2522  1.4021
 3113SOL    MW412226   6.339   2.780   4.576 -0.4954 -0.5731 -0.0225
 3114SOL     OW12227   5.641   4.487   4.217  0.3775  0.5993 -0.0425
 3114SOL    HW212228   5.579   4.419   4.191 -0.2808  0.6133  1.4147
 3114SOL    HW312229   5.714   4.438   4.256  0.5349  0.6662 -0.2516
 3114SOL    MW412230   5.643   4.471   4.218  0.1728  0.2512  0.9708
 3115SOL     OW12231   1.506   5.492   3.420 -0.5625  0.1086 -0.0006
 3115SOL    HW212232   1.573   5.534   3.473 -1.4198 -0.8724  1.9422
 3115SOL    HW312233   1.427   5.543   3.438 -0.6044  0.6009 -1.4451
 3115SOL    MW412234   1.504   5.504   3.429 -0.5579 -0.3932  0.0509
 3116SOL     OW12235   1.356   6.273   1.119  0.3777  0.3245  0.4423
 3116SOL    HW212236   1.312   6.213   1.059 -1.3533  1.7014  0.2618
 3116SOL    HW312237   1.286   6.305   1.176  1.3829  1.6186  1.0004
 3116SOL    MW412238   1.341   6.269   1.119 -0.1514 -0.4510 -0.3475
 3117SOL     OW12239   1.084   2.834   5.862 -0.0911  0.5294 -0.3495
 3117SOL    HW212240   1.050   2.900   5.801 -0.7529 -0.3666 -0.9725
 3117SOL    HW312241   1.059   2.866   5.948  1.3361  2.0993 -0.4577
 3117SOL    MW412242   1.077   2.847   5.865 -0.3508 -0.0928  0.7646
 3118SOL     OW12243   6.039   6.344   5.537 -0.2152  0.8638  0.1127
 3118SOL    HW212244   5.963   6.292   5.561 -0.6877  1.3015 -0.3891
 3118SOL    HW312245   6.098   6.338   5.612 -0.7107  0.4501  0.4720
 3118SOL    MW412246   6.037   6.337   5.550 -0.5188  0.4073  0.1656
 3119SOL     OW12247   1.317   5.168   3.281 -0.2120  0.2542  0.0392
 3119SOL    HW212248   1.284   5.206   3.200 -0.5090 -1.7557 -0.8494
 3119SOL    HW312249   1.334   5.076   3.259  1.4130  0.0727  1.7801
 3119SOL    MW412250   1.315   5.161   3.267 -0.1351 -0.1676 -0.5198
 3120SOL     OW12251   2.966   1.789   6.256 -0.0891  0.2134  0.0006
 3120SOL    HW212252   3.015   1.792   6.174 -3.5475  0.6546 -2.2651
 3120SOL    HW312253   2.935   1.699   6.262 -0.0827  0.2545  0.7372
 3120SOL    MW412254   2.969   1.777   6.246  0.3054  0.7723 -0.0224
 3121SOL     OW12255   4.302   1.222   1.358  0.1220  0.1849 -0.1357
 3121SOL    HW212256   4.208   1.215   1.373 -0.3071  2.0552 -1.5301
 3121SOL    HW312257   4.322   1.154   1.295 -0.6197  0.6976 -0.9477
 3121SOL    MW412258   4.292   1.212   1.352  0.4773 -1.1144 -0.0741
 3122SOL     OW12259   1.368   1.502   3.057 -0.0010  0.2919 -0.3279
 3122SOL    HW212260   1.463   1.496   3.046  0.0717  1.2775 -0.3223
 3122SOL    HW312261   1.333   1.493   2.969  0.2364  2.1109 -0.6449
 3122SOL    MW412262   1.376   1.500   3.044  0.1052 -0.2868 -0.1506
 3123SOL     OW12263   0.599   0.286   6.074  0.3402  0.4319 -0.4059
 3123SOL    HW212264   0.650   0.361   6.106  1.1754 -0.4106  0.2966
 3123SOL    HW312265   0.525   0.279   6.135 -0.0780  1.0405 -0.8316
 3123SOL    MW412266   0.596   0.295   6.087 -0.0434 -0.5991 -0.3378
 3124SOL     OW12267   3.575   2.164   2.152 -0.3957  0.1610 -0.0848
 3124SOL    HW212268   3.617   2.093   2.201 -0.1893 -1.4544 -2.4683
 3124SOL    HW312269   3.524   2.120   2.085  0.5439  2.2561 -2.3059
 3124SOL    MW412270   3.574   2.149   2.150  0.0638 -0.3560 -0.5802
 3125SOL     OW12271   5.471   5.893   4.526  0.0231 -0.6385 -0.6248
 3125SOL    HW212272   5.413   5.864   4.597 -1.3288  0.2018 -1.3510
 3125SOL    HW312273   5.458   5.988   4.522  5.2259  0.6366  2.5227
 3125SOL    MW412274   5.462   5.902   4.535 -0.1745 -0.3818  0.0560
 3126SOL     OW12275   3.670   3.454   6.200 -0.1310  0.3448 -0.0353
 3126SOL    HW212276   3.680   3.523   6.266  0.0589  1.2289 -0.9614
 3126SOL    HW312277   3.759   3.424   6.183 -0.0792  0.7342 -0.5027
 3126SOL    MW412278   3.683   3.459   6.206  0.2148 -0.0423  0.2786
 3127SOL     OW12279   0.116   3.075   5.794  0.5988  0.3968 -0.5102
 3127SOL    HW212280   0.031   3.081   5.750  0.2746 -1.7905 -0.2965
 3127SOL    HW312281   0.097   3.028   5.875  1.3580  3.4989  1.6375
 3127SOL    MW412282   0.102   3.070   5.799  0.0038  0.5153  0.0621
 3128SOL     OW12283   1.129   1.654   4.349 -0.2267 -0.3094 -0.2758
 3128SOL    HW212284   1.115   1.565   4.317  1.4264 -0.7768  0.1980
 3128SOL    HW312285   1.052   1.672   4.403 -0.5041 -1.5251 -0.2375
 3128SOL    MW412286   1.117   1.644   4.352  0.5583 -0.0649  0.5613
 3129SOL     OW12287   2.697   3.474   1.658  0.4227 -0.5699  0.0521
 3129SOL    HW212288   2.734   3.501   1.742 -0.2218  0.4637  0.0149
 3129SOL    HW312289   2.745   3.524   1.592  0.0284 -0.3935 -0.1030
 3129SOL    MW412290   2.708   3.484   1.660  0.2873 -0.7463  0.3099
 3130SOL     OW12291   3.085   5.345   0.482  0.0874 -0.0523 -0.3680
 3130SOL    HW212292   3.119   5.270   0.531  1.6174  0.4884 -0.5695
 3130SOL    HW312293   3.076   5.414   0.547 -0.2984 -0.0796 -0.3880
 3130SOL    MW412294   3.088   5.344   0.497  0.4163 -0.1413 -0.2565
 3131SOL     OW12295   4.160   0.800   2.939 -0.5716  0.1383 -0.4150
 3131SOL    HW212296   4.171   0.709   2.967  0.4351  0.5615  0.6399
 3131SOL    HW312297   4.070   0.805   2.908 -1.7727 -0.4279  2.7017
 3131SOL    MW412298   4.150   0.789   2.938 -0.1320  0.4901 -0.2958
 3132SOL     OW12299   4.997   3.550   0.421 -1.0256 -0.2440  0.5241
 3132SOL    HW212300   5.089   3.575   0.429 -0.7584 -0.5016 -1.3461
 3132SOL    HW312301   4.968   3.535   0.511  0.3510  1.2353  1.2555
 3132SOL    MW412302   5.005   3.551   0.434 -0.2963  0.3141 -0.6024
 3133SOL     OW12303   1.323   4.983   2.016 -0.8484  0.7612 -0.1807
 3133SOL    HW212304   1.292   5.071   1.996 -1.3775  0.5206 -0.4637
 3133SOL    HW312305   1.253   4.926   1.984 -0.8159  0.2697  0.6029
 3133SOL    MW412306   1.310   4.987   2.009  0.1395 -0.6817  0.5871
 3134SOL     OW12307   5.335   0.778   3.965 -0.0672 -0.2004 -0.2202
 3134SOL    HW212308   5.353   0.684   3.966  1.0335 -0.0060 -0.5563
 3134SOL    HW312309   5.416   0.818   3.933 -1.2305  0.7226 -2.1644
 3134SOL    MW412310   5.348   0.771   3.961  0.1384  0.1070 -0.1201
 3135SOL     OW12311   4.259   1.996   3.159  0.2157 -0.3583 -0.2007
 3135SOL    HW212312   4.179   1.943   3.154  0.9715 -1.5977  0.4205
 3135SOL    HW312313   4.296   1.992   3.070  0.2071 -0.7763 -0.1856
 3135SOL    MW412314   4.253   1.988   3.146  0.8139 -0.5185 -0.4517
 3136SOL     OW12315   1.921   3.143   0.887 -0.4284  0.8780  0.2955
 3136SOL    HW212316   1.839   3.096   0.904 -0.5071  1.0734  0.4552
 3136SOL    HW312317   1.902   3.194   0.808 -0.7020  1.4884  0.7455
 3136SOL    MW412318   1.907   3.144   0.879  0.2401  0.2934 -0.2117
 3137SOL     OW12319   0.166   1.349   3.012  0.6502 -0.0640  0.0725
 3137SOL    HW212320   0.113   1.341   3.091  1.5807  2.9248  1.1517
 3137SOL    HW312321   0.147   1.437   2.979  1.8500 -0.4668 -1.8717
 3137SOL    MW412322   0.157   1.360   3.018  0.5604 -0.0147  0.9649
 3138SOL     OW12323   4.404   4.788   4.475  0.1356 -0.6173  0.0684
 3138SOL    HW212324   4.430   4.696   4.476 -0.4974 -0.8181  1.5740
 3138SOL    HW312325   4.452   4.826   4.549 -0.2024  0.0826 -0.0658
 3138SOL    MW412326   4.414   4.781   4.485 -0.4660  0.0656  0.3933
 3139SOL     OW12327   3.764   5.364   0.446  0.3399  0.2317 -0.3831
 3139SOL    HW212328   3.673   5.382   0.473  0.2383 -0.3103 -0.3594
 3139SOL    HW312329   3.816   5.427   0.496 -0.1867  2.0575 -2.0199
 3139SOL    MW412330   3.759   5.375   0.456 -0.3033  0.4363  0.0328
 3140SOL     OW12331   3.652   1.316   3.428 -0.2958 -0.1447 -0.7503
 3140SOL    HW212332   3.645   1.299   3.334 -0.5604 -0.2835 -0.7076
 3140SOL    HW312333   3.569   1.285   3.464 -0.0101 -0.5275 -0.4099
 3140SOL    MW412334   3.640   1.309   3.421  0.5165 -0.2911  0.1238
 3141SOL     OW12335   2.571   2.221   4.792  0.6881  0.1485  0.4510
 3141SOL    HW212336   2.564   2.151   4.728  0.7462  1.9931 -1.6771
 3141SOL    HW312337   2.483   2.257   4.799  0.7623  0.2084  1.1401
 3141SOL    MW412338   2.559   2.216   4.785  0.4733 -0.3399  0.3726
 3142SOL     OW12339   6.306   3.118   0.277 -0.4485  0.2206 -0.2667
 3142SOL    HW212340   6.322   3.210   0.300 -1.6420  0.3641  0.0701
 3142SOL    HW312341   6.217   3.101   0.309  0.0353 -1.2752  0.3685
 3142SOL    MW412342   6.297   3.128   0.284  0.0639  0.2623  0.2310
 3143SOL     OW12343   5.190   3.444   1.820  0.2678 -0.1980 -0.1758
 3143SOL    HW212344   5.157   3.355   1.811 -0.4467 -0.4292  3.2922
 3143SOL    HW312345   5.227   3.447   1.908  0.4717  2.8735 -0.2597
 3143SOL    MW412346   5.191   3.433   1.831  0.5243  0.2408 -0.1357
 3144SOL     OW12347   3.464   0.013   3.426  0.6354 -0.1205 -0.2248
 3144SOL    HW212348   3.426   0.009   3.514 -0.8572 -1.1798 -0.8814
 3144SOL    HW312349   3.425   0.090   3.386  2.5033  1.2758  0.5225
 3144SOL    MW412350   3.454   0.022   3.432 -0.7160 -0.2764  0.3651
 3145SOL     OW12351   3.852   2.662   3.260 -0.0951  0.5496 -0.6546
 3145SOL    HW212352   3.799   2.646   3.182 -0.0800 -0.5946 -0.4551
 3145SOL    HW312353   3.917   2.591   3.259 -0.3498  0.2864  0.6065
 3145SOL    MW412354   3.854   2.650   3.249 -0.3653  0.3595  0.2184
 3146SOL     OW12355   3.998   1.374   6.305 -0.2296 -0.2802  0.1728
 3146SOL    HW212356   3.977   1.282   6.293  0.5104 -0.4480  0.1836
 3146SOL    HW312357   3.914   1.419   6.293 -0.6165 -0.9608  0.3108
 3146SOL    MW412358   3.984   1.368   6.301  0.0236  0.5185 -0.3884
 3147SOL     OW12359   5.866   2.758   6.409  0.1550  0.3343  0.0053
 3147SOL    HW212360   5.929   2.816   6.452 -0.0519  0.1817  0.5172
 3147SOL    HW312361   5.886   2.766   6.316  0.1008  1.2607  0.0665
 3147SOL    MW412362   5.877   2.767   6.402  0.5486  0.2914  0.4544
 3148SOL     OW12363   3.648   3.521   1.648 -0.2724  0.1772 -0.0868
 3148SOL    HW212364   3.558   3.553   1.650 -0.4664 -0.2973  2.3834
 3148SOL    HW312365   3.682   3.541   1.735  1.7685 -0.3736 -0.7110
 3148SOL    MW412366   3.641   3.528   1.660  0.0956  0.2181  0.5734
 3149SOL     OW12367   1.906   3.113   0.016  0.7190 -0.3176 -0.7677
 3149SOL    HW212368   1.980   3.062   0.051  1.4434  0.3626 -1.3018
 3149SOL    HW312369   1.889   3.074  -0.070 -0.8152 -1.7358  0.1205
 3149SOL    MW412370   1.914   3.101   0.010  0.1778  0.2226  0.6324
 3150SOL     OW12371   1.286   1.845   3.079 -0.7891 -0.0575  0.0982
 3150SOL    HW212372   1.337   1.925   3.092 -0.0072 -0.0124 -2.6166
 3150SOL    HW312373   1.322   1.783   3.143  0.6960  0.8565  0.1882
 3150SOL    MW412374   1.298   1.847   3.089  0.2459 -0.5679  0.1427
 3151SOL     OW12375   2.489   3.478   2.787 -0.3953  0.8808  0.1305
 3151SOL    HW212376   2.428   3.476   2.861 -0.2976  0.3086  0.2041
 3151SOL    HW312377   2.556   3.542   2.811 -0.3637  0.6933  0.5409
 3151SOL    MW412378   2.490   3.486   2.800 -0.6790  0.1045 -0.9878
 3152SOL     OW12379   3.223   4.223   2.546 -0.2457  0.4690  0.2329
 3152SOL    HW212380   3.192   4.314   2.546 -2.9132 -0.3209 -1.0394
 3152SOL    HW312381   3.274   4.215   2.466 -0.2562  0.7583  0.1955
 3152SOL    MW412382   3.225   4.234   2.536  0.1137  0.0512  0.1837
 3153SOL     OW12383   1.008   0.150   3.313  0.6048  0.7231  0.4844
 3153SOL    HW212384   1.009   0.224   3.252 -0.2666 -0.1838 -0.6760
 3153SOL    HW312385   1.098   0.116   3.311  0.7440  1.1045  0.2236
 3153SOL    MW412386   1.020   0.155   3.305 -0.1727 -0.6055 -0.9192
 3154SOL     OW12387   1.394   4.951   5.712 -0.0170  0.3498 -0.0122
 3154SOL    HW212388   1.392   5.008   5.790 -0.5136  0.3354 -0.0159
 3154SOL    HW312389   1.302   4.935   5.691  0.1188  0.0664 -0.3968
 3154SOL    MW412390   1.382   4.957   5.720 -0.2060 -0.6278  0.0186
 3155SOL     OW12391   1.453   2.398   3.081  0.0262  0.3336  0.2025
 3155SOL    HW212392   1.363   2.430   3.090  0.2062  0.4318  2.1645
 3155SOL    HW312393   1.461   2.373   2.989 -2.1798 -0.1837  0.0939
 3155SOL    MW412394   1.442   2.399   3.070  0.1707  0.0246  0.5438
 3156SOL     OW12395   3.450   5.916   0.842  0.0633  0.3842 -0.5407
 3156SOL    HW212396   3.481   6.006   0.847  0.9445  0.0190  1.0551
 3156SOL    HW312397   3.428   5.892   0.932  0.4872 -1.2038 -0.8231
 3156SOL    MW412398   3.452   5.925   0.854 -0.2933  0.4476 -0.4879
 3157SOL     OW12399   2.729   1.503   0.088  0.2764  0.1355 -0.6801
 3157SOL    HW212400   2.708   1.587   0.129 -0.7166 -0.4543  0.0390
 3157SOL    HW312401   2.751   1.527  -0.003  2.1315  1.3963  0.0504
 3157SOL    MW412402   2.729   1.517   0.081 -0.5662  0.0303 -0.5169
 3158SOL     OW12403   5.113   5.681   0.121  0.4164 -0.0311 -0.4576
 3158SOL    HW212404   5.143   5.692   0.030  0.4614 -1.1389 -0.5976
 3158SOL    HW312405   5.072   5.764   0.143 -4.1599 -1.1441 -3.2406
 3158SOL    MW412406   5.112   5.693   0.112 -0.6613  0.2380  0.2921
 3159SOL     OW12407   2.796   4.038   2.051  0.0635 -0.4438 -0.6322
 3159SOL    HW212408   2.732   4.104   2.022  0.6531 -0.0259 -1.0118
 3159SOL    HW312409   2.864   4.089   2.096  0.3002 -0.8452 -0.5367
 3159SOL    MW412410   2.796   4.054   2.053 -0.0589  0.8844 -0.3564
 3160SOL     OW12411   0.989   6.114   1.173  0.6085 -0.3998 -0.2199
 3160SOL    HW212412   0.905   6.111   1.220  0.3593  0.7856 -0.5476
 3160SOL    HW312413   0.966   6.088   1.083  0.2849  1.2690 -0.6647
 3160SOL    MW412414   0.975   6.110   1.167 -0.1593 -0.2235 -0.0065
 3161SOL     OW12415   0.407   4.977   2.380  0.3530 -0.0613 -0.1345
 3161SOL    HW212416   0.449   5.037   2.441 -0.6424 -0.5168  1.0483
 3161SOL    HW312417   0.317   4.970   2.411 -0.5540  0.6359 -2.4087
 3161SOL    MW412418   0.401   4.984   2.392  0.0017  0.4170  0.0346
 3162SOL     OW12419   2.434   1.683   4.457 -0.1957  0.0809  0.5276
 3162SOL    HW212420   2.339   1.687   4.449 -0.1298 -0.9937 -1.6658
 3162SOL    HW312421   2.465   1.758   4.405  0.1610  0.4013  1.1981
 3162SOL    MW412422   2.426   1.693   4.449  0.4520  0.4471  0.4644
 3163SOL     OW12423   0.117   3.203   3.881  0.2611 -0.5688  0.6617
 3163SOL    HW212424   0.151   3.217   3.969 -1.5109 -0.3125  1.3521
 3163SOL    HW312425   0.189   3.164   3.833  0.8696 -1.9377  2.5941
 3163SOL    MW412426   0.131   3.200   3.886  0.0606  0.2535  0.1389
 3164SOL     OW12427   1.589   4.520   2.398  0.3411  0.3304  0.0886
 3164SOL    HW212428   1.503   4.477   2.401 -0.8711  2.6263  0.6246
 3164SOL    HW312429   1.604   4.549   2.488  1.1800  0.9116 -0.2350
 3164SOL    MW412430   1.579   4.518   2.410  0.2942  0.0272 -0.0971
 3165SOL     OW12431   3.894   3.423   2.312  0.4814  0.3292 -0.0635
 3165SOL    HW212432   3.801   3.439   2.326  1.0293  2.0382  2.1322
 3165SOL    HW312433   3.900   3.328   2.298 -1.3303 -0.2998  2.6105
 3165SOL    MW412434   3.883   3.413   2.312  0.0340  0.1156  0.7061
 3166SOL     OW12435   4.891   5.057   1.524 -0.1094 -1.2165  0.1415
 3166SOL    HW212436   4.962   5.107   1.483 -1.6653  1.0752  0.0645
 3166SOL    HW312437   4.919   5.047   1.615 -0.2281  0.8953  0.4648
 3166SOL    MW412438   4.904   5.062   1.531  0.3460 -0.3083 -0.8156
 3167SOL     OW12439   4.799   6.224   1.898 -0.1003  0.2723 -0.1005
 3167SOL    HW212440   4.841   6.187   1.820 -0.0567 -1.4688  0.7030
 3167SOL    HW312441   4.762   6.149   1.944 -0.5746  1.3126  1.3078
 3167SOL    MW412442   4.800   6.209   1.894 -0.4843 -0.0812  0.0691
 3168SOL     OW12443   3.390   0.429   0.558  0.0029 -0.2439 -0.3643
 3168SOL    HW212444   3.390   0.525   0.556  0.8376 -0.2157  0.5210
 3168SOL    HW312445   3.321   0.406   0.620 -0.5029 -0.2344 -0.9159
 3168SOL    MW412446   3.381   0.439   0.566 -0.5362 -0.2654  0.2933
 3169SOL     OW12447   5.590   5.095   6.069  0.3270 -0.0120  0.2239
 3169SOL    HW212448   5.557   5.121   5.983 -0.9769 -0.9350  0.4130
 3169SOL    HW312449   5.662   5.035   6.050  1.2759  1.2236 -0.1995
 3169SOL    MW412450   5.596   5.090   6.055  0.0630 -0.1502  0.3390
 3170SOL     OW12451   4.086   1.581   4.690 -0.0356 -0.2907 -0.2646
 3170SOL    HW212452   4.031   1.655   4.665  1.0763  0.7523  0.3125
 3170SOL    HW312453   4.075   1.518   4.618 -1.2492  0.2678 -0.5982
 3170SOL    MW412454   4.077   1.582   4.677 -0.1580  0.5623  0.0607
 3171SOL     OW12455   2.044   5.188   2.418  0.4080 -0.1467  0.2254
 3171SOL    HW212456   2.088   5.144   2.491  0.8316  1.3569  0.9074
 3171SOL    HW312457   2.083   5.275   2.415  0.4716 -0.1951 -1.8746
 3171SOL    MW412458   2.055   5.193   2.427 -0.1165 -0.1508 -0.1023
 3172SOL     OW12459   4.370   0.274   2.117 -0.0951  0.0676 -0.0063
 3172SOL    HW212460   4.313   0.207   2.080  0.0533  1.2349 -2.6247
 3172SOL    HW312461   4.456   0.232   2.123 -0.0464 -0.0866 -1.4256
 3172SOL    MW412462   4.374   0.260   2.113  0.2822  0.2478  0.8169
 3173SOL     OW12463   4.842   5.590   3.808 -0.5886 -0.0808  0.6585
 3173SOL    HW212464   4.922   5.564   3.854 -0.6543 -0.5634  0.5109
 3173SOL    HW312465   4.858   5.680   3.780  0.6680 -0.7725 -0.9875
 3173SOL    MW412466   4.855   5.598   3.810  0.0681  0.1569 -0.1338
 3174SOL     OW12467   1.645   4.219   5.556  0.0458 -0.3361  0.0456
 3174SOL    HW212468   1.602   4.139   5.588  2.3352 -1.4981  0.3736
 3174SOL    HW312469   1.714   4.237   5.619  1.4493  0.2156 -1.5710
 3174SOL    MW412470   1.648   4.211   5.568 -0.0820  0.3280  0.1241
 3175SOL     OW12471   0.866   6.189   3.563 -0.3026 -0.0908 -0.6650
 3175SOL    HW212472   0.941   6.240   3.594  0.9748 -0.8700 -2.3055
 3175SOL    HW312473   0.839   6.234   3.482 -0.7614 -0.5862 -0.7917
 3175SOL    MW412474   0.872   6.202   3.556 -0.3694  0.8452 -0.3382
 3176SOL     OW12475   2.467   1.333   6.166  0.2844  0.2914 -0.3483
 3176SOL    HW212476   2.453   1.406   6.227 -1.4815  1.5344 -2.1543
 3176SOL    HW312477   2.525   1.369   6.099  2.0400 -1.0120  0.3767
 3176SOL    MW412478   2.473   1.347   6.165  0.2398  0.2197  0.4818
 3177SOL     OW12479   4.463   0.962   1.939  0.3654 -0.0040  0.1937
 3177SOL    HW212480   4.434   0.929   2.024  0.0824 -2.6142 -0.8101
 3177SOL    HW312481   4.408   0.916   1.876 -1.7228  4.2784 -1.4301
 3177SOL    MW412482   4.452   0.951   1.942  0.5168  0.3240  0.0863
 3178SOL     OW12483   3.528   2.468   2.051  0.0506  0.7107 -0.1850
 3178SOL    HW212484   3.533   2.373   2.047  0.4524  0.7116  0.1647
 3178SOL    HW312485   3.458   2.492   1.990 -0.2293  0.1766 -0.0739
 3178SOL    MW412486   3.520   2.459   2.042  0.0029 -0.4512 -0.3706
 3179SOL     OW12487   0.772   4.175   3.434  0.3791  0.1822  0.0158
 3179SOL    HW212488   0.763   4.085   3.401 -0.7054  0.2931 -0.0203
 3179SOL    HW312489   0.821   4.221   3.365 -0.3339 -0.0307 -0.6501
 3179SOL    MW412490   0.777   4.169   3.420  0.2685  0.1298  0.3967
 3180SOL     OW12491   0.438   1.183   3.477  0.5043  0.0191 -0.0692
 3180SOL    HW212492   0.387   1.117   3.431  1.2286 -0.1473 -0.6431
 3180SOL    HW312493   0.418   1.265   3.432  1.3526 -0.1707 -0.8275
 3180SOL    MW412494   0.429   1.185   3.465  0.2155  0.1095 -0.2502
 3181SOL     OW12495   6.330   0.919   6.364  0.0436 -0.5703  0.0900
 3181SOL    HW212496   6.277   0.924   6.285 -1.1578  0.2551  0.9004
 3181SOL    HW312497   6.272   0.951   6.433  0.8158 -1.9601  1.4350
 3181SOL    MW412498   6.315   0.924   6.363  0.3682  0.5593  0.0731
 3182SOL     OW12499   5.858   1.285   4.335  0.9409  0.3293  0.1966
 3182SOL    HW212500   5.926   1.348   4.359  0.5382  1.7160 -1.9962
 3182SOL    HW312501   5.778   1.338   4.330  0.5287 -0.3881 -1.3438
 3182SOL    MW412502   5.856   1.301   4.337 -0.3440  0.3306 -0.2779
 3183SOL     OW12503   2.850   2.418   3.404 -0.2736 -0.2832 -0.5319
 3183SOL    HW212504   2.880   2.339   3.360 -1.3239 -0.8997 -0.1706
 3183SOL    HW312505   2.851   2.486   3.336  2.2424 -0.1563 -0.4671
 3183SOL    MW412506   2.854   2.417   3.389 -0.5616 -0.7375  0.2762
 3184SOL     OW12507   6.077   6.284   4.673  0.1813 -0.4286  0.2053
 3184SOL    HW212508   6.087   6.322   4.760  0.3536 -0.6694  0.2927
 3184SOL    HW312509   6.033   6.200   4.688  1.3307 -1.0491  0.1993
 3184SOL    MW412510   6.073   6.278   4.686 -0.4891 -0.2323 -0.1411
 3185SOL     OW12511   0.136   2.417   2.969 -0.1583  0.4447  0.1916
 3185SOL    HW212512   0.109   2.325   2.969  0.4298  0.2347 -1.5813
 3185SOL    HW312513   0.176   2.431   3.055  2.4724 -1.8154 -0.5389
 3185SOL    MW412514   0.138   2.407   2.981  0.3096 -0.6350 -0.2930
 3186SOL     OW12515   3.981   0.156   3.551  0.0533 -1.0548  0.0588
 3186SOL    HW212516   4.029   0.212   3.491  0.9256 -1.1146  0.6856
 3186SOL    HW312517   3.984   0.069   3.511  1.2922 -1.2541  0.5367
 3186SOL    MW412518   3.987   0.152   3.538 -0.8284  0.1660  0.0339
 3187SOL     OW12519   4.261   1.254   1.037  0.0711 -0.2313 -0.5040
 3187SOL    HW212520   4.288   1.248   0.946  2.5209 -1.9825  0.2441
 3187SOL    HW312521   4.328   1.308   1.079 -0.7289  0.1198  0.3610
 3187SOL    MW412522   4.273   1.260   1.030  0.0762 -0.0313 -0.3121
 3188SOL     OW12523   3.247   5.923   2.346 -0.2622  0.3096  0.1476
 3188SOL    HW212524   3.181   5.964   2.401 -0.2950  1.1299 -0.4799
 3188SOL    HW312525   3.317   5.988   2.340  0.6391 -0.5796  0.8635
 3188SOL    MW412526   3.248   5.937   2.352  0.1595 -0.2719 -0.1651
 3189SOL     OW12527   1.796   0.619   2.128  0.3399  0.4236 -0.2944
 3189SOL    HW212528   1.746   0.543   2.159  1.7324  0.4632  2.4106
 3189SOL    HW312529   1.750   0.694   2.166 -0.4209  0.9013 -2.0798
 3189SOL    MW412530   1.783   0.619   2.137  0.2205 -0.2551  0.0198
 3190SOL     OW12531   1.975   2.420   5.567 -0.2894 -0.1555 -0.0874
 3190SOL    HW212532   2.065   2.450   5.555 -0.6288  1.2804  0.6672
 3190SOL    HW312533   1.984   2.334   5.609  0.7166 -0.5860 -1.1176
 3190SOL    MW412534   1.988   2.413   5.571 -0.1781  0.0714 -1.0505
 3191SOL     OW12535   3.750   6.308   1.744  0.2045 -0.4464  0.3962
 3191SOL    HW212536   3.796   6.276   1.666  0.0596 -0.7779  0.4489
 3191SOL    HW312537   3.814   6.364   1.788  0.1561  0.0810 -0.1788
 3191SOL    MW412538   3.765   6.311   1.739  0.1008 -0.1511 -0.3063
 3192SOL     OW12539   6.285   3.555   0.195  0.1844 -0.1480 -0.0868
 3192SOL    HW212540   6.337   3.540   0.116 -2.0518 -1.3217 -1.4742
 3192SOL    HW312541   6.312   3.486   0.255 -0.7175 -1.6783 -1.3511
 3192SOL    MW412542   6.295   3.544   0.192 -0.3640 -0.2128 -0.1789
 3193SOL     OW12543   3.232   0.570   3.033 -0.3041 -0.6830 -0.3259
 3193SOL    HW212544   3.316   0.591   3.073  0.3218 -0.9609 -1.4283
 3193SOL    HW312545   3.205   0.488   3.074 -0.4311 -0.1944  0.5900
 3193SOL    MW412546   3.240   0.562   3.043  0.2101  0.2579  0.0738
 3194SOL     OW12547   5.782   5.731   0.195  0.4040 -0.2109 -0.0482
 3194SOL    HW212548   5.776   5.826   0.194 -2.1028 -0.2780 -2.4274
 3194SOL    HW312549   5.838   5.709   0.121  0.3156 -0.6357  0.0058
 3194SOL    MW412550   5.789   5.740   0.185 -0.0838 -0.6052  0.1195
 3195SOL     OW12551   2.600   4.378   3.331  0.6716  0.1323  0.0864
 3195SOL    HW212552   2.539   4.311   3.300  0.0685  0.4825  0.5117
 3195SOL    HW312553   2.679   4.364   3.278  0.0940 -0.0701 -0.7378
 3195SOL    MW412554   2.603   4.367   3.320  0.0838 -0.0899  0.1372
 3196SOL     OW12555   1.251   2.187   0.054  0.4004 -0.0521 -0.3124
 3196SOL    HW212556   1.239   2.282   0.060 -2.0732 -0.3638  0.6720
 3196SOL    HW312557   1.264   2.170  -0.039 -0.6417  1.1168 -0.6991
 3196SOL    MW412558   1.251   2.197   0.043 -0.4579  0.0382  0.1443
 3197SOL     OW12559   3.423   1.565   1.748  0.5421 -0.0980 -0.4240
 3197SOL    HW212560   3.381   1.524   1.673  1.0234  0.9729 -1.3053
 3197SOL    HW312561   3.517   1.552   1.733  0.6086 -1.1074  0.7250
 3197SOL    MW412562   3.430   1.558   1.736 -0.1673  0.5715  0.6203
 3198SOL     OW12563   3.109   3.902   4.977 -0.2350 -0.0720 -0.2749
 3198SOL    HW212564   3.132   3.809   4.981 -0.8506 -0.1909  1.8873
 3198SOL    HW312565   3.165   3.938   4.908  1.6343 -1.6022  0.3609
 3198SOL    MW412566   3.119   3.894   4.968  0.5128  0.1418 -0.1499
 3199SOL     OW12567   1.581   2.223   3.984  0.1265 -0.2126  0.0440
 3199SOL    HW212568   1.553   2.178   4.063 -0.1482 -1.8586 -0.9385
 3199SOL    HW312569   1.569   2.316   4.004  1.5485 -0.4783  2.4517
 3199SOL    MW412570   1.575   2.230   3.997 -0.2001 -0.8064  0.7174
 3200SOL     OW12571   5.113   1.227   2.456  0.3479 -0.5981 -0.1552
 3200SOL    HW212572   5.198   1.268   2.473 -0.6786  0.6129  2.7223
 3200SOL    HW312573   5.050   1.299   2.464 -1.0267 -1.5972 -1.4637
 3200SOL    MW412574   5.116   1.242   2.460  0.0426  0.3891 -0.2717
 3201SOL     OW12575   4.136   4.001   2.867  0.0743 -0.4391  0.6477
 3201SOL    HW212576   4.079   3.947   2.812  1.4505 -0.7066 -0.5970
 3201SOL    HW312577   4.077   4.050   2.924 -1.3533 -1.0529 -0.2716
 3201SOL    MW412578   4.121   4.001   2.867 -0.3138  0.3293  0.4751
 3202SOL     OW12579   4.064   3.127   1.263 -0.7277 -0.1588  0.1719
 3202SOL    HW212580   3.997   3.093   1.323 -0.1029  0.1083  1.0334
 3202SOL    HW312581   4.080   3.216   1.292  1.0504 -0.6758  0.9205
 3202SOL    MW412582   4.057   3.134   1.275  0.5963  0.1291 -0.1603
 3203SOL     OW12583   1.523   1.321   1.331  0.4131 -0.7359 -0.1426
 3203SOL    HW212584   1.474   1.270   1.267 -2.8635  1.7298  0.1684
 3203SOL    HW312585   1.599   1.353   1.283 -1.5053  0.3612 -2.6987
 3203SOL    MW412586   1.527   1.318   1.316 -0.0220  0.1896  0.2757
 3204SOL     OW12587   3.601   4.603   4.343  0.1783 -0.1497 -0.2854
 3204SOL    HW212588   3.530   4.651   4.302  0.1784 -0.3286 -0.4909
 3204SOL    HW312589   3.564   4.518   4.366 -0.0632  0.2356  0.8340
 3204SOL    MW412590   3.587   4.598   4.341  0.3579 -0.2425  0.3137
 3205SOL     OW12591   5.423   3.749   6.373 -0.1537 -0.2877  0.3838
 3205SOL    HW212592   5.421   3.762   6.468  1.3563 -1.9497  0.7022
 3205SOL    HW312593   5.497   3.690   6.358 -0.6078 -0.4078 -1.8016
 3205SOL    MW412594   5.433   3.743   6.383 -0.2335  0.2354 -0.3341
 3206SOL     OW12595   5.839   1.553   1.604  0.0645  0.4102  0.6856
 3206SOL    HW212596   5.923   1.509   1.591  0.2271  0.0165  2.7962
 3206SOL    HW312597   5.774   1.483   1.595 -0.2789  0.9843 -2.6223
 3206SOL    MW412598   5.841   1.538   1.601  0.0280 -0.1710  0.1509
 3207SOL     OW12599   2.718   1.789   4.572  0.1176  0.1601  0.0285
 3207SOL    HW212600   2.797   1.781   4.518 -0.8845  0.3943 -1.5341
 3207SOL    HW312601   2.669   1.708   4.555 -0.8478  0.8296 -0.5070
 3207SOL    MW412602   2.722   1.777   4.562  0.0821  0.3462 -0.4811
 3208SOL     OW12603   2.831   5.053   0.668  0.0201  0.3580 -0.6261
 3208SOL    HW212604   2.823   5.011   0.582  1.2391  0.9559 -1.0651
 3208SOL    HW312605   2.910   5.014   0.706  0.2701  1.0979 -0.3723
 3208SOL    MW412606   2.841   5.042   0.661 -0.1648  0.6545 -0.3010
 3209SOL     OW12607   6.160   5.317   0.441 -0.1964  0.0548 -0.0047
 3209SOL    HW212608   6.154   5.354   0.530 -0.0226  0.3687 -0.1229
 3209SOL    HW312609   6.152   5.393   0.383  2.3363  0.2237 -0.2337
 3209SOL    MW412610   6.158   5.332   0.445 -0.0689  0.1866  0.6577
 3210SOL     OW12611   1.260   2.197   1.240  0.4342 -0.1789 -0.0078
 3210SOL    HW212612   1.291   2.240   1.159  0.4979 -1.2204 -0.5478
 3210SOL    HW312613   1.272   2.104   1.224  0.7966 -0.3890  1.3694
 3210SOL    MW412614   1.266   2.191   1.227  0.2620  0.4862 -0.5796
 3211SOL     OW12615   5.339   2.554   0.535  0.4373 -0.3472  0.1217
 3211SOL    HW212616   5.410   2.544   0.598  1.3720 -0.3556 -0.8986
 3211SOL    HW312617   5.377   2.524   0.452 -0.2507  1.1465 -0.7576
 3211SOL    MW412618   5.354   2.548   0.532 -0.3378  0.7746  0.3626
 3212SOL     OW12619   6.372   3.109   4.208 -0.0857 -0.3735  1.0132
 3212SOL    HW212620   6.465   3.124   4.192 -0.4074 -1.6969 -3.2776
 3212SOL    HW312621   6.332   3.105   4.121 -3.9229 -1.5226  2.5805
 3212SOL    MW412622   6.379   3.111   4.195  0.2886 -0.3658 -0.3349
 3213SOL     OW12623   0.334   2.610   6.070 -0.1066 -0.7217 -0.5961
 3213SOL    HW212624   0.415   2.652   6.041 -0.4588 -0.6259 -1.4733
 3213SOL    HW312625   0.341   2.520   6.038 -1.0369 -0.2939 -2.1285
 3213SOL    MW412626   0.346   2.604   6.062 -0.0075  0.1253  0.3193
 3214SOL     OW12627   5.308   3.182   2.247  0.0484  0.2194 -0.1114
 3214SOL    HW212628   5.238   3.238   2.281  0.7837  1.3903 -0.4837
 3214SOL    HW312629   5.356   3.154   2.325 -0.2991  0.1287  0.0746
 3214SOL    MW412630   5.305   3.186   2.262  0.1468 -0.2663  0.1387
 3215SOL     OW12631   4.202   5.385   5.041  0.1111 -0.2235  0.6331
 3215SOL    HW212632   4.124   5.349   4.999  0.9067 -2.5593  1.0217
 3215SOL    HW312633   4.274   5.361   4.982  0.6899  0.8132  0.8897
 3215SOL    MW412634   4.202   5.377   5.028 -1.0053  0.4498 -0.1566
 3216SOL     OW12635   5.998   0.867   3.927  0.1202 -0.2663 -0.2047
 3216SOL    HW212636   5.950   0.787   3.906 -0.1998 -0.4333  1.0451
 3216SOL    HW312637   6.011   0.862   4.022  0.4031  1.0006 -0.1621
 3216SOL    MW412638   5.994   0.855   3.937 -0.2985  0.3747 -0.1260
 3217SOL     OW12639   3.759   5.315   4.096 -0.4417  0.7576  0.1171
 3217SOL    HW212640   3.774   5.312   4.002 -2.0800 -0.2584 -0.1507
 3217SOL    HW312641   3.752   5.408   4.117 -1.6243  0.9550 -1.0517
 3217SOL    MW412642   3.760   5.326   4.086 -0.8912 -0.6495 -0.7032
 3218SOL     OW12643   6.099   1.550   1.140 -0.5052 -0.6274  0.0208
 3218SOL    HW212644   6.060   1.490   1.077 -0.1962 -1.1663  0.3409
 3218SOL    HW312645   6.044   1.629   1.135 -0.1499 -0.4298 -1.3425
 3218SOL    MW412646   6.087   1.553   1.131  0.1107 -0.6383  0.1031
 3219SOL     OW12647   2.362   4.967   4.358  0.2970  1.1539 -0.1903
 3219SOL    HW212648   2.269   4.947   4.366  0.4154  0.3080 -0.7809
 3219SOL    HW312649   2.374   4.991   4.267  1.0906 -1.3311 -0.8260
 3219SOL    MW412650   2.351   4.968   4.347  1.1044  0.3623  0.1273
 3220SOL     OW12651   2.566   2.099   0.159  0.3609  0.5428 -0.0997
 3220SOL    HW212652   2.504   2.026   0.158  0.9584 -0.0546  1.6842
 3220SOL    HW312653   2.625   2.082   0.085  0.9894 -1.2768  0.7656
 3220SOL    MW412654   2.566   2.087   0.149  0.3127  0.1062  0.0347
 3221SOL     OW12655   1.781   2.374   5.901 -0.2935 -0.0716 -0.3800
 3221SOL    HW212656   1.726   2.311   5.855 -0.1019 -0.5213 -0.0060
 3221SOL    HW312657   1.865   2.330   5.910 -1.0394 -1.1167  2.7216
 3221SOL    MW412658   1.785   2.360   5.896 -0.0888  0.4140 -0.3255
 3222SOL     OW12659   0.515   6.130   2.646  0.2722  0.0694 -0.0044
 3222SOL    HW212660   0.588   6.068   2.644 -0.3174 -0.6741 -2.3164
 3222SOL    HW312661   0.450   6.093   2.586 -2.9068 -0.2623  3.3182
 3222SOL    MW412662   0.516   6.117   2.638  0.1659  0.1744 -0.2372
 3223SOL     OW12663   5.808   0.118   2.163 -0.1316  0.2052  0.4185
 3223SOL    HW212664   5.749   0.114   2.088 -0.6454 -0.8544  0.8562
 3223SOL    HW312665   5.752   0.103   2.239  0.5532  0.1313  0.9206
 3223SOL    MW412666   5.793   0.116   2.163 -0.0613  0.3569 -0.6072
 3224SOL     OW12667   0.964   6.252   3.927 -0.1272  0.2144  0.5852
 3224SOL    HW212668   0.967   6.329   3.870 -1.5540  0.3009  0.5868
 3224SOL    HW312669   1.033   6.267   3.992  0.6290  0.7482 -0.3238
 3224SOL    MW412670   0.974   6.264   3.928  0.0530 -0.9054 -0.2913
 3225SOL     OW12671   4.161   3.885   2.452 -0.3387  0.2062  0.1038
 3225SOL    HW212672   4.106   3.957   2.483 -0.3324  1.6299 -2.8254
 3225SOL    HW312673   4.235   3.882   2.513 -0.0946  3.0279  0.0609
 3225SOL    MW412674   4.163   3.894   2.464  0.5480 -0.3147  0.0145
 3226SOL     OW12675   6.129   0.676   4.371  0.6334  0.0640 -0.5103
 3226SOL    HW212676   6.072   0.599   4.372  1.1823 -0.3840  1.5373
 3226SOL    HW312677   6.095   0.730   4.300 -1.1568 -1.0503 -0.5749
 3226SOL    MW412678   6.117   0.673   4.362  0.1691 -0.1497 -0.7164
 3227SOL     OW12679   5.972   5.944   5.374  0.2536 -0.1182 -0.4801
 3227SOL    HW212680   6.065   5.947   5.395 -0.3671  0.2787  2.7044
 3227SOL    HW312681   5.941   5.861   5.411 -0.9129  0.4034 -0.2168
 3227SOL    MW412682   5.980   5.933   5.381 -0.1249  0.2900  0.4849
 3228SOL     OW12683   0.541   1.225   2.748 -0.4632 -0.1555 -0.1535
 3228SOL    HW212684   0.535   1.150   2.807 -1.0300 -0.0078 -0.0171
 3228SOL    HW312685   0.610   1.279   2.786  1.0334 -1.3302 -1.1038
 3228SOL    MW412686   0.549   1.222   2.761  0.3295 -0.5601 -0.2141
 3229SOL     OW12687   5.844   0.289   0.643  0.4664  0.0941 -0.4432
 3229SOL    HW212688   5.904   0.364   0.649  0.8612 -0.2263 -0.3504
 3229SOL    HW312689   5.766   0.317   0.691  0.6881  0.3767 -0.2432
 3229SOL    MW412690   5.842   0.303   0.650 -0.7021  0.8950  0.8595
 3230SOL     OW12691   3.644   3.293   4.138  0.1656 -0.1802 -0.1959
 3230SOL    HW212692   3.649   3.389   4.133 -0.2956 -0.0821  0.9575
 3230SOL    HW312693   3.710   3.263   4.076  0.3396  0.8787 -0.5602
 3230SOL    MW412694   3.653   3.302   4.129  1.0005  0.3028 -0.0598
 3231SOL     OW12695   2.650   5.668   2.894  0.0011  0.4853  0.0362
 3231SOL    HW212696   2.584   5.691   2.959 -0.1279 -0.1590  0.1451
 3231SOL    HW312697   2.614   5.699   2.811 -0.6437 -0.2346  0.0347
 3231SOL    MW412698   2.636   5.675   2.891  0.6018 -0.4268 -0.1884
 3232SOL     OW12699   1.992   3.892   3.570  0.7266 -0.0385 -0.0801
 3232SOL    HW212700   2.020   3.951   3.500  0.2698  1.3993  0.9188
 3232SOL    HW312701   1.986   3.947   3.648 -1.2753 -1.0209  0.5452
 3232SOL    MW412702   1.995   3.907   3.571 -1.0084  0.2703 -0.4395
 3233SOL     OW12703   1.154   1.003   5.635 -0.4062 -0.4119 -0.2464
 3233SOL    HW212704   1.170   0.944   5.708 -1.7236 -2.6697 -1.6694
 3233SOL    HW312705   1.222   0.981   5.571 -0.3042  0.3459 -0.4119
 3233SOL    MW412706   1.165   0.992   5.636 -0.1062 -0.5361  0.0694
 3234SOL     OW12707   0.581   1.384   2.372  0.3412 -0.1228  0.3410
 3234SOL    HW212708   0.535   1.402   2.454 -0.5509 -2.2619  0.3644
 3234SOL    HW312709   0.673   1.373   2.398  0.1233 -0.4379  0.9895
 3234SOL    MW412710   0.587   1.385   2.386 -0.4808  0.2584  0.3724
 3235SOL     OW12711   1.860   1.158   1.400 -1.0263  0.2030  0.2250
 3235SOL    HW212712   1.901   1.183   1.482  0.1976  1.1710 -0.6538
 3235SOL    HW312713   1.807   1.234   1.375 -2.1783 -0.4486  0.5620
 3235SOL    MW412714   1.858   1.171   1.408  0.4063 -0.1945 -0.9158
 3236SOL     OW12715   6.333   2.465   6.407  0.2240  0.1402 -0.0754
 3236SOL    HW212716   6.327   2.391   6.468 -1.0781  0.9769  0.8752
 3236SOL    HW312717   6.248   2.509   6.414  1.1106  1.9968 -0.2517
 3236SOL    MW412718   6.321   2.461   6.416 -0.0443 -0.2770  0.2880
 3237SOL     OW12719   5.109   4.566   6.215  0.1454 -0.1641  0.1770
 3237SOL    HW212720   5.044   4.597   6.279 -3.0462  0.4904 -3.0615
 3237SOL    HW312721   5.060   4.508   6.157  2.4154  0.4963 -2.6268
 3237SOL    MW412722   5.094   4.562   6.216  0.1973 -0.6016  0.5385
 3238SOL     OW12723   0.175   4.661   6.296 -0.4939  0.3857 -0.5116
 3238SOL    HW212724   0.202   4.570   6.284 -3.1298 -0.9861  2.4567
 3238SOL    HW312725   0.233   4.695   6.364 -0.5322  0.3735 -0.4723
 3238SOL    MW412726   0.186   4.653   6.303 -0.6391  0.0653  0.0835
 3239SOL     OW12727   4.067   5.618   4.967 -0.3319 -0.4546 -0.9739
 3239SOL    HW212728   4.071   5.689   5.031 -0.8177  0.3418 -1.8017
 3239SOL    HW312729   4.110   5.544   5.010 -1.0682 -0.0853  0.4573
 3239SOL    MW412730   4.073   5.617   4.981 -0.3754  0.4259 -0.5111
 3240SOL     OW12731   6.086   0.145   0.266 -0.0198  0.2817 -0.2414
 3240SOL    HW212732   6.015   0.123   0.326  0.6380  0.5917  0.6581
 3240SOL    HW312733   6.129   0.061   0.248  1.0895  0.4436  1.4140
 3240SOL    MW412734   6.082   0.131   0.271 -0.0851  0.5886  0.3591
 3241SOL     OW12735   0.482   5.683   5.414 -0.0055 -0.4047  0.3399
 3241SOL    HW212736   0.421   5.753   5.438  0.4708  0.1057  0.0959
 3241SOL    HW312737   0.520   5.712   5.331 -0.3670 -1.3256 -0.1630
 3241SOL    MW412738   0.479   5.696   5.406 -0.0166 -0.0490  0.2574
 3242SOL     OW12739   4.235   5.162   1.641 -0.0847 -0.1367 -0.7706
 3242SOL    HW212740   4.319   5.181   1.681  0.4355 -2.4471 -0.6175
 3242SOL    HW312741   4.208   5.079   1.679 -1.9626  0.0325 -1.5784
 3242SOL    MW412742   4.242   5.154   1.651 -0.2131 -0.3831  0.1588
 3243SOL     OW12743   4.447   0.173   0.237 -0.1290 -0.5552  0.2405
 3243SOL    HW212744   4.413   0.124   0.312 -1.8316  0.0922 -0.0623
 3243SOL    HW312745   4.501   0.110   0.189  0.3334 -1.2026  1.5703
 3243SOL    MW412746   4.450   0.158   0.241 -0.0075  0.0387 -0.3831
 3244SOL     OW12747   1.530   4.972   1.816 -0.3827 -0.1862  0.1700
 3244SOL    HW212748   1.605   4.965   1.875 -0.3501  0.8975  0.2767
 3244SOL    HW312749   1.455   4.983   1.873 -0.8368 -2.4798  0.1182
 3244SOL    MW412750   1.530   4.972   1.831  0.6002  0.4295 -0.2199
 3245SOL     OW12751   2.474   1.845   2.350 -0.1735 -0.4280  0.4460
 3245SOL    HW212752   2.466   1.802   2.265  0.0903 -0.4707  0.4395
 3245SOL    HW312753   2.541   1.794   2.396 -0.7346 -0.7602  0.9045
 3245SOL    MW412754   2.482   1.833   2.345 -0.2246  0.2047 -0.1852
 3246SOL     OW12755   6.379   2.961   5.339 -0.0124 -0.1084 -0.2217
 3246SOL    HW212756   6.441   2.968   5.267  1.7610  0.9500  1.3228
 3246SOL    HW312757   6.334   2.878   5.324  0.0572  0.2186 -2.6739
 3246SOL    MW412758   6.381   2.951   5.327  0.1829  0.0679  0.4759
 3247SOL     OW12759   0.400   5.071   0.246  0.0193  0.6655  0.4528
 3247SOL    HW212760   0.351   5.053   0.326 -2.0060  0.4757 -0.7556
 3247SOL    HW312761   0.381   5.163   0.226  1.4420  1.0541  0.7565
 3247SOL    MW412762   0.391   5.081   0.254  0.2218  0.1037  0.2386
 3248SOL     OW12763   3.740   4.080   1.584 -0.1466  0.2507 -0.1665
 3248SOL    HW212764   3.724   4.023   1.659 -0.3728  1.7531  0.9905
 3248SOL    HW312765   3.765   4.164   1.623  0.4718  0.8645 -1.7962
 3248SOL    MW412766   3.741   4.084   1.599  0.1027 -0.4918  0.1211
 3249SOL     OW12767   4.214   3.255   0.835  0.0749 -0.4289  0.4539
 3249SOL    HW212768   4.242   3.309   0.909 -1.3787  0.9330  0.0553
 3249SOL    HW312769   4.291   3.253   0.778  0.1910  1.2412  0.4879
 3249SOL    MW412770   4.228   3.262   0.837 -0.0568 -0.0861  0.0376
 3250SOL     OW12771   1.703   3.643   1.872 -0.2679  0.3709  0.4404
 3250SOL    HW212772   1.673   3.703   1.804 -0.1820  0.8892  0.8453
 3250SOL    HW312773   1.623   3.604   1.907 -0.2593 -0.5430 -0.5199
 3250SOL    MW412774   1.689   3.646   1.868 -0.4860 -0.0501 -0.9102
 3251SOL     OW12775   1.116   3.972   0.089  0.0460  0.1772  0.6274
 3251SOL    HW212776   1.070   4.048   0.125 -0.1142 -0.2776  1.4083
 3251SOL    HW312777   1.071   3.896   0.126 -0.2633 -0.3257 -0.7176
 3251SOL    MW412778   1.104   3.972   0.099  0.0444  0.2692 -0.5672
 3252SOL     OW12779   2.746   2.887   1.293 -0.0715 -0.9781 -0.1163
 3252SOL    HW212780   2.780   2.817   1.348  0.8181 -0.9366 -0.5999
 3252SOL    HW312781   2.823   2.930   1.257 -0.6156 -0.8229 -1.1677
 3252SOL    MW412782   2.760   2.883   1.295  0.0837  0.0621 -0.8291
 3253SOL     OW12783   2.170   4.673   4.600 -0.2329  0.3405 -0.1415
 3253SOL    HW212784   2.178   4.729   4.523  0.1618  0.6321  0.1104
 3253SOL    HW312785   2.076   4.654   4.606 -0.1430 -0.5291 -1.2871
 3253SOL    MW412786   2.158   4.678   4.591 -0.0736 -0.4102  0.0273
 3254SOL     OW12787   0.348   4.483   3.131 -0.2155 -0.0505 -0.2934
 3254SOL    HW212788   0.421   4.514   3.185  0.3919 -1.3625 -0.3227
 3254SOL    HW312789   0.388   4.459   3.047 -1.2606  2.7035 -1.6964
 3254SOL    MW412790   0.363   4.484   3.127 -0.1904 -0.2858 -0.0700
 3255SOL     OW12791   2.765   1.343   3.472 -0.4431 -0.8317 -0.7758
 3255SOL    HW212792   2.740   1.323   3.563 -0.9149  1.2616 -0.3875
 3255SOL    HW312793   2.731   1.431   3.457  1.0081 -0.5128 -2.4826
 3255SOL    MW412794   2.757   1.352   3.482  0.0266  0.1890  0.0965
 3256SOL     OW12795   4.329   4.125   0.486 -0.5806 -0.5251 -0.2066
 3256SOL    HW212796   4.423   4.116   0.505 -0.7984 -0.7550  0.8199
 3256SOL    HW312797   4.303   4.039   0.452  0.0061  0.1584 -2.5518
 3256SOL    MW412798   4.338   4.112   0.484 -0.2653 -0.6146  0.2061
 3257SOL     OW12799   0.250   5.894   5.780  0.7143 -0.1827 -0.1054
 3257SOL    HW212800   0.290   5.931   5.859 -1.1122 -0.1638  0.8721
 3257SOL    HW312801   0.254   5.799   5.794  2.0346 -0.2594 -0.8730
 3257SOL    MW412802   0.255   5.886   5.793  0.0907  0.0321 -0.4283
 3258SOL     OW12803   3.053   3.727   2.746 -0.4568  0.0419 -0.4634
 3258SOL    HW212804   3.030   3.756   2.657 -0.5767 -0.9514 -0.7695
 3258SOL    HW312805   3.146   3.705   2.740  1.2098  5.1783  1.0530
 3258SOL    MW412806   3.063   3.728   2.733  0.1294  0.4002  0.1633
 3259SOL     OW12807   3.807   1.655   0.893  0.5535 -0.0915 -0.1038
 3259SOL    HW212808   3.850   1.571   0.879  0.1020 -0.2542 -0.5473
 3259SOL    HW312809   3.802   1.694   0.806  2.0549  1.0464  0.2700
 3259SOL    MW412810   3.812   1.649   0.880 -0.5835  0.4875  0.3001
 3260SOL     OW12811   1.406   2.455   2.571  0.1787  0.1149 -0.2053
 3260SOL    HW212812   1.452   2.377   2.540  0.9718  0.2660  0.5504
 3260SOL    HW312813   1.424   2.521   2.504 -3.5838 -1.2438 -2.8745
 3260SOL    MW412814   1.414   2.453   2.558 -0.1327 -0.1459 -0.3672
 3261SOL     OW12815   6.311   2.296   5.164 -0.3090 -0.7154  0.2837
 3261SOL    HW212816   6.299   2.209   5.202 -1.3409  0.1362  2.0926
 3261SOL    HW312817   6.335   2.351   5.239 -1.1454  0.8206 -0.5242
 3261SOL    MW412818   6.312   2.292   5.179 -0.6059  0.0538 -0.2775
 3262SOL     OW12819   1.222   1.550   5.981 -0.0678 -0.5498  0.3283
 3262SOL    HW212820   1.213   1.527   6.073  0.7811  0.0832  0.5918
 3262SOL    HW312821   1.262   1.638   5.982 -0.5222 -0.3120 -0.6342
 3262SOL    MW412822   1.226   1.559   5.993  0.3892  0.2095 -0.3181
 3263SOL     OW12823   3.897   0.713   4.734  0.3810  0.2460  0.1491
 3263SOL    HW212824   3.987   0.696   4.760 -0.4783 -3.6996  1.1993
 3263SOL    HW312825   3.881   0.654   4.661 -1.3450  0.8526 -0.0024
 3263SOL    MW412826   3.907   0.703   4.728 -0.2742 -0.6104  0.3685
 3264SOL     OW12827   3.973   4.514   1.859 -0.4150 -0.6190  0.2360
 3264SOL    HW212828   3.942   4.587   1.806  1.7049 -0.5912 -1.1118
 3264SOL    HW312829   3.963   4.543   1.949 -0.8272  0.7983 -0.2437
 3264SOL    MW412830   3.968   4.527   1.864 -0.4019 -0.3684 -0.2718
 3265SOL     OW12831   3.989   1.898   0.044 -0.2284 -0.1326  0.0822
 3265SOL    HW212832   3.917   1.849   0.084 -0.2541  0.4416  0.7629
 3265SOL    HW312833   3.956   1.987   0.037  0.2710  0.0528  0.0357
 3265SOL    MW412834   3.975   1.903   0.048  0.4301 -0.0065  0.7759
 3266SOL     OW12835   0.152   5.258   6.396  0.1023  0.6707 -0.4978
 3266SOL    HW212836   0.146   5.340   6.346 -1.0545 -0.0035 -1.5132
 3266SOL    HW312837   0.202   5.199   6.339 -0.9666 -0.0098 -0.7638
 3266SOL    MW412838   0.158   5.261   6.381  0.0200 -0.3747  0.1270
 3267SOL     OW12839   4.080   6.065   0.568 -0.6384  0.2025  0.1617
 3267SOL    HW212840   4.081   6.066   0.663  0.8604 -0.2679  0.1758
 3267SOL    HW312841   4.006   6.120   0.544 -0.3342  1.2818  1.5938
 3267SOL    MW412842   4.071   6.072   0.577  0.5581  0.2323  0.2575
 3268SOL     OW12843   0.842   2.287   2.802  0.1316 -0.4776  0.1785
 3268SOL    HW212844   0.752   2.259   2.822 -0.4744 -0.5973 -2.2964
 3268SOL    HW312845   0.831   2.356   2.736  1.8566 -0.3710 -0.0375
 3268SOL    MW412846   0.828   2.292   2.796 -0.1326 -0.3343 -0.0143
 3269SOL     OW12847   3.158   1.474   6.219  0.4243  0.2865  0.3276
 3269SOL    HW212848   3.087   1.462   6.156 -0.5403 -2.3255  1.7551
 3269SOL    HW312849   3.227   1.415   6.190  0.3677 -0.1865  1.1127
 3269SOL    MW412850   3.157   1.465   6.207 -0.1846 -0.1054 -0.0187
 3270SOL     OW12851   2.169   5.810   3.041 -0.1466  0.4971 -0.6090
 3270SOL    HW212852   2.153   5.763   3.122 -2.0324  3.3540  0.8543
 3270SOL    HW312853   2.111   5.769   2.976  2.4650 -2.8061 -1.1262
 3270SOL    MW412854   2.159   5.799   3.043  0.0700  0.2403  0.1893
 3271SOL     OW12855   0.539   1.569   1.205  0.1775  0.0094  0.0795
 3271SOL    HW212856   0.560   1.598   1.294  0.4361  2.1965 -0.6543
 3271SOL    HW312857   0.457   1.615   1.184 -0.0869 -0.7889 -0.6868
 3271SOL    MW412858   0.531   1.579   1.214  0.3650  0.1743 -0.0630
 3272SOL     OW12859   1.623   1.053   4.999 -0.0544  0.1895 -0.5065
 3272SOL    HW212860   1.652   1.120   5.060 -0.6820  1.1249 -1.2096
 3272SOL    HW312861   1.653   0.970   5.038  0.8130  0.8724  0.3185
 3272SOL    MW412862   1.631   1.051   5.012 -0.1174 -0.4843  0.3545
 3273SOL     OW12863   2.520   3.230   4.115  0.0566  0.3483 -0.5244
 3273SOL    HW212864   2.559   3.316   4.132 -0.7194  0.5992  0.0317
 3273SOL    HW312865   2.525   3.184   4.199  1.2829 -0.4955 -1.0405
 3273SOL    MW412866   2.526   3.235   4.128 -0.3961  0.0259  0.0414
 3274SOL     OW12867   3.658   0.664   0.828 -0.1446  0.8043 -0.1268
 3274SOL    HW212868   3.716   0.681   0.754 -0.5823 -3.0516 -1.5546
 3274SOL    HW312869   3.709   0.610   0.887 -0.4894  2.1570  1.5110
 3274SOL    MW412870   3.672   0.659   0.826 -0.6188 -0.1204 -0.3933
 3275SOL     OW12871   0.022   1.310   4.965 -0.5080 -0.1529  0.5289
 3275SOL    HW212872   0.085   1.243   4.939  0.3287  0.5609  0.6552
 3275SOL    HW312873  -0.010   1.346   4.882 -0.5359 -0.3336  0.4625
 3275SOL    MW412874   0.026   1.306   4.950  0.2599 -0.2949 -0.1352
 3276SOL     OW12875   3.775   6.105   0.917 -0.1648  0.2048  0.3448
 3276SOL    HW212876   3.759   6.199   0.922 -1.4906 -0.0424  1.4830
 3276SOL    HW312877   3.775   6.076   1.009  1.0182 -0.7848  0.0506
 3276SOL    MW412878   3.773   6.113   0.930  0.4517  0.4811 -0.3854
 3277SOL     OW12879   1.425   6.059   0.697  0.0068  0.2018  0.3301
 3277SOL    HW212880   1.509   6.060   0.651 -0.2101 -0.5475 -0.1025
 3277SOL    HW312881   1.379   5.983   0.661 -1.2019  1.0784 -0.0633
 3277SOL    MW412882   1.430   6.050   0.686 -0.7734  0.3151 -0.1066
 3278SOL     OW12883   6.115   0.405   2.864  0.4402  0.6194  0.0628
 3278SOL    HW212884   6.139   0.326   2.913 -0.8969 -0.3516 -0.7876
 3278SOL    HW312885   6.021   0.396   2.848  0.5338  1.6864 -1.2915
 3278SOL    MW412886   6.106   0.393   2.868 -0.1684  0.1619  0.0258
 3279SOL     OW12887   3.853   2.676   4.240 -0.2791  0.2832 -0.5228
 3279SOL    HW212888   3.770   2.669   4.193 -0.9180  0.0285  0.6171
 3279SOL    HW312889   3.879   2.768   4.230 -1.0799  0.5466 -0.2594
 3279SOL    MW412890   3.846   2.687   4.232 -0.6766 -0.3351  1.3438
 3280SOL     OW12891   0.162   0.140   0.379 -0.2453 -0.3021  0.3359
 3280SOL    HW212892   0.250   0.104   0.364 -1.6645 -4.0819  0.1713
 3280SOL    HW312893   0.123   0.144   0.291 -0.1651  1.8618  0.3427
 3280SOL    MW412894   0.169   0.136   0.365 -0.1373 -0.0043 -1.2221
 3281SOL     OW12895   2.215   6.320   4.767  0.8009 -0.3431 -0.8315
 3281SOL    HW212896   2.188   6.408   4.791 -1.2223 -0.9228 -0.7817
 3281SOL    HW312897   2.239   6.327   4.674  2.5549  0.6120 -0.3498
 3281SOL    MW412898   2.214   6.332   4.758  0.4289 -0.3171  0.3407
 3282SOL     OW12899   2.295   4.193   0.281 -0.2354  0.4818  0.0390
 3282SOL    HW212900   2.212   4.147   0.295  0.3071 -0.0013  2.0945
 3282SOL    HW312901   2.273   4.286   0.284 -0.6271  0.3776  1.6520
 3282SOL    MW412902   2.281   4.199   0.284  0.5415 -0.0833  0.4989
 3283SOL     OW12903   4.695   2.063   2.099 -0.0515  0.8260  0.1644
 3283SOL    HW212904   4.682   1.975   2.136  1.0842  0.7328  0.3700
 3283SOL    HW312905   4.759   2.050   2.029 -0.6787  1.3335 -0.5312
 3283SOL    MW412906   4.702   2.049   2.095  0.1406 -0.1366  0.4026
 3284SOL     OW12907   4.491   2.534   2.972 -0.3149 -0.6812  0.1255
 3284SOL    HW212908   4.490   2.438   2.977  1.1910 -0.6503  1.9340
 3284SOL    HW312909   4.423   2.561   3.034  0.5967 -0.5952  1.1221
 3284SOL    MW412910   4.482   2.525   2.981 -0.1800 -0.0400  0.1151
 3285SOL     OW12911   5.510   5.899   6.288  0.0506  0.0870 -0.0388
 3285SOL    HW212912   5.520   5.988   6.321  1.0431  0.4083 -1.1449
 3285SOL    HW312913   5.544   5.843   6.359  1.4371  0.7137 -0.1842
 3285SOL    MW412914   5.516   5.903   6.302  0.0116 -0.6523 -0.3593
 3286SOL     OW12915   3.837   5.953   3.921  0.0884 -0.2026 -0.1571
 3286SOL    HW212916   3.871   5.940   3.832  0.3051 -1.6221  0.1009
 3286SOL    HW312917   3.774   5.882   3.932  0.2766 -0.2155  0.9175
 3286SOL    MW412918   3.833   5.942   3.910  0.0164  0.1603 -0.2636
 3287SOL     OW12919   4.503   4.922   4.698  0.2530 -0.6419  0.7038
 3287SOL    HW212920   4.557   4.899   4.774  0.9639 -0.3433  0.3050
 3287SOL    HW312921   4.434   4.977   4.733  0.9087 -0.0344  1.0540
 3287SOL    MW412922   4.501   4.926   4.713  0.0106 -0.0251  0.3733
 3288SOL     OW12923   0.056   5.692   3.770  0.4745 -0.2275 -0.6109
 3288SOL    HW212924   0.024   5.651   3.851  1.8463 -1.4162 -0.6401
 3288SOL    HW312925  -0.024   5.719   3.724 -0.3675 -0.4574  0.6484
 3288SOL    MW412926   0.041   5.690   3.775  0.0369  0.1225 -0.7650
 3289SOL     OW12927   6.193   3.156   5.255  0.0642  0.0683 -0.0041
 3289SOL    HW212928   6.132   3.105   5.202 -1.1482  1.4797 -0.0175
 3289SOL    HW312929   6.254   3.091   5.290 -1.9759 -1.5410  0.7606
 3289SOL    MW412930   6.193   3.140   5.253  0.4004  0.5815  0.4321
 3290SOL     OW12931   5.956   5.303   6.188  0.0412 -0.0133 -0.1599
 3290SOL    HW212932   5.983   5.234   6.127 -1.6103 -2.1125  1.3243
 3290SOL    HW312933   6.025   5.305   6.254 -0.9694 -1.9722  1.0401
 3290SOL    MW412934   5.968   5.294   6.189 -0.2980  0.6709  0.0863
 3291SOL     OW12935   3.923   3.874   0.784  0.1807 -0.1690  0.0794
 3291SOL    HW212936   3.912   3.854   0.877 -2.9723  0.3961 -0.0767
 3291SOL    HW312937   3.938   3.969   0.782 -1.0637  0.0434 -0.0108
 3291SOL    MW412938   3.924   3.884   0.796 -0.1839  0.0336 -0.3186
 3292SOL     OW12939   5.706   3.732   2.142  0.1178  0.1769  0.3357
 3292SOL    HW212940   5.709   3.775   2.228 -0.5566  0.5157  0.1981
 3292SOL    HW312941   5.796   3.702   2.127  0.5252  1.2176  0.5998
 3292SOL    MW412942   5.718   3.733   2.152 -0.0258 -0.3131 -0.2721
 3293SOL     OW12943   1.144   3.704   3.303  0.1882 -0.1083  0.2170
 3293SOL    HW212944   1.198   3.661   3.369  1.4818  0.7360 -0.2460
 3293SOL    HW312945   1.075   3.748   3.353 -1.5965 -3.1601  0.6606
 3293SOL    MW412946   1.142   3.704   3.318  0.6199 -0.8402  0.3010
 3294SOL     OW12947   5.827   2.981   5.721  0.8150 -0.2640 -0.5916
 3294SOL    HW212948   5.889   2.992   5.794  0.3364 -0.8367 -0.0793
 3294SOL    HW312949   5.741   2.983   5.763  0.5761 -2.7347 -0.8087
 3294SOL    MW412950   5.824   2.983   5.737 -0.6564 -0.2693 -0.7667
 3295SOL     OW12951   4.723   4.079   5.491 -0.4997 -0.2063 -0.6660
 3295SOL    HW212952   4.723   3.984   5.475 -0.2337 -0.0942 -1.3735
 3295SOL    HW312953   4.752   4.088   5.582 -0.8627 -0.8184 -0.4829
 3295SOL    MW412954   4.727   4.068   5.501 -0.3473 -0.2790 -0.1275
 3296SOL     OW12955   1.484   0.080   0.820  0.2627  0.0293 -0.0923
 3296SOL    HW212956   1.543   0.006   0.833  0.5079  0.2260 -0.0869
 3296SOL    HW312957   1.421   0.050   0.755  1.2160  0.3091 -1.1730
 3296SOL    MW412958   1.483   0.067   0.813  0.1837  0.1062 -0.7956
 3297SOL     OW12959   5.146   1.186   4.059  0.3268  0.1556 -0.0332
 3297SOL    HW212960   5.206   1.251   4.096  2.2363 -1.4909 -0.0824
 3297SOL    HW312961   5.167   1.185   3.965 -1.0172  0.7785 -0.3625
 3297SOL    MW412962   5.156   1.195   4.051  0.0362 -0.1123 -0.0520
 3298SOL     OW12963   4.676   4.966   0.172 -0.1219 -0.2363  0.0293
 3298SOL    HW212964   4.617   5.013   0.114 -0.7263  0.6994  1.3400
 3298SOL    HW312965   4.764   4.993   0.144 -0.2844 -1.5028 -1.8205
 3298SOL    MW412966   4.680   4.976   0.161  0.2425  0.4811 -0.3383
 3299SOL     OW12967   2.795   6.007   0.706 -0.3260  0.2599 -0.1460
 3299SOL    HW212968   2.889   5.998   0.717 -0.3426  1.2647  0.9536
 3299SOL    HW312969   2.778   6.101   0.709 -1.1575  0.2291 -2.2917
 3299SOL    MW412970   2.805   6.018   0.708  0.1381  0.1750  0.1313
 3300SOL     OW12971   1.656   5.587   0.776  0.1094  0.2107 -0.8493
 3300SOL    HW212972   1.711   5.589   0.854  0.3571  0.7290 -1.0335
 3300SOL    HW312973   1.705   5.535   0.713  0.2746  0.4590 -0.9268
 3300SOL    MW412974   1.669   5.581   0.778 -0.8819  0.1192  0.0450
 3301SOL     OW12975   3.299   0.382   3.574 -0.5709  0.1700 -0.2151
 3301SOL    HW212976   3.320   0.295   3.609  1.1976 -0.1368 -1.9039
 3301SOL    HW312977   3.203   0.387   3.579 -0.6296 -1.4385  0.9025
 3301SOL    MW412978   3.289   0.371   3.579 -0.0586  0.1824 -0.3086
 3302SOL     OW12979   0.033   5.802   0.245 -0.2706 -0.3556  0.3769
 3302SOL    HW212980   0.044   5.742   0.319 -0.7852 -0.6178  0.2449
 3302SOL    HW312981  -0.060   5.794   0.222 -0.0866 -0.3576 -0.3644
 3302SOL    MW412982   0.022   5.793   0.252 -0.2538 -0.4455  0.0541
 3303SOL     OW12983   5.292   4.409   3.862  0.3319 -0.0126  0.3868
 3303SOL    HW212984   5.203   4.376   3.875 -0.2438  1.4011  0.2750
 3303SOL    HW312985   5.347   4.351   3.915 -0.5553 -1.3131 -0.0505
 3303SOL    MW412986   5.287   4.397   3.871  0.6704 -0.2027  0.1479
 3304SOL     OW12987   2.611   2.117   5.161 -0.5506 -0.0490  0.5962
 3304SOL    HW212988   2.686   2.097   5.105  0.3712  2.7277  0.6850
 3304SOL    HW312989   2.633   2.076   5.245 -0.7120 -1.9876 -0.2359
 3304SOL    MW412990   2.624   2.109   5.165  0.1605  0.3586 -0.0744
 3305SOL     OW12991   3.560   2.446   4.632  0.1946  0.2068  0.1160
 3305SOL    HW212992   3.626   2.393   4.587 -0.1381 -0.4850  0.4263
 3305SOL    HW312993   3.596   2.534   4.632  2.3656 -0.5586  2.5408
 3305SOL    MW412994   3.573   2.451   4.626 -0.1339  0.5443 -0.1890
 3306SOL     OW12995   0.378   0.090   5.107  0.1182  0.0452  0.0457
 3306SOL    HW212996   0.349   0.011   5.154 -0.8708  1.0820  1.2537
 3306SOL    HW312997   0.392   0.061   5.017  0.0910 -1.5762  0.5357
 3306SOL    MW412998   0.376   0.076   5.101 -0.3343  0.1987 -0.1100
 3307SOL     OW12999   6.253   3.494   2.984  0.2635 -0.1062  0.0132
 3307SOL    HW213000   6.252   3.405   3.018 -1.2501 -0.5340 -1.0184
 3307SOL    HW313001   6.161   3.521   2.985  0.3062  0.3695 -2.2856
 3307SOL    MW413002   6.241   3.486   2.989  0.3693  0.2171 -0.1304
 3308SOL     OW13003   5.626   1.477   5.944  0.5200  0.2255  0.4269
 3308SOL    HW213004   5.682   1.441   5.876  0.8807 -0.0341  0.8506
 3308SOL    HW313005   5.538   1.472   5.908  0.6284 -0.5677  0.2484
 3308SOL    MW413006   5.622   1.472   5.931  1.0076 -0.5889 -0.0733
 3309SOL     OW13007   4.810   5.299   0.966 -0.5319  0.1467 -0.2557
 3309SOL    HW213008   4.790   5.218   1.013  0.0682  0.4090  0.4685
 3309SOL    HW313009   4.753   5.364   1.006 -1.5602 -0.0565 -1.3476
 3309SOL    MW413010   4.800   5.297   0.977 -0.1274  0.4275  0.1798
 3310SOL     OW13011   5.553   3.275   5.316  0.4043 -0.2760 -0.0098
 3310SOL    HW213012   5.630   3.219   5.307  1.2152  0.7606  0.2153
 3310SOL    HW313013   5.589   3.363   5.328 -0.8015  0.1296  0.8393
 3310SOL    MW413014   5.568   3.280   5.317 -0.2805  0.4660  0.1926
 3311SOL     OW13015   2.314   2.501   4.142  0.3488 -0.1888 -0.2517
 3311SOL    HW213016   2.377   2.551   4.090  1.4377  0.3446  1.4931
 3311SOL    HW313017   2.318   2.540   4.229  0.0969 -2.3168  0.7942
 3311SOL    MW413018   2.322   2.513   4.146 -0.1510 -0.2852 -0.3399
 3312SOL     OW13019   4.716   4.497   5.664  0.1709 -0.3271 -0.3305
 3312SOL    HW213020   4.671   4.579   5.647  1.1832 -0.0805 -2.0206
 3312SOL    HW313021   4.757   4.509   5.749 -1.5118  0.0700  0.4559
 3312SOL    MW413022   4.716   4.509   5.673  0.8028 -0.0867  0.6109
 3313SOL     OW13023   6.386   0.628   4.418 -0.8569  0.1624  0.0533
 3313SOL    HW213024   6.299   0.656   4.392 -0.7845  0.8417  0.5289
 3313SOL    HW313025   6.376   0.598   4.508 -0.5098  0.7004  0.2774
 3313SOL    MW413026   6.373   0.628   4.427 -0.0629  0.4703  0.1076
 3314SOL     OW13027   2.152   0.540   1.381  0.0768  0.4129  0.3275
 3314SOL    HW213028   2.187   0.475   1.321 -0.0794 -0.6711  1.3611
 3314SOL    HW313029   2.090   0.590   1.329 -0.1801 -0.6011 -0.3709
 3314SOL    MW413030   2.149   0.538   1.367  0.1694 -0.3693 -0.0270
 3315SOL     OW13031   3.886   3.102   6.231  0.6732  0.0101  0.9127
 3315SOL    HW213032   3.860   3.193   6.214 -0.0883  0.0302  2.0237
 3315SOL    HW313033   3.947   3.109   6.305 -0.8531 -0.4845  2.2882
 3315SOL    MW413034   3.891   3.115   6.239  0.1227 -0.0962  0.3215
 3316SOL     OW13035   3.738   4.480   4.726  0.8198 -0.0985 -0.3674
 3316SOL    HW213036   3.656   4.454   4.769  1.0896 -0.2066  0.0942
 3316SOL    HW313037   3.726   4.573   4.707  0.3742 -0.2445 -0.8032
 3316SOL    MW413038   3.726   4.489   4.729  0.2894  0.0490  0.8231
 3317SOL     OW13039   5.761   5.028   5.088 -0.4639 -0.1907  0.0448
 3317SOL    HW213040   5.816   5.085   5.141  0.7398 -0.2007 -1.1177
 3317SOL    HW313041   5.674   5.033   5.127  0.1491  0.6005  1.3516
 3317SOL    MW413042   5.757   5.036   5.100 -1.0537 -0.3316  0.5781
 3318SOL     OW13043   3.894   2.621   5.786 -0.1606  0.1036  0.4613
 3318SOL    HW213044   3.827   2.581   5.730 -0.0486 -0.7702  0.9316
 3318SOL    HW313045   3.953   2.549   5.808  0.4515  0.6845  0.7593
 3318SOL    MW413046   3.893   2.606   5.781 -0.4760 -0.5781 -0.6942
 3319SOL     OW13047   2.230   5.625   1.578 -0.3668  0.0276 -0.3535
 3319SOL    HW213048   2.202   5.602   1.489 -0.8475 -1.2384  0.0928
 3319SOL    HW313049   2.262   5.714   1.571 -1.0382  0.1967 -1.6658
 3319SOL    MW413050   2.230   5.634   1.566 -0.1545  0.3284  0.0584
 3320SOL     OW13051   1.269   0.833   5.849  0.2608  0.0968  0.3332
 3320SOL    HW213052   1.345   0.780   5.823  1.7492  0.1306  3.9700
 3320SOL    HW313053   1.303   0.891   5.918 -2.7343  1.3285  0.9316
 3320SOL    MW413054   1.284   0.834   5.855 -0.5952  0.2790  0.2332
 3321SOL     OW13055   2.195   2.108   3.957  0.3177 -0.0841 -0.6592
 3321SOL    HW213056   2.149   2.121   4.040 -0.4061  0.0969 -1.0840
 3321SOL    HW313057   2.286   2.091   3.983  0.1879  0.3937  0.1492
 3321SOL    MW413058   2.201   2.108   3.972  0.1815  0.2335 -0.9127
 3322SOL     OW13059   0.087   2.522   4.445 -0.2332 -0.4393  0.1825
 3322SOL    HW213060   0.105   2.429   4.431 -0.2847 -0.1955 -1.8784
 3322SOL    HW313061   0.173   2.560   4.465 -0.1403 -0.8585  0.5906
 3322SOL    MW413062   0.101   2.514   4.446 -0.1123 -0.0025  0.1502
 3323SOL     OW13063   2.020   3.518   0.863 -0.0144 -0.6153 -0.4117
 3323SOL    HW213064   2.115   3.514   0.872  0.2903  2.8106 -0.7149
 3323SOL    HW313065   2.004   3.507   0.769  0.3016  0.5933 -0.6249
 3323SOL    MW413066   2.030   3.516   0.852  0.2445 -0.4673 -0.7750
 3324SOL     OW13067   2.110   4.050   2.180  0.2547  0.8442  0.4333
 3324SOL    HW213068   2.186   4.061   2.123  1.2976  3.0153  2.0921
 3324SOL    HW313069   2.118   3.961   2.214  0.9011  0.3445 -0.9489
 3324SOL    MW413070   2.121   4.040   2.177  0.3098 -0.8109 -0.3513
 3325SOL     OW13071   5.334   4.653   0.144  0.5587 -0.3125  0.0717
 3325SOL    HW213072   5.389   4.713   0.194  0.6143 -0.3312  0.0331
 3325SOL    HW313073   5.349   4.677   0.052 -0.0779  0.1872  0.0949
 3325SOL    MW413074   5.343   4.664   0.138  0.6052 -0.0799  0.2386
 3326SOL     OW13075   4.773   5.297   5.098 -0.2312  0.1155 -0.3154
 3326SOL    HW213076   4.725   5.214   5.106  2.1803 -1.2566  1.0287
 3326SOL    HW313077   4.832   5.283   5.024  0.7363  0.3271  0.4042
 3326SOL    MW413078   4.774   5.284   5.089  0.2346  0.0842  0.9629
 3327SOL     OW13079   0.544   4.355   3.883  0.1689  0.1467  0.1917
 3327SOL    HW213080   0.485   4.403   3.825 -1.9598 -1.6010  0.7718
 3327SOL    HW313081   0.516   4.264   3.875  1.9654 -0.5754  1.5068
 3327SOL    MW413082   0.532   4.349   3.874 -0.5253  0.8035 -0.4385
 3328SOL     OW13083   3.676   2.392   6.313  0.0373 -0.1441  0.1435
 3328SOL    HW213084   3.651   2.444   6.390  1.0750  0.8398 -0.1561
 3328SOL    HW313085   3.747   2.337   6.344  0.2527  0.0358 -0.0241
 3328SOL    MW413086   3.682   2.392   6.327  0.0317  0.1837  0.1402
 3329SOL     OW13087   0.606   0.905   1.752 -0.0230  0.7405 -0.3866
 3329SOL    HW213088   0.518   0.941   1.765  0.0807  0.4989  1.0814
 3329SOL    HW313089   0.656   0.935   1.827  1.3060  1.2493 -1.4363
 3329SOL    MW413090   0.601   0.914   1.763 -0.1153 -0.5354 -1.1285
 3330SOL     OW13091   3.840   6.206   5.863  0.4193  0.3605 -0.2057
 3330SOL    HW213092   3.790   6.233   5.940  2.0085  0.3534  0.8786
 3330SOL    HW313093   3.866   6.288   5.822  2.7972  0.5497  1.4698
 3330SOL    MW413094   3.837   6.220   5.868  0.6245 -0.1513  0.3648
 3331SOL     OW13095   0.687   4.263   4.679  0.1546  0.0722  0.1977
 3331SOL    HW213096   0.677   4.343   4.627  2.1445  1.1092  1.2608
 3331SOL    HW313097   0.769   4.224   4.647  1.1408  0.4596  2.0993
 3331SOL    MW413098   0.697   4.268   4.668 -0.0679 -0.2234  0.7150
 3332SOL     OW13099   0.903   5.142   2.068  0.0128 -0.0807  0.6039
 3332SOL    HW213100   0.907   5.067   2.126 -0.9723 -2.2977 -1.9750
 3332SOL    HW313101   0.809   5.161   2.060  0.0284 -0.4820 -0.9301
 3332SOL    MW413102   0.891   5.135   2.075  0.0999  0.5720  0.3127
 3333SOL     OW13103   1.208   4.756   5.383  0.3412  0.1204  0.6785
 3333SOL    HW213104   1.300   4.748   5.406  0.9695 -1.0582 -1.8198
 3333SOL    HW313105   1.208   4.766   5.287 -2.1303 -0.1729  0.5696
 3333SOL    MW413106   1.220   4.757   5.373 -0.6324  0.4149 -0.0176
 3334SOL     OW13107   1.506   1.594   3.592  0.2302 -0.5180  0.2310
 3334SOL    HW213108   1.585   1.634   3.556 -0.9012 -1.1653 -3.2889
 3334SOL    HW313109   1.454   1.668   3.624  1.6199  0.0106  1.4084
 3334SOL    MW413110   1.509   1.609   3.592  0.0640 -0.0451  0.1722
 3335SOL     OW13111   0.043   5.123   5.395  0.0557  0.5067 -0.3541
 3335SOL    HW213112  -0.047   5.150   5.374  0.0931  0.2239 -0.9010
 3335SOL    HW313113   0.033   5.034   5.429  0.0551  0.7504  0.2849
 3335SOL    MW413114   0.030   5.115   5.397  0.4693 -0.0099 -0.3078
 3336SOL     OW13115   3.624   2.357   1.652  0.0670  0.6233  0.1224
 3336SOL    HW213116   3.681   2.427   1.621  0.3700  0.1346 -0.4549
 3336SOL    HW313117   3.642   2.284   1.593 -1.1168  0.4374 -0.0305
 3336SOL    MW413118   3.634   2.357   1.640 -0.4431 -0.1884 -0.5040
 3337SOL     OW13119   2.175   0.544   5.088  0.3189 -0.6138  0.3576
 3337SOL    HW213120   2.241   0.479   5.111  1.2547  0.6019  1.2522
 3337SOL    HW313121   2.149   0.584   5.171 -0.9282 -0.4712 -0.0684
 3337SOL    MW413122   2.180   0.541   5.102  0.4972 -0.2691  0.0365
 3338SOL     OW13123   3.976   0.968   4.644 -0.3119  0.2251 -0.1310
 3338SOL    HW213124   3.906   1.004   4.589  0.5839  0.7117 -0.9930
 3338SOL    HW313125   3.938   0.890   4.684 -1.4220  0.6209 -0.3850
 3338SOL    MW413126   3.962   0.962   4.642  0.5554  0.0107 -0.2344
 3339SOL     OW13127   0.787   3.265   2.591 -0.1925  0.0941  0.2144
 3339SOL    HW213128   0.753   3.353   2.575  0.6632  0.4045  0.0903
 3339SOL    HW313129   0.744   3.237   2.671 -0.0318  0.8536  0.5704
 3339SOL    MW413130   0.777   3.273   2.599  0.2425 -0.2608 -0.5149
 3340SOL     OW13131   2.069   3.890   5.895  0.4598  0.4089  0.8141
 3340SOL    HW213132   2.022   3.869   5.814 -0.0275 -1.1726  1.4957
 3340SOL    HW313133   2.149   3.934   5.864  1.1964 -1.8207 -0.6642
 3340SOL    MW413134   2.073   3.893   5.880  0.3208 -0.3474 -0.1195
 3341SOL     OW13135   5.601   3.407   2.845  0.5972  0.1367  0.0161
 3341SOL    HW213136   5.693   3.410   2.873  0.7086  0.0137 -0.3366
 3341SOL    HW313137   5.599   3.343   2.775  0.3428  0.5515 -0.3603
 3341SOL    MW413138   5.613   3.399   2.840  0.2008 -0.3188 -0.4609
 3342SOL     OW13139   2.547   2.618   1.914 -0.5492  0.5627  0.3490
 3342SOL    HW213140   2.548   2.522   1.914 -2.8604  0.4706 -1.3458
 3342SOL    HW313141   2.498   2.642   1.836  0.1333  3.1641  0.6256
 3342SOL    MW413142   2.541   2.609   1.904 -0.1005  0.6347  0.7347
 3343SOL     OW13143   6.163   1.801   5.750 -0.2079 -0.2738 -0.0623
 3343SOL    HW213144   6.106   1.844   5.813  1.3138  1.3575  0.2760
 3343SOL    HW313145   6.200   1.727   5.797 -0.4377 -0.1034  0.3884
 3343SOL    MW413146   6.161   1.797   5.764 -0.8267 -0.3065 -0.3515
 3344SOL     OW13147   0.138   5.161   0.995  0.2533  0.3044 -0.0555
 3344SOL    HW213148   0.168   5.233   1.051  0.3621 -0.6224  1.1157
 3344SOL    HW313149   0.184   5.084   1.028 -0.0575 -0.3685 -1.1228
 3344SOL    MW413150   0.148   5.160   1.006 -0.2194 -0.1868  0.2090
 3345SOL     OW13151   1.945   4.191   2.340  0.2647 -0.2399  0.0030
 3345SOL    HW213152   1.966   4.155   2.427 -0.0447  0.3231  0.3146
 3345SOL    HW313153   1.989   4.132   2.279  1.5671  0.0918  0.5897
 3345SOL    MW413154   1.954   4.178   2.344  0.0396  0.0509  0.0630
 3346SOL     OW13155   5.785   2.624   0.751 -0.4682 -0.0630  0.1189
 3346SOL    HW213156   5.754   2.662   0.669 -3.3792  1.1297  1.6508
 3346SOL    HW313157   5.870   2.666   0.766 -0.4840  0.6690 -1.6094
 3346SOL    MW413158   5.792   2.635   0.742 -0.3810 -0.6009  0.1184
 3347SOL     OW13159   5.612   3.922   0.156 -0.4656 -0.5572  0.7376
 3347SOL    HW213160   5.652   3.871   0.227  1.7016 -0.0704 -0.0451
 3347SOL    HW313161   5.557   3.986   0.201  1.4039  0.2128  2.0903
 3347SOL    MW413162   5.610   3.924   0.171 -0.3736 -0.1922  0.9889
 3348SOL     OW13163   3.513   3.218   1.361 -0.0260  0.0883  0.0071
 3348SOL    HW213164   3.441   3.190   1.417 -0.3206 -2.6637 -1.5760
 3348SOL    HW313165   3.591   3.209   1.416 -0.4636 -1.0853  0.4687
 3348SOL    MW413166   3.514   3.213   1.376  0.0928 -0.9874  0.2779
 3349SOL     OW13167   6.343   5.429   3.378 -0.1881  0.1362  0.7674
 3349SOL    HW213168   6.348   5.354   3.319  0.7972  1.4588 -0.8942
 3349SOL    HW313169   6.433   5.440   3.410 -0.0604  1.2995  0.0657
 3349SOL    MW413170   6.356   5.420   3.375 -0.2329 -0.5434  0.3735
 3350SOL     OW13171   1.361   2.834   3.533  0.2487 -0.3842 -0.1814
 3350SOL    HW213172   1.270   2.804   3.543  0.1248  0.0999  0.1594
 3350SOL    HW313173   1.373   2.843   3.438 -0.3237  0.3543 -0.1921
 3350SOL    MW413174   1.351   2.831   3.522  0.0404 -0.0584  0.0013
 3351SOL     OW13175   0.813   2.453   2.580  0.0144 -0.1177 -0.0891
 3351SOL    HW213176   0.782   2.535   2.542 -0.2864  0.1286  0.6740
 3351SOL    HW313177   0.860   2.409   2.508  0.0116  0.6287 -0.5518
 3351SOL    MW413178   0.815   2.458   2.565  0.1755 -0.2378 -0.0472
 3352SOL     OW13179   1.597   2.953   4.322  0.1803  0.0907 -0.2593
 3352SOL    HW213180   1.577   2.935   4.230 -1.2729  1.3963 -0.2512
 3352SOL    HW313181   1.511   2.955   4.365  0.8122 -0.0914  1.0485
 3352SOL    MW413182   1.583   2.951   4.315  0.2128  0.6649 -0.4820
 3353SOL     OW13183   1.141   1.323   3.073 -0.4980  0.1870  0.0955
 3353SOL    HW213184   1.223   1.372   3.075  0.4177 -1.2275 -0.7032
 3353SOL    HW313185   1.073   1.387   3.095  0.7969  1.4275  0.5915
 3353SOL    MW413186   1.143   1.338   3.076 -0.8963 -0.0809  0.3950
 3354SOL     OW13187   1.184   0.949   4.328  0.0355  0.0685 -0.1143
 3354SOL    HW213188   1.207   0.867   4.285  3.1144  0.5300  0.4725
 3354SOL    HW313189   1.198   1.016   4.260 -0.9842  0.2884 -0.1323
 3354SOL    MW413190   1.189   0.947   4.313 -0.5141 -0.1037  0.1220
 3355SOL     OW13191   2.156   6.068   1.479 -0.0799  0.2778 -0.1246
 3355SOL    HW213192   2.065   6.051   1.504 -0.6827  0.9521 -1.7089
 3355SOL    HW313193   2.172   6.010   1.405  0.6484  0.4440 -0.1053
 3355SOL    MW413194   2.146   6.058   1.472 -0.1056  0.0889 -0.1994
 3356SOL     OW13195   1.490   5.439   6.230  0.6839 -0.3015 -0.8258
 3356SOL    HW213196   1.531   5.356   6.202  0.9564 -0.3274 -0.3616
 3356SOL    HW313197   1.564   5.494   6.256  0.4059 -0.6314  0.7949
 3356SOL    MW413198   1.505   5.435   6.230 -0.1443  0.3303  0.4853
 3357SOL     OW13199   5.375   0.922   3.272  0.1665  0.0741  0.5789
 3357SOL    HW213200   5.337   0.934   3.359  0.9144 -1.5528  1.1610
 3357SOL    HW313201   5.381   1.011   3.237 -0.8056  0.6945  1.8895
 3357SOL    MW413202   5.371   0.936   3.279 -0.3674  0.3600  0.1718
 3358SOL     OW13203   6.238   2.911   5.835  0.6772 -0.0401  0.5338
 3358SOL    HW213204   6.144   2.930   5.834  0.8153  0.6916 -0.1869
 3358SOL    HW313205   6.262   2.916   5.928 -0.2183 -1.5002  0.8717
 3358SOL    MW413206   6.229   2.914   5.847  0.0648 -0.2546  0.0796
 3359SOL     OW13207   4.423   2.650   1.881 -0.1219  0.1595  0.2430
 3359SOL    HW213208   4.436   2.628   1.789 -1.4551  0.0169  0.0593
 3359SOL    HW313209   4.475   2.729   1.894 -0.3925  0.5362 -0.8107
 3359SOL    MW413210   4.431   2.658   1.870  0.0198  0.5241  0.2959
 3360SOL     OW13211   2.812   5.569   3.897  0.0979  0.1622  0.3745
 3360SOL    HW213212   2.855   5.627   3.834  2.0658 -0.7314  0.8282
 3360SOL    HW313213   2.814   5.483   3.856  0.5383 -0.2507  1.2318
 3360SOL    MW413214   2.818   5.565   3.883  0.6682  0.2013  0.1849
 3361SOL     OW13215   3.912   3.922   2.179  0.0321 -0.3884  0.0869
 3361SOL    HW213216   4.005   3.937   2.199 -0.2928  1.9104  0.1169
 3361SOL    HW313217   3.905   3.938   2.085 -0.3909 -0.2470  0.1404
 3361SOL    MW413218   3.924   3.926   2.169  0.2661 -0.6194 -0.3686
 3362SOL     OW13219   0.320   6.282   2.153 -0.5552 -0.1942 -0.0074
 3362SOL    HW213220   0.398   6.298   2.206  0.3136 -1.8061 -0.7049
 3362SOL    HW313221   0.287   6.198   2.185 -2.4352  0.7849  0.7386
 3362SOL    MW413222   0.326   6.273   2.164 -0.2950  0.6955  0.1819
 3363SOL     OW13223   0.853   2.286   0.105  0.2075  0.2579  0.0200
 3363SOL    HW213224   0.791   2.216   0.122 -0.1313  0.1895 -1.4157
 3363SOL    HW313225   0.856   2.294   0.010  0.6455  1.8277  0.1362
 3363SOL    MW413226   0.845   2.278   0.095  0.2349  0.6663  0.2552
 3364SOL     OW13227   5.576   0.732   3.384  0.4166  0.0429 -0.2863
 3364SOL    HW213228   5.546   0.656   3.334  2.3390 -1.8569  1.2553
 3364SOL    HW313229   5.544   0.807   3.334 -0.7704 -1.7342 -2.4076
 3364SOL    MW413230   5.567   0.732   3.371  0.1470 -0.3575  0.3035
 3365SOL     OW13231   5.536   4.030   3.574 -0.4806 -0.1055  0.3975
 3365SOL    HW213232   5.559   4.087   3.647 -0.6398 -0.5368  0.7903
 3365SOL    HW313233   5.620   3.992   3.545  0.0900  2.5033 -1.7671
 3365SOL    MW413234   5.550   4.032   3.580 -0.2229 -0.3628 -0.4131
 3366SOL     OW13235   4.109   0.585   3.538  0.3122  0.2167 -0.0261
 3366SOL    HW213236   4.098   0.496   3.505  1.7228 -0.3991  1.0447
 3366SOL    HW313237   4.115   0.639   3.460  2.2463 -1.0159 -0.7973
 3366SOL    MW413238   4.108   0.580   3.523 -0.0405  0.6093 -0.3724
 3367SOL     OW13239   5.395   3.104   3.261  0.0802 -0.0406 -0.9053
 3367SOL    HW213240   5.470   3.140   3.307 -1.3207  2.3528 -0.3743
 3367SOL    HW313241   5.392   3.151   3.178 -2.5818  2.3277  0.3642
 3367SOL    MW413242   5.404   3.115   3.256  0.4608 -0.2697  0.1006
 3368SOL     OW13243   2.905   0.848   1.975 -0.0131  0.2701  0.3859
 3368SOL    HW213244   2.836   0.801   1.928  0.1358  0.5778 -0.1384
 3368SOL    HW313245   2.972   0.782   1.991 -0.9393 -0.3435  1.9752
 3368SOL    MW413246   2.905   0.833   1.971 -0.3547  0.3256 -0.1982
 3369SOL     OW13247   3.176   5.081   3.339 -0.7501  0.5255 -0.1015
 3369SOL    HW213248   3.237   5.011   3.316  0.5502  1.3642  0.6663
 3369SOL    HW313249   3.130   5.100   3.257 -1.3038 -1.3510 -0.2715
 3369SOL    MW413250   3.178   5.074   3.325  0.2806 -0.7086  0.3094
 3370SOL     OW13251   0.449   6.119   4.490 -0.0004  0.1885 -0.4667
 3370SOL    HW213252   0.536   6.107   4.453 -0.0781  0.8029 -0.8681
 3370SOL    HW313253   0.396   6.049   4.451  0.2444 -0.0116 -0.4409
 3370SOL    MW413254   0.453   6.108   4.480  0.1876  0.1829 -0.1422
 3371SOL     OW13255   5.919   5.908   0.857 -0.2101 -0.0423 -0.6819
 3371SOL    HW213256   5.982   5.843   0.889  0.5557  1.2138  0.4411
 3371SOL    HW313257   5.887   5.870   0.775  0.5452 -1.6233 -0.3023
 3371SOL    MW413258   5.923   5.894   0.851  0.1314 -0.0116  0.3506
 3372SOL     OW13259   0.119   2.488   0.263  0.0674 -0.1542 -0.1442
 3372SOL    HW213260   0.149   2.568   0.220 -1.4009  0.3674 -0.2423
 3372SOL    HW313261   0.149   2.417   0.205  0.0999  0.4059 -0.8288
 3372SOL    MW413262   0.127   2.489   0.250 -0.5926 -0.3064 -0.1937
 3373SOL     OW13263   1.509   1.693   2.148  0.5311 -0.3394  0.0885
 3373SOL    HW213264   1.437   1.652   2.100 -0.3002 -2.8557  3.0861
 3373SOL    HW313265   1.588   1.661   2.105 -0.0238  1.5832 -2.5797
 3373SOL    MW413266   1.510   1.683   2.136  0.7968 -0.9010 -0.0271
 3374SOL     OW13267   0.541   5.280   2.949  0.0590  0.2403 -0.1944
 3374SOL    HW213268   0.618   5.332   2.926 -0.8629  1.1866 -1.2511
 3374SOL    HW313269   0.474   5.307   2.886 -0.4111 -2.3885 -0.9289
 3374SOL    MW413270   0.542   5.291   2.937 -0.0381  0.1752 -0.4076
 3375SOL     OW13271   5.909   2.408   2.065 -0.4643  0.0075 -0.4974
 3375SOL    HW213272   5.871   2.412   2.152 -0.5953  1.1061 -0.5946
 3375SOL    HW313273   5.995   2.370   2.078 -0.6043 -0.1228  0.0696
 3375SOL    MW413274   5.915   2.403   2.078 -0.1033 -0.2634  0.6657
 3376SOL     OW13275   4.836   4.228   5.723  0.2816 -0.2040 -0.3866
 3376SOL    HW213276   4.868   4.268   5.643  0.4220  1.2268  0.3551
 3376SOL    HW313277   4.754   4.273   5.742  0.0328 -0.8212  0.0555
 3376SOL    MW413278   4.829   4.239   5.715  0.4403 -0.0218 -0.9450
 3377SOL     OW13279   0.378   2.299   4.001 -0.6068  0.2830  0.0669
 3377SOL    HW213280   0.396   2.312   4.094  0.4377 -0.1060 -0.0739
 3377SOL    HW313281   0.350   2.385   3.970  1.4126  1.0468  0.2317
 3377SOL    MW413282   0.376   2.312   4.009  0.2395  0.2953  0.3127
 3378SOL     OW13283   1.245   4.624   1.427 -0.4062 -0.0868 -0.1995
 3378SOL    HW213284   1.222   4.697   1.484 -1.0326 -0.5693  0.1877
 3378SOL    HW313285   1.231   4.546   1.481  1.2825 -0.4712 -0.2496
 3378SOL    MW413286   1.240   4.623   1.442 -1.0592 -0.4619 -0.0858
 3379SOL     OW13287   3.382   1.242   6.148  0.0656 -0.3098 -0.0888
 3379SOL    HW213288   3.313   1.181   6.177  0.2579 -0.1807  0.6704
 3379SOL    HW313289   3.464   1.201   6.176  0.2472 -0.0998 -0.3089
 3379SOL    MW413290   3.384   1.229   6.155 -0.2592 -0.2478 -0.1648
 3380SOL     OW13291   3.054   2.700   1.661 -0.4035  0.5052 -0.9837
 3380SOL    HW213292   3.149   2.688   1.656 -0.5415 -1.2214 -0.2041
 3380SOL    HW313293   3.042   2.769   1.726  0.3169  0.9965 -1.3623
 3380SOL    MW413294   3.065   2.708   1.669 -0.0831  0.3388  0.3262
 3381SOL     OW13295   0.499   3.732   1.635  0.1998 -0.4965  0.0428
 3381SOL    HW213296   0.419   3.764   1.593 -0.7957 -0.7960  1.6413
 3381SOL    HW313297   0.528   3.805   1.690 -1.3868 -1.7142  2.7342
 3381SOL    MW413298   0.492   3.746   1.637 -0.2149  0.4591  0.2963
 3382SOL     OW13299   6.349   6.259   2.293  0.1466  0.5348  0.0604
 3382SOL    HW213300   6.399   6.212   2.360 -0.1818  0.9078  0.5798
 3382SOL    HW313301   6.387   6.347   2.293  0.3965  0.4255 -0.5144
 3382SOL    MW413302   6.360   6.265   2.302  0.5581 -0.3391 -0.2513
 3383SOL     OW13303   1.121   4.094   1.518 -0.0262 -0.1614  0.1496
 3383SOL    HW213304   1.130   4.057   1.430 -0.7470 -0.0214  0.0116
 3383SOL    HW313305   1.113   4.188   1.504  1.3503  0.0254  0.4706
 3383SOL    MW413306   1.121   4.102   1.505 -0.1519  1.1020  0.0346
 3384SOL     OW13307   4.521   4.738   0.862 -0.0241 -0.1764  0.1076
 3384SOL    HW213308   4.541   4.677   0.792 -1.6871 -1.9114  1.0511
 3384SOL    HW313309   4.536   4.689   0.943  1.0800  1.5176  1.0126
 3384SOL    MW413310   4.526   4.724   0.864  0.5067 -0.1276 -0.0869
 3385SOL     OW13311   1.610   3.698   2.871 -0.4583 -0.1787  0.2231
 3385SOL    HW213312   1.598   3.628   2.807 -0.9632 -1.5915  1.7818
 3385SOL    HW313313   1.534   3.692   2.929 -0.2419  1.3378  0.7204
 3385SOL    MW413314   1.599   3.688   2.871  0.1810  0.1572 -0.3700
 3386SOL     OW13315   6.051   0.257   1.506  0.1206  0.3890  0.1151
 3386SOL    HW213316   6.010   0.209   1.434  0.9588  0.9104 -0.7338
 3386SOL    HW313317   6.010   0.221   1.585  1.6452 -2.7003 -0.3595
 3386SOL    MW413318   6.040   0.246   1.507 -0.4199 -0.5352  0.1886
 3387SOL     OW13319   3.418   5.184   2.136 -0.5366 -0.0044  0.1367
 3387SOL    HW213320   3.501   5.181   2.184 -0.7581  0.6442  0.5671
 3387SOL    HW313321   3.421   5.108   2.079  0.0872 -0.3316  0.5963
 3387SOL    MW413322   3.430   5.174   2.135 -0.8693 -0.4679 -0.8352
 3388SOL     OW13323   4.502   1.458   3.537 -0.2104 -0.8511  0.2106
 3388SOL    HW213324   4.494   1.502   3.453  1.6302  0.5542  0.7092
 3388SOL    HW313325   4.445   1.508   3.596  0.0614 -0.5795  0.2451
 3388SOL    MW413326   4.493   1.470   3.534  0.4915 -0.3140  0.2048
 3389SOL     OW13327   1.250   2.457   2.030 -0.2907  0.1681  0.5628
 3389SOL    HW213328   1.244   2.531   1.971 -0.8939 -0.2118  0.1380
 3389SOL    HW313329   1.217   2.383   1.980  1.0112 -0.5511  0.7200
 3389SOL    MW413330   1.245   2.457   2.016 -0.4054 -0.1198 -0.1592
 3390SOL     OW13331   1.094   5.906   1.345 -0.1910  0.5738  0.0897
 3390SOL    HW213332   1.097   5.962   1.423  1.4426  1.6176 -0.6732
 3390SOL    HW313333   1.070   5.965   1.274  1.3907  0.3193 -0.7021
 3390SOL    MW413334   1.091   5.921   1.346 -0.3541 -0.1839  0.2656
 3391SOL     OW13335   1.612   1.134   2.436 -0.9164 -0.2537 -0.1644
 3391SOL    HW213336   1.599   1.041   2.419  1.7082 -0.4807 -1.3657
 3391SOL    HW313337   1.645   1.138   2.526  2.8009 -1.0152 -1.3388
 3391SOL    MW413338   1.615   1.123   2.446 -0.2867  0.3892 -0.0111
 3392SOL     OW13339   0.492   2.748   0.470  0.3457  0.0676 -0.4007
 3392SOL    HW213340   0.480   2.672   0.413 -0.5667  0.2443 -0.4486
 3392SOL    HW313341   0.488   2.712   0.559 -0.7922  0.1438 -0.4070
 3392SOL    MW413342   0.490   2.733   0.475  0.0719 -0.0099  0.0113
 3393SOL     OW13343   5.769   5.300   2.585  0.0186 -0.0817  0.0197
 3393SOL    HW213344   5.754   5.323   2.676 -1.9034 -0.0005 -0.2741
 3393SOL    HW313345   5.684   5.266   2.555  1.2202 -2.2535 -1.1084
 3393SOL    MW413346   5.756   5.298   2.593  0.7844 -0.1069  0.1904
 3394SOL     OW13347   1.133   5.402   4.118 -0.4266 -0.7880 -0.1743
 3394SOL    HW213348   1.129   5.482   4.065  0.3328 -1.3660 -1.1365
 3394SOL    HW313349   1.091   5.426   4.200  1.7225  1.3200  0.4488
 3394SOL    MW413350   1.127   5.416   4.122 -0.4996 -0.4631 -0.3459
 3395SOL     OW13351   3.479   5.281   0.475 -0.2018 -0.3465 -0.2175
 3395SOL    HW213352   3.421   5.321   0.540  1.0477  1.6879 -0.2567
 3395SOL    HW313353   3.436   5.296   0.391  0.0363  0.5329 -0.1866
 3395SOL    MW413354   3.466   5.288   0.473  0.9493 -0.2335 -0.2276
 3396SOL     OW13355   3.427   2.831   5.573  0.4184  0.0169 -0.0008
 3396SOL    HW213356   3.371   2.872   5.506  0.9989 -0.7907 -1.0103
 3396SOL    HW313357   3.509   2.880   5.569  1.3661 -1.5682 -1.6920
 3396SOL    MW413358   3.430   2.843   5.563  0.1027  0.2628 -0.2601
 3397SOL     OW13359   0.403   3.846   6.174 -0.3560  0.2492 -0.5222
 3397SOL    HW213360   0.473   3.785   6.200 -0.6509 -0.1430 -0.6348
 3397SOL    HW313361   0.442   3.900   6.106 -0.2026 -0.0616 -0.6862
 3397SOL    MW413362   0.417   3.845   6.169  0.0129 -0.1865 -0.1464
 3398SOL     OW13363   1.487   2.042   0.188 -0.2876 -0.4429 -0.3072
 3398SOL    HW213364   1.423   2.091   0.137  0.2614  0.8228  0.1607
 3398SOL    HW313365   1.521   2.106   0.251 -0.6693 -1.8499  1.3973
 3398SOL    MW413366   1.483   2.057   0.190 -0.0354  0.5686 -0.1392
 3399SOL     OW13367   3.752   2.291   4.459 -0.4231 -0.0604 -0.2567
 3399SOL    HW213368   3.673   2.238   4.442 -0.9589  0.4952  0.4363
 3399SOL    HW313369   3.824   2.230   4.447 -1.0126 -0.8548  0.1141
 3399SOL    MW413370   3.751   2.276   4.455 -0.8446  0.5493 -0.3243
 3400SOL     OW13371   0.116   3.359   1.048 -0.1812  0.3003 -0.4209
 3400SOL    HW213372   0.179   3.430   1.057 -0.6569  0.6177  0.5248
 3400SOL    HW313373   0.085   3.342   1.138 -0.2380 -0.9464 -0.6518
 3400SOL    MW413374   0.120   3.366   1.061  0.0994  0.4077  0.0217
 3401SOL     OW13375   2.038   1.528   0.246  0.2351  0.3426  0.0207
 3401SOL    HW213376   2.065   1.438   0.227  1.2586  0.8406 -1.0867
 3401SOL    HW313377   2.067   1.544   0.336 -0.6294 -0.6664  0.4844
 3401SOL    MW413378   2.046   1.519   0.255 -0.5473 -0.5321  0.4998
 3402SOL     OW13379   0.641   1.363   6.080 -0.7254  0.1505 -0.0940
 3402SOL    HW213380   0.548   1.377   6.097 -0.3613  0.8830  1.4926
 3402SOL    HW313381   0.649   1.363   5.985 -2.5746 -1.5733 -0.3007
 3402SOL    MW413382   0.630   1.365   6.070  0.1753 -0.1880 -0.5461
 3403SOL     OW13383   4.629   3.785   0.395  0.4067 -0.3532 -0.1836
 3403SOL    HW213384   4.699   3.783   0.331 -0.6941  1.2339 -1.5343
 3403SOL    HW313385   4.549   3.772   0.344 -0.4018 -0.6924  1.1085
 3403SOL    MW413386   4.627   3.783   0.380  0.0442 -0.2879  0.3053
 3404SOL     OW13387   4.048   3.528   3.734 -0.1222 -0.6275  0.3337
 3404SOL    HW213388   3.972   3.480   3.700 -0.3750  0.7420 -1.1791
 3404SOL    HW313389   4.039   3.525   3.829 -2.9544  0.8029  0.1912
 3404SOL    MW413390   4.037   3.521   3.742 -0.0878  0.4654 -0.0114
 3405SOL     OW13391   1.062   4.409   3.765  0.4041 -0.1203  0.8440
 3405SOL    HW213392   1.017   4.327   3.787  0.1421  0.4498  2.6216
 3405SOL    HW313393   0.998   4.477   3.785  1.3553  0.6105  1.4775
 3405SOL    MW413394   1.047   4.407   3.771  0.2167 -0.4366 -0.2521
 3406SOL     OW13395   5.388   0.802   6.337 -0.4964 -0.6218 -0.6590
 3406SOL    HW213396   5.467   0.774   6.383  0.9913  2.3150 -1.1897
 3406SOL    HW313397   5.329   0.833   6.406  0.2288  0.3132 -0.4387
 3406SOL    MW413398   5.391   0.802   6.352  0.2420 -0.4798  0.1419
 3407SOL     OW13399   1.861   1.908   0.190  0.6410 -0.5922 -0.1540
 3407SOL    HW213400   1.835   1.982   0.135  0.0163 -0.1892  0.6600
 3407SOL    HW313401   1.779   1.865   0.213  0.5584  0.8431  2.6621
 3407SOL    MW413402   1.847   1.912   0.186  0.4619  0.1740 -0.1193
 3408SOL     OW13403   1.385   3.115   3.611 -0.5589  0.0401 -0.5295
 3408SOL    HW213404   1.399   3.023   3.587 -1.5653 -0.0730 -0.7403
 3408SOL    HW313405   1.314   3.144   3.554 -2.2804  0.0964  1.5102
 3408SOL    MW413406   1.378   3.107   3.600  0.1575  0.5485  0.1530
 3409SOL     OW13407   0.684   6.325   5.224 -0.7130 -0.0433 -0.4619
 3409SOL    HW213408   0.605   6.285   5.187 -0.3990 -1.8715  0.6984
 3409SOL    HW313409   0.751   6.312   5.157 -1.3218  1.3675 -1.3851
 3409SOL    MW413410   0.682   6.318   5.210 -0.4570  0.0587  0.1870
 3410SOL     OW13411   0.346   5.637   5.807 -0.4287 -0.3368 -0.3229
 3410SOL    HW213412   0.362   5.625   5.901  0.7434 -0.8043 -0.5640
 3410SOL    HW313413   0.423   5.684   5.775 -0.1485 -1.3899 -1.2821
 3410SOL    MW413414   0.359   5.642   5.815 -0.4494  0.2705  0.3150
 3411SOL     OW13415   2.932   5.625   0.930 -0.0250  0.7255  0.4526
 3411SOL    HW213416   2.956   5.603   0.840 -0.3471 -0.1482  0.5667
 3411SOL    HW313417   2.988   5.569   0.984 -0.5230  0.5344  0.7717
 3411SOL    MW413418   2.943   5.615   0.925  0.1508  0.1898  0.0852
 3412SOL     OW13419   2.019   5.846   6.328 -0.4787  0.2112 -0.1341
 3412SOL    HW213420   2.014   5.942   6.330 -2.3183  0.1540 -0.6027
 3412SOL    HW313421   2.083   5.824   6.396 -0.7841  1.7306  0.6798
 3412SOL    MW413422   2.027   5.856   6.337  0.0773 -0.1044  0.1714
 3413SOL     OW13423   5.678   1.488   0.329  0.2708 -0.3054 -0.6862
 3413SOL    HW213424   5.632   1.565   0.363 -0.0567 -0.9487  0.3738
 3413SOL    HW313425   5.717   1.518   0.247 -0.2867  0.8421 -0.5548
 3413SOL    MW413426   5.677   1.502   0.323  0.1420  0.1028 -0.2445
 3414SOL     OW13427   5.410   1.489   1.540  0.0069 -0.2506  0.4834
 3414SOL    HW213428   5.338   1.443   1.583 -1.0259  1.6752  0.9471
 3414SOL    HW313429   5.367   1.546   1.476  1.2234  0.1115 -0.0428
 3414SOL    MW413430   5.394   1.491   1.537 -0.6156 -0.1764 -0.2887
 3415SOL     OW13431   4.309   1.299   5.197  0.6133 -0.6091  0.0222
 3415SOL    HW213432   4.221   1.285   5.232  0.1639 -1.5622 -1.3932
 3415SOL    HW313433   4.296   1.348   5.116  1.4123 -0.4953 -0.0484
 3415SOL    MW413434   4.296   1.303   5.191 -0.6983  0.1627 -0.0145
 3416SOL     OW13435   5.164   2.453   5.305 -0.2383  0.4163  0.1028
 3416SOL    HW213436   5.248   2.431   5.345  0.0538  1.0751 -0.1372
 3416SOL    HW313437   5.167   2.548   5.294 -0.8552  0.3959 -0.2690
 3416SOL    MW413438   5.175   2.463   5.309  0.5619  0.9836 -0.0272
 3417SOL     OW13439   4.420   3.245   0.268 -0.2368  0.0245 -0.0152
 3417SOL    HW213440   4.413   3.177   0.336  0.6289  0.3280  0.3845
 3417SOL    HW313441   4.396   3.200   0.187 -0.2397 -0.6141  0.3331
 3417SOL    MW413442   4.416   3.230   0.266 -0.1249  0.4118  0.3113
 3418SOL     OW13443   1.912   1.333   0.988  0.2225  0.3948  0.9646
 3418SOL    HW213444   1.889   1.241   1.005  0.7361  0.4266  1.8947
 3418SOL    HW313445   1.876   1.351   0.902  0.9833 -0.9900  0.3164
 3418SOL    MW413446   1.904   1.323   0.979  0.3529  0.5319  0.3201
 3419SOL     OW13447   4.547   4.612   5.336  0.3126  0.3092  0.4889
 3419SOL    HW213448   4.641   4.630   5.335  0.3136  0.3089 -0.1931
 3419SOL    HW313449   4.535   4.548   5.405  0.3250  2.7899  2.9684
 3419SOL    MW413450   4.558   4.606   5.345 -0.0417  0.1382  0.2750
 3420SOL     OW13451   4.732   2.482   2.578  0.0609 -0.2514 -0.0786
 3420SOL    HW213452   4.717   2.390   2.557 -0.4182 -0.4757  1.1606
 3420SOL    HW313453   4.651   2.526   2.552  1.4581  0.4776 -3.8864
 3420SOL    MW413454   4.719   2.476   2.572  0.2104  0.1662  0.2577
 3421SOL     OW13455   3.495   0.057   4.518  0.1276 -0.1337 -0.6168
 3421SOL    HW213456   3.476  -0.037   4.520 -3.4903  0.4245  2.0519
 3421SOL    HW313457   3.498   0.079   4.425 -1.1291 -2.5336 -1.3068
 3421SOL    MW413458   3.493   0.048   4.506  0.0515 -0.5356 -0.3979
 3422SOL     OW13459   1.018   2.580   4.202  0.0950  0.5216 -0.4287
 3422SOL    HW213460   1.014   2.492   4.240  0.4792 -1.7437 -4.9405
 3422SOL    HW313461   0.926   2.606   4.192 -0.0316  0.4904  0.5425
 3422SOL    MW413462   1.005   2.572   4.205 -0.1894  0.0122 -0.7412
 3423SOL     OW13463   2.737   4.563   5.340  0.1237 -0.1000  0.5458
 3423SOL    HW213464   2.750   4.639   5.283  1.2921 -0.7617 -0.1133
 3423SOL    HW313465   2.662   4.586   5.394  0.4616  1.5336  0.3806
 3423SOL    MW413466   2.729   4.576   5.340 -0.2970 -0.8295  0.0085
 3424SOL     OW13467   4.219   3.418   2.176 -0.4224  0.1040 -0.3841
 3424SOL    HW213468   4.174   3.434   2.093  0.0864  0.7208 -0.5594
 3424SOL    HW313469   4.178   3.478   2.237 -1.1232 -0.6933 -0.0612
 3424SOL    MW413470   4.208   3.428   2.173  0.1587  0.2054 -0.1047
 3425SOL     OW13471   5.914   2.727   3.370 -0.5724  0.1235 -0.1978
 3425SOL    HW213472   5.983   2.758   3.310 -0.8311 -0.5178 -0.8464
 3425SOL    HW313473   5.851   2.800   3.372 -0.4119  0.2767 -0.4720
 3425SOL    MW413474   5.915   2.741   3.362  0.1421 -0.5626 -0.0727
 3426SOL     OW13475   2.238   2.251   0.831  1.0153  0.0990 -0.3783
 3426SOL    HW213476   2.159   2.229   0.781  0.8603  0.7579 -0.4345
 3426SOL    HW313477   2.302   2.185   0.806  0.7859  0.1385 -1.0908
 3426SOL    MW413478   2.236   2.240   0.821  0.0760  0.5013 -0.0586
 3427SOL     OW13479   0.010   1.396   6.352  0.6204  0.1401  0.2472
 3427SOL    HW213480   0.032   1.304   6.362  1.2389  0.0134 -1.8445
 3427SOL    HW313481   0.082   1.433   6.301  0.3186  1.7606  0.9221
 3427SOL    MW413482   0.022   1.389   6.346 -0.1457 -0.2567  0.0683
 3428SOL     OW13483   1.742   2.354   3.169  0.3091  0.3148 -0.0527
 3428SOL    HW213484   1.651   2.324   3.172  0.3847  0.0164 -0.6757
 3428SOL    HW313485   1.788   2.299   3.232 -0.2319  1.5072  1.4353
 3428SOL    MW413486   1.736   2.343   3.178  0.3723  0.5557 -0.1245
 3429SOL     OW13487   6.275   3.680   3.711  0.1528  0.1228 -0.1122
 3429SOL    HW213488   6.364   3.709   3.735  0.4316 -0.1868 -0.7498
 3429SOL    HW313489   6.273   3.685   3.616 -0.8808  1.1599 -0.0551
 3429SOL    MW413490   6.287   3.684   3.702 -0.1241 -0.1066 -0.1424
 3430SOL     OW13491   0.678   2.117   1.962 -0.4519  0.1050 -0.0839
 3430SOL    HW213492   0.753   2.080   1.916  0.1504  1.7755 -0.5166
 3430SOL    HW313493   0.669   2.064   2.041  0.9635 -0.3342 -0.1932
 3430SOL    MW413494   0.686   2.105   1.966  0.2289  0.5990  0.1760
 3431SOL     OW13495   4.345   2.135   2.844 -0.0109 -0.0521  0.1338
 3431SOL    HW213496   4.376   2.205   2.786 -0.3996  0.0977  0.1031
 3431SOL    HW313497   4.420   2.076   2.852 -0.2044 -0.5046 -1.1724
 3431SOL    MW413498   4.359   2.137   2.838  0.6454 -0.5159 -0.4174
 3432SOL     OW13499   2.156   5.481   1.047  0.4092 -0.1404 -0.4381
 3432SOL    HW213500   2.245   5.470   1.082  0.2374 -0.0947  0.0103
 3432SOL    HW313501   2.164   5.554   0.985  0.3738  0.8540  0.7042
 3432SOL    MW413502   2.169   5.489   1.043  0.7541 -0.3471 -0.0437
 3433SOL     OW13503   4.438   5.425   1.286  0.4175 -0.1734 -0.1350
 3433SOL    HW213504   4.399   5.451   1.203 -0.9994  0.3933  0.6650
 3433SOL    HW313505   4.392   5.344   1.309 -0.7590  0.7810  1.0781
 3433SOL    MW413506   4.427   5.417   1.278 -1.0052 -0.5770 -0.0381
 3434SOL     OW13507   2.792   1.689   0.836 -0.3636 -0.1524 -0.6672
 3434SOL    HW213508   2.841   1.695   0.754  0.5141  0.0338 -0.1464
 3434SOL    HW313509   2.853   1.721   0.903 -0.2725 -2.2193  0.3513
 3434SOL    MW413510   2.807   1.694   0.834  0.2674  0.4046 -0.7527
 3435SOL     OW13511   1.629   3.812   0.009 -0.0626 -0.6236 -0.1563
 3435SOL    HW213512   1.704   3.815  -0.051 -1.5831  1.1403 -2.1089
 3435SOL    HW313513   1.660   3.757   0.082  2.9405 -0.3437 -1.0510
 3435SOL    MW413514   1.643   3.805   0.011  0.1228  0.2370 -0.0572
 3436SOL     OW13515   1.484   5.387   4.490 -0.0390  0.2478  0.1448
 3436SOL    HW213516   1.533   5.459   4.531 -0.2307  0.3673  0.1627
 3436SOL    HW313517   1.440   5.427   4.415 -0.7147  0.3062  0.5611
 3436SOL    MW413518   1.485   5.402   4.485 -0.0053  0.2621  0.0419
 3437SOL     OW13519   1.026   5.404   1.903  0.1964  0.2977 -0.5051
 3437SOL    HW213520   0.999   5.411   1.994 -1.9888 -1.6023 -0.9162
 3437SOL    HW313521   0.990   5.482   1.861  1.3853  1.2838  0.2355
 3437SOL    MW413522   1.017   5.415   1.909  0.0146  0.4801  0.0561
 3438SOL     OW13523   0.555   4.349   0.978  0.0466 -0.2367 -0.3358
 3438SOL    HW213524   0.511   4.284   0.923 -0.6550 -0.3937  0.3880
 3438SOL    HW313525   0.488   4.415   0.995  1.1331  1.4427 -2.2106
 3438SOL    MW413526   0.541   4.349   0.973 -0.4006 -0.0587 -0.3743
 3439SOL     OW13527   3.484   2.599   0.839  0.5774  0.0095 -0.2593
 3439SOL    HW213528   3.474   2.601   0.935  0.6719  2.3427 -0.2241
 3439SOL    HW313529   3.572   2.565   0.825  1.1248  0.9985  0.5942
 3439SOL    MW413530   3.494   2.595   0.850  0.3806  0.2691  0.3158
 3440SOL     OW13531   4.573   4.146   1.698 -0.2081 -0.3841  0.1727
 3440SOL    HW213532   4.540   4.094   1.625 -1.5086  2.3278 -1.3041
 3440SOL    HW313533   4.658   4.179   1.669  1.0933 -2.3318  1.5034
 3440SOL    MW413534   4.580   4.143   1.685  0.3278  0.1468 -0.1094
 3441SOL     OW13535   0.250   5.015   4.300  0.4316  0.5217 -0.2433
 3441SOL    HW213536   0.186   5.081   4.325 -0.6992 -0.3072 -0.8473
 3441SOL    HW313537   0.264   4.963   4.379 -1.2511 -0.5686 -0.6142
 3441SOL    MW413538   0.244   5.017   4.314  0.5903  0.3768  0.2825
 3442SOL     OW13539   3.822   5.337   4.872 -0.1932  0.0106  0.2478
 3442SOL    HW213540   3.802   5.371   4.959  2.5529  1.5492  0.3879
 3442SOL    HW313541   3.790   5.404   4.812  2.2076  1.4014  0.3827
 3442SOL    MW413542   3.815   5.351   4.876 -0.0641 -0.1743 -0.2816
 3443SOL     OW13543   2.992   1.867   5.421  0.0797 -0.0731  0.0605
 3443SOL    HW213544   3.031   1.954   5.429  0.4501 -0.0291 -1.8208
 3443SOL    HW313545   3.028   1.831   5.341 -0.7471 -1.6332  0.3332
 3443SOL    MW413546   3.002   1.873   5.412 -0.0474 -0.5076 -0.4437
 3444SOL     OW13547   3.746   6.020   3.179 -0.4433 -0.2089 -0.3088
 3444SOL    HW213548   3.781   5.940   3.138  1.6297  0.5468 -0.1243
 3444SOL    HW313549   3.755   6.004   3.273  2.3640  1.1017 -0.2350
 3444SOL    MW413550   3.752   6.007   3.186  0.0441 -0.0119  0.0536
 3445SOL     OW13551   3.027   5.766   5.935  0.4771 -0.3847  0.3234
 3445SOL    HW213552   2.939   5.738   5.910 -0.1308  0.7387  1.1123
 3445SOL    HW313553   3.082   5.744   5.859 -0.8491  0.7118 -1.0018
 3445SOL    MW413554   3.023   5.759   5.921  0.1071  0.2936 -0.3344
 3446SOL     OW13555   3.840   1.206   4.222 -0.1251 -0.3516 -0.1936
 3446SOL    HW213556   3.906   1.167   4.165  0.3234  0.4415 -0.2331
 3446SOL    HW313557   3.756   1.179   4.184  0.1685 -0.3501 -0.8521
 3446SOL    MW413558   3.837   1.197   4.210 -0.4408  0.0325  0.0495
 3447SOL     OW13559   1.106   1.432   5.167 -0.0121 -0.2768  0.1413
 3447SOL    HW213560   1.060   1.390   5.094  0.8945 -1.2085  0.0920
 3447SOL    HW313561   1.036   1.459   5.226 -0.7474  0.3165 -0.9674
 3447SOL    MW413562   1.090   1.430   5.165  0.4305 -0.0850 -0.0009
 3448SOL     OW13563   0.463   1.173   4.285 -0.2171  0.1810 -0.1429
 3448SOL    HW213564   0.474   1.157   4.191 -1.1921  0.9776 -0.4096
 3448SOL    HW313565   0.532   1.122   4.326 -1.5037 -2.4991 -1.0995
 3448SOL    MW413566   0.474   1.164   4.278 -0.2871  0.2116  0.1780
 3449SOL     OW13567   4.115   2.747   0.056 -0.1755 -0.1953  0.4961
 3449SOL    HW213568   4.197   2.797   0.049 -0.8283  0.6982 -1.6140
 3449SOL    HW313569   4.101   2.737   0.150  2.9793 -1.4902  0.9754
 3449SOL    MW413570   4.124   2.752   0.068  0.2516  0.1476 -1.0622
 3450SOL     OW13571   1.276   3.812   1.543 -0.4239 -0.0969 -0.2270
 3450SOL    HW213572   1.247   3.803   1.634  0.3327 -0.4592 -0.0105
 3450SOL    HW313573   1.230   3.742   1.497 -0.6944 -0.0090 -0.0949
 3450SOL    MW413574   1.266   3.801   1.549  0.3513 -0.3066 -0.0301
 3451SOL     OW13575   2.151   3.533   0.041  0.2892  0.5137  0.1584
 3451SOL    HW213576   2.077   3.481   0.010  1.0641  0.6399 -2.1100
 3451SOL    HW313577   2.207   3.470   0.088  0.5493 -0.4372 -1.3688
 3451SOL    MW413578   2.149   3.518   0.043 -0.0921 -0.3273 -0.5230
 3452SOL     OW13579   4.377   1.452   1.183  0.0597 -0.7400  0.0254
 3452SOL    HW213580   4.332   1.534   1.202 -1.5711 -1.0162 -2.1829
 3452SOL    HW313581   4.369   1.400   1.264 -1.3051  0.2440  0.5548
 3452SOL    MW413582   4.370   1.456   1.196 -0.4464 -0.1812 -0.2376
 3453SOL     OW13583   2.329   2.680   0.805 -0.1040  0.3265 -0.2954
 3453SOL    HW213584   2.337   2.605   0.864  0.7186  0.7296  0.1107
 3453SOL    HW313585   2.401   2.738   0.829  0.6283  0.2263 -2.0992
 3453SOL    MW413586   2.339   2.677   0.816  0.1928  0.0609 -0.9348
 3454SOL     OW13587   1.966   2.674   1.301 -0.2296  0.7598  0.2958
 3454SOL    HW213588   1.999   2.727   1.229  3.1043  0.1070  1.1876
 3454SOL    HW313589   2.020   2.595   1.300 -1.9909 -0.5788  1.8133
 3454SOL    MW413590   1.977   2.670   1.292 -0.5055  0.1562 -0.6492
 3455SOL     OW13591   2.672   3.792   1.903 -0.7534 -0.6375 -0.0682
 3455SOL    HW213592   2.708   3.858   1.962 -0.4525 -1.1194  0.2918
 3455SOL    HW313593   2.671   3.712   1.955  1.1791 -1.4994 -1.2483
 3455SOL    MW413594   2.676   3.790   1.918 -0.0796  0.3046  0.0948
 3456SOL     OW13595   0.220   5.271   1.456 -0.3948  0.0236  0.0087
 3456SOL    HW213596   0.161   5.256   1.530 -0.5215  0.1130 -0.0731
 3456SOL    HW313597   0.300   5.223   1.478  0.1204  1.2027  0.8700
 3456SOL    MW413598   0.223   5.263   1.468 -0.4607 -0.0279 -0.4622
 3457SOL     OW13599   1.824   0.698   3.534  0.4786  0.4968 -0.0462
 3457SOL    HW213600   1.913   0.724   3.510  1.1322  0.0406  1.7730
 3457SOL    HW313601   1.815   0.609   3.501  0.4842  0.7408 -0.7220
 3457SOL    MW413602   1.835   0.690   3.526  0.0432  0.0118  0.0807
 3458SOL     OW13603   3.109   5.366   0.203  0.1183  0.4685 -0.3606
 3458SOL    HW213604   3.042   5.335   0.143  0.5222 -1.4219  0.0896
 3458SOL    HW313605   3.072   5.351   0.290 -0.2898  2.7746 -0.0783
 3458SOL    MW413606   3.095   5.360   0.207  0.0168  0.1669 -0.3066
 3459SOL     OW13607   4.400   1.033   5.318  1.4042 -0.0798  0.2712
 3459SOL    HW213608   4.488   1.032   5.280  2.3855  0.0364  2.3915
 3459SOL    HW313609   4.362   1.116   5.290  1.7622 -0.3207 -1.0184
 3459SOL    MW413610   4.406   1.044   5.309  0.0838 -0.0906  0.4642
 3460SOL     OW13611   5.303   0.813   5.199 -0.6054 -0.3530 -0.2867
 3460SOL    HW213612   5.293   0.830   5.293 -2.2307 -0.9396 -0.3227
 3460SOL    HW313613   5.354   0.887   5.167 -0.0346 -0.1389  1.0511
 3460SOL    MW413614   5.308   0.825   5.208 -0.2370 -0.2476 -0.5619
 3461SOL     OW13615   6.201   0.886   3.388 -0.5820 -0.3663 -0.1596
 3461SOL    HW213616   6.296   0.879   3.395 -0.4754 -0.8911 -1.6504
 3461SOL    HW313617   6.167   0.822   3.451  0.0853 -0.9977 -0.4275
 3461SOL    MW413618   6.209   0.877   3.397  0.2110 -0.3344 -0.2263
 3462SOL     OW13619   6.274   2.073   2.198 -0.0545 -0.4367 -0.1281
 3462SOL    HW213620   6.190   2.027   2.192 -0.2590  0.0750 -1.4333
 3462SOL    HW313621   6.332   2.027   2.138  0.0930  0.2627 -0.5312
 3462SOL    MW413622   6.271   2.061   2.190  0.2248  0.0189 -0.4383
 3463SOL     OW13623   0.930   3.737   6.167 -0.0853  0.0781 -0.2053
 3463SOL    HW213624   0.953   3.723   6.076  0.5072  1.7893 -0.3651
 3463SOL    HW313625   1.009   3.774   6.207 -0.2781 -0.7984  1.0523
 3463SOL    MW413626   0.943   3.740   6.160 -0.3281 -0.6875 -0.0800
 3464SOL     OW13627   0.179   4.616   3.993  0.0037  0.3047 -0.4255
 3464SOL    HW213628   0.221   4.667   3.924  2.3058 -2.1607 -0.9917
 3464SOL    HW313629   0.157   4.681   4.060 -0.0872  2.4195 -2.3733
 3464SOL    MW413630   0.181   4.631   3.993 -0.4482  0.3017 -0.1275
 3465SOL     OW13631   0.296   1.015   3.321  0.1213  0.5326  0.5397
 3465SOL    HW213632   0.363   0.949   3.303 -0.4936  0.2983 -1.0704
 3465SOL    HW313633   0.256   1.032   3.236 -0.6373  2.0144  1.1533
 3465SOL    MW413634   0.300   1.008   3.307 -0.2137 -0.2986 -0.2084
 3466SOL     OW13635   0.453   2.845   6.410 -0.1382 -0.4541  0.1147
 3466SOL    HW213636   0.406   2.907   6.354 -0.2189 -0.3230  0.3244
 3466SOL    HW313637   0.540   2.838   6.372 -0.2522 -0.5075 -0.1338
 3466SOL    MW413638   0.458   2.852   6.398 -0.4861  0.1808  0.6603
 3467SOL     OW13639   3.166   4.802   5.994  0.3272 -0.4754  0.5910
 3467SOL    HW213640   3.165   4.892   5.963 -0.1759 -0.2104  1.3450
 3467SOL    HW313641   3.204   4.752   5.922  0.5470  0.3245  0.1397
 3467SOL    MW413642   3.171   4.807   5.981 -0.0263  0.3868  0.2841
 3468SOL     OW13643   0.801   2.632   4.502 -0.5199 -0.3356 -0.0839
 3468SOL    HW213644   0.777   2.704   4.443  0.3641  0.9235  1.0335
 3468SOL    HW313645   0.718   2.587   4.519 -0.7337 -1.1282 -2.6930
 3468SOL    MW413646   0.787   2.636   4.496  0.4059  0.5392  0.3267
 3469SOL     OW13647   2.480   0.197   0.462 -0.0601 -0.1036  0.9161
 3469SOL    HW213648   2.561   0.241   0.487  0.0842 -0.3125  0.8148
 3469SOL    HW313649   2.433   0.263   0.410  0.8599 -0.5657 -0.5909
 3469SOL    MW413650   2.484   0.212   0.458 -0.0160  0.0226 -0.0908
 3470SOL     OW13651   5.478   1.085   6.037  0.0294 -0.4289 -0.5739
 3470SOL    HW213652   5.571   1.090   6.014  0.2568 -0.5758  0.2633
 3470SOL    HW313653   5.432   1.101   5.955  0.7953 -0.4213 -1.0139
 3470SOL    MW413654   5.485   1.088   6.023  0.1417  0.4097  0.2714
 3471SOL     OW13655   1.840   3.858   6.263  0.2773 -0.0126  0.8758
 3471SOL    HW213656   1.912   3.824   6.210  1.6535  0.7252  2.1977
 3471SOL    HW313657   1.880   3.923   6.321 -1.8038  1.9521  0.2831
 3471SOL    MW413658   1.855   3.862   6.264  0.3708 -0.3198  0.2407
 3472SOL     OW13659   1.127   0.816   0.894  0.0223  0.1384  0.2842
 3472SOL    HW213660   1.145   0.885   0.831  0.8267  0.2940  0.6706
 3472SOL    HW313661   1.088   0.746   0.843 -3.4609  1.8791  0.2710
 3472SOL    MW413662   1.124   0.816   0.879  0.4939  0.5550 -0.3658
 3473SOL     OW13663   5.844   1.452   2.078 -0.2799 -0.3628 -0.4466
 3473SOL    HW213664   5.873   1.507   2.151 -0.9107 -0.9324  0.2409
 3473SOL    HW313665   5.892   1.370   2.090 -1.6972 -1.1015  0.3679
 3473SOL    MW413666   5.854   1.449   2.089  0.0268  0.0306 -0.2601
 3474SOL     OW13667   5.030   1.563   2.274  0.3082 -0.4651 -0.1647
 3474SOL    HW213668   5.030   1.506   2.197  1.1349 -0.6069 -0.0709
 3474SOL    HW313669   4.954   1.534   2.325 -0.8175  0.2611 -1.3630
 3474SOL    MW413670   5.020   1.552   2.271 -0.3757  0.2335 -0.1157
 3475SOL     OW13671   5.401   2.327   1.162 -0.0292  0.2592 -0.1206
 3475SOL    HW213672   5.389   2.262   1.231 -0.3958  1.5654  1.0890
 3475SOL    HW313673   5.353   2.292   1.086  2.8601 -2.6922 -0.8099
 3475SOL    MW413674   5.393   2.314   1.161  0.5413 -0.0610  0.4277
 3476SOL     OW13675   5.200   2.135   5.933  0.0772  0.5010  0.4621
 3476SOL    HW213676   5.279   2.152   5.984 -0.4308  0.9005  1.1512
 3476SOL    HW313677   5.168   2.222   5.909  1.0700  0.2861 -1.7800
 3476SOL    MW413678   5.206   2.149   5.937  0.6473  0.1325 -0.5293
 3477SOL     OW13679   3.241   5.056   0.372 -0.2934  0.0056 -0.1768
 3477SOL    HW213680   3.250   4.982   0.434  0.5814  0.0145 -0.2797
 3477SOL    HW313681   3.285   5.026   0.293 -0.9811  0.1896 -0.6327
 3477SOL    MW413682   3.248   5.042   0.370  0.1116 -0.5134  0.7294
 3478SOL     OW13683   5.149   0.872   3.799  0.0935 -0.4495  0.0506
 3478SOL    HW213684   5.073   0.817   3.819  2.2471 -2.8829  2.3678
 3478SOL    HW313685   5.214   0.847   3.865  2.0842  3.3260 -0.2448
 3478SOL    MW413686   5.147   0.861   3.810 -0.1447 -0.5996 -0.5099
 3479SOL     OW13687   3.594   6.044   5.845 -0.0756 -0.0811 -0.4587
 3479SOL    HW213688   3.678   6.088   5.860  1.6653 -3.0924 -0.6650
 3479SOL    HW313689   3.580   5.991   5.923 -0.1763 -1.9407 -1.6712
 3479SOL    MW413690   3.604   6.043   5.857 -0.1257 -0.2736  0.3775
 3480SOL     OW13691   6.039   3.014   6.270 -0.5638 -0.2101  0.2008
 3480SOL    HW213692   5.967   3.067   6.305 -0.5291 -0.3244  0.4489
 3480SOL    HW313693   6.117   3.067   6.287 -0.6772  0.3919 -0.9981
 3480SOL    MW413694   6.040   3.028   6.277 -0.2349  0.1803  0.5640
 3481SOL     OW13695   3.825   3.312   5.860 -0.0646  0.4121  0.5084
 3481SOL    HW213696   3.917   3.321   5.884  0.0187  2.1664 -0.3536
 3481SOL    HW313697   3.819   3.349   5.772 -1.8498  1.5812  1.0710
 3481SOL    MW413698   3.836   3.318   5.851 -0.3898 -0.2885  0.5097
 3482SOL     OW13699   2.622   0.667   0.461  0.0229 -0.2685 -0.0828
 3482SOL    HW213700   2.533   0.694   0.438  0.0685  1.2686  1.3505
 3482SOL    HW313701   2.641   0.715   0.542  1.6334 -1.6650  0.4188
 3482SOL    MW413702   2.612   0.677   0.469  0.8925 -0.3197 -0.5781
 3483SOL     OW13703   4.763   4.066   3.274  0.1189  0.0904  0.2535
 3483SOL    HW213704   4.834   4.029   3.327  0.0337  1.3396  1.2962
 3483SOL    HW313705   4.731   4.140   3.326 -1.6663 -0.1821 -0.3970
 3483SOL    MW413706   4.768   4.071   3.288  0.6306  0.2081 -0.0787
 3484SOL     OW13707   5.928   5.679   6.383 -0.0373  0.7284  0.4629
 3484SOL    HW213708   6.020   5.652   6.381  0.3077  1.8861  0.2268
 3484SOL    HW313709   5.929   5.770   6.354 -1.1194  1.1610  1.7103
 3484SOL    MW413710   5.940   5.687   6.379 -0.1602  0.4211  0.0548
 3485SOL     OW13711   5.158   3.456   3.191 -0.2537 -0.1236  0.4496
 3485SOL    HW213712   5.074   3.445   3.148 -0.0460 -1.9173  0.4304
 3485SOL    HW313713   5.213   3.500   3.126 -0.7559 -0.2609 -0.0716
 3485SOL    MW413714   5.154   3.460   3.177  0.6094  0.2372  0.7348
 3486SOL     OW13715   5.625   0.369   6.078  0.3017  0.0907 -0.8230
 3486SOL    HW213716   5.534   0.344   6.064 -0.0771  0.9615  0.0132
 3486SOL    HW313717   5.659   0.305   6.140 -0.1634  0.5967 -0.0304
 3486SOL    MW413718   5.618   0.357   6.084 -0.6059  0.0958 -0.3370
 3487SOL     OW13719   1.445   5.996   1.426  0.0770 -0.2406 -0.0863
 3487SOL    HW213720   1.407   5.910   1.407  1.4687 -0.6926 -0.9552
 3487SOL    HW313721   1.494   5.983   1.507  0.1395 -0.2154 -0.1203
 3487SOL    MW413722   1.447   5.983   1.434 -0.1614  0.0103  0.0137
 3488SOL     OW13723   2.130   5.620   0.229  0.4977  0.4301  0.0116
 3488SOL    HW213724   2.195   5.551   0.226 -1.2083 -1.2394 -2.7557
 3488SOL    HW313725   2.177   5.699   0.201  1.7672 -0.2624  0.1251
 3488SOL    MW413726   2.145   5.622   0.225  0.1648  0.0946 -0.1189
 3489SOL     OW13727   3.519   3.871   0.555  0.7232 -0.1163 -0.2396
 3489SOL    HW213728   3.436   3.831   0.581  0.6199  0.4410  0.3115
 3489SOL    HW313729   3.585   3.824   0.606  0.5190  0.9936  1.1142
 3489SOL    MW413730   3.516   3.860   0.565  0.2505 -0.1541 -0.5679
 3490SOL     OW13731   1.573   0.095   3.413 -0.8249  0.0990 -0.0513
 3490SOL    HW213732   1.575   0.067   3.322  1.6047  1.0483 -0.3489
 3490SOL    HW313733   1.519   0.175   3.412 -0.6899  0.1845 -0.6759
 3490SOL    MW413734   1.566   0.102   3.401  0.1837  0.2179 -0.0895
 3491SOL     OW13735   4.702   3.459   3.322 -0.5983  0.1986 -0.6559
 3491SOL    HW213736   4.615   3.476   3.357 -0.5986  3.0137 -1.8090
 3491SOL    HW313737   4.762   3.503   3.383 -0.2058  0.6706 -1.3758
 3491SOL    MW413738   4.698   3.467   3.335 -0.4578 -0.4445  0.2692
 3492SOL     OW13739   2.404   6.164   1.737 -0.2095  0.1249 -0.6384
 3492SOL    HW213740   2.419   6.070   1.725 -0.7297  0.1976 -2.0218
 3492SOL    HW313741   2.322   6.169   1.785  0.2704 -0.1304  0.2296
 3492SOL    MW413742   2.395   6.152   1.742 -0.0418  0.3808  0.6211
 3493SOL     OW13743   1.639   1.528   5.294  0.0536  0.0737  0.2687
 3493SOL    HW213744   1.561   1.571   5.329 -0.9485 -1.0543 -0.4980
 3493SOL    HW313745   1.618   1.511   5.202  1.6941  0.8223 -0.2759
 3493SOL    MW413746   1.626   1.531   5.287  0.2424  0.1962 -0.2377
 3494SOL     OW13747   3.783   3.404   3.689  0.0304  0.2572 -0.5271
 3494SOL    HW213748   3.748   3.336   3.632 -0.3911 -0.1220  0.1745
 3494SOL    HW313749   3.753   3.486   3.650 -0.3523 -0.0037 -0.7811
 3494SOL    MW413750   3.775   3.406   3.677  0.6520  0.2141 -0.1503
 3495SOL     OW13751   0.528   0.720   4.990  0.0414  0.3311 -0.4303
 3495SOL    HW213752   0.464   0.670   5.040  0.0033  2.1634  1.4870
 3495SOL    HW313753   0.542   0.800   5.041  3.2626  0.3777 -1.1801
 3495SOL    MW413754   0.521   0.724   5.003 -0.1281  0.1592  0.2429
 3496SOL     OW13755   0.114   2.874   4.379  0.2448  0.1316 -0.2445
 3496SOL    HW213756   0.099   2.969   4.377  2.2273  0.5518  1.2264
 3496SOL    HW313757   0.059   2.843   4.451  1.1300  0.5363  0.6337
 3496SOL    MW413758   0.105   2.883   4.388  0.1614  0.1415 -0.1223
 3497SOL     OW13759   0.434   6.014   5.970 -0.4046  0.2660 -0.5309
 3497SOL    HW213760   0.488   6.090   5.950 -0.1504 -0.2492 -1.9127
 3497SOL    HW313761   0.347   6.050   5.988  0.0006  0.9632  0.0766
 3497SOL    MW413762   0.430   6.028   5.970 -0.6211 -0.0562 -0.1175
 3498SOL     OW13763   4.112   5.678   6.294 -0.1668  0.7804  0.0257
 3498SOL    HW213764   4.054   5.741   6.336  2.6089  3.2839  0.4047
 3498SOL    HW313765   4.124   5.609   6.359 -2.3536  0.3369  0.0446
 3498SOL    MW413766   4.106   5.677   6.308 -0.4331 -0.2279 -0.4545
 3499SOL     OW13767   5.832   0.137   0.908 -0.1572  1.0337 -0.1435
 3499SOL    HW213768   5.928   0.139   0.905 -0.1227 -0.2464 -0.7387
 3499SOL    HW313769   5.805   0.219   0.868  0.6745  2.1926  1.5652
 3499SOL    MW413770   5.841   0.148   0.902  0.0432  0.3727  0.4915
 3500SOL     OW13771   3.014   1.552   2.735 -0.1426 -0.1787 -0.0907
 3500SOL    HW213772   2.976   1.479   2.685  1.2465 -0.0875 -1.3474
 3500SOL    HW313773   3.062   1.603   2.670  2.4571 -0.5111  1.4113
 3500SOL    MW413774   3.015   1.549   2.720 -0.0450 -0.1883  0.2975
 3501SOL     OW13775   1.970   4.903   6.386  0.2792 -0.1083  0.0948
 3501SOL    HW213776   1.983   4.916   6.480  0.6860  0.7004 -0.0560
 3501SOL    HW313777   1.942   4.989   6.354 -0.0939 -0.4379 -0.4867
 3501SOL    MW413778   1.968   4.916   6.394 -0.2308  0.5019 -0.3965
 3502SOL     OW13779   6.247   4.096   5.328 -0.5635 -0.9379  0.0163
 3502SOL    HW213780   6.329   4.113   5.281 -0.3959  2.2610  1.2373
 3502SOL    HW313781   6.180   4.099   5.260 -0.0575  0.9061 -0.4458
 3502SOL    MW413782   6.249   4.099   5.313 -0.5158  0.2048 -0.3573
 3503SOL     OW13783   0.208   2.695   0.110 -0.8758 -0.1715  0.0207
 3503SOL    HW213784   0.184   2.688   0.017 -0.6725  2.0792 -0.2507
 3503SOL    HW313785   0.192   2.787   0.132 -0.8082 -0.6394  2.2062
 3503SOL    MW413786   0.203   2.706   0.100  0.0139 -0.0775 -0.0512
 3504SOL     OW13787   4.975   3.637   4.893 -0.0405  0.2634  0.3343
 3504SOL    HW213788   4.937   3.576   4.829  0.5670  0.1695  0.0544
 3504SOL    HW313789   4.902   3.692   4.920  0.0572  1.6548 -1.9906
 3504SOL    MW413790   4.961   3.636   4.888 -0.4930 -0.8839 -0.2152
 3505SOL     OW13791   6.161   2.306   2.082  0.0126 -0.4006 -0.5023
 3505SOL    HW213792   6.205   2.386   2.112  0.2219 -0.4050 -0.7925
 3505SOL    HW313793   6.211   2.235   2.122 -1.4800 -0.3759  1.5775
 3505SOL    MW413794   6.173   2.307   2.091 -0.3348 -0.2850 -0.1067
 3506SOL     OW13795   2.420   1.237   3.952  0.3692  0.1141 -0.4968
 3506SOL    HW213796   2.474   1.222   3.875 -1.0590 -0.3337 -1.4502
 3506SOL    HW313797   2.426   1.155   4.002  2.8773  1.0845  0.9459
 3506SOL    MW413798   2.428   1.224   3.949 -0.4605 -0.0196 -0.5037
 3507SOL     OW13799   2.340   0.595   4.044 -0.2556  0.3519  0.0837
 3507SOL    HW213800   2.384   0.635   3.969 -0.7433  0.6014 -0.0720
 3507SOL    HW313801   2.393   0.621   4.119 -0.6841  1.4842  0.0107
 3507SOL    MW413802   2.353   0.604   4.044 -1.1229  0.4594 -0.0365
 3508SOL     OW13803   1.222   1.225   0.307 -0.0142  0.3102  0.3785
 3508SOL    HW213804   1.150   1.241   0.245  0.0731 -1.6170 -0.2686
 3508SOL    HW313805   1.284   1.295   0.289 -0.5548  0.4994 -0.8783
 3508SOL    MW413806   1.221   1.236   0.296 -0.4230  0.1102  0.2252
 3509SOL     OW13807   4.327   3.038   1.307 -0.0910  0.2730  0.1206
 3509SOL    HW213808   4.336   2.951   1.346  0.0111 -0.2672 -1.0789
 3509SOL    HW313809   4.235   3.042   1.279  0.5565 -0.6161 -2.4222
 3509SOL    MW413810   4.316   3.027   1.308 -0.2577  0.0405  0.0689
 3510SOL     OW13811   4.164   0.743   5.619  0.0726  0.5063 -0.7692
 3510SOL    HW213812   4.217   0.823   5.612  0.0153  0.6344  0.0869
 3510SOL    HW313813   4.102   0.762   5.691 -1.6100  0.6272 -2.1835
 3510SOL    MW413814   4.163   0.756   5.628  0.1744  0.2872 -0.0697
 3511SOL     OW13815   1.072   5.141   4.203  0.4682 -0.5862  0.1398
 3511SOL    HW213816   1.132   5.070   4.180 -0.2822 -0.5947 -1.9607
 3511SOL    HW313817   1.111   5.219   4.163  0.5282 -0.0539  1.2034
 3511SOL    MW413818   1.085   5.142   4.195  0.3543  0.2833 -0.2209
 3512SOL     OW13819   2.421   1.529   6.350 -0.0365 -0.4448  0.5236
 3512SOL    HW213820   2.340   1.570   6.320 -0.2197 -1.7299 -0.9052
 3512SOL    HW313821   2.396   1.482   6.430 -0.9162 -1.4058 -0.2789
 3512SOL    MW413822   2.407   1.528   6.357  0.0444  0.0523  0.0687
 3513SOL     OW13823   2.434   3.917   3.234  0.0420 -0.2545  0.3263
 3513SOL    HW213824   2.478   3.854   3.177 -1.9331 -0.9063 -0.5615
 3513SOL    HW313825   2.466   3.897   3.322 -0.0101 -2.0680 -0.0244
 3513SOL    MW413826   2.444   3.906   3.238  0.2425 -0.6263  0.1428
 3514SOL     OW13827   5.358   5.561   2.024 -0.1470  0.8879 -0.3453
 3514SOL    HW213828   5.406   5.481   2.003 -2.5154  0.0763 -3.4707
 3514SOL    HW313829   5.426   5.627   2.037  1.8688 -1.3564  1.5052
 3514SOL    MW413830   5.374   5.559   2.022 -0.1475  0.3744  0.0610
 3515SOL     OW13831   0.123   3.223   0.635 -0.2162 -0.0241 -0.6904
 3515SOL    HW213832   0.056   3.290   0.640  0.2677  0.4150  0.0654
 3515SOL    HW313833   0.145   3.203   0.726 -1.4585 -2.3531 -0.8447
 3515SOL    MW413834   0.117   3.229   0.648 -0.2449 -0.1148 -0.1182
 3516SOL     OW13835   2.880   4.031   1.755  0.4957  0.3355 -0.0635
 3516SOL    HW213836   2.866   4.041   1.849  0.4960  2.3643 -0.2228
 3516SOL    HW313837   2.800   4.067   1.715 -1.1562 -3.7620 -0.8946
 3516SOL    MW413838   2.868   4.037   1.762 -0.3751 -0.4521  0.0803
 3517SOL     OW13839   4.851   2.818   1.035  0.0453 -0.0807  0.0250
 3517SOL    HW213840   4.888   2.888   0.981 -0.7541  0.2418 -0.1195
 3517SOL    HW313841   4.889   2.833   1.122  0.3978  0.1292 -0.1626
 3517SOL    MW413842   4.861   2.829   1.040 -0.0888  0.2472 -0.1348
 3518SOL     OW13843   0.808   1.999   5.285  0.3759 -0.0573  0.3209
 3518SOL    HW213844   0.820   2.031   5.196 -1.7859 -1.3672 -0.5209
 3518SOL    HW313845   0.714   2.005   5.300  0.3589 -2.2931  1.5374
 3518SOL    MW413846   0.797   2.004   5.275  0.3318  0.4401  0.0529
 3519SOL     OW13847   5.641  -0.001   1.193  0.2731  0.3427  0.2469
 3519SOL    HW213848   5.576   0.035   1.253  0.3183  2.1556 -0.7164
 3519SOL    HW313849   5.669   0.074   1.140  1.2466 -0.9150 -1.1037
 3519SOL    MW413850   5.636   0.014   1.194 -0.2412  0.4831 -0.4493
 3520SOL     OW13851   1.685   0.530   4.814  0.8190 -0.0261  0.1722
 3520SOL    HW213852   1.706   0.510   4.906 -0.0954 -0.8644  0.2142
 3520SOL    HW313853   1.674   0.625   4.813  0.5536 -0.0339  1.0057
 3520SOL    MW413854   1.686   0.540   4.826 -0.0248  0.2866 -0.4580
 3521SOL     OW13855   0.610   4.895   0.476 -0.3016  0.0934  0.3671
 3521SOL    HW213856   0.622   4.856   0.562  0.6410 -0.9103 -0.1784
 3521SOL    HW313857   0.659   4.837   0.417  0.3436  1.5845 -0.6322
 3521SOL    MW413858   0.618   4.882   0.479 -0.2037 -0.5667  0.1559
 3522SOL     OW13859   3.616   1.871   5.980 -0.4071 -0.3631 -0.2558
 3522SOL    HW213860   3.565   1.948   5.953 -0.4668 -0.8947 -1.7923
 3522SOL    HW313861   3.550   1.802   5.990 -0.7140  0.2793  3.6289
 3522SOL    MW413862   3.600   1.872   5.978 -0.4945  0.1279 -0.0010
 3523SOL     OW13863   4.971   1.913   6.220  0.0082  0.1300  0.0574
 3523SOL    HW213864   4.954   1.997   6.178 -0.4586 -0.8348 -1.7701
 3523SOL    HW313865   4.884   1.874   6.233  0.3009 -0.7798 -0.6540
 3523SOL    MW413866   4.957   1.918   6.216 -0.2317  0.3955 -0.1887
 3524SOL     OW13867   6.191   2.917   4.892 -0.0798  0.0389  0.2558
 3524SOL    HW213868   6.204   2.997   4.841 -2.1163 -0.5622 -1.3316
 3524SOL    HW313869   6.135   2.943   4.965 -0.6026  0.1045 -0.1653
 3524SOL    MW413870   6.186   2.931   4.895 -0.1554  0.1789 -0.5112
 3525SOL     OW13871   2.793   0.608   5.347 -0.2478 -0.3038  0.0424
 3525SOL    HW213872   2.811   0.556   5.269  0.2638  0.6490 -0.4991
 3525SOL    HW313873   2.820   0.697   5.323  1.0270 -0.1924  1.6982
 3525SOL    MW413874   2.799   0.613   5.334 -0.4123  0.0266 -0.2425
 3526SOL     OW13875   6.314   3.967   1.248 -0.0070  0.1174  0.2368
 3526SOL    HW213876   6.402   3.998   1.226 -0.9810  2.7595 -0.2638
 3526SOL    HW313877   6.284   3.922   1.168 -0.2894  2.0870 -0.8180
 3526SOL    MW413878   6.322   3.965   1.234 -0.3409 -0.1894  0.0641
 3527SOL     OW13879   1.596   4.144   4.225 -0.6708  0.8826  0.0975
 3527SOL    HW213880   1.520   4.105   4.268 -1.1693  0.9582 -0.6868
 3527SOL    HW313881   1.659   4.160   4.296  0.5474 -3.4574  0.2698
 3527SOL    MW413882   1.594   4.141   4.240 -0.0455  0.2701  0.5427
 3528SOL     OW13883   2.174   1.676   4.993  0.1637  1.0274 -0.1204
 3528SOL    HW213884   2.246   1.698   5.052 -1.1651  0.2862  1.8889
 3528SOL    HW313885   2.124   1.610   5.040 -1.6235  1.2589 -1.5948
 3528SOL    MW413886   2.177   1.670   5.007  0.5464 -0.2997 -0.5665
 3529SOL     OW13887   3.023   4.065   2.426 -0.4282  0.3142  1.0455
 3529SOL    HW213888   3.065   4.132   2.479 -0.0696 -0.5744  1.9087
 3529SOL    HW313889   3.007   4.107   2.342  1.9300  0.7708  0.7690
 3529SOL    MW413890   3.026   4.079   2.422 -0.1968 -0.3567  0.4162
 3530SOL     OW13891   1.615   3.662   2.380 -0.5643 -0.4469 -0.4554
 3530SOL    HW213892   1.666   3.731   2.423 -2.1559  0.0935  0.6683
 3530SOL    HW313893   1.580   3.704   2.301  1.8551 -1.2607 -2.0825
 3530SOL    MW413894   1.617   3.677   2.375 -0.2270  0.2600 -0.6349
 3531SOL     OW13895   2.691   2.810   0.440  0.2558 -0.0608 -0.1835
 3531SOL    HW213896   2.772   2.817   0.390 -0.0978 -1.5133 -0.9954
 3531SOL    HW313897   2.650   2.729   0.410 -2.3133  1.4139 -0.9866
 3531SOL    MW413898   2.696   2.801   0.429  0.9418  0.3976  0.0041
 3532SOL     OW13899   3.646   4.053   6.171 -0.1992  0.3465 -0.4108
 3532SOL    HW213900   3.739   4.051   6.193 -0.2306 -0.3487 -0.3158
 3532SOL    HW313901   3.603   4.076   6.254 -0.0720  1.4654 -0.6331
 3532SOL    MW413902   3.653   4.056   6.185  0.3830  0.0629 -0.3013
 3533SOL     OW13903   2.747   4.642   1.134  0.3754 -0.8248 -0.2743
 3533SOL    HW213904   2.658   4.620   1.159  0.3425 -1.2160 -0.7196
 3533SOL    HW313905   2.771   4.576   1.068  0.5726 -0.0342 -1.0126
 3533SOL    MW413906   2.739   4.630   1.128 -0.1642 -0.5982  0.1490
 3534SOL     OW13907   2.695   6.387   2.202  0.4634 -0.2308 -0.1021
 3534SOL    HW213908   2.618   6.345   2.163  1.1235 -1.0285 -0.6007
 3534SOL    HW313909   2.664   6.423   2.284 -0.8800  1.0892 -1.1299
 3534SOL    MW413910   2.681   6.386   2.207  0.2026 -0.0266 -0.6419
 3535SOL     OW13911   2.894   5.722   2.607 -0.3850 -0.5025 -0.7708
 3535SOL    HW213912   2.824   5.778   2.574  0.6790  0.0002 -2.3303
 3535SOL    HW313913   2.952   5.782   2.654 -2.5285 -1.3999  3.4343
 3535SOL    MW413914   2.893   5.737   2.609  0.2095  0.4191 -0.2085
 3536SOL     OW13915   0.583   4.982   6.014  0.4310 -0.1597  0.4159
 3536SOL    HW213916   0.490   4.966   5.998  0.5705  0.5833 -1.2956
 3536SOL    HW313917   0.629   4.929   5.949  1.1666  0.4162  0.4492
 3536SOL    MW413918   0.577   4.973   6.004  1.0196 -0.2994  0.3906
 3537SOL     OW13919   4.960   2.172   6.099  0.4910  0.1671 -0.1510
 3537SOL    HW213920   5.034   2.151   6.043 -0.4432 -0.2846 -1.2533
 3537SOL    HW313921   4.904   2.228   6.046  0.2061  0.8214  0.7974
 3537SOL    MW413922   4.962   2.177   6.085  0.0804  0.2334 -0.4123
 3538SOL     OW13923   1.050   4.220   5.245  0.4016 -0.7258 -0.0277
 3538SOL    HW213924   1.142   4.194   5.253  1.2077  1.3142 -1.5362
 3538SOL    HW313925   1.022   4.183   5.161  0.1507 -0.5889 -0.0054
 3538SOL    MW413926   1.059   4.212   5.235  0.1186  0.0934 -0.1420
 3539SOL     OW13927   3.396   2.297   0.405  0.0515 -0.4495  0.5343
 3539SOL    HW213928   3.459   2.275   0.474 -2.1080 -1.4273  2.2999
 3539SOL    HW313929   3.410   2.230   0.338 -0.5975 -2.1200  1.9724
 3539SOL    MW413930   3.406   2.285   0.406 -0.5073  0.3523 -0.0844
 3540SOL     OW13931   1.957   3.034   3.414  0.6548  0.3594  0.5688
 3540SOL    HW213932   1.919   3.048   3.327  0.4998 -0.2945  0.5306
 3540SOL    HW313933   2.021   3.105   3.423  1.4716 -0.1886 -0.5383
 3540SOL    MW413934   1.961   3.045   3.404 -0.2532 -0.0017 -0.5914
 3541SOL     OW13935   1.888   4.350   0.794  0.8002  0.8088 -0.3024
 3541SOL    HW213936   1.957   4.317   0.736 -0.0019 -0.1825 -0.7203
 3541SOL    HW313937   1.927   4.426   0.837  2.3579 -0.0685 -0.0947
 3541SOL    MW413938   1.902   4.356   0.792 -0.6693 -0.0488 -0.2732
 3542SOL     OW13939   1.918   5.564   2.555  0.1764 -0.9140 -0.1014
 3542SOL    HW213940   1.953   5.652   2.540  1.8546 -1.5624 -0.1928
 3542SOL    HW313941   1.868   5.544   2.476 -0.9130  0.2553  0.2617
 3542SOL    MW413942   1.916   5.573   2.543  0.6138  0.7664 -0.0947
 3543SOL     OW13943   5.464   0.577   5.218  0.2449 -0.2039  0.4572
 3543SOL    HW213944   5.424   0.656   5.182  1.6880  1.6142  2.5749
 3543SOL    HW313945   5.558   0.595   5.218  0.7175 -2.3907  0.0427
 3543SOL    MW413946   5.471   0.590   5.213 -0.4590 -0.1701  0.0957
 3544SOL     OW13947   5.115   0.591   5.705  0.0772  1.1519 -0.5377
 3544SOL    HW213948   5.029   0.601   5.664 -0.6311  0.3215  0.6926
 3544SOL    HW313949   5.107   0.633   5.790  0.4201 -0.1432  0.1689
 3544SOL    MW413950   5.103   0.598   5.711 -0.2281 -0.4763  0.0303
 3545SOL     OW13951   5.925   0.750   0.811  0.3514  0.0359 -0.3385
 3545SOL    HW213952   6.016   0.752   0.839  0.9494 -0.6764 -2.0841
 3545SOL    HW313953   5.919   0.820   0.745 -0.2663 -0.1311 -0.4686
 3545SOL    MW413954   5.936   0.760   0.806 -0.5141  0.3847 -0.2808
 3546SOL     OW13955   5.096   2.305   1.709  0.2924 -0.1616  0.3955
 3546SOL    HW213956   5.156   2.379   1.709  1.8577 -1.3145  2.9213
 3546SOL    HW313957   5.010   2.344   1.724  0.5045  1.3935 -1.9481
 3546SOL    MW413958   5.092   2.320   1.711 -0.8043 -0.0378  0.0520
 3547SOL     OW13959   2.836   3.730   3.727  0.0869 -0.1055  0.2208
 3547SOL    HW213960   2.859   3.668   3.658  1.4555 -0.4528  0.9365
 3547SOL    HW313961   2.911   3.789   3.731  0.0269 -0.0874  1.3918
 3547SOL    MW413962   2.849   3.729   3.719  0.0121  0.3818 -1.0322
 3548SOL     OW13963   2.873   6.093   5.777 -0.3738  0.0572 -0.1473
 3548SOL    HW213964   2.902   6.034   5.707 -2.5660 -2.2188  0.7311
 3548SOL    HW313965   2.934   6.075   5.850 -0.4692 -0.4603 -0.1915
 3548SOL    MW413966   2.885   6.083   5.778 -1.0371  0.9209 -0.3361
 3549SOL     OW13967   3.616   5.941   5.607  0.7361  0.0094  0.5880
 3549SOL    HW213968   3.555   5.869   5.623  0.2529  0.1606 -0.4781
 3549SOL    HW313969   3.606   5.998   5.683  1.0978 -1.0269  1.4252
 3549SOL    MW413970   3.606   5.939   5.619  0.3561  0.0210  0.1805
 3550SOL     OW13971   1.980   6.020   3.085 -0.3012  0.0515  0.1590
 3550SOL    HW213972   2.037   5.944   3.092 -2.2045 -1.5458 -0.6650
 3550SOL    HW313973   2.039   6.095   3.077  1.6524 -1.2046  1.8997
 3550SOL    MW413974   1.995   6.020   3.085  0.0717  0.3611  0.7366
 3551SOL     OW13975   2.626   3.885   5.614  0.5129  0.4174 -0.4967
 3551SOL    HW213976   2.633   3.938   5.535  1.5284  0.9926 -0.0501
 3551SOL    HW313977   2.534   3.860   5.619  0.1759  1.4796 -1.1594
 3551SOL    MW413978   2.615   3.889   5.604 -0.1333  0.4541 -0.0387
 3552SOL     OW13979   2.364   5.931   0.772 -0.5045 -0.2284  0.4161
 3552SOL    HW213980   2.380   6.026   0.765 -2.5571  0.1493  0.3776
 3552SOL    HW313981   2.269   5.923   0.779 -0.4746 -2.3862 -0.8699
 3552SOL    MW413982   2.354   5.943   0.772 -0.5382  1.0114  0.7669
 3553SOL     OW13983   0.605   4.479   1.565 -0.3826 -0.6445  0.0540
 3553SOL    HW213984   0.519   4.492   1.524 -0.2916  0.0968  0.0776
 3553SOL    HW313985   0.600   4.530   1.646  0.0350 -0.7122  0.1220
 3553SOL    MW413986   0.593   4.487   1.570 -0.1613 -0.0015 -0.0526
 3554SOL     OW13987   5.278   5.790   0.834  1.1535 -0.1423 -0.8412
 3554SOL    HW213988   5.373   5.774   0.839  1.0277 -0.4662  0.9191
 3554SOL    HW313989   5.269   5.884   0.850  1.1226 -0.2437 -0.2685
 3554SOL    MW413990   5.290   5.800   0.836  0.1573 -0.7143 -0.3406
 3555SOL     OW13991   1.407   0.794   3.699 -0.4439 -0.5172 -0.2223
 3555SOL    HW213992   1.390   0.737   3.625  0.6236 -1.3015  0.1109
 3555SOL    HW313993   1.494   0.768   3.731 -1.0924 -0.5796  1.6398
 3555SOL    MW413994   1.417   0.783   3.694 -0.0690  0.1572  0.0338
 3556SOL     OW13995   4.216   5.224   6.163 -0.0460 -0.2320  0.5962
 3556SOL    HW213996   4.123   5.205   6.154 -0.5335  1.8385  0.6328
 3556SOL    HW313997   4.220   5.296   6.226  1.1763  2.3977 -2.2219
 3556SOL    MW413998   4.204   5.231   6.170 -0.2625  0.7663 -0.5147
 3557SOL     OW13999   4.924   1.064   4.304  0.4625  0.2535  0.1133
 3557SOL    HW214000   4.999   1.016   4.269 -0.1759 -2.2442  1.9332
 3557SOL    HW314001   4.882   1.102   4.227  2.1932 -0.3244 -1.1810
 3557SOL    MW414002   4.928   1.063   4.289 -0.0931  0.8384 -1.0391
 3558SOL     OW14003   3.391   2.137   4.956 -0.0577  0.1565  0.2661
 3558SOL    HW214004   3.306   2.182   4.950  0.6980  1.5269 -0.6255
 3558SOL    HW314005   3.447   2.198   5.004  0.6245 -0.4449  0.2465
 3558SOL    MW414006   3.387   2.151   4.962  0.4656 -0.0535  0.4276
 3559SOL     OW14007   1.496   2.599   5.123 -0.1980  0.5838 -0.0269
 3559SOL    HW214008   1.428   2.661   5.097 -0.3580  0.5115  0.2188
 3559SOL    HW314009   1.463   2.559   5.204  0.8473  1.7237  1.0100
 3559SOL    MW414010   1.483   2.602   5.130  0.4785  0.4618 -0.0770
 3560SOL     OW14011   4.558   2.900   1.099 -0.1600  0.3140 -0.0753
 3560SOL    HW214012   4.648   2.872   1.081 -0.4075 -0.9231  0.5216
 3560SOL    HW314013   4.528   2.938   1.017  0.5373 -0.2943 -0.6230
 3560SOL    MW414014   4.566   2.902   1.086  0.2139 -0.4943 -0.3304
 3561SOL     OW14015   4.667   0.230   5.952 -0.1805  0.0914  0.1455
 3561SOL    HW214016   4.746   0.254   6.001  0.4042 -0.5306 -0.4610
 3561SOL    HW314017   4.701   0.194   5.869 -1.0687 -1.3131  0.3666
 3561SOL    MW414018   4.682   0.229   5.947  0.1122 -0.2061  0.2042
 3562SOL     OW14019   3.315   2.657   4.560 -0.7771 -0.2067 -0.0059
 3562SOL    HW214020   3.340   2.662   4.652 -1.0907  1.1247  0.0307
 3562SOL    HW314021   3.254   2.730   4.548 -0.3591 -0.0558 -1.3750
 3562SOL    MW414022   3.310   2.667   4.570  0.7091 -0.1507 -0.2279
 3563SOL     OW14023   0.830   6.109   1.393 -0.2084  0.5849  0.1622
 3563SOL    HW214024   0.807   6.044   1.460 -1.9878  0.7926 -0.1975
 3563SOL    HW314025   0.862   6.185   1.443  1.8241 -0.4771  0.5897
 3563SOL    MW414026   0.831   6.110   1.409  0.2708 -0.2566 -0.1064
 3564SOL     OW14027   3.600   0.089   2.881  0.2092 -0.0678  0.3423
 3564SOL    HW214028   3.606   0.018   2.945 -0.0358 -0.1293  0.3008
 3564SOL    HW314029   3.521   0.137   2.907  0.1728 -0.0252  0.1563
 3564SOL    MW414030   3.590   0.086   2.893 -0.0283 -0.1844 -0.0894
 3565SOL     OW14031   4.566   0.173   6.220  0.2003 -0.6988  0.3315
 3565SOL    HW214032   4.609   0.240   6.271  1.1796 -0.3741 -0.8591
 3565SOL    HW314033   4.586   0.196   6.129 -1.8952 -0.9532 -0.2469
 3565SOL    MW414034   4.575   0.185   6.214 -0.0412 -1.2611  0.9454
 3566SOL     OW14035   1.225   5.928   4.980  0.1077 -0.7411 -0.9920
 3566SOL    HW214036   1.204   6.010   4.935  3.2294  1.8282  1.7568
 3566SOL    HW314037   1.152   5.915   5.040 -0.0529  0.5352 -0.8725
 3566SOL    MW414038   1.212   5.937   4.982  0.4298 -0.1126 -0.3504
 3567SOL     OW14039   2.348   4.825   5.118  0.0514 -0.5699 -0.2458
 3567SOL    HW214040   2.323   4.755   5.179 -0.7744 -0.5129 -0.5049
 3567SOL    HW314041   2.306   4.904   5.153  0.6235 -0.2891 -0.1903
 3567SOL    MW414042   2.339   4.826   5.131  0.7394 -0.0738 -0.1188
 3568SOL     OW14043   6.116   4.977   3.492  0.2978  0.0593  0.0042
 3568SOL    HW214044   6.096   4.911   3.559 -2.0479  0.5151 -0.1852
 3568SOL    HW314045   6.179   5.036   3.535 -1.2404  0.4266  1.9111
 3568SOL    MW414046   6.122   4.976   3.507  0.2102 -0.2326 -0.1037
 3569SOL     OW14047   0.720   4.882   6.292  0.1417 -0.1758  0.1571
 3569SOL    HW214048   0.642   4.892   6.238  0.6999 -0.2887 -0.7011
 3569SOL    HW314049   0.705   4.938   6.368  0.6128  2.4556 -1.5760
 3569SOL    MW414050   0.708   4.891   6.295  0.1244 -0.4488  0.2344
 3570SOL     OW14051   3.934   0.718   6.128 -0.6091 -0.1380 -0.3756
 3570SOL    HW214052   3.933   0.692   6.036 -1.7199  1.0177 -0.7293
 3570SOL    HW314053   3.964   0.640   6.175  0.9114 -0.4547 -1.7745
 3570SOL    MW414054   3.938   0.704   6.122 -0.6599  0.0888 -1.1080
 3571SOL     OW14055   0.535   3.065   2.462  0.2874  0.3559  0.1615
 3571SOL    HW214056   0.497   3.134   2.516 -1.1196  0.4281 -0.8665
 3571SOL    HW314057   0.507   3.085   2.373 -1.7058 -2.4498  0.0112
 3571SOL    MW414058   0.527   3.076   2.458 -0.6750 -0.0037  0.1597
 3572SOL     OW14059   2.655   5.329   6.009 -0.3820  0.4327 -0.4046
 3572SOL    HW214060   2.702   5.412   6.010 -1.0013  0.8531 -2.3908
 3572SOL    HW314061   2.712   5.269   6.057  0.4144  1.8113  0.4454
 3572SOL    MW414062   2.669   5.332   6.015  0.4703 -0.2674  0.3949
 3573SOL     OW14063   1.594   2.456   1.550  0.0914 -0.2941  0.0424
 3573SOL    HW214064   1.576   2.373   1.594 -0.9446 -0.6381 -0.9763
 3573SOL    HW314065   1.576   2.439   1.457  0.4120  0.9133 -0.2633
 3573SOL    MW414066   1.589   2.443   1.543 -0.0223 -0.2843  0.6332
 3574SOL     OW14067   0.414   2.805   4.864 -0.4867  0.5229  0.5046
 3574SOL    HW214068   0.483   2.845   4.918 -0.2026 -0.7247  1.1160
 3574SOL    HW314069   0.406   2.862   4.788  0.9632  0.9088  0.6095
 3574SOL    MW414070   0.422   2.818   4.861 -0.9399  0.3965  0.1621
 3575SOL     OW14071   1.227   6.066   0.214  0.1847 -0.3872  0.5308
 3575SOL    HW214072   1.162   6.101   0.275 -0.1341  0.1157 -0.0784
 3575SOL    HW314073   1.175   6.024   0.145  0.5291 -0.6717  0.4422
 3575SOL    MW414074   1.212   6.065   0.213  0.3830  0.2561 -1.1679
 3576SOL     OW14075   3.214   2.151   6.323  0.5932 -0.0079  0.2044
 3576SOL    HW214076   3.309   2.163   6.315  0.4513  0.5725 -0.8379
 3576SOL    HW314077   3.185   2.136   6.233 -0.0343 -2.4839  0.7499
 3576SOL    MW414078   3.223   2.151   6.310  0.2261  0.0358  0.0564
 3577SOL     OW14079   5.708   0.211   1.585 -0.5088 -0.2659 -0.0396
 3577SOL    HW214080   5.683   0.119   1.589 -1.5608 -0.0299 -0.9309
 3577SOL    HW314081   5.713   0.231   1.492  4.0051 -0.5057 -0.0728
 3577SOL    MW414082   5.705   0.202   1.573  0.1008 -0.1650 -0.3915
 3578SOL     OW14083   2.972   2.344   2.730  0.0229  0.6058  0.0470
 3578SOL    HW214084   3.056   2.390   2.727  1.2684 -1.3031  2.3129
 3578SOL    HW314085   2.929   2.377   2.810 -1.3053  1.3316 -0.9182
 3578SOL    MW414086   2.977   2.354   2.740 -0.6133  0.2812 -0.4349
 3579SOL     OW14087   5.356   3.755   0.924 -0.1933  0.3340 -0.1776
 3579SOL    HW214088   5.449   3.774   0.912 -0.2012 -0.5603 -2.2959
 3579SOL    HW314089   5.352   3.701   1.003  1.1363  0.1162 -0.2384
 3579SOL    MW414090   5.368   3.750   0.933  0.0406 -0.0932  0.2668
 3580SOL     OW14091   4.381   0.930   4.646 -0.2507  0.1040  0.7012
 3580SOL    HW214092   4.438   0.985   4.592 -0.7851  1.1381  1.1523
 3580SOL    HW314093   4.368   0.851   4.594 -0.0415  0.7002 -0.2918
 3580SOL    MW414094   4.387   0.927   4.632  0.0632 -0.8166 -0.0178
 3581SOL     OW14095   5.794   5.525   1.512 -0.0225  0.1897 -0.3902
 3581SOL    HW214096   5.803   5.437   1.475 -1.7744 -0.8009  1.3668
 3581SOL    HW314097   5.858   5.528   1.583 -0.9490 -0.2072  0.4704
 3581SOL    MW414098   5.804   5.514   1.516  0.2229  0.0055 -0.4483
 3582SOL     OW14099   1.618   2.618   4.413 -0.3707  0.5261  0.4806
 3582SOL    HW214100   1.587   2.648   4.499 -1.3520  0.0515  0.3105
 3582SOL    HW314101   1.605   2.523   4.415 -0.0683  0.4684 -0.0629
 3582SOL    MW414102   1.612   2.609   4.425  0.1300  0.4995 -0.2328
 3583SOL     OW14103   1.754   2.080   5.491 -0.3098 -0.0227 -0.4448
 3583SOL    HW214104   1.705   2.110   5.568 -1.0359 -1.7361 -0.2070
 3583SOL    HW314105   1.843   2.112   5.506 -0.6812  0.5925  0.5810
 3583SOL    MW414106   1.759   2.088   5.503 -0.1082  0.1029 -0.2282
 3584SOL     OW14107   5.308   1.658   4.075  0.6076 -0.2615 -0.0139
 3584SOL    HW214108   5.388   1.705   4.096  1.0361 -1.2801  0.6776
 3584SOL    HW314109   5.284   1.690   3.988  1.7106  0.1180 -0.1959
 3584SOL    MW414110   5.315   1.669   4.066 -0.3433  0.9595 -0.1627
 3585SOL     OW14111   5.686   6.212   2.756 -0.1231  0.1176 -0.2639
 3585SOL    HW214112   5.640   6.292   2.729 -1.3592 -0.8263 -1.0808
 3585SOL    HW314113   5.625   6.141   2.735  1.3789 -1.1335 -0.5825
 3585SOL    MW414114   5.672   6.213   2.749 -0.1355 -0.4130  0.2119
 3586SOL     OW14115   3.159   2.829   4.189  0.1570 -0.1428 -0.1157
 3586SOL    HW214116   3.202   2.815   4.105  0.4564  0.2143 -0.0229
 3586SOL    HW314117   3.229   2.853   4.249 -0.2330  1.0390 -0.1054
 3586SOL    MW414118   3.174   2.831   4.186  0.4332 -0.8461 -0.0525
 3587SOL     OW14119   4.556   3.547   5.881 -0.1230 -0.7083  0.4855
 3587SOL    HW214120   4.608   3.627   5.892 -2.1636  0.6135  1.0773
 3587SOL    HW314121   4.598   3.501   5.808  0.7021  1.2508 -0.3462
 3587SOL    MW414122   4.569   3.551   5.873 -0.0016  0.1346 -0.9439
 3588SOL     OW14123   2.234   2.450   3.268 -0.4962 -0.3897 -0.3971
 3588SOL    HW214124   2.267   2.410   3.188  0.1601 -1.2158  0.2777
 3588SOL    HW314125   2.304   2.440   3.332 -0.9554  0.3810  0.2556
 3588SOL    MW414126   2.247   2.443   3.266 -0.0752 -0.3633 -0.3817
 3589SOL     OW14127   0.966   4.115   5.004  0.4126  0.6975  0.3924
 3589SOL    HW214128   0.878   4.110   4.967  1.2280 -3.2890 -1.6069
 3589SOL    HW314129   1.010   4.184   4.954 -0.8645  1.0157 -0.3293
 3589SOL    MW414130   0.960   4.123   4.993 -0.0036 -0.0655 -0.0947
 3590SOL     OW14131   2.433   2.504   3.473  0.1057  0.6876 -0.0535
 3590SOL    HW214132   2.358   2.510   3.533 -1.7056  0.2620 -2.1445
 3590SOL    HW314133   2.506   2.476   3.529 -2.3129 -3.6316  1.4897
 3590SOL    MW414134   2.432   2.501   3.489 -0.4073  0.4469  0.0725
 3591SOL     OW14135   4.861   4.904   6.282 -0.4305 -0.1530  0.1131
 3591SOL    HW214136   4.948   4.925   6.247 -1.1032  0.3519 -1.3899
 3591SOL    HW314137   4.813   4.987   6.276 -1.4343 -0.7482 -0.4736
 3591SOL    MW414138   4.866   4.918   6.276  0.1560 -0.2633 -0.5389
 3592SOL     OW14139   1.100   6.026   1.618 -0.0326 -0.4800  0.2202
 3592SOL    HW214140   1.174   5.981   1.659  0.8504  0.9062  0.2432
 3592SOL    HW314141   1.025   6.004   1.672  1.1014  1.3973  2.7773
 3592SOL    MW414142   1.100   6.017   1.630 -0.1541  0.0762  0.5227
 3593SOL     OW14143   6.366   3.435   3.594 -0.3020 -0.6287 -0.4594
 3593SOL    HW214144   6.284   3.415   3.549 -1.1114  0.7454  0.3626
 3593SOL    HW314145   6.343   3.499   3.661  1.7318  1.1586 -1.3377
 3593SOL    MW414146   6.352   3.441   3.597  0.2798  0.2557  0.1488
 3594SOL     OW14147   1.718   1.687   1.202 -0.3305 -0.1788  0.1311
 3594SOL    HW214148   1.763   1.604   1.216  1.0219  0.5762  0.4866
 3594SOL    HW314149   1.703   1.722   1.289  0.6752  0.7231 -0.0288
 3594SOL    MW414150   1.722   1.681   1.215 -0.0650 -0.4392  0.2836
 3595SOL     OW14151   1.624   1.310   1.611  0.5918  0.1552 -0.0521
 3595SOL    HW214152   1.569   1.290   1.535  0.1048 -0.2479  0.3946
 3595SOL    HW314153   1.565   1.354   1.672  0.6025 -0.8091  0.6785
 3595SOL    MW414154   1.609   1.313   1.609  0.5192 -0.0835 -0.1173
 3596SOL     OW14155   2.511   3.417   6.148 -0.0735 -0.1072  0.1822
 3596SOL    HW214156   2.487   3.414   6.055  0.0504 -0.9921  0.1676
 3596SOL    HW314157   2.580   3.351   6.156  0.2318  0.2842  0.8160
 3596SOL    MW414158   2.517   3.408   6.137 -0.1375  0.1457 -0.1286
 3597SOL     OW14159   3.177   1.024   1.968  0.3459 -0.5813 -0.1289
 3597SOL    HW214160   3.148   1.107   1.931  0.5609  0.4597  1.8822
 3597SOL    HW314161   3.102   0.965   1.957 -0.6142  0.5199  0.2899
 3597SOL    MW414162   3.163   1.027   1.962  0.3816  0.0839  0.0354
 3598SOL     OW14163   1.498   6.242   4.788  0.3386 -0.0500 -0.0078
 3598SOL    HW214164   1.493   6.307   4.717 -2.0344 -0.7506 -0.5643
 3598SOL    HW314165   1.573   6.187   4.765 -0.3065 -0.1880 -1.9360
 3598SOL    MW414166   1.507   6.243   4.775  0.3647  0.0284 -0.1915
 3599SOL     OW14167   0.397   3.593   3.796  0.2193 -0.2948  0.3451
 3599SOL    HW214168   0.430   3.670   3.843 -0.7003 -0.7467  1.7724
 3599SOL    HW314169   0.308   3.617   3.771  0.7421  0.0067 -1.3909
 3599SOL    MW414170   0.389   3.607   3.799 -0.0321  0.0963  0.3313
 3600SOL     OW14171   0.987   4.606   5.459 -0.1526  0.1723  0.8381
 3600SOL    HW214172   0.959   4.543   5.393 -0.6397  0.8547  0.3764
 3600SOL    HW314173   1.063   4.649   5.421  0.7985 -0.8027  1.5678
 3600SOL    MW414174   0.993   4.603   5.446  0.3581 -0.3669  0.3046
 3601SOL     OW14175   0.639   2.278   4.935  0.4969 -0.2779  0.4219
 3601SOL    HW214176   0.641   2.365   4.974  2.3806 -0.3609  0.6062
 3601SOL    HW314177   0.710   2.279   4.870 -2.1421 -0.3159 -2.7209
 3601SOL    MW414178   0.649   2.290   4.932  0.3821 -0.1288 -0.0042
 3602SOL     OW14179   0.271   5.123   4.032  0.0493  0.0332 -0.0661
 3602SOL    HW214180   0.284   5.087   4.120 -0.1139 -0.0637 -0.0813
 3602SOL    HW314181   0.178   5.110   4.014  0.2722 -0.9035 -0.6624
 3602SOL    MW414182   0.260   5.117   4.041  0.3847 -0.3069  0.7119
 3603SOL     OW14183   0.646   5.690   5.668 -0.3311  0.6451 -0.2776
 3603SOL    HW214184   0.734   5.652   5.666 -0.7942 -0.4580 -0.6684
 3603SOL    HW314185   0.632   5.723   5.580 -0.6143  0.0419 -0.4699
 3603SOL    MW414186   0.656   5.689   5.656  0.3713 -0.2311  0.3844
 3604SOL     OW14187   6.051   1.426   3.403  0.3426 -0.4319  0.3402
 3604SOL    HW214188   6.137   1.460   3.381  0.3563 -0.7594 -0.1373
 3604SOL    HW314189   6.052   1.336   3.372  0.0519 -0.6412  0.9227
 3604SOL    MW414190   6.062   1.419   3.396 -0.4148  0.0371 -0.0473
 3605SOL     OW14191   4.285   5.617   3.548 -0.3853  0.0626 -0.3795
 3605SOL    HW214192   4.243   5.688   3.598 -1.9513 -0.0880 -1.3918
 3605SOL    HW314193   4.249   5.537   3.586  0.5843 -0.1675  0.0757
 3605SOL    MW414194   4.274   5.616   3.560 -0.0852  0.3689 -0.1014
 3606SOL     OW14195   1.032   1.147   3.617  0.0751 -0.6713 -0.6667
 3606SOL    HW214196   1.115   1.102   3.602  0.5604  0.3861 -1.2458
 3606SOL    HW314197   1.055   1.239   3.621 -1.0007 -0.4108 -0.2242
 3606SOL    MW414198   1.046   1.153   3.616  0.2007  0.1868  0.8878
 3607SOL     OW14199   2.074   5.042   4.586  0.8070 -0.2216 -0.0451
 3607SOL    HW214200   1.980   5.052   4.599  1.0321  1.0339  0.8702
 3607SOL    HW314201   2.109   5.027   4.674  1.4517 -0.8631 -0.3987
 3607SOL    MW414202   2.067   5.042   4.599  0.3198  0.0548  0.0252
 3608SOL     OW14203   1.731   4.681   1.645  0.4635  0.5974  0.3446
 3608SOL    HW214204   1.820   4.645   1.650  0.2460  0.1769  1.3279
 3608SOL    HW314205   1.674   4.605   1.643  0.0942  0.8738  0.2640
 3608SOL    MW414206   1.735   4.667   1.645  0.2598  0.2875  0.2041
 3609SOL     OW14207   0.105   4.057   0.587 -0.6012 -0.1688  0.2727
 3609SOL    HW214208   0.089   4.090   0.676  0.8413  0.5120  0.3030
 3609SOL    HW314209   0.073   4.127   0.530 -0.6547 -0.1875  0.2803
 3609SOL    MW414210   0.099   4.071   0.591  0.0583  0.6779 -0.2473
 3610SOL     OW14211   6.284   1.376   6.097 -0.0151  0.5526 -0.4365
 3610SOL    HW214212   6.311   1.458   6.056 -2.2633  1.3459 -0.4711
 3610SOL    HW314213   6.336   1.369   6.176  0.7455  1.6248 -0.8274
 3610SOL    MW414214   6.294   1.386   6.102  0.1817  0.4395 -0.6788
 3611SOL     OW14215   5.285   1.373   0.510 -0.5572 -0.1378  0.0379
 3611SOL    HW214216   5.316   1.283   0.525 -0.9194 -0.3758 -0.5963
 3611SOL    HW314217   5.305   1.390   0.418 -0.2101  0.5489  0.2404
 3611SOL    MW414218   5.292   1.363   0.500 -0.2553 -0.2298  0.4722
 3612SOL     OW14219   2.127   0.271   2.783  0.4658  0.0099  0.0466
 3612SOL    HW214220   2.056   0.270   2.848 -0.6994  0.3743 -1.1555
 3612SOL    HW314221   2.089   0.229   2.706  0.8169  2.0254 -1.3199
 3612SOL    MW414222   2.112   0.265   2.781 -0.0367 -0.0812  0.0692
 3613SOL     OW14223   1.387   2.489   5.349 -0.1115 -0.1031 -0.4962
 3613SOL    HW214224   1.302   2.475   5.308 -0.1218 -0.5198 -0.3423
 3613SOL    HW314225   1.379   2.572   5.395 -0.9783 -0.9041  0.8888
 3613SOL    MW414226   1.375   2.498   5.350 -0.4615 -0.4433  0.2302
 3614SOL     OW14227   2.620   5.617   6.305 -0.6264  0.0580  0.3029
 3614SOL    HW214228   2.672   5.650   6.232 -1.1917  0.0663 -0.0939
 3614SOL    HW314229   2.684   5.573   6.361 -0.4343 -1.5385 -1.0950
 3614SOL    MW414230   2.635   5.616   6.303  0.4471 -0.0553  0.9213
 3615SOL     OW14231   0.214   6.260   5.229  0.0855 -0.0697  0.0685
 3615SOL    HW214232   0.183   6.255   5.139  0.1951 -0.1346  0.0344
 3615SOL    HW314233   0.154   6.322   5.272  0.4754  0.5367 -0.2361
 3615SOL    MW414234   0.202   6.268   5.223  0.0420 -0.0933  0.0088
 3616SOL     OW14235   5.065   5.596   1.664  0.0621  0.3890 -0.2614
 3616SOL    HW214236   4.991   5.602   1.604 -0.0565  0.9132 -0.0707
 3616SOL    HW314237   5.025   5.589   1.751  0.2291 -0.7451 -0.2660
 3616SOL    MW414238   5.050   5.596   1.667  0.1967  0.4457  1.3111
 3617SOL     OW14239   5.863   5.521   0.352 -0.0651  0.3585 -0.2912
 3617SOL    HW214240   5.953   5.543   0.375 -0.4957  1.9101  0.0074
 3617SOL    HW314241   5.831   5.599   0.306 -1.2374 -0.2064 -0.4530
 3617SOL    MW414242   5.871   5.534   0.349  0.0399  0.1823  0.3684
 3618SOL     OW14243   5.981   6.263   5.176 -0.0139 -0.0135  0.1364
 3618SOL    HW214244   5.949   6.349   5.202 -0.3345  0.2620 -1.1016
 3618SOL    HW314245   6.063   6.252   5.223 -0.1294  0.8313  0.5420
 3618SOL    MW414246   5.987   6.273   5.185 -0.3571  0.0938 -0.1701
 3619SOL     OW14247   2.244   0.796   5.369  0.2399 -0.3141 -0.1729
 3619SOL    HW214248   2.324   0.831   5.330 -0.0349  0.2544 -0.2386
 3619SOL    HW314249   2.246   0.828   5.459  0.9281 -1.7134  0.3331
 3619SOL    MW414250   2.255   0.805   5.376 -0.5977  0.0765 -0.6219
 3620SOL     OW14251   3.278   0.382   4.758 -0.5696 -0.2697  0.3682
 3620SOL    HW214252   3.251   0.298   4.720 -1.9849 -0.0564  0.8621
 3620SOL    HW314253   3.216   0.446   4.722  1.2389  0.8131 -0.9875
 3620SOL    MW414254   3.266   0.379   4.748  0.5175 -0.6245  0.0078
 3621SOL     OW14255   1.718   2.602   0.366  0.5394 -0.1416 -0.1729
 3621SOL    HW214256   1.770   2.523   0.355  0.8974  0.2342 -1.2868
 3621SOL    HW314257   1.755   2.664   0.304 -1.8408 -0.1657 -1.7289
 3621SOL    MW414258   1.730   2.600   0.356  0.8494 -0.3485  0.0446
 3622SOL     OW14259   1.578   4.073   0.050 -0.6219 -0.4139 -0.4174
 3622SOL    HW214260   1.602   3.982   0.033  0.7167 -0.2007  0.1975
 3622SOL    HW314261   1.609   4.122  -0.026  1.4731 -0.0638  0.6089
 3622SOL    MW414262   1.585   4.068   0.038  0.9327 -0.4583  0.0536
 3623SOL     OW14263   3.575   0.157   6.372 -0.3606 -0.5409  0.1858
 3623SOL    HW214264   3.546   0.118   6.289 -1.5351 -0.3053  0.4752
 3623SOL    HW314265   3.664   0.186   6.354 -0.8522  0.2019 -1.2394
 3623SOL    MW414266   3.583   0.156   6.359 -0.3389  0.1268 -0.1731
 3624SOL     OW14267   6.311   0.182   2.035 -0.3305  0.2967  0.0081
 3624SOL    HW214268   6.234   0.233   2.061  0.6397  2.7171 -1.4970
 3624SOL    HW314269   6.346   0.149   2.117 -1.0247  2.1165  1.1088
 3624SOL    MW414270   6.305   0.185   2.049 -0.3301 -0.3957 -0.1968
 3625SOL     OW14271   3.474   1.512   5.397 -0.1910  0.5190  0.6674
 3625SOL    HW214272   3.479   1.601   5.430  0.6512  0.4537  0.7453
 3625SOL    HW314273   3.389   1.507   5.354  0.2901  1.7675 -0.5040
 3625SOL    MW414274   3.463   1.523   5.396 -0.2470 -0.5436  0.1250
 3626SOL     OW14275   5.226   2.926   3.439  0.0077  0.0714 -0.2355
 3626SOL    HW214276   5.299   2.980   3.406 -0.3003  1.0052  0.5796
 3626SOL    HW314277   5.149   2.960   3.394 -0.1217 -0.0060 -0.0731
 3626SOL    MW414278   5.226   2.938   3.429  0.2679 -0.2139  0.1592
 3627SOL     OW14279   1.514   3.924   5.257 -0.1057  0.2897 -0.7336
 3627SOL    HW214280   1.608   3.918   5.243  0.2850  0.7308  1.4359
 3627SOL    HW314281   1.483   3.833   5.251  0.9045 -0.2261  1.1309
 3627SOL    MW414282   1.522   3.911   5.254 -0.8248 -0.1862 -0.3083
 3628SOL     OW14283   0.874   0.514   4.631  0.4202 -0.4366  0.4494
 3628SOL    HW214284   0.927   0.586   4.665 -0.1324  0.7415 -1.0566
 3628SOL    HW314285   0.795   0.514   4.686  0.3851  0.1710  0.4052
 3628SOL    MW414286   0.871   0.524   4.643  0.4969 -0.0786 -0.2747
 3629SOL     OW14287   0.086   0.113   4.969  0.4047 -0.1211  0.0041
 3629SOL    HW214288   0.005   0.141   5.012  0.7481 -1.1252  1.3843
 3629SOL    HW314289   0.155   0.158   5.018  0.7660 -0.5042 -0.1545
 3629SOL    MW414290   0.084   0.123   4.981  0.0870  0.3566  0.4649
 3630SOL     OW14291   2.908   0.152   1.582  0.6145 -0.4139  0.0578
 3630SOL    HW214292   3.003   0.157   1.570  0.5434  1.7509  0.1094
 3630SOL    HW314293   2.886   0.230   1.633 -1.3397 -0.3336 -0.8365
 3630SOL    MW414294   2.918   0.163   1.587 -0.6446 -0.4562  0.4827
 3631SOL     OW14295   0.291   2.999   6.212 -0.2631  0.1222  0.0787
 3631SOL    HW214296   0.219   3.016   6.273  0.3337  1.1605  0.5109
 3631SOL    HW314297   0.249   2.961   6.136 -1.4960  2.1011 -0.2921
 3631SOL    MW414298   0.276   2.996   6.210 -0.3813  0.1901  0.1222
 3632SOL     OW14299   3.818   2.559   1.599 -0.1331 -0.2033 -0.8494
 3632SOL    HW214300   3.886   2.533   1.661 -0.7014  1.4634  0.5373
 3632SOL    HW314301   3.862   2.558   1.514  0.8013 -2.0520 -0.4133
 3632SOL    MW414302   3.833   2.555   1.596  0.4120 -0.1440  0.2381
 3633SOL     OW14303   4.249   2.627   5.778  0.0135  0.2980 -0.0492
 3633SOL    HW214304   4.304   2.636   5.855  1.1665  1.0005 -0.9231
 3633SOL    HW314305   4.238   2.532   5.768  0.9032  0.1546  0.2560
 3633SOL    MW414306   4.255   2.615   5.787 -0.2180  0.0025  0.1834
 3634SOL     OW14307   5.551   3.559   3.601  0.6647 -0.5300  0.1380
 3634SOL    HW214308   5.592   3.474   3.592  1.7304  0.0203 -0.2844
 3634SOL    HW314309   5.622   3.618   3.624  0.0093  0.3307  0.0028
 3634SOL    MW414310   5.566   3.556   3.603 -0.6369 -0.5409 -0.1217
 3635SOL     OW14311   1.463   0.349   3.433  0.9037  0.5532  0.0303
 3635SOL    HW214312   1.432   0.404   3.361  0.0419 -0.3070 -0.2764
 3635SOL    HW314313   1.400   0.363   3.503  0.3982 -0.4144 -0.2253
 3635SOL    MW414314   1.451   0.358   3.432 -0.4152 -0.0660 -0.0821
 3636SOL     OW14315   0.314   0.073   4.591 -0.0481  0.1490 -0.2786
 3636SOL    HW214316   0.232   0.117   4.614  1.4195  2.4009  1.0325
 3636SOL    HW314317   0.355   0.054   4.676  1.1734 -0.1577 -0.9188
 3636SOL    MW414318   0.309   0.076   4.605  0.3345 -0.2137  0.0437
 3637SOL     OW14319   2.608   4.404   2.453  0.8726  0.1048 -0.1873
 3637SOL    HW214320   2.566   4.469   2.510  1.1644  0.1911 -0.0693
 3637SOL    HW314321   2.536   4.346   2.426  0.7785 -0.1201  0.5090
 3637SOL    MW414322   2.593   4.405   2.457 -0.3600 -0.2193 -0.5037
 3638SOL     OW14323   5.793   3.622   4.951  0.5009  0.4294  0.2722
 3638SOL    HW214324   5.842   3.586   5.026 -0.5626 -0.7550  0.4349
 3638SOL    HW314325   5.836   3.584   4.875 -0.5465 -1.2412  0.4380
 3638SOL    MW414326   5.805   3.612   4.951  0.2356  0.1935  0.3831
 3639SOL     OW14327   4.915   2.443   1.326 -0.2799 -0.5454  0.5357
 3639SOL    HW214328   4.999   2.471   1.291 -0.7835 -0.9480 -1.0726
 3639SOL    HW314329   4.850   2.494   1.277 -1.0098 -0.8804  1.1341
 3639SOL    MW414330   4.917   2.454   1.315  0.2232 -0.0097 -0.0563
 3640SOL     OW14331   2.557   5.690   1.473 -1.1172 -0.1562  0.3539
 3640SOL    HW214332   2.516   5.609   1.504 -1.1938 -0.1715  0.2137
 3640SOL    HW314333   2.565   5.744   1.551 -0.3862 -0.5919  0.5947
 3640SOL    MW414334   2.553   5.686   1.487 -0.4109  0.5987  0.2969
 3641SOL     OW14335   1.826   1.732   5.862  0.3637  0.4103  0.4718
 3641SOL    HW214336   1.869   1.653   5.831  1.6230  0.6999  1.3912
 3641SOL    HW314337   1.732   1.712   5.857  0.6511 -1.0696  0.5032
 3641SOL    MW414338   1.819   1.719   5.857 -0.4844 -0.0835 -0.1807
 3642SOL     OW14339   3.093   2.295   4.669  0.5161  0.3958  0.0535
 3642SOL    HW214340   3.187   2.305   4.685  0.6220  0.5144 -0.6322
 3642SOL    HW314341   3.081   2.317   4.577  0.4086 -3.5114 -1.0289
 3642SOL    MW414342   3.104   2.299   4.659 -0.4561 -0.5592  0.3956
 3643SOL     OW14343   1.935   3.873   5.660  0.9131  0.4278  0.1874
 3643SOL    HW214344   1.872   3.804   5.637  1.2585 -0.1121  0.8361
 3643SOL    HW314345   1.973   3.900   5.576 -0.2442  0.8322 -0.2280
 3643SOL    MW414346   1.931   3.867   5.646  0.4934 -0.3394  0.0710
 3644SOL     OW14347   3.535   4.605   2.945 -0.4203 -0.1953  0.2643
 3644SOL    HW214348   3.466   4.647   2.997 -0.6221 -1.7353  1.3085
 3644SOL    HW314349   3.495   4.525   2.912  0.1867  0.0132 -1.0252
 3644SOL    MW414350   3.521   4.600   2.948  0.1413 -0.0805  0.2147
 3645SOL     OW14351   0.617   0.529   4.732 -0.8860  0.4489 -0.0807
 3645SOL    HW214352   0.580   0.612   4.701 -0.0185  1.3746  1.2660
 3645SOL    HW314353   0.610   0.533   4.827 -0.1390 -0.6948  0.0455
 3645SOL    MW414354   0.611   0.541   4.740  0.0880  0.7241 -0.1921
 3646SOL     OW14355   5.876   2.715   5.788 -0.4276 -0.1997  0.0187
 3646SOL    HW214356   5.851   2.667   5.709  0.7670 -0.9641  0.0799
 3646SOL    HW314357   5.855   2.806   5.769 -1.5715 -0.5777 -0.5902
 3646SOL    MW414358   5.870   2.720   5.775 -0.3335 -0.4032  0.0084
 3647SOL     OW14359   1.982   4.452   4.394  0.2945  0.1099  0.1714
 3647SOL    HW214360   1.911   4.488   4.446  0.4705  0.8457 -0.0812
 3647SOL    HW314361   1.960   4.359   4.384  0.0763  0.0410  1.2319
 3647SOL    MW414362   1.970   4.444   4.399  0.3395 -0.2506  0.3417
 3648SOL     OW14363   4.103   2.931   1.994  0.4362  0.3639  0.0301
 3648SOL    HW214364   4.091   2.978   2.077 -1.2835  1.8555 -0.9826
 3648SOL    HW314365   4.016   2.896   1.973  0.5063  1.1417 -1.7482
 3648SOL    MW414366   4.090   2.933   2.002  0.6621 -0.0159 -0.2356
 3649SOL     OW14367   3.359   2.303   2.789  0.0597 -0.2817 -0.3148
 3649SOL    HW214368   3.450   2.324   2.811  0.2038  0.1292 -1.2382
 3649SOL    HW314369   3.321   2.387   2.762 -1.4385  0.1544  2.7099
 3649SOL    MW414370   3.366   2.317   2.788 -0.3139 -0.2742 -0.1035
 3650SOL     OW14371   1.205   3.483   5.734 -0.5400 -0.2375  0.4104
 3650SOL    HW214372   1.186   3.394   5.763  2.4746 -1.0263  0.2678
 3650SOL    HW314373   1.220   3.532   5.814 -1.4123 -0.0335  0.4581
 3650SOL    MW414374   1.204   3.477   5.748 -0.3884 -0.1472  0.0108
 3651SOL     OW14375   5.315   5.682   3.891 -0.7849  0.2541 -0.6545
 3651SOL    HW214376   5.311   5.752   3.957 -1.0579 -0.4516  0.0967
 3651SOL    HW314377   5.389   5.628   3.919 -1.1472 -0.2665 -0.6996
 3651SOL    MW414378   5.324   5.684   3.904  0.1023 -0.2650 -0.0783
 3652SOL     OW14379   3.233   3.255   2.199 -0.4515 -0.0642  0.0112
 3652SOL    HW214380   3.189   3.309   2.134  1.6449 -0.1813 -1.5913
 3652SOL    HW314381   3.212   3.165   2.174  0.0300 -0.0967 -0.3006
 3652SOL    MW414382   3.225   3.250   2.187  0.6916  0.5980 -0.0036
 3653SOL     OW14383   4.174   5.054  -0.005 -0.0657 -1.0313 -0.0665
 3653SOL    HW214384   4.226   5.087  -0.078  2.3729 -1.0561  1.5362
 3653SOL    HW314385   4.167   4.959  -0.021 -1.6101 -0.7251 -1.4237
 3653SOL    MW414386   4.180   5.046  -0.016 -0.1254 -0.0493  0.9228
 3654SOL     OW14387   1.075   5.405   3.512 -0.2255  0.4899  0.2013
 3654SOL    HW214388   1.163   5.375   3.534  0.2591  1.2630 -0.6363
 3654SOL    HW314389   1.032   5.328   3.475  0.5870  0.4748 -0.7470
 3654SOL    MW414390   1.081   5.391   3.510  1.2475  0.3864 -0.0177
 3655SOL     OW14391   0.712   4.241   5.180 -0.1192  0.6958  0.1050
 3655SOL    HW214392   0.749   4.171   5.235  0.8766  1.1202 -0.0060
 3655SOL    HW314393   0.729   4.212   5.091  2.9981  2.3927  0.0240
 3655SOL    MW414394   0.719   4.228   5.176 -0.0870 -0.6735 -0.3356
 3656SOL     OW14395   5.943   0.260   0.049 -0.5466 -0.1657 -0.7374
 3656SOL    HW214396   5.862   0.290   0.089 -1.9662 -2.6592 -1.5655
 3656SOL    HW314397   5.979   0.196   0.111 -0.1128 -0.3414 -1.1559
 3656SOL    MW414398   5.937   0.255   0.063  0.1901  0.1234 -0.3876
 3657SOL     OW14399   1.208   4.061   5.458  0.4675  0.0493 -0.0626
 3657SOL    HW214400   1.145   4.100   5.517  1.5664  1.2836  0.3481
 3657SOL    HW314401   1.166   3.981   5.427 -0.7313  0.1391  1.2303
 3657SOL    MW414402   1.194   4.055   5.462  0.0429  0.3317 -0.2709
 3658SOL     OW14403   2.718   6.215   5.575 -0.2417 -0.5503 -0.3725
 3658SOL    HW214404   2.771   6.199   5.653  0.3951 -1.1768 -0.9223
 3658SOL    HW314405   2.681   6.130   5.553 -2.5051  0.0518  0.6816
 3658SOL    MW414406   2.720   6.202   5.583  0.0451 -0.0729 -0.2162
 3659SOL     OW14407   5.956   4.373   4.011  0.0172 -0.4508 -0.5100
 3659SOL    HW214408   6.029   4.312   4.002  0.0137 -0.1977 -3.6403
 3659SOL    HW314409   5.899   4.335   4.078  1.6938 -2.0372  0.0683
 3659SOL    MW414410   5.958   4.360   4.018 -0.6804 -0.2535  0.1894
 3660SOL     OW14411   2.221   5.530   6.164 -0.0083 -0.2517  0.3210
 3660SOL    HW214412   2.286   5.483   6.216  0.1883 -0.8769 -0.4654
 3660SOL    HW314413   2.233   5.622   6.189  0.9969 -0.3861  0.4051
 3660SOL    MW414414   2.231   5.536   6.174 -0.4345  0.0062 -0.8212
 3661SOL     OW14415   5.745   1.299   5.379  0.3426 -0.5172 -0.0876
 3661SOL    HW214416   5.677   1.342   5.430  1.8089  0.5281  1.0857
 3661SOL    HW314417   5.731   1.329   5.289 -0.6755 -0.2755  0.1421
 3661SOL    MW414418   5.734   1.308   5.374  0.2339  0.3400 -0.0693
 3662SOL     OW14419   5.930   5.934   6.225  0.7657  0.0782  0.0998
 3662SOL    HW214420   5.896   6.022   6.208  2.4415  0.8287  0.4931
 3662SOL    HW314421   5.909   5.885   6.145  0.8929  1.1792 -0.6317
 3662SOL    MW414422   5.923   5.939   6.212 -0.2597  0.0875  0.3267
 3663SOL     OW14423   3.059   3.187   1.029 -0.1496 -0.2421  0.0416
 3663SOL    HW214424   3.151   3.213   1.027  0.3080 -1.8012 -0.9325
 3663SOL    HW314425   3.012   3.266   1.053  1.3711  0.8080 -0.3343
 3663SOL    MW414426   3.065   3.200   1.032 -0.0017  0.4379  0.5193
 3664SOL     OW14427   3.245   3.756   0.593 -0.5114 -0.4593  0.4534
 3664SOL    HW214428   3.165   3.761   0.540 -0.1873  0.5067  0.0333
 3664SOL    HW314429   3.291   3.679   0.560 -0.4343 -0.0090 -0.5059
 3664SOL    MW414430   3.240   3.746   0.582  0.2060 -0.1456 -0.2633
 3665SOL     OW14431   4.576   5.318   2.120 -0.0202 -0.2717 -0.2130
 3665SOL    HW214432   4.653   5.275   2.083  0.0540 -0.2894 -0.0390
 3665SOL    HW314433   4.505   5.255   2.108 -0.6760  0.8285 -2.9935
 3665SOL    MW414434   4.577   5.304   2.113 -0.5781 -0.2147  0.6645
 3666SOL     OW14435   1.329   3.466   4.047  0.1651  0.0098  0.3594
 3666SOL    HW214436   1.360   3.402   3.982 -0.0169  0.1902  0.0906
 3666SOL    HW314437   1.388   3.455   4.121  0.2497 -0.3436  0.2442
 3666SOL    MW414438   1.341   3.456   4.048  0.1675 -0.1019 -0.4431
 3667SOL     OW14439   3.903   2.770   6.285  0.5676 -0.2203  0.2326
 3667SOL    HW214440   3.942   2.802   6.367  0.5823 -0.3052  0.2584
 3667SOL    HW314441   3.857   2.846   6.250  1.5811  0.1729 -0.3016
 3667SOL    MW414442   3.902   2.785   6.291  0.3709  0.3479  0.4334
 3668SOL     OW14443   2.035   2.152   5.576 -0.4096 -0.2502 -0.1264
 3668SOL    HW214444   2.002   2.065   5.598  0.1598 -0.1305  1.3123
 3668SOL    HW314445   2.125   2.153   5.610  0.0004  0.4934 -1.1865
 3668SOL    MW414446   2.043   2.141   5.583  0.2374  0.2347  0.0511
 3669SOL     OW14447   0.942   5.465   2.392 -0.0505  0.5157 -0.3415
 3669SOL    HW214448   0.861   5.430   2.429 -1.2274  2.3183 -1.1156
 3669SOL    HW314449   0.991   5.387   2.364 -0.9983 -0.6616  1.1149
 3669SOL    MW414450   0.938   5.450   2.394 -0.1857  0.0026 -0.4259
 3670SOL     OW14451   2.327   3.795   2.746 -0.4419 -0.1788 -0.3089
 3670SOL    HW214452   2.302   3.724   2.806 -0.0794 -0.0739 -0.0290
 3670SOL    HW314453   2.419   3.811   2.766  0.0292 -0.9434 -1.7152
 3670SOL    MW414454   2.336   3.787   2.757  0.1989 -0.6535  0.3831
 3671SOL     OW14455   0.255   2.969   2.741  0.4110  0.0015  0.4476
 3671SOL    HW214456   0.317   2.902   2.712  1.0580 -0.5124  2.7767
 3671SOL    HW314457   0.179   2.919   2.773  0.6639  0.3891  1.6850
 3671SOL    MW414458   0.253   2.954   2.741 -0.2176 -0.1194  0.4384
 3672SOL     OW14459   4.209   4.455   1.354 -0.4213 -0.1133  0.3027
 3672SOL    HW214460   4.245   4.377   1.312 -1.1996 -0.2876 -0.0502
 3672SOL    HW314461   4.237   4.527   1.298  0.8887 -0.0494  1.0020
 3672SOL    MW414462   4.218   4.454   1.341  0.0787  0.0877 -0.2308
 3673SOL     OW14463   6.308   0.790   4.753 -0.6676  0.3900 -0.0237
 3673SOL    HW214464   6.310   0.802   4.848  1.0832 -1.0145  0.1542
 3673SOL    HW314465   6.220   0.756   4.736 -1.1077  0.9191  1.0256
 3673SOL    MW414466   6.297   0.787   4.764 -0.1869  0.0073  0.0642
 3674SOL     OW14467   0.750   4.636   2.551  0.4249  0.3772  0.3803
 3674SOL    HW214468   0.712   4.715   2.590 -0.9164  0.4116 -0.9104
 3674SOL    HW314469   0.681   4.602   2.494  1.1973 -1.3933  0.4253
 3674SOL    MW414470   0.736   4.642   2.549  0.8324 -0.5486 -0.1487
 3675SOL     OW14471   0.352   2.479   2.823 -0.2442  0.4245 -0.2987
 3675SOL    HW214472   0.276   2.476   2.881 -0.4241 -0.5056 -0.5521
 3675SOL    HW314473   0.381   2.570   2.825  1.5233 -0.0325  3.4673
 3675SOL    MW414474   0.345   2.490   2.831 -0.2288 -0.5045  0.2542
 3676SOL     OW14475   1.611   1.793   0.226  0.2457 -0.0293 -0.5306
 3676SOL    HW214476   1.577   1.723   0.281  0.0284 -0.5004 -1.2528
 3676SOL    HW314477   1.551   1.867   0.242  0.6386  0.0901  0.4375
 3676SOL    MW414478   1.598   1.794   0.236  0.4079  0.0931 -0.0217
 3677SOL     OW14479   5.945   1.932   5.857 -0.1745  0.4918 -0.0324
 3677SOL    HW214480   6.003   1.998   5.820  1.1163 -0.6440 -0.0995
 3677SOL    HW314481   5.896   1.898   5.782  0.8196 -0.2239 -0.3717
 3677SOL    MW414482   5.946   1.936   5.842 -0.3488 -0.0609  0.1230
 3678SOL     OW14483   1.695   3.111   1.699  0.2294  0.0373  0.1769
 3678SOL    HW214484   1.712   3.190   1.648  0.3333 -0.4039 -0.4934
 3678SOL    HW314485   1.661   3.142   1.782  1.1777  0.8223  0.2860
 3678SOL    MW414486   1.693   3.125   1.703  0.3727  0.3820  0.2053
 3679SOL     OW14487   2.820   1.360   0.866 -0.2701 -0.3015  0.3626
 3679SOL    HW214488   2.791   1.446   0.897  0.1127  0.4991 -1.3442
 3679SOL    HW314489   2.742   1.323   0.825  0.0967  0.2628 -0.9307
 3679SOL    MW414490   2.806   1.367   0.865 -0.3301 -0.1747 -0.6869
 3680SOL     OW14491   1.228   0.562   2.978 -0.5353  0.6674  0.0844
 3680SOL    HW214492   1.246   0.559   2.884 -0.3567 -1.0512  0.1374
 3680SOL    HW314493   1.260   0.648   3.006  1.6955  0.2719 -0.9974
 3680SOL    MW414494   1.235   0.573   2.969  0.1719 -0.5216  0.0404
 3681SOL     OW14495   4.252   3.027   0.990  0.3612  0.0896 -0.3287
 3681SOL    HW214496   4.237   3.116   0.958  0.0505 -0.0326 -0.5306
 3681SOL    HW314497   4.299   3.038   1.073 -1.3263  0.5241  0.6171
 3681SOL    MW414498   4.256   3.040   0.997 -0.5891  0.9389 -0.1474
 3682SOL     OW14499   1.924   2.836   4.014  0.4859 -0.2509  0.6849
 3682SOL    HW214500   1.999   2.870   4.062 -0.3308  2.0782  0.4695
 3682SOL    HW314501   1.861   2.811   4.082 -0.0831  1.6386  0.9188
 3682SOL    MW414502   1.925   2.837   4.029 -0.2469 -0.2559  0.4475
 3683SOL     OW14503   1.678   5.231   3.338 -0.3477  0.4839 -0.8632
 3683SOL    HW214504   1.637   5.277   3.265 -1.8536 -0.2464 -0.5074
 3683SOL    HW314505   1.706   5.147   3.302 -0.0516  0.5878 -0.8747
 3683SOL    MW414506   1.676   5.226   3.324 -0.1840 -0.2627 -0.3221
 3684SOL     OW14507   0.534   2.374   5.251 -0.2154 -0.0182 -0.1099
 3684SOL    HW214508   0.450   2.375   5.205 -0.2919  1.2097  0.0199
 3684SOL    HW314509   0.585   2.443   5.209  0.0622  0.4824  1.0149
 3684SOL    MW414510   0.530   2.383   5.239 -0.0852  0.0335 -0.1430
 3685SOL     OW14511   2.390   1.365   2.955 -0.1570  0.1160  0.3541
 3685SOL    HW214512   2.420   1.351   3.045 -1.0913 -2.4242  0.3347
 3685SOL    HW314513   2.468   1.399   2.910  0.8773 -0.3537  1.6994
 3685SOL    MW414514   2.404   1.367   2.961  0.4765  0.0792 -1.0055
 3686SOL     OW14515   5.828   4.118   4.705 -0.2670  0.1673 -0.1489
 3686SOL    HW214516   5.821   4.031   4.744 -1.7508  0.3479  0.0500
 3686SOL    HW314517   5.740   4.136   4.671 -0.5363  2.3441  1.4756
 3686SOL    MW414518   5.815   4.109   4.706  0.0667  0.7215 -0.2740
 3687SOL     OW14519   2.957   1.883   1.604 -0.1533  0.6043 -0.6718
 3687SOL    HW214520   2.884   1.822   1.618 -0.4720  0.8990 -1.0025
 3687SOL    HW314521   2.927   1.939   1.532 -0.0120  1.3745 -0.1461
 3687SOL    MW414522   2.943   1.882   1.596 -0.5044  0.3551  0.1681
 3688SOL     OW14523   5.597   6.146   1.197 -0.1312 -0.1391  0.3162
 3688SOL    HW214524   5.616   6.239   1.192 -0.2605 -0.1031  0.4912
 3688SOL    HW314525   5.631   6.110   1.115  1.1069 -0.1435  0.8151
 3688SOL    MW414526   5.604   6.153   1.186  0.3767  0.2592  0.1588
 3689SOL     OW14527   5.514   2.646   2.853  0.5929 -0.5187 -0.3974
 3689SOL    HW214528   5.589   2.706   2.842 -0.0368  0.7826  1.8118
 3689SOL    HW314529   5.529   2.604   2.937 -1.4235  0.2354  0.3992
 3689SOL    MW414530   5.526   2.649   2.862  0.0723  0.0812 -0.1552
 3690SOL     OW14531   1.029   5.487   4.626  0.1075  0.2728 -0.4024
 3690SOL    HW214532   1.103   5.527   4.671  1.0725 -2.2518  0.4682
 3690SOL    HW314533   1.053   5.490   4.533  0.4049  1.1388 -0.3085
 3690SOL    MW414534   1.042   5.492   4.620  0.2715  0.0464 -0.0505
 3691SOL     OW14535   5.814   0.035   2.947 -0.0049 -0.2043 -0.4149
 3691SOL    HW214536   5.903   0.002   2.934  0.3719  0.7781 -0.4353
 3691SOL    HW314537   5.767   0.007   2.869  0.3862 -0.4123 -0.5805
 3691SOL    MW414538   5.819   0.027   2.935 -0.4907 -0.1287  0.1795
 3692SOL     OW14539   6.140   3.675   5.301  0.1564  0.0030  0.1615
 3692SOL    HW214540   6.225   3.718   5.288  1.2080 -2.3737 -1.6714
 3692SOL    HW314541   6.077   3.734   5.260  1.3591  0.4737 -1.0964
 3692SOL    MW414542   6.143   3.689   5.294 -0.2575  0.4449  0.3470
 3693SOL     OW14543   1.903   2.798   3.142 -0.3964  0.2806  0.0229
 3693SOL    HW214544   1.855   2.724   3.105  1.2849 -0.3696 -0.9952
 3693SOL    HW314545   1.989   2.762   3.164  0.6929  2.0473 -1.0950
 3693SOL    MW414546   1.908   2.784   3.140 -0.1280  0.5630  0.1075
 3694SOL     OW14547   1.759   1.769   3.023  0.0397 -0.1934  0.4481
 3694SOL    HW214548   1.752   1.852   3.071  0.6286 -0.0632  0.3238
 3694SOL    HW314549   1.748   1.701   3.089  2.5643 -0.0515  1.1466
 3694SOL    MW414550   1.757   1.771   3.038 -0.3441 -0.1605  0.3778
 3695SOL     OW14551   2.866   3.102   1.586 -0.0209 -0.6367  0.2212
 3695SOL    HW214552   2.916   3.057   1.517 -1.2826 -1.4874 -0.1817
 3695SOL    HW314553   2.831   3.031   1.639  0.0195 -0.0103  1.0959
 3695SOL    MW414554   2.868   3.087   1.584  0.1540  0.4690 -0.2105
 3696SOL     OW14555   5.992   5.144   2.542 -0.2036 -0.1693 -0.6809
 3696SOL    HW214556   6.016   5.122   2.632  0.5963  0.0628 -0.8260
 3696SOL    HW314557   5.920   5.207   2.550 -0.2822 -0.3184 -0.2090
 3696SOL    MW414558   5.986   5.149   2.555  0.2254  0.0550  0.2314
 3697SOL     OW14559   3.189   6.206   3.953 -0.3094  0.2754 -0.1063
 3697SOL    HW214560   3.143   6.288   3.973 -0.4984 -0.0054  0.6485
 3697SOL    HW314561   3.269   6.234   3.908 -2.0385  0.6997 -3.2087
 3697SOL    MW414562   3.194   6.220   3.950 -0.1093 -0.1853 -0.2444
 3698SOL     OW14563   1.165   5.577   2.542 -0.1097  0.2378  0.0715
 3698SOL    HW214564   1.134   5.635   2.612 -0.5996 -0.2281  0.2505
 3698SOL    HW314565   1.096   5.512   2.533  0.5207 -0.4249 -0.0100
 3698SOL    MW414566   1.152   5.576   2.550 -0.1981  0.0489  0.0684
 3699SOL     OW14567   1.795   0.708   1.878  0.2633 -0.8440  0.8136
 3699SOL    HW214568   1.784   0.670   1.966  1.4774 -0.4121  1.1694
 3699SOL    HW314569   1.797   0.802   1.892 -2.9600 -0.5292 -0.0972
 3699SOL    MW414570   1.794   0.715   1.892  0.4543 -0.0440 -0.3031
 3700SOL     OW14571   2.063   2.314   3.811 -0.4679 -0.4655  0.0482
 3700SOL    HW214572   2.114   2.249   3.858  1.2986  1.1103  0.4240
 3700SOL    HW314573   2.041   2.381   3.876 -0.6685  0.2214 -0.6982
 3700SOL    MW414574   2.066   2.315   3.826 -0.5483  0.5234  0.8584
 3701SOL     OW14575   0.587   5.785   3.302  0.5681 -0.6722 -0.1081
 3701SOL    HW214576   0.528   5.732   3.248  0.3121 -2.6298  1.9298
 3701SOL    HW314577   0.532   5.856   3.334 -0.1178 -1.2087 -0.0535
 3701SOL    MW414578   0.572   5.787   3.299  0.2647  0.4774 -0.1784
 3702SOL     OW14579   0.483   0.862   0.737  0.3059 -0.2059  0.5794
 3702SOL    HW214580   0.578   0.861   0.723  0.4265 -0.7150  1.3622
 3702SOL    HW314581   0.473   0.887   0.829 -0.3223 -0.0490  0.4683
 3702SOL    MW414582   0.494   0.865   0.747 -0.8346  0.5167 -0.2545
 3703SOL     OW14583   4.035   4.686   2.396 -0.1960  0.5331 -0.3718
 3703SOL    HW214584   4.039   4.600   2.438  0.9180  1.4427  1.5355
 3703SOL    HW314585   3.999   4.744   2.463 -0.1917  1.6984 -1.3372
 3703SOL    MW414586   4.031   4.683   2.410  0.1923  0.3946 -0.2820
 3704SOL     OW14587   4.704   4.442   4.304  0.2279  0.2130 -0.4191
 3704SOL    HW214588   4.787   4.464   4.346 -1.1162 -0.1787  2.6681
 3704SOL    HW314589   4.710   4.349   4.286 -0.3262 -0.3380  1.9448
 3704SOL    MW414590   4.716   4.433   4.307  0.4253  0.5281 -0.2279
 3705SOL     OW14591   3.707   0.260   1.784  0.1606  0.1798  0.0131
 3705SOL    HW214592   3.633   0.204   1.763  1.1135 -0.7713 -0.8933
 3705SOL    HW314593   3.674   0.318   1.853 -1.8118  0.6371 -1.2324
 3705SOL    MW414594   3.693   0.261   1.790 -0.7155 -0.7892 -0.3604
 3706SOL     OW14595   5.503   4.456   4.903 -0.1579  0.2395 -0.1059
 3706SOL    HW214596   5.542   4.378   4.862  0.7327  0.5020  0.2161
 3706SOL    HW314597   5.473   4.426   4.989  1.1693  0.4730  0.4664
 3706SOL    MW414598   5.504   4.442   4.909 -0.1278 -0.0125  0.8564
 3707SOL     OW14599   1.587   3.605   4.909  0.0772 -0.4098 -0.5423
 3707SOL    HW214600   1.512   3.645   4.866 -1.0743 -0.4371  1.3168
 3707SOL    HW314601   1.565   3.512   4.913  0.4420 -0.4911 -0.4470
 3707SOL    MW414602   1.574   3.598   4.904 -0.3282  0.2948  0.3182
 3708SOL     OW14603   2.735   2.347   1.614 -0.4158  0.8449 -0.3519
 3708SOL    HW214604   2.706   2.397   1.537  0.1174  0.7499 -0.6156
 3708SOL    HW314605   2.781   2.412   1.668  0.8513  0.5202 -1.0007
 3708SOL    MW414606   2.737   2.362   1.611 -0.4060  0.0943  0.3056
 3709SOL     OW14607   1.025   0.913   3.188 -0.1409 -0.8801  0.7058
 3709SOL    HW214608   0.975   0.865   3.254 -1.1020  0.5496  1.0683
 3709SOL    HW314609   1.055   0.992   3.234  0.2325 -0.4614 -0.2403
 3709SOL    MW414610   1.023   0.917   3.203  0.2980  0.0859  0.5352
 3710SOL     OW14611   3.735   0.112   4.642 -0.3223  0.2961  0.2214
 3710SOL    HW214612   3.649   0.077   4.618 -0.8867  1.7950 -0.0458
 3710SOL    HW314613   3.751   0.077   4.729 -0.8045 -0.6959 -0.0732
 3710SOL    MW414614   3.726   0.103   4.650 -0.0567  0.0165 -0.3102
 3711SOL     OW14615   3.948   2.333   0.939  0.1185  0.2872  0.1974
 3711SOL    HW214616   3.894   2.327   1.018  0.5333 -0.7924  0.4170
 3711SOL    HW314617   4.023   2.386   0.965 -0.4054  1.0718  0.1346
 3711SOL    MW414618   3.950   2.339   0.953  0.0122 -0.3308 -0.6554
 3712SOL     OW14619   2.359   4.080   3.831 -0.0690 -0.2039  0.3814
 3712SOL    HW214620   2.333   3.989   3.818 -0.1946 -0.1578  0.3085
 3712SOL    HW314621   2.410   4.101   3.752  0.2975 -0.3331  0.5819
 3712SOL    MW414622   2.362   4.071   3.819  0.0827 -0.5888  1.0345
 3713SOL     OW14623   1.527   2.830   1.971  0.5938  0.8717  0.0345
 3713SOL    HW214624   1.578   2.808   1.893 -1.8339 -1.6223 -1.0115
 3713SOL    HW314625   1.546   2.758   2.032 -1.5015 -0.0585 -0.3455
 3713SOL    MW414626   1.536   2.817   1.969 -0.5056  0.3235 -0.1502
 3714SOL     OW14627   2.339   1.386   4.690 -0.4431  0.1284 -0.2278
 3714SOL    HW214628   2.401   1.315   4.705  0.8806  0.9614 -1.5510
 3714SOL    HW314629   2.391   1.466   4.697 -1.4026  0.8572 -1.0882
 3714SOL    MW414630   2.354   1.387   4.693  0.0624 -0.1235  0.1915
 3715SOL     OW14631   5.753   2.001   4.595 -0.1768  0.3228  0.4061
 3715SOL    HW214632   5.681   2.064   4.589 -1.0254 -0.4634  1.8140
 3715SOL    HW314633   5.727   1.929   4.538  0.4281  0.8535 -0.5837
 3715SOL    MW414634   5.740   2.000   4.587  0.4501  0.6658  0.2702
 3716SOL     OW14635   4.687   5.563   2.640 -0.1379  0.3550  0.2171
 3716SOL    HW214636   4.653   5.474   2.635  0.2177  0.1207  1.5342
 3716SOL    HW314637   4.617   5.617   2.602 -0.5434 -0.4307 -0.1853
 3716SOL    MW414638   4.673   5.559   2.634 -0.0507 -0.2616  0.0456
 3717SOL     OW14639   0.529   5.253   1.726 -0.2012  0.5370 -0.4238
 3717SOL    HW214640   0.577   5.232   1.806  2.5621  1.8000 -1.5930
 3717SOL    HW314641   0.508   5.168   1.687 -1.1616 -0.0820  1.3349
 3717SOL    MW414642   0.533   5.239   1.732 -0.1760  0.2314  0.2757
 3718SOL     OW14643   1.016   2.365   2.382  0.0080 -0.2852 -0.1205
 3718SOL    HW214644   1.023   2.317   2.300 -0.6648 -0.5017 -0.0562
 3718SOL    HW314645   1.091   2.425   2.381 -0.0101 -0.2663 -0.8932
 3718SOL    MW414646   1.027   2.367   2.371  0.4226 -0.3131 -0.4056
 3719SOL     OW14647   1.222   1.860   5.261 -0.1899  0.1159 -0.2953
 3719SOL    HW214648   1.207   1.943   5.215 -0.3467 -0.0221 -0.4938
 3719SOL    HW314649   1.250   1.886   5.349 -0.4219  0.3795 -0.2990
 3719SOL    MW414650   1.224   1.874   5.267  0.1275  0.3326  0.4351
 3720SOL     OW14651   5.006   3.276   4.027  0.0669 -0.2939 -0.3315
 3720SOL    HW214652   4.964   3.190   4.036  1.2669 -1.0222 -1.1807
 3720SOL    HW314653   5.065   3.265   3.952  1.2395  0.8655  0.3784
 3720SOL    MW414654   5.009   3.263   4.018 -0.4587  0.0978  0.1284
 3721SOL     OW14655   4.725   0.988   5.395  0.2217  0.1847  0.5057
 3721SOL    HW214656   4.711   1.066   5.449 -0.0487  1.4279 -1.2396
 3721SOL    HW314657   4.666   0.922   5.431 -0.1773  1.0654  1.5103
 3721SOL    MW414658   4.715   0.990   5.407  0.4140  0.1036  0.2996
 3722SOL     OW14659   3.169   2.161   4.126 -0.0263 -0.1795  0.0940
 3722SOL    HW214660   3.263   2.147   4.142  0.0216  0.7746  0.7315
 3722SOL    HW314661   3.153   2.118   4.043  0.4405 -2.5357  1.1295
 3722SOL    MW414662   3.180   2.153   4.117  0.5069 -0.2067  0.0349
 3723SOL     OW14663   2.472   6.383   3.753  0.1929  0.0556  1.0030
 3723SOL    HW214664   2.512   6.409   3.670  0.8185 -1.3914  0.8169
 3723SOL    HW314665   2.459   6.465   3.800  1.4160  0.7670  0.1696
 3723SOL    MW414666   2.476   6.397   3.749  0.7237  0.2462 -0.1200
 3724SOL     OW14667   1.321   0.124   1.039  0.4099  0.4168 -0.1707
 3724SOL    HW214668   1.324   0.035   1.073  0.8714  0.3504 -0.3749
 3724SOL    HW314669   1.360   0.118   0.952  1.4803  0.9918  0.2434
 3724SOL    MW414670   1.327   0.112   1.032  0.1144 -0.2001 -0.7090
 3725SOL     OW14671   4.835   2.037   1.876 -0.5259  0.1204 -0.9649
 3725SOL    HW214672   4.867   1.948   1.866  0.9908  0.3701  1.1213
 3725SOL    HW314673   4.765   2.045   1.811 -1.0987 -2.7592 -0.8066
 3725SOL    MW414674   4.830   2.026   1.866  0.9521  0.1792  0.0284
 3726SOL     OW14675   0.450   1.345   3.936 -0.0457 -0.1456  0.0636
 3726SOL    HW214676   0.412   1.320   3.852  0.3448  0.2045 -0.2185
 3726SOL    HW314677   0.443   1.266   3.990 -0.6081 -0.2688 -0.1825
 3726SOL    MW414678   0.444   1.331   3.932  0.9833  1.0855  0.0148
 3727SOL     OW14679   1.148   1.392   3.650 -0.1314 -0.7042 -0.1551
 3727SOL    HW214680   1.084   1.453   3.685 -0.9440 -0.5141 -1.8788
 3727SOL    HW314681   1.207   1.446   3.597  0.9683 -1.0046  0.7086
 3727SOL    MW414682   1.148   1.407   3.648 -0.0817 -0.4042 -0.4539
 3728SOL     OW14683   3.142   4.750   4.670 -0.4950 -0.7299  0.0176
 3728SOL    HW214684   3.162   4.692   4.597  0.5871  0.3256 -0.5607
 3728SOL    HW314685   3.115   4.832   4.628 -2.1575 -0.8204  0.8140
 3728SOL    MW414686   3.141   4.753   4.655 -0.1248 -0.0382 -0.1904
 3729SOL     OW14687   4.695   3.784   5.479  0.2632 -0.5522  0.0010
 3729SOL    HW214688   4.774   3.754   5.523 -0.3287 -0.3262  1.2551
 3729SOL    HW314689   4.637   3.708   5.478 -0.8514  0.1731  2.2932
 3729SOL    MW414690   4.698   3.770   5.484 -0.1832  0.2610  0.1871
 3730SOL     OW14691   2.192   4.999   3.773 -0.2458 -0.7914 -0.0840
 3730SOL    HW214692   2.248   4.924   3.792  0.8664 -0.1797 -0.8369
 3730SOL    HW314693   2.253   5.072   3.761 -1.3781  0.9493  3.4584
 3730SOL    MW414694   2.208   4.999   3.774 -0.6655  0.4798  0.7241
 3731SOL     OW14695   5.296   3.848   4.742  0.7003 -0.1461  0.0822
 3731SOL    HW214696   5.373   3.850   4.684  0.7397 -0.1539  0.1342
 3731SOL    HW314697   5.267   3.756   4.739  1.8482 -0.5995  1.5814
 3731SOL    MW414698   5.302   3.836   4.734 -0.2832 -0.5050 -0.5864
 3732SOL     OW14699   3.710   0.064   1.194 -0.3700  0.1635 -0.0615
 3732SOL    HW214700   3.620   0.058   1.163 -0.4213  0.2883  0.0581
 3732SOL    HW314701   3.761   0.086   1.117 -0.4945  0.4654 -0.0619
 3732SOL    MW414702   3.705   0.066   1.180 -0.2910 -0.1104 -0.3974
 3733SOL     OW14703   5.292   1.583   0.686 -0.1596 -0.5815  0.1122
 3733SOL    HW214704   5.205   1.606   0.655  0.1490  0.8955  0.2370
 3733SOL    HW314705   5.314   1.502   0.641 -2.1820 -1.8155  1.2085
 3733SOL    MW414706   5.284   1.576   0.676 -0.3604  0.5813  0.1699
 3734SOL     OW14707   5.430   0.225   2.548  1.0286  0.0693 -0.1910
 3734SOL    HW214708   5.405   0.137   2.520 -1.9874  0.3753  1.1189
 3734SOL    HW314709   5.496   0.211   2.616 -2.0640 -1.5927  2.7800
 3734SOL    MW414710   5.435   0.212   2.553 -0.2620 -0.0088  0.1453
 3735SOL     OW14711   1.153   5.682   0.407  0.2255  0.1117 -0.2865
 3735SOL    HW214712   1.211   5.660   0.333  1.4288 -0.3523  0.7551
 3735SOL    HW314713   1.107   5.600   0.426  0.6901 -0.0492  0.1436
 3735SOL    MW414714   1.155   5.668   0.400 -0.0963  0.3042 -0.1700
 3736SOL     OW14715   1.959   5.238   2.153 -0.0735  0.2183  0.1038
 3736SOL    HW214716   1.903   5.170   2.117  1.2073 -0.7565 -0.1424
 3736SOL    HW314717   1.998   5.198   2.231 -2.4243  2.1199  2.3934
 3736SOL    MW414718   1.957   5.224   2.159  0.3400  0.2132 -0.1038
 3737SOL     OW14719   1.403   4.688   1.859 -0.4725  0.4263  0.2012
 3737SOL    HW214720   1.396   4.780   1.835  0.4993  0.7140  0.9769
 3737SOL    HW314721   1.497   4.672   1.865 -0.6436 -0.5218  0.4460
 3737SOL    MW414722   1.414   4.698   1.857 -0.6590 -0.4949  0.1651
 3738SOL     OW14723   5.576   5.910   3.997  0.0139 -0.0209 -0.1940
 3738SOL    HW214724   5.482   5.925   4.000 -0.1868 -1.2171  0.8303
 3738SOL    HW314725   5.595   5.861   4.078  1.2635 -1.0514 -1.0500
 3738SOL    MW414726   5.566   5.905   4.008  0.5166 -0.2149  0.2791
 3739SOL     OW14727   3.129   0.035   5.555 -0.2151  0.1502  0.7297
 3739SOL    HW214728   3.099   0.123   5.577  0.3688  0.2799  1.0413
 3739SOL    HW314729   3.217   0.048   5.520 -0.1210 -0.3125  0.7854
 3739SOL    MW414730   3.137   0.048   5.554  0.4106  0.1940 -0.8139
 3740SOL     OW14731   2.918   3.474   3.987 -0.0853 -0.0870  0.4737
 3740SOL    HW214732   2.932   3.567   3.971 -0.9893 -0.1590 -0.8509
 3740SOL    HW314733   3.006   3.436   3.988  0.2006  0.5160 -0.7391
 3740SOL    MW414734   2.932   3.481   3.985 -0.1200 -0.4613 -0.3273
 3741SOL     OW14735   2.658   1.653   3.129 -0.0729  0.4801  0.0377
 3741SOL    HW214736   2.661   1.622   3.220  0.6709  0.6281  0.0718
 3741SOL    HW314737   2.728   1.718   3.123 -0.4059  0.7920 -0.5268
 3741SOL    MW414738   2.668   1.657   3.140 -0.3562  0.4219  0.0669
 3742SOL     OW14739   0.196   1.072   3.067 -0.5144  0.0307 -0.5243
 3742SOL    HW214740   0.102   1.056   3.079 -0.2271 -0.2596  1.7724
 3742SOL    HW314741   0.204   1.167   3.067 -0.9593  0.1308 -2.6791
 3742SOL    MW414742   0.185   1.082   3.068 -0.4448 -0.4960  0.8013
 3743SOL     OW14743   1.400   5.885   4.221 -0.0172  0.1823  0.3276
 3743SOL    HW214744   1.485   5.891   4.176  0.1396  0.5234  0.6674
 3743SOL    HW314745   1.336   5.907   4.154 -0.1108 -3.0476 -0.8292
 3743SOL    MW414746   1.403   5.889   4.206  0.5219  0.1704  0.5096
 3744SOL     OW14747   6.237   4.874   0.490  0.3990  0.0230  0.3938
 3744SOL    HW214748   6.218   4.931   0.416 -0.5185 -0.6995  0.0385
 3744SOL    HW314749   6.155   4.871   0.539  0.7274 -0.2198  0.9350
 3744SOL    MW414750   6.223   4.881   0.486 -0.1435 -0.1578  0.0038
 3745SOL     OW14751   5.134   3.760   4.464 -0.0976  0.0752  0.4569
 3745SOL    HW214752   5.118   3.835   4.521  1.9846  2.0771 -1.3966
 3745SOL    HW314753   5.137   3.685   4.523 -1.5864  1.4976  2.4836
 3745SOL    MW414754   5.132   3.760   4.479  0.2212  0.2121  0.8856
 3746SOL     OW14755   3.449   3.333   3.894  0.6068 -0.4724  0.1861
 3746SOL    HW214756   3.404   3.350   3.811 -0.2306  0.6841  0.8413
 3746SOL    HW314757   3.500   3.412   3.911  1.9831 -1.3115  0.0345
 3746SOL    MW414758   3.449   3.346   3.886 -0.1386  0.4316  0.4315
 3747SOL     OW14759   0.167   4.968   3.151 -0.0466 -0.3982  0.6990
 3747SOL    HW214760   0.236   4.901   3.149  0.2113 -0.1671  1.5305
 3747SOL    HW314761   0.132   4.963   3.240 -1.0405 -0.4398  0.3159
 3747SOL    MW414762   0.171   4.959   3.163  0.1939  0.5390  0.0818
 3748SOL     OW14763   3.848   2.879   4.864 -0.2422  0.2524 -0.3658
 3748SOL    HW214764   3.778   2.816   4.878 -0.4527  0.9384  2.1357
 3748SOL    HW314765   3.808   2.964   4.879  0.8393  0.7432 -0.1354
 3748SOL    MW414766   3.834   2.882   4.868  0.5940  0.3375 -0.1165
 3749SOL     OW14767   1.724   5.066   3.099  0.1028 -0.4485 -0.6692
 3749SOL    HW214768   1.644   5.016   3.082  0.3443 -0.6430 -1.2659
 3749SOL    HW314769   1.739   5.115   3.018 -0.1331  0.6121 -0.0922
 3749SOL    MW414770   1.715   5.066   3.086 -0.0403  0.3436 -0.1891
 3750SOL     OW14771   0.221   0.441   0.049  0.0513 -0.1240  0.3716
 3750SOL    HW214772   0.160   0.373   0.075  0.2650 -0.0492  1.1011
 3750SOL    HW314773   0.277   0.453   0.126  0.7727  0.0351 -0.1695
 3750SOL    MW414774   0.221   0.434   0.063  0.5148 -1.2548 -0.2973
 3751SOL     OW14775   3.930   5.027   2.030  0.0242 -0.0287 -0.2861
 3751SOL    HW214776   3.995   4.959   2.010 -0.5955 -0.0551 -2.5193
 3751SOL    HW314777   3.934   5.037   2.125  0.2409 -3.0881  0.1224
 3751SOL    MW414778   3.939   5.019   2.040  0.2694 -0.2404  0.2373
 3752SOL     OW14779   5.688   1.327   1.083 -0.4817 -0.2333  0.4015
 3752SOL    HW214780   5.761   1.372   1.041 -1.7603  0.5898 -1.0757
 3752SOL    HW314781   5.619   1.394   1.089 -1.7011 -1.4059  0.1089
 3752SOL    MW414782   5.688   1.342   1.078 -0.1457  0.3781  0.3691
 3753SOL     OW14783   3.200   0.837   0.437 -0.4505 -0.4147 -0.2036
 3753SOL    HW214784   3.278   0.893   0.436  1.6957 -3.1560  0.7205
 3753SOL    HW314785   3.206   0.785   0.358 -1.6418 -0.3542 -0.3530
 3753SOL    MW414786   3.211   0.838   0.427  0.0190  0.3235 -0.6609
 3754SOL     OW14787   0.899   3.044   5.059  0.1658  0.6996  0.0506
 3754SOL    HW214788   0.862   3.124   5.095 -3.0796  0.3329 -2.1027
 3754SOL    HW314789   0.956   3.073   4.988 -1.6580  1.1843 -1.2839
 3754SOL    MW414790   0.902   3.058   5.054  0.7283  0.2401  0.2114
 3755SOL     OW14791   6.017   1.846   6.295 -0.3766 -0.6435  0.5451
 3755SOL    HW214792   6.093   1.846   6.237  0.5917 -1.1284  1.7595
 3755SOL    HW314793   6.042   1.904   6.367 -1.0425 -0.9999  1.0809
 3755SOL    MW414794   6.031   1.853   6.297 -0.4300 -0.9161  0.5071
 3756SOL     OW14795   3.420   1.747   4.368 -0.3462  0.0322  0.5617
 3756SOL    HW214796   3.408   1.830   4.415 -0.8129  1.1843 -1.4580
 3756SOL    HW314797   3.425   1.772   4.276  2.0587 -1.9555  0.0221
 3756SOL    MW414798   3.419   1.761   4.362  0.2434 -0.1064 -0.6668
 3757SOL     OW14799   4.278   1.211   4.848 -0.5761  0.0122 -0.4373
 3757SOL    HW214800   4.349   1.152   4.874 -0.0272  0.7998 -0.1417
 3757SOL    HW314801   4.319   1.296   4.836 -1.4547  0.4627 -0.3516
 3757SOL    MW414802   4.293   1.214   4.850 -0.1434  0.7200  0.2134
 3758SOL     OW14803   3.108   2.592   6.207 -0.0875  0.0550 -0.0512
 3758SOL    HW214804   3.095   2.528   6.137  0.4350  1.1523 -1.2040
 3758SOL    HW314805   3.063   2.671   6.175  0.3858  0.6540  0.7278
 3758SOL    MW414806   3.100   2.594   6.193 -0.2141 -0.5296  0.1686
 3759SOL     OW14807   2.773   5.450   0.108 -0.5748 -0.2787  0.1245
 3759SOL    HW214808   2.757   5.400   0.188 -0.8288 -0.7232 -0.2018
 3759SOL    HW314809   2.847   5.404   0.066  0.0662  0.4062  0.4820
 3759SOL    MW414810   2.781   5.437   0.113  0.0372 -0.0404  0.1706
 3760SOL     OW14811   0.031   4.607   2.502  0.0960 -0.1318  0.0010
 3760SOL    HW214812  -0.038   4.547   2.529 -2.0442  1.8252 -0.8249
 3760SOL    HW314813   0.088   4.614   2.579 -0.4634 -1.9843  0.6267
 3760SOL    MW414814   0.030   4.600   2.516 -0.8242 -0.7455 -0.1908
 3761SOL     OW14815   5.658   1.182   2.482 -0.9155  0.2475  0.0870
 3761SOL    HW214816   5.627   1.120   2.548 -1.7772  0.5380 -0.0345
 3761SOL    HW314817   5.753   1.171   2.482 -0.9525 -0.1836  0.9526
 3761SOL    MW414818   5.667   1.173   2.491 -0.5791 -0.3405 -0.6179
 3762SOL     OW14819   2.797   5.873   1.341 -0.2357  0.4424 -0.4534
 3762SOL    HW214820   2.706   5.894   1.362 -0.0010 -0.7756  2.1245
 3762SOL    HW314821   2.791   5.801   1.279 -0.9872  1.1991 -1.2981
 3762SOL    MW414822   2.784   5.867   1.335  0.5659  0.3068 -0.7525
 3763SOL     OW14823   4.942   3.101   6.010  0.3489 -0.3231  0.5612
 3763SOL    HW214824   5.027   3.083   6.052  0.6032 -2.5328 -0.7184
 3763SOL    HW314825   4.880   3.047   6.059  0.1595 -0.7471 -0.1386
 3763SOL    MW414826   4.945   3.091   6.022  0.4210 -0.5405  0.1119
 3764SOL     OW14827   4.442   2.268   2.033 -0.2922  0.1288 -0.2521
 3764SOL    HW214828   4.463   2.179   2.061  0.3955  0.5560  0.6165
 3764SOL    HW314829   4.461   2.268   1.939 -1.6084 -1.0137 -0.5572
 3764SOL    MW414830   4.447   2.256   2.024 -0.3479 -0.4594  0.7474
 3765SOL     OW14831   3.686   4.213   1.993  0.5702  0.3997 -0.9072
 3765SOL    HW214832   3.596   4.242   1.976  0.5333  1.2704  0.6060
 3765SOL    HW314833   3.677   4.119   2.011 -0.0279  0.4405 -0.9510
 3765SOL    MW414834   3.673   4.205   1.993  0.2092 -0.0360 -0.3057
 3766SOL     OW14835   6.247   5.858   4.101 -0.3455 -0.8617  0.4779
 3766SOL    HW214836   6.311   5.787   4.095  0.1307 -0.4446  0.6208
 3766SOL    HW314837   6.232   5.869   4.195 -0.5082 -0.8470  0.4514
 3766SOL    MW414838   6.253   5.850   4.113  0.6284 -0.3980  0.2173
 3767SOL     OW14839   5.756   2.595   5.012  0.1690 -0.0772  0.1828
 3767SOL    HW214840   5.849   2.578   5.000  0.2028  0.1699  0.0990
 3767SOL    HW314841   5.713   2.538   4.948  0.2378 -0.5413  0.5411
 3767SOL    MW414842   5.762   2.585   5.002 -0.2283 -0.1062  0.2398
 3768SOL     OW14843   1.726   5.016   5.577  0.4637  0.1047 -0.2356
 3768SOL    HW214844   1.739   4.925   5.548 -2.1390  0.0980 -1.7062
 3768SOL    HW314845   1.635   5.035   5.555  1.0874  3.3024 -0.5659
 3768SOL    MW414846   1.716   5.006   5.570  0.1387  0.3177 -0.4323
 3769SOL     OW14847   3.668   5.679   0.182 -0.6392  0.3835 -0.5132
 3769SOL    HW214848   3.605   5.633   0.126 -2.7791  0.6056  1.5802
 3769SOL    HW314849   3.638   5.663   0.271  2.0822  0.8592  0.5773
 3769SOL    MW414850   3.655   5.671   0.186  0.0063  0.1153 -0.0574
 3770SOL     OW14851   2.027   2.411   2.465  0.9612 -0.5329  0.5250
 3770SOL    HW214852   2.075   2.328   2.461  0.9164 -0.5441  0.1341
 3770SOL    HW314853   2.040   2.449   2.378  2.8040  0.8965  1.3647
 3770SOL    MW414854   2.035   2.405   2.453  0.0073  0.8842 -0.6402
 3771SOL     OW14855   5.684   2.732   0.512  0.6170  0.8544 -0.0710
 3771SOL    HW214856   5.668   2.650   0.465 -1.8740  0.8236  0.6847
 3771SOL    HW314857   5.747   2.779   0.458  0.5656 -0.6819 -1.5633
 3771SOL    MW414858   5.690   2.727   0.499 -0.1578 -0.6349 -0.2123
 3772SOL     OW14859   3.533   0.900   3.914  0.1494 -0.1325 -0.3155
 3772SOL    HW214860   3.578   0.982   3.895  0.4413 -0.1791  0.1646
 3772SOL    HW314861   3.592   0.832   3.882 -0.3217 -0.1468 -1.1825
 3772SOL    MW414862   3.547   0.902   3.907  0.0735 -0.4820 -0.2183
 3773SOL     OW14863   0.631   5.435   2.312 -0.4212  0.3305 -0.0811
 3773SOL    HW214864   0.609   5.434   2.219 -1.5562  0.8889  0.1640
 3773SOL    HW314865   0.662   5.523   2.329  1.5170 -0.2733 -0.2860
 3773SOL    MW414866   0.632   5.446   2.302  0.4838  0.0229 -0.4818
 3774SOL     OW14867   5.386   0.893   2.996 -0.0051  0.5461 -0.3684
 3774SOL    HW214868   5.397   0.886   3.090 -0.9355 -1.1930 -0.3469
 3774SOL    HW314869   5.467   0.857   2.960 -0.0422  0.3129 -0.2226
 3774SOL    MW414870   5.398   0.887   3.003  0.1492  0.1099  0.5516
 3775SOL     OW14871   0.325   4.493   4.615  0.0638 -0.1688  0.0132
 3775SOL    HW214872   0.232   4.501   4.635  0.0404  1.7098 -0.6762
 3775SOL    HW314873   0.364   4.460   4.696 -0.9119  1.0997  1.0485
 3775SOL    MW414874   0.318   4.489   4.628  0.4578  0.1763  0.1612
 3776SOL     OW14875   2.653   0.656   4.610 -0.1433  0.0357  0.7017
 3776SOL    HW214876   2.735   0.634   4.565 -0.8034 -0.6979 -0.2007
 3776SOL    HW314877   2.588   0.597   4.571 -1.0625  0.4597  1.5424
 3776SOL    MW414878   2.655   0.645   4.599  0.1237 -0.0802  0.1677
 3777SOL     OW14879   2.521   0.423   1.141 -0.2528 -0.5864  0.5341
 3777SOL    HW214880   2.432   0.456   1.142 -1.4391 -3.3299 -1.0416
 3777SOL    HW314881   2.556   0.449   1.056  0.7205  0.9758  1.3732
 3777SOL    MW414882   2.514   0.431   1.130 -0.1876 -0.1823  0.1730
 3778SOL     OW14883   3.056   4.974   4.261  0.5787 -0.8577  0.3715
 3778SOL    HW214884   3.146   4.958   4.234  1.8971 -1.3841  4.3083
 3778SOL    HW314885   3.021   4.886   4.277  0.2392 -0.5940  1.1300
 3778SOL    MW414886   3.063   4.960   4.260 -0.3194  0.0216 -0.0236
 3779SOL     OW14887   0.785   4.635   2.871 -0.2419 -0.5783  0.2005
 3779SOL    HW214888   0.824   4.718   2.844  0.5831 -1.1992 -0.5831
 3779SOL    HW314889   0.750   4.597   2.790 -0.2241 -1.1836  0.4688
 3779SOL    MW414890   0.786   4.641   2.857 -0.2340  0.2169 -0.0738
 3780SOL     OW14891   0.350   0.373   5.560  0.7307 -0.1087  0.3112
 3780SOL    HW214892   0.410   0.394   5.489  1.5410 -1.9743  0.3664
 3780SOL    HW314893   0.396   0.400   5.640  0.7091  0.1183  0.2472
 3780SOL    MW414894   0.364   0.379   5.561 -0.3424  0.5643  0.1567
 3781SOL     OW14895   5.596   0.347   3.096 -0.0544 -0.1843  0.7493
 3781SOL    HW214896   5.674   0.354   3.041 -0.4741 -0.1900  0.1326
 3781SOL    HW314897   5.562   0.259   3.078 -0.3925 -0.0556  0.7346
 3781SOL    MW414898   5.602   0.337   3.086 -0.2235 -0.2945  0.0101
 3782SOL     OW14899   3.267   3.958   2.171 -0.5904  0.1736  0.2475
 3782SOL    HW214900   3.310   3.922   2.093 -0.6218 -1.0903  0.7780
 3782SOL    HW314901   3.187   3.998   2.137 -0.8180 -0.7355 -0.3444
 3782SOL    MW414902   3.262   3.958   2.156 -0.2257 -0.2799  0.8067
 3783SOL     OW14903   2.021   0.165   1.040 -0.9148 -0.3962 -0.4373
 3783SOL    HW214904   2.111   0.137   1.019 -0.7381  0.4260 -0.7818
 3783SOL    HW314905   2.025   0.190   1.132 -1.1935 -1.9545  0.0310
 3783SOL    MW414906   2.034   0.164   1.050  0.1190 -0.3517  0.5469
 3784SOL     OW14907   4.327   2.713   4.365  0.0528  0.5240 -0.9215
 3784SOL    HW214908   4.256   2.772   4.392 -1.2496 -1.9255  1.4784
 3784SOL    HW314909   4.405   2.749   4.406 -0.6247  0.8363  0.1209
 3784SOL    MW414910   4.328   2.726   4.374  0.1473 -0.6454 -0.0410
 3785SOL     OW14911   2.671   1.725   2.510  0.7028 -0.1456 -0.2891
 3785SOL    HW214912   2.732   1.716   2.583  0.5606 -0.0970 -0.1649
 3785SOL    HW314913   2.697   1.656   2.449  0.1944 -0.8296  0.2547
 3785SOL    MW414914   2.682   1.714   2.511  0.3033  0.1314  0.2112
 3786SOL     OW14915   5.665   3.146   0.447 -0.0515 -0.4089  0.2238
 3786SOL    HW214916   5.693   3.099   0.368  0.5625  1.2294 -0.5706
 3786SOL    HW314917   5.672   3.238   0.424 -1.0058  0.1017  1.8184
 3786SOL    MW414918   5.669   3.152   0.433  0.1701 -0.4508 -0.0813
 3787SOL     OW14919   2.862   4.509   0.905 -0.3603  0.1259  0.1106
 3787SOL    HW214920   2.859   4.432   0.961 -1.2744 -0.4134 -0.6538
 3787SOL    HW314921   2.873   4.474   0.816 -0.9688  0.8559 -0.2655
 3787SOL    MW414922   2.863   4.494   0.901  0.4029  0.5082 -0.3854
 3788SOL     OW14923   4.735   1.494   5.989  0.2773  0.2933 -0.1001
 3788SOL    HW214924   4.729   1.401   5.967 -1.6487  0.1264  0.8751
 3788SOL    HW314925   4.770   1.535   5.910  0.1839 -1.1292 -0.9205
 3788SOL    MW414926   4.739   1.487   5.976 -0.4568  0.7166  0.5991
 3789SOL     OW14927   5.291   1.698   2.817 -0.8338 -0.0375 -0.1585
 3789SOL    HW214928   5.250   1.779   2.846 -0.1985  0.6096 -1.0310
 3789SOL    HW314929   5.288   1.641   2.894 -3.1338  0.0642 -0.1080
 3789SOL    MW414930   5.285   1.701   2.831 -0.3814 -0.3153 -0.1186
 3790SOL     OW14931   3.854   2.187   2.842  0.0417 -0.1941 -0.0236
 3790SOL    HW214932   3.859   2.145   2.928 -1.7740  2.3168  1.4242
 3790SOL    HW314933   3.881   2.118   2.781  2.0219 -1.9036  2.5318
 3790SOL    MW414934   3.858   2.172   2.845  0.1445 -0.6211  0.7836
 3791SOL     OW14935   5.128   1.564   5.375 -0.2212 -0.0911  0.1045
 3791SOL    HW214936   5.095   1.484   5.334 -0.8233 -0.1172  0.6083
 3791SOL    HW314937   5.049   1.606   5.410 -0.0762  1.3420 -1.1897
 3791SOL    MW414938   5.113   1.559   5.374  0.2176  0.0321 -0.0611
 3792SOL     OW14939   0.339   1.723   5.835 -0.3469  0.1756 -0.3074
 3792SOL    HW214940   0.331   1.753   5.926  0.1693  0.1333 -0.2446
 3792SOL    HW314941   0.314   1.631   5.838 -0.2930  0.1637 -0.1981
 3792SOL    MW414942   0.335   1.715   5.847 -0.5556  0.3598 -0.7158
 3793SOL     OW14943   1.883   4.452   1.885 -0.1524  0.5157 -0.0833
 3793SOL    HW214944   1.833   4.372   1.900  1.4165 -0.9081 -1.9458
 3793SOL    HW314945   1.960   4.444   1.941 -0.8342  1.5999  1.0469
 3793SOL    MW414946   1.887   4.441   1.894  0.2119 -0.2975  0.0746
 3794SOL     OW14947   6.362   0.283   5.318  0.7836  0.6288  0.1244
 3794SOL    HW214948   6.422   0.356   5.303  1.4992  0.1392  0.5218
 3794SOL    HW314949   6.308   0.311   5.392  0.4552  1.1066 -0.2892
 3794SOL    MW414950   6.363   0.296   5.326  0.2603 -0.0200 -0.0454
 3795SOL     OW14951   4.600   3.657   2.710 -0.3371  0.0315  0.1970
 3795SOL    HW214952   4.535   3.711   2.666  0.0831  1.2816  1.0547
 3795SOL    HW314953   4.674   3.655   2.650 -0.6206 -0.1907 -0.1485
 3795SOL    MW414954   4.601   3.664   2.697 -0.0662 -0.2155 -0.0647
 3796SOL     OW14955   1.512   1.994   2.074 -0.0687  0.3521  0.4202
 3796SOL    HW214956   1.537   1.906   2.045  1.3745  1.0598 -0.5920
 3796SOL    HW314957   1.558   2.005   2.158 -0.0397  0.2356  0.4207
 3796SOL    MW414958   1.522   1.983   2.081  0.0917 -0.3388  0.3788
 3797SOL     OW14959   5.306   4.816   1.072  0.1063  0.1223 -0.2095
 3797SOL    HW214960   5.252   4.819   0.992 -0.9426  0.5358  0.4871
 3797SOL    HW314961   5.246   4.842   1.142  0.7264 -1.2422  0.8783
 3797SOL    MW414962   5.291   4.820   1.070 -0.2905 -0.0650 -0.0676
 3798SOL     OW14963   4.631   4.935   4.021 -0.0188  0.4149  0.3420
 3798SOL    HW214964   4.603   5.022   3.992  1.4652  0.7743 -0.0818
 3798SOL    HW314965   4.597   4.876   3.954 -0.7902  0.6751  0.4841
 3798SOL    MW414966   4.623   4.939   4.008  0.0029  0.7523 -0.1418
 3799SOL     OW14967   3.159   1.628   3.402  0.5540 -0.2669 -0.4168
 3799SOL    HW214968   3.116   1.549   3.368 -0.1762 -0.0721  0.0399
 3799SOL    HW314969   3.087   1.689   3.419  0.5049 -1.2058  3.8520
 3799SOL    MW414970   3.144   1.626   3.400 -0.2681  0.2183  0.1636
 3800SOL     OW14971   3.591   5.409   0.817  0.0409  0.0155  0.3565
 3800SOL    HW214972   3.655   5.477   0.798  0.1446 -0.3027 -0.4603
 3800SOL    HW314973   3.533   5.407   0.741  0.4706 -1.2820  0.0246
 3800SOL    MW414974   3.592   5.417   0.805  0.1344 -0.0101 -0.1649
 3801SOL     OW14975   4.700   4.740   0.356 -0.1039  0.0355  0.0258
 3801SOL    HW214976   4.681   4.812   0.296 -1.2863 -1.5350 -1.6102
 3801SOL    HW314977   4.780   4.700   0.321 -1.1243 -1.2539 -0.9650
 3801SOL    MW414978   4.708   4.744   0.344  0.0794 -0.2063 -0.0987
 3802SOL     OW14979   2.339   4.290   5.204  0.1787 -0.1362  0.2542
 3802SOL    HW214980   2.364   4.263   5.293 -1.9339  1.3606  1.3995
 3802SOL    HW314981   2.298   4.212   5.166  1.4465 -0.9093  0.4072
 3802SOL    MW414982   2.337   4.276   5.211 -0.1661 -0.1607 -0.3596
 3803SOL     OW14983   3.742   5.755   1.307  0.0968 -0.1826 -0.1688
 3803SOL    HW214984   3.761   5.667   1.340 -1.5991 -0.5480 -0.0541
 3803SOL    HW314985   3.802   5.812   1.355 -0.7592 -0.9560  1.9523
 3803SOL    MW414986   3.753   5.751   1.318 -0.6632  0.2083  0.1468
 3804SOL     OW14987   2.653   0.509   1.582 -0.0117  0.1914 -0.4672
 3804SOL    HW214988   2.738   0.473   1.607  0.3278  0.8742 -0.6328
 3804SOL    HW314989   2.645   0.590   1.632 -1.0823 -0.4479  0.4369
 3804SOL    MW414990   2.663   0.515   1.592  0.1704  0.4053  0.3706
 3805SOL     OW14991   2.836   0.846   6.191 -0.1133  0.3621  0.1945
 3805SOL    HW214992   2.850   0.821   6.099  0.5277  0.2715  0.3076
 3805SOL    HW314993   2.746   0.876   6.194  0.1954  1.4684 -0.7212
 3805SOL    MW414994   2.826   0.847   6.179  0.2818  0.5526  0.5256
 3806SOL     OW14995   0.707   5.466   4.135  0.0216 -0.4058 -0.4128
 3806SOL    HW214996   0.660   5.399   4.185  2.3135  0.8385  3.9177
 3806SOL    HW314997   0.778   5.418   4.092  1.9379 -0.9751  3.0289
 3806SOL    MW414998   0.710   5.451   4.135 -0.4917 -0.1873 -0.3907
 3807SOL     OW14999   4.639   2.553   3.481  0.0491  0.2474 -1.0824
 3807SOL    HW215000   4.673   2.464   3.477  1.2654  0.6976 -1.0736
 3807SOL    HW315001   4.645   2.586   3.391  3.5938  1.7197 -0.4684
 3807SOL    MW415002   4.644   2.546   3.468 -0.7164 -0.0484  0.8845
 3808SOL     OW15003   6.128   5.308   3.649 -0.0259  0.0566  0.1131
 3808SOL    HW215004   6.098   5.314   3.558  1.6181 -0.9500 -0.5507
 3808SOL    HW315005   6.174   5.392   3.663 -2.1409  1.1592  0.7966
 3808SOL    MW415006   6.130   5.320   3.639  0.4850  0.6702 -0.1552
 3809SOL     OW15007   4.112   3.585   4.967  0.0996  0.1000 -0.0535
 3809SOL    HW215008   4.207   3.591   4.980  0.4337 -3.2902 -0.1319
 3809SOL    HW315009   4.102   3.570   4.873 -0.4747 -0.3924  0.0847
 3809SOL    MW415010   4.123   3.584   4.956 -0.0502  0.3189 -0.4479
 3810SOL     OW15011   2.115   1.336   3.186 -0.4979  0.0767  0.2620
 3810SOL    HW215012   2.071   1.421   3.182 -0.7258 -0.0323  0.4474
 3810SOL    HW315013   2.137   1.316   3.095 -0.5006  0.3058  0.2115
 3810SOL    MW415014   2.112   1.345   3.173  0.1728  0.2197  0.1599
 3811SOL     OW15015   2.883   1.762   5.056 -0.5375 -0.0468  0.4056
 3811SOL    HW215016   2.957   1.821   5.043  0.3949 -1.0813  0.8649
 3811SOL    HW315017   2.861   1.731   4.969  0.6804 -1.0231  0.4159
 3811SOL    MW415018   2.890   1.766   5.043 -0.3391 -0.0312  0.4459
 3812SOL     OW15019   0.779   6.025   2.639 -0.1006  0.0044  0.2076
 3812SOL    HW215020   0.832   6.007   2.716 -2.6714  0.4921  2.2341
 3812SOL    HW315021   0.822   6.099   2.596  1.8527 -0.8252  0.6493
 3812SOL    MW415022   0.791   6.032   2.643 -0.4526  0.2213  0.0054
 3813SOL     OW15023   5.618   3.175   1.669  0.1457 -0.5457 -0.7107
 3813SOL    HW215024   5.711   3.155   1.661  0.7132  1.8361 -0.8288
 3813SOL    HW315025   5.607   3.202   1.760 -0.1821  0.2509 -0.9791
 3813SOL    MW415026   5.629   3.176   1.680  0.4368 -0.4105 -0.2697
 3814SOL     OW15027   2.837   3.945   2.694 -0.6123 -0.0058  0.1476
 3814SOL    HW215028   2.783   4.010   2.650 -1.3303 -0.5424  0.2153
 3814SOL    HW315029   2.882   3.900   2.623 -0.8429 -0.0620  0.0345
 3814SOL    MW415030   2.836   3.947   2.679 -0.1642 -0.0057  0.0095
 3815SOL     OW15031   5.397   4.214   2.099  0.0230  0.4025 -0.1175
 3815SOL    HW215032   5.355   4.297   2.076  0.6593  0.6250 -0.5124
 3815SOL    HW315033   5.349   4.183   2.175  1.5301  2.5105  1.8268
 3815SOL    MW415034   5.385   4.221   2.106 -0.3948  0.3882 -0.0113
 3816SOL     OW15035   5.261   0.860   5.468 -0.6690  0.1678  0.0144
 3816SOL    HW215036   5.169   0.882   5.479 -0.8615 -0.3776 -0.4805
 3816SOL    HW315037   5.270   0.773   5.506 -0.3799  0.1883 -0.0070
 3816SOL    MW415038   5.250   0.852   5.474  0.2202 -0.2088 -0.0170
 3817SOL     OW15039   5.096   6.087   0.412 -0.4456  0.3663 -0.6496
 3817SOL    HW215040   5.009   6.125   0.403 -0.6031  0.3860  0.6898
 3817SOL    HW315041   5.082   5.993   0.405 -0.3948  0.4194 -1.5880
 3817SOL    MW415042   5.083   6.080   0.410 -0.0912  0.2927  0.1731
 3818SOL     OW15043   5.277   3.997   1.098  0.1255  0.1003 -0.3767
 3818SOL    HW215044   5.371   4.016   1.103  0.4408 -1.3491 -0.4368
 3818SOL    HW315045   5.268   3.935   1.026 -1.0756  1.1640 -1.2169
 3818SOL    MW415046   5.288   3.992   1.089 -0.5370  0.2726  0.3018
 3819SOL     OW15047   0.821   6.315   3.335 -0.6798 -0.0708  0.1399
 3819SOL    HW215048   0.861   6.398   3.309  0.0064 -0.6039 -0.5240
 3819SOL    HW315049   0.727   6.329   3.321 -0.4994  0.3173 -0.7766
 3819SOL    MW415050   0.814   6.328   3.330  0.2116 -1.0673  0.5349
 3820SOL     OW15051   1.997   6.331   5.850 -0.2469  0.3199  0.0636
 3820SOL    HW215052   2.013   6.326   5.944 -1.6231 -1.9265  0.2608
 3820SOL    HW315053   2.017   6.243   5.818 -0.6916  0.7818 -1.5818
 3820SOL    MW415054   2.002   6.319   5.858  0.2782 -0.1702  0.0577
 3821SOL     OW15055   4.810   4.342   1.820 -0.3924 -0.3975  0.2373
 3821SOL    HW215056   4.855   4.266   1.856 -0.3713  0.1114  1.3442
 3821SOL    HW315057   4.862   4.367   1.743 -0.2653 -1.3471  0.0097
 3821SOL    MW415058   4.823   4.336   1.814  0.2559 -0.4578 -0.0548
 3822SOL     OW15059   5.187   0.741   2.533 -0.0792 -0.2352  0.0138
 3822SOL    HW215060   5.181   0.739   2.629 -1.3954 -2.2164 -0.0442
 3822SOL    HW315061   5.110   0.692   2.503 -0.4192  1.4725 -2.1186
 3822SOL    MW415062   5.176   0.734   2.542 -0.3971 -0.2255 -0.0924
 3823SOL     OW15063   0.967   1.980   2.472 -0.5348  0.2994 -0.6014
 3823SOL    HW215064   0.972   1.891   2.437  0.9809  0.4265 -0.7657
 3823SOL    HW315065   0.901   2.024   2.418 -0.7454 -0.4923 -1.0032
 3823SOL    MW415066   0.959   1.974   2.460  0.0498 -0.0245 -0.5209
 3824SOL     OW15067   5.834   4.444   2.278  0.5890  0.1636  0.4668
 3824SOL    HW215068   5.798   4.531   2.297 -0.4718 -0.0463 -0.4532
 3824SOL    HW315069   5.811   4.429   2.186  2.5993 -0.2216 -0.0128
 3824SOL    MW415070   5.826   4.453   2.268  0.3310 -0.4440  0.3519
 3825SOL     OW15071   3.379   4.626   6.130 -0.2565  0.0601  0.4661
 3825SOL    HW215072   3.310   4.596   6.071  1.7587 -0.3401 -1.8599
 3825SOL    HW315073   3.377   4.722   6.123 -1.4347  0.1280  1.5068
 3825SOL    MW415074   3.370   4.635   6.121 -0.8558 -0.1739 -0.0048
 3826SOL     OW15075   1.432   3.881   2.478  0.0251  0.1544 -0.3281
 3826SOL    HW215076   1.451   3.787   2.473  0.0415  0.1637 -0.4362
 3826SOL    HW315077   1.408   3.895   2.569  0.0141  0.0429 -0.3132
 3826SOL    MW415078   1.432   3.870   2.489  0.1312 -0.0747  0.1134
 3827SOL     OW15079   4.716   0.614   1.842  0.1701 -0.2673  0.6320
 3827SOL    HW215080   4.675   0.568   1.769  0.5578 -0.6439  0.6495
 3827SOL    HW315081   4.802   0.572   1.852  1.1893  1.4892 -0.3567
 3827SOL    MW415082   4.722   0.602   1.834  0.4222 -0.3785  0.1486
 3828SOL     OW15083   3.868   5.256   3.508  0.6729 -0.5704  0.6534
 3828SOL    HW215084   3.825   5.222   3.429 -0.1352  0.3637  0.6609
 3828SOL    HW315085   3.898   5.344   3.483  0.4509 -0.2840  1.3607
 3828SOL    MW415086   3.866   5.263   3.494 -0.0207  0.0887 -0.1362
 3829SOL     OW15087   2.188   5.379   2.821  0.4907 -0.2531  0.3574
 3829SOL    HW215088   2.273   5.371   2.863  0.5105  1.3622  0.6592
 3829SOL    HW315089   2.125   5.367   2.891  0.5151  1.4596  0.6971
 3829SOL    MW415090   2.191   5.376   2.836  0.0336  0.3081  0.3347
 3830SOL     OW15091   1.291   0.838   4.018  0.2652  0.4457 -0.6766
 3830SOL    HW215092   1.235   0.809   3.945 -0.8103  0.3014  0.1817
 3830SOL    HW315093   1.364   0.776   4.018 -0.7986 -0.8469 -0.3410
 3830SOL    MW415094   1.293   0.826   4.008  0.4350  0.1578  0.0110
 3831SOL     OW15095   1.942   0.854   1.567 -0.2504 -0.0839 -0.7104
 3831SOL    HW215096   1.958   0.780   1.626  0.9492 -1.3066 -2.4593
 3831SOL    HW315097   1.850   0.844   1.541 -0.4874 -0.1363  0.1050
 3831SOL    MW415098   1.932   0.843   1.572  0.6851 -0.0199 -0.3775
 3832SOL     OW15099   3.567   1.746   2.780 -0.0023 -0.4918  0.0280
 3832SOL    HW215100   3.502   1.759   2.849 -0.2943  0.9495 -0.4930
 3832SOL    HW315101   3.649   1.777   2.818  0.0593 -0.7392  0.1010
 3832SOL    MW415102   3.569   1.751   2.794  0.6048 -0.0381  0.1306
 3833SOL     OW15103   6.280   0.464   3.192 -0.4953 -0.3594 -0.0679
 3833SOL    HW215104   6.337   0.391   3.169  2.4802  1.6706  0.2711
 3833SOL    HW315105   6.297   0.480   3.285 -1.3600  0.5397 -0.0407
 3833SOL    MW415106   6.289   0.457   3.201 -0.6185  0.4238 -0.3122
 3834SOL     OW15107   2.386   3.266   5.433  0.4299 -0.1686  0.2086
 3834SOL    HW215108   2.352   3.260   5.344  0.7088 -2.5130  0.2144
 3834SOL    HW315109   2.368   3.357   5.459 -1.2573  0.0713 -1.5738
 3834SOL    MW415110   2.379   3.277   5.425 -0.2406  0.1860 -0.3627
 3835SOL     OW15111   0.388   1.478   5.252 -0.0777  0.1729  0.1326
 3835SOL    HW215112   0.329   1.478   5.176  0.5896  0.1296 -0.3959
 3835SOL    HW315113   0.458   1.539   5.228 -0.4879  1.1036  1.2206
 3835SOL    MW415114   0.389   1.486   5.238  0.1774 -0.2633  0.1224
 3836SOL     OW15115   1.714   2.750   2.832 -0.8316  0.3008 -0.2724
 3836SOL    HW215116   1.798   2.796   2.822 -1.5016  1.4440 -0.7616
 3836SOL    HW315117   1.722   2.674   2.774  0.4001 -0.4202  0.7708
 3836SOL    MW415118   1.726   2.746   2.823 -0.5394  0.0822  0.1788
 3837SOL     OW15119   6.312   1.738   3.858 -0.0812  0.3489 -0.0435
 3837SOL    HW215120   6.375   1.702   3.920 -2.2138 -1.8579  1.0016
 3837SOL    HW315121   6.237   1.763   3.912 -0.5246  2.0061 -1.3511
 3837SOL    MW415122   6.311   1.737   3.873 -0.5306 -0.1960  0.3211
 3838SOL     OW15123   6.191   6.213   2.569  0.2488  0.2925  0.6207
 3838SOL    HW215124   6.251   6.285   2.590  2.2961 -1.4659  1.1256
 3838SOL    HW315125   6.118   6.224   2.631 -0.4098  2.8773 -0.4767
 3838SOL    MW415126   6.189   6.224   2.580  0.1538  0.2154 -0.1164
 3839SOL     OW15127   0.026   6.348   0.538 -0.1052  0.2989  0.0394
 3839SOL    HW215128   0.098   6.286   0.526 -0.2949  0.0370  0.2454
 3839SOL    HW315129   0.066   6.434   0.525  0.0765  0.1151 -0.6381
 3839SOL    MW415130   0.041   6.351   0.535 -0.7632  0.5365  0.5250
 3840SOL     OW15131   4.316   0.079   6.146 -0.3029 -0.3479 -0.2542
 3840SOL    HW215132   4.290   0.033   6.226  0.4763 -1.7764 -0.7937
 3840SOL    HW315133   4.404   0.111   6.164 -0.5607  0.3347 -0.1520
 3840SOL    MW415134   4.324   0.078   6.159 -0.6882 -0.5756 -0.4289
 3841SOL     OW15135   6.085   1.584   5.506 -0.8214  0.0664 -0.3329
 3841SOL    HW215136   6.014   1.621   5.558  0.0643 -1.1058  1.8509
 3841SOL    HW315137   6.160   1.641   5.524 -0.1613 -1.1090  0.8579
 3841SOL    MW415138   6.086   1.596   5.516 -0.1262 -0.2344 -0.2403
 3842SOL     OW15139   4.336   0.621   2.453 -0.0535 -0.1903  0.6015
 3842SOL    HW215140   4.424   0.655   2.436  0.9542 -2.4088  0.9623
 3842SOL    HW315141   4.351   0.547   2.512 -1.7608 -2.8087 -1.9761
 3842SOL    MW415142   4.350   0.616   2.459 -0.3121  0.1398  0.0287
 3843SOL     OW15143   1.121   3.515   0.025  0.1991 -0.0395  0.0471
 3843SOL    HW215144   1.202   3.532  -0.023  0.3083 -0.5919  0.0346
 3843SOL    HW315145   1.134   3.430   0.066 -0.5529 -0.3458 -0.3376
 3843SOL    MW415146   1.134   3.506   0.024  0.4105  0.3161 -0.5651
 3844SOL     OW15147   4.852   2.348   0.032 -0.7208  0.0938 -0.1155
 3844SOL    HW215148   4.836   2.438   0.004  0.8010 -0.3126 -2.7503
 3844SOL    HW315149   4.939   2.328  -0.004  1.1732 -0.9879  4.3832
 3844SOL    MW415150   4.862   2.357   0.023  0.8615  0.1697  0.4641
 3845SOL     OW15151   2.647   5.994   4.276 -0.1549  0.4929 -0.5109
 3845SOL    HW215152   2.633   5.930   4.207 -2.5975 -1.0776  1.2635
 3845SOL    HW315153   2.593   6.069   4.251 -0.0497  0.4372 -0.9071
 3845SOL    MW415154   2.638   5.995   4.264  0.5093  0.0623  0.2889
 3846SOL     OW15155   0.568   4.562   3.265 -0.2550  0.2616  0.6566
 3846SOL    HW215156   0.545   4.646   3.306 -2.2406  0.3157 -0.4515
 3846SOL    HW315157   0.657   4.574   3.232 -0.2534  1.6821  1.1329
 3846SOL    MW415158   0.577   4.574   3.266 -0.2819  0.6270 -0.4366
 3847SOL     OW15159   4.740   3.481   2.390 -0.4080 -0.0137 -0.6242
 3847SOL    HW215160   4.649   3.494   2.364 -0.4491 -1.1741 -1.1058
 3847SOL    HW315161   4.768   3.404   2.341  0.9655  0.5694 -0.8144
 3847SOL    MW415162   4.732   3.473   2.380  0.4768 -0.4298 -0.2452
 3848SOL     OW15163   4.564   3.535   0.900  0.0661  0.1115 -0.4669
 3848SOL    HW215164   4.573   3.624   0.867  1.3895  0.2834  0.3201
 3848SOL    HW315165   4.653   3.500   0.902 -0.4353 -1.2929 -0.8952
 3848SOL    MW415166   4.577   3.542   0.896 -0.2637 -0.3131 -0.3312
 3849SOL     OW15167   5.640   2.859   2.301  0.6663 -0.3131 -0.5197
 3849SOL    HW215168   5.631   2.841   2.208  0.8949 -0.3753 -0.5296
 3849SOL    HW315169   5.732   2.844   2.320  0.1731 -2.7300  0.2307
 3849SOL    MW415170   5.651   2.855   2.291  0.2012 -0.4609  0.0303
 3850SOL     OW15171   1.828   5.443   2.308 -0.2828 -0.3913  0.5032
 3850SOL    HW215172   1.744   5.403   2.285 -0.3059 -0.6224  0.9888
 3850SOL    HW315173   1.893   5.385   2.269 -0.3530  1.2241 -2.2750
 3850SOL    MW415174   1.825   5.430   2.300  0.0056  0.6121 -0.0634
 3851SOL     OW15175   3.081   0.373   2.505  0.2586 -0.4807 -0.2230
 3851SOL    HW215176   3.005   0.315   2.499  0.4026 -0.8195  1.0029
 3851SOL    HW315177   3.118   0.356   2.591 -0.1775  2.0169  0.5377
 3851SOL    MW415178   3.076   0.363   2.515 -0.5655 -0.6263  0.3528
 3852SOL     OW15179   0.158   4.473   4.896 -0.1296  0.5469 -0.1555
 3852SOL    HW215180   0.225   4.445   4.958  0.6377  1.2716 -0.6336
 3852SOL    HW315181   0.076   4.438   4.931  0.3386  0.6458  1.0672
 3852SOL    MW415182   0.156   4.465   4.909  0.1670 -0.0770  0.5143
 3853SOL     OW15183   3.020   6.039   3.756  0.3403 -0.5191  0.2984
 3853SOL    HW215184   3.055   6.107   3.814 -0.9742 -1.2065  1.9750
 3853SOL    HW315185   3.002   6.085   3.674  1.8788  0.5747  0.5299
 3853SOL    MW415186   3.022   6.054   3.753  0.4981  0.1479 -0.6996
 3854SOL     OW15187   1.060   0.060   5.918  0.3916  0.5223  0.0471
 3854SOL    HW215188   1.049   0.136   5.975  0.8921  1.4740 -1.0996
 3854SOL    HW315189   1.147   0.071   5.880  0.1607 -0.2299 -0.7287
 3854SOL    MW415190   1.070   0.071   5.921  0.4125  0.0695  0.0794
 3855SOL     OW15191   4.533   5.930   4.013 -0.3306 -0.0902 -0.7226
 3855SOL    HW215192   4.550   5.922   3.919 -0.5631  1.3231 -0.9101
 3855SOL    HW315193   4.506   6.021   4.024  0.0770 -0.1299  0.7771
 3855SOL    MW415194   4.532   5.941   4.002  0.6151  0.0029 -0.0908
 3856SOL     OW15195   2.842   2.270   2.226 -0.1284 -0.5545  0.0737
 3856SOL    HW215196   2.925   2.308   2.253 -1.0926  2.2552 -0.6329
 3856SOL    HW315197   2.808   2.229   2.306  0.5518  0.9748  1.1994
 3856SOL    MW415198   2.848   2.270   2.240  0.1140  0.0018 -0.3802
 3857SOL     OW15199   4.117   6.277   5.768 -0.2068 -0.3024  0.4198
 3857SOL    HW215200   4.059   6.221   5.819 -1.0607 -0.1180 -0.3295
 3857SOL    HW315201   4.118   6.238   5.680  0.9995 -0.4409  0.4710
 3857SOL    MW415202   4.110   6.264   5.763  0.2180  0.4366 -0.0803
 3858SOL     OW15203   3.841   2.793   1.915  0.0088 -0.5577 -0.0536
 3858SOL    HW215204   3.801   2.808   2.001  0.9053 -0.5047  0.3649
 3858SOL    HW315205   3.854   2.698   1.911  0.0990 -0.5443 -0.0739
 3858SOL    MW415206   3.837   2.783   1.926 -0.3213 -0.2069  0.4803
 3859SOL     OW15207   1.309   1.506   3.431 -0.4999 -0.6976  0.0242
 3859SOL    HW215208   1.381   1.537   3.487  0.1113 -0.4403 -0.8703
 3859SOL    HW315209   1.326   1.413   3.420  1.0871 -0.2496 -2.0564
 3859SOL    MW415210   1.321   1.498   3.437 -0.2402  0.1989 -0.1468
 3860SOL     OW15211   2.627   4.535   6.384  0.6956  0.4248  0.1435
 3860SOL    HW215212   2.709   4.506   6.426  2.0809  2.5584 -0.9269
 3860SOL    HW315213   2.650   4.617   6.342 -2.1886  1.3860  0.2682
 3860SOL    MW415214   2.641   4.542   6.384  0.3895  0.3885 -0.3649
 3861SOL     OW15215   4.490   4.773   4.204 -0.5040 -0.0124 -0.0220
 3861SOL    HW215216   4.470   4.818   4.286 -2.7290  0.8716 -0.9705
 3861SOL    HW315217   4.540   4.838   4.153 -0.8837  0.2009 -0.1298
 3861SOL    MW415218   4.494   4.788   4.208  0.0920  0.2996 -0.1450
 3862SOL     OW15219   6.349   0.905   2.083 -0.1601 -0.0659  0.2654
 3862SOL    HW215220   6.428   0.862   2.050 -0.5739  0.0506 -0.8980
 3862SOL    HW315221   6.278   0.871   2.030 -0.6656  1.1345  0.1262
 3862SOL    MW415222   6.350   0.895   2.072 -0.3779  0.3085  1.0542
 3863SOL     OW15223   5.060   4.655   3.700  0.4765 -0.0637 -0.2687
 3863SOL    HW215224   4.996   4.602   3.746 -0.3535  1.1801  0.0567
 3863SOL    HW315225   5.097   4.596   3.634 -2.2388 -0.3948 -1.6372
 3863SOL    MW415226   5.056   4.640   3.697 -0.8597  0.5594  0.2439
 3864SOL     OW15227   0.619   0.779   5.462  0.1040 -0.4864  0.2970
 3864SOL    HW215228   0.530   0.810   5.477 -0.3770 -0.9847 -1.3629
 3864SOL    HW315229   0.670   0.859   5.447 -0.0395 -0.2014  1.2363
 3864SOL    MW415230   0.614   0.794   5.462 -0.7380  0.2073 -0.7099
 3865SOL     OW15231   5.429   0.093   1.364 -0.0608 -0.2096 -0.6742
 3865SOL    HW215232   5.340   0.068   1.336 -0.4144  1.2892 -0.9373
 3865SOL    HW315233   5.442   0.044   1.445 -1.4527  0.1437 -0.2023
 3865SOL    MW415234   5.419   0.083   1.371  0.4144  0.0493  0.0863
 3866SOL     OW15235   3.846   4.292   3.374  0.0011  0.1335 -0.0812
 3866SOL    HW215236   3.762   4.268   3.413  0.8073  0.6628  2.0747
 3866SOL    HW315237   3.908   4.227   3.407  0.6240  0.2770 -0.9289
 3866SOL    MW415238   3.843   4.280   3.383 -0.2075 -0.5167  0.6970
 3867SOL     OW15239   4.580   6.005   5.350  0.1888  0.2730  0.4062
 3867SOL    HW215240   4.656   6.028   5.296 -1.8712  0.0083 -2.9204
 3867SOL    HW315241   4.519   6.078   5.338 -1.8254 -1.4843 -0.8587
 3867SOL    MW415242   4.582   6.017   5.341 -0.1463  0.0415 -0.4031
 3868SOL     OW15243   5.510   0.431   4.640 -0.3982  0.2834  0.1216
 3868SOL    HW215244   5.555   0.360   4.686  1.2010  0.0267 -1.6828
 3868SOL    HW315245   5.581   0.480   4.598 -1.6720  1.3951 -0.8067
 3868SOL    MW415246   5.526   0.429   4.641  0.2559  0.2426 -0.4624
 3869SOL     OW15247   2.861   1.424   1.611  0.2752  0.1887 -0.4089
 3869SOL    HW215248   2.814   1.475   1.545 -0.0343  0.6105  0.1349
 3869SOL    HW315249   2.825   1.335   1.602  2.0574 -0.3954 -2.5601
 3869SOL    MW415250   2.850   1.419   1.601  0.1765 -0.0754 -0.3043
 3870SOL     OW15251   2.374   3.110   3.465 -0.0022  0.0376 -0.2719
 3870SOL    HW215252   2.320   3.108   3.544 -0.0759  1.1083 -0.2815
 3870SOL    HW315253   2.450   3.163   3.489  0.0395  0.2570 -0.8682
 3870SOL    MW415254   2.377   3.117   3.479 -0.5470  0.0307  0.0376
 3871SOL     OW15255   2.745   3.807   0.456 -0.1211  0.4677 -0.9464
 3871SOL    HW215256   2.701   3.732   0.495  1.2470 -0.2111 -0.6523
 3871SOL    HW315257   2.704   3.883   0.498 -0.3753 -0.1743 -0.0029
 3871SOL    MW415258   2.734   3.807   0.467  0.0499 -0.2122 -0.3778
 3872SOL     OW15259   1.729   2.706   2.430 -0.3285 -0.1305 -0.2928
 3872SOL    HW215260   1.820   2.726   2.408 -0.7857  0.3511 -1.8459
 3872SOL    HW315261   1.695   2.788   2.467 -0.6605  0.3115 -1.5369
 3872SOL    MW415262   1.737   2.720   2.432 -0.6645  0.0920  0.3529
 3873SOL     OW15263   3.260   3.995   6.252  0.5019  0.0170 -0.4825
 3873SOL    HW215264   3.324   3.928   6.277  0.3521 -0.2317 -0.7624
 3873SOL    HW315265   3.278   4.069   6.311  0.1272 -0.5725  0.4028
 3873SOL    MW415266   3.271   3.996   6.263  0.4626 -0.0484 -0.5398
 3874SOL     OW15267   1.590   3.677   5.901 -0.4414 -0.2474  0.2400
 3874SOL    HW215268   1.560   3.676   5.810 -2.2360 -2.5452  0.7397
 3874SOL    HW315269   1.652   3.604   5.906 -0.7685 -0.4820  0.9610
 3874SOL    MW415270   1.594   3.667   5.890 -0.1001  0.7796 -0.3710
 3875SOL     OW15271   5.829   4.685   5.989  0.3355 -0.2344  0.3370
 3875SOL    HW215272   5.810   4.612   6.048  0.2367 -0.9763 -0.5897
 3875SOL    HW315273   5.787   4.761   6.030  0.0809 -0.7743  1.0976
 3875SOL    MW415274   5.821   4.686   6.002 -0.2039  0.1005  0.2519
 3876SOL     OW15275   0.745   3.910   0.463  0.0168  0.2080  0.0872
 3876SOL    HW215276   0.832   3.874   0.480  0.2966  1.7859  2.4164
 3876SOL    HW315277   0.686   3.858   0.517 -0.1186  0.7502  0.4687
 3876SOL    MW415278   0.749   3.899   0.472 -0.2514 -0.4282  0.1914
 3877SOL     OW15279   2.972   6.306   1.060 -0.0061  0.0939 -0.0550
 3877SOL    HW215280   2.945   6.314   1.151  0.9423 -0.8479  0.3282
 3877SOL    HW315281   2.988   6.213   1.047 -0.2528  0.1966 -1.2241
 3877SOL    MW415282   2.971   6.295   1.070  0.4057 -0.4134  0.2610
 3878SOL     OW15283   4.118   4.195   6.243  0.3376 -0.4897 -0.3586
 3878SOL    HW215284   4.187   4.156   6.296  1.9859  0.8669 -1.3735
 3878SOL    HW315285   4.163   4.226   6.164 -0.9804  2.4070 -0.1156
 3878SOL    MW415286   4.133   4.194   6.240 -0.5198  0.1785 -0.7022
 3879SOL     OW15287   1.325   5.967   1.789  0.1091  0.1937 -0.3231
 3879SOL    HW215288   1.311   5.882   1.831 -1.9907  0.6549  0.0305
 3879SOL    HW315289   1.336   6.028   1.862 -1.5059  0.6769 -0.4390
 3879SOL    MW415290   1.325   5.964   1.804  0.2767  0.0612 -0.4311
 3880SOL     OW15291   2.908   1.034   4.677 -0.3183 -0.3519 -0.2922
 3880SOL    HW215292   3.001   1.050   4.696 -0.9423  0.8806  2.0986
 3880SOL    HW315293   2.881   0.969   4.742 -1.8964  1.8762  1.4239
 3880SOL    MW415294   2.917   1.027   4.688  0.0754  0.8243  0.4054
 3881SOL     OW15295   4.485   5.579   2.961  0.5179 -0.1599 -0.0849
 3881SOL    HW215296   4.545   5.638   3.007  0.3771  0.7135 -0.9825
 3881SOL    HW315297   4.450   5.632   2.889  0.0847 -1.2240 -0.6802
 3881SOL    MW415298   4.488   5.594   2.958 -0.4474 -0.0013 -0.0577
 3882SOL     OW15299   4.605   0.669   6.220  0.7788  0.2193 -0.0311
 3882SOL    HW215300   4.527   0.653   6.166  0.9438 -1.4890  0.1966
 3882SOL    HW315301   4.595   0.760   6.248 -1.2695 -0.0080  0.1860
 3882SOL    MW415302   4.593   0.679   6.217  0.3067 -0.5989  0.3577
 3883SOL     OW15303   4.166   0.451   0.505  0.0500  0.4364 -0.2379
 3883SOL    HW215304   4.149   0.488   0.418 -2.2448  0.5995  0.2205
 3883SOL    HW315305   4.112   0.503   0.564  0.5267 -0.5495  1.1092
 3883SOL    MW415306   4.157   0.462   0.501  0.5300  0.8137  0.0220
 3884SOL     OW15307   4.433   0.821   2.813 -0.4011  0.0276  0.3798
 3884SOL    HW215308   4.424   0.896   2.754 -0.6016 -0.1459  0.1858
 3884SOL    HW315309   4.343   0.797   2.835 -0.5073 -1.7863 -1.6440
 3884SOL    MW415310   4.420   0.828   2.808  0.5846  0.5547 -0.5004
 3885SOL     OW15311   2.121   2.825   3.498 -0.2461 -0.3903 -0.9584
 3885SOL    HW215312   2.093   2.765   3.567  1.6616 -1.1349 -0.7544
 3885SOL    HW315313   2.056   2.894   3.497 -0.8716 -0.9136  0.8694
 3885SOL    MW415314   2.109   2.826   3.507 -0.1498 -0.5465 -0.0989
 3886SOL     OW15315   5.638   3.439   0.504 -0.0634 -0.0049 -0.1255
 3886SOL    HW215316   5.611   3.527   0.531  0.2530 -0.3856  1.4915
 3886SOL    HW315317   5.571   3.381   0.541  0.7628 -0.6001  0.4525
 3886SOL    MW415318   5.625   3.443   0.512 -0.7175 -0.2717 -0.5676
 3887SOL     OW15319   1.238   5.378   6.334  0.1560  0.3750  0.2034
 3887SOL    HW215320   1.328   5.406   6.320  0.0720  0.0397 -1.2698
 3887SOL    HW315321   1.216   5.329   6.254 -1.0759 -0.2082  0.8680
 3887SOL    MW415322   1.247   5.375   6.321  0.2300  0.5294 -0.1471
 3888SOL     OW15323   1.689   2.673   1.238 -0.0067 -0.2412  0.1770
 3888SOL    HW215324   1.698   2.605   1.171  1.4852  1.7257 -1.7304
 3888SOL    HW315325   1.777   2.683   1.274 -0.4816 -0.1653  1.3722
 3888SOL    MW415326   1.702   2.665   1.234  0.2928  0.3154 -0.5327
 3889SOL     OW15327   3.479   4.799   5.124  0.1469 -0.0124  0.5006
 3889SOL    HW215328   3.551   4.748   5.086 -1.2607 -0.6048 -1.5600
 3889SOL    HW315329   3.416   4.810   5.052 -1.7782  0.5802  2.1577
 3889SOL    MW415330   3.480   4.793   5.109  0.7641  0.1352 -0.8063
 3890SOL     OW15331   1.778   0.479   5.373  0.4008  0.0283 -0.4450
 3890SOL    HW215332   1.702   0.475   5.430  1.3183 -0.7270  0.7719
 3890SOL    HW315333   1.851   0.451   5.428  1.2325 -1.3208 -2.1527
 3890SOL    MW415334   1.778   0.475   5.388  0.4188  0.8356 -0.1150
 3891SOL     OW15335   5.611   4.159   3.824 -0.2148 -0.0481  0.9996
 3891SOL    HW215336   5.699   4.198   3.823  0.4381 -1.3949 -1.5725
 3891SOL    HW315337   5.624   4.070   3.855 -0.3138 -0.8396 -1.0777
 3891SOL    MW415338   5.624   4.153   3.828  0.3358 -0.1567 -0.3388
 3892SOL     OW15339   0.179   4.739   4.468 -0.1010 -0.4774  0.2660
 3892SOL    HW215340   0.273   4.747   4.452 -0.2998  0.3264 -0.6084
 3892SOL    HW315341   0.141   4.727   4.381 -1.2338  3.8698 -0.0613
 3892SOL    MW415342   0.186   4.738   4.454 -0.0509 -0.3959  0.5744
 3893SOL     OW15343   2.937   0.650   3.430  0.4736  0.1767  0.1130
 3893SOL    HW215344   2.999   0.708   3.385  0.9404 -0.6001 -0.2678
 3893SOL    HW315345   2.939   0.569   3.378  0.5137 -0.5019  1.1488
 3893SOL    MW415346   2.945   0.647   3.417  0.3877  0.0438 -0.5124
 3894SOL     OW15347   4.382   0.009   0.443  0.2583 -0.3631 -0.3160
 3894SOL    HW215348   4.305   0.059   0.468  0.8930 -0.3774  1.8516
 3894SOL    HW315349   4.350  -0.081   0.435 -0.0028 -0.3329  0.3375
 3894SOL    MW415350   4.367   0.003   0.445  0.3336 -0.3306  0.0782
 3895SOL     OW15351   4.243   6.131   4.521 -0.3806 -0.2509  0.3193
 3895SOL    HW215352   4.255   6.173   4.606  1.1455 -0.1024  0.0544
 3895SOL    HW315353   4.330   6.102   4.496 -0.4594  1.2109 -1.9855
 3895SOL    MW415354   4.256   6.133   4.529  0.3103  0.5762  0.2981
 3896SOL     OW15355   4.549   1.325   3.091  0.4683  0.2131  0.1335
 3896SOL    HW215356   4.602   1.405   3.097 -0.1988  0.5568  2.4730
 3896SOL    HW315357   4.613   1.256   3.071  1.0158  1.2946 -2.1984
 3896SOL    MW415358   4.565   1.326   3.090 -0.0909 -0.4905  0.4796
 3897SOL     OW15359   4.062   3.205   2.653  0.0510  0.5011 -0.4672
 3897SOL    HW215360   3.984   3.259   2.666  0.6151  1.2636 -0.1850
 3897SOL    HW315361   4.029   3.126   2.611 -0.7730  1.1130 -1.0070
 3897SOL    MW415362   4.047   3.201   2.649  0.8704 -1.2824 -0.2499
 3898SOL     OW15363   0.606   2.755   5.209 -0.1197  0.2564  0.2069
 3898SOL    HW215364   0.691   2.777   5.246  0.3507 -1.6287  0.3497
 3898SOL    HW315365   0.543   2.784   5.275  0.6069 -1.1717  1.5951
 3898SOL    MW415366   0.609   2.762   5.222  0.2781 -0.0568 -0.3753
 3899SOL     OW15367   5.912   1.245   6.342 -0.0460 -0.5592 -0.2371
 3899SOL    HW215368   5.990   1.250   6.397 -1.2459 -0.1509  1.4837
 3899SOL    HW315369   5.942   1.276   6.256  1.5149  0.3199  0.5768
 3899SOL    MW415370   5.926   1.250   6.338  0.1579  0.5738  0.3781
 3900SOL     OW15371   5.202   6.111   6.355  0.1413 -0.0909 -0.0556
 3900SOL    HW215372   5.178   6.042   6.293 -1.9718  0.6655 -0.1738
 3900SOL    HW315373   5.236   6.182   6.301  0.1607 -0.1815 -0.1609
 3900SOL    MW415374   5.203   6.111   6.340  0.0711  0.8927  0.4752
 3901SOL     OW15375   6.214   4.300   2.359  0.0210  0.0501  0.2988
 3901SOL    HW215376   6.309   4.304   2.347 -0.0982  0.6286 -0.5706
 3901SOL    HW315377   6.179   4.299   2.270 -0.7901 -0.1848  0.6126
 3901SOL    MW415378   6.222   4.300   2.345 -0.1057  0.3840 -0.2488
 3902SOL     OW15379   6.177   4.375   0.434  0.2513  0.2338 -0.0787
 3902SOL    HW215380   6.257   4.323   0.428  1.3470  1.5042  2.1779
 3902SOL    HW315381   6.208   4.466   0.433 -1.2507  0.7670  0.0485
 3902SOL    MW415382   6.192   4.381   0.433  0.4249  0.1292 -0.3591
 3903SOL     OW15383   5.525   2.693   5.738  0.0091  0.5142 -0.0078
 3903SOL    HW215384   5.602   2.663   5.690 -0.8110  0.1645 -1.1505
 3903SOL    HW315385   5.512   2.783   5.707  1.4110  1.5169  2.0784
 3903SOL    MW415386   5.533   2.701   5.728 -0.2532 -0.3336  0.5161
 3904SOL     OW15387   3.686   2.925   6.178 -0.1019 -0.2271 -0.2863
 3904SOL    HW215388   3.696   2.926   6.082  0.7344  1.3413 -0.2257
 3904SOL    HW315389   3.738   3.000   6.208 -1.1107 -0.1190  1.3272
 3904SOL    MW415390   3.694   2.935   6.169 -0.3929 -0.6181  0.0265
 3905SOL     OW15391   2.055   4.862   1.787 -0.1695 -0.2162  0.2988
 3905SOL    HW215392   1.994   4.875   1.860 -0.3653  2.1748 -0.2287
 3905SOL    HW315393   2.134   4.907   1.814 -0.1286  0.4080 -0.8310
 3905SOL    MW415394   2.057   4.869   1.800 -0.0900  0.0817  0.0197
 3906SOL     OW15395   4.504   0.676   1.202 -0.3935  0.5779  0.0916
 3906SOL    HW215396   4.465   0.671   1.290  0.0984 -0.5519  0.2648
 3906SOL    HW315397   4.490   0.589   1.165  0.9263  0.5068 -0.2860
 3906SOL    MW415398   4.497   0.664   1.209 -0.1154  0.1173 -0.1996
 3907SOL     OW15399   4.155   3.312   0.372 -0.6545 -0.1432  0.3989
 3907SOL    HW215400   4.163   3.372   0.446 -0.8908  0.5187 -0.1038
 3907SOL    HW315401   4.243   3.304   0.337 -0.5343 -0.4950  0.7785
 3907SOL    MW415402   4.167   3.319   0.377 -0.4253 -0.6591  0.4129
 3908SOL     OW15403   4.021   3.063   5.249  0.6989 -0.2266  0.1049
 3908SOL    HW215404   3.983   3.023   5.327 -0.0241  2.4449  1.2303
 3908SOL    HW315405   4.102   3.103   5.279  1.2271 -0.5008 -0.8924
 3908SOL    MW415406   4.027   3.063   5.263  0.0166 -0.1407 -0.0898
 3909SOL     OW15407   4.057   4.560   0.330  0.4168  0.0096 -0.4966
 3909SOL    HW215408   4.077   4.514   0.249  2.2225  1.7445 -1.1156
 3909SOL    HW315409   4.140   4.564   0.377  0.1783  1.9703 -0.1472
 3909SOL    MW415410   4.070   4.554   0.325  0.3640  0.4116 -0.5057
 3910SOL     OW15411   4.787   1.320   4.099 -0.1027  0.2393  0.5768
 3910SOL    HW215412   4.725   1.301   4.170 -0.5756 -0.6194 -0.0439
 3910SOL    HW315413   4.837   1.395   4.131 -0.7771  0.3156  1.5224
 3910SOL    MW415414   4.785   1.327   4.113  0.2312 -0.1002  0.2590
 3911SOL     OW15415   0.837   0.625   2.084 -0.0573 -0.0196  0.3366
 3911SOL    HW215416   0.844   0.583   2.169 -1.4438 -0.6494  0.1777
 3911SOL    HW315417   0.824   0.553   2.022  0.0955  0.4792 -0.2939
 3911SOL    MW415418   0.836   0.610   2.087  0.4021 -0.2151  0.0749
 3912SOL     OW15419   0.659   0.977   5.907  0.1474  0.1445  0.6933
 3912SOL    HW215420   0.674   0.895   5.861  0.2070 -0.8487  2.4204
 3912SOL    HW315421   0.635   0.952   5.995 -0.0408  1.9905  1.2180
 3912SOL    MW415422   0.658   0.963   5.912  0.0810 -0.2954 -0.6385
 3913SOL     OW15423   1.130   2.394   0.772  0.2002  0.2299 -0.1673
 3913SOL    HW215424   1.152   2.477   0.730 -1.5420  0.8606  0.0766
 3913SOL    HW315425   1.111   2.334   0.699 -0.3653  0.6006 -0.3320
 3913SOL    MW415426   1.131   2.397   0.757  0.0435  0.0157 -0.6027
 3914SOL     OW15427   5.379   4.171   5.942  0.2376 -0.0253  0.3792
 3914SOL    HW215428   5.402   4.136   6.028  1.3124 -1.7548 -0.5475
 3914SOL    HW315429   5.460   4.213   5.910 -0.6689  2.2967  0.9258
 3914SOL    MW415430   5.393   4.172   5.949  0.0624 -0.2748 -0.5142
 3915SOL     OW15431   0.802   4.461   3.921 -0.3620  0.8631  0.0463
 3915SOL    HW215432   0.725   4.405   3.912 -0.6480  1.1980  0.3610
 3915SOL    HW315433   0.766   4.550   3.928  0.0099  0.9526  0.9292
 3915SOL    MW415434   0.787   4.466   3.921  0.1218  0.1692  0.0027
 3916SOL     OW15435   6.191   5.599   6.333 -0.3095 -0.1130 -0.1371
 3916SOL    HW215436   6.282   5.573   6.342  0.1755  1.5256  0.1595
 3916SOL    HW315437   6.182   5.625   6.241 -0.7861 -1.2839 -0.4355
 3916SOL    MW415438   6.202   5.599   6.322  0.0807 -0.5811 -0.0379
 3917SOL     OW15439   4.693   3.251   5.180  0.1537 -0.3213 -0.5803
 3917SOL    HW215440   4.737   3.281   5.259 -0.4596 -0.0718 -0.3354
 3917SOL    HW315441   4.657   3.330   5.140  0.1341 -0.4950 -0.9145
 3917SOL    MW415442   4.694   3.265   5.185 -0.6518 -0.1670 -0.1361
 3918SOL     OW15443   1.628   4.079   2.349  0.3785 -0.0544 -0.3587
 3918SOL    HW215444   1.672   4.121   2.423 -0.3294 -1.8259  1.1428
 3918SOL    HW315445   1.553   4.033   2.388 -2.0725  1.6899 -2.6305
 3918SOL    MW415446   1.624   4.079   2.364 -0.1113 -1.1800  0.3051
 3919SOL     OW15447   0.081   6.027   2.862 -0.3558 -0.1898 -0.5851
 3919SOL    HW215448   0.150   6.017   2.796  0.2563 -0.4772  0.0932
 3919SOL    HW315449   0.006   5.982   2.824  0.1543 -0.8352 -0.8499
 3919SOL    MW415450   0.080   6.020   2.848 -0.3770 -0.5032 -0.4155
 3920SOL     OW15451   4.928   5.727   2.620  0.1157  0.0006  0.0184
 3920SOL    HW215452   4.942   5.767   2.534  0.4449 -0.2755 -0.0597
 3920SOL    HW315453   4.847   5.678   2.611  0.5472 -0.6638 -0.3754
 3920SOL    MW415454   4.919   5.726   2.607 -0.5263 -0.3877 -0.2895
 3921SOL     OW15455   1.246   5.536   4.835 -0.4616  0.4251 -0.4396
 3921SOL    HW215456   1.306   5.579   4.896 -0.4668 -0.5346  0.2472
 3921SOL    HW315457   1.257   5.442   4.851  0.5748  0.0369 -2.8492
 3921SOL    MW415458   1.256   5.529   4.845  0.7125 -0.0333  0.1549
 3922SOL     OW15459   5.054   0.993   5.795  0.2111  0.0919  0.0023
 3922SOL    HW215460   5.019   0.994   5.706  1.3959  0.9858 -0.4843
 3922SOL    HW315461   5.025   0.909   5.831  0.6973 -0.8353 -1.6533
 3922SOL    MW415462   5.046   0.982   5.788 -0.2409  0.2171  0.2656
 3923SOL     OW15463   2.766   1.351   3.775  0.3953 -0.1074 -0.2619
 3923SOL    HW215464   2.831   1.406   3.731  0.2680  0.5095  0.3191
 3923SOL    HW315465   2.805   1.263   3.774  2.2232  0.5840  1.8967
 3923SOL    MW415466   2.780   1.346   3.769  0.5881 -0.0487  0.0519
 3924SOL     OW15467   2.111   3.188   3.758  0.2830 -0.0672  0.3772
 3924SOL    HW215468   2.036   3.160   3.810  0.1966  1.7900  1.3239
 3924SOL    HW315469   2.176   3.215   3.823  1.0747  0.0657 -0.4519
 3924SOL    MW415470   2.110   3.188   3.773 -0.4739  0.6485 -0.2123
 3925SOL     OW15471   2.874   1.368   4.142 -0.1739  0.2824  0.3004
 3925SOL    HW215472   2.870   1.273   4.141 -0.4977  0.2980 -0.1365
 3925SOL    HW315473   2.783   1.396   4.129 -0.1342  0.6518  0.7643
 3925SOL    MW415474   2.861   1.359   4.140 -0.3102  0.0381 -0.4644
 3926SOL     OW15475   2.908   2.039   2.645  0.1032 -0.1213 -0.3663
 3926SOL    HW215476   2.855   2.050   2.566  0.5610  1.4137 -0.4838
 3926SOL    HW315477   2.920   2.128   2.679 -0.3315 -0.7648  1.6122
 3926SOL    MW415478   2.902   2.052   2.639  0.5883 -0.0648 -0.1788
 3927SOL     OW15479   2.540   3.210   1.194 -0.0801  0.0952 -0.5488
 3927SOL    HW215480   2.583   3.202   1.280 -0.2806  1.1236 -0.3392
 3927SOL    HW315481   2.455   3.168   1.206 -0.4456  0.9621  0.0166
 3927SOL    MW415482   2.535   3.204   1.207  0.5327  0.3490 -0.2528
 3928SOL     OW15483   2.563   3.461   2.488  0.2349  0.0757 -0.1336
 3928SOL    HW215484   2.657   3.479   2.483  0.4332 -0.4430  1.2973
 3928SOL    HW315485   2.558   3.367   2.509 -0.7227 -1.1614 -4.7798
 3928SOL    MW415486   2.575   3.451   2.490  0.5626  0.0119 -0.2846
 3929SOL     OW15487   2.262   5.071   1.207 -0.4827  0.1573 -0.0435
 3929SOL    HW215488   2.287   4.984   1.239 -1.5100 -0.7125 -1.5101
 3929SOL    HW315489   2.168   5.076   1.223 -0.6915  0.4062 -1.2352
 3929SOL    MW415490   2.253   5.060   1.213 -0.1312  0.0005 -0.3363
 3930SOL     OW15491   4.820   4.772   1.453 -0.6698 -0.0119 -0.3916
 3930SOL    HW215492   4.810   4.867   1.443  1.6346  0.3384  0.1612
 3930SOL    HW315493   4.836   4.760   1.547  1.9479 -0.5822 -0.8497
 3930SOL    MW415494   4.820   4.783   1.464 -0.0708  0.3015 -0.2793
 3931SOL     OW15495   2.364   0.723   6.246 -0.1297  0.1843 -0.4601
 3931SOL    HW215496   2.397   0.743   6.333 -2.3650  0.2863  0.4373
 3931SOL    HW315497   2.368   0.628   6.239 -0.1647  0.1601 -0.1455
 3931SOL    MW415498   2.369   0.713   6.257  0.4194 -0.1284  0.2778
 3932SOL     OW15499   1.153   4.677   4.243 -0.4220 -0.0514 -0.4678
 3932SOL    HW215500   1.119   4.596   4.207 -0.1553  0.1965 -1.3200
 3932SOL    HW315501   1.113   4.685   4.329  2.0797 -2.7587  1.0903
 3932SOL    MW415502   1.143   4.668   4.249 -0.3882  0.0055 -0.0920
 3933SOL     OW15503   3.233   4.841   4.916 -0.0912 -0.6772  0.3136
 3933SOL    HW215504   3.221   4.834   4.821 -0.2346 -1.9367  0.4161
 3933SOL    HW315505   3.146   4.824   4.953 -1.4412  4.7613  0.5836
 3933SOL    MW415506   3.220   4.838   4.908  0.1172  0.1569 -1.0210
 3934SOL     OW15507   4.629   3.168   2.188 -0.8166  0.0547 -0.1379
 3934SOL    HW215508   4.586   3.091   2.227  2.6531 -2.2164 -0.3183
 3934SOL    HW315509   4.570   3.194   2.118 -2.8221 -1.5312  0.8099
 3934SOL    MW415510   4.615   3.161   2.184 -0.4973  0.2552 -0.3672
 3935SOL     OW15511   1.997   0.012   4.485 -0.0629 -0.3521 -0.6395
 3935SOL    HW215512   1.982   0.086   4.545  0.5347 -1.1078  0.4650
 3935SOL    HW315513   1.946  -0.059   4.522 -4.0376  0.4565 -3.8861
 3935SOL    MW415514   1.988   0.013   4.498  0.1339 -0.5728  0.4611
 3936SOL     OW15515   0.304   0.440   1.635  0.1938  0.1766  0.1080
 3936SOL    HW215516   0.284   0.531   1.612  2.3928  0.7500  0.2479
 3936SOL    HW315517   0.400   0.434   1.630  0.1339 -2.0373  0.4875
 3936SOL    MW415518   0.314   0.451   1.631  0.7557 -0.2324  0.3060
 3937SOL     OW15519   3.492   0.520   2.739  1.0420 -0.4619  0.0111
 3937SOL    HW215520   3.480   0.606   2.779  2.1677 -0.9272  1.4518
 3937SOL    HW315521   3.464   0.531   2.649  0.4698  1.2195  0.3630
 3937SOL    MW415522   3.487   0.532   2.733  0.5825  0.0719 -0.7273
 3938SOL     OW15523   3.986   3.563   5.584  0.3692  0.0074  0.8098
 3938SOL    HW215524   4.036   3.588   5.662  2.1289 -0.1539 -0.2061
 3938SOL    HW315525   4.003   3.470   5.574 -0.8952 -0.2602  0.9152
 3938SOL    MW415526   3.995   3.554   5.593  0.6122  0.4438  0.1062
 3939SOL     OW15527   5.135   4.840   2.756  0.2447 -0.2726  0.1443
 3939SOL    HW215528   5.177   4.875   2.677 -0.9530 -0.6818 -0.6947
 3939SOL    HW315529   5.078   4.912   2.786 -0.2967 -0.5789 -0.1328
 3939SOL    MW415530   5.133   4.854   2.750 -0.1269  0.2320 -0.7630
 3940SOL     OW15531   2.639   0.536   0.930 -0.0905  0.0657  0.0452
 3940SOL    HW215532   2.689   0.458   0.905  1.6775  0.9889  0.4680
 3940SOL    HW315533   2.706   0.596   0.965 -1.2361  2.1313 -1.1309
 3940SOL    MW415534   2.655   0.534   0.931 -0.2863  0.2161  0.2568
 3941SOL     OW15535   2.153   1.621   6.286 -0.0488 -0.0305 -0.4255
 3941SOL    HW215536   2.092   1.674   6.336 -1.0053  0.0516 -1.6306
 3941SOL    HW315537   2.117   1.533   6.289  1.2080 -0.5273  1.0535
 3941SOL    MW415538   2.141   1.617   6.293 -0.2235  0.6750 -0.1770
 3942SOL     OW15539   0.772   3.086   1.196 -0.0497  0.1902  0.1257
 3942SOL    HW215540   0.763   3.120   1.285 -0.5238  1.9861 -0.5671
 3942SOL    HW315541   0.853   3.125   1.164  0.6352 -1.2102  0.0505
 3942SOL    MW415542   0.782   3.096   1.204  0.3192 -0.4444  0.1043
 3943SOL     OW15543   3.851   4.693   4.208  0.0299 -0.6069  0.2282
 3943SOL    HW215544   3.890   4.617   4.164 -0.1166 -0.5337 -0.0275
 3943SOL    HW315545   3.781   4.656   4.262  0.6088 -0.7677  0.8792
 3943SOL    MW415546   3.847   4.678   4.210 -0.0588 -0.1229  0.0292
 3944SOL     OW15547   3.649   1.185   3.951  0.0578 -0.5234 -0.7322
 3944SOL    HW215548   3.589   1.258   3.937 -0.2062 -0.6133 -0.0860
 3944SOL    HW315549   3.734   1.219   3.923 -0.0320  0.0840 -0.2770
 3944SOL    MW415550   3.652   1.199   3.945 -0.6380 -0.2896 -0.2985
 3945SOL     OW15551   4.728   3.743   3.323  0.3119  0.0393  0.3668
 3945SOL    HW215552   4.645   3.788   3.312 -0.6117 -1.4608  0.9636
 3945SOL    HW315553   4.721   3.665   3.268  1.1942 -0.2812  0.6827
 3945SOL    MW415554   4.716   3.739   3.314 -0.3959 -0.4598 -0.4580
 3946SOL     OW15555   1.744   3.886   0.380  0.0115 -0.2701  0.2666
 3946SOL    HW215556   1.654   3.884   0.411 -0.5002 -0.2519 -1.1418
 3946SOL    HW315557   1.750   3.968   0.330  0.4533 -0.8363 -0.6332
 3946SOL    MW415558   1.733   3.897   0.378  0.5467 -0.0421 -0.4755
 3947SOL     OW15559   5.326   1.153   1.046 -0.2993 -0.2529  0.3804
 3947SOL    HW215560   5.246   1.168   0.996 -0.2253  2.0022  0.8567
 3947SOL    HW315561   5.397   1.177   0.987 -0.0600 -0.5359  0.5503
 3947SOL    MW415562   5.325   1.158   1.032  0.1090 -0.4881 -0.1710
 3948SOL     OW15563   5.778   1.576   4.718 -0.0993 -0.4731  0.0513
 3948SOL    HW215564   5.857   1.528   4.745 -0.7491 -1.0807  0.9388
 3948SOL    HW315565   5.754   1.627   4.795 -0.7294 -0.5060 -0.1196
 3948SOL    MW415566   5.785   1.576   4.732 -0.4356 -0.1422  0.9517
 3949SOL     OW15567   2.269   4.386   3.425 -0.4389  0.1851 -0.6773
 3949SOL    HW215568   2.258   4.293   3.408 -1.4501 -0.3465  2.2106
 3949SOL    HW315569   2.205   4.405   3.494  0.4101  2.7873 -0.4898
 3949SOL    MW415570   2.259   4.376   3.432 -0.1847  0.1287 -0.0276
 3950SOL     OW15571   6.231   3.288   3.387  0.0350 -0.2386  0.3552
 3950SOL    HW215572   6.238   3.197   3.415 -2.4435 -0.8837 -0.8847
 3950SOL    HW315573   6.267   3.289   3.298 -0.2264 -0.0774  0.2494
 3950SOL    MW415574   6.237   3.276   3.379 -0.0436  0.6819 -0.2671
 3951SOL     OW15575   5.728   1.819   0.594 -0.3257 -0.2920  0.1728
 3951SOL    HW215576   5.775   1.861   0.523 -3.7504  3.3288 -0.3000
 3951SOL    HW315577   5.672   1.755   0.550  0.3100 -0.8261  0.1244
 3951SOL    MW415578   5.727   1.816   0.579  0.1296 -0.2093 -0.5397
 3952SOL     OW15579   1.217   4.443   5.515 -0.1510  0.0962  0.3098
 3952SOL    HW215580   1.199   4.447   5.609 -2.9323  0.1144 -0.1321
 3952SOL    HW315581   1.144   4.490   5.475  1.5735  1.1338 -1.8514
 3952SOL    MW415582   1.205   4.450   5.522  0.0286 -0.1423  0.2855
 3953SOL     OW15583   2.061   4.226   1.368 -0.3227  0.1988  0.0197
 3953SOL    HW215584   1.966   4.225   1.359 -0.5856 -2.1442  1.8262
 3953SOL    HW315585   2.077   4.264   1.454  0.0056 -2.8243  1.4218
 3953SOL    MW415586   2.051   4.231   1.378  0.0391  0.5826  0.2472
 3954SOL     OW15587   0.909   4.537   6.065 -0.0185 -0.3440 -0.0561
 3954SOL    HW215588   0.865   4.465   6.019 -1.1241  0.0606  0.3314
 3954SOL    HW315589   0.986   4.496   6.104  0.5132 -0.8677 -1.5566
 3954SOL    MW415590   0.913   4.522   6.064 -0.3903  0.2624  0.5184
 3955SOL     OW15591   3.743   1.432   1.203  0.0632  0.5886  0.6555
 3955SOL    HW215592   3.755   1.392   1.290 -0.3816 -1.0294  0.0074
 3955SOL    HW315593   3.827   1.418   1.159 -0.5264 -0.9758 -0.0631
 3955SOL    MW415594   3.756   1.425   1.209 -0.1349 -0.0918 -0.1172
 3956SOL     OW15595   0.056   5.412   0.674 -0.0378 -0.0292  0.0795
 3956SOL    HW215596  -0.010   5.343   0.670  2.6424 -2.9828  1.7729
 3956SOL    HW315597   0.049   5.447   0.763  1.6633 -1.6319  0.9210
 3956SOL    MW415598   0.046   5.407   0.685  0.1237  0.1365 -0.2950
 3957SOL     OW15599   4.790   2.569   1.567 -0.3726  0.2092 -0.0737
 3957SOL    HW215600   4.832   2.510   1.505 -0.9179  0.2679 -0.5044
 3957SOL    HW315601   4.798   2.525   1.651 -0.2557 -0.2061 -0.3008
 3957SOL    MW415602   4.797   2.555   1.570  0.1057 -0.1521  0.9241
 3958SOL     OW15603   6.245   4.450   5.944  0.0581 -0.5054 -1.1307
 3958SOL    HW215604   6.188   4.527   5.936 -0.3587  0.0249  3.9400
 3958SOL    HW315605   6.334   4.486   5.938 -0.0434  1.0708  3.2731
 3958SOL    MW415606   6.249   4.465   5.942 -0.1287 -0.2537  0.4172
 3959SOL     OW15607   2.765   0.071   5.186 -0.5913  0.4655  0.4265
 3959SOL    HW215608   2.773   0.050   5.093 -1.7376  0.3508  0.3419
 3959SOL    HW315609   2.824   0.009   5.230 -0.3695  0.2374 -0.1867
 3959SOL    MW415610   2.774   0.060   5.180  0.2607 -0.1222  0.0217
 3960SOL     OW15611   3.919   3.711   4.176  0.3596 -0.6407 -0.7468
 3960SOL    HW215612   3.966   3.672   4.103 -0.2690  0.5718 -1.8281
 3960SOL    HW315613   3.952   3.801   4.180 -0.4105 -0.3754 -0.2351
 3960SOL    MW415614   3.930   3.718   4.167  0.2134 -0.5058  0.0060
 3961SOL     OW15615   6.109   3.224   4.048  0.8884 -0.4107  0.1556
 3961SOL    HW215616   6.139   3.135   4.029  1.2985 -0.7308  2.0343
 3961SOL    HW315617   6.026   3.213   4.093  1.4829  0.0549  1.4294
 3961SOL    MW415618   6.102   3.211   4.052 -0.5666  0.6004  0.1664
 3962SOL     OW15619   3.476   3.570   5.679  0.0999  0.7873 -0.0933
 3962SOL    HW215620   3.407   3.633   5.697 -0.7788 -0.6040  1.7017
 3962SOL    HW315621   3.495   3.529   5.763  0.1156 -1.8138 -1.2382
 3962SOL    MW415622   3.470   3.573   5.692  0.0025  0.3221  0.5749
 3963SOL     OW15623   5.102   5.793   1.052 -0.5754 -0.2879  0.2365
 3963SOL    HW215624   5.114   5.708   1.092 -0.5599  0.1467  1.1744
 3963SOL    HW315625   5.161   5.793   0.976  0.8814 -0.3948  1.3377
 3963SOL    MW415626   5.112   5.782   1.047  0.2059 -0.7804  0.0971
 3964SOL     OW15627   2.936   4.718   4.265 -0.3789 -0.9451 -0.0026
 3964SOL    HW215628   2.942   4.711   4.170  0.4137 -0.3427 -0.0065
 3964SOL    HW315629   2.851   4.678   4.287 -0.8729 -0.4899 -1.0164
 3964SOL    MW415630   2.925   4.711   4.256  0.8033  0.4638 -1.2986
 3965SOL     OW15631   4.167   5.591   5.406 -0.4554  0.8453 -0.1952
 3965SOL    HW215632   4.132   5.651   5.340 -1.9119 -1.3683 -1.5638
 3965SOL    HW315633   4.236   5.543   5.360  1.8006  2.3612  1.3320
 3965SOL    MW415634   4.172   5.593   5.391  0.0950 -0.6000 -0.0968
 3966SOL     OW15635   1.895   4.979   3.375 -0.4782 -1.2331 -1.0739
 3966SOL    HW215636   1.908   5.013   3.464  0.4569 -2.1059 -0.8487
 3966SOL    HW315637   1.813   4.931   3.379  0.3325 -2.6283 -0.2126
 3966SOL    MW415638   1.886   4.977   3.387  0.2120  0.2618  0.1728
 3967SOL     OW15639   4.077   0.910   1.871 -0.0458  0.5712  0.3636
 3967SOL    HW215640   4.137   0.851   1.918 -1.1925 -0.3670  0.6831
 3967SOL    HW315641   4.005   0.924   1.932 -1.3181 -0.2430 -0.8996
 3967SOL    MW415642   4.076   0.904   1.885  0.0617  0.4654  0.1146
 3968SOL     OW15643   0.804   5.267   4.959 -0.0263  0.1323  0.4286
 3968SOL    HW215644   0.890   5.232   4.936 -0.3370 -0.9337  0.8102
 3968SOL    HW315645   0.743   5.195   4.942 -0.6057  0.2279  1.9157
 3968SOL    MW415646   0.807   5.253   4.954  0.8028  0.3000  0.6552
 3969SOL     OW15647   1.774   3.467   5.906  0.6869 -0.6858 -0.2832
 3969SOL    HW215648   1.767   3.404   5.835 -1.7511 -1.2750  0.3770
 3969SOL    HW315649   1.819   3.419   5.976  3.2301 -0.0548 -1.3850
 3969SOL    MW415650   1.779   3.452   5.906 -0.0908  0.6836 -0.1042
 3970SOL     OW15651   4.328   5.444   4.217 -0.1541 -0.7852 -0.1021
 3970SOL    HW215652   4.364   5.355   4.226  0.8119 -0.3829  0.2170
 3970SOL    HW315653   4.350   5.469   4.128 -0.3488 -0.8349 -0.1633
 3970SOL    MW415654   4.336   5.435   4.207 -0.5911 -0.5386  0.1216
 3971SOL     OW15655   2.868   6.399   0.332  0.3017 -0.1170 -0.2048
 3971SOL    HW215656   2.907   6.344   0.264  0.1597 -1.4376  0.7565
 3971SOL    HW315657   2.784   6.358   0.351  0.7498 -0.3481  1.4494
 3971SOL    MW415658   2.862   6.386   0.325  0.1647 -0.3222 -0.2056
 3972SOL     OW15659   4.196   1.569   5.616 -0.4122 -0.3242  0.1151
 3972SOL    HW215660   4.167   1.653   5.653 -0.6719 -0.3443 -0.0425
 3972SOL    HW315661   4.115   1.522   5.596 -0.3114  0.2668 -1.8518
 3972SOL    MW415662   4.182   1.574   5.619 -0.5706  0.5338  0.1357
 3973SOL     OW15663   3.219   4.484   2.488 -0.5121  0.2475 -0.2530
 3973SOL    HW215664   3.224   4.566   2.538 -0.1162  0.2367 -0.2690
 3973SOL    HW315665   3.291   4.491   2.425 -0.5796 -0.0413 -0.3623
 3973SOL    MW415666   3.229   4.496   2.486 -0.0189 -0.1182  0.8638
 3974SOL     OW15667   0.215   5.953   1.259  0.7805 -0.5268  0.4925
 3974SOL    HW215668   0.239   5.877   1.206 -0.2961  0.8131 -2.1048
 3974SOL    HW315669   0.298   5.999   1.274  0.9764 -0.0608 -1.6047
 3974SOL    MW415670   0.229   5.949   1.254 -0.1115  0.1060  0.0644
 3975SOL     OW15671   3.420   1.827   4.083 -0.3224 -0.3275 -0.2602
 3975SOL    HW215672   3.470   1.895   4.037 -0.1239  0.9945  1.7654
 3975SOL    HW315673   3.464   1.745   4.059  2.9807  0.7523  1.4679
 3975SOL    MW415674   3.433   1.825   4.074 -0.6085  0.0692  0.2386
 3976SOL     OW15675   6.187   5.833   6.175  0.1618 -0.0430  0.4318
 3976SOL    HW215676   6.106   5.875   6.202  0.1389  0.3985 -0.2863
 3976SOL    HW315677   6.247   5.845   6.248  0.7680  2.8894 -0.3989
 3976SOL    MW415678   6.184   5.840   6.188 -0.8421  0.2793  0.5769
 3977SOL     OW15679   2.251   6.237   2.144 -0.7034  0.4491  0.2290
 3977SOL    HW215680   2.237   6.330   2.160  0.7750  0.7497 -0.0885
 3977SOL    HW315681   2.342   6.222   2.168 -0.1247 -0.3461 -2.2032
 3977SOL    MW415682   2.261   6.247   2.149 -0.0721  0.0368 -0.6354
 3978SOL     OW15683   3.530   1.921   4.848  0.4085 -0.4022  0.0117
 3978SOL    HW215684   3.467   1.967   4.903  0.7786  0.8738 -0.6057
 3978SOL    HW315685   3.603   1.982   4.837  0.3302 -0.5914 -1.9285
 3978SOL    MW415686   3.531   1.935   4.854  0.2000 -0.0595 -0.5918
 3979SOL     OW15687   3.698   3.776   5.170  0.3698  0.0536  0.2710
 3979SOL    HW215688   3.748   3.697   5.191  3.3083  1.6411 -0.1044
 3979SOL    HW315689   3.741   3.845   5.221 -1.6550  1.5357  0.0790
 3979SOL    MW415690   3.710   3.775   5.179  0.1710 -0.0551  0.8527
 3980SOL     OW15691   0.996   2.218   2.147  0.5070 -0.1323  0.0787
 3980SOL    HW215692   1.070   2.204   2.088  0.0565  1.1019 -0.8093
 3980SOL    HW315693   0.930   2.262   2.093 -0.5965 -0.5378  1.0514
 3980SOL    MW415694   0.997   2.222   2.132  0.0242 -0.6441  0.9662
 3981SOL     OW15695   3.073   5.461   6.186  0.6588 -0.2721  0.1822
 3981SOL    HW215696   3.125   5.458   6.106  1.3206 -0.8642  0.6222
 3981SOL    HW315697   3.131   5.500   6.251  0.5985 -1.0304  0.7038
 3981SOL    MW415698   3.088   5.466   6.184  0.2987  0.2355  0.2449
 3982SOL     OW15699   5.709   1.139   2.936  0.1095  0.2138  0.1672
 3982SOL    HW215700   5.763   1.216   2.918  0.2508 -0.2183 -1.4409
 3982SOL    HW315701   5.656   1.129   2.857  1.0467 -2.1083 -0.2345
 3982SOL    MW415702   5.709   1.148   2.923  0.0962  0.4691  0.8531
 3983SOL     OW15703   3.344   2.024   3.104 -0.1597 -0.2466 -0.2248
 3983SOL    HW215704   3.387   1.940   3.091 -0.5031 -0.4576 -0.0139
 3983SOL    HW315705   3.319   2.025   3.197  1.8935  1.0604  0.3808
 3983SOL    MW415706   3.346   2.013   3.115  0.1840 -0.9962  0.0481
 3984SOL     OW15707   5.106   1.156   0.861 -0.5407 -0.0703  0.2103
 3984SOL    HW215708   5.028   1.111   0.892 -0.7641 -0.8664 -1.3957
 3984SOL    HW315709   5.073   1.226   0.805 -0.1298  0.5827  0.7695
 3984SOL    MW415710   5.092   1.159   0.858  0.1736 -0.0193 -0.0537
 3985SOL     OW15711   0.465   3.176   2.225  0.1538  0.5349 -0.1515
 3985SOL    HW215712   0.370   3.190   2.221  0.2998  1.9576  0.6099
 3985SOL    HW315713   0.478   3.090   2.185 -1.2634  1.0931 -1.9898
 3985SOL    MW415714   0.454   3.167   2.219  0.1477  0.1365  0.0687
 3986SOL     OW15715   3.842   0.363   0.248  0.2739 -0.0771  0.4258
 3986SOL    HW215716   3.913   0.300   0.258  0.4227  0.0020 -0.1054
 3986SOL    HW315717   3.861   0.431   0.312  2.2994  1.4402 -1.6213
 3986SOL    MW415718   3.854   0.363   0.258  0.4560 -0.4802  0.2424
 3987SOL     OW15719   0.425   2.095   2.211  0.4574 -0.0749  0.6413
 3987SOL    HW215720   0.371   2.173   2.226  0.4773  0.0260  0.1838
 3987SOL    HW315721   0.362   2.024   2.199  0.4363 -0.0472  0.5934
 3987SOL    MW415722   0.410   2.096   2.212 -0.3634  0.0954 -0.5086
 3988SOL     OW15723   1.636   1.586   4.732  0.9195 -0.2225 -0.0739
 3988SOL    HW215724   1.701   1.633   4.784  0.3434 -0.9943  1.4242
 3988SOL    HW315725   1.574   1.552   4.797 -1.7896  1.6266 -1.5186
 3988SOL    MW415726   1.636   1.588   4.748  0.2569  0.5635  0.1139
 3989SOL     OW15727   0.825   2.223   5.453 -0.0150  0.0716  0.0456
 3989SOL    HW215728   0.854   2.172   5.528 -0.7913 -0.1694  0.1846
 3989SOL    HW315729   0.806   2.158   5.385 -1.6352  0.0945  0.4325
 3989SOL    MW415730   0.827   2.208   5.454  0.4496  0.1562 -0.1848
 3990SOL     OW15731   4.981   2.541   0.581  0.0607 -0.5235  0.9266
 3990SOL    HW215732   5.016   2.534   0.492  0.0219 -0.4068  0.9022
 3990SOL    HW315733   5.042   2.600   0.626 -1.1462  1.2370  0.3498
 3990SOL    MW415734   4.994   2.548   0.575 -0.4638 -0.1675 -0.2615
 3991SOL     OW15735   5.245   1.613   1.292 -0.1773  0.3119  0.3167
 3991SOL    HW215736   5.176   1.605   1.359  0.1760  1.2169  0.7950
 3991SOL    HW315737   5.199   1.600   1.209 -1.1184  1.9061  0.5639
 3991SOL    MW415738   5.230   1.610   1.290  0.3381 -0.2245  0.3907
 3992SOL     OW15739   0.612   5.746   1.876  0.6241  0.1957 -0.5654
 3992SOL    HW215740   0.600   5.826   1.928 -0.7579 -0.6611  0.5061
 3992SOL    HW315741   0.577   5.769   1.790  0.3698  0.7948 -0.3123
 3992SOL    MW415742   0.606   5.760   1.871  0.1423 -0.2257  0.0822
 3993SOL     OW15743   3.203   1.633   1.458  0.1379 -0.2603  0.2963
 3993SOL    HW215744   3.271   1.567   1.444  1.6740  1.1478  0.7645
 3993SOL    HW315745   3.133   1.609   1.397  1.3971 -1.2838 -0.7974
 3993SOL    MW415746   3.203   1.621   1.448  0.9342  0.1937  0.1381
 3994SOL     OW15747   1.955   6.302   4.035 -0.6897 -0.0867  0.2066
 3994SOL    HW215748   1.878   6.249   4.058  0.4677 -1.6969  0.4838
 3994SOL    HW315749   1.987   6.264   3.953  0.5931 -0.3125  0.7993
 3994SOL    MW415750   1.949   6.290   4.027  0.4455 -0.6763 -0.7724
 3995SOL     OW15751   4.850   0.113   0.123 -0.0721  0.1653  0.6108
 3995SOL    HW215752   4.776   0.086   0.069  0.0850 -0.1281  0.5404
 3995SOL    HW315753   4.908   0.160   0.063 -0.5354  1.0289  0.8183
 3995SOL    MW415754   4.848   0.116   0.108 -0.0662 -0.1429 -0.0062
 3996SOL     OW15755   0.697   0.182   4.797  0.2487 -0.5418 -0.1563
 3996SOL    HW215756   0.670   0.231   4.720  1.4072  1.1038  0.4327
 3996SOL    HW315757   0.703   0.247   4.867 -0.4262 -1.9342  1.2534
 3996SOL    MW415758   0.694   0.197   4.796 -0.3322 -0.3693 -0.7082
 3997SOL     OW15759   2.393   3.409   5.887  0.1686  0.5673  0.2529
 3997SOL    HW215760   2.366   3.321   5.864 -0.4875 -0.1031  3.1846
 3997SOL    HW315761   2.312   3.453   5.915  0.8452  1.1998  1.3264
 3997SOL    MW415762   2.378   3.403   5.888  0.0505 -0.3049  0.1559
 3998SOL     OW15763   3.025   0.535   0.311  0.4041 -0.4757 -0.1927
 3998SOL    HW215764   3.008   0.520   0.404  0.5862 -0.3020 -0.1327
 3998SOL    HW315765   2.939   0.553   0.273  0.2694 -0.9813 -0.1377
 3998SOL    MW415766   3.012   0.535   0.318 -0.1817  0.3638  0.0709
 3999SOL     OW15767   0.435   1.281   0.684  0.6670  0.5591  0.1754
 3999SOL    HW215768   0.454   1.256   0.774 -2.5543 -0.5806  0.6808
 3999SOL    HW315769   0.480   1.216   0.631  0.0823 -0.6802  1.1358
 3999SOL    MW415770   0.443   1.269   0.689  0.3822 -0.7655 -0.0913
 4000SOL     OW15771   0.568   1.166   0.463 -0.4166 -0.0765  0.4976
 4000SOL    HW215772   0.643   1.220   0.439 -0.2437  0.0536  1.2989
 4000SOL    HW315773   0.605   1.080   0.485 -0.5622 -0.1752  0.3651
 4000SOL    MW415774   0.582   1.161   0.463 -0.1168 -0.1111 -0.5575
 4001SOL     OW15775   4.903   3.717   2.809  0.4121  0.6175 -0.3494
 4001SOL    HW215776   4.891   3.794   2.754  0.8549  0.6228 -0.4451
 4001SOL    HW315777   4.911   3.751   2.898  0.6557  0.6882 -0.3977
 4001SOL    MW415778   4.902   3.731   2.813  0.1571  0.0014 -0.1664
 4002SOL     OW15779   3.201   3.487   1.364  0.1318 -0.2356 -0.5573
 4002SOL    HW215780   3.291   3.518   1.354  0.0215  0.0818 -0.5779
 4002SOL    HW315781   3.149   3.567   1.371 -0.1880 -0.4099 -0.8975
 4002SOL    MW415782   3.206   3.502   1.363  0.1528 -0.1825 -1.1584
 4003SOL     OW15783   3.218   3.306   3.243  0.0525 -0.3414 -0.0941
 4003SOL    HW215784   3.254   3.365   3.309  1.9910 -0.7271 -0.7347
 4003SOL    HW315785   3.164   3.361   3.188 -0.2064  0.3235  0.8003
 4003SOL    MW415786   3.216   3.321   3.245 -0.4604  0.0794  0.1791
 4004SOL     OW15787   5.604   1.039   0.428 -0.2597  0.3583 -0.6524
 4004SOL    HW215788   5.602   1.066   0.337  1.4918  0.8425 -0.5850
 4004SOL    HW315789   5.636   1.116   0.476  2.7208 -1.0152 -0.1871
 4004SOL    MW415790   5.608   1.053   0.422  0.3246 -0.4243  0.2342
 4005SOL     OW15791   0.200   2.253   4.352  0.0431  0.0699 -0.1269
 4005SOL    HW215792   0.295   2.249   4.353  0.1002  1.0892  0.0439
 4005SOL    HW315793   0.172   2.187   4.415  0.6382 -0.1637 -0.1040
 4005SOL    MW415794   0.209   2.244   4.361 -0.4678 -0.0884 -0.0910
 4006SOL     OW15795   4.437   4.788   5.882 -0.3205  0.2065 -0.2590
 4006SOL    HW215796   4.355   4.836   5.893 -0.1163  0.9322 -1.7281
 4006SOL    HW315797   4.416   4.699   5.911 -1.2739  0.6704  0.5531
 4006SOL    MW415798   4.423   4.782   5.887 -0.6952  0.0427 -0.3928
 4007SOL     OW15799   1.227   4.900   1.526 -0.5578 -0.7320 -0.3372
 4007SOL    HW215800   1.282   4.979   1.523  1.5770 -2.1373 -2.8648
 4007SOL    HW315801   1.152   4.921   1.471 -0.4944 -0.1535 -0.2135
 4007SOL    MW415802   1.225   4.913   1.518  0.8597  0.0127 -0.1080
 4008SOL     OW15803   3.672   3.840   1.740 -0.4781 -0.2521  0.6662
 4008SOL    HW215804   3.608   3.795   1.685 -1.7640  0.6257  1.3963
 4008SOL    HW315805   3.726   3.769   1.776 -1.8734 -1.1582  1.0683
 4008SOL    MW415806   3.671   3.825   1.738 -0.4576  0.1598 -0.0097
 4009SOL     OW15807   4.178   2.475   3.880  0.5498  0.1999 -0.2672
 4009SOL    HW215808   4.162   2.381   3.889  0.9748 -0.2003 -2.7709
 4009SOL    HW315809   4.096   2.509   3.842  0.6987  0.6660 -0.1709
 4009SOL    MW415810   4.165   2.467   3.876  0.0473 -0.0633  0.2937
 4010SOL     OW15811   5.945   4.872   5.663 -0.4548 -0.5116  0.0602
 4010SOL    HW215812   5.999   4.937   5.709 -1.4501 -0.5115  1.2607
 4010SOL    HW315813   5.959   4.791   5.711  0.3665 -1.1063 -1.1161
 4010SOL    MW415814   5.954   4.870   5.675  0.2071  0.0484  0.5365
 4011SOL     OW15815   2.771   5.337   3.734  0.1147 -0.0751  0.3079
 4011SOL    HW215816   2.712   5.278   3.781 -0.7881  0.8442  0.3678
 4011SOL    HW315817   2.734   5.341   3.646  0.7569 -0.3764  0.0186
 4011SOL    MW415818   2.758   5.330   3.728  0.4246  0.5301  0.1562
 4012SOL     OW15819   2.652   5.323   5.504  0.0947 -0.6813 -0.3234
 4012SOL    HW215820   2.598   5.342   5.581 -2.1615 -0.5022 -1.8445
 4012SOL    HW315821   2.654   5.405   5.455  1.7579 -0.7026 -0.3436
 4012SOL    MW415822   2.645   5.336   5.508 -0.1677  0.0672 -0.6442
 4013SOL     OW15823   2.952   0.387   1.951 -0.1436 -0.5589 -0.0998
 4013SOL    HW215824   3.005   0.315   1.916 -0.1089 -0.2548 -0.6906
 4013SOL    HW315825   2.888   0.344   2.008  1.9534 -0.7778  2.2401
 4013SOL    MW415826   2.950   0.372   1.954  0.6246 -0.9130 -0.5216
 4014SOL     OW15827   0.210   2.681   0.712  0.7643  0.3072 -0.2614
 4014SOL    HW215828   0.158   2.630   0.774  1.3695  0.3256  0.2663
 4014SOL    HW315829   0.243   2.755   0.763  1.5002  0.1724 -0.5292
 4014SOL    MW415830   0.208   2.684   0.727  0.1386  0.5708 -0.0431
 4015SOL     OW15831   3.480   3.214   3.156  0.2573  0.5442  0.2596
 4015SOL    HW215832   3.392   3.251   3.158 -0.3509 -0.6822 -1.5105
 4015SOL    HW315833   3.532   3.280   3.109  0.4536  1.5218  1.7878
 4015SOL    MW415834   3.475   3.227   3.150  0.4391  0.7968 -0.8397
 4016SOL     OW15835   3.010   5.025   4.541  0.5409 -0.2646 -0.5098
 4016SOL    HW215836   2.926   4.984   4.562 -0.8217  2.1398 -0.8798
 4016SOL    HW315837   3.012   5.027   4.446  0.4433  0.7099 -0.5007
 4016SOL    MW415838   2.999   5.020   4.531 -0.4575  0.0645  0.3222
 4017SOL     OW15839   0.852   5.764   1.295  0.0485  0.4733 -0.3127
 4017SOL    HW215840   0.874   5.697   1.231 -0.8514  0.0082 -0.1444
 4017SOL    HW315841   0.935   5.810   1.310  1.3406 -2.1506  1.3847
 4017SOL    MW415842   0.866   5.761   1.289 -0.5687  0.0262 -0.2321
 4018SOL     OW15843   2.038   1.889   3.207  0.4558  0.2525  0.0739
 4018SOL    HW215844   2.128   1.910   3.232  0.1336 -1.1641  2.7819
 4018SOL    HW315845   1.983   1.932   3.273 -0.9370  1.3899 -1.7317
 4018SOL    MW415846   2.042   1.897   3.219  0.0827 -0.1153  0.4758
 4019SOL     OW15847   4.591   4.154   5.050 -0.2014  0.0244 -0.6413
 4019SOL    HW215848   4.667   4.108   5.087 -0.8248 -0.2586  0.3212
 4019SOL    HW315849   4.537   4.176   5.126 -1.2251 -0.0228 -1.3335
 4019SOL    MW415850   4.594   4.151   5.065  0.0152 -0.5269  0.5110
 4020SOL     OW15851   2.942   4.080   6.281 -0.0800 -0.3164 -0.6003
 4020SOL    HW215852   2.889   4.142   6.232  1.7311 -0.0582 -2.3619
 4020SOL    HW315853   3.032   4.100   6.256  0.6615 -2.7658 -0.1650
 4020SOL    MW415854   2.947   4.091   6.271  0.5245  0.3336 -0.2910
 4021SOL     OW15855   5.196   2.525   6.253  0.5244 -0.4479 -0.0308
 4021SOL    HW215856   5.186   2.604   6.307  2.1459 -0.4198  0.2772
 4021SOL    HW315857   5.142   2.541   6.176  0.2291  0.6304  0.3838
 4021SOL    MW415858   5.188   2.537   6.250  0.0459  0.2532  0.2001
 4022SOL     OW15859   4.115   0.350   3.413  0.0153 -0.4163 -0.5475
 4022SOL    HW215860   4.211   0.361   3.414 -0.1296  0.9587  0.1760
 4022SOL    HW315861   4.094   0.342   3.320  0.9537 -2.2342 -0.6606
 4022SOL    MW415862   4.125   0.350   3.401 -0.5752  0.9906 -0.7404
 4023SOL     OW15863   1.446   3.529   0.120  0.2027  0.0186 -0.6213
 4023SOL    HW215864   1.518   3.488   0.074 -0.8030 -3.2849  0.4594
 4023SOL    HW315865   1.417   3.600   0.062  4.1212  1.4589 -1.1135
 4023SOL    MW415866   1.452   3.533   0.106 -0.4376  0.1961 -0.6298
 4024SOL     OW15867   3.163   0.110   1.145  0.0385 -0.5695 -0.0011
 4024SOL    HW215868   3.094   0.050   1.115 -0.6524 -0.4968  1.3418
 4024SOL    HW315869   3.155   0.108   1.240  0.3465  1.2683  0.0857
 4024SOL    MW415870   3.153   0.102   1.153 -0.1759  0.5694 -0.0153
 4025SOL     OW15871   0.249   1.279   5.556  0.1827 -0.1468 -0.0985
 4025SOL    HW215872   0.276   1.334   5.629 -2.5437  0.5196  0.5362
 4025SOL    HW315873   0.225   1.196   5.596 -1.2259  0.1882 -0.1629
 4025SOL    MW415874   0.249   1.275   5.571  0.1945  0.0743  0.3146
 4026SOL     OW15875   2.555   3.270   3.545 -0.5597  0.3386  0.5133
 4026SOL    HW215876   2.598   3.307   3.468  2.2393 -1.5290  1.0252
 4026SOL    HW315877   2.507   3.344   3.583 -0.4721  1.7648 -1.9226
 4026SOL    MW415878   2.554   3.285   3.540 -0.4056  0.1668 -0.8699
 4027SOL     OW15879   2.608   1.885   4.105  0.2909  0.1099 -0.3964
 4027SOL    HW215880   2.696   1.857   4.131  0.0264 -0.8693 -0.5240
 4027SOL    HW315881   2.562   1.804   4.085 -1.7493  0.1970  3.0329
 4027SOL    MW415882   2.613   1.871   4.106 -0.1629  0.4355  0.6814
 4028SOL     OW15883   4.478   4.718   1.412 -0.0288 -0.4819  0.0092
 4028SOL    HW215884   4.516   4.806   1.410  0.7538 -0.7896 -2.8497
 4028SOL    HW315885   4.423   4.718   1.490  0.8947  2.1321  0.7741
 4028SOL    MW415886   4.475   4.730   1.422  0.1845  0.5396  0.0786
 4029SOL     OW15887   4.751   5.648   5.633  0.4429  0.0644  0.5430
 4029SOL    HW215888   4.803   5.567   5.641  1.6041  0.0163 -4.2200
 4029SOL    HW315889   4.803   5.714   5.677  0.6040 -1.3175  2.5571
 4029SOL    MW415890   4.765   5.646   5.640  0.1979 -0.3969 -0.5804
 4030SOL     OW15891   1.265   4.791   5.109 -0.0965  0.3964 -0.1793
 4030SOL    HW215892   1.281   4.722   5.043  2.1643 -0.0221  0.7014
 4030SOL    HW315893   1.348   4.838   5.114 -1.0407  2.0515  0.5739
 4030SOL    MW415894   1.278   4.788   5.101 -0.2599  0.0041  0.0634
 4031SOL     OW15895   4.325   5.738   0.895 -0.0644 -1.0438  0.1046
 4031SOL    HW215896   4.313   5.726   0.800  0.1521 -0.2877 -0.0250
 4031SOL    HW315897   4.237   5.744   0.930 -0.1341  0.0527 -0.2398
 4031SOL    MW415898   4.312   5.737   0.887 -0.0807  0.3568 -0.6244
 4032SOL     OW15899   6.056   1.743   1.963  0.1929 -0.1373  0.4438
 4032SOL    HW215900   5.966   1.722   1.939  0.7734 -2.3773 -0.0239
 4032SOL    HW315901   6.089   1.793   1.888 -0.5634  0.4536  0.4923
 4032SOL    MW415902   6.049   1.747   1.950  0.1560 -0.6176  0.5953
 4033SOL     OW15903   3.209   2.953   5.346  0.1431  0.2664 -0.6745
 4033SOL    HW215904   3.245   3.013   5.280 -1.2122  0.3055 -1.4066
 4033SOL    HW315905   3.224   2.866   5.309  0.1464  0.2488 -0.6321
 4033SOL    MW415906   3.216   2.949   5.332  0.0393  0.2945  0.1329
 4034SOL     OW15907   5.053   3.843   0.078 -0.3603 -0.0144  0.1711
 4034SOL    HW215908   5.068   3.895   0.000 -1.5690 -0.0010 -0.0670
 4034SOL    HW315909   5.125   3.867   0.138  0.6477 -0.1197 -0.9566
 4034SOL    MW415910   5.065   3.853   0.076  0.1136 -0.3592  0.5897
 4035SOL     OW15911   1.567   3.935   3.283  0.0435 -0.4276  0.3443
 4035SOL    HW215912   1.538   3.857   3.236 -2.1159 -0.0545  0.9610
 4035SOL    HW315913   1.558   3.913   3.375  0.7150  0.1139  0.5540
 4035SOL    MW415914   1.562   3.922   3.289 -0.4623  0.3663 -0.2380
 4036SOL     OW15915   3.663   3.527   2.657 -0.4217 -0.1387  0.1688
 4036SOL    HW215916   3.700   3.447   2.694  0.5627 -0.1984 -0.8826
 4036SOL    HW315917   3.608   3.563   2.727 -2.3117 -2.6345  0.0826
 4036SOL    MW415918   3.661   3.521   2.671  0.4538 -0.1386  0.0078
 4037SOL     OW15919   2.826   6.175   3.555 -0.1270 -0.4077  0.4152
 4037SOL    HW215920   2.910   6.179   3.510 -1.1227 -1.2167 -1.6801
 4037SOL    HW315921   2.831   6.243   3.622  1.1996  1.5012 -1.4653
 4037SOL    MW415922   2.837   6.184   3.558 -0.2501  0.1297  0.4559
 4038SOL     OW15923   5.075   2.773   4.154 -0.0428 -0.4569 -0.1255
 4038SOL    HW215924   5.064   2.724   4.073  0.2774 -0.9540  0.1212
 4038SOL    HW315925   5.006   2.739   4.212  0.1245 -0.5606  0.0159
 4038SOL    MW415926   5.065   2.762   4.151 -0.2658  0.4728 -0.6824
 4039SOL     OW15927   2.260   1.959   0.398 -0.4640  0.3574  0.0044
 4039SOL    HW215928   2.308   1.886   0.436 -0.3929 -0.6062 -1.8343
 4039SOL    HW315929   2.323   2.031   0.397  1.5804 -1.2284 -3.5589
 4039SOL    MW415930   2.275   1.959   0.403 -0.1217  0.2237 -0.3764
 4040SOL     OW15931   5.926   5.279   0.182  0.3722 -0.4935 -0.1752
 4040SOL    HW215932   6.000   5.291   0.123  1.8602  0.2436  1.7096
 4040SOL    HW315933   5.899   5.369   0.204 -0.3230 -0.7536  0.0420
 4040SOL    MW415934   5.932   5.293   0.177  0.6136  0.3101  0.3354
 4041SOL     OW15935   4.486   4.032   1.455 -0.1521 -0.0909 -0.2406
 4041SOL    HW215936   4.545   3.980   1.400  0.6595 -0.8187  1.2571
 4041SOL    HW315937   4.399   4.015   1.420  0.1539 -2.0567 -0.1360
 4041SOL    MW415938   4.482   4.023   1.443 -0.4381 -0.1814 -0.4876
 4042SOL     OW15939   5.993   1.495   3.676 -0.6507  0.3567  0.2527
 4042SOL    HW215940   6.072   1.480   3.728 -0.4527 -0.0824 -0.1617
 4042SOL    HW315941   6.016   1.462   3.589 -1.2091  0.4510  0.0696
 4042SOL    MW415942   6.007   1.489   3.671 -0.0978  0.1149  0.2326
 4043SOL     OW15943   0.006   3.547   3.237  0.3627 -0.3340  0.6729
 4043SOL    HW215944  -0.008   3.566   3.144 -0.6668 -1.1884  0.6432
 4043SOL    HW315945   0.066   3.616   3.266  0.8413 -0.1614 -0.6626
 4043SOL    MW415946   0.012   3.559   3.229  0.1311  0.3916  0.3790
 4044SOL     OW15947   6.204   0.118   5.833 -0.3643 -0.0065  0.1844
 4044SOL    HW215948   6.129   0.115   5.773 -0.3101  1.6631 -0.0286
 4044SOL    HW315949   6.280   0.097   5.778 -0.5499 -0.6311  0.1613
 4044SOL    MW415950   6.204   0.115   5.818  0.2049  0.4343 -0.2685
 4045SOL     OW15951   4.587   2.656   3.729 -0.0597  0.0004  0.5452
 4045SOL    HW215952   4.634   2.608   3.661  0.6965  2.0132 -0.4544
 4045SOL    HW315953   4.558   2.736   3.685 -0.9026  0.6475  2.2180
 4045SOL    MW415954   4.590   2.661   3.714 -0.2936  0.1801 -0.1215
 4046SOL     OW15955   2.817   2.988   6.373 -0.0187 -0.1693 -0.3413
 4046SOL    HW215956   2.819   2.897   6.400 -0.4408 -0.0520  0.1022
 4046SOL    HW315957   2.909   3.017   6.377 -0.1857  0.2713  2.5211
 4046SOL    MW415958   2.830   2.980   6.377 -0.3846  0.1618  0.3785
 4047SOL     OW15959   2.912   3.371   1.191 -0.2893 -0.6320  0.2553
 4047SOL    HW215960   2.819   3.355   1.209 -0.0763 -0.6300  1.4242
 4047SOL    HW315961   2.958   3.324   1.261  0.6728 -2.0523 -1.2506
 4047SOL    MW415962   2.906   3.363   1.202 -0.3967  0.3077 -0.4843
 4048SOL     OW15963   5.694   3.355   0.892 -0.1299  0.1012 -0.1857
 4048SOL    HW215964   5.741   3.305   0.959  1.5765  1.8228 -0.0137
 4048SOL    HW315965   5.663   3.289   0.830  2.4065 -1.1826 -0.2128
 4048SOL    MW415966   5.696   3.340   0.893 -0.0534  0.5298  0.2334
 4049SOL     OW15967   5.165   5.185   5.961 -0.3064 -0.5362  0.6645
 4049SOL    HW215968   5.083   5.195   5.913  0.7264  1.9139 -0.7481
 4049SOL    HW315969   5.208   5.110   5.920 -0.5678 -0.0569 -0.5087
 4049SOL    MW415970   5.160   5.176   5.949  0.5695  0.1559  0.1628
 4050SOL     OW15971   6.162   2.935   4.453 -0.6430 -0.3870  0.4268
 4050SOL    HW215972   6.176   3.017   4.407 -1.6129 -0.1688  0.5035
 4050SOL    HW315973   6.123   2.876   4.388 -1.9305 -0.1050  0.9317
 4050SOL    MW415974   6.159   2.938   4.439 -0.4924 -0.0288 -0.2555
 4051SOL     OW15975   1.076   6.217   2.081  0.0872 -0.1132 -0.1585
 4051SOL    HW215976   1.065   6.277   2.155  1.1744 -0.4335  0.2840
 4051SOL    HW315977   1.002   6.157   2.088  0.4391 -0.4436  0.9673
 4051SOL    MW415978   1.065   6.217   2.092 -0.3399 -0.8410 -0.2389
 4052SOL     OW15979   1.795   4.248   4.377  0.4940 -0.1460 -0.5959
 4052SOL    HW215980   1.763   4.257   4.467  1.6114  0.3031 -0.2237
 4052SOL    HW315981   1.848   4.169   4.378  1.8588  0.7422 -0.4238
 4052SOL    MW415982   1.797   4.239   4.389 -0.2634 -0.9600  0.4364
 4053SOL     OW15983   0.086   5.111   6.054  0.2866 -0.3788 -0.2142
 4053SOL    HW215984   0.011   5.155   6.093 -1.0474 -0.3215 -2.6442
 4053SOL    HW315985   0.063   5.018   6.055  0.1625 -0.3606 -0.9668
 4053SOL    MW415986   0.073   5.105   6.059  0.0089 -1.2638 -0.5705
 4054SOL     OW15987   3.106   5.573   1.672 -0.8194 -0.2495 -0.0738
 4054SOL    HW215988   3.122   5.581   1.766 -2.3514 -1.0023  0.2848
 4054SOL    HW315989   3.050   5.647   1.651  0.9388  0.9514 -0.8062
 4054SOL    MW415990   3.101   5.584   1.681  0.3460  0.1550 -0.3482
 4055SOL     OW15991   5.221   5.577   3.591 -0.1674 -0.2112 -0.0366
 4055SOL    HW215992   5.280   5.582   3.667 -1.6148 -0.0056  1.1294
 4055SOL    HW315993   5.278   5.589   3.516  1.3619 -0.6201  1.0047
 4055SOL    MW415994   5.236   5.580   3.591 -0.4440 -0.4516  1.0679
 4056SOL     OW15995   3.830   1.361   1.466 -0.4489 -0.4113 -0.3624
 4056SOL    HW215996   3.889   1.437   1.461 -1.7646  0.8666  2.0997
 4056SOL    HW315997   3.890   1.286   1.473  0.9392  0.7813  1.4658
 4056SOL    MW415998   3.846   1.361   1.466  0.3305 -0.3462  0.2747
 4057SOL     OW15999   2.332   1.958   0.748 -0.0776  0.1476 -0.1526
 4057SOL    HW216000   2.421   1.961   0.712 -0.1615 -0.4428 -0.4299
 4057SOL    HW316001   2.289   1.888   0.699 -0.9650  1.0004 -0.6205
 4057SOL    MW416002   2.338   1.949   0.737 -0.0127  0.4752 -0.1251
 4058SOL     OW16003   0.322   4.907   5.912 -0.5573 -0.4211 -0.2745
 4058SOL    HW216004   0.266   4.948   5.847  1.7318  0.9134 -1.5374
 4058SOL    HW316005   0.343   4.821   5.875  2.9636  1.3287 -2.9222
 4058SOL    MW416006   0.318   4.901   5.899  0.4380  0.1122 -0.5109
 4059SOL     OW16007   3.374   3.192   2.608  0.5932  0.3734 -0.3437
 4059SOL    HW216008   3.417   3.204   2.693  0.2797 -0.0043 -0.1335
 4059SOL    HW316009   3.299   3.250   2.610  0.6263  0.4185 -0.3931
 4059SOL    MW416010   3.370   3.201   2.619 -0.0636 -0.1970  0.0253
 4060SOL     OW16011   5.541   3.867   4.627  0.1744  0.1767 -0.5371
 4060SOL    HW216012   5.592   3.861   4.708  0.8362 -0.8720 -1.0163
 4060SOL    HW316013   5.513   3.959   4.623 -0.2005  0.1624  1.0787
 4060SOL    MW416014   5.544   3.878   4.637 -0.3158 -0.7965  0.5372
 4061SOL     OW16015   0.570   1.969   1.488  0.3335  0.7827 -0.0525
 4061SOL    HW216016   0.566   2.019   1.407  2.5761 -3.3543 -3.1406
 4061SOL    HW316017   0.663   1.951   1.500 -0.2622 -4.8053 -1.1162
 4061SOL    MW416018   0.582   1.973   1.479 -0.5840 -0.4816 -0.0158
 4062SOL     OW16019   3.549   1.925   1.090  0.1502  0.4342 -0.6134
 4062SOL    HW216020   3.590   1.854   1.139  1.0385  0.7514 -0.8787
 4062SOL    HW316021   3.565   1.905   0.998  0.6398  1.1069 -0.6826
 4062SOL    MW416022   3.556   1.913   1.084 -0.4269  0.4060 -0.3284
 4063SOL     OW16023   0.547   4.946   3.919  0.0856 -0.3458  1.0760
 4063SOL    HW216024   0.467   4.950   3.865  1.1062  1.0394 -0.4520
 4063SOL    HW316025   0.528   5.004   3.993  0.4524  1.9456 -0.5140
 4063SOL    MW416026   0.534   4.954   3.921  0.8076 -0.1452 -0.2246
 4064SOL     OW16027   4.983   1.564   6.354  0.7004  0.3573  0.6645
 4064SOL    HW216028   4.992   1.535   6.445 -1.7668  0.8401  1.1390
 4064SOL    HW316029   4.921   1.503   6.315  2.9429 -0.8473 -1.2561
 4064SOL    MW416030   4.976   1.552   6.361  0.4471 -0.2607 -0.1936
 4065SOL     OW16031   0.349   0.031   4.065  0.2134  0.4310  0.0824
 4065SOL    HW216032   0.341   0.003   4.156 -0.6223 -0.2446 -0.1891
 4065SOL    HW316033   0.274   0.090   4.052  1.3628  1.9988  0.3457
 4065SOL    MW416034   0.338   0.035   4.075 -0.1810  0.2847  0.2255
 4066SOL     OW16035   4.019   0.373   5.704 -0.4100 -0.0109  0.5202
 4066SOL    HW216036   4.108   0.385   5.740 -0.2742 -0.3055  0.2863
 4066SOL    HW316037   4.012   0.279   5.690 -0.7436  0.0189  0.4827
 4066SOL    MW416038   4.030   0.362   5.707  0.2381  0.5485  0.3180
 4067SOL     OW16039   0.069   3.387   4.343 -0.2828  0.1322  0.0186
 4067SOL    HW216040   0.115   3.470   4.347 -0.3151  0.2452 -1.4698
 4067SOL    HW316041  -0.018   3.409   4.310 -0.5619 -0.3972  0.3840
 4067SOL    MW416042   0.063   3.401   4.339  0.5166  0.5267  0.4562
 4068SOL     OW16043   1.665   3.412   6.357  0.8194 -0.2813  0.2294
 4068SOL    HW216044   1.640   3.326   6.391  1.5984 -1.3209 -1.6789
 4068SOL    HW316045   1.604   3.429   6.286  1.7272 -0.0821 -0.5288
 4068SOL    MW416046   1.654   3.403   6.352  0.1369  1.0495  0.0819
 4069SOL     OW16047   5.258   3.868   0.256 -0.2090 -0.1132  0.2201
 4069SOL    HW216048   5.316   3.942   0.277  0.3043 -0.7456  1.1537
 4069SOL    HW316049   5.317   3.792   0.253 -0.6789 -0.4381 -1.0597
 4069SOL    MW416050   5.274   3.868   0.259 -0.1287  0.3155  0.2298
 4070SOL     OW16051   0.025   2.071   3.760 -0.3001 -0.4415 -0.1669
 4070SOL    HW216052  -0.016   2.073   3.674 -0.7516 -2.7899 -0.0656
 4070SOL    HW316053   0.086   2.145   3.760 -3.9950  2.8758 -0.5413
 4070SOL    MW416054   0.028   2.081   3.749  0.0222  0.6825  0.1887
 4071SOL     OW16055   0.939   2.390   4.404  0.0994  0.0095 -0.4748
 4071SOL    HW216056   1.013   2.389   4.464  0.3944  1.5775 -0.7793
 4071SOL    HW316057   0.894   2.472   4.422 -1.4197 -0.7867 -0.4893
 4071SOL    MW416058   0.943   2.401   4.414  0.3629 -0.4746 -0.0237
 4072SOL     OW16059   4.683   3.851   4.413  0.1335  0.3541 -0.2960
 4072SOL    HW216060   4.725   3.836   4.498  0.2533  0.5728 -0.3134
 4072SOL    HW316061   4.620   3.780   4.404  0.8894 -0.2918 -0.5172
 4072SOL    MW416062   4.680   3.840   4.423 -0.0762  0.0202  0.3364
 4073SOL     OW16063   4.619   5.840   6.248 -0.7271 -0.1822 -0.1895
 4073SOL    HW216064   4.536   5.793   6.246 -1.0455  0.3254  0.5838
 4073SOL    HW316065   4.595   5.932   6.235 -0.4811  0.1706  1.6198
 4073SOL    MW416066   4.605   5.846   6.246 -0.1214  0.1431  0.9208
 4074SOL     OW16067   1.563   5.141   4.296 -0.2909  0.2705 -0.3714
 4074SOL    HW216068   1.531   5.231   4.306  1.2934  0.8792 -0.5691
 4074SOL    HW316069   1.652   5.142   4.332  0.0406 -1.0431 -1.0752
 4074SOL    MW416070   1.571   5.153   4.302  0.0155 -0.2519  0.3614
 4075SOL     OW16071   3.744   1.775   0.596 -0.6841 -0.4347  0.0056
 4075SOL    HW216072   3.825   1.808   0.557  0.8562 -2.6416  1.1751
 4075SOL    HW316073   3.719   1.701   0.541 -1.6606 -0.0756 -0.0575
 4075SOL    MW416074   3.752   1.770   0.584 -0.2917  0.6007  0.5568
 4076SOL     OW16075   5.345   2.906   1.977 -0.5119 -0.1293  0.9262
 4076SOL    HW216076   5.394   2.871   1.902  0.6172  0.8901  1.1495
 4076SOL    HW316077   5.287   2.972   1.939 -0.7006 -0.3478  0.8304
 4076SOL    MW416078   5.344   2.910   1.962  0.5717 -0.3113 -0.4402
 4077SOL     OW16079   3.506   2.157   4.472 -0.1440 -0.4913 -0.0579
 4077SOL    HW216080   3.463   2.080   4.509  1.3336 -1.0338  0.5999
 4077SOL    HW316081   3.484   2.154   4.379 -0.9525 -1.1171  0.1349
 4077SOL    MW416082   3.497   2.147   4.465  0.3549  0.2397  0.0148
 4078SOL     OW16083   3.917   2.543   2.623  0.2062  0.1107  0.5531
 4078SOL    HW216084   3.970   2.612   2.584 -0.2415  0.6715  0.9235
 4078SOL    HW316085   3.968   2.511   2.697  0.5930 -0.2453  0.1436
 4078SOL    MW416086   3.930   2.548   2.627 -0.2759 -0.1788  0.4637
 4079SOL     OW16087   1.543   0.215   4.975 -0.5378 -0.0333  0.5367
 4079SOL    HW216088   1.564   0.123   4.991 -0.3569  0.3892  2.9901
 4079SOL    HW316089   1.558   0.226   4.881 -1.1772 -2.6419  0.0551
 4079SOL    MW416090   1.548   0.204   4.964  0.2760 -0.1770 -0.0282
 4080SOL     OW16091   1.354   2.103   0.523 -0.1623  0.1536  0.2557
 4080SOL    HW216092   1.325   2.035   0.463  0.2307  0.0974  0.1249
 4080SOL    HW316093   1.447   2.085   0.536 -0.3092 -0.0243  1.1312
 4080SOL    MW416094   1.362   2.092   0.517 -0.5156 -0.0465 -0.0224
 4081SOL     OW16095   3.829   3.699   5.856  0.6788 -0.5136  0.6408
 4081SOL    HW216096   3.759   3.637   5.877  0.2045  0.0682  0.8273
 4081SOL    HW316097   3.909   3.658   5.889  0.4143 -1.1573  0.4888
 4081SOL    MW416098   3.830   3.685   5.863 -0.1848  0.2956 -0.0289
 4082SOL     OW16099   3.973   1.014   3.252  0.1220 -0.3057  0.1590
 4082SOL    HW216100   3.934   1.040   3.336  1.7351  2.0400  0.2689
 4082SOL    HW316101   4.021   0.934   3.272  1.2001  0.6840  1.7298
 4082SOL    MW416102   3.974   1.007   3.266  0.1233  0.1939 -0.2379
 4083SOL     OW16103   1.489   4.473   4.523 -0.1662  0.4510  0.3351
 4083SOL    HW216104   1.410   4.419   4.517 -0.4481  0.9746 -1.3366
 4083SOL    HW316105   1.481   4.535   4.450  1.7746  0.5258  0.1273
 4083SOL    MW416106   1.478   4.474   4.512  0.1346  0.5287  0.0674
 4084SOL     OW16107   4.150   1.369   3.725  0.2836 -0.4656 -0.1706
 4084SOL    HW216108   4.178   1.302   3.662 -0.5159  0.2232 -1.2861
 4084SOL    HW316109   4.211   1.441   3.712 -0.5119  0.0884 -0.9079
 4084SOL    MW416110   4.162   1.370   3.715  0.1751  0.0043 -0.4320
 4085SOL     OW16111   0.035   5.425   2.994  0.4172  0.1148 -0.3897
 4085SOL    HW216112   0.048   5.500   3.051  1.1892  0.4393 -0.9661
 4085SOL    HW316113  -0.047   5.386   3.023  0.5490  0.5509  0.6152
 4085SOL    MW416114   0.026   5.430   3.005 -0.0804 -0.7105  0.1157
 4086SOL     OW16115   3.032   2.745   0.658  0.0090  0.2323 -0.1184
 4086SOL    HW216116   2.948   2.703   0.677 -0.6723  1.2761 -0.7622
 4086SOL    HW316117   3.097   2.686   0.697 -1.0265 -0.4414  0.6459
 4086SOL    MW416118   3.029   2.732   0.666  0.0260  0.3322  0.1672
 4087SOL     OW16119   1.814   1.163   2.661  1.0238 -0.2243 -0.2765
 4087SOL    HW216120   1.772   1.204   2.737  0.2592  0.3425 -0.9808
 4087SOL    HW316121   1.828   1.236   2.600  2.0016 -0.6038 -0.5239
 4087SOL    MW416122   1.810   1.178   2.663  0.3577  0.0593 -0.2613
 4088SOL     OW16123   1.941   0.614   6.118 -0.3761  0.1405  0.0269
 4088SOL    HW216124   1.989   0.695   6.097 -2.5671  0.8169 -3.0354
 4088SOL    HW316125   1.998   0.544   6.087  1.2968  0.4165  2.1974
 4088SOL    MW416126   1.955   0.616   6.111 -0.3727 -0.0981 -0.2560
 4089SOL     OW16127   2.905   4.124   3.535 -0.6746 -0.7154  0.2847
 4089SOL    HW216128   2.957   4.050   3.567  0.1884 -0.5014 -0.5782
 4089SOL    HW316129   2.932   4.198   3.588  1.4925 -0.1367 -1.4998
 4089SOL    MW416130   2.915   4.124   3.546 -0.1748 -0.2409 -0.2147
 4090SOL     OW16131   0.575   2.223   3.491  0.4615  0.2921  0.4086
 4090SOL    HW216132   0.511   2.287   3.523  1.7797  1.5410  0.6462
 4090SOL    HW316133   0.585   2.161   3.563 -2.0676 -1.2497 -0.4300
 4090SOL    MW416134   0.568   2.223   3.505 -0.0643  0.0667 -0.0376
 4091SOL     OW16135   4.179   1.840   3.775 -0.2170 -0.1296  0.4131
 4091SOL    HW216136   4.235   1.916   3.758  1.6504 -1.6161 -0.4252
 4091SOL    HW316137   4.121   1.868   3.846 -0.4244  2.4523 -0.6836
 4091SOL    MW416138   4.179   1.854   3.782 -0.8735  0.0891  0.0947
 4092SOL     OW16139   0.301   1.754   3.519  0.0403 -0.1414  0.1059
 4092SOL    HW216140   0.369   1.691   3.543  0.7614  0.4186 -0.4138
 4092SOL    HW316141   0.290   1.808   3.597 -0.8898 -1.1518  0.7060
 4092SOL    MW416142   0.309   1.753   3.533  0.2779  0.1607  0.1247
 4093SOL     OW16143   5.273   0.746   0.511 -0.2835  0.2559 -0.4729
 4093SOL    HW216144   5.182   0.723   0.528  0.1057 -0.8761  0.2105
 4093SOL    HW316145   5.292   0.817   0.573 -0.0413 -1.1238  1.1030
 4093SOL    MW416146   5.264   0.753   0.521 -0.6260 -0.1502  0.4901
 4094SOL     OW16147   4.163   3.834   3.402  0.1719  0.5656 -0.2701
 4094SOL    HW216148   4.182   3.798   3.316 -1.1555 -2.0743  0.4225
 4094SOL    HW316149   4.103   3.906   3.386 -2.4622 -1.7136 -1.5056
 4094SOL    MW416150   4.158   3.839   3.389 -0.5082  0.0644  0.4019
 4095SOL     OW16151   2.935   2.817   2.105 -0.1776 -0.0087 -0.1570
 4095SOL    HW216152   2.925   2.899   2.155  0.3592 -0.0868  0.0861
 4095SOL    HW316153   2.977   2.844   2.024  2.1790 -0.3184  0.8737
 4095SOL    MW416154   2.939   2.832   2.101 -0.2690  0.1895  0.3483
 4096SOL     OW16155   5.619   4.319   0.091  0.0080 -0.3639 -0.6221
 4096SOL    HW216156   5.607   4.240   0.038 -1.7864 -1.4416  1.2697
 4096SOL    HW316157   5.530   4.351   0.107  0.6682  1.7513 -0.8346
 4096SOL    MW416158   5.605   4.313   0.086  0.1857 -0.7972 -0.2327
 4097SOL     OW16159   2.585   5.427   2.206  0.3090 -0.0368  0.2639
 4097SOL    HW216160   2.531   5.351   2.230 -0.1810  0.5166  0.9925
 4097SOL    HW316161   2.669   5.411   2.249  0.5034 -0.5779 -0.3069
 4097SOL    MW416162   2.589   5.415   2.215  0.5877  0.2291  0.0324
 4098SOL     OW16163   1.797   1.812   0.582  0.2885 -0.0404 -0.1061
 4098SOL    HW216164   1.871   1.864   0.549  0.7841 -0.9562 -0.4741
 4098SOL    HW316165   1.830   1.772   0.663 -1.0179  2.4273  1.7630
 4098SOL    MW416166   1.811   1.814   0.588  0.1097 -0.3232 -0.3611
 4099SOL     OW16167   0.090   0.970   1.857  0.1408 -0.1743 -0.3638
 4099SOL    HW216168   0.018   1.013   1.904  1.5567 -0.6733  2.4431
 4099SOL    HW316169   0.050   0.893   1.817 -1.0227 -0.0213  0.4601
 4099SOL    MW416170   0.075   0.966   1.858  0.8020  0.1811 -0.1635
 4100SOL     OW16171   5.811   0.998   4.324 -0.5097  0.1622 -0.3220
 4100SOL    HW216172   5.764   0.953   4.254  3.2726 -1.4407 -2.1311
 4100SOL    HW316173   5.825   1.087   4.290  0.0267 -0.1712 -1.0199
 4100SOL    MW416174   5.807   1.004   4.310 -0.9627  0.4468  0.3807
 4101SOL     OW16175   2.011   4.591   0.908 -0.3733 -0.1131 -0.3941
 4101SOL    HW216176   2.016   4.578   1.003  1.8196 -0.3177 -0.4787
 4101SOL    HW316177   2.068   4.666   0.892 -0.5698 -0.2094 -1.5822
 4101SOL    MW416178   2.019   4.600   0.919  0.2000  0.1665  0.1110
 4102SOL     OW16179   0.010   3.629   4.725  0.2615 -0.1173  0.3476
 4102SOL    HW216180   0.035   3.633   4.633  0.3075  1.5649  0.4036
 4102SOL    HW316181   0.067   3.693   4.768  0.0896 -0.7237  1.5184
 4102SOL    MW416182   0.021   3.638   4.718 -0.0388  0.1307  0.1566
 4103SOL     OW16183   4.634   3.871   1.310  0.5228  0.5347 -0.2802
 4103SOL    HW216184   4.559   3.826   1.272  1.9867 -2.1612 -0.2198
 4103SOL    HW316185   4.651   3.943   1.249  0.8473 -1.7420 -3.1242
 4103SOL    MW416186   4.626   3.875   1.297  0.7711  0.5720  0.0114
 4104SOL     OW16187   2.597   6.335   6.067 -0.1931 -0.4436 -0.3174
 4104SOL    HW216188   2.542   6.342   5.989  0.5344  1.5535 -0.7169
 4104SOL    HW316189   2.686   6.337   6.033  0.1300  0.6797  0.5602
 4104SOL    MW416190   2.601   6.336   6.052  1.2581  0.3281  0.2259
 4105SOL     OW16191   6.402   5.628   4.045 -0.1253 -0.1414 -0.0109
 4105SOL    HW216192   6.492   5.599   4.063  0.0342 -0.1681 -0.8016
 4105SOL    HW316193   6.354   5.547   4.026 -0.1115 -0.0621 -0.4106
 4105SOL    MW416194   6.408   5.613   4.045 -0.0179 -0.0306 -0.2494
 4106SOL     OW16195   6.320   3.392   0.657  0.0237 -0.1088  0.1594
 4106SOL    HW216196   6.323   3.457   0.727  1.0607  1.3124 -1.1351
 4106SOL    HW316197   6.259   3.325   0.688  1.2436 -0.0821  2.8646
 4106SOL    MW416198   6.312   3.392   0.670 -0.0836 -0.4620 -0.8037
 4107SOL     OW16199   2.619   0.309   6.221 -0.7660  0.5226  0.0660
 4107SOL    HW216200   2.698   0.342   6.266  0.6657 -0.5737 -1.5391
 4107SOL    HW316201   2.564   0.276   6.292  1.2820 -0.8839  1.1180
 4107SOL    MW416202   2.622   0.309   6.236  0.1115 -0.1505 -0.3126
 4108SOL     OW16203   2.344   3.173   4.771 -0.0492 -0.1970 -0.1887
 4108SOL    HW216204   2.297   3.106   4.821 -0.3217 -0.3249 -0.6072
 4108SOL    HW316205   2.426   3.184   4.817 -0.0993 -0.6566  0.0199
 4108SOL    MW416206   2.348   3.165   4.784  0.3437 -0.0598  0.3954
 4109SOL     OW16207   2.558   3.292   4.928 -0.8156 -0.0572 -0.2678
 4109SOL    HW216208   2.653   3.278   4.927 -0.3983  2.3400 -0.5320
 4109SOL    HW316209   2.545   3.356   4.998 -2.1148  0.4141 -0.9212
 4109SOL    MW416210   2.569   3.299   4.937  0.4046 -0.0192 -0.6211
 4110SOL     OW16211   0.215   4.250   3.984 -0.4307  0.3910 -0.1986
 4110SOL    HW216212   0.219   4.280   3.894 -3.1319 -0.7274 -0.7990
 4110SOL    HW316213   0.122   4.233   4.000  0.1006 -0.6713  2.3875
 4110SOL    MW416214   0.203   4.251   3.975 -0.2284 -0.2383  0.2185
 4111SOL     OW16215   5.349   3.789   2.349 -0.2462  0.3300 -0.5921
 4111SOL    HW216216   5.378   3.708   2.392 -1.6176  0.5809  0.9144
 4111SOL    HW316217   5.267   3.764   2.305 -1.3034  1.1201  0.8591
 4111SOL    MW416218   5.342   3.775   2.349  0.6222  0.2791  0.6497
 4112SOL     OW16219   1.700   2.620   3.079 -0.0865  0.7394 -0.0391
 4112SOL    HW216220   1.686   2.525   3.074  0.7823  0.6081 -0.1109
 4112SOL    HW316221   1.675   2.652   2.992  1.8082  0.2580 -0.8051
 4112SOL    MW416222   1.695   2.612   3.067  0.9985 -0.3292  0.1797
 4113SOL     OW16223   5.220   1.696   1.733  0.5492 -0.0999 -1.4275
 4113SOL    HW216224   5.155   1.670   1.667 -0.3889 -0.7171 -0.3009
 4113SOL    HW316225   5.212   1.791   1.738 -0.9825 -0.2325 -0.6395
 4113SOL    MW416226   5.210   1.705   1.725 -0.4159  0.1402  0.0925
 4114SOL     OW16227   5.707   3.333   3.613 -0.0016  0.0512  0.3579
 4114SOL    HW216228   5.725   3.336   3.707 -1.0713 -1.4125  0.6571
 4114SOL    HW316229   5.793   3.334   3.572  0.5722 -1.0144  1.4500
 4114SOL    MW416230   5.721   3.334   3.620  0.1086  0.7286  0.3647
 4115SOL     OW16231   2.375   5.424   4.508  0.5872  1.0093 -0.2266
 4115SOL    HW216232   2.461   5.433   4.550  0.8434 -0.8769 -0.2604
 4115SOL    HW316233   2.380   5.481   4.431  1.3727  1.8160  0.3919
 4115SOL    MW416234   2.387   5.433   4.503 -0.5667 -0.0005  0.0923
 4116SOL     OW16235   3.744   4.514   5.606 -0.3459 -0.3486  0.4647
 4116SOL    HW216236   3.775   4.447   5.666 -1.4835 -0.7690  0.6074
 4116SOL    HW316237   3.648   4.508   5.610 -0.4663  0.8951  0.0525
 4116SOL    MW416238   3.735   4.505   5.614  0.5149 -0.4622 -0.3059
 4117SOL     OW16239   6.234   3.172   6.409  0.6525  0.3211  0.3484
 4117SOL    HW216240   6.224   3.267   6.409  1.0043  0.3724  1.2546
 4117SOL    HW316241   6.261   3.151   6.499 -1.3606 -0.8255  0.7615
 4117SOL    MW416242   6.236   3.182   6.421 -0.0644 -0.4219 -0.5210
 4118SOL     OW16243   3.332   4.704   2.674 -0.2403 -0.6072  0.1374
 4118SOL    HW216244   3.316   4.789   2.716 -1.2387 -1.6949  2.0839
 4118SOL    HW316245   3.375   4.727   2.592 -0.9415  1.8127  0.3420
 4118SOL    MW416246   3.336   4.719   2.669 -0.2158 -0.1018 -0.0291
 4119SOL     OW16247   5.936   4.387   6.366  0.5274 -0.1405 -0.0319
 4119SOL    HW216248   6.027   4.370   6.341  0.2025 -0.4632 -1.0656
 4119SOL    HW316249   5.938   4.392   6.461  1.2900 -2.3368  0.1312
 4119SOL    MW416250   5.948   4.385   6.375  0.2298 -0.3586 -0.2466
 4120SOL     OW16251   2.927   0.664   0.789  0.0146 -0.0095 -0.3445
 4120SOL    HW216252   2.909   0.685   0.881  0.5320  0.4170 -0.3375
 4120SOL    HW316253   3.020   0.685   0.777  0.2184 -1.0546 -0.6863
 4120SOL    MW416254   2.937   0.669   0.800 -0.3220  0.0764  0.7129
 4121SOL     OW16255   3.277   2.389   4.425  0.0714 -0.3838 -0.2895
 4121SOL    HW216256   3.286   2.476   4.464  0.4392 -0.9172  0.8662
 4121SOL    HW316257   3.325   2.331   4.484  0.2375 -1.3080 -1.2941
 4121SOL    MW416258   3.285   2.393   4.438 -0.0776 -0.4613 -0.3692
 4122SOL     OW16259   5.820   4.943   6.101  0.1399  0.1732 -0.2702
 4122SOL    HW216260   5.806   4.984   6.186  0.8768 -0.8052  0.3381
 4122SOL    HW316261   5.885   4.998   6.058 -1.6151  1.7869 -1.0338
 4122SOL    MW416262   5.827   4.956   6.107 -0.4762  0.4264  0.0648
 4123SOL     OW16263   1.782   1.247   3.813 -0.1068  0.0627 -0.3152
 4123SOL    HW216264   1.695   1.287   3.806  0.9791  3.1473  1.7614
 4123SOL    HW316265   1.765   1.153   3.819 -3.1746  0.4601 -1.2233
 4123SOL    MW416266   1.768   1.240   3.813 -0.1903 -0.7018 -0.1967
 4124SOL     OW16267   6.331   0.175   1.439 -0.4165  0.3680 -0.3868
 4124SOL    HW216268   6.237   0.193   1.434 -0.2291  1.0856 -2.3672
 4124SOL    HW316269   6.351   0.130   1.357  0.5721 -2.0655  1.0671
 4124SOL    MW416270   6.321   0.171   1.428  0.4446  0.1389  0.5891
 4125SOL     OW16271   0.909   4.291   6.405  0.7378 -0.7346  0.7266
 4125SOL    HW216272   0.913   4.304   6.499 -0.3047 -0.0690  0.6969
 4125SOL    HW316273   0.816   4.299   6.383  0.8321 -1.8786 -0.2256
 4125SOL    MW416274   0.897   4.294   6.414 -0.4238  0.3969  0.0668
 4126SOL     OW16275   1.765   4.034   5.804  0.2793 -0.2974 -0.0185
 4126SOL    HW216276   1.810   3.966   5.755 -0.4069 -1.2371  0.6154
 4126SOL    HW316277   1.750   3.995   5.890  0.1983  0.7954  0.4811
 4126SOL    MW416278   1.769   4.020   5.809 -0.3858 -0.3054  0.1242
 4127SOL     OW16279   0.279   0.946   1.507 -0.1282  0.0394 -0.4048
 4127SOL    HW216280   0.291   0.854   1.483 -0.4437 -0.5199  1.4422
 4127SOL    HW316281   0.184   0.958   1.508 -0.1591 -0.1730  1.2277
 4127SOL    MW416282   0.268   0.936   1.504 -0.5836 -0.0954 -0.0387
 4128SOL     OW16283   4.519   2.015   1.079  0.4117  0.5026  0.1022
 4128SOL    HW216284   4.608   2.052   1.086  0.8682 -0.4070 -0.6701
 4128SOL    HW316285   4.482   2.026   1.167  0.2987  3.2886 -0.2063
 4128SOL    MW416286   4.526   2.022   1.092  0.1911  0.1258 -0.4137
 4129SOL     OW16287   2.928   6.152   6.343  0.0849 -0.0605  0.0182
 4129SOL    HW216288   2.959   6.222   6.285  0.5479 -0.9434 -0.8391
 4129SOL    HW316289   2.833   6.152   6.332  0.1274  0.1047 -0.3705
 4129SOL    MW416290   2.920   6.162   6.334 -0.0760 -0.5368  0.0385
 4130SOL     OW16291   1.767   0.040   0.016  0.0755  0.0970 -0.4423
 4130SOL    HW216292   1.859   0.024   0.037  0.3271  0.9204 -0.8446
 4130SOL    HW316293   1.748   0.126   0.055  0.1594  1.0045 -2.2884
 4130SOL    MW416294   1.777   0.049   0.024  0.3734  0.0945 -0.4137
 4131SOL     OW16295   1.369   3.776   3.686 -0.3842 -0.1362 -0.0607
 4131SOL    HW216296   1.395   3.780   3.778 -1.7001 -0.0216  0.3221
 4131SOL    HW316297   1.297   3.838   3.678  1.0417  1.4312 -1.6648
 4131SOL    MW416298   1.363   3.784   3.697 -0.0119 -0.2964  0.1587
 4132SOL     OW16299   2.125   5.763   4.534 -0.1714 -0.0270 -0.2052
 4132SOL    HW216300   2.197   5.815   4.498 -1.1845  0.7594 -1.1474
 4132SOL    HW316301   2.081   5.726   4.457 -1.6570  0.7128  0.2535
 4132SOL    MW416302   2.129   5.765   4.519  0.0508 -0.7036 -0.1580
 4133SOL     OW16303   5.650   0.343   0.829 -0.4628 -0.2497 -0.1559
 4133SOL    HW216304   5.652   0.425   0.780 -0.4400 -0.6230 -0.7981
 4133SOL    HW316305   5.564   0.306   0.811 -0.3917 -0.4724 -0.0448
 4133SOL    MW416306   5.639   0.349   0.820 -0.0445 -0.0167  0.1492
 4134SOL     OW16307   5.904   2.052   3.136 -0.0805  0.0778  0.3895
 4134SOL    HW216308   5.894   1.961   3.110  0.5089 -0.4381  1.8427
 4134SOL    HW316309   5.857   2.102   3.070 -1.9638 -1.4033  0.5437
 4134SOL    MW416310   5.897   2.047   3.124  0.6978  0.0127 -0.5391
 4135SOL     OW16311   3.929   2.304   2.462  0.0579 -0.3211  0.2258
 4135SOL    HW216312   3.924   2.317   2.367  0.0301 -1.5593  0.0425
 4135SOL    HW316313   3.923   2.392   2.498  1.6641  0.3388 -0.9797
 4135SOL    MW416314   3.927   2.317   2.454  0.6032  0.3680  0.2681
 4136SOL     OW16315   2.110   5.916   1.918  0.2608 -0.1023  0.5263
 4136SOL    HW216316   2.161   5.856   1.973 -1.2912 -1.7323  0.2960
 4136SOL    HW316317   2.051   5.859   1.870 -1.1609  1.6331  0.1191
 4136SOL    MW416318   2.109   5.901   1.919 -0.0518  0.0647  0.0502
 4137SOL     OW16319   5.883   2.099   0.231  0.0055 -0.2434  0.0827
 4137SOL    HW216320   5.891   2.004   0.238 -0.9067 -0.3100  0.4152
 4137SOL    HW316321   5.792   2.114   0.204 -0.3033  0.5743  1.4334
 4137SOL    MW416322   5.872   2.089   0.228  0.5243  0.2187 -0.7590
 4138SOL     OW16323   6.050   0.676   4.640  0.0983  0.1215 -0.5922
 4138SOL    HW216324   5.976   0.616   4.647  1.2516 -1.3405 -0.3670
 4138SOL    HW316325   6.053   0.699   4.547 -0.0858 -0.5544 -0.7769
 4138SOL    MW416326   6.041   0.671   4.629 -0.6314 -0.4398  0.1482
 4139SOL     OW16327   2.786   3.503   3.043 -0.3750  0.3105  0.1195
 4139SOL    HW216328   2.740   3.418   3.046  0.5090 -0.1761  0.0746
 4139SOL    HW316329   2.813   3.512   2.952 -1.7242  1.3402 -0.2082
 4139SOL    MW416330   2.783   3.493   3.032 -0.2694  0.1782  0.4620
 4140SOL     OW16331   1.833   1.473   4.268 -0.1874  0.1435  0.1912
 4140SOL    HW216332   1.845   1.516   4.353  0.3382  1.8681 -0.7133
 4140SOL    HW316333   1.914   1.489   4.221 -1.1871  0.9264 -1.3513
 4140SOL    MW416334   1.845   1.481   4.273 -0.4177  0.6394 -0.3009
 4141SOL     OW16335   2.318   3.647   2.210 -0.3725 -0.7974 -0.2813
 4141SOL    HW216336   2.314   3.556   2.180 -0.2379 -0.9948  0.2932
 4141SOL    HW316337   2.303   3.699   2.131 -0.3087 -1.3164 -0.6373
 4141SOL    MW416338   2.315   3.642   2.195 -0.4679  0.2181 -0.3985
 4142SOL     OW16339   1.709   0.792   4.728 -1.0318  0.3079  0.2181
 4142SOL    HW216340   1.745   0.881   4.728 -1.5707  0.5892 -1.9316
 4142SOL    HW316341   1.681   0.777   4.637  0.7528 -2.7567  0.0306
 4142SOL    MW416342   1.710   0.802   4.716  0.4830 -0.1015  0.5472
 4143SOL     OW16343   3.358   5.278   5.605  0.4282  0.0499 -0.3117
 4143SOL    HW216344   3.384   5.358   5.559  1.4086 -0.4015 -0.5572
 4143SOL    HW316345   3.408   5.208   5.562  1.8464 -0.3182  1.8180
 4143SOL    MW416346   3.368   5.279   5.593  0.0386  0.4421  0.0572
 4144SOL     OW16347   3.448   6.016   0.431  0.5926 -0.2050 -0.0083
 4144SOL    HW216348   3.464   6.106   0.458 -0.0674  0.2965 -1.1972
 4144SOL    HW316349   3.358   6.016   0.398  0.1214 -1.5991  1.1463
 4144SOL    MW416350   3.438   6.028   0.430 -0.5742  0.8134  0.2566
 4145SOL     OW16351   4.525   5.074   1.929 -0.5266 -0.2417 -0.7635
 4145SOL    HW216352   4.508   5.138   1.860  0.3059 -1.1619 -1.8569
 4145SOL    HW316353   4.441   5.063   1.974 -0.8512  1.0522 -1.0342
 4145SOL    MW416354   4.512   5.081   1.926  0.2524 -0.5996  0.2199
 4146SOL     OW16355   5.210   6.070   0.866  0.5628  0.0649  0.5950
 4146SOL    HW216356   5.246   6.084   0.778  0.0207 -0.4292  0.2857
 4146SOL    HW316357   5.249   6.139   0.919 -0.4225  1.4447 -0.4067
 4146SOL    MW416358   5.220   6.081   0.861 -0.2726 -0.3044  0.5067
 4147SOL     OW16359   0.155   5.377   5.861  0.0108  0.4581  0.3157
 4147SOL    HW216360   0.221   5.362   5.793  0.4048  0.2063  0.7492
 4147SOL    HW316361   0.202   5.423   5.930 -0.0453 -0.4651  0.9929
 4147SOL    MW416362   0.170   5.381   5.861 -0.1876 -0.4039 -0.0010
 4148SOL     OW16363   6.383   0.369   0.186 -0.5564 -0.3050  0.4480
 4148SOL    HW216364   6.351   0.378   0.275  1.1073 -1.1091  1.1764
 4148SOL    HW316365   6.320   0.310   0.144 -0.8470 -0.6922  1.3913
 4148SOL    MW416366   6.371   0.362   0.192 -0.2264 -0.1667 -0.0780
 4149SOL     OW16367   5.904   3.505   4.721 -0.4636 -0.4757  0.1545
 4149SOL    HW216368   5.984   3.537   4.680 -0.8255  2.4099  1.4985
 4149SOL    HW316369   5.850   3.475   4.647  1.0093 -0.5092 -0.9454
 4149SOL    MW416370   5.907   3.505   4.706 -0.2911  0.1830 -0.5529
 4150SOL     OW16371   3.617   0.362   4.646  0.5192 -0.1480  0.4580
 4150SOL    HW216372   3.541   0.344   4.702  0.1229 -0.4494 -0.1660
 4150SOL    HW316373   3.662   0.278   4.638 -0.0415 -0.3701 -0.5646
 4150SOL    MW416374   3.613   0.348   4.652  0.6354  0.2399  0.5007
 4151SOL     OW16375   1.050   0.710   4.742  0.5811 -0.2758 -0.1860
 4151SOL    HW216376   1.086   0.778   4.799  0.0408  0.3112 -0.5330
 4151SOL    HW316377   1.091   0.629   4.773  0.8539  0.1322  0.5541
 4151SOL    MW416378   1.060   0.708   4.753  0.0315  0.2997 -0.2302
 4152SOL     OW16379   0.936   4.259   2.738  0.0823  0.5496 -0.2704
 4152SOL    HW216380   0.998   4.251   2.665 -1.6483  0.2692 -1.7592
 4152SOL    HW316381   0.922   4.169   2.767  1.2910  0.7087  0.9281
 4152SOL    MW416382   0.943   4.246   2.733 -0.7510 -0.3041 -0.2523
 4153SOL     OW16383   3.954   3.161   2.973  0.0538  0.3163 -0.0478
 4153SOL    HW216384   3.913   3.123   3.051 -2.2421  2.2012 -0.2129
 4153SOL    HW316385   4.031   3.207   3.006  0.6079 -1.0852  0.6853
 4153SOL    MW416386   3.959   3.162   2.988  0.3061  0.0210 -0.1333
 4154SOL     OW16387   1.748   1.767   3.582  0.1627  0.1675  0.2687
 4154SOL    HW216388   1.821   1.828   3.581  0.1734  0.1693  0.8581
 4154SOL    HW316389   1.750   1.728   3.670  0.0197 -0.5143 -0.0199
 4154SOL    MW416390   1.758   1.770   3.594  0.0998  0.7223  1.0555
 4155SOL     OW16391   3.187   5.144   2.851 -0.4254 -0.3030  0.1226
 4155SOL    HW216392   3.267   5.139   2.904  0.2990 -0.3312 -0.9329
 4155SOL    HW316393   3.178   5.237   2.829 -1.4202 -0.0999  1.3017
 4155SOL    MW416394   3.196   5.155   2.855  0.4942 -0.1983 -0.1620
 4156SOL     OW16395   2.130   3.293   0.656 -0.5276  0.5920 -0.2945
 4156SOL    HW216396   2.197   3.306   0.723 -1.6635  1.9707  0.6419
 4156SOL    HW316397   2.149   3.359   0.589 -0.2108  0.1364 -0.6590
 4156SOL    MW416398   2.141   3.303   0.656 -0.5397  0.5318 -0.5428
 4157SOL     OW16399   3.237   5.770   6.135  0.4043 -0.1470 -0.7109
 4157SOL    HW216400   3.239   5.848   6.192 -0.6415 -1.1301  0.7505
 4157SOL    HW316401   3.150   5.772   6.095 -1.0287 -2.2141  1.9194
 4157SOL    MW416402   3.226   5.781   6.138 -0.3080 -0.0266 -0.2623
 4158SOL     OW16403   1.770   3.148   2.244 -0.8035  0.0267 -0.3244
 4158SOL    HW216404   1.697   3.172   2.186  0.5968 -0.3915 -2.3527
 4158SOL    HW316405   1.833   3.219   2.234  0.0515 -0.7249 -0.3955
 4158SOL    MW416406   1.769   3.161   2.235  0.5108  0.2002 -0.3283
 4159SOL     OW16407   3.841   3.871   1.421 -0.3363  0.6802  0.3792
 4159SOL    HW216408   3.823   3.951   1.470  0.3332  1.3814 -0.4872
 4159SOL    HW316409   3.762   3.857   1.369  0.1475  1.7280 -0.7008
 4159SOL    MW416410   3.828   3.880   1.421 -0.4405  0.5882 -0.5925
 4160SOL     OW16411   4.370   3.031   0.486 -0.0424  0.0272 -0.1529
 4160SOL    HW216412   4.443   2.975   0.512 -0.5453 -1.3429 -1.4639
 4160SOL    HW316413   4.309   2.970   0.443 -2.3009  0.9671  1.5369
 4160SOL    MW416414   4.371   3.015   0.483  0.1116  0.2033  0.0047
 4161SOL     OW16415   3.213   1.221   4.222  0.1097  0.2572  0.1864
 4161SOL    HW216416   3.160   1.294   4.190 -0.2877 -0.2162 -0.2481
 4161SOL    HW316417   3.279   1.209   4.154 -0.3761 -0.3665 -0.1855
 4161SOL    MW416418   3.215   1.229   4.209  0.5271  0.3481  0.0027
 4162SOL     OW16419   5.023   0.891   5.194 -0.2071 -0.3267  0.7023
 4162SOL    HW216420   5.025   0.979   5.157 -1.9490 -0.1532  0.9402
 4162SOL    HW316421   5.109   0.855   5.175  1.0637  1.9074  1.8239
 4162SOL    MW416422   5.035   0.897   5.187 -0.5948  0.5323 -0.2309
 4163SOL     OW16423   4.175   5.459   1.463 -0.0970 -0.5929  0.3474
 4163SOL    HW216424   4.113   5.514   1.510 -0.6377 -0.6663 -0.2681
 4163SOL    HW316425   4.231   5.520   1.415  0.6759 -0.5005  1.3236
 4163SOL    MW416426   4.174   5.474   1.463  0.6239 -0.0097  0.3249
 4164SOL     OW16427   4.690   1.919   6.002 -0.3986  0.0740  0.1961
 4164SOL    HW216428   4.754   1.923   5.931 -1.3391  0.6499 -0.6427
 4164SOL    HW316429   4.725   1.853   6.062  0.7095  0.0013 -0.5021
 4164SOL    MW416430   4.703   1.911   6.000 -0.0192 -0.1910  0.2346
 4165SOL     OW16431   4.240   1.598   1.655 -0.2953  0.2053  0.2173
 4165SOL    HW216432   4.335   1.588   1.667 -0.2132 -0.9386 -1.0446
 4165SOL    HW316433   4.207   1.625   1.741  1.1234  0.2630  0.7720
 4165SOL    MW416434   4.249   1.600   1.668  0.1267  0.5069 -0.1642
 4166SOL     OW16435   3.298   2.105   1.482 -0.5968  0.2924  0.3398
 4166SOL    HW216436   3.220   2.162   1.483  0.2584  1.4844  0.8352
 4166SOL    HW316437   3.275   2.032   1.540 -1.2437  0.7705  0.6943
 4166SOL    MW416438   3.284   2.103   1.490 -0.2826  0.4958  0.4343
 4167SOL     OW16439   1.990   1.603   1.040 -0.2996  0.2829 -0.5822
 4167SOL    HW216440   2.074   1.633   1.006  0.1892 -1.4790 -1.0226
 4167SOL    HW316441   1.984   1.511   1.014 -1.6588 -0.0716  0.7834
 4167SOL    MW416442   2.000   1.594   1.032  0.1589 -0.1763 -0.4005
 4168SOL     OW16443   0.664   1.035   5.393  0.0398 -0.4004  0.5730
 4168SOL    HW216444   0.593   1.099   5.386 -1.4049 -1.9120  0.6437
 4168SOL    HW316445   0.735   1.083   5.436 -0.6200  1.4035 -0.2291
 4168SOL    MW416446   0.664   1.050   5.398 -0.0955  0.3820 -0.0578
 4169SOL     OW16447   3.170   2.777   3.710 -0.2534  0.3144  0.0410
 4169SOL    HW216448   3.076   2.779   3.730 -0.3886  2.7555 -0.5065
 4169SOL    HW316449   3.187   2.861   3.669  2.1914 -0.1070  0.0562
 4169SOL    MW416450   3.160   2.788   3.707 -0.3545  0.1746 -0.6352
 4170SOL     OW16451   0.731   0.776   5.720  0.0615  0.0231 -0.1610
 4170SOL    HW216452   0.823   0.773   5.692 -0.4711 -0.9284 -1.9914
 4170SOL    HW316453   0.681   0.783   5.639 -1.4692  2.5045  0.8957
 4170SOL    MW416454   0.737   0.776   5.706 -0.1346  0.1131 -0.1604
 4171SOL     OW16455   4.323   3.907   5.543  0.0663 -0.2403  0.2091
 4171SOL    HW216456   4.361   3.947   5.465  1.3337 -0.2236  0.8148
 4171SOL    HW316457   4.277   3.829   5.511  2.3925 -1.4733 -0.3671
 4171SOL    MW416458   4.322   3.902   5.529 -0.2426  1.1392  0.4369
 4172SOL     OW16459   0.598   0.976   5.093  0.0898  0.0613  0.0410
 4172SOL    HW216460   0.629   0.991   5.182 -0.0300  2.6195 -0.2641
 4172SOL    HW316461   0.674   0.994   5.038  0.2979 -1.9858 -0.3964
 4172SOL    MW416462   0.612   0.980   5.097  0.3196  0.1667 -0.5566
 4173SOL     OW16463   0.620   0.318   0.279  0.1182 -0.0434  0.5603
 4173SOL    HW216464   0.644   0.347   0.191 -0.0276  0.9677  0.8333
 4173SOL    HW316465   0.547   0.375   0.304  1.1664  0.7940  1.9347
 4173SOL    MW416466   0.614   0.330   0.271  0.2395 -0.0318 -0.7288
 4174SOL     OW16467   6.218   1.431   3.843  0.3210  0.2053  0.0561
 4174SOL    HW216468   6.202   1.394   3.930 -1.4053  0.8592  0.0613
 4174SOL    HW316469   6.253   1.518   3.859  1.4110 -0.2176  0.0617
 4174SOL    MW416470   6.220   1.438   3.857 -0.1730  0.3428  0.4266
 4175SOL     OW16471   2.976   3.683   3.429  0.3922  0.0773 -0.1102
 4175SOL    HW216472   3.023   3.701   3.510 -0.1802 -0.3338  0.3156
 4175SOL    HW316473   2.959   3.589   3.431  0.5859  0.0235 -0.8201
 4175SOL    MW416474   2.980   3.673   3.440  0.3821  0.6319  0.3056
 4176SOL     OW16475   4.045   3.406   6.402 -0.6680  0.0556  0.4907
 4176SOL    HW216476   4.097   3.487   6.393 -0.0595 -0.3840 -0.0551
 4176SOL    HW316477   3.974   3.430   6.462 -0.7180  1.1006  0.0425
 4176SOL    MW416478   4.043   3.420   6.409  0.3526  0.0903  0.3124
 4177SOL     OW16479   3.688   3.673   6.406  0.2962 -0.2268 -0.3089
 4177SOL    HW216480   3.616   3.662   6.469  0.7627 -0.9238  0.1215
 4177SOL    HW316481   3.764   3.694   6.460  0.3856  0.6840 -0.7777
 4177SOL    MW416482   3.688   3.674   6.422  0.6146  0.2648 -0.0578
 4178SOL     OW16483   4.368   3.468   6.087 -0.1838  0.9831 -0.5102
 4178SOL    HW216484   4.377   3.482   6.181 -0.6682  2.1134 -0.6111
 4178SOL    HW316485   4.457   3.465   6.054  0.3484 -4.5448  0.5784
 4178SOL    MW416486   4.381   3.470   6.095  0.4594 -0.1391  0.1271
 4179SOL     OW16487   5.513   1.169   4.096 -0.4740 -0.7262  0.0475
 4179SOL    HW216488   5.553   1.217   4.169  0.2314 -1.8427  0.4240
 4179SOL    HW316489   5.587   1.131   4.050 -0.9952 -1.0067 -0.5698
 4179SOL    MW416490   5.528   1.171   4.100  0.5520  0.0418 -0.2974
 4180SOL     OW16491   1.683   5.511   5.568 -0.0313 -0.6594 -0.4778
 4180SOL    HW216492   1.587   5.517   5.573 -0.0952 -1.6382 -0.3273
 4180SOL    HW316493   1.713   5.601   5.580 -0.8496 -0.5939  1.6380
 4180SOL    MW416494   1.674   5.523   5.570  0.2394 -0.0745  0.2149
 4181SOL     OW16495   6.263   0.436   5.968 -0.4505  0.0201 -0.6490
 4181SOL    HW216496   6.248   0.527   5.941 -1.2044  0.0076 -0.2907
 4181SOL    HW316497   6.184   0.390   5.943 -0.1777 -0.4881 -0.5853
 4181SOL    MW416498   6.251   0.442   5.961 -1.0263 -0.2966  0.3107
 4182SOL     OW16499   0.384   5.906   3.828 -0.1122 -0.4664 -0.8756
 4182SOL    HW216500   0.406   5.940   3.915 -1.2545  0.4597 -0.9239
 4182SOL    HW316501   0.293   5.878   3.836 -0.7135  1.0144 -2.1542
 4182SOL    MW416502   0.375   5.907   3.841 -0.0672  0.1684 -0.1144
 4183SOL     OW16503   1.991   1.976   1.584  0.1962 -0.2649 -0.2015
 4183SOL    HW216504   2.063   1.912   1.587  0.3919 -0.0279  2.6108
 4183SOL    HW316505   2.003   2.030   1.662 -0.9148  2.2245 -1.6328
 4183SOL    MW416506   2.002   1.974   1.594  0.3498 -0.0433 -0.3072
 4184SOL     OW16507   3.997   1.343   1.098 -0.5682 -0.0136 -0.7361
 4184SOL    HW216508   3.941   1.271   1.067  0.6992 -1.3848  0.0497
 4184SOL    HW316509   4.086   1.313   1.082  0.0160  0.8756  0.7095
 4184SOL    MW416510   4.001   1.329   1.092  0.3155  0.8860  0.5819
 4185SOL     OW16511   4.066   1.293   3.311 -0.3347  0.1360 -0.0025
 4185SOL    HW216512   4.104   1.209   3.336  2.2585  0.3331 -2.6361
 4185SOL    HW316513   3.979   1.272   3.278 -0.2621 -1.3121  0.6800
 4185SOL    MW416514   4.059   1.279   3.310  0.0411 -0.3073  0.0570
 4186SOL     OW16515   0.191   6.198   4.687 -0.0387  0.1471 -0.1070
 4186SOL    HW216516   0.165   6.106   4.682 -0.9950  0.2901  1.6732
 4186SOL    HW316517   0.284   6.195   4.710 -0.6720 -0.4491  2.7448
 4186SOL    MW416518   0.200   6.185   4.689 -0.0775 -0.2746 -0.0889
 4187SOL     OW16519   5.576   6.114   5.108 -0.5533 -0.8726  0.3860
 4187SOL    HW216520   5.663   6.074   5.112  0.0245  0.3895  1.6174
 4187SOL    HW316521   5.539   6.099   5.195 -0.3062  1.1940  0.9024
 4187SOL    MW416522   5.582   6.107   5.120  0.3256  0.1687 -0.3896
 4188SOL     OW16523   5.509   4.705   5.832 -0.1061 -0.2744 -0.2933
 4188SOL    HW216524   5.561   4.779   5.802 -0.5100 -0.3878 -1.3272
 4188SOL    HW316525   5.446   4.690   5.761 -1.0453 -0.6194  0.5925
 4188SOL    MW416526   5.508   4.713   5.819 -0.0580  0.6565  0.2496
 4189SOL     OW16527   0.603   5.283   6.077 -0.1658 -0.5522 -0.5217
 4189SOL    HW216528   0.646   5.317   5.998  0.4589  1.0702  0.4792
 4189SOL    HW316529   0.574   5.195   6.052  0.0803 -0.1101 -2.5286
 4189SOL    MW416530   0.605   5.275   6.063 -0.2229  0.7134  0.0054
 4190SOL     OW16531   0.701   2.848   4.335  0.2005 -0.3495  0.4370
 4190SOL    HW216532   0.729   2.817   4.249 -0.4805  1.0920 -0.3410
 4190SOL    HW316533   0.610   2.818   4.343 -1.5120  3.5227 -1.5717
 4190SOL    MW416534   0.693   2.840   4.325 -0.1279 -0.5322  0.2501
 4191SOL     OW16535   0.756   0.968   2.183  0.5853  0.0103  0.2617
 4191SOL    HW216536   0.695   1.022   2.233 -1.9395 -1.3233 -1.1982
 4191SOL    HW316537   0.715   0.882   2.179  2.9262 -1.1767 -0.2373
 4191SOL    MW416538   0.743   0.964   2.189 -0.3443 -0.8606 -0.0750
 4192SOL     OW16539   5.543   2.841   3.580 -0.7924 -0.1108 -0.3642
 4192SOL    HW216540   5.489   2.919   3.595 -3.4650 -2.0711  0.9272
 4192SOL    HW316541   5.585   2.825   3.665  0.4837  0.3571 -0.8733
 4192SOL    MW416542   5.541   2.849   3.593  0.3861  0.1616 -0.7087
 4193SOL     OW16543   3.630   5.103   1.242 -0.2657  0.0380 -0.2590
 4193SOL    HW216544   3.626   5.038   1.172  1.8748  0.8407 -1.2236
 4193SOL    HW316545   3.720   5.098   1.275 -0.9306  0.3879  1.7846
 4193SOL    MW416546   3.641   5.094   1.237  0.3132  0.4658 -0.3440
 4194SOL     OW16547   1.084   0.626   0.673  0.0157 -0.0912  0.2671
 4194SOL    HW216548   1.154   0.669   0.623 -0.0452  0.3991  0.5904
 4194SOL    HW316549   1.003   0.655   0.631  0.0024 -0.5420 -0.0169
 4194SOL    MW416550   1.083   0.635   0.661 -0.0638 -0.0679 -0.0298
 4195SOL     OW16551   1.186   3.416   3.762  0.6018  0.0578 -0.3956
 4195SOL    HW216552   1.196   3.322   3.777  0.5120  0.1629  0.3682
 4195SOL    HW316553   1.119   3.444   3.824  0.5071  0.5981 -0.7288
 4195SOL    MW416554   1.179   3.408   3.772 -0.0050 -0.7260  0.4456
 4196SOL     OW16555   5.402   5.246   1.811 -0.3107  0.2803 -0.1335
 4196SOL    HW216556   5.433   5.170   1.762 -0.3163 -0.0450  0.3606
 4196SOL    HW316557   5.472   5.311   1.801  0.6428 -0.5015  1.1014
 4196SOL    MW416558   5.415   5.245   1.803  0.2547 -0.1061 -0.0909
 4197SOL     OW16559   1.521   1.247   5.629 -0.0402 -0.0028 -0.0924
 4197SOL    HW216560   1.492   1.208   5.547 -0.2463  1.8403 -0.9414
 4197SOL    HW316561   1.615   1.259   5.618  0.1838 -1.0132  0.5263
 4197SOL    MW416562   1.530   1.243   5.617  0.4964 -0.4030  0.2113
 4198SOL     OW16563   0.134   2.579   5.296  0.0901  0.1910  0.4530
 4198SOL    HW216564   0.206   2.538   5.345 -0.8828 -0.6314  1.2415
 4198SOL    HW316565   0.159   2.571   5.204  0.2351 -1.6158  0.6214
 4198SOL    MW416566   0.147   2.573   5.291  0.1383 -0.1736  0.2206
 4199SOL     OW16567   0.639   6.369   2.641 -0.4857  0.0609  0.9225
 4199SOL    HW216568   0.686   6.380   2.723 -0.3339 -1.2963  1.0458
 4199SOL    HW316569   0.597   6.283   2.649  0.6971 -0.7476 -0.9583
 4199SOL    MW416570   0.640   6.359   2.653 -0.5692  0.5506  0.0440
 4200SOL     OW16571   5.084   2.023   4.455 -0.1259 -0.4077  0.3517
 4200SOL    HW216572   5.131   2.105   4.443  0.4622 -0.5418  1.6409
 4200SOL    HW316573   5.148   1.955   4.437 -0.7594 -0.6331 -1.2913
 4200SOL    MW416574   5.099   2.025   4.451  0.1356 -0.0749 -0.2324
 4201SOL     OW16575   4.645   6.386   1.091 -0.3205  0.0633 -0.3852
 4201SOL    HW216576   4.666   6.312   1.034 -1.4503  0.0381 -0.7896
 4201SOL    HW316577   4.647   6.462   1.034  0.9398  0.3728  0.0517
 4201SOL    MW416578   4.648   6.386   1.076  0.4740  0.2827 -0.0400
 4202SOL     OW16579   3.048   3.467   0.393 -0.3185 -0.3734  0.0649
 4202SOL    HW216580   2.956   3.452   0.415 -0.2861 -0.2354  0.3044
 4202SOL    HW316581   3.065   3.410   0.318 -0.4777 -0.7312  0.2992
 4202SOL    MW416582   3.038   3.457   0.386 -0.0404 -0.2842  0.4319
 4203SOL     OW16583   6.124   4.641   2.831  0.1199  0.0642 -0.5978
 4203SOL    HW216584   6.133   4.548   2.849  2.6251  0.7159  2.3833
 4203SOL    HW316585   6.074   4.675   2.905  0.3141  1.2668 -0.9944
 4203SOL    MW416586   6.118   4.633   2.843 -0.1555  0.3195  0.1625
 4204SOL     OW16587   1.816   0.663   3.109 -0.0647 -0.4603  0.3837
 4204SOL    HW216588   1.903   0.627   3.090 -0.6762 -1.3633 -0.8383
 4204SOL    HW316589   1.757   0.589   3.098 -1.1510  0.4809 -0.3198
 4204SOL    MW416590   1.820   0.648   3.105  0.3891  0.4194 -0.4770
 4205SOL     OW16591   3.487   2.183   1.857  0.6530 -0.7591 -0.2526
 4205SOL    HW216592   3.531   2.253   1.809  1.7035  0.5037  2.3519
 4205SOL    HW316593   3.394   2.203   1.848  0.9242  0.9228  0.3235
 4205SOL    MW416594   3.481   2.195   1.849  0.5819  0.5086  0.2965
 4206SOL     OW16595   6.345   0.218   6.333  0.3386 -0.5359 -0.3236
 4206SOL    HW216596   6.254   0.199   6.312  0.4750 -1.7598  0.0992
 4206SOL    HW316597   6.348   0.313   6.345 -0.8495 -0.4690 -0.4653
 4206SOL    MW416598   6.334   0.228   6.332  0.6530  0.7148  0.2754
 4207SOL     OW16599   4.553   0.784   5.077 -0.1518  0.0926 -0.4097
 4207SOL    HW216600   4.477   0.800   5.022  0.2275  0.5893 -0.7946
 4207SOL    HW316601   4.610   0.859   5.061  0.3134 -0.1590  0.0562
 4207SOL    MW416602   4.550   0.796   5.068  0.7734  0.5336  0.2338
 4208SOL     OW16603   5.909   3.416   1.582 -0.3989 -0.2624  0.0658
 4208SOL    HW216604   5.907   3.477   1.656 -0.4468 -0.8765  0.5779
 4208SOL    HW316605   5.966   3.459   1.518 -1.7720  1.0960 -0.2911
 4208SOL    MW416606   5.916   3.430   1.583  0.0172  0.2594  0.1040
 4209SOL     OW16607   5.278   6.052   1.661 -0.0841 -0.1837 -0.2952
 4209SOL    HW216608   5.216   5.997   1.612  0.6515 -0.0445 -1.4168
 4209SOL    HW316609   5.360   6.002   1.659  0.2389  0.3367 -0.1507
 4209SOL    MW416610   5.281   6.038   1.654 -0.0421 -0.9582  0.4209
 4210SOL     OW16611   4.286   2.674   5.166  0.1960 -0.1132  0.0404
 4210SOL    HW216612   4.293   2.768   5.183 -0.8075 -0.0138 -0.0346
 4210SOL    HW316613   4.221   2.667   5.096  0.3940 -0.8582 -0.0824
 4210SOL    MW416614   4.279   2.686   5.159 -0.2204 -0.0050  0.1483
 4211SOL     OW16615   2.914   2.132   0.114  0.4822  0.1882  0.4516
 4211SOL    HW216616   2.906   2.128   0.019  2.2462 -1.0305  0.2887
 4211SOL    HW316617   2.886   2.220   0.137 -1.6895 -0.0597 -0.9712
 4211SOL    MW416618   2.909   2.143   0.105 -0.1750  0.3379  0.1581
 4212SOL     OW16619   4.942   0.156   1.059  0.8700  0.0727 -0.8298
 4212SOL    HW216620   5.035   0.178   1.050  0.6121  1.2869 -0.6302
 4212SOL    HW316621   4.896   0.220   1.005  0.1681 -0.8811 -1.3975
 4212SOL    MW416622   4.948   0.167   1.051  0.3534 -0.3044  0.7874
 4213SOL     OW16623   4.735   5.974   5.063 -0.4367 -0.1077  0.1612
 4213SOL    HW216624   4.767   5.908   5.125 -1.1726 -0.1305  0.5366
 4213SOL    HW316625   4.799   5.974   4.993 -1.1487 -2.3083 -0.5972
 4213SOL    MW416626   4.747   5.965   5.062 -0.3350 -0.0153 -0.1690
 4214SOL     OW16627   0.725   3.625   0.085  0.3625  0.1959  0.2407
 4214SOL    HW216628   0.810   3.669   0.089 -0.6115  2.3233 -0.7677
 4214SOL    HW316629   0.670   3.672   0.148  0.0089 -1.4261  1.1961
 4214SOL    MW416630   0.729   3.637   0.094 -0.3530  0.3486 -0.5047
 4215SOL     OW16631   3.576   2.936   1.417 -0.1993 -0.3650 -0.5525
 4215SOL    HW216632   3.666   2.964   1.431 -0.1184 -1.1287  0.5122
 4215SOL    HW316633   3.583   2.865   1.353 -0.2545  0.8433 -1.9682
 4215SOL    MW416634   3.589   2.931   1.410 -0.1709 -0.1416 -0.3910
 4216SOL     OW16635   5.962   0.448   4.302 -0.1581  0.8228  0.9735
 4216SOL    HW216636   5.869   0.443   4.280  0.0170  1.6072 -0.0248
 4216SOL    HW316637   5.997   0.363   4.278  0.0478  1.6554 -2.0944
 4216SOL    MW416638   5.954   0.436   4.296 -0.0393 -0.2288  0.0272
 4217SOL     OW16639   2.161   2.191   2.362 -0.1880 -0.1360 -0.2527
 4217SOL    HW216640   2.251   2.219   2.382  0.5505 -0.9158 -2.2811
 4217SOL    HW316641   2.164   2.096   2.367 -1.1768 -0.1426  0.5937
 4217SOL    MW416642   2.173   2.182   2.365  0.3174  0.6077  0.7152
 4218SOL     OW16643   1.863   2.033   5.936  0.3667  0.2420 -0.5165
 4218SOL    HW216644   1.954   2.021   5.911  0.8627  0.2643  1.1842
 4218SOL    HW316645   1.836   1.949   5.973  0.7473  1.1286  1.9908
 4218SOL    MW416646   1.871   2.021   5.937 -0.1863  0.2642 -0.0267
 4219SOL     OW16647   3.141   1.724   5.218 -0.1744 -0.1549 -0.2310
 4219SOL    HW216648   3.216   1.774   5.185 -0.3907  1.6998  1.8094
 4219SOL    HW316649   3.072   1.737   5.153  0.2079  1.1161 -0.4096
 4219SOL    MW416650   3.142   1.733   5.205  0.0666  0.0310  0.2505
 4220SOL     OW16651   3.472   4.940   1.993 -0.0644 -0.2285 -0.2924
 4220SOL    HW216652   3.550   4.975   1.949 -0.4627  0.1293 -0.7347
 4220SOL    HW316653   3.419   4.905   1.921 -0.7564  0.4260 -0.1115
 4220SOL    MW416654   3.476   4.940   1.978  0.2396  0.2006  0.1638
 4221SOL     OW16655   2.287   1.879   3.033 -0.5992  0.3246 -0.0598
 4221SOL    HW216656   2.354   1.941   3.062  0.9208 -0.7309 -1.1305
 4221SOL    HW316657   2.334   1.819   2.975 -2.2110 -1.2349  0.1633
 4221SOL    MW416658   2.302   1.879   3.029  0.4131  0.2674 -0.5834
 4222SOL     OW16659   6.412   0.533   1.925  0.1994 -0.0797  0.6468
 4222SOL    HW216660   6.344   0.601   1.928 -0.6738 -0.7865 -1.3779
 4222SOL    HW316661   6.492   0.578   1.954 -0.6593  1.4016  0.8062
 4222SOL    MW416662   6.414   0.548   1.929  0.3791 -0.2232 -0.3687
 4223SOL     OW16663   1.651   0.839   4.457 -0.9895  0.0404 -0.0188
 4223SOL    HW216664   1.659   0.901   4.385 -0.8015  0.5224  0.4108
 4223SOL    HW316665   1.579   0.781   4.431 -1.0674  0.3431 -0.4880
 4223SOL    MW416666   1.643   0.839   4.444 -0.0118  0.2715  0.2443
 4224SOL     OW16667   5.289   5.961   4.006  0.3738 -0.5856 -0.5629
 4224SOL    HW216668   5.230   5.917   4.067  1.2773 -0.9099  0.0923
 4224SOL    HW316669   5.234   6.026   3.962 -0.4072 -0.7091  0.2132
 4224SOL    MW416670   5.274   5.964   4.008 -0.9054 -0.0227 -0.7588
 4225SOL     OW16671   1.419   0.410   0.283 -0.2909  0.0409 -0.2632
 4225SOL    HW216672   1.393   0.428   0.373 -2.1907 -1.9025 -0.3337
 4225SOL    HW316673   1.386   0.485   0.233 -0.6075  0.3880  0.4457
 4225SOL    MW416674   1.411   0.422   0.288  0.0583  0.3516  0.4268
 4226SOL     OW16675   2.953   2.422   5.040 -0.1977 -0.2792 -0.0866
 4226SOL    HW216676   2.863   2.455   5.037 -0.7744 -1.8038 -2.6259
 4226SOL    HW316677   3.007   2.500   5.027 -1.3385  0.3004 -1.8016
 4226SOL    MW416678   2.948   2.436   5.038  0.7124  1.0428 -0.0061
 4227SOL     OW16679   3.915   4.352   5.772  0.0823  0.0502 -0.5924
 4227SOL    HW216680   3.976   4.420   5.800 -0.5196  1.2517 -2.0658
 4227SOL    HW316681   3.969   4.273   5.768  1.4666  0.9841 -1.4195
 4227SOL    MW416682   3.930   4.350   5.775 -0.7687  0.5103  0.6381
 4228SOL     OW16683   3.839   3.438   0.147  0.0824  0.1937 -0.0407
 4228SOL    HW216684   3.748   3.429   0.120  0.3989  0.0848 -1.0967
 4228SOL    HW316685   3.850   3.370   0.214 -0.0024 -1.4107 -1.5640
 4228SOL    MW416686   3.829   3.428   0.152  0.0448  0.0731 -0.0446
 4229SOL     OW16687   1.207   0.711   5.130 -0.2148  0.2819 -0.1053
 4229SOL    HW216688   1.194   0.762   5.050 -1.3423 -1.2821 -0.9875
 4229SOL    HW316689   1.300   0.685   5.127  0.3292  2.0719  0.2851
 4229SOL    MW416690   1.218   0.714   5.119 -0.2250 -0.4611 -0.8280
 4230SOL     OW16691   2.335   1.627   1.246 -0.2094  0.1453 -0.5257
 4230SOL    HW216692   2.301   1.542   1.217 -1.3657  0.5433 -0.3749
 4230SOL    HW316693   2.257   1.678   1.268  0.4778  1.2125 -0.5018
 4230SOL    MW416694   2.320   1.622   1.245 -0.6361 -0.0260  0.1584
 4231SOL     OW16695   1.624   5.237  -0.005 -0.0440 -0.1314 -0.6349
 4231SOL    HW216696   1.578   5.207  -0.083  1.5788 -0.7518 -1.4170
 4231SOL    HW316697   1.594   5.178   0.065 -1.1353  0.1086 -0.8911
 4231SOL    MW416698   1.614   5.225  -0.006  0.5796 -1.2889 -0.1235
 4232SOL     OW16699   4.226   4.832   5.474  0.2259  0.3649  0.0500
 4232SOL    HW216700   4.242   4.810   5.382  1.9313  1.2619  0.1013
 4232SOL    HW316701   4.158   4.770   5.502 -1.8077  1.3509 -2.3321
 4232SOL    MW416702   4.219   4.821   5.465 -0.1254 -0.6347 -0.3359
 4233SOL     OW16703   0.293   1.711   1.875 -0.1155 -0.4827  0.2370
 4233SOL    HW216704   0.318   1.670   1.792  1.7376 -0.6484  0.8455
 4233SOL    HW316705   0.231   1.779   1.850  0.4148 -0.5236 -1.2874
 4233SOL    MW416706   0.288   1.714   1.861 -0.7195 -0.4823 -0.4002
 4234SOL     OW16707   2.837   3.474   2.476  0.2596  0.5061  0.2350
 4234SOL    HW216708   2.911   3.509   2.425  2.0049 -2.2347  0.6249
 4234SOL    HW316709   2.852   3.379   2.476 -3.1408 -0.1509  0.6490
 4234SOL    MW416710   2.849   3.466   2.469  0.4243 -0.1746 -0.7307
 4235SOL     OW16711   6.079   5.139   2.796  0.1539 -0.7388  0.0335
 4235SOL    HW216712   6.100   5.224   2.836  0.5914 -0.1659 -1.3746
 4235SOL    HW316713   6.012   5.102   2.854  0.0389  0.5075  0.7364
 4235SOL    MW416714   6.073   5.145   2.809 -0.1621 -0.3305  0.3984
 4236SOL     OW16715   4.157   2.796   1.598  0.2599 -0.6551 -0.6753
 4236SOL    HW216716   4.078   2.850   1.610  0.5625 -0.4168  0.3383
 4236SOL    HW316717   4.174   2.760   1.684  1.1453 -0.8793 -0.9398
 4236SOL    MW416718   4.149   2.799   1.611 -0.3163  0.1532  0.6925
 4237SOL     OW16719   5.038   4.872   0.093  0.2280 -0.1996 -0.3185
 4237SOL    HW216720   4.975   4.863   0.021 -0.0996  0.2476 -0.0898
 4237SOL    HW316721   5.052   4.782   0.123 -0.6019 -0.2745 -0.1195
 4237SOL    MW416722   5.032   4.859   0.087 -0.1401  0.0162 -0.6692
 4238SOL     OW16723   5.065   0.324   4.456 -0.1974  0.2226 -0.3806
 4238SOL    HW216724   5.119   0.381   4.401 -0.2791 -0.5795 -1.3234
 4238SOL    HW316725   5.103   0.237   4.443 -0.8532 -0.1315  0.0453
 4238SOL    MW416726   5.077   0.320   4.447  0.3361 -0.1102  0.1836
 4239SOL     OW16727   6.230   3.043   3.497 -0.0664  0.0157  0.4412
 4239SOL    HW216728   6.292   2.994   3.444  0.3207  1.1516 -0.1967
 4239SOL    HW316729   6.277   3.064   3.577  0.1207  0.2590  0.2654
 4239SOL    MW416730   6.244   3.039   3.501  0.6636 -0.0509  0.5891
 4240SOL     OW16731   3.856   5.350   2.443  0.2381 -0.1317 -0.1276
 4240SOL    HW216732   3.919   5.414   2.476 -0.7052  1.5413 -1.4107
 4240SOL    HW316733   3.873   5.346   2.349 -0.2325 -1.2110 -0.1819
 4240SOL    MW416734   3.867   5.358   2.435  0.1438  0.2610 -0.1738
 4241SOL     OW16735   1.611   6.165   2.769  0.4189 -0.0982  0.6108
 4241SOL    HW216736   1.673   6.096   2.745 -1.1798 -1.5769  0.5676
 4241SOL    HW316737   1.585   6.144   2.859  1.2822  1.5499  1.3083
 4241SOL    MW416738   1.616   6.153   2.778  0.6974 -0.1902  0.3441
 4242SOL     OW16739   0.076   6.313   1.151 -0.2050 -0.4793  0.4424
 4242SOL    HW216740   0.167   6.340   1.167 -0.6781  2.0178 -0.6135
 4242SOL    HW316741   0.084   6.241   1.088  1.0599 -0.6137  0.7150
 4242SOL    MW416742   0.089   6.308   1.145  0.5088  0.1801 -0.4638
 4243SOL     OW16743   2.471   0.913   6.054 -0.0864 -0.7912 -0.1796
 4243SOL    HW216744   2.440   0.851   6.120  0.6864  0.7121  1.6759
 4243SOL    HW316745   2.402   0.980   6.050 -1.3474 -2.0687 -2.8108
 4243SOL    MW416746   2.458   0.913   6.062  0.4393 -0.0861  0.6076
 4244SOL     OW16747   1.881   4.259   5.685  0.6005 -0.0872 -0.0249
 4244SOL    HW216748   1.882   4.345   5.728 -1.8643  0.1103 -0.2091
 4244SOL    HW316749   1.852   4.198   5.752  1.6592 -0.6848 -0.0899
 4244SOL    MW416750   1.878   4.263   5.699 -0.3594 -0.2023  0.7688
 4245SOL     OW16751   2.511   3.985   0.524  0.3272 -0.1747  0.2042
 4245SOL    HW216752   2.515   3.986   0.620 -0.6423 -0.1396  0.2546
 4245SOL    HW316753   2.445   3.919   0.504 -1.0659  1.3292 -0.3637
 4245SOL    MW416754   2.503   3.976   0.534  0.3342 -0.4331 -0.3815
 4246SOL     OW16755   5.131   4.720   4.452  0.5732  0.0101  0.1629
 4246SOL    HW216756   5.121   4.747   4.360 -0.0687  0.8468  0.4640
 4246SOL    HW316757   5.219   4.750   4.476  0.1665  1.1896  0.2614
 4246SOL    MW416758   5.141   4.728   4.443  0.4724  0.1048  0.0395
 4247SOL     OW16759   4.694   0.882   4.829 -0.2501  0.4884 -0.1976
 4247SOL    HW216760   4.653   0.801   4.797  0.0807 -0.3093  1.2805
 4247SOL    HW316761   4.753   0.852   4.899 -0.6163  2.0766  0.8323
 4247SOL    MW416762   4.697   0.867   4.834  0.7570  0.1891  0.3575
 4248SOL     OW16763   2.188   1.898   2.368 -0.0031 -0.2954 -0.0154
 4248SOL    HW216764   2.281   1.887   2.388 -0.6048 -2.0495  2.2173
 4248SOL    HW316765   2.146   1.911   2.453 -1.7794  1.0918 -1.0238
 4248SOL    MW416766   2.195   1.898   2.382  0.3111  0.2068 -0.0739
 4249SOL     OW16767   0.144   4.325   2.407  0.2203  0.0480 -0.6686
 4249SOL    HW216768   0.149   4.334   2.312  0.9450 -0.5434 -0.6927
 4249SOL    HW316769   0.168   4.411   2.441 -0.6331  0.4332 -1.0282
 4249SOL    MW416770   0.148   4.337   2.399 -0.4650  0.6280  0.2189
 4250SOL     OW16771   1.908   5.827   4.857  0.1416 -0.6534  0.5096
 4250SOL    HW216772   1.896   5.772   4.935 -0.2764  0.8336  1.5299
 4250SOL    HW316773   1.898   5.766   4.784  1.7552 -2.3198  1.6046
 4250SOL    MW416774   1.905   5.812   4.858  0.2330  0.1017  0.1641
 4251SOL     OW16775   0.155   4.557   1.732 -0.2155 -0.2833 -0.2318
 4251SOL    HW216776   0.212   4.592   1.800 -2.1408  2.3136  0.2204
 4251SOL    HW316777   0.200   4.580   1.650  1.2056 -1.7635  0.0839
 4251SOL    MW416778   0.169   4.565   1.730  0.6139 -0.0791 -0.3134
 4252SOL     OW16779   5.062   3.014   2.248  0.1494 -0.1795  0.7133
 4252SOL    HW216780   5.145   3.060   2.261  0.3251 -0.1840 -0.3296
 4252SOL    HW316781   5.071   2.933   2.299  0.8949 -0.3034  0.3960
 4252SOL    MW416782   5.074   3.009   2.257  0.1914 -0.3316 -0.4122
 4253SOL     OW16783   0.024   5.537   6.352  0.7017  0.8778 -0.1346
 4253SOL    HW216784   0.035   5.532   6.447 -2.6298 -1.0929  0.3177
 4253SOL    HW316785   0.083   5.607   6.324  3.1116  0.3814  3.0924
 4253SOL    MW416786   0.034   5.545   6.361 -0.3393 -0.1563  0.2213
 4254SOL     OW16787   4.151   1.227   2.780  0.0546  0.3856  0.3408
 4254SOL    HW216788   4.173   1.157   2.841 -0.3463  0.7690  0.9482
 4254SOL    HW316789   4.073   1.268   2.819  0.0585  0.9185 -0.2017
 4254SOL    MW416790   4.144   1.223   2.793 -0.0645 -0.0963 -0.5342
 4255SOL     OW16791   0.913   4.868   2.763 -0.4454  0.2751 -0.0995
 4255SOL    HW216792   0.969   4.912   2.827  0.3514 -0.7670 -0.0537
 4255SOL    HW316793   0.975   4.830   2.700 -1.1936  0.8534 -1.2113
 4255SOL    MW416794   0.929   4.869   2.763 -0.4375  0.3263  0.2838
 4256SOL     OW16795   3.576   6.195   2.048  0.1839 -0.2871  0.3135
 4256SOL    HW216796   3.578   6.104   2.017 -2.0112 -0.3012  0.0423
 4256SOL    HW316797   3.497   6.200   2.103  0.3184  1.4377  0.4106
 4256SOL    MW416798   3.566   6.184   2.051 -0.0723  0.6711  0.1134
 4257SOL     OW16799   2.663   6.327   4.038 -0.0742  0.1136  0.1803
 4257SOL    HW216800   2.671   6.397   4.102 -2.3122 -0.9206  1.7260
 4257SOL    HW316801   2.731   6.264   4.062  1.7230  1.4930 -1.0092
 4257SOL    MW416802   2.673   6.328   4.050 -0.2536  0.5276  0.1885
 4258SOL     OW16803   3.857   0.703   0.103 -0.3515 -0.0992 -0.3493
 4258SOL    HW216804   3.936   0.752   0.082 -0.0016  0.2416  1.5225
 4258SOL    HW316805   3.817   0.683   0.019  0.6791  1.4606 -1.2471
 4258SOL    MW416806   3.862   0.707   0.089 -0.1636  0.2990  0.3872
 4259SOL     OW16807   3.498   2.819   0.669  0.6267  0.2747  0.1315
 4259SOL    HW216808   3.499   2.740   0.721 -1.4156  0.5125  0.6276
 4259SOL    HW316809   3.586   2.856   0.678  0.8650 -0.6421  1.8933
 4259SOL    MW416810   3.510   2.814   0.677  0.7587 -0.1546 -0.1543
 4260SOL     OW16811   6.006   0.333   5.981  0.4030  0.2969 -0.8530
 4260SOL    HW216812   5.988   0.307   5.891 -1.1119  0.8045 -0.7270
 4260SOL    HW316813   5.970   0.422   5.988 -0.4114 -0.0975  0.5101
 4260SOL    MW416814   5.999   0.341   5.970  0.2106 -0.4415  0.4272
 4261SOL     OW16815   0.097   2.639   6.268 -0.4869 -0.2525  0.8029
 4261SOL    HW216816   0.042   2.591   6.331 -0.4528 -1.9470 -0.4067
 4261SOL    HW316817   0.055   2.626   6.184 -0.2677  1.6029  0.3626
 4261SOL    MW416818   0.084   2.631   6.265 -0.1522 -0.1043 -0.8424
 4262SOL     OW16819   4.107   3.326   1.460  0.3279  0.5109  0.9018
 4262SOL    HW216820   4.132   3.407   1.416  1.5127  1.3898  3.0577
 4262SOL    HW316821   4.048   3.353   1.530 -0.4321 -0.6785  0.7479
 4262SOL    MW416822   4.103   3.340   1.463 -0.1764  0.4476  0.2169
 4263SOL     OW16823   4.176   5.663   4.620 -0.0892  0.1623 -0.1342
 4263SOL    HW216824   4.177   5.735   4.683 -0.5657 -0.7190  0.9352
 4263SOL    HW316825   4.097   5.676   4.569 -2.0938 -1.3937  2.3322
 4263SOL    MW416826   4.166   5.674   4.622 -0.4253 -0.6905  0.0679
 4264SOL     OW16827   4.634   1.781   0.759 -0.1621 -0.2679  0.9503
 4264SOL    HW216828   4.655   1.777   0.666  0.9408 -1.1172  1.2145
 4264SOL    HW316829   4.539   1.769   0.762 -0.1590 -0.6724 -0.0469
 4264SOL    MW416830   4.624   1.779   0.747  0.3672  0.2523 -0.2822
 4265SOL     OW16831   4.196   2.916   3.079 -0.2156  0.3244  0.2981
 4265SOL    HW216832   4.219   2.982   3.013 -0.1899  1.1631  1.1263
 4265SOL    HW316833   4.148   2.965   3.146 -1.3080 -0.7365  0.3317
 4265SOL    MW416834   4.193   2.931   3.079 -0.3961  0.7880  0.4697
 4266SOL     OW16835   4.529   6.129   6.220  0.2316  0.3069 -0.5892
 4266SOL    HW216836   4.623   6.146   6.215  0.0829  0.7863 -2.5871
 4266SOL    HW316837   4.495   6.156   6.135 -1.2835 -2.4930 -1.0079
 4266SOL    MW416838   4.537   6.134   6.208  0.0435  0.1579  0.0980
 4267SOL     OW16839   0.929   6.143   6.221  0.4221 -0.3265  0.0495
 4267SOL    HW216840   0.987   6.211   6.255  0.5995 -0.7311  0.5686
 4267SOL    HW316841   0.872   6.120   6.295 -0.3450  0.0007 -0.4234
 4267SOL    MW416842   0.929   6.149   6.236  0.4468  0.3389  0.0909
 4268SOL     OW16843   4.333   1.608   0.442 -0.5482  0.4998 -0.3637
 4268SOL    HW216844   4.371   1.644   0.522  0.4207  0.3711 -0.7563
 4268SOL    HW316845   4.313   1.517   0.464  0.3826  0.2557 -0.4657
 4268SOL    MW416846   4.336   1.601   0.455 -0.0789  0.4250  0.3615
 4269SOL     OW16847   4.951   4.173   1.383  0.0945 -0.4048  0.1607
 4269SOL    HW216848   5.022   4.117   1.355 -0.4901 -0.7396 -0.6884
 4269SOL    HW316849   4.989   4.228   1.452  1.7319  0.8173 -1.6161
 4269SOL    MW416850   4.965   4.173   1.388 -0.4415 -0.7129  0.2184
 4270SOL     OW16851   2.189   2.320   0.529  0.0141 -0.0917 -0.2879
 4270SOL    HW216852   2.248   2.390   0.555  0.4086 -1.2099  2.0861
 4270SOL    HW316853   2.246   2.254   0.489 -0.2188  0.4824 -1.6058
 4270SOL    MW416854   2.204   2.321   0.527  0.2807 -0.6839 -0.0758
 4271SOL     OW16855   4.084   0.913   0.091  0.6911 -0.2402 -0.1776
 4271SOL    HW216856   4.160   0.860   0.068  0.2382 -1.6254  1.3319
 4271SOL    HW316857   4.094   0.930   0.185  0.7510  2.2981 -0.5909
 4271SOL    MW416858   4.095   0.908   0.100  1.2455  0.0378 -0.1241
 4272SOL     OW16859   3.097   1.565   1.693 -0.3091  0.0430  0.3266
 4272SOL    HW216860   3.125   1.600   1.608 -1.5553  0.0008 -0.1194
 4272SOL    HW316861   3.023   1.508   1.672  0.3978 -1.2787  1.2685
 4272SOL    MW416862   3.091   1.562   1.679  0.1663  0.1678 -0.2119
 4273SOL     OW16863   1.639   1.347   4.468 -0.1315 -0.0235  0.0228
 4273SOL    HW216864   1.545   1.334   4.456 -0.3871  1.2925  0.4813
 4273SOL    HW316865   1.666   1.402   4.395  0.4795 -1.1421 -0.6169
 4273SOL    MW416866   1.630   1.352   4.457 -0.2302  1.0223 -0.0180
 4274SOL     OW16867   3.443   4.603   3.927 -0.2733  0.4129  0.5100
 4274SOL    HW216868   3.470   4.669   3.863 -0.0469 -0.2373 -0.0807
 4274SOL    HW316869   3.524   4.561   3.955 -0.5155 -0.4834 -0.0901
 4274SOL    MW416870   3.457   4.606   3.922 -0.1854 -0.5477  0.0401
 4275SOL     OW16871   2.220   1.225   5.338 -0.2323  0.2043 -0.0756
 4275SOL    HW216872   2.135   1.181   5.331 -0.7261  1.3278 -1.8828
 4275SOL    HW316873   2.242   1.250   5.248  2.0767 -0.1033  0.3402
 4275SOL    MW416874   2.211   1.223   5.325 -0.4607  0.3624  0.1983
 4276SOL     OW16875   3.154   4.817   6.274  0.1444  0.7247  0.3097
 4276SOL    HW216876   3.153   4.805   6.179  0.7354  2.0568  0.1099
 4276SOL    HW316877   3.062   4.826   6.298 -0.0464 -0.1542 -0.0486
 4276SOL    MW416878   3.142   4.816   6.265  0.1888  0.0953 -0.3077
 4277SOL     OW16879   4.569   3.826   4.755  0.2914 -0.1638  0.1644
 4277SOL    HW216880   4.647   3.827   4.811  0.9448 -1.9722 -0.6427
 4277SOL    HW316881   4.561   3.735   4.727 -1.2017  0.3122 -1.0612
 4277SOL    MW416882   4.579   3.814   4.759  0.4388  0.7493  0.7534
 4278SOL     OW16883   5.542   2.706   1.572  0.2473 -0.2668 -0.3679
 4278SOL    HW216884   5.572   2.731   1.484 -1.1072  1.1455 -0.4716
 4278SOL    HW316885   5.451   2.735   1.575  0.9888  2.2313  2.3868
 4278SOL    MW416886   5.534   2.713   1.561 -0.2878  0.4973 -0.0889
 4279SOL     OW16887   3.079   2.757   5.660  0.1598  0.1240  0.2554
 4279SOL    HW216888   3.080   2.852   5.646 -0.0110 -0.1358 -1.8802
 4279SOL    HW316889   3.149   2.742   5.724 -0.0798  1.7056  0.9428
 4279SOL    MW416890   3.089   2.768   5.667 -0.3149 -0.4992  0.5511
 4280SOL     OW16891   5.341   1.901   3.140 -0.2197  0.4576  0.5706
 4280SOL    HW216892   5.364   1.957   3.215  1.8282 -1.3980  1.4365
 4280SOL    HW316893   5.413   1.914   3.078  0.3115 -1.1799  0.8057
 4280SOL    MW416894   5.353   1.910   3.142  0.1034 -0.1731  0.0291
 4281SOL     OW16895   0.491   1.084   4.607  0.0507  0.5681 -1.0426
 4281SOL    HW216896   0.489   1.069   4.701 -0.8892 -0.9824 -1.2728
 4281SOL    HW316897   0.430   1.156   4.592 -2.4774 -1.3821 -0.7633
 4281SOL    MW416898   0.483   1.092   4.617  0.0859  0.0125  0.1078
 4282SOL     OW16899   0.690   3.433   4.480 -0.2417  0.5948 -0.0075
 4282SOL    HW216900   0.697   3.365   4.546  2.0316  0.5152 -0.2458
 4282SOL    HW316901   0.770   3.485   4.489  0.0026  0.7874 -2.4371
 4282SOL    MW416902   0.702   3.431   4.490 -0.3380 -0.1210  0.0570
 4283SOL     OW16903   2.459   0.973   4.045  0.4273 -0.3973  0.4679
 4283SOL    HW216904   2.378   0.961   4.094  0.0035 -0.4885 -0.2428
 4283SOL    HW316905   2.450   0.915   3.969  1.0382 -0.1985  0.2368
 4283SOL    MW416906   2.447   0.964   4.041  0.2934  0.2433  0.8321
 4284SOL     OW16907   2.988   0.276   5.620 -0.0562  0.3223 -0.3282
 4284SOL    HW216908   2.999   0.266   5.715  1.8640 -0.8334 -0.6166
 4284SOL    HW316909   2.895   0.263   5.605 -0.3952  0.5473  1.4081
 4284SOL    MW416910   2.977   0.273   5.631  0.4678 -0.6223 -0.2751
 4285SOL     OW16911   0.972   0.248   6.120 -0.2342 -0.6470  0.2296
 4285SOL    HW216912   1.064   0.269   6.136 -0.1593  0.1708 -1.0829
 4285SOL    HW316913   0.943   0.202   6.199  1.3035 -0.9509  0.6430
 4285SOL    MW416914   0.980   0.245   6.133 -0.2079 -0.2208  0.1749
 4286SOL     OW16915   4.799   4.890   5.114  0.4539  0.0504 -0.0135
 4286SOL    HW216916   4.882   4.903   5.068  0.7061 -0.2740  0.3455
 4286SOL    HW316917   4.815   4.817   5.173  0.1804  0.5418  0.6918
 4286SOL    MW416918   4.812   4.882   5.116 -0.0046 -0.3358 -0.3158
 4287SOL     OW16919   2.104   1.834   1.937 -0.1862 -0.1887  0.2509
 4287SOL    HW216920   2.070   1.880   2.014 -1.4620  0.2079 -0.5140
 4287SOL    HW316921   2.036   1.770   1.916 -0.0718  0.0345 -0.8233
 4287SOL    MW416922   2.091   1.831   1.945  0.6189  0.3936 -0.4092
 4288SOL     OW16923   5.253   5.224   2.640  0.0136  0.4362  0.2678
 4288SOL    HW216924   5.192   5.272   2.584  0.1377  0.0209 -0.2283
 4288SOL    HW316925   5.255   5.136   2.603  1.1800  0.5316  0.0668
 4288SOL    MW416926   5.245   5.219   2.628 -0.5135  1.2005 -0.1453
 4289SOL     OW16927   2.990   0.032   3.568 -0.0253 -0.0511 -0.1143
 4289SOL    HW216928   3.057   0.076   3.621  0.1047 -0.1717 -0.1781
 4289SOL    HW316929   2.907   0.055   3.610 -0.1286  1.8158 -1.2150
 4289SOL    MW416930   2.988   0.041   3.581  0.2873 -0.0310  0.0564
 4290SOL     OW16931   5.907   5.788   4.316 -0.2390  0.2214  0.6968
 4290SOL    HW216932   5.937   5.847   4.247  0.7851  2.0875  2.6186
 4290SOL    HW316933   5.960   5.709   4.305 -0.8536  0.0496 -1.2610
 4290SOL    MW416934   5.918   5.785   4.306 -0.0881 -0.0065 -0.3860
 4291SOL     OW16935   2.065   1.638   4.741 -0.1323  0.1251  0.1295
 4291SOL    HW216936   2.107   1.656   4.826 -1.8593 -0.7118  1.2132
 4291SOL    HW316937   2.130   1.666   4.676  1.6081 -0.0183  1.7099
 4291SOL    MW416938   2.079   1.644   4.744  0.0214  0.3322  0.2419
 4292SOL     OW16939   5.573   1.236   4.755 -0.2041 -0.2659 -0.4229
 4292SOL    HW216940   5.571   1.176   4.680 -2.4349 -1.3035  0.3699
 4292SOL    HW316941   5.487   1.277   4.755 -0.0318  0.1570  1.2388
 4292SOL    MW416942   5.562   1.233   4.745  0.0659  0.1752 -0.2244
 4293SOL     OW16943   0.104   3.632   2.372 -0.4542 -0.1539  0.2334
 4293SOL    HW216944   0.138   3.562   2.316 -1.1542 -0.8149  0.6362
 4293SOL    HW316945   0.179   3.692   2.381 -0.3638  0.0793 -1.5590
 4293SOL    MW416946   0.119   3.631   2.366  0.0299 -0.0529  0.4107
 4294SOL     OW16947   3.800   0.401   6.052 -0.2906  0.4018  0.3016
 4294SOL    HW216948   3.885   0.387   6.094 -0.3577 -1.1428 -0.0115
 4294SOL    HW316949   3.820   0.449   5.972  0.5182 -1.2927 -0.5690
 4294SOL    MW416950   3.814   0.406   6.047 -0.8607  0.1427  0.0784
 4295SOL     OW16951   3.325   2.964   2.085 -0.4936 -0.4886 -0.0551
 4295SOL    HW216952   3.386   3.032   2.056 -0.8029  0.0966  0.6119
 4295SOL    HW316953   3.379   2.886   2.095  0.2540  0.1130  0.9013
 4295SOL    MW416954   3.340   2.963   2.083  0.2823  0.1039  0.1826
 4296SOL     OW16955   1.291   1.854   0.398 -0.4914 -0.4771  0.5077
 4296SOL    HW216956   1.284   1.836   0.304  0.1273  0.5822  0.2466
 4296SOL    HW316957   1.355   1.791   0.430  0.5519  0.2407 -0.1108
 4296SOL    MW416958   1.298   1.843   0.390  0.4667  0.2825  0.1705
 4297SOL     OW16959   1.733   3.569   1.070  0.0280 -0.6969 -0.5331
 4297SOL    HW216960   1.678   3.507   1.022  0.1121 -2.0069  0.9760
 4297SOL    HW316961   1.795   3.514   1.117 -1.6608  0.2560  3.1200
 4297SOL    MW416962   1.734   3.553   1.070  0.0739 -0.9918 -0.3685
 4298SOL     OW16963   0.580   1.443   2.096 -0.2366  0.9596 -0.2761
 4298SOL    HW216964   0.664   1.401   2.077 -1.7195 -1.8509 -1.1907
 4298SOL    HW316965   0.569   1.432   2.190 -0.5644 -0.8010 -0.4843
 4298SOL    MW416966   0.590   1.436   2.106 -0.5580  0.3415  0.0385
 4299SOL     OW16967   0.554   2.997   6.120 -0.5353  0.0585  0.1109
 4299SOL    HW216968   0.613   3.007   6.195 -0.4113  0.2436 -0.0109
 4299SOL    HW316969   0.466   3.006   6.157 -0.5005 -0.5202  0.3421
 4299SOL    MW416970   0.550   3.000   6.135  0.0029  0.5109 -0.0028
 4300SOL     OW16971   5.767   3.956   1.958  0.5990 -0.2436  0.3495
 4300SOL    HW216972   5.762   3.880   2.016  1.4615  0.1584  0.9738
 4300SOL    HW316973   5.811   3.923   1.880  2.5407 -0.0253  1.2995
 4300SOL    MW416974   5.772   3.941   1.956 -0.0684  0.0849  0.1818
 4301SOL     OW16975   0.552   3.923   2.803 -0.5837  0.1241  0.4138
 4301SOL    HW216976   0.486   3.855   2.815  0.6027 -1.0506  0.5396
 4301SOL    HW316977   0.559   3.965   2.889 -1.0409  0.1676  0.4361
 4301SOL    MW416978   0.544   3.920   2.816 -0.0578 -0.6077 -0.4710
 4302SOL     OW16979   4.866   1.051   0.480 -0.1374 -0.2311  0.3642
 4302SOL    HW216980   4.936   1.104   0.519 -0.6250  0.1266  0.7606
 4302SOL    HW316981   4.877   0.964   0.519  1.1709 -0.6819 -0.8947
 4302SOL    MW416982   4.877   1.046   0.490 -0.4116 -0.8177 -0.1972
 4303SOL     OW16983   0.462   4.111   5.415 -0.1443 -0.5439 -0.1990
 4303SOL    HW216984   0.501   4.142   5.497  1.9483 -1.2735 -0.8325
 4303SOL    HW316985   0.494   4.173   5.349 -2.9774  0.8924 -0.3564
 4303SOL    MW416986   0.472   4.123   5.417 -0.1399 -0.2235  0.3462
 4304SOL     OW16987   6.064   4.105   5.119  0.3184  0.1305  0.0418
 4304SOL    HW216988   6.087   4.032   5.062  1.4918 -0.0291  0.6698
 4304SOL    HW316989   5.970   4.098   5.131  0.1182 -0.0988 -1.4837
 4304SOL    MW416990   6.055   4.094   5.113  0.1030  0.1320  0.4123
 4305SOL     OW16991   3.902   4.046   0.209  0.0235 -0.5297 -0.0242
 4305SOL    HW216992   3.938   4.059   0.297  1.6291 -1.1294 -0.5671
 4305SOL    HW316993   3.863   4.131   0.187  1.5959  0.3250  0.3777
 4305SOL    MW416994   3.901   4.059   0.218 -0.6047  0.8948  0.2656
 4306SOL     OW16995   2.609   3.662   3.517  0.3879  0.5199  0.3412
 4306SOL    HW216996   2.668   3.707   3.578  0.4468 -0.0754  0.7391
 4306SOL    HW316997   2.544   3.727   3.493  1.2413  1.2151 -0.1505
 4306SOL    MW416998   2.609   3.676   3.522  0.3022  0.0892  0.1547
 4307SOL     OW16999   4.618   3.297   4.226 -0.2643  0.4956 -0.7616
 4307SOL    HW217000   4.564   3.281   4.149 -0.5368 -0.4669 -0.3870
 4307SOL    HW317001   4.573   3.251   4.297  0.9612 -0.2057 -0.4083
 4307SOL    MW417002   4.605   3.289   4.225  0.2089  0.0115 -0.0235
 4308SOL     OW17003   1.121   1.503   0.811  0.4935  0.1685 -0.2049
 4308SOL    HW217004   1.117   1.454   0.729  1.1824 -0.4101  0.1003
 4308SOL    HW317005   1.214   1.511   0.830  0.3956  1.4875 -0.1682
 4308SOL    MW417006   1.133   1.498   0.803 -0.2414  0.2064 -0.2956
 4309SOL     OW17007   4.379   2.146   6.349 -0.2780 -0.1300 -0.4639
 4309SOL    HW217008   4.365   2.068   6.295  0.8899  1.0057 -2.5453
 4309SOL    HW317009   4.359   2.219   6.291 -1.7437  1.1852  1.5546
 4309SOL    MW417010   4.375   2.145   6.334 -0.6069 -0.0185  0.2621
 4310SOL     OW17011   2.502   3.165   0.340 -0.3094  0.1891  0.2778
 4310SOL    HW217012   2.510   3.089   0.282  0.3524  0.8655 -0.5455
 4310SOL    HW317013   2.416   3.154   0.382 -0.5746 -0.5866 -0.4350
 4310SOL    MW417014   2.492   3.153   0.338 -0.4040 -0.0183  0.3268
 4311SOL     OW17015   5.541   0.851   2.019 -0.2798 -0.2481  0.0847
 4311SOL    HW217016   5.630   0.817   2.021  0.3126  0.9427 -2.4429
 4311SOL    HW317017   5.493   0.791   1.962  0.0600  1.3999 -2.0668
 4311SOL    MW417018   5.546   0.839   2.012 -0.2993  0.3007  0.7321
 4312SOL     OW17019   0.755   5.630   3.544  0.2992 -0.6458 -0.2890
 4312SOL    HW217020   0.670   5.658   3.579  0.3604 -1.7935  0.8180
 4312SOL    HW317021   0.818   5.689   3.584  0.3557 -1.8661  1.5101
 4312SOL    MW417022   0.752   5.642   3.554  0.0475 -0.3471 -0.3700
 4313SOL     OW17023   0.569   2.412   5.945 -0.3742 -0.4766  0.0291
 4313SOL    HW217024   0.573   2.320   5.920 -1.0295 -0.2631 -0.9136
 4313SOL    HW317025   0.553   2.459   5.863  0.9897  0.5765  0.3219
 4313SOL    MW417026   0.568   2.406   5.931  0.1257  0.3344  0.6276
 4314SOL     OW17027   1.763   1.032   4.287 -0.1018 -0.6605  0.2714
 4314SOL    HW217028   1.797   1.067   4.369  2.2007 -1.0953 -0.4121
 4314SOL    HW317029   1.677   1.072   4.277  0.0550  0.2929  2.3132
 4314SOL    MW417030   1.756   1.042   4.297 -0.0618  0.3303 -0.0275
 4315SOL     OW17031   1.653   0.800   1.433  0.0521 -0.2374 -0.8064
 4315SOL    HW217032   1.622   0.872   1.488  1.2101  1.0723 -1.7941
 4315SOL    HW317033   1.579   0.779   1.377 -0.5454 -0.3349  0.0127
 4315SOL    MW417034   1.639   0.807   1.433 -0.6414 -0.1452  0.3249
 4316SOL     OW17035   3.061   6.207   2.945  0.3676  0.1234  0.5092
 4316SOL    HW217036   3.121   6.136   2.922  0.9690  0.5092  0.8840
 4316SOL    HW317037   3.112   6.287   2.933 -0.8808  0.6638 -1.8895
 4316SOL    MW417038   3.075   6.208   2.940  0.5680 -0.3141  0.5766
 4317SOL     OW17039   4.674   1.859   2.463  0.4611  0.0261 -0.6015
 4317SOL    HW217040   4.756   1.906   2.474  0.5566 -0.5549  1.9840
 4317SOL    HW317041   4.607   1.922   2.488  0.3755 -0.3415  0.1303
 4317SOL    MW417042   4.676   1.873   2.468 -0.2239  0.0888 -0.2472
 4318SOL     OW17043   2.149   5.849   1.290  0.2620  0.3357  0.2524
 4318SOL    HW217044   2.233   5.805   1.277  0.1750  0.6137 -1.4574
 4318SOL    HW317045   2.129   5.889   1.206 -2.1805 -0.7586  0.2081
 4318SOL    MW417046   2.157   5.848   1.277  0.7406  0.8842  0.0865
 4319SOL     OW17047   6.190   3.896   4.959 -0.2372  0.6996 -0.2451
 4319SOL    HW217048   6.171   3.805   4.936  3.1164  0.3671 -2.4066
 4319SOL    HW317049   6.238   3.890   5.042 -0.9732  0.6435  0.1871
 4319SOL    MW417050   6.194   3.883   4.967  0.0022  0.1640 -0.1715
 4320SOL     OW17051   0.368   3.240   4.549 -0.0023 -0.9263  0.1286
 4320SOL    HW217052   0.379   3.333   4.529 -1.7311 -0.8685 -0.7727
 4320SOL    HW317053   0.428   3.195   4.490  2.9781 -0.3720  2.4646
 4320SOL    MW417054   0.377   3.246   4.539 -0.5717  0.4007  0.3981
 4321SOL     OW17055   0.903   2.129   0.945  0.0215  0.3456  0.1622
 4321SOL    HW217056   0.916   2.038   0.970  0.1158  0.5786  0.9961
 4321SOL    HW317057   0.933   2.179   1.021 -0.5315  1.0538 -0.0723
 4321SOL    MW417058   0.908   2.124   0.959  0.2380 -0.3636  0.5067
 4322SOL     OW17059   4.472   2.277   1.336 -0.1774 -0.4480  0.2296
 4322SOL    HW217060   4.564   2.281   1.364 -0.0826  1.4471 -0.2228
 4322SOL    HW317061   4.474   2.298   1.243 -0.9978 -1.4200 -0.0257
 4322SOL    MW417062   4.485   2.280   1.328 -0.2520 -0.2463 -0.3576
 4323SOL     OW17063   0.775   1.881   3.716  0.2678 -0.1813  0.0654
 4323SOL    HW217064   0.783   1.846   3.627 -1.4530  0.0504 -0.2155
 4323SOL    HW317065   0.686   1.915   3.720  0.3156 -0.1996  1.8978
 4323SOL    MW417066   0.765   1.881   3.705 -0.4614 -0.7127  0.2146
 4324SOL     OW17067   5.719   5.056   0.872 -0.3597 -0.0520 -0.9417
 4324SOL    HW217068   5.651   5.060   0.938  0.2536  2.3330 -0.3680
 4324SOL    HW317069   5.715   4.966   0.839 -1.4544 -0.9837  1.4901
 4324SOL    MW417070   5.710   5.045   0.876 -0.6696  0.0475  0.4143
 4325SOL     OW17071   4.478   2.170   3.784 -0.0659  0.1087 -0.1580
 4325SOL    HW217072   4.555   2.141   3.736 -0.4258  0.3638 -0.8944
 4325SOL    HW317073   4.466   2.261   3.759  0.4246  0.6174  1.3172
 4325SOL    MW417074   4.486   2.178   3.774 -0.4936 -0.2289 -0.4992
 4326SOL     OW17075   5.788   6.203   6.399  0.2559  0.4444  0.2604
 4326SOL    HW217076   5.882   6.218   6.392  0.2410  1.2147  1.5114
 4326SOL    HW317077   5.779   6.133   6.463 -0.0312  0.8360  0.6612
 4326SOL    MW417078   5.799   6.196   6.406 -0.2518  0.0802  0.1970
 4327SOL     OW17079   5.490   3.670   1.421 -0.7027 -0.0828 -0.0427
 4327SOL    HW217080   5.572   3.708   1.453 -0.4478  1.1392 -1.9835
 4327SOL    HW317081   5.501   3.576   1.431  1.4473 -0.0199 -1.3378
 4327SOL    MW417082   5.502   3.663   1.426  0.6733  0.0594  0.4146
 4328SOL     OW17083   3.065   3.071   6.247  0.4569 -0.7808 -0.3464
 4328SOL    HW217084   3.133   3.031   6.301  1.8823  1.5790 -0.2453
 4328SOL    HW317085   3.043   3.152   6.292  2.3854  1.7924 -3.6062
 4328SOL    MW417086   3.071   3.076   6.260 -0.6242 -0.5283  0.4147
 4329SOL     OW17087   4.087   2.476   0.569 -0.2527  0.2495  0.1857
 4329SOL    HW217088   4.005   2.462   0.522 -0.5457 -1.5388  1.1547
 4329SOL    HW317089   4.155   2.454   0.507 -0.5919 -0.5437  0.0780
 4329SOL    MW417090   4.085   2.472   0.555  0.0372 -0.0719 -0.5322
 4330SOL     OW17091   2.060   1.264   0.117 -0.0212  0.6784  0.1309
 4330SOL    HW217092   1.983   1.235   0.068  0.4407 -0.2992 -0.0417
 4330SOL    HW317093   2.098   1.183   0.152  2.0547  0.8614 -1.4673
 4330SOL    MW417094   2.055   1.249   0.115 -0.7660  0.3757 -0.2340
 4331SOL     OW17095   1.241   5.320   3.061  0.2377 -0.1221 -0.1191
 4331SOL    HW217096   1.175   5.288   2.999  0.1234 -2.1810  0.9548
 4331SOL    HW317097   1.200   5.395   3.104 -0.3581  0.2413 -1.2717
 4331SOL    MW417098   1.227   5.325   3.059  0.5811  0.3016  0.3194
 4332SOL     OW17099   3.995   0.142   6.015  0.1704  0.2990  0.3595
 4332SOL    HW217100   3.911   0.149   5.970 -0.1757 -0.5176  0.8540
 4332SOL    HW317101   4.060   0.137   5.944 -0.3243 -0.5057 -0.0543
 4332SOL    MW417102   3.993   0.142   5.999  0.1330  0.0450  0.4977
 4333SOL     OW17103   1.875   4.559   4.165 -0.0988  0.1518 -0.2923
 4333SOL    HW217104   1.936   4.529   4.098  1.4606  2.2519  0.0503
 4333SOL    HW317105   1.912   4.525   4.247  0.7414  1.4839 -0.0774
 4333SOL    MW417106   1.888   4.551   4.167  0.1927 -0.0491 -0.9697
 4334SOL     OW17107   0.958   1.690   2.386 -0.0747  0.8789  0.2139
 4334SOL    HW217108   0.973   1.629   2.459 -0.1682 -0.5347 -0.9142
 4334SOL    HW317109   0.863   1.691   2.375 -0.1685  2.0861  0.8962
 4334SOL    MW417110   0.948   1.682   2.394 -0.5228  0.2444 -0.1863
 4335SOL     OW17111   0.514   4.301   2.194 -0.2486 -0.0350 -0.0813
 4335SOL    HW217112   0.570   4.314   2.118  0.9096  0.1866  0.7967
 4335SOL    HW317113   0.549   4.223   2.237 -1.7571 -1.0064 -0.5011
 4335SOL    MW417114   0.526   4.292   2.189  0.3633  0.4991 -0.0900
 4336SOL     OW17115   2.361   1.790   5.935 -0.0594  0.1961  0.3111
 4336SOL    HW217116   2.353   1.851   5.862 -0.7271  0.6528  0.7606
 4336SOL    HW317117   2.410   1.716   5.899  0.2667  0.7486 -0.3889
 4336SOL    MW417118   2.366   1.788   5.921  0.2199 -0.2114  0.5275
 4337SOL     OW17119   5.615   2.929   6.255 -0.3223  0.0465  0.0844
 4337SOL    HW217120   5.683   2.892   6.199 -0.0158 -2.4623  1.9704
 4337SOL    HW317121   5.536   2.879   6.234 -0.2432 -0.8121  1.7105
 4337SOL    MW417122   5.613   2.918   6.244 -0.5473 -0.3326 -0.6119
 4338SOL     OW17123   1.767   4.946   2.433 -0.5302 -0.3268 -0.1164
 4338SOL    HW217124   1.705   5.013   2.461  1.1004  0.7971  0.9380
 4338SOL    HW317125   1.809   4.916   2.514  2.6739  1.3508 -0.9995
 4338SOL    MW417126   1.764   4.951   2.448  0.6781 -0.4765  0.2440
 4339SOL     OW17127   4.226   0.291   5.332  0.1207  0.2635  0.4412
 4339SOL    HW217128   4.160   0.351   5.297 -0.2722 -0.0957  0.5562
 4339SOL    HW317129   4.268   0.341   5.402  0.4537  0.7462 -0.0901
 4339SOL    MW417130   4.223   0.306   5.336 -0.4353 -0.2930 -0.2069
 4340SOL     OW17131   1.845   3.617   1.444 -0.0148  0.0949  0.7114
 4340SOL    HW217132   1.761   3.648   1.408 -0.0777  0.1052  0.8678
 4340SOL    HW317133   1.903   3.612   1.368 -0.0128  0.5665  0.6802
 4340SOL    MW417134   1.841   3.620   1.429 -0.7041  0.0804  0.6850
 4341SOL     OW17135   2.735   2.704   6.051 -0.0189 -0.0056  0.1676
 4341SOL    HW217136   2.738   2.676   5.959 -1.9668 -0.7789  0.3156
 4341SOL    HW317137   2.649   2.677   6.082 -0.8491  3.3832  1.2231
 4341SOL    MW417138   2.724   2.697   6.043  0.5976  0.1256  0.1554
 4342SOL     OW17139   5.475   4.670   0.864 -0.1249  0.3917  0.0127
 4342SOL    HW217140   5.500   4.758   0.835 -1.8960  0.8144 -0.3711
 4342SOL    HW317141   5.434   4.684   0.949 -0.8137  0.0083 -0.2467
 4342SOL    MW417142   5.472   4.684   0.871  0.4953 -0.1276  0.2638
 4343SOL     OW17143   0.672   2.436   4.032  0.3216 -0.3969 -0.2113
 4343SOL    HW217144   0.629   2.480   3.960  1.1562 -0.0206 -0.4824
 4343SOL    HW317145   0.631   2.349   4.034  0.4569 -0.4983 -1.2820
 4343SOL    MW417146   0.661   2.430   4.023  0.4701 -0.5096  0.1140
 4344SOL     OW17147   2.472   4.759   5.995 -0.1757  0.0733 -0.1655
 4344SOL    HW217148   2.501   4.775   5.905 -0.4022  0.4202 -0.1800
 4344SOL    HW317149   2.417   4.834   6.015 -0.2005 -0.0527  0.2322
 4344SOL    MW417150   2.469   4.771   5.985 -0.0025 -0.8169  0.4286
 4345SOL     OW17151   3.937   2.948   1.682 -0.4071  0.2958  0.1846
 4345SOL    HW217152   3.878   2.911   1.748  1.9695  0.2024  2.4120
 4345SOL    HW317153   3.946   3.040   1.707  1.7526 -0.0965  1.0738
 4345SOL    MW417154   3.931   2.955   1.694 -0.3116  0.1067  0.0521
 4346SOL     OW17155   4.489   3.758   1.653 -0.1400 -0.0511  0.3896
 4346SOL    HW217156   4.535   3.768   1.737  1.3541 -0.7985 -0.2901
 4346SOL    HW317157   4.534   3.819   1.594  1.1163 -1.9278 -0.7061
 4346SOL    MW417158   4.501   3.767   1.656 -1.4239  0.1035 -0.5948
 4347SOL     OW17159   3.985   2.033   5.364 -0.1854 -0.2590 -0.0199
 4347SOL    HW217160   4.058   2.061   5.308  0.4996 -1.6448  0.1302
 4347SOL    HW317161   3.921   1.996   5.303 -0.5377  0.4663 -0.1002
 4347SOL    MW417162   3.986   2.032   5.348  0.0196 -0.7138 -0.3024
 4348SOL     OW17163   2.565   0.382   2.767  0.1345 -0.7918  0.4118
 4348SOL    HW217164   2.564   0.438   2.689  1.1657 -2.0881 -0.6006
 4348SOL    HW317165   2.657   0.381   2.794 -0.2197 -0.3659  1.6632
 4348SOL    MW417166   2.577   0.389   2.760  0.4222  0.5369  0.4229
 4349SOL     OW17167   2.844   0.408   2.839 -0.1127  0.0552 -0.0979
 4349SOL    HW217168   2.805   0.342   2.896 -4.5057  0.7469 -1.8821
 4349SOL    HW317169   2.833   0.490   2.886 -1.1938  0.2854 -0.7137
 4349SOL    MW417170   2.837   0.410   2.852 -0.3108 -0.3225  0.2310
 4350SOL     OW17171   2.274   2.470   1.012  0.0704 -0.0497 -0.2716
 4350SOL    HW217172   2.257   2.405   0.945  0.7523 -0.9944  0.4471
 4350SOL    HW317173   2.362   2.450   1.044 -0.5738 -0.1979  1.5262
 4350SOL    MW417174   2.284   2.459   1.008  0.8334 -0.2812 -0.0550
 4351SOL     OW17175   3.266   3.244   4.397 -0.0287 -0.5363  0.4246
 4351SOL    HW217176   3.194   3.184   4.381 -2.9053  3.3081 -3.0205
 4351SOL    HW317177   3.335   3.216   4.337 -0.9410 -0.9869 -0.4323
 4351SOL    MW417178   3.266   3.233   4.387 -0.0464 -0.0462 -0.1979
 4352SOL     OW17179   0.244   3.767   4.101 -0.3158  0.2662 -0.2688
 4352SOL    HW217180   0.208   3.679   4.112 -0.7014  0.1546 -2.0265
 4352SOL    HW317181   0.326   3.753   4.055 -0.6121  0.8388 -0.9885
 4352SOL    MW417182   0.250   3.753   4.096  0.0693 -0.6088 -0.0009
 4353SOL     OW17183   1.700   2.303   5.291 -0.0849 -0.0942 -0.0614
 4353SOL    HW217184   1.641   2.284   5.364 -1.9725  1.5904 -1.0431
 4353SOL    HW317185   1.720   2.396   5.299 -0.3310  0.1332 -1.6520
 4353SOL    MW417186   1.695   2.313   5.302  0.1197  0.5895 -0.7386
 4354SOL     OW17187   4.510   5.677   5.294 -0.0308 -0.2327 -0.4031
 4354SOL    HW217188   4.505   5.675   5.389  1.1288  0.7825 -0.3014
 4354SOL    HW317189   4.471   5.594   5.266 -0.9927 -0.2558  0.9066
 4354SOL    MW417190   4.504   5.666   5.303  0.0356  0.3498  0.2190
 4355SOL     OW17191   2.203   2.977   4.933  0.2978  0.4564 -0.0139
 4355SOL    HW217192   2.264   2.925   4.985 -0.4279  0.4693  0.8632
 4355SOL    HW317193   2.156   2.913   4.880  0.5051  0.3792 -0.1087
 4355SOL    MW417194   2.205   2.962   4.933  0.1957 -0.3214  0.4155
 4356SOL     OW17195   5.559   4.610   5.257 -0.2269  0.0992  0.2353
 4356SOL    HW217196   5.471   4.630   5.290 -1.1367 -1.7508 -0.8683
 4356SOL    HW317197   5.614   4.610   5.335 -1.5277 -0.2604  1.2032
 4356SOL    MW417198   5.554   4.612   5.272 -0.1358  0.3275 -0.3682
 4357SOL     OW17199   2.346   2.182   2.104 -0.8281  0.1657 -0.2223
 4357SOL    HW217200   2.267   2.235   2.092 -1.4289  0.0463  2.5483
 4357SOL    HW317201   2.418   2.245   2.097 -1.4233  1.0123  0.9528
 4357SOL    MW417202   2.345   2.198   2.101  0.0087 -0.1029 -0.3803
 4358SOL     OW17203   6.163   5.465   4.008 -0.3491 -0.8472 -0.4342
 4358SOL    HW217204   6.114   5.514   3.941 -0.5044 -1.1935 -0.5798
 4358SOL    HW317205   6.118   5.380   4.012  0.2999 -1.2028 -0.6353
 4358SOL    MW417206   6.150   5.460   4.000 -0.0319 -0.0616 -0.1823
 4359SOL     OW17207   2.288   5.899   3.796  0.4795  0.1055 -0.3801
 4359SOL    HW217208   2.262   5.836   3.863  1.4664  0.8932  0.7682
 4359SOL    HW317209   2.334   5.968   3.843 -0.3975  1.6199 -1.6312
 4359SOL    MW417210   2.291   5.900   3.811  0.4467 -0.2706 -0.1418
 4360SOL     OW17211   3.542   3.256   5.508 -0.3066  0.0285 -0.5407
 4360SOL    HW217212   3.603   3.293   5.571 -0.0862 -1.3036  0.0701
 4360SOL    HW317213   3.456   3.263   5.550 -0.3287  0.2774 -0.6283
 4360SOL    MW417214   3.539   3.262   5.522  0.2943 -0.9432  0.2481
 4361SOL     OW17215   5.851   3.359   2.030  0.1356  0.6647  0.0331
 4361SOL    HW217216   5.925   3.381   1.974 -1.5093  0.9676 -2.1380
 4361SOL    HW317217   5.876   3.392   2.117  1.9378  1.9959 -0.9338
 4361SOL    MW417218   5.864   3.366   2.034  0.1590 -0.1139  0.1797
 4362SOL     OW17219   5.958   2.132   3.992 -0.6117  0.1044 -0.4876
 4362SOL    HW217220   6.041   2.174   3.969  0.0941 -0.2447  1.2431
 4362SOL    HW317221   5.931   2.087   3.912  0.0657  1.4856 -1.5393
 4362SOL    MW417222   5.965   2.131   3.979  0.1969 -0.6560 -0.0147
 4363SOL     OW17223   4.379   0.472   4.966  0.0178 -0.9871  0.0091
 4363SOL    HW217224   4.375   0.533   5.041 -2.4772  0.3394 -1.0788
 4363SOL    HW317225   4.427   0.520   4.899 -2.0820 -0.0373 -0.9029
 4363SOL    MW417226   4.385   0.487   4.967 -0.3722 -0.5774  0.0384
 4364SOL     OW17227   5.421   3.654   5.346 -0.2171 -0.6281  1.0461
 4364SOL    HW217228   5.516   3.659   5.337 -0.2103  1.2118  1.6659
 4364SOL    HW317229   5.396   3.576   5.297  1.4769 -0.4755 -0.1412
 4364SOL    MW417230   5.430   3.645   5.339 -0.2292  0.3396 -0.0203
 4365SOL     OW17231   2.532   0.018   5.555 -0.7158  0.7814 -0.5224
 4365SOL    HW217232   2.596  -0.052   5.548 -0.7480  0.5014  1.3948
 4365SOL    HW317233   2.453  -0.025   5.589 -1.1698  1.5256 -0.6047
 4365SOL    MW417234   2.530   0.003   5.558  0.4243 -0.0050 -0.6427
 4366SOL     OW17235   0.983   3.958   0.653 -0.6603  0.4142 -0.0740
 4366SOL    HW217236   1.047   3.993   0.591  0.7007 -0.1961  0.9377
 4366SOL    HW317237   1.035   3.912   0.718 -2.2251 -1.1479  0.1475
 4366SOL    MW417238   0.998   3.957   0.653  0.2956  0.5491 -0.2269
 4367SOL     OW17239   5.718   2.236   4.105  0.3639 -0.1447 -0.0234
 4367SOL    HW217240   5.808   2.222   4.076  0.0965 -0.8333 -0.5565
 4367SOL    HW317241   5.668   2.167   4.061 -0.1119 -1.0685  1.8449
 4367SOL    MW417242   5.723   2.225   4.095  0.1894  0.6384  0.5797
 4368SOL     OW17243   4.696   1.822   4.713 -0.4472 -0.2857  0.1181
 4368SOL    HW217244   4.670   1.901   4.760 -2.3163 -0.5827 -0.3397
 4368SOL    HW317245   4.643   1.823   4.633 -0.2984 -1.8474 -0.0223
 4368SOL    MW417246   4.685   1.833   4.709 -0.1965 -0.0977  0.3293
 4369SOL     OW17247   5.072   0.546   3.664 -0.0003  0.4522 -0.0251
 4369SOL    HW217248   5.008   0.486   3.625 -0.0012  0.2003  0.3648
 4369SOL    HW317249   5.022   0.596   3.729 -1.1448  4.0410 -3.2665
 4369SOL    MW417250   5.057   0.545   3.667  0.4117 -0.1759 -0.2687
 4370SOL     OW17251   1.378   5.558   0.805 -0.8859 -0.5194 -0.4818
 4370SOL    HW217252   1.351   5.607   0.883 -1.8211 -1.5045 -0.1696
 4370SOL    HW317253   1.470   5.580   0.795 -1.1333  0.8500 -0.0144
 4370SOL    MW417254   1.386   5.567   0.814 -0.7834  0.2133 -0.4840
 4371SOL     OW17255   1.417   1.093   3.908 -0.2390  0.1917  0.0593
 4371SOL    HW217256   1.366   1.169   3.933 -1.0931 -0.6672  0.9925
 4371SOL    HW317257   1.366   1.018   3.938 -0.7585 -0.9135 -3.1445
 4371SOL    MW417258   1.404   1.093   3.915  0.7498  0.6807 -0.6710
 4372SOL     OW17259   1.814   2.920   2.110  0.6604  0.3657  0.1386
 4372SOL    HW217260   1.783   2.990   2.167  2.5738  0.9668  0.5145
 4372SOL    HW317261   1.904   2.945   2.088  0.6521 -0.8804 -1.5084
 4372SOL    MW417262   1.822   2.932   2.114 -0.0655 -0.0244  0.2223
 4373SOL     OW17263   6.401   2.787   2.353 -0.0983 -0.0817  0.0566
 4373SOL    HW217264   6.365   2.708   2.312 -1.3571 -0.0931  1.1326
 4373SOL    HW317265   6.484   2.758   2.390  1.3116  0.0168 -2.7148
 4373SOL    MW417266   6.407   2.773   2.352  0.0458  0.3189 -0.5906
 4374SOL     OW17267   6.344   2.948   6.090  0.8152  0.3543 -0.6856
 4374SOL    HW217268   6.328   3.036   6.126 -0.1831  0.0141 -0.2670
 4374SOL    HW317269   6.301   2.889   6.152 -0.3435 -0.2871 -2.0649
 4374SOL    MW417270   6.336   2.952   6.103  0.2722 -0.8630  0.4578
 4375SOL     OW17271   2.829   5.578   5.829  0.4196 -0.0601  0.2344
 4375SOL    HW217272   2.801   5.636   5.758  0.3291  1.7984  1.7037
 4375SOL    HW317273   2.874   5.506   5.785 -1.3873 -0.0565 -1.8224
 4375SOL    MW417274   2.831   5.576   5.814  0.1345  0.1720 -0.4714
 4376SOL     OW17275   4.595   1.268   5.956  0.4251 -0.1539 -0.6229
 4376SOL    HW217276   4.544   1.287   5.878  2.8980  3.3540 -1.6235
 4376SOL    HW317277   4.630   1.180   5.941 -0.2522 -0.1107 -2.8168
 4376SOL    MW417278   4.593   1.259   5.944  0.3915  0.8288 -0.0488
 4377SOL     OW17279   1.742   0.904  -0.004  0.2780 -0.0226  0.1639
 4377SOL    HW217280   1.731   0.824  -0.056 -1.9432  0.0795  0.3470
 4377SOL    HW317281   1.724   0.876   0.086 -0.4447  0.6415  0.2401
 4377SOL    MW417282   1.738   0.890   0.001 -0.5224  0.1670  0.2849
 4378SOL     OW17283   3.091   6.200   1.666  0.2292  0.0547  0.3581
 4378SOL    HW217284   3.138   6.244   1.737 -0.0818 -0.9705  1.2344
 4378SOL    HW317285   3.126   6.111   1.666 -0.1076 -0.0939 -0.4842
 4378SOL    MW417286   3.102   6.194   1.675  0.2551 -0.4144 -0.1196
 4379SOL     OW17287   4.997   5.777   5.029 -0.3693  0.0390  0.1969
 4379SOL    HW217288   4.974   5.862   4.991  0.4199  1.1548  2.1122
 4379SOL    HW317289   4.922   5.755   5.084  0.3886  0.6093  1.4764
 4379SOL    MW417290   4.984   5.785   5.031 -0.1290  0.5773  0.3253
 4380SOL     OW17291   1.042   5.022   1.320  0.1265 -0.4375  0.5401
 4380SOL    HW217292   1.094   5.103   1.316 -1.2479  0.4392 -0.2846
 4380SOL    HW317293   1.089   4.961   1.263  1.2544 -0.2837  1.2730
 4380SOL    MW417294   1.055   5.025   1.312 -0.0800  0.1119 -0.5283
 4381SOL     OW17295   1.271   5.646   3.318 -0.7519  0.1345  0.0985
 4381SOL    HW217296   1.194   5.595   3.293 -0.4425 -0.2106 -0.1554
 4381SOL    HW317297   1.235   5.725   3.359 -1.2403 -0.0110 -0.0440
 4381SOL    MW417298   1.256   5.650   3.320  0.1485 -0.2827  0.4467
 4382SOL     OW17299   0.595   4.477   4.463  0.5770  0.5114  0.4772
 4382SOL    HW217300   0.581   4.412   4.394  0.7759  0.8120  0.1482
 4382SOL    HW317301   0.507   4.503   4.490  0.4964  0.8572 -0.1089
 4382SOL    MW417302   0.581   4.471   4.457 -0.2550  0.5931  0.0250
 4383SOL     OW17303   6.102   1.476   4.456  0.2811  0.2124 -0.2607
 4383SOL    HW217304   6.179   1.422   4.438 -0.6239 -1.3343  0.3039
 4383SOL    HW317305   6.081   1.456   4.548 -1.2014  0.0422 -0.6204
 4383SOL    MW417306   6.109   1.466   4.466  0.2712 -0.0373  0.3429
 4384SOL     OW17307   4.432   1.062   2.667 -0.2086  0.3299  0.4174
 4384SOL    HW217308   4.340   1.072   2.643 -0.1213 -0.1845 -0.1722
 4384SOL    HW317309   4.446   1.123   2.739 -1.1596 -0.0123  0.8990
 4384SOL    MW417310   4.422   1.072   2.673  0.1366 -0.4965 -0.4842
 4385SOL     OW17311   2.642   2.612   3.853 -0.4824 -0.0464  0.1862
 4385SOL    HW217312   2.604   2.693   3.820 -0.1847  0.0912  0.1770
 4385SOL    HW317313   2.677   2.568   3.775  0.7076  0.5366  0.3748
 4385SOL    MW417314   2.641   2.617   3.838  0.3790  0.1544 -0.5983
 4386SOL     OW17315   2.763   4.535   2.937 -0.0331  0.3659 -0.1928
 4386SOL    HW217316   2.815   4.500   2.865  1.2549  1.8456 -0.0293
 4386SOL    HW317317   2.793   4.486   3.014 -1.1896 -0.9953 -0.5585
 4386SOL    MW417318   2.774   4.524   2.938  0.0683  0.6117  0.3365
 4387SOL     OW17319   1.402   2.924   2.351  0.2050  0.2215 -0.3828
 4387SOL    HW217320   1.430   2.984   2.282 -0.3604  2.3348  1.1081
 4387SOL    HW317321   1.309   2.946   2.365  0.0409 -0.8668  0.3697
 4387SOL    MW417322   1.393   2.935   2.344 -0.5930  0.4044 -0.0596
 4388SOL     OW17323   2.253   4.192   1.845  0.2124  0.1141  0.7616
 4388SOL    HW217324   2.207   4.127   1.791 -1.6712  0.9442  1.2683
 4388SOL    HW317325   2.318   4.230   1.786  0.5368 -1.3668  0.1100
 4388SOL    MW417326   2.255   4.188   1.830  0.2862 -0.0146  0.1692
 4389SOL     OW17327   3.714   2.224   0.242 -0.1352 -0.7398 -0.0727
 4389SOL    HW217328   3.621   2.203   0.254 -0.7376  2.0181  0.7522
 4389SOL    HW317329   3.729   2.209   0.149 -1.4632 -1.0166 -0.2701
 4389SOL    MW417330   3.704   2.219   0.231  0.3437  0.3665  0.9404
 4390SOL     OW17331   4.166   1.877   2.756  0.4051 -0.0533  0.4126
 4390SOL    HW217332   4.218   1.934   2.813 -0.2628 -0.0337  1.0181
 4390SOL    HW317333   4.085   1.926   2.741 -0.8617 -1.4799  2.2338
 4390SOL    MW417334   4.162   1.891   2.761 -0.3197 -0.1144 -0.3420
 4391SOL     OW17335   4.025   1.530   4.965 -0.3120 -0.3076 -0.1352
 4391SOL    HW217336   4.055   1.513   4.875  0.7930  1.1726 -0.0773
 4391SOL    HW317337   3.932   1.506   4.963 -0.4990  0.3495 -1.8895
 4391SOL    MW417338   4.016   1.525   4.953 -1.3257 -0.2463  0.1356
 4392SOL     OW17339   0.453   1.076   5.748  0.0858  0.1520 -0.3268
 4392SOL    HW217340   0.374   1.067   5.801  1.0013 -2.0859  0.8098
 4392SOL    HW317341   0.523   1.043   5.805  1.3487 -0.8936 -2.3767
 4392SOL    MW417342   0.452   1.071   5.763 -0.6893  0.2672 -0.6347
 4393SOL     OW17343   1.229   3.152   2.216  0.1292 -0.3571  0.1959
 4393SOL    HW217344   1.307   3.121   2.170 -0.5364  0.2210 -1.3896
 4393SOL    HW317345   1.176   3.195   2.149 -0.3662  1.5698  1.6962
 4393SOL    MW417346   1.232   3.154   2.201 -0.5586  0.7938  0.2926
 4394SOL     OW17347   1.596   1.373   0.533 -0.1269  0.1583  0.2522
 4394SOL    HW217348   1.635   1.332   0.457 -0.1810 -1.1622  0.9057
 4394SOL    HW317349   1.641   1.458   0.541  2.1431 -1.0127  0.5962
 4394SOL    MW417350   1.607   1.379   0.524 -0.0503 -0.3699  0.5521
 4395SOL     OW17351   2.860   1.393   2.517 -0.4666  0.3919 -0.1561
 4395SOL    HW217352   2.802   1.317   2.526  1.1236 -0.7119  1.1424
 4395SOL    HW317353   2.887   1.391   2.425  1.1130 -1.8443  0.2844
 4395SOL    MW417354   2.856   1.383   2.506  0.1033  0.2950  0.2186
 4396SOL     OW17355   5.392   4.875   4.889 -0.4617 -0.3734  0.2598
 4396SOL    HW217356   5.475   4.881   4.842 -0.0118 -0.3423  1.0433
 4396SOL    HW317357   5.383   4.782   4.910 -1.5869 -0.7191 -1.4814
 4396SOL    MW417358   5.402   4.863   4.885 -0.2810 -0.0218  0.9714
 4397SOL     OW17359   0.296   4.931   1.106 -0.0907 -0.1592 -0.0973
 4397SOL    HW217360   0.352   5.008   1.120 -2.2705  1.5331 -0.0266
 4397SOL    HW317361   0.265   4.908   1.194 -0.1475 -0.5763 -0.2238
 4397SOL    MW417362   0.299   4.938   1.120  0.7710 -0.3336  0.1012
 4398SOL     OW17363   5.947   0.199   1.748  0.4759 -0.0944 -1.1543
 4398SOL    HW217364   5.858   0.212   1.714 -0.9443  0.2903  2.2676
 4398SOL    HW317365   5.946   0.110   1.783  0.4346  0.8362  1.3696
 4398SOL    MW417366   5.935   0.189   1.748 -0.1654  0.4342  0.1625
 4399SOL     OW17367   4.119   2.404   5.602  0.2433  0.2556  0.2694
 4399SOL    HW217368   4.031   2.382   5.570  0.2918  0.9789 -0.4031
 4399SOL    HW317369   4.177   2.342   5.558  0.1895  0.5586 -0.2513
 4399SOL    MW417370   4.115   2.393   5.592 -0.3185  0.1310  0.2251
 4400SOL     OW17371   6.178   4.241   1.229  0.2602  0.8079  0.1010
 4400SOL    HW217372   6.160   4.248   1.135  0.4425 -1.2448 -0.1256
 4400SOL    HW317373   6.258   4.188   1.234  1.6009  2.8011  1.3766
 4400SOL    MW417374   6.187   4.235   1.217 -0.1321 -0.3699 -0.3331
 4401SOL     OW17375   3.381   6.298   4.278  0.3943  0.0755  0.8269
 4401SOL    HW217376   3.410   6.229   4.218 -0.6356 -1.3164  1.8555
 4401SOL    HW317377   3.449   6.366   4.271 -0.0152  0.2781 -2.3308
 4401SOL    MW417378   3.394   6.298   4.269  0.0048 -0.1021  0.0287
 4402SOL     OW17379   4.333   0.335   4.691  0.1555 -0.1616 -0.2351
 4402SOL    HW217380   4.406   0.279   4.720  0.2324 -1.1325 -2.1536
 4402SOL    HW317381   4.254   0.286   4.715  0.1286  0.3600  0.8103
 4402SOL    MW417382   4.332   0.321   4.698 -0.5722 -0.3275 -0.5575
 4403SOL     OW17383   0.649   6.260   5.489 -0.1616 -0.1015 -0.2691
 4403SOL    HW217384   0.733   6.271   5.534  0.8394 -1.6711 -1.6321
 4403SOL    HW317385   0.668   6.282   5.398 -1.5711  0.7675 -0.3761
 4403SOL    MW417386   0.663   6.264   5.483  0.4120 -0.5237 -0.0127
 4404SOL     OW17387   5.502   3.586   3.918 -0.7280  0.0357  0.5027
 4404SOL    HW217388   5.469   3.584   3.829 -0.4564 -1.8837  0.4061
 4404SOL    HW317389   5.581   3.533   3.916 -0.4939  0.2901  1.8091
 4404SOL    MW417390   5.508   3.579   3.906  0.3773  0.4853  0.1731
 4405SOL     OW17391   4.264   1.632   3.354  0.4685  0.2526  0.5890
 4405SOL    HW217392   4.197   1.700   3.347  1.2136  0.9442 -0.0277
 4405SOL    HW317393   4.240   1.568   3.288 -0.1629 -0.0235  1.0797
 4405SOL    MW417394   4.252   1.633   3.344 -0.6663 -0.2437 -0.0306
 4406SOL     OW17395   2.920   1.390   6.032 -0.6269  0.3345  0.1143
 4406SOL    HW217396   2.973   1.430   5.963  0.0818  1.1414  1.0997
 4406SOL    HW317397   2.943   1.297   6.029 -0.8923  0.2894 -0.9785
 4406SOL    MW417398   2.930   1.383   6.022  0.3534 -0.8120  1.3775
 4407SOL     OW17399   2.656   0.753   1.788  0.0544  0.2783 -0.0144
 4407SOL    HW217400   2.613   0.736   1.872 -2.4853  1.3576 -1.0175
 4407SOL    HW317401   2.653   0.848   1.778  1.1993  0.2360 -0.9317
 4407SOL    MW417402   2.650   0.763   1.798 -0.4002  0.2992  0.3900
 4408SOL     OW17403   2.374   4.805   3.823 -0.7483 -0.9882  0.0631
 4408SOL    HW217404   2.434   4.835   3.754 -0.3888  0.7066  1.0441
 4408SOL    HW317405   2.342   4.720   3.792  1.8524 -1.7850 -0.6872
 4408SOL    MW417406   2.378   4.798   3.810 -0.8926  0.3213  0.2327
 4409SOL     OW17407   0.215   1.551   6.188 -0.0534 -0.2982  0.4739
 4409SOL    HW217408   0.172   1.629   6.153 -0.2936 -0.9039 -0.6151
 4409SOL    HW317409   0.295   1.584   6.229 -0.1961  0.5263  0.1062
 4409SOL    MW417410   0.220   1.565   6.189 -0.2175  0.2868 -0.1532
 4410SOL     OW17411   3.396   0.151   0.830 -0.3966 -0.2826 -0.3508
 4410SOL    HW217412   3.436   0.096   0.898  0.8049 -0.4313 -1.1467
 4410SOL    HW317413   3.377   0.090   0.758  1.0147  0.3077 -1.2714
 4410SOL    MW417414   3.399   0.135   0.829 -0.2484  0.2912 -0.2790
 4411SOL     OW17415   3.700   0.597   6.300  0.0474  0.1499 -0.6321
 4411SOL    HW217416   3.745   0.514   6.282 -2.4458 -1.1410 -1.3971
 4411SOL    HW317417   3.612   0.571   6.329 -0.6649  2.5367 -0.3989
 4411SOL    MW417418   3.694   0.582   6.301 -0.1111  0.3239 -0.6503
 4412SOL     OW17419   3.785   4.591   6.367  0.0802  0.1559  0.0427
 4412SOL    HW217420   3.833   4.509   6.358  0.2870  0.2769  0.0596
 4412SOL    HW317421   3.821   4.632   6.446 -0.2007  0.1435  0.1819
 4412SOL    MW417422   3.796   4.586   6.376 -0.7587  0.7912  0.5370
 4413SOL     OW17423   4.090   3.550   2.443  0.0766 -0.2744  0.4221
 4413SOL    HW217424   4.048   3.617   2.497 -0.4717  1.4739 -2.0307
 4413SOL    HW317425   4.018   3.504   2.401  0.5152 -1.3593  0.8024
 4413SOL    MW417426   4.075   3.553   2.445 -0.1994  0.2604  0.2555
 4414SOL     OW17427   2.205   6.335   1.485 -0.4733 -0.0730 -0.3266
 4414SOL    HW217428   2.138   6.368   1.426  0.7767 -0.2962 -1.9316
 4414SOL    HW317429   2.190   6.240   1.488 -1.3273  0.0727  0.7831
 4414SOL    MW417430   2.194   6.327   1.478 -0.6498  0.0587  0.3311
 4415SOL     OW17431   2.138   5.624   3.644 -0.0768 -0.0163 -0.1997
 4415SOL    HW217432   2.208   5.571   3.681  0.9947  2.3060  1.3180
 4415SOL    HW317433   2.078   5.639   3.717 -0.2454  0.9899 -0.5264
 4415SOL    MW417434   2.139   5.619   3.659  0.0369 -0.0904 -0.5443
 4416SOL     OW17435   2.636   4.751   3.700 -0.2592 -0.1881 -0.3606
 4416SOL    HW217436   2.632   4.660   3.673  1.3958  0.1619 -1.9709
 4416SOL    HW317437   2.662   4.799   3.621  1.3806  1.3543  1.0166
 4416SOL    MW417438   2.639   4.746   3.686  0.2238  0.0880  0.0841
 4417SOL     OW17439   3.854   4.269   1.762  0.4759  0.1365  0.1764
 4417SOL    HW217440   3.821   4.234   1.845 -3.6753  2.5422 -0.1805
 4417SOL    HW317441   3.871   4.361   1.780 -0.7512  0.7656 -1.6141
 4417SOL    MW417442   3.852   4.276   1.775 -0.2736  0.5772 -0.0801
 4418SOL     OW17443   0.601   0.998   3.744  0.8153  0.5399  0.3619
 4418SOL    HW217444   0.520   1.002   3.795  1.2203  1.1291  0.9786
 4418SOL    HW317445   0.575   0.961   3.660  0.2374 -1.1466  1.2243
 4418SOL    MW417446   0.587   0.994   3.740  0.5038  0.2110  0.1492
 4419SOL     OW17447   2.205   3.393   4.821  0.6007  0.0155 -0.0282
 4419SOL    HW217448   2.143   3.403   4.748 -1.8757 -1.9213  1.6567
 4419SOL    HW317449   2.261   3.321   4.794  1.0996  0.7058 -0.8853
 4419SOL    MW417450   2.204   3.385   4.808 -0.2617 -0.0878  0.4154
 4420SOL     OW17451   4.899   1.480   1.676  0.0829  0.9607  0.4401
 4420SOL    HW217452   4.892   1.429   1.757  0.9468  0.2915  0.0921
 4420SOL    HW317453   4.821   1.457   1.626  0.6232 -0.2761  0.1452
 4420SOL    MW417454   4.888   1.471   1.680 -0.2530  0.4774 -0.0705
 4421SOL     OW17455   6.050   1.078   1.061  0.0842 -0.3527 -0.1517
 4421SOL    HW217456   6.127   1.124   1.028 -1.3417  1.2067 -1.5187
 4421SOL    HW317457   6.053   1.089   1.156  1.3393 -0.0376 -0.2144
 4421SOL    MW417458   6.061   1.085   1.069 -0.6820 -0.5190 -0.4651
 4422SOL     OW17459   6.058   2.939   0.150  0.7906  0.2667  0.2189
 4422SOL    HW217460   6.070   3.011   0.088  0.8295 -0.3106 -0.4567
 4422SOL    HW317461   6.140   2.890   0.146  0.0343 -0.9617 -0.8410
 4422SOL    MW417462   6.070   2.942   0.141  0.5348 -0.2420 -0.5228
 4423SOL     OW17463   2.354   4.532   4.766  0.2681  0.6528 -0.0151
 4423SOL    HW217464   2.306   4.580   4.700 -0.9994 -1.5164 -0.7881
 4423SOL    HW317465   2.385   4.453   4.721  0.0686 -0.4971  1.7492
 4423SOL    MW417466   2.352   4.528   4.752  0.0873  0.3693 -0.1135
 4424SOL     OW17467   4.967   5.559   0.313  0.0259 -0.1187  0.1936
 4424SOL    HW217468   4.988   5.634   0.368  0.0797 -1.2210  1.7656
 4424SOL    HW317469   5.015   5.574   0.232 -2.7226  3.2615 -1.0570
 4424SOL    MW417470   4.976   5.571   0.309 -0.1159 -0.5537 -0.1423
 4425SOL     OW17471   0.871   2.717   3.853 -0.3056  0.0771 -0.2064
 4425SOL    HW217472   0.855   2.633   3.809 -1.8056  1.0856 -1.6973
 4425SOL    HW317473   0.936   2.761   3.798 -1.0534  0.7243 -0.5864
 4425SOL    MW417474   0.877   2.712   3.840 -0.2960  0.3300 -0.1540
 4426SOL     OW17475   5.953   3.887   3.053 -0.3732  0.1926 -0.2218
 4426SOL    HW217476   5.965   3.921   2.965 -0.7940 -0.0563 -0.3788
 4426SOL    HW317477   5.858   3.890   3.067 -0.2767  0.6395  0.3882
 4426SOL    MW417478   5.942   3.892   3.043 -0.7569 -0.3988 -0.4746
 4427SOL     OW17479   3.730   4.897   2.340 -0.4978  0.1770 -0.6947
 4427SOL    HW217480   3.815   4.937   2.359 -0.7121  0.7127 -0.8702
 4427SOL    HW317481   3.750   4.831   2.274 -0.2917  0.6375 -1.1003
 4427SOL    MW417482   3.744   4.893   2.334  0.0313  0.7370 -0.6822
 4428SOL     OW17483   1.059   5.245   5.559  0.0603 -0.3779  0.5269
 4428SOL    HW217484   1.148   5.244   5.524  0.4906 -1.5354  1.5533
 4428SOL    HW317485   1.025   5.157   5.540 -1.5961  0.6230 -1.5402
 4428SOL    MW417486   1.066   5.233   5.552  0.1050  0.0269  0.2553
 4429SOL     OW17487   4.374   5.916   5.589 -0.3397 -0.0916 -0.0481
 4429SOL    HW217488   4.374   6.006   5.556  1.2572 -0.6020 -1.6407
 4429SOL    HW317489   4.297   5.911   5.645 -0.3791  2.3020  0.2205
 4429SOL    MW417490   4.364   5.927   5.592  0.2860 -0.6489  0.2000
 4430SOL     OW17491   1.240   5.219   1.136  0.2935 -0.2815 -0.4791
 4430SOL    HW217492   1.204   5.212   1.047  0.9414 -2.7715 -0.6165
 4430SOL    HW317493   1.328   5.255   1.124 -0.8237  2.8514 -0.4143
 4430SOL    MW417494   1.247   5.223   1.123  0.3061  0.1677  0.4226
 4431SOL     OW17495   1.563   4.790   2.348 -0.0711  0.3151  0.1515
 4431SOL    HW217496   1.587   4.697   2.352  0.1505  0.1494 -3.0188
 4431SOL    HW317497   1.637   4.835   2.389  0.8359 -0.7961 -0.1975
 4431SOL    MW417498   1.576   4.783   2.354  0.2749  0.0481  0.4912
 4432SOL     OW17499   5.449   5.765   5.132  0.3695 -1.0961 -0.2613
 4432SOL    HW217500   5.464   5.813   5.051  1.7779 -0.8941  0.0834
 4432SOL    HW317501   5.359   5.786   5.156  0.9918  1.6689  0.0214
 4432SOL    MW417502   5.439   5.774   5.125 -0.2594 -0.4937  0.4183
 4433SOL     OW17503   2.830   1.766   2.744  0.0729 -0.2958  0.0408
 4433SOL    HW217504   2.904   1.707   2.762  1.1821  0.9144 -0.3534
 4433SOL    HW317505   2.871   1.844   2.707 -1.3884  0.5691  0.1779
 4433SOL    MW417506   2.845   1.768   2.742 -0.2298 -0.0892 -0.2280
 4434SOL     OW17507   1.042   5.247   2.836 -0.3380 -0.2747  0.1071
 4434SOL    HW217508   1.034   5.152   2.844  1.6849 -0.5048 -0.0054
 4434SOL    HW317509   0.953   5.280   2.848 -0.7548 -2.0146  2.5388
 4434SOL    MW417510   1.029   5.239   2.838 -0.2853  0.2073 -0.1865
 4435SOL     OW17511   2.771   3.875   1.215  0.2684 -0.2015  0.3866
 4435SOL    HW217512   2.836   3.813   1.181  2.1340  1.9810 -0.3407
 4435SOL    HW317513   2.687   3.836   1.193  1.3681 -1.6715 -1.5713
 4435SOL    MW417514   2.768   3.862   1.207 -0.2663  0.0222  0.4296
 4436SOL     OW17515   6.316   1.443   4.754 -0.2225  0.2783  0.0507
 4436SOL    HW217516   6.324   1.537   4.740 -2.7242  0.1832 -3.8059
 4436SOL    HW317517   6.373   1.404   4.687 -2.9591 -0.6808 -1.9279
 4436SOL    MW417518   6.324   1.450   4.743 -0.0448 -0.0000  0.6129
 4437SOL     OW17519   5.871   2.940   1.806  0.1878 -0.0503  0.2327
 4437SOL    HW217520   5.911   2.997   1.741 -1.4264 -0.0869 -0.8544
 4437SOL    HW317521   5.812   2.996   1.855 -1.1160 -0.6458 -0.5857
 4437SOL    MW417522   5.868   2.955   1.804 -0.6082 -0.2564 -0.4852
 4438SOL     OW17523   4.560   2.426   0.484  0.3998 -0.5095 -0.1319
 4438SOL    HW217524   4.608   2.408   0.403  1.0509 -0.0340  0.1378
 4438SOL    HW317525   4.618   2.483   0.534 -1.7856  3.0667 -1.2742
 4438SOL    MW417526   4.574   2.431   0.480  0.8036  0.3685 -0.0880
 4439SOL     OW17527   4.228   5.976   1.478  0.0617 -0.3973  0.0589
 4439SOL    HW217528   4.273   6.055   1.447 -1.0074 -0.0112 -0.5951
 4439SOL    HW317529   4.250   5.971   1.571 -0.7325  1.3393  0.3940
 4439SOL    MW417530   4.237   5.986   1.486 -0.1865  0.0530 -0.1116
 4440SOL     OW17531   3.311   5.054   0.802 -0.2043 -0.0575  0.0070
 4440SOL    HW217532   3.374   5.039   0.731 -0.4778  0.0029 -0.2515
 4440SOL    HW317533   3.322   4.979   0.860 -0.6371 -0.5897 -0.5890
 4440SOL    MW417534   3.321   5.042   0.800 -0.4687  0.5118  0.0683
 4441SOL     OW17535   1.835   1.593   4.523  0.8139  0.1992 -0.9398
 4441SOL    HW217536   1.757   1.568   4.573 -0.2429  0.9363 -2.1641
 4441SOL    HW317537   1.902   1.609   4.589  0.0401 -0.7934  0.1268
 4441SOL    MW417538   1.834   1.592   4.538  0.5255 -0.3784  0.3852
 4442SOL     OW17539   0.061   1.806   2.753 -0.1735 -0.3127 -0.1000
 4442SOL    HW217540   0.152   1.821   2.727  0.0662  0.3171  1.0141
 4442SOL    HW317541   0.021   1.893   2.750  0.0943 -0.0404  2.3472
 4442SOL    MW417542   0.067   1.820   2.749 -0.4941 -0.0232 -0.2771
 4443SOL     OW17543   2.451   3.503   3.140 -0.4366  0.4526 -0.5838
 4443SOL    HW217544   2.478   3.414   3.115  0.3549  0.3502  0.5252
 4443SOL    HW317545   2.356   3.503   3.129 -0.5369 -0.7605 -0.0069
 4443SOL    MW417546   2.442   3.491   3.136  0.1392  0.0493  0.4025
 4444SOL     OW17547   5.217   2.955   3.085 -0.1279  0.3618 -0.2240
 4444SOL    HW217548   5.166   2.886   3.042 -1.5429  0.0640  1.7844
 4444SOL    HW317549   5.256   2.912   3.161  0.1899  1.4489  0.2443
 4444SOL    MW417550   5.215   2.940   3.089  0.6519 -0.2639  0.0499
 4445SOL     OW17551   5.343   5.228   4.294 -0.3576  0.3664  0.3068
 4445SOL    HW217552   5.280   5.268   4.233 -1.9737 -3.1770 -0.5712
 4445SOL    HW317553   5.374   5.150   4.248  2.4182  0.3606  2.0029
 4445SOL    MW417554   5.339   5.223   4.280  0.6014  0.2109  0.1000
 4446SOL     OW17555   5.644   1.605   3.000 -0.2318  0.8414  0.4464
 4446SOL    HW217556   5.581   1.617   3.072 -0.6132  2.2513 -0.0819
 4446SOL    HW317557   5.606   1.654   2.927 -1.0169 -2.3845 -1.5218
 4446SOL    MW417558   5.631   1.613   3.000 -0.0678  0.4516 -0.1601
 4447SOL     OW17559   3.991   0.469   4.188 -0.5744 -0.2827  0.1812
 4447SOL    HW217560   4.048   0.402   4.225  1.8066  1.2152 -0.5396
 4447SOL    HW317561   4.016   0.474   4.095 -1.3815  0.9241 -0.0032
 4447SOL    MW417562   4.002   0.461   4.180  0.1113  0.1162  0.6165
 4448SOL     OW17563   3.102   5.122   4.898 -0.2070  0.1628 -0.0466
 4448SOL    HW217564   3.139   5.207   4.924  0.9999  0.4574 -2.5008
 4448SOL    HW317565   3.176   5.061   4.904 -0.8257 -0.5277  0.7373
 4448SOL    MW417566   3.117   5.126   4.902  0.8843 -0.5724  0.2418
 4449SOL     OW17567   0.417   3.496   4.466 -0.3797  0.0109 -0.1860
 4449SOL    HW217568   0.380   3.496   4.378 -0.2869 -1.2339 -0.2389
 4449SOL    HW317569   0.508   3.524   4.454 -0.4269  0.0443 -0.4587
 4449SOL    MW417570   0.424   3.499   4.453  0.2057 -0.2368  0.0071
 4450SOL     OW17571   3.833   1.382   3.171  0.1055  0.1585 -0.1957
 4450SOL    HW217572   3.745   1.387   3.134  0.6777  0.8755 -1.5186
 4450SOL    HW317573   3.852   1.471   3.201  1.1963  0.5425 -1.9282
 4450SOL    MW417574   3.824   1.395   3.170 -0.0126 -0.0201  0.0583
 4451SOL     OW17575   4.393   4.950   6.178  0.1454  0.0883 -0.0562
 4451SOL    HW217576   4.426   5.007   6.246 -0.6094 -0.0258  0.4178
 4451SOL    HW317577   4.415   4.861   6.208  0.1566  0.0571 -0.1548
 4451SOL    MW417578   4.400   4.946   6.191 -0.0026 -0.4312 -0.1201
 4452SOL     OW17579   0.736   5.455   0.658 -0.5475 -0.6252  0.3493
 4452SOL    HW217580   0.768   5.514   0.591 -2.1838 -1.1067 -0.9273
 4452SOL    HW317581   0.785   5.374   0.645  0.0477 -0.3103  0.5945
 4452SOL    MW417582   0.747   5.452   0.648  0.3725 -0.5535 -0.2377
 4453SOL     OW17583   4.330   5.976   2.807  0.5259 -0.2971  0.4163
 4453SOL    HW217584   4.311   5.882   2.803 -1.2542 -0.0024  1.0700
 4453SOL    HW317585   4.294   6.010   2.724 -0.2967  0.0154  0.8868
 4453SOL    MW417586   4.323   5.968   2.795 -0.5936  0.0398  0.3943
 4454SOL     OW17587   5.277   0.565   6.279 -0.0254 -0.1314  0.1028
 4454SOL    HW217588   5.214   0.543   6.347 -2.0842  0.9704 -1.3368
 4454SOL    HW317589   5.306   0.654   6.301 -0.7648  0.2627 -0.4713
 4454SOL    MW417590   5.273   0.574   6.291  0.1654  0.9945 -0.0453
 4455SOL     OW17591   5.778   4.684   2.888 -1.2615  0.2393 -0.3084
 4455SOL    HW217592   5.739   4.738   2.957 -0.1151  0.6991  0.0096
 4455SOL    HW317593   5.821   4.613   2.935 -0.4757  0.5542 -0.5360
 4455SOL    MW417594   5.778   4.682   2.903 -0.0475  0.8016 -0.8111
 4456SOL     OW17595   5.061   3.130   1.182 -0.2257 -0.0976  0.2118
 4456SOL    HW217596   4.978   3.104   1.223 -0.6076 -0.1212 -0.5505
 4456SOL    HW317597   5.057   3.091   1.094  0.8870 -0.6542  0.3892
 4456SOL    MW417598   5.049   3.121   1.176 -0.1202 -0.6014  0.5716
 4457SOL     OW17599   4.360   4.774   5.218  0.5531  0.5072 -0.0838
 4457SOL    HW217600   4.438   4.730   5.252  0.9784  0.1476 -1.4390
 4457SOL    HW317601   4.307   4.703   5.181 -0.5526  0.7222  1.0220
 4457SOL    MW417602   4.364   4.759   5.217  0.0419  0.2430 -0.0730
 4458SOL     OW17603   1.722   0.428   5.095 -0.0412 -0.5879  0.3632
 4458SOL    HW217604   1.735   0.455   5.186  0.8648 -0.1360  0.1100
 4458SOL    HW317605   1.694   0.336   5.101  0.2496 -0.6330  1.0839
 4458SOL    MW417606   1.720   0.419   5.108 -0.6978  0.3255  0.1263
 4459SOL     OW17607   2.341   1.936   0.125 -0.2367 -0.0974  0.3981
 4459SOL    HW217608   2.284   1.906   0.054  0.2538 -0.8302  0.3093
 4459SOL    HW317609   2.287   1.928   0.204 -0.4280 -0.3141  0.2481
 4459SOL    MW417610   2.326   1.931   0.126  0.2527 -0.7262 -0.1456
 4460SOL     OW17611   2.181   2.940   4.097 -0.5432  0.1662  0.9645
 4460SOL    HW217612   2.269   2.916   4.070 -0.0616  0.8592  1.8698
 4460SOL    HW317613   2.176   2.916   4.190 -1.3775 -0.0508  0.8792
 4460SOL    MW417614   2.192   2.934   4.106  0.4185  0.0769  0.5735
 4461SOL     OW17615   0.854   0.194   3.940 -0.0313 -0.7560  0.0459
 4461SOL    HW217616   0.799   0.247   3.999  0.0694 -1.2259  0.5720
 4461SOL    HW317617   0.792   0.135   3.897 -0.2639  0.3594 -1.1903
 4461SOL    MW417618   0.838   0.193   3.942  0.5236  0.0473  0.4150
 4462SOL     OW17619   0.946   1.598   3.707  0.0220  0.6456  0.0204
 4462SOL    HW217620   0.961   1.678   3.656  1.2012 -1.1528 -2.7204
 4462SOL    HW317621   0.862   1.565   3.676  1.5345 -1.3793 -2.3092
 4462SOL    MW417622   0.937   1.604   3.696 -0.1539 -0.3748 -0.4833
 4463SOL     OW17623   3.826   2.693   0.771  0.0540  0.1168  0.1372
 4463SOL    HW217624   3.808   2.786   0.756 -0.4052  0.0967  0.5199
 4463SOL    HW317625   3.922   2.687   0.774  0.1011  0.4691 -0.5291
 4463SOL    MW417626   3.836   2.705   0.769  0.2781 -0.5436 -0.2188
 4464SOL     OW17627   6.307   5.999   6.362  0.0658 -0.0863 -0.3141
 4464SOL    HW217628   6.248   6.065   6.326 -0.4871  0.1137  0.9335
 4464SOL    HW317629   6.395   6.035   6.348 -0.1700  0.2873 -0.8467
 4464SOL    MW417630   6.311   6.012   6.355 -0.0889 -0.0433  0.2266
 4465SOL     OW17631   4.937   0.638   5.304  0.5089  0.1969 -0.6444
 4465SOL    HW217632   4.999   0.574   5.270  2.9178  1.6227  0.7414
 4465SOL    HW317633   4.981   0.722   5.291 -0.6671  1.1892  1.3649
 4465SOL    MW417634   4.951   0.641   5.298 -0.2060  0.1897  0.2152
 4466SOL     OW17635   4.527   0.495   2.199 -0.1069  0.5971  0.4832
 4466SOL    HW217636   4.534   0.486   2.294  0.4478 -0.9961  0.3229
 4466SOL    HW317637   4.455   0.437   2.175  0.7104 -0.1637 -0.2039
 4466SOL    MW417638   4.518   0.486   2.208 -0.2696 -0.1541  0.1454
 4467SOL     OW17639   3.509   3.751   3.187 -0.2712  0.5721 -0.0716
 4467SOL    HW217640   3.552   3.797   3.259  0.2636  0.7150 -0.4706
 4467SOL    HW317641   3.569   3.761   3.113 -0.4185 -0.2707 -0.3219
 4467SOL    MW417642   3.523   3.758   3.186 -0.1810 -0.7062 -0.0695
 4468SOL     OW17643   2.985   4.218   2.191  0.2296  0.1443  0.0159
 4468SOL    HW217644   2.973   4.303   2.232  0.0644  0.1374 -0.0134
 4468SOL    HW317645   3.052   4.232   2.124 -2.3887  1.1767 -2.5967
 4468SOL    MW417646   2.992   4.231   2.187  0.4277  0.0587  0.3469
 4469SOL     OW17647   5.735   5.077   4.097  0.1905  0.6169  0.0778
 4469SOL    HW217648   5.776   5.027   4.027 -0.4898  0.0060  0.1001
 4469SOL    HW317649   5.800   5.079   4.167  0.3363 -0.0033 -0.0325
 4469SOL    MW417650   5.749   5.070   4.097  0.0591 -0.3271  0.1092
 4470SOL     OW17651   6.087   4.350   2.777  0.0704 -0.1753  0.2107
 4470SOL    HW217652   5.994   4.341   2.757 -0.2574  0.3486  1.4519
 4470SOL    HW317653   6.128   4.275   2.733 -0.8229 -0.0071 -0.9631
 4470SOL    MW417654   6.080   4.339   2.768 -0.0171  0.2432  0.2792
 4471SOL     OW17655   0.101   3.891   2.627  0.2172  0.1406 -0.0097
 4471SOL    HW217656   0.169   3.877   2.561 -0.3540  1.4958 -0.9027
 4471SOL    HW317657   0.019   3.878   2.581 -0.1871 -1.3260  1.0307
 4471SOL    MW417658   0.099   3.887   2.612  0.1246 -0.1839  0.1998
 4472SOL     OW17659   4.611   1.856   4.445  0.4091 -0.3341 -0.3842
 4472SOL    HW217660   4.543   1.830   4.383  1.4957 -1.0325 -1.3491
 4472SOL    HW317661   4.689   1.868   4.390  1.3714 -0.8111  0.8234
 4472SOL    MW417662   4.613   1.854   4.430 -0.3550  0.0426  0.7678
 4473SOL     OW17663   5.342   4.510   4.266 -0.0959 -0.1609 -0.3061
 4473SOL    HW217664   5.253   4.483   4.289  0.2775 -1.3703 -0.2178
 4473SOL    HW317665   5.397   4.480   4.339  0.1890  2.2358  0.5844
 4473SOL    MW417666   5.338   4.503   4.279  0.5161 -0.2292  0.1244
 4474SOL     OW17667   0.846   3.444   3.362 -0.0123 -0.3508  0.0494
 4474SOL    HW217668   0.921   3.413   3.413 -0.0887  0.3354  0.5957
 4474SOL    HW317669   0.804   3.365   3.329 -1.0451 -0.9307  2.5755
 4474SOL    MW417670   0.850   3.429   3.364 -0.4692 -0.5294 -0.0956
 4475SOL     OW17671   2.244   6.160   3.573  0.2167 -0.1503  0.5673
 4475SOL    HW217672   2.238   6.197   3.661 -0.7198  0.6076  0.2010
 4475SOL    HW317673   2.206   6.073   3.581  0.2005 -0.1096  0.9385
 4475SOL    MW417674   2.238   6.154   3.586 -0.6336 -0.0071 -0.2775
 4476SOL     OW17675   0.934   1.349   4.191  0.0568 -0.1266 -0.1036
 4476SOL    HW217676   0.968   1.400   4.264 -0.2260  0.4818 -0.3919
 4476SOL    HW317677   0.839   1.352   4.203  0.0526 -0.9883  0.1452
 4476SOL    MW417678   0.926   1.356   4.203 -0.7849  0.4765 -0.2624
 4477SOL     OW17679   2.871   1.266   1.286 -0.0382 -0.4320  0.1812
 4477SOL    HW217680   2.843   1.184   1.246 -2.4381  1.0638 -1.4383
 4477SOL    HW317681   2.824   1.270   1.369 -1.8201  0.3231 -0.8154
 4477SOL    MW417682   2.861   1.256   1.291  0.8382  0.0971 -0.2966
 4478SOL     OW17683   4.652   3.564   0.558 -0.5037  0.2055  0.6214
 4478SOL    HW217684   4.573   3.513   0.576 -0.8586  0.7961  0.7745
 4478SOL    HW317685   4.623   3.632   0.497 -0.3967  1.1280  1.5549
 4478SOL    MW417686   4.638   3.566   0.552  0.1495  0.3799 -0.0869
 4479SOL     OW17687   4.833   3.994   1.587 -0.2972  0.3435  0.3776
 4479SOL    HW217688   4.908   4.016   1.642  0.2764  1.6578 -0.8657
 4479SOL    HW317689   4.848   4.042   1.506 -1.3555 -1.1493 -0.7645
 4479SOL    MW417690   4.845   4.003   1.583 -0.2529  0.1466  0.3471
 4480SOL     OW17691   3.130   2.342   0.892 -0.3039  0.5794  0.1661
 4480SOL    HW217692   3.179   2.271   0.851  3.0467  2.1398  1.0812
 4480SOL    HW317693   3.174   2.356   0.976 -2.2124  2.3181  0.9625
 4480SOL    MW417694   3.142   2.335   0.898  0.3458  0.2247  0.4484
 4481SOL     OW17695   5.936   1.128   2.431  0.1081  0.3351  0.1221
 4481SOL    HW217696   5.901   1.091   2.350  1.0153  0.9361 -0.5671
 4481SOL    HW317697   5.936   1.055   2.493 -1.1199  0.0084 -0.2440
 4481SOL    MW417698   5.932   1.114   2.428  0.4469  0.0502  0.1139
 4482SOL     OW17699   3.820   6.408   0.243 -0.6312  0.5924  0.5706
 4482SOL    HW217700   3.739   6.459   0.252 -0.9735  0.0919  0.3657
 4482SOL    HW317701   3.796   6.336   0.185  0.6015  1.8138 -1.5939
 4482SOL    MW417702   3.806   6.406   0.236 -0.0352 -0.3795  0.1957
 4483SOL     OW17703   5.303   5.689   5.471  0.1081 -0.3121 -0.0837
 4483SOL    HW217704   5.319   5.604   5.431 -2.8927 -1.4553  0.8618
 4483SOL    HW317705   5.258   5.740   5.404 -1.3563 -0.8377  0.4404
 4483SOL    MW417706   5.299   5.684   5.457  0.0887  0.1654 -0.2954
 4484SOL     OW17707   1.061   1.744   3.971 -0.0082 -0.0977  0.5887
 4484SOL    HW217708   1.040   1.711   3.884  1.5199  1.0945 -0.2725
 4484SOL    HW317709   1.091   1.833   3.957  1.6283 -0.3363  2.1710
 4484SOL    MW417710   1.062   1.751   3.958 -0.0628 -0.7441  0.1438
 4485SOL     OW17711   2.063   6.298   6.122 -0.1470  0.0796 -0.0608
 4485SOL    HW217712   2.152   6.329   6.143 -0.2658  0.6048 -0.3249
 4485SOL    HW317713   2.035   6.254   6.202  1.0599 -1.7610 -0.5920
 4485SOL    MW417714   2.071   6.296   6.135  0.4005 -0.0719 -0.1987
 4486SOL     OW17715   5.965   5.459   5.358  0.2971 -0.2474 -0.0119
 4486SOL    HW217716   5.990   5.510   5.281 -0.5785 -0.0904 -0.2073
 4486SOL    HW317717   5.891   5.507   5.395 -0.2195 -1.1113  0.0874
 4486SOL    MW417718   5.959   5.472   5.352 -0.1304 -0.3870  0.0910
 4487SOL     OW17719   4.334   0.104   4.471  0.5645  0.4609  0.0327
 4487SOL    HW217720   4.420   0.143   4.456  0.6448 -0.0525 -0.9069
 4487SOL    HW317721   4.272   0.174   4.448  0.7234  0.7698  0.5347
 4487SOL    MW417722   4.337   0.119   4.466  0.4332  0.1623  0.0695
 4488SOL     OW17723   3.616   2.558   0.445 -0.5424 -0.3504 -0.4962
 4488SOL    HW217724   3.566   2.482   0.414 -1.9938  0.1848  0.4284
 4488SOL    HW317725   3.571   2.633   0.406  0.7853  0.0681 -1.2747
 4488SOL    MW417726   3.603   2.558   0.436  0.5267 -0.3775 -0.1705
 4489SOL     OW17727   0.561   1.690   1.966 -0.7117 -0.1372 -0.2484
 4489SOL    HW217728   0.469   1.697   1.941 -1.2986  1.0040  1.9581
 4489SOL    HW317729   0.568   1.605   2.009 -0.8794  0.0129  0.0798
 4489SOL    MW417730   0.550   1.680   1.969  0.1241  0.0397 -0.0556
 4490SOL     OW17731   3.800   1.395   5.964 -0.1187 -0.0385 -0.2688
 4490SOL    HW217732   3.881   1.435   5.996 -0.5015  0.2734  0.3200
 4490SOL    HW317733   3.789   1.431   5.876 -0.4632  1.1675  0.2526
 4490SOL    MW417734   3.809   1.405   5.957 -0.6909 -0.3295  0.0787
 4491SOL     OW17735   1.599   3.712   1.360  0.5632 -0.4374  0.2005
 4491SOL    HW217736   1.558   3.634   1.322 -0.8509  0.9777 -1.3410
 4491SOL    HW317737   1.561   3.719   1.447 -0.2823 -0.7928 -0.1243
 4491SOL    MW417738   1.589   3.703   1.366 -0.6550 -1.1117 -0.2372
 4492SOL     OW17739   0.571   3.321   4.236 -0.1571 -0.2494  0.5185
 4492SOL    HW217740   0.617   3.370   4.167 -1.0979  0.3921  0.3184
 4492SOL    HW317741   0.612   3.350   4.317 -1.1513  1.4593  0.4661
 4492SOL    MW417742   0.582   3.331   4.237 -0.2292  0.3402  0.0508
 4493SOL     OW17743   3.742   2.942   0.740 -1.0185 -0.4629 -0.2658
 4493SOL    HW217744   3.826   2.987   0.746 -1.0961 -0.1707 -1.3121
 4493SOL    HW317745   3.696   2.969   0.820 -0.7036  0.5802 -0.4157
 4493SOL    MW417746   3.747   2.951   0.752  0.3715 -0.2922 -0.1012
 4494SOL     OW17747   5.016   5.314   2.418  0.2687 -0.5041  0.1520
 4494SOL    HW217748   4.922   5.311   2.402  0.3372 -1.4143 -0.0865
 4494SOL    HW317749   5.033   5.406   2.441 -0.7389 -0.4196  0.6156
 4494SOL    MW417750   5.006   5.326   2.419  0.3017  0.1133 -0.2186
 4495SOL     OW17751   0.699   5.716   2.336  0.3914  0.0110  0.2893
 4495SOL    HW217752   0.618   5.725   2.388  0.1855  0.3470 -0.0903
 4495SOL    HW317753   0.766   5.760   2.389  0.2537  0.0455  0.4376
 4495SOL    MW417754   0.697   5.723   2.350 -0.1904  0.4352  0.4604
 4496SOL     OW17755   2.538   1.898   2.703 -0.6524  0.3064 -0.5393
 4496SOL    HW217756   2.444   1.894   2.686 -0.5170  1.9639 -1.8500
 4496SOL    HW317757   2.578   1.854   2.628 -0.3143  1.2242 -0.8998
 4496SOL    MW417758   2.530   1.891   2.691  0.4571  0.6677 -0.4911
 4497SOL     OW17759   4.653   0.420   6.370 -0.1668 -0.0255  0.3141
 4497SOL    HW217760   4.657   0.392   6.461  2.2164 -2.4100 -0.4057
 4497SOL    HW317761   4.686   0.510   6.371  0.6105 -0.3022  1.6994
 4497SOL    MW417762   4.658   0.428   6.382  0.0892 -0.0668 -0.0866
 4498SOL     OW17763   2.921   2.627   2.689  0.4748 -0.1194 -0.1292
 4498SOL    HW217764   2.886   2.538   2.691  0.1055 -0.0076 -1.1813
 4498SOL    HW317765   3.014   2.616   2.670  0.4822 -0.2826 -0.0069
 4498SOL    MW417766   2.929   2.614   2.687  0.0570 -0.1800  0.4119
 4499SOL     OW17767   4.761   5.418   5.877  0.7783  0.5352 -0.1061
 4499SOL    HW217768   4.678   5.387   5.842  1.1790  1.3735 -1.9219
 4499SOL    HW317769   4.739   5.499   5.924  0.3826 -0.0008  0.6416
 4499SOL    MW417770   4.747   5.425   5.878 -0.1154  0.0422  1.0120
 4500SOL     OW17771   3.603   2.288   3.378 -0.3975 -0.5475  0.2585
 4500SOL    HW217772   3.514   2.295   3.345 -0.7159 -0.7148  1.0477
 4500SOL    HW317773   3.622   2.374   3.416  0.2645 -0.0956 -1.0591
 4500SOL    MW417774   3.594   2.300   3.379  0.3092  0.3359 -0.2132
 4501SOL     OW17775   3.178   6.226   3.230 -0.4965 -0.2133  0.1884
 4501SOL    HW217776   3.155   6.216   3.322  0.1013  1.4216  0.5381
 4501SOL    HW317777   3.107   6.279   3.193 -0.6443 -0.7137 -0.2687
 4501SOL    MW417778   3.165   6.232   3.237 -0.3146  0.0371  0.2284
 4502SOL     OW17779   5.029   1.262   0.605  0.9695 -0.0373 -0.5689
 4502SOL    HW217780   5.111   1.308   0.590 -0.4094  2.0027 -2.6523
 4502SOL    HW317781   4.965   1.332   0.622 -0.6696 -1.3812 -0.9068
 4502SOL    MW417782   5.031   1.278   0.605 -0.5208 -0.3217  0.2977
 4503SOL     OW17783   2.387   2.045   5.338  0.4744 -0.4825  0.3340
 4503SOL    HW217784   2.364   2.123   5.389 -2.1619 -0.4246 -0.7941
 4503SOL    HW317785   2.431   2.079   5.261  0.5225 -0.2118  0.4797
 4503SOL    MW417786   2.390   2.060   5.335 -0.2538  0.6554  0.3819
 4504SOL     OW17787   1.767   1.019   3.557 -0.3602 -0.6848 -0.1789
 4504SOL    HW217788   1.781   0.925   3.548  1.7393 -0.2943 -1.7790
 4504SOL    HW317789   1.852   1.052   3.588 -1.7238  0.4679  2.7197
 4504SOL    MW417790   1.780   1.011   3.560  0.3952 -0.5971 -0.0491
 4505SOL     OW17791   5.360   6.249   1.046 -1.1385 -0.2384  0.4147
 4505SOL    HW217792   5.420   6.196   1.098 -0.3224 -1.2556 -1.4844
 4505SOL    HW317793   5.416   6.295   0.983 -2.2796 -0.8804 -1.1285
 4505SOL    MW417794   5.375   6.248   1.045 -0.3531  0.1895  0.5379
 4506SOL     OW17795   0.816   0.315   0.473 -0.2973  0.5402  0.5716
 4506SOL    HW217796   0.771   0.263   0.540  0.1733 -1.3507 -0.5188
 4506SOL    HW317797   0.757   0.313   0.398  0.4683  0.1658 -0.0313
 4506SOL    MW417798   0.802   0.308   0.472 -0.0531  0.0225 -0.5496
 4507SOL     OW17799   5.737   6.172   4.522  0.0099 -0.3918 -0.4208
 4507SOL    HW217800   5.642   6.173   4.534 -0.0086 -0.9851 -0.4474
 4507SOL    HW317801   5.760   6.079   4.531  0.6978 -0.1427  0.4594
 4507SOL    MW417802   5.727   6.160   4.524  0.5667  0.3557 -0.5442
 4508SOL     OW17803   0.730   4.118   4.118 -0.2373  0.0006  0.2932
 4508SOL    HW217804   0.678   4.148   4.043  0.7554  3.8163  0.9362
 4508SOL    HW317805   0.692   4.163   4.193  2.4027  1.0017  1.1408
 4508SOL    MW417806   0.718   4.128   4.118  0.4968  0.1069 -0.2942
 4509SOL     OW17807   2.694   4.029   2.312  0.1409  0.0421  0.9168
 4509SOL    HW217808   2.717   4.039   2.219  0.5028 -0.1474  0.9852
 4509SOL    HW317809   2.682   3.935   2.323  1.7686 -0.1296  1.4493
 4509SOL    MW417810   2.695   4.018   2.301 -0.0735 -0.1311  0.5414
 4510SOL     OW17811   6.293   0.757   1.568  0.0120  0.1370  0.6915
 4510SOL    HW217812   6.210   0.762   1.616 -1.0461 -0.4172 -0.9865
 4510SOL    HW317813   6.315   0.848   1.549 -0.8064  0.2479  0.2085
 4510SOL    MW417814   6.285   0.770   1.572 -0.4368 -0.1594 -0.2104
 4511SOL     OW17815   5.640   5.983   5.667 -0.1245  0.7015 -0.1331
 4511SOL    HW217816   5.711   6.032   5.626  1.0008 -1.4551 -0.8862
 4511SOL    HW317817   5.646   6.005   5.760  0.0323  2.3174 -0.4995
 4511SOL    MW417818   5.650   5.993   5.674  0.1977  0.5896 -0.0648
 4512SOL     OW17819   0.504   3.895   5.031  0.4438 -0.3772  1.0221
 4512SOL    HW217820   0.424   3.890   5.083  0.2361 -0.0545  0.7344
 4512SOL    HW317821   0.570   3.849   5.084  0.0315 -0.7940  1.1766
 4512SOL    MW417822   0.502   3.889   5.045  1.1889 -0.5961 -0.2833
 4513SOL     OW17823   5.451   2.686   2.423 -0.1037  0.5953 -0.0578
 4513SOL    HW217824   5.377   2.682   2.362  0.0277 -0.2876 -0.1737
 4513SOL    HW317825   5.513   2.746   2.381 -0.3691  0.6434 -0.3881
 4513SOL    MW417826   5.449   2.693   2.409  0.0720 -0.2043  0.1275
 4514SOL     OW17827   0.577   3.554   5.774  0.1156 -0.5464  0.3285
 4514SOL    HW217828   0.617   3.467   5.782  0.9458 -0.1585  0.4220
 4514SOL    HW317829   0.483   3.536   5.770  0.3002 -1.4908 -0.1634
 4514SOL    MW417830   0.570   3.540   5.774 -0.1308  0.9095  0.7039
 4515SOL     OW17831   4.832   3.708   6.394 -0.4582 -0.1978  0.0134
 4515SOL    HW217832   4.915   3.735   6.434 -1.6436  1.9442  1.2122
 4515SOL    HW317833   4.850   3.704   6.300  0.5852  2.0953  0.0510
 4515SOL    MW417834   4.845   3.711   6.387  0.2538 -0.3769  0.3087
 4516SOL     OW17835   1.872   3.029   4.854  0.1651  0.1757  0.2688
 4516SOL    HW217836   1.933   3.050   4.784  1.5152 -0.2376  1.2800
 4516SOL    HW317837   1.854   3.114   4.896 -2.0943  0.7443 -1.6134
 4516SOL    MW417838   1.878   3.043   4.851 -0.0160 -0.2187 -0.1515
 4517SOL     OW17839   6.006   1.772   3.579  0.0483 -0.3802  0.4571
 4517SOL    HW217840   5.957   1.719   3.641 -0.5421  0.7253  0.9642
 4517SOL    HW317841   6.095   1.737   3.582 -0.0006 -0.4393  1.8229
 4517SOL    MW417842   6.012   1.761   3.587  0.4865  0.3255  0.8160
 4518SOL     OW17843   5.774   0.745   1.734 -0.3922  0.1780  0.2804
 4518SOL    HW217844   5.688   0.774   1.705 -0.8932  0.1588  1.6689
 4518SOL    HW317845   5.771   0.753   1.829  1.0767 -0.0136  0.3664
 4518SOL    MW417846   5.762   0.750   1.743 -0.1760 -0.4054  0.0856
 4519SOL     OW17847   4.528   3.086   0.862 -0.5008  0.0625  0.0051
 4519SOL    HW217848   4.543   3.146   0.935 -3.0668 -0.6705  1.2602
 4519SOL    HW317849   4.609   3.089   0.812  1.5718  0.2959  3.0760
 4519SOL    MW417850   4.540   3.094   0.865 -0.0530 -0.1456 -0.0914
 4520SOL     OW17851   6.088   3.878   1.572  0.2528 -0.7927 -0.0458
 4520SOL    HW217852   6.087   3.970   1.545 -0.4344 -0.7972 -0.0531
 4520SOL    HW317853   6.048   3.831   1.498 -4.2037 -0.5229  1.8889
 4520SOL    MW417854   6.083   3.884   1.559 -0.1615  0.2418  0.7024
 4521SOL     OW17855   4.481   0.871   0.992 -0.0939  0.0553  0.3393
 4521SOL    HW217856   4.472   0.947   1.049  2.4877 -0.1452  1.1258
 4521SOL    HW317857   4.488   0.796   1.051  0.3166 -0.4356 -0.3075
 4521SOL    MW417858   4.481   0.871   1.007  0.0785 -0.0648  0.4827
 4522SOL     OW17859   0.077   0.663   0.361  0.1593  0.2235 -0.0459
 4522SOL    HW217860   0.041   0.666   0.272 -1.1436 -0.0027  0.4507
 4522SOL    HW317861   0.046   0.743   0.402 -0.8876 -0.5804  0.7904
 4522SOL    MW417862   0.068   0.674   0.355  0.1732 -0.3122 -0.2106
 4523SOL     OW17863   3.115   1.273   1.843  0.0906 -0.2790  0.1672
 4523SOL    HW217864   3.109   1.268   1.748  0.2188  0.1113  0.1374
 4523SOL    HW317865   3.035   1.320   1.870 -0.5820 -1.4868  0.3584
 4523SOL    MW417866   3.103   1.278   1.834 -0.5407 -0.7677  0.0424
 4524SOL     OW17867   0.321   3.032   5.341 -0.3410 -0.0703 -0.2262
 4524SOL    HW217868   0.352   2.950   5.380  1.1191  1.5517  2.3515
 4524SOL    HW317869   0.399   3.071   5.301 -0.7288  0.6194 -0.3349
 4524SOL    MW417870   0.336   3.026   5.341 -0.1479  0.2340  0.7149
 4525SOL     OW17871   2.355   1.122   1.748  0.1208 -0.1319  0.0289
 4525SOL    HW217872   2.269   1.093   1.716  0.4322  0.4173 -1.3484
 4525SOL    HW317873   2.335   1.167   1.830 -1.0819  1.0582 -0.8624
 4525SOL    MW417874   2.341   1.124   1.755 -0.2564 -0.0368  0.1291
 4526SOL     OW17875   1.917   2.057   2.562  0.2353 -0.3074  0.1529
 4526SOL    HW217876   1.950   2.115   2.631  0.1679  0.4112 -0.4004
 4526SOL    HW317877   1.942   1.969   2.590  1.7471  0.1260  0.2458
 4526SOL    MW417878   1.925   2.053   2.575  0.0032  0.1556 -0.1392
 4527SOL     OW17879   4.972   3.039   0.930 -0.1010 -0.2543 -0.5351
 4527SOL    HW217880   5.054   3.035   0.882 -0.1500 -0.5470 -0.5982
 4527SOL    HW317881   4.929   3.119   0.898  1.1804  1.2043  1.1820
 4527SOL    MW417882   4.977   3.049   0.919  0.1062 -0.0405 -0.6101
 4528SOL     OW17883   3.968   3.779   0.177  0.5196 -0.0041 -0.1248
 4528SOL    HW217884   3.984   3.777   0.082 -0.5078  0.5028 -0.3165
 4528SOL    HW317885   3.941   3.869   0.195  0.1881 -0.2379  0.5709
 4528SOL    MW417886   3.967   3.790   0.167  0.1215  0.3159 -0.4466
 4529SOL     OW17887   0.176   4.406   0.154  0.0746  0.0071 -0.4429
 4529SOL    HW217888   0.119   4.474   0.117  0.7748  1.2469  0.6722
 4529SOL    HW317889   0.193   4.436   0.243  1.1535 -1.1781 -0.2369
 4529SOL    MW417890   0.170   4.419   0.161 -0.2859  0.3008 -0.4388
 4530SOL     OW17891   6.008   5.659   3.082 -0.6962 -0.9366 -0.3630
 4530SOL    HW217892   6.046   5.579   3.118  0.5776  0.1878  0.8979
 4530SOL    HW317893   5.986   5.712   3.158  1.0269  1.0385 -1.1477
 4530SOL    MW417894   6.010   5.655   3.097 -0.5117  0.5635  0.1786
 4531SOL     OW17895   5.715   5.207   5.508 -0.3285 -0.4365 -0.1869
 4531SOL    HW217896   5.711   5.294   5.469  1.2733 -0.2574  0.0019
 4531SOL    HW317897   5.766   5.219   5.589 -0.6833 -1.4271  0.2008
 4531SOL    MW417898   5.721   5.220   5.514 -0.3689 -0.6598  0.2007
 4532SOL     OW17899   2.023   3.704   1.238 -0.1401 -0.1519 -0.1591
 4532SOL    HW217900   1.991   3.712   1.148  0.1975  1.6001 -0.1577
 4532SOL    HW317901   1.996   3.785   1.281  0.9877 -0.3048  0.9174
 4532SOL    MW417902   2.015   3.715   1.232 -0.5652  0.4564  0.2440
 4533SOL     OW17903   3.245   3.565   1.056 -1.0751  0.1134 -0.0635
 4533SOL    HW217904   3.239   3.487   1.001  1.5423 -0.7636  0.7658
 4533SOL    HW317905   3.199   3.542   1.136  1.7365 -1.6502  1.1909
 4533SOL    MW417906   3.238   3.552   1.059  0.2898  0.1194 -0.4763
 4534SOL     OW17907   2.170   0.974   2.335  0.1901 -0.5310  0.4802
 4534SOL    HW217908   2.169   1.069   2.341  0.6802 -0.4157 -0.9097
 4534SOL    HW317909   2.236   0.954   2.269  0.2907 -1.8517  0.9436
 4534SOL    MW417910   2.178   0.984   2.327 -0.2440 -0.4327  0.1919
 4535SOL     OW17911   1.114   1.279   5.907 -0.1783 -0.5728 -0.9388
 4535SOL    HW217912   1.210   1.271   5.909 -0.0768  0.5928 -0.1729
 4535SOL    HW317913   1.083   1.191   5.889  0.9195 -1.7226  2.1678
 4535SOL    MW417914   1.123   1.267   5.905 -0.4490 -0.8815 -0.1379
 4536SOL     OW17915   6.099   0.841   1.980  0.2620  0.0754  0.1427
 4536SOL    HW217916   6.057   0.926   1.998 -0.2420  0.0080 -0.6644
 4536SOL    HW317917   6.098   0.834   1.884  0.9130 -0.5433  0.1738
 4536SOL    MW417918   6.093   0.852   1.970  0.4873  0.0681  0.3740
 4537SOL     OW17919   5.105   0.489   5.108 -0.1082  0.3266  0.3404
 4537SOL    HW217920   5.111   0.394   5.120 -0.0856  0.4789  1.6578
 4537SOL    HW317921   5.187   0.524   5.142 -1.2607  1.0210  2.6170
 4537SOL    MW417922   5.116   0.481   5.114  0.0214  0.0711 -0.5184
 4538SOL     OW17923   4.910   4.988   2.846 -0.5552 -0.0908 -0.7382
 4538SOL    HW217924   4.847   4.950   2.785 -1.2217  2.0089 -1.4557
 4538SOL    HW317925   4.888   5.081   2.848 -1.1236 -0.1437  3.4233
 4538SOL    MW417926   4.899   4.995   2.838 -0.7078 -0.7175  0.1815
 4539SOL     OW17927   5.980   2.251   1.467  0.2613 -0.4170  0.2886
 4539SOL    HW217928   5.956   2.173   1.417 -1.6263  0.0035  0.4559
 4539SOL    HW317929   6.072   2.265   1.447  0.2109 -1.7404 -1.0406
 4539SOL    MW417930   5.989   2.243   1.457  0.0448 -0.0618  0.1191
 4540SOL     OW17931   4.956   3.904   3.400 -0.2712 -0.2740 -0.2446
 4540SOL    HW217932   5.027   3.857   3.356 -0.4400 -0.8649  0.1084
 4540SOL    HW317933   4.882   3.844   3.398 -0.6190  0.1469 -0.1716
 4540SOL    MW417934   4.956   3.890   3.394 -0.2836  0.0192 -0.3737
 4541SOL     OW17935   1.415   3.615   4.438 -0.6055  0.8927  0.4511
 4541SOL    HW217936   1.477   3.565   4.386 -1.2792 -0.3494  0.7992
 4541SOL    HW317937   1.383   3.684   4.379  0.0675  0.6926 -0.1482
 4541SOL    MW417938   1.419   3.618   4.423  0.2459 -1.0479 -0.4903
 4542SOL     OW17939   2.214   3.946   6.220 -0.5174 -0.1890  0.4417
 4542SOL    HW217940   2.296   3.898   6.203  0.0554  1.3138 -1.5221
 4542SOL    HW317941   2.237   4.008   6.289 -0.7274 -1.4385  1.6548
 4542SOL    MW417942   2.228   3.948   6.227 -0.6773 -0.5013 -0.0904
 4543SOL     OW17943   3.293   5.931   1.064  0.2055  0.3380  0.4762
 4543SOL    HW217944   3.210   5.943   1.018  0.8957 -0.9673 -1.1856
 4543SOL    HW317945   3.273   5.873   1.137 -0.4859  0.6937  0.5740
 4543SOL    MW417946   3.280   5.925   1.068  0.4752  0.4084  0.2900
 4544SOL     OW17947   3.967   5.528   3.869  0.7640  0.5830 -0.9611
 4544SOL    HW217948   4.029   5.497   3.804 -1.1870 -1.5475 -1.9702
 4544SOL    HW317949   3.907   5.584   3.821  0.9175  1.2594 -0.3763
 4544SOL    MW417950   3.967   5.531   3.854  0.0134 -0.4552  0.2574
 4545SOL     OW17951   2.894   6.085   0.372  0.0052  0.0546 -0.2296
 4545SOL    HW217952   2.919   6.142   0.445 -1.3811 -0.7517  0.9342
 4545SOL    HW317953   2.889   5.997   0.410  0.0125 -0.5089 -1.4857
 4545SOL    MW417954   2.896   6.081   0.386  0.5054 -0.3089 -0.0634
 4546SOL     OW17955   0.264   1.316   1.091  0.3316 -0.2351  0.0284
 4546SOL    HW217956   0.288   1.348   1.178  0.1133  0.1535 -0.0532
 4546SOL    HW317957   0.341   1.268   1.061  1.5928  2.1643 -0.8238
 4546SOL    MW417958   0.277   1.314   1.099  0.3328  0.2744 -0.1195
 4547SOL     OW17959   4.089   3.561   4.666 -0.6447  0.1043  0.2660
 4547SOL    HW217960   4.180   3.541   4.645 -0.7973  0.4063 -0.7268
 4547SOL    HW317961   4.058   3.613   4.592 -2.0844 -1.2889 -0.1688
 4547SOL    MW417962   4.097   3.565   4.654  0.3072 -0.4690 -0.0609
 4548SOL     OW17963   3.615   5.759   2.604 -0.2101  0.0162  0.1367
 4548SOL    HW217964   3.641   5.679   2.557 -0.2414  0.9013 -1.4711
 4548SOL    HW317965   3.521   5.751   2.615 -0.6028  0.8512 -2.1524
 4548SOL    MW417966   3.606   5.747   2.599 -0.3186 -0.2143  1.0612
 4549SOL     OW17967   2.776   5.341   5.140 -0.5669  0.1635  0.1600
 4549SOL    HW217968   2.803   5.408   5.204 -0.8224 -0.5215  0.9987
 4549SOL    HW317969   2.776   5.387   5.056 -1.8111  1.5171  0.8645
 4549SOL    MW417970   2.780   5.356   5.137  0.4239  0.3855  0.5192
 4550SOL     OW17971   3.780   1.300   4.736 -0.0889 -0.6331  0.1210
 4550SOL    HW217972   3.863   1.271   4.773 -0.3439 -2.1257 -0.4221
 4550SOL    HW317973   3.717   1.233   4.761 -0.9923  0.1243 -0.0590
 4550SOL    MW417974   3.783   1.288   4.744 -0.3748 -0.3696  0.5192
 4551SOL     OW17975   6.217   2.871   1.626 -0.2703  0.6118 -0.3696
 4551SOL    HW217976   6.238   2.778   1.626 -0.2884  0.6016  0.2160
 4551SOL    HW317977   6.179   2.887   1.713 -0.4846  1.1135 -0.5530
 4551SOL    MW417978   6.215   2.861   1.638 -0.2257  0.0985 -0.1941
 4552SOL     OW17979   2.469   6.091   4.859 -0.5480  0.4122 -0.0485
 4552SOL    HW217980   2.477   6.057   4.770  1.6910  1.0361 -0.1538
 4552SOL    HW317981   2.482   6.185   4.851  1.4351  0.3047  1.0406
 4552SOL    MW417982   2.472   6.099   4.846 -0.2050  0.1508  0.0079
 4553SOL     OW17983   0.489   0.357   3.392  0.2518 -0.7232 -0.1484
 4553SOL    HW217984   0.438   0.413   3.334  1.6305  0.8917  0.1173
 4553SOL    HW317985   0.423   0.308   3.442 -0.9713 -0.7751 -1.7304
 4553SOL    MW417986   0.473   0.358   3.391  0.0498 -0.2073  0.4585
 4554SOL     OW17987   5.115   0.201   5.137 -0.4750  0.3974 -0.3366
 4554SOL    HW217988   5.209   0.216   5.128 -0.6097  1.7051  0.1682
 4554SOL    HW317989   5.107   0.143   5.213 -0.1665  2.5975  1.4934
 4554SOL    MW417990   5.126   0.196   5.146  0.6076 -0.4699 -0.0304
 4555SOL     OW17991   2.941   1.103   6.269 -0.1710 -0.2601 -0.2078
 4555SOL    HW217992   2.851   1.134   6.264 -0.9479 -2.3530 -0.3060
 4555SOL    HW317993   2.934   1.008   6.256  1.9825 -0.5491  0.3967
 4555SOL    MW417994   2.928   1.095   6.267  0.0711 -0.6129 -0.3199
 4556SOL     OW17995   2.347   2.061   1.624  0.2760 -0.6355  0.3938
 4556SOL    HW217996   2.371   2.064   1.532  1.1612  0.6193  0.6424
 4556SOL    HW317997   2.280   2.128   1.634  1.6539  0.7047  1.0352
 4556SOL    MW417998   2.341   2.070   1.613  0.2464 -0.2984  0.4405
 4557SOL     OW17999   3.033   5.259   3.875  0.5806  0.1386 -0.1247
 4557SOL    HW218000   3.102   5.265   3.809 -0.4353  2.5599 -1.0760
 4557SOL    HW318001   2.952   5.258   3.825 -0.1492 -0.8444  1.0342
 4557SOL    MW418002   3.031   5.260   3.860 -0.0258  0.2957 -0.0194
 4558SOL     OW18003   4.428   2.583   5.420  0.2499  0.2988 -0.0178
 4558SOL    HW218004   4.367   2.589   5.493  0.8440 -0.3847  0.5553
 4558SOL    HW318005   4.387   2.633   5.349  0.6733  2.9692  1.4726
 4558SOL    MW418006   4.415   2.590   5.420 -0.3017  0.6614 -0.5195
 4559SOL     OW18007   4.946   0.045   2.476 -0.2407  0.3322  0.0247
 4559SOL    HW218008   4.876  -0.020   2.476  0.6364 -0.6370 -0.1133
 4559SOL    HW318009   4.968   0.058   2.569  1.4579 -1.6877 -0.0276
 4559SOL    MW418010   4.940   0.038   2.488  0.5773 -0.2038  0.3361
 4560SOL     OW18011   2.806   1.145   1.558 -0.1549 -0.0943  0.2346
 4560SOL    HW218012   2.886   1.094   1.542  0.0172  0.4881 -0.8888
 4560SOL    HW318013   2.763   1.100   1.631 -0.2200 -2.1076 -0.9607
 4560SOL    MW418014   2.811   1.132   1.566  0.3774 -0.1512  0.2698
 4561SOL     OW18015   6.401   5.737   2.433 -0.3753 -0.1202 -0.0170
 4561SOL    HW218016   6.446   5.667   2.385 -1.3930 -1.4753  0.9293
 4561SOL    HW318017   6.375   5.799   2.365  0.2707 -0.8194 -0.9309
 4561SOL    MW418018   6.403   5.736   2.417  0.6888 -0.5436 -0.0417
 4562SOL     OW18019   5.583   1.830   3.433  0.1210  0.2578 -0.0723
 4562SOL    HW218020   5.574   1.758   3.371 -1.4785  0.5933 -0.2747
 4562SOL    HW318021   5.625   1.791   3.510  2.8135 -0.0113 -1.5592
 4562SOL    MW418022   5.587   1.815   3.435 -0.1033 -0.5680 -0.2424
 4563SOL     OW18023   0.725   0.163   2.996 -0.0487  0.4118  0.2118
 4563SOL    HW218024   0.670   0.193   2.923 -1.1558  0.0728  0.8955
 4563SOL    HW318025   0.664   0.149   3.068  1.1446  1.7147  1.5315
 4563SOL    MW418026   0.710   0.165   2.996 -0.1275  0.0679  0.2862
 4564SOL     OW18027   0.451   2.316   3.262  0.2966  0.4972 -0.2558
 4564SOL    HW218028   0.505   2.276   3.330  1.2267 -1.2838 -1.9740
 4564SOL    HW318029   0.513   2.362   3.205 -0.5283  2.5053  0.3489
 4564SOL    MW418030   0.466   2.317   3.264 -0.1215 -0.2439 -0.7926
 4565SOL     OW18031   5.856   3.666   2.605 -0.3417 -0.6896 -0.6078
 4565SOL    HW218032   5.857   3.752   2.647  0.1794 -1.6948  1.5778
 4565SOL    HW318033   5.943   3.656   2.568 -0.6563  0.0280 -1.5527
 4565SOL    MW418034   5.867   3.676   2.606 -0.5043  0.0444  0.2963
 4566SOL     OW18035   0.172   4.797   0.355 -0.1941  0.8035 -0.2160
 4566SOL    HW218036   0.154   4.881   0.398 -0.5213  0.8821 -0.5067
 4566SOL    HW318037   0.116   4.796   0.278  1.0862  1.0751 -1.1810
 4566SOL    MW418038   0.162   4.808   0.351  0.0644  0.5220  0.3207
 4567SOL     OW18039   3.682   0.433   5.756  0.1249  0.0929 -0.2053
 4567SOL    HW218040   3.604   0.399   5.799  0.2426 -0.2484 -0.2596
 4567SOL    HW318041   3.746   0.362   5.762  0.5548  0.5023  0.1675
 4567SOL    MW418042   3.680   0.419   5.762 -0.0703  0.4692  0.0829
 4568SOL     OW18043   3.121   2.367   6.024  0.7069 -0.1052  0.5122
 4568SOL    HW218044   3.183   2.401   5.959 -1.0946 -0.7441 -1.6595
 4568SOL    HW318045   3.163   2.286   6.055  0.7469 -0.8780 -1.4038
 4568SOL    MW418046   3.135   2.361   6.020 -0.0929  0.3058  0.2293
 4569SOL     OW18047   1.895   2.122   4.993  0.0244 -0.1398 -0.1562
 4569SOL    HW218048   1.949   2.045   4.981 -0.9299 -0.7393 -0.7467
 4569SOL    HW318049   1.914   2.152   5.082  1.9329  0.1735 -0.6411
 4569SOL    MW418050   1.904   2.116   5.003  0.0074 -0.0655 -0.3167
 4570SOL     OW18051   2.617   1.708   3.740  0.3967 -0.2582  0.1874
 4570SOL    HW218052   2.592   1.616   3.748 -1.2429  0.2103  0.9363
 4570SOL    HW318053   2.590   1.733   3.652 -0.1974 -0.2182  0.3758
 4570SOL    MW418054   2.610   1.700   3.730  0.2593  0.3125 -0.6252
 4571SOL     OW18055   3.923   5.054   1.266 -0.1955  0.2364 -0.0538
 4571SOL    HW218056   3.950   5.096   1.348 -1.0249 -0.8150  0.7858
 4571SOL    HW318057   3.989   5.081   1.202  1.4293 -0.2677  1.3446
 4571SOL    MW418058   3.935   5.063   1.268 -0.7737  0.3689  0.0094
 4572SOL     OW18059   6.301   3.549   1.306 -0.2002  0.0520 -0.2237
 4572SOL    HW218060   6.374   3.558   1.367 -0.3555  2.6614 -0.2913
 4572SOL    HW318061   6.284   3.455   1.301  0.3095 -0.3278  3.1662
 4572SOL    MW418062   6.308   3.538   1.313  0.3904 -0.0916 -0.2697
 4573SOL     OW18063   0.566   0.609   4.032 -0.0807 -1.1577  0.0051
 4573SOL    HW218064   0.497   0.675   4.032  0.7297 -0.2360 -1.3380
 4573SOL    HW318065   0.642   0.654   4.069 -0.1963 -2.1954  1.5823
 4573SOL    MW418066   0.567   0.624   4.037  0.2884  0.0976  0.3669
 4574SOL     OW18067   5.231   3.598   2.935  0.1358 -0.0583 -0.0898
 4574SOL    HW218068   5.325   3.593   2.916  0.2841 -0.8337  0.8015
 4574SOL    HW318069   5.189   3.556   2.860  0.5187 -0.0862 -0.2920
 4574SOL    MW418070   5.238   3.592   2.922  0.6444 -0.8839 -0.0648
 4575SOL     OW18071   6.317   2.448   0.635  0.1332  0.2279  0.0941
 4575SOL    HW218072   6.388   2.485   0.688  0.1140  2.1799 -1.1415
 4575SOL    HW318073   6.237   2.478   0.678  0.0915  0.2849 -0.0235
 4575SOL    MW418074   6.316   2.457   0.648 -0.1510  0.2853  0.0311
 4576SOL     OW18075   1.648   5.665   5.131  0.1650 -0.0460  0.1510
 4576SOL    HW218076   1.658   5.601   5.202 -1.1880 -0.0955  0.3211
 4576SOL    HW318077   1.618   5.745   5.175 -1.8630 -0.4217 -0.4557
 4576SOL    MW418078   1.645   5.667   5.146 -0.2309 -0.2967  0.3694
 4577SOL     OW18079   2.319   3.283   6.328  0.1173 -0.0273 -0.4239
 4577SOL    HW218080   2.387   3.312   6.267  0.0807 -1.5845 -1.2712
 4577SOL    HW318081   2.240   3.279   6.276 -0.5833  1.4030  0.4708
 4577SOL    MW418082   2.318   3.286   6.313  0.8869  0.2755  0.1149
 4578SOL     OW18083   6.407   0.102   2.290 -0.7287  0.0323  0.3361
 4578SOL    HW218084   6.496   0.098   2.324  0.3436  1.6072 -2.0117
 4578SOL    HW318085   6.361   0.161   2.350  0.2287  0.3586  0.7701
 4578SOL    MW418086   6.413   0.110   2.302  0.1468 -1.0913  0.1644
 4579SOL     OW18087   1.668   2.722   6.168 -0.1654 -0.0549  0.2818
 4579SOL    HW218088   1.633   2.644   6.212  1.0744 -0.5991  0.3450
 4579SOL    HW318089   1.704   2.689   6.086  1.9522  0.1112  1.0762
 4579SOL    MW418090   1.668   2.707   6.163  0.1185  0.1783  0.4290
 4580SOL     OW18091   2.503   2.164   2.622 -0.0760 -0.3369  0.0830
 4580SOL    HW218092   2.475   2.146   2.532 -0.6630  0.3118  0.1275
 4580SOL    HW318093   2.513   2.077   2.662 -0.4683 -0.6141 -0.4102
 4580SOL    MW418094   2.501   2.150   2.615  0.3344  0.6214  0.1009
 4581SOL     OW18095   5.115   3.405   2.755 -0.1943  0.5054 -0.4185
 4581SOL    HW218096   5.023   3.433   2.749 -0.9157 -1.2460  1.3501
 4581SOL    HW318097   5.112   3.322   2.802  2.4127  0.9014  0.6082
 4581SOL    MW418098   5.102   3.398   2.760 -0.5631  0.0677 -0.2321
 4582SOL     OW18099   1.437   2.863   6.241 -0.3114  0.0020  0.4827
 4582SOL    HW218100   1.517   2.828   6.202  0.3043  2.0588 -0.1969
 4582SOL    HW318101   1.371   2.796   6.223  1.1728 -1.6849  0.9475
 4582SOL    MW418102   1.439   2.849   6.234 -0.2863 -0.3930  0.2434
 4583SOL     OW18103   4.993   0.995   5.489  0.5243 -0.0894  1.2944
 4583SOL    HW218104   4.907   0.988   5.447  1.2622 -1.8710 -0.0783
 4583SOL    HW318105   5.040   1.060   5.437  0.4245 -0.0437  1.2606
 4583SOL    MW418106   4.988   1.002   5.477 -0.4020  0.1105  0.2161
 4584SOL     OW18107   2.627   6.345   4.367 -1.4542  0.5353  0.3575
 4584SOL    HW218108   2.560   6.338   4.434  0.1140  2.2997  2.2352
 4584SOL    HW318109   2.609   6.428   4.323 -0.7624  0.8114  0.5852
 4584SOL    MW418110   2.616   6.355   4.370 -0.2200 -0.7914  0.6405
 4585SOL     OW18111   6.230   2.548   4.480 -0.0190  0.1823  0.2731
 4585SOL    HW218112   6.312   2.515   4.445 -1.5717 -1.4088 -2.1751
 4585SOL    HW318113   6.202   2.482   4.543 -1.5126 -1.7658 -2.2253
 4585SOL    MW418114   6.237   2.535   4.483  0.2261 -0.0202 -0.1516
 4586SOL     OW18115   3.917   5.957   5.071  0.1343 -0.1622  0.3645
 4586SOL    HW218116   3.842   5.942   5.012 -1.0843  2.6944  1.0590
 4586SOL    HW318117   3.986   5.991   5.013  0.3638 -1.1956 -0.0004
 4586SOL    MW418118   3.916   5.959   5.055  0.2377 -0.0419 -0.0950
 4587SOL     OW18119   4.470   0.569   2.968  0.0503  0.0643 -0.3315
 4587SOL    HW218120   4.502   0.479   2.959  0.9878  0.3621  0.0300
 4587SOL    HW318121   4.499   0.613   2.889  0.1893  0.2338 -0.1859
 4587SOL    MW418122   4.478   0.563   2.956  1.2409 -0.1648 -0.2005
 4588SOL     OW18123   6.286   2.255   2.413  0.1630  0.4481  0.0382
 4588SOL    HW218124   6.211   2.222   2.462 -1.8378  2.7409 -1.2519
 4588SOL    HW318125   6.287   2.204   2.332 -0.7894  1.1745 -0.4529
 4588SOL    MW418126   6.277   2.244   2.409 -0.3141  0.0928 -0.2214
 4589SOL     OW18127   0.335   1.796   4.678  0.2623  0.4702 -0.2400
 4589SOL    HW218128   0.334   1.888   4.652  0.7480 -0.0007 -2.0537
 4589SOL    HW318129   0.266   1.756   4.625 -0.4137 -0.0976  1.0412
 4589SOL    MW418130   0.326   1.803   4.667  0.0749  0.5012  0.1115
 4590SOL     OW18131   3.971   4.173   3.055 -0.4289 -0.7343  0.0762
 4590SOL    HW218132   4.037   4.217   3.110 -1.0199  1.1119 -0.6171
 4590SOL    HW318133   3.923   4.117   3.116  1.3318 -1.6178  0.7217
 4590SOL    MW418134   3.974   4.172   3.070 -1.2167  0.3890 -0.1653
 4591SOL     OW18135   6.151   5.343   5.624  0.1228 -0.1629 -0.4613
 4591SOL    HW218136   6.182   5.333   5.533  0.8850  0.1958 -0.2513
 4591SOL    HW318137   6.188   5.426   5.652  1.3106 -1.0514  0.7290
 4591SOL    MW418138   6.160   5.353   5.616 -0.7259  0.4423  0.2664
 4592SOL     OW18139   4.138   3.050   0.304  0.7097 -0.4593 -0.2887
 4592SOL    HW218140   4.068   3.001   0.347 -0.7115  0.6398 -1.2848
 4592SOL    HW318141   4.160   3.119   0.366  0.5849 -0.5218 -0.1738
 4592SOL    MW418142   4.132   3.053   0.318  0.0441  0.2830 -0.5926
 4593SOL     OW18143   0.685   1.714   3.199  0.2191 -0.0221 -0.3874
 4593SOL    HW218144   0.592   1.694   3.210  0.5438 -1.1157  0.6037
 4593SOL    HW318145   0.721   1.637   3.156  0.7264  0.2530 -0.4608
 4593SOL    MW418146   0.677   1.701   3.195  0.5221 -0.5484  0.3252
 4594SOL     OW18147   4.052   2.844   4.050 -0.3576 -0.4361 -0.2135
 4594SOL    HW218148   4.131   2.862   4.000 -0.2172  0.4369  0.2982
 4594SOL    HW318149   4.064   2.755   4.083  0.8395 -0.0021  0.6079
 4594SOL    MW418150   4.064   2.834   4.048  0.8063  0.1623 -0.5271
 4595SOL     OW18151   5.477   0.499   4.369  0.0722  0.4942  0.2355
 4595SOL    HW218152   5.474   0.461   4.457 -0.8478 -0.5289 -0.2124
 4595SOL    HW318153   5.385   0.501   4.341  0.4305  0.0696 -1.0077
 4595SOL    MW418154   5.464   0.494   4.377  0.6300  0.6961  0.4691
 4596SOL     OW18155   6.106   0.505   0.019 -0.1514 -0.3311 -0.1688
 4596SOL    HW218156   6.046   0.563  -0.028 -1.6492 -2.0304 -0.4711
 4596SOL    HW318157   6.064   0.419   0.016  2.6884 -1.8243 -1.0805
 4596SOL    MW418158   6.093   0.501   0.013 -0.1358 -0.4545 -0.6315
 4597SOL     OW18159   0.389   4.162   0.809  0.4436 -0.1806 -0.6435
 4597SOL    HW218160   0.381   4.067   0.819 -2.4606 -0.1272 -1.3937
 4597SOL    HW318161   0.372   4.177   0.716 -1.5344  1.1736 -0.1224
 4597SOL    MW418162   0.386   4.151   0.798  0.1389  0.4560 -0.9496
 4598SOL     OW18163   1.233   5.101   2.440 -0.0237 -0.5077  0.3007
 4598SOL    HW218164   1.239   5.016   2.398 -1.4766 -0.0730 -0.8763
 4598SOL    HW318165   1.184   5.155   2.378 -0.0975  0.8690  1.5025
 4598SOL    MW418166   1.227   5.097   2.426 -0.3164  0.0189 -0.1830
 4599SOL     OW18167   0.515   4.263   6.110  0.5089  0.2780  0.1566
 4599SOL    HW218168   0.566   4.309   6.043 -0.8258  1.4350 -0.0982
 4599SOL    HW318169   0.502   4.176   6.073  1.4715  0.2627 -0.1934
 4599SOL    MW418170   0.520   4.258   6.096 -0.4363 -0.2530  0.2353
 4600SOL     OW18171   0.806   3.666   3.694 -0.2353 -0.3883 -0.3799
 4600SOL    HW218172   0.793   3.573   3.714 -2.3538  0.2858  1.8609
 4600SOL    HW318173   0.719   3.696   3.664  0.5306  0.8076 -1.5340
 4600SOL    MW418174   0.793   3.658   3.692  0.1855 -0.0860  0.4171
 4601SOL     OW18175   1.373   4.616   1.104  0.4114 -0.0844  0.4725
 4601SOL    HW218176   1.396   4.569   1.184 -0.0395  1.8883  1.8519
 4601SOL    HW318177   1.457   4.636   1.063  0.6205 -1.7151  0.0408
 4601SOL    MW418178   1.387   4.613   1.109 -0.2627 -0.0171  0.4563
 4602SOL     OW18179   2.068   1.347   5.557  0.1602 -0.6960  0.8147
 4602SOL    HW218180   2.120   1.335   5.478 -3.5728 -1.4289 -1.7938
 4602SOL    HW318181   2.059   1.442   5.566  0.9573 -0.5957  0.6798
 4602SOL    MW418182   2.074   1.358   5.548 -0.4729  1.2940 -0.3195
 4603SOL     OW18183   6.286   3.832   2.968 -0.3660  0.2286 -0.4898
 4603SOL    HW218184   6.214   3.775   2.994 -1.2590  2.2345  1.8380
 4603SOL    HW318185   6.244   3.906   2.925  0.7456 -0.5858 -3.1810
 4603SOL    MW418186   6.271   3.834   2.966 -0.1321 -0.2630  0.7594
 4604SOL     OW18187   4.773   4.744   1.732 -0.0022  0.3239  0.7216
 4604SOL    HW218188   4.835   4.739   1.805  0.7980 -1.2042 -0.0034
 4604SOL    HW318189   4.700   4.688   1.759  0.3797 -0.3931  0.2922
 4604SOL    MW418190   4.771   4.736   1.745  0.1555 -0.0430 -0.0807
 4605SOL     OW18191   0.349   1.299   1.756  0.5244  0.3964 -0.0472
 4605SOL    HW218192   0.348   1.204   1.745  2.4303  0.0708  2.0204
 4605SOL    HW318193   0.441   1.322   1.759  0.1090  2.3882 -0.7271
 4605SOL    MW418194   0.361   1.289   1.755  0.4944  0.3682 -0.4380
 4606SOL     OW18195   4.595   3.226   6.200 -0.3937 -0.1667  0.2334
 4606SOL    HW218196   4.668   3.287   6.188 -1.2929  0.8580 -0.2355
 4606SOL    HW318197   4.592   3.176   6.118 -1.1955  0.9059 -0.4182
 4606SOL    MW418198   4.604   3.227   6.188  0.1439  0.1023  0.0025
 4607SOL     OW18199   0.399   3.871   5.563 -0.4390 -0.4786  0.3810
 4607SOL    HW218200   0.360   3.807   5.502  0.2125 -0.4729 -0.0538
 4607SOL    HW318201   0.402   3.952   5.513  2.0967 -0.9730 -0.3943
 4607SOL    MW418202   0.394   3.873   5.548 -0.0760  0.6299 -0.8643
 4608SOL     OW18203   2.080   5.921   0.862 -0.3992  0.3516  0.4436
 4608SOL    HW218204   2.060   5.976   0.786 -0.6379  0.0534  0.2896
 4608SOL    HW318205   2.058   5.975   0.937  0.9789  1.1173  0.3468
 4608SOL    MW418206   2.075   5.935   0.862  0.4079 -0.4628 -0.1474
 4609SOL     OW18207   4.439   1.828   0.305  0.0516 -0.2849  0.0121
 4609SOL    HW218208   4.416   1.739   0.333  0.4335 -0.1072  0.9322
 4609SOL    HW318209   4.355   1.871   0.289 -0.1228 -1.0086 -1.0986
 4609SOL    MW418210   4.425   1.822   0.307 -0.1374  0.1425 -0.0657
 4610SOL     OW18211   6.018   5.497   2.701  0.3348 -0.5043  0.0697
 4610SOL    HW218212   5.925   5.505   2.722  1.0823  0.1965  3.9500
 4610SOL    HW318213   6.047   5.586   2.684  0.6110 -0.4365  0.8283
 4610SOL    MW418214   6.009   5.510   2.702  0.6316  0.0882  0.6432
 4611SOL     OW18215   4.973   1.681   4.400 -0.6200  1.2007  0.1587
 4611SOL    HW218216   4.900   1.625   4.427  2.5661 -2.1939  2.7689
 4611SOL    HW318217   5.021   1.628   4.336 -0.2707  3.2782 -1.4075
 4611SOL    MW418218   4.970   1.666   4.395 -0.4560  0.0742  0.2431
 4612SOL     OW18219   5.699   4.225   4.918  0.4507 -0.3965 -0.0048
 4612SOL    HW218220   5.645   4.153   4.953 -2.5592  1.0624 -1.3341
 4612SOL    HW318221   5.747   4.185   4.846 -0.5545 -1.3103 -0.2072
 4612SOL    MW418222   5.698   4.210   4.913  0.5564  0.2550  0.3771
 4613SOL     OW18223   6.132   4.209   3.014 -0.3239  0.1216 -0.0316
 4613SOL    HW218224   6.134   4.132   2.957  3.0415  0.2468 -0.3145
 4613SOL    HW318225   6.115   4.283   2.955  0.0009 -0.0848 -0.3899
 4613SOL    MW418226   6.130   4.209   2.999  0.1147  0.2471 -0.1299
 4614SOL     OW18227   2.776   4.911   3.511 -0.1650  0.0115 -0.3775
 4614SOL    HW218228   2.850   4.958   3.548 -0.0979 -1.8071  2.0306
 4614SOL    HW318229   2.700   4.967   3.528 -0.1759 -0.8234  2.9395
 4614SOL    MW418230   2.776   4.925   3.518 -0.4263 -0.5859 -0.2745
 4615SOL     OW18231   3.123   5.922   1.703  0.3194 -0.6932 -0.2745
 4615SOL    HW218232   3.084   5.948   1.787  0.5237 -1.8309  0.1889
 4615SOL    HW318233   3.062   5.858   1.667  0.0474  0.0579 -1.1875
 4615SOL    MW418234   3.110   5.917   1.710  0.3439 -0.1086  0.1342
 4616SOL     OW18235   0.813   5.155   4.596  0.8264  0.2400 -0.1599
 4616SOL    HW218236   0.776   5.108   4.671 -1.0647 -0.8763 -1.7015
 4616SOL    HW318237   0.812   5.247   4.623 -2.7936  0.2729  0.1353
 4616SOL    MW418238   0.808   5.161   4.609  0.0062  0.9717 -0.6433
 4617SOL     OW18239   3.222   2.567   0.723 -0.5824 -0.0763  0.0577
 4617SOL    HW218240   3.185   2.511   0.792 -1.5504  0.0328 -0.3504
 4617SOL    HW318241   3.314   2.576   0.746 -0.5467 -1.3171  0.4879
 4617SOL    MW418242   3.229   2.561   0.735 -0.2995 -0.1034  0.5317
 4618SOL     OW18243   1.525   0.459   1.319 -0.0991 -0.6191  0.3944
 4618SOL    HW218244   1.489   0.547   1.335 -1.1629 -0.7861 -0.9684
 4618SOL    HW318245   1.620   0.473   1.316  0.0703 -0.1059  3.6465
 4618SOL    MW418246   1.533   0.473   1.321  0.3675  0.0953  0.3375
 4619SOL     OW18247   0.029   4.178   2.104  0.3606 -0.0381  0.6966
 4619SOL    HW218248   0.009   4.095   2.148  2.7393 -1.2860 -0.4052
 4619SOL    HW318249  -0.052   4.201   2.059 -0.8484 -0.8664  2.3356
 4619SOL    MW418250   0.016   4.170   2.104 -0.4775  0.3991 -0.4439
 4620SOL     OW18251   3.408   3.149   4.159  0.2929 -0.6869  0.0796
 4620SOL    HW218252   3.341   3.146   4.091 -1.2851  1.2650  1.4234
 4620SOL    HW318253   3.476   3.208   4.124 -0.4676  0.2407  0.1303
 4620SOL    MW418254   3.408   3.157   4.145  0.4430 -0.1629  0.1467
 4621SOL     OW18255   0.967   1.861   5.444  0.1246 -0.9488 -0.4414
 4621SOL    HW218256   1.041   1.820   5.400  0.1912  0.2167 -1.4822
 4621SOL    HW318257   0.920   1.906   5.374 -0.7968 -0.5458  0.4153
 4621SOL    MW418258   0.971   1.861   5.429 -0.7911  0.2646  0.0824
 4622SOL     OW18259   4.113   0.789   3.327  0.3627  0.3846 -0.2626
 4622SOL    HW218260   4.059   0.739   3.267 -0.4936  1.7783 -0.7085
 4622SOL    HW318261   4.197   0.799   3.281  0.1112  0.4250 -0.7177
 4622SOL    MW418262   4.117   0.784   3.313  0.1990 -0.5832  0.6545
 4623SOL     OW18263   1.736   0.397   5.942 -0.4524 -0.3357  0.2624
 4623SOL    HW218264   1.787   0.395   6.023  2.1112  0.1860 -1.2319
 4623SOL    HW318265   1.745   0.309   5.906  1.5707  0.4111 -1.2084
 4623SOL    MW418266   1.744   0.385   5.948  0.8476 -0.1192  0.2885
 4624SOL     OW18267   4.690   2.087   3.317  0.4556  0.0718 -0.3241
 4624SOL    HW218268   4.602   2.053   3.338  1.0533 -2.4418 -1.5181
 4624SOL    HW318269   4.693   2.088   3.222  1.5397  0.7153 -0.3000
 4624SOL    MW418270   4.678   2.083   3.307  0.2033  0.5431  0.2448
 4625SOL     OW18271   4.548   3.176   4.498  0.0505  0.2547  0.2053
 4625SOL    HW218272   4.633   3.207   4.528  0.5456  0.4923 -1.3622
 4625SOL    HW318273   4.516   3.120   4.569  1.6255 -0.0524  0.7029
 4625SOL    MW418274   4.555   3.173   4.511 -0.3089  0.1314  0.3922
 4626SOL     OW18275   1.154   2.335   4.580  0.7894  0.6673 -0.1161
 4626SOL    HW218276   1.136   2.320   4.673 -0.6818  1.6051 -0.2201
 4626SOL    HW318277   1.221   2.270   4.558  1.7893  0.9645  1.7893
 4626SOL    MW418278   1.161   2.325   4.589 -0.0684 -0.2959  0.0402
 4627SOL     OW18279   3.431   0.844   4.178  0.2316  0.3686  0.6161
 4627SOL    HW218280   3.466   0.930   4.204 -0.3634  0.7250  0.2743
 4627SOL    HW318281   3.451   0.838   4.085 -1.4897  1.0348  0.1684
 4627SOL    MW418282   3.438   0.855   4.169 -0.2295  0.1509 -0.5216
 4628SOL     OW18283   5.525   3.599   4.521  0.4190 -0.3669 -0.1583
 4628SOL    HW218284   5.494   3.562   4.604  0.3957 -1.6178 -0.7019
 4628SOL    HW318285   5.550   3.688   4.543  0.3086 -0.6377  1.1763
 4628SOL    MW418286   5.524   3.606   4.535 -0.1380  0.1208  0.6640
 4629SOL     OW18287   0.800   4.618   6.355 -0.8059  0.1051 -0.2495
 4629SOL    HW218288   0.759   4.704   6.348 -1.0219 -0.0267 -0.6412
 4629SOL    HW318289   0.809   4.588   6.264  0.7813  0.4230 -0.2310
 4629SOL    MW418290   0.796   4.625   6.342 -0.6090 -0.6495  0.8167
 4630SOL     OW18291   4.170   0.987   0.792 -0.5276  0.3993  0.0093
 4630SOL    HW218292   4.208   1.075   0.795 -1.0855  0.6267  0.7718
 4630SOL    HW318293   4.224   0.940   0.728 -0.9247  1.6260 -1.2994
 4630SOL    MW418294   4.182   0.992   0.784 -1.0674  0.5091  0.6563
 4631SOL     OW18295   5.697   3.829   5.566  0.6755  0.4746 -0.5818
 4631SOL    HW218296   5.740   3.744   5.574  0.9707  0.5709 -1.0921
 4631SOL    HW318297   5.606   3.814   5.593  1.1256  0.3626  0.9511
 4631SOL    MW418298   5.691   3.816   5.571  0.2217  0.7381  1.0749
 4632SOL     OW18299   1.810   6.265   0.594  0.0135  0.1809 -0.6506
 4632SOL    HW218300   1.733   6.268   0.651  0.6589  1.7298  0.1897
 4632SOL    HW318301   1.803   6.344   0.541  1.7963  1.1933  0.5273
 4632SOL    MW418302   1.799   6.276   0.595  0.2090 -0.7539 -0.0550
 4633SOL     OW18303   4.290   2.418   0.404  0.3146 -0.2278  0.1773
 4633SOL    HW218304   4.383   2.415   0.429  0.1710 -1.8663  0.6049
 4633SOL    HW318305   4.291   2.414   0.308  0.7146  1.9692  0.0200
 4633SOL    MW418306   4.303   2.417   0.395  0.4247  0.3514 -0.3986
 4634SOL     OW18307   0.387   5.276   0.497  0.2948 -0.0485  0.1284
 4634SOL    HW218308   0.365   5.208   0.561 -0.1876 -0.0558 -0.0404
 4634SOL    HW318309   0.469   5.246   0.457  0.2362 -0.3884  0.2616
 4634SOL    MW418310   0.395   5.263   0.500  0.0740 -0.2451  0.2497
 4635SOL     OW18311   3.231   1.209   3.745 -0.7056 -0.1838 -0.0789
 4635SOL    HW218312   3.291   1.210   3.820 -0.8212  1.1645  0.0187
 4635SOL    HW318313   3.186   1.294   3.749 -2.8258 -1.2425  0.0014
 4635SOL    MW418314   3.233   1.221   3.756  0.3068 -0.1140 -0.1944
 4636SOL     OW18315   3.642   3.784   1.264 -0.2695  0.0053  0.1042
 4636SOL    HW218316   3.589   3.708   1.287  1.0427 -0.9954 -0.0295
 4636SOL    HW318317   3.623   3.799   1.171 -0.7822  0.0588  0.2150
 4636SOL    MW418318   3.633   3.776   1.254  0.0182  0.1248 -0.7437
 4637SOL     OW18319   2.347   5.899   1.596 -1.1784  0.4237 -0.0076
 4637SOL    HW218320   2.410   5.913   1.525 -0.5838 -1.2346  0.1563
 4637SOL    HW318321   2.270   5.950   1.570 -1.4799 -1.1617 -2.5034
 4637SOL    MW418322   2.346   5.908   1.583 -0.2314 -0.0122 -0.7999
 4638SOL     OW18323   4.796   5.968   0.685  0.2381  0.3108 -0.0845
 4638SOL    HW218324   4.816   5.875   0.700  0.4851  0.4171  0.2545
 4638SOL    HW318325   4.765   5.971   0.595 -1.3696 -0.3619  0.4148
 4638SOL    MW418326   4.795   5.956   0.675  0.0207  0.1387  0.0356
 4639SOL     OW18327   1.326   2.055   5.065  0.0900  0.1244 -0.1550
 4639SOL    HW218328   1.378   1.975   5.057 -1.3384 -1.0200  1.2359
 4639SOL    HW318329   1.292   2.070   4.976  1.3054 -0.1294 -0.6801
 4639SOL    MW418330   1.328   2.046   5.052 -0.0828 -0.4583 -0.0301
 4640SOL     OW18331   4.826   5.847   2.872  0.2554  0.5815  0.1497
 4640SOL    HW218332   4.852   5.785   2.804 -0.2543  1.3723 -0.7960
 4640SOL    HW318333   4.752   5.895   2.834  1.4006  2.6274  0.3257
 4640SOL    MW418334   4.820   5.845   2.858  0.6932 -0.5128  0.0792
 4641SOL     OW18335   4.573   1.337   5.158  0.2190  0.2131  0.7529
 4641SOL    HW218336   4.594   1.374   5.072  0.8528  1.1380  1.2856
 4641SOL    HW318337   4.481   1.312   5.152 -0.2611  1.9569  0.3639
 4641SOL    MW418338   4.564   1.339   5.146  0.0695  0.0582 -0.1355
 4642SOL     OW18339   0.251   2.353   5.797 -0.5274 -0.8947  0.2213
 4642SOL    HW218340   0.224   2.299   5.871 -0.1152  1.8877  2.6217
 4642SOL    HW318341   0.192   2.429   5.800  0.8615  0.3004 -0.9835
 4642SOL    MW418342   0.239   2.356   5.807  0.4844  0.0823  0.0255
 4643SOL     OW18343   4.793   5.842   2.142 -0.2682  0.6595  0.4904
 4643SOL    HW218344   4.843   5.843   2.223 -1.2977  2.0407  1.1532
 4643SOL    HW318345   4.760   5.752   2.135 -0.0315  0.4825  1.5108
 4643SOL    MW418346   4.795   5.830   2.152 -0.2150 -0.1789  0.1217
 4644SOL     OW18347   0.908   1.012   4.352  0.0081 -0.0482  0.2532
 4644SOL    HW218348   0.932   1.086   4.408 -0.2690 -0.1482  0.5085
 4644SOL    HW318349   0.991   0.973   4.326  0.1784  0.6650 -0.3069
 4644SOL    MW418350   0.922   1.016   4.356 -0.1739 -0.1008  0.2901
 4645SOL     OW18351   3.271   3.421   1.619 -0.6618  0.0012  0.4534
 4645SOL    HW218352   3.179   3.396   1.634 -0.3578 -2.2732 -1.1848
 4645SOL    HW318353   3.274   3.446   1.527  0.6656 -1.4313  0.0911
 4645SOL    MW418354   3.259   3.421   1.609 -0.7342  0.0123  0.6495
 4646SOL     OW18355   0.309   0.022   6.308 -0.2064  0.2770  0.0985
 4646SOL    HW218356   0.300  -0.071   6.328  0.0480  0.3205  0.4172
 4646SOL    HW318357   0.270   0.031   6.220 -2.1404  0.2577  0.9080
 4646SOL    MW418358   0.303   0.011   6.299 -0.2178 -0.5886 -0.6887
 4647SOL     OW18359   2.373   5.670   0.622  0.4959  0.2302  0.2153
 4647SOL    HW218360   2.385   5.713   0.707  1.8545  0.3354 -0.0022
 4647SOL    HW318361   2.414   5.584   0.633 -0.5114 -0.2780  0.0628
 4647SOL    MW418362   2.380   5.665   0.635 -1.0607 -0.3772 -0.6231
 4648SOL     OW18363   6.063   1.153   4.581  0.1268 -0.0334 -0.4335
 4648SOL    HW218364   5.986   1.107   4.614  0.6456  0.1894  1.1423
 4648SOL    HW318365   6.132   1.087   4.580  0.2327  0.0789 -0.6453
 4648SOL    MW418366   6.062   1.138   4.585 -0.3036 -0.4662  0.1400
 4649SOL     OW18367   5.110   5.148   0.305 -0.1446  0.5182  0.5022
 4649SOL    HW218368   5.096   5.215   0.372  0.7298 -0.4432  1.6818
 4649SOL    HW318369   5.205   5.151   0.288 -0.0194 -0.7336  0.9197
 4649SOL    MW418370   5.121   5.157   0.311 -0.1344  0.3410  0.2175
 4650SOL     OW18371   1.338   1.062   3.659 -0.1508  0.1832  0.7686
 4650SOL    HW218372   1.362   1.090   3.748  1.2096  0.2319  0.4154
 4650SOL    HW318373   1.352   0.967   3.660 -3.5663 -0.4253  1.6019
 4650SOL    MW418374   1.343   1.053   3.671  0.4523 -0.4351 -0.1612
 4651SOL     OW18375   0.378   4.625   0.258 -0.2178 -0.1023 -0.0280
 4651SOL    HW218376   0.315   4.681   0.303 -0.0691 -0.3086  0.4417
 4651SOL    HW318377   0.439   4.597   0.326  1.0389  0.9645 -0.6608
 4651SOL    MW418378   0.378   4.629   0.273 -0.5209 -0.3051  0.3865
 4652SOL     OW18379   3.130   1.012   2.375 -0.2557 -0.2337  0.4169
 4652SOL    HW218380   3.145   1.069   2.300 -0.1678  1.0601  1.3714
 4652SOL    HW318381   3.035   0.997   2.376 -0.3192  0.1652  0.3451
 4652SOL    MW418382   3.120   1.017   2.365 -0.3054  0.3172  0.0126
 4653SOL     OW18383   4.396   1.917   5.966 -0.4931  0.4408  0.5776
 4653SOL    HW218384   4.345   1.984   5.920 -0.7238  1.6983  2.5443
 4653SOL    HW318385   4.487   1.940   5.949 -0.5585  1.5646  1.5477
 4653SOL    MW418386   4.401   1.929   5.958  0.0286 -0.2859  0.0103
 4654SOL     OW18387   5.508   5.521   5.030 -0.0743  0.6989  0.3328
 4654SOL    HW218388   5.480   5.606   5.062 -1.7092 -0.2703  1.6373
 4654SOL    HW318389   5.436   5.491   4.975  1.2180  0.8374 -1.5374
 4654SOL    MW418390   5.495   5.528   5.027  0.6254 -0.2654  0.0915
 4655SOL     OW18391   5.047   2.804   2.919 -0.5687 -0.5209  0.2776
 4655SOL    HW218392   4.962   2.820   2.960 -0.8396 -0.9716 -0.0906
 4655SOL    HW318393   5.039   2.845   2.832 -0.8055 -1.4989 -0.1726
 4655SOL    MW418394   5.034   2.812   2.913  0.0688 -0.3163  0.5771
 4656SOL     OW18395   5.486   2.551   0.028 -0.0119 -0.3053  0.1744
 4656SOL    HW218396   5.448   2.632   0.063  1.8805  0.6008  0.2491
 4656SOL    HW318397   5.436   2.535  -0.052 -0.8702  0.5450  0.5077
 4656SOL    MW418398   5.474   2.560   0.022 -0.4439  0.4885 -0.4997
 4657SOL     OW18399   1.377   1.243   4.429 -0.1596 -0.0414 -0.2682
 4657SOL    HW218400   1.351   1.176   4.493 -0.6392 -0.0658 -0.4873
 4657SOL    HW318401   1.408   1.193   4.353 -2.5436 -0.0762 -1.2954
 4657SOL    MW418402   1.378   1.227   4.427  0.0976  0.2068 -0.2139
 4658SOL     OW18403   3.196   4.163   5.837 -0.4471 -0.0930 -0.3368
 4658SOL    HW218404   3.264   4.103   5.806 -1.7621 -1.9240  0.1501
 4658SOL    HW318405   3.177   4.220   5.762  2.2280  1.1158 -0.1988
 4658SOL    MW418406   3.202   4.163   5.823  0.3831 -1.2807  0.2115
 4659SOL     OW18407   2.805   1.041   0.681 -0.4725  0.2229 -0.0622
 4659SOL    HW218408   2.742   1.110   0.661  0.0632  0.6658 -0.2222
 4659SOL    HW318409   2.751   0.965   0.703 -1.0726  0.3495 -1.0420
 4659SOL    MW418410   2.790   1.040   0.681  0.1837  0.2022 -0.5978
 4660SOL     OW18411   0.856   2.635   2.157  0.1481 -0.2461 -0.3763
 4660SOL    HW218412   0.889   2.552   2.120  0.6878  0.1816 -0.8762
 4660SOL    HW318413   0.771   2.612   2.194  0.6019 -1.1807  0.1190
 4660SOL    MW418414   0.849   2.621   2.157 -0.6296 -0.1863 -0.0472
 4661SOL     OW18415   6.055   1.384   1.654 -0.4250  0.1815  0.4930
 4661SOL    HW218416   6.108   1.334   1.592 -1.0622 -0.5816  0.5477
 4661SOL    HW318417   6.109   1.390   1.733 -0.0142  0.3011  0.2053
 4661SOL    MW418418   6.069   1.379   1.657  0.1231  0.2237  0.0162
 4662SOL     OW18419   2.707   2.389   2.511  0.2208  0.0072 -0.0449
 4662SOL    HW218420   2.638   2.333   2.547  0.2915 -1.0293 -1.4834
 4662SOL    HW318421   2.788   2.356   2.551 -0.1251  1.9086  2.4991
 4662SOL    MW418422   2.709   2.377   2.521 -0.2757 -0.2956 -0.1192
 4663SOL     OW18423   4.022   1.691   5.374  0.0750  1.0359 -0.2278
 4663SOL    HW218424   4.005   1.752   5.446  1.6569  0.1769  0.9371
 4663SOL    HW318425   3.953   1.708   5.311 -4.2806 -1.1978  3.3767
 4663SOL    MW418426   4.011   1.701   5.375 -0.4544  0.1451  0.1434
 4664SOL     OW18427   2.964   2.149   0.634 -0.2392 -0.3142 -0.0747
 4664SOL    HW218428   3.037   2.205   0.608 -1.4924  0.7164 -1.5139
 4664SOL    HW318429   2.911   2.140   0.555 -1.5902 -1.1913  0.8886
 4664SOL    MW418430   2.967   2.155   0.620  0.0872 -0.2121  0.1362
 4665SOL     OW18431   1.791   1.271   5.518 -0.6421  0.0606 -0.1493
 4665SOL    HW218432   1.822   1.182   5.533  0.1267  0.1455 -1.1473
 4665SOL    HW318433   1.869   1.320   5.494 -1.3796  0.4827 -1.8432
 4665SOL    MW418434   1.805   1.266   5.517  0.2465  0.2077  0.2008
 4666SOL     OW18435   1.204   0.893   4.918 -0.3661  0.6473  0.9083
 4666SOL    HW218436   1.194   0.984   4.943  0.4415  1.7213 -2.1427
 4666SOL    HW318437   1.293   0.888   4.883 -1.3059 -0.5020 -1.5892
 4666SOL    MW418438   1.214   0.904   4.916 -0.9212  0.0785 -0.2810
 4667SOL     OW18439   5.960   4.805   3.659 -0.7574  0.4721 -0.2484
 4667SOL    HW218440   5.913   4.863   3.720  0.1227 -0.0903  1.0044
 4667SOL    HW318441   5.992   4.734   3.714  0.2010  0.0244 -1.3528
 4667SOL    MW418442   5.958   4.804   3.674  0.1672 -0.5369 -0.1394
 4668SOL     OW18443   3.874   3.238   4.811  0.2704  0.0578  0.3851
 4668SOL    HW218444   3.791   3.201   4.840  0.8490 -0.4071  1.5111
 4668SOL    HW318445   3.850   3.312   4.755 -0.9015 -0.8467 -0.3571
 4668SOL    MW418446   3.860   3.242   4.808  0.2298  0.2481 -0.1693
 4669SOL     OW18447   6.249   5.887   4.381 -0.3716  0.4845 -0.7163
 4669SOL    HW218448   6.186   5.828   4.424 -0.2817  0.2544 -0.8967
 4669SOL    HW318449   6.334   5.845   4.393 -0.2832  0.6710 -0.6860
 4669SOL    MW418450   6.252   5.873   4.388 -0.4080 -0.6000 -0.2025
 4670SOL     OW18451   3.678   1.700   4.509  0.1673 -0.3306  0.2299
 4670SOL    HW218452   3.716   1.615   4.486  0.5859 -0.9005  2.7161
 4670SOL    HW318453   3.591   1.699   4.469  1.2810 -0.5888 -2.3849
 4670SOL    MW418454   3.672   1.689   4.501 -0.0585  0.2318  0.4530
 4671SOL     OW18455   5.301   3.235   4.137  0.4998  0.5977 -0.5694
 4671SOL    HW218456   5.214   3.274   4.141  0.1907 -0.0183 -1.0847
 4671SOL    HW318457   5.350   3.292   4.078 -0.1518 -0.1379 -1.8730
 4671SOL    MW418458   5.296   3.248   4.130  0.7734 -0.6522  0.5274
 4672SOL     OW18459   5.355   0.302   5.033 -0.3029 -0.6723  0.6455
 4672SOL    HW218460   5.381   0.231   4.974  1.2228 -0.3865  0.9348
 4672SOL    HW318461   5.343   0.377   4.975 -0.3155 -0.7598  0.5330
 4672SOL    MW418462   5.357   0.302   5.017  0.3594  0.3425  0.0207
 4673SOL     OW18463   0.269   1.305   3.656 -0.1890  0.3862 -0.5009
 4673SOL    HW218464   0.339   1.250   3.622 -0.4174 -0.1851 -0.0639
 4673SOL    HW318465   0.208   1.314   3.584 -0.6488 -0.7755 -0.2762
 4673SOL    MW418466   0.270   1.299   3.642  0.3525 -0.3030  0.4039
 4674SOL     OW18467   3.440   6.014   4.923 -0.5092 -0.8348 -0.3189
 4674SOL    HW218468   3.466   6.104   4.945  0.9907 -1.4654  0.6674
 4674SOL    HW318469   3.347   6.010   4.945 -0.5387  0.4030 -0.1480
 4674SOL    MW418470   3.431   6.025   4.929  0.1640  0.4101  0.0708
 4675SOL     OW18471   0.137   0.139   0.079 -0.1598  0.4340  0.2577
 4675SOL    HW218472   0.057   0.136   0.027 -0.3650  1.8018  0.4606
 4675SOL    HW318473   0.205   0.107   0.020 -0.5090  1.2617 -0.6138
 4675SOL    MW418474   0.135   0.134   0.065  0.2004  0.1875  0.0898
 4676SOL     OW18475   2.383   5.797   4.425 -0.1131 -0.2882  0.2090
 4676SOL    HW218476   2.425   5.870   4.379 -1.7680  0.0906 -0.8221
 4676SOL    HW318477   2.371   5.730   4.358 -0.8791 -0.4864  0.5349
 4676SOL    MW418478   2.387   5.798   4.410  0.3305 -0.6228 -0.5284
 4677SOL     OW18479   2.960   0.435   0.590  0.5404 -0.1104  0.3404
 4677SOL    HW218480   2.986   0.343   0.595 -2.5225 -1.1265 -0.0539
 4677SOL    HW318481   2.974   0.469   0.678 -0.0990 -1.5388  1.0248
 4677SOL    MW418482   2.965   0.427   0.602  0.3420  0.5482  0.4849
 4678SOL     OW18483   2.149   0.122   2.169  0.4595  0.3683  0.4052
 4678SOL    HW218484   2.157   0.216   2.153 -0.4242  0.5531  0.9572
 4678SOL    HW318485   2.191   0.108   2.254 -0.9225  0.5758  1.1490
 4678SOL    MW418486   2.156   0.132   2.178 -0.3821 -0.5263  0.2236
 4679SOL     OW18487   3.201   4.925   5.619  0.2300  0.6977  0.0386
 4679SOL    HW218488   3.124   4.982   5.620  0.6940  1.3382  0.7720
 4679SOL    HW318489   3.244   4.942   5.703  0.1319 -1.0898  0.5116
 4679SOL    MW418490   3.197   4.935   5.630 -0.2749  0.2711  0.0234
 4680SOL     OW18491   5.949   5.300   2.255 -0.2010  0.1481  0.3571
 4680SOL    HW218492   5.995   5.242   2.315  0.2974  0.5505  0.3745
 4680SOL    HW318493   6.013   5.368   2.233 -0.9791  1.1037  0.9177
 4680SOL    MW418494   5.964   5.302   2.260  0.6052 -0.3852 -0.0472
 4681SOL     OW18495   1.155   5.644   1.743  0.1001  0.4352  0.0318
 4681SOL    HW218496   1.247   5.660   1.761 -0.1488  0.8341  0.9751
 4681SOL    HW318497   1.108   5.696   1.807 -0.7908  0.3514 -0.5372
 4681SOL    MW418498   1.161   5.653   1.754 -0.6696 -0.1502  0.0306
 4682SOL     OW18499   0.738   0.940   0.473  0.5484  0.1052  0.0762
 4682SOL    HW218500   0.728   0.856   0.427  1.2964  0.7906 -1.4022
 4682SOL    HW318501   0.770   0.915   0.560 -2.0826 -1.3074  0.7412
 4682SOL    MW418502   0.741   0.925   0.478 -0.0761 -0.0230 -0.1574
 4683SOL     OW18503   3.132   5.629   0.311 -0.4283 -0.5017 -0.8155
 4683SOL    HW218504   3.139   5.691   0.238 -1.3312  0.0365 -0.4521
 4683SOL    HW318505   3.141   5.543   0.269 -0.2866 -0.1789 -1.4723
 4683SOL    MW418506   3.134   5.626   0.296  0.4878 -0.1201 -0.5723
 4684SOL     OW18507   0.894   5.075   3.174  0.6918 -0.5459 -0.2345
 4684SOL    HW218508   0.824   5.125   3.133  0.2668 -2.0406 -1.4046
 4684SOL    HW318509   0.851   4.997   3.209  1.6767 -1.2430 -0.5255
 4684SOL    MW418510   0.879   5.071   3.173  0.3063 -0.1481 -0.4280
 4685SOL     OW18511   1.452   3.497   1.969  0.0735 -0.3367 -0.6552
 4685SOL    HW218512   1.467   3.563   2.036  0.4943  0.3016 -1.3670
 4685SOL    HW318513   1.364   3.515   1.936  0.1963 -0.1138 -0.8638
 4685SOL    MW418514   1.442   3.508   1.974 -0.1065  0.0908  0.1807
 4686SOL     OW18515   6.304   2.147   3.542  0.1719 -0.2024  0.0762
 4686SOL    HW218516   6.256   2.220   3.581  0.2441 -1.0681  1.8740
 4686SOL    HW318517   6.237   2.097   3.495 -0.0440  0.4886 -0.3655
 4686SOL    MW418518   6.289   2.150   3.541 -0.2543  0.3661 -0.4590
 4687SOL     OW18519   3.162   4.676   0.110 -0.3864 -0.5123 -0.4526
 4687SOL    HW218520   3.172   4.732   0.033  1.5446 -0.0895  0.0542
 4687SOL    HW318521   3.097   4.721   0.164 -0.9990 -0.2898 -1.3506
 4687SOL    MW418522   3.154   4.689   0.107 -0.3251  0.7899  0.0485
 4688SOL     OW18523   1.093   3.958   4.435  0.4470  0.0608  0.1744
 4688SOL    HW218524   1.024   3.899   4.404  2.0729 -1.1480 -1.3492
 4688SOL    HW318525   1.058   4.046   4.423 -0.9117 -0.5314 -0.3453
 4688SOL    MW418526   1.080   3.962   4.430  0.1767  0.8407 -0.3654
 4689SOL     OW18527   2.283   2.032   4.839 -0.5274 -1.0075  0.5321
 4689SOL    HW218528   2.249   2.009   4.752  2.2805 -1.2111 -0.6074
 4689SOL    HW318529   2.210   2.015   4.898 -2.4560 -1.1192 -1.7345
 4689SOL    MW418530   2.269   2.027   4.835 -0.6871  0.5124 -0.0639
 4690SOL     OW18531   3.358   6.004   6.267 -0.4902 -0.2944 -0.2821
 4690SOL    HW218532   3.313   6.021   6.349  0.3098 -2.2322  0.6274
 4690SOL    HW318533   3.440   5.963   6.293  1.0313  1.4818 -1.9703
 4690SOL    MW418534   3.363   6.001   6.281 -0.3189  0.2509 -1.0672
 4691SOL     OW18535   3.480   0.589   0.220  0.4684  0.2701  0.0821
 4691SOL    HW218536   3.402   0.641   0.199  0.0723 -0.0568  0.6963
 4691SOL    HW318537   3.445   0.513   0.267  1.1470  0.0321  0.2053
 4691SOL    MW418538   3.465   0.586   0.223  0.0086  0.2896  0.2565
 4692SOL     OW18539   2.672   3.504   0.235  0.6188 -0.5573  0.0021
 4692SOL    HW218540   2.662   3.594   0.204 -0.5194  0.2752  2.5392
 4692SOL    HW318541   2.588   3.463   0.215  0.4690 -0.4928  0.4860
 4692SOL    MW418542   2.659   3.511   0.228  0.3901 -0.0740 -0.2409
 4693SOL     OW18543   3.580   5.231   4.621  0.4214 -0.0895  0.0600
 4693SOL    HW218544   3.542   5.212   4.535 -0.3463 -1.5163  0.6899
 4693SOL    HW318545   3.672   5.251   4.603  0.1293  0.2533 -1.1501
 4693SOL    MW418546   3.587   5.231   4.607  0.2405 -0.0952 -0.2408
 4694SOL     OW18547   3.859   5.839   1.638  0.1395 -0.2597 -0.2429
 4694SOL    HW218548   3.879   5.879   1.553 -1.3009 -0.9891 -0.9567
 4694SOL    HW318549   3.807   5.905   1.684  0.7119  0.0391 -0.0168
 4694SOL    MW418550   3.855   5.853   1.633  0.3853  0.0331 -0.3438
 4695SOL     OW18551   2.860   5.730   2.172  0.2271  0.0051 -0.0323
 4695SOL    HW218552   2.927   5.714   2.238  2.2338  0.4548 -1.8382
 4695SOL    HW318553   2.808   5.802   2.208  1.9076  0.9362  0.6307
 4695SOL    MW418554   2.862   5.738   2.185 -1.0584  0.2368  0.3195
 4696SOL     OW18555   4.122   3.606   1.363 -0.3094  0.7161  0.6261
 4696SOL    HW218556   4.128   3.633   1.271 -0.3248 -0.1990  0.3464
 4696SOL    HW318557   4.029   3.598   1.379 -0.3225 -2.4448 -0.3262
 4696SOL    MW418558   4.111   3.609   1.353  0.0685  0.5030 -1.0422
 4697SOL     OW18559   0.570   2.571   3.813 -0.0691  0.2512  0.3011
 4697SOL    HW218560   0.612   2.641   3.763 -0.6845  1.0625  0.8750
 4697SOL    HW318561   0.519   2.522   3.749  2.2678 -1.2150 -0.5496
 4697SOL    MW418562   0.569   2.574   3.798 -0.4148  0.3842 -0.1890
 4698SOL     OW18563   2.535   3.046   1.905  0.4917 -0.0896  0.6845
 4698SOL    HW218564   2.467   3.000   1.955 -1.5806  1.5475 -0.4670
 4698SOL    HW318565   2.496   3.061   1.819  2.2742  1.0836  0.0149
 4698SOL    MW418566   2.521   3.042   1.900 -0.8124  0.3676 -0.6846
 4699SOL     OW18567   6.273   2.610   0.315 -0.1424 -0.4907  0.4388
 4699SOL    HW218568   6.297   2.670   0.386  0.2671 -0.6754  0.4637
 4699SOL    HW318569   6.354   2.562   0.297  0.4002  1.0478 -1.6438
 4699SOL    MW418570   6.287   2.611   0.322  0.8515  0.4419 -0.0564
 4700SOL     OW18571   1.947   3.647   4.597 -0.0321  0.0432  0.4401
 4700SOL    HW218572   2.027   3.698   4.593 -0.3541  0.7304  1.9066
 4700SOL    HW318573   1.976   3.557   4.615  0.4160  0.2970  1.0059
 4700SOL    MW418574   1.961   3.642   4.599  0.5965  0.3341 -0.0750
 4701SOL     OW18575   0.015   1.182   2.781 -0.9362  0.6659  0.0849
 4701SOL    HW218576   0.051   1.229   2.857 -0.5141  2.0207 -0.9186
 4701SOL    HW318577  -0.060   1.234   2.753 -1.0141  0.2462 -0.5079
 4701SOL    MW418578   0.010   1.195   2.787  0.5138 -0.2411  0.3638
 4702SOL     OW18579   2.515   2.932   1.455 -0.1235  0.7487  0.1593
 4702SOL    HW218580   2.599   2.929   1.411  0.5670  0.9472  1.4297
 4702SOL    HW318581   2.453   2.897   1.391  0.4902  2.8422 -1.7124
 4702SOL    MW418582   2.518   2.927   1.441  0.6060  0.4333 -0.3786
 4703SOL     OW18583   6.105   2.319   3.112 -0.0585 -0.1564 -0.5945
 4703SOL    HW218584   6.035   2.349   3.171  0.7453  0.0602  0.2672
 4703SOL    HW318585   6.116   2.226   3.132  1.1615  0.2242  0.6096
 4703SOL    MW418586   6.097   2.311   3.122  0.0201 -0.2762 -0.5842
 4704SOL     OW18587   1.930   5.341   1.441  0.1089  0.8333 -0.0489
 4704SOL    HW218588   1.913   5.249   1.422  0.1516  1.3015 -2.7993
 4704SOL    HW318589   2.006   5.340   1.499 -0.6235 -0.8586  0.9494
 4704SOL    MW418590   1.938   5.329   1.446 -0.2712  0.4774  0.5308
 4705SOL     OW18591   0.511   0.429   5.792 -0.2739  0.1279 -0.4357
 4705SOL    HW218592   0.582   0.486   5.821 -1.2827  1.5255 -0.6321
 4705SOL    HW318593   0.544   0.340   5.807  0.9010  0.7544  0.9145
 4705SOL    MW418594   0.525   0.424   5.798 -0.1767  0.1998  0.6925
 4706SOL     OW18595   5.925   4.748  -0.001 -0.2252 -0.1793  0.2301
 4706SOL    HW218596   5.897   4.839  -0.014  0.1674  0.0366  0.8264
 4706SOL    HW318597   5.844   4.699   0.009 -0.4332  0.1746  0.3137
 4706SOL    MW418598   5.911   4.754  -0.002 -0.6897 -0.3036  0.2891
 4707SOL     OW18599   2.629   3.765   3.060 -0.2705  0.0458 -0.0822
 4707SOL    HW218600   2.604   3.675   3.083  0.4197 -0.5498 -1.5217
 4707SOL    HW318601   2.685   3.794   3.132 -0.4918 -0.6943  0.3905
 4707SOL    MW418602   2.633   3.757   3.072  0.1041  0.3423  0.3136
 4708SOL     OW18603   0.273   3.255   1.474  0.9234 -0.3911  0.3946
 4708SOL    HW218604   0.229   3.171   1.463  1.4230 -0.6979  0.6768
 4708SOL    HW318605   0.259   3.278   1.566  1.0273 -0.3082  0.3898
 4708SOL    MW418606   0.265   3.247   1.485 -0.3581  0.7723 -0.6180
 4709SOL     OW18607   4.618   1.477   0.072 -0.0361 -0.9928  0.1714
 4709SOL    HW218608   4.671   1.468  -0.007 -0.0027  3.8745 -0.7047
 4709SOL    HW318609   4.528   1.468   0.042 -0.1084  2.0468 -0.9490
 4709SOL    MW418610   4.613   1.475   0.058 -0.2914  0.3500  0.4153
 4710SOL     OW18611   4.700   4.009   6.021  0.1180  0.2011  0.0633
 4710SOL    HW218612   4.723   4.036   6.110  1.8160  0.1369 -0.3218
 4710SOL    HW318613   4.610   3.978   6.028  0.2461  0.1267  1.7762
 4710SOL    MW418614   4.691   4.008   6.033 -0.1165  0.7864 -0.2723
 4711SOL     OW18615   4.622   5.878   4.269 -0.3037  0.2507 -0.3950
 4711SOL    HW218616   4.604   5.880   4.175 -1.6281 -1.1054 -0.2103
 4711SOL    HW318617   4.660   5.792   4.285 -1.7178 -0.2526  0.5361
 4711SOL    MW418618   4.624   5.867   4.259  0.1969  0.6366 -0.0430
 4712SOL     OW18619   5.842   4.317   3.774  0.0209  0.6878 -0.2454
 4712SOL    HW218620   5.889   4.340   3.854  1.0412 -0.8587 -0.3590
 4712SOL    HW318621   5.907   4.272   3.719 -1.1024  0.1563 -1.2034
 4712SOL    MW418622   5.857   4.314   3.777 -0.0901  0.5777  0.1465
 4713SOL     OW18623   6.321   0.792   4.097 -0.7309  0.0239 -0.3275
 4713SOL    HW218624   6.346   0.868   4.150 -0.4636 -1.2767  1.5029
 4713SOL    HW318625   6.326   0.823   4.006  3.1604  1.1220  0.1044
 4713SOL    MW418626   6.325   0.807   4.092  0.0503  0.6238  0.5360
 4714SOL     OW18627   3.852   2.444   0.369  0.1817 -0.3697 -0.1139
 4714SOL    HW218628   3.766   2.478   0.394 -0.4712 -2.8180  1.2883
 4714SOL    HW318629   3.833   2.364   0.321  1.6737  0.5494 -2.3962
 4714SOL    MW418630   3.838   2.438   0.366 -0.0293 -0.5114  0.2530
 4715SOL     OW18631   3.308   2.218   5.752  0.0697  0.1930  0.7114
 4715SOL    HW218632   3.363   2.171   5.814 -0.8019  0.2486  1.5526
 4715SOL    HW318633   3.316   2.310   5.777 -1.6290  0.0742  1.9104
 4715SOL    MW418634   3.316   2.224   5.763  0.0280 -0.3728  0.3754
 4716SOL     OW18635   0.921   3.794   1.802 -0.0636 -0.3489  0.3698
 4716SOL    HW218636   1.012   3.804   1.830 -0.1219 -0.4715  0.6076
 4716SOL    HW318637   0.914   3.702   1.777  0.3118  0.0349 -1.2302
 4716SOL    MW418638   0.932   3.783   1.803 -0.2528 -0.1857  0.0807
 4717SOL     OW18639   4.883   4.310   0.955 -0.4214 -0.5832 -0.0897
 4717SOL    HW218640   4.905   4.222   0.925 -2.1750 -0.8249 -0.7264
 4717SOL    HW318641   4.919   4.315   1.043  0.6677 -1.5272 -0.4609
 4717SOL    MW418642   4.891   4.299   0.963  0.4229  0.3671  0.5115
 4718SOL     OW18643   5.486   5.286   2.769 -0.1108  0.0644 -0.0236
 4718SOL    HW218644   5.403   5.264   2.727 -1.0355  1.5472  0.9595
 4718SOL    HW318645   5.529   5.201   2.784 -1.2606 -0.6945 -0.8741
 4718SOL    MW418646   5.481   5.272   2.765 -0.1819 -0.5508  0.7526
 4719SOL     OW18647   2.325   1.231   0.738 -0.2116 -0.3212 -0.1918
 4719SOL    HW218648   2.298   1.309   0.786 -0.1128  0.4263 -1.3143
 4719SOL    HW318649   2.324   1.258   0.646 -3.2615 -2.5061 -0.9606
 4719SOL    MW418650   2.321   1.245   0.733  0.2404  0.7057  0.3007
 4720SOL     OW18651   1.306   3.917   2.763  0.4630  0.1001  0.2058
 4720SOL    HW218652   1.280   3.834   2.802  2.3835 -0.9762 -0.6416
 4720SOL    HW318653   1.324   3.975   2.837  0.0115 -0.5525  0.8302
 4720SOL    MW418654   1.305   3.914   2.778 -0.9659 -0.2744 -0.2912
 4721SOL     OW18655   1.699   0.888   2.133  0.0823 -0.3014 -0.4626
 4721SOL    HW218656   1.652   0.888   2.217 -0.5902 -0.3592 -0.8370
 4721SOL    HW318657   1.676   0.972   2.092  2.3091  0.8462  0.4412
 4721SOL    MW418658   1.690   0.899   2.139  0.0795 -0.1093  0.5149
 4722SOL     OW18659   0.948   5.918   5.432  0.2309  0.0480  0.6993
 4722SOL    HW218660   0.857   5.945   5.440  0.5338  0.9797  1.1523
 4722SOL    HW318661   0.951   5.830   5.472 -0.5892 -0.2841  0.0457
 4722SOL    MW418662   0.936   5.910   5.439  0.1584  0.1469 -0.3553
 4723SOL     OW18663   1.493   3.749   2.116 -0.1185 -0.0672  0.2062
 4723SOL    HW218664   1.563   3.814   2.115  0.6817 -0.9016  0.1842
 4723SOL    HW318665   1.420   3.791   2.161  1.1914  0.0130  2.3685
 4723SOL    MW418666   1.492   3.763   2.121  0.0577 -0.5215  0.0596
 4724SOL     OW18667   0.388   1.848   0.058  0.5848 -0.0012  0.2179
 4724SOL    HW218668   0.405   1.815   0.146  0.2304 -0.6485  0.0463
 4724SOL    HW318669   0.444   1.926   0.050  0.3726  0.2552  1.1320
 4724SOL    MW418670   0.397   1.854   0.069  0.1020  0.3462 -0.5717
 4725SOL     OW18671   2.273   1.373   1.098  0.0780 -0.0613  0.3650
 4725SOL    HW218672   2.210   1.315   1.142 -0.0956  0.6861  1.1243
 4725SOL    HW318673   2.340   1.313   1.064 -1.2948 -0.9274 -0.9462
 4725SOL    MW418674   2.274   1.357   1.099 -0.4653 -0.5461  0.1380
 4726SOL     OW18675   2.487   1.976   4.331 -0.0998  0.0430 -0.2394
 4726SOL    HW218676   2.521   1.951   4.245 -3.2296  1.3544 -2.0649
 4726SOL    HW318677   2.422   2.044   4.312  0.3548  1.7220  3.3992
 4726SOL    MW418678   2.483   1.982   4.317 -0.0439 -0.2721  0.1374
 4727SOL     OW18679   1.150   0.492   3.965  0.3838 -0.1385  0.0857
 4727SOL    HW218680   1.136   0.569   3.910  0.2791 -1.0745 -1.2643
 4727SOL    HW318681   1.168   0.527   4.052 -0.2740  1.3779 -0.3575
 4727SOL    MW418682   1.151   0.507   3.969 -0.1765 -0.4470  0.0589
 4728SOL     OW18683   0.876   5.515   2.114 -0.5333 -0.4052  0.2523
 4728SOL    HW218684   0.926   5.595   2.128 -2.2271  0.8387 -0.4353
 4728SOL    HW318685   0.868   5.476   2.202  0.9475 -0.2518  0.4737
 4728SOL    MW418686   0.882   5.520   2.128  0.3302 -0.9045 -0.0635
 4729SOL     OW18687   0.428   6.173   3.717  0.0745  0.7868  0.5916
 4729SOL    HW218688   0.373   6.233   3.666 -2.0293 -0.5377  1.1641
 4729SOL    HW318689   0.366   6.115   3.761  1.9479 -3.3972 -1.7102
 4729SOL    MW418690   0.412   6.173   3.716 -0.1586 -0.7075 -0.3876
 4730SOL     OW18691   1.769   2.847   1.752  0.6662 -0.2339 -0.0390
 4730SOL    HW218692   1.861   2.835   1.775  0.7319  0.3843  0.0299
 4730SOL    HW318693   1.759   2.941   1.737  0.1590 -0.3571 -0.5476
 4730SOL    MW418694   1.780   2.858   1.753  0.8880  0.0608 -0.3874
 4731SOL     OW18695   5.624   2.417   3.890  0.0063  0.5737  0.0187
 4731SOL    HW218696   5.540   2.457   3.913  0.7601  1.8976  0.5731
 4731SOL    HW318697   5.645   2.360   3.964 -0.1492  0.6230  0.1015
 4731SOL    MW418698   5.615   2.415   3.903 -0.0058  0.6643 -0.0492
 4732SOL     OW18699   5.892   4.696   4.776 -0.0235 -0.0494 -0.0492
 4732SOL    HW218700   5.896   4.663   4.866  2.0518 -2.0684 -0.7898
 4732SOL    HW318701   5.942   4.778   4.778  0.8765 -0.5985  0.4586
 4732SOL    MW418702   5.899   4.702   4.788  0.0419  0.6391 -0.4616
 4733SOL     OW18703   2.540   5.842   5.695  0.0819  0.1631 -0.5092
 4733SOL    HW218704   2.539   5.901   5.771  1.4860 -0.1202 -0.2486
 4733SOL    HW318705   2.467   5.781   5.711 -0.0359  0.4939  0.2872
 4733SOL    MW418706   2.530   5.842   5.707 -0.7235 -0.3023  0.3692
 4734SOL     OW18707   5.831   6.282   0.906  0.1807  0.3224 -0.0828
 4734SOL    HW218708   5.835   6.378   0.907  0.5920  0.3577 -1.6866
 4734SOL    HW318709   5.843   6.259   0.814 -1.4883 -1.2164  0.0311
 4734SOL    MW418710   5.833   6.292   0.894  0.5200 -0.4964  0.1113
 4735SOL     OW18711   4.246   5.411   4.726  0.2029  0.2329  0.5145
 4735SOL    HW218712   4.241   5.500   4.691 -0.3717 -1.0313 -3.0197
 4735SOL    HW318713   4.338   5.388   4.721 -0.0500 -0.4813 -1.9479
 4735SOL    MW418714   4.257   5.420   4.721  0.1584  0.3076 -0.1743
 4736SOL     OW18715   0.546   4.255   4.283  0.3214 -0.5390 -0.5112
 4736SOL    HW218716   0.479   4.207   4.330  0.1966  1.1621  1.1809
 4736SOL    HW318717   0.498   4.306   4.218 -0.1164  0.7931  0.7976
 4736SOL    MW418718   0.531   4.256   4.281 -0.7411 -0.0131  0.0711
 4737SOL     OW18719   3.936   0.046   5.270  0.8757 -0.3017 -0.4343
 4737SOL    HW218720   3.987   0.087   5.200  0.4429  1.1437  0.0655
 4737SOL    HW318721   3.909  -0.038   5.233 -0.3167  0.8924 -2.4604
 4737SOL    MW418722   3.939   0.040   5.256 -0.6252 -0.1450  0.0938
 4738SOL     OW18723   6.355   0.312   1.798 -0.1404  0.4768  0.0157
 4738SOL    HW218724   6.363   0.246   1.867  1.5712  0.3881 -0.2045
 4738SOL    HW318725   6.401   0.388   1.834  1.0845  0.3173 -1.1187
 4738SOL    MW418726   6.362   0.313   1.812  0.4128 -0.8275  0.1155
 4739SOL     OW18727   4.171   5.382   3.728 -0.2811 -0.1215  0.0835
 4739SOL    HW218728   4.219   5.411   3.806 -0.9530 -0.5755  0.6711
 4739SOL    HW318729   4.208   5.296   3.708 -0.5188 -0.2620  0.2507
 4739SOL    MW418730   4.182   5.375   3.736  0.2669 -0.3763  0.4093
 4740SOL     OW18731   2.252   3.741   5.645 -0.0932 -0.1850 -0.2021
 4740SOL    HW218732   2.281   3.828   5.618 -0.8383  0.2184  0.2596
 4740SOL    HW318733   2.297   3.726   5.728 -2.4165  1.2020  1.4599
 4740SOL    MW418734   2.262   3.751   5.653 -0.4780  0.2787 -0.1075
 4741SOL     OW18735   1.820   5.867   3.460 -0.0036  0.2126  0.6570
 4741SOL    HW218736   1.819   5.838   3.369  1.4331  0.7990  0.4265
 4741SOL    HW318737   1.797   5.960   3.456 -0.1489  0.1887  0.9167
 4741SOL    MW418738   1.816   5.875   3.448  0.6697  0.3363 -0.2021
 4742SOL     OW18739   1.854   1.370   6.203 -0.4979 -0.6095  1.1361
 4742SOL    HW218740   1.800   1.298   6.237 -0.5844 -0.1597  1.9720
 4742SOL    HW318741   1.812   1.394   6.120  0.1741 -2.2477  0.2618
 4742SOL    MW418742   1.841   1.364   6.196  0.0675  0.5870  0.7815
 4743SOL     OW18743   3.611   5.692   1.864  0.3794  0.0392  0.7125
 4743SOL    HW218744   3.556   5.623   1.826  0.4762  0.9538 -1.2031
 4743SOL    HW318745   3.669   5.646   1.925 -0.2009 -1.4315  0.2022
 4743SOL    MW418746   3.611   5.677   1.867  0.4373 -0.1702 -0.2084
 4744SOL     OW18747   4.741   0.385   3.018 -0.0253 -0.1074  0.5544
 4744SOL    HW218748   4.723   0.434   3.098 -0.3427 -0.2343  0.5623
 4744SOL    HW318749   4.790   0.446   2.963 -0.1439  0.1116  0.6909
 4744SOL    MW418750   4.745   0.399   3.022  0.8087 -0.2163  0.4645
 4745SOL     OW18751   3.360   2.413   3.762  0.5571 -0.2337  0.3609
 4745SOL    HW218752   3.354   2.454   3.848 -0.0321 -1.1342  0.7539
 4745SOL    HW318753   3.408   2.332   3.777 -0.2526 -0.7924 -0.0051
 4745SOL    MW418754   3.366   2.408   3.775  0.7971 -0.0657  0.7908
 4746SOL     OW18755   4.477   1.663   3.914  0.1046 -0.0957 -0.4714
 4746SOL    HW218756   4.545   1.685   3.850  0.3475 -1.9853 -0.9397
 4746SOL    HW318757   4.506   1.579   3.951 -1.2271 -0.1950  0.3993
 4746SOL    MW418758   4.490   1.655   3.910 -0.0227  0.3026  0.0229
 4747SOL     OW18759   4.161   4.209   3.264 -0.2112 -0.0711 -0.0283
 4747SOL    HW218760   4.203   4.294   3.281  1.1321 -0.3834 -1.5520
 4747SOL    HW318761   4.234   4.148   3.252 -1.1472 -1.2195 -0.0135
 4747SOL    MW418762   4.177   4.212   3.265 -0.2723 -0.2775  0.0962
 4748SOL     OW18763   1.233   3.070   3.098 -0.1518 -0.2355 -0.3050
 4748SOL    HW218764   1.169   2.999   3.102  0.4512 -0.7571  0.8607
 4748SOL    HW318765   1.318   3.026   3.104  0.2236  0.5844  0.8568
 4748SOL    MW418766   1.236   3.055   3.100 -0.2292  0.2221  0.3442
 4749SOL     OW18767   0.873   5.315   3.933  0.0147 -0.1679 -0.0722
 4749SOL    HW218768   0.967   5.298   3.926 -0.1258 -0.5728 -1.1505
 4749SOL    HW318769   0.850   5.356   3.850 -0.7947 -0.2208  0.1183
 4749SOL    MW418770   0.882   5.318   3.921  0.1531  0.6475 -0.2929
 4750SOL     OW18771   0.342   3.498   5.051 -0.2379  0.5049 -0.4829
 4750SOL    HW218772   0.424   3.507   5.099 -1.3195  1.8776  1.2395
 4750SOL    HW318773   0.357   3.543   4.968  1.0048 -0.0626 -0.5873
 4750SOL    MW418774   0.355   3.505   5.046 -0.4527 -0.1160 -0.1820
 4751SOL     OW18775   0.327   5.575   0.314  0.3898  0.3551 -0.6256
 4751SOL    HW218776   0.338   5.500   0.254 -1.2020 -0.1776 -0.2952
 4751SOL    HW318777   0.393   5.638   0.285  1.7826 -1.1614 -0.9190
 4751SOL    MW418778   0.337   5.573   0.302 -0.0028 -0.1505 -0.2497
 4752SOL     OW18779   4.915   1.156   1.708  0.1660 -0.0971 -0.1148
 4752SOL    HW218780   4.879   1.207   1.780  0.4957  1.0581 -0.7518
 4752SOL    HW318781   4.860   1.078   1.705 -0.6493  0.4272  0.5690
 4752SOL    MW418782   4.903   1.152   1.717 -0.4116  0.5020  0.5762
 4753SOL     OW18783   4.375   4.526   5.950  0.3436 -0.5729 -0.3616
 4753SOL    HW218784   4.313   4.522   6.022 -0.0158  1.8436 -0.4740
 4753SOL    HW318785   4.447   4.469   5.978  1.3872  2.1011  3.1461
 4753SOL    MW418786   4.377   4.518   5.963  1.1780 -0.4849 -0.3237
 4754SOL     OW18787   4.392   6.357   5.295  0.5522 -0.0849  0.1863
 4754SOL    HW218788   4.367   6.303   5.220  1.2441  0.5459 -0.5196
 4754SOL    HW318789   4.309   6.392   5.328  0.2164 -0.5816 -0.1166
 4754SOL    MW418790   4.378   6.354   5.289  0.1489  0.1510  0.8363
 4755SOL     OW18791   3.115   2.388   0.039 -0.1222 -0.0134 -0.5885
 4755SOL    HW218792   3.123   2.467  -0.015 -0.5571 -0.6171 -1.5654
 4755SOL    HW318793   3.150   2.318  -0.016 -0.2558 -0.5956  0.0544
 4755SOL    MW418794   3.121   2.389   0.024 -0.0091  0.4758  0.6656
 4756SOL     OW18795   1.822   2.990   0.437 -0.2912 -0.2946 -0.0190
 4756SOL    HW218796   1.909   3.029   0.445  0.7453 -2.3038 -0.6594
 4756SOL    HW318797   1.824   2.915   0.497 -1.0319 -1.2168 -1.1097
 4756SOL    MW418798   1.834   2.985   0.446 -0.2797 -0.3583 -0.1537
 4757SOL     OW18799   6.264   5.768   0.572 -0.0683  0.0265  0.2115
 4757SOL    HW218800   6.355   5.772   0.540 -0.5887 -1.7015 -1.7589
 4757SOL    HW318801   6.235   5.859   0.573  0.9736  0.4334 -1.5150
 4757SOL    MW418802   6.272   5.781   0.568  0.5237  0.0104  0.6357
 4758SOL     OW18803   5.136   1.396   6.012 -0.2843 -0.5741 -0.4255
 4758SOL    HW218804   5.149   1.453   6.088 -0.9144 -0.2553 -0.5504
 4758SOL    HW318805   5.220   1.397   5.967 -0.2952  0.2963 -0.4462
 4758SOL    MW418806   5.149   1.403   6.016  0.1572  0.3338 -0.1777
 4759SOL     OW18807   5.872   1.757   0.832  0.1215  0.3585 -0.1393
 4759SOL    HW218808   5.848   1.789   0.745 -0.7264  0.8343  0.2635
 4759SOL    HW318809   5.963   1.730   0.823 -0.5243 -1.5747 -1.7399
 4759SOL    MW418810   5.881   1.757   0.819  1.0284 -0.1338 -0.3077
 4760SOL     OW18811   0.030   0.011   5.360  0.2144  0.1588 -0.5360
 4760SOL    HW218812   0.015   0.019   5.454  0.2392  1.6723 -0.6484
 4760SOL    HW318813   0.014   0.098   5.325  3.1245  0.4051 -1.5073
 4760SOL    MW418814   0.026   0.023   5.368  0.4855 -0.5123  0.2571
 4761SOL     OW18815   0.963   1.843   1.031  0.5865  0.3125  0.3441
 4761SOL    HW218816   0.870   1.821   1.032  0.6032  0.1456 -0.7095
 4761SOL    HW318817   0.995   1.809   0.948  1.6433  0.1851  0.7847
 4761SOL    MW418818   0.955   1.836   1.021  0.1689  0.4553 -0.0956
 4762SOL     OW18819   3.278   6.379   2.897  0.2285  0.0816  0.5275
 4762SOL    HW218820   3.319   6.299   2.862  0.4720  0.2991  0.3101
 4762SOL    HW318821   3.336   6.407   2.968  0.0279 -0.0535  0.7463
 4762SOL    MW418822   3.291   6.372   2.902 -0.2398  0.7012 -0.2408
 4763SOL     OW18823   4.455   1.143   3.979 -0.1128 -0.6312  0.3961
 4763SOL    HW218824   4.374   1.194   3.976  0.7339  0.7418  0.2909
 4763SOL    HW318825   4.460   1.101   3.892 -1.1670 -1.4922  0.7330
 4763SOL    MW418826   4.445   1.144   3.967  0.0073  0.1837  0.8699
 4764SOL     OW18827   0.699   2.696   2.456  0.0116  0.0862  0.1412
 4764SOL    HW218828   0.748   2.777   2.469 -0.3826  0.2154  0.8544
 4764SOL    HW318829   0.609   2.717   2.480 -0.0748 -0.5907  0.4367
 4764SOL    MW418830   0.694   2.709   2.461  1.0246  0.5070 -0.0666
 4765SOL     OW18831   3.789   6.387   3.794  0.5021  0.1012  0.6010
 4765SOL    HW218832   3.799   6.313   3.854 -3.1743 -1.2419 -0.2195
 4765SOL    HW318833   3.802   6.349   3.707 -1.5561  0.2682  0.1632
 4765SOL    MW418834   3.792   6.372   3.790 -0.1571 -0.0200 -0.0568
 4766SOL     OW18835   4.207   2.935   4.860  0.3741 -0.3430 -0.3762
 4766SOL    HW218836   4.195   3.005   4.796 -1.0816  0.9276  1.1691
 4766SOL    HW318837   4.167   2.858   4.819 -2.0145  0.8287 -0.4398
 4766SOL    MW418838   4.200   2.934   4.846  0.1029 -0.1820 -0.4628
 4767SOL     OW18839   3.604   5.967   0.192 -0.4726 -0.0047  0.0700
 4767SOL    HW218840   3.635   5.877   0.189  1.9737  0.7957 -1.5872
 4767SOL    HW318841   3.555   5.972   0.274  1.2620 -2.2541  1.3761
 4767SOL    MW418842   3.601   5.956   0.202  0.3071 -0.2687 -0.3278
 4768SOL     OW18843   3.128   4.029   5.470  0.4911  0.0077 -0.1015
 4768SOL    HW218844   3.047   4.069   5.499 -0.9354 -2.5235 -0.2872
 4768SOL    HW318845   3.111   4.001   5.380  2.1443  0.8087 -0.7073
 4768SOL    MW418846   3.115   4.030   5.462 -0.3399 -0.0089 -0.2991
 4769SOL     OW18847   5.469   3.223   3.007  0.3584  0.4828  0.0828
 4769SOL    HW218848   5.491   3.301   2.957 -1.9357 -0.3924 -2.5220
 4769SOL    HW318849   5.465   3.153   2.942  1.6521 -1.7135  2.2277
 4769SOL    MW418850   5.471   3.224   2.992  0.2502  0.3679  0.1496
 4770SOL     OW18851   4.840   2.615   5.346  0.3052  0.4844  0.5808
 4770SOL    HW218852   4.856   2.580   5.258  0.4968  0.2175  0.7188
 4770SOL    HW318853   4.793   2.544   5.391 -0.4265  0.8897  0.4779
 4770SOL    MW418854   4.836   2.601   5.340 -0.3935  0.2200 -0.2090
 4771SOL     OW18855   5.714   0.863   1.415  0.0900  0.1172  0.5981
 4771SOL    HW218856   5.647   0.841   1.480  0.6509 -1.0922  0.7723
 4771SOL    HW318857   5.773   0.788   1.413  0.1634  0.1793 -1.2217
 4771SOL    MW418858   5.713   0.850   1.423  0.1574  0.4512 -0.1981
 4772SOL     OW18859   2.370   2.357   4.524 -0.3980  0.3874 -0.4665
 4772SOL    HW218860   2.465   2.352   4.520 -0.2515 -1.1157  2.2155
 4772SOL    HW318861   2.349   2.444   4.491  1.9146  0.8423 -0.9149
 4772SOL    MW418862   2.380   2.367   4.519  0.2423 -0.3502 -0.0450
 4773SOL     OW18863   2.712   0.158   4.180  0.3328  0.3759 -0.2241
 4773SOL    HW218864   2.634   0.193   4.137  0.0535  1.2306  0.9556
 4773SOL    HW318865   2.786   0.200   4.135  0.0488  1.0509 -0.0707
 4773SOL    MW418866   2.712   0.168   4.168 -0.0196 -0.3204  0.0002
 4774SOL     OW18867   1.773   3.686   3.561  0.0218 -0.6846 -0.1417
 4774SOL    HW218868   1.856   3.733   3.564 -1.6714  2.5508 -0.3237
 4774SOL    HW318869   1.753   3.665   3.652  0.5606 -0.6332 -0.0112
 4774SOL    MW418870   1.781   3.689   3.573  0.2193  0.0161  0.0446
 4775SOL     OW18871   6.209   6.398   3.613 -0.1016 -0.0297 -0.4993
 4775SOL    HW218872   6.223   6.468   3.676 -0.0562  0.0924 -0.6454
 4775SOL    HW318873   6.235   6.318   3.659 -1.0404 -0.0682  0.0005
 4775SOL    MW418874   6.214   6.396   3.627 -0.3836  0.2292 -0.3726
 4776SOL     OW18875   2.780   1.110   2.545  0.4807  0.2138 -0.4837
 4776SOL    HW218876   2.823   1.025   2.540 -0.2121 -0.1477 -0.3580
 4776SOL    HW318877   2.705   1.103   2.485  0.6034  0.8432 -0.7155
 4776SOL    MW418878   2.776   1.098   2.536 -0.3408 -0.6165  0.1733
 4777SOL     OW18879   0.167   0.057   3.783  0.6050 -0.3228 -0.3045
 4777SOL    HW218880   0.124   0.137   3.751  1.9343  0.4792 -0.1696
 4777SOL    HW318881   0.122   0.038   3.865 -0.9254 -0.7738 -1.1928
 4777SOL    MW418882   0.155   0.065   3.789 -0.4568 -0.2553 -0.7332
 4778SOL     OW18883   4.052   0.149   2.162  0.2238 -0.9402  0.6724
 4778SOL    HW218884   4.093   0.128   2.246 -0.7916 -0.2573  1.3624
 4778SOL    HW318885   4.100   0.096   2.098 -0.1464 -2.8628  1.9090
 4778SOL    MW418886   4.064   0.139   2.165 -0.0900 -0.1340 -0.7200
 4779SOL     OW18887   5.484   5.045   5.116 -0.1300 -0.4971 -0.0821
 4779SOL    HW218888   5.448   5.031   5.028  0.3314 -1.8363 -0.0897
 4779SOL    HW318889   5.429   4.991   5.173  1.6613 -2.4767 -0.0753
 4779SOL    MW418890   5.472   5.036   5.112  0.5165 -0.4655 -0.0796
 4780SOL     OW18891   2.294   1.451   1.438 -0.4995 -0.0038 -0.6707
 4780SOL    HW218892   2.373   1.397   1.441 -0.2717  0.2754 -1.3589
 4780SOL    HW318893   2.318   1.524   1.380 -0.6663  1.0411  0.5213
 4780SOL    MW418894   2.308   1.454   1.431  0.1708  0.1815 -0.1474
 4781SOL     OW18895   3.023   3.657   4.393 -0.6032 -0.1196 -0.0914
 4781SOL    HW218896   3.112   3.621   4.387  0.1416  1.4163  1.0966
 4781SOL    HW318897   2.966   3.580   4.399  0.5357 -1.1554 -1.8304
 4781SOL    MW418898   3.027   3.642   4.393 -0.3106 -0.1121 -0.2847
 4782SOL     OW18899   3.024   5.643   2.368 -0.1912  0.3314 -0.6747
 4782SOL    HW218900   2.979   5.690   2.439  0.6389  0.2592 -0.0913
 4782SOL    HW318901   3.045   5.558   2.406 -1.8502 -0.6145 -1.7842
 4782SOL    MW418902   3.021   5.638   2.383 -0.6613  0.0012  0.4159
 4783SOL     OW18903   1.882   5.362   3.685  0.1878  0.6089  0.3721
 4783SOL    HW218904   1.930   5.283   3.662  0.1424  0.5622  0.4399
 4783SOL    HW318905   1.899   5.423   3.612  0.4745  0.6461  0.4720
 4783SOL    MW418906   1.890   5.360   3.672 -0.5280 -0.2769 -0.1707
 4784SOL     OW18907   5.329   5.700   1.770  0.5447  0.4974  0.5035
 4784SOL    HW218908   5.335   5.648   1.850  0.9716 -0.6115 -0.2337
 4784SOL    HW318909   5.239   5.689   1.740  0.3302  1.0666  0.9177
 4784SOL    MW418910   5.318   5.692   1.777 -0.3755  0.0331  1.1109
 4785SOL     OW18911   4.099   3.968   5.263 -1.1228 -0.6272 -0.3084
 4785SOL    HW218912   4.175   4.020   5.237 -1.0714 -0.1107  0.8070
 4785SOL    HW318913   4.074   3.921   5.184  0.2818 -0.7135 -0.7291
 4785SOL    MW418914   4.106   3.969   5.249 -0.2107  0.2029  0.0783
 4786SOL     OW18915   3.844   3.359   2.793 -0.0485 -0.2403 -0.1488
 4786SOL    HW218916   3.825   3.437   2.846  1.1923  1.6264 -2.2726
 4786SOL    HW318917   3.893   3.302   2.852  1.3499  1.7707  0.7543
 4786SOL    MW418918   3.848   3.362   2.808  0.7400 -0.3223 -0.3891
 4787SOL     OW18919   2.756   0.233   0.253  0.3749  0.8964  0.2513
 4787SOL    HW218920   2.787   0.150   0.291 -4.0713 -1.7939 -1.2557
 4787SOL    HW318921   2.750   0.293   0.327  0.7606 -1.1731  2.0458
 4787SOL    MW418922   2.759   0.230   0.268  0.1290  0.0393 -0.0721
 4788SOL     OW18923   2.531   6.265   1.962  0.2450  0.2955  0.5432
 4788SOL    HW218924   2.475   6.343   1.969 -1.1972 -0.8446  2.7836
 4788SOL    HW318925   2.509   6.227   1.877 -1.1759  0.7712  0.6805
 4788SOL    MW418926   2.521   6.271   1.952 -0.7238  0.1498  0.2761
 4789SOL     OW18927   0.022   1.299   3.225  0.9434  0.0682  0.0278
 4789SOL    HW218928  -0.025   1.216   3.212  0.3851  0.6160 -1.8474
 4789SOL    HW318929  -0.047   1.361   3.251  0.5994  0.7879 -2.3627
 4789SOL    MW418930   0.007   1.296   3.226  0.3277  0.2319  0.2866
 4790SOL     OW18931   5.029   5.355   0.488 -0.4953  0.1570  0.2974
 4790SOL    HW218932   5.001   5.430   0.435  0.4254  1.5486  1.6842
 4790SOL    HW318933   4.954   5.337   0.545 -1.1781 -0.8043 -0.8842
 4790SOL    MW418934   5.015   5.362   0.489 -0.6898 -0.2299  0.0170
 4791SOL     OW18935   0.898   3.300   2.292  0.4286  0.4476  0.3499
 4791SOL    HW218936   0.867   3.214   2.262  1.2944  0.4268 -0.5108
 4791SOL    HW318937   0.852   3.313   2.375 -1.3375  0.1117 -0.5195
 4791SOL    MW418938   0.887   3.290   2.299 -0.3795  0.3210  0.7109
 4792SOL     OW18939   4.546   1.444   1.918 -0.0058 -0.2975  0.3158
 4792SOL    HW218940   4.481   1.381   1.888 -1.2710  1.4632 -0.8443
 4792SOL    HW318941   4.554   1.507   1.845  1.6850  0.5232  1.1461
 4792SOL    MW418942   4.539   1.444   1.904  0.4345 -0.3053 -0.0068
 4793SOL     OW18943   1.508   6.075   6.373 -0.2444 -0.0086  0.1982
 4793SOL    HW218944   1.522   6.167   6.397 -2.1956  0.1646  0.8129
 4793SOL    HW318945   1.575   6.057   6.306 -0.5483  2.1983 -0.7831
 4793SOL    MW418946   1.519   6.085   6.367  0.0246  0.2898 -0.5476
 4794SOL     OW18947   3.066   1.455   1.061 -0.2027  0.4391  0.5882
 4794SOL    HW218948   3.151   1.468   1.104 -0.5264 -0.9798  1.7500
 4794SOL    HW318949   3.080   1.483   0.970  1.0841  1.5954  1.1181
 4794SOL    MW418950   3.079   1.460   1.054  0.6729 -0.2177  0.1210
 4795SOL     OW18951   5.167   4.570   1.354  0.0792 -0.3093 -0.2616
 4795SOL    HW218952   5.083   4.532   1.326 -1.2323  0.4343  2.3893
 4795SOL    HW318953   5.233   4.516   1.310 -1.7357 -0.4762 -3.0012
 4795SOL    MW418954   5.165   4.558   1.344  0.3337 -0.1163  0.6848
 4796SOL     OW18955   3.171   0.815   1.698 -0.4765  0.1939 -0.3189
 4796SOL    HW218956   3.263   0.842   1.707 -0.0687 -1.0222 -0.6569
 4796SOL    HW318957   3.130   0.885   1.648  0.2001  0.8931  0.0827
 4796SOL    MW418958   3.178   0.828   1.693  0.1811  0.1157  0.0353
 4797SOL     OW18959   2.139   3.843   0.103 -0.1998 -0.3727 -0.4581
 4797SOL    HW218960   2.222   3.886   0.080 -0.6200 -0.3449 -2.0008
 4797SOL    HW318961   2.148   3.753   0.071 -0.5516 -0.5415 -0.1008
 4797SOL    MW418962   2.151   3.837   0.096  0.0829  0.2379 -0.2950
 4798SOL     OW18963   0.799   0.071   1.307  0.5176  0.4794 -0.3219
 4798SOL    HW218964   0.821   0.026   1.388 -1.4513 -0.8509 -0.4629
 4798SOL    HW318965   0.865   0.042   1.245  1.5370  0.8410  0.5648
 4798SOL    MW418966   0.811   0.062   1.310 -0.6063 -0.4117 -0.1585
 4799SOL     OW18967   5.663   2.451   1.632  0.1101 -0.2252 -0.4370
 4799SOL    HW218968   5.758   2.459   1.630  0.2167 -1.1388 -3.2761
 4799SOL    HW318969   5.631   2.539   1.612  0.2971  0.0884  0.5460
 4799SOL    MW418970   5.671   2.464   1.629 -0.4074 -0.8759  0.3955
 4800SOL     OW18971   5.302   4.287   3.611  0.4205  0.5880 -0.5513
 4800SOL    HW218972   5.280   4.369   3.567 -1.5318  0.5505  0.2541
 4800SOL    HW318973   5.291   4.306   3.704 -1.7067 -0.9751 -0.4175
 4800SOL    MW418974   5.297   4.301   3.617 -0.0758  0.2212 -0.1765
 4801SOL     OW18975   3.486   5.341   3.454  0.2351  0.0049 -0.0216
 4801SOL    HW218976   3.486   5.339   3.358  0.5378 -1.1580 -0.0109
 4801SOL    HW318977   3.455   5.254   3.479 -0.0890  0.3879  0.9426
 4801SOL    MW418978   3.482   5.329   3.444 -0.1644 -0.2614  0.3133
 4802SOL     OW18979   3.382   0.657   3.581 -0.5984 -0.9099  0.1736
 4802SOL    HW218980   3.290   0.680   3.571 -0.4877 -0.4468  0.2238
 4802SOL    HW318981   3.381   0.570   3.621 -1.0060  0.1145  2.5497
 4802SOL    MW418982   3.370   0.649   3.585  0.0876  0.2625 -0.0179
 4803SOL     OW18983   0.798   0.254   1.012  0.1817 -0.6672 -0.7332
 4803SOL    HW218984   0.795   0.256   0.916  1.0923 -0.6588 -0.7686
 4803SOL    HW318985   0.825   0.343   1.036 -1.3218 -0.2662 -0.3926
 4803SOL    MW418986   0.801   0.266   1.002 -0.1911 -0.4853 -0.4106
 4804SOL     OW18987   4.893   0.660   6.392 -0.3777  0.0673  0.0680
 4804SOL    HW218988   4.900   0.750   6.359  0.4817 -0.1996 -0.5166
 4804SOL    HW318989   4.869   0.669   6.484 -1.6223  0.8633 -0.3121
 4804SOL    MW418990   4.891   0.673   6.400  0.8081  0.2909 -0.2583
 4805SOL     OW18991   5.928   1.085   1.941  0.1306  0.4688 -0.4389
 4805SOL    HW218992   5.860   1.110   1.878 -0.5623 -0.4288 -0.0675
 4805SOL    HW318993   5.983   1.163   1.949 -0.8790  1.2311 -0.7298
 4805SOL    MW418994   5.926   1.099   1.934  0.2722  0.0877 -0.3283
 4806SOL     OW18995   2.058   0.403   2.001  0.0882 -0.4978  0.6719
 4806SOL    HW218996   2.082   0.488   2.040 -1.9520  0.2567  0.3832
 4806SOL    HW318997   2.088   0.409   1.911 -0.1699 -0.0093  0.6128
 4806SOL    MW418998   2.065   0.415   1.994  0.3707 -0.3854 -0.1524
 4807SOL     OW18999   0.181   5.002   4.794  0.2889  0.1738  0.1736
 4807SOL    HW219000   0.260   5.019   4.741  1.0150  2.9109  1.9214
 4807SOL    HW319001   0.201   4.922   4.841  0.7350 -0.8249 -1.6096
 4807SOL    MW419002   0.194   4.994   4.793 -0.4013  0.1918 -0.8449
 4808SOL     OW19003   4.319   5.309   0.641 -0.2006  0.7649  0.0926
 4808SOL    HW219004   4.358   5.396   0.656  0.6729  0.6142 -1.1085
 4808SOL    HW319005   4.247   5.325   0.580  1.0162  0.4894 -1.4972
 4808SOL    MW419006   4.315   5.323   0.635 -0.8192 -0.5422  0.1135
 4809SOL     OW19007   6.378   4.508   3.881  0.5427 -0.1237  0.1071
 4809SOL    HW219008   6.334   4.564   3.817 -1.2015  0.7450  1.9463
 4809SOL    HW319009   6.458   4.555   3.903  0.3276  0.3917 -0.1947
 4809SOL    MW419010   6.383   4.522   3.875 -0.4018 -0.1436  0.4162
 4810SOL     OW19011   1.161   3.874   6.248  0.7824  0.4305 -0.1513
 4810SOL    HW219012   1.229   3.914   6.195 -0.5959  2.1702 -0.7249
 4810SOL    HW319013   1.148   3.934   6.321  0.5965 -0.4291  0.5493
 4810SOL    MW419014   1.168   3.887   6.251 -0.3784  0.0240 -0.1952
 4811SOL     OW19015   1.255   4.298   2.831  0.1891 -0.0164  0.3201
 4811SOL    HW219016   1.239   4.390   2.852 -4.7473 -0.5484  0.1766
 4811SOL    HW319017   1.241   4.292   2.736 -2.7294 -1.1516  0.6826
 4811SOL    MW419018   1.251   4.309   2.821  0.0202  0.4635 -0.1211
 4812SOL     OW19019   1.161   0.635   6.073  0.6214  0.4275  0.2263
 4812SOL    HW219020   1.238   0.638   6.016  0.4708  1.4076  0.0569
 4812SOL    HW319021   1.089   0.662   6.016  0.2993  0.3844  0.6146
 4812SOL    MW419022   1.162   0.639   6.058 -0.1266 -0.8034 -0.4809
 4813SOL     OW19023   2.668   4.077   5.165  0.5613 -0.2221 -0.1579
 4813SOL    HW219024   2.757   4.043   5.167  0.6039 -0.1253 -0.3933
 4813SOL    HW319025   2.678   4.171   5.157  0.4400 -0.1752  0.2336
 4813SOL    MW419026   2.681   4.085   5.164  0.6303  0.0120 -0.7213
 4814SOL     OW19027   6.014   6.122   2.352 -0.6531 -0.3138  0.5456
 4814SOL    HW219028   6.026   6.207   2.310  2.4771 -0.9547 -0.1463
 4814SOL    HW319029   6.042   6.137   2.443 -0.4979 -0.4987  0.5289
 4814SOL    MW419030   6.020   6.135   2.359 -0.0947 -0.1028  0.0928
 4815SOL     OW19031   4.735   3.757   5.888 -0.0668 -0.5543 -0.1408
 4815SOL    HW219032   4.785   3.759   5.806  0.8724  0.2115  0.4275
 4815SOL    HW319033   4.735   3.848   5.918 -2.9802 -0.2507 -0.7712
 4815SOL    MW419034   4.742   3.769   5.881  0.4152  0.3109  0.1521
 4816SOL     OW19035   4.387   3.990   4.918 -0.3182  0.2926  0.4647
 4816SOL    HW219036   4.431   4.061   4.966 -1.9790  1.4838  0.3210
 4816SOL    HW319037   4.456   3.949   4.866  0.7537  1.6331  0.7825
 4816SOL    MW419038   4.402   3.994   4.917 -0.0601  0.0700 -0.2987
 4817SOL     OW19039   2.118   4.013   1.680 -0.3581  0.5530 -0.2457
 4817SOL    HW219040   2.048   4.021   1.614  0.2282  1.1616 -0.8121
 4817SOL    HW319041   2.162   3.931   1.658 -1.4812 -0.3375  0.7132
 4817SOL    MW419042   2.114   4.003   1.668  0.7796  0.0680 -0.3614
 4818SOL     OW19043   2.537   4.712   2.220  0.6311  0.0126  0.5313
 4818SOL    HW219044   2.561   4.749   2.305  0.9827  0.6707  0.1609
 4818SOL    HW319045   2.618   4.716   2.168  0.2036  0.4899 -0.1258
 4818SOL    MW419046   2.551   4.718   2.224  0.2647  1.1557  0.0988
 4819SOL     OW19047   4.819   6.146   3.219 -0.3493 -0.5209  0.3231
 4819SOL    HW219048   4.777   6.176   3.138  0.2159  0.5503  0.4147
 4819SOL    HW319049   4.780   6.060   3.235 -1.0761 -0.3929 -0.6399
 4819SOL    MW419050   4.808   6.139   3.210  0.8554 -0.0459  0.1181
 4820SOL     OW19051   0.361   1.876   3.782 -0.2488 -0.1856 -0.0945
 4820SOL    HW219052   0.325   1.926   3.856  1.9625  0.6386  0.4861
 4820SOL    HW319053   0.409   1.804   3.823 -0.0336 -0.4345 -0.7803
 4820SOL    MW419054   0.362   1.873   3.798  0.3514 -0.3421 -0.2793
 4821SOL     OW19055   4.523   3.812   4.110  0.0950 -0.6998  0.3478
 4821SOL    HW219056   4.580   3.735   4.112 -0.2294 -0.9738 -0.4412
 4821SOL    HW319057   4.448   3.788   4.165  0.8728 -0.2126  1.6622
 4821SOL    MW419058   4.521   3.799   4.117  0.3454 -0.2275 -0.2127
 4822SOL     OW19059   0.409   4.859   6.281  0.1488  0.6938  0.2318
 4822SOL    HW219060   0.431   4.856   6.374 -1.3066  1.1595  0.6175
 4822SOL    HW319061   0.411   4.952   6.258  0.0736  0.6173 -0.0955
 4822SOL    MW419062   0.412   4.871   6.290 -0.7937  0.1600 -1.0223
 4823SOL     OW19063   2.678   3.442   3.329 -0.3474  0.3700  0.5673
 4823SOL    HW219064   2.660   3.509   3.395 -0.5656  0.6289  0.2489
 4823SOL    HW319065   2.609   3.455   3.263 -0.2033  0.0355  0.3513
 4823SOL    MW419066   2.666   3.453   3.329 -0.1328 -0.1746  0.2830
 4824SOL     OW19067   0.063   3.559   1.508 -0.0636 -0.1842  0.2594
 4824SOL    HW219068   0.017   3.643   1.512 -0.2831 -0.2537 -0.5731
 4824SOL    HW319069   0.057   3.524   1.597  1.4331  1.3963  1.0534
 4824SOL    MW419070   0.056   3.566   1.521 -0.4496  0.0604 -0.7515
 4825SOL     OW19071   3.728   1.711   1.234 -0.2158 -1.0249  0.2592
 4825SOL    HW219072   3.814   1.751   1.246 -0.7702  0.3134 -0.1124
 4825SOL    HW319073   3.748   1.620   1.210  1.0647 -0.9629  0.9724
 4825SOL    MW419074   3.742   1.704   1.232 -0.2678  0.1559 -0.3048
 4826SOL     OW19075   2.654   3.154   6.203 -0.5726  0.2993 -0.2179
 4826SOL    HW219076   2.699   3.105   6.273 -0.5842 -0.1569 -0.5284
 4826SOL    HW319077   2.714   3.150   6.129 -0.6479  0.6158 -0.2947
 4826SOL    MW419078   2.668   3.147   6.203 -0.2792  0.7920  0.0076
 4827SOL     OW19079   3.200   5.865   3.952  0.6237  0.0275 -0.2231
 4827SOL    HW219080   3.142   5.927   3.908  0.9001  0.2677 -0.2552
 4827SOL    HW319081   3.141   5.802   3.993  0.3397 -1.1081 -2.2066
 4827SOL    MW419082   3.185   5.865   3.951  0.3302  0.0366 -0.2799
 4828SOL     OW19083   4.258   0.126   3.138  0.1508 -0.5317  0.4054
 4828SOL    HW219084   4.307   0.171   3.207 -0.1876 -0.5054  0.6355
 4828SOL    HW319085   4.182   0.090   3.184 -0.2759 -0.1877 -0.0222
 4828SOL    MW419086   4.254   0.127   3.154  0.3855 -0.4831 -0.4017
 4829SOL     OW19087   1.380   5.585   3.725  0.1452  0.1093 -0.2004
 4829SOL    HW219088   1.450   5.580   3.790  0.3157 -1.1356 -0.4568
 4829SOL    HW319089   1.405   5.658   3.669  1.0654 -0.1127 -0.0923
 4829SOL    MW419090   1.393   5.594   3.727  0.6509  0.2376 -0.4126
 4830SOL     OW19091   4.555   0.053   3.305 -0.7143  0.4729  1.1295
 4830SOL    HW219092   4.629   0.060   3.366  1.5603 -1.2768 -1.2139
 4830SOL    HW319093   4.520  -0.035   3.319  0.5265 -0.3758 -0.6648
 4830SOL    MW419094   4.560   0.043   3.315  0.4494 -0.4118  0.0954
 4831SOL     OW19095   4.266   2.450   1.418  0.2654  0.1258 -0.2231
 4831SOL    HW219096   4.349   2.406   1.397  0.6680 -0.1159  1.6755
 4831SOL    HW319097   4.239   2.410   1.501 -1.0812  1.1462 -0.1488
 4831SOL    MW419098   4.274   2.439   1.427 -0.1637  0.4130  0.9515
 4832SOL     OW19099   6.099   1.763   4.617  0.3554 -0.5128  0.2087
 4832SOL    HW219100   6.014   1.722   4.606  0.2044 -0.6379  1.6183
 4832SOL    HW319101   6.086   1.853   4.588 -0.5364 -0.2734  1.2699
 4832SOL    MW419102   6.086   1.770   4.612  0.8641  0.2806  0.5489
 4833SOL     OW19103   4.570   0.141   1.468  0.3827  0.0043  0.6637
 4833SOL    HW219104   4.595   0.070   1.410  0.1988 -0.5041  1.2003
 4833SOL    HW319105   4.650   0.162   1.516  0.1274 -0.7443  1.4488
 4833SOL    MW419106   4.584   0.135   1.466 -0.2598 -0.3765 -0.0204
 4834SOL     OW19107   1.688   6.356   4.309 -0.2808 -0.8667 -0.7098
 4834SOL    HW219108   1.712   6.436   4.262 -0.0928 -0.4277  0.1036
 4834SOL    HW319109   1.607   6.327   4.267 -2.1203  1.4818  0.8661
 4834SOL    MW419110   1.680   6.363   4.297 -0.0118  0.4997  0.4115
 4835SOL     OW19111   4.022   3.515   4.022  0.2137  0.1298 -0.0860
 4835SOL    HW219112   4.113   3.540   4.033 -0.0637  1.2189 -0.1071
 4835SOL    HW319113   4.017   3.425   4.054  0.9033  0.6924  1.6909
 4835SOL    MW419114   4.033   3.506   4.028  0.2740  0.3241 -0.0127
 4836SOL     OW19115   2.260   0.638   0.523 -0.8899 -0.5193 -0.3307
 4836SOL    HW219116   2.297   0.635   0.611 -0.8865  0.5196 -0.2757
 4836SOL    HW319117   2.175   0.594   0.531 -0.3866 -1.4753 -0.0903
 4836SOL    MW419118   2.253   0.632   0.536  0.0662 -0.4359 -0.6398
 4837SOL     OW19119   2.868   0.189   2.479  0.0568  0.2549 -0.8906
 4837SOL    HW219120   2.820   0.110   2.503  1.7402 -0.7901 -0.8015
 4837SOL    HW319121   2.923   0.163   2.405  1.3899  1.0248 -0.2306
 4837SOL    MW419122   2.869   0.175   2.472  0.3232 -0.6422  0.2894
 4838SOL     OW19123   3.394   1.136   5.130  0.0226 -0.2389 -0.5384
 4838SOL    HW219124   3.357   1.066   5.077  1.5801 -1.4547 -0.1027
 4838SOL    HW319125   3.378   1.109   5.221 -0.5443  0.6586 -0.3531
 4838SOL    MW419126   3.387   1.123   5.135  0.3232  0.4234  0.0213
 4839SOL     OW19127   1.887   2.333   4.786 -0.7320 -0.0970 -0.4014
 4839SOL    HW219128   1.796   2.353   4.810  0.0165  0.4599  2.3248
 4839SOL    HW319129   1.915   2.267   4.851  2.1806  3.2137  2.0866
 4839SOL    MW419130   1.879   2.327   4.798 -0.0475 -0.3637 -0.3630
 4840SOL     OW19131   0.497   2.930   4.080  0.0346 -0.1887 -0.0049
 4840SOL    HW219132   0.590   2.929   4.058  0.3756 -0.4415  1.3826
 4840SOL    HW319133   0.470   2.838   4.075 -0.0397 -0.1679  0.0062
 4840SOL    MW419134   0.506   2.917   4.076 -0.1740  0.0506 -0.2952
 4841SOL     OW19135   3.765   4.308   4.507 -0.4891 -0.9283  0.3439
 4841SOL    HW219136   3.751   4.354   4.590  0.6638  0.6805 -0.3080
 4841SOL    HW319137   3.823   4.365   4.457  0.7143 -2.9375 -0.6835
 4841SOL    MW419138   3.771   4.321   4.511 -0.1527 -0.0513 -0.0137
 4842SOL     OW19139   1.922   0.990   5.003  0.4992 -0.0116  0.0723
 4842SOL    HW219140   1.900   1.008   4.912 -0.4947  0.6675  0.4394
 4842SOL    HW319141   1.909   0.896   5.013  0.3463 -0.0432 -0.4146
 4842SOL    MW419142   1.918   0.980   4.993 -0.1754  0.3572  0.1932
 4843SOL     OW19143   1.037   4.153   4.073 -0.3085  0.0933  0.2470
 4843SOL    HW219144   0.947   4.171   4.098 -0.2632 -1.1447  1.4392
 4843SOL    HW319145   1.089   4.216   4.123 -0.4859  0.3890  0.0546
 4843SOL    MW419146   1.032   4.163   4.083 -0.3897 -0.2383  0.3474
 4844SOL     OW19147   5.092   0.707   4.391  0.3668 -0.0991 -0.1969
 4844SOL    HW219148   5.168   0.708   4.450  1.3545  0.2317 -1.4491
 4844SOL    HW319149   5.095   0.792   4.347 -1.2838  0.2957  0.3975
 4844SOL    MW419150   5.103   0.718   4.393 -0.2052 -0.2094  0.0845
 4845SOL     OW19151   0.279   6.185   0.019 -0.1750 -0.1861  0.7028
 4845SOL    HW219152   0.222   6.147   0.086 -0.7465  2.3545  1.7733
 4845SOL    HW319153   0.358   6.132   0.022 -0.7281 -0.9923  2.4285
 4845SOL    MW419154   0.282   6.173   0.028  0.1237 -0.4562  0.1805
 4846SOL     OW19155   6.329   1.050   1.222 -0.6278  0.6718 -0.1570
 4846SOL    HW219156   6.424   1.038   1.221 -0.5156  1.4748  0.4219
 4846SOL    HW319157   6.317   1.144   1.211 -1.3276  0.6822  0.6353
 4846SOL    MW419158   6.340   1.061   1.220 -0.3764  1.7773 -0.3307
 4847SOL     OW19159   5.693   4.902   5.722 -0.2516 -0.4715  0.7059
 4847SOL    HW219160   5.682   4.993   5.749  0.0215 -0.4365  0.7099
 4847SOL    HW319161   5.788   4.890   5.718 -0.2835 -0.5402  0.0030
 4847SOL    MW419162   5.704   4.912   5.725  0.0391  0.3263 -0.4612
 4848SOL     OW19163   2.536   5.297   1.827 -0.3955 -0.0634 -0.8924
 4848SOL    HW219164   2.630   5.299   1.809 -0.3693 -0.1065 -0.7551
 4848SOL    HW319165   2.525   5.350   1.906 -0.4274 -0.4455 -0.6374
 4848SOL    MW419166   2.547   5.305   1.835  0.0798 -0.1021 -0.1897
 4849SOL     OW19167   4.603   3.000   2.897  0.1721 -0.1775 -0.1535
 4849SOL    HW219168   4.545   3.031   2.967  0.8566  2.2043 -0.5459
 4849SOL    HW319169   4.611   3.075   2.838  2.6021 -0.8631 -0.8071
 4849SOL    MW419170   4.596   3.014   2.899 -0.4107  0.4042  0.2767
 4850SOL     OW19171   4.998   3.707   3.983 -0.1180  0.6290  0.2061
 4850SOL    HW219172   5.093   3.697   3.989 -0.0398 -0.3661 -2.0568
 4850SOL    HW319173   4.984   3.756   3.902 -1.6209 -1.6125 -0.9824
 4850SOL    MW419174   5.008   3.712   3.973  0.1617 -0.3706 -0.6947
 4851SOL     OW19175   5.566   5.002   2.837 -0.5985  0.4661  0.2894
 4851SOL    HW219176   5.552   4.958   2.921  0.0803  0.3253  0.3332
 4851SOL    HW319177   5.588   4.932   2.776 -0.8861  0.5932  0.0350
 4851SOL    MW419178   5.567   4.987   2.840 -0.3216 -0.2025 -0.7378
 4852SOL     OW19179   4.942   3.257   1.868 -0.2788 -0.5402  0.2763
 4852SOL    HW219180   5.014   3.197   1.887  0.9334  1.0317  0.8433
 4852SOL    HW319181   4.939   3.262   1.773 -0.0579 -1.0817  0.2360
 4852SOL    MW419182   4.951   3.250   1.858  0.1273  0.5764 -0.3660
 4853SOL     OW19183   3.297   2.725   5.813 -0.0901 -0.4591 -0.3877
 4853SOL    HW219184   3.302   2.787   5.886  1.7074 -1.0010 -0.0112
 4853SOL    HW319185   3.356   2.761   5.747 -0.5366 -0.7664 -0.9588
 4853SOL    MW419186   3.305   2.738   5.814 -0.0695 -0.0224  0.0874
 4854SOL     OW19187   5.826   0.491   1.633  0.0365 -0.0183 -0.0112
 4854SOL    HW219188   5.819   0.582   1.663 -0.0417  0.7468 -2.1696
 4854SOL    HW319189   5.858   0.498   1.543 -1.4819 -2.0476 -0.7913
 4854SOL    MW419190   5.829   0.504   1.625  0.1470 -0.6820  0.2223
 4855SOL     OW19191   4.018   0.519   2.732  0.2629 -0.3146  0.2739
 4855SOL    HW219192   3.923   0.525   2.746  0.2610 -0.0648  0.1546
 4855SOL    HW319193   4.032   0.565   2.649  0.4988 -0.2963  0.3251
 4855SOL    MW419194   4.007   0.526   2.723  0.1465  0.1465  0.3326
 4856SOL     OW19195   2.857   6.333   1.328  0.4760  0.0780 -0.1525
 4856SOL    HW219196   2.949   6.324   1.353  1.2723  3.2830 -1.4596
 4856SOL    HW319197   2.839   6.426   1.335 -2.7784 -0.4762  0.1999
 4856SOL    MW419198   2.867   6.344   1.332  0.1067 -0.4911  0.1240
 4857SOL     OW19199   0.296   1.637   1.606  0.3692 -0.9999  0.5283
 4857SOL    HW219200   0.283   1.544   1.587  0.8150 -0.9287 -0.1563
 4857SOL    HW319201   0.245   1.683   1.539  1.0301 -0.7499  0.1822
 4857SOL    MW419202   0.287   1.631   1.594  0.2474  0.2595  0.1398
 4858SOL     OW19203   0.125   2.219   4.091 -0.1498 -0.3379  0.1494
 4858SOL    HW219204   0.202   2.243   4.040 -1.3703  1.3285 -1.0170
 4858SOL    HW319205   0.150   2.234   4.182  0.3527  1.9839 -0.3087
 4858SOL    MW419206   0.138   2.224   4.096  0.0710 -0.6561  0.4424
 4859SOL     OW19207   0.549   0.928   1.062  0.0714  0.0115 -0.2642
 4859SOL    HW219208   0.636   0.952   1.096  0.0937  1.5418 -1.3282
 4859SOL    HW319209   0.491   0.938   1.137  0.7180 -0.5359  0.3313
 4859SOL    MW419210   0.553   0.933   1.077 -0.0249  0.1099 -0.5062
 4860SOL     OW19211   3.583   1.274   1.903  0.6675 -0.3018  0.2478
 4860SOL    HW219212   3.498   1.310   1.929  1.3089  0.9728  0.6342
 4860SOL    HW319213   3.573   1.179   1.915 -0.3160 -0.0804  1.4182
 4860SOL    MW419214   3.570   1.266   1.908 -0.3140 -0.1508 -0.3516
 4861SOL     OW19215   0.940   3.065   2.869  0.6780  0.3514 -0.0794
 4861SOL    HW219216   0.954   3.118   2.948  0.0883 -0.4787  0.6056
 4861SOL    HW319217   0.847   3.046   2.869  1.0474 -1.8772  0.5181
 4861SOL    MW419218   0.930   3.069   2.880  0.4599  0.6459 -0.3022
 4862SOL     OW19219   0.729   0.193   0.714  0.0411 -0.3473 -0.0109
 4862SOL    HW219220   0.734   0.114   0.660  0.4702 -0.9435  0.8693
 4862SOL    HW319221   0.635   0.209   0.723 -0.0226  0.2138 -1.5550
 4862SOL    MW419222   0.717   0.184   0.708 -0.4085  0.4579 -0.3631
 4863SOL     OW19223   5.533   0.642   0.469 -0.7372  0.2277  0.5210
 4863SOL    HW219224   5.594   0.715   0.462 -1.1465  0.4124 -1.8125
 4863SOL    HW319225   5.448   0.682   0.487 -0.6660  0.1919  0.9388
 4863SOL    MW419226   5.530   0.657   0.470  1.1598 -0.1565  0.2594
 4864SOL     OW19227   3.317   3.062   1.524 -0.2057 -0.2536 -0.7177
 4864SOL    HW219228   3.389   3.000   1.513 -0.6961 -0.9170 -0.2719
 4864SOL    HW319229   3.337   3.108   1.605 -0.3099 -0.4878 -0.5562
 4864SOL    MW419230   3.329   3.060   1.533 -0.0771 -0.1105 -0.0979
 4865SOL     OW19231   3.389   2.670   4.813 -0.0844  0.3983  0.5031
 4865SOL    HW219232   3.364   2.604   4.878 -0.2361  0.1363  0.1852
 4865SOL    HW319233   3.485   2.670   4.815 -0.0524 -0.5995 -0.2392
 4865SOL    MW419234   3.399   2.661   4.822 -0.1466 -0.0579  0.4018
 4866SOL     OW19235   3.667   5.218   5.222  0.0979  0.2644 -0.1703
 4866SOL    HW219236   3.630   5.181   5.302  0.2657 -1.0852 -0.6975
 4866SOL    HW319237   3.687   5.142   5.168  0.8614  1.1227 -1.1134
 4866SOL    MW419238   3.665   5.203   5.226  0.3999 -0.1513  1.0098
 4867SOL     OW19239   2.065   2.137   1.028  0.2773 -0.0302 -0.4815
 4867SOL    HW219240   2.042   2.054   0.987  1.4103 -1.8425  2.2214
 4867SOL    HW319241   2.145   2.165   0.985  0.3271 -0.7789 -0.8774
 4867SOL    MW419242   2.072   2.130   1.017  0.0816 -0.0841 -0.7308
 4868SOL     OW19243   1.964   4.047   0.027 -0.1510  0.4038 -0.2428
 4868SOL    HW219244   1.988   3.963   0.068  0.5174  1.4116  1.5607
 4868SOL    HW319245   1.898   4.084   0.086 -1.8039  0.3778 -1.9924
 4868SOL    MW419246   1.959   4.041   0.040 -0.1331 -0.3786  0.2954
 4869SOL     OW19247   3.545   2.647   6.051  0.2868  0.2134 -0.2880
 4869SOL    HW219248   3.523   2.724   5.999  2.1733  1.8420  1.1597
 4869SOL    HW319249   3.640   2.638   6.043  0.2816 -1.1267  0.6997
 4869SOL    MW419250   3.555   2.656   6.043 -0.3616 -0.2291  0.1677
 4870SOL     OW19251   5.822   6.134   4.838 -0.4372 -0.2249  0.3683
 4870SOL    HW219252   5.805   6.217   4.794 -0.1278 -0.6451 -0.5591
 4870SOL    HW319253   5.838   6.158   4.929 -0.0174  0.7705  0.0437
 4870SOL    MW419254   5.822   6.148   4.844 -0.1751 -0.3213 -0.4054
 4871SOL     OW19255   6.012   3.639   0.644  0.6377 -0.2210  0.5143
 4871SOL    HW219256   6.015   3.607   0.734 -1.1430  0.2407  0.7785
 4871SOL    HW319257   5.981   3.564   0.593 -0.5081  0.1306  0.6570
 4871SOL    MW419258   6.008   3.625   0.649 -0.0757  0.2639  0.2528
 4872SOL     OW19259   0.531   1.709   4.258  0.4647 -0.5424  0.6498
 4872SOL    HW219260   0.538   1.647   4.331  0.3518 -0.7065  0.5220
 4872SOL    HW319261   0.457   1.676   4.207 -1.5272  1.3073  2.1453
 4872SOL    MW419262   0.522   1.696   4.261 -0.5931 -0.2792 -0.2064
 4873SOL     OW19263   3.979   2.171   1.275  0.3610  0.3993 -0.1050
 4873SOL    HW219264   4.046   2.107   1.297  0.8018  0.4344 -1.2550
 4873SOL    HW319265   4.021   2.256   1.286  0.4286  0.4291 -0.5699
 4873SOL    MW419266   3.993   2.173   1.279 -0.1301  0.2145  0.3644
 4874SOL     OW19267   4.650   5.975   1.715 -0.0835  0.5164  0.3137
 4874SOL    HW219268   4.624   5.885   1.694  1.8697  0.0135 -0.0906
 4874SOL    HW319269   4.745   5.973   1.719 -0.0482  2.2761  1.7513
 4874SOL    MW419270   4.659   5.963   1.713  0.0581 -0.1749 -0.5220
 4875SOL     OW19271   2.897   0.582   4.513  0.9897 -0.4218 -0.0955
 4875SOL    HW219272   2.866   0.494   4.492  0.1642 -0.4482  1.0985
 4875SOL    HW319273   2.932   0.616   4.431  0.4028 -1.4886 -0.8103
 4875SOL    MW419274   2.898   0.575   4.499  0.3361  0.0119 -0.5714
 4876SOL     OW19275   4.411   0.274   3.355 -0.5580 -0.3679 -0.3901
 4876SOL    HW219276   4.462   0.355   3.348 -1.0454 -0.0485 -0.2685
 4876SOL    HW319277   4.476   0.204   3.348 -0.0049  0.0371  0.5631
 4876SOL    MW419278   4.426   0.275   3.353  0.8900 -0.0905 -0.3793
 4877SOL     OW19279   4.182   3.463   0.600  0.5790 -0.6209 -0.7119
 4877SOL    HW219280   4.188   3.423   0.687  0.1978 -0.2026 -0.4895
 4877SOL    HW319281   4.244   3.536   0.602 -0.3761  0.2090 -0.3289
 4877SOL    MW419282   4.191   3.467   0.612  0.0281  0.2390 -0.2464
 4878SOL     OW19283   1.072   1.891   3.255  0.8510 -0.5473  0.4214
 4878SOL    HW219284   1.143   1.875   3.193  0.3236  0.8415 -0.5701
 4878SOL    HW319285   1.006   1.938   3.205 -0.3268 -0.8660  1.6116
 4878SOL    MW419286   1.073   1.895   3.240 -0.5389  0.3576 -0.2448
 4879SOL     OW19287   3.106   2.832   4.576  0.2349  0.2600  0.1501
 4879SOL    HW219288   3.041   2.894   4.608 -0.2659  0.3569 -1.0004
 4879SOL    HW319289   3.063   2.746   4.582  0.5954  0.1227  0.8858
 4879SOL    MW419290   3.092   2.829   4.581  0.0787 -0.2972 -0.2970
 4880SOL     OW19291   5.615   0.155   4.676  0.2905 -0.4857  0.6949
 4880SOL    HW219292   5.675   0.086   4.708  0.1503 -1.3100 -0.7472
 4880SOL    HW319293   5.586   0.123   4.591  1.0576  1.8742 -0.5320
 4880SOL    MW419294   5.619   0.141   4.669 -0.2868  0.0258  0.6026
 4881SOL     OW19295   1.335   5.665   4.361 -0.4174 -0.1268 -0.4548
 4881SOL    HW219296   1.369   5.738   4.309  2.1210 -0.1324  1.0202
 4881SOL    HW319297   1.372   5.587   4.320  0.6025 -0.2087  0.5495
 4881SOL    MW419298   1.345   5.665   4.349  0.0761  0.1643  0.3189
 4882SOL     OW19299   0.618   6.216   5.870  0.4437 -0.1348  0.5888
 4882SOL    HW219300   0.668   6.146   5.829  0.2058 -0.9161  1.5993
 4882SOL    HW319301   0.679   6.256   5.932  0.5717  0.5549  0.0345
 4882SOL    MW419302   0.633   6.212   5.873  0.2495 -0.3790 -0.3696
 4883SOL     OW19303   1.910   5.634   5.060  0.0803 -0.1614  0.1838
 4883SOL    HW219304   1.824   5.658   5.096  0.3310  0.4787  0.3530
 4883SOL    HW319305   1.970   5.699   5.095  0.9189 -1.4823  1.2836
 4883SOL    MW419306   1.906   5.646   5.069 -0.0570  0.2692 -0.3932
 4884SOL     OW19307   2.572   4.191   0.039 -0.0448  0.0314 -0.0550
 4884SOL    HW219308   2.566   4.267   0.096 -1.1247  0.3801 -0.5975
 4884SOL    HW319309   2.647   4.208  -0.018  2.7127 -1.4606  2.8043
 4884SOL    MW419310   2.581   4.203   0.039 -1.1869 -0.1773  0.1838
 4885SOL     OW19311   3.267   5.156   1.204  0.3929  0.1267 -0.2360
 4885SOL    HW219312   3.285   5.218   1.274  0.4801 -0.3524  0.1702
 4885SOL    HW319313   3.345   5.160   1.148  0.0598  0.9649 -0.6541
 4885SOL    MW419314   3.280   5.165   1.206  0.9106  0.4147  0.5641
 4886SOL     OW19315   4.152   1.018   2.575  0.5025 -0.8507 -0.0553
 4886SOL    HW219316   4.116   0.983   2.494 -0.4777 -2.9435  1.1720
 4886SOL    HW319317   4.094   1.091   2.597 -2.9906 -3.7233  1.5308
 4886SOL    MW419318   4.139   1.023   2.567 -0.0637  0.4202 -0.3144
 4887SOL     OW19319   6.392   5.431   1.943  0.4443 -0.0797  0.0896
 4887SOL    HW219320   6.438   5.371   2.002 -0.2002 -1.6492 -0.9246
 4887SOL    HW319321   6.408   5.518   1.980  2.3624 -0.7503  0.9907
 4887SOL    MW419322   6.400   5.435   1.956 -0.8477 -0.1522 -0.0030
 4888SOL     OW19323   1.976   0.351   5.584 -0.2310 -0.0563  0.3140
 4888SOL    HW219324   1.919   0.289   5.629  0.6332 -0.1697  1.2995
 4888SOL    HW319325   2.053   0.359   5.641  0.8370 -0.0612 -1.0588
 4888SOL    MW419326   1.979   0.344   5.598  0.2975 -0.7529  0.1644
 4889SOL     OW19327   2.382   0.646   3.546 -0.4648 -0.2826 -0.1424
 4889SOL    HW219328   2.325   0.595   3.604  1.4391 -1.4370  0.8093
 4889SOL    HW319329   2.364   0.610   3.459 -1.3298 -0.4711  0.0970
 4889SOL    MW419330   2.372   0.635   3.542  0.3594  0.5227 -0.0733
 4890SOL     OW19331   3.850   3.023   1.437  0.1338 -0.8028  0.4042
 4890SOL    HW219332   3.832   3.107   1.481 -1.3687 -0.9330  0.1009
 4890SOL    HW319333   3.879   2.965   1.507  1.5480  0.0525  0.5624
 4890SOL    MW419334   3.851   3.027   1.452  0.7699  0.3466  0.2613
 4891SOL     OW19335   2.401   2.073   1.377 -0.0475  0.5699 -0.4658
 4891SOL    HW219336   2.321   2.076   1.325  0.0605 -0.7938 -0.7387
 4891SOL    HW319337   2.450   1.998   1.343  0.0321 -0.3795  1.5796
 4891SOL    MW419338   2.397   2.064   1.366 -0.0263  0.4979  0.2169
 4892SOL     OW19339   5.446   0.512   4.045  0.2283  0.2014 -0.6031
 4892SOL    HW219340   5.434   0.438   3.986  1.6557 -1.4123  1.0141
 4892SOL    HW319341   5.370   0.509   4.103  0.8416 -0.7583  0.1855
 4892SOL    MW419342   5.434   0.502   4.045  0.0836 -0.4859  0.5366
 4893SOL     OW19343   6.315   0.407   4.929  0.2099 -0.3359  0.3381
 4893SOL    HW219344   6.404   0.441   4.931  0.3527 -0.5386 -1.5125
 4893SOL    HW319345   6.260   0.482   4.954  0.7743  0.2919 -0.2727
 4893SOL    MW419346   6.319   0.422   4.933 -0.2577 -0.4659 -0.5537
 4894SOL     OW19347   4.505   4.504   4.483  0.6755  0.2407  0.0937
 4894SOL    HW219348   4.426   4.458   4.454  0.9097 -0.5797  0.7209
 4894SOL    HW319349   4.572   4.480   4.419  0.6763  0.0710  0.1562
 4894SOL    MW419350   4.503   4.495   4.471 -0.4736 -0.5068 -0.1534
 4895SOL     OW19351   3.585   1.498   2.380 -0.1872 -0.2883  0.1447
 4895SOL    HW219352   3.608   1.557   2.309 -1.8374  0.9495  0.5876
 4895SOL    HW319353   3.660   1.502   2.440  0.5480 -0.1664 -0.7524
 4895SOL    MW419354   3.598   1.506   2.378  0.1004 -0.0511 -0.0406
 4896SOL     OW19355   0.959   5.801   3.663 -0.4582  0.4071 -0.5141
 4896SOL    HW219356   0.915   5.833   3.742 -0.1616 -0.7354  0.1290
 4896SOL    HW319357   1.012   5.727   3.693 -1.1307 -0.7085 -1.9533
 4896SOL    MW419358   0.960   5.796   3.678  0.1647 -0.7743 -0.5471
 4897SOL     OW19359   2.622   2.369   2.831  0.3592 -0.3369  0.0388
 4897SOL    HW219360   2.615   2.298   2.767 -0.7113  0.1756 -0.4306
 4897SOL    HW319361   2.561   2.436   2.799  1.2145  0.7221  0.5683
 4897SOL    MW419362   2.613   2.368   2.818  0.3133  0.0078 -0.3217
 4898SOL     OW19363   5.073   3.342   3.433  0.4334  0.6474  0.6286
 4898SOL    HW219364   5.064   3.250   3.409  1.0351 -0.3589  3.7695
 4898SOL    HW319365   5.111   3.384   3.356  2.5760 -2.2710 -0.0748
 4898SOL    MW419366   5.077   3.335   3.420  0.3224  0.2684 -0.5184
 4899SOL     OW19367   6.231   6.176   4.434  0.2752 -0.0774  0.0537
 4899SOL    HW219368   6.227   6.087   4.470  0.3907  0.8351  2.4635
 4899SOL    HW319369   6.222   6.233   4.510 -0.0544  1.9973 -1.4778
 4899SOL    MW419370   6.229   6.172   4.449 -0.4961 -0.4597 -0.2212
 4900SOL     OW19371   1.417   5.495   5.299  0.5171  0.5606 -0.2508
 4900SOL    HW219372   1.349   5.515   5.235 -0.1868 -2.3295 -0.5308
 4900SOL    HW319373   1.492   5.466   5.247  1.2596  1.6866  0.1468
 4900SOL    MW419374   1.418   5.494   5.284  0.3845 -0.2590 -0.2402
 4901SOL     OW19375   3.875   3.406   4.574  0.0538 -0.3444  0.0618
 4901SOL    HW219376   3.950   3.449   4.615  0.3728  0.5109 -1.3482
 4901SOL    HW319377   3.810   3.476   4.564 -0.4705 -0.8088  0.1784
 4901SOL    MW419378   3.876   3.421   4.578 -0.3477 -0.4917 -1.2642
 4902SOL     OW19379   4.139   4.143   4.952  0.1341  0.1397  0.2162
 4902SOL    HW219380   4.135   4.223   4.900  2.1999  0.4125  0.4276
 4902SOL    HW319381   4.214   4.095   4.918 -1.3174 -1.9805 -0.2217
 4902SOL    MW419382   4.148   4.147   4.941  0.4212 -0.0329  0.5402
 4903SOL     OW19383   0.696   2.722   1.484  0.7015 -0.1750  0.6544
 4903SOL    HW219384   0.621   2.775   1.456  0.5557 -0.7157  0.0012
 4903SOL    HW319385   0.672   2.693   1.573  0.7628  0.7952  1.0011
 4903SOL    MW419386   0.683   2.725   1.492 -0.3643 -0.6507 -0.1193
 4904SOL     OW19387   1.393   5.669   5.027  0.4581  0.4045  0.1584
 4904SOL    HW219388   1.393   5.764   5.022 -0.7364  0.5091  1.5389
 4904SOL    HW319389   1.481   5.646   5.055  1.0448  1.0213 -1.1180
 4904SOL    MW419390   1.404   5.678   5.030 -0.5516 -0.2687  0.1262
 4905SOL     OW19391   4.806   3.178   0.477 -0.2019 -0.8755  0.3107
 4905SOL    HW219392   4.769   3.108   0.424  0.7409 -1.5409  0.4883
 4905SOL    HW319393   4.853   3.234   0.415 -0.4121 -0.7701  0.2476
 4905SOL    MW419394   4.807   3.176   0.462 -0.1578  0.6123 -0.2772
 4906SOL     OW19395   6.212   1.327   2.733 -0.2633  0.2627  0.2287
 4906SOL    HW219396   6.152   1.337   2.807  0.6737 -0.1406  1.0643
 4906SOL    HW319397   6.233   1.417   2.707  0.4303  0.4275  1.3165
 4906SOL    MW419398   6.207   1.340   2.739 -0.5430  0.1752  0.2926
 4907SOL     OW19399   4.853   4.653   5.264 -0.0635  0.0982  0.3133
 4907SOL    HW219400   4.913   4.616   5.199  0.8846  0.6822  0.8319
 4907SOL    HW319401   4.881   4.615   5.347  0.7646  1.7185  0.8189
 4907SOL    MW419402   4.864   4.643   5.266  0.1862  0.1131 -0.6011
 4908SOL     OW19403   2.338   6.021   5.703  0.0793  0.2789 -0.0531
 4908SOL    HW219404   2.364   6.087   5.638 -0.5264 -0.8365 -1.4964
 4908SOL    HW319405   2.381   5.941   5.673 -1.5346 -0.6287 -0.0220
 4908SOL    MW419406   2.347   6.019   5.690  0.1559 -0.0184 -0.1908
 4909SOL     OW19407   4.414   3.923   6.025 -0.1566 -0.1476  0.0058
 4909SOL    HW219408   4.380   4.012   6.031  1.5358  0.5283 -0.0159
 4909SOL    HW319409   4.432   3.909   5.932 -2.9006 -1.5451 -0.4322
 4909SOL    MW419410   4.412   3.933   6.014  0.2163  0.3792 -0.4340
 4910SOL     OW19411   6.029   4.162   1.568 -0.2579 -0.6598 -0.0555
 4910SOL    HW219412   6.115   4.188   1.599 -0.5649  0.4068 -0.0715
 4910SOL    HW319413   5.995   4.238   1.521 -0.4232 -1.7178 -1.7582
 4910SOL    MW419414   6.036   4.175   1.566  0.9482 -0.0348 -0.0352
 4911SOL     OW19415   1.263   2.469   0.036 -0.3327  0.0172  0.3123
 4911SOL    HW219416   1.194   2.522  -0.003  0.0177  0.0581 -0.2622
 4911SOL    HW319417   1.345   2.505   0.001 -0.1200 -1.4693 -0.8595
 4911SOL    MW419418   1.265   2.481   0.026  0.0634 -0.2487  0.0629
 4912SOL     OW19419   4.210   2.217   0.135  0.3783 -0.1211 -0.7902
 4912SOL    HW219420   4.213   2.138   0.190  1.8049 -0.1081 -0.8022
 4912SOL    HW319421   4.252   2.189   0.053  0.8479  0.6322 -0.8107
 4912SOL    MW419422   4.216   2.203   0.131 -0.1556  0.1377 -0.1172
 4913SOL     OW19423   5.187   1.968   1.750  0.1473 -0.3879  0.1359
 4913SOL    HW219424   5.280   1.987   1.739 -0.0403 -0.2477 -1.4319
 4913SOL    HW319425   5.143   2.017   1.681 -1.0550 -0.7945  0.5732
 4913SOL    MW419426   5.193   1.977   1.740 -0.5763 -0.0820  0.2607
 4914SOL     OW19427   1.427   1.252   4.923 -0.9512 -0.6658 -0.7566
 4914SOL    HW219428   1.383   1.321   4.874 -0.3968  0.6646  0.5415
 4914SOL    HW319429   1.515   1.248   4.886 -0.3323  0.7661  0.4474
 4914SOL    MW419430   1.433   1.261   4.912  0.2142 -0.9243  0.4082
 4915SOL     OW19431   1.064   4.711   3.090 -0.3362 -0.1321  0.2623
 4915SOL    HW219432   1.116   4.692   3.168 -0.4174  1.2990  0.6932
 4915SOL    HW319433   1.072   4.632   3.036  3.5791  0.5267 -0.4190
 4915SOL    MW419434   1.072   4.698   3.093  0.6603  0.2699 -0.2185
 4916SOL     OW19435   1.205   1.161   6.357  0.4799  0.7775  0.0494
 4916SOL    HW219436   1.251   1.079   6.375 -1.2854 -0.2193  0.2809
 4916SOL    HW319437   1.150   1.175   6.433 -1.6647  0.3835 -1.3221
 4916SOL    MW419438   1.204   1.152   6.369  0.1791 -0.0936  0.4443
 4917SOL     OW19439   5.654   5.125   3.653  0.0913 -0.2606  0.8408
 4917SOL    HW219440   5.697   5.179   3.586  0.2103 -0.5588  0.6746
 4917SOL    HW319441   5.567   5.164   3.663 -1.1279 -2.0290 -1.7607
 4917SOL    MW419442   5.648   5.137   3.645 -0.4406 -0.0979 -0.2018
 4918SOL     OW19443   0.833   4.883   4.764 -0.2307  0.1099 -0.2963
 4918SOL    HW219444   0.814   4.791   4.747 -0.2836 -0.0459  0.5358
 4918SOL    HW319445   0.921   4.897   4.729  0.1095 -0.4799  0.2953
 4918SOL    MW419446   0.842   4.873   4.757  0.0621  0.5280  0.0118
 4919SOL     OW19447   2.560   6.152   3.462 -0.4955  0.0994 -0.1687
 4919SOL    HW219448   2.651   6.147   3.490 -0.9241 -2.8151  1.0211
 4919SOL    HW319449   2.563   6.133   3.368  0.0131 -2.5259  0.3065
 4919SOL    MW419450   2.572   6.149   3.453 -0.3261 -0.0600  0.1592
 4920SOL     OW19451   0.925   2.960   1.831 -0.0745  0.0265  0.2571
 4920SOL    HW219452   0.859   3.028   1.821 -0.2674 -0.1574  0.2560
 4920SOL    HW319453   0.918   2.907   1.752 -2.1067 -1.8554  1.5542
 4920SOL    MW419454   0.915   2.962   1.819 -0.2034  0.6554 -0.5686
 4921SOL     OW19455   2.406   3.865   3.531  0.0767  0.6436 -0.4914
 4921SOL    HW219456   2.415   3.830   3.619 -2.8781  2.1238  0.5264
 4921SOL    HW319457   2.340   3.809   3.489 -3.3821  3.5607  0.5684
 4921SOL    MW419458   2.398   3.853   3.537  0.6446 -0.1195  0.3031
 4922SOL     OW19459   5.885   3.826   5.937  0.4409 -0.5807 -0.7429
 4922SOL    HW219460   5.846   3.900   5.891 -0.0782 -0.1644  0.3311
 4922SOL    HW319461   5.815   3.761   5.942  0.0217 -0.0592  0.6800
 4922SOL    MW419462   5.871   3.827   5.932  0.1119 -0.1583  0.2172
 4923SOL     OW19463   2.139   3.751   5.246  0.3737 -0.3661  0.3314
 4923SOL    HW219464   2.230   3.743   5.276  0.0324 -2.1037  1.0248
 4923SOL    HW319465   2.146   3.785   5.157  1.7395 -0.9825  0.1798
 4923SOL    MW419466   2.152   3.755   5.238  0.1413 -0.4491  0.4589
 4924SOL     OW19467   4.850   4.329   4.961  0.7267 -0.1936  0.3209
 4924SOL    HW219468   4.814   4.288   5.040  2.0945  0.4715  1.3411
 4924SOL    HW319469   4.774   4.350   4.907 -0.3238  0.1269  1.8671
 4924SOL    MW419470   4.835   4.327   4.964 -0.5321 -0.7356 -0.6454
 4925SOL     OW19471   2.059   5.230   4.865 -0.1184  0.0614  0.6942
 4925SOL    HW219472   2.040   5.269   4.950  0.9313  2.7459 -0.1993
 4925SOL    HW319473   2.139   5.273   4.836  0.2047 -1.6501 -1.1445
 4925SOL    MW419474   2.067   5.241   4.872  0.4210 -0.0296 -0.8342
 4926SOL     OW19475   3.720   2.135   5.646  0.2255 -0.7794  0.2149
 4926SOL    HW219476   3.690   2.046   5.665  1.0098 -1.3998 -1.2769
 4926SOL    HW319477   3.641   2.180   5.615 -0.2598 -0.8240  1.3375
 4926SOL    MW419478   3.705   2.129   5.645  0.4176  0.4403  0.0744
 4927SOL     OW19479   2.228   0.744   1.728  0.2746  0.0992 -0.2420
 4927SOL    HW219480   2.213   0.810   1.795 -0.4324 -1.1142  0.8356
 4927SOL    HW319481   2.145   0.698   1.719  0.5308 -0.1644 -1.5218
 4927SOL    MW419482   2.215   0.747   1.735  0.0084  0.4190 -0.7227
 4928SOL     OW19483   5.451   1.102   1.749  0.3800  0.1601 -0.3472
 4928SOL    HW219484   5.407   1.101   1.834 -0.6050 -0.0513 -0.8446
 4928SOL    HW319485   5.535   1.144   1.766 -0.4565  1.5904  0.4088
 4928SOL    MW419486   5.456   1.107   1.763 -0.7106 -0.2868  0.1930
 4929SOL     OW19487   3.767   1.231   0.179 -0.1751 -0.3291 -0.0899
 4929SOL    HW219488   3.852   1.219   0.138  0.0916 -0.3481  0.4547
 4929SOL    HW319489   3.735   1.314   0.145 -0.4863 -0.9067 -1.2281
 4929SOL    MW419490   3.774   1.240   0.169  0.6952  0.5048  0.1942
 4930SOL     OW19491   4.468   0.469   1.019  0.1499 -0.1771  0.4584
 4930SOL    HW219492   4.479   0.374   1.025 -2.5965 -0.4791  2.5987
 4930SOL    HW319493   4.418   0.482   0.938  0.9632 -0.4801 -0.1012
 4930SOL    MW419494   4.463   0.458   1.009  0.3508  0.0506  0.3372
 4931SOL     OW19495   4.312   3.309   3.802 -0.6230  0.3296 -0.4582
 4931SOL    HW219496   4.224   3.345   3.816  0.8441  3.9220  0.8122
 4931SOL    HW319497   4.347   3.361   3.730  0.9889  0.0822  0.1151
 4931SOL    MW419498   4.305   3.321   3.794 -0.5324  0.3319 -0.2557
 4932SOL     OW19499   1.276   3.177   1.241 -0.0892  0.5248 -0.1199
 4932SOL    HW219500   1.223   3.253   1.265  1.6976  2.2518 -1.3292
 4932SOL    HW319501   1.357   3.188   1.291 -0.2507 -1.2716  0.5950
 4932SOL    MW419502   1.280   3.189   1.251  0.4604  0.4052 -0.0330
 4933SOL     OW19503   3.134   3.276   5.194  0.6774 -0.3550 -0.5338
 4933SOL    HW219504   3.044   3.244   5.189  0.5835  0.0238 -1.4916
 4933SOL    HW319505   3.130   3.352   5.252  0.5259 -0.7908  0.0396
 4933SOL    MW419506   3.122   3.282   5.201 -0.2378  0.6395  0.3382
 4934SOL     OW19507   0.325   4.045   4.151 -0.7840  0.0068  0.0549
 4934SOL    HW219508   0.305   3.952   4.150 -0.6590 -0.0584  1.4638
 4934SOL    HW319509   0.278   4.081   4.075 -0.8807 -1.1764 -0.4611
 4934SOL    MW419510   0.316   4.037   4.141  0.0287 -0.2954  0.0295
 4935SOL     OW19511   3.048   0.178   0.463 -0.3024  0.6718 -0.0032
 4935SOL    HW219512   3.070   0.221   0.381  0.4461  1.4315  0.5665
 4935SOL    HW319513   2.982   0.113   0.440 -2.6225  3.0833 -0.7133
 4935SOL    MW419514   3.042   0.175   0.449 -0.5091  0.1939  0.1229
 4936SOL     OW19515   0.842   3.030   2.207 -0.3755 -0.5105  0.0589
 4936SOL    HW219516   0.912   2.970   2.183  2.1359  1.9452  0.7099
 4936SOL    HW319517   0.827   3.013   2.300  0.6052  0.0411  0.3386
 4936SOL    MW419518   0.849   3.020   2.216 -0.1996 -0.4124 -0.4260
 4937SOL     OW19519   1.366   3.246   5.138  0.5529  0.3580  0.3220
 4937SOL    HW219520   1.406   3.283   5.059 -0.0695  2.0152  0.7289
 4937SOL    HW319521   1.319   3.320   5.177  0.2459 -0.6101  1.8565
 4937SOL    MW419522   1.365   3.261   5.133 -0.4580  0.5671 -0.4203
 4938SOL     OW19523   2.543   1.887   4.863 -0.5210 -0.0349  0.4871
 4938SOL    HW219524   2.600   1.946   4.912 -1.3194 -0.4345  1.9437
 4938SOL    HW319525   2.468   1.941   4.838  0.4107  0.4877 -1.4199
 4938SOL    MW419526   2.541   1.902   4.866  0.0984  0.4568  0.3588
 4939SOL     OW19527   4.465   2.867   3.285 -0.1062  0.6131  0.3229
 4939SOL    HW219528   4.419   2.875   3.201 -1.1298 -0.1578  0.7897
 4939SOL    HW319529   4.480   2.958   3.312 -0.9225  0.8786 -0.0827
 4939SOL    MW419530   4.461   2.880   3.277  0.1333 -0.0777  0.1169
 4940SOL     OW19531   0.809   2.352   4.721 -0.3179 -0.8368 -0.3507
 4940SOL    HW219532   0.841   2.422   4.777  0.0199 -0.1486 -1.3646
 4940SOL    HW319533   0.726   2.385   4.687 -0.4440 -1.1793 -0.3778
 4940SOL    MW419534   0.802   2.365   4.724  0.2626  0.2870  0.4219
 4941SOL     OW19535   2.342   3.683   0.806  0.3962 -0.2253 -0.0162
 4941SOL    HW219536   2.430   3.679   0.769 -0.0188 -0.8496 -0.9727
 4941SOL    HW319537   2.325   3.777   0.816  0.9169 -0.0780 -0.4412
 4941SOL    MW419538   2.351   3.695   0.803 -0.0595  0.4285 -0.4366
 4942SOL     OW19539   2.377   0.922   2.148  0.2839 -0.1656 -0.0824
 4942SOL    HW219540   2.440   0.854   2.126  0.9642  0.8544 -1.4513
 4942SOL    HW319541   2.420   1.004   2.122 -0.8443  0.7228  0.7311
 4942SOL    MW419542   2.391   0.924   2.142  0.1374 -0.1023  0.0516
 4943SOL     OW19543   3.995   1.870   0.431  0.1262  0.4298  0.1368
 4943SOL    HW219544   4.038   1.870   0.516 -3.3013 -1.2390  2.0544
 4943SOL    HW319545   3.947   1.953   0.429  1.7808  1.4434 -1.2158
 4943SOL    MW419546   3.994   1.881   0.442  0.1133  0.2092 -0.1090
 4944SOL     OW19547   0.713   1.648   2.671  0.2718  0.0258  0.1976
 4944SOL    HW219548   0.719   1.699   2.752  3.5594  2.4684 -1.3232
 4944SOL    HW319549   0.733   1.559   2.698  0.6759  0.6590  2.1816
 4944SOL    MW419550   0.717   1.643   2.685  0.1587  0.3000 -0.0513
 4945SOL     OW19551   5.240   0.371   3.133 -0.0122  0.1451 -0.8158
 4945SOL    HW219552   5.219   0.287   3.093 -1.4245  0.2688 -0.4117
 4945SOL    HW319553   5.155   0.414   3.143  0.5582  1.1047  0.1207
 4945SOL    MW419554   5.226   0.366   3.129 -0.6057  0.0430  0.1211
 4946SOL     OW19555   2.235   3.476   3.550 -0.2119  0.5721  0.4658
 4946SOL    HW219556   2.155   3.461   3.601  0.4709  1.3567  1.8236
 4946SOL    HW319557   2.303   3.490   3.616  0.5411  2.5811 -0.6471
 4946SOL    MW419558   2.234   3.476   3.565  0.3662 -0.0454 -0.2636
 4947SOL     OW19559   2.511   1.416   4.360  0.5387  0.1583  0.2394
 4947SOL    HW219560   2.519   1.444   4.269 -0.0963  1.5047  0.5701
 4947SOL    HW319561   2.480   1.494   4.406 -0.4119 -0.8635  1.3878
 4947SOL    MW419562   2.508   1.430   4.354 -0.3738  0.4713  0.5918
 4948SOL     OW19563   6.283   3.200   1.932  0.6564 -0.3974  0.4223
 4948SOL    HW219564   6.233   3.119   1.948  1.1699 -0.1665  4.1895
 4948SOL    HW319565   6.288   3.242   2.018  0.5630  3.6424 -1.3191
 4948SOL    MW419566   6.277   3.195   1.945  0.3619 -0.0165  0.7499
 4949SOL     OW19567   4.070   5.784   2.142 -0.7272 -0.3000  0.3189
 4949SOL    HW219568   4.012   5.842   2.094 -0.6269  1.2221  1.9330
 4949SOL    HW319569   4.024   5.766   2.224  0.1663 -0.7585  0.7336
 4949SOL    MW419570   4.057   5.789   2.146  0.7504  0.0593 -0.3010
 4950SOL     OW19571   2.507   2.121   2.349 -0.2920 -0.3039  0.2645
 4950SOL    HW219572   2.487   2.027   2.346 -0.2565 -0.2992 -0.0661
 4950SOL    HW319573   2.449   2.160   2.285 -1.3204  0.0861  1.4120
 4950SOL    MW419574   2.497   2.113   2.340  0.1216 -0.3438  0.0279
 4951SOL     OW19575   5.572   5.248   4.413 -0.3373 -0.6135  0.2556
 4951SOL    HW219576   5.486   5.233   4.374  0.2922 -1.8313 -0.7488
 4951SOL    HW319577   5.578   5.343   4.420 -1.2479 -0.4375 -0.9032
 4951SOL    MW419578   5.561   5.259   4.409  0.3623  0.0912 -0.6582
 4952SOL     OW19579   0.840   4.447   4.290 -0.3488  0.2499  0.2348
 4952SOL    HW219580   0.813   4.423   4.202  0.6094 -0.8860  0.2336
 4952SOL    HW319581   0.767   4.499   4.324 -1.3939 -0.5765 -0.6802
 4952SOL    MW419582   0.826   4.450   4.283 -0.1677  0.4835 -0.2342
 4953SOL     OW19583   4.768   4.530   5.947  0.1623 -0.5023  0.3551
 4953SOL    HW219584   4.850   4.486   5.970  0.0725 -0.8110  0.0970
 4953SOL    HW319585   4.764   4.605   6.006  0.1025 -1.0813  1.1032
 4953SOL    MW419586   4.779   4.534   5.958 -0.7853  0.2098 -0.0260
 4954SOL     OW19587   4.968   0.996   1.952  0.4580  0.1779 -0.2128
 4954SOL    HW219588   4.888   1.016   2.001  0.3748 -0.5040 -0.0613
 4954SOL    HW319589   4.965   1.055   1.876  0.8583  1.6337  0.8622
 4954SOL    MW419590   4.957   1.006   1.948 -0.0148 -0.4030  0.5616
 4955SOL     OW19591   6.352   0.574   1.045  0.3802 -0.7335  0.0592
 4955SOL    HW219592   6.371   0.509   1.114  1.0230 -0.9137 -0.2767
 4955SOL    HW319593   6.420   0.640   1.056 -0.5989  0.1931  0.7552
 4955SOL    MW419594   6.364   0.574   1.056 -0.0134  0.2502  0.0056
 4956SOL     OW19595   4.956   3.184   5.104 -0.1683  0.1240  0.3162
 4956SOL    HW219596   4.878   3.203   5.157 -1.6532 -1.2112 -1.2453
 4956SOL    HW319597   5.017   3.142   5.165 -0.0341  2.4783  1.9078
 4956SOL    MW419598   4.953   3.181   5.119 -0.1051  0.0188 -0.5850
 4957SOL     OW19599   3.405   0.290   2.921 -0.6946  0.4211 -0.8218
 4957SOL    HW219600   3.478   0.352   2.918 -0.3762  0.0291 -1.8220
 4957SOL    HW319601   3.395   0.268   3.013  0.9328 -0.0595 -0.7197
 4957SOL    MW419602   3.413   0.295   2.932 -0.5028 -0.0839  0.2331
 4958SOL     OW19603   4.419   5.040   0.660  0.0166  0.1742 -0.2128
 4958SOL    HW219604   4.371   5.120   0.638  0.1511  0.2353 -0.2864
 4958SOL    HW319605   4.510   5.067   0.666  0.0537  0.0414 -0.1600
 4958SOL    MW419606   4.425   5.054   0.658  0.2075  0.0226  0.3841
 4959SOL     OW19607   5.586   6.342   3.212  0.3815  0.8317 -0.8104
 4959SOL    HW219608   5.585   6.253   3.246  0.0758  0.7734 -0.9750
 4959SOL    HW319609   5.668   6.379   3.244  1.2975 -0.0212 -2.0893
 4959SOL    MW419610   5.597   6.335   3.221 -0.0486 -0.1820  0.6075
 4960SOL     OW19611   6.241   2.513   2.323  0.5302  0.1937  0.7649
 4960SOL    HW219612   6.246   2.424   2.358 -0.2044  0.8434  2.6813
 4960SOL    HW319613   6.210   2.566   2.397 -1.9486  1.5827 -1.0991
 4960SOL    MW419614   6.237   2.509   2.338  0.4223  0.3005  0.4143
 4961SOL     OW19615   2.280   1.132   6.080 -0.3314  0.0341  0.4132
 4961SOL    HW219616   2.190   1.156   6.102 -0.8599 -1.4654 -0.0572
 4961SOL    HW319617   2.332   1.167   6.152 -1.6168 -1.6293  2.2448
 4961SOL    MW419618   2.275   1.140   6.092 -0.1409  0.4396  0.0918
 4962SOL     OW19619   3.830   2.102   5.097 -0.2988 -0.4709 -0.4607
 4962SOL    HW219620   3.847   2.072   5.008 -0.7893 -0.8418 -0.4309
 4962SOL    HW319621   3.873   2.187   5.102 -1.1395  0.0271 -1.3719
 4962SOL    MW419622   3.838   2.109   5.086  0.4840 -0.1788  0.0441
 4963SOL     OW19623   5.604   4.486   1.356  0.6222  0.0453  0.0835
 4963SOL    HW219624   5.589   4.578   1.337  0.8554  0.4366  1.6252
 4963SOL    HW319625   5.522   4.443   1.330  0.1632  0.8243  0.1953
 4963SOL    MW419626   5.591   4.492   1.350 -0.3286 -0.5465 -0.1370
 4964SOL     OW19627   5.012   0.522   2.561  1.0704  0.7759 -0.2540
 4964SOL    HW219628   4.977   0.541   2.475  0.4718  0.8887  0.0108
 4964SOL    HW319629   5.088   0.466   2.544 -0.8870 -1.9308 -0.7376
 4964SOL    MW419630   5.018   0.517   2.548  0.5233 -0.8138 -0.7385
 4965SOL     OW19631   6.403   4.582   3.028 -0.5946  0.3430  0.5102
 4965SOL    HW219632   6.395   4.662   3.079 -3.0112  0.9278 -0.6241
 4965SOL    HW319633   6.349   4.518   3.073  0.1303 -0.2354  0.5938
 4965SOL    MW419634   6.395   4.584   3.040 -0.3426 -0.1235  0.1019
 4966SOL     OW19635   1.724   4.498   6.174 -0.3946 -0.4871  0.4035
 4966SOL    HW219636   1.762   4.418   6.138 -0.9015 -0.6459  0.2201
 4966SOL    HW319637   1.657   4.468   6.236 -1.1746 -0.2129 -0.2896
 4966SOL    MW419638   1.720   4.484   6.177  0.1681 -0.4611 -0.2722
 4967SOL     OW19639   2.487   5.761   5.307  0.3392  0.3846 -0.0864
 4967SOL    HW219640   2.439   5.762   5.224  0.0398  0.2549  0.0830
 4967SOL    HW319641   2.421   5.737   5.373  1.1155 -2.1728 -0.1492
 4967SOL    MW419642   2.472   5.758   5.305  0.0653  0.1485  0.2578
 4968SOL     OW19643   4.222   6.020   2.547 -0.3348  0.4057  0.1453
 4968SOL    HW219644   4.245   6.107   2.514  1.3178 -0.6192 -1.6087
 4968SOL    HW319645   4.126   6.017   2.541 -0.3488  1.7052 -0.8603
 4968SOL    MW419646   4.212   6.031   2.542  0.0626  0.1823  0.9177
 4969SOL     OW19647   2.828   5.367   4.852  0.1055 -0.1370  0.2390
 4969SOL    HW219648   2.763   5.301   4.826 -0.6692  1.2655 -1.5798
 4969SOL    HW319649   2.896   5.361   4.786  0.1352  0.7268  0.1785
 4969SOL    MW419650   2.828   5.357   4.840 -0.5044 -0.7250  0.2042
 4970SOL     OW19651   0.178   3.761   3.289 -0.5792 -0.3681  0.4863
 4970SOL    HW219652   0.235   3.823   3.242 -1.6983  0.5244  0.2742
 4970SOL    HW319653   0.209   3.764   3.379 -0.0727 -0.1550  0.3111
 4970SOL    MW419654   0.190   3.770   3.294  0.6653  0.6198 -0.2705
 4971SOL     OW19655   5.310   4.923   1.786  0.8490  0.0747 -0.0899
 4971SOL    HW219656   5.252   4.846   1.783 -1.7646  1.8628  1.1114
 4971SOL    HW319657   5.391   4.890   1.825  0.1119 -2.2112 -0.3392
 4971SOL    MW419658   5.313   4.908   1.790 -0.0238  0.3516 -0.1246
 4972SOL     OW19659   5.681   4.509   5.699  0.5352  0.1333 -0.3071
 4972SOL    HW219660   5.717   4.562   5.629 -1.2034  0.6162 -0.8928
 4972SOL    HW319661   5.633   4.571   5.754 -2.7591 -0.8638 -1.7903
 4972SOL    MW419662   5.679   4.524   5.697  1.0304  0.1764 -0.1071
 4973SOL     OW19663   2.242   3.942   0.759  0.4745 -0.1503 -0.9972
 4973SOL    HW219664   2.290   4.025   0.759 -1.2019  0.8646 -2.1655
 4973SOL    HW319665   2.153   3.966   0.784  0.1073 -1.7168 -0.6986
 4973SOL    MW419666   2.237   3.956   0.763  0.1114  0.2519  0.0334
 4974SOL     OW19667   2.900   6.177   1.883  0.2407 -0.5681  0.1009
 4974SOL    HW219668   2.956   6.171   1.805 -1.4859 -0.4841 -1.2266
 4974SOL    HW319669   2.824   6.226   1.853 -1.1104 -1.7481  1.4427
 4974SOL    MW419670   2.897   6.182   1.869 -0.6605  0.1798  0.3775
 4975SOL     OW19671   2.926   1.412   5.741 -0.2880 -0.4714  0.6235
 4975SOL    HW219672   3.010   1.371   5.761 -0.0066 -0.5002 -0.5337
 4975SOL    HW319673   2.946   1.474   5.671 -0.3075  3.1934  3.5288
 4975SOL    MW419674   2.940   1.415   5.734 -0.1735  0.0281 -0.4670
 4976SOL     OW19675   0.347   1.566   4.076  0.1055  0.0525  0.1406
 4976SOL    HW219676   0.380   1.481   4.045  0.1302 -0.1586  0.7315
 4976SOL    HW319677   0.255   1.568   4.049 -0.2112 -0.6599  1.1153
 4976SOL    MW419678   0.339   1.555   4.068  0.1894  0.1047  0.2779
 4977SOL     OW19679   6.225   5.285   0.756  0.1467  0.3081 -1.0191
 4977SOL    HW219680   6.186   5.371   0.771 -2.1068 -0.7934 -0.0883
 4977SOL    HW319681   6.233   5.246   0.844  0.4505 -0.6999 -1.4749
 4977SOL    MW419682   6.221   5.291   0.770 -0.1097 -0.4153  0.0013
 4978SOL     OW19683   3.550   1.263   5.526 -0.4332  0.3160  0.5994
 4978SOL    HW219684   3.466   1.230   5.558 -0.6244  1.5278  1.3655
 4978SOL    HW319685   3.527   1.333   5.465 -0.0073 -0.5327 -0.5791
 4978SOL    MW419686   3.536   1.268   5.522 -0.3985  0.5793 -0.0004
 4979SOL     OW19687   6.082   2.164   2.574 -0.2509 -0.1553 -0.1666
 4979SOL    HW219688   6.083   2.149   2.668 -3.0262  0.6618  0.0878
 4979SOL    HW319689   6.092   2.077   2.535  0.6813 -0.5225  0.8649
 4979SOL    MW419690   6.083   2.150   2.581 -0.3441 -0.3132  0.2545
 4980SOL     OW19691   4.461   3.894   3.395 -0.2148  0.3618 -0.2239
 4980SOL    HW219692   4.367   3.875   3.394 -0.0256 -0.6789 -2.1804
 4980SOL    HW319693   4.472   3.957   3.466 -2.4206  0.6460 -0.0820
 4980SOL    MW419694   4.450   3.900   3.404  0.6361 -0.9156 -0.0611
 4981SOL     OW19695   5.812   6.383   4.682  0.5865 -0.3399  0.7248
 4981SOL    HW219696   5.790   6.315   4.618  1.4150  1.3911 -1.5258
 4981SOL    HW319697   5.902   6.408   4.660 -0.0152  2.1585  0.7935
 4981SOL    MW419698   5.821   6.377   4.671  1.0345 -0.3287  0.5014
 4982SOL     OW19699   1.123   2.958   2.395 -0.6310 -0.1357  0.1364
 4982SOL    HW219700   1.120   2.996   2.483  2.6496  0.9054 -0.0426
 4982SOL    HW319701   1.123   3.033   2.336 -1.5128 -0.7735 -0.7028
 4982SOL    MW419702   1.123   2.973   2.399 -0.3400  0.1496 -0.4689
 4983SOL     OW19703   1.693   5.739   3.919 -0.1175 -0.2579  0.4356
 4983SOL    HW219704   1.647   5.663   3.956 -0.2321 -0.4199 -0.0225
 4983SOL    HW319705   1.641   5.814   3.947 -1.5077 -0.5338 -1.2375
 4983SOL    MW419706   1.680   5.739   3.928 -0.1412  0.2187  0.4010
 4984SOL     OW19707   1.000   1.856   5.964  0.0047 -0.4252  0.0655
 4984SOL    HW219708   0.997   1.943   6.003 -0.3078 -0.3863 -0.0412
 4984SOL    HW319709   0.967   1.798   6.033 -1.4210 -0.2452 -0.4321
 4984SOL    MW419710   0.995   1.860   5.978  0.0247 -0.4026 -0.0400
 4985SOL     OW19711   2.247   2.011   6.169  0.4059  0.0657 -0.5016
 4985SOL    HW219712   2.298   2.087   6.197  0.2008  0.8913 -2.2025
 4985SOL    HW319713   2.156   2.040   6.174  0.3545  0.2060 -1.7842
 4985SOL    MW419714   2.242   2.025   6.173 -0.1094 -0.2047 -0.3666
 4986SOL     OW19715   0.949   0.603   3.006 -0.1877 -0.2605 -0.2713
 4986SOL    HW219716   1.044   0.608   2.992 -0.3314  1.2001 -0.9337
 4986SOL    HW319717   0.938   0.619   3.100  0.1468  1.7771 -0.5196
 4986SOL    MW419718   0.960   0.606   3.016  0.3946  0.4692  0.2170
 4987SOL     OW19719   5.212   3.497   5.854  0.2865  0.0536 -0.1916
 4987SOL    HW219720   5.248   3.512   5.766  2.4234 -1.3842  0.3592
 4987SOL    HW319721   5.144   3.431   5.840  0.5834 -0.1356 -0.7826
 4987SOL    MW419722   5.208   3.490   5.840 -0.3358  0.1993  0.6080
 4988SOL     OW19723   2.722   0.841   1.485  0.2331 -0.7058  0.1260
 4988SOL    HW219724   2.658   0.813   1.551  0.7807 -1.1371  0.4785
 4988SOL    HW319725   2.797   0.783   1.497  1.3856  0.8650  0.8525
 4988SOL    MW419726   2.723   0.829   1.495  0.0986  0.1623 -0.0924
 4989SOL     OW19727   4.351   6.073   5.968 -0.1528  0.2304  0.3733
 4989SOL    HW219728   4.295   6.050   5.894  0.5820 -0.6535  0.0657
 4989SOL    HW319729   4.365   6.167   5.961 -0.9061  0.3112 -0.0300
 4989SOL    MW419730   4.346   6.082   5.958 -0.3858  0.4150 -0.1736
 4990SOL     OW19731   4.479   5.695   4.612 -0.1359  0.0587 -0.0354
 4990SOL    HW219732   4.518   5.695   4.700  1.6667 -3.9760 -0.5949
 4990SOL    HW319733   4.386   5.709   4.628  0.3689  1.4462  2.2652
 4990SOL    MW419734   4.472   5.697   4.626  0.1012  0.2879  0.3405
 4991SOL     OW19735   2.118   2.184   1.804  0.2326 -0.6615  0.1288
 4991SOL    HW219736   2.099   2.181   1.898  0.8307 -1.4713  0.2322
 4991SOL    HW319737   2.052   2.243   1.769 -1.7145 -2.4153  0.6450
 4991SOL    MW419738   2.107   2.191   1.812 -0.1643  0.0631 -0.3489
 4992SOL     OW19739   4.297   2.036   3.600  0.2970 -0.2919 -0.1681
 4992SOL    HW219740   4.218   2.090   3.602 -0.3368 -1.1676 -0.7740
 4992SOL    HW319741   4.361   2.085   3.653 -1.1299 -0.3344  1.6927
 4992SOL    MW419742   4.295   2.050   3.607 -0.1382  0.8934 -0.7559
 4993SOL     OW19743   0.181   4.993   5.690 -0.0743 -0.2050 -0.4996
 4993SOL    HW219744   0.250   5.031   5.636 -0.0091  0.9664  0.3838
 4993SOL    HW319745   0.122   5.066   5.709  0.1074 -0.4923  1.3279
 4993SOL    MW419746   0.182   5.007   5.685 -0.1902 -0.0067 -0.3835
 4994SOL     OW19747   1.771   3.248   0.677  0.0217 -0.0445 -0.0340
 4994SOL    HW219748   1.811   3.273   0.594 -0.2287  1.3357  0.2457
 4994SOL    HW319749   1.733   3.162   0.660  1.4286 -0.5481 -0.8488
 4994SOL    MW419750   1.771   3.240   0.664 -0.3399  0.3056 -0.0771
 4995SOL     OW19751   0.582   0.406   2.283  0.0553 -0.6447  0.1353
 4995SOL    HW219752   0.572   0.450   2.368  1.2984 -0.6382  0.2955
 4995SOL    HW319753   0.525   0.329   2.289 -0.3885 -0.2855  0.7072
 4995SOL    MW419754   0.573   0.402   2.295  0.0249 -0.1331  0.4450
 4996SOL     OW19755   3.139   6.072   4.199 -0.0122  0.1717  0.2030
 4996SOL    HW219756   3.192   6.103   4.125 -0.2131  1.9881  0.7779
 4996SOL    HW319757   3.128   5.978   4.182  0.5806  0.3869 -1.6723
 4996SOL    MW419758   3.145   6.064   4.187 -0.8106 -0.4055  0.3178
 4997SOL     OW19759   3.047   3.625   4.742  0.1227  0.0457 -0.7185
 4997SOL    HW219760   3.129   3.674   4.752 -0.0302 -0.0314  1.5186
 4997SOL    HW319761   3.074   3.536   4.723  0.7241 -0.4506  2.0507
 4997SOL    MW419762   3.061   3.620   4.741  0.1057  0.3297 -0.0082
 4998SOL     OW19763   1.482   0.075   2.343  0.3683 -0.0885 -0.2334
 4998SOL    HW219764   1.545   0.042   2.279 -0.7708 -1.0329 -0.9153
 4998SOL    HW319765   1.519   0.050   2.428  1.2699  0.0422 -0.5758
 4998SOL    MW419766   1.495   0.067   2.345  0.0218  0.4735 -0.3805
 4999SOL     OW19767   4.600   4.557   1.870  0.1680  0.7633  0.0303
 4999SOL    HW219768   4.635   4.469   1.863 -0.3794  0.5471 -0.0091
 4999SOL    HW319769   4.560   4.560   1.957 -0.1684  0.8440 -0.1260
 4999SOL    MW419770   4.599   4.546   1.881  0.7822  0.2677  0.3504
 5000SOL     OW19771   5.806   2.353   2.342 -0.5377 -0.2710 -0.2310
 5000SOL    HW219772   5.783   2.262   2.360  2.6238 -1.4470 -1.5097
 5000SOL    HW319773   5.821   2.391   2.428 -1.8455 -0.9261  0.3177
 5000SOL    MW419774   5.805   2.346   2.356 -0.4066  0.0023 -0.2142
 5001SOL     OW19775   5.728   5.519   3.844  0.0635 -0.2367 -0.2114
 5001SOL    HW219776   5.743   5.542   3.936 -0.1493 -0.1352 -0.2020
 5001SOL    HW319777   5.771   5.435   3.833 -1.7392 -1.3130  0.5410
 5001SOL    MW419778   5.736   5.511   3.855  0.5592  0.1687  0.0582
 5002SOL     OW19779   5.656   2.967   4.696 -0.1651  0.6664 -0.1933
 5002SOL    HW219780   5.606   3.017   4.632 -1.2262 -0.6476 -0.4242
 5002SOL    HW319781   5.732   3.023   4.716 -0.7693  1.8916 -1.1997
 5002SOL    MW419782   5.660   2.981   4.690  0.1472 -0.4750 -0.2802
 5003SOL     OW19783   5.297   1.761   5.750  0.7351 -0.7109 -0.1142
 5003SOL    HW219784   5.376   1.791   5.794 -0.1906 -0.0237  1.1662
 5003SOL    HW319785   5.237   1.739   5.821 -0.3995 -0.7112 -1.0387
 5003SOL    MW419786   5.299   1.762   5.765 -0.0833  0.5373  0.4714
 5004SOL     OW19787   1.406   4.030   3.841 -0.1343 -0.2089  0.4166
 5004SOL    HW219788   1.323   4.019   3.889 -0.1815 -1.6118  0.0403
 5004SOL    HW319789   1.473   4.026   3.909 -0.3559  1.1309  0.7504
 5004SOL    MW419790   1.404   4.028   3.856  0.0434 -0.5301 -0.4154
 5005SOL     OW19791   5.839   5.799   3.588  0.4841 -0.4878 -0.4242
 5005SOL    HW219792   5.896   5.758   3.653  0.7471  0.1891 -0.2142
 5005SOL    HW319793   5.759   5.820   3.637  0.2513 -0.9701 -0.5926
 5005SOL    MW419794   5.836   5.797   3.603 -0.0803 -0.0469 -0.5170
 5006SOL     OW19795   3.019   2.026   3.505  0.1548  0.0463  0.3648
 5006SOL    HW219796   2.991   2.086   3.436  0.9222  0.1101  0.0987
 5006SOL    HW319797   2.991   2.068   3.586  0.8095  0.8462  0.1887
 5006SOL    MW419798   3.012   2.039   3.507 -0.3930  0.1297  0.1472
 5007SOL     OW19799   5.537   4.808   1.893 -0.2985 -0.4334 -0.0396
 5007SOL    HW219800   5.590   4.873   1.939 -1.8561  0.3945  0.6728
 5007SOL    HW319801   5.573   4.807   1.804  0.5390  0.4918  0.2679
 5007SOL    MW419802   5.549   4.816   1.887 -0.5654 -0.3281  0.5667
 5008SOL     OW19803   2.706   5.352   3.438 -0.0397 -0.6769  0.6312
 5008SOL    HW219804   2.612   5.334   3.433 -0.0992 -0.0291 -1.8677
 5008SOL    HW319805   2.746   5.286   3.381  0.8556  0.0538  0.3842
 5008SOL    MW419806   2.699   5.341   3.430 -0.4087  0.3376  0.2424
 5009SOL     OW19807   1.997   5.693   1.796  0.3748  0.3978  0.5367
 5009SOL    HW219808   2.056   5.640   1.742 -2.0438 -1.0337 -0.8911
 5009SOL    HW319809   1.946   5.629   1.846 -2.0762  1.3128 -0.6245
 5009SOL    MW419810   1.998   5.678   1.796 -0.1323 -0.2537 -0.4786
 5010SOL     OW19811   2.068   0.439   4.838  0.0030  0.0706  0.1330
 5010SOL    HW219812   2.079   0.484   4.922  1.2560  1.1486 -0.5740
 5010SOL    HW319813   2.096   0.349   4.855  0.5935  0.3731  0.7803
 5010SOL    MW419814   2.073   0.433   4.851  0.0925  0.4383  0.1435
 5011SOL     OW19815   4.400   1.234   1.832 -0.3004  0.5610 -0.2632
 5011SOL    HW219816   4.313   1.198   1.814 -0.7236  0.2625  2.0038
 5011SOL    HW319817   4.439   1.172   1.894 -0.3244  2.9086  2.3408
 5011SOL    MW419818   4.394   1.221   1.838 -0.4193  0.2099  0.3334
 5012SOL     OW19819   3.372   0.879   2.693  0.4509 -0.3911 -0.2217
 5012SOL    HW219820   3.391   0.948   2.630 -0.5535 -0.2462 -0.3722
 5012SOL    HW319821   3.329   0.810   2.643 -0.1427 -0.3755  0.2474
 5012SOL    MW419822   3.369   0.879   2.678 -0.2678 -0.0479  0.1261
 5013SOL     OW19823   0.641   5.980   3.614  0.3877  0.1182  0.3470
 5013SOL    HW219824   0.557   6.026   3.612  0.7812  0.8242 -0.4076
 5013SOL    HW319825   0.706   6.049   3.601  1.1297 -0.3296  1.5328
 5013SOL    MW419826   0.638   5.995   3.612  0.6077  0.0156  0.0644
 5014SOL     OW19827   4.150   3.772   2.016 -0.1283 -0.0423 -0.1221
 5014SOL    HW219828   4.188   3.805   2.097 -2.6192  1.0121  0.7160
 5014SOL    HW319829   4.159   3.844   1.954  0.7102 -0.4188 -0.4565
 5014SOL    MW419830   4.156   3.786   2.019 -0.4178  0.1958  0.3889
 5015SOL     OW19831   0.863   4.027   1.030 -0.1486 -0.4968 -0.6026
 5015SOL    HW219832   0.892   4.068   0.949  2.2529 -1.1552 -0.1558
 5015SOL    HW319833   0.804   4.091   1.070  0.1972  0.6880 -1.9177
 5015SOL    MW419834   0.859   4.041   1.025  0.3738 -0.0105 -0.0278
 5016SOL     OW19835   1.233   0.546   1.561  0.5850 -0.5998  0.1230
 5016SOL    HW219836   1.220   0.591   1.477 -0.1018 -2.2762 -0.7202
 5016SOL    HW319837   1.291   0.603   1.611  2.5318 -0.4121 -2.2090
 5016SOL    MW419838   1.239   0.559   1.557  0.4159 -0.0304  0.2904
 5017SOL     OW19839   2.070   1.669   5.343 -0.4823  0.0881 -0.0624
 5017SOL    HW219840   2.083   1.763   5.330 -1.1527  0.3997  1.3334
 5017SOL    HW319841   2.099   1.654   5.434 -1.0225 -0.9292 -0.0513
 5017SOL    MW419842   2.076   1.679   5.353  0.0783 -0.4508  0.1760
 5018SOL     OW19843   1.805   0.924   1.245  0.3596 -0.3932  0.5239
 5018SOL    HW219844   1.756   0.873   1.310  0.1610 -1.0246 -0.1115
 5018SOL    HW319845   1.841   0.998   1.295  0.2341 -0.8817  1.3546
 5018SOL    MW419846   1.803   0.927   1.260 -0.7341 -0.1959 -0.9876
 5019SOL     OW19847   2.929   2.481   1.753  0.4524 -0.8492  0.5924
 5019SOL    HW219848   2.979   2.561   1.735 -0.5187  0.1847  2.2230
 5019SOL    HW319849   2.946   2.463   1.846 -2.3461 -0.3137  1.2886
 5019SOL    MW419850   2.938   2.489   1.763 -0.1562 -0.1242  0.4910
 5020SOL     OW19851   1.153   2.315   5.714  0.4519  0.0416  0.0442
 5020SOL    HW219852   1.077   2.271   5.675  1.2575  0.0914 -1.6907
 5020SOL    HW319853   1.127   2.408   5.717  1.2089  0.4298 -2.7138
 5020SOL    MW419854   1.139   2.322   5.709 -0.0776  0.2295  0.2368
 5021SOL     OW19855   3.450   5.326   5.108 -1.0310 -0.7721  0.0513
 5021SOL    HW219856   3.529   5.291   5.151 -1.0725 -0.3003  0.5230
 5021SOL    HW319857   3.425   5.257   5.046 -1.8222 -2.1498  1.7990
 5021SOL    MW419858   3.457   5.312   5.106 -0.2022  0.0347  0.3587
 5022SOL     OW19859   1.679   0.793   5.138 -0.2755 -0.2631  0.4343
 5022SOL    HW219860   1.719   0.742   5.068  0.3247 -0.8724  1.2068
 5022SOL    HW319861   1.724   0.765   5.218  0.3486  1.7287  0.8496
 5022SOL    MW419862   1.690   0.783   5.139 -0.0607  0.0574 -0.5153
 5023SOL     OW19863   1.104   5.161   0.462 -0.2143 -0.2610  0.4852
 5023SOL    HW219864   1.133   5.210   0.385 -1.0724  0.7805  0.7861
 5023SOL    HW319865   1.059   5.085   0.426 -1.6279  0.8010 -0.1252
 5023SOL    MW419866   1.102   5.158   0.447  0.0511 -0.2848 -0.3487
 5024SOL     OW19867   4.294   1.612   3.638 -0.1471  0.6156  0.4078
 5024SOL    HW219868   4.282   1.693   3.688 -1.2116  0.5597  0.2642
 5024SOL    HW319869   4.275   1.636   3.548  0.7754  0.4802  0.1669
 5024SOL    MW419870   4.290   1.626   3.633  0.3429  0.1452 -0.3854
 5025SOL     OW19871   6.314   4.620   4.811  0.0507 -0.6336 -0.2535
 5025SOL    HW219872   6.314   4.575   4.895  0.5711 -0.6342 -0.2525
 5025SOL    HW319873   6.334   4.711   4.833  0.9303 -0.7753 -0.4484
 5025SOL    MW419874   6.316   4.626   4.825  0.4484  0.3163  0.7259
 5026SOL     OW19875   2.532   5.475   0.722  0.0596  0.2568 -0.2229
 5026SOL    HW219876   2.567   5.515   0.801  0.8117  1.1730 -1.0016
 5026SOL    HW319877   2.608   5.432   0.682 -0.2515  0.0554 -0.5967
 5026SOL    MW419878   2.547   5.474   0.727  0.6344 -0.1967 -0.5108
 5027SOL     OW19879   1.302   3.226   2.635 -0.0755  0.1355 -0.1813
 5027SOL    HW219880   1.313   3.267   2.550  1.7394  0.3622  0.1230
 5027SOL    HW319881   1.389   3.227   2.674 -0.8583  0.0497  1.6978
 5027SOL    MW419882   1.315   3.231   2.629  0.0337 -0.1496 -0.6536
 5028SOL     OW19883   5.361   1.411   5.861 -0.1259 -0.5084  0.3307
 5028SOL    HW219884   5.381   1.319   5.848  0.6872 -0.4011  0.7823
 5028SOL    HW319885   5.333   1.442   5.775  0.9201 -0.8480 -0.1415
 5028SOL    MW419886   5.360   1.403   5.848  0.2570  0.4726  0.2642
 5029SOL     OW19887   0.483   0.711   6.348  0.0710  0.4449  0.0675
 5029SOL    HW219888   0.502   0.725   6.441 -0.5117  1.0977  0.0885
 5029SOL    HW319889   0.389   0.726   6.339  0.0318 -0.0808 -0.5479
 5029SOL    MW419890   0.473   0.715   6.359 -0.6214  0.4283 -0.5479
 5030SOL     OW19891   2.426   3.777   5.357 -0.4054  0.2616  0.7573
 5030SOL    HW219892   2.455   3.799   5.269  2.0883  0.4575  1.5462
 5030SOL    HW319893   2.475   3.697   5.379  0.4889  1.2662  2.6256
 5030SOL    MW419894   2.436   3.769   5.348  0.0811 -0.1839 -0.1295
 5031SOL     OW19895   6.357   0.507   6.297 -0.2728  0.5548  0.0447
 5031SOL    HW219896   6.284   0.563   6.325 -0.6937  0.8673 -1.5891
 5031SOL    HW319897   6.363   0.521   6.203  1.0690 -0.4780 -0.0496
 5031SOL    MW419898   6.348   0.516   6.288 -0.6853  0.3159 -0.5341
 5032SOL     OW19899   5.684   2.410   4.309  0.1892  0.0577 -0.8276
 5032SOL    HW219900   5.717   2.493   4.275  2.1884 -0.9473 -1.4696
 5032SOL    HW319901   5.699   2.348   4.238 -2.1719 -0.7164 -0.7294
 5032SOL    MW419902   5.690   2.413   4.295  0.3472  0.2562  0.2224
 5033SOL     OW19903   2.116   2.267   1.460  0.2866 -0.4961 -0.0975
 5033SOL    HW219904   2.116   2.191   1.402  1.0318  0.3514 -1.2611
 5033SOL    HW319905   2.118   2.342   1.401 -2.2686  0.5112  0.9674
 5033SOL    MW419906   2.116   2.267   1.445  0.6275 -0.7342 -0.6170
 5034SOL     OW19907   4.397   5.923   2.348 -0.6489 -0.4253 -0.1548
 5034SOL    HW219908   4.321   5.948   2.401 -0.6221 -1.5656  0.4452
 5034SOL    HW319909   4.360   5.869   2.278 -0.4717 -0.4205 -0.2518
 5034SOL    MW419910   4.382   5.919   2.346  0.3636 -0.4086  0.0550
 5035SOL     OW19911   3.410   5.437   1.964  0.4430 -0.1561 -0.0498
 5035SOL    HW219912   3.334   5.492   1.950 -0.4310 -0.7243  2.0260
 5035SOL    HW319913   3.374   5.351   1.986  1.7080 -0.7048  0.0138
 5035SOL    MW419914   3.395   5.433   1.965  0.1449 -0.1320  0.2395
 5036SOL     OW19915   1.189   2.515   0.334 -0.1989  0.4443  0.3770
 5036SOL    HW219916   1.255   2.457   0.371  0.1413 -0.3331 -1.3800
 5036SOL    HW319917   1.195   2.502   0.240 -3.3998 -0.2804  0.1619
 5036SOL    MW419918   1.198   2.506   0.327  0.3846 -0.4307  0.7851
 5037SOL     OW19919   3.978   5.446   5.899 -0.4693  0.2187 -0.5704
 5037SOL    HW219920   4.019   5.478   5.818  1.1613  0.3622  0.2685
 5037SOL    HW319921   3.999   5.353   5.901 -2.3860 -0.2760 -1.3585
 5037SOL    MW419922   3.986   5.438   5.888 -0.4378  0.3726  1.0627
 5038SOL     OW19923   3.570   1.109   4.209 -0.4172 -0.3047 -0.8763
 5038SOL    HW219924   3.583   1.132   4.117 -0.1142  0.4840 -0.6469
 5038SOL    HW319925   3.540   1.190   4.250  2.9853  0.4542  0.4460
 5038SOL    MW419926   3.568   1.123   4.202 -0.8876 -0.2037  0.1870
 5039SOL     OW19927   1.393   1.178   0.595 -0.4178  0.1015 -0.6451
 5039SOL    HW219928   1.377   1.209   0.684 -0.9323 -0.9747 -0.3500
 5039SOL    HW319929   1.437   1.251   0.552  0.4153  0.4128  0.6739
 5039SOL    MW419930   1.397   1.191   0.601  0.0451 -0.2181 -0.5805
 5040SOL     OW19931   0.124   3.013   1.506 -0.1561  0.1789 -0.1556
 5040SOL    HW219932   0.161   2.941   1.556 -0.3098  0.6118  0.6069
 5040SOL    HW319933   0.075   3.064   1.571 -0.7417  0.5016 -0.8384
 5040SOL    MW419934   0.122   3.010   1.522  0.3300 -0.2073  0.5882
 5041SOL     OW19935   4.839   1.454   0.642 -0.6052  0.7327  0.3342
 5041SOL    HW219936   4.856   1.423   0.731 -2.0081 -1.9833 -0.2504
 5041SOL    HW319937   4.744   1.462   0.636 -0.7081 -1.0323 -1.4395
 5041SOL    MW419938   4.829   1.451   0.653  0.0928  0.5818  0.0547
 5042SOL     OW19939   6.368   3.225   6.140  0.7072  0.4044 -0.5266
 5042SOL    HW219940   6.351   3.249   6.048  3.9317  0.7167 -1.1711
 5042SOL    HW319941   6.457   3.257   6.156  0.8148 -1.0646  2.2468
 5042SOL    MW419942   6.377   3.233   6.130  0.3731 -0.3757 -0.3692
 5043SOL     OW19943   3.761   3.758   4.846 -0.1427  0.7241  0.2409
 5043SOL    HW219944   3.679   3.749   4.895 -0.5417  1.0974 -0.3393
 5043SOL    HW319945   3.742   3.721   4.760  0.8043 -0.6917  0.6029
 5043SOL    MW419946   3.748   3.752   4.841  0.5059 -0.2741 -0.0990
 5044SOL     OW19947   6.347   1.042   3.123  0.2135  0.0330 -0.4006
 5044SOL    HW219948   6.277   1.094   3.083 -0.6379 -0.5758  0.2694
 5044SOL    HW319949   6.320   0.951   3.111 -0.3887 -0.1644  2.0429
 5044SOL    MW419950   6.334   1.037   3.116 -0.1045 -0.0012  0.0238
 5045SOL     OW19951   1.989   1.347   3.985 -0.2875 -0.2376 -0.2940
 5045SOL    HW219952   2.060   1.319   3.926 -1.2728 -1.4996 -0.9381
 5045SOL    HW319953   1.910   1.308   3.947 -0.9014 -1.6705  2.2031
 5045SOL    MW419954   1.988   1.338   3.972 -0.5821 -0.1813 -0.0293
 5046SOL     OW19955   5.090   2.748   2.388  0.2206  0.2129 -0.7032
 5046SOL    HW219956   5.160   2.731   2.325  1.4159  1.1667  0.3113
 5046SOL    HW319957   5.035   2.669   2.385  1.9175 -1.0212 -0.8028
 5046SOL    MW419958   5.092   2.735   2.379  0.0497  0.3469  0.4221
 5047SOL     OW19959   4.919   2.781   4.821 -0.2594 -0.1049 -0.0580
 5047SOL    HW219960   4.994   2.826   4.860  0.4569 -1.0709 -0.2815
 5047SOL    HW319961   4.945   2.689   4.817 -1.5228 -0.4940  0.0082
 5047SOL    MW419962   4.932   2.775   4.825 -0.1628 -0.0865 -0.3969
 5048SOL     OW19963   2.520   0.731   2.919  0.4194  0.0965 -0.3350
 5048SOL    HW219964   2.479   0.809   2.957 -0.9922 -0.7041 -0.1297
 5048SOL    HW319965   2.501   0.736   2.826 -0.7831 -0.6128 -0.1468
 5048SOL    MW419966   2.512   0.742   2.912 -0.0505  0.4977  0.2318
 5049SOL     OW19967   3.931   1.311   2.939  0.0662  0.0552  0.0081
 5049SOL    HW219968   3.861   1.250   2.914  0.8224 -1.0596  0.5120
 5049SOL    HW319969   3.921   1.321   3.034  0.7231 -0.2961  0.1167
 5049SOL    MW419970   3.920   1.304   2.948 -0.3305 -0.7724  0.3822
 5050SOL     OW19971   6.082   0.466   1.828  0.5449 -0.6185 -0.3274
 5050SOL    HW219972   6.011   0.453   1.765  0.1484  0.0162 -0.0190
 5050SOL    HW319973   6.157   0.421   1.789  0.2631 -0.3747 -1.1708
 5050SOL    MW419974   6.082   0.458   1.815  0.2193 -0.2121 -0.0091
 5051SOL     OW19975   3.260   4.105   4.854 -0.3258 -0.2544  0.2379
 5051SOL    HW219976   3.254   4.162   4.778 -0.5461  0.7976  1.0160
 5051SOL    HW319977   3.341   4.132   4.897  1.5030 -2.9564 -1.2395
 5051SOL    MW419978   3.270   4.116   4.850 -0.5651  0.3398 -0.4063
 5052SOL     OW19979   6.396   3.822   1.497  0.8666 -0.0182  0.4466
 5052SOL    HW219980   6.346   3.850   1.420 -1.0440 -1.4654  1.0913
 5052SOL    HW319981   6.377   3.888   1.563 -0.2835 -0.5859  0.7018
 5052SOL    MW419982   6.387   3.834   1.496  0.0795  0.0640  0.2726
 5053SOL     OW19983   2.272   2.439   1.836 -0.1905  0.5106  0.2544
 5053SOL    HW219984   2.198   2.378   1.837  0.5321 -0.3955 -0.2778
 5053SOL    HW319985   2.315   2.424   1.751 -0.4404  2.3162 -0.2400
 5053SOL    MW419986   2.268   2.429   1.825  0.5844 -0.2246  0.3298
 5054SOL     OW19987   4.704   1.802   3.465  0.5033 -0.0076 -0.3660
 5054SOL    HW219988   4.748   1.751   3.397  0.1247 -1.3492  0.3563
 5054SOL    HW319989   4.647   1.861   3.417 -1.1732 -2.1935 -1.2666
 5054SOL    MW419990   4.702   1.803   3.450 -0.4547  0.1693  0.0294
 5055SOL     OW19991   2.501   6.157   2.251 -0.5636 -0.0269 -0.2648
 5055SOL    HW219992   2.458   6.072   2.249  2.2846 -1.6122  0.6942
 5055SOL    HW319993   2.561   6.156   2.175  1.1235  0.1192  1.0036
 5055SOL    MW419994   2.504   6.146   2.240 -0.4074 -0.0841  0.3435
 5056SOL     OW19995   0.560   1.708   3.865  0.5112 -0.5821 -0.3725
 5056SOL    HW219996   0.649   1.743   3.857  0.3153  0.5672  1.7091
 5056SOL    HW319997   0.566   1.641   3.933 -0.4585  0.6258  0.9580
 5056SOL    MW419998   0.573   1.704   3.873 -0.4281 -0.1400 -0.7148
 5057SOL     OW19999   3.518   1.127   4.593  0.1888 -0.1820  0.5842
 5057SOL    HW220000   3.521   1.093   4.683  1.5228 -1.3738  0.1194
 5057SOL    HW320001   3.609   1.122   4.562 -0.1155  0.9622 -0.5714
 5057SOL    MW420002   3.530   1.122   4.601  0.2831 -0.1339  0.8559
 5058SOL     OW20003   5.384   0.268   0.767 -0.1476  0.5171 -0.1479
 5058SOL    HW220004   5.316   0.228   0.821  0.0270  0.0342 -0.2835
 5058SOL    HW320005   5.359   0.360   0.762  0.1617  0.6993  1.2609
 5058SOL    MW420006   5.372   0.275   0.773 -0.6868  0.3017 -0.3920
 5059SOL     OW20007   3.909   1.960   2.685 -0.0599 -0.5080  0.1456
 5059SOL    HW220008   3.885   1.891   2.748  1.4231 -0.9004  0.3171
 5059SOL    HW320009   3.923   1.913   2.603  0.9000 -0.4153  0.2484
 5059SOL    MW420010   3.908   1.945   2.683 -0.3698  0.3059 -0.5672
 5060SOL     OW20011   4.919   2.346   4.493  0.4826 -0.0948 -0.6249
 5060SOL    HW220012   4.850   2.375   4.552  0.4096 -0.8791 -0.3211
 5060SOL    HW320013   4.992   2.322   4.551  0.8718  0.3460 -0.9204
 5060SOL    MW420014   4.920   2.347   4.508  0.1062 -0.1079  0.1504
 5061SOL     OW20015   4.618   1.669   5.728 -0.0535  0.5465  0.4481
 5061SOL    HW220016   4.686   1.724   5.766 -0.2254 -0.9816  3.2822
 5061SOL    HW320017   4.542   1.682   5.785 -0.4103 -1.7482  0.6069
 5061SOL    MW420018   4.617   1.678   5.740  0.6932  0.5737 -0.1168
 5062SOL     OW20019   1.982   3.418   2.853  0.6025 -0.2304  0.0310
 5062SOL    HW220020   1.925   3.476   2.901  1.0514 -0.3168  0.6784
 5062SOL    HW320021   2.009   3.468   2.776  0.3563  0.1243  0.1783
 5062SOL    MW420022   1.978   3.432   2.849  0.0669  0.5213  0.0059
 5063SOL     OW20023   0.430   2.787   5.419 -0.4149  0.1450 -0.1004
 5063SOL    HW220024   0.468   2.800   5.505  2.3376 -0.6528 -1.0891
 5063SOL    HW320025   0.421   2.692   5.410  0.5149  0.1184 -1.0888
 5063SOL    MW420026   0.434   2.776   5.429  0.0833 -0.5018 -0.3484
 5064SOL     OW20027   5.322   4.587   2.235 -0.2399  0.4186 -0.0687
 5064SOL    HW220028   5.347   4.539   2.313 -0.1849  0.3008 -0.1577
 5064SOL    HW320029   5.405   4.613   2.195 -0.2253 -0.7587 -0.8495
 5064SOL    MW420030   5.336   4.584   2.240  0.0282 -0.3267  0.1257
 5065SOL     OW20031   3.236   3.827   5.322 -0.9449  0.3582  0.1422
 5065SOL    HW220032   3.196   3.819   5.235 -0.0452  1.0618 -0.3548
 5065SOL    HW320033   3.321   3.785   5.313 -0.6360  0.8819  0.5365
 5065SOL    MW420034   3.242   3.820   5.309  0.4050 -0.2421 -0.3834
 5066SOL     OW20035   3.118   1.904   0.024 -0.4753 -0.1451  0.6584
 5066SOL    HW220036   3.052   1.870  -0.036  0.9359  0.0795 -1.0761
 5066SOL    HW320037   3.151   1.983  -0.017  0.5672  0.0053  1.7041
 5066SOL    MW420038   3.114   1.910   0.011 -0.4376 -0.2411  0.6914
 5067SOL     OW20039   1.523   2.847   0.123  0.2909 -0.4592  0.1558
 5067SOL    HW220040   1.469   2.892   0.058  0.6182  1.5787  1.2376
 5067SOL    HW320041   1.481   2.866   0.207  1.0644 -1.2774  0.7454
 5067SOL    MW420042   1.510   2.855   0.125  0.8609  0.0430  0.0170
 5068SOL     OW20043   4.460   3.506   1.188  0.1861  0.7633 -0.0515
 5068SOL    HW220044   4.510   3.431   1.221 -0.4130  0.6233  0.5638
 5068SOL    HW320045   4.486   3.513   1.096  0.4722 -0.0189 -0.0430
 5068SOL    MW420046   4.470   3.497   1.180  0.4881 -0.9553 -0.2204
 5069SOL     OW20047   5.430   3.740   1.755 -0.3707 -0.4850 -0.5068
 5069SOL    HW220048   5.346   3.743   1.708 -1.3942 -0.1962  1.2544
 5069SOL    HW320049   5.473   3.822   1.733 -1.2917  0.1063 -0.1721
 5069SOL    MW420050   5.425   3.751   1.746 -0.2491  0.0890  0.4487
 5070SOL     OW20051   1.358   2.561   1.035  0.2479 -0.2364  0.2258
 5070SOL    HW220052   1.428   2.584   0.975 -0.8389 -1.3084 -1.5595
 5070SOL    HW320053   1.384   2.598   1.119  2.8174 -0.4105 -0.4212
 5070SOL    MW420054   1.370   2.569   1.038 -0.0716  0.5474 -0.0911
 5071SOL     OW20055   1.742   0.459   2.525  0.1799 -0.1194  0.5910
 5071SOL    HW220056   1.813   0.479   2.464 -1.2942 -1.4345 -1.7197
 5071SOL    HW320057   1.702   0.543   2.545  1.2636  0.4315  0.5008
 5071SOL    MW420058   1.746   0.473   2.520 -0.6163  0.0933  0.0156
 5072SOL     OW20059   1.335   2.185   3.845  0.0188 -0.2093 -0.0308
 5072SOL    HW220060   1.353   2.151   3.757  0.5536  0.5010 -0.2091
 5072SOL    HW320061   1.422   2.201   3.882 -0.2055  1.4009 -0.1487
 5072SOL    MW420062   1.349   2.183   3.838  0.1881  0.0568 -0.0950
 5073SOL     OW20063   0.223   5.778   1.038  0.3171  0.2911  0.1004
 5073SOL    HW220064   0.302   5.725   1.032 -0.4550 -0.7561 -1.3708
 5073SOL    HW320065   0.246   5.860   0.993  1.0178  0.6257  1.0252
 5073SOL    MW420066   0.237   5.782   1.032  0.2976  0.5442  0.1708
 5074SOL     OW20067   1.827   2.370   0.253 -0.1060  0.3383 -0.2680
 5074SOL    HW220068   1.921   2.357   0.262 -0.2597 -1.8787 -1.1995
 5074SOL    HW320069   1.817   2.413   0.168  0.1312  2.3078  0.6572
 5074SOL    MW420070   1.838   2.374   0.243 -0.1951  0.0472 -0.4724
 5075SOL     OW20071   2.060   0.020   0.010 -0.0399  0.0735 -0.6394
 5075SOL    HW220072   2.101  -0.065   0.026  0.1286  0.3948  0.8091
 5075SOL    HW320073   2.124   0.068  -0.043  0.6838 -0.0657  0.0894
 5075SOL    MW420074   2.074   0.015   0.005 -0.7297  0.4751 -0.1290
 5076SOL     OW20075   2.894   3.563   1.878  0.3505  0.2940  0.0976
 5076SOL    HW220076   2.925   3.622   1.809  0.2116  0.3453  0.0800
 5076SOL    HW320077   2.857   3.621   1.944  0.8683  0.2751  0.4120
 5076SOL    MW420078   2.893   3.578   1.878 -0.4264 -0.3419  0.6776
 5077SOL     OW20079   5.465   3.035   2.801 -0.1328  0.5020 -0.3678
 5077SOL    HW220080   5.397   3.020   2.735  0.6154 -1.1997 -0.7889
 5077SOL    HW320081   5.541   2.987   2.769  0.2183 -0.5037  1.7795
 5077SOL    MW420082   5.466   3.027   2.788  0.1957  0.6132 -0.1351
 5078SOL     OW20083   6.011   4.948   4.789  0.1762 -0.6155  0.5540
 5078SOL    HW220084   6.061   4.977   4.713  0.4665 -2.7999 -0.1529
 5078SOL    HW320085   5.958   5.024   4.813  0.4032  0.2788 -1.5436
 5078SOL    MW420086   6.011   4.962   4.782 -0.2971  0.2964 -0.1482
 5079SOL     OW20087   4.154   3.565   0.222  0.4961  0.1502 -0.3657
 5079SOL    HW220088   4.144   3.477   0.260  1.4646 -0.0029 -0.4389
 5079SOL    HW320089   4.066   3.603   0.226  0.3614 -0.2367  1.1309
 5079SOL    MW420090   4.141   3.558   0.228  0.0488  0.0138  0.0702
 5080SOL     OW20091   1.162   2.003   3.993 -0.4308  0.0844  0.1026
 5080SOL    HW220092   1.084   2.054   3.971  0.3066  1.1325 -0.1587
 5080SOL    HW320093   1.234   2.051   3.952  0.2930 -1.1690 -0.1217
 5080SOL    MW420094   1.161   2.016   3.985  0.5351 -0.1632  0.4017
 5081SOL     OW20095   4.702   2.539   4.622 -0.7292  0.0974  0.4252
 5081SOL    HW220096   4.643   2.545   4.697  0.2636 -1.8575  1.4237
 5081SOL    HW320097   4.661   2.594   4.555 -2.1922  1.0344  2.0165
 5081SOL    MW420098   4.689   2.547   4.623  0.2820 -0.2291 -0.7775
 5082SOL     OW20099   0.155   5.907   4.690  0.4368  0.1517 -0.5275
 5082SOL    HW220100   0.205   5.838   4.734 -1.4323 -1.8155 -1.3171
 5082SOL    HW320101   0.078   5.920   4.745  0.6727  1.5236 -0.4875
 5082SOL    MW420102   0.151   5.900   4.703 -0.0552 -0.2113  0.0877
 5083SOL     OW20103   6.167   0.385   0.922 -0.1022  0.1289  0.2115
 5083SOL    HW220104   6.113   0.413   0.996 -1.1342 -0.4522 -0.3022
 5083SOL    HW320105   6.254   0.420   0.941 -0.8012  1.6837  0.7292
 5083SOL    MW420106   6.172   0.393   0.934  0.8042  0.0603 -0.6568
 5084SOL     OW20107   4.001   4.767   5.950 -0.3964 -0.5850  0.4888
 5084SOL    HW220108   3.927   4.785   5.893  0.1131 -2.7158 -0.9782
 5084SOL    HW320109   4.071   4.824   5.918 -0.7840 -0.1010  0.4983
 5084SOL    MW420110   4.001   4.777   5.939 -0.3861 -0.2434 -0.4768
 5085SOL     OW20111   1.834   2.898   5.544  0.2869  0.5210 -0.0345
 5085SOL    HW220112   1.847   2.804   5.530  1.5382  0.5670  0.6579
 5085SOL    HW320113   1.896   2.940   5.484  0.3621  0.8733  0.2857
 5085SOL    MW420114   1.844   2.891   5.534  0.0994 -0.0399  0.1436
 5086SOL     OW20115   0.814   6.105   0.621 -0.0698 -0.0481 -0.6413
 5086SOL    HW220116   0.764   6.030   0.654  1.0008 -0.9197 -0.9241
 5086SOL    HW320117   0.805   6.100   0.526  0.8505 -0.4316 -0.7115
 5086SOL    MW420118   0.806   6.094   0.613 -0.4273  0.4455 -0.3585
 5087SOL     OW20119   1.338   5.721   6.348 -0.1484  0.5660  0.2017
 5087SOL    HW220120   1.251   5.682   6.343  0.2405 -0.1859 -0.9469
 5087SOL    HW320121   1.332   5.783   6.421 -1.7213  0.7272 -0.0328
 5087SOL    MW420122   1.326   5.724   6.357 -0.7802  0.0892  0.4582
 5088SOL     OW20123   5.165   1.367   1.679  0.3974  0.0933 -0.3592
 5088SOL    HW220124   5.149   1.431   1.749 -0.0542  1.7883 -1.9552
 5088SOL    HW320125   5.078   1.340   1.651  0.5810 -1.1305  0.1595
 5088SOL    MW420126   5.151   1.372   1.685 -0.2830  0.4531  0.4031
 5089SOL     OW20127   5.133   1.825   2.562 -0.1661 -0.1167 -0.5375
 5089SOL    HW220128   5.078   1.753   2.592 -0.9550  1.1979  1.3580
 5089SOL    HW320129   5.077   1.875   2.503 -0.7645  0.7601  0.7445
 5089SOL    MW420130   5.119   1.822   2.558 -0.1608  0.3942  0.3524
 5090SOL     OW20131   0.751   0.566   5.351 -0.7334 -0.3877  0.7579
 5090SOL    HW220132   0.678   0.604   5.400 -1.0685  0.4694 -0.3624
 5090SOL    HW320133   0.818   0.634   5.354 -1.6606  0.7783 -2.0205
 5090SOL    MW420134   0.750   0.580   5.358  0.0141 -0.6466 -0.2674
 5091SOL     OW20135   5.836   4.779   1.492 -0.4551  0.1330 -0.2494
 5091SOL    HW220136   5.847   4.791   1.398 -0.3608 -1.6815 -0.5164
 5091SOL    HW320137   5.742   4.792   1.507 -0.5040  0.2445 -0.6315
 5091SOL    MW420138   5.825   4.782   1.481  0.2561  0.3803 -0.4668
 5092SOL     OW20139   0.704   4.743   0.733 -0.1377  0.0154  0.6654
 5092SOL    HW220140   0.628   4.737   0.791 -1.3461 -0.9188 -0.9430
 5092SOL    HW320141   0.740   4.655   0.730  0.3419  0.2093  0.5235
 5092SOL    MW420142   0.699   4.731   0.740  0.4934 -0.9193  0.2851
 5093SOL     OW20143   5.711   0.335   2.703  0.5792 -0.3899 -0.3449
 5093SOL    HW220144   5.629   0.384   2.714  1.2300  0.5317  0.5989
 5093SOL    HW320145   5.756   0.378   2.631  2.2954  2.1653  2.0353
 5093SOL    MW420146   5.706   0.347   2.695 -0.1739 -0.0899  0.1023
 5094SOL     OW20147   1.226   6.074   5.969  0.0580  0.0125  0.0533
 5094SOL    HW220148   1.138   6.090   5.936 -0.2198 -0.1420  0.7216
 5094SOL    HW320149   1.220   6.085   6.063  0.8453  0.3956  0.0656
 5094SOL    MW420150   1.214   6.077   5.977  0.3028 -0.3340 -0.0466
 5095SOL     OW20151   2.031   4.956   3.110 -0.5658 -0.0742 -0.3050
 5095SOL    HW220152   2.112   5.006   3.099 -2.2700  2.4908 -2.2876
 5095SOL    HW320153   1.991   4.993   3.189 -0.8556  0.3088 -0.6238
 5095SOL    MW420154   2.036   4.968   3.119  0.3055  0.1104  0.5346
 5096SOL     OW20155   3.180   2.063   6.046 -0.0956 -0.6203 -0.1094
 5096SOL    HW220156   3.187   1.967   6.042 -0.1194 -0.6219 -0.1150
 5096SOL    HW320157   3.086   2.080   6.042 -0.1388 -0.6269  0.7360
 5096SOL    MW420158   3.168   2.052   6.045 -0.0119 -0.1027 -0.8094
 5097SOL     OW20159   3.108   4.804   5.279  0.3761  0.3439  0.0873
 5097SOL    HW220160   3.082   4.895   5.294  1.1385  1.0696 -2.4700
 5097SOL    HW320161   3.056   4.776   5.203  2.7842 -0.0612 -1.5209
 5097SOL    MW420162   3.097   4.812   5.271 -0.0876 -0.1544 -0.2186
 5098SOL     OW20163   1.351   3.111   3.998 -0.1863  0.0386  0.3098
 5098SOL    HW220164   1.405   3.033   4.004  1.3169  0.9523 -0.7617
 5098SOL    HW320165   1.347   3.145   4.087  0.0306 -0.6781  0.5968
 5098SOL    MW420166   1.357   3.105   4.011  0.2547  0.3482  0.8158
 5099SOL     OW20167   5.517   2.476   4.548  0.0749 -0.1696 -0.1486
 5099SOL    HW220168   5.570   2.535   4.601 -0.2464  0.1602 -0.1935
 5099SOL    HW320169   5.580   2.427   4.496  0.3170  0.4729 -0.4647
 5099SOL    MW420170   5.532   2.477   4.548 -0.3867  0.2858  0.9205
 5100SOL     OW20171   1.071   4.281   6.161  0.1628  0.7504  0.0131
 5100SOL    HW220172   1.052   4.203   6.109 -0.6422  2.1023 -1.8355
 5100SOL    HW320173   1.026   4.266   6.244  0.7530 -1.1063  0.0404
 5100SOL    MW420174   1.063   4.269   6.165 -0.0908 -0.1300  0.7066
 5101SOL     OW20175   4.187   4.441   3.971  0.6259  0.0199  0.2286
 5101SOL    HW220176   4.256   4.429   3.907  0.7897 -1.1175  0.5903
 5101SOL    HW320177   4.230   4.480   4.047  0.9371 -0.8648  0.5260
 5101SOL    MW420178   4.201   4.445   3.973  0.2644 -0.0951  0.3543
 5102SOL     OW20179   2.124   1.349   6.269 -0.6581  0.0142  0.1800
 5102SOL    HW220180   2.037   1.357   6.230 -0.8785  0.1027  0.6851
 5102SOL    HW320181   2.111   1.295   6.347 -0.6294  1.7112  1.3927
 5102SOL    MW420182   2.111   1.343   6.274 -0.2795 -0.7025  1.1292
 5103SOL     OW20183   4.157   1.148   1.760 -0.0908  0.0671  0.2822
 5103SOL    HW220184   4.138   1.057   1.783 -2.0506  0.2317 -0.5483
 5103SOL    HW320185   4.102   1.200   1.818  1.1192  0.7572  0.8426
 5103SOL    MW420186   4.148   1.142   1.771  0.1924 -0.2183 -0.0491
 5104SOL     OW20187   4.367   0.751   0.732  0.2171 -0.3083 -0.7242
 5104SOL    HW220188   4.426   0.765   0.805  0.4457  1.8805 -1.2724
 5104SOL    HW320189   4.422   0.715   0.663  0.3278 -0.8192 -0.3773
 5104SOL    MW420190   4.382   0.748   0.732 -0.2431 -0.1994  0.4497
 5105SOL     OW20191   5.768   6.234   2.431  0.1205  0.2193  0.3325
 5105SOL    HW220192   5.751   6.203   2.520  0.9933  1.4998  0.9879
 5105SOL    HW320193   5.836   6.176   2.397 -0.4992 -0.5185  0.3467
 5105SOL    MW420194   5.774   6.222   2.438  0.2243  0.1106  0.4549
 5106SOL     OW20195   4.748   5.300   2.381  0.0119 -0.0485  0.1941
 5106SOL    HW220196   4.677   5.310   2.318 -1.7249 -2.2763  1.6631
 5106SOL    HW320197   4.705   5.294   2.466  2.0915  0.1745  1.3479
 5106SOL    MW420198   4.733   5.301   2.384  0.5221  0.7396  0.4346
 5107SOL     OW20199   3.592   5.657   0.460  0.0962 -0.4550 -0.0303
 5107SOL    HW220200   3.632   5.725   0.514  0.3186 -2.0186  1.8731
 5107SOL    HW320201   3.508   5.639   0.502 -0.4450 -0.6185 -1.1420
 5107SOL    MW420202   3.586   5.663   0.472 -0.1931  0.8713 -0.1746
 5108SOL     OW20203   5.483   2.019   5.639  0.3943 -0.2078  0.2806
 5108SOL    HW220204   5.578   2.018   5.631  0.3542 -1.0988 -0.2999
 5108SOL    HW320205   5.457   2.109   5.620  0.9554 -0.4453 -1.7713
 5108SOL    MW420206   5.492   2.031   5.636  0.4295  0.3864  0.0576
 5109SOL     OW20207   1.996   0.708   1.192  0.4819  0.5978 -0.9654
 5109SOL    HW220208   1.943   0.787   1.207  0.7037  0.5572  0.1677
 5109SOL    HW320209   2.052   0.730   1.118 -0.8720  0.7591 -1.9737
 5109SOL    MW420210   1.996   0.722   1.184  0.6983 -0.0272 -0.0288
 5110SOL     OW20211   0.239   5.950   0.671  0.1132 -0.4317 -0.2078
 5110SOL    HW220212   0.176   5.902   0.724 -1.3152  3.1184  1.6462
 5110SOL    HW320213   0.301   5.987   0.734 -0.0551  1.7480 -1.2354
 5110SOL    MW420214   0.239   5.949   0.686  0.3918 -0.0086  0.4738
 5111SOL     OW20215   1.762   4.537   0.083 -0.0354 -0.2956  0.4047
 5111SOL    HW220216   1.761   4.604   0.015  1.9021 -0.5998  0.0069
 5111SOL    HW320217   1.807   4.463   0.042  0.2318 -0.8564  1.6845
 5111SOL    MW420218   1.768   4.536   0.068 -0.2686 -0.5822  0.2262
 5112SOL     OW20219   1.720   2.024   1.512  0.0105 -0.0245  0.0788
 5112SOL    HW220220   1.693   2.095   1.570 -0.3843 -0.5823  0.5937
 5112SOL    HW320221   1.814   2.015   1.527 -0.0394  0.0252  0.4279
 5112SOL    MW420222   1.729   2.032   1.522  0.2301 -0.0935  0.3786
 5113SOL     OW20223   1.818   2.665   4.230  0.1838 -0.1079 -0.1737
 5113SOL    HW220224   1.739   2.658   4.283 -1.6179 -1.4540 -2.8452
 5113SOL    HW320225   1.881   2.607   4.274 -0.4835  0.4779  1.6339
 5113SOL    MW420226   1.816   2.656   4.243 -0.9124 -0.3537 -0.3225
 5114SOL     OW20227   0.344   0.002   1.221 -0.5436  0.4328 -0.2582
 5114SOL    HW220228   0.433  -0.004   1.186 -0.8676 -0.7993 -0.9597
 5114SOL    HW320229   0.355   0.039   1.308  0.4951  1.7537 -0.9086
 5114SOL    MW420230   0.357   0.006   1.227 -0.2750 -0.1580  0.3981
 5115SOL     OW20231   5.246   1.587   2.419  0.4154 -0.3301  0.0055
 5115SOL    HW220232   5.235   1.656   2.484  1.4771  0.1907 -0.3373
 5115SOL    HW320233   5.168   1.591   2.364  0.6032  0.8219 -0.1997
 5115SOL    MW420234   5.234   1.597   2.420 -0.5653 -0.6728 -0.3103
 5116SOL     OW20235   0.513   3.958   4.358 -0.0038 -0.0542 -0.4706
 5116SOL    HW220236   0.459   3.990   4.286 -2.2326 -0.5218  0.9058
 5116SOL    HW320237   0.450   3.928   4.424  1.9495 -0.0161  1.5143
 5116SOL    MW420238   0.498   3.958   4.357  0.1322  0.0555  0.2367
 5117SOL     OW20239   5.875   5.290   0.848 -0.1488 -0.5716  0.1917
 5117SOL    HW220240   5.856   5.328   0.762 -0.0638 -2.2800 -0.6227
 5117SOL    HW320241   5.816   5.215   0.854  0.8960 -1.3563  0.9838
 5117SOL    MW420242   5.864   5.285   0.838 -0.6700  0.3214  0.1124
 5118SOL     OW20243   6.407   3.908   4.088  0.3903  0.5235 -0.3132
 5118SOL    HW220244   6.420   4.002   4.104  2.6439  0.3426 -0.7227
 5118SOL    HW320245   6.494   3.870   4.098 -0.5496 -1.6052  0.1948
 5118SOL    MW420246   6.420   3.916   4.091  0.8143 -0.0850  0.2751
 5119SOL     OW20247   2.094   0.068   4.157  0.7274 -0.1079 -0.0369
 5119SOL    HW220248   2.058  -0.003   4.104  0.7319  0.4239 -0.7765
 5119SOL    HW320249   2.135   0.024   4.231 -1.7112 -0.7254  1.0366
 5119SOL    MW420250   2.095   0.053   4.160  0.1516 -0.2701  0.4314
 5120SOL     OW20251   3.418   5.321   3.188  0.2742 -0.0428 -0.0588
 5120SOL    HW220252   3.472   5.396   3.164 -0.2229  0.7758  1.2930
 5120SOL    HW320253   3.330   5.356   3.197  0.0013 -0.8205  0.4137
 5120SOL    MW420254   3.413   5.335   3.186  0.5321 -0.0184 -0.1060
 5121SOL     OW20255   5.758   4.015   0.606  0.2168  0.3197 -0.0265
 5121SOL    HW220256   5.783   3.969   0.686  1.1919 -0.2557 -0.6502
 5121SOL    HW320257   5.836   4.013   0.551 -0.6305  0.1086 -1.2683
 5121SOL    MW420258   5.771   4.008   0.610  0.4170  0.6660  0.0499
 5122SOL     OW20259   4.660   2.771   2.263  0.3516  0.0369  0.2271
 5122SOL    HW220260   4.611   2.727   2.332 -0.2791  2.3529  1.3775
 5122SOL    HW320261   4.686   2.702   2.202  0.9736 -2.1169  2.7896
 5122SOL    MW420262   4.657   2.756   2.264  0.1957  0.6557 -0.2988
 5123SOL     OW20263   0.622   4.295   6.359 -0.7731 -0.3140  0.1365
 5123SOL    HW220264   0.549   4.327   6.412 -1.8850 -3.1855  0.5376
 5123SOL    HW320265   0.583   4.278   6.272 -0.1025 -0.0246 -0.2237
 5123SOL    MW420266   0.607   4.297   6.354 -0.8470  0.2642 -0.0000
 5124SOL     OW20267   4.726   2.591   0.648 -0.2693  0.6934 -0.3540
 5124SOL    HW220268   4.732   2.553   0.736 -0.5556 -0.9825 -1.0205
 5124SOL    HW320269   4.815   2.584   0.613 -0.5621 -0.4756 -0.9013
 5124SOL    MW420270   4.738   2.585   0.655  0.3151  0.4989 -0.1457
 5125SOL     OW20271   1.457   3.494   1.239  0.0377  0.6350 -0.5905
 5125SOL    HW220272   1.411   3.465   1.319  0.5059  1.5258  0.0188
 5125SOL    HW320273   1.516   3.421   1.218 -1.0869 -0.2015 -0.9457
 5125SOL    MW420274   1.459   3.480   1.247 -0.7196 -0.4291 -0.5937
 5126SOL     OW20275   3.491   3.758   4.927  0.6135  0.3661 -0.3568
 5126SOL    HW220276   3.494   3.830   4.990  2.8384 -0.8537  1.0428
 5126SOL    HW320277   3.476   3.680   4.980  0.9503 -0.5258 -1.5226
 5126SOL    MW420278   3.489   3.758   4.942 -0.3321 -0.1911 -0.6571
 5127SOL     OW20279   6.318   5.822   2.734  0.4984 -0.3411  0.5419
 5127SOL    HW220280   6.338   5.732   2.707  2.1886  0.2471 -0.3402
 5127SOL    HW320281   6.223   5.830   2.724  0.5900 -1.3330 -1.6872
 5127SOL    MW420282   6.308   5.811   2.729 -0.1414 -0.1362 -0.0601
 5128SOL     OW20283   3.131   3.218   1.341 -0.1474 -0.9025 -0.2729
 5128SOL    HW220284   3.145   3.313   1.343 -0.8268 -0.7920 -0.7097
 5128SOL    HW320285   3.219   3.182   1.330  0.1141 -0.3204 -0.1289
 5128SOL    MW420286   3.145   3.226   1.340 -0.5948 -0.2634  0.1497
 5129SOL     OW20287   3.567   0.101   3.706 -0.4633 -0.2794 -0.1272
 5129SOL    HW220288   3.634   0.040   3.737  0.1838  0.8265  0.6880
 5129SOL    HW320289   3.616   0.169   3.660 -0.9523  0.8958  1.0477
 5129SOL    MW420290   3.582   0.102   3.704  0.6364  0.4602 -0.1262
 5130SOL     OW20291   0.814   4.937   1.507 -0.2693  0.3636  0.7794
 5130SOL    HW220292   0.860   5.005   1.457  0.5573 -0.5527  0.2790
 5130SOL    HW320293   0.833   4.959   1.598  1.9968 -0.5060  0.5870
 5130SOL    MW420294   0.823   4.949   1.512  0.1853  0.3051 -0.2788
 5131SOL     OW20295   6.169   4.704   0.796  0.2802  0.3416  0.5028
 5131SOL    HW220296   6.110   4.757   0.742 -0.7164  0.6662  1.8584
 5131SOL    HW320297   6.155   4.614   0.766  1.0954  0.6635 -0.9881
 5131SOL    MW420298   6.160   4.700   0.785 -0.0986  0.0462  0.3039
 5132SOL     OW20299   0.617   5.617   3.917  0.0433  0.5215  0.2548
 5132SOL    HW220300   0.617   5.558   3.992  1.1050  1.2124  0.8140
 5132SOL    HW320301   0.524   5.632   3.898 -0.2381 -0.7406  0.5486
 5132SOL    MW420302   0.605   5.611   3.924 -0.4096 -0.5910  0.2843
 5133SOL     OW20303   5.407   3.479   5.071 -0.2707 -0.0091  0.1204
 5133SOL    HW220304   5.326   3.435   5.045 -0.6948  1.2466 -0.7703
 5133SOL    HW320305   5.473   3.410   5.068 -1.2318 -0.9772  0.5317
 5133SOL    MW420306   5.405   3.464   5.067  0.5015 -0.3786  0.3485
 5134SOL     OW20307   4.157   5.078   5.556  0.2033  0.1977  0.2936
 5134SOL    HW220308   4.164   4.990   5.518  0.6872 -0.0037  0.8263
 5134SOL    HW320309   4.223   5.129   5.509  1.7779 -0.3890  1.7170
 5134SOL    MW420310   4.167   5.073   5.545 -0.5266 -0.0764  0.0490
 5135SOL     OW20311   0.065   6.112   5.668 -0.5555  0.0623  0.6859
 5135SOL    HW220312   0.064   6.075   5.580 -1.4216  0.0118  0.7009
 5135SOL    HW320313   0.110   6.046   5.721 -0.2377 -0.0128  0.3247
 5135SOL    MW420314   0.070   6.098   5.663 -0.4459 -0.1471  0.4933
 5136SOL     OW20315   3.584   1.958   5.199  0.1199 -0.0850 -0.2270
 5136SOL    HW220316   3.661   1.902   5.209  1.4985  1.9140  0.7534
 5136SOL    HW320317   3.614   2.031   5.146 -1.3656  0.3029 -0.5854
 5136SOL    MW420318   3.598   1.960   5.193 -0.1334  0.0975 -0.3588
 5137SOL     OW20319   6.255   5.988   5.411  0.2985 -0.1433 -0.4004
 5137SOL    HW220320   6.271   6.078   5.382  1.0407 -0.1778 -0.1432
 5137SOL    HW320321   6.278   5.934   5.336 -1.3183 -0.0777 -0.9691
 5137SOL    MW420322   6.260   5.993   5.397  0.4034  0.3795 -0.7731
 5138SOL     OW20323   6.121   0.078   6.121 -0.5024  0.3287 -0.2528
 5138SOL    HW220324   6.028   0.100   6.126 -1.1687 -2.2818 -0.0293
 5138SOL    HW320325   6.145   0.098   6.030 -0.9537  2.0410 -0.0277
 5138SOL    MW420326   6.112   0.084   6.109  0.1899 -0.0961  0.0870
 5139SOL     OW20327   5.078   4.559   5.095 -0.6188  0.5205  0.2912
 5139SOL    HW220328   5.075   4.467   5.071  0.6829  0.5362 -0.0096
 5139SOL    HW320329   5.079   4.606   5.012  1.4520  0.6688  0.3430
 5139SOL    MW420330   5.077   4.553   5.081  0.2605  0.1764  0.2944
 5140SOL     OW20331   4.804   0.418   2.175  0.3930  0.5959  0.9805
 5140SOL    HW220332   4.818   0.380   2.262 -2.5314 -1.8873  0.5253
 5140SOL    HW320333   4.715   0.454   2.179  0.0446  0.0613 -1.0761
 5140SOL    MW420334   4.794   0.418   2.187  0.4725  0.1990 -0.1879
 5141SOL     OW20335   1.132   3.870   4.948 -0.5317  0.4564 -0.2014
 5141SOL    HW220336   1.067   3.939   4.961 -0.2810  0.7868 -0.6713
 5141SOL    HW320337   1.134   3.857   4.853 -1.4908 -1.0871 -0.0510
 5141SOL    MW420338   1.123   3.877   4.937  0.3240 -0.8426  0.0949
 5142SOL     OW20339   5.423   2.305   1.919 -0.4548  0.2852  0.7014
 5142SOL    HW220340   5.385   2.346   1.997 -0.7722  1.0593  0.1538
 5142SOL    HW320341   5.503   2.354   1.902 -0.5294  0.2990  0.3805
 5142SOL    MW420342   5.428   2.317   1.927 -0.6273  0.3850 -0.1147
 5143SOL     OW20343   5.305   5.216   1.030  0.1887 -0.2463 -0.0094
 5143SOL    HW220344   5.242   5.247   0.966 -0.0028 -0.9137 -0.1559
 5143SOL    HW320345   5.287   5.266   1.110  0.9151  1.1349 -0.6724
 5143SOL    MW420346   5.295   5.227   1.032 -0.2361 -0.2221  0.9554
 5144SOL     OW20347   5.966   5.730   2.433  0.7665  0.2381  0.1814
 5144SOL    HW220348   5.894   5.674   2.462  1.6316  0.2061  2.5004
 5144SOL    HW320349   6.002   5.766   2.513  3.2812  0.3203 -0.8836
 5144SOL    MW420350   5.962   5.727   2.447 -0.0116  0.5575  0.0803
 5145SOL     OW20351   0.849   3.023   1.488 -0.2008 -0.1068 -0.9392
 5145SOL    HW220352   0.755   3.035   1.501 -0.0678  1.5429 -1.2142
 5145SOL    HW320353   0.863   2.929   1.498 -1.9239 -0.4354 -1.2461
 5145SOL    MW420354   0.838   3.012   1.491  0.0461  0.0374 -0.1912
 5146SOL     OW20355   1.173   2.416   4.903  0.1294  0.1607 -0.3047
 5146SOL    HW220356   1.245   2.462   4.858 -0.3042 -0.1302 -1.3072
 5146SOL    HW320357   1.202   2.325   4.906 -0.2524  0.0179 -0.8390
 5146SOL    MW420358   1.187   2.410   4.897 -0.3056  0.3416 -0.0872
 5147SOL     OW20359   2.065   3.526   2.412  0.0936 -0.0729  0.1029
 5147SOL    HW220360   2.017   3.556   2.490  0.8748 -0.3080  0.6874
 5147SOL    HW320361   2.084   3.607   2.364 -1.1781 -0.0034 -0.3310
 5147SOL    MW420362   2.061   3.541   2.416  0.3115 -0.5522 -0.0963
 5148SOL     OW20363   4.830   6.305   5.176  0.7470 -0.2764  0.6258
 5148SOL    HW220364   4.782   6.346   5.104 -0.0021  0.8206  1.6910
 5148SOL    HW320365   4.770   6.310   5.250  0.9773 -2.5816  1.0338
 5148SOL    MW420366   4.816   6.311   5.176 -0.2698  0.3148  0.2689
 5149SOL     OW20367   0.372   3.195   2.866  0.6471  0.0278 -0.0195
 5149SOL    HW220368   0.339   3.111   2.834  1.1305  0.3612 -1.4592
 5149SOL    HW320369   0.298   3.234   2.913  0.4254 -1.1901  0.6999
 5149SOL    MW420370   0.358   3.189   2.868  0.2771 -0.4862 -0.0949
 5150SOL     OW20371   5.614   3.876   2.798  1.0161 -0.3048 -0.3487
 5150SOL    HW220372   5.631   3.876   2.892 -0.1781  1.1177 -0.0865
 5150SOL    HW320373   5.547   3.808   2.785 -0.7217  1.1917  0.2903
 5150SOL    MW420374   5.607   3.867   2.808  0.2222  0.3841  0.2370
 5151SOL     OW20375   2.828   5.057   4.862 -0.1675  0.1259  0.7005
 5151SOL    HW220376   2.818   4.981   4.805 -1.6032 -0.5211  1.7563
 5151SOL    HW320377   2.922   5.075   4.862 -0.0002 -0.6027 -0.8690
 5151SOL    MW420378   2.839   5.050   4.855  0.0705 -0.2395 -0.1227
 5152SOL     OW20379   0.883   2.148   0.649  0.1183  0.0917  0.2784
 5152SOL    HW220380   0.943   2.135   0.723  0.4905 -0.8384 -0.1749
 5152SOL    HW320381   0.925   2.215   0.596 -0.6957  1.6074  1.4618
 5152SOL    MW420382   0.896   2.155   0.652  0.5294  0.1163 -0.2272
 5153SOL     OW20383   4.531   1.517   4.291  0.1573 -0.3005 -0.4403
 5153SOL    HW220384   4.614   1.515   4.338  1.0990 -0.0880 -2.0120
 5153SOL    HW320385   4.507   1.425   4.279  0.1057 -0.3596  0.1140
 5153SOL    MW420386   4.539   1.505   4.296  0.0029 -0.4638  0.0461
 5154SOL     OW20387   4.409   4.476   3.798  0.5540 -0.1007  0.5375
 5154SOL    HW220388   4.359   4.472   3.716  0.8872 -0.1415  0.3311
 5154SOL    HW320389   4.442   4.566   3.801 -0.0604  0.1159  0.9964
 5154SOL    MW420390   4.407   4.487   3.787  0.2819  0.3731  0.5854
 5155SOL     OW20391   5.968   4.791   0.602  0.3371  0.1352 -0.1710
 5155SOL    HW220392   5.935   4.725   0.541  0.0839 -0.9154  1.0540
 5155SOL    HW320393   5.937   4.874   0.567 -1.5994 -0.6170 -0.3450
 5155SOL    MW420394   5.960   4.793   0.589  0.3065 -0.5517 -0.1925
 5156SOL     OW20395   1.520   1.012   0.959 -0.2848  1.1023 -0.7975
 5156SOL    HW220396   1.477   0.929   0.938  0.6365  0.3528  0.1714
 5156SOL    HW320397   1.464   1.051   1.027  0.0346  0.5867 -0.2300
 5156SOL    MW420398   1.507   1.006   0.965 -0.2069 -0.7996 -0.0758
 5157SOL     OW20399   6.101   6.369   2.270  1.0412 -0.4155  0.3499
 5157SOL    HW220400   6.113   6.382   2.176 -0.5172  0.6611  0.2660
 5157SOL    HW320401   6.180   6.322   2.297  1.1861 -1.4281 -1.6168
 5157SOL    MW420402   6.113   6.365   2.261  0.0312 -0.4313  0.6123
 5158SOL     OW20403   0.669   3.162   0.197 -0.1299  0.4302  0.3087
 5158SOL    HW220404   0.607   3.090   0.212  0.6005  0.1152  2.0107
 5158SOL    HW320405   0.671   3.210   0.279 -1.3410  3.0650 -1.0927
 5158SOL    MW420406   0.661   3.159   0.210 -0.2728  0.1965 -0.1667
 5159SOL     OW20407   1.276   4.046   5.129  0.3003 -0.6657 -0.6545
 5159SOL    HW220408   1.261   3.989   5.054 -0.4092 -2.1210  0.5328
 5159SOL    HW320409   1.365   4.027   5.157  0.8638  0.4959 -1.6096
 5159SOL    MW420410   1.285   4.036   5.123 -0.2450  0.5462 -0.3801
 5160SOL     OW20411   4.396   3.234   2.055 -0.0192 -0.4475  0.0931
 5160SOL    HW220412   4.354   3.301   2.109  2.7904  0.6427  1.0957
 5160SOL    HW320413   4.332   3.214   1.987 -1.4009  2.4208  0.4288
 5160SOL    MW420414   4.382   3.240   2.053  0.1543  0.3351  0.1599
 5161SOL     OW20415   4.399   0.617   3.588  0.0492 -0.0571 -0.4472
 5161SOL    HW220416   4.305   0.613   3.576  0.3305 -1.3747 -2.7047
 5161SOL    HW320417   4.418   0.552   3.655 -0.5510 -0.6613 -0.8518
 5161SOL    MW420418   4.389   0.608   3.595  0.1726  0.0168 -0.3699
 5162SOL     OW20419   1.998   2.506   5.166 -0.0255 -0.1352 -0.1227
 5162SOL    HW220420   1.996   2.511   5.070 -0.6551  3.5397 -0.0663
 5162SOL    HW320421   1.907   2.522   5.192 -0.0771 -2.1603  1.1523
 5162SOL    MW420422   1.985   2.508   5.157  0.3229  0.2934  0.1020
 5163SOL     OW20423   3.979   3.955   1.199 -0.3367 -0.1582  0.5827
 5163SOL    HW220424   3.941   3.916   1.278  0.3966  0.8184  1.4384
 5163SOL    HW320425   3.925   4.032   1.181  0.1555  0.2347  0.7745
 5163SOL    MW420426   3.967   3.960   1.208 -0.3461 -0.1006  0.3921
 5164SOL     OW20427   3.860   3.588   1.431 -0.4208  0.5186 -0.6882
 5164SOL    HW220428   3.822   3.675   1.420 -1.7319  0.0509 -0.0984
 5164SOL    HW320429   3.807   3.547   1.500  0.5752 -0.5211 -0.5035
 5164SOL    MW420430   3.848   3.594   1.439  0.8873 -0.2772  0.8613
 5165SOL     OW20431   0.725   1.785   0.191 -0.7689  0.3891  0.3363
 5165SOL    HW220432   0.776   1.726   0.246 -0.8695  0.8262  0.9072
 5165SOL    HW320433   0.791   1.827   0.135 -0.3719  1.4535  1.5314
 5165SOL    MW420434   0.741   1.783   0.191 -0.1866 -0.3296  0.4396
 5166SOL     OW20435   0.697   3.527   2.500  0.6343  0.1410 -0.3821
 5166SOL    HW220436   0.603   3.519   2.486  0.9872 -0.1297 -3.2774
 5166SOL    HW320437   0.724   3.601   2.445  2.1107  0.2900  0.4707
 5166SOL    MW420438   0.688   3.535   2.490  0.2899 -0.1371  0.2523
 5167SOL     OW20439   5.557   3.999   4.999 -0.5766 -0.7456  0.2596
 5167SOL    HW220440   5.475   4.047   4.989 -0.3200 -0.1490  1.0127
 5167SOL    HW320441   5.547   3.950   5.081 -0.0377 -0.3832  0.5446
 5167SOL    MW420442   5.545   3.999   5.008 -0.4129 -0.0676 -0.4487
 5168SOL     OW20443   5.964   4.113   3.210  0.3056  0.7064  0.2496
 5168SOL    HW220444   5.971   4.027   3.169 -1.6665 -0.0254  1.3463
 5168SOL    HW320445   6.001   4.173   3.145  0.0252 -0.7451 -1.3163
 5168SOL    MW420446   5.970   4.109   3.196 -0.6259 -0.1603  0.4813
 5169SOL     OW20447   5.175   2.572   2.984  0.1102  0.3894 -0.1894
 5169SOL    HW220448   5.228   2.618   3.050 -1.7296 -1.2817  2.6712
 5169SOL    HW320449   5.119   2.640   2.947  1.1033  1.3683  0.0511
 5169SOL    MW420450   5.175   2.587   2.988  0.1619 -0.1811  0.0391
 5170SOL     OW20451   0.210   2.127   3.466 -0.5685  0.0801 -0.0313
 5170SOL    HW220452   0.142   2.078   3.420  0.7149 -0.7955 -1.0901
 5170SOL    HW320453   0.291   2.079   3.446  0.8045  2.7730 -1.3670
 5170SOL    MW420454   0.212   2.114   3.457 -0.0447  0.1629 -0.3495
 5171SOL     OW20455   4.404   1.882   2.931 -0.4209  0.2971 -0.5844
 5171SOL    HW220456   4.399   1.794   2.970 -0.8503  0.0047 -1.2770
 5171SOL    HW320457   4.471   1.927   2.982  1.0274 -0.9696 -1.2668
 5171SOL    MW420458   4.412   1.876   2.943 -0.4454 -0.3038 -0.0378
 5172SOL     OW20459   2.862   6.184   2.376  0.1706  0.1019 -0.8501
 5172SOL    HW220460   2.897   6.226   2.297  3.0084  0.5655  0.5406
 5172SOL    HW320461   2.848   6.256   2.438 -0.8767 -0.3838 -0.4932
 5172SOL    MW420462   2.865   6.199   2.374 -0.4391  0.2326 -0.5636
 5173SOL     OW20463   1.219   0.405   3.711 -0.5364 -0.5084 -0.0518
 5173SOL    HW220464   1.249   0.314   3.710 -0.1427 -0.3717 -0.9324
 5173SOL    HW320465   1.215   0.427   3.804 -1.4584 -1.6906  0.2275
 5173SOL    MW420466   1.222   0.396   3.723 -0.9635  0.1262 -0.1777
 5174SOL     OW20467   0.796   4.287   5.445  0.4518  0.2275  0.2387
 5174SOL    HW220468   0.874   4.248   5.486  0.2987 -0.1759  0.1499
 5174SOL    HW320469   0.831   4.349   5.381  0.7140  1.9195  1.9180
 5174SOL    MW420470   0.811   4.290   5.442 -0.0225  0.0369 -0.3337
 5175SOL     OW20471   4.692   5.382   3.029  0.1601 -0.1056  0.1838
 5175SOL    HW220472   4.640   5.303   3.044 -1.3167  0.4246 -1.7647
 5175SOL    HW320473   4.630   5.446   2.994  1.8929  0.8751 -1.3007
 5175SOL    MW420474   4.677   5.380   3.026  0.7052  0.3590 -0.1139
 5176SOL     OW20475   3.931   5.176   6.213  0.5299  0.0417  0.0795
 5176SOL    HW220476   3.916   5.242   6.280  0.2979  0.3317 -0.2570
 5176SOL    HW320477   3.976   5.105   6.259  0.4000  0.2515  0.5330
 5176SOL    MW420478   3.935   5.175   6.228  0.5286 -0.6077  0.3171
 5177SOL     OW20479   2.774   2.090   2.429 -0.0390 -0.8808 -0.4380
 5177SOL    HW220480   2.682   2.117   2.426  0.0348 -0.6236 -0.4045
 5177SOL    HW320481   2.779   2.016   2.369 -1.0322 -3.2258  2.1546
 5177SOL    MW420482   2.762   2.084   2.420 -0.3949 -0.4479  0.1657
 5178SOL     OW20483   2.805   5.135   6.164  0.0008  0.3048 -0.1611
 5178SOL    HW220484   2.749   5.113   6.239 -0.4951  1.9996 -0.0052
 5178SOL    HW320485   2.802   5.057   6.109 -3.3886  0.6579 -0.6855
 5178SOL    MW420486   2.797   5.122   6.167 -0.2954  0.0991  0.4786
 5179SOL     OW20487   3.518   3.604   0.862 -0.1729  0.0079 -0.0167
 5179SOL    HW220488   3.568   3.617   0.781 -0.3295 -0.9345 -0.2720
 5179SOL    HW320489   3.451   3.673   0.859 -2.0434 -1.7308 -2.1898
 5179SOL    MW420490   3.516   3.615   0.851 -0.3719 -0.4927  0.1907
 5180SOL     OW20491   5.306   1.873   0.411  0.1272 -0.5019 -0.0018
 5180SOL    HW220492   5.288   1.850   0.503  2.4757 -2.1269  0.1241
 5180SOL    HW320493   5.228   1.843   0.364 -1.8729  1.8176  1.5510
 5180SOL    MW420494   5.293   1.866   0.417 -0.4080 -0.4887 -0.0017
 5181SOL     OW20495   4.305   5.049   5.170 -0.9223 -0.3139 -0.0250
 5181SOL    HW220496   4.315   4.955   5.158 -0.8321 -0.1856 -0.9974
 5181SOL    HW320497   4.368   5.088   5.109 -0.3635  0.3702  0.9613
 5181SOL    MW420498   4.315   5.042   5.160 -0.6852 -0.0565  0.4211
 5182SOL     OW20499   2.976   1.811   0.998 -0.0431 -0.3341  0.5588
 5182SOL    HW220500   3.068   1.791   1.012  0.5972  1.3590 -0.7955
 5182SOL    HW320501   2.976   1.901   0.964 -1.7444 -1.7472 -3.9316
 5182SOL    MW420502   2.988   1.820   0.995 -0.3721  0.3911  0.1082
 5183SOL     OW20503   4.014   0.106   5.672 -0.6552 -0.0290 -0.1159
 5183SOL    HW220504   4.049   0.104   5.583 -0.0863  0.5356  0.0877
 5183SOL    HW320505   4.042   0.023   5.711  0.4248  0.3779  0.0177
 5183SOL    MW420506   4.023   0.095   5.666  0.4160  0.3771  0.4453
 5184SOL     OW20507   3.413   3.657   1.681  0.1389  0.0637 -0.2633
 5184SOL    HW220508   3.409   3.691   1.592  2.2125  0.6592 -0.1890
 5184SOL    HW320509   3.341   3.594   1.687  0.4122 -0.5391 -2.5836
 5184SOL    MW420510   3.403   3.653   1.670  0.4635  0.0955 -0.0570
 5185SOL     OW20511   1.453   2.702   0.498  0.7609  0.4150 -0.4898
 5185SOL    HW220512   1.378   2.658   0.537  0.9766  0.4114 -0.0766
 5185SOL    HW320513   1.512   2.632   0.473  1.3617  0.4806  0.6907
 5185SOL    MW420514   1.451   2.687   0.500 -0.4607  0.2423  0.1976
 5186SOL     OW20515   2.062   4.569   3.898 -0.6190  0.3275 -0.4985
 5186SOL    HW220516   2.001   4.625   3.850 -1.3446  0.7298  0.8447
 5186SOL    HW320517   2.137   4.559   3.839 -1.1364  1.4605 -1.3828
 5186SOL    MW420518   2.064   4.575   3.884  0.1853 -0.2466 -0.4539
 5187SOL     OW20519   4.096   3.387   5.156 -0.2188  0.2063  0.9240
 5187SOL    HW220520   4.154   3.324   5.114  0.1825  0.9850  0.2692
 5187SOL    HW320521   4.086   3.457   5.091  0.4654  1.4708  2.1122
 5187SOL    MW420522   4.102   3.388   5.142  0.3821 -0.0231  0.3779
 5188SOL     OW20523   6.289   3.183   4.792  0.3739  0.5915 -0.7015
 5188SOL    HW220524   6.299   3.196   4.886  0.1613 -1.0607 -0.4266
 5188SOL    HW320525   6.360   3.124   4.767  0.1319  0.6136 -1.4884
 5188SOL    MW420526   6.300   3.177   4.801 -0.1831  0.3276  0.7902
 5189SOL     OW20527   5.659   5.431   0.045  0.3960  0.6585 -0.6347
 5189SOL    HW220528   5.621   5.519   0.044  0.0113  0.4916 -1.6657
 5189SOL    HW320529   5.658   5.404  -0.046 -0.1176 -0.6850 -0.2460
 5189SOL    MW420530   5.654   5.439   0.033  0.1459  0.0330  0.0622
 5190SOL     OW20531   4.819   1.101   3.699  0.3472 -0.2874  0.3146
 5190SOL    HW220532   4.827   1.191   3.667 -0.5590 -0.4603 -0.4220
 5190SOL    HW320533   4.876   1.051   3.641  3.8800  0.2533  2.9672
 5190SOL    MW420534   4.828   1.107   3.687  0.0284  0.0717  0.1980
 5191SOL     OW20535   4.760   2.119   3.712 -0.2295  0.4218  0.6195
 5191SOL    HW220536   4.821   2.047   3.697 -0.3464  0.4370  0.0284
 5191SOL    HW320537   4.755   2.127   3.807  0.0518 -0.1216  0.6865
 5191SOL    MW420538   4.767   2.110   3.723  0.6937 -0.0988 -0.2791
 5192SOL     OW20539   2.332   5.290   0.853  0.4669 -0.0172  0.4759
 5192SOL    HW220540   2.284   5.358   0.901 -0.1540  0.1990 -0.4260
 5192SOL    HW320541   2.407   5.337   0.817  1.0035 -0.2068  1.3104
 5192SOL    MW420542   2.335   5.305   0.855 -1.0372 -0.0610 -0.6468
 5193SOL     OW20543   3.516   4.188   4.933 -0.2521  0.0260 -0.8500
 5193SOL    HW220544   3.601   4.146   4.922 -0.5332 -0.6615 -0.4609
 5193SOL    HW320545   3.505   4.196   5.028 -1.2449 -1.2271 -0.8308
 5193SOL    MW420546   3.526   4.184   4.944 -0.1692 -0.3230  0.0979
 5194SOL     OW20547   5.293   1.373   4.185 -0.3994  0.5930  0.2308
 5194SOL    HW220548   5.382   1.354   4.215  0.1245  0.2544 -1.4588
 5194SOL    HW320549   5.293   1.467   4.168  0.2026  0.3228 -1.4415
 5194SOL    MW420550   5.305   1.383   4.187  0.1858  0.0700  0.0911
 5195SOL     OW20551   0.802   1.147   0.855 -0.0721 -0.0859 -0.0278
 5195SOL    HW220552   0.820   1.184   0.769 -0.7207  0.6488  0.1382
 5195SOL    HW320553   0.772   1.221   0.908 -0.3223 -0.6417  0.6361
 5195SOL    MW420554   0.800   1.162   0.851 -0.0916  0.2781 -0.1416
 5196SOL     OW20555   4.691   1.427   4.904 -0.3819 -0.8598  0.4522
 5196SOL    HW220556   4.639   1.466   4.834 -1.1134 -0.4730  1.1886
 5196SOL    HW320557   4.782   1.445   4.880 -0.5817 -1.3846 -0.7584
 5196SOL    MW420558   4.696   1.435   4.892  0.2567  0.4981  0.3881
 5197SOL     OW20559   2.433   0.670   2.642  0.0164 -0.5228  1.3076
 5197SOL    HW220560   2.356   0.613   2.639 -0.5103  0.1310 -2.1816
 5197SOL    HW320561   2.397   0.759   2.641  0.8073 -0.1995  0.6446
 5197SOL    MW420562   2.418   0.674   2.641  0.4482  0.3063  0.0472
 5198SOL     OW20563   5.448   1.865   4.601 -0.1958  0.3285 -0.0999
 5198SOL    HW220564   5.522   1.821   4.559 -1.1492 -1.1334 -0.2999
 5198SOL    HW320565   5.377   1.860   4.538 -0.7086  1.0436  0.3984
 5198SOL    MW420566   5.449   1.859   4.587 -0.0770  0.3565  0.2919
 5199SOL     OW20567   5.915   3.853   0.812  0.1652  0.3892  0.2273
 5199SOL    HW220568   5.947   3.797   0.741 -0.9412 -1.7913  1.3576
 5199SOL    HW320569   5.950   3.813   0.891 -1.6207  0.6159  1.1696
 5199SOL    MW420570   5.924   3.841   0.813  0.0662  0.1389 -0.4756
 5200SOL     OW20571   5.168   1.914   4.766 -0.0059 -0.6495 -0.8625
 5200SOL    HW220572   5.131   1.965   4.694 -1.3465  0.1505  0.3470
 5200SOL    HW320573   5.180   1.826   4.729 -0.8542 -0.3171 -2.0028
 5200SOL    MW420574   5.165   1.909   4.752 -0.2613  0.1742 -0.3864
 5201SOL     OW20575   0.055   5.170   3.863  0.3334 -0.4628  0.2458
 5201SOL    HW220576   0.010   5.117   3.797 -1.5569  0.3214  0.8177
 5201SOL    HW320577   0.069   5.254   3.820  0.0740 -0.2991  0.4751
 5201SOL    MW420578   0.051   5.174   3.849 -0.6598  0.2237  0.2829
 5202SOL     OW20579   2.032   5.525   4.386  0.1127 -0.0918 -0.6300
 5202SOL    HW220580   2.067   5.437   4.403 -1.8065 -0.3006  3.4256
 5202SOL    HW320581   1.962   5.512   4.322  1.7388 -0.9498 -2.3236
 5202SOL    MW420582   2.027   5.512   4.380 -0.4572  0.4467  0.2831
 5203SOL     OW20583   0.938   2.892   0.748 -0.7331 -0.1827  0.6312
 5203SOL    HW220584   0.852   2.934   0.750 -0.6828 -0.0070 -0.3763
 5203SOL    HW320585   0.952   2.861   0.838 -0.8698  1.7430  1.3690
 5203SOL    MW420586   0.929   2.893   0.760 -0.7292  0.2642  0.6742
 5204SOL     OW20587   4.046   1.320   1.956 -0.5367 -0.2066  0.6036
 5204SOL    HW220588   4.047   1.408   1.917 -0.1645 -0.6278 -0.3810
 5204SOL    HW320589   4.086   1.331   2.042 -0.5876  0.6034  0.5351
 5204SOL    MW420590   4.051   1.333   1.962 -0.0490  0.2710 -0.3871
 5205SOL     OW20591   1.697   3.206   4.289 -0.2228  0.2385 -0.1619
 5205SOL    HW220592   1.790   3.200   4.266  0.1443 -0.8017  1.4469
 5205SOL    HW320593   1.668   3.115   4.294 -0.4953  0.3848  2.4002
 5205SOL    MW420594   1.706   3.193   4.286  0.1261 -0.2641 -0.0314
 5206SOL     OW20595   0.246   4.428   0.419 -0.1869 -0.5315  0.4349
 5206SOL    HW220596   0.305   4.359   0.448  0.2804  0.5119  2.0891
 5206SOL    HW320597   0.263   4.501   0.478 -2.8093 -0.0270  0.7095
 5206SOL    MW420598   0.256   4.428   0.431  0.2177 -0.3353 -0.5381
 5207SOL     OW20599   5.631   0.683   2.965  0.2126  0.1263  0.2810
 5207SOL    HW220600   5.572   0.661   3.037 -1.0212  4.0537  0.7102
 5207SOL    HW320601   5.593   0.642   2.888 -0.8051 -0.7153  1.2091
 5207SOL    MW420602   5.618   0.675   2.964  0.1662 -0.2139 -0.2207
 5208SOL     OW20603   2.686   0.525   3.157  0.4224 -0.0123 -0.6718
 5208SOL    HW220604   2.659   0.588   3.224  2.2643 -1.3619  1.4590
 5208SOL    HW320605   2.722   0.580   3.087 -1.2195  1.4109 -0.4801
 5208SOL    MW420606   2.687   0.541   3.156 -0.0301  0.3042 -0.2356
 5209SOL     OW20607   2.121   5.596   0.502 -0.6983 -0.1028 -0.2326
 5209SOL    HW220608   2.205   5.601   0.548 -0.5412  2.0085 -0.6539
 5209SOL    HW320609   2.144   5.582   0.410 -0.8851 -0.7539 -0.1901
 5209SOL    MW420610   2.135   5.595   0.496  0.1821 -0.0191 -0.0550
 5210SOL     OW20611   4.114   2.698   4.724  0.1893  0.2755  0.2345
 5210SOL    HW220612   4.033   2.719   4.678  0.2315  1.5525  0.7210
 5210SOL    HW320613   4.159   2.636   4.666 -0.6996  0.2761 -0.4703
 5210SOL    MW420614   4.109   2.692   4.710  0.0847 -0.3774  1.0477
 5211SOL     OW20615   0.349   3.919   3.141  0.1552 -0.0154  0.2034
 5211SOL    HW220616   0.332   3.976   3.065  1.6598  1.3607  0.8481
 5211SOL    HW320617   0.424   3.867   3.115 -0.7272 -1.1873 -0.0751
 5211SOL    MW420618   0.356   3.920   3.127 -0.3653 -0.2375 -0.0463
 5212SOL     OW20619   5.559   3.204   5.639 -0.5269 -0.1513  0.0076
 5212SOL    HW220620   5.478   3.254   5.628 -0.2515  0.5151  0.8926
 5212SOL    HW320621   5.614   3.232   5.566 -0.8953 -0.2181 -0.2999
 5212SOL    MW420622   5.556   3.214   5.628  0.1440  0.0757 -0.0147
 5213SOL     OW20623   3.599   1.708   2.202  0.0153 -0.1844  0.0903
 5213SOL    HW220624   3.538   1.779   2.220  2.6087  1.4036  4.1583
 5213SOL    HW320625   3.672   1.750   2.156 -0.2557 -1.2712 -1.4273
 5213SOL    MW420626   3.601   1.723   2.198  0.2308  0.6503 -0.4043
 5214SOL     OW20627   1.870   6.131   4.298  0.3470  0.2596  0.2332
 5214SOL    HW220628   1.924   6.185   4.240  0.5029  0.0817  0.2116
 5214SOL    HW320629   1.802   6.190   4.329  1.3336  0.8680  1.3269
 5214SOL    MW420630   1.868   6.146   4.295 -0.5498  0.5195 -0.0018
 5215SOL     OW20631   4.753   1.991   5.496 -0.1640  0.1520 -0.0069
 5215SOL    HW220632   4.704   1.995   5.414  0.3713 -0.5661 -0.3697
 5215SOL    HW320633   4.765   2.083   5.521 -2.9018  0.3685  0.8517
 5215SOL    MW420634   4.748   2.004   5.488 -0.3529 -0.3763  0.3682
 5216SOL     OW20635   1.499   2.372   2.185  0.3513 -0.4658 -0.8563
 5216SOL    HW220636   1.500   2.468   2.192  0.5248 -0.6054  1.7402
 5216SOL    HW320637   1.420   2.352   2.134 -0.4135  1.0083 -0.2995
 5216SOL    MW420638   1.489   2.382   2.179  0.2547 -0.1353 -0.4194
 5217SOL     OW20639   3.538   0.428   1.963  0.2065  0.1528  0.3987
 5217SOL    HW220640   3.466   0.365   1.965 -0.5231  0.9510 -0.2215
 5217SOL    HW320641   3.500   0.510   1.995  0.9625  0.4656  0.5326
 5217SOL    MW420642   3.524   0.431   1.968 -0.0869 -0.1136  0.2452
 5218SOL     OW20643   4.418   5.148   4.287  0.1094 -0.0030 -0.3354
 5218SOL    HW220644   4.459   5.142   4.373 -2.0655  0.2383  0.7900
 5218SOL    HW320645   4.329   5.116   4.301 -0.1625 -0.4156 -2.6198
 5218SOL    MW420646   4.412   5.143   4.300 -0.4497  0.0033  0.4540
 5219SOL     OW20647   2.863   4.455   0.053 -0.5542  0.0681  0.3008
 5219SOL    HW220648   2.900   4.369   0.071 -1.2394 -0.7599 -1.9295
 5219SOL    HW320649   2.899   4.479  -0.033  0.0182  2.2533  1.0984
 5219SOL    MW420650   2.872   4.447   0.044  0.5819  0.5424 -0.5633
 5220SOL     OW20651   4.195   1.673   1.252  0.4043 -0.1375  0.6488
 5220SOL    HW220652   4.117   1.643   1.299  0.3240  0.3410  0.8226
 5220SOL    HW320653   4.161   1.707   1.169  0.5181 -0.7238  0.3551
 5220SOL    MW420654   4.180   1.674   1.247 -0.2470 -0.3242 -0.2651
 5221SOL     OW20655   6.347   1.177   5.843 -0.3638 -0.1576 -0.2519
 5221SOL    HW220656   6.343   1.265   5.882 -0.6629 -0.1243 -0.3559
 5221SOL    HW320657   6.394   1.190   5.761 -0.2693 -0.1205 -0.1918
 5221SOL    MW420658   6.353   1.190   5.837 -0.3676 -0.0118 -0.5462
 5222SOL     OW20659   0.195   1.336   0.540  0.4012 -0.2873  0.4317
 5222SOL    HW220660   0.177   1.259   0.487  0.2915 -1.0830  1.6054
 5222SOL    HW320661   0.281   1.319   0.578  2.0136  1.6881 -1.9350
 5222SOL    MW420662   0.204   1.324   0.538 -0.3792 -0.3140 -0.0290
 5223SOL     OW20663   5.257   3.365   2.515  0.1588  0.9352  0.2565
 5223SOL    HW220664   5.198   3.374   2.440  0.7812 -1.0892 -0.5521
 5223SOL    HW320665   5.201   3.379   2.592 -0.8052  1.5646 -0.5287
 5223SOL    MW420666   5.242   3.368   2.515 -0.2401 -0.2730  0.5330
 5224SOL     OW20667   5.286   0.313   0.260  0.0827  0.0134 -0.9224
 5224SOL    HW220668   5.241   0.398   0.259  1.5302  0.8160 -0.4160
 5224SOL    HW320669   5.221   0.252   0.295 -0.3918  1.2679  0.4720
 5224SOL    MW420670   5.272   0.316   0.264  0.2262 -0.4546 -0.2565
 5225SOL     OW20671   3.038   2.289   1.541  0.0153  0.3318  0.3578
 5225SOL    HW220672   2.961   2.238   1.516  1.0030 -1.0848  0.0676
 5225SOL    HW320673   3.010   2.340   1.616 -1.5115  0.6784 -0.4084
 5225SOL    MW420674   3.024   2.289   1.548  0.2404  0.1974 -0.1301
 5226SOL     OW20675   1.653   5.630   4.444 -0.7170  0.9738 -0.6364
 5226SOL    HW220676   1.568   5.649   4.485 -0.1501 -0.1082  1.1499
 5226SOL    HW320677   1.717   5.671   4.502  0.0408  0.6394 -1.2257
 5226SOL    MW420678   1.650   5.638   4.457  0.3006  0.7913 -0.5984
 5227SOL     OW20679   5.378   5.392   1.247  0.0106 -0.5706 -0.3064
 5227SOL    HW220680   5.454   5.399   1.189  0.4735  0.6777  0.4099
 5227SOL    HW320681   5.397   5.317   1.302  1.1300  0.1969  0.3993
 5227SOL    MW420682   5.391   5.383   1.246  0.6020 -0.0682 -0.3240
 5228SOL     OW20683   5.781   3.143   6.315  0.4191 -0.1536 -0.3909
 5228SOL    HW220684   5.757   3.192   6.394  0.4409  0.0585 -0.5152
 5228SOL    HW320685   5.710   3.080   6.303  0.8153 -0.7379  0.2571
 5228SOL    MW420686   5.769   3.141   6.324  0.0926 -0.1619 -0.3930
 5229SOL     OW20687   0.242   0.515   0.528 -0.4787  0.5815 -0.0825
 5229SOL    HW220688   0.304   0.564   0.581  0.5895  0.0540 -0.7948
 5229SOL    HW320689   0.206   0.579   0.467  2.4762  0.2709 -2.4600
 5229SOL    MW420690   0.246   0.530   0.527 -0.4791  0.0732  0.1722
 5230SOL     OW20691   1.307   4.474   2.385  0.2181 -0.7908 -0.9177
 5230SOL    HW220692   1.243   4.539   2.355  0.9866  0.7599  0.6091
 5230SOL    HW320693   1.256   4.410   2.434 -0.0421  2.2489  3.3718
 5230SOL    MW420694   1.292   4.474   2.387  0.0035  0.0522  0.3277
 5231SOL     OW20695   3.432   0.916   1.371  0.0928  0.7705  0.5904
 5231SOL    HW220696   3.479   0.998   1.382  1.9442 -0.4817  3.1526
 5231SOL    HW320697   3.398   0.896   1.459  1.3538 -2.0330  0.5726
 5231SOL    MW420698   3.434   0.924   1.384  0.1901  0.1697 -0.0366
 5232SOL     OW20699   1.213   6.136   0.913 -0.0532  0.2510 -0.0556
 5232SOL    HW220700   1.245   6.106   0.828  0.8244  1.6185 -0.2473
 5232SOL    HW320701   1.118   6.127   0.908  0.1440 -2.6576  0.0166
 5232SOL    MW420702   1.205   6.131   0.901  0.7233  0.5431 -0.0055
 5233SOL     OW20703   2.103   1.095   0.785 -0.1563 -0.2662 -0.8040
 5233SOL    HW220704   2.190   1.129   0.761 -0.1676  0.7855  0.5033
 5233SOL    HW320705   2.113   1.069   0.876 -0.6662 -2.1728 -1.2628
 5233SOL    MW420706   2.116   1.096   0.794 -0.2354  0.0402  0.1587
 5234SOL     OW20707   3.534   0.338   1.076  0.0389  0.5419  0.6329
 5234SOL    HW220708   3.603   0.405   1.071  1.6536 -1.0483  0.4974
 5234SOL    HW320709   3.527   0.305   0.986  0.1064 -0.2579  0.9146
 5234SOL    MW420710   3.542   0.342   1.063  0.8526  0.2773 -0.5133
 5235SOL     OW20711   4.132   4.631   1.561  0.0848  0.5669  0.0904
 5235SOL    HW220712   4.172   4.558   1.515  0.2685  1.3314 -1.0087
 5235SOL    HW320713   4.178   4.636   1.645 -0.6750 -1.2253  0.6577
 5235SOL    MW420714   4.143   4.622   1.566  0.0455  0.1407 -0.0693
 5236SOL     OW20715   3.154   5.680   3.281  0.2615 -0.2262  0.1197
 5236SOL    HW220716   3.246   5.668   3.307  0.8424  0.2915 -1.5483
 5236SOL    HW320717   3.154   5.765   3.235 -0.5440 -1.2809 -1.9494
 5236SOL    MW420718   3.166   5.690   3.278 -0.9988 -0.0685 -0.3158
 5237SOL     OW20719   4.725   1.358   3.658  0.2247  0.3014 -0.0624
 5237SOL    HW220720   4.678   1.353   3.741 -1.8047 -0.0186 -1.1657
 5237SOL    HW320721   4.662   1.397   3.597  1.5076  0.1390 -1.5541
 5237SOL    MW420722   4.710   1.363   3.661  0.6562 -0.6944  0.0578
 5238SOL     OW20723   5.851   5.722   2.859  0.5127 -0.0908  0.0711
 5238SOL    HW220724   5.895   5.715   2.944 -0.5632  1.5959  0.8437
 5238SOL    HW320725   5.814   5.635   2.843  0.4812 -0.3646  1.5004
 5238SOL    MW420726   5.852   5.710   2.868  0.2864  0.5505 -0.0569
 5239SOL     OW20727   5.544   1.354   3.915 -0.2990 -0.1423 -0.3206
 5239SOL    HW220728   5.621   1.324   3.867  0.8876 -0.0163  1.3841
 5239SOL    HW320729   5.528   1.284   3.979 -1.5220 -0.0938 -0.5616
 5239SOL    MW420730   5.552   1.341   3.917  0.1523 -0.1475  0.4173
 5240SOL     OW20731   4.042   5.906   4.108 -0.3075 -0.2365  0.2639
 5240SOL    HW220732   3.986   5.928   4.033 -1.8947 -1.2772  1.1002
 5240SOL    HW320733   4.017   5.969   4.175 -0.9745 -1.1215  0.8607
 5240SOL    MW420734   4.032   5.917   4.107  0.8152 -0.1063 -0.2853
 5241SOL     OW20735   1.684   4.685   1.928  0.2038  0.0994 -0.2024
 5241SOL    HW220736   1.725   4.600   1.943  2.3764  1.0122 -0.5556
 5241SOL    HW320737   1.702   4.704   1.836  0.0085  1.0524 -0.0566
 5241SOL    MW420738   1.692   4.676   1.918  0.3514 -0.0103  0.5003
 5242SOL     OW20739   5.448   1.818   1.029 -0.0369 -0.1535  0.0773
 5242SOL    HW220740   5.473   1.910   1.022  1.6632 -0.6265 -0.6041
 5242SOL    HW320741   5.498   1.785   1.103  0.4362 -0.8392 -0.5372
 5242SOL    MW420742   5.458   1.826   1.038  0.2659 -0.2651 -0.4812
 5243SOL     OW20743   0.089   0.267   5.669 -0.0458  0.2641  0.5721
 5243SOL    HW220744   0.165   0.293   5.616 -0.5168  0.9881  0.2502
 5243SOL    HW320745   0.096   0.319   5.749  0.6393 -0.7950  1.2311
 5243SOL    MW420746   0.100   0.277   5.673 -0.5364  0.1450  0.3377
 5244SOL     OW20747   3.839   0.401   0.818 -0.4210  0.3325  0.0541
 5244SOL    HW220748   3.926   0.439   0.803 -0.8503  1.3958  0.1926
 5244SOL    HW320749   3.803   0.392   0.730 -0.3360  0.2757  0.0240
 5244SOL    MW420750   3.846   0.405   0.804  0.4473 -0.1317 -0.6361
 5245SOL     OW20751   6.205   3.851   2.459  0.1671  0.1423 -0.3418
 5245SOL    HW220752   6.165   3.766   2.478 -0.2185  0.6126  1.0937
 5245SOL    HW320753   6.132   3.905   2.429 -0.3433  0.9632  2.1532
 5245SOL    MW420754   6.190   3.847   2.457 -0.2336  0.0119 -0.0162
 5246SOL     OW20755   0.136   3.031   5.141 -0.4429 -0.1058 -0.0295
 5246SOL    HW220756   0.129   3.110   5.088 -0.7593 -0.8695 -1.1690
 5246SOL    HW320757   0.208   3.048   5.202  1.2123  0.1192 -1.9422
 5246SOL    MW420758   0.144   3.044   5.142  0.0433 -0.4017 -0.8065
 5247SOL     OW20759   0.155   5.007   1.357 -0.2195  0.0819  0.8187
 5247SOL    HW220760   0.181   5.095   1.383 -0.0813  0.9432 -1.9769
 5247SOL    HW320761   0.059   5.011   1.350 -0.3025 -0.2907  1.5351
 5247SOL    MW420762   0.146   5.019   1.359 -0.4729  0.2363 -0.4747
 5248SOL     OW20763   3.981   1.955   1.816  0.1111 -0.2486  0.1226
 5248SOL    HW220764   3.962   1.950   1.722 -0.4166 -0.3024  0.2250
 5248SOL    HW320765   4.043   2.028   1.824 -1.2570  0.9998 -0.0801
 5248SOL    MW420766   3.986   1.964   1.804  0.5924  0.0518 -0.4658
 5249SOL     OW20767   4.305   2.232   3.990 -0.6575  0.3115 -0.4851
 5249SOL    HW220768   4.257   2.154   4.017 -2.0910 -0.0818 -3.6708
 5249SOL    HW320769   4.363   2.202   3.920  2.2415  1.3360  1.3213
 5249SOL    MW420770   4.306   2.218   3.984 -0.0594  0.1202 -0.0043
 5250SOL     OW20771   3.695   0.367   3.984  0.4627  0.0731  0.1833
 5250SOL    HW220772   3.775   0.322   3.959 -1.3442 -3.2833 -0.1602
 5250SOL    HW320773   3.634   0.296   4.006 -1.7262  2.5026  2.6787
 5250SOL    MW420774   3.697   0.352   3.984 -0.2019  0.7101 -0.2471
 5251SOL     OW20775   0.332   5.631   2.246  0.2331  0.1241 -0.8309
 5251SOL    HW220776   0.413   5.661   2.286  0.4265  0.1257 -1.2183
 5251SOL    HW320777   0.309   5.698   2.182  0.3281 -0.2353 -1.2493
 5251SOL    MW420778   0.340   5.644   2.243 -0.1744  0.0562  0.3677
 5252SOL     OW20779   5.719   1.403   5.134  0.1478 -0.0762  0.1812
 5252SOL    HW220780   5.724   1.349   5.055 -2.1884  0.5837 -0.5045
 5252SOL    HW320781   5.787   1.469   5.123 -0.1758  0.0293 -1.3195
 5252SOL    MW420782   5.729   1.405   5.122  0.2299  0.1669 -0.1967
 5253SOL     OW20783   4.029   1.323   0.149 -0.4013 -0.0493  0.0467
 5253SOL    HW220784   4.012   1.339   0.056 -0.5640  1.4025  0.2932
 5253SOL    HW320785   4.054   1.409   0.184 -0.3242 -0.5684  1.3462
 5253SOL    MW420786   4.030   1.337   0.142  0.6202 -0.2213 -0.1078
 5254SOL     OW20787   0.015   5.528   2.707  0.1356 -0.6919 -0.3419
 5254SOL    HW220788   0.024   5.502   2.798 -0.5519 -0.3900 -0.1798
 5254SOL    HW320789   0.008   5.446   2.659 -0.5657 -0.8371  0.0008
 5254SOL    MW420790   0.016   5.514   2.712 -0.3313 -0.6710  0.1022
 5255SOL     OW20791   5.279   5.463   0.496  0.0584 -0.3262  0.3212
 5255SOL    HW220792   5.191   5.425   0.496 -1.4440  2.6614 -2.3146
 5255SOL    HW320793   5.297   5.481   0.404  2.7810  0.6337  0.9582
 5255SOL    MW420794   5.270   5.461   0.484 -0.3735 -0.1914 -0.4216
 5256SOL     OW20795   0.624   2.134   0.932 -0.1715 -0.0147 -0.3173
 5256SOL    HW220796   0.598   2.139   1.024  0.5525  1.3783 -0.1694
 5256SOL    HW320797   0.717   2.156   0.932 -0.2043  0.1775 -1.4125
 5256SOL    MW420798   0.633   2.137   0.944 -0.5913  0.0658 -0.2505
 5257SOL     OW20799   3.241   2.030   0.465 -0.5799  0.4504  0.0157
 5257SOL    HW220800   3.186   1.973   0.519  1.6804 -0.6777  1.2977
 5257SOL    HW320801   3.195   2.037   0.382 -1.0334 -3.2487 -0.1890
 5257SOL    MW420802   3.228   2.024   0.461  0.0706 -0.4827  0.2785
 5258SOL     OW20803   4.300   4.337   2.646  0.0345  0.5384 -0.2114
 5258SOL    HW220804   4.302   4.243   2.663  3.2219  0.0365 -2.4209
 5258SOL    HW320805   4.352   4.375   2.716 -0.5069  0.5644  0.1819
 5258SOL    MW420806   4.307   4.330   2.657  0.0439 -0.3692  0.1795
 5259SOL     OW20807   4.321   4.943   0.945 -0.5557 -0.3405  0.4675
 5259SOL    HW220808   4.372   4.891   0.883 -0.3769 -0.8336  1.0192
 5259SOL    HW320809   4.356   5.031   0.937  0.1206 -0.5975  0.5591
 5259SOL    MW420810   4.332   4.948   0.936  0.4351  0.2327 -0.1122
 5260SOL     OW20811   2.141   5.118   2.677  0.1419 -0.0261 -0.5577
 5260SOL    HW220812   2.164   5.200   2.721 -0.2306 -0.0303 -0.3460
 5260SOL    HW320813   2.053   5.099   2.708 -0.1771  0.0306 -1.4098
 5260SOL    MW420814   2.133   5.127   2.687  0.5989 -0.1377 -0.2558
 5261SOL     OW20815   5.919   6.209   6.009 -0.3195 -0.2154  0.7293
 5261SOL    HW220816   5.876   6.294   6.007  1.8419  0.9656 -1.0700
 5261SOL    HW320817   5.924   6.183   5.917  1.3087 -1.0508  1.0149
 5261SOL    MW420818   5.914   6.216   5.996 -0.5569  0.1410  0.2865
 5262SOL     OW20819   6.100   4.270   0.946 -0.1906  0.1773  0.5753
 5262SOL    HW220820   6.032   4.211   0.914  0.3328  0.3658 -0.9603
 5262SOL    HW320821   6.122   4.324   0.870 -1.3820  3.0885  2.1703
 5262SOL    MW420822   6.094   4.269   0.932 -0.2823  0.1115  0.2818
 5263SOL     OW20823   6.300   5.255   6.164  0.3502  0.2887 -0.3641
 5263SOL    HW220824   6.215   5.223   6.134  0.4095  0.4730 -0.7393
 5263SOL    HW320825   6.305   5.228   6.255 -0.1633  0.3839 -0.3035
 5263SOL    MW420826   6.290   5.247   6.172  0.5921  0.5885 -0.5519
 5264SOL     OW20827   3.258   2.044   3.386 -0.6001 -0.0250  0.0857
 5264SOL    HW220828   3.305   2.125   3.405  0.1926 -0.3782 -0.3053
 5264SOL    HW320829   3.181   2.047   3.443 -1.1631  1.4990 -0.6735
 5264SOL    MW420830   3.254   2.055   3.396  0.4270  0.2998  0.0237
 5265SOL     OW20831   1.112   2.774   0.407  0.4389 -0.4302 -0.2386
 5265SOL    HW220832   1.032   2.749   0.453 -0.7341 -0.4463 -2.1741
 5265SOL    HW320833   1.159   2.692   0.395 -0.8451 -0.9909 -1.8909
 5265SOL    MW420834   1.107   2.760   0.411 -0.4913  0.1743 -0.1846
 5266SOL     OW20835   1.840   0.559   5.707 -0.0057 -0.4815  0.0927
 5266SOL    HW220836   1.791   0.527   5.782 -1.6140 -0.4824 -0.9186
 5266SOL    HW320837   1.871   0.480   5.663  0.2676 -0.4964  0.3050
 5266SOL    MW420838   1.838   0.544   5.711 -0.1860  0.1985 -0.1507
 5267SOL     OW20839   6.296   1.039   5.448  0.2230  0.3638 -0.0029
 5267SOL    HW220840   6.240   1.099   5.497  0.2036  1.2806 -1.1079
 5267SOL    HW320841   6.238   0.967   5.425  0.1671  0.0410  1.0638
 5267SOL    MW420842   6.281   1.037   5.452  0.8750  0.6751 -0.5305
 5268SOL     OW20843   4.934   1.241   4.510 -0.3112 -0.4024 -0.2900
 5268SOL    HW220844   4.916   1.191   4.430 -0.5610 -0.7092 -0.0465
 5268SOL    HW320845   5.026   1.265   4.504 -0.1364 -1.0699 -0.3129
 5268SOL    MW420846   4.943   1.237   4.499 -0.3859 -0.6566 -0.7340
 5269SOL     OW20847   2.075   5.319   1.706  0.6271  0.5307 -0.3100
 5269SOL    HW220848   2.108   5.231   1.689  1.8573  0.5834  1.5575
 5269SOL    HW320849   1.992   5.305   1.752  0.3567  0.3814 -0.8277
 5269SOL    MW420850   2.068   5.305   1.710  0.2652 -0.4349  0.1173
 5270SOL     OW20851   0.723   1.075   2.561  0.1421 -0.1409 -0.1400
 5270SOL    HW220852   0.663   1.076   2.486 -0.3317  0.0849  0.2340
 5270SOL    HW320853   0.672   1.114   2.633  0.6443 -0.2033  0.2557
 5270SOL    MW420854   0.708   1.080   2.561 -0.2889 -0.3806  0.0176
 5271SOL     OW20855   3.870   4.892   0.428 -0.2290 -0.0112  0.3116
 5271SOL    HW220856   3.963   4.905   0.413  0.1780  1.8397  3.4703
 5271SOL    HW320857   3.866   4.829   0.501 -1.4765 -0.4323 -0.0952
 5271SOL    MW420858   3.881   4.886   0.436 -0.3071  0.0211  0.1070
 5272SOL     OW20859   0.444   5.583   6.406  0.3907 -0.5043 -0.2921
 5272SOL    HW220860   0.458   5.545   6.492  3.0362  2.4985  0.7727
 5272SOL    HW320861   0.374   5.646   6.418  2.1373  1.4360  0.3276
 5272SOL    MW420862   0.437   5.586   6.419 -0.5205  0.0750 -0.1052
 5273SOL     OW20863   2.233   3.766   1.575 -0.8835 -0.1263  0.6878
 5273SOL    HW220864   2.310   3.743   1.627 -0.5753 -0.7429 -0.0234
 5273SOL    HW320865   2.183   3.684   1.568 -1.0450  0.0061  0.2255
 5273SOL    MW420866   2.236   3.752   1.581  0.3976  0.6684  0.2291
 5274SOL     OW20867   2.429   0.690   4.942  0.0272  0.4936 -0.0410
 5274SOL    HW220868   2.382   0.662   5.021 -0.7122  0.2556 -0.5557
 5274SOL    HW320869   2.364   0.739   4.892  0.9202  1.9722  0.1972
 5274SOL    MW420870   2.414   0.693   4.946  0.4204 -0.5470  0.4734
 5275SOL     OW20871   5.872   3.204   4.158 -0.2960 -0.2493  0.1154
 5275SOL    HW220872   5.807   3.143   4.124  0.1710 -0.1329 -1.0408
 5275SOL    HW320873   5.855   3.207   4.252 -0.1547 -2.3874  0.2772
 5275SOL    MW420874   5.861   3.196   4.166  0.3229  0.5433  0.4614
 5276SOL     OW20875   2.482   0.896   5.246 -0.0718 -0.1715 -0.5815
 5276SOL    HW220876   2.575   0.875   5.254 -0.3371 -1.0618  0.3639
 5276SOL    HW320877   2.469   0.973   5.302  0.1551  0.1397 -0.9583
 5276SOL    MW420878   2.492   0.904   5.255 -0.0149 -0.0808 -0.1652
 5277SOL     OW20879   5.966   4.382   0.236  0.2995  0.3956  0.0022
 5277SOL    HW220880   5.920   4.298   0.232  0.4051  0.2360  1.5342
 5277SOL    HW320881   6.050   4.361   0.279  1.4188  0.8526 -1.8464
 5277SOL    MW420882   5.971   4.368   0.241 -0.1938 -0.5904  0.6647
 5278SOL     OW20883   4.486   5.674   5.564  0.2199 -0.3054 -0.1742
 5278SOL    HW220884   4.578   5.668   5.591 -0.0980 -1.1697  0.7524
 5278SOL    HW320885   4.461   5.764   5.583  0.9981  0.0652 -0.8511
 5278SOL    MW420886   4.495   5.685   5.570 -0.3507 -0.3622  0.2078
 5279SOL     OW20887   2.390   3.078   1.645  0.1294 -0.0356  0.6573
 5279SOL    HW220888   2.445   3.036   1.579  1.4426  0.1119  1.6229
 5279SOL    HW320889   2.300   3.061   1.616  0.6527  0.3934 -1.3819
 5279SOL    MW420890   2.385   3.070   1.632  0.0375 -0.1183  0.1922
 5280SOL     OW20891   5.286   2.109   1.288  0.9717 -0.1851 -0.8560
 5280SOL    HW220892   5.246   2.073   1.209  0.4240  0.0872 -0.7062
 5280SOL    HW320893   5.332   2.036   1.327 -0.5637 -0.8777 -0.2720
 5280SOL    MW420894   5.287   2.095   1.282 -0.3252 -0.8347  0.1324
 5281SOL     OW20895   4.281   4.545   4.214  0.8230 -0.6405 -0.1032
 5281SOL    HW220896   4.368   4.585   4.219  0.1456  0.7778  1.4513
 5281SOL    HW320897   4.227   4.597   4.274 -1.2514 -1.1232 -1.4300
 5281SOL    MW420898   4.285   4.557   4.222 -0.6329  0.1336  0.1756
 5282SOL     OW20899   3.738   4.261   0.117  0.0260  0.3497  0.4033
 5282SOL    HW220900   3.663   4.234   0.064  0.4713  1.0577 -0.6302
 5282SOL    HW320901   3.709   4.342   0.159  0.0135  0.3232  0.4456
 5282SOL    MW420902   3.724   4.268   0.116 -0.0675 -0.1616 -0.2533
 5283SOL     OW20903   5.379   0.558   5.595  0.7683 -0.2994  0.1346
 5283SOL    HW220904   5.293   0.563   5.638  1.3279  0.7119  1.2171
 5283SOL    HW320905   5.359   0.543   5.503 -0.6122  0.5961  0.2472
 5283SOL    MW420906   5.365   0.557   5.589 -0.1793 -0.6696  0.2532
 5284SOL     OW20907   4.435   0.596   5.294  0.4274 -0.3631 -0.0121
 5284SOL    HW220908   4.429   0.679   5.245  0.8280 -0.1441  0.3086
 5284SOL    HW320909   4.519   0.559   5.269 -0.6375 -1.7628 -1.8407
 5284SOL    MW420910   4.445   0.602   5.284 -0.0291 -0.6155  0.0630
 5285SOL     OW20911   0.398   3.255   5.946 -0.0306  0.2558  0.1520
 5285SOL    HW220912   0.366   3.258   5.855 -1.1335  0.2849  0.5270
 5285SOL    HW320913   0.419   3.163   5.960  0.9246  0.3780 -0.3815
 5285SOL    MW420914   0.396   3.243   5.936 -0.0206  0.0467 -0.4844
 5286SOL     OW20915   0.510   4.090   2.567  0.2882 -0.3595 -0.1028
 5286SOL    HW220916   0.516   4.047   2.653 -1.5110 -1.3607 -0.4247
 5286SOL    HW320917   0.540   4.179   2.584 -1.6265  0.0031  2.0393
 5286SOL    MW420918   0.515   4.096   2.581 -0.0982  0.2741  0.0955
 5287SOL     OW20919   4.516   6.310   5.962  0.2535 -0.2837  0.2445
 5287SOL    HW220920   4.598   6.300   5.914  0.2749  0.7819  0.0208
 5287SOL    HW320921   4.497   6.404   5.956 -1.8199 -0.7246 -1.0780
 5287SOL    MW420922   4.524   6.321   5.955  0.6254  0.3922 -0.1736
 5288SOL     OW20923   0.020   4.255   0.418  0.6781 -0.4151  0.3426
 5288SOL    HW220924   0.092   4.317   0.429 -0.0682  0.3031  1.2591
 5288SOL    HW320925   0.017   4.238   0.323  0.6550  1.2430  0.0198
 5288SOL    MW420926   0.029   4.261   0.407 -0.3107 -0.0872  0.3483
 5289SOL     OW20927   5.799   1.311   3.763  0.1480 -0.8736 -0.2230
 5289SOL    HW220928   5.860   1.384   3.761 -0.0943 -0.6746 -0.3066
 5289SOL    HW320929   5.855   1.233   3.751  0.2638 -0.6179 -1.4815
 5289SOL    MW420930   5.815   1.310   3.761 -0.2445  0.3306 -0.0463
 5290SOL     OW20931   4.697   5.896   0.079 -0.2986  0.0262 -0.5815
 5290SOL    HW220932   4.656   5.880  -0.006  1.2139  0.9089 -1.5153
 5290SOL    HW320933   4.695   5.991   0.090 -1.6692 -0.1426  1.0159
 5290SOL    MW420934   4.691   5.906   0.069 -0.1483 -0.0339  0.5884
 5291SOL     OW20935   0.930   5.878   0.369  0.4932  0.4808 -0.2437
 5291SOL    HW220936   1.023   5.856   0.364  0.5067  0.6476 -0.8016
 5291SOL    HW320937   0.886   5.809   0.320  0.4587  1.2114 -1.2668
 5291SOL    MW420938   0.936   5.866   0.362 -0.1178 -0.2454  0.0228
 5292SOL     OW20939   3.470   5.062   3.521 -0.1114  0.4306 -0.2540
 5292SOL    HW220940   3.410   5.005   3.472 -1.0840 -0.1203  1.4864
 5292SOL    HW320941   3.437   5.060   3.610 -0.3721  4.0490 -0.1477
 5292SOL    MW420942   3.458   5.054   3.526 -0.1880 -0.4013  0.1023
 5293SOL     OW20943   2.826   4.726   2.660  0.3884 -0.3691 -0.0700
 5293SOL    HW220944   2.881   4.648   2.663 -2.1864 -2.3338  0.0008
 5293SOL    HW320945   2.840   4.769   2.745  1.8965 -0.6837 -0.1356
 5293SOL    MW420946   2.835   4.721   2.672  0.1398 -0.4630  0.0809
 5294SOL     OW20947   4.614   1.061   5.147 -0.8021  0.3493  0.6274
 5294SOL    HW220948   4.600   1.155   5.137  1.5845  0.5517 -2.2870
 5294SOL    HW320949   4.662   1.053   5.229 -1.2984  1.6094  1.0730
 5294SOL    MW420950   4.618   1.072   5.156 -0.2299  0.4751  0.0423
 5295SOL     OW20951   0.841   3.607   5.389 -0.0271 -0.2011 -0.5595
 5295SOL    HW220952   0.857   3.676   5.324  3.5183 -0.7174 -0.4330
 5295SOL    HW320953   0.770   3.641   5.443  0.7998  2.8750 -1.2095
 5295SOL    MW420954   0.834   3.621   5.387 -0.2536 -0.4698 -0.0396
 5296SOL     OW20955   1.833   4.314   6.005 -0.4209  0.0200 -0.0660
 5296SOL    HW220956   1.869   4.228   6.027 -0.7961 -0.0925  0.1297
 5296SOL    HW320957   1.745   4.295   5.970 -0.2109  0.2688 -0.7524
 5296SOL    MW420958   1.826   4.300   6.003  0.2589  0.3512 -0.7394
 5297SOL     OW20959   3.749   6.403   3.317  0.1508  0.3244  0.5985
 5297SOL    HW220960   3.693   6.472   3.351  0.1250  0.4624  0.2838
 5297SOL    HW320961   3.704   6.373   3.238 -0.0710 -0.3656  0.9809
 5297SOL    MW420962   3.736   6.408   3.311  0.2473 -0.4129  0.3169
 5298SOL     OW20963   3.763   1.521   6.284 -0.1364 -0.3568  0.2307
 5298SOL    HW220964   3.781   1.614   6.267  0.5797 -0.9601 -2.9021
 5298SOL    HW320965   3.691   1.499   6.225  1.5929 -2.3891 -1.3104
 5298SOL    MW420966   3.756   1.530   6.274  0.0020  0.9161 -0.5420
 5299SOL     OW20967   0.342   3.445   3.335  0.5297 -0.2398 -0.5995
 5299SOL    HW220968   0.387   3.371   3.294 -0.5623 -0.5218 -1.3148
 5299SOL    HW320969   0.336   3.510   3.265 -2.1807 -1.0765 -1.2648
 5299SOL    MW420970   0.347   3.444   3.320  0.0446 -0.6231  0.4121
 5300SOL     OW20971   0.067   0.712   2.984  0.5250  0.1784 -0.0337
 5300SOL    HW220972   0.002   0.767   2.939  0.8449 -0.1126 -0.8703
 5300SOL    HW320973   0.091   0.645   2.920  1.0367 -0.2173  0.5557
 5300SOL    MW420974   0.062   0.710   2.970  0.3313  0.0635 -0.1433
 5301SOL     OW20975   3.313   5.305   4.409  0.1608 -0.3298 -0.3642
 5301SOL    HW220976   3.396   5.343   4.378  0.6668  0.4140  1.7449
 5301SOL    HW320977   3.312   5.217   4.373  1.4511 -0.0530 -1.1445
 5301SOL    MW420978   3.324   5.299   4.400 -0.0515 -0.1153 -0.2682
 5302SOL     OW20979   0.821   2.702   6.076  0.4199  0.9061 -0.3004
 5302SOL    HW220980   0.794   2.696   6.168 -0.3253  0.1638 -0.5527
 5302SOL    HW320981   0.881   2.628   6.064 -0.6948  0.0284 -0.7788
 5302SOL    MW420982   0.825   2.691   6.086 -0.1776 -0.0818  0.0977
 5303SOL     OW20983   3.134   4.676   5.697 -0.5287 -0.0780 -0.1307
 5303SOL    HW220984   3.219   4.646   5.730 -0.3266  2.9837  2.6629
 5303SOL    HW320985   3.153   4.761   5.658 -2.0213 -0.3797 -1.5756
 5303SOL    MW420986   3.148   4.683   5.696  0.6900  0.3578  0.2653
 5304SOL     OW20987   5.671   2.366   4.801  0.2411  0.3953  0.3493
 5304SOL    HW220988   5.583   2.348   4.770  0.2907 -0.6933  0.7981
 5304SOL    HW320989   5.729   2.329   4.733  0.3624  1.0544  0.0834
 5304SOL    MW420990   5.667   2.358   4.788 -0.2400  0.4844 -0.0022
 5305SOL     OW20991   0.984   3.805   3.513  0.0660 -0.1602 -0.0941
 5305SOL    HW220992   0.940   3.874   3.464 -0.3323 -0.0008  0.4657
 5305SOL    HW320993   0.916   3.772   3.573  0.6302 -0.0962  0.5959
 5305SOL    MW420994   0.969   3.810   3.515 -0.1619 -0.0766  0.0293
 5306SOL     OW20995   2.615   0.965   0.325  0.2983 -1.2966  0.1054
 5306SOL    HW220996   2.681   0.914   0.277 -0.0376 -0.9423 -0.7518
 5306SOL    HW320997   2.543   0.903   0.340  0.0007 -1.1561 -0.7052
 5306SOL    MW420998   2.614   0.950   0.321  0.1350  0.1248  0.0278
 5307SOL     OW20999   6.374   0.698   0.683 -0.1235  0.3121 -0.6701
 5307SOL    HW221000   6.454   0.651   0.709  0.5624  0.9232 -1.5931
 5307SOL    HW321001   6.332   0.722   0.765  1.1739  0.8476 -0.1275
 5307SOL    MW421002   6.379   0.695   0.697 -0.4447  0.3989  0.4404
 5308SOL     OW21003   3.095   0.345   3.119  0.1529  0.1600 -0.0081
 5308SOL    HW221004   3.081   0.327   3.027 -0.3405  0.0054  0.0930
 5308SOL    HW321005   3.101   0.259   3.161 -0.7052  0.2196  0.2556
 5308SOL    MW421006   3.094   0.332   3.113  0.6110 -0.2502 -0.1222
 5309SOL     OW21007   1.599   5.421   1.820  1.0867 -0.5272  0.2574
 5309SOL    HW221008   1.578   5.508   1.784 -3.1445 -1.5987 -0.4068
 5309SOL    HW321009   1.635   5.373   1.746  0.2935 -0.2731 -0.3103
 5309SOL    MW421010   1.601   5.426   1.805 -0.7034  0.6112  0.0003
 5310SOL     OW21011   3.041   6.048   5.983  0.2622  0.3733 -0.2662
 5310SOL    HW221012   3.072   5.958   5.983 -1.4492 -0.2747  0.8891
 5310SOL    HW321013   3.113   6.099   6.020  1.5723 -0.3494 -1.7209
 5310SOL    MW421014   3.055   6.043   5.988  0.0392  0.5649  0.2771
 5311SOL     OW21015   1.406   2.596   1.314  0.1187 -0.6079 -0.4155
 5311SOL    HW221016   1.470   2.667   1.320 -0.8638  0.3340 -0.7178
 5311SOL    HW321017   1.458   2.518   1.294  1.2172  0.0298 -0.1290
 5311SOL    MW421018   1.421   2.595   1.312  0.9020  0.0050 -0.1483
 5312SOL     OW21019   6.380   4.427   0.938  0.2559  1.0594  0.0989
 5312SOL    HW221020   6.401   4.462   0.851  2.4045  0.3648  0.2777
 5312SOL    HW321021   6.455   4.451   0.992  0.3653 -1.0929  0.9986
 5312SOL    MW421022   6.392   4.435   0.933  0.3056  0.4329 -0.3402
 5313SOL     OW21023   1.332   2.850   1.763 -0.1351 -0.4516 -0.4413
 5313SOL    HW221024   1.407   2.810   1.718  0.8168  0.2761  0.4406
 5313SOL    HW321025   1.367   2.878   1.847 -0.9600  1.4243 -0.6638
 5313SOL    MW421026   1.347   2.849   1.768  0.0110 -0.3179 -0.6729
 5314SOL     OW21027   1.000   0.537   0.058  0.0944 -0.3579 -0.3642
 5314SOL    HW221028   1.055   0.576   0.126 -0.4604  0.0866 -0.1548
 5314SOL    HW321029   1.000   0.602  -0.013 -1.8505  0.6808  0.4881
 5314SOL    MW421030   1.007   0.551   0.058 -0.0713 -0.0197  0.0218
 5315SOL     OW21031   2.954   4.701   4.008 -0.1084 -0.1289  0.3041
 5315SOL    HW221032   2.926   4.722   3.920  0.6671 -2.2244 -0.5144
 5315SOL    HW321033   3.049   4.712   4.006 -0.2163  1.1461  1.2985
 5315SOL    MW421034   2.963   4.705   3.996 -0.1757  0.3645  0.8082
 5316SOL     OW21035   5.801   1.643   1.891 -0.4601  0.4073 -0.0981
 5316SOL    HW221036   5.824   1.593   1.969  1.2451  2.3370  0.7379
 5316SOL    HW321037   5.837   1.592   1.818 -0.0325 -0.2774  0.5814
 5316SOL    MW421038   5.809   1.630   1.892  0.5208  0.0283 -0.2591
 5317SOL     OW21039   4.090   0.486   3.918 -0.1646 -0.2604  0.4810
 5317SOL    HW221040   4.105   0.417   3.854  0.6467  0.5252 -0.2052
 5317SOL    HW321041   4.079   0.566   3.865 -1.0308  0.1441  1.2545
 5317SOL    MW421042   4.091   0.488   3.903  0.5103  0.1307  0.3420
 5318SOL     OW21043   0.779   0.891   4.715  0.3488  0.2734  0.5980
 5318SOL    HW221044   0.821   0.951   4.776  0.6361  0.1099  0.5598
 5318SOL    HW321045   0.850   0.836   4.682  0.4491  1.3091 -1.0017
 5318SOL    MW421046   0.794   0.892   4.719  0.1681 -0.6635  0.7759
 5319SOL     OW21047   0.789   2.688   4.122 -0.3197 -0.2235 -0.0777
 5319SOL    HW221048   0.841   2.714   4.047 -0.9996  2.4629  0.2411
 5319SOL    HW321049   0.751   2.604   4.099  1.2397 -0.4912 -1.7983
 5319SOL    MW421050   0.791   2.681   4.109 -0.0161 -0.0221 -0.3236
 5320SOL     OW21051   4.106   1.650   2.117  0.0639 -0.2152 -0.1398
 5320SOL    HW221052   4.126   1.662   2.025  2.4426  0.7649  0.4329
 5320SOL    HW321053   4.124   1.558   2.134  0.6315 -0.1629 -0.4407
 5320SOL    MW421054   4.111   1.640   2.107 -0.7764  0.7072 -0.1658
 5321SOL     OW21055   2.044   1.132   1.945 -0.0025  0.0427  0.4449
 5321SOL    HW221056   2.002   1.120   2.029 -1.3613 -0.6016 -0.2925
 5321SOL    HW321057   2.101   1.208   1.957 -1.7581  1.2784  1.3498
 5321SOL    MW421058   2.046   1.140   1.957  0.2450 -0.1583 -0.2031
 5322SOL     OW21059   1.071   3.328   3.489  0.7680 -0.3158 -0.3975
 5322SOL    HW221060   1.123   3.252   3.463  1.1994  0.1311 -0.8789
 5322SOL    HW321061   1.116   3.363   3.566  0.0224 -1.0944  0.4168
 5322SOL    MW421062   1.084   3.323   3.495 -0.3526 -0.0738 -0.2750
 5323SOL     OW21063   3.604   6.215   0.551  0.1273 -0.0007  0.0862
 5323SOL    HW221064   3.624   6.308   0.552  0.6659 -0.1168  0.8385
 5323SOL    HW321065   3.684   6.174   0.517 -0.4418 -0.1263 -1.1623
 5323SOL    MW421066   3.618   6.222   0.546 -0.4885  0.6586 -0.1852
 5324SOL     OW21067   5.281   1.875   0.724  0.0880  1.4089  0.3945
 5324SOL    HW221068   5.187   1.887   0.737  0.2137  1.4951  1.2651
 5324SOL    HW321069   5.300   1.788   0.758 -0.5641 -1.0857 -4.6703
 5324SOL    MW421070   5.271   1.865   0.730  0.6208  0.1064 -0.2753
 5325SOL     OW21071   4.693   4.659   4.681  0.0545  0.1813 -0.2920
 5325SOL    HW221072   4.615   4.616   4.646  0.4298 -2.4164  1.7980
 5325SOL    HW321073   4.663   4.702   4.761  0.3918  1.0006 -0.5906
 5325SOL    MW421074   4.679   4.659   4.687  0.2321  0.1657  0.3511
 5326SOL     OW21075   2.230   6.026   4.646  0.0084 -0.2151  0.3345
 5326SOL    HW221076   2.251   5.948   4.697  0.7134  0.9123  1.8616
 5326SOL    HW321077   2.210   6.093   4.712 -1.3326  0.7006 -0.9428
 5326SOL    MW421078   2.230   6.024   4.661  0.4720  0.5769  0.2669
 5327SOL     OW21079   1.763   6.154   3.214 -0.9190 -0.0804  0.0587
 5327SOL    HW221080   1.688   6.173   3.157 -0.5237 -0.2043 -0.5122
 5327SOL    HW321081   1.839   6.157   3.155 -0.3829  0.7649  0.7577
 5327SOL    MW421082   1.763   6.157   3.198 -0.6474  0.4600  0.2307
 5328SOL     OW21083   5.908   2.800   2.269 -0.3354  0.5073 -0.0589
 5328SOL    HW221084   5.948   2.886   2.277  1.5988 -0.4854  1.8071
 5328SOL    HW321085   5.932   2.770   2.181  1.1044  0.8868  0.1840
 5328SOL    MW421086   5.916   2.808   2.258 -0.2707 -0.6603 -0.1017
 5329SOL     OW21087   4.266   3.167   5.025 -0.4229  0.5210  0.4612
 5329SOL    HW221088   4.222   3.105   4.967 -2.0452  1.4600  0.6447
 5329SOL    HW321089   4.340   3.199   4.974 -1.6242  1.0872 -0.9853
 5329SOL    MW421090   4.270   3.163   5.011  0.2805  0.4870 -0.3515
 5330SOL     OW21091   3.270   3.644   3.834  0.5884  0.2696 -0.4775
 5330SOL    HW221092   3.234   3.654   3.746 -0.0622  0.3277 -0.2148
 5330SOL    HW321093   3.245   3.725   3.879 -0.6271 -0.4957  0.2750
 5330SOL    MW421094   3.262   3.656   3.828  0.5974 -0.0028 -0.0748
 5331SOL     OW21095   2.651   2.328   4.466 -0.2211  0.3380  0.0911
 5331SOL    HW221096   2.603   2.305   4.386 -3.2045 -0.0995  1.8574
 5331SOL    HW321097   2.662   2.244   4.511  2.0095  0.4853 -0.0821
 5331SOL    MW421098   2.646   2.314   4.461 -0.0213  0.4290 -0.3167
 5332SOL     OW21099   0.981   5.599   0.788  0.3741  0.4550  0.4067
 5332SOL    HW221100   1.042   5.530   0.759 -0.3813 -0.8277  1.7234
 5332SOL    HW321101   0.959   5.647   0.708  2.0202  0.0644 -0.3152
 5332SOL    MW421102   0.986   5.596   0.773 -0.1765  0.0579  0.6668
 5333SOL     OW21103   2.963   5.571   0.661  0.1118  0.8197 -0.1995
 5333SOL    HW221104   2.932   5.633   0.594  1.4056 -0.6699 -2.2735
 5333SOL    HW321105   2.898   5.500   0.659  0.8642  0.1325 -0.8835
 5333SOL    MW421106   2.950   5.570   0.651 -0.1738 -0.3083  0.0757
 5334SOL     OW21107   2.779   4.317   1.121  0.0883 -0.3814 -0.8528
 5334SOL    HW221108   2.772   4.235   1.072  1.2900 -0.1262 -1.5095
 5334SOL    HW321109   2.695   4.327   1.165  0.0084 -2.0806 -0.5705
 5334SOL    MW421110   2.767   4.308   1.120  0.0474 -0.4707  0.6726
 5335SOL     OW21111   1.642   3.986   2.828 -0.1294  0.1778 -0.0645
 5335SOL    HW221112   1.583   4.037   2.883 -1.2656 -0.7011 -0.4445
 5335SOL    HW321113   1.610   3.896   2.834 -0.7625  0.1564 -2.7450
 5335SOL    MW421114   1.630   3.981   2.836  0.1074 -0.0664 -0.2775
 5336SOL     OW21115   4.955   4.990   3.124  0.2744  0.4343 -0.1199
 5336SOL    HW221116   4.938   4.985   3.029 -0.5673 -0.1357  0.0473
 5336SOL    HW321117   4.938   4.902   3.156  0.0264  0.7529  0.6438
 5336SOL    MW421118   4.950   4.978   3.116  0.3917  0.7918  0.1620
 5337SOL     OW21119   6.003   4.740   5.244 -0.1024  0.1409 -0.2326
 5337SOL    HW221120   5.955   4.736   5.162 -0.2573  1.0856 -0.2013
 5337SOL    HW321121   5.977   4.824   5.283  1.7105  0.7893 -0.3120
 5337SOL    MW421122   5.993   4.751   5.238  0.1667 -0.1698  0.4988
 5338SOL     OW21123   5.267   4.862   5.274 -0.3473 -0.5264 -0.4040
 5338SOL    HW221124   5.264   4.767   5.288 -0.4858 -0.9050 -2.7023
 5338SOL    HW321125   5.278   4.898   5.362 -2.9838 -2.5198  0.8918
 5338SOL    MW421126   5.268   4.854   5.288 -0.5994 -0.2417  0.3627
 5339SOL     OW21127   1.631   4.617   4.037 -0.3990  0.4165  0.3022
 5339SOL    HW221128   1.580   4.536   4.039 -0.0601  0.2123  1.1091
 5339SOL    HW321129   1.709   4.597   4.089  1.6432 -0.0145 -2.6715
 5339SOL    MW421130   1.634   4.603   4.044 -0.4132  0.3873  0.5667
 5340SOL     OW21131   5.867   4.253   5.993 -0.0418 -0.3143 -0.8902
 5340SOL    HW221132   5.953   4.218   6.017 -0.2906  0.2452  0.9658
 5340SOL    HW321133   5.824   4.181   5.947  0.0219 -1.9762  1.4951
 5340SOL    MW421134   5.873   4.239   5.990 -0.1722  1.0138 -0.5580
 5341SOL     OW21135   4.734   2.507   6.034  0.0083 -0.0226 -0.1492
 5341SOL    HW221136   4.718   2.528   6.126  1.3582 -0.2113  0.1539
 5341SOL    HW321137   4.683   2.571   5.985  0.4133  1.0071  0.7468
 5341SOL    MW421138   4.725   2.518   6.040 -0.7124 -0.3054  0.4833
 5342SOL     OW21139   5.298   2.970   4.084 -0.6495  0.2657 -0.0899
 5342SOL    HW221140   5.244   2.909   4.135 -0.0093  0.1105  0.4064
 5342SOL    HW321141   5.290   3.053   4.130  0.3786 -0.0043  0.6030
 5342SOL    MW421142   5.289   2.973   4.097 -0.2046 -0.0915  0.2094
 5343SOL     OW21143   3.265   2.816   1.191  0.6774 -0.2941  0.2639
 5343SOL    HW221144   3.239   2.741   1.245  0.3913  0.0688  0.6404
 5343SOL    HW321145   3.182   2.854   1.163  0.8076 -1.0762 -1.2961
 5343SOL    MW421146   3.250   2.811   1.195  0.0080 -0.7054  0.1514
 5344SOL     OW21147   4.642   2.200   6.017 -0.1661  0.1139 -0.1790
 5344SOL    HW221148   4.636   2.247   6.100 -1.5311  0.0821 -0.2315
 5344SOL    HW321149   4.665   2.110   6.041 -0.2446  0.1817  0.1425
 5344SOL    MW421150   4.644   2.194   6.031  0.5249  1.1283  0.1709
 5345SOL     OW21151   2.604   3.012   0.138 -0.2399  0.7728 -0.1605
 5345SOL    HW221152   2.537   3.005   0.070  2.3444  0.6792 -2.9456
 5345SOL    HW321153   2.686   3.017   0.089  1.7867  1.2778  3.0193
 5345SOL    MW421154   2.606   3.011   0.122 -0.0548 -0.5974  0.4271
 5346SOL     OW21155   5.514   2.725   5.325  0.2376  0.7279 -0.3786
 5346SOL    HW221156   5.534   2.802   5.271 -0.9891 -0.1221 -2.1403
 5346SOL    HW321157   5.594   2.672   5.320 -0.2205  0.1262 -2.4099
 5346SOL    MW421158   5.527   2.728   5.317  0.0248 -0.0584 -0.5096
 5347SOL     OW21159   1.779   2.118   0.043 -0.0691 -0.4751 -0.3816
 5347SOL    HW221160   1.722   2.093  -0.029  0.9016  1.3824 -1.8734
 5347SOL    HW321161   1.725   2.173   0.099 -0.6474 -1.4058 -0.0070
 5347SOL    MW421162   1.764   2.122   0.041  0.8183  0.3076  0.2794
 5348SOL     OW21163   4.690   4.628   0.623  0.0941  0.2619 -0.5234
 5348SOL    HW221164   4.775   4.617   0.666 -0.0421 -0.9602 -0.5117
 5348SOL    HW321165   4.709   4.676   0.542  0.3456  2.6217  0.8657
 5348SOL    MW421166   4.703   4.633   0.618  0.4434  0.1572 -0.0315
 5349SOL     OW21167   2.288   4.243   6.389  0.7193 -0.1790  0.7542
 5349SOL    HW221168   2.306   4.219   6.480 -0.2023 -0.1830  0.9430
 5349SOL    HW321169   2.266   4.336   6.392 -3.2091 -0.9633  1.1723
 5349SOL    MW421170   2.287   4.252   6.402  0.9154 -0.1866 -0.9187
 5350SOL     OW21171   3.985   0.686   2.256 -0.6600  0.3202  0.3461
 5350SOL    HW221172   4.037   0.696   2.176 -0.2862 -0.3955  0.4912
 5350SOL    HW321173   4.020   0.607   2.297 -1.7495 -0.0838  0.5313
 5350SOL    MW421174   3.997   0.677   2.251 -0.6049 -0.3115 -0.2001
 5351SOL     OW21175   0.827   0.874   3.506  0.3775 -0.4183  0.1212
 5351SOL    HW221176   0.921   0.886   3.498  0.5648 -1.4491  0.5688
 5351SOL    HW321177   0.817   0.784   3.538 -0.7229 -0.0767  0.8025
 5351SOL    MW421178   0.838   0.864   3.509 -0.3847  0.3672 -0.0821
 5352SOL     OW21179   5.835   5.076   3.185 -0.0260  0.1325  0.3199
 5352SOL    HW221180   5.779   5.046   3.256  0.0691  0.0144  0.3453
 5352SOL    HW321181   5.924   5.056   3.214  0.0446  0.4944  0.3654
 5352SOL    MW421182   5.839   5.070   3.198  0.3996  0.0276 -0.4331
 5353SOL     OW21183   2.925   6.321   5.401 -0.3701  0.8382 -0.1945
 5353SOL    HW221184   2.857   6.271   5.446  0.6531 -0.7470 -0.3333
 5353SOL    HW321185   2.986   6.346   5.470  0.2193  0.0374 -0.4142
 5353SOL    MW421186   2.924   6.318   5.416  0.0091  0.4682  0.2212
 5354SOL     OW21187   1.565   2.671   0.869  0.0425  0.1725 -0.1873
 5354SOL    HW221188   1.514   2.737   0.821 -0.9300  1.6961  2.6967
 5354SOL    HW321189   1.656   2.696   0.855 -0.1971  0.4748 -1.3167
 5354SOL    MW421190   1.570   2.683   0.860  0.0585 -0.3054  0.2083
 5355SOL     OW21191   5.342   6.239   4.842 -0.0533 -0.0344  0.2819
 5355SOL    HW221192   5.345   6.332   4.865  1.2979 -0.4423  1.9243
 5355SOL    HW321193   5.285   6.200   4.908 -0.7893 -0.3567 -0.5306
 5355SOL    MW421194   5.335   6.246   4.854 -0.4482  0.4663 -0.1820
 5356SOL     OW21195   3.279   4.733   1.492 -0.0439 -0.5205 -0.2997
 5356SOL    HW221196   3.270   4.784   1.411  1.3609  1.4749  0.6938
 5356SOL    HW321197   3.192   4.734   1.531 -0.0361  1.3565 -0.2444
 5356SOL    MW421198   3.266   4.740   1.486 -0.2736 -0.1261 -0.2976
 5357SOL     OW21199   0.177   4.549   5.595 -0.3803 -0.9568 -0.2206
 5357SOL    HW221200   0.217   4.480   5.541 -1.2952 -0.3249 -1.7698
 5357SOL    HW321201   0.202   4.526   5.685  2.0484 -1.4918 -0.9489
 5357SOL    MW421202   0.185   4.537   5.600 -0.0378 -0.3019  0.2532
 5358SOL     OW21203   5.388   4.164   2.653  0.2676  0.0751  0.3313
 5358SOL    HW221204   5.430   4.121   2.578 -1.1349 -2.9555  1.1156
 5358SOL    HW321205   5.446   4.237   2.675  2.6583 -1.1627 -1.3886
 5358SOL    MW421206   5.401   4.168   2.646  0.0559 -0.3701  0.4537
 5359SOL     OW21207   1.203   3.971   5.855  0.4785 -0.4506 -0.5510
 5359SOL    HW221208   1.258   4.042   5.821 -1.4597  0.6357 -1.5873
 5359SOL    HW321209   1.121   4.013   5.878 -1.0893 -2.4688 -2.0884
 5359SOL    MW421210   1.200   3.986   5.853  0.1915  0.5236  0.5969
 5360SOL     OW21211   3.785   1.344   2.083 -0.0060  0.4267 -0.0026
 5360SOL    HW221212   3.710   1.337   2.024 -0.6176  1.8374  0.5652
 5360SOL    HW321213   3.861   1.344   2.025 -0.5889  1.8287 -0.8236
 5360SOL    MW421214   3.785   1.343   2.068  0.0308 -0.0827 -0.2958
 5361SOL     OW21215   5.635   0.019   3.630 -0.8671  0.0731 -0.0359
 5361SOL    HW221216   5.601   0.038   3.717 -1.0550  0.6521 -0.2302
 5361SOL    HW321217   5.583  -0.055   3.599 -1.0885  0.1407  0.1742
 5361SOL    MW421218   5.624   0.012   3.637  0.5324  0.5568 -0.2198
 5362SOL     OW21219   6.403   2.438   5.786  0.0048  0.5291 -0.0200
 5362SOL    HW221220   6.378   2.527   5.764  0.1507  0.6424  0.2672
 5362SOL    HW321221   6.376   2.386   5.710  0.0971  0.8427 -0.2684
 5362SOL    MW421222   6.396   2.443   5.773 -0.2409 -0.2720 -0.2362
 5363SOL     OW21223   4.832   4.539   3.794  0.3855 -0.3381  0.1071
 5363SOL    HW221224   4.805   4.621   3.751  0.6661 -0.5000 -0.3847
 5363SOL    HW321225   4.774   4.532   3.869  0.1781  0.1802  0.0051
 5363SOL    MW421226   4.821   4.549   3.798 -0.2025  0.5051 -0.4797
 5364SOL     OW21227   5.113   2.785   5.813 -0.0298 -0.4558  0.0733
 5364SOL    HW221228   5.035   2.749   5.769 -0.1241  1.9835 -2.0125
 5364SOL    HW321229   5.097   2.880   5.816  0.7350 -0.2854  4.1206
 5364SOL    MW421230   5.100   2.793   5.807 -0.1540 -0.3452 -0.0090
 5365SOL     OW21231   1.568   1.711   5.821  0.0834 -0.3085 -0.0851
 5365SOL    HW221232   1.594   1.774   5.754  1.4304 -0.7821 -0.0406
 5365SOL    HW321233   1.516   1.645   5.774 -0.5436  0.3297 -0.3007
 5365SOL    MW421234   1.564   1.711   5.806  0.3188 -0.5111  0.3383
 5366SOL     OW21235   4.843   6.202   2.326 -0.3051  0.3200 -0.2256
 5366SOL    HW221236   4.911   6.182   2.391 -0.1314  1.2954 -0.0977
 5366SOL    HW321237   4.880   6.170   2.243 -0.6138 -1.1118  0.1699
 5366SOL    MW421238   4.857   6.195   2.323 -0.2763 -0.1531 -0.0158
 5367SOL     OW21239   1.485   2.204   2.455  0.3136  0.8152  0.1535
 5367SOL    HW221240   1.539   2.255   2.395  0.2475 -0.5073 -1.0725
 5367SOL    HW321241   1.417   2.165   2.400 -0.7392  0.8669  1.3566
 5367SOL    MW421242   1.483   2.206   2.440 -0.4318 -0.0031 -0.1027
 5368SOL     OW21243   4.851   0.740   0.482  0.1004 -0.2003  0.2277
 5368SOL    HW221244   4.794   0.702   0.549  1.3681 -0.1872  1.3549
 5368SOL    HW321245   4.932   0.689   0.487  0.6827  0.6321 -0.4071
 5368SOL    MW421246   4.854   0.728   0.492  0.6722 -0.1657 -0.1140
 5369SOL     OW21247   1.278   3.301   0.158 -0.2027 -0.1304  0.8611
 5369SOL    HW221248   1.343   3.370   0.150  0.0858 -0.0610  3.1972
 5369SOL    HW321249   1.280   3.256   0.073  0.0629  2.2628 -0.4878
 5369SOL    MW421250   1.287   3.304   0.146 -0.9264  0.0495  0.1390
 5370SOL     OW21251   0.452   2.909   3.104 -0.0104 -0.0785  0.1623
 5370SOL    HW221252   0.534   2.939   3.063  0.1400 -1.5853 -0.6963
 5370SOL    HW321253   0.477   2.883   3.193  0.1646  0.7638  0.3674
 5370SOL    MW421254   0.467   2.910   3.110 -0.1112  0.1905  0.6649
 5371SOL     OW21255   3.682   0.142   5.570  0.2143 -0.4407 -0.5769
 5371SOL    HW221256   3.692   0.197   5.492 -1.8824  0.8649  0.0010
 5371SOL    HW321257   3.635   0.065   5.539  0.0629 -0.2840 -0.7409
 5371SOL    MW421258   3.677   0.139   5.555 -0.3898 -0.3224 -0.4011
 5372SOL     OW21259   6.233   0.186   0.512 -0.2866  0.3481  0.2522
 5372SOL    HW221260   6.251   0.280   0.518 -1.9696  0.6312  1.6362
 5372SOL    HW321261   6.194   0.175   0.426  0.5238  0.7777 -0.1895
 5372SOL    MW421262   6.230   0.197   0.501 -0.3468  0.0263 -0.2161
 5373SOL     OW21263   0.592   0.140   5.443  0.1001 -0.3077  0.0546
 5373SOL    HW221264   0.541   0.144   5.524  0.3753  0.1270  0.2115
 5373SOL    HW321265   0.633   0.054   5.445  1.4198  0.3030  1.2053
 5373SOL    MW421266   0.591   0.129   5.454  0.1317  0.1803 -0.0941
 5374SOL     OW21267   3.483   3.070   3.776  0.0977  0.1545 -0.5398
 5374SOL    HW221268   3.566   3.074   3.729 -0.1068 -1.3227 -1.0613
 5374SOL    HW321269   3.486   3.145   3.836  1.1471  0.9945 -1.6022
 5374SOL    MW421270   3.494   3.081   3.778  1.1124 -0.5570  0.3770
 5375SOL     OW21271   5.120   6.410   2.258 -0.3058  0.1046 -0.2162
 5375SOL    HW221272   5.095   6.321   2.281 -0.2051  0.4311  1.2659
 5375SOL    HW321273   5.066   6.465   2.315 -0.0323  0.9687 -0.7808
 5375SOL    MW421274   5.110   6.406   2.269 -0.1486 -0.0186 -0.0025
 5376SOL     OW21275   3.745   0.307   2.970 -0.0074  0.1733 -0.4923
 5376SOL    HW221276   3.764   0.353   2.888  1.9080 -1.5417 -1.0678
 5376SOL    HW321277   3.714   0.221   2.943  2.6511 -1.2078  0.4753
 5376SOL    MW421278   3.743   0.302   2.956  0.3604 -0.0198 -0.3909
 5377SOL     OW21279   1.503   0.652   4.074  0.4800  0.5793  0.4279
 5377SOL    HW221280   1.580   0.707   4.062  0.4389  0.5708  0.0924
 5377SOL    HW321281   1.485   0.655   4.168 -0.4245  2.3945  0.2477
 5377SOL    MW421282   1.511   0.660   4.085 -0.3846  0.0314  0.1510
 5378SOL     OW21283   1.244   4.937   4.186  0.2328 -0.0822  0.2942
 5378SOL    HW221284   1.280   4.944   4.275 -1.4801  0.2539  1.0072
 5378SOL    HW321285   1.216   4.845   4.179  0.2914 -0.0876  0.1373
 5378SOL    MW421286   1.245   4.926   4.197 -0.7652  0.3776 -0.9746
 5379SOL     OW21287   4.496   1.789   4.191  0.2835  0.7643 -0.3422
 5379SOL    HW221288   4.519   1.706   4.233  0.2565 -0.2990 -2.2707
 5379SOL    HW321289   4.457   1.762   4.107  2.3021  2.7208 -2.0329
 5379SOL    MW421290   4.494   1.774   4.185 -0.9136  0.1018 -0.0316
 5380SOL     OW21291   2.818   2.080   0.391 -0.0515 -0.6194 -0.1576
 5380SOL    HW221292   2.770   1.998   0.378  0.6072 -1.0308 -0.0485
 5380SOL    HW321293   2.888   2.077   0.325  0.7796 -0.7706  0.7105
 5380SOL    MW421294   2.821   2.069   0.380 -0.5430 -0.0044 -0.3127
 5381SOL     OW21295   1.417   3.444   1.555 -0.0021 -0.2985 -0.4419
 5381SOL    HW221296   1.475   3.372   1.531  1.3337  0.7336 -0.3942
 5381SOL    HW321297   1.331   3.403   1.565  0.6165 -1.7802 -0.9694
 5381SOL    MW421298   1.413   3.429   1.553  0.3699 -0.0398  0.0828
 5382SOL     OW21299   2.085   5.867   5.533  0.2106 -0.5035 -1.0355
 5382SOL    HW221300   2.043   5.820   5.605  1.1822  0.4242  0.2070
 5382SOL    HW321301   2.074   5.960   5.556  2.4690 -0.2090 -0.8583
 5382SOL    MW421302   2.078   5.873   5.546  0.1792 -0.0025  0.3115
 5383SOL     OW21303   5.180   5.980   6.120 -0.2199  0.1931  0.3702
 5383SOL    HW221304   5.085   5.969   6.113 -0.0457 -1.1467 -0.1751
 5383SOL    HW321305   5.206   5.915   6.186  0.4457 -0.1921 -0.2684
 5383SOL    MW421306   5.171   5.970   6.128  0.1381  0.3493  0.3248
 5384SOL     OW21307   3.547   2.039   3.972 -0.7056 -0.0881  0.3889
 5384SOL    HW221308   3.486   2.002   3.908 -0.9959 -0.1752  0.7090
 5384SOL    HW321309   3.625   1.983   3.966 -0.3106  0.5406 -0.6270
 5384SOL    MW421310   3.549   2.027   3.963  0.2691  0.0233 -0.2724
 5385SOL     OW21311   3.825   2.099   0.470  0.0913  0.5040 -0.1289
 5385SOL    HW221312   3.814   2.133   0.381  0.5185  0.1462 -0.3246
 5385SOL    HW321313   3.798   2.170   0.527 -0.1225  0.7606 -0.5490
 5385SOL    MW421314   3.820   2.113   0.466  0.2040  0.1275  0.2246
 5386SOL     OW21315   2.641   0.809   1.220  0.2733  0.6220  0.1826
 5386SOL    HW221316   2.570   0.746   1.233  1.9933 -1.4589  0.1092
 5386SOL    HW321317   2.678   0.822   1.307  0.5868  0.6909  0.0405
 5386SOL    MW421318   2.637   0.802   1.233 -0.0579  0.0280 -0.1149
 5387SOL     OW21319   3.557   2.800   2.837 -0.4902 -0.5138 -0.2201
 5387SOL    HW221320   3.568   2.718   2.790 -0.3583 -0.1331 -0.8738
 5387SOL    HW321321   3.627   2.856   2.804 -1.5102  0.3766 -0.9534
 5387SOL    MW421322   3.567   2.797   2.827  0.2509 -0.2297 -0.0519
 5388SOL     OW21323   3.092   3.636   5.096 -0.2792 -0.5597 -0.1884
 5388SOL    HW221324   3.109   3.620   5.189 -0.3937  0.0356 -0.0575
 5388SOL    HW321325   3.138   3.565   5.051  1.4212  0.2234  0.2213
 5388SOL    MW421326   3.101   3.624   5.102  0.4948 -0.1924  0.6838
 5389SOL     OW21327   1.884   4.574   4.638 -0.8343 -0.1556 -0.3273
 5389SOL    HW221328   1.832   4.651   4.662 -0.1812 -0.1955  1.3892
 5389SOL    HW321329   1.879   4.517   4.715  0.6225 -0.7560 -0.6501
 5389SOL    MW421330   1.876   4.577   4.651 -0.6725  0.0830  0.5921
 5390SOL     OW21331   0.929   1.035   5.935  0.4688 -0.0714 -0.4986
 5390SOL    HW221332   0.919   1.066   6.025  0.5931 -1.9363  0.2066
 5390SOL    HW321333   0.840   1.014   5.907  0.3873  0.8486 -0.9628
 5390SOL    MW421334   0.916   1.037   5.943  0.3364 -0.0806 -0.0278
 5391SOL     OW21335   2.969   6.256   2.124 -0.7620  0.0942  0.8989
 5391SOL    HW221336   2.972   6.348   2.150  1.0550  0.3574 -0.0684
 5391SOL    HW321337   2.942   6.258   2.032  1.8943 -0.0472  0.0187
 5391SOL    MW421338   2.966   6.269   2.115  0.0106  0.5647 -0.1571
 5392SOL     OW21339   0.346   0.348   3.006  0.1512  0.4887  0.2831
 5392SOL    HW221340   0.285   0.276   3.021  0.8333  0.0042  0.7858
 5392SOL    HW321341   0.317   0.388   2.924  0.4767 -1.1030 -0.6474
 5392SOL    MW421342   0.334   0.344   2.997  0.0405  0.8224 -0.4758
 5393SOL     OW21343   0.658   0.336   2.582  0.3671  0.2305 -0.0972
 5393SOL    HW221344   0.608   0.291   2.650  0.5721 -0.2276 -0.2525
 5393SOL    HW321345   0.715   0.396   2.630  0.2422  0.1798  0.1151
 5393SOL    MW421346   0.659   0.338   2.597  0.1225 -0.3779  0.5273
 5394SOL     OW21347   2.662   6.317   3.181  0.8891 -0.2207 -0.0709
 5394SOL    HW221348   2.648   6.404   3.219  0.8655 -0.6920  1.0600
 5394SOL    HW321349   2.594   6.307   3.115 -0.0666  0.0398  0.8489
 5394SOL    MW421350   2.651   6.327   3.178 -0.0642 -0.3918  0.1476
 5395SOL     OW21351   4.198   1.393   2.182 -0.2977  0.1906 -0.1167
 5395SOL    HW221352   4.178   1.346   2.263  1.2909 -1.6869 -0.7278
 5395SOL    HW321353   4.290   1.416   2.190  0.0689 -0.6344 -1.6589
 5395SOL    MW421354   4.207   1.390   2.193  0.5140  0.6204  0.3181
 5396SOL     OW21355   1.801   3.853   2.485 -0.5076  0.2273  0.2257
 5396SOL    HW221356   1.810   3.948   2.473  0.5798  0.0989 -0.1335
 5396SOL    HW321357   1.829   3.838   2.575  1.2071  0.0476 -0.3066
 5396SOL    MW421358   1.806   3.864   2.495  0.3632 -0.5329  0.2899
 5397SOL     OW21359   0.950   0.994   2.686  0.1595  0.4083  0.1840
 5397SOL    HW221360   0.972   1.056   2.754  0.3079  0.1724  0.3546
 5397SOL    HW321361   0.891   1.041   2.628  2.5663  1.7548 -1.3789
 5397SOL    MW421362   0.945   1.008   2.687 -0.0027 -0.0672  0.4563
 5398SOL     OW21363   2.865   6.345   2.608  0.0027 -0.4324 -0.0317
 5398SOL    HW221364   2.947   6.391   2.624  0.5175 -0.9800 -1.0324
 5398SOL    HW321365   2.856   6.286   2.683 -0.1809  0.5884  0.7681
 5398SOL    MW421366   2.875   6.343   2.620 -0.4210  0.1289 -0.0385
 5399SOL     OW21367   4.959   5.347   4.488 -0.2555 -0.0571 -0.0573
 5399SOL    HW221368   4.899   5.298   4.430 -0.1615  0.0503 -0.2458
 5399SOL    HW321369   5.005   5.279   4.537  0.7403 -0.2211 -1.1731
 5399SOL    MW421370   4.957   5.331   4.487  0.2783 -0.2470  0.0702
 5400SOL     OW21371   4.267   2.087   1.821  0.2096  0.2494 -0.1346
 5400SOL    HW221372   4.290   2.023   1.754 -2.6889 -1.8597  0.6493
 5400SOL    HW321373   4.286   2.043   1.904 -2.4342 -0.0048  0.4321
 5400SOL    MW421374   4.272   2.073   1.823 -0.6702 -0.1381  0.3555
 5401SOL     OW21375   2.383   2.652   2.998 -0.0106  0.6108 -0.0149
 5401SOL    HW221376   2.335   2.580   2.958  0.3255  1.5069 -2.1814
 5401SOL    HW321377   2.418   2.616   3.079  1.1069 -2.0239 -1.5453
 5401SOL    MW421378   2.381   2.638   3.003 -0.1104 -0.3508  0.2092
 5402SOL     OW21379   2.857   5.622   6.145 -1.0445 -0.3690 -0.1642
 5402SOL    HW221380   2.933   5.565   6.158 -1.2492 -0.7649 -0.6642
 5402SOL    HW321381   2.875   5.665   6.061 -1.1923 -0.1795 -0.0965
 5402SOL    MW421382   2.870   5.620   6.135  0.1031  0.2420  0.5869
 5403SOL     OW21383   0.974   0.316   3.027 -0.1278  0.3281  0.5510
 5403SOL    HW221384   0.889   0.272   3.025 -0.0369  0.1348  0.9202
 5403SOL    HW321385   0.952   0.408   3.040 -0.4233  0.7175 -2.1016
 5403SOL    MW421386   0.960   0.322   3.029  0.4082 -0.1867  0.3592
 5404SOL     OW21387   2.459   5.843   4.041 -0.5798  0.0440 -0.0945
 5404SOL    HW221388   2.368   5.815   4.039 -0.2127 -1.2858  0.5958
 5404SOL    HW321389   2.509   5.765   4.016  0.3244  1.1688 -2.1126
 5404SOL    MW421390   2.454   5.829   4.037 -1.1338 -0.8127  0.2871
 5405SOL     OW21391   3.514   4.127   6.411 -0.0013 -0.2432 -0.3915
 5405SOL    HW221392   3.484   4.097   6.497  0.5022 -0.9534 -0.4504
 5405SOL    HW321393   3.482   4.217   6.404 -2.5242 -1.0854 -0.6641
 5405SOL    MW421394   3.506   4.135   6.422  0.3394 -0.5284 -0.3705
 5406SOL     OW21395   6.260   4.673   4.365  0.4357 -0.3265 -0.0568
 5406SOL    HW221396   6.212   4.614   4.307 -0.3493  1.3122 -1.1323
 5406SOL    HW321397   6.225   4.653   4.452 -0.0294 -1.2319 -0.4328
 5406SOL    MW421398   6.249   4.663   4.369 -0.6315 -0.3695  0.0413
 5407SOL     OW21399   3.344   2.453   5.877  0.0343  0.5340 -0.0623
 5407SOL    HW221400   3.431   2.456   5.919 -0.4284 -0.7246  1.0566
 5407SOL    HW321401   3.327   2.543   5.851  2.2379  0.6268 -1.5209
 5407SOL    MW421402   3.354   2.465   5.879 -0.0881  0.6174  0.7704
 5408SOL     OW21403   3.945   6.016   2.460  0.3905  0.7737  0.0087
 5408SOL    HW221404   3.851   6.035   2.457  0.4398  0.9032 -0.9579
 5408SOL    HW321405   3.952   5.924   2.433  0.4521  0.3687  1.3054
 5408SOL    MW421406   3.933   6.006   2.456  0.0307  0.0954 -0.0050
 5409SOL     OW21407   1.072   1.148   3.319  0.0452  0.2395 -0.1336
 5409SOL    HW221408   1.031   1.182   3.398 -2.5382  3.8550 -2.6937
 5409SOL    HW321409   1.117   1.224   3.281  1.1007 -1.3135 -2.1926
 5409SOL    MW421410   1.073   1.162   3.324  0.3951  0.5861 -0.5304
 5410SOL     OW21411   2.392   0.090   1.940  0.3915 -0.0567 -0.5290
 5410SOL    HW221412   2.381   0.168   1.993 -1.3012 -0.8248  0.3284
 5410SOL    HW321413   2.308   0.079   1.895  0.5014 -1.4848 -0.4465
 5410SOL    MW421414   2.380   0.099   1.941 -0.0187 -0.2027  0.0049
 5411SOL     OW21415   1.807   5.534   4.210 -0.6368 -0.7924 -0.3412
 5411SOL    HW221416   1.737   5.537   4.276 -0.9601  0.0989 -0.7117
 5411SOL    HW321417   1.777   5.470   4.146  0.0629 -2.3149  0.7679
 5411SOL    MW421418   1.794   5.526   4.211 -0.2251 -0.5033 -0.0498
 5412SOL     OW21419   4.334   5.860   5.184 -0.1577  0.5252 -0.2787
 5412SOL    HW221420   4.404   5.807   5.223 -0.4489 -0.9314 -1.6269
 5412SOL    HW321421   4.379   5.914   5.118  0.0125  1.4063  0.5244
 5412SOL    MW421422   4.349   5.860   5.180 -0.1838 -0.2856  0.4315
 5413SOL     OW21423   4.248   3.753   6.178  0.2359 -0.0793  0.7098
 5413SOL    HW221424   4.296   3.817   6.125  2.3919 -1.8810  0.3425
 5413SOL    HW321425   4.265   3.669   6.136 -1.5647 -1.0644  1.8227
 5413SOL    MW421426   4.257   3.750   6.166 -0.0587  0.3978  0.0274
 5414SOL     OW21427   6.006   5.128   5.973  0.7596 -0.0561 -0.0835
 5414SOL    HW221428   5.971   5.169   5.894 -1.4928 -1.7786 -0.0680
 5414SOL    HW321429   6.091   5.092   5.946  0.0592 -0.5602 -1.7400
 5414SOL    MW421430   6.013   5.129   5.959  0.2718  0.2762  0.3023
 5415SOL     OW21431   1.149   1.635   0.376  0.1656  0.1410  0.0889
 5415SOL    HW221432   1.182   1.723   0.389  0.5698  0.4852 -2.6627
 5415SOL    HW321433   1.054   1.646   0.367  0.1535  0.2148  0.3067
 5415SOL    MW421434   1.141   1.648   0.377  0.3734 -0.2170 -0.1041
 5416SOL     OW21435   3.349   0.504   5.003  0.1672 -0.4464 -0.0152
 5416SOL    HW221436   3.436   0.477   5.030 -0.1575 -2.4927 -0.8057
 5416SOL    HW321437   3.322   0.438   4.938 -1.7262  0.4465 -0.2195
 5416SOL    MW421438   3.357   0.491   4.998  0.6933  0.3055 -0.0055
 5417SOL     OW21439   5.422   1.547   3.569  0.4294  0.0537  0.0586
 5417SOL    HW221440   5.401   1.462   3.609 -2.1041  1.0354  1.0433
 5417SOL    HW321441   5.362   1.608   3.611  2.2179  2.3930 -0.5805
 5417SOL    MW421442   5.411   1.544   3.580 -0.4874  0.2885 -0.4310
 5418SOL     OW21443   0.773   6.376   0.561 -0.1721  0.5619  0.3487
 5418SOL    HW221444   0.756   6.292   0.603 -1.3741  0.5647 -0.0927
 5418SOL    HW321445   0.868   6.385   0.562  0.0343 -1.2541 -0.4647
 5418SOL    MW421446   0.783   6.366   0.567  0.1052  0.6801 -0.2530
 5419SOL     OW21447   3.542   2.570   0.069 -0.0219 -0.4207 -0.3812
 5419SOL    HW221448   3.498   2.638   0.018  0.3791 -0.2872 -0.5554
 5419SOL    HW321449   3.475   2.538   0.130 -1.1260 -1.9917 -2.3051
 5419SOL    MW421450   3.528   2.575   0.070  0.2970 -0.1156  0.1604
 5420SOL     OW21451   2.567   6.048   3.172  0.7892 -0.1661  0.1768
 5420SOL    HW221452   2.631   5.977   3.162  1.2309  0.2647 -0.1057
 5420SOL    HW321453   2.620   6.127   3.182  0.3057  0.3209 -0.9592
 5420SOL    MW421454   2.583   6.049   3.172 -0.1296 -0.1188  0.1019
 5421SOL     OW21455   4.206   1.125   0.265 -0.0443  0.1818 -0.1406
 5421SOL    HW221456   4.291   1.131   0.222  0.2416 -1.0501  0.2079
 5421SOL    HW321457   4.147   1.174   0.208  0.2985 -1.4942 -2.0711
 5421SOL    MW421458   4.209   1.132   0.252  0.1514 -0.1651 -0.5244
 5422SOL     OW21459   4.157   0.172   0.511 -0.0999  0.0278  0.1827
 5422SOL    HW221460   4.176   0.265   0.521 -1.0347  0.2143  0.3712
 5422SOL    HW321461   4.086   0.155   0.573  0.0929 -0.8203  0.1843
 5422SOL    MW421462   4.150   0.182   0.520  0.3098 -0.0605  0.2049
 5423SOL     OW21463   4.704   0.331   0.212  0.2178 -0.2949  0.4286
 5423SOL    HW221464   4.620   0.291   0.236 -0.7573 -0.2366 -2.4129
 5423SOL    HW321465   4.754   0.259   0.174  1.2256 -0.1801  1.4964
 5423SOL    MW421466   4.699   0.317   0.210 -0.2286 -0.9472  0.1044
 5424SOL     OW21467   5.026   2.998   0.554 -0.5127 -0.4721  0.1196
 5424SOL    HW221468   4.943   3.045   0.551 -0.9301 -1.0243  1.6593
 5424SOL    HW321469   5.081   3.051   0.612  0.6805  0.5331 -1.8458
 5424SOL    MW421470   5.023   3.011   0.561 -0.3604  0.0689 -0.1386
 5425SOL     OW21471   4.562   1.149   4.827 -0.1881 -0.0295 -0.3818
 5425SOL    HW221472   4.605   1.080   4.878 -0.8336  1.1420  1.8795
 5425SOL    HW321473   4.630   1.216   4.816 -0.7397  0.8356  1.2326
 5425SOL    MW421474   4.577   1.149   4.832  0.2286 -0.5225  0.0273
 5426SOL     OW21475   5.322   1.550   4.485  0.2556  0.0568 -0.6397
 5426SOL    HW221476   5.304   1.456   4.487 -0.3871  0.1830  0.2408
 5426SOL    HW321477   5.416   1.557   4.502 -0.1162 -0.3576  2.2256
 5426SOL    MW421478   5.332   1.538   4.488  0.3132  0.4282 -0.9521
 5427SOL     OW21479   5.085   0.216   1.839  0.2577 -0.4814  0.3775
 5427SOL    HW221480   5.126   0.141   1.882 -0.5651 -0.3922  1.3696
 5427SOL    HW321481   5.158   0.269   1.808  0.8750 -0.9978  0.9118
 5427SOL    MW421482   5.100   0.213   1.841 -0.6687 -0.3940 -0.7076
 5428SOL     OW21483   0.228   0.155   1.020  0.0387 -0.0629  0.2731
 5428SOL    HW221484   0.215   0.091   0.950  0.5524  0.5985 -0.4489
 5428SOL    HW321485   0.248   0.103   1.097 -0.1345 -0.7932 -0.1707
 5428SOL    MW421486   0.229   0.140   1.021  0.2898 -0.1641 -0.0828
 5429SOL     OW21487   4.400   0.682   4.484  0.0994 -0.0613 -0.3182
 5429SOL    HW221488   4.372   0.622   4.415 -2.9810  0.2029  0.5110
 5429SOL    HW321489   4.459   0.630   4.538 -0.3417 -1.4728 -1.1231
 5429SOL    MW421490   4.404   0.667   4.482  0.3902  0.4282  0.5890
 5430SOL     OW21491   5.575   5.322   0.312  0.4665 -0.5271 -0.1017
 5430SOL    HW221492   5.505   5.258   0.317  0.8766 -1.0995 -1.3701
 5430SOL    HW321493   5.601   5.323   0.220  1.4460  0.3957  0.1621
 5430SOL    MW421494   5.569   5.314   0.301 -0.4237  0.4584 -0.1559
 5431SOL     OW21495   1.370   3.140   5.517  0.2831 -0.1593  0.4169
 5431SOL    HW221496   1.335   3.080   5.583 -1.4100 -1.6163 -1.6671
 5431SOL    HW321497   1.300   3.148   5.452  1.8933  1.0957 -1.2648
 5431SOL    MW421498   1.356   3.133   5.517  0.2878 -0.2977  0.1438
 5432SOL     OW21499   2.728   1.917   1.956  0.1594  0.5445  0.3548
 5432SOL    HW221500   2.638   1.939   1.931 -0.5867 -2.0365  0.5030
 5432SOL    HW321501   2.761   1.864   1.884  0.9896  0.1346  1.0274
 5432SOL    MW421502   2.720   1.913   1.944  0.5916  0.5638 -0.1395
 5433SOL     OW21503   1.845   5.115   1.762  0.0501  0.6090  0.0289
 5433SOL    HW221504   1.775   5.156   1.712 -0.2531 -1.2811 -1.1731
 5433SOL    HW321505   1.810   5.106   1.851 -0.5575  1.2072 -0.1460
 5433SOL    MW421506   1.831   5.119   1.767  0.3890  0.2154 -0.3235
 5434SOL     OW21507   0.948   5.575   5.835 -0.1732 -0.3359  0.3685
 5434SOL    HW221508   1.020   5.512   5.830  0.5323  0.4602  0.2140
 5434SOL    HW321509   0.989   5.654   5.871 -0.7508  0.4394 -0.6495
 5434SOL    MW421510   0.963   5.577   5.839 -0.7333 -0.9879 -0.1437
 5435SOL     OW21511   0.874   2.082   3.155  0.0152  0.1927 -0.1564
 5435SOL    HW221512   0.782   2.064   3.173 -0.4934  0.7545 -1.9775
 5435SOL    HW321513   0.887   2.057   3.063  0.8746  2.8586 -0.8598
 5435SOL    MW421514   0.864   2.077   3.145  0.4933 -0.2130  0.1216
 5436SOL     OW21515   3.850   6.027   4.603  0.4734  0.5686  0.5866
 5436SOL    HW221516   3.824   6.021   4.695  1.1072  1.9884  0.8898
 5436SOL    HW321517   3.774   6.065   4.559  0.9749  2.1028  0.9764
 5436SOL    MW421518   3.836   6.031   4.609 -0.0088 -0.6581 -0.5415
 5437SOL     OW21519   2.790   2.733   1.528  0.1365 -0.4293  0.7316
 5437SOL    HW221520   2.769   2.651   1.484 -0.6503 -0.2163  0.6817
 5437SOL    HW321521   2.880   2.722   1.559  0.4147 -0.8885 -0.2081
 5437SOL    MW421522   2.799   2.720   1.527 -0.0749  0.3914  0.2668
 5438SOL     OW21523   0.207   2.102   5.307 -0.6749  0.0853 -0.0465
 5438SOL    HW221524   0.253   2.022   5.280  0.6248  0.5156  0.8255
 5438SOL    HW321525   0.115   2.076   5.312 -0.2754 -1.3655  0.2274
 5438SOL    MW421526   0.201   2.088   5.304  0.0010 -0.1545 -0.3482
 5439SOL     OW21527   0.518   0.238   2.831  1.0305  0.3180 -0.6482
 5439SOL    HW221528   0.459   0.164   2.813  1.1769  0.4011 -1.5094
 5439SOL    HW321529   0.484   0.277   2.911  0.5866 -0.3193 -0.5206
 5439SOL    MW421530   0.506   0.233   2.839 -0.7386  0.0486 -0.3707
 5440SOL     OW21531   5.767   5.582   2.535  0.1582 -0.1383  0.3161
 5440SOL    HW221532   5.673   5.590   2.551  0.3246  0.2736  1.1962
 5440SOL    HW321533   5.784   5.488   2.541 -0.2085 -0.2187  0.1127
 5440SOL    MW421534   5.757   5.570   2.538  0.3066  0.0309  0.5868
 5441SOL     OW21535   4.312   0.393   2.646 -0.0447 -0.5827  0.6456
 5441SOL    HW221536   4.329   0.364   2.556 -1.3527  1.2712 -0.2763
 5441SOL    HW321537   4.247   0.332   2.680  0.2653 -1.1411  0.2465
 5441SOL    MW421538   4.306   0.381   2.638  0.5932  0.7006  0.3369
 5442SOL     OW21539   4.546   1.071   3.711 -0.2315  0.6952  0.1135
 5442SOL    HW221540   4.641   1.082   3.707 -0.2533  1.2095  0.7528
 5442SOL    HW321541   4.531   0.979   3.690  0.3785  0.6994 -0.3560
 5442SOL    MW421542   4.556   1.060   3.708 -0.3707 -0.9686 -0.2071
 5443SOL     OW21543   0.163   4.441   5.173  0.9910  0.0870 -0.9016
 5443SOL    HW221544   0.076   4.475   5.152  0.1911 -2.5210 -2.2044
 5443SOL    HW321545   0.214   4.519   5.196 -1.5914  1.7228 -0.3248
 5443SOL    MW421546   0.158   4.456   5.173  0.3056  0.0385 -0.3453
 5444SOL     OW21547   2.641   2.738   4.622 -0.4472 -0.3303 -0.1273
 5444SOL    HW221548   2.548   2.753   4.639 -0.1670  0.9131  0.4471
 5444SOL    HW321549   2.663   2.661   4.673 -1.2941 -1.0317 -0.7780
 5444SOL    MW421550   2.632   2.730   4.631  0.1881  0.4713 -0.5410
 5445SOL     OW21551   0.440   2.149   1.680  0.3500  0.8448 -0.4982
 5445SOL    HW221552   0.492   2.085   1.631 -0.8343 -0.4463 -0.1079
 5445SOL    HW321553   0.361   2.160   1.628 -2.3751 -2.8222  2.3379
 5445SOL    MW421554   0.437   2.142   1.667  0.4723  0.3246 -0.0833
 5446SOL     OW21555   6.372   1.729   0.612  0.1298 -0.0714 -0.3790
 5446SOL    HW221556   6.293   1.701   0.657  1.1595 -0.4320  1.2617
 5446SOL    HW321557   6.379   1.823   0.631  0.6393 -0.2525  0.3392
 5446SOL    MW421558   6.362   1.738   0.620 -0.7670 -0.0717 -0.1452
 5447SOL     OW21559   2.660   3.850   0.841 -0.8746 -0.4054  0.4063
 5447SOL    HW221560   2.620   3.936   0.854 -1.1891 -0.3669 -0.6701
 5447SOL    HW321561   2.754   3.866   0.845 -0.8791  0.3196 -1.4534
 5447SOL    MW421562   2.667   3.863   0.843  0.1529  0.3128 -0.0749
 5448SOL     OW21563   3.295   0.019   0.588  0.4090 -0.3472 -0.1053
 5448SOL    HW221564   3.226   0.079   0.560 -0.8521 -0.9496  1.5259
 5448SOL    HW321565   3.327  -0.021   0.507  2.6938  3.8085 -1.5144
 5448SOL    MW421566   3.290   0.021   0.574  0.4669 -0.4976  1.4593
 5449SOL     OW21567  -0.001   3.671   5.606 -0.0012 -0.8495  0.5179
 5449SOL    HW221568   0.024   3.579   5.596 -1.2076 -1.1325 -0.0172
 5449SOL    HW321569   0.064   3.706   5.668 -0.6307 -2.5212  2.2397
 5449SOL    MW421570   0.011   3.663   5.613 -0.1486 -0.3428 -0.1708
 5450SOL     OW21571   0.358   3.959   1.493 -0.4125  0.3591  0.4572
 5450SOL    HW221572   0.401   4.016   1.430 -0.2126  0.8545  1.0322
 5450SOL    HW321573   0.335   3.880   1.443  2.0842 -0.3781  0.3774
 5450SOL    MW421574   0.360   3.956   1.478  0.4968  0.0948 -0.0182
 5451SOL     OW21575   5.298   0.662   2.246 -0.6338 -0.3255 -0.1652
 5451SOL    HW221576   5.208   0.645   2.274 -0.6404  0.7541  0.5423
 5451SOL    HW321577   5.315   0.752   2.275  0.7220 -0.5728 -0.1469
 5451SOL    MW421578   5.288   0.672   2.254 -0.2764 -0.4549 -0.4127
 5452SOL     OW21579   4.219   2.291   1.642  0.0020  0.4189 -0.2597
 5452SOL    HW221580   4.140   2.334   1.674 -0.2154 -0.4752  0.4357
 5452SOL    HW321581   4.240   2.226   1.709  1.4047  0.7291 -0.3681
 5452SOL    MW421582   4.211   2.288   1.655 -0.2885  0.8714 -0.3043
 5453SOL     OW21583   1.587   5.166   6.153 -0.1054 -0.3504 -0.3663
 5453SOL    HW221584   1.536   5.151   6.073  2.0486 -0.4673 -1.8054
 5453SOL    HW321585   1.663   5.109   6.144  0.1604 -0.4556  1.8683
 5453SOL    MW421586   1.590   5.157   6.141  0.0210  0.1805 -0.5519
 5454SOL     OW21587   1.069   5.812   4.750 -0.2039  0.3663  0.1634
 5454SOL    HW221588   1.139   5.820   4.687  1.3177 -2.2595  1.3655
 5454SOL    HW321589   1.103   5.854   4.829 -1.5586  2.4259 -0.2682
 5454SOL    MW421590   1.082   5.819   4.752 -0.0974 -0.0529  0.4205
 5455SOL     OW21591   0.049   0.899   3.413  1.2052 -0.3525 -0.7177
 5455SOL    HW221592   0.129   0.936   3.375  1.8863 -1.5646 -0.5247
 5455SOL    HW321593   0.050   0.928   3.504  0.9312  0.4007 -0.9477
 5455SOL    MW421594   0.060   0.908   3.420  0.7558  0.2552  0.4949
 5456SOL     OW21595   0.625   4.466   5.937 -0.6521  0.5610 -0.5465
 5456SOL    HW221596   0.586   4.494   5.854 -1.4967 -0.7725 -0.6341
 5456SOL    HW321597   0.596   4.532   6.000 -0.1390  1.5000 -1.2606
 5456SOL    MW421598   0.616   4.479   5.934  0.5496 -0.2977 -0.0413
 5457SOL     OW21599   5.711   2.805   3.803  0.3435  0.1035 -0.3958
 5457SOL    HW221600   5.735   2.722   3.762 -1.2927  0.2552 -1.7692
 5457SOL    HW321601   5.678   2.780   3.890 -1.7764 -0.9528 -1.4266
 5457SOL    MW421602   5.710   2.790   3.809  0.3939  0.4254  0.1093
 5458SOL     OW21603   4.225   1.315   0.449 -0.1167 -0.3366  0.3467
 5458SOL    HW221604   4.132   1.329   0.468 -0.3310 -0.1528 -0.7777
 5458SOL    HW321605   4.226   1.251   0.378  0.6540 -0.9588  0.8998
 5458SOL    MW421606   4.213   1.309   0.443  0.1856  0.3683  0.2161
 5459SOL     OW21607   6.240   3.896   4.586  0.0792  0.4167  0.0047
 5459SOL    HW221608   6.283   3.912   4.502 -1.5315  1.7158 -0.6234
 5459SOL    HW321609   6.265   3.971   4.640 -0.3635  0.5300  0.0563
 5459SOL    MW421610   6.249   3.908   4.582 -0.0819 -0.3186 -0.2741
 5460SOL     OW21611   3.060   3.011   0.546  0.0232  0.1677  0.2602
 5460SOL    HW221612   3.061   2.932   0.599 -2.8249 -0.1642 -0.0289
 5460SOL    HW321613   3.036   3.081   0.607  0.7668  0.5204  0.1645
 5460SOL    MW421614   3.057   3.010   0.561  0.7591 -0.3609 -0.0157
 5461SOL     OW21615   0.232   3.501   0.533 -0.4611 -0.3015  0.1361
 5461SOL    HW221616   0.259   3.410   0.546 -2.2419 -0.9412 -0.2604
 5461SOL    HW321617   0.272   3.549   0.605  0.6572 -1.3563  0.2521
 5461SOL    MW421618   0.241   3.495   0.544 -0.0635  0.1624 -0.4745
 5462SOL     OW21619   2.599   2.196   0.981 -0.1835  1.0777  0.5651
 5462SOL    HW221620   2.574   2.106   0.963 -0.2950  1.2394 -0.1283
 5462SOL    HW321621   2.693   2.198   0.967  0.0197  0.7934  1.7922
 5462SOL    MW421622   2.608   2.185   0.977  0.1900  0.9852  0.0023
 5463SOL     OW21623   1.709   4.841   1.425  0.3700  0.7087  0.2713
 5463SOL    HW221624   1.621   4.843   1.387  0.2445  0.7090  0.5633
 5463SOL    HW321625   1.702   4.783   1.500  0.4056  1.3948  0.8176
 5463SOL    MW421626   1.697   4.834   1.430 -0.6779 -0.1538  0.0733
 5464SOL     OW21627   3.566   6.003   1.136 -0.1019  0.7888  0.5408
 5464SOL    HW221628   3.471   6.016   1.132 -0.4333 -1.6266 -0.8248
 5464SOL    HW321629   3.577   5.912   1.163  1.8576  1.1362  1.0663
 5464SOL    MW421630   3.555   5.993   1.139  0.2937  0.1965  0.0866
 5465SOL     OW21631   1.420   1.556   1.187 -0.5906 -0.1631 -0.2297
 5465SOL    HW221632   1.441   1.491   1.255 -2.0790 -0.7222 -0.2705
 5465SOL    HW321633   1.503   1.599   1.168  0.4649 -2.1215 -0.2510
 5465SOL    MW421634   1.434   1.553   1.194 -0.3405  0.7003 -0.1866
 5466SOL     OW21635   3.587   3.024   5.333  0.1719 -0.2495 -0.2785
 5466SOL    HW221636   3.519   3.043   5.268  1.8370  1.0975 -1.7437
 5466SOL    HW321637   3.571   3.086   5.404 -0.8497 -0.7956 -0.0120
 5466SOL    MW421638   3.576   3.035   5.334 -0.1316 -0.1204 -0.3610
 5467SOL     OW21639   5.722   4.047   1.547  0.0062  0.5155 -0.2140
 5467SOL    HW221640   5.812   4.081   1.543  0.5325 -0.7170  0.3872
 5467SOL    HW321641   5.684   4.088   1.624  0.9239 -0.8219  1.0235
 5467SOL    MW421642   5.729   4.057   1.557 -0.4015 -0.2183 -0.1420
 5468SOL     OW21643   2.926   5.924   5.473  0.0838 -0.1957 -0.1103
 5468SOL    HW221644   2.976   5.886   5.400  1.1137  2.4001 -0.8421
 5468SOL    HW321645   2.839   5.938   5.437 -0.4575 -2.0994  0.3038
 5468SOL    MW421646   2.921   5.921   5.459  0.3543  0.4932  0.2974
 5469SOL     OW21647   0.184   0.911   5.020 -0.0511 -0.0541 -0.2842
 5469SOL    HW221648   0.196   0.831   4.969  0.3688 -0.7726  0.8929
 5469SOL    HW321649   0.235   0.896   5.100  0.3933  1.5725 -0.2323
 5469SOL    MW421650   0.192   0.898   5.024  0.2389  0.0428 -0.2432
 5470SOL     OW21651   0.746   0.952   1.389 -0.4342 -0.4450  0.2978
 5470SOL    HW221652   0.651   0.960   1.375 -0.1877  2.9915 -0.3495
 5470SOL    HW321653   0.784   0.954   1.301  0.2761 -1.5989  0.5621
 5470SOL    MW421654   0.738   0.953   1.375  0.3387 -0.1735 -0.0657
 5471SOL     OW21655   0.795   0.265   2.163  0.4395  0.1184  0.9132
 5471SOL    HW221656   0.726   0.302   2.218  0.6427  0.1326  1.1565
 5471SOL    HW321657   0.793   0.319   2.083 -0.1286 -0.1654  0.7330
 5471SOL    MW421658   0.786   0.277   2.159  0.5851 -0.1338 -0.5018
 5472SOL     OW21659   3.073   2.914   1.478  0.3397  0.3970 -0.0797
 5472SOL    HW221660   3.058   2.834   1.528 -0.6293  0.9036  0.4685
 5472SOL    HW321661   3.155   2.948   1.512  0.0178  0.3984  0.7176
 5472SOL    MW421662   3.082   2.908   1.489 -0.6862  0.6407  0.1820
 5473SOL     OW21663   6.228   5.831   5.657 -0.8888 -0.1795 -0.2654
 5473SOL    HW221664   6.236   5.885   5.736  2.0983  0.9508 -1.1912
 5473SOL    HW321665   6.244   5.891   5.585 -0.8641 -1.6775 -1.5733
 5473SOL    MW421666   6.231   5.846   5.658  0.1177 -0.2003 -0.4093
 5474SOL     OW21667   1.145   3.060   1.685  0.4988  0.1879  0.1206
 5474SOL    HW221668   1.214   2.997   1.707 -0.2749 -0.3729  1.0332
 5474SOL    HW321669   1.073   3.037   1.744 -0.3308  0.9981 -0.5614
 5474SOL    MW421670   1.144   3.048   1.696 -0.7536  0.1323 -0.4308
 5475SOL     OW21671   6.140   0.818   5.392 -0.8004  0.1307 -0.0358
 5475SOL    HW221672   6.200   0.770   5.335 -0.6042  1.5752 -1.0994
 5475SOL    HW321673   6.070   0.847   5.334  0.4961  3.5283 -0.1536
 5475SOL    MW421674   6.139   0.816   5.377  0.2274  0.3334 -0.2552
 5476SOL     OW21675   4.535   1.610   1.702  0.1708 -0.6192 -0.2275
 5476SOL    HW221676   4.571   1.567   1.624  0.4515  0.6437 -0.8262
 5476SOL    HW321677   4.591   1.686   1.715 -0.4683 -0.2792  0.6406
 5476SOL    MW421678   4.547   1.614   1.693 -0.1050  0.1296  0.1200
 5477SOL     OW21679   3.694   3.632   4.595  0.0531 -0.7046 -0.2110
 5477SOL    HW221680   3.702   3.708   4.538  0.4136 -0.5115  0.0920
 5477SOL    HW321681   3.606   3.599   4.579 -0.1704 -0.1155 -0.2039
 5477SOL    MW421682   3.683   3.637   4.585 -0.2131  0.3821  0.0531
 5478SOL     OW21683   2.112   5.455   5.884  0.0505 -0.4782  0.0482
 5478SOL    HW221684   2.071   5.396   5.948  1.0630 -1.3205 -0.0647
 5478SOL    HW321685   2.206   5.443   5.897  0.2869  1.2139  0.0975
 5478SOL    MW421686   2.119   5.446   5.894 -0.2522  0.0665  0.3200
 5479SOL     OW21687   5.267   0.018   0.606  0.5856 -0.2095  0.0887
 5479SOL    HW221688   5.181   0.036   0.644  0.8168  0.3486  0.3502
 5479SOL    HW321689   5.318   0.097   0.622  2.0361 -1.4893  2.4648
 5479SOL    MW421690   5.262   0.031   0.613 -0.5917  0.3338  0.6409
 5480SOL     OW21691   5.097   4.106   2.598  0.8448  0.0802  0.0334
 5480SOL    HW221692   5.035   4.153   2.655  0.0131  1.5181 -1.9344
 5480SOL    HW321693   5.181   4.149   2.613  0.6455  0.4053  0.2399
 5480SOL    MW421694   5.100   4.118   2.608  0.8517  0.1678  0.2302
 5481SOL     OW21695   3.347   3.804   2.948 -0.4332  0.3255  0.0259
 5481SOL    HW221696   3.329   3.808   3.042  2.0537 -1.1991  0.6538
 5481SOL    HW321697   3.266   3.834   2.907 -2.0166 -0.1127  2.6129
 5481SOL    MW421698   3.334   3.809   2.955 -0.4063 -0.6485  0.0866
 5482SOL     OW21699   3.402   4.131   2.355 -0.1805  0.1130  0.6521
 5482SOL    HW221700   3.474   4.081   2.395  0.1818  1.3674  1.6548
 5482SOL    HW321701   3.358   4.068   2.299  0.5422 -1.2076  1.4905
 5482SOL    MW421702   3.406   4.116   2.353 -0.1732  0.3650 -0.1732
 5483SOL     OW21703   2.163   0.939   5.611  0.1350  0.1309 -0.4841
 5483SOL    HW221704   2.203   1.007   5.665 -0.0597  0.6257 -0.9558
 5483SOL    HW321705   2.117   0.882   5.674 -0.6023  1.0449 -0.1766
 5483SOL    MW421706   2.162   0.940   5.627  0.0316 -0.1036  0.0760
 5484SOL     OW21707   3.113   0.678   2.025  0.2072 -0.2646 -0.1246
 5484SOL    HW221708   3.076   0.613   1.966 -1.0475  1.2026 -1.0110
 5484SOL    HW321709   3.068   0.663   2.108  0.5872 -1.1020 -0.0625
 5484SOL    MW421710   3.102   0.668   2.028 -0.4505  0.4641 -0.1374
 5485SOL     OW21711   4.205   1.217   5.820 -0.0268 -0.5013 -0.3439
 5485SOL    HW221712   4.170   1.264   5.896  0.3897 -2.4155  1.1268
 5485SOL    HW321713   4.171   1.128   5.830  0.1118 -0.8192 -2.4025
 5485SOL    MW421714   4.196   1.212   5.831  0.1805 -0.1698 -0.1012
 5486SOL     OW21715   2.163   2.841   2.640  0.0784 -0.0227  0.2339
 5486SOL    HW221716   2.098   2.838   2.710 -0.7496 -2.9149 -0.5114
 5486SOL    HW321717   2.125   2.901   2.575 -0.6752  0.2074  0.8755
 5486SOL    MW421718   2.149   2.848   2.641 -0.1276  0.1062  0.4249
 5487SOL     OW21719   5.157   2.533   1.221 -0.1542  0.5115  0.0985
 5487SOL    HW221720   5.145   2.545   1.127 -1.4144 -0.6765  0.0692
 5487SOL    HW321721   5.203   2.450   1.230  0.1468  0.7190  0.5264
 5487SOL    MW421722   5.161   2.523   1.210 -0.3794 -0.3823  0.1339
 5488SOL     OW21723   2.283   4.406   1.021 -0.0978  0.1697 -0.5005
 5488SOL    HW221724   2.357   4.437   1.074 -0.9026 -0.0021  0.7850
 5488SOL    HW321725   2.207   4.419   1.077 -1.0090  0.0244 -1.6693
 5488SOL    MW421726   2.283   4.412   1.036 -0.2376 -0.4750 -0.6252
 5489SOL     OW21727   1.169   2.423   5.195 -0.1584  0.1331 -0.6117
 5489SOL    HW221728   1.183   2.428   5.100 -0.1022  0.3475 -0.5950
 5489SOL    HW321729   1.075   2.435   5.206 -0.0646  0.9532 -0.5953
 5489SOL    MW421730   1.158   2.426   5.184  0.1778 -0.2689  0.5099
 5490SOL     OW21731   0.016   5.532   5.410 -0.3278  0.3104  0.3385
 5490SOL    HW221732   0.108   5.506   5.417  0.2228  1.3870 -1.9203
 5490SOL    HW321733  -0.016   5.531   5.500  1.3205 -2.0041  1.0027
 5490SOL    MW421734   0.024   5.528   5.423  0.4148  0.2013 -0.3439
 5491SOL     OW21735   1.676   0.282   0.166  0.0042  0.5640  0.6574
 5491SOL    HW221736   1.727   0.290   0.247  0.1010  2.1279  0.4800
 5491SOL    HW321737   1.595   0.330   0.184  0.0987  1.0685 -0.2128
 5491SOL    MW421738   1.672   0.290   0.179  0.4242  0.0159 -0.1503
 5492SOL     OW21739   3.570   5.644   5.231  0.8066 -0.1423 -0.0734
 5492SOL    HW221740   3.574   5.738   5.209  0.1911 -0.0783  0.0822
 5492SOL    HW321741   3.646   5.607   5.186 -0.0621  0.0843 -1.8288
 5492SOL    MW421742   3.581   5.652   5.222  0.1031 -0.3567 -0.1760
 5493SOL     OW21743   4.225   2.214   4.826 -0.3145 -0.0729 -0.2419
 5493SOL    HW221744   4.195   2.133   4.867 -0.3203  0.8638  1.7108
 5493SOL    HW321745   4.291   2.249   4.886  1.5430  0.1502 -2.2703
 5493SOL    MW421746   4.230   2.208   4.839 -0.8597  0.3271  0.0635
 5494SOL     OW21747   6.286   4.928   2.806 -0.1253 -0.4755  0.3525
 5494SOL    HW221748   6.223   4.999   2.794 -1.1088 -1.2264  0.9409
 5494SOL    HW321749   6.233   4.852   2.827  0.9210 -1.3651 -0.1096
 5494SOL    MW421750   6.271   4.927   2.807 -0.2679 -0.0406  0.3937
 5495SOL     OW21751   6.114   1.362   4.100 -0.2921 -0.4592  0.4318
 5495SOL    HW221752   6.077   1.275   4.115 -1.3826  0.4386  3.7173
 5495SOL    HW321753   6.037   1.420   4.096  0.5067  0.6895  1.1731
 5495SOL    MW421754   6.099   1.358   4.101  0.1494  0.2935 -0.2739
 5496SOL     OW21755   1.745   5.809   6.041  0.6326  0.4021  0.0226
 5496SOL    HW221756   1.747   5.794   6.136  0.6977  0.8804  0.0970
 5496SOL    HW321757   1.652   5.807   6.019  0.5780  0.8792  0.1939
 5496SOL    MW421758   1.733   5.807   6.051  0.5508 -0.3582 -0.2508
 5497SOL     OW21759   6.080   1.033   2.961 -0.2945  0.3976 -0.2148
 5497SOL    HW221760   6.064   1.029   2.866  0.4009  0.0863 -0.3213
 5497SOL    HW321761   6.060   1.123   2.985 -0.5864  0.4480 -0.6361
 5497SOL    MW421762   6.075   1.044   2.951 -0.1301 -0.1060  0.3705
 5498SOL     OW21763   2.442   5.722   3.620  0.0786  0.4919 -0.4189
 5498SOL    HW221764   2.525   5.770   3.618 -0.0541  0.7151 -0.5895
 5498SOL    HW321765   2.384   5.777   3.672  0.5442 -0.4997  1.2097
 5498SOL    MW421766   2.446   5.736   3.626  0.0433  0.2791 -0.3448
 5499SOL     OW21767   3.523   4.352   4.416  0.6464  0.3596 -0.6197
 5499SOL    HW221768   3.467   4.330   4.491  1.2954  2.0372  0.4000
 5499SOL    HW321769   3.609   4.316   4.439  0.6849  0.2815 -0.8831
 5499SOL    MW421770   3.527   4.344   4.429  0.6515  0.2101  0.3471
 5500SOL     OW21771   0.423   3.277   2.593  0.3346 -0.1876  0.2014
 5500SOL    HW221772   0.345   3.234   2.556  0.8980 -2.4630  1.4884
 5500SOL    HW321773   0.411   3.271   2.687  1.6872  0.1945  0.4097
 5500SOL    MW421774   0.411   3.270   2.600  1.0523 -0.9318 -0.0310
 5501SOL     OW21775   1.539   5.340   5.083 -0.0036 -0.2309  0.3821
 5501SOL    HW221776   1.463   5.319   5.029  0.4928 -2.0936  0.3469
 5501SOL    HW321777   1.577   5.255   5.105  0.9524  0.5787  2.0222
 5501SOL    MW421778   1.534   5.326   5.079  0.3029 -0.4538 -0.1290
 5502SOL     OW21779   0.386   5.993   0.908 -0.3177  0.3001 -0.1223
 5502SOL    HW221780   0.472   5.955   0.923 -0.7880  0.2145  3.1049
 5502SOL    HW321781   0.404   6.083   0.879  0.8887  0.3431  0.6930
 5502SOL    MW421782   0.399   6.000   0.906  0.3342  0.1872  0.4043
 5503SOL     OW21783   4.078   3.101   0.017  0.7396 -0.3359 -0.6538
 5503SOL    HW221784   4.093   3.080   0.109 -0.4280 -0.9865 -0.6032
 5503SOL    HW321785   4.114   3.190   0.007 -1.5930  0.9131  1.1302
 5503SOL    MW421786   4.085   3.110   0.028  0.1242 -0.3906  0.2528
 5504SOL     OW21787   2.959   2.191   5.233  0.0800  0.4316 -0.5321
 5504SOL    HW221788   2.890   2.245   5.270  0.1410 -0.0997  0.3903
 5504SOL    HW321789   2.947   2.198   5.138 -1.1056  0.5063 -0.3930
 5504SOL    MW421790   2.949   2.199   5.225 -0.6592 -0.3509  0.0090
 5505SOL     OW21791   1.959   0.621   4.666 -0.7225  0.1153  0.6011
 5505SOL    HW221792   1.995   0.545   4.712  1.2336 -0.5233 -1.7671
 5505SOL    HW321793   1.887   0.651   4.722 -0.7076 -2.6375  2.2973
 5505SOL    MW421794   1.954   0.615   4.679  0.1054  0.2962 -0.0150
 5506SOL     OW21795   3.134   0.143   3.309  0.8923  0.0290  0.7472
 5506SOL    HW221796   3.067   0.170   3.372  0.8058  0.6854  0.3827
 5506SOL    HW321797   3.103   0.058   3.277  0.4840  0.1055  0.9347
 5506SOL    MW421798   3.121   0.135   3.313 -0.2368 -0.2657  0.4789
 5507SOL     OW21799   4.836   2.613   6.362  0.8558  0.4293  0.1890
 5507SOL    HW221800   4.782   2.676   6.410  2.5862  0.9102  1.5810
 5507SOL    HW321801   4.898   2.667   6.314  1.2580 -0.1752  0.0219
 5507SOL    MW421802   4.837   2.628   6.362 -0.4025 -0.0683  1.1210
 5508SOL     OW21803   1.442   0.406   5.897 -0.5157  0.5103 -0.1969
 5508SOL    HW221804   1.433   0.490   5.852 -2.7587  1.4229  1.7612
 5508SOL    HW321805   1.529   0.410   5.937  0.0069  1.2398 -1.3677
 5508SOL    MW421806   1.452   0.418   5.897  0.0389 -0.6707  0.1269
 5509SOL     OW21807   4.248   4.532   1.826 -0.2423 -0.2823 -0.3531
 5509SOL    HW221808   4.268   4.449   1.784 -1.4895  0.1895 -1.9634
 5509SOL    HW321809   4.157   4.524   1.853 -0.2896  0.4584 -0.2765
 5509SOL    MW421810   4.239   4.520   1.824 -0.0316 -0.0090 -0.1746
 5510SOL     OW21811   3.996   1.798   1.106  0.0799  0.4640  0.4210
 5510SOL    HW221812   4.013   1.885   1.070 -0.7927 -0.3475 -2.2011
 5510SOL    HW321813   3.927   1.762   1.050 -0.4858 -1.4452  2.2326
 5510SOL    MW421814   3.989   1.805   1.094 -0.0675  0.4337 -0.3649
 5511SOL     OW21815   5.192   0.363   2.469  0.0967  0.4101  0.1083
 5511SOL    HW221816   5.177   0.341   2.377 -0.3083 -0.5293  0.3882
 5511SOL    HW321817   5.273   0.316   2.492  0.2215  0.6775  0.2222
 5511SOL    MW421818   5.201   0.354   2.460 -0.0205  0.0326 -0.4065
 5512SOL     OW21819   2.595   3.034   0.619 -0.7859 -0.2772  0.5168
 5512SOL    HW221820   2.612   3.119   0.660 -1.6810  0.0229  0.3020
 5512SOL    HW321821   2.662   3.026   0.551  0.0690 -0.3153  1.3425
 5512SOL    MW421822   2.606   3.044   0.615 -0.3780 -0.0507 -0.0423
 5513SOL     OW21823   3.944   5.645   6.078 -0.1532 -0.1223 -0.7723
 5513SOL    HW221824   4.016   5.641   6.141  1.7147  1.8652 -2.5886
 5513SOL    HW321825   3.954   5.567   6.024 -1.5058 -1.6127  1.0027
 5513SOL    MW421826   3.955   5.634   6.079  0.1031 -0.5332 -0.0333
 5514SOL     OW21827   4.640   2.440   5.459  0.1890  0.0886  0.3570
 5514SOL    HW221828   4.630   2.375   5.390  0.2362 -0.3502  0.7584
 5514SOL    HW321829   4.558   2.489   5.458  0.5731  0.7466 -0.6714
 5514SOL    MW421830   4.628   2.438   5.450  0.1232 -1.1040  0.0944
 5515SOL     OW21831   0.085   1.498   0.718  0.2352  0.1757  0.2825
 5515SOL    HW221832   0.072   1.580   0.670 -0.9662 -0.2179 -0.0835
 5515SOL    HW321833   0.117   1.436   0.653 -0.5241 -0.1141  0.1846
 5515SOL    MW421834   0.088   1.501   0.703 -0.1504  0.0746  0.3390
 5516SOL     OW21835   2.747   5.597   4.996  0.1450  0.6026  0.1836
 5516SOL    HW221836   2.681   5.656   4.962 -0.0582  0.0893 -0.3192
 5516SOL    HW321837   2.759   5.531   4.928  2.0015  1.3143 -0.2249
 5516SOL    MW421838   2.740   5.596   4.983 -0.2808  0.2373  0.0191
 5517SOL     OW21839   6.269   1.597   4.182 -0.2223  0.2797 -0.2808
 5517SOL    HW221840   6.212   1.666   4.149 -0.3690  0.3251  0.0691
 5517SOL    HW321841   6.223   1.515   4.163  0.9074  0.1103 -2.6741
 5517SOL    MW421842   6.256   1.595   4.175 -0.0801 -0.2634 -0.5477
 5518SOL     OW21843   3.819   6.232   1.477  0.0879 -0.0869 -0.4198
 5518SOL    HW221844   3.856   6.320   1.469 -1.8762  0.7834 -0.4681
 5518SOL    HW321845   3.728   6.241   1.447 -0.3821 -1.9711  0.2955
 5518SOL    MW421846   3.812   6.244   1.472 -0.0748  0.1183 -0.2793
 5519SOL     OW21847   6.196   3.233   1.504 -0.3990 -0.4343  0.1289
 5519SOL    HW221848   6.167   3.155   1.456  1.8174 -0.0342 -2.1074
 5519SOL    HW321849   6.266   3.201   1.561  1.4675 -0.0085 -1.7855
 5519SOL    MW421850   6.202   3.218   1.505 -0.1936  0.2223 -0.0724
 5520SOL     OW21851   4.292   5.548   2.400 -0.5229  0.4581 -0.1015
 5520SOL    HW221852   4.306   5.456   2.420  0.2921  0.0769 -2.1630
 5520SOL    HW321853   4.214   5.572   2.451 -0.4406 -1.1995  0.8775
 5520SOL    MW421854   4.284   5.539   2.409  0.2504  0.4722  0.1969
 5521SOL     OW21855   0.289   5.366   2.152  0.1485 -0.2494  0.4391
 5521SOL    HW221856   0.329   5.452   2.163  1.4070 -0.8480  0.6654
 5521SOL    HW321857   0.278   5.357   2.057  0.4740 -0.0387  0.3788
 5521SOL    MW421858   0.293   5.376   2.141 -0.0975  0.5689  0.6650
 5522SOL     OW21859   3.477   4.740   0.118 -0.3273 -0.3946  0.4327
 5522SOL    HW221860   3.479   4.793   0.038 -0.1421 -1.8044 -0.5270
 5522SOL    HW321861   3.392   4.696   0.115 -0.3409 -0.4106  1.0457
 5522SOL    MW421862   3.466   4.742   0.107 -0.1240 -0.0785 -0.1017
 5523SOL     OW21863   6.091   4.908   4.408  0.2027  0.2664 -0.1052
 5523SOL    HW221864   6.145   4.963   4.466 -0.1296 -0.0753  0.5449
 5523SOL    HW321865   6.151   4.838   4.380 -0.0002 -0.3958  1.0135
 5523SOL    MW421866   6.106   4.906   4.412 -0.1466 -0.1258 -0.0596
 5524SOL     OW21867   1.916   3.556   0.589  0.0766  0.3627  0.1342
 5524SOL    HW221868   1.934   3.650   0.597  0.0071  0.5790 -1.7760
 5524SOL    HW321869   1.823   3.552   0.564  0.9058  0.0648 -3.3535
 5524SOL    MW421870   1.906   3.568   0.587  0.2196  0.0717 -0.0959
 5525SOL     OW21871   1.562   1.563   2.377 -0.1649 -0.2150  0.1035
 5525SOL    HW221872   1.581   1.479   2.334  0.8926 -0.4441  0.9857
 5525SOL    HW321873   1.533   1.620   2.305 -3.3213 -1.9581 -0.2346
 5525SOL    MW421874   1.560   1.559   2.362  0.1807 -0.5782 -0.1665
 5526SOL     OW21875   0.235   1.993   6.279  0.1229  0.2898  0.3768
 5526SOL    HW221876   0.141   2.000   6.292  0.3084  2.0860  0.9840
 5526SOL    HW321877   0.268   1.955   6.360  0.0476  0.8743  0.6867
 5526SOL    MW421878   0.227   1.989   6.291  0.8177 -0.1192  0.4463
 5527SOL     OW21879   4.063   2.050   1.037  0.1467 -0.5858 -0.4684
 5527SOL    HW221880   4.058   2.116   0.967 -0.7146 -0.8145 -0.6337
 5527SOL    HW321881   4.009   2.085   1.107  1.9687  0.2216  0.6128
 5527SOL    MW421882   4.055   2.063   1.037 -0.6552 -0.0108 -0.0368
 5528SOL     OW21883   1.826   4.451   2.275  0.5049  0.1137  0.0794
 5528SOL    HW221884   1.737   4.462   2.309  1.2041  1.4942  1.6453
 5528SOL    HW321885   1.852   4.364   2.305 -0.3357 -0.3362 -0.4641
 5528SOL    MW421886   1.818   4.441   2.284 -0.2098 -0.1047 -0.3801
 5529SOL     OW21887   0.063   2.827   1.885  0.3152  0.2814 -0.3780
 5529SOL    HW221888  -0.011   2.841   1.825  0.2457  0.3794 -0.2681
 5529SOL    HW321889   0.115   2.907   1.879 -0.6221  1.0368  1.0207
 5529SOL    MW421890   0.060   2.839   1.876  0.1102 -0.4148 -0.0218
 5530SOL     OW21891   1.761   2.298   2.125  0.2590  0.1910  0.4982
 5530SOL    HW221892   1.770   2.257   2.212  0.5347  2.2006  1.4774
 5530SOL    HW321893   1.667   2.311   2.114  0.1329 -0.9862  0.0049
 5530SOL    MW421894   1.750   2.294   2.135  0.5016 -0.1365 -0.4651
 5531SOL     OW21895   1.986   0.735   5.256 -0.3250  0.0268  0.0520
 5531SOL    HW221896   2.066   0.775   5.289  0.0489 -0.9212  0.3189
 5531SOL    HW321897   1.917   0.772   5.312 -0.1279  1.0374 -0.3417
 5531SOL    MW421898   1.987   0.745   5.268 -0.0380 -0.4271 -0.5239
 5532SOL     OW21899   1.066   0.049   0.131  0.5117  0.1372  0.6629
 5532SOL    HW221900   1.130   0.118   0.111 -0.4361  1.0434  0.6495
 5532SOL    HW321901   1.098   0.010   0.212 -0.1106  2.1632  1.9717
 5532SOL    MW421902   1.079   0.053   0.139  0.2704 -0.0717 -0.1266
 5533SOL     OW21903   5.011   6.241   0.099 -0.1080  0.7989 -0.0832
 5533SOL    HW221904   5.069   6.192   0.041 -0.0849  1.3029 -0.4999
 5533SOL    HW321905   5.070   6.287   0.159 -0.0445  1.6053 -0.7440
 5533SOL    MW421906   5.026   6.241   0.100  0.1802  0.1758 -0.5518
 5534SOL     OW21907   5.715   5.041   4.533 -0.0927  0.2289 -0.3946
 5534SOL    HW221908   5.655   5.105   4.496  0.1913  0.6348 -0.1626
 5534SOL    HW321909   5.722   4.972   4.466 -0.0850  0.6352 -0.8133
 5534SOL    MW421910   5.708   5.040   4.519 -0.5935  0.3883 -0.2476
 5535SOL     OW21911   4.303   4.095   4.639  0.3845 -0.4219 -0.3859
 5535SOL    HW221912   4.287   4.187   4.660 -1.1125 -0.7467  0.0324
 5535SOL    HW321913   4.356   4.063   4.712 -0.9837 -0.4265  0.6411
 5535SOL    MW421914   4.308   4.103   4.651 -0.5101  0.3294  0.0200
 5536SOL     OW21915   0.086   5.385   3.704  0.3817  0.0645  0.4829
 5536SOL    HW221916   0.156   5.430   3.656  0.8294 -0.5181  0.5854
 5536SOL    HW321917   0.013   5.446   3.701  0.7610  0.5079  0.0160
 5536SOL    MW421918   0.086   5.399   3.697  0.1507 -0.0970  0.1702
 5537SOL     OW21919   2.084   0.974   4.622 -0.5100 -0.3295  0.0187
 5537SOL    HW221920   2.022   0.950   4.553  1.4465  1.3379 -2.5119
 5537SOL    HW321921   2.052   1.058   4.655 -0.3002 -0.0845 -0.3944
 5537SOL    MW421922   2.071   0.982   4.618  0.1933  0.2396  0.0160
 5538SOL     OW21923   1.485   5.287   2.012 -0.2864 -0.1536 -0.0990
 5538SOL    HW221924   1.509   5.335   1.933  0.6383 -1.4258 -0.6303
 5538SOL    HW321925   1.397   5.317   2.033 -0.1464  0.9581 -1.0259
 5538SOL    MW421926   1.477   5.297   2.004  0.6022 -0.1630 -0.9673
 5539SOL     OW21927   1.905   3.769   0.990  0.2992 -0.1367  0.1048
 5539SOL    HW221928   1.942   3.693   0.944 -0.3953  0.8538 -2.2424
 5539SOL    HW321929   1.828   3.735   1.035  0.2109 -0.8956 -0.6004
 5539SOL    MW421930   1.900   3.755   0.990 -0.4161  0.1588 -0.1712
 5540SOL     OW21931   5.341   3.601   1.171 -0.1861 -0.5462  0.7327
 5540SOL    HW221932   5.249   3.599   1.141  0.1356 -1.8563 -0.2571
 5540SOL    HW321933   5.337   3.640   1.258 -1.8065 -1.4504  1.1004
 5540SOL    MW421934   5.328   3.606   1.178 -0.5392 -0.0683  0.6302
 5541SOL     OW21935   1.990   5.764   2.789  0.1639 -0.5232 -0.6061
 5541SOL    HW221936   2.054   5.732   2.726 -0.2680 -0.5257 -1.0489
 5541SOL    HW321937   1.937   5.687   2.811 -0.1554 -0.3643 -0.8087
 5541SOL    MW421938   1.992   5.750   2.784  1.0973 -0.0823  0.1918
 5542SOL     OW21939   1.845   6.261   5.071 -0.1078 -0.1144  0.1022
 5542SOL    HW221940   1.822   6.180   5.116  1.9879 -0.8111  0.0205
 5542SOL    HW321941   1.821   6.331   5.132 -0.3357 -0.8831  0.8977
 5542SOL    MW421942   1.839   6.260   5.085 -0.3332  0.2076 -0.4233
 5543SOL     OW21943   5.457   6.169   4.495  0.2396  0.1150  0.4329
 5543SOL    HW221944   5.427   6.161   4.404 -0.1907 -0.6077  0.6313
 5543SOL    HW321945   5.382   6.144   4.548  0.2061  1.4001  1.0322
 5543SOL    MW421946   5.443   6.165   4.490  0.6050  0.1396  0.3548
 5544SOL     OW21947   4.674   1.799   0.482 -0.6961  0.3944  0.7761
 5544SOL    HW221948   4.695   1.717   0.436  1.5185  0.1394  2.1070
 5544SOL    HW321949   4.607   1.840   0.427  0.3144 -0.8602 -1.5623
 5544SOL    MW421950   4.668   1.793   0.468  0.1420  0.0015  0.1481
 5545SOL     OW21951   4.070   1.782   4.179 -0.1613 -0.3363 -0.3153
 5545SOL    HW221952   4.100   1.780   4.270 -0.9512 -0.0113 -0.0458
 5545SOL    HW321953   3.989   1.730   4.179 -1.3057  1.3800 -0.4066
 5545SOL    MW421954   4.063   1.775   4.191 -0.5809 -0.3438 -0.3429
 5546SOL     OW21955   4.787   1.116   3.361 -0.5099 -1.1757 -0.4736
 5546SOL    HW221956   4.700   1.143   3.390  0.6986  0.1930  2.2174
 5546SOL    HW321957   4.812   1.047   3.423  0.5990 -1.0964 -0.8173
 5546SOL    MW421958   4.779   1.110   3.373  0.0345 -0.4868  0.8481
 5547SOL     OW21959   3.402   3.839   1.453  0.1330  0.2001  0.2529
 5547SOL    HW221960   3.472   3.844   1.388 -0.1563  2.1855  0.0574
 5547SOL    HW321961   3.325   3.872   1.408 -0.7625 -1.1393  0.7451
 5547SOL    MW421962   3.401   3.844   1.438 -0.0688 -0.6060 -0.2380
 5548SOL     OW21963   6.006   3.565   0.147 -0.3662  0.2179  0.1388
 5548SOL    HW221964   5.990   3.586   0.055  0.6705  0.0498 -0.0941
 5548SOL    HW321965   6.101   3.552   0.152 -0.4098  0.2803  1.2442
 5548SOL    MW421966   6.016   3.566   0.135 -0.2987 -0.1456  0.4283
 5549SOL     OW21967   2.218   0.813   4.826  0.6212  0.2865 -0.7298
 5549SOL    HW221968   2.149   0.840   4.766 -0.5429 -0.6971  0.1169
 5549SOL    HW321969   2.238   0.891   4.877  0.0448  0.5360 -0.8816
 5549SOL    MW421970   2.212   0.827   4.825 -0.2619 -0.0565  0.2617
 5550SOL     OW21971   5.488   1.263   3.094 -0.2976  0.2849 -0.2924
 5550SOL    HW221972   5.570   1.230   3.058 -1.0896 -0.8547 -1.1641
 5550SOL    HW321973   5.513   1.311   3.172  1.0824 -1.2783  0.2904
 5550SOL    MW421974   5.502   1.265   3.100  0.0828  0.1397  0.5046
 5551SOL     OW21975   5.615   1.746   1.252 -0.5527  0.1765 -0.8491
 5551SOL    HW221976   5.612   1.651   1.240 -2.0605  0.2941 -1.6839
 5551SOL    HW321977   5.705   1.764   1.280 -0.7418 -1.6739  1.1528
 5551SOL    MW421978   5.626   1.736   1.254 -0.5779 -0.0873  0.1395
 5552SOL     OW21979   5.847   5.057   1.137  0.4936  0.4807  0.2748
 5552SOL    HW221980   5.831   4.966   1.163 -0.4926  0.2420 -1.0734
 5552SOL    HW321981   5.808   5.065   1.050  1.5107  1.9111 -0.0965
 5552SOL    MW421982   5.840   5.046   1.129  0.2659  0.2691 -0.2968
 5553SOL     OW21983   0.169   1.774   1.401 -0.0612  0.1013 -0.8591
 5553SOL    HW221984   0.081   1.736   1.396 -0.5294  1.0676 -0.2945
 5553SOL    HW321985   0.215   1.737   1.326 -0.5116 -1.4957 -0.3908
 5553SOL    MW421986   0.163   1.764   1.390  0.2648  0.3317 -0.1905
 5554SOL     OW21987   2.433   5.936   2.672  0.3598 -0.3187 -0.6330
 5554SOL    HW221988   2.414   5.956   2.764 -0.2305 -0.7680 -0.6501
 5554SOL    HW321989   2.447   5.842   2.671  1.4980 -0.1594 -0.8212
 5554SOL    MW421990   2.432   5.926   2.684  0.4642 -0.1836  0.4527
 5555SOL     OW21991   4.373   1.796   4.845  0.0392  0.3789 -0.0773
 5555SOL    HW221992   4.394   1.865   4.781  0.9677 -0.3249 -0.5520
 5555SOL    HW321993   4.456   1.779   4.889 -0.4809  0.4708  0.9547
 5555SOL    MW421994   4.387   1.803   4.842 -0.3377  0.2232 -0.1670
 5556SOL     OW21995   2.128   5.051   1.598  0.0183  0.2512 -0.2875
 5556SOL    HW221996   2.084   5.012   1.675  2.1820 -0.1243  0.8407
 5556SOL    HW321997   2.170   4.977   1.555 -0.2574  0.6289 -1.2211
 5556SOL    MW421998   2.128   5.036   1.603 -0.0645 -0.6259 -0.4693
 5557SOL     OW21999   1.718   3.463   4.016 -0.2605 -0.4984  0.1781
 5557SOL    HW222000   1.702   3.511   3.935 -1.5031 -1.3741 -0.1228
 5557SOL    HW322001   1.681   3.376   4.001  1.6135 -1.4631  0.8513
 5557SOL    MW422002   1.711   3.458   4.003 -0.2437 -0.2319 -0.5765
 5558SOL     OW22003   3.033   0.358   3.638 -0.2147 -0.2936 -0.1098
 5558SOL    HW222004   3.044   0.415   3.713  0.5099 -0.7602  0.1531
 5558SOL    HW322005   2.947   0.318   3.650 -0.2043 -0.1819  0.3498
 5558SOL    MW422006   3.023   0.360   3.649 -0.0741  0.7179  0.1452
 5559SOL     OW22007   3.466   4.998   1.442  0.2405  0.6286  0.3920
 5559SOL    HW222008   3.532   5.035   1.384  0.4278 -0.3052 -0.0136
 5559SOL    HW322009   3.412   4.943   1.385 -1.6504  2.3052  0.4857
 5559SOL    MW422010   3.468   4.995   1.427 -0.7293  0.1226  0.0685
 5560SOL     OW22011   5.664   4.270   1.012  0.2728 -0.5710  0.3394
 5560SOL    HW222012   5.646   4.177   1.024  1.3263 -0.7476  0.6050
 5560SOL    HW322013   5.736   4.289   1.072  0.4567  0.2812 -0.1341
 5560SOL    MW422014   5.671   4.260   1.021 -0.1762 -0.4329  0.1195
 5561SOL     OW22015   2.877   4.412   2.402  0.2532  0.4083 -0.4372
 5561SOL    HW222016   2.907   4.444   2.487  0.5691  3.7463 -1.6421
 5561SOL    HW322017   2.782   4.421   2.405  0.3378  1.4832 -0.7512
 5561SOL    MW422018   2.869   4.417   2.414  0.3454  0.5202 -0.1205
 5562SOL     OW22019   1.277   4.787   0.558  0.0645 -0.5926  0.0286
 5562SOL    HW222020   1.267   4.846   0.484 -0.1286  0.7661  1.1008
 5562SOL    HW322021   1.329   4.836   0.621 -0.8366 -1.2243  1.3077
 5562SOL    MW422022   1.283   4.801   0.557  0.1003  0.4094  0.1644
 5563SOL     OW22023   3.975   5.077   3.829 -0.1211 -0.2001 -0.3214
 5563SOL    HW222024   4.018   5.107   3.909 -0.3003 -1.1749  0.1623
 5563SOL    HW322025   3.910   5.145   3.809  0.0689  0.1541  0.2448
 5563SOL    MW422026   3.972   5.090   3.837  0.7899 -0.2354 -0.3227
 5564SOL     OW22027   4.153   5.078   2.532  0.0311 -0.0913 -0.1526
 5564SOL    HW222028   4.096   5.140   2.577  1.5643  1.9101 -0.7957
 5564SOL    HW322029   4.222   5.059   2.596  1.3473  1.5293 -0.9877
 5564SOL    MW422030   4.155   5.084   2.547  0.3193  0.4588 -0.0052
 5565SOL     OW22031   3.141   1.532   5.895  0.2096  0.7831  0.2404
 5565SOL    HW222032   3.224   1.554   5.852  0.6506 -0.9187  0.1326
 5565SOL    HW322033   3.074   1.578   5.845  1.0582  1.9781  0.1746
 5565SOL    MW422034   3.143   1.541   5.883 -0.0683  0.1024 -0.0990
 5566SOL     OW22035   2.547   5.170   3.133 -0.4091 -0.1979 -0.0337
 5566SOL    HW222036   2.638   5.175   3.163 -0.5130 -0.6815  0.3786
 5566SOL    HW322037   2.548   5.104   3.064 -0.5657 -0.7050  0.4435
 5566SOL    MW422038   2.559   5.162   3.128  0.9405 -0.0622 -0.1958
 5567SOL     OW22039   2.941   4.795   3.755 -0.1155  0.4477  0.6786
 5567SOL    HW222040   2.996   4.818   3.679 -0.8084 -0.8238 -0.2434
 5567SOL    HW322041   2.862   4.758   3.716  0.9087 -3.5145  1.9844
 5567SOL    MW422042   2.938   4.793   3.740 -0.2297 -0.2121  0.2970
 5568SOL     OW22043   2.612   3.158   5.335 -0.0147 -0.1385  0.1636
 5568SOL    HW222044   2.570   3.075   5.313 -0.6670 -0.4496  2.2896
 5568SOL    HW322045   2.545   3.207   5.382  0.7687  1.0405  0.0980
 5568SOL    MW422046   2.598   3.153   5.339  0.7690  0.0844 -0.4367
 5569SOL     OW22047   2.315   3.794   3.807 -0.4389  0.7651  0.5823
 5569SOL    HW222048   2.350   3.741   3.878 -0.2770  0.5076  0.3149
 5569SOL    HW322049   2.224   3.765   3.799 -0.0911 -0.1909 -0.2050
 5569SOL    MW422050   2.307   3.783   3.815  0.5270 -0.2048  0.2401
 5570SOL     OW22051   6.007   0.309   5.521 -0.1067  0.0684 -0.2416
 5570SOL    HW222052   5.958   0.248   5.576 -0.6270  1.0360  0.4036
 5570SOL    HW322053   6.092   0.318   5.565 -0.8025  1.4532  0.8980
 5570SOL    MW422054   6.012   0.302   5.534  0.0121 -0.4605 -0.2438
 5571SOL     OW22055   2.936   1.453   2.248 -0.0514  0.3799 -0.0986
 5571SOL    HW222056   2.882   1.532   2.255 -1.5272 -0.5038 -0.8543
 5571SOL    HW322057   3.024   1.486   2.227 -0.1681  1.8874  1.5111
 5571SOL    MW422058   2.940   1.468   2.246 -0.5882 -0.5801 -0.3781
 5572SOL     OW22059   4.417   5.161   0.256 -0.3076  0.3886  0.0633
 5572SOL    HW222060   4.493   5.183   0.310  0.0109  0.1930 -0.2973
 5572SOL    HW322061   4.363   5.106   0.313  0.6312 -0.8740 -0.2066
 5572SOL    MW422062   4.420   5.157   0.271 -0.3665 -0.1481  0.3069
 5573SOL     OW22063   6.351   5.553   4.327  0.2647  0.0514  0.0407
 5573SOL    HW222064   6.256   5.563   4.318  0.4462  1.8107 -0.1561
 5573SOL    HW322065   6.385   5.564   4.239  0.8289  1.9876  0.4622
 5573SOL    MW422066   6.343   5.555   4.315  0.5599  0.2177 -0.0475
 5574SOL     OW22067   5.771   2.729   3.034  0.3642 -0.0395 -0.2498
 5574SOL    HW222068   5.845   2.772   2.990  0.5981  0.3691  0.5171
 5574SOL    HW322069   5.710   2.800   3.053  0.7270 -0.0277  0.9804
 5574SOL    MW422070   5.773   2.744   3.031  0.5007 -0.2241  0.3045
 5575SOL     OW22071   6.026   0.167   4.213  0.2430  0.4793  0.3675
 5575SOL    HW222072   6.061   0.082   4.237  1.4260  0.5655 -0.9344
 5575SOL    HW322073   5.975   0.151   4.134  1.2189  1.0864 -0.4143
 5575SOL    MW422074   6.024   0.154   4.206  0.2511  0.4122  0.3208
 5576SOL     OW22075   2.894   2.089   6.008 -0.1521  0.4083  0.5827
 5576SOL    HW222076   2.857   2.093   6.096 -1.4686 -1.0923  0.1393
 5576SOL    HW322077   2.875   2.175   5.970  1.4112  1.4885  2.0750
 5576SOL    MW422078   2.887   2.101   6.015 -0.3735 -0.0747  0.2997
 5577SOL     OW22079   1.142   4.314   2.069 -0.2297  0.1947  0.3017
 5577SOL    HW222080   1.086   4.333   1.994  0.4258  0.3161 -0.1661
 5577SOL    HW322081   1.230   4.338   2.040  0.0852 -0.1196  0.9749
 5577SOL    MW422082   1.146   4.319   2.055  0.0360  0.3144  0.3901
 5578SOL     OW22083   1.210   2.122   4.798  0.5581 -0.2944  0.0599
 5578SOL    HW222084   1.115   2.128   4.800  0.6725  3.7254 -0.1260
 5578SOL    HW322085   1.228   2.059   4.728 -1.9182 -0.0677 -0.8724
 5578SOL    MW422086   1.200   2.114   4.789  0.0244  0.1611 -0.9057
 5579SOL     OW22087   3.139   1.480   4.138  0.2680 -0.4894  0.0107
 5579SOL    HW222088   3.047   1.460   4.122  0.6925 -2.4148 -0.3418
 5579SOL    HW322089   3.138   1.542   4.211 -1.3861  2.0130 -1.9690
 5579SOL    MW422090   3.127   1.486   4.146  0.0819  0.2552  0.1485
 5580SOL     OW22091   0.768   4.770   5.470 -0.4085 -0.1136 -0.1609
 5580SOL    HW222092   0.821   4.845   5.496 -0.3040  1.0237 -3.2164
 5580SOL    HW322093   0.832   4.704   5.443 -0.4936 -0.0111 -0.6326
 5580SOL    MW422094   0.783   4.771   5.470 -0.0948 -0.7252 -0.3584
 5581SOL     OW22095   0.968   0.345   4.218 -0.2959 -0.1986 -0.1460
 5581SOL    HW222096   1.000   0.265   4.176  2.0549  0.9408 -0.7094
 5581SOL    HW322097   0.939   0.400   4.146 -1.3814 -0.2960  0.1994
 5581SOL    MW422098   0.968   0.342   4.203 -0.0588  0.7897 -0.1589
 5582SOL     OW22099   2.260   1.493   0.841  0.3998  0.5186 -0.1267
 5582SOL    HW222100   2.351   1.522   0.840  0.5655 -0.0056 -0.6201
 5582SOL    HW322101   2.245   1.464   0.931  0.3673  1.6901  0.2527
 5582SOL    MW422102   2.270   1.493   0.853  0.1345 -0.0595  0.0687
 5583SOL     OW22103   4.585   1.391   3.905 -0.4887 -0.2838  0.1784
 5583SOL    HW222104   4.657   1.400   3.968 -0.3916  1.5156 -0.1386
 5583SOL    HW322105   4.536   1.315   3.936  1.5980 -1.6676  0.3239
 5583SOL    MW422106   4.588   1.382   3.918  0.0557 -0.2739 -0.3041
 5584SOL     OW22107   2.761   3.256   0.129  0.5909 -0.2612 -0.1972
 5584SOL    HW222108   2.701   3.211   0.190  0.0073 -0.9680 -1.2671
 5584SOL    HW322109   2.768   3.345   0.165 -0.1641 -0.5051  0.6095
 5584SOL    MW422110   2.754   3.262   0.142 -0.4203  0.5888  0.0462
 5585SOL     OW22111   2.262   2.976   3.698 -1.2093 -0.2811  0.2957
 5585SOL    HW222112   2.235   2.929   3.619 -0.2815  2.1997 -1.6576
 5585SOL    HW322113   2.183   3.022   3.727 -0.9159  1.2034 -1.0873
 5585SOL    MW422114   2.248   2.976   3.691 -0.0080 -0.6097 -0.1877
 5586SOL     OW22115   1.649   5.207   3.677  0.0454  0.3742 -0.1589
 5586SOL    HW222116   1.704   5.285   3.673 -0.4910  0.9064  1.8554
 5586SOL    HW322117   1.711   5.135   3.683  0.5332  0.7249 -0.7805
 5586SOL    MW422118   1.664   5.208   3.677  0.3848 -0.0272 -0.0755
 5587SOL     OW22119   1.207   4.963   0.934  0.4389 -0.5347  0.0760
 5587SOL    HW222120   1.269   4.968   0.861 -1.6118 -1.2719 -1.8304
 5587SOL    HW322121   1.143   5.031   0.916 -2.3138 -3.1831 -1.1599
 5587SOL    MW422122   1.207   4.972   0.922 -0.0054  0.6032  0.1354
 5588SOL     OW22123   0.244   5.462   3.292 -0.3401  0.0190 -0.2473
 5588SOL    HW222124   0.273   5.469   3.383  1.9724 -2.1427 -0.6890
 5588SOL    HW322125   0.268   5.373   3.266 -1.4920  0.3544 -2.8052
 5588SOL    MW422126   0.251   5.451   3.301 -0.1784 -0.3777 -0.4688
 5589SOL     OW22127   5.502   1.615   2.252  0.0298  0.2326  0.0482
 5589SOL    HW222128   5.411   1.606   2.281  0.0515  1.6811  0.6271
 5589SOL    HW322129   5.552   1.560   2.313 -0.4862 -1.0766 -0.6538
 5589SOL    MW422130   5.496   1.606   2.264  0.0400  0.0076  0.0287
 5590SOL     OW22131   6.127   5.023   1.129 -0.0204 -0.3844  0.0469
 5590SOL    HW222132   6.032   5.035   1.130  0.1289  1.6899 -2.3279
 5590SOL    HW322133   6.140   4.938   1.087 -0.8049 -0.5186  0.0630
 5590SOL    MW422134   6.116   5.013   1.124  0.8173  0.1691  0.0407
 5591SOL     OW22135   4.249   3.381   2.592 -0.5273  0.1572  0.5336
 5591SOL    HW222136   4.214   3.449   2.535 -0.6024  0.5050  0.9907
 5591SOL    HW322137   4.175   3.324   2.610 -0.0307 -1.2533 -1.5159
 5591SOL    MW422138   4.235   3.382   2.587  0.2047  0.1702  0.2895
 5592SOL     OW22139   2.616   1.418   0.483 -0.4109 -0.2138 -0.1009
 5592SOL    HW222140   2.706   1.444   0.465 -0.7638  1.1345 -0.0185
 5592SOL    HW322141   2.564   1.495   0.461 -1.3983 -0.4368  1.3436
 5592SOL    MW422142   2.621   1.432   0.478 -0.0120 -0.2689  0.1319
 5593SOL     OW22143   6.229   2.028   1.436 -0.3748 -0.3780 -0.2623
 5593SOL    HW222144   6.265   1.942   1.416  0.0572 -0.5543  1.1712
 5593SOL    HW322145   6.135   2.020   1.418 -0.6726 -1.7400  1.6300
 5593SOL    MW422146   6.221   2.016   1.431 -0.4251  0.2674  0.3718
 5594SOL     OW22147   1.653   0.248   3.983  0.0335 -0.1561  0.2227
 5594SOL    HW222148   1.711   0.320   3.957  0.8851 -1.1802 -0.7811
 5594SOL    HW322149   1.698   0.207   4.057 -1.3284  1.4024  2.0175
 5594SOL    MW422150   1.666   0.252   3.990 -0.0569 -0.1850  0.4538
 5595SOL     OW22151   5.419   1.495   4.897  0.4835 -0.7718  0.1990
 5595SOL    HW222152   5.479   1.440   4.948  0.7609 -0.2848  0.4030
 5595SOL    HW322153   5.349   1.517   4.958 -0.3715 -2.0447 -0.2757
 5595SOL    MW422154   5.418   1.490   4.912  0.2769 -0.1652  0.0209
 5596SOL     OW22155   2.990   2.243   4.380 -0.6498  0.0899 -0.4179
 5596SOL    HW222156   2.909   2.194   4.366 -0.5639 -0.2974  0.3680
 5596SOL    HW322157   3.028   2.252   4.293 -2.1938  1.4752 -0.9967
 5596SOL    MW422158   2.984   2.238   4.367  0.3111  0.6348  0.1469
 5597SOL     OW22159   3.232   0.164   3.940 -0.0709  0.4695  0.0818
 5597SOL    HW222160   3.159   0.112   3.974 -1.3707  1.1698 -1.5236
 5597SOL    HW322161   3.220   0.251   3.979  0.5322  0.3023  0.6486
 5597SOL    MW422162   3.220   0.169   3.950 -0.0028  0.0995  0.1337
 5598SOL     OW22163   2.034   4.807   5.781  0.0138 -0.2595  0.0732
 5598SOL    HW222164   2.053   4.713   5.779 -0.4344 -0.3985  1.2372
 5598SOL    HW322165   1.940   4.811   5.798 -0.2748  0.4131 -1.5356
 5598SOL    MW422166   2.024   4.795   5.783 -0.5970  0.2725 -0.0930
 5599SOL     OW22167   2.770   4.820   3.243 -0.0869 -0.4324 -0.6995
 5599SOL    HW222168   2.834   4.748   3.238  1.3841  0.8501 -1.4635
 5599SOL    HW322169   2.776   4.851   3.333  0.4402 -0.2857 -0.7787
 5599SOL    MW422170   2.779   4.815   3.254 -0.2486 -0.1457  0.4987
 5600SOL     OW22171   3.462   5.500   4.874 -0.2583  0.2736 -0.2792
 5600SOL    HW222172   3.444   5.441   4.801 -0.4797  1.2559 -1.0528
 5600SOL    HW322173   3.467   5.444   4.951  2.8776 -1.2007 -1.4028
 5600SOL    MW422174   3.460   5.485   4.875 -0.0350 -0.2497  0.2286
 5601SOL     OW22175   3.010   2.899   1.840  0.0364  0.1121 -0.2667
 5601SOL    HW222176   2.916   2.917   1.834  0.1598  1.1062  0.3881
 5601SOL    HW322177   3.050   2.986   1.847  0.8222 -0.3409  1.6049
 5601SOL    MW422178   3.002   2.913   1.840  0.0131 -0.1380 -0.1407
 5602SOL     OW22179   5.547   1.936   2.963  0.2807 -0.1396  0.1761
 5602SOL    HW222180   5.490   1.920   2.887 -0.1649  0.4077  0.3842
 5602SOL    HW322181   5.626   1.975   2.926 -0.1338  0.5878  0.0280
 5602SOL    MW422182   5.550   1.939   2.948  0.1541  0.3864 -0.5467
 5603SOL     OW22183   2.471   2.933   6.141  0.3167  0.4193  0.6301
 5603SOL    HW222184   2.553   2.981   6.126  0.7231  0.1539  1.8648
 5603SOL    HW322185   2.448   2.952   6.232 -0.5247 -0.2250  0.5705
 5603SOL    MW422186   2.479   2.942   6.151 -0.3189 -0.1822 -0.6494
 5604SOL     OW22187   5.446   2.849   0.691  0.2032  0.5578  0.2326
 5604SOL    HW222188   5.416   2.926   0.644 -0.0032  1.0753  1.1746
 5604SOL    HW322189   5.524   2.819   0.644 -1.7989 -0.9127 -2.3828
 5604SOL    MW422190   5.452   2.855   0.679  0.2898  0.5101  0.0421
 5605SOL     OW22191   4.567   0.622   4.818 -0.1180 -0.6805 -0.5408
 5605SOL    HW222192   4.607   0.660   4.896 -0.5973 -1.2293 -0.0147
 5605SOL    HW322193   4.614   0.540   4.805 -2.0743 -2.1702  1.0660
 5605SOL    MW422194   4.579   0.616   4.827  0.2914  0.1566 -0.0006
 5606SOL     OW22195   1.586   0.824   5.874  0.0754  0.1412  0.3944
 5606SOL    HW222196   1.594   0.823   5.779  0.2730  0.0128  0.4135
 5606SOL    HW322197   1.668   0.864   5.905  0.6331 -1.1026  0.5818
 5606SOL    MW422198   1.598   0.829   5.866  0.0117  0.6542  0.2923
 5607SOL     OW22199   1.768   5.464   6.066  0.4883  0.4107  0.3416
 5607SOL    HW222200   1.758   5.557   6.043 -0.7456  0.2658  0.1869
 5607SOL    HW322201   1.782   5.420   5.983 -0.4457  0.2998  0.2267
 5607SOL    MW422202   1.768   5.471   6.052  0.5451  0.3626  0.4850
 5608SOL     OW22203   4.466   0.798   2.182  0.5176 -0.1688 -0.0754
 5608SOL    HW222204   4.463   0.838   2.269  0.7254  0.5258 -0.3757
 5608SOL    HW322205   4.486   0.706   2.198  0.3314 -0.0925  0.6209
 5608SOL    MW422206   4.468   0.791   2.195 -0.5498  0.5409  0.4359
 5609SOL     OW22207   1.265   4.388   1.584  0.4205  0.3626  0.3092
 5609SOL    HW222208   1.330   4.352   1.524 -0.6199  0.1937 -0.7371
 5609SOL    HW322209   1.311   4.393   1.669  2.0026  0.8917 -0.5365
 5609SOL    MW422210   1.279   4.384   1.588 -0.0001 -0.3919 -0.2812
 5610SOL     OW22211   2.218   5.827   6.130  0.2298  0.1324 -0.0138
 5610SOL    HW222212   2.247   5.910   6.092 -1.6630  0.6205 -0.4752
 5610SOL    HW322213   2.155   5.852   6.197 -0.5388 -0.9364 -0.3166
 5610SOL    MW422214   2.214   5.841   6.134 -0.4518  0.3520  0.1700
 5611SOL     OW22215   4.857   0.453   4.982  0.3953 -0.2056 -0.2838
 5611SOL    HW222216   4.937   0.463   5.033 -0.7842 -2.2109  2.1513
 5611SOL    HW322217   4.789   0.493   5.036 -1.2268 -4.1234  0.9091
 5611SOL    MW422218   4.859   0.460   4.996 -0.7492 -0.0636 -0.4382
 5612SOL     OW22219   5.463   0.154   5.704 -0.0696  0.0243  0.1516
 5612SOL    HW222220   5.396   0.181   5.766 -0.3904  0.0465 -0.2054
 5612SOL    HW322221   5.522   0.229   5.698 -0.6356  0.4328 -0.3944
 5612SOL    MW422222   5.462   0.167   5.712 -0.4038  0.4010 -0.1380
 5613SOL     OW22223   5.324   2.558   5.630 -0.0439  0.1238 -0.3172
 5613SOL    HW222224   5.273   2.618   5.575  0.2204  1.7739  1.1626
 5613SOL    HW322225   5.395   2.612   5.664  1.0420 -1.4171 -0.0401
 5613SOL    MW422226   5.327   2.573   5.627 -0.1219  0.1777  0.4386
 5614SOL     OW22227   5.161   0.758   2.836 -0.4481  0.6282  0.0421
 5614SOL    HW222228   5.177   0.665   2.850 -1.0288  0.5539  0.2321
 5614SOL    HW322229   5.212   0.802   2.904 -0.1303  0.4533 -0.0817
 5614SOL    MW422230   5.170   0.752   2.847 -0.1046 -0.6125  0.2133
 5615SOL     OW22231   0.951   4.925   2.252 -0.0092 -0.4042 -0.1702
 5615SOL    HW222232   0.956   4.831   2.238  1.5416 -0.2968 -0.4710
 5615SOL    HW322233   0.915   4.934   2.340 -0.1245 -1.2700 -0.1200
 5615SOL    MW422234   0.946   4.914   2.262 -0.1224  0.6263  0.4675
 5616SOL     OW22235   3.893   5.178   5.610  0.0646  0.5556 -0.3038
 5616SOL    HW222236   3.976   5.159   5.568 -0.0150  0.1317 -0.2757
 5616SOL    HW322237   3.911   5.169   5.704 -0.1261 -0.0210 -0.3179
 5616SOL    MW422238   3.906   5.174   5.617  0.0766  0.5309  0.4677
 5617SOL     OW22239   1.255   6.410   0.350  0.0424 -0.2599 -0.2387
 5617SOL    HW222240   1.319   6.465   0.396  0.0571  0.3658 -1.0007
 5617SOL    HW322241   1.301   6.328   0.334  0.4603 -0.0235 -0.2631
 5617SOL    MW422242   1.269   6.407   0.354 -0.2841 -0.3618 -0.3998
 5618SOL     OW22243   4.957   0.448   2.821 -0.4387  0.4714 -0.5578
 5618SOL    HW222244   4.973   0.490   2.736  0.4623 -2.2231 -1.8245
 5618SOL    HW322245   4.945   0.356   2.800 -1.7499 -0.0630  2.1398
 5618SOL    MW422246   4.958   0.442   2.807  0.3646  0.4464  0.1470
 5619SOL     OW22247   5.503   0.571   2.432  0.2910 -0.6721  0.4188
 5619SOL    HW222248   5.432   0.600   2.375 -0.2593 -0.9128  0.9727
 5619SOL    HW322249   5.540   0.495   2.387  1.2497  0.3965 -0.6653
 5619SOL    MW422250   5.498   0.565   2.418 -0.4620  0.3420  0.1704
 5620SOL     OW22251   5.456   3.519   3.341 -0.5114 -0.1799  0.1311
 5620SOL    HW222252   5.469   3.540   3.433  1.4918 -0.4317 -0.0673
 5620SOL    HW322253   5.370   3.476   3.338 -0.8829  0.3961  1.7671
 5620SOL    MW422254   5.446   3.516   3.353  0.1342  0.3728 -0.1893
 5621SOL     OW22255   3.142   1.201   1.002  0.0779  0.8045 -0.1947
 5621SOL    HW222256   3.102   1.286   1.019 -0.9791  0.3954 -0.5805
 5621SOL    HW322257   3.177   1.174   1.087 -0.3290  1.2416  0.1143
 5621SOL    MW422258   3.142   1.208   1.016 -0.3892 -0.7240 -0.0065
 5622SOL     OW22259   4.955   1.734   5.069 -0.1627  0.2909 -0.5069
 5622SOL    HW222260   4.917   1.661   5.118  0.9689 -0.3453 -0.5560
 5622SOL    HW322261   4.951   1.706   4.978  1.1922 -0.1696 -0.4467
 5622SOL    MW422262   4.950   1.721   5.064  0.1473 -0.3511  0.2408
 5623SOL     OW22263   4.457   2.316   4.570  0.1617 -0.4407  0.1978
 5623SOL    HW222264   4.516   2.243   4.589  0.7558 -0.3233 -1.0769
 5623SOL    HW322265   4.483   2.345   4.483  0.9260  2.2172  1.1993
 5623SOL    MW422266   4.468   2.310   4.561  0.0446  0.6903 -0.2574
 5624SOL     OW22267   5.070   4.410   5.437  0.4528 -0.2969 -0.1333
 5624SOL    HW222268   5.000   4.374   5.382 -0.6115  0.8094  0.4499
 5624SOL    HW322269   5.046   4.502   5.450  2.4799  0.3526 -0.6177
 5624SOL    MW422270   5.057   4.417   5.432 -0.4630  0.3305  0.4106
 5625SOL     OW22271   5.919   2.075   1.778  0.0050  0.1579 -0.0014
 5625SOL    HW222272   5.903   2.075   1.873 -1.7239 -1.3964 -0.2342
 5625SOL    HW322273   5.937   2.167   1.757  1.2209  0.4225  1.9294
 5625SOL    MW422274   5.919   2.087   1.788 -0.0694 -0.9668  0.9020
 5626SOL     OW22275   1.336   4.562   4.975  0.7280 -0.1991 -0.4662
 5626SOL    HW222276   1.397   4.606   4.915  0.4295  1.6549  0.5234
 5626SOL    HW322277   1.379   4.568   5.061 -0.2072 -0.1119  0.0046
 5626SOL    MW422278   1.350   4.569   4.978  0.0026 -0.6036  0.0420
 5627SOL     OW22279   4.495   3.072   3.447 -0.1925 -0.1067  0.8619
 5627SOL    HW222280   4.424   3.126   3.412 -1.5019 -2.2438  0.0031
 5627SOL    HW322281   4.458   3.034   3.527 -0.4132 -1.9229 -0.0503
 5627SOL    MW422282   4.481   3.074   3.453  0.1747 -0.3665  0.4119
 5628SOL     OW22283   1.127   2.111   3.421  0.1455 -0.1380  0.1828
 5628SOL    HW222284   1.040   2.128   3.457 -0.1167 -1.9319  0.4917
 5628SOL    HW322285   1.114   2.041   3.356  1.2900 -0.1736 -0.0449
 5628SOL    MW422286   1.114   2.104   3.417 -0.2958 -0.2936  0.3166
 5629SOL     OW22287   1.975   5.071   1.138  0.1787  0.2821 -0.5419
 5629SOL    HW222288   2.008   5.050   1.050  0.8631 -0.3874 -0.1383
 5629SOL    HW322289   1.948   4.987   1.174 -1.1061  0.7006 -0.4986
 5629SOL    MW422290   1.976   5.057   1.131 -0.2968 -0.0029  0.0231
 5630SOL     OW22291   6.142   4.226   2.098 -0.7396 -0.1039  0.4021
 5630SOL    HW222292   6.147   4.321   2.109 -1.0415 -0.1683  1.1557
 5630SOL    HW322293   6.083   4.213   2.023 -1.4971  0.2891  0.9138
 5630SOL    MW422294   6.135   4.237   2.090 -0.1113 -0.5724  0.0916
 5631SOL     OW22295   5.656   5.110   2.252  0.0730 -0.5288  0.7682
 5631SOL    HW222296   5.581   5.104   2.192  0.3298 -1.7946  0.5429
 5631SOL    HW322297   5.672   5.204   2.261  1.1059 -0.2723 -2.5265
 5631SOL    MW422298   5.648   5.122   2.245 -1.1598  0.0248  0.3874
 5632SOL     OW22299   0.928   3.600   5.908  0.1493  0.4654 -0.1930
 5632SOL    HW222300   0.982   3.635   5.837  0.4399 -0.7145 -0.5836
 5632SOL    HW322301   0.840   3.634   5.892  0.3270  0.6370 -0.8182
 5632SOL    MW422302   0.924   3.609   5.897 -0.3488  0.1496  0.5635
 5633SOL     OW22303   1.705   3.912   2.145  0.2616 -0.1119 -0.0153
 5633SOL    HW222304   1.699   3.989   2.202 -0.2546  0.5275 -0.9089
 5633SOL    HW322305   1.754   3.943   2.069 -0.4830 -0.4850 -0.6578
 5633SOL    MW422306   1.711   3.926   2.143 -0.1610  0.0153  0.7890
 5634SOL     OW22307   2.873   4.430   1.983 -0.2859 -0.0352 -0.0952
 5634SOL    HW222308   2.946   4.413   1.923  0.0353  1.6329 -0.2102
 5634SOL    HW322309   2.914   4.459   2.064 -0.7661 -1.2508  0.6092
 5634SOL    MW422310   2.888   4.431   1.986 -0.1193 -0.4500  0.2678
 5635SOL     OW22311   1.954   3.372   1.092  0.1929  0.0692 -0.6233
 5635SOL    HW222312   1.946   3.298   1.031 -0.4838  0.4374 -1.0025
 5635SOL    HW322313   2.002   3.438   1.042 -0.3971  0.3861 -0.7857
 5635SOL    MW422314   1.959   3.371   1.077 -0.0095 -0.3377 -0.2414
 5636SOL     OW22315   1.198   3.488   5.131  0.0594  0.3013 -0.2830
 5636SOL    HW222316   1.145   3.475   5.052 -1.0392 -0.8752  0.5905
 5636SOL    HW322317   1.264   3.552   5.106 -1.2920  1.2286 -1.6644
 5636SOL    MW422318   1.200   3.494   5.117  0.2975 -0.1998 -0.3642
 5637SOL     OW22319   0.576   4.910   1.791  0.1946 -0.4724  0.4352
 5637SOL    HW222320   0.645   4.975   1.808 -0.3330  0.1288  0.3187
 5637SOL    HW322321   0.519   4.914   1.868 -0.5905  0.1843 -0.1579
 5637SOL    MW422322   0.578   4.919   1.803  0.0202 -0.2760  0.8336
 5638SOL     OW22323   3.659   1.862   5.684 -0.0694 -0.2614  0.1520
 5638SOL    HW222324   3.744   1.853   5.641 -1.3710 -1.5610 -2.4089
 5638SOL    HW322325   3.676   1.838   5.775  2.1351 -1.5096 -0.4826
 5638SOL    MW422326   3.673   1.857   5.690  0.1331  0.3947 -0.0262
 5639SOL     OW22327   2.751   3.419   0.494  0.3667  0.5057 -0.2550
 5639SOL    HW222328   2.706   3.462   0.421  0.6316 -0.1942 -0.8444
 5639SOL    HW322329   2.681   3.388   0.551 -0.3337 -4.1370 -3.1149
 5639SOL    MW422330   2.736   3.420   0.492  0.0265 -0.1224 -0.3169
 5640SOL     OW22331   5.811   3.494   1.316  0.2743  0.0916  0.6107
 5640SOL    HW222332   5.769   3.520   1.398  3.9513  2.8964  1.8791
 5640SOL    HW322333   5.768   3.549   1.250 -0.3399  0.4111  1.2563
 5640SOL    MW422334   5.799   3.505   1.318 -0.3525  0.0560 -0.2376
 5641SOL     OW22335   6.205   2.269   1.804 -0.1665  0.2020  0.2266
 5641SOL    HW222336   6.197   2.271   1.900  0.2347  2.7449  0.2822
 5641SOL    HW322337   6.126   2.313   1.773 -0.1385 -0.3242 -0.6082
 5641SOL    MW422338   6.194   2.275   1.813  0.7433  0.2837  0.2603
 5642SOL     OW22339   5.599   4.617   2.112  0.5729 -0.0235  0.0039
 5642SOL    HW222340   5.627   4.529   2.084 -2.8020 -0.9025 -1.0297
 5642SOL    HW322341   5.597   4.668   2.031 -1.1999 -0.1673 -0.0780
 5642SOL    MW422342   5.603   4.612   2.097 -0.5432 -0.3848 -0.1995
 5643SOL     OW22343   2.765   1.073   4.403  0.1578  0.2263  0.3491
 5643SOL    HW222344   2.829   1.053   4.472 -0.1696  0.7999  0.8295
 5643SOL    HW322345   2.708   0.996   4.400  0.2441  0.1495  0.6425
 5643SOL    MW422346   2.766   1.060   4.412  0.2369  0.1692 -0.3138
 5644SOL     OW22347   2.150   3.333   4.355  0.0847  0.3704 -0.2803
 5644SOL    HW222348   2.201   3.387   4.294 -0.3411  0.6468 -0.3932
 5644SOL    HW322349   2.214   3.273   4.393  0.2645 -0.1531 -1.3802
 5644SOL    MW422350   2.165   3.332   4.352 -0.1872 -0.4616 -0.5022
 5645SOL     OW22351   0.207   2.283   0.075  0.1522  0.1424 -0.4178
 5645SOL    HW222352   0.249   2.305  -0.008  2.1501  1.5537  0.8741
 5645SOL    HW322353   0.121   2.248   0.050  0.0693  1.9089 -2.9920
 5645SOL    MW422354   0.201   2.281   0.061  0.0041  0.1678  0.8212
 5646SOL     OW22355   2.685   4.139   2.552  0.7816 -0.1314 -0.2202
 5646SOL    HW222356   2.701   4.234   2.552 -1.4461  0.2995 -0.4456
 5646SOL    HW322357   2.727   4.109   2.472  0.2401  0.9598 -0.9558
 5646SOL    MW422358   2.692   4.148   2.541 -0.3202  0.3343 -0.1195
 5647SOL     OW22359   2.588   2.039   4.575  0.0017  0.3424 -0.2636
 5647SOL    HW222360   2.622   1.955   4.605 -1.1995  0.0363  0.3011
 5647SOL    HW322361   2.516   2.016   4.517 -0.5088  0.9793  0.1063
 5647SOL    MW422362   2.583   2.025   4.571 -0.6187 -0.0088 -0.0744
 5648SOL     OW22363   2.405   3.522   5.606 -0.4480  0.2367  0.0029
 5648SOL    HW222364   2.345   3.595   5.593 -1.7342 -0.6435  0.7937
 5648SOL    HW322365   2.430   3.528   5.698  1.0880  0.8726 -0.4253
 5648SOL    MW422366   2.401   3.532   5.617  0.3335  0.0284 -0.1579
 5649SOL     OW22367   0.222   4.316   5.427  0.5960  0.4362 -0.0313
 5649SOL    HW222368   0.196   4.359   5.346 -1.2837 -2.1051 -0.9100
 5649SOL    HW322369   0.312   4.288   5.412  0.5708  0.7727 -0.8681
 5649SOL    MW422370   0.230   4.318   5.414 -0.1737 -0.1962 -0.0885
 5650SOL     OW22371   6.129   4.955   3.213  0.1102 -0.3223 -0.5175
 5650SOL    HW222372   6.205   4.915   3.170  0.3665 -1.5958  1.0117
 5650SOL    HW322373   6.156   4.967   3.304 -1.5355 -0.9506  0.1079
 5650SOL    MW422374   6.142   4.951   3.219  0.0634  0.0973  0.5036
 5651SOL     OW22375   3.711   4.203   5.444 -0.3809  0.5178  0.6274
 5651SOL    HW222376   3.653   4.227   5.516 -1.3007  0.7402 -0.1738
 5651SOL    HW322377   3.664   4.228   5.365  0.0440 -0.8937 -0.1169
 5651SOL    MW422378   3.697   4.209   5.443 -0.4735  0.2742 -0.7766
 5652SOL     OW22379   3.443   0.493   1.612 -0.8684 -0.0246 -0.2255
 5652SOL    HW222380   3.405   0.469   1.527  1.1768 -1.3990 -0.8156
 5652SOL    HW322381   3.465   0.410   1.653  0.4569  0.6739  0.5551
 5652SOL    MW422382   3.441   0.479   1.606  0.0677 -0.1603  0.3872
 5653SOL     OW22383   1.063   1.730   1.923  0.3186 -0.2941  0.0353
 5653SOL    HW222384   1.085   1.823   1.931 -0.9550  0.0692 -0.5589
 5653SOL    HW322385   0.984   1.728   1.869  0.4611 -1.7412 -0.1592
 5653SOL    MW422386   1.056   1.742   1.917 -0.3970 -0.1319 -0.0093
 5654SOL     OW22387   1.487   2.023   4.197  0.0091  0.6784  0.2205
 5654SOL    HW222388   1.398   1.995   4.216  0.6472 -2.3986 -0.7990
 5654SOL    HW322389   1.542   1.971   4.256  1.2434  0.9376 -0.6519
 5654SOL    MW422390   1.483   2.013   4.207  0.0125  0.7864 -0.3611
 5655SOL     OW22391   4.693   5.638   6.022 -1.2046 -0.0506  0.4810
 5655SOL    HW222392   4.669   5.729   6.005 -0.4703 -0.2515 -2.0992
 5655SOL    HW322393   4.775   5.643   6.072  0.0030  0.7908 -1.4644
 5655SOL    MW422394   4.701   5.650   6.026  0.0340  0.5754 -0.1946
 5656SOL     OW22395   3.700   1.447   3.692  0.3048 -0.2531  0.2590
 5656SOL    HW222396   3.756   1.522   3.668 -0.5682  0.0025 -1.1146
 5656SOL    HW322397   3.679   1.405   3.608 -0.5535 -1.0664  0.8590
 5656SOL    MW422398   3.705   1.452   3.678  0.5268 -0.0155  0.2847
 5657SOL     OW22399   0.300   3.022   1.191  0.3569 -0.1713 -0.0718
 5657SOL    HW222400   0.369   3.084   1.170  0.1440  0.7114  1.6536
 5657SOL    HW322401   0.325   2.942   1.146  0.7275  1.0860 -2.2303
 5657SOL    MW422402   0.312   3.020   1.183 -0.0149  0.6509  0.0085
 5658SOL     OW22403   1.661   5.891   0.764 -0.4579 -0.2713  0.0971
 5658SOL    HW222404   1.649   5.796   0.755  0.7323 -0.3542 -0.8427
 5658SOL    HW322405   1.590   5.918   0.823 -2.0478 -1.4288 -1.1939
 5658SOL    MW422406   1.650   5.882   0.771 -0.1134  0.1048 -0.1406
 5659SOL     OW22407   1.931   4.926   5.286  0.2473  0.1279  0.1904
 5659SOL    HW222408   1.940   5.002   5.343  2.0363 -0.2208  0.4226
 5659SOL    HW322409   1.931   4.961   5.197  0.0421  0.4643  0.3226
 5659SOL    MW422410   1.932   4.940   5.282 -0.6500 -0.0274  0.3188
 5660SOL     OW22411   5.911   0.153   5.777  0.3002  0.2406  0.6541
 5660SOL    HW222412   5.881   0.093   5.845 -1.4747  0.5673  0.2299
 5660SOL    HW322413   5.832   0.200   5.751  1.0302  0.4852 -1.2772
 5660SOL    MW422414   5.896   0.151   5.783 -0.7771  0.1936 -0.8573
 5661SOL     OW22415   0.293   2.165   3.076 -0.1712 -0.0244  0.0337
 5661SOL    HW222416   0.368   2.128   3.028  0.2620 -1.2537  1.5529
 5661SOL    HW322417   0.333   2.209   3.152 -0.9661 -1.5325  1.3959
 5661SOL    MW422418   0.308   2.166   3.080 -0.4263 -0.2063 -0.0483
 5662SOL     OW22419   6.034   4.121   1.862  0.4845  0.1405 -0.1855
 5662SOL    HW222420   6.124   4.129   1.831  0.4854  1.8214  0.1731
 5662SOL    HW322421   6.009   4.031   1.840  2.1707 -0.2913 -0.4683
 5662SOL    MW422422   6.043   4.110   1.855  0.7303  0.5221  0.3399
 5663SOL     OW22423   3.278   5.827   2.082  0.3829 -0.4465  0.1752
 5663SOL    HW222424   3.277   5.831   2.177 -1.8701 -0.9422  0.2101
 5663SOL    HW322425   3.225   5.901   2.054 -0.5696 -1.3982 -0.6107
 5663SOL    MW422426   3.271   5.837   2.091  0.0015  0.5046 -0.7737
 5664SOL     OW22427   5.297   3.779   0.654 -0.3358 -0.1445  0.2687
 5664SOL    HW222428   5.310   3.766   0.748  0.4617 -0.1169  0.1685
 5664SOL    HW322429   5.284   3.874   0.646  1.6300  0.1598  0.1483
 5664SOL    MW422430   5.297   3.790   0.665 -0.2683  1.2406 -0.1811
 5665SOL     OW22431   2.217   1.188   5.726  0.2321 -0.5857  0.3080
 5665SOL    HW222432   2.188   1.256   5.664  0.1774 -0.6783  0.2325
 5665SOL    HW322433   2.278   1.234   5.784  0.6388 -0.5980 -0.0970
 5665SOL    MW422434   2.221   1.203   5.725  0.4159  0.4629 -0.2839
 5666SOL     OW22435   1.911   4.360   5.279  0.4842 -0.0370  0.1040
 5666SOL    HW222436   1.939   4.342   5.189  0.2431 -0.3258  0.0820
 5666SOL    HW322437   1.894   4.273   5.316  0.6457  0.0758  0.4518
 5666SOL    MW422438   1.912   4.346   5.272  0.0937 -0.1233  0.0917
 5667SOL     OW22439   0.162   6.274   4.957  0.8649  0.1493 -0.5872
 5667SOL    HW222440   0.178   6.247   4.866 -1.1254 -0.2142 -0.8755
 5667SOL    HW322441   0.142   6.367   4.951  1.7779  0.3652 -0.3713
 5667SOL    MW422442   0.161   6.282   4.944  0.0507 -0.1034  1.2428
 5668SOL     OW22443   3.296   5.449   5.993 -0.8684 -0.4143  0.0613
 5668SOL    HW222444   3.256   5.399   5.922  0.8486 -1.7764 -0.0135
 5668SOL    HW322445   3.355   5.510   5.950  2.7377 -3.4479  0.1730
 5668SOL    MW422446   3.299   5.450   5.978  0.1037  0.1676  0.3804
 5669SOL     OW22447   4.595   0.216   0.929 -0.3464  0.5790 -0.0658
 5669SOL    HW222448   4.680   0.245   0.895 -0.5419  0.2417 -0.8579
 5669SOL    HW322449   4.543   0.199   0.851 -1.3735  1.4281  0.4095
 5669SOL    MW422450   4.599   0.218   0.915 -0.1737 -0.3377  0.1448
 5670SOL     OW22451   3.369   5.272   0.216 -0.3849 -0.0173  0.2364
 5670SOL    HW222452   3.373   5.184   0.179 -1.4195  1.0247 -2.5989
 5670SOL    HW322453   3.276   5.287   0.232 -0.2300  0.6064  0.5838
 5670SOL    MW422454   3.357   5.262   0.214  0.2712  0.1822  0.5561
 5671SOL     OW22455   1.599   4.390   3.371 -0.2333 -0.2812  0.1211
 5671SOL    HW222456   1.631   4.473   3.337  0.7237  0.0160  1.6358
 5671SOL    HW322457   1.677   4.335   3.380 -0.8805 -1.4745 -1.1161
 5671SOL    MW422458   1.614   4.394   3.368  0.0877 -0.3259  0.0938
 5672SOL     OW22459   5.666   3.607   6.306 -0.1497  0.5366 -0.1696
 5672SOL    HW222460   5.644   3.515   6.298  0.6705  0.4600 -2.2197
 5672SOL    HW322461   5.762   3.609   6.312 -0.1507  1.2429 -0.2401
 5672SOL    MW422462   5.676   3.595   6.306  0.4648  0.1548  0.7261
 5673SOL     OW22463   1.817   0.166   4.187  0.6864 -0.4843 -0.0711
 5673SOL    HW222464   1.911   0.150   4.195  0.5135 -1.1682  0.8385
 5673SOL    HW322465   1.801   0.244   4.241  0.5906 -0.9518  0.5873
 5673SOL    MW422466   1.827   0.174   4.195 -0.2001  0.2634  0.0007
 5674SOL     OW22467   3.443   3.204   0.348 -0.1764 -0.0320  0.0948
 5674SOL    HW222468   3.419   3.137   0.413 -2.0105 -0.2874 -0.7905
 5674SOL    HW322469   3.472   3.153   0.272  0.7585  0.2486  0.2512
 5674SOL    MW422470   3.444   3.188   0.347  0.6317 -0.3540 -0.4336
 5675SOL     OW22471   2.857   1.880   1.239  0.7102 -0.0361  0.3629
 5675SOL    HW222472   2.909   1.859   1.162  1.3463 -0.0092  0.7712
 5675SOL    HW322473   2.900   1.957   1.277  1.4484 -1.0379  1.6736
 5675SOL    MW422474   2.870   1.888   1.234 -0.2800  0.3983  0.4332
 5676SOL     OW22475   2.556   0.600   4.228 -0.3566  0.5483 -0.3784
 5676SOL    HW222476   2.494   0.539   4.269 -1.0378  0.9073 -0.8527
 5676SOL    HW322477   2.558   0.675   4.287  0.3247  0.1658  0.0994
 5676SOL    MW422478   2.548   0.602   4.241 -0.3005 -0.8942 -0.3361
 5677SOL     OW22479   0.848   1.304   2.461  0.0210 -0.0406 -0.6960
 5677SOL    HW222480   0.898   1.262   2.392  0.2601 -1.5746  0.3750
 5677SOL    HW322481   0.801   1.233   2.504 -1.2653  1.0628 -0.1750
 5677SOL    MW422482   0.848   1.289   2.457 -0.2747  0.1004  0.3447
 5678SOL     OW22483   2.200   4.319   2.258  0.5247  0.8661 -0.0452
 5678SOL    HW222484   2.180   4.370   2.179  1.3471  1.0592 -0.1385
 5678SOL    HW322485   2.152   4.237   2.246 -1.2359  1.7826  0.3466
 5678SOL    MW422486   2.191   4.315   2.246  0.6249 -0.1780 -0.2053
 5679SOL     OW22487   2.416   6.093   1.155  0.0118 -0.2104 -0.2620
 5679SOL    HW222488   2.445   6.018   1.103 -0.6021 -0.5353 -0.1401
 5679SOL    HW322489   2.471   6.166   1.125  0.7079 -0.7309 -0.2905
 5679SOL    MW422490   2.427   6.093   1.144 -0.6539  0.0976  0.6274
 5680SOL     OW22491   1.327   2.195   4.393  0.5059  0.0605 -0.2053
 5680SOL    HW222492   1.316   2.266   4.329 -1.3317 -0.7196 -0.8347
 5680SOL    HW322493   1.417   2.166   4.381  0.6316  0.8763 -1.4602
 5680SOL    MW422494   1.337   2.201   4.383  0.3653  0.1932  1.0143
 5681SOL     OW22495   5.420   5.287   3.684  0.2268  0.2750  0.2421
 5681SOL    HW222496   5.462   5.372   3.670 -0.3688  0.5369  0.0070
 5681SOL    HW322497   5.367   5.274   3.606 -0.3856  0.1068  0.6819
 5681SOL    MW422498   5.419   5.297   3.672 -0.4977 -0.4904 -0.2119
 5682SOL     OW22499   5.874   5.299   4.621  0.0507 -0.1233 -0.4024
 5682SOL    HW222500   5.845   5.235   4.556 -0.4523  0.3795 -0.6918
 5682SOL    HW322501   5.878   5.251   4.703  1.7542 -1.0414 -0.9840
 5682SOL    MW422502   5.871   5.284   4.623  0.0365  0.3603 -0.1037
 5683SOL     OW22503   3.575   0.831   5.798  0.2463  0.7739  0.3440
 5683SOL    HW222504   3.591   0.762   5.863 -0.3602 -1.6307 -1.8847
 5683SOL    HW322505   3.660   0.843   5.754  0.7827  2.7392  1.7609
 5683SOL    MW422506   3.588   0.824   5.801  0.8161  0.0777  0.0765
 5684SOL     OW22507   0.823   1.379   3.354  0.3099  0.0406 -0.2362
 5684SOL    HW222508   0.785   1.411   3.436 -0.6441  0.9935 -1.0268
 5684SOL    HW322509   0.810   1.284   3.357 -1.2278  0.2340 -0.0163
 5684SOL    MW422510   0.817   1.371   3.365 -0.1268 -0.2956  0.3578
 5685SOL     OW22511   2.869   4.569   0.350 -1.2284 -0.0233 -0.4991
 5685SOL    HW222512   2.899   4.649   0.307 -0.2134 -0.6790 -1.0422
 5685SOL    HW322513   2.850   4.509   0.278  2.6345 -1.9262 -0.1499
 5685SOL    MW422514   2.870   4.572   0.335 -0.0466  0.0686  0.4625
 5686SOL     OW22515   3.830   0.334   6.376 -0.5312  0.1879 -0.0481
 5686SOL    HW222516   3.833   0.325   6.471 -1.9774  0.1947  0.0213
 5686SOL    HW322517   3.862   0.250   6.343 -0.4502  0.0193  0.4493
 5686SOL    MW422518   3.834   0.322   6.384  0.1137  0.4553 -0.1898
 5687SOL     OW22519   5.067   2.239   2.439 -0.5253  0.6972 -0.9810
 5687SOL    HW222520   5.163   2.239   2.439 -0.4500 -1.6188 -0.4725
 5687SOL    HW322521   5.043   2.250   2.347  0.1491  2.4181 -0.9926
 5687SOL    MW422522   5.076   2.240   2.427 -0.8871  0.3718 -0.0263
 5688SOL     OW22523   2.587   0.009   3.518 -0.1288 -0.2611 -0.5220
 5688SOL    HW222524   2.588  -0.080   3.482  3.2197 -1.3882  1.8420
 5688SOL    HW322525   2.636   0.061   3.454 -1.0860 -0.3339 -1.3428
 5688SOL    MW422526   2.594   0.004   3.505  0.1245 -0.0699 -0.2285
 5689SOL     OW22527   3.972   2.074   2.127  0.2132 -0.0771 -0.1547
 5689SOL    HW222528   3.902   2.030   2.176  0.4106 -1.2585 -0.8821
 5689SOL    HW322529   3.974   2.163   2.162 -2.0367  0.1659 -0.4921
 5689SOL    MW422530   3.963   2.080   2.138 -0.1639 -0.5367  0.4366
 5690SOL     OW22531   1.345   2.098   5.741 -0.1845  0.1198 -0.0792
 5690SOL    HW222532   1.301   2.181   5.720  1.5721  1.0749 -0.2094
 5690SOL    HW322533   1.276   2.032   5.737 -1.3943  1.3960 -1.2334
 5690SOL    MW422534   1.330   2.100   5.738 -0.1754 -0.3514 -0.1473
 5691SOL     OW22535   6.147   3.960   5.588 -0.4232 -0.3347 -0.1938
 5691SOL    HW222536   6.142   3.869   5.558  1.9563 -0.3904 -0.5814
 5691SOL    HW322537   6.204   4.003   5.525 -0.2242  1.0381  0.8856
 5691SOL    MW422538   6.154   3.953   5.576 -0.6896 -0.2455 -0.3184
 5692SOL     OW22539   4.842   4.724   2.383  0.5184  0.4044  0.8356
 5692SOL    HW222540   4.873   4.716   2.473  1.1547 -1.0648  0.4999
 5692SOL    HW322541   4.797   4.642   2.365 -0.6289  1.1446  0.1760
 5692SOL    MW422542   4.840   4.712   2.392 -0.2438  0.2301  0.2289
 5693SOL     OW22543   1.619   4.261   5.206  0.3092  0.1074 -0.5971
 5693SOL    HW222544   1.545   4.228   5.257  0.8666 -1.7033 -0.8886
 5693SOL    HW322545   1.696   4.240   5.259  0.8179 -0.8702 -1.6916
 5693SOL    MW422546   1.619   4.254   5.220 -0.2287 -0.9921  0.4232
 5694SOL     OW22547   3.032   2.964   1.203  0.0238 -0.0724  0.3051
 5694SOL    HW222548   3.057   3.005   1.286 -0.2406 -0.1830  0.4397
 5694SOL    HW322549   3.030   3.036   1.140  1.1876 -0.1403  0.1764
 5694SOL    MW422550   3.035   2.979   1.206  0.2394  0.1659  0.4249
 5695SOL     OW22551   5.171   2.265   3.758  0.1477  0.2856  0.1733
 5695SOL    HW222552   5.102   2.291   3.819  0.4382  0.1372  0.5697
 5695SOL    HW322553   5.139   2.293   3.673  0.0715  1.1739  0.4857
 5695SOL    MW422554   5.158   2.272   3.755  0.7013  0.1501 -0.5061
 5696SOL     OW22555   1.999   6.090   0.160 -0.0119  0.2087  0.2697
 5696SOL    HW222556   2.083   6.068   0.200 -0.0795  1.9088  1.4274
 5696SOL    HW322557   1.937   6.031   0.202  0.4000 -0.1776  0.3502
 5696SOL    MW422558   2.002   6.079   0.171  0.5547  0.0699  0.4268
 5697SOL     OW22559   6.104   4.608   4.615 -0.1250  0.0195  0.1595
 5697SOL    HW222560   6.036   4.659   4.659 -0.0519  0.2912 -0.0355
 5697SOL    HW322561   6.171   4.595   4.682  1.5993  3.3613 -0.6858
 5697SOL    MW422562   6.104   4.613   4.630  0.0799  0.2242  0.2389
 5698SOL     OW22563   2.129   5.413   5.618 -0.3553 -0.3030  0.4535
 5698SOL    HW222564   2.113   5.405   5.712 -1.3554  1.2917  0.4525
 5698SOL    HW322565   2.151   5.324   5.590 -2.7995 -1.4250  1.7187
 5698SOL    MW422566   2.130   5.400   5.627 -0.5417  0.1573  0.3033
 5699SOL     OW22567   2.647   2.299   6.347 -0.5943  0.0909 -0.3109
 5699SOL    HW222568   2.559   2.282   6.311 -0.5973  0.2553 -0.3824
 5699SOL    HW322569   2.630   2.344   6.429 -0.5580  1.1230 -0.8570
 5699SOL    MW422570   2.633   2.303   6.353 -0.4907 -0.1109  0.5970
 5700SOL     OW22571   0.230   4.739   4.892 -0.2656  0.0013 -0.8246
 5700SOL    HW222572   0.188   4.759   4.976  1.4882 -0.4444  0.2157
 5700SOL    HW322573   0.197   4.652   4.869  2.0943 -1.6290  1.4361
 5700SOL    MW422574   0.220   4.730   4.900  0.3514 -0.6791 -0.4376
 5701SOL     OW22575   5.774   6.322   1.511 -0.6317 -0.3242  0.1442
 5701SOL    HW222576   5.757   6.354   1.423 -0.1385 -0.5027 -0.0168
 5701SOL    HW322577   5.868   6.337   1.525 -0.6372 -0.5987  0.5110
 5701SOL    MW422578   5.784   6.328   1.501 -0.1070 -0.3411  0.1358
 5702SOL     OW22579   1.143   2.603   3.719  0.1142 -0.3576 -0.4354
 5702SOL    HW222580   1.214   2.561   3.670  0.0523  0.4824 -1.2914
 5702SOL    HW322581   1.071   2.541   3.716  0.9677 -1.4910  0.9619
 5702SOL    MW422582   1.143   2.590   3.712 -0.9083 -0.2143  0.4322
 5703SOL     OW22583   5.732   4.949   2.015 -0.3145  0.0890  0.1779
 5703SOL    HW222584   5.734   4.996   2.098  2.5323  1.0769 -0.3499
 5703SOL    HW322585   5.810   4.893   2.018 -0.5535 -0.3763 -1.5479
 5703SOL    MW422586   5.743   4.948   2.027 -0.3716 -0.3315 -0.1709
 5704SOL     OW22587   5.730   5.656   2.203  0.1861 -0.4423  0.4219
 5704SOL    HW222588   5.690   5.579   2.243 -0.1103  0.4259  1.8581
 5704SOL    HW322589   5.770   5.624   2.122 -0.5223 -1.9590  0.6583
 5704SOL    MW422590   5.730   5.642   2.197 -0.3591 -0.6535 -0.3525
 5705SOL     OW22591   0.580   0.434   0.697 -0.0388  0.1721 -0.1885
 5705SOL    HW222592   0.511   0.429   0.763  0.6861  0.7175  0.6251
 5705SOL    HW322593   0.659   0.459   0.746  0.6998 -0.2549 -1.1265
 5705SOL    MW422594   0.581   0.436   0.712  0.2786  0.8169 -0.3461
 5706SOL     OW22595   5.076   5.384   3.145  0.3188 -0.0446 -0.3425
 5706SOL    HW222596   5.121   5.301   3.127 -0.8494 -0.8270  0.2307
 5706SOL    HW322597   5.104   5.442   3.074  2.2856 -0.4556  0.0569
 5706SOL    MW422598   5.086   5.380   3.133  0.2330 -0.1544 -0.0265
 5707SOL     OW22599   2.569   2.358   2.069  0.5197 -0.1825  0.0270
 5707SOL    HW222600   2.652   2.325   2.035  1.2620  1.8587 -0.2710
 5707SOL    HW322601   2.593   2.418   2.139 -0.6539  0.9986 -0.5319
 5707SOL    MW422602   2.583   2.361   2.074  0.1310  0.1382  0.3725
 5708SOL     OW22603   2.941   4.193   2.775  0.1361 -0.3582 -0.5694
 5708SOL    HW222604   3.012   4.157   2.828  0.5467 -0.4977 -1.2059
 5708SOL    HW322605   2.910   4.119   2.723 -0.1275 -0.1727 -0.6781
 5708SOL    MW422606   2.947   4.179   2.775 -0.8786 -0.8129  0.0104
 5709SOL     OW22607   2.158   6.402   1.742  0.7084  0.4992 -0.0510
 5709SOL    HW222608   2.153   6.325   1.799 -1.2552  0.8180  0.2594
 5709SOL    HW322609   2.193   6.369   1.660  1.5929 -0.3652  0.6487
 5709SOL    MW422610   2.162   6.388   1.739 -0.2314  0.0155 -0.1498
 5710SOL     OW22611   0.611   5.502   0.331  0.5229 -0.5967  0.2442
 5710SOL    HW222612   0.628   5.412   0.358  0.6795  0.1442  2.9000
 5710SOL    HW322613   0.530   5.526   0.376  0.1664  0.4309 -0.8779
 5710SOL    MW422614   0.602   5.493   0.341  0.0249 -0.5616  0.0651
 5711SOL     OW22615   2.498   4.594   5.494 -0.0252  0.1292  0.0158
 5711SOL    HW222616   2.402   4.599   5.492  0.0259  1.0814 -0.5823
 5711SOL    HW322617   2.516   4.511   5.539 -1.1561 -1.8850 -2.9119
 5711SOL    MW422618   2.488   4.584   5.499  0.5313  0.6441 -0.0683
 5712SOL     OW22619   3.983   2.985   5.959  0.3039  0.2488  0.2370
 5712SOL    HW222620   4.054   2.923   5.973  0.3370 -0.0090 -0.9555
 5712SOL    HW322621   3.980   3.037   6.039  1.9039  0.3308  0.2790
 5712SOL    MW422622   3.992   2.984   5.971 -0.1984 -0.0869 -0.4972
 5713SOL     OW22623   2.201   1.387   3.596 -0.4280  0.1114  0.1568
 5713SOL    HW222624   2.110   1.364   3.577 -0.5359 -0.6021  1.4346
 5713SOL    HW322625   2.201   1.483   3.598 -0.5868  0.2500 -2.3455
 5713SOL    MW422626   2.189   1.397   3.594 -0.1328 -0.8226  0.4197
 5714SOL     OW22627   4.613   4.782   4.924  0.3163  0.5609  0.9092
 5714SOL    HW222628   4.686   4.790   4.985  0.2253 -0.5112  1.1802
 5714SOL    HW322629   4.559   4.711   4.960 -0.0909  0.3595 -0.0620
 5714SOL    MW422630   4.615   4.774   4.937  0.0341 -0.1801 -0.1919
 5715SOL     OW22631   3.019   0.622   4.939 -0.0850 -0.4308  0.0619
 5715SOL    HW222632   2.989   0.712   4.952 -0.3634 -0.2766 -1.4743
 5715SOL    HW322633   3.056   0.621   4.851 -2.1999 -2.3291 -0.9134
 5715SOL    MW422634   3.020   0.634   4.929 -0.1183  0.1718  0.4640
 5716SOL     OW22635   4.198   3.311   3.070 -0.2651  0.1191 -0.2499
 5716SOL    HW222636   4.245   3.384   3.030 -1.5416  0.1339 -1.8328
 5716SOL    HW322637   4.235   3.304   3.158  0.3127  2.2715 -0.2675
 5716SOL    MW422638   4.209   3.320   3.077 -0.1710 -0.3072 -0.5852
 5717SOL     OW22639   2.206   3.721   3.425 -0.4725 -0.2303 -0.0932
 5717SOL    HW222640   2.214   3.631   3.456  2.3625 -0.2429 -0.5967
 5717SOL    HW322641   2.135   3.758   3.477 -0.0936 -2.0696  1.8669
 5717SOL    MW422642   2.198   3.714   3.436  0.2463  0.3676  0.4227
 5718SOL     OW22643   3.817   2.408   3.695 -0.1601  0.6312  0.2116
 5718SOL    HW222644   3.885   2.411   3.628 -0.2330 -1.2425  0.0010
 5718SOL    HW322645   3.849   2.467   3.764  3.3858 -2.4491  1.5958
 5718SOL    MW422646   3.830   2.416   3.695  0.0607  0.3325 -0.8150
 5719SOL     OW22647   5.614   5.501   0.851 -0.5121 -0.2358 -0.4285
 5719SOL    HW222648   5.698   5.524   0.813 -0.2616 -0.1510  0.1642
 5719SOL    HW322649   5.564   5.463   0.779  1.1772 -3.3276 -0.1592
 5719SOL    MW422650   5.619   5.499   0.837  0.1805 -0.1891  0.1654
 5720SOL     OW22651   2.018   2.119   4.176  0.0336 -0.1447 -0.5272
 5720SOL    HW222652   1.973   2.035   4.187  0.5798 -0.5937 -1.5408
 5720SOL    HW322653   1.948   2.184   4.175 -0.4100 -0.5996  0.0883
 5720SOL    MW422654   2.003   2.116   4.177 -0.5188  0.9186 -0.2496
 5721SOL     OW22655   6.340   1.667   4.440 -0.1346  0.6602  0.5696
 5721SOL    HW222656   6.317   1.636   4.352 -1.3749  1.2850  0.6424
 5721SOL    HW322657   6.264   1.645   4.493  0.2004  1.1711  1.2711
 5721SOL    MW422658   6.327   1.660   4.435  0.2556  0.0701 -0.1839
 5722SOL     OW22659   4.411   3.537   6.356  0.3654  0.4488 -0.0629
 5722SOL    HW222660   4.416   3.618   6.408 -0.5897  0.4177  0.0914
 5722SOL    HW322661   4.500   3.502   6.358  0.8871  1.6924 -0.4458
 5722SOL    MW422662   4.423   3.543   6.363  0.5582 -0.3192 -0.0588
 5723SOL     OW22663   2.713   1.120   5.814 -0.2253 -0.3164 -0.4506
 5723SOL    HW222664   2.643   1.055   5.829 -0.4106 -0.0669 -0.2282
 5723SOL    HW322665   2.772   1.108   5.888 -0.1638 -0.3537 -0.5058
 5723SOL    MW422666   2.711   1.110   5.826  0.0218  0.0824 -0.2204
 5724SOL     OW22667   0.846   4.099   2.082  0.2463  0.3044  0.0651
 5724SOL    HW222668   0.788   4.162   2.038 -0.2395  0.4901  0.9523
 5724SOL    HW322669   0.832   4.115   2.175  1.0056 -0.3222  0.2910
 5724SOL    MW422670   0.837   4.109   2.088 -0.5956  0.6897  0.0387
 5725SOL     OW22671   6.385   4.389   3.578  0.8229  0.6263 -0.3465
 5725SOL    HW222672   6.402   4.408   3.486 -0.4018  0.9937 -0.5132
 5725SOL    HW322673   6.330   4.461   3.608  2.4039  1.2869  1.0905
 5725SOL    MW422674   6.380   4.401   3.570  0.3582 -0.2335 -0.5286
 5726SOL     OW22675   4.437   6.217   5.522 -0.2045  0.1790 -0.0920
 5726SOL    HW222676   4.407   6.238   5.434  0.8296 -1.0150 -0.7622
 5726SOL    HW322677   4.424   6.298   5.572  0.3649  1.2786 -1.6491
 5726SOL    MW422678   4.432   6.230   5.517 -0.4044 -0.2822  0.4994
 5727SOL     OW22679   2.822   0.836   2.567 -0.2959  0.3054  0.3507
 5727SOL    HW222680   2.843   0.743   2.577  0.4924  0.3643 -0.6355
 5727SOL    HW322681   2.753   0.839   2.500  0.2897  0.4808 -0.2553
 5727SOL    MW422682   2.816   0.824   2.560 -0.2491 -0.1538  0.0156
 5728SOL     OW22683   2.616   0.962   1.002 -0.0838 -0.8268  0.0922
 5728SOL    HW222684   2.630   0.914   1.084  1.1379 -2.6039 -1.0719
 5728SOL    HW322685   2.526   0.941   0.977 -0.3242 -0.6129  0.7780
 5728SOL    MW422686   2.606   0.953   1.009  0.0490  0.5986 -0.2974
 5729SOL     OW22687   3.235   1.517   3.862  0.3408  0.2176  0.2251
 5729SOL    HW222688   3.189   1.519   3.945 -0.2394  0.8855 -0.1051
 5729SOL    HW322689   3.184   1.573   3.804  1.9971  1.6690  0.0767
 5729SOL    MW422690   3.222   1.524   3.865 -0.0361 -0.2537  0.1746
 5730SOL     OW22691   4.467   6.028   4.997  0.4036  0.4965 -0.4574
 5730SOL    HW222692   4.556   6.022   5.031  0.5954 -0.1039 -1.0435
 5730SOL    HW322693   4.477   6.060   4.908 -0.0384  1.2951 -0.2255
 5730SOL    MW422694   4.480   6.031   4.990 -0.4869 -0.4552  0.3593
 5731SOL     OW22695   6.354   0.118   1.174  0.1298 -0.3105  0.5391
 5731SOL    HW222696   6.418   0.048   1.163  1.7808  1.3308 -0.9524
 5731SOL    HW322697   6.274   0.083   1.134  1.0677 -1.1842 -0.6607
 5731SOL    MW422698   6.352   0.104   1.167 -0.2861  0.7130  0.4747
 5732SOL     OW22699   5.770   5.730   1.137 -0.0418  0.1776 -0.3695
 5732SOL    HW222700   5.712   5.726   1.061 -0.6985 -0.4266  0.1538
 5732SOL    HW322701   5.804   5.641   1.146  0.4949  0.3853 -0.3051
 5732SOL    MW422702   5.767   5.717   1.128  0.4149  0.1578 -0.6054
 5733SOL     OW22703   0.598   3.969   0.813  0.2257  0.4502 -0.5211
 5733SOL    HW222704   0.537   3.953   0.885 -0.8421  0.1559 -1.4504
 5733SOL    HW322705   0.564   3.915   0.741  0.2398  2.0111 -1.7669
 5733SOL    MW422706   0.585   3.960   0.813 -0.0275  0.0127  0.8852
 5734SOL     OW22707   1.584   2.851   5.761 -0.2927  0.3027  0.1810
 5734SOL    HW222708   1.633   2.773   5.788 -1.1323 -0.0117  0.8166
 5734SOL    HW322709   1.648   2.922   5.769  0.0910 -0.1110  0.9423
 5734SOL    MW422710   1.599   2.850   5.766  0.5099  0.1116 -0.6643
 5735SOL     OW22711   3.637   6.218   2.689  0.2310  0.1664 -1.0126
 5735SOL    HW222712   3.561   6.214   2.747 -0.5285  0.1143 -1.9757
 5735SOL    HW322713   3.712   6.206   2.747 -0.6064 -3.2804 -0.4060
 5735SOL    MW422714   3.637   6.216   2.704  0.7079  0.1326  0.1484
 5736SOL     OW22715   5.761   2.490   0.087 -0.3911 -0.2219 -0.4507
 5736SOL    HW222716   5.809   2.572   0.074 -2.7397  1.1388 -1.3226
 5736SOL    HW322717   5.670   2.514   0.071 -1.5211 -2.4255  2.0334
 5736SOL    MW422718   5.755   2.504   0.083  0.1534  0.6373 -0.1119
 5737SOL     OW22719   2.715   4.555   4.385  0.4767  0.2777 -0.6838
 5737SOL    HW222720   2.635   4.608   4.386  0.2493 -0.0385  1.1469
 5737SOL    HW322721   2.684   4.464   4.383  0.7485  0.1396  0.5705
 5737SOL    MW422722   2.700   4.550   4.385  0.2568  0.3062 -0.0227
 5738SOL     OW22723   3.414   0.124   2.232 -0.5718  0.6033 -0.1946
 5738SOL    HW222724   3.343   0.182   2.259 -0.5055  0.9939 -0.8287
 5738SOL    HW322725   3.440   0.079   2.312 -0.1177  2.0021  0.4923
 5738SOL    MW422726   3.408   0.126   2.246 -0.4328  0.1723  0.2494
 5739SOL     OW22727   5.991   0.525   5.763 -0.3710 -0.0928 -0.2267
 5739SOL    HW222728   5.918   0.559   5.815 -0.6496 -1.2012  0.1161
 5739SOL    HW322729   5.981   0.567   5.678 -0.4885  0.9671  0.2879
 5739SOL    MW422730   5.980   0.535   5.759  0.6463  0.2363 -0.0549
 5740SOL     OW22731   5.872   4.456   0.632  0.0529 -0.1530  0.4253
 5740SOL    HW222732   5.826   4.391   0.579  1.1658 -0.7273  0.1391
 5740SOL    HW322733   5.813   4.473   0.706 -1.1037 -0.0345 -0.4941
 5740SOL    MW422734   5.858   4.450   0.635  0.4516 -0.8054  0.2681
 5741SOL     OW22735   3.852   3.879   5.589 -0.0760  0.3343  0.4008
 5741SOL    HW222736   3.891   3.815   5.649 -1.2792 -0.3794  0.4559
 5741SOL    HW322737   3.757   3.871   5.603 -0.3249  0.9810 -0.7675
 5741SOL    MW422738   3.844   3.870   5.599  0.2036  0.0736 -0.2246
 5742SOL     OW22739   4.197   4.910   1.396  0.3376  0.0869  0.8218
 5742SOL    HW222740   4.169   4.890   1.485 -0.0654  1.8542  1.1309
 5742SOL    HW322741   4.198   4.826   1.351 -0.1759 -0.7284  2.2936
 5742SOL    MW422742   4.194   4.896   1.402 -0.0355 -0.0783 -0.0754
 5743SOL     OW22743   6.246   1.125   5.047 -0.1972 -0.3454 -0.5251
 5743SOL    HW222744   6.166   1.166   5.079  0.5933  0.5421  0.3903
 5743SOL    HW322745   6.296   1.197   5.010  0.5588 -0.7365 -0.2857
 5743SOL    MW422746   6.242   1.140   5.046  0.6282 -0.0905  0.4931
 5744SOL     OW22747   1.302   3.557   3.544 -0.3592  0.4685  0.4273
 5744SOL    HW222748   1.252   3.512   3.612  1.3873  0.3390  1.6914
 5744SOL    HW322749   1.346   3.628   3.589 -0.2065  1.2109 -0.8510
 5744SOL    MW422750   1.301   3.560   3.559  0.0155  0.4523 -0.3995
 5745SOL     OW22751   4.652   0.203   2.073  0.3467 -0.1102  0.6089
 5745SOL    HW222752   4.717   0.270   2.095  1.7376 -0.8321 -1.0097
 5745SOL    HW322753   4.670   0.132   2.134  0.9056 -0.1898  0.3582
 5745SOL    MW422754   4.663   0.202   2.084  0.3552  0.1269  1.1607
 5746SOL     OW22755   0.616   6.306   1.189  0.2170 -0.2362  0.3017
 5746SOL    HW222756   0.680   6.359   1.236 -1.2481  0.8877  1.1329
 5746SOL    HW322757   0.656   6.290   1.104  1.3186  1.0158  0.5489
 5746SOL    MW422758   0.629   6.311   1.184  0.2463  0.1699 -0.6484
 5747SOL     OW22759   4.675   6.362   0.580 -0.0123 -0.2925 -0.6963
 5747SOL    HW222760   4.587   6.325   0.570  0.0196 -0.4504 -0.4003
 5747SOL    HW322761   4.691   6.361   0.674  0.3221 -0.2979 -0.7523
 5747SOL    MW422762   4.666   6.357   0.591 -0.1618  0.5423  0.6894
 5748SOL     OW22763   5.050   4.005   0.394 -0.4259  0.0890  0.1669
 5748SOL    HW222764   5.122   3.962   0.347  0.7126  0.5863  1.3907
 5748SOL    HW322765   4.978   3.942   0.391  0.8845 -1.5218  1.0959
 5748SOL    MW422766   5.050   3.991   0.387 -0.6177  0.7710  0.1641
 5749SOL     OW22767   0.820   1.112   3.102 -0.3682 -0.1713  0.2133
 5749SOL    HW222768   0.889   1.061   3.144  0.9760  0.0795 -1.5769
 5749SOL    HW322769   0.770   1.149   3.175  0.6937 -1.2614  1.5541
 5749SOL    MW422770   0.822   1.110   3.117  0.2115 -0.3692  0.0357
 5750SOL     OW22771   4.863   3.185   4.843 -0.2969  0.3056 -0.0651
 5750SOL    HW222772   4.914   3.198   4.923 -0.4889 -0.0678  0.1203
 5750SOL    HW322773   4.798   3.120   4.867  2.0937 -2.9046 -1.5590
 5750SOL    MW422774   4.861   3.178   4.857  0.2695 -0.3146 -0.0407
 5751SOL     OW22775   1.198   5.085   5.146  0.0274 -0.1893 -0.4296
 5751SOL    HW222776   1.231   5.158   5.199  0.0540  0.7045 -1.6272
 5751SOL    HW322777   1.269   5.021   5.147  1.0565  0.9001 -1.4224
 5751SOL    MW422778   1.212   5.086   5.153  0.3944  0.0765 -0.1211
 5752SOL     OW22779   4.680   2.036   3.021  0.0223  0.6615 -0.0418
 5752SOL    HW222780   4.683   2.115   2.967 -1.1295  0.3616 -0.5738
 5752SOL    HW322781   4.748   1.980   2.984 -2.4902 -0.6590 -3.0759
 5752SOL    MW422782   4.689   2.039   3.009  0.0663  0.0427  0.5016
 5753SOL     OW22783   3.337   6.231   2.570 -0.0155 -0.0227  0.4433
 5753SOL    HW222784   3.248   6.195   2.564 -0.9832  1.7992  2.4787
 5753SOL    HW322785   3.365   6.213   2.659 -0.5694  3.9100  1.6220
 5753SOL    MW422786   3.329   6.224   2.581 -0.0499  0.4443 -0.5173
 5754SOL     OW22787   4.764   3.174   0.765 -0.1107  0.6360 -0.0851
 5754SOL    HW222788   4.782   3.256   0.810 -0.5731  1.1690 -0.8545
 5754SOL    HW322789   4.761   3.196   0.672 -0.7683 -0.1421 -0.2692
 5754SOL    MW422790   4.766   3.188   0.759 -0.1234 -0.6277 -0.0701
 5755SOL     OW22791   2.338   3.971   4.405 -0.6349 -0.1547 -0.5869
 5755SOL    HW222792   2.408   3.935   4.460 -1.1450  0.2043  0.3227
 5755SOL    HW322793   2.258   3.932   4.440 -0.7478 -2.9619 -3.4931
 5755SOL    MW422794   2.337   3.961   4.417  0.5708  0.0826 -0.2150
 5756SOL     OW22795   0.811   4.381   1.328  0.1246  0.2999  0.3544
 5756SOL    HW222796   0.881   4.445   1.337  2.1255 -1.6970 -0.1666
 5756SOL    HW322797   0.820   4.324   1.404 -2.3189  1.1713  1.4051
 5756SOL    MW422798   0.822   4.381   1.339 -0.2517  0.2675 -0.2175
 5757SOL     OW22799   2.923   2.143   3.006 -0.1069  0.0059  0.3742
 5757SOL    HW222800   3.014   2.139   2.976  0.1394 -0.6499  1.1526
 5757SOL    HW322801   2.897   2.234   2.995 -0.2682 -0.3168 -2.4534
 5757SOL    MW422802   2.932   2.154   3.001  0.8887 -0.5534  0.4612
 5758SOL     OW22803   0.797   1.712   1.807 -0.2780  0.2928 -0.1713
 5758SOL    HW222804   0.767   1.770   1.737 -1.5812 -0.8510 -0.6061
 5758SOL    HW322805   0.725   1.711   1.870 -0.2041 -0.7063 -0.0884
 5758SOL    MW422806   0.784   1.720   1.806  0.9251  0.2653 -0.2722
 5759SOL     OW22807   5.038   4.361   1.176 -0.5365  0.2383 -0.5130
 5759SOL    HW222808   5.122   4.327   1.146 -0.8382 -0.2174 -0.8494
 5759SOL    HW322809   5.010   4.301   1.245 -0.9907 -0.1157 -0.9940
 5759SOL    MW422810   5.045   4.349   1.182  0.1147  0.1682  0.1993
 5760SOL     OW22811   1.631   2.090   4.902  0.0248 -0.4585 -0.5145
 5760SOL    HW222812   1.723   2.107   4.923 -0.0062 -0.7394 -0.1262
 5760SOL    HW322813   1.582   2.144   4.964 -0.0718 -0.1572 -0.8533
 5760SOL    MW422814   1.636   2.099   4.913 -0.7637  0.7660  0.6324
 5761SOL     OW22815   5.172   1.157   3.794  0.1599  0.4319  0.0997
 5761SOL    HW222816   5.120   1.186   3.719 -0.4897 -0.0393  0.3596
 5761SOL    HW322817   5.167   1.062   3.791 -0.6586  0.4236  1.2747
 5761SOL    MW422818   5.164   1.149   3.783 -0.7901  0.0819  0.6089
 5762SOL     OW22819   0.194   5.118   3.559 -0.0703 -0.4527  0.0523
 5762SOL    HW222820   0.246   5.152   3.486  0.4982  0.2207  0.7580
 5762SOL    HW322821   0.126   5.184   3.572  0.3034 -0.1872  0.6426
 5762SOL    MW422822   0.192   5.131   3.551 -0.9874  0.1342 -0.5301
 5763SOL     OW22823   0.651   3.739   5.572  0.5213 -0.1742  0.8422
 5763SOL    HW222824   0.571   3.784   5.546  0.9437  0.9725  1.4495
 5763SOL    HW322825   0.624   3.680   5.642  0.2638  0.4880  1.3093
 5763SOL    MW422826   0.637   3.737   5.578  0.6194 -0.3841 -0.2868
 5764SOL     OW22827   5.097   5.331   0.882 -0.7822  0.0717  0.1372
 5764SOL    HW222828   5.005   5.338   0.906 -0.9204  0.3260 -0.4502
 5764SOL    HW322829   5.116   5.411   0.833  0.3063  1.0313  2.0123
 5764SOL    MW422830   5.087   5.342   0.879 -0.0506  0.1453 -0.3621
 5765SOL     OW22831   0.139   1.721   3.192 -0.8432  0.1185  0.2873
 5765SOL    HW222832   0.101   1.689   3.274 -0.1594  1.4280  1.1593
 5765SOL    HW322833   0.115   1.814   3.190 -1.9207 -0.1592 -1.6520
 5765SOL    MW422834   0.131   1.729   3.203 -0.3197 -0.0460  0.1099
 5766SOL     OW22835   6.347   1.633   1.712 -0.2291  0.3493 -0.1315
 5766SOL    HW222836   6.257   1.619   1.683 -0.3618  0.0470  0.4088
 5766SOL    HW322837   6.400   1.576   1.657 -0.2605  1.2217 -1.0864
 5766SOL    MW422838   6.342   1.624   1.701 -0.2235 -0.7869 -0.6634
 5767SOL     OW22839   4.555   1.504   0.665 -0.2509  0.3109 -0.1287
 5767SOL    HW222840   4.542   1.539   0.753  1.2706 -0.0843  0.2743
 5767SOL    HW322841   4.533   1.411   0.673 -0.7510  0.4036 -0.3436
 5767SOL    MW422842   4.550   1.497   0.678 -0.3631 -0.2135 -0.3783
 5768SOL     OW22843   0.416   0.281   6.316  0.4871 -0.0138  0.4125
 5768SOL    HW222844   0.343   0.332   6.350  0.2518  0.4163 -0.6796
 5768SOL    HW322845   0.384   0.191   6.316 -0.5241  0.2937 -1.1274
 5768SOL    MW422846   0.402   0.276   6.320  0.3576 -0.0362 -0.2218
 5769SOL     OW22847   0.177   1.968   3.970  0.0591  0.3496 -0.0789
 5769SOL    HW222848   0.113   1.981   3.899  0.0669  2.1928  0.2110
 5769SOL    HW322849   0.174   2.049   4.020  1.3510 -0.2373  1.0003
 5769SOL    MW422850   0.168   1.980   3.967 -0.5651 -0.3559  0.0350
 5770SOL     OW22851   4.063   2.312   5.122  0.0010  0.1118  0.3491
 5770SOL    HW222852   3.997   2.376   5.149  0.7777  0.6851  0.9412
 5770SOL    HW322853   4.113   2.357   5.053 -0.6273 -0.5630 -0.5678
 5770SOL    MW422854   4.061   2.327   5.116 -0.5523  0.6420 -0.3829
 5771SOL     OW22855   4.685   3.456   6.382  0.3858 -0.6363 -0.2680
 5771SOL    HW222856   4.659   3.463   6.474  0.7857  0.5095 -0.2301
 5771SOL    HW322857   4.758   3.518   6.373  1.0011 -1.4494 -1.1243
 5771SOL    MW422858   4.691   3.465   6.393  0.2212 -0.1917 -0.0204
 5772SOL     OW22859   0.892   3.368   4.162  0.3680 -0.2155 -0.4615
 5772SOL    HW222860   0.903   3.273   4.160  0.3629 -0.2274  0.0426
 5772SOL    HW322861   0.886   3.390   4.255  1.0630  0.3534 -0.5439
 5772SOL    MW422862   0.893   3.359   4.174  0.7167 -0.1509 -0.0620
 5773SOL     OW22863   1.106   5.650   4.008 -0.2321 -0.4554  0.2053
 5773SOL    HW222864   1.172   5.719   4.007  0.7700 -1.3337  1.4290
 5773SOL    HW322865   1.088   5.632   3.916  0.7427  0.2671 -0.1372
 5773SOL    MW422866   1.112   5.656   3.996 -0.2800 -0.4561 -0.6356
 5774SOL     OW22867   3.777   5.379   1.637  0.2349 -0.3124  0.2935
 5774SOL    HW222868   3.819   5.306   1.592 -1.2235 -1.4723  0.7291
 5774SOL    HW322869   3.735   5.430   1.567  2.0933  0.7446 -0.1224
 5774SOL    MW422870   3.777   5.376   1.622 -0.4521  0.5240 -0.9089
 5775SOL     OW22871   2.208   0.099   5.862 -0.0756  0.2235  0.1322
 5775SOL    HW222872   2.218   0.129   5.772 -0.6477  1.0207  0.3207
 5775SOL    HW322873   2.130   0.044   5.860 -0.2100  0.4125  0.1814
 5775SOL    MW422874   2.199   0.096   5.850  0.0412 -0.0976 -0.2875
 5776SOL     OW22875   1.699   1.263   3.418 -0.3374  0.0241 -0.0910
 5776SOL    HW222876   1.726   1.173   3.435  0.2162  0.3515  0.8319
 5776SOL    HW322877   1.606   1.265   3.440 -0.3558 -0.3226 -0.1306
 5776SOL    MW422878   1.691   1.252   3.423  0.9218  0.0412  0.0299
 5777SOL     OW22879   3.162   6.127   5.412 -0.1026 -0.1149 -0.0342
 5777SOL    HW222880   3.089   6.185   5.388 -0.8955 -0.6852  0.9296
 5777SOL    HW322881   3.153   6.052   5.354  0.2499  0.2095 -0.5140
 5777SOL    MW422882   3.151   6.125   5.401 -0.2950  0.2813 -0.3318
 5778SOL     OW22883   2.969   3.607   0.878  0.2314  0.6529 -0.0967
 5778SOL    HW222884   3.051   3.571   0.845  0.4617  2.0689 -1.1285
 5778SOL    HW322885   2.941   3.669   0.812 -0.0164  2.5832  1.7158
 5778SOL    MW422886   2.976   3.610   0.865 -0.1382 -0.6026  0.6003
 5779SOL     OW22887   4.405   2.445   3.724  0.4276 -0.3624 -0.0763
 5779SOL    HW222888   4.458   2.523   3.739 -0.2983  0.3531 -1.0443
 5779SOL    HW322889   4.326   2.459   3.776  0.4932 -0.6777  0.1131
 5779SOL    MW422890   4.401   2.457   3.732 -0.3266 -0.0633 -0.7410
 5780SOL     OW22891   3.391   0.325   0.284  0.2403  0.6164 -0.1606
 5780SOL    HW222892   3.383   0.355   0.374  0.3792  1.1071 -0.3079
 5780SOL    HW322893   3.303   0.299   0.259  0.5887 -1.9112  0.9228
 5780SOL    MW422894   3.379   0.325   0.292 -0.3147 -0.1620 -0.1765
 5781SOL     OW22895   2.210   4.796   2.368  0.1457 -0.5397  0.0617
 5781SOL    HW222896   2.140   4.742   2.330 -0.3283  0.0899  0.0289
 5781SOL    HW322897   2.240   4.746   2.444 -1.3892 -0.1252  0.9855
 5781SOL    MW422898   2.204   4.782   2.373  0.1134  0.3496  0.2819
 5782SOL     OW22899   4.989   4.074   2.337  0.3047  0.2176  0.1364
 5782SOL    HW222900   5.026   4.071   2.425 -1.5676  0.1139  0.9867
 5782SOL    HW322901   4.958   3.985   2.321 -0.2504  0.4604 -0.1917
 5782SOL    MW422902   4.990   4.062   2.347  0.4873  0.2888  1.1223
 5783SOL     OW22903   2.927   5.576   5.256  0.2243 -0.2057 -0.4023
 5783SOL    HW222904   2.836   5.577   5.286  0.4851  0.1505  0.3859
 5783SOL    HW322905   2.923   5.610   5.166 -0.5322 -1.0621 -0.7122
 5783SOL    MW422906   2.915   5.580   5.248  0.0582 -0.2528  0.1433
 5784SOL     OW22907   4.320   1.893   2.028 -0.3686  0.1147 -0.5298
 5784SOL    HW222908   4.284   1.887   2.116 -0.0706 -0.9186 -0.4676
 5784SOL    HW322909   4.390   1.828   2.026  0.0350  0.5557 -1.3396
 5784SOL    MW422910   4.324   1.883   2.039 -0.2992 -0.3062  0.2020
 5785SOL     OW22911   4.323   3.334   4.587  0.3146 -0.2250  0.1940
 5785SOL    HW222912   4.407   3.306   4.553  0.7827  1.1005  0.1799
 5785SOL    HW322913   4.284   3.385   4.515  0.3073  0.6791  0.8180
 5785SOL    MW422914   4.329   3.337   4.573 -0.2482 -0.0219 -0.1641
 5786SOL     OW22915   1.909   3.103   3.923  0.2988  0.1096  0.3232
 5786SOL    HW222916   1.921   3.010   3.941 -0.9572 -0.7737 -2.6928
 5786SOL    HW322917   1.815   3.112   3.907  0.2566  2.1223  1.3764
 5786SOL    MW422918   1.898   3.092   3.923  0.0118  0.2765 -0.4866
 5787SOL     OW22919   1.163   4.035   0.451  0.5973  0.1358  0.3326
 5787SOL    HW222920   1.223   3.980   0.401 -0.2151 -0.0911 -0.4094
 5787SOL    HW322921   1.216   4.110   0.478  0.7136  1.0680 -2.1993
 5787SOL    MW422922   1.178   4.038   0.448 -0.3985  0.2190  0.1452
 5788SOL     OW22923   5.525   4.646   2.773 -0.1781 -0.5119 -0.3465
 5788SOL    HW222924   5.610   4.663   2.814 -1.6291  0.6351  2.5215
 5788SOL    HW322925   5.527   4.696   2.691  1.6565  0.0486 -0.0009
 5788SOL    MW422926   5.536   4.655   2.768 -0.4009  0.4267  0.0702
 5789SOL     OW22927   2.065   5.979   4.055 -0.6268 -0.4939 -0.2021
 5789SOL    HW222928   2.093   6.057   4.103 -0.6647 -0.4966 -0.1753
 5789SOL    HW322929   1.998   5.940   4.111  1.2048 -1.9774  1.0781
 5789SOL    MW422930   2.060   5.984   4.069 -0.4565 -0.9524 -0.5342
 5790SOL     OW22931   6.017   0.422   0.301 -0.2966  0.3309  0.0766
 5790SOL    HW222932   6.044   0.460   0.218 -1.2091 -0.4905 -0.6215
 5790SOL    HW322933   6.046   0.330   0.297  0.4399  0.5028  1.0468
 5790SOL    MW422934   6.024   0.415   0.290  0.4937 -0.6995 -0.1470
 5791SOL     OW22935   0.840   0.528   1.328  0.5350 -0.1167  0.0431
 5791SOL    HW222936   0.749   0.546   1.305  0.9621  0.4699 -1.2790
 5791SOL    HW322937   0.863   0.596   1.391  0.3794  0.4075 -0.4583
 5791SOL    MW422938   0.831   0.539   1.333 -0.1365 -0.0185 -0.1222
 5792SOL     OW22939   1.056   3.407   2.631 -0.3199  0.1914 -0.0919
 5792SOL    HW222940   0.982   3.347   2.634 -1.0302  1.1031  2.3095
 5792SOL    HW322941   1.132   3.353   2.654 -0.2023 -0.6774 -2.2761
 5792SOL    MW422942   1.056   3.392   2.634  0.5796 -0.1027 -0.2848
 5793SOL     OW22943   2.264   5.677   5.439 -0.0798 -0.0538  0.0296
 5793SOL    HW222944   2.197   5.621   5.400 -0.4767  0.5028 -0.1079
 5793SOL    HW322945   2.214   5.739   5.493  0.3232  0.3910 -0.1078
 5793SOL    MW422946   2.248   5.678   5.441  0.6146 -0.2135 -0.0007
 5794SOL     OW22947   5.137   4.058   5.135  0.5690  0.0861  0.8071
 5794SOL    HW222948   5.156   3.969   5.163  0.0626  0.1498  1.3673
 5794SOL    HW322949   5.191   4.071   5.057  1.0638 -0.5124  1.0483
 5794SOL    MW422950   5.147   4.048   5.128 -0.0671 -0.2077  0.1232
 5795SOL     OW22951   1.181   4.157   2.310 -0.1036 -0.0955 -0.2045
 5795SOL    HW222952   1.275   4.166   2.299  0.2661 -2.5281  0.4127
 5795SOL    HW322953   1.143   4.213   2.243  1.7656  0.8778 -0.5042
 5795SOL    MW422954   1.188   4.166   2.300  0.6326  0.4788 -0.6129
 5796SOL     OW22955   3.512   4.474   0.731 -0.7175  0.7312  0.1609
 5796SOL    HW222956   3.533   4.527   0.654  0.6421  1.1325  0.7748
 5796SOL    HW322957   3.596   4.439   0.760 -0.8165  2.2503  2.6312
 5796SOL    MW422958   3.525   4.477   0.725 -0.3700  0.3139 -0.1159
 5797SOL     OW22959   6.199   1.212   3.671  0.2923 -0.2250 -0.1490
 5797SOL    HW222960   6.112   1.179   3.692  0.1929  0.9359  1.3878
 5797SOL    HW322961   6.213   1.284   3.732  2.1227 -0.0502 -0.7222
 5797SOL    MW422962   6.189   1.217   3.682 -0.3050  0.0031  0.8692
 5798SOL     OW22963   5.258   4.583   5.301 -0.7833 -0.0419  0.2201
 5798SOL    HW222964   5.220   4.515   5.357 -1.1913 -0.1900 -0.2173
 5798SOL    HW322965   5.202   4.582   5.223 -1.9665  2.0978  0.9751
 5798SOL    MW422966   5.245   4.574   5.298 -0.1843  0.0454 -0.3409
 5799SOL     OW22967   6.407   5.687   2.049 -0.3186  0.3271 -0.5903
 5799SOL    HW222968   6.343   5.744   2.092 -2.4441 -1.0093 -1.8249
 5799SOL    HW322969   6.390   5.698   1.956 -1.5744 -3.0160 -0.8953
 5799SOL    MW422970   6.397   5.696   2.043 -0.3259 -0.6730 -0.6126
 5800SOL     OW22971   1.464   2.510   5.994  0.3355  0.2021  0.3978
 5800SOL    HW222972   1.485   2.522   5.901 -0.1299  0.1673  0.2833
 5800SOL    HW322973   1.548   2.518   6.039  0.3198  2.0525  0.1554
 5800SOL    MW422974   1.478   2.512   5.987 -0.5726  0.0102  0.8539
 5801SOL     OW22975   5.090   1.334   1.390 -0.1058 -0.1737 -0.3580
 5801SOL    HW222976   5.165   1.375   1.434 -0.5481 -0.2784  0.5012
 5801SOL    HW322977   5.097   1.242   1.414 -0.1675 -0.2923 -0.7864
 5801SOL    MW422978   5.101   1.327   1.399 -0.1587  0.0059 -0.3588
 5802SOL     OW22979   3.273   0.477   5.763 -0.0730  0.1968 -0.4848
 5802SOL    HW222980   3.338   0.429   5.815 -0.1582 -0.9645 -1.4021
 5802SOL    HW322981   3.189   0.452   5.802 -0.0133  1.9500  0.9084
 5802SOL    MW422982   3.271   0.467   5.775 -0.3188  0.4609 -0.2425
 5803SOL     OW22983   3.262   5.044   2.566 -0.1188 -0.3142  0.0374
 5803SOL    HW222984   3.205   4.969   2.549 -1.1801  0.5630 -0.3756
 5803SOL    HW322985   3.230   5.080   2.649  0.5243 -0.4237  0.3429
 5803SOL    MW422986   3.251   5.039   2.575 -0.0829 -0.5262  0.4755
 5804SOL     OW22987   5.962   3.648   2.082  0.1476  0.3751  0.8138
 5804SOL    HW222988   6.054   3.659   2.057  0.4374 -2.5547  0.2771
 5804SOL    HW322989   5.964   3.582   2.151 -1.5646  0.4002  0.9190
 5804SOL    MW422990   5.975   3.641   2.088 -0.3907  0.3168 -0.3519
 5805SOL     OW22991   2.900   0.240   3.991  0.1413 -0.1796  0.1870
 5805SOL    HW222992   2.868   0.279   3.910  0.4471  0.0082  0.1564
 5805SOL    HW322993   2.922   0.314   4.047  0.7565 -0.3018  0.1134
 5805SOL    MW422994   2.899   0.255   3.988 -0.2690  0.1756  0.0432
 5806SOL     OW22995   3.855   4.971   5.239 -0.4252  0.0055  0.1714
 5806SOL    HW222996   3.920   5.033   5.206  0.8765 -0.6215  1.4538
 5806SOL    HW322997   3.825   4.924   5.161  0.5081  0.4516 -0.4757
 5806SOL    MW422998   3.859   4.973   5.225  0.6038  0.4264 -0.3362
 5807SOL     OW22999   3.647   2.718   1.278  0.3134 -0.1338 -0.0491
 5807SOL    HW223000   3.712   2.744   1.213 -0.0102  0.1088 -0.2796
 5807SOL    HW323001   3.655   2.623   1.284 -0.2334 -0.2582 -1.0640
 5807SOL    MW423002   3.657   2.709   1.270 -0.1483  0.3349  0.1757
 5808SOL     OW23003   5.926   6.135   1.160  0.2650 -0.3436 -0.0130
 5808SOL    HW223004   5.961   6.047   1.147  1.1256 -0.0954  0.5019
 5808SOL    HW323005   5.913   6.169   1.072 -0.1854 -1.0176 -0.2191
 5808SOL    MW423006   5.929   6.128   1.147  0.0893  0.4551  0.0497
 5809SOL     OW23007   4.030   0.955   3.714  0.1084  0.5877  0.0531
 5809SOL    HW223008   4.051   1.000   3.796 -1.0298  1.8466 -0.3005
 5809SOL    HW323009   4.016   0.864   3.739 -1.8621  1.2542  1.5654
 5809SOL    MW423010   4.031   0.949   3.728  0.0435  0.0811 -0.2220
 5810SOL     OW23011   4.153   3.748   5.769  0.3233  0.1862 -0.5741
 5810SOL    HW223012   4.180   3.830   5.728 -0.8374 -0.2693 -2.3672
 5810SOL    HW323013   4.223   3.687   5.749  0.5993  0.4139 -0.3196
 5810SOL    MW423014   4.166   3.751   5.761 -0.4273 -0.5754 -0.0623
 5811SOL     OW23015   2.389   2.762   4.769 -0.0488 -0.2515 -0.1573
 5811SOL    HW223016   2.299   2.789   4.754  0.0733  0.3192  0.1479
 5811SOL    HW323017   2.401   2.764   4.864  0.3441 -0.1151 -0.2041
 5811SOL    MW423018   2.379   2.766   4.779 -0.0463 -0.4085 -0.1841
 5812SOL     OW23019   5.921   3.579   0.915  0.1694  0.3022  0.0830
 5812SOL    HW223020   5.985   3.550   0.980  1.3403  0.4642 -0.9583
 5812SOL    HW323021   5.873   3.499   0.893 -1.1595  0.4796  2.0644
 5812SOL    MW423022   5.923   3.565   0.921  0.6551 -0.6403  0.2512
 5813SOL     OW23023   2.404   4.691   0.680  0.4629 -0.6007 -0.5479
 5813SOL    HW223024   2.460   4.706   0.756 -0.0446  0.5998 -0.3863
 5813SOL    HW323025   2.316   4.713   0.709  0.1061 -1.1298 -1.1940
 5813SOL    MW423026   2.400   4.696   0.694  0.0660  0.4724  0.5044
 5814SOL     OW23027   4.990   1.352   0.340 -0.3150 -0.0513  0.5787
 5814SOL    HW223028   5.035   1.301   0.408  0.8230  0.7975  0.5011
 5814SOL    HW323029   4.897   1.342   0.360 -0.1741 -2.4411  0.3412
 5814SOL    MW423030   4.984   1.344   0.352 -0.1028 -0.3227 -0.0423
 5815SOL     OW23031   3.175   5.111   6.343  0.4460 -0.9104  0.8090
 5815SOL    HW223032   3.139   5.023   6.332  2.1214 -1.2458 -3.9072
 5815SOL    HW323033   3.097   5.167   6.354 -1.1800 -2.3749 -2.1794
 5815SOL    MW423034   3.160   5.107   6.343 -0.3455 -0.0437 -0.5267
 5816SOL     OW23035   4.742   1.539   3.113  0.1081  0.3133 -0.2994
 5816SOL    HW223036   4.802   1.495   3.053  1.3650  1.1762  0.2927
 5816SOL    HW323037   4.705   1.611   3.062  0.5625  0.5650 -0.2701
 5816SOL    MW423038   4.745   1.542   3.098 -0.0874 -0.1587 -0.0524
 5817SOL     OW23039   3.964   0.464   5.004 -0.2684 -0.2950 -0.0514
 5817SOL    HW223040   3.930   0.554   5.008 -0.8758 -0.5218 -0.0328
 5817SOL    HW323041   4.042   0.465   5.060 -0.2158  0.2455 -0.1311
 5817SOL    MW423042   3.970   0.476   5.012  0.3154 -0.7053 -0.3615
 5818SOL     OW23043   2.428   2.356   1.579 -0.2120  0.4925 -0.0154
 5818SOL    HW223044   2.384   2.294   1.520  1.3447  0.5782 -1.3410
 5818SOL    HW323045   2.506   2.310   1.608  0.5172  1.5136 -0.3274
 5818SOL    MW423046   2.432   2.342   1.575 -0.5649  0.0065 -0.2755
 5819SOL     OW23047   5.805   5.117   1.823 -0.0868 -0.4814  0.3123
 5819SOL    HW223048   5.844   5.190   1.870  0.1687  0.1346 -0.8108
 5819SOL    HW323049   5.779   5.054   1.891  1.2231 -0.0999  1.1838
 5819SOL    MW423050   5.806   5.118   1.838 -0.3978  0.8687 -0.2365
 5820SOL     OW23051   5.314   6.397   2.477 -0.0640 -0.5304 -0.2120
 5820SOL    HW223052   5.257   6.416   2.402 -0.4958 -2.1320 -0.3122
 5820SOL    HW323053   5.372   6.328   2.446 -0.1741 -1.1349  0.8762
 5820SOL    MW423054   5.314   6.391   2.463  0.0490  0.0871 -0.0050
 5821SOL     OW23055   4.872   1.677   5.449  0.0232 -0.5910  0.2099
 5821SOL    HW223056   4.808   1.622   5.402  1.0581  0.3839 -2.5626
 5821SOL    HW323057   4.819   1.745   5.490 -1.1550 -2.8370  2.6636
 5821SOL    MW423058   4.856   1.679   5.448 -0.1705  0.2596  0.6450
 5822SOL     OW23059   2.891   2.958   3.255  0.4749 -0.4098 -0.5989
 5822SOL    HW223060   2.917   3.041   3.297  0.1081 -0.5764 -0.0334
 5822SOL    HW323061   2.813   2.981   3.204 -0.9516 -0.8409  1.2969
 5822SOL    MW423062   2.885   2.972   3.254  0.7314 -0.0600  0.0667
 5823SOL     OW23063   5.499   4.060   0.549  0.3776 -0.4203 -0.0235
 5823SOL    HW223064   5.481   4.101   0.634  1.0640  0.4892 -0.3046
 5823SOL    HW323065   5.589   4.029   0.556 -0.0210 -1.6066  0.0617
 5823SOL    MW423066   5.509   4.061   0.561  0.4765 -0.0794  0.2180
 5824SOL     OW23067   2.359   0.375   5.226  0.0152 -0.2047  0.3453
 5824SOL    HW223068   2.332   0.428   5.302 -1.1040 -1.1198  0.6185
 5824SOL    HW323069   2.453   0.362   5.238  0.5734  2.5571 -0.2770
 5824SOL    MW423070   2.368   0.381   5.238  0.2002 -0.7839  0.1134
 5825SOL     OW23071   5.039   2.646   0.157 -0.1743  0.1574  0.1100
 5825SOL    HW223072   4.966   2.616   0.102  0.3969  1.6185 -1.5312
 5825SOL    HW323073   5.046   2.580   0.226 -1.9526 -0.9049 -0.6669
 5825SOL    MW423074   5.030   2.633   0.159  0.0306 -0.7529 -0.1000
 5826SOL     OW23075   1.889   5.060   1.459  0.3396  0.4919 -0.0496
 5826SOL    HW223076   1.835   4.986   1.487 -0.4042  0.6694 -0.9639
 5826SOL    HW323077   1.969   5.053   1.511 -0.1313 -0.3860  0.5726
 5826SOL    MW423078   1.892   5.049   1.470  0.0725 -0.2779 -0.1384
 5827SOL     OW23079   0.084   5.242   2.670 -0.0438  0.1631 -0.6719
 5827SOL    HW223080   0.098   5.216   2.761  0.0985 -0.2388 -0.8061
 5827SOL    HW323081  -0.010   5.227   2.655  0.3511 -2.1600 -1.3098
 5827SOL    MW423082   0.073   5.236   2.680  1.1333  0.1197  0.1262
 5828SOL     OW23083   3.097   3.113   4.940  0.1800  0.1955  0.1024
 5828SOL    HW223084   3.100   3.032   4.992 -1.9887 -0.3936 -0.5695
 5828SOL    HW323085   3.163   3.101   4.873  0.7104 -0.4910  0.7291
 5828SOL    MW423086   3.106   3.100   4.938  0.0711 -0.1555 -0.5137
 5829SOL     OW23087   1.499   5.930   5.062 -0.1003  0.3648 -0.3510
 5829SOL    HW223088   1.412   5.963   5.040 -0.0465  0.2158 -0.7857
 5829SOL    HW323089   1.542   5.917   4.978  0.8629  1.8182 -0.1372
 5829SOL    MW423090   1.493   5.933   5.048 -0.1288 -0.7495  0.1735
 5830SOL     OW23091   3.098   1.621   0.324 -0.1328  0.1474  0.0320
 5830SOL    HW223092   3.108   1.585   0.236 -0.9574 -0.8896  0.3484
 5830SOL    HW323093   3.009   1.595   0.351 -0.0420  0.7985  1.0112
 5830SOL    MW423094   3.087   1.613   0.316 -0.0719  0.1155  0.0846
 5831SOL     OW23095   0.337   1.397   3.319 -0.6422 -0.5040  0.3951
 5831SOL    HW223096   0.243   1.390   3.304 -0.7286  0.7733  0.2052
 5831SOL    HW323097   0.362   1.478   3.274  0.3815 -0.3355  1.2283
 5831SOL    MW423098   0.328   1.407   3.311 -0.7538 -0.2253 -0.6183
 5832SOL     OW23099   0.418   5.064   4.656  0.0508  0.8566 -0.1010
 5832SOL    HW223100   0.413   5.157   4.679 -0.8285  0.3548  1.9225
 5832SOL    HW323101   0.497   5.033   4.700 -0.5640  0.2971  0.6197
 5832SOL    MW423102   0.428   5.072   4.665 -0.0505 -0.0154 -0.4876
 5833SOL     OW23103   0.923   0.365   3.722 -0.6901  0.8877 -0.1028
 5833SOL    HW223104   0.894   0.331   3.807 -0.0518 -0.8637 -0.5594
 5833SOL    HW323105   1.014   0.389   3.736  0.4369 -2.4003 -1.0317
 5833SOL    MW423106   0.931   0.364   3.735  0.2730  0.0155 -0.0228
 5834SOL     OW23107   3.612   4.225   5.959  0.1565 -0.0192  0.0364
 5834SOL    HW223108   3.697   4.266   5.975 -0.7034  1.7688  0.2880
 5834SOL    HW323109   3.591   4.182   6.041  0.6121 -0.0812  0.1253
 5834SOL    MW423110   3.621   4.225   5.972 -0.0842 -0.4034  0.3139
 5835SOL     OW23111   4.522   0.192   0.669 -0.4736 -0.1273 -0.1734
 5835SOL    HW223112   4.574   0.129   0.620  1.4752  1.0507  0.2481
 5835SOL    HW323113   4.522   0.271   0.615  0.1307  0.5896  0.8218
 5835SOL    MW423114   4.529   0.194   0.656 -0.2380  0.3244  0.0153
 5836SOL     OW23115   6.270   1.948   0.785  0.1949  0.1263 -0.3591
 5836SOL    HW223116   6.290   2.042   0.784 -0.6157  0.3514  1.5321
 5836SOL    HW323117   6.218   1.935   0.864 -0.5479 -1.7676 -1.1080
 5836SOL    MW423118   6.266   1.959   0.795 -0.4298  0.6010 -0.2014
 5837SOL     OW23119   0.700   1.365   5.819 -0.4986 -0.2867  0.6120
 5837SOL    HW223120   0.782   1.406   5.792 -1.1615  1.7357  1.5135
 5837SOL    HW323121   0.718   1.271   5.813  2.4264  0.0422  2.3099
 5837SOL    MW423122   0.713   1.358   5.814 -0.6950  0.1389 -0.4419
 5838SOL     OW23123   1.592   3.493   2.681  0.2857  0.1409  0.2712
 5838SOL    HW223124   1.556   3.471   2.595  0.3278  0.2245  0.2315
 5838SOL    HW323125   1.574   3.416   2.735  1.1409 -0.3095 -0.0793
 5838SOL    MW423126   1.585   3.480   2.677 -0.0334  0.0162 -0.5170
 5839SOL     OW23127   5.801   3.706   3.705  0.6091 -0.0087  0.4328
 5839SOL    HW223128   5.793   3.741   3.794  1.2700 -1.8293  1.2542
 5839SOL    HW323129   5.880   3.652   3.708  0.4611 -0.3473 -1.1874
 5839SOL    MW423130   5.810   3.704   3.717  0.2846  0.5367  0.1467
 5840SOL     OW23131   5.487   5.441   2.499 -0.6581 -0.9319 -0.6114
 5840SOL    HW223132   5.475   5.377   2.570  0.5735 -0.1248  0.3700
 5840SOL    HW323133   5.409   5.496   2.503 -1.3545 -1.8612 -0.9525
 5840SOL    MW423134   5.475   5.439   2.509 -0.9255 -0.0037  0.4410
 5841SOL     OW23135   1.255   0.965   2.732 -0.1449 -0.3014 -0.3954
 5841SOL    HW223136   1.263   1.060   2.722  1.7075 -0.2749  0.7036
 5841SOL    HW323137   1.162   0.949   2.746 -0.7031  1.1631 -2.0443
 5841SOL    MW423138   1.244   0.976   2.732 -0.2519  0.1419 -0.2616
 5842SOL     OW23139   0.806   5.122   1.199 -0.5136 -0.4064 -0.6351
 5842SOL    HW223140   0.896   5.096   1.220 -0.1615  0.1870 -1.3327
 5842SOL    HW323141   0.770   5.049   1.150 -0.6809 -0.9746  0.3215
 5842SOL    MW423142   0.813   5.109   1.195 -1.0990  0.5740 -0.7274
 5843SOL     OW23143   3.353   5.552   3.766 -0.0424  0.2737  0.1544
 5843SOL    HW223144   3.344   5.646   3.752 -0.1786  0.0440 -1.4744
 5843SOL    HW323145   3.357   5.542   3.861  1.4906  2.0454  0.3214
 5843SOL    MW423146   3.352   5.563   3.777  0.1327  0.1066  0.2731
 5844SOL     OW23147   2.046   3.825   2.336  0.9906  0.4668 -0.9059
 5844SOL    HW223148   1.995   3.786   2.266  0.7110 -0.0557 -0.4198
 5844SOL    HW323149   1.981   3.854   2.400  1.2606  0.5776 -0.6796
 5844SOL    MW423150   2.031   3.824   2.336  0.4608  0.2373 -0.2374
 5845SOL     OW23151   3.873   3.376   0.775  0.5913  0.2166 -0.3752
 5845SOL    HW223152   3.942   3.341   0.719 -1.7496 -2.3962 -1.9150
 5845SOL    HW323153   3.884   3.330   0.858 -0.4139 -1.8348 -1.2953
 5845SOL    MW423154   3.883   3.366   0.778  0.2370 -0.0340 -0.1575
 5846SOL     OW23155   1.883   3.863   3.858 -0.0043  0.3062  0.1293
 5846SOL    HW223156   1.929   3.925   3.914 -0.2167  0.4529  0.1401
 5846SOL    HW323157   1.943   3.789   3.850 -0.6272 -0.4544  1.9110
 5846SOL    MW423158   1.897   3.861   3.864  0.1643 -0.0214  0.1742
 5847SOL     OW23159   0.300   3.677   5.388  0.1907  0.3763 -0.0524
 5847SOL    HW223160   0.268   3.756   5.345 -2.1094 -0.4685  0.0044
 5847SOL    HW323161   0.370   3.646   5.331  0.7832  2.1175 -0.3496
 5847SOL    MW423162   0.305   3.683   5.375  0.1582 -0.0069 -0.1314
 5848SOL     OW23163   1.286   0.642   2.707  0.0862 -0.3953 -0.1392
 5848SOL    HW223164   1.334   0.722   2.730 -0.7018  0.5059 -1.4468
 5848SOL    HW323165   1.352   0.573   2.706  1.1311  0.5739 -0.6779
 5848SOL    MW423166   1.301   0.644   2.710 -0.1869  1.0987 -0.7372
 5849SOL     OW23167   1.036   2.103   4.416 -0.5022  0.4265  0.3099
 5849SOL    HW223168   1.131   2.106   4.422 -0.5712  0.3313  1.8050
 5849SOL    HW323169   1.007   2.188   4.448 -0.8883  1.5683 -2.7223
 5849SOL    MW423170   1.045   2.115   4.421 -0.1350  0.3687  0.4655
 5850SOL     OW23171   3.269   3.125   2.902  0.1980  0.3551 -0.2600
 5850SOL    HW223172   3.232   3.212   2.886  1.8268  0.9215 -1.2087
 5850SOL    HW323173   3.228   3.070   2.836 -0.2983  0.5701 -0.1338
 5850SOL    MW423174   3.259   3.129   2.891 -0.5042  0.2941  0.2032
 5851SOL     OW23175   1.473   3.194   1.424 -0.5360  0.6946 -0.3242
 5851SOL    HW223176   1.464   3.104   1.455  0.3489  1.2458  1.6658
 5851SOL    HW323177   1.549   3.191   1.366 -0.6754  0.1122 -0.4805
 5851SOL    MW423178   1.482   3.182   1.420  0.3148 -0.1852 -0.8359
 5852SOL     OW23179   6.373   1.655   5.258  0.0949  0.1255  0.1054
 5852SOL    HW223180   6.419   1.651   5.342 -0.7033  1.6653  0.6522
 5852SOL    HW323181   6.302   1.717   5.272 -0.3953 -0.0037 -1.5564
 5852SOL    MW423182   6.370   1.663   5.271 -0.0624  0.3299 -0.4894
 5853SOL     OW23183   3.753   4.941   0.757 -0.2015  0.1766 -0.0611
 5853SOL    HW223184   3.677   4.969   0.706 -0.0134  0.1954 -0.3358
 5853SOL    HW323185   3.814   5.014   0.752 -0.4783  0.4760  0.8158
 5853SOL    MW423186   3.751   4.954   0.749  0.9070  0.1844  0.0683
 5854SOL     OW23187   6.221   2.646   1.816  0.2879 -0.1598 -0.2185
 5854SOL    HW223188   6.136   2.603   1.816  1.2406 -2.2239 -1.4895
 5854SOL    HW323189   6.253   2.638   1.906 -0.5082 -0.0871  0.0762
 5854SOL    MW423190   6.214   2.639   1.828 -0.0151  0.1293  0.0154
 5855SOL     OW23191   5.564   5.369   2.033 -0.0075 -0.1315  0.1413
 5855SOL    HW223192   5.599   5.369   2.122  0.1021  1.2891  0.1158
 5855SOL    HW323193   5.537   5.278   2.018  2.2947 -0.9655  0.6882
 5855SOL    MW423194   5.565   5.357   2.042 -0.2319  0.1487  0.2264
 5856SOL     OW23195   6.213   2.335   5.966 -0.1530  0.2177 -0.4140
 5856SOL    HW223196   6.263   2.369   5.892  1.1878  0.6257  0.6367
 5856SOL    HW323197   6.277   2.327   6.037 -1.3235 -0.4808  0.6121
 5856SOL    MW423198   6.228   2.338   5.966 -0.1478 -0.2732  0.1502
 5857SOL     OW23199   3.709   0.873   4.312 -0.0680  0.2140 -0.0048
 5857SOL    HW223200   3.676   0.953   4.271 -0.0185 -0.4195 -1.3492
 5857SOL    HW323201   3.642   0.807   4.292 -0.3107 -0.0148  1.4354
 5857SOL    MW423202   3.696   0.875   4.304  0.2821  0.5671 -0.0912
 5858SOL     OW23203   1.048   1.806   0.751 -0.0633  0.0462 -0.8019
 5858SOL    HW223204   1.065   1.712   0.760 -0.7055  0.0686  1.1562
 5858SOL    HW323205   0.986   1.812   0.679 -0.3296 -1.0828 -0.6841
 5858SOL    MW423206   1.042   1.794   0.743  0.2555 -0.5146 -0.1057
 5859SOL     OW23207   4.007   3.261   5.530 -0.0025  0.0201 -0.4580
 5859SOL    HW223208   4.041   3.208   5.602  0.4565  0.9526  0.0360
 5859SOL    HW323209   3.921   3.224   5.510 -1.1315  1.0631  2.0536
 5859SOL    MW423210   4.000   3.249   5.537  0.4847 -0.3005 -0.1566
 5860SOL     OW23211   5.954   1.352   1.010 -0.0963  0.0494 -0.2267
 5860SOL    HW223212   5.963   1.274   1.065  1.7486 -0.2708 -0.9121
 5860SOL    HW323213   5.923   1.318   0.926 -0.6661  0.2406 -0.0959
 5860SOL    MW423214   5.951   1.337   1.006  0.1024 -0.5694  0.7955
 5861SOL     OW23215   6.282   4.674   5.224 -0.2640 -0.4584 -0.2820
 5861SOL    HW223216   6.307   4.658   5.315 -0.2727 -1.2389 -0.4118
 5861SOL    HW323217   6.190   4.701   5.229  0.2453  1.3601  0.0951
 5861SOL    MW423218   6.273   4.675   5.236 -0.2692 -0.4165  0.3998
 5862SOL     OW23219   0.242   3.045   1.874 -0.0172  0.0374 -0.1982
 5862SOL    HW223220   0.327   3.010   1.846 -0.4539 -0.7428 -0.5835
 5862SOL    HW323221   0.242   3.136   1.844  0.0453 -0.4052 -1.6399
 5862SOL    MW423222   0.253   3.052   1.866 -0.3111  0.2689 -0.1525
 5863SOL     OW23223   0.585   4.533   1.224  0.2999  0.0014  0.3264
 5863SOL    HW223224   0.622   4.591   1.158  0.3808  0.2992  0.6290
 5863SOL    HW323225   0.661   4.490   1.264  0.4505  1.5776  1.8447
 5863SOL    MW423226   0.600   4.535   1.220 -0.6879  0.0548 -0.3848
 5864SOL     OW23227   6.003   1.368   5.364 -0.4370  0.3247  0.1673
 5864SOL    HW223228   6.003   1.450   5.412 -2.0231  0.1718  0.4829
 5864SOL    HW323229   5.913   1.335   5.372  0.6300 -2.4984  1.8389
 5864SOL    MW423230   5.991   1.374   5.371  0.0007  0.0933 -0.7298
 5865SOL     OW23231   5.841   2.819   6.104  0.3061  0.1184 -0.4745
 5865SOL    HW223232   5.930   2.850   6.085  0.0605  0.3868 -1.2347
 5865SOL    HW323233   5.786   2.865   6.040 -0.6043  1.2569  1.0786
 5865SOL    MW423234   5.845   2.829   6.093 -0.1659  0.2430  0.3657
 5866SOL     OW23235   4.703   4.939   2.696  0.1722 -0.3693  0.3129
 5866SOL    HW223236   4.697   4.852   2.658 -0.6367 -0.4414  0.5938
 5866SOL    HW323237   4.626   4.947   2.752  0.4339  0.3838  0.5896
 5866SOL    MW423238   4.692   4.929   2.699  0.4833 -0.1455 -0.1905
 5867SOL     OW23239   1.582   1.974   2.351 -0.1895 -0.2750 -0.3435
 5867SOL    HW223240   1.586   2.056   2.399  1.3939  0.5954 -1.8555
 5867SOL    HW323241   1.520   1.920   2.400 -1.2057  1.7764  0.7250
 5867SOL    MW423242   1.574   1.977   2.364 -0.0381 -0.1506 -0.2357
 5868SOL     OW23243   3.867   1.718   1.616 -0.2442  0.0905 -0.1634
 5868SOL    HW223244   3.871   1.675   1.702 -0.1155 -0.3244 -0.3735
 5868SOL    HW323245   3.779   1.698   1.584  0.1657 -0.9066 -0.7096
 5868SOL    MW423246   3.856   1.710   1.623 -0.1305 -0.1603  0.4961
 5869SOL     OW23247   4.238   6.078   5.322  0.2104  0.5786 -0.4273
 5869SOL    HW223248   4.262   5.986   5.329 -0.9032  0.2949 -0.2302
 5869SOL    HW323249   4.163   6.088   5.381  1.6731  2.1128  1.3051
 5869SOL    MW423250   4.231   6.067   5.331  0.4204  0.6790  0.1732
 5870SOL     OW23251   3.193   0.385   2.764  0.3730  0.1120 -0.5674
 5870SOL    HW223252   3.282   0.368   2.796  0.4708 -0.7181 -1.2493
 5870SOL    HW323253   3.180   0.479   2.776  1.2036  0.1739 -0.1173
 5870SOL    MW423254   3.203   0.395   2.770 -0.7170 -0.1701  0.7099
 5871SOL     OW23255   6.097   3.185   1.144 -0.5145 -0.1527 -0.3175
 5871SOL    HW223256   6.143   3.106   1.115  2.6161  0.7782  1.5970
 5871SOL    HW323257   6.019   3.189   1.089  0.5964 -3.0663 -2.3521
 5871SOL    MW423258   6.093   3.175   1.133 -0.2122  0.1338 -0.5584
 5872SOL     OW23259   3.477   5.042   4.366 -0.0822 -0.3567  0.2586
 5872SOL    HW223260   3.459   4.968   4.309  1.6081 -2.5088  2.2698
 5872SOL    HW323261   3.562   5.075   4.337 -1.4767  1.9023 -1.5787
 5872SOL    MW423262   3.486   5.036   4.355  0.4521  0.9246 -0.0940
 5873SOL     OW23263   1.657   2.089   5.765 -0.5583 -0.4405  0.1407
 5873SOL    HW223264   1.588   2.058   5.823 -0.3690  1.9122  1.7549
 5873SOL    HW323265   1.738   2.063   5.809 -0.4188  1.0080  0.7920
 5873SOL    MW423266   1.659   2.081   5.779  0.1267  0.3329  0.3230
 5874SOL     OW23267   2.685   4.340   5.892 -0.6772 -0.1388  0.1682
 5874SOL    HW223268   2.638   4.375   5.968 -2.5159 -0.3866 -0.7897
 5874SOL    HW323269   2.640   4.258   5.872  0.1913 -0.4032 -0.8068
 5874SOL    MW423270   2.673   4.334   5.899 -0.1091 -0.9331 -0.2686
 5875SOL     OW23271   0.186   0.260   0.645  0.2042  0.1215 -0.2972
 5875SOL    HW223272   0.180   0.212   0.562 -0.2911 -0.0132 -0.1891
 5875SOL    HW323273   0.209   0.349   0.620 -1.4696  0.4723 -0.7229
 5875SOL    MW423274   0.188   0.266   0.631 -0.7088 -0.3338  0.0251
 5876SOL     OW23275   1.842   3.662   5.316 -0.0104  0.3387  0.3595
 5876SOL    HW223276   1.935   3.652   5.296  0.2158 -0.1629  1.5702
 5876SOL    HW323277   1.818   3.746   5.276  0.6363 -0.1258 -1.0608
 5876SOL    MW423278   1.851   3.672   5.308 -0.0751  0.0171 -0.2769
 5877SOL     OW23279   5.191   1.067   0.313 -0.0900  0.4212  0.2252
 5877SOL    HW223280   5.253   1.087   0.383  1.5439  0.7278 -1.2315
 5877SOL    HW323281   5.229   1.109   0.235 -0.5524 -1.9482 -1.3624
 5877SOL    MW423282   5.204   1.075   0.312  0.2736 -0.2107 -0.3922
 5878SOL     OW23283   1.906   5.358   3.302 -0.1340  0.0342  0.5545
 5878SOL    HW223284   1.818   5.320   3.299 -0.4888  0.8299 -1.8684
 5878SOL    HW323285   1.895   5.441   3.348 -0.6493  0.0771  0.3626
 5878SOL    MW423286   1.893   5.364   3.307 -0.1997 -0.0741  0.2742
 5879SOL     OW23287   4.909   1.009   4.738 -0.0669  0.0441  0.4046
 5879SOL    HW223288   4.837   0.954   4.769 -0.4152 -0.2080 -0.7889
 5879SOL    HW323289   4.883   1.035   4.649  0.3746  1.6310  0.7012
 5879SOL    MW423290   4.896   1.005   4.730  0.0582  0.0946  0.4485
 5880SOL     OW23291   1.422   6.091   5.619 -0.2096  0.0514 -0.0638
 5880SOL    HW223292   1.337   6.088   5.663  0.6184  0.3105  1.6265
 5880SOL    HW323293   1.425   6.177   5.576 -0.7287  0.0972 -0.0086
 5880SOL    MW423294   1.411   6.102   5.619 -0.1296  0.5581 -0.5142
 5881SOL     OW23295   5.645   2.889   0.113  0.1256  0.5141 -0.4965
 5881SOL    HW223296   5.560   2.850   0.135  1.3969 -1.8560  0.5956
 5881SOL    HW323297   5.664   2.857   0.025  0.7714 -0.6706  0.0559
 5881SOL    MW423298   5.636   2.880   0.104 -0.3241  0.0158 -0.4643
 5882SOL     OW23299   2.597   5.422   2.707  0.2592 -0.0852  0.2853
 5882SOL    HW223300   2.567   5.440   2.796 -0.6898 -0.7705  0.1177
 5882SOL    HW323301   2.608   5.327   2.703  0.6510 -0.0261 -0.2246
 5882SOL    MW423302   2.594   5.412   2.718  0.5854 -0.2833 -0.2901
 5883SOL     OW23303   6.268   5.975   3.450 -0.1591  0.0823 -0.2455
 5883SOL    HW223304   6.324   6.052   3.440 -2.4318  1.8354 -0.0121
 5883SOL    HW323305   6.263   5.961   3.545 -0.0507 -0.1574 -0.2725
 5883SOL    MW423306   6.275   5.983   3.462 -0.2297  0.8304  0.4882
 5884SOL     OW23307   0.731   2.775   5.621  0.2311 -0.6961  0.3119
 5884SOL    HW223308   0.723   2.837   5.694 -0.9591 -2.1334  1.4803
 5884SOL    HW323309   0.824   2.750   5.622  0.1676 -0.9846  1.6319
 5884SOL    MW423310   0.742   2.780   5.631  0.7828  0.6371  0.0499
 5885SOL     OW23311   1.183   0.312   0.107  0.0754  0.3571  0.6308
 5885SOL    HW223312   1.126   0.384   0.078  0.6466  0.6005  0.1092
 5885SOL    HW323313   1.181   0.318   0.202  0.1910  1.1307  0.5944
 5885SOL    MW423314   1.175   0.322   0.116 -0.4180  0.1839  0.3614
 5886SOL     OW23315   3.595   1.138   1.372  0.3553  0.0796  0.3287
 5886SOL    HW223316   3.568   1.194   1.299 -1.3999 -0.3388  0.6075
 5886SOL    HW323317   3.667   1.085   1.337 -0.0396  0.3282 -0.8942
 5886SOL    MW423318   3.601   1.138   1.358  0.1688  0.0793 -0.4015
 5887SOL     OW23319   0.277   3.461   1.280  0.3725 -0.6447  0.1057
 5887SOL    HW223320   0.236   3.407   1.348  0.1105 -0.1559  0.3448
 5887SOL    HW323321   0.256   3.551   1.306  3.8404 -0.1512  1.7490
 5887SOL    MW423322   0.269   3.466   1.293 -0.3234  0.3416 -0.0622
 5888SOL     OW23323   2.710   4.195   3.819  0.3891  0.9459  0.7884
 5888SOL    HW223324   2.636   4.251   3.840 -0.0067  0.9277 -0.4502
 5888SOL    HW323325   2.754   4.179   3.903 -0.9874  0.9739  1.5337
 5888SOL    MW423326   2.706   4.200   3.833  0.3095 -0.5543 -0.1267
 5889SOL     OW23327   4.568   1.788   1.420  0.2288 -0.0748  0.2908
 5889SOL    HW223328   4.602   1.754   1.337  0.4976 -0.2517  0.4742
 5889SOL    HW323329   4.517   1.865   1.395  0.7278  0.1707  0.0061
 5889SOL    MW423330   4.566   1.794   1.406 -0.0542  0.1423  0.2721
 5890SOL     OW23331   6.191   3.604   1.721 -0.0788 -0.6719 -0.2255
 5890SOL    HW223332   6.163   3.573   1.636 -1.3042 -0.4288  0.0729
 5890SOL    HW323333   6.238   3.686   1.703 -1.9828  0.4095 -0.5438
 5890SOL    MW423334   6.193   3.611   1.708  0.2685  0.5207  0.5768
 5891SOL     OW23335   5.731   2.893   4.400 -0.2787  0.1689  0.0275
 5891SOL    HW223336   5.713   2.891   4.494 -1.4483  2.7315 -0.0465
 5891SOL    HW323337   5.774   2.977   4.386  0.3264 -0.3867 -1.6790
 5891SOL    MW423338   5.734   2.904   4.410 -0.3013 -0.3104 -0.4009
 5892SOL     OW23339   1.362   6.194   1.962  0.3974  0.5568  0.4156
 5892SOL    HW223340   1.385   6.242   1.882 -3.9604  0.9319 -0.9137
 5892SOL    HW323341   1.281   6.235   1.992  0.5798 -1.1629  3.6749
 5892SOL    MW423342   1.354   6.206   1.955  0.0151 -0.3107  0.2818
 5893SOL     OW23343   1.237   4.352   4.481 -0.0348 -0.2166  0.1591
 5893SOL    HW223344   1.201   4.421   4.538  1.2394  1.5146 -1.0036
 5893SOL    HW323345   1.246   4.276   4.538 -0.8315  0.7911  1.6964
 5893SOL    MW423346   1.234   4.351   4.496 -0.0981 -0.4706 -0.3143
 5894SOL     OW23347   3.966   0.779   4.067 -0.0642 -0.0982  0.2628
 5894SOL    HW223348   3.955   0.756   3.974  3.7128 -0.8830 -0.1804
 5894SOL    HW323349   4.002   0.868   4.065  0.5851 -0.3354  0.8974
 5894SOL    MW423350   3.969   0.788   4.054 -0.0211 -0.1248  0.0654
 5895SOL     OW23351   4.910   3.787   0.297 -0.2039  0.0649 -0.6256
 5895SOL    HW223352   4.937   3.703   0.333 -0.4357  0.8614  1.5733
 5895SOL    HW323353   4.945   3.788   0.208  1.7781 -1.4151  0.0711
 5895SOL    MW423354   4.918   3.776   0.290  0.4803 -0.7532  0.2851
 5896SOL     OW23355   0.465   5.989   2.414 -0.1709 -0.2480  0.0928
 5896SOL    HW223356   0.391   6.024   2.363 -0.7053  0.5716  1.3790
 5896SOL    HW323357   0.542   6.030   2.374 -0.6317  0.8653  0.2965
 5896SOL    MW423358   0.465   5.999   2.402 -0.1305  0.1428  0.3569
 5897SOL     OW23359   6.058   3.615   1.419  0.2655 -0.1297 -0.3760
 5897SOL    HW223360   6.140   3.595   1.373  1.6005  3.4881  0.0917
 5897SOL    HW323361   5.990   3.591   1.356  1.8421  0.1377 -2.3134
 5897SOL    MW423362   6.060   3.609   1.405  0.0232  0.2690 -0.0396
 5898SOL     OW23363   6.405   2.461   1.723 -0.0980  0.2677 -0.5311
 5898SOL    HW223364   6.351   2.536   1.747  0.8048  0.5393  0.7497
 5898SOL    HW323365   6.351   2.385   1.744 -1.1111  0.5163 -2.0532
 5898SOL    MW423366   6.391   2.461   1.729  0.8801  0.0802 -0.3251
 5899SOL     OW23367   3.153   4.386   0.130 -0.0886  0.0668 -0.5292
 5899SOL    HW223368   3.140   4.478   0.107  2.1508  0.2066 -1.5500
 5899SOL    HW323369   3.236   4.385   0.178  0.6943 -1.5508 -1.8001
 5899SOL    MW423370   3.162   4.398   0.133  0.2973 -0.0860 -0.3246
 5900SOL     OW23371   0.186   3.553   3.546  0.1311  0.5081  0.0260
 5900SOL    HW223372   0.238   3.522   3.471 -0.4799  2.2478 -1.1956
 5900SOL    HW323373   0.104   3.505   3.539 -0.3196  1.3767 -1.0843
 5900SOL    MW423374   0.182   3.543   3.535  0.4992 -1.0626 -0.0962
 5901SOL     OW23375   6.383   0.682   0.106 -0.1434  0.2451 -0.1106
 5901SOL    HW223376   6.386   0.601   0.054  0.2115  0.8071 -0.9955
 5901SOL    HW323377   6.372   0.751   0.041  0.1411  0.9590  0.5890
 5901SOL    MW423378   6.382   0.680   0.090  0.2392  0.2277 -0.2036
 5902SOL     OW23379   4.794   0.254   5.638 -0.3730 -0.5099  0.0500
 5902SOL    HW223380   4.706   0.290   5.628 -0.2117 -0.6490 -2.4504
 5902SOL    HW323381   4.844   0.291   5.565  2.2482  1.1261  2.4618
 5902SOL    MW423382   4.789   0.263   5.627 -0.0003 -0.5879 -0.0901
 5903SOL     OW23383   4.996   2.318   3.969 -0.2251 -0.0746  0.3835
 5903SOL    HW223384   5.001   2.378   4.043 -1.9197  0.5795 -0.0033
 5903SOL    HW323385   4.907   2.283   3.971 -0.2957 -0.0981 -1.2825
 5903SOL    MW423386   4.985   2.321   3.979 -0.5355 -0.0821 -0.1398
 5904SOL     OW23387   0.717   4.896   4.500  0.1223  0.2137 -0.2404
 5904SOL    HW223388   0.694   4.988   4.487 -0.9267 -0.1262 -0.9321
 5904SOL    HW323389   0.772   4.895   4.578 -0.0900  1.3892 -0.0698
 5904SOL    MW423390   0.721   4.908   4.508  0.0306 -0.3318  0.2374
 5905SOL     OW23391   1.788   4.939   4.467  0.1352 -0.2262 -0.1006
 5905SOL    HW223392   1.817   4.889   4.391  0.4815 -0.1184 -0.0406
 5905SOL    HW323393   1.768   4.872   4.533  0.5329 -0.2944 -0.0435
 5905SOL    MW423394   1.789   4.923   4.466 -0.4888 -0.1503 -0.5913
 5906SOL     OW23395   4.257   0.827   5.216  0.0636  0.1985 -0.0429
 5906SOL    HW223396   4.236   0.868   5.132 -0.1435  0.1136 -0.0327
 5906SOL    HW323397   4.321   0.886   5.256  1.9601 -0.9047 -1.2555
 5906SOL    MW423398   4.263   0.840   5.210 -0.3090 -0.7286  0.4721
 5907SOL     OW23399   2.377   6.087   4.415  0.2060  0.1452  0.8656
 5907SOL    HW223400   2.328   6.087   4.498 -0.7525  0.0668  0.3123
 5907SOL    HW323401   2.310   6.095   4.348  0.5286 -3.5278 -0.1439
 5907SOL    MW423402   2.362   6.088   4.417  0.0657  0.1739 -0.0690
 5908SOL     OW23403   1.628   4.505   5.486 -0.5322  0.0977 -0.1435
 5908SOL    HW223404   1.579   4.506   5.404  0.2298 -0.2951 -0.6112
 5908SOL    HW323405   1.640   4.413   5.506 -1.1996  0.1887  0.7142
 5908SOL    MW423406   1.623   4.493   5.478  0.1042 -0.0491 -0.0725
 5909SOL     OW23407   6.134   0.869   2.316 -0.2151 -0.3490  0.3172
 5909SOL    HW223408   6.056   0.907   2.277  0.0524  1.2665  1.2691
 5909SOL    HW323409   6.199   0.870   2.246 -0.7168 -0.7065 -0.1649
 5909SOL    MW423410   6.133   0.874   2.301  0.0366  0.7138  0.5869
 5910SOL     OW23411   6.124   2.298   1.131 -0.1830  0.2260 -0.2715
 5910SOL    HW223412   6.218   2.294   1.116 -0.1397  0.8417 -0.1682
 5910SOL    HW323413   6.088   2.339   1.053 -0.0556  2.5525  0.8189
 5910SOL    MW423414   6.132   2.303   1.119 -0.1631  0.6178 -0.4726
 5911SOL     OW23415   6.039   2.398   4.170 -0.2216  0.2658 -0.3144
 5911SOL    HW223416   6.009   2.423   4.257  1.5452 -2.3961  1.1932
 5911SOL    HW323417   6.135   2.396   4.177 -0.0716 -1.0379 -1.9956
 5911SOL    MW423418   6.048   2.401   4.182  0.0875  0.3248 -0.4716
 5912SOL     OW23419   1.241   2.239   1.515 -0.0497  0.2967 -0.0410
 5912SOL    HW223420   1.224   2.332   1.532  2.3104  0.6678  0.7905
 5912SOL    HW323421   1.293   2.238   1.435 -0.0265 -0.3142 -0.0262
 5912SOL    MW423422   1.246   2.251   1.507  0.2463 -0.7142  0.5190
 5913SOL     OW23423   3.557   1.569   4.089  0.5516  0.2542 -0.6670
 5913SOL    HW223424   3.536   1.510   4.017 -3.3773  0.2799  0.2028
 5913SOL    HW323425   3.527   1.522   4.167 -0.4862  2.3874  0.3056
 5913SOL    MW423426   3.550   1.555   4.090  0.2534  0.3580  0.0529
 5914SOL     OW23427   3.654   2.502   5.673  0.0729 -0.0075 -0.1276
 5914SOL    HW223428   3.610   2.473   5.594 -1.9375  1.6041  0.3044
 5914SOL    HW323429   3.597   2.473   5.745  0.2886  1.1564  0.5392
 5914SOL    MW423430   3.641   2.494   5.672  0.2884  0.1964 -0.1058
 5915SOL     OW23431   5.870   0.997   4.696 -0.0023 -1.2636  0.1911
 5915SOL    HW223432   5.919   0.939   4.754  0.7230 -1.3128 -0.4593
 5915SOL    HW323433   5.828   0.938   4.633  0.7091 -1.0987 -0.4518
 5915SOL    MW423434   5.871   0.982   4.695  0.4617  0.0802 -0.5380
 5916SOL     OW23435   3.014   3.333   1.681  0.2470 -0.0699  0.0313
 5916SOL    HW223436   2.952   3.392   1.725  0.7249  0.2516  0.2814
 5916SOL    HW323437   2.960   3.260   1.651 -0.4504  0.7591 -0.7826
 5916SOL    MW423438   2.998   3.332   1.683 -0.2468  0.3703  0.2084
 5917SOL     OW23439   3.152   1.876   4.170  0.1094 -0.2702 -0.3125
 5917SOL    HW223440   3.165   1.971   4.176  2.0338 -0.5751  1.0621
 5917SOL    HW323441   3.222   1.846   4.112 -0.5432 -0.8594 -0.8063
 5917SOL    MW423442   3.163   1.885   4.163 -0.0205 -0.6411 -0.4108
 5918SOL     OW23443   1.805   3.918   5.206  0.5269  0.2353 -0.4499
 5918SOL    HW223444   1.826   3.959   5.122  3.1104 -1.0707 -0.5233
 5918SOL    HW323445   1.837   3.980   5.271  0.2162  0.3965 -0.4458
 5918SOL    MW423446   1.812   3.932   5.203  0.0667 -0.1759  0.0889
 5919SOL     OW23447   5.185   4.980   2.258 -0.1674 -0.2514 -0.0112
 5919SOL    HW223448   5.132   5.055   2.234  1.1390  0.0741 -2.0806
 5919SOL    HW323449   5.129   4.904   2.242 -0.6447  0.1663 -0.3264
 5919SOL    MW423450   5.171   4.980   2.253  0.6439  0.2977 -0.1351
 5920SOL     OW23451   5.347   0.536   0.756  0.5100 -0.4106  0.1659
 5920SOL    HW223452   5.326   0.595   0.683 -0.1296 -1.4683 -0.5221
 5920SOL    HW323453   5.369   0.595   0.828 -1.1452  0.7228 -0.1847
 5920SOL    MW423454   5.347   0.552   0.756 -0.1903 -0.4697 -0.4772
 5921SOL     OW23455   6.262   5.532   3.642  0.7493  0.0514  0.5376
 5921SOL    HW223456   6.176   5.572   3.659  0.6742  0.5718 -0.8943
 5921SOL    HW323457   6.273   5.540   3.547  2.2810 -0.2322  0.6696
 5921SOL    MW423458   6.252   5.539   3.632 -0.1648 -0.4969  0.4488
 5922SOL     OW23459   1.879   0.900   2.693 -0.2922 -0.0737  0.0433
 5922SOL    HW223460   1.871   0.996   2.691  1.4700  0.0830 -0.4343
 5922SOL    HW323461   1.941   0.879   2.624  1.1835 -1.3488  1.6559
 5922SOL    MW423462   1.886   0.910   2.684  0.1986  0.1588  0.6941
 5923SOL     OW23463   4.030   0.487   6.260 -0.1728  0.0499  0.3700
 5923SOL    HW223464   4.106   0.440   6.225 -1.0383 -0.8107 -0.3971
 5923SOL    HW323465   3.973   0.419   6.295 -0.7954  0.6552  0.5677
 5923SOL    MW423466   4.033   0.472   6.260  0.1691 -0.1884 -0.1510
 5924SOL     OW23467   1.284   0.526   1.124  0.5351  0.0262  0.4646
 5924SOL    HW223468   1.250   0.456   1.068  0.6399 -0.4943  1.0318
 5924SOL    HW323469   1.362   0.488   1.164 -0.2125 -0.0736  1.8948
 5924SOL    MW423470   1.290   0.511   1.122  0.1392  0.9754 -0.0443
 5925SOL     OW23471   3.211   1.817   5.786 -0.5038 -0.3433 -0.2102
 5925SOL    HW223472   3.153   1.893   5.787  1.0261  0.8798  0.3106
 5925SOL    HW323473   3.242   1.810   5.876 -1.2697 -2.1562 -0.0437
 5925SOL    MW423474   3.207   1.826   5.798 -0.2893  0.2221  0.0693
 5926SOL     OW23475   3.117   0.777   3.262  0.0738 -0.1456 -0.0019
 5926SOL    HW223476   3.105   0.851   3.203  0.2472 -0.2333 -0.1474
 5926SOL    HW323477   3.178   0.719   3.216 -1.4146 -1.2353 -0.7161
 5926SOL    MW423478   3.123   0.779   3.248  0.2086 -0.5185  0.4411
 5927SOL     OW23479   3.313   2.570   1.889 -0.0744 -0.0187  0.5386
 5927SOL    HW223480   3.220   2.594   1.896 -0.3348 -0.3169 -1.3986
 5927SOL    HW323481   3.340   2.603   1.804  1.5842 -0.0567  1.0179
 5927SOL    MW423482   3.304   2.578   1.879 -0.5259  0.1090  0.2890
 5928SOL     OW23483   5.467   0.819   6.071 -0.2380  0.7062  0.0904
 5928SOL    HW223484   5.469   0.910   6.042  3.3526  1.3381  1.7272
 5928SOL    HW323485   5.440   0.822   6.162 -3.1755 -0.3523 -0.6173
 5928SOL    MW423486   5.464   0.831   6.079  0.3374 -0.2095 -0.2075
 5929SOL     OW23487   0.101   0.051   4.298  0.5538 -0.2447  0.6087
 5929SOL    HW223488   0.164  -0.018   4.320 -0.1000 -1.1217 -0.1993
 5929SOL    HW323489   0.034   0.045   4.367  0.5179 -0.3975  0.5611
 5929SOL    MW423490   0.100   0.041   4.310 -0.7997  0.7737 -0.0179
 5930SOL     OW23491   0.403   0.351   4.677 -0.2508  0.7041 -0.0837
 5930SOL    HW223492   0.472   0.413   4.700 -0.5482  1.2500 -0.6317
 5930SOL    HW323493   0.449   0.281   4.630 -0.0920  1.1950 -0.6829
 5930SOL    MW423494   0.418   0.350   4.674  0.4252 -0.3075 -0.3179
 5931SOL     OW23495   5.942   3.625   3.347 -0.5034 -0.5093 -0.3889
 5931SOL    HW223496   6.020   3.667   3.382 -0.2000  0.2346 -1.8699
 5931SOL    HW323497   5.927   3.549   3.404  1.7080 -1.0822 -0.4882
 5931SOL    MW423498   5.950   3.620   3.359 -0.0107 -0.8573 -0.2701
 5932SOL     OW23499   2.691   0.248   5.541 -0.0844  0.4902  0.6075
 5932SOL    HW223500   2.661   0.159   5.562 -2.4514  1.2489  0.7229
 5932SOL    HW323501   2.665   0.261   5.449 -0.7406  1.4041  0.9064
 5932SOL    MW423502   2.683   0.238   5.531 -0.0580 -0.6950  0.2974
 5933SOL     OW23503   4.947   4.760   1.939  0.1634 -0.6262  0.4955
 5933SOL    HW223504   4.997   4.720   2.011 -0.3384 -0.0758  1.1607
 5933SOL    HW323505   4.873   4.802   1.982 -0.3857 -0.6609 -0.3973
 5933SOL    MW423506   4.944   4.760   1.954 -0.3884 -0.1841  0.7394
 5934SOL     OW23507   0.584   1.617   0.580  0.2272 -0.2942  0.1527
 5934SOL    HW223508   0.513   1.679   0.565 -1.1498 -1.3421  2.0240
 5934SOL    HW323509   0.548   1.532   0.555  1.4286 -0.6480 -0.4920
 5934SOL    MW423510   0.570   1.614   0.575  0.0269 -0.3552 -0.1611
 5935SOL     OW23511   3.319   5.391   0.674 -0.1918  0.4245  0.5221
 5935SOL    HW223512   3.283   5.398   0.763 -0.7588  0.7893  0.2715
 5935SOL    HW323513   3.297   5.475   0.634 -0.2325  0.1273 -0.0740
 5935SOL    MW423514   3.311   5.403   0.681  0.1649  0.4406 -0.5403
 5936SOL     OW23515   4.035   1.576   1.443  0.0217  0.1183 -0.7112
 5936SOL    HW223516   3.986   1.643   1.490 -0.7596  0.5043 -2.0106
 5936SOL    HW323517   4.108   1.554   1.501 -0.0711  1.6204  0.0336
 5936SOL    MW423518   4.038   1.582   1.457  0.6873  0.2805  0.0919
 5937SOL     OW23519   2.770   0.268   3.644 -0.4619  0.2339  0.3123
 5937SOL    HW223520   2.748   0.317   3.565 -0.6414  0.7838  0.6914
 5937SOL    HW323521   2.693   0.279   3.701 -1.8685 -3.0634 -0.7417
 5937SOL    MW423522   2.757   0.276   3.641 -0.6246 -0.1788  0.1550
 5938SOL     OW23523   3.441   4.444   5.596  0.2773 -0.7845  0.4953
 5938SOL    HW223524   3.430   4.504   5.670  1.0906  0.5336 -0.4127
 5938SOL    HW323525   3.420   4.496   5.519  0.3587 -1.8657 -0.2875
 5938SOL    MW423526   3.437   4.459   5.595 -0.3998 -0.0703 -0.2835
 5939SOL     OW23527   2.834   3.555   5.000 -0.2210  0.0554 -0.1681
 5939SOL    HW223528   2.794   3.612   4.935 -1.1225 -2.1769 -1.7048
 5939SOL    HW323529   2.928   3.569   4.991 -0.4083  0.9522 -0.7984
 5939SOL    MW423530   2.841   3.565   4.990  0.5872 -0.9181  0.1937
 5940SOL     OW23531   5.909   4.095   6.312 -0.4072  0.1702 -0.5167
 5940SOL    HW223532   5.949   4.060   6.391 -0.1228  0.2937 -0.6033
 5940SOL    HW323533   5.900   4.189   6.329 -2.6385 -0.1491  0.3482
 5940SOL    MW423534   5.913   4.103   6.325 -0.0796  0.3825 -0.4491
 5941SOL     OW23535   5.763   0.426   5.378  0.3303  0.0479  0.0225
 5941SOL    HW223536   5.727   0.460   5.459 -0.1379 -2.9013  1.1512
 5941SOL    HW323537   5.841   0.376   5.405  0.1240 -1.0487 -1.2881
 5941SOL    MW423538   5.769   0.424   5.392  0.2140 -0.3684 -0.2223
 5942SOL     OW23539   6.377   3.829   0.245  0.1366 -0.5731  0.1895
 5942SOL    HW223540   6.350   3.741   0.217 -2.3090  0.2144 -0.1898
 5942SOL    HW323541   6.357   3.885   0.171  3.0264  0.1819 -0.1307
 5942SOL    MW423542   6.371   3.824   0.232  0.4041 -0.2089  0.0319
 5943SOL     OW23543   2.657   5.633   4.331  0.2272 -0.1719 -0.1059
 5943SOL    HW223544   2.618   5.671   4.410  0.2061 -0.9341  0.2555
 5943SOL    HW323545   2.609   5.552   4.317  0.5075 -0.2435 -0.6719
 5943SOL    MW423546   2.645   5.627   4.340  0.6230 -0.0199  0.0829
 5944SOL     OW23547   4.230   3.664   1.631 -0.2715 -0.2531  0.5849
 5944SOL    HW223548   4.192   3.644   1.546 -0.6664  0.5096  0.5738
 5944SOL    HW323549   4.311   3.712   1.611 -0.5775  0.2902  0.6431
 5944SOL    MW423550   4.236   3.667   1.618  0.1424  0.8074 -0.0876
 5945SOL     OW23551   3.956   1.801   4.965  0.2678  0.6005  0.3243
 5945SOL    HW223552   4.007   1.724   4.992  0.4574  0.5419 -0.1774
 5945SOL    HW323553   3.904   1.769   4.891 -0.3438  0.7161  0.7063
 5945SOL    MW423554   3.956   1.786   4.959  0.6784 -0.2045  1.4008
 5946SOL     OW23555   2.482   4.649   1.862 -0.0723  0.0277 -0.1288
 5946SOL    HW223556   2.563   4.661   1.911  0.1020 -1.5080  0.0050
 5946SOL    HW323557   2.414   4.639   1.928 -0.0672 -0.5410 -0.1991
 5946SOL    MW423558   2.484   4.649   1.877  0.1757 -0.2022 -0.7008
 5947SOL     OW23559   3.787   5.329   0.999  0.7260  0.6261  0.2957
 5947SOL    HW223560   3.720   5.327   0.930 -0.9042  0.9489  1.8072
 5947SOL    HW323561   3.838   5.408   0.980  0.1600  0.8373 -0.4191
 5947SOL    MW423562   3.785   5.339   0.987 -0.2135  0.0444 -0.1218
 5948SOL     OW23563   0.662   5.609   6.212  0.1769  0.3106 -0.1020
 5948SOL    HW223564   0.651   5.653   6.128  1.8311  3.1436  1.0043
 5948SOL    HW323565   0.577   5.619   6.255 -0.2627  0.0774 -0.8956
 5948SOL    MW423566   0.649   5.616   6.207 -0.5288 -0.1240  0.7478
 5949SOL     OW23567   3.913   6.020   3.420  0.5384  0.3075 -0.6275
 5949SOL    HW223568   3.969   6.042   3.345  1.6043  0.2262  0.1213
 5949SOL    HW323569   3.880   6.105   3.450  1.0041  0.4561 -0.5188
 5949SOL    MW423570   3.916   6.034   3.414 -0.0569 -0.2094 -0.0153
 5950SOL     OW23571   5.271   3.240   5.587  0.6702 -0.0703 -0.6075
 5950SOL    HW223572   5.259   3.332   5.566 -0.3338 -0.2645 -0.9346
 5950SOL    HW323573   5.188   3.214   5.628  1.4789 -0.4599  0.8454
 5950SOL    MW423574   5.259   3.249   5.590 -0.0314  0.6448 -0.1940
 5951SOL     OW23575   5.452   0.579   3.160  0.1108  0.1962 -0.3586
 5951SOL    HW223576   5.360   0.565   3.182  0.1747  0.0599 -0.1784
 5951SOL    HW323577   5.482   0.494   3.129  0.8041 -0.4158  1.8005
 5951SOL    MW423578   5.444   0.566   3.159 -0.3031  0.0377 -0.2282
 5952SOL     OW23579   2.450   1.749   2.045  0.3701 -0.2810  0.2706
 5952SOL    HW223580   2.430   1.842   2.032 -0.2496 -0.4586 -0.0751
 5952SOL    HW323581   2.472   1.716   1.958 -2.0436 -1.0587 -0.1278
 5952SOL    MW423582   2.450   1.757   2.032  0.1561  0.5673 -0.5297
 5953SOL     OW23583   2.923   3.955   5.178  0.3719 -0.0211 -0.3771
 5953SOL    HW223584   2.974   3.926   5.102 -2.2804 -0.4939 -2.0848
 5953SOL    HW323585   2.905   3.875   5.227 -0.3626 -0.1572 -0.8552
 5953SOL    MW423586   2.928   3.941   5.174 -0.1688 -0.1807 -0.4172
 5954SOL     OW23587   5.396   0.180   3.363  0.2649  0.2873  0.1215
 5954SOL    HW223588   5.369   0.090   3.345 -0.5564 -0.0528  2.6126
 5954SOL    HW323589   5.363   0.231   3.289  1.3527 -1.5043 -1.6968
 5954SOL    MW423590   5.388   0.175   3.351 -0.0102 -0.3746  0.1443
 5955SOL     OW23591   5.528   6.010   5.391 -0.3137  0.2823 -0.2079
 5955SOL    HW223592   5.453   5.959   5.360 -0.8120  1.3877 -0.8850
 5955SOL    HW323593   5.535   5.988   5.484  1.3978 -3.3648 -1.0322
 5955SOL    MW423594   5.519   6.000   5.399 -0.9974 -0.4814  0.2031
 5956SOL     OW23595   0.965   5.982   2.825 -0.0218 -0.2503 -0.4375
 5956SOL    HW223596   1.015   6.050   2.871 -0.6204  0.2074 -0.4418
 5956SOL    HW323597   0.944   5.918   2.892 -1.2802  0.6393  0.0457
 5956SOL    MW423598   0.969   5.983   2.840 -0.2680  0.0461 -0.8863
 5957SOL     OW23599   5.590   0.963   5.724  0.6425  0.0805  0.1706
 5957SOL    HW223600   5.665   1.014   5.757  0.3238  1.6173 -1.3071
 5957SOL    HW323601   5.524   1.029   5.704 -0.1447 -1.0132 -0.9859
 5957SOL    MW423602   5.591   0.979   5.726 -0.1500  0.5044  0.0139
 5958SOL     OW23603   0.345   4.091   2.344  0.0922  0.6512 -0.6267
 5958SOL    HW223604   0.403   4.094   2.420  0.2874  2.1717 -0.8050
 5958SOL    HW323605   0.267   4.140   2.372 -0.2533  0.3607 -1.0733
 5958SOL    MW423606   0.342   4.098   2.358  0.1244  0.0140 -0.5182
 5959SOL     OW23607   5.198  -0.001   1.175  0.1787 -0.1765 -0.3192
 5959SOL    HW223608   5.110  -0.034   1.192 -0.1650 -0.2793 -2.0957
 5959SOL    HW323609   5.244  -0.075   1.136  1.2081 -0.2490  0.9748
 5959SOL    MW423610   5.192  -0.015   1.172  0.4076  0.5929  0.2893
 5960SOL     OW23611   1.582   5.590   2.986  0.3875 -0.5061  0.3591
 5960SOL    HW223612   1.557   5.525   3.051 -0.1034  0.6740  1.3892
 5960SOL    HW323613   1.501   5.607   2.937 -0.5541  2.0230  2.5516
 5960SOL    MW423614   1.568   5.584   2.988  0.2529  0.7503  0.0901
 5961SOL     OW23615   6.148   1.340   0.054  0.4581  0.2158  0.3046
 5961SOL    HW223616   6.189   1.337   0.140  1.2979 -0.6868 -0.1045
 5961SOL    HW323617   6.221   1.342  -0.008 -0.0251 -2.1170 -0.4700
 5961SOL    MW423618   6.163   1.340   0.057  0.6164 -0.0106 -0.3704
 5962SOL     OW23619   3.109   2.190   4.930 -0.5453  0.1126 -0.0833
 5962SOL    HW223620   3.070   2.275   4.954 -2.3932 -0.3487 -1.2753
 5962SOL    HW323621   3.104   2.188   4.835 -0.4782 -1.3202 -0.0660
 5962SOL    MW423622   3.103   2.201   4.921 -0.7556 -0.6694 -0.3932
 5963SOL     OW23623   3.818   4.169   1.153  0.1264  0.0376 -0.3728
 5963SOL    HW223624   3.862   4.238   1.202  1.1769 -1.2249  0.5298
 5963SOL    HW323625   3.861   4.168   1.067 -1.9757  2.5105 -1.5948
 5963SOL    MW423626   3.829   4.178   1.148  0.3945  0.2903 -0.3066
 5964SOL     OW23627   0.841   1.203   4.600  0.1983  0.2823  0.0523
 5964SOL    HW223628   0.854   1.296   4.618 -0.8948  0.4074  0.2611
 5964SOL    HW323629   0.749   1.187   4.621  0.3977 -0.8701  0.1093
 5964SOL    MW423630   0.830   1.213   4.605 -0.6584 -0.5539  0.9082
 5965SOL     OW23631   3.822   4.839   4.971  0.1221 -0.0783  0.0167
 5965SOL    HW223632   3.914   4.847   4.947  0.9005 -0.4550  2.5181
 5965SOL    HW323633   3.782   4.922   4.943  0.8678 -0.4041 -2.2123
 5965SOL    MW423634   3.829   4.851   4.964 -0.2005  0.0791  0.0166
 5966SOL     OW23635   2.289   3.389   2.132  0.1753 -0.1856  0.5351
 5966SOL    HW223636   2.350   3.380   2.058  1.0653 -0.2633  1.2533
 5966SOL    HW323637   2.205   3.358   2.098  0.7854 -1.1283 -0.1739
 5966SOL    MW423638   2.286   3.384   2.117  0.0728  0.2383 -0.5185
 5967SOL     OW23639   1.807   4.813   2.690  0.3797 -0.0726  0.3321
 5967SOL    HW223640   1.865   4.869   2.741 -1.7652  1.4612  1.2690
 5967SOL    HW323641   1.725   4.812   2.739  0.1991 -4.0556  0.3139
 5967SOL    MW423642   1.803   4.820   2.703  0.3519  0.3707 -0.1227
 5968SOL     OW23643   0.596   1.297   1.567 -0.7899 -0.0890  0.6976
 5968SOL    HW223644   0.650   1.375   1.579 -1.4970  0.3216  1.2650
 5968SOL    HW323645   0.656   1.224   1.584  0.0822  0.2934 -0.6600
 5968SOL    MW423646   0.611   1.298   1.571  0.2173  0.1181  0.1788
 5969SOL     OW23647   0.409   1.536   4.768  0.2764 -0.0374  0.3162
 5969SOL    HW223648   0.378   1.542   4.858  0.5508  0.6206  0.3672
 5969SOL    HW323649   0.374   1.614   4.725  0.7940  0.0496  0.0502
 5969SOL    MW423650   0.400   1.547   4.774  0.2964  0.0661 -0.2773
 5970SOL     OW23651   3.100   1.340   4.793  0.2745  0.0623 -0.4549
 5970SOL    HW223652   3.092   1.339   4.889  1.8141 -0.8206 -0.3185
 5970SOL    HW323653   3.011   1.362   4.763  0.0008  1.4533  1.1794
 5970SOL    MW423654   3.087   1.343   4.802  0.0192 -0.2589 -0.0446
 5971SOL     OW23655   2.416   2.628   5.279  0.5757 -0.2516 -0.1258
 5971SOL    HW223656   2.343   2.616   5.219  0.9145 -0.6859 -0.4562
 5971SOL    HW323657   2.461   2.544   5.279  1.8381  0.3862 -0.9300
 5971SOL    MW423658   2.412   2.616   5.271  0.3198  0.5849  0.0270
 5972SOL     OW23659   0.599   2.053   3.228  0.4639 -0.3405 -0.2037
 5972SOL    HW223660   0.516   2.009   3.210 -0.1100  0.3719  0.6373
 5972SOL    HW323661   0.602   2.062   3.323  2.2384 -1.7363 -0.0694
 5972SOL    MW423662   0.588   2.049   3.238 -0.1335 -0.3241 -0.0643
 5973SOL     OW23663   0.349   3.894   3.489  0.6425 -0.3845 -0.2115
 5973SOL    HW223664   0.325   3.975   3.444  0.8291 -0.0579  0.2772
 5973SOL    HW323665   0.330   3.911   3.581  2.1216 -0.3382  0.1095
 5973SOL    MW423666   0.343   3.907   3.495  0.3955  0.1338  0.8853
 5974SOL     OW23667   2.526   1.410   1.737 -0.3400  0.2650  0.1943
 5974SOL    HW223668   2.511   1.504   1.744  0.6175  0.3208  2.3623
 5974SOL    HW323669   2.454   1.370   1.787 -0.4541 -0.1483 -0.2821
 5974SOL    MW423670   2.514   1.417   1.745  0.4350  0.1214  0.3547
 5975SOL     OW23671   5.244   2.173   0.118  0.1707 -0.3452 -0.3024
 5975SOL    HW223672   5.308   2.124   0.066 -0.0633 -0.4513 -0.4882
 5975SOL    HW323673   5.186   2.213   0.054 -1.0048 -1.6731 -0.0914
 5975SOL    MW423674   5.245   2.172   0.103 -0.0665 -0.0567 -0.1211
 5976SOL     OW23675   2.226   1.802   1.689  0.6323  0.1169  0.1552
 5976SOL    HW223676   2.272   1.883   1.668 -0.0286  0.3436 -0.4658
 5976SOL    HW323677   2.173   1.824   1.766 -1.1828  0.9441 -1.2453
 5976SOL    MW423678   2.225   1.816   1.696 -0.0059  0.0377  0.1173
 5977SOL     OW23679   5.711   6.159   4.044  0.6982 -0.7218 -0.8577
 5977SOL    HW223680   5.648   6.095   4.011  1.3390 -0.5461 -2.4942
 5977SOL    HW323681   5.741   6.205   3.966  1.7188  0.2308  0.0782
 5977SOL    MW423682   5.706   6.156   4.029  0.6580  0.3276 -0.2819
 5978SOL     OW23683   0.582   1.787   6.114  0.0416  0.4903 -0.1066
 5978SOL    HW223684   0.666   1.794   6.159 -0.9451  0.1244  1.9105
 5978SOL    HW323685   0.605   1.769   6.023  2.1352  0.8005  0.3075
 5978SOL    MW423686   0.596   1.786   6.108 -0.2918  0.2422 -0.2397
 5979SOL     OW23687   1.739   4.342   3.043 -0.3226 -0.0633 -0.2516
 5979SOL    HW223688   1.824   4.377   3.016  0.9160 -2.2822  0.4166
 5979SOL    HW323689   1.749   4.247   3.033 -2.8351 -0.3690 -0.3736
 5979SOL    MW423690   1.752   4.334   3.038  0.3057  0.2562  0.4924
 5980SOL     OW23691   4.264   4.308   4.419  0.0806 -0.1440  0.1764
 5980SOL    HW223692   4.263   4.284   4.327 -0.1205  0.8067 -0.0881
 5980SOL    HW323693   4.300   4.232   4.464 -0.2108 -0.7777 -0.6373
 5980SOL    MW423694   4.269   4.295   4.413  0.9039 -0.4181  0.4740
 5981SOL     OW23695   1.790   2.245   2.405  0.0258 -0.0866 -0.4290
 5981SOL    HW223696   1.856   2.315   2.404  0.9039 -0.8799 -1.8127
 5981SOL    HW323697   1.831   2.173   2.452 -0.2887 -0.2126 -0.3425
 5981SOL    MW423698   1.804   2.245   2.411  0.3956 -0.2451  0.0474
 5982SOL     OW23699   2.522   4.188   4.165  0.3399  0.3406 -0.1476
 5982SOL    HW223700   2.572   4.181   4.247 -0.9206 -0.1932  0.6006
 5982SOL    HW323701   2.518   4.098   4.132  0.4557  0.4874 -0.5664
 5982SOL    MW423702   2.528   4.175   4.171  0.5277 -0.1105  0.4186
 5983SOL     OW23703   5.348   0.340   6.083 -0.3067  0.0659 -0.1075
 5983SOL    HW223704   5.330   0.428   6.118  0.2455  0.3608 -0.5443
 5983SOL    HW323705   5.335   0.282   6.158  0.8519  0.6884  0.6185
 5983SOL    MW423706   5.344   0.344   6.098  0.2652  0.0934  0.3445
 5984SOL     OW23707   0.479   2.820   2.578  0.5066 -0.5714  0.3407
 5984SOL    HW223708   0.540   2.808   2.651  0.4084 -1.7028  0.2445
 5984SOL    HW323709   0.488   2.913   2.556  0.4766 -0.1780  1.8314
 5984SOL    MW423710   0.488   2.831   2.585 -0.5254  0.1167  0.0892
 5985SOL     OW23711   1.149   2.208   1.900  0.0295  0.2347 -0.4747
 5985SOL    HW223712   1.221   2.157   1.863  0.7676  0.0192  1.1993
 5985SOL    HW323713   1.071   2.155   1.881  0.8336 -1.9937  1.8647
 5985SOL    MW423714   1.148   2.194   1.892 -0.0032 -0.6950  0.0831
 5986SOL     OW23715   3.508   3.680   5.356 -0.0132 -0.0041  0.0421
 5986SOL    HW223716   3.566   3.716   5.289  1.2774  0.3770  1.3348
 5986SOL    HW323717   3.525   3.586   5.355  0.4374  0.0753  0.2438
 5986SOL    MW423718   3.518   3.673   5.347  0.4724  0.0367 -0.0877
 5987SOL     OW23719   2.960   5.111   3.599  0.2502  0.1586  0.5460
 5987SOL    HW223720   2.935   5.086   3.688 -1.0109 -2.1632 -0.3630
 5987SOL    HW323721   3.042   5.064   3.583 -0.5651 -1.0715 -0.1580
 5987SOL    MW423722   2.968   5.101   3.608 -0.1435  0.1686 -0.1973
 5988SOL     OW23723   0.938   1.912   2.902  0.3004  0.5788 -0.0513
 5988SOL    HW223724   0.978   1.828   2.928  0.3890  1.1888  2.0121
 5988SOL    HW323725   0.996   1.946   2.834  1.1830 -0.2853  0.2375
 5988SOL    MW423726   0.951   1.905   2.897 -0.1244  0.1392  0.4433
 5989SOL     OW23727   0.086   4.538   3.363  0.2223 -0.3060  0.2798
 5989SOL    HW223728   0.107   4.536   3.270  0.1186  1.2075  0.1909
 5989SOL    HW323729   0.170   4.555   3.406  0.0419  0.4965  0.3324
 5989SOL    MW423730   0.100   4.540   3.356  0.2453  0.0235 -0.0184
 5990SOL     OW23731   2.833   3.891   4.040 -0.5659  0.4323 -0.5008
 5990SOL    HW223732   2.863   3.972   4.000 -1.0662  1.4618  1.1251
 5990SOL    HW323733   2.911   3.835   4.043  0.4545  1.8548  0.7452
 5990SOL    MW423734   2.848   3.894   4.035  0.6122 -0.2805  0.3394
 5991SOL     OW23735   4.395   4.659   2.365  0.5721 -0.4340 -0.0326
 5991SOL    HW223736   4.423   4.695   2.448 -1.0099  1.6288 -0.3051
 5991SOL    HW323737   4.309   4.621   2.383 -0.4959  1.3921 -0.9432
 5991SOL    MW423738   4.387   4.659   2.378 -0.0293 -0.1563 -0.4321
 5992SOL     OW23739   2.092   2.193   2.749 -0.4076  0.3362  0.0019
 5992SOL    HW223740   2.022   2.219   2.808  1.2520 -1.8953  3.2533
 5992SOL    HW323741   2.157   2.263   2.756 -0.4667  0.3522  0.4237
 5992SOL    MW423742   2.092   2.206   2.758  0.4873 -0.1953 -0.0386
 5993SOL     OW23743   5.776   1.756   5.655  0.0823  0.2694 -0.6963
 5993SOL    HW223744   5.838   1.810   5.608 -0.3001  0.5036 -0.9349
 5993SOL    HW323745   5.830   1.698   5.709  0.6982 -1.9816 -3.4616
 5993SOL    MW423746   5.791   1.755   5.656 -0.2903  0.6707  0.4164
 5994SOL     OW23747   2.346   3.985   5.524 -0.3138 -0.1226  0.4086
 5994SOL    HW223748   2.396   3.936   5.459  0.6235  0.2279  0.8472
 5994SOL    HW323749   2.352   4.076   5.496 -1.3310 -0.1440  0.0694
 5994SOL    MW423750   2.354   3.990   5.512  0.1782  0.3963  0.2210
 5995SOL     OW23751   1.888   1.257   0.701  0.0697 -0.2509 -0.4631
 5995SOL    HW223752   1.947   1.203   0.754 -1.7151  0.3079  2.3057
 5995SOL    HW323753   1.806   1.208   0.698 -0.7708  1.0731 -0.1455
 5995SOL    MW423754   1.885   1.244   0.707  0.1135  0.5185 -0.2149
 5996SOL     OW23755   2.097   2.503   4.875 -0.3240  0.2449 -0.0924
 5996SOL    HW223756   2.173   2.446   4.860 -0.6468 -0.0636 -0.5789
 5996SOL    HW323757   2.021   2.447   4.857 -0.7488 -0.0096  2.1522
 5996SOL    MW423758   2.097   2.488   4.871  0.6745  0.3647 -0.0569
 5997SOL     OW23759   0.361   5.384   5.667 -0.0810  0.7603 -0.0086
 5997SOL    HW223760   0.454   5.365   5.660 -0.3946 -0.7585 -0.6533
 5997SOL    HW323761   0.356   5.475   5.697  1.5858  1.3381 -1.3446
 5997SOL    MW423762   0.372   5.393   5.670 -0.1760 -0.3689  0.2552
 5998SOL     OW23763   3.819   0.828   5.649  0.2289 -0.0346  0.3953
 5998SOL    HW223764   3.816   0.917   5.615  0.2941  0.0347  0.5690
 5998SOL    HW323765   3.761   0.778   5.591  0.6140  0.0078 -0.0249
 5998SOL    MW423766   3.811   0.833   5.637 -0.2127  0.2749 -0.4720
 5999SOL     OW23767   0.451   4.800   4.136 -0.2691  0.7430 -0.2729
 5999SOL    HW223768   0.461   4.850   4.055  1.9802 -1.0551 -1.2281
 5999SOL    HW323769   0.411   4.718   4.109  0.3021  0.2094  0.4460
 5999SOL    MW423770   0.447   4.796   4.122 -0.2562  0.4644  0.4388
 6000SOL     OW23771   2.276   6.240   2.869  0.0242 -0.0141 -0.6901
 6000SOL    HW223772   2.231   6.172   2.818  1.3195 -0.3956 -1.3760
 6000SOL    HW323773   2.246   6.227   2.959 -1.7709  0.2149 -1.2216
 6000SOL    MW423774   2.266   6.230   2.874  0.5905  0.0374  0.2056
 6001SOL     OW23775   0.462   2.910   4.572  0.5608  0.1877  0.1874
 6001SOL    HW223776   0.435   2.993   4.533  1.4487 -0.3348 -1.6200
 6001SOL    HW323777   0.553   2.924   4.599  0.0473  0.4575  1.9410
 6001SOL    MW423778   0.471   2.922   4.570 -0.8293 -0.1638  0.2182
 6002SOL     OW23779   0.910   2.492   2.998  0.2221  0.2587  0.5089
 6002SOL    HW223780   0.897   2.438   2.921 -2.7141  0.0586  1.0598
 6002SOL    HW323781   0.916   2.430   3.071 -2.3619  0.5566  1.0419
 6002SOL    MW423782   0.909   2.477   2.998  0.1332  0.3112  0.4822
 6003SOL     OW23783   0.920   0.494   1.073 -0.3882 -0.0254 -0.0993
 6003SOL    HW223784   0.896   0.498   1.165 -0.0384  2.2339 -0.0462
 6003SOL    HW323785   0.994   0.433   1.070  0.1081  0.4681  1.2505
 6003SOL    MW423786   0.927   0.487   1.084 -0.5581 -0.0132 -0.0896
 6004SOL     OW23787   2.251   4.431   0.730 -0.2335 -0.1452 -0.1914
 6004SOL    HW223788   2.251   4.436   0.825 -1.2104  1.7985 -0.2537
 6004SOL    HW323789   2.329   4.481   0.703 -1.1592  1.2132 -0.4364
 6004SOL    MW423790   2.262   4.438   0.739  0.1851 -0.0621  0.1016
 6005SOL     OW23791   5.942   0.370   5.082 -0.2017  0.0486 -0.2700
 6005SOL    HW223792   5.959   0.336   4.994  0.3383  3.2272 -1.5095
 6005SOL    HW323793   5.851   0.345   5.099  0.4034 -2.7724 -0.5748
 6005SOL    MW423794   5.932   0.362   5.073  0.3621  0.0304 -0.5283
 6006SOL     OW23795   0.147   6.176   4.113  0.6698  0.3801  0.6988
 6006SOL    HW223796   0.238   6.152   4.096 -0.0533 -1.8940 -0.2941
 6006SOL    HW323797   0.136   6.160   4.207  1.2641  0.5668  0.8070
 6006SOL    MW423798   0.158   6.171   4.124  0.2255  0.1817 -0.4466
 6007SOL     OW23799   5.038   2.631   0.953  0.4077 -0.1846  0.0505
 6007SOL    HW223800   5.079   2.671   0.877  2.6334  1.8072  2.1349
 6007SOL    HW323801   4.957   2.681   0.966  1.6200  1.6697  0.7959
 6007SOL    MW423802   5.033   2.643   0.945 -0.3106 -0.0195 -0.2239
 6008SOL     OW23803   5.716   5.918   2.454 -0.3031  0.7142  0.4407
 6008SOL    HW223804   5.702   5.968   2.373 -0.9032  2.4745  1.5812
 6008SOL    HW323805   5.796   5.868   2.437 -0.0809  1.4886 -1.0299
 6008SOL    MW423806   5.725   5.918   2.441  0.3515 -0.4417  0.0801
 6009SOL     OW23807   1.971   2.689  -0.006 -0.0547 -0.0212 -0.4568
 6009SOL    HW223808   1.926   2.754   0.049 -1.4967  0.4500 -2.1024
 6009SOL    HW323809   2.052   2.669   0.042 -0.6529  1.2728  1.2069
 6009SOL    MW423810   1.976   2.695   0.008 -0.5266 -0.1217  0.3908
 6010SOL     OW23811   4.514   3.131   5.702  0.7605 -0.1484 -0.1282
 6010SOL    HW223812   4.491   3.192   5.631  3.8756 -0.6043 -1.6920
 6010SOL    HW323813   4.539   3.051   5.657 -0.4860 -1.7028  1.7617
 6010SOL    MW423814   4.514   3.129   5.687 -0.0359  0.1342  0.0515
 6011SOL     OW23815   2.471   4.527   3.115  0.0764  0.0013 -0.0268
 6011SOL    HW223816   2.507   4.472   3.045  1.3588  2.0608 -1.0725
 6011SOL    HW323817   2.500   4.485   3.196  0.2967 -1.3070 -0.7590
 6011SOL    MW423818   2.480   4.514   3.116  0.3043  0.0981  0.0966
 6012SOL     OW23819   4.360   6.379   1.020 -0.1142  0.4220 -0.2832
 6012SOL    HW223820   4.455   6.372   1.021 -0.2173 -1.8950 -0.7802
 6012SOL    HW323821   4.340   6.411   0.932  0.2077  1.3686 -0.0218
 6012SOL    MW423822   4.370   6.382   1.009  0.1433  0.0086  0.2221
 6013SOL     OW23823   1.238   5.142   6.138  0.1047 -0.1405  0.4511
 6013SOL    HW223824   1.270   5.080   6.204  0.2319 -1.0734 -0.4505
 6013SOL    HW323825   1.156   5.103   6.106 -0.2328  0.5688  0.4221
 6013SOL    MW423826   1.231   5.129   6.142 -0.1850  0.3412  0.1797
 6014SOL     OW23827   2.686   4.194   1.613 -0.0684  0.1014 -0.2979
 6014SOL    HW223828   2.609   4.228   1.659 -0.7573 -1.6729 -0.0744
 6014SOL    HW323829   2.730   4.273   1.580 -1.7357  1.1977 -0.0672
 6014SOL    MW423830   2.681   4.209   1.614 -0.2506  0.8853  0.1602
 6015SOL     OW23831   1.777   0.518   1.211 -0.1629 -0.3095 -0.0907
 6015SOL    HW223832   1.715   0.548   1.145  0.9289 -0.0067 -1.0065
 6015SOL    HW323833   1.832   0.594   1.229  0.7238 -0.9014 -0.2126
 6015SOL    MW423834   1.776   0.532   1.205  0.0330  0.1747  0.6161
 6016SOL     OW23835   5.962   2.449   5.955  0.2662  0.2332 -0.1426
 6016SOL    HW223836   6.050   2.422   5.981  0.1047 -0.9481 -0.7700
 6016SOL    HW323837   5.977   2.513   5.885  0.6322 -0.1475 -0.4175
 6016SOL    MW423838   5.976   2.454   5.949 -0.0528  0.3094  0.1296
 6017SOL     OW23839   1.643   3.377   2.396 -0.2288  0.4461 -0.1646
 6017SOL    HW223840   1.632   3.472   2.391 -2.1333  0.3593  1.3640
 6017SOL    HW323841   1.720   3.359   2.341  1.0557  3.0042  0.6440
 6017SOL    MW423842   1.652   3.387   2.388  0.3046  0.1257  0.4997
 6018SOL     OW23843   1.159   2.251   3.008  0.0777 -0.3610 -0.3235
 6018SOL    HW223844   1.190   2.307   2.937  1.1280  0.0249  0.4158
 6018SOL    HW323845   1.189   2.163   2.985  0.7841 -0.1660 -0.1503
 6018SOL    MW423846   1.167   2.246   2.996 -0.2032  0.2028 -0.3981
 6019SOL     OW23847   1.646   0.009   2.617  0.5427 -0.1370  0.0728
 6019SOL    HW223848   1.594   0.020   2.696  1.2908 -0.4816  0.6278
 6019SOL    HW323849   1.697   0.090   2.610  1.1370 -0.4708  0.4510
 6019SOL    MW423850   1.646   0.021   2.626 -0.2463  0.0744  0.0544
 6020SOL     OW23851   1.565   3.014   0.698 -0.0811  0.4956 -0.2860
 6020SOL    HW223852   1.608   2.949   0.643  1.1762 -0.0047  1.2016
 6020SOL    HW323853   1.494   3.048   0.644  0.2762 -0.8931 -1.7132
 6020SOL    MW423854   1.561   3.010   0.684  0.2728 -0.3364 -0.7121
 6021SOL     OW23855   4.390   5.705   2.735  0.0854 -0.5685  0.3375
 6021SOL    HW223856   4.434   5.715   2.650 -1.6600  2.2049 -0.3617
 6021SOL    HW323857   4.314   5.651   2.715  0.4868 -1.1960  0.4848
 6021SOL    MW423858   4.386   5.699   2.721  0.5679  0.5484  0.5003
 6022SOL     OW23859   0.742   6.083   0.344  0.1978  0.7266 -0.3895
 6022SOL    HW223860   0.811   6.016   0.346 -0.6910 -0.2080  1.2066
 6022SOL    HW323861   0.788   6.166   0.349  1.2118  0.1142  0.9011
 6022SOL    MW423862   0.757   6.085   0.345  0.3150 -0.0725 -0.0494
 6023SOL     OW23863   2.605   1.983   0.705 -0.1652  0.7622  0.0881
 6023SOL    HW223864   2.650   1.927   0.642 -1.2674  0.9339 -0.8676
 6023SOL    HW323865   2.609   1.934   0.787  0.8988  0.3403 -0.1983
 6023SOL    MW423866   2.611   1.970   0.708 -0.7447  0.3916  0.4135
 6024SOL     OW23867   1.447   0.187   2.015 -0.2049  0.4612  0.7561
 6024SOL    HW223868   1.405   0.150   2.092  0.5703 -0.6363  0.6714
 6024SOL    HW323869   1.401   0.147   1.941 -1.0563  1.6327  0.6198
 6024SOL    MW423870   1.436   0.177   2.015  0.7131 -0.0509 -0.4159
 6025SOL     OW23871   3.198   3.277   0.242 -0.3475  0.3558 -0.0756
 6025SOL    HW223872   3.286   3.260   0.277 -0.5494  2.7831  1.8421
 6025SOL    HW323873   3.211   3.281   0.148  1.8725  1.8557  0.2155
 6025SOL    MW423874   3.212   3.275   0.234  0.1393  0.1774  0.1773
 6026SOL     OW23875   1.883   1.244   1.665 -0.4885 -0.4203  0.7269
 6026SOL    HW223876   1.795   1.270   1.638 -1.4858 -2.6010  1.6834
 6026SOL    HW323877   1.895   1.286   1.750  0.0063  0.9985  0.0029
 6026SOL    MW423878   1.873   1.253   1.672 -0.4328 -0.3229 -0.1474
 6027SOL     OW23879   3.037   6.386   6.220  0.3211 -0.2519  0.0159
 6027SOL    HW223880   3.130   6.381   6.197  0.2222  2.0620 -1.1299
 6027SOL    HW323881   2.993   6.402   6.137 -1.0330 -0.4141  0.6804
 6027SOL    MW423882   3.044   6.387   6.206  0.6358  0.3212 -0.6264
 6028SOL     OW23883   2.654   1.486   2.040 -0.6976 -0.6212 -0.5023
 6028SOL    HW223884   2.689   1.458   1.956 -1.4289  0.1324 -1.0717
 6028SOL    HW323885   2.705   1.437   2.105 -0.3367 -1.4386 -1.3873
 6028SOL    MW423886   2.665   1.476   2.038 -0.1364 -0.0871 -0.6972
 6029SOL     OW23887   2.654   1.409   5.959 -0.0727  0.6118  0.1970
 6029SOL    HW223888   2.740   1.404   6.000 -0.8475 -1.8533  1.7472
 6029SOL    HW323889   2.664   1.362   5.876  0.3756  1.5995 -0.3306
 6029SOL    MW423890   2.666   1.402   5.953 -0.3775  0.7605  0.2676
 6030SOL     OW23891   4.350   0.774   1.726  0.0196  0.3510 -0.0278
 6030SOL    HW223892   4.276   0.741   1.675  1.3141 -0.8942 -1.2298
 6030SOL    HW323893   4.383   0.697   1.773  0.1255  1.0392  1.0552
 6030SOL    MW423894   4.345   0.759   1.725  0.2737 -0.1412  0.1443
 6031SOL     OW23895   2.362   4.548   6.304  0.6571 -0.0825 -0.0664
 6031SOL    HW223896   2.447   4.541   6.347 -0.3724 -0.2519  2.1275
 6031SOL    HW323897   2.350   4.641   6.287 -0.4779  0.6934  3.8021
 6031SOL    MW423898   2.371   4.559   6.308 -0.3572  0.0766  0.2557
 6032SOL     OW23899   1.690   4.176   2.603  0.4984  0.1580  0.3431
 6032SOL    HW223900   1.639   4.253   2.630  0.7268  0.7365 -0.8041
 6032SOL    HW323901   1.666   4.108   2.666 -0.6611  0.8025  0.6313
 6032SOL    MW423902   1.680   4.177   2.615 -0.2861 -0.0031 -0.3811
 6033SOL     OW23903   3.482   3.557   2.884 -0.0563 -0.0135  0.9980
 6033SOL    HW223904   3.540   3.521   2.951  1.5875  1.3827  0.3940
 6033SOL    HW323905   3.447   3.637   2.922 -1.7195 -0.8550  1.3757
 6033SOL    MW423906   3.485   3.563   2.898 -0.8968 -0.2551  0.6769
 6034SOL     OW23907   4.159   1.739   1.872  0.3547  0.3220 -0.4532
 6034SOL    HW223908   4.089   1.790   1.831 -1.0794  0.2477  1.7397
 6034SOL    HW323909   4.207   1.803   1.924  1.3105  0.1678 -1.1065
 6034SOL    MW423910   4.156   1.754   1.873  0.2471  0.4549 -0.0325
 6035SOL     OW23911   3.861   4.932   3.455 -0.1843  0.1616  0.2730
 6035SOL    HW223912   3.891   4.883   3.379  2.3802  1.0485  0.6138
 6035SOL    HW323913   3.792   4.989   3.422 -0.4169 -0.8010 -0.9589
 6035SOL    MW423914   3.856   4.933   3.441  0.0016  0.7103  0.4725
 6036SOL     OW23915   5.923   5.830   3.285 -0.0913  0.0750 -0.2123
 6036SOL    HW223916   5.950   5.920   3.267 -0.6316  0.4426  0.7097
 6036SOL    HW323917   5.848   5.839   3.344 -3.0723 -0.8472 -3.4930
 6036SOL    MW423918   5.916   5.843   3.291 -0.2052  0.0219 -0.1896
 6037SOL     OW23919   3.221   0.150   4.628 -0.2885  0.4477  0.1223
 6037SOL    HW223920   3.307   0.113   4.605  0.0077  0.6183  0.9279
 6037SOL    HW323921   3.182   0.085   4.687 -0.6706  0.4187 -0.1605
 6037SOL    MW423922   3.228   0.136   4.633 -0.2071  0.5363  0.0054
 6038SOL     OW23923   2.030   3.265   1.551  0.0026  0.4804 -0.3787
 6038SOL    HW223924   2.052   3.178   1.583 -1.5560 -0.3993 -1.5447
 6038SOL    HW323925   2.093   3.282   1.481  0.2935  0.2936 -0.1634
 6038SOL    MW423926   2.041   3.256   1.546 -0.4164  0.4604 -0.5933
 6039SOL     OW23927   5.102   1.282   3.554 -0.9095  0.0735  0.2367
 6039SOL    HW223928   5.044   1.308   3.482 -0.0069 -0.0020 -0.5289
 6039SOL    HW323929   5.122   1.363   3.600  1.0062  0.6429 -1.4792
 6039SOL    MW423930   5.097   1.296   3.551 -0.6108 -0.1715  0.0318
 6040SOL     OW23931   1.255   0.187   1.371  0.3462  0.4787  0.2387
 6040SOL    HW223932   1.231   0.102   1.336  0.1416  0.2873  0.8344
 6040SOL    HW323933   1.172   0.234   1.380  0.1508 -0.1382  2.1775
 6040SOL    MW423934   1.241   0.182   1.368  0.5544 -0.1041  0.1913
 6041SOL     OW23935   3.221   4.755   3.999  0.8044  0.2189 -0.3469
 6041SOL    HW223936   3.301   4.711   3.972  1.4302  0.1656  1.4124
 6041SOL    HW323937   3.224   4.840   3.955  1.6847  0.0970 -0.5379
 6041SOL    MW423938   3.232   4.761   3.990  0.1622 -0.4949 -0.9035
 6042SOL     OW23939   1.506   3.391   4.637  0.0813 -0.1386 -0.6210
 6042SOL    HW223940   1.472   3.468   4.592 -0.3507 -0.2626 -0.5172
 6042SOL    HW323941   1.452   3.318   4.605  0.0610 -0.2959 -0.2413
 6042SOL    MW423942   1.494   3.391   4.627 -0.5423 -0.0197 -0.1246
 6043SOL     OW23943   1.524   0.351   4.364 -0.5060  0.5876 -0.5847
 6043SOL    HW223944   1.620   0.344   4.362 -0.6257 -1.4981 -0.9171
 6043SOL    HW323945   1.498   0.349   4.272 -0.9616 -1.0771 -0.4480
 6043SOL    MW423946   1.533   0.350   4.352  0.0558 -0.0086  0.0624
 6044SOL     OW23947   3.765   5.251   3.783  0.3980 -0.0454  0.0273
 6044SOL    HW223948   3.703   5.323   3.772 -0.5293 -0.6484  1.1397
 6044SOL    HW323949   3.799   5.234   3.695 -0.2937  0.9301 -0.4340
 6044SOL    MW423950   3.762   5.258   3.770  0.2300 -0.2324 -0.3453
 6045SOL     OW23951   1.183   4.374   4.178 -0.4460  0.4612  0.0688
 6045SOL    HW223952   1.277   4.385   4.161 -0.5556  1.9825  0.3150
 6045SOL    HW323953   1.178   4.347   4.270 -0.2389  0.0825 -0.0296
 6045SOL    MW423954   1.195   4.372   4.188 -0.3935 -0.0373 -0.1097
 6046SOL     OW23955   3.489   5.102   5.438  0.5290  0.4483 -0.1292
 6046SOL    HW223956   3.439   5.028   5.403 -0.8993  0.8693  0.9128
 6046SOL    HW323957   3.562   5.061   5.485  0.4386 -0.2353 -0.5683
 6046SOL    MW423958   3.492   5.086   5.440  0.8620  0.4775  0.7124
 6047SOL     OW23959   1.661   1.232   2.873  0.2256 -0.2551  0.1311
 6047SOL    HW223960   1.618   1.156   2.911  0.9945 -0.5448  0.4540
 6047SOL    HW323961   1.592   1.278   2.825 -0.6516 -0.1468  1.4531
 6047SOL    MW423962   1.647   1.228   2.872  0.0575 -0.2542  0.0378
 6048SOL     OW23963   5.259   4.445   1.716  0.3019  0.2170  0.3024
 6048SOL    HW223964   5.347   4.421   1.686 -0.5039 -1.0835 -1.1724
 6048SOL    HW323965   5.260   4.425   1.810  1.0635 -1.5320 -0.0286
 6048SOL    MW423966   5.271   4.439   1.724 -0.3925  0.1968 -0.1041
 6049SOL     OW23967   1.281   3.406   0.410  0.3961 -0.0564 -0.0674
 6049SOL    HW223968   1.261   3.359   0.329  1.0287  0.6391 -0.6466
 6049SOL    HW323969   1.375   3.390   0.425  0.9180  1.8458 -0.8835
 6049SOL    MW423970   1.291   3.398   0.401  0.7188  0.1856  0.0465
 6050SOL     OW23971   3.507   4.779   2.471  0.0066 -0.2204 -0.2008
 6050SOL    HW223972   3.579   4.718   2.457  0.0323 -0.5878  1.3522
 6050SOL    HW323973   3.550   4.862   2.493  0.1502 -1.1998  4.1262
 6050SOL    MW423974   3.522   4.782   2.472 -0.3410 -0.6583 -0.4639
 6051SOL     OW23975   3.685   0.374   0.574  0.3632 -0.1408 -0.1121
 6051SOL    HW223976   3.690   0.445   0.510 -1.6787  0.1433 -0.0006
 6051SOL    HW323977   3.593   0.370   0.599  0.8842 -1.0896  1.8646
 6051SOL    MW423978   3.674   0.383   0.569  0.0926  0.3071  0.4622
 6052SOL     OW23979   4.074   0.268   1.349 -0.1445  0.5673 -0.6360
 6052SOL    HW223980   4.113   0.298   1.431 -0.9359 -1.9293  0.7540
 6052SOL    HW323981   4.149   0.253   1.291  0.5865  0.4681  0.3126
 6052SOL    MW423982   4.089   0.270   1.352 -0.0466 -0.2103  0.4421
 6053SOL     OW23983   5.132   5.338   2.855  0.0342 -0.2679 -0.3347
 6053SOL    HW223984   5.170   5.319   2.770  1.0003  1.8121 -0.4327
 6053SOL    HW323985   5.145   5.432   2.867 -1.0647 -0.3025  1.6346
 6053SOL    MW423986   5.139   5.348   2.846  0.4308 -0.8407  0.0597
 6054SOL     OW23987   1.606   2.946   2.524 -0.7749 -0.4808  0.0027
 6054SOL    HW223988   1.539   2.935   2.456 -0.6833 -0.5829 -0.0727
 6054SOL    HW323989   1.557   2.956   2.605 -1.0499  3.0430 -0.4638
 6054SOL    MW423990   1.591   2.946   2.525  0.1516  0.7162  0.2365
 6055SOL     OW23991   2.356   3.131   4.489 -0.2284  0.5796  0.1489
 6055SOL    HW223992   2.450   3.128   4.472 -0.1442 -2.1391  0.6495
 6055SOL    HW323993   2.349   3.138   4.584 -0.5887  2.5339  0.0104
 6055SOL    MW423994   2.368   3.131   4.500 -0.4989 -0.2189  0.1667
 6056SOL     OW23995   4.158   0.491   4.528 -0.1243 -0.3783 -0.3832
 6056SOL    HW223996   4.080   0.441   4.553 -0.3361 -1.3983 -2.7569
 6056SOL    HW323997   4.225   0.463   4.590 -1.6728  0.7894  1.9456
 6056SOL    MW423998   4.156   0.480   4.539  0.2853  0.2863  0.3366
 6057SOL     OW23999   0.663   4.332   2.660  0.0609 -0.6274  0.1027
 6057SOL    HW224000   0.755   4.308   2.675  0.5306  0.5941 -0.6833
 6057SOL    HW324001   0.623   4.329   2.747  1.3484  0.8291  0.7906
 6057SOL    MW424002   0.670   4.328   2.673 -0.0593  0.2433  1.1144
 6058SOL     OW24003   1.924   3.166   2.699 -0.2893  0.1496  0.3638
 6058SOL    HW224004   1.956   3.238   2.753  1.3372 -0.4941  0.2992
 6058SOL    HW324005   1.834   3.191   2.678  0.2058  2.1377  0.3933
 6058SOL    MW424006   1.916   3.179   2.703  0.0878  0.4885  0.1097
 6059SOL     OW24007   4.500   0.898   2.431  0.3180 -0.0130 -0.0412
 6059SOL    HW224008   4.448   0.956   2.487 -0.2215  1.5367 -2.0310
 6059SOL    HW324009   4.591   0.918   2.454  0.1289  1.3573 -0.4191
 6059SOL    MW424010   4.505   0.908   2.442 -0.0378  0.1428  0.4643
 6060SOL     OW24011   3.161   1.502   0.814  0.2179  0.1638 -0.4676
 6060SOL    HW224012   3.213   1.579   0.789  0.5989 -0.1694 -0.7134
 6060SOL    HW324013   3.226   1.434   0.830  0.0023  0.3430  1.4262
 6060SOL    MW424014   3.176   1.503   0.813  0.2725 -0.2959 -0.3980
 6061SOL     OW24015   0.330   1.332   6.044  0.5517 -0.2356 -0.0970
 6061SOL    HW224016   0.347   1.246   6.083 -3.4636 -2.6342 -2.9423
 6061SOL    HW324017   0.300   1.385   6.118  0.5815 -2.0977  1.3499
 6061SOL    MW424018   0.329   1.328   6.059 -0.5445  0.1016 -0.1027
 6062SOL     OW24019   6.218   1.542   3.001  0.5946 -0.3491  0.0369
 6062SOL    HW224020   6.182   1.630   3.016  0.7716  0.0477 -1.6523
 6062SOL    HW324021   6.307   1.558   2.968  0.7890 -1.1901  0.1352
 6062SOL    MW424022   6.225   1.556   2.999  0.6859 -0.7220 -0.4783
 6063SOL     OW24023   1.265   0.705   6.367  0.2951 -0.8660 -0.2074
 6063SOL    HW224024   1.303   0.793   6.371 -2.1376  0.2106  1.1754
 6063SOL    HW324025   1.253   0.688   6.274  0.3632  0.4861 -0.4821
 6063SOL    MW424026   1.269   0.714   6.355 -0.2039 -0.5764  0.0772
 6064SOL     OW24027   6.404   6.012   2.492  0.3446  0.1872  0.2539
 6064SOL    HW224028   6.338   6.071   2.529  1.2482  1.8995 -0.7388
 6064SOL    HW324029   6.388   5.928   2.535 -2.1077  0.6812  0.4505
 6064SOL    MW424030   6.393   6.009   2.503 -0.3674  0.0303 -0.0430
 6065SOL     OW24031   1.901   5.564   3.503 -0.0157  0.3600 -0.3718
 6065SOL    HW224032   1.968   5.587   3.568 -1.1211  1.3034  0.4881
 6065SOL    HW324033   1.825   5.616   3.529 -0.6570  0.3578 -2.1322
 6065SOL    MW424034   1.900   5.574   3.515  0.1547  0.3571 -0.3169
 6066SOL     OW24035   2.113   4.525   4.920  0.0141 -0.4061  0.3230
 6066SOL    HW224036   2.070   4.608   4.903 -0.7708 -0.7834  0.4456
 6066SOL    HW324037   2.195   4.530   4.871 -0.8097 -0.2589 -1.0695
 6066SOL    MW424038   2.118   4.537   4.911 -0.2864 -0.1777 -0.5075
 6067SOL     OW24039   4.146   4.089   3.943 -0.3833 -0.2024 -0.4291
 6067SOL    HW224040   4.203   4.137   4.003  0.7339  1.4294 -2.6875
 6067SOL    HW324041   4.186   4.002   3.936 -0.2712 -0.2651  0.7554
 6067SOL    MW424042   4.159   4.084   3.950 -0.8301  0.0593  0.3128
 6068SOL     OW24043   3.261   5.518   2.525  0.2302  0.1886 -0.0106
 6068SOL    HW224044   3.212   5.492   2.447 -1.8285  0.9087  0.9405
 6068SOL    HW324045   3.222   5.466   2.596  1.9677 -0.3616  0.5945
 6068SOL    MW424046   3.249   5.508   2.524  0.3578  0.1194 -0.2120
 6069SOL     OW24047   0.888   0.710   6.234  0.1079 -0.3247 -0.3047
 6069SOL    HW224048   0.848   0.624   6.219 -1.7100  0.2506  0.8813
 6069SOL    HW324049   0.966   0.710   6.179  0.7281 -3.1058  0.4130
 6069SOL    MW424050   0.893   0.698   6.225 -0.1855 -0.9639 -0.5863
 6070SOL     OW24051   0.373   0.481   0.291  0.4043  0.4768 -0.3220
 6070SOL    HW224052   0.335   0.494   0.377 -0.1680  1.2604 -0.6831
 6070SOL    HW324053   0.408   0.567   0.266 -0.5183  0.5687 -1.3813
 6070SOL    MW424054   0.373   0.494   0.299  0.4528 -0.4408 -0.3197
 6071SOL     OW24055   2.372   1.682   5.207 -0.4066  0.4579  0.4916
 6071SOL    HW224056   2.348   1.636   5.287  0.3485  1.0197  1.0651
 6071SOL    HW324057   2.454   1.727   5.229 -0.7763  1.5429 -0.2326
 6071SOL    MW424058   2.380   1.682   5.221 -0.6048 -0.1276 -0.1913
 6072SOL     OW24059   3.975   3.457   1.687  0.1054  0.4417 -0.5938
 6072SOL    HW224060   4.056   3.499   1.714 -0.9355  2.5066 -0.4447
 6072SOL    HW324061   3.970   3.377   1.739  1.1432  1.2266  0.7685
 6072SOL    MW424062   3.985   3.452   1.697 -0.0179  0.2518  0.0064
 6073SOL     OW24063   5.498   3.123   3.605  0.3941 -0.2177  0.0197
 6073SOL    HW224064   5.440   3.199   3.597  1.2928  0.7173  1.7690
 6073SOL    HW324065   5.586   3.159   3.600  0.8355 -1.1239  0.8900
 6073SOL    MW424066   5.502   3.137   3.603  0.6556 -0.0693 -0.1635
 6074SOL     OW24067   2.479   3.389   0.606 -0.2058  0.1691 -0.5131
 6074SOL    HW224068   2.461   3.481   0.587 -2.6958  0.2558  1.5916
 6074SOL    HW324069   2.451   3.342   0.528 -1.8765  1.0275 -0.4724
 6074SOL    MW424070   2.473   3.395   0.594  0.2550  0.3351  0.2079
 6075SOL     OW24071   4.734   2.067   0.180  0.4422  0.0194 -0.1780
 6075SOL    HW224072   4.738   2.018   0.098 -0.1609 -2.0047  0.9580
 6075SOL    HW324073   4.825   2.093   0.196  0.2040  3.8656 -3.3322
 6075SOL    MW424074   4.747   2.064   0.171 -1.0429 -0.0373  0.5277
 6076SOL     OW24075   1.011   3.134   0.353  0.6565  0.1806  0.0917
 6076SOL    HW224076   1.084   3.106   0.407  0.5317  1.1484  0.8001
 6076SOL    HW324077   0.977   3.054   0.314  1.3352 -0.4199  0.7177
 6076SOL    MW424078   1.016   3.120   0.355  0.1215  0.1622  0.2724
 6077SOL     OW24079   5.980   3.199   3.139 -0.1862  0.3791 -0.1309
 6077SOL    HW224080   5.967   3.227   3.049 -2.2017 -0.5833 -0.1956
 6077SOL    HW324081   5.894   3.211   3.180  0.6271  0.5800  1.6141
 6077SOL    MW424082   5.967   3.205   3.133  0.5104  0.6055 -0.0140
 6078SOL     OW24083   5.693   1.023   5.352  0.1806 -0.5707  0.1355
 6078SOL    HW224084   5.630   1.025   5.280  2.0636 -2.0184 -1.6737
 6078SOL    HW324085   5.689   1.111   5.390 -1.0171  0.1764 -1.5977
 6078SOL    MW424086   5.684   1.035   5.348 -0.0485 -0.3466 -0.3922
 6079SOL     OW24087   1.347   5.776   5.421  0.7444 -0.0949 -0.3822
 6079SOL    HW224088   1.293   5.830   5.363 -0.9674 -1.7545 -0.4652
 6079SOL    HW324089   1.387   5.711   5.362  0.4235 -0.6904  0.0410
 6079SOL    MW424090   1.345   5.774   5.405  0.3140  0.1775  0.3296
 6080SOL     OW24091   5.241   0.029   2.768  0.1889 -0.4961  0.4094
 6080SOL    HW224092   5.290   0.049   2.688  1.2378 -2.0149  0.6313
 6080SOL    HW324093   5.186  -0.046   2.744 -1.2791  0.5363  0.4631
 6080SOL    MW424094   5.240   0.021   2.754  0.4487 -0.0096  0.1993
 6081SOL     OW24095   6.179   5.353   2.923  0.2088  0.3969 -0.0057
 6081SOL    HW224096   6.150   5.438   2.889 -0.3184  0.5549  0.8224
 6081SOL    HW324097   6.166   5.359   3.017 -3.9828 -2.0798 -0.1566
 6081SOL    MW424098   6.173   5.365   2.931  0.3901 -0.1662 -0.2035
 6082SOL     OW24099   4.323   1.494   4.973 -0.3887 -0.1010 -0.6735
 6082SOL    HW224100   4.241   1.532   5.004 -1.9208 -3.0443 -0.7676
 6082SOL    HW324101   4.389   1.560   4.994 -2.7120  2.3230 -0.4401
 6082SOL    MW424102   4.321   1.508   4.980 -0.0464 -0.1774 -0.8907
 6083SOL     OW24103   2.243   4.536   4.313  0.2612  0.1347  0.1873
 6083SOL    HW224104   2.155   4.571   4.299  0.3229  1.4961  2.6751
 6083SOL    HW324105   2.229   4.443   4.329 -0.7468  0.3210  0.5011
 6083SOL    MW424106   2.229   4.528   4.313  0.0799  0.0796 -0.7316
 6084SOL     OW24107   3.175   4.402   4.276  0.2331  0.0813 -0.1518
 6084SOL    HW224108   3.242   4.348   4.233 -0.8107 -2.6002  1.3442
 6084SOL    HW324109   3.099   4.396   4.218  0.5030  1.0658 -0.6213
 6084SOL    MW424110   3.174   4.394   4.263  0.7419  0.4477  0.0784
 6085SOL     OW24111   6.291   3.337   5.063 -0.2322 -0.8809 -0.1121
 6085SOL    HW224112   6.264   3.288   5.141  0.1955 -1.1308 -0.1167
 6085SOL    HW324113   6.386   3.340   5.069 -0.2723  0.9478  0.4928
 6085SOL    MW424114   6.300   3.331   5.074  0.3826  0.7774 -0.4042
 6086SOL     OW24115   4.605   2.529   5.734  0.2010 -0.2362 -0.1640
 6086SOL    HW224116   4.609   2.504   5.641 -2.1740  1.0426 -0.6972
 6086SOL    HW324117   4.587   2.447   5.780 -0.3497 -0.6414 -1.0592
 6086SOL    MW424118   4.603   2.515   5.728 -0.2154 -0.1693  0.1919
 6087SOL     OW24119   0.418   3.632   2.745  0.2048  0.0144  0.1902
 6087SOL    HW224120   0.496   3.591   2.782 -0.2320 -1.0334 -0.0165
 6087SOL    HW324121   0.345   3.578   2.776 -0.3252  0.2290 -0.6472
 6087SOL    MW424122   0.418   3.620   2.754  0.2173  0.2259  0.3712
 6088SOL     OW24123   5.437   4.539   2.479 -0.2974  0.3391  0.3334
 6088SOL    HW224124   5.358   4.504   2.521  0.5681  0.4327  2.1404
 6088SOL    HW324125   5.491   4.463   2.462 -0.4757  0.3444 -0.3013
 6088SOL    MW424126   5.433   4.525   2.482 -0.1462 -0.5271  0.2817
 6089SOL     OW24127   0.471   4.636   6.127  0.4674 -0.3125 -0.0998
 6089SOL    HW224128   0.445   4.718   6.168  0.2694 -0.0228 -0.7893
 6089SOL    HW324129   0.423   4.569   6.175  3.4391 -0.4561  2.9884
 6089SOL    MW424130   0.461   4.638   6.139 -0.4729 -0.1445 -0.3035
 6090SOL     OW24131   3.899   4.145   4.076 -0.4212 -0.1208 -0.3602
 6090SOL    HW224132   3.978   4.130   4.024 -0.0206  0.4573  0.0786
 6090SOL    HW324133   3.902   4.238   4.099 -1.4366  0.0059 -0.6733
 6090SOL    MW424134   3.909   4.155   4.072  0.4749  0.7104 -0.3056
 6091SOL     OW24135   2.767   5.293   0.342 -0.1875 -0.3239  0.2681
 6091SOL    HW224136   2.840   5.235   0.318 -0.2148 -0.2665  0.0381
 6091SOL    HW324137   2.695   5.233   0.363  0.5627 -0.4681  2.7411
 6091SOL    MW424138   2.767   5.277   0.341 -0.2176 -0.6990 -0.0478
 6092SOL     OW24139   0.194   5.566   1.722 -0.4309 -0.1703 -0.4756
 6092SOL    HW224140   0.281   5.596   1.693 -0.4212  1.4461  1.0970
 6092SOL    HW324141   0.211   5.485   1.771  0.2368  0.3280  0.1260
 6092SOL    MW424142   0.208   5.559   1.724 -0.3030  0.5148  0.4189
 6093SOL     OW24143   1.025   2.901   5.427 -0.1753  0.0447  0.7094
 6093SOL    HW224144   1.108   2.922   5.384 -1.1392 -0.6932 -1.6371
 6093SOL    HW324145   0.984   2.987   5.442  0.3841  0.3436  0.5483
 6093SOL    MW424146   1.030   2.915   5.423  0.0256  0.6618  0.0030
 6094SOL     OW24147   3.928   3.975   1.888  0.2802 -0.0079  0.3872
 6094SOL    HW224148   4.018   4.004   1.896  0.1860  0.9864 -1.6608
 6094SOL    HW324149   3.925   3.924   1.807 -0.7517 -1.1261  1.0749
 6094SOL    MW424150   3.939   3.972   1.879 -0.0767 -0.2087 -0.5393
 6095SOL     OW24151   2.984   0.942   4.057 -0.4202  0.2747 -0.4774
 6095SOL    HW224152   2.998   0.959   3.964 -0.7638  0.6346 -0.4639
 6095SOL    HW324153   2.910   0.997   4.081  0.2990  0.9713  0.2412
 6095SOL    MW424154   2.976   0.951   4.048  0.4430  0.2605 -0.2961
 6096SOL     OW24155   4.769   2.130   1.138  0.4141 -0.3616  0.2243
 6096SOL    HW224156   4.837   2.173   1.086 -0.5747 -1.4105 -2.0551
 6096SOL    HW324157   4.808   2.047   1.165  0.3858 -0.5263 -0.2371
 6096SOL    MW424158   4.783   2.125   1.135  0.3624  0.2214 -0.2414
 6097SOL     OW24159   3.813   1.802   5.204  0.3899 -0.1657  0.6352
 6097SOL    HW224160   3.855   1.799   5.118  0.1870  0.1937  0.5220
 6097SOL    HW324161   3.756   1.725   5.207 -0.4262  0.4016  0.0236
 6097SOL    MW424162   3.811   1.792   5.193 -0.5771 -0.5034  0.0159
 6098SOL     OW24163   2.313   3.773   1.967 -0.4823 -0.3492 -0.4253
 6098SOL    HW224164   2.329   3.864   1.993 -1.3150 -0.5169  0.7781
 6098SOL    HW324165   2.371   3.758   1.893  0.3881  0.8577 -0.0101
 6098SOL    MW424166   2.323   3.783   1.960  0.0984  0.1500 -0.7334
 6099SOL     OW24167   2.677   3.007   3.448  0.1659  0.5671 -0.2217
 6099SOL    HW224168   2.736   2.962   3.388  1.8655  0.8683  1.1383
 6099SOL    HW324169   2.735   3.055   3.507 -1.5072  2.4434  0.0006
 6099SOL    MW424170   2.693   3.007   3.448  1.0955 -0.0326 -0.5416
 6100SOL     OW24171   0.093   1.515   1.004  0.0928 -0.7142 -0.3782
 6100SOL    HW224172   0.093   1.513   0.909 -1.6098 -1.5365 -0.3915
 6100SOL    HW324173   0.147   1.440   1.029 -0.6402 -1.3688 -0.7212
 6100SOL    MW424174   0.100   1.505   0.995  0.1230 -0.0478  0.9317
 6101SOL     OW24175   5.291   4.714   2.962  0.5949  0.6853  0.5561
 6101SOL    HW224176   5.375   4.690   2.922 -0.2791 -1.7377  0.0194
 6101SOL    HW324177   5.242   4.757   2.892  0.9962  1.1684  0.5686
 6101SOL    MW424178   5.296   4.717   2.948 -0.4540  0.5898 -0.2288
 6102SOL     OW24179   1.586   6.234   0.822  0.0242 -0.6732 -0.3830
 6102SOL    HW224180   1.510   6.188   0.786  0.0805 -2.3194  1.4552
 6102SOL    HW324181   1.632   6.168   0.874  0.8257  1.1288  1.3282
 6102SOL    MW424182   1.582   6.220   0.824  0.5175 -0.0410 -0.4475
 6103SOL     OW24183   1.671   6.071   0.444 -0.0212  0.1486  0.2666
 6103SOL    HW224184   1.723   6.145   0.475 -0.7297  0.5059  0.6357
 6103SOL    HW324185   1.596   6.111   0.400 -0.8392 -0.3259  1.1860
 6103SOL    MW424186   1.668   6.086   0.442  0.7888 -0.0147 -0.1079
 6104SOL     OW24187   0.786   1.107   1.599  0.1291  0.4032  0.6139
 6104SOL    HW224188   0.720   1.061   1.651  0.1930  0.1472  0.4690
 6104SOL    HW324189   0.786   1.061   1.515  0.8034  0.1253  0.7612
 6104SOL    MW424190   0.777   1.095   1.595  0.9812  0.1066 -0.6500
 6105SOL     OW24191   4.010   3.844   1.644 -0.5186 -0.3554 -0.3515
 6105SOL    HW224192   4.092   3.795   1.650  0.6724  1.4300 -1.2578
 6105SOL    HW324193   3.994   3.853   1.551  0.3702  2.5596 -0.3237
 6105SOL    MW424194   4.019   3.838   1.633  0.4612  0.2750  0.0778
 6106SOL     OW24195   3.839   0.743   0.574 -0.2240  0.3755  0.0488
 6106SOL    HW224196   3.788   0.699   0.507 -1.8378  0.4502  1.1661
 6106SOL    HW324197   3.921   0.767   0.531 -2.0294  2.3936 -2.5553
 6106SOL    MW424198   3.843   0.740   0.560  0.5463 -0.2483  0.1433
 6107SOL     OW24199   5.374   1.333   2.529  0.1483  0.1888  0.4243
 6107SOL    HW224200   5.442   1.287   2.478  0.2970  0.3189  0.5068
 6107SOL    HW324201   5.355   1.411   2.477 -1.2278 -0.7260 -0.5299
 6107SOL    MW424202   5.381   1.337   2.515 -0.2583  0.6181  0.1062
 6108SOL     OW24203   5.630   1.040   1.231 -0.0294 -0.2393 -0.7061
 6108SOL    HW224204   5.660   0.978   1.297  0.1301  0.1139 -0.4438
 6108SOL    HW324205   5.683   1.020   1.154  0.5528  0.0669 -0.3912
 6108SOL    MW424206   5.641   1.029   1.230  0.0658 -0.1115 -0.0331
 6109SOL     OW24207   1.149   5.152   1.842  0.1871 -0.4324 -0.5344
 6109SOL    HW224208   1.109   5.065   1.832 -0.3506 -0.3057  0.4636
 6109SOL    HW324209   1.076   5.209   1.867  0.6845  0.1459 -0.4016
 6109SOL    MW424210   1.134   5.148   1.844 -1.0541 -0.6543 -0.0790
 6110SOL     OW24211   2.250   3.224   4.003  0.0086  0.0754 -0.5030
 6110SOL    HW224212   2.334   3.232   4.048 -0.1110  0.2189 -0.3042
 6110SOL    HW324213   2.212   3.142   4.035  0.0154  0.0734 -0.5002
 6110SOL    MW424214   2.256   3.214   4.013  0.2187  0.1954 -0.2241
 6111SOL     OW24215   0.233   0.454   5.886  0.2017  0.0347 -0.1819
 6111SOL    HW224216   0.313   0.472   5.837  0.0191 -0.0079 -0.5031
 6111SOL    HW324217   0.240   0.362   5.911 -0.5766 -0.5305 -1.8251
 6111SOL    MW424218   0.244   0.444   5.883 -0.3596 -0.2487 -0.3795
 6112SOL     OW24219   4.495   5.978   0.631 -0.5515  0.0296  0.1164
 6112SOL    HW224220   4.431   6.046   0.652  0.6787  0.8111  1.5700
 6112SOL    HW324221   4.546   6.015   0.559 -0.3550  0.3459  0.4141
 6112SOL    MW424222   4.493   5.992   0.624 -0.1372 -0.6208 -0.6090
 6113SOL     OW24223   4.705   3.384   1.322 -0.5265 -0.2013 -0.6926
 6113SOL    HW224224   4.737   3.459   1.272  0.5963 -0.6409 -0.6728
 6113SOL    HW324225   4.713   3.411   1.413  0.4554 -0.5278 -0.6588
 6113SOL    MW424226   4.711   3.397   1.327 -0.0734  0.2526 -0.0071
 6114SOL     OW24227   2.052   4.492   1.171  0.3237 -0.4089  0.4571
 6114SOL    HW224228   2.002   4.422   1.214 -0.0829  0.2129  1.0084
 6114SOL    HW324229   2.053   4.563   1.234 -0.4601  0.6059 -0.6245
 6114SOL    MW424230   2.046   4.492   1.185 -0.2759  0.1514  0.7504
 6115SOL     OW24231   1.547  -0.005   4.583  0.2710 -0.1278 -0.0683
 6115SOL    HW224232   1.590   0.069   4.627  0.5116 -0.3057 -0.0003
 6115SOL    HW324233   1.588  -0.009   4.497 -2.1329  1.9899 -1.4625
 6115SOL    MW424234   1.558   0.005   4.578  0.3285 -0.1032 -0.4832
 6116SOL     OW24235   2.293   2.477   6.019 -0.0423 -0.5779  0.2807
 6116SOL    HW224236   2.317   2.438   5.935 -0.4285  0.1900 -0.1956
 6116SOL    HW324237   2.204   2.445   6.036 -0.9903  1.2895 -0.8829
 6116SOL    MW424238   2.285   2.467   6.010  0.4947 -0.2310  0.3130
 6117SOL     OW24239   3.946   5.026   4.495  0.3534  0.2025  0.2462
 6117SOL    HW224240   3.974   5.103   4.546  1.4228 -0.2590  0.3789
 6117SOL    HW324241   3.899   5.063   4.421  1.5888  1.0567 -0.1608
 6117SOL    MW424242   3.944   5.041   4.492 -0.3008  0.3879  0.2557
 6118SOL     OW24243   5.785   0.012   6.001  0.1307  0.3823  0.0132
 6118SOL    HW224244   5.781   0.066   6.079  2.3906  0.2406  0.2977
 6118SOL    HW324245   5.694  -0.010   5.982 -0.7937  3.3476  0.5020
 6118SOL    MW424246   5.772   0.016   6.008 -0.2277  0.6098  0.2954
 6119SOL     OW24247   3.762   0.171   2.165 -0.6604 -0.3245  0.4368
 6119SOL    HW224248   3.747   0.262   2.138 -2.6483 -1.2687 -2.1643
 6119SOL    HW324249   3.854   0.167   2.187 -0.1435  2.0002 -0.9496
 6119SOL    MW424250   3.772   0.183   2.164 -0.1688  1.0402 -0.0013
 6120SOL     OW24251   2.610   3.275   3.030 -0.0723  0.2115  0.0726
 6120SOL    HW224252   2.586   3.255   2.939  1.1937  1.6193 -0.6197
 6120SOL    HW324253   2.646   3.193   3.064  2.4018  0.4231 -1.7628
 6120SOL    MW424254   2.611   3.262   3.022  0.2781 -0.3067 -0.4389
 6121SOL     OW24255   5.815   4.383   2.954  0.1428 -0.2918  0.6199
 6121SOL    HW224256   5.723   4.360   2.966  0.0155  0.2960  0.8067
 6121SOL    HW324257   5.837   4.349   2.867 -0.2648 -0.3726  0.5462
 6121SOL    MW424258   5.806   4.375   2.944 -0.3001 -0.2659  0.2365
 6122SOL     OW24259   4.084   0.730   1.664 -0.2413 -0.1543 -0.0757
 6122SOL    HW224260   4.024   0.762   1.597 -0.4652  0.9104  0.5975
 6122SOL    HW324261   4.070   0.790   1.738  2.0964  0.5167 -0.1150
 6122SOL    MW424262   4.074   0.742   1.665 -1.2917  0.1968  0.4138
 6123SOL     OW24263   4.516   3.908   5.769  0.5842  0.4021  0.2454
 6123SOL    HW224264   4.571   3.833   5.792  1.6211  1.4758  1.4012
 6123SOL    HW324265   4.461   3.876   5.698 -0.0766 -1.9330  1.6790
 6123SOL    MW424266   4.516   3.894   5.763 -0.3405 -0.3488 -0.1481
 6124SOL     OW24267   4.439   0.407   3.774  0.0948  0.1122  0.1192
 6124SOL    HW224268   4.376   0.337   3.789  0.8361 -0.8746 -1.0858
 6124SOL    HW324269   4.483   0.419   3.858 -1.7624  0.9396  1.0254
 6124SOL    MW424270   4.437   0.399   3.787  0.3298 -0.2553  0.0269
 6125SOL     OW24271   3.608   1.006   0.286  0.0594 -0.1502  0.6741
 6125SOL    HW224272   3.651   1.089   0.265 -0.1878 -0.2126 -0.0920
 6125SOL    HW324273   3.620   0.952   0.208 -0.4691 -0.5594  0.8713
 6125SOL    MW424274   3.615   1.010   0.273 -0.3987  0.4155 -0.2316
 6126SOL     OW24275   2.123   3.228   5.042 -0.0334  1.0148  0.1444
 6126SOL    HW224276   2.141   3.274   4.960 -1.3285  0.8150 -0.2696
 6126SOL    HW324277   2.134   3.136   5.022  0.2522  0.9958  0.3689
 6126SOL    MW424278   2.127   3.222   5.029 -0.3482 -0.4001  0.1818
 6127SOL     OW24279   0.796   3.816   2.030 -0.2659  0.2004 -0.2804
 6127SOL    HW224280   0.803   3.909   2.054  3.0941 -0.1811  0.7331
 6127SOL    HW324281   0.836   3.811   1.943  0.4131 -0.4143  0.0626
 6127SOL    MW424282   0.802   3.828   2.022 -0.1957 -0.2966 -0.3080
 6128SOL     OW24283   0.985   4.091   5.962 -0.2062 -0.0941  0.0247
 6128SOL    HW224284   0.905   4.056   6.002 -0.9102  1.4782  0.0921
 6128SOL    HW324285   0.959   4.177   5.929  0.3828 -1.1987 -3.7304
 6128SOL    MW424286   0.971   4.098   5.963  0.0801  0.1245  0.0481
 6129SOL     OW24287   1.529   4.546   5.221 -0.1275  0.1635 -0.1828
 6129SOL    HW224288   1.528   4.452   5.203  0.0483  0.1151  0.0530
 6129SOL    HW324289   1.604   4.579   5.171 -0.0378  0.1384 -0.0636
 6129SOL    MW424290   1.538   4.538   5.212  0.7799  0.4708  0.4166
 6130SOL     OW24291   4.937   2.568   2.041  0.0249 -0.1193  0.2689
 6130SOL    HW224292   4.943   2.663   2.031  2.8892 -0.0665  1.4876
 6130SOL    HW324293   4.844   2.552   2.058 -0.4258  2.5465  0.8454
 6130SOL    MW424294   4.925   2.579   2.042  0.8816  0.2860  0.0363
 6131SOL     OW24295   0.363   1.937   3.302 -0.1746 -0.3867 -0.4080
 6131SOL    HW224296   0.352   1.864   3.363  1.2515 -1.0417 -0.8816
 6131SOL    HW324297   0.274   1.966   3.282 -0.7170 -1.1625  0.7749
 6131SOL    MW424298   0.350   1.931   3.308  0.0556 -0.0870  0.7384
 6132SOL     OW24299   0.300   4.549   0.675  0.5130  0.3070  0.3725
 6132SOL    HW224300   0.323   4.642   0.678 -0.8687  0.7579 -1.6100
 6132SOL    HW324301   0.209   4.546   0.703  0.2602 -0.3158 -0.4831
 6132SOL    MW424302   0.291   4.561   0.679  0.0900 -0.0957  0.0177
 6133SOL     OW24303   1.535   2.731   1.630  0.4399  0.3115  1.0364
 6133SOL    HW224304   1.618   2.771   1.658 -0.5963  1.4004  2.7119
 6133SOL    HW324305   1.560   2.643   1.601  2.2150  0.7077  1.2587
 6133SOL    MW424306   1.550   2.724   1.630 -0.2067 -0.2543 -0.7418
 6134SOL     OW24307   2.926   5.833   6.339  0.5052 -0.6466  0.3599
 6134SOL    HW224308   2.870   5.785   6.278 -2.5161 -0.6378  2.8736
 6134SOL    HW324309   2.902   5.925   6.327  1.1995 -0.4528  0.3845
 6134SOL    MW424310   2.916   5.839   6.329  0.0144 -0.0538  0.6020
 6135SOL     OW24311   3.630   3.882   0.999 -0.2605  0.3769 -0.1595
 6135SOL    HW224312   3.655   3.821   0.930  1.6970  0.2520  0.6019
 6135SOL    HW324313   3.606   3.963   0.953  1.2401  0.3760 -0.9908
 6135SOL    MW424314   3.630   3.885   0.984  0.0307  0.0683 -0.3978
 6136SOL     OW24315   5.215   1.480   3.263  0.3319  0.1631  0.2802
 6136SOL    HW224316   5.220   1.385   3.260 -1.7930 -0.0120  0.7799
 6136SOL    HW324317   5.155   1.499   3.336 -0.1205  1.8327 -0.4797
 6136SOL    MW424318   5.208   1.470   3.272  0.4755  0.5464  1.2752
 6137SOL     OW24319   1.856   3.779   1.654  0.1026 -0.7375  0.0548
 6137SOL    HW224320   1.852   3.716   1.582  2.2710  0.3871 -1.1766
 6137SOL    HW324321   1.914   3.740   1.718 -0.5779 -1.0626  0.4810
 6137SOL    MW424322   1.863   3.766   1.653 -0.0721 -0.5551  0.7780
 6138SOL     OW24323   0.678   3.429   2.186 -0.5051  0.3669  0.1181
 6138SOL    HW224324   0.619   3.353   2.185 -0.1059  0.0579 -0.6495
 6138SOL    HW324325   0.764   3.391   2.205 -0.0338  0.4035 -1.7380
 6138SOL    MW424326   0.682   3.414   2.188 -0.0906  0.7198  0.0234
 6139SOL     OW24327   0.070   1.855   1.815  0.0794  0.1977 -0.0979
 6139SOL    HW224328   0.021   1.932   1.786 -0.3629  0.2204  0.6633
 6139SOL    HW324329   0.022   1.781   1.777  0.7337  0.3100 -1.1523
 6139SOL    MW424330   0.057   1.856   1.806  0.5968 -0.0394 -0.5831
 6140SOL     OW24331   2.271   4.846   4.828 -0.2232  0.0071 -0.1574
 6140SOL    HW224332   2.312   4.818   4.910  0.6662  0.6704 -0.3557
 6140SOL    HW324333   2.326   4.807   4.760 -1.2858 -1.0079 -0.4510
 6140SOL    MW424334   2.284   4.837   4.830  0.5354 -0.2201  0.2587
 6141SOL     OW24335   5.734   6.017   5.954 -0.9789  0.3482 -0.0404
 6141SOL    HW224336   5.734   5.935   6.004  1.5770  0.0283 -0.4735
 6141SOL    HW324337   5.805   6.068   5.992  0.8129  0.2670 -3.0268
 6141SOL    MW424338   5.743   6.013   5.966 -0.8421 -0.2684 -0.6554
 6142SOL     OW24339   1.810   0.294   0.410 -0.1184 -0.4644  0.2813
 6142SOL    HW224340   1.775   0.344   0.484 -0.6301  1.5621 -1.2587
 6142SOL    HW324341   1.863   0.357   0.362 -1.2213 -1.2158 -2.0393
 6142SOL    MW424342   1.812   0.309   0.414 -0.1449  0.1014 -0.9695
 6143SOL     OW24343   6.228   2.791   6.283  0.4632  0.0342 -0.0050
 6143SOL    HW224344   6.160   2.859   6.274 -0.0802 -0.5840 -0.8065
 6143SOL    HW324345   6.261   2.801   6.372 -0.4159  0.6076  0.2702
 6143SOL    MW424346   6.223   2.802   6.293  0.3113 -0.4867  0.2563
 6144SOL     OW24347   0.051   5.656   3.153 -0.1311  0.1896  0.4074
 6144SOL    HW224348   0.096   5.620   3.229 -0.5879 -0.5765  0.3324
 6144SOL    HW324349   0.104   5.730   3.126  2.9137 -2.4201 -1.5841
 6144SOL    MW424350   0.064   5.661   3.160  0.2040 -0.4598 -0.1640
 6145SOL     OW24351   4.287   1.435   2.545 -0.4221  0.2354  0.1931
 6145SOL    HW224352   4.381   1.421   2.555 -0.9910 -3.2457  1.8461
 6145SOL    HW324353   4.262   1.486   2.623  0.1012  1.6983 -0.5515
 6145SOL    MW424354   4.296   1.440   2.557 -0.8651 -0.3111  0.0268
 6146SOL     OW24355   3.224   5.678   1.206  0.4193  0.0035 -0.8234
 6146SOL    HW224356   3.258   5.680   1.295 -1.7400 -0.8011  0.0704
 6146SOL    HW324357   3.293   5.635   1.155  1.8195  0.7693  0.3529
 6146SOL    MW424358   3.238   5.672   1.211 -0.5367 -0.0536 -0.1717
 6147SOL     OW24359   1.592   0.856   2.386 -0.7727 -0.1446  0.0081
 6147SOL    HW224360   1.498   0.863   2.399 -0.5134 -0.3345  2.3607
 6147SOL    HW324361   1.622   0.797   2.456  0.9712 -0.9045 -1.2896
 6147SOL    MW424362   1.584   0.849   2.397 -0.6674  0.3800 -0.2643
 6148SOL     OW24363   1.963   1.109   5.256  0.0914 -0.3031  0.2735
 6148SOL    HW224364   1.932   1.042   5.317  0.4658 -1.3911 -0.6968
 6148SOL    HW324365   1.944   1.073   5.170 -0.4338  1.2085 -0.2718
 6148SOL    MW424366   1.956   1.095   5.253 -0.7525  0.4518 -0.4269
 6149SOL     OW24367   1.764   4.950   4.944 -0.3027  0.0067 -0.3651
 6149SOL    HW224368   1.712   5.013   4.894  1.6328  1.2639 -0.8794
 6149SOL    HW324369   1.846   4.996   4.964 -0.4541 -0.8732  2.9101
 6149SOL    MW424370   1.768   4.964   4.940  0.7819  0.0711  0.2192
 6150SOL     OW24371   2.745   3.162   3.692 -0.2247 -0.3326 -0.9173
 6150SOL    HW224372   2.673   3.195   3.638  0.3888 -0.1002 -1.6224
 6150SOL    HW324373   2.702   3.113   3.762 -1.0617 -0.2608 -1.3606
 6150SOL    MW424374   2.730   3.160   3.694  0.4870 -0.2740 -0.3092
 6151SOL     OW24375   2.512   2.904   0.882  0.3883 -0.0303  0.1035
 6151SOL    HW224376   2.435   2.955   0.905  0.1766 -0.7211  0.9582
 6151SOL    HW324377   2.533   2.931   0.793 -1.0704 -0.1155 -0.2897
 6151SOL    MW424378   2.505   2.914   0.873  0.6576  0.7627 -0.6036
 6152SOL     OW24379   5.674   4.692   3.561 -0.0131 -0.4268  0.5206
 6152SOL    HW224380   5.625   4.662   3.638  0.5229 -1.0873  0.6121
 6152SOL    HW324381   5.749   4.739   3.597  0.8206 -1.6555  0.4362
 6152SOL    MW424382   5.678   4.694   3.576 -0.7675  0.5298 -0.1858
 6153SOL     OW24383   1.821   0.158   6.184 -0.4595 -0.1596  0.3262
 6153SOL    HW224384   1.798   0.116   6.267 -0.5932  0.1278  0.4380
 6153SOL    HW324385   1.916   0.153   6.180 -0.4721 -0.4262  0.3639
 6153SOL    MW424386   1.830   0.152   6.194  0.1307 -0.3656  0.1396
 6154SOL     OW24387   0.482   4.322   2.914 -0.2271 -0.0917  0.6983
 6154SOL    HW224388   0.512   4.244   2.960 -0.1813  0.2673  1.2853
 6154SOL    HW324389   0.404   4.294   2.867  2.0273 -1.6257 -2.5734
 6154SOL    MW424390   0.476   4.308   2.914 -0.3412 -0.0757  0.2304
 6155SOL     OW24391   2.673   0.696   3.411 -0.4867  0.3895 -0.0268
 6155SOL    HW224392   2.768   0.690   3.424 -0.6004  0.2868  0.7664
 6155SOL    HW324393   2.636   0.685   3.498 -1.3499 -2.1862 -0.6220
 6155SOL    MW424394   2.681   0.693   3.424  0.8936 -0.0328 -0.1006
 6156SOL     OW24395   3.577   0.677   6.045 -0.1836 -0.2048  0.2563
 6156SOL    HW224396   3.654   0.634   6.082  0.9055 -0.3628 -2.0189
 6156SOL    HW324397   3.561   0.752   6.102  2.1708  0.3094  0.3418
 6156SOL    MW424398   3.585   0.681   6.057  0.0646 -0.6405  0.0453
 6157SOL     OW24399   4.265   0.073   5.876 -0.2069 -0.4708 -0.7594
 6157SOL    HW224400   4.218  -0.003   5.840 -2.9847  0.7302  0.0729
 6157SOL    HW324401   4.278   0.051   5.968 -0.2601 -0.2655 -0.7040
 6157SOL    MW424402   4.260   0.060   5.883  0.1012  0.0702  0.5572
 6158SOL     OW24403   0.781   0.762   2.647  0.2442 -0.4565  0.1068
 6158SOL    HW224404   0.704   0.796   2.693  0.6391  1.1712 -0.3828
 6158SOL    HW324405   0.847   0.831   2.655  0.9498 -0.9189 -1.2831
 6158SOL    MW424406   0.780   0.776   2.654  0.4412 -0.2263  0.1574
 6159SOL     OW24407   0.601   5.523   2.037  0.0236  0.1795 -0.2098
 6159SOL    HW224408   0.693   5.522   2.065  0.0900  0.1775 -0.4208
 6159SOL    HW324409   0.597   5.594   1.973 -0.2830  0.6402  0.3213
 6159SOL    MW424410   0.613   5.532   2.032  0.3397 -0.1643 -0.6696
 6160SOL     OW24411   6.318   0.695   5.231  0.5838 -1.0375 -0.5126
 6160SOL    HW224412   6.343   0.761   5.166  0.6287 -2.0149 -1.5060
 6160SOL    HW324413   6.400   0.649   5.250  0.3730 -1.4375 -0.5613
 6160SOL    MW424414   6.332   0.698   5.225 -0.3940 -0.6116  0.3843
 6161SOL     OW24415   1.347   5.903   3.720  0.1943 -0.2895 -0.0856
 6161SOL    HW224416   1.430   5.949   3.704  0.3583 -0.5845 -0.0968
 6161SOL    HW324417   1.280   5.962   3.686  0.5527 -1.0868 -2.4015
 6161SOL    MW424418   1.349   5.917   3.713  0.0315 -0.1442 -0.0883
 6162SOL     OW24419   4.144   0.544   5.204 -0.0238 -0.3225 -0.5275
 6162SOL    HW224420   4.085   0.523   5.276 -0.9321  1.1248 -0.8101
 6162SOL    HW324421   4.181   0.629   5.227 -1.0591  0.6278 -2.1842
 6162SOL    MW424422   4.141   0.553   5.217 -0.0404  0.3731  0.1125
 6163SOL     OW24423   5.002   2.120   0.268 -0.1019 -0.6670 -0.0135
 6163SOL    HW224424   5.025   2.060   0.338  0.6132 -1.2129 -0.6964
 6163SOL    HW324425   5.065   2.101   0.198  0.0177  0.7502 -0.3164
 6163SOL    MW424426   5.013   2.109   0.268  0.6051  0.2199 -0.0238
 6164SOL     OW24427   4.156   3.015   4.246  0.0339 -0.8637 -0.5478
 6164SOL    HW224428   4.115   2.938   4.205 -0.9710 -0.4886 -0.2673
 6164SOL    HW324429   4.151   2.997   4.340  2.1349 -1.6197 -0.5208
 6164SOL    MW424430   4.150   3.002   4.253  0.0717 -0.3302  0.2379
 6165SOL     OW24431   6.003   1.191   5.137 -0.0859  0.2117 -0.1003
 6165SOL    HW224432   5.949   1.226   5.065  0.3705  0.0128 -0.5448
 6165SOL    HW324433   6.007   1.263   5.200 -0.9332  0.2067 -0.0205
 6165SOL    MW424434   5.996   1.205   5.136 -0.8952  0.6789  0.7011
 6166SOL     OW24435   0.655   5.190   0.430 -0.1860  0.5572  0.3932
 6166SOL    HW224436   0.727   5.195   0.493 -1.6194  1.2713  2.0474
 6166SOL    HW324437   0.631   5.097   0.428  0.3773  0.4102  0.2790
 6166SOL    MW424438   0.662   5.178   0.438 -0.6217  0.5159  0.1582
 6167SOL     OW24439   0.955   4.338   5.842 -0.0873  0.0321  0.0875
 6167SOL    HW224440   1.041   4.377   5.830  0.2878 -0.7010  0.3365
 6167SOL    HW324441   0.901   4.377   5.773  0.5497  0.1786 -0.3352
 6167SOL    MW424442   0.959   4.348   5.831  0.1110  0.0025  0.1330
 6168SOL     OW24443   4.147   2.560   6.247 -0.0540 -0.0549 -0.4831
 6168SOL    HW224444   4.145   2.608   6.164  3.0137  1.4817  0.1888
 6168SOL    HW324445   4.141   2.628   6.314 -2.1779 -1.2521  0.6523
 6168SOL    MW424446   4.146   2.575   6.245  0.3686  0.1190  0.2079
 6169SOL     OW24447   6.101   1.777   3.040  0.0974 -0.2406 -0.6251
 6169SOL    HW224448   6.014   1.760   3.076  0.3808  0.9645  0.7463
 6169SOL    HW324449   6.085   1.804   2.950 -0.8610 -1.0126 -0.6972
 6169SOL    MW424450   6.087   1.778   3.033  0.2292  0.1634 -0.1024
 6170SOL     OW24451   2.232   3.179   5.846 -0.2022 -0.1495 -0.3904
 6170SOL    HW224452   2.165   3.225   5.795 -2.1953 -0.8675  1.4450
 6170SOL    HW324453   2.290   3.142   5.780 -0.5487  1.9895 -2.0089
 6170SOL    MW424454   2.231   3.180   5.831 -0.1390  0.1955 -0.0382
 6171SOL     OW24455   5.446   0.399   3.573 -0.0544 -0.5482 -0.1375
 6171SOL    HW224456   5.430   0.378   3.665 -3.4274  1.6202 -0.0383
 6171SOL    HW324457   5.396   0.334   3.524  1.2937 -1.3682 -0.4806
 6171SOL    MW424458   5.437   0.388   3.579  0.5852 -0.1491 -0.5490
 6172SOL     OW24459   1.485   1.660   0.452  0.5384  0.5857 -0.1789
 6172SOL    HW224460   1.501   1.630   0.542 -2.6369  1.5515  0.8663
 6172SOL    HW324461   1.445   1.585   0.408  1.0665  0.4706 -0.4792
 6172SOL    MW424462   1.482   1.646   0.458 -0.1807  0.3561 -0.2474
 6173SOL     OW24463   4.235   5.804   4.856 -0.1341  0.1116  0.1499
 6173SOL    HW224464   4.200   5.728   4.902  3.6288 -1.3565  0.9452
 6173SOL    HW324465   4.329   5.803   4.876  0.5417  3.3974 -2.0915
 6173SOL    MW424466   4.243   5.794   4.865  0.0894 -0.7007  0.6074
 6174SOL     OW24467   0.456   2.018   2.754 -0.2713 -0.2284 -0.1705
 6174SOL    HW224468   0.455   1.924   2.773 -1.6015 -0.3567 -0.7419
 6174SOL    HW324469   0.484   2.023   2.663 -0.3606 -0.0809 -0.1893
 6174SOL    MW424470   0.459   2.006   2.745 -0.0750  0.0648 -0.1869
 6175SOL     OW24471   1.706   4.104   0.726 -0.1245  0.3861 -0.1154
 6175SOL    HW224472   1.740   4.122   0.814  1.8278  0.4154 -0.8320
 6175SOL    HW324473   1.762   4.155   0.668 -0.3156 -0.9096 -1.4993
 6175SOL    MW424474   1.718   4.113   0.730 -0.3322 -0.8148 -0.1869
 6176SOL     OW24475   2.615   0.439   2.162 -0.2994  0.1282  0.1357
 6176SOL    HW224476   2.610   0.444   2.257  1.0625  0.8709  0.1944
 6176SOL    HW324477   2.694   0.387   2.145  0.9976  2.1909 -0.5440
 6176SOL    MW424478   2.625   0.433   2.172 -0.3588 -0.3254  0.1190
 6177SOL     OW24479   5.672   3.680   1.191  0.3516  0.2497 -0.3407
 6177SOL    HW224480   5.695   3.766   1.226  1.1567 -0.4772  0.9909
 6177SOL    HW324481   5.590   3.657   1.236  0.9412 -0.3180  0.4757
 6177SOL    MW424482   5.664   3.688   1.202 -0.4041 -0.1919 -0.0927
 6178SOL     OW24483   4.653   2.953   1.361  0.1126 -0.2055  0.2362
 6178SOL    HW224484   4.584   2.914   1.414  0.9459 -1.7392  0.2524
 6178SOL    HW324485   4.630   2.931   1.271 -0.3558  0.8659  0.0712
 6178SOL    MW424486   4.641   2.945   1.356  0.3185 -0.4724 -0.1984
 6179SOL     OW24487   4.308   4.790   0.596  0.0853  0.0417  0.5762
 6179SOL    HW224488   4.350   4.871   0.624 -1.7860  1.4417 -0.4342
 6179SOL    HW324489   4.239   4.775   0.661 -0.1110 -0.2803  0.2966
 6179SOL    MW424490   4.305   4.799   0.608 -0.0560  0.7400  0.0665
 6180SOL     OW24491   0.444   2.064   4.906 -0.3611 -0.1687  0.6983
 6180SOL    HW224492   0.513   2.127   4.928 -2.3533  1.6180  2.2934
 6180SOL    HW324493   0.485   1.978   4.921  1.3576  0.8280  2.2136
 6180SOL    MW424494   0.459   2.061   4.911 -0.1369 -0.2180  0.1233
 6181SOL     OW24495   4.758   2.233   4.271  0.3362  0.6895 -0.1436
 6181SOL    HW224496   4.698   2.208   4.341  1.7057 -1.0790  0.4840
 6181SOL    HW324497   4.818   2.295   4.313  1.3157 -0.5679  0.3820
 6181SOL    MW424498   4.758   2.238   4.286  0.2918 -0.1049 -0.2316
 6182SOL     OW24499   1.806   0.357   4.386  1.0403 -0.3170  0.7555
 6182SOL    HW224500   1.857   0.338   4.465  0.2264  0.8932  1.6087
 6182SOL    HW324501   1.862   0.416   4.335  0.6913  0.6617  1.4841
 6182SOL    MW424502   1.820   0.362   4.390 -0.1613  0.2616  0.1270
 6183SOL     OW24503   0.423   6.117   2.909  0.2269  0.0722 -0.3211
 6183SOL    HW224504   0.444   6.131   2.817 -0.7815 -1.7510 -0.8694
 6183SOL    HW324505   0.457   6.030   2.928 -2.4284 -0.9482  0.0797
 6183SOL    MW424506   0.430   6.107   2.899  0.1083  0.2534  0.1110
 6184SOL     OW24507   2.191   6.163   4.220 -0.0148  0.0556 -0.3483
 6184SOL    HW224508   2.262   6.173   4.156 -0.6565  0.4990 -1.0144
 6184SOL    HW324509   2.205   6.235   4.282  1.4036 -1.1738  0.8219
 6184SOL    MW424510   2.202   6.174   4.220 -0.1497  0.6386 -0.0166
 6185SOL     OW24511   1.139   0.504   5.682  0.5545  0.0688 -0.1260
 6185SOL    HW224512   1.093   0.464   5.756  0.2997 -0.2187 -0.4386
 6185SOL    HW324513   1.187   0.432   5.641  0.6680  0.2207 -0.2617
 6185SOL    MW424514   1.139   0.490   5.687 -0.2987  0.1651  0.0795
 6186SOL     OW24515   1.891   0.071   2.100 -0.5201  0.3946  0.0987
 6186SOL    HW224516   1.987   0.077   2.106 -0.4272  1.0867 -1.5729
 6186SOL    HW324517   1.869   0.124   2.024 -2.1359 -0.8163 -0.3204
 6186SOL    MW424518   1.901   0.079   2.091 -0.3524  0.0970  0.1509
 6187SOL     OW24519   0.604   0.455  -0.001  0.2438 -0.1712 -0.0261
 6187SOL    HW224520   0.532   0.395  -0.023  0.5858  0.2576 -2.6488
 6187SOL    HW324521   0.573   0.541  -0.030  1.4924  0.1399 -0.4986
 6187SOL    MW424522   0.590   0.458  -0.008 -0.5810 -0.5091 -0.1151
 6188SOL     OW24523   4.046   5.508   1.914  0.2591 -0.5118  0.2508
 6188SOL    HW224524   4.129   5.557   1.915 -0.4722  0.7642  0.6968
 6188SOL    HW324525   4.019   5.509   1.823  1.0225 -1.4698 -0.0045
 6188SOL    MW424526   4.054   5.515   1.902 -0.0319  0.9087  0.3709
 6189SOL     OW24527   2.759   5.835   3.166  0.1354  0.0280  0.8828
 6189SOL    HW224528   2.759   5.745   3.200  0.2317 -0.3322 -0.0348
 6189SOL    HW324529   2.835   5.838   3.108  0.1048  0.6944  0.8732
 6189SOL    MW424530   2.769   5.823   3.163 -0.0340  0.0855  0.3655
 6190SOL     OW24531   2.241   5.219   2.068  0.1309 -0.2677 -0.6284
 6190SOL    HW224532   2.148   5.234   2.085  0.2071  0.4697 -0.8221
 6190SOL    HW324533   2.265   5.287   2.005  0.5727 -1.0620 -1.3425
 6190SOL    MW424534   2.232   5.230   2.062  0.0767 -0.2212 -0.0537
 6191SOL     OW24535   5.226   5.580   4.422 -0.5717 -0.0094 -0.8055
 6191SOL    HW224536   5.254   5.652   4.365 -0.5699 -1.2503 -2.4619
 6191SOL    HW324537   5.239   5.501   4.369  0.7131 -1.4058  1.4103
 6191SOL    MW424538   5.231   5.579   4.407  0.0598 -0.0102  0.4817
 6192SOL     OW24539   3.605   1.917   0.800  0.4242  0.3621 -0.0872
 6192SOL    HW224540   3.665   1.987   0.776  1.4242 -0.8776 -1.4185
 6192SOL    HW324541   3.610   1.855   0.726 -0.5769 -0.9864  0.9229
 6192SOL    MW424542   3.614   1.918   0.787 -0.2666  0.3689  0.4936
 6193SOL     OW24543   6.260   5.072   0.282 -0.1706  0.6917 -0.7335
 6193SOL    HW224544   6.341   5.110   0.316  0.1895 -2.3712  2.3903
 6193SOL    HW324545   6.191   5.120   0.328 -0.1406  2.2765 -2.2546
 6193SOL    MW424546   6.262   5.084   0.293  0.6076 -0.2617 -0.5439
 6194SOL     OW24547   3.884   2.912   0.342 -0.3121 -0.3575 -0.3193
 6194SOL    HW224548   3.843   2.849   0.282  0.3396 -1.5878  0.4827
 6194SOL    HW324549   3.813   2.938   0.401  0.0836 -2.9940  1.4901
 6194SOL    MW424550   3.869   2.907   0.342  0.1916  0.1836  0.9316
 6195SOL     OW24551   0.131   5.036   2.439 -0.1647 -0.1495  0.2162
 6195SOL    HW224552   0.061   4.973   2.459  0.9899 -1.4473  0.3093
 6195SOL    HW324553   0.168   5.059   2.525 -0.0028 -0.0371  0.1166
 6195SOL    MW424554   0.126   5.031   2.453  0.2913 -0.8264 -0.0107
 6196SOL     OW24555   2.162   0.942   2.943  0.5114 -0.2252  0.3609
 6196SOL    HW224556   2.123   0.948   3.030  1.6752 -0.1294  0.8999
 6196SOL    HW324557   2.100   0.889   2.892 -1.5867  2.0019  0.4044
 6196SOL    MW424558   2.149   0.935   2.948  0.6321  0.6878  0.2504
 6197SOL     OW24559   4.721   4.156   0.203  0.2689 -0.3656 -0.6255
 6197SOL    HW224560   4.762   4.225   0.151 -0.4314  0.8786  0.4186
 6197SOL    HW324561   4.710   4.083   0.142  1.1048  0.4033 -1.7315
 6197SOL    MW424562   4.725   4.156   0.188 -0.1770 -0.2267 -0.1835
 6198SOL     OW24563   2.592   2.373   0.204  0.4607 -0.2444  0.0473
 6198SOL    HW224564   2.593   2.279   0.191  1.4133 -0.1406 -0.8031
 6198SOL    HW324565   2.684   2.399   0.201  0.2137  0.7093  0.2535
 6198SOL    MW424566   2.604   2.364   0.202  0.8423 -0.0780  0.0656
 6199SOL     OW24567   1.737   1.700   1.993 -0.2037  0.7499  0.2536
 6199SOL    HW224568   1.772   1.747   2.069  0.9962  0.2547  0.0328
 6199SOL    HW324569   1.790   1.620   1.988 -1.8114 -0.3688  0.2753
 6199SOL    MW424570   1.749   1.696   2.003 -0.6208 -0.0280 -0.3143
 6200SOL     OW24571   3.044   5.330   3.461  0.3294  0.2040 -0.4245
 6200SOL    HW224572   3.092   5.292   3.387  1.7709  1.1977 -0.0257
 6200SOL    HW324573   3.006   5.254   3.506  1.5180 -0.6074 -0.7563
 6200SOL    MW424574   3.045   5.315   3.457 -0.8191 -0.4167 -0.2940
 6201SOL     OW24575   6.174   1.833   5.299 -0.9298  0.3610 -0.2133
 6201SOL    HW224576   6.142   1.857   5.211 -0.6978 -2.1059 -1.0457
 6201SOL    HW324577   6.101   1.856   5.357 -1.0179  2.2226 -0.9746
 6201SOL    MW424578   6.160   1.839   5.295 -0.2342  0.0306 -0.3163
 6202SOL     OW24579   2.263   4.539   5.161  0.1458 -0.1059 -0.2422
 6202SOL    HW224580   2.276   4.447   5.185  0.3613  0.3386  1.5373
 6202SOL    HW324581   2.196   4.538   5.093 -0.9134 -1.5195  0.7582
 6202SOL    MW424582   2.256   4.527   5.155  0.1884  0.4502  0.4876
 6203SOL     OW24583   3.564   0.586   4.475 -0.6921 -0.4690 -0.0924
 6203SOL    HW224584   3.572   0.496   4.505  2.7585 -0.0487  0.7010
 6203SOL    HW324585   3.491   0.622   4.525 -1.4222 -2.4899  0.3841
 6203SOL    MW424586   3.556   0.579   4.485  0.5536  0.0376 -0.0001
 6204SOL     OW24587   5.601   3.279   1.934  0.4587  0.0603 -0.3017
 6204SOL    HW224588   5.545   3.236   1.999  1.2810 -0.0349  0.3743
 6204SOL    HW324589   5.665   3.327   1.987  1.2203 -0.1171 -1.0497
 6204SOL    MW424590   5.602   3.280   1.950 -0.8643 -0.0818 -0.2778
 6205SOL     OW24591   5.844   1.770   1.421 -0.2454 -0.3075 -0.3716
 6205SOL    HW224592   5.828   1.686   1.465 -0.6068 -1.2303 -2.1353
 6205SOL    HW324593   5.789   1.833   1.467  1.7686 -0.4680  2.4889
 6205SOL    MW424594   5.834   1.767   1.433 -0.0822  0.6530  0.3514
 6206SOL     OW24595   4.531   3.970   2.212 -0.2426  0.4515  0.3973
 6206SOL    HW224596   4.468   3.899   2.203  0.7323 -0.2459 -1.8446
 6206SOL    HW324597   4.540   4.005   2.123  3.9176 -0.8428  0.0409
 6206SOL    MW424598   4.524   3.965   2.199  0.0696  0.1951  0.2639
 6207SOL     OW24599   4.332   6.191   1.933  0.1404 -0.2928  0.1761
 6207SOL    HW224600   4.385   6.180   2.013  0.2940 -2.5363 -0.1713
 6207SOL    HW324601   4.242   6.187   1.964  0.1997 -0.8743  0.2911
 6207SOL    MW424602   4.327   6.189   1.948  0.0358  0.0433 -0.3176
 6208SOL     OW24603   0.860   6.078   3.206 -0.6595  0.7014 -0.1662
 6208SOL    HW224604   0.833   6.159   3.250  1.1721  0.8269  0.7832
 6208SOL    HW324605   0.854   6.099   3.113 -0.3517  1.9023  0.0639
 6208SOL    MW424606   0.855   6.092   3.199  0.4546  0.4800 -0.4059
 6209SOL     OW24607   3.698   2.632   4.001  0.1727 -0.5146 -0.5661
 6209SOL    HW224608   3.640   2.707   4.015  0.9538 -0.1279  0.7756
 6209SOL    HW324609   3.651   2.577   3.939 -1.4379  0.0098  0.1296
 6209SOL    MW424610   3.684   2.635   3.995 -0.1832  0.0567  0.0935
 6210SOL     OW24611   5.614   0.072   2.739  0.6875 -0.1075 -0.1642
 6210SOL    HW224612   5.665   0.149   2.713  0.3649 -0.0102 -0.5239
 6210SOL    HW324613   5.565   0.101   2.815  2.5043 -0.7384  1.3108
 6210SOL    MW424614   5.614   0.086   2.745  0.2893 -0.1100  0.0158
 6211SOL     OW24615   0.938   3.629   4.742  0.0545 -0.1527 -0.0719
 6211SOL    HW224616   0.956   3.586   4.658  1.6699  0.6887 -0.1896
 6211SOL    HW324617   0.983   3.575   4.807  0.9089  0.5642 -0.0557
 6211SOL    MW424618   0.946   3.616   4.739  0.0470 -0.3436  0.3142
 6212SOL     OW24619   3.742   2.841   5.886  0.6141 -0.1709 -0.1931
 6212SOL    HW224620   3.791   2.761   5.869  0.1944 -0.4119 -0.2560
 6212SOL    HW324621   3.810   2.906   5.904  0.9313 -0.8914  1.4127
 6212SOL    MW424622   3.758   2.839   5.886  0.2766 -0.5202  0.1735
 6213SOL     OW24623   0.063   1.977   3.235 -0.2854 -0.7106 -0.3058
 6213SOL    HW224624  -0.019   1.928   3.245 -0.6708 -0.1680 -0.7232
 6213SOL    HW324625   0.042   2.044   3.171  0.4140 -0.3849 -0.1966
 6213SOL    MW424626   0.050   1.979   3.228  0.4747  0.3710 -0.2012
 6214SOL     OW24627   3.729   1.515   0.429 -0.3198 -0.8141 -0.2222
 6214SOL    HW224628   3.770   1.446   0.481  0.9775  0.3478  0.3602
 6214SOL    HW324629   3.765   1.503   0.341  0.6768 -0.3080  0.0992
 6214SOL    MW424630   3.739   1.504   0.425  0.2945 -0.3087  0.2815
 6215SOL     OW24631   2.872   3.164   5.174 -0.2021 -0.0436 -0.3522
 6215SOL    HW224632   2.839   3.208   5.096 -0.6146  2.8944  1.3330
 6215SOL    HW324633   2.804   3.177   5.240  0.4496 -1.7683  0.7321
 6215SOL    MW424634   2.859   3.172   5.172 -0.3379  0.1326  0.3028
 6216SOL     OW24635   4.873   4.468   4.579  0.3394 -0.3234  0.1118
 6216SOL    HW224636   4.817   4.540   4.605  1.0615  0.3623 -0.1827
 6216SOL    HW324637   4.816   4.391   4.579 -0.4833  0.2816  0.2339
 6216SOL    MW424638   4.858   4.467   4.582 -0.4934  0.2307  0.0615
 6217SOL     OW24639   0.997   5.602   4.954  0.5018 -0.2553  0.0332
 6217SOL    HW224640   0.982   5.674   4.893  1.3589  0.3090  0.4676
 6217SOL    HW324641   1.080   5.563   4.924  1.1902  0.3311  1.1032
 6217SOL    MW424642   1.006   5.606   4.942 -0.1202  0.4156  0.0151
 6218SOL     OW24643   0.060   6.006   3.918 -0.6750  0.1405  0.0668
 6218SOL    HW224644   0.002   5.949   3.968 -0.1951 -0.7269 -0.3405
 6218SOL    HW324645   0.090   6.071   3.981  1.6132 -2.1677  1.5557
 6218SOL    MW424646   0.056   6.007   3.933 -0.2673 -0.3238  0.0607
 6219SOL     OW24647   2.474   4.188   3.576  0.5712  0.0587 -0.1129
 6219SOL    HW224648   2.534   4.141   3.518  1.0385  2.1484 -1.4427
 6219SOL    HW324649   2.449   4.266   3.526 -2.1928 -0.0502  0.9487
 6219SOL    MW424650   2.479   4.192   3.562  0.0320  0.5474 -0.3046
 6220SOL     OW24651   4.753   0.775   1.563 -0.4915  0.0466  0.0935
 6220SOL    HW224652   4.759   0.798   1.656  0.0843  1.3861 -0.2514
 6220SOL    HW324653   4.838   0.735   1.544 -0.5557 -0.0994  0.1160
 6220SOL    MW424654   4.765   0.773   1.573 -0.1322  0.0247 -0.5354
 6221SOL     OW24655   6.026   0.115   1.248  0.2958  0.5932  0.1245
 6221SOL    HW224656   6.057   0.037   1.293  1.6638  1.5304  0.8953
 6221SOL    HW324657   6.048   0.100   1.156  0.0018 -0.1729  0.1759
 6221SOL    MW424658   6.033   0.103   1.241  0.1126  0.6251  0.4458
 6222SOL     OW24659   2.070   4.425   3.616 -0.0525  0.4596  0.1323
 6222SOL    HW224660   2.076   4.365   3.690  0.0655  0.8780  0.4616
 6222SOL    HW324661   1.991   4.398   3.569 -0.9559  1.1315  1.2281
 6222SOL    MW424662   2.060   4.413   3.620  0.0641  0.1267  0.1112
 6223SOL     OW24663   5.221   2.263   4.493  0.4381  0.4351  0.4368
 6223SOL    HW224664   5.243   2.317   4.417  0.9260 -0.3059  0.0470
 6223SOL    HW324665   5.282   2.291   4.562 -1.5314  2.8008  1.3645
 6223SOL    MW424666   5.232   2.274   4.492 -0.1650 -0.1042  0.3815
 6224SOL     OW24667   0.288   2.794   1.579 -0.4349 -0.5065 -0.0916
 6224SOL    HW224668   0.223   2.735   1.541 -0.3637 -0.2168 -0.6631
 6224SOL    HW324669   0.346   2.817   1.507  0.0052 -0.3617  0.3039
 6224SOL    MW424670   0.287   2.789   1.565 -0.2593 -0.0911 -0.1207
 6225SOL     OW24671   2.397   1.073   6.376  0.7994  0.0725 -0.0186
 6225SOL    HW224672   2.357   0.989   6.396 -1.0023  0.8772 -0.0668
 6225SOL    HW324673   2.434   1.102   6.460  1.2397 -0.6441  0.0453
 6225SOL    MW424674   2.397   1.066   6.390 -0.2308  0.6136  0.2927
 6226SOL     OW24675   0.686   4.185   1.165  0.5216  0.0650  0.1828
 6226SOL    HW224676   0.714   4.254   1.225  1.5050 -0.0865 -0.0976
 6226SOL    HW324677   0.648   4.231   1.091  0.9983  0.2999  0.0840
 6226SOL    MW424678   0.684   4.200   1.163  0.4578  0.5003 -0.4326
 6227SOL     OW24679   4.988   2.252   5.382 -0.0841 -0.5209  0.6954
 6227SOL    HW224680   5.040   2.172   5.375 -0.9160 -1.0179 -0.0237
 6227SOL    HW324681   5.053   2.323   5.379  0.6603 -1.1538  1.3047
 6227SOL    MW424682   5.004   2.251   5.381  0.0018 -0.3680  0.6020
 6228SOL     OW24683   3.582   3.176   5.821 -0.1900 -0.0407  0.0911
 6228SOL    HW224684   3.651   3.222   5.869  1.7900 -0.4775 -2.1703
 6228SOL    HW324685   3.508   3.237   5.822  0.9349  1.3796  0.7476
 6228SOL    MW424686   3.581   3.190   5.828 -0.0750 -0.4707  0.7503
 6229SOL     OW24687   6.132   0.008   1.004 -0.0325 -0.5444  0.1781
 6229SOL    HW224688   6.171   0.030   0.919  0.4028  0.0421  0.5242
 6229SOL    HW324689   6.110  -0.085   0.997  1.5695 -0.9354  0.0176
 6229SOL    MW424690   6.134  -0.002   0.992  0.3980 -0.3066 -0.3823
 6230SOL     OW24691   6.265   5.884   3.721  0.3104 -0.5877 -0.1072
 6230SOL    HW224692   6.344   5.906   3.770  0.4728  1.6645 -1.2199
 6230SOL    HW324693   6.197   5.877   3.788  1.2249 -1.4546  0.7570
 6230SOL    MW424694   6.266   5.886   3.736 -0.0962  0.1145 -0.8413
 6231SOL     OW24695   3.735   5.538   4.692 -0.2374  0.3932  0.1154
 6231SOL    HW224696   3.644   5.550   4.665 -0.6524  1.8457  1.9286
 6231SOL    HW324697   3.781   5.614   4.655  0.2235 -0.2312 -0.6265
 6231SOL    MW424698   3.729   5.550   4.684 -0.3402  0.7911  0.7724
 6232SOL     OW24699   2.112   0.042   3.209 -0.1472  0.0198  0.0563
 6232SOL    HW224700   2.200   0.068   3.236 -0.0798  1.5353 -1.4807
 6232SOL    HW324701   2.060   0.046   3.289  0.9407  0.1463  0.7798
 6232SOL    MW424702   2.117   0.046   3.223  0.6719 -0.3563 -0.2449
 6233SOL     OW24703   1.445   5.015   1.293 -0.1251 -0.2680 -0.1106
 6233SOL    HW224704   1.431   5.016   1.388 -0.8658 -0.9902 -0.1925
 6233SOL    HW324705   1.369   4.968   1.259  1.4236 -2.4282 -0.8298
 6233SOL    MW424706   1.433   5.009   1.301 -0.1638  0.6170 -1.1670
 6234SOL     OW24707   0.881   6.237   2.510  0.4400 -0.0342 -0.3207
 6234SOL    HW224708   0.880   6.333   2.520 -0.4378 -0.2166  1.9507
 6234SOL    HW324709   0.973   6.215   2.496  0.7077  1.1057 -0.4724
 6234SOL    MW424710   0.893   6.247   2.510 -0.1432  0.4056 -0.1416
 6235SOL     OW24711   6.366   6.193   3.724 -0.2802 -0.3005  0.0609
 6235SOL    HW224712   6.446   6.238   3.696 -1.3683  0.6504 -1.7045
 6235SOL    HW324713   6.396   6.129   3.788  1.9006  0.0076 -0.5624
 6235SOL    MW424714   6.380   6.191   3.728  1.0341  0.4852  0.2098
 6236SOL     OW24715   1.524   2.988   3.087  0.1485  0.0224  0.5557
 6236SOL    HW224716   1.614   2.985   3.118  0.3474 -1.2780 -0.0937
 6236SOL    HW324717   1.531   3.007   2.994 -0.2982  0.7753  0.6689
 6236SOL    MW424718   1.536   2.990   3.079  0.2706  0.4465 -0.0980
 6237SOL     OW24719   1.068   6.376   6.269  0.5462 -0.6928  0.3520
 6237SOL    HW224720   1.137   6.410   6.212 -0.7954  1.2105 -0.2372
 6237SOL    HW324721   1.066   6.436   6.343  0.0721 -1.2122  0.7695
 6237SOL    MW424722   1.077   6.389   6.271  0.7947 -0.0490 -0.0902
 6238SOL     OW24723   4.725   0.387   4.731  0.1563 -0.2648  0.0912
 6238SOL    HW224724   4.776   0.390   4.812 -0.2225  3.4882  0.4103
 6238SOL    HW324725   4.674   0.307   4.737  1.5982 -1.1000  2.6105
 6238SOL    MW424726   4.725   0.377   4.742  0.8569 -0.2726 -0.5275
 6239SOL     OW24727   6.395   3.416   5.478 -0.4677  0.5992 -0.6248
 6239SOL    HW224728   6.471   3.416   5.419  0.2668  0.3211  0.2958
 6239SOL    HW324729   6.324   3.454   5.426 -0.1962 -0.8383 -2.1489
 6239SOL    MW424730   6.396   3.421   5.463  0.4503  0.1779  0.4981
 6240SOL     OW24731   2.734   0.209   2.058 -0.1283 -0.2622 -0.0760
 6240SOL    HW224732   2.675   0.200   1.983 -1.2152  0.5879  0.6410
 6240SOL    HW324733   2.744   0.120   2.092 -1.7482 -0.3261  0.3145
 6240SOL    MW424734   2.727   0.196   2.053 -0.1591 -0.5633  0.0170
 6241SOL     OW24735   2.158   4.608   3.300 -0.3085  0.0213 -0.2327
 6241SOL    HW224736   2.184   4.526   3.341 -3.2120 -0.9760 -0.1494
 6241SOL    HW324737   2.229   4.628   3.238  1.1531 -1.7500  0.7694
 6241SOL    MW424738   2.171   4.600   3.297 -0.3456 -0.2079 -0.3793
 6242SOL     OW24739   2.809   1.061   3.447 -1.2990  0.6832 -0.9354
 6242SOL    HW224740   2.778   1.151   3.442 -1.2643  0.7263 -0.4747
 6242SOL    HW324741   2.764   1.016   3.376 -2.3544  0.7676 -0.3516
 6242SOL    MW424742   2.799   1.067   3.437  0.1606 -0.6207  0.1776
 6243SOL     OW24743   4.170   0.992   1.132  0.4033  0.2228 -0.1507
 6243SOL    HW224744   4.179   0.924   1.066  2.6194  0.1255  0.1744
 6243SOL    HW324745   4.194   1.073   1.087 -0.6842  0.5887 -0.1191
 6243SOL    MW424746   4.174   0.994   1.117 -0.4316  0.2248 -0.5915
 6244SOL     OW24747   0.433   2.440   1.682  0.0155  0.1518 -0.1703
 6244SOL    HW224748   0.445   2.347   1.697 -0.3917 -0.2875 -2.2186
 6244SOL    HW324749   0.356   2.464   1.733  0.5034 -0.4493  0.8851
 6244SOL    MW424750   0.425   2.431   1.691 -0.6011 -0.3468 -0.9592
 6245SOL     OW24751   0.744   5.421   3.720  0.2549 -0.8308 -0.2790
 6245SOL    HW224752   0.789   5.474   3.654  0.5421 -0.0791  0.4989
 6245SOL    HW324753   0.710   5.485   3.783  0.8978 -1.5924  0.8717
 6245SOL    MW424754   0.745   5.437   3.719  0.1216 -0.2667 -0.2140
 6246SOL     OW24755   1.464   0.749   1.243  0.2628 -0.7771 -0.2076
 6246SOL    HW224756   1.473   0.771   1.151  1.5882  1.4753  0.3956
 6246SOL    HW324757   1.372   0.766   1.263  0.6824  2.1257 -0.3779
 6246SOL    MW424758   1.453   0.754   1.234  0.0358 -0.0849  0.3779
 6247SOL     OW24759   5.191   5.187   5.006  0.0052  0.0383 -0.3048
 6247SOL    HW224760   5.180   5.216   5.097 -1.9721  0.6908 -0.7023
 6247SOL    HW324761   5.240   5.258   4.964  2.0305 -0.8192  0.4820
 6247SOL    MW424762   5.196   5.200   5.013 -0.1350 -0.0317  0.4350
 6248SOL     OW24763   4.902   1.149   0.185  0.0087  0.1017  0.3316
 6248SOL    HW224764   4.910   1.073   0.243 -0.1048  0.4830  0.8486
 6248SOL    HW324765   4.952   1.218   0.228  2.9825 -0.5655 -1.7396
 6248SOL    MW424766   4.910   1.148   0.198  0.2778 -0.8743 -0.4318
 6249SOL     OW24767   6.191   3.597   4.914 -0.1926 -0.0070 -0.6972
 6249SOL    HW224768   6.262   3.615   4.852  0.7684  0.5114  0.5043
 6249SOL    HW324769   6.232   3.544   4.983 -0.4136  2.0029  1.0762
 6249SOL    MW424770   6.206   3.592   4.915  0.3193 -0.2695  0.1239
 6250SOL     OW24771   3.827   1.133   2.267  0.2210  0.5801 -0.2081
 6250SOL    HW224772   3.735   1.108   2.265  0.2200  0.4741  0.5927
 6250SOL    HW324773   3.829   1.220   2.227 -0.1041  0.2599 -0.9350
 6250SOL    MW424774   3.815   1.141   2.262  0.0093  0.8569 -0.0890
 6251SOL     OW24775   3.507   4.078   1.201  0.5342  0.2346  0.2791
 6251SOL    HW224776   3.598   4.074   1.171  0.4478  0.0145  0.0485
 6251SOL    HW324777   3.511   4.134   1.279  1.4580 -2.7148  2.5023
 6251SOL    MW424778   3.520   4.085   1.207 -0.2051 -0.4712 -0.0752
 6252SOL     OW24779   0.749   5.879   3.856  0.2070  0.6382 -0.9231
 6252SOL    HW224780   0.721   5.888   3.764  0.4863  0.8011 -0.9920
 6252SOL    HW324781   0.705   5.799   3.886 -1.8185  1.8410 -0.4808
 6252SOL    MW424782   0.739   5.870   3.848  0.7210 -0.0465 -0.0251
 6253SOL     OW24783   2.084   3.722   6.135 -0.1602 -0.3861 -0.1767
 6253SOL    HW224784   2.140   3.780   6.186 -1.5504  0.6706  0.1981
 6253SOL    HW324785   2.076   3.765   6.050 -0.8509 -0.2266 -0.0380
 6253SOL    MW424786   2.090   3.735   6.131  0.2784 -0.1496  0.0697
 6254SOL     OW24787   6.192   3.433   5.696  0.4482  0.0052 -0.4650
 6254SOL    HW224788   6.167   3.514   5.741  0.3980 -0.3932  0.2465
 6254SOL    HW324789   6.154   3.441   5.609  0.3773  0.7125 -0.3760
 6254SOL    MW424790   6.184   3.445   5.691  0.3250  0.0403  0.4981
 6255SOL     OW24791   3.841   1.127   5.919  0.0520 -0.3121 -0.2549
 6255SOL    HW224792   3.815   1.133   5.827 -2.8118  0.1150  0.4882
 6255SOL    HW324793   3.838   1.217   5.951  2.4253 -0.2540 -0.0040
 6255SOL    MW424794   3.837   1.139   5.911 -0.3968  0.7816 -0.3586
 6256SOL     OW24795   0.675   3.894   4.701  0.0339 -0.2444 -0.1411
 6256SOL    HW224796   0.581   3.885   4.684  0.4670 -1.1549 -2.4990
 6256SOL    HW324797   0.712   3.919   4.617  1.8606  0.7154  0.8876
 6256SOL    MW424798   0.668   3.896   4.688  0.0992 -0.5461  0.0836
 6257SOL     OW24799   2.102   4.858   4.398 -0.2826  0.8945 -0.0230
 6257SOL    HW224800   2.019   4.852   4.351 -1.3424  1.4241  1.6893
 6257SOL    HW324801   2.084   4.916   4.471  1.8646  1.7497 -0.1056
 6257SOL    MW424802   2.089   4.865   4.401 -0.2641 -0.2443 -0.2988
 6258SOL     OW24803   4.249   4.236   5.753  0.3336  0.7884  0.5911
 6258SOL    HW224804   4.202   4.154   5.736  2.0478 -0.2650  0.7043
 6258SOL    HW324805   4.219   4.295   5.684 -0.6474 -0.0548  0.2697
 6258SOL    MW424806   4.239   4.233   5.741  0.4327 -0.0195  0.3059
 6259SOL     OW24807   5.186   3.484   0.789  0.0455 -0.9500  0.4140
 6259SOL    HW224808   5.185   3.536   0.869  0.7200  0.5660 -0.5176
 6259SOL    HW324809   5.114   3.518   0.736  0.3176 -1.1394 -0.0946
 6259SOL    MW424810   5.177   3.495   0.792  0.4491 -0.8779 -0.0780
 6260SOL     OW24811   0.016   1.035   6.062  0.2186  0.7298 -0.0793
 6260SOL    HW224812  -0.024   1.078   5.986 -0.6191  1.0439  0.5304
 6260SOL    HW324813  -0.031   0.952   6.070  2.2073 -0.6507 -1.6023
 6260SOL    MW424814   0.005   1.030   6.053  0.0038 -0.3979  0.1512
 6261SOL     OW24815   2.929   0.409   4.200  0.4009 -0.3820  0.2152
 6261SOL    HW224816   2.931   0.505   4.206  0.2290 -0.3210 -0.5722
 6261SOL    HW324817   2.993   0.380   4.264  1.0899  0.2957 -0.1509
 6261SOL    MW424818   2.937   0.418   4.209  0.1456 -0.3001  0.0681
 6262SOL     OW24819   2.887   4.685   6.051  0.0951  0.6185 -0.2573
 6262SOL    HW224820   2.979   4.705   6.036 -0.2141  0.8752 -2.0152
 6262SOL    HW324821   2.866   4.619   5.985 -0.8620  0.2154  0.4298
 6262SOL    MW424822   2.896   4.679   6.040  0.6216 -0.0633 -0.2606
 6263SOL     OW24823   1.261   5.445   1.563 -0.1128 -0.6537 -0.3594
 6263SOL    HW224824   1.219   5.523   1.598  1.3626  0.0846 -0.1745
 6263SOL    HW324825   1.204   5.373   1.592 -0.8831  0.2375  0.4298
 6263SOL    MW424826   1.248   5.446   1.571  0.2138  1.0133 -0.7686
 6264SOL     OW24827   2.228   4.760   0.229 -0.1757 -0.0650  0.2820
 6264SOL    HW224828   2.136   4.731   0.223 -1.5921  4.1028 -1.4785
 6264SOL    HW324829   2.232   4.809   0.310  0.4958 -0.1084  0.2759
 6264SOL    MW424830   2.216   4.762   0.239  0.1988 -0.7496  0.0560
 6265SOL     OW24831   6.309   6.118   3.135  0.2227 -0.0041  0.2219
 6265SOL    HW224832   6.340   6.130   3.225 -3.0496  3.1978  1.1408
 6265SOL    HW324833   6.272   6.029   3.135 -0.8189  0.3574  2.4776
 6265SOL    MW424834   6.309   6.108   3.147  0.3979  0.1814  0.7220
 6266SOL     OW24835   2.467   1.361   3.506  0.4729 -0.5590  0.4913
 6266SOL    HW224836   2.372   1.349   3.503  0.5411 -1.6630  1.9928
 6266SOL    HW324837   2.501   1.278   3.539  1.8538  0.2901  1.2821
 6266SOL    MW424838   2.459   1.349   3.510 -0.1194  0.4449  0.1791
 6267SOL     OW24839   2.595   2.743   1.108  0.0628  0.4312  0.0722
 6267SOL    HW224840   2.574   2.811   1.044 -0.7211  1.2648  1.1781
 6267SOL    HW324841   2.670   2.778   1.157  0.0986  0.1884  0.1938
 6267SOL    MW424842   2.602   2.756   1.106 -0.8526  0.7844 -0.0813
 6268SOL     OW24843   3.459   0.162   1.704 -0.5471 -0.4631 -0.1067
 6268SOL    HW224844   3.472   0.071   1.679 -1.6600 -0.6528 -0.0507
 6268SOL    HW324845   3.450   0.161   1.799 -0.3759 -0.2748 -0.0877
 6268SOL    MW424846   3.459   0.150   1.713  0.1697 -0.3544 -0.1073
 6269SOL     OW24847   4.120   4.821   1.970 -0.1665  0.5035 -0.3442
 6269SOL    HW224848   4.067   4.749   2.005  1.1351 -0.5040 -0.3518
 6269SOL    HW324849   4.193   4.829   2.032  0.8053  0.4149 -1.4384
 6269SOL    MW424850   4.123   4.813   1.983 -0.2695  0.4715  0.2574
 6270SOL     OW24851   3.306   1.933   0.875 -0.0050 -0.2691  0.0689
 6270SOL    HW224852   3.237   1.897   0.819 -0.7900  1.9385 -0.4917
 6270SOL    HW324853   3.387   1.915   0.827 -0.4376 -0.6691 -0.5325
 6270SOL    MW424854   3.307   1.926   0.861  0.1524  0.3092 -0.4056
 6271SOL     OW24855   0.125   2.205   5.571  0.8250  0.3544  0.0275
 6271SOL    HW224856   0.181   2.201   5.649 -1.2618 -0.9368  1.5357
 6271SOL    HW324857   0.179   2.166   5.502  1.8126 -0.9015  1.4300
 6271SOL    MW424858   0.140   2.199   5.572  0.2864  0.5325  0.2248
 6272SOL     OW24859   0.047   1.332   3.501 -0.3016  0.3294 -0.6010
 6272SOL    HW224860   0.028   1.310   3.410 -0.2816  0.8061 -0.7248
 6272SOL    HW324861  -0.039   1.335   3.543 -0.3281  0.3261 -0.6550
 6272SOL    MW424862   0.033   1.330   3.495 -0.1568 -0.3166  0.3074
 6273SOL     OW24863   3.581   6.397   2.423 -0.1906 -0.1256  0.4072
 6273SOL    HW224864   3.574   6.349   2.506  0.5062  0.8345  1.0428
 6273SOL    HW324865   3.654   6.356   2.378  0.5738  0.4648  1.0651
 6273SOL    MW424866   3.590   6.385   2.428  0.1904  0.2637  0.5245
 6274SOL     OW24867   4.822   2.874   3.045 -0.0464  0.4059  0.0260
 6274SOL    HW224868   4.764   2.922   2.985 -0.8197  0.9709  1.1938
 6274SOL    HW324869   4.856   2.941   3.104  1.4108 -0.0109 -0.3185
 6274SOL    MW424870   4.819   2.889   3.045  0.5458 -0.3655 -0.2751
 6275SOL     OW24871   2.662   5.059   0.004  0.3839  0.0153  0.3840
 6275SOL    HW224872   2.610   4.981  -0.016 -1.4583  1.5256 -1.0119
 6275SOL    HW324873   2.600   5.119   0.047  1.6607  0.8984  1.0587
 6275SOL    MW424874   2.647   5.057   0.007  0.6361 -0.5428  0.3277
 6276SOL     OW24875   0.284   1.677   1.168 -0.4561  0.3352 -0.0094
 6276SOL    HW224876   0.250   1.663   1.080  1.3951 -0.9268 -0.5792
 6276SOL    HW324877   0.339   1.754   1.161 -0.9373  0.7066  0.2446
 6276SOL    MW424878   0.287   1.685   1.156 -0.3519  0.1501 -0.1947
 6277SOL     OW24879   2.858   2.932   4.033  0.0919  0.1360 -0.1236
 6277SOL    HW224880   2.877   2.854   4.084 -1.9499  0.1943  0.8472
 6277SOL    HW324881   2.878   2.907   3.942  1.5256 -0.7552  0.4099
 6277SOL    MW424882   2.863   2.918   4.027  0.2240 -0.2383  0.7452
 6278SOL     OW24883   3.668   0.074   0.595 -0.6229 -0.1918 -0.0815
 6278SOL    HW224884   3.601   0.119   0.646 -0.4729 -0.0045 -0.0474
 6278SOL    HW324885   3.666   0.116   0.509 -1.1505 -0.7745 -0.3639
 6278SOL    MW424886   3.659   0.085   0.590 -0.0268  0.3847  0.0191
 6279SOL     OW24887   1.056   4.963   2.968  0.3381 -0.1095 -0.0513
 6279SOL    HW224888   1.051   4.871   2.996 -0.0894 -0.5071 -1.3753
 6279SOL    HW324889   1.040   5.013   3.048  1.0898 -1.1709  0.7987
 6279SOL    MW424890   1.054   4.957   2.982 -0.7523 -0.2408 -0.5064
 6280SOL     OW24891   3.335   6.147   3.693  0.0130  0.1940  0.0769
 6280SOL    HW224892   3.380   6.212   3.748  0.1108 -1.7723  2.4818
 6280SOL    HW324893   3.405   6.094   3.656 -0.1585 -0.1235  0.2046
 6280SOL    MW424894   3.350   6.149   3.696 -0.1547 -0.4440  0.0841
 6281SOL     OW24895   4.283   2.848   3.893 -0.0039 -0.2150  0.2278
 6281SOL    HW224896   4.248   2.790   3.825 -1.1534 -0.0589  0.6614
 6281SOL    HW324897   4.348   2.795   3.938  0.4303 -0.4788 -0.6762
 6281SOL    MW424898   4.287   2.833   3.890 -0.3464  0.2447  0.7392
 6282SOL     OW24899   5.146   4.964   1.269  0.0613  0.2023  0.9050
 6282SOL    HW224900   5.118   5.054   1.287 -1.4279 -0.0571  0.0019
 6282SOL    HW324901   5.178   4.932   1.354  2.6943  2.2445  0.8167
 6282SOL    MW424902   5.147   4.972   1.283  0.1721 -0.9641 -0.1837
 6283SOL     OW24903   2.001   1.888   3.542  0.0630  0.1013 -0.4465
 6283SOL    HW224904   1.967   1.969   3.580 -3.2068 -2.3584  2.6136
 6283SOL    HW324905   2.080   1.869   3.592 -0.4721  0.2692  0.4924
 6283SOL    MW424906   2.007   1.896   3.553 -0.0660 -0.0210 -0.1153
 6284SOL     OW24907   2.707   0.391   0.469  0.6333  0.0779  0.4414
 6284SOL    HW224908   2.666   0.476   0.479 -1.7624 -1.0855  1.3860
 6284SOL    HW324909   2.785   0.395   0.525 -0.9079  0.8152  2.6915
 6284SOL    MW424910   2.712   0.402   0.478 -0.2587  0.3793 -0.1810
 6285SOL     OW24911   5.264   1.185   6.264 -0.3114 -0.5253 -0.1711
 6285SOL    HW224912   5.292   1.147   6.181 -0.7376  0.8308 -0.9576
 6285SOL    HW324913   5.180   1.143   6.283 -0.9044  0.1776 -1.1632
 6285SOL    MW424914   5.257   1.175   6.255 -0.4095  0.6641 -0.0474
 6286SOL     OW24915   5.137   1.843   3.483 -0.0279  0.3002  0.5209
 6286SOL    HW224916   5.087   1.883   3.412 -0.3532  1.1378  1.2116
 6286SOL    HW324917   5.209   1.905   3.499  0.5902 -0.3435  0.2947
 6286SOL    MW424918   5.140   1.857   3.476 -0.1176  0.0150 -0.4734
 6287SOL     OW24919   5.806   2.195   5.012  0.1713  0.1028  0.1390
 6287SOL    HW224920   5.722   2.152   5.028 -0.2681 -1.3743 -4.5404
 6287SOL    HW324921   5.792   2.248   4.934  3.3999  0.1944 -0.5470
 6287SOL    MW424922   5.793   2.196   5.004  0.3391 -0.2730  0.9448
 6288SOL     OW24923   1.577   4.223   4.943 -0.2751  0.1175 -0.3963
 6288SOL    HW224924   1.587   4.227   5.038 -0.9094  0.3744 -0.3343
 6288SOL    HW324925   1.535   4.138   4.927  1.8157 -0.9478 -0.6532
 6288SOL    MW424926   1.573   4.212   4.953  0.3601 -0.0742 -0.2755
 6289SOL     OW24927   0.197   1.735   0.299  0.6191 -0.1413 -0.3457
 6289SOL    HW224928   0.229   1.646   0.286 -0.3585 -0.6986  0.8312
 6289SOL    HW324929   0.108   1.734   0.262  0.9166  0.5993 -1.1025
 6289SOL    MW424930   0.189   1.723   0.293 -0.1377 -0.3926 -0.3473
 6290SOL     OW24931   5.632   4.853   2.616  0.3531  0.1794  0.4746
 6290SOL    HW224932   5.718   4.882   2.583 -0.1056  0.2534 -0.7245
 6290SOL    HW324933   5.574   4.860   2.540 -0.4726 -0.9318  0.9693
 6290SOL    MW424934   5.636   4.858   2.601 -0.9507  0.5622 -0.7257
 6291SOL     OW24935   3.032   0.863   1.241  0.4373  0.2252  0.4271
 6291SOL    HW224936   3.071   0.783   1.276 -2.4764 -0.8680  1.4886
 6291SOL    HW324937   2.973   0.833   1.172  1.3307  1.7934 -1.0926
 6291SOL    MW424938   3.029   0.849   1.237  0.3312  0.5128 -0.2057
 6292SOL     OW24939   0.460   5.106   1.449  0.0981 -0.7080 -0.3917
 6292SOL    HW224940   0.556   5.110   1.456 -0.0701  0.6104  1.8488
 6292SOL    HW324941   0.437   5.019   1.482  0.4479 -0.4611  0.5363
 6292SOL    MW424942   0.470   5.095   1.454  0.1007  0.2060 -0.5074
 6293SOL     OW24943   2.912   4.483   3.643 -0.2163 -0.8448  1.2825
 6293SOL    HW224944   2.820   4.496   3.621  0.3437 -0.7224 -1.1863
 6293SOL    HW324945   2.959   4.546   3.588  1.4829 -2.5365  0.7131
 6293SOL    MW424946   2.906   4.493   3.633 -0.3951  0.1903  0.2687
 6294SOL     OW24947   1.299   0.135   4.019  0.1785 -0.2821  0.1705
 6294SOL    HW224948   1.220   0.137   4.072 -0.7393  0.0831 -1.1731
 6294SOL    HW324949   1.339   0.221   4.034  1.6904 -1.3052  2.7548
 6294SOL    MW424950   1.294   0.147   4.028 -0.1775 -0.1855  0.6878
 6295SOL     OW24951   3.306   2.996   4.665  0.2614 -0.0115 -0.2756
 6295SOL    HW224952   3.242   2.934   4.630 -0.0363 -0.1996  0.5671
 6295SOL    HW324953   3.339   2.953   4.744  0.9703  0.3630 -0.3648
 6295SOL    MW424954   3.302   2.982   4.671 -0.0081  0.1145 -0.3948
 6296SOL     OW24955   1.079   3.131   4.840 -0.2329  0.1539 -0.2647
 6296SOL    HW224956   1.040   3.133   4.752 -2.7432 -1.1926  0.7038
 6296SOL    HW324957   1.159   3.080   4.830 -0.9247 -0.7371 -1.6295
 6296SOL    MW424958   1.084   3.125   4.827  0.1571  0.0657 -0.3005
 6297SOL     OW24959   5.901   0.648   1.390 -0.1486  0.0822 -0.2312
 6297SOL    HW224960   5.993   0.670   1.403 -0.4659  1.3519 -0.0009
 6297SOL    HW324961   5.902   0.578   1.324  0.9619  0.2720 -0.4276
 6297SOL    MW424962   5.913   0.641   1.383 -0.6104 -0.3537  0.4217
 6298SOL     OW24963   2.885   5.016   2.776  0.5875  0.5468 -0.2075
 6298SOL    HW224964   2.892   4.954   2.848 -0.5410  1.6110  0.8663
 6298SOL    HW324965   2.947   5.086   2.798  0.1529  0.9354 -0.1971
 6298SOL    MW424966   2.894   5.017   2.788 -0.2612 -0.2708 -0.4092
 6299SOL     OW24967   5.411   1.268   3.673 -0.3283 -0.1431 -0.3691
 6299SOL    HW224968   5.330   1.219   3.692 -0.5674 -0.0584 -1.1251
 6299SOL    HW324969   5.442   1.296   3.759 -1.4539  0.3767 -0.1090
 6299SOL    MW424970   5.404   1.265   3.687  0.2698  0.4074  0.1184
 6300SOL     OW24971   6.319   2.599   6.080 -0.0454  0.0620  0.8078
 6300SOL    HW224972   6.274   2.560   6.004 -0.3571 -0.7273  1.3898
 6300SOL    HW324973   6.249   2.611   6.145  0.4161 -0.2943  1.3746
 6300SOL    MW424974   6.304   2.595   6.078  0.3345 -0.3372  0.4047
 6301SOL     OW24975   1.997   1.210   0.425  0.0614 -0.3092 -0.2560
 6301SOL    HW224976   2.004   1.120   0.392 -0.6934 -0.9608  1.2419
 6301SOL    HW324977   1.964   1.200   0.514 -0.9643  1.5123 -0.3773
 6301SOL    MW424978   1.994   1.197   0.432 -0.1790 -0.0610 -0.5625
 6302SOL     OW24979   3.116   2.114   5.441 -0.4876 -0.1070  0.5159
 6302SOL    HW224980   3.204   2.089   5.415 -0.9920 -2.8477  1.1764
 6302SOL    HW324981   3.071   2.134   5.358  1.0348  2.8058  0.2477
 6302SOL    MW424982   3.122   2.114   5.426  0.3156 -0.2574  0.4487
 6303SOL     OW24983   0.245   4.388   2.143  0.1295 -0.0864 -0.5035
 6303SOL    HW224984   0.191   4.315   2.111  0.0353 -0.6207  0.7970
 6303SOL    HW324985   0.324   4.346   2.176 -0.2077  0.3241  0.8669
 6303SOL    MW424986   0.248   4.372   2.143  0.4685  0.1075 -0.1810
 6304SOL     OW24987   2.622   0.177   1.820 -0.4328 -0.4312  0.0829
 6304SOL    HW224988   2.536   0.146   1.849 -1.1218  0.3535 -1.0531
 6304SOL    HW324989   2.670   0.097   1.799 -0.5539 -0.9234  1.5611
 6304SOL    MW424990   2.617   0.162   1.821  0.3219  0.1825 -0.2751
 6305SOL     OW24991   0.825   0.582   0.559 -0.3186  0.1682 -0.0428
 6305SOL    HW224992   0.793   0.588   0.649  0.5415  2.3323  0.1800
 6305SOL    HW324993   0.803   0.493   0.532 -1.4202 -0.2458  1.9796
 6305SOL    MW424994   0.818   0.571   0.568  0.2684  0.1103 -0.0241
 6306SOL     OW24995   4.848   3.131   1.411  0.7223 -0.1680 -0.0322
 6306SOL    HW224996   4.800   3.204   1.372  2.5115  0.6068 -0.9208
 6306SOL    HW324997   4.792   3.055   1.399 -0.3388  0.7262 -0.8519
 6306SOL    MW424998   4.835   3.131   1.404  0.2651 -0.1548  0.0736
 6307SOL     OW24999   6.228   0.327   2.449  0.1367  0.4789 -0.2187
 6307SOL    HW225000   6.154   0.275   2.480  0.0334  1.3961  1.1537
 6307SOL    HW325001   6.188   0.405   2.410  0.3178 -0.0858 -1.5913
 6307SOL    MW425002   6.213   0.330   2.448  0.3220 -0.0948  0.2210
 6308SOL     OW25003   1.901   1.203   4.494 -0.2225  0.2986 -0.6934
 6308SOL    HW225004   1.983   1.249   4.475  0.9313  0.0281  2.9623
 6308SOL    HW325005   1.833   1.266   4.469  1.1061  1.3715 -1.8348
 6308SOL    MW425006   1.903   1.218   4.488 -0.4618 -0.2199  0.3815
 6309SOL     OW25007   4.937   1.000   1.134  0.3885 -0.3246 -0.0575
 6309SOL    HW225008   4.984   1.003   1.217 -1.0604 -0.1442  0.7839
 6309SOL    HW325009   4.868   0.936   1.147 -0.9892  1.0140 -0.4853
 6309SOL    MW425010   4.934   0.992   1.146 -0.4331 -0.3077 -0.1093
 6310SOL     OW25011   0.892   3.363   0.301  0.0422  0.0697 -0.0129
 6310SOL    HW225012   0.859   3.347   0.213 -0.4861 -0.7624  0.3315
 6310SOL    HW325013   0.941   3.284   0.323 -0.2487  0.0675  0.6373
 6310SOL    MW425014   0.894   3.351   0.292 -1.0160  0.0984  0.1077
 6311SOL     OW25015   4.658   5.155   0.783  0.0352 -0.3321 -0.1140
 6311SOL    HW225016   4.716   5.219   0.826 -0.2826 -0.0383 -0.1259
 6311SOL    HW325017   4.690   5.070   0.815  1.5430 -0.2890 -1.4004
 6311SOL    MW425018   4.670   5.152   0.793  0.5265  0.0254 -0.5128
 6312SOL     OW25019   4.469   1.189   1.565 -0.5973  0.1256 -0.2828
 6312SOL    HW225020   4.402   1.216   1.502  0.2521  0.4487 -1.0722
 6312SOL    HW325021   4.427   1.198   1.650 -1.5117  0.4530 -0.7568
 6312SOL    MW425022   4.455   1.194   1.568  0.0990 -0.1093  0.5690
 6313SOL     OW25023   3.937   2.246   1.889  0.6762 -0.1103 -0.1186
 6313SOL    HW225024   3.887   2.167   1.869 -0.1928  0.4819 -0.3575
 6313SOL    HW325025   3.956   2.240   1.983 -0.4146 -0.0516  0.1255
 6313SOL    MW425026   3.933   2.235   1.899  0.3386  0.5979 -0.3803
 6314SOL     OW25027   1.068   2.571   5.780 -0.0703  0.2145 -0.2985
 6314SOL    HW225028   0.992   2.530   5.822  1.0266 -0.6780  0.9043
 6314SOL    HW325029   1.067   2.661   5.811 -0.5305  0.1548 -0.1316
 6314SOL    MW425030   1.057   2.577   5.789 -0.6182 -0.3907 -0.5375
 6315SOL     OW25031   5.255   0.438   1.727 -0.3584 -0.0059 -0.4773
 6315SOL    HW225032   5.329   0.378   1.725 -1.9745 -2.1120 -1.0544
 6315SOL    HW325033   5.281   0.507   1.788  0.5078 -2.7877  2.5889
 6315SOL    MW425034   5.268   0.439   1.735  0.0225 -0.1594  0.4109
 6316SOL     OW25035   3.613   3.094   4.939 -0.4374 -0.4651  0.7607
 6316SOL    HW225036   3.553   3.153   4.892  0.0961 -1.0596 -0.7311
 6316SOL    HW325037   3.650   3.149   5.009 -2.0225  0.1591  1.1592
 6316SOL    MW425038   3.610   3.109   4.942 -0.2505 -0.5584 -0.5730
 6317SOL     OW25039   6.406   3.578   0.890  0.6133  0.6047 -0.5201
 6317SOL    HW225040   6.494   3.566   0.925  0.8578  1.7969 -0.6642
 6317SOL    HW325041   6.420   3.608   0.800  0.0394  0.0879 -0.7940
 6317SOL    MW425042   6.419   3.581   0.882 -0.2279  0.1446 -0.1892
 6318SOL     OW25043   0.159   5.906   4.410 -0.2177 -0.2186  0.0597
 6318SOL    HW225044   0.127   5.995   4.394  0.1707  0.0588  0.7838
 6318SOL    HW325045   0.149   5.893   4.504  1.4871 -0.2383  0.2634
 6318SOL    MW425046   0.153   5.916   4.420 -0.7859  0.1120 -0.0806
 6319SOL     OW25047   3.640   2.368   2.847 -0.6836  0.4261  0.3272
 6319SOL    HW225048   3.657   2.400   2.936  1.1056  2.5285 -0.6728
 6319SOL    HW325049   3.716   2.315   2.826  0.2681  2.1456 -0.8323
 6319SOL    MW425050   3.652   2.366   2.856  0.1862  0.3446 -0.5972
 6320SOL     OW25051   6.123   5.702   0.915 -0.2677  0.3510 -0.0004
 6320SOL    HW225052   6.182   5.767   0.954 -1.0314  0.2151  1.4558
 6320SOL    HW325053   6.143   5.621   0.962 -1.5893  0.3047  0.5132
 6320SOL    MW425054   6.134   5.700   0.927 -0.3218 -0.5249 -0.5677
 6321SOL     OW25055   2.490   4.953   2.064 -0.7778  0.3848 -0.2601
 6321SOL    HW225056   2.476   5.030   2.119 -1.6204  0.3565 -0.4177
 6321SOL    HW325057   2.485   4.879   2.125  0.5972  0.4644 -0.0149
 6321SOL    MW425058   2.487   4.954   2.079  0.9267 -0.0550  0.1932
 6322SOL     OW25059   1.410   4.975   2.921 -0.7691 -0.5184  0.5153
 6322SOL    HW225060   1.447   5.061   2.902 -1.7784  0.8215  3.8543
 6322SOL    HW325061   1.328   4.972   2.871 -0.0343 -0.2039 -0.7498
 6322SOL    MW425062   1.404   4.986   2.912 -0.7125 -0.1216  0.1974
 6323SOL     OW25063   4.255   5.927   1.783 -0.0452  0.3659 -0.4719
 6323SOL    HW225064   4.299   5.997   1.830 -0.0581  1.1909 -1.6468
 6323SOL    HW325065   4.165   5.930   1.815 -0.0472  0.9012 -0.5202
 6323SOL    MW425066   4.249   5.937   1.793  0.4825 -0.0148 -0.2186
 6324SOL     OW25067   2.428   3.950   5.104 -0.4269 -0.1723 -0.2163
 6324SOL    HW225068   2.499   4.014   5.110  0.5159 -0.7815 -3.1318
 6324SOL    HW325069   2.350   4.002   5.084  0.0078  0.2207 -0.9391
 6324SOL    MW425070   2.427   3.965   5.102  0.5169  0.5897 -0.3851
 6325SOL     OW25071   3.253   0.954   4.976 -0.4151  0.2796  0.2975
 6325SOL    HW225072   3.220   0.995   4.896 -1.3416 -0.1402  0.4619
 6325SOL    HW325073   3.323   0.896   4.945  0.2267  1.1996 -0.0402
 6325SOL    MW425074   3.258   0.952   4.961 -0.7200 -0.4921  0.1267
 6326SOL     OW25075   6.070   6.291   4.221 -0.1719 -0.2946  0.3341
 6326SOL    HW225076   6.113   6.246   4.293  0.9007  0.2990  0.0902
 6326SOL    HW325077   5.984   6.315   4.255  0.0655 -0.6165  1.1783
 6326SOL    MW425078   6.064   6.288   4.235  0.5534 -0.3950  0.0923
 6327SOL     OW25079   0.840   2.413   5.870  0.6228  0.1117  0.1942
 6327SOL    HW225080   0.811   2.430   5.780 -1.3859 -3.1352  0.0720
 6327SOL    HW325081   0.760   2.415   5.922  1.7776  2.1211  2.0749
 6327SOL    MW425082   0.826   2.416   5.865  0.2155 -0.7174  0.1616
 6328SOL     OW25083   0.174   0.668   4.176  0.3498  0.3808 -0.5352
 6328SOL    HW225084   0.083   0.671   4.146 -0.3948  1.3767  1.5800
 6328SOL    HW325085   0.176   0.594   4.237  0.5192  1.3394  0.6423
 6328SOL    MW425086   0.162   0.659   4.180  0.2542  0.5488 -0.1266
 6329SOL     OW25087   1.183   4.585   4.662 -0.1260  0.5639 -0.3138
 6329SOL    HW225088   1.115   4.550   4.720 -1.0381  2.1973 -0.3241
 6329SOL    HW325089   1.259   4.598   4.719  0.8867 -2.8926 -0.6342
 6329SOL    MW425090   1.184   4.582   4.677 -0.2307  0.1389 -0.3609
 6330SOL     OW25091   2.732   1.087   4.082  0.0449  0.4748 -0.1231
 6330SOL    HW225092   2.729   1.087   4.178 -0.1813 -1.0559 -0.1104
 6330SOL    HW325093   2.659   1.031   4.056  1.2728 -0.7087 -1.1318
 6330SOL    MW425094   2.722   1.079   4.092 -0.6224  0.6069 -0.4887
 6331SOL     OW25095   1.307   1.760   2.755 -0.5245  0.9719  0.5263
 6331SOL    HW225096   1.388   1.735   2.800 -0.0814 -0.9418 -1.2154
 6331SOL    HW325097   1.333   1.830   2.695 -0.5081  1.4594  1.0923
 6331SOL    MW425098   1.321   1.766   2.753  0.2520  0.1735 -0.7513
 6332SOL     OW25099   3.709   5.021   1.863  0.0727 -0.2074  0.1981
 6332SOL    HW225100   3.675   5.111   1.859  0.8042  0.0801  0.1397
 6332SOL    HW325101   3.780   5.026   1.927  1.2909 -0.3259 -1.0954
 6332SOL    MW425102   3.714   5.034   1.871  0.1488 -0.0951 -0.4694
 6333SOL     OW25103   1.792   2.192   3.402  0.4294  0.1065 -0.1644
 6333SOL    HW225104   1.700   2.216   3.408  0.1785 -0.5318 -1.2950
 6333SOL    HW325105   1.815   2.164   3.491 -1.2482 -2.4917 -0.4323
 6333SOL    MW425106   1.783   2.192   3.415  0.6215  0.5432  0.2586
 6334SOL     OW25107   3.153   1.722   2.578  0.0330 -0.9092 -0.3258
 6334SOL    HW225108   3.223   1.696   2.519  0.4925  0.2274 -0.3090
 6334SOL    HW325109   3.128   1.810   2.549 -0.6748 -0.8881  0.3116
 6334SOL    MW425110   3.159   1.730   2.566 -0.1227 -0.0706  0.0945
 6335SOL     OW25111   6.262   1.529   3.277 -0.4905  0.1766  0.0548
 6335SOL    HW225112   6.232   1.518   3.187  0.1517  1.2774 -0.3107
 6335SOL    HW325113   6.269   1.623   3.289 -0.4535  0.0374  1.2264
 6335SOL    MW425114   6.259   1.540   3.267 -0.2447 -0.1920  0.4548
 6336SOL     OW25115   3.855   4.966   1.632 -0.0446  0.4145 -0.2191
 6336SOL    HW225116   3.811   4.986   1.715 -3.6238 -0.1968 -1.7547
 6336SOL    HW325117   3.884   4.876   1.641 -0.5042  0.3199  0.3645
 6336SOL    MW425118   3.853   4.957   1.644 -0.1365 -0.4550  0.0531
 6337SOL     OW25119   3.609   1.115   4.874 -0.2367  0.3347 -0.2344
 6337SOL    HW225120   3.538   1.174   4.898 -1.7444 -1.9505  1.3908
 6337SOL    HW325121   3.628   1.067   4.955  2.4615  0.0929 -0.9104
 6337SOL    MW425122   3.602   1.116   4.888  0.4055  0.7833 -0.1747
 6338SOL     OW25123   2.569   5.082   3.502 -0.1161 -0.3652  0.4251
 6338SOL    HW225124   2.535   5.130   3.579  0.9663  0.7697  0.2397
 6338SOL    HW325125   2.494   5.032   3.470 -0.7674 -0.3542  1.8411
 6338SOL    MW425126   2.554   5.082   3.508 -0.1754 -0.3957 -0.2303
 6339SOL     OW25127   0.903   5.822   2.512  0.0761 -0.2806 -0.2062
 6339SOL    HW225128   0.918   5.767   2.589 -0.6550  0.5931  0.5909
 6339SOL    HW325129   0.852   5.896   2.545 -1.9641 -0.8273 -1.8750
 6339SOL    MW425130   0.898   5.825   2.527  0.1545 -0.6585  0.0087
 6340SOL     OW25131   4.003   3.759   6.321  0.1354  0.3418  0.8019
 6340SOL    HW225132   4.088   3.755   6.276  0.2473 -0.0526  1.0392
 6340SOL    HW325133   3.947   3.698   6.274  0.3677 -0.3674  1.4160
 6340SOL    MW425134   4.007   3.751   6.309 -0.3375  0.5785 -0.2891
 6341SOL     OW25135   1.351   3.738   6.374 -0.1770 -0.2074 -0.6261
 6341SOL    HW225136   1.427   3.792   6.354  0.5476 -2.1239 -3.5155
 6341SOL    HW325137   1.276   3.791   6.347  0.2846  0.6394 -0.2742
 6341SOL    MW425138   1.351   3.752   6.368 -0.0781  0.2638  0.3155
 6342SOL     OW25139   6.356   1.513   1.246 -0.1403  0.3449  0.0061
 6342SOL    HW225140   6.273   1.533   1.203 -0.9463 -2.2832  0.1909
 6342SOL    HW325141   6.423   1.553   1.190 -1.4150  0.9741 -1.1216
 6342SOL    MW425142   6.354   1.521   1.233  0.0067 -0.1618  0.7619
 6343SOL     OW25143   3.242   1.885   1.610  0.0170  0.0220 -0.0897
 6343SOL    HW225144   3.242   1.818   1.542 -0.1954  1.0017 -1.0721
 6343SOL    HW325145   3.153   1.882   1.646 -0.2349  0.3295 -0.6861
 6343SOL    MW425146   3.230   1.876   1.606  0.1216  0.6805  0.4584
 6344SOL     OW25147   5.221   4.887   3.771 -0.0033 -0.5127 -0.1703
 6344SOL    HW225148   5.276   4.896   3.694 -1.7584  3.2495 -1.2379
 6344SOL    HW325149   5.165   4.811   3.752  0.8430 -0.7819 -1.7509
 6344SOL    MW425150   5.221   4.878   3.758  0.2299 -0.1104  0.2398
 6345SOL     OW25151   5.056   3.956   4.632 -0.1169  0.0798  0.7611
 6345SOL    HW225152   5.125   3.941   4.696 -1.3139  0.9817  2.3578
 6345SOL    HW325153   5.065   4.048   4.608 -1.2959  0.4880  1.7388
 6345SOL    MW425154   5.066   3.966   4.637  0.4586 -0.0600 -0.6703
 6346SOL     OW25155   5.984   2.248   3.478  0.2956 -0.1155 -0.6492
 6346SOL    HW225156   5.965   2.308   3.406 -0.1961 -0.8531 -1.1437
 6346SOL    HW325157   5.902   2.243   3.528  0.7829  0.8071  0.2962
 6346SOL    MW425158   5.971   2.255   3.475 -0.2319 -0.1808  0.1579
 6347SOL     OW25159   5.662   1.744   4.417 -0.2165 -0.2868  0.5090
 6347SOL    HW225160   5.627   1.793   4.343 -1.4166 -0.8052  0.7115
 6347SOL    HW325161   5.750   1.719   4.390  0.2994  1.6551  0.2684
 6347SOL    MW425162   5.669   1.747   4.404  0.1354  0.0379  0.2615
 6348SOL     OW25163   5.075   4.150   3.588  0.2245  0.0508  0.0811
 6348SOL    HW225164   5.157   4.199   3.596 -0.4092  1.0860  0.6115
 6348SOL    HW325165   5.077   4.113   3.500 -0.0609  2.6382 -1.1343
 6348SOL    MW425166   5.086   4.152   3.577 -0.0817 -0.2525  0.4169
 6349SOL     OW25167   4.550   5.386   6.158 -0.6607  0.5309  0.1622
 6349SOL    HW225168   4.488   5.345   6.098 -2.1040 -2.4194  3.3206
 6349SOL    HW325169   4.552   5.478   6.131 -3.0759 -0.1062 -2.7696
 6349SOL    MW425170   4.542   5.393   6.146  0.0078 -0.2698 -0.2138
 6350SOL     OW25171   2.425   6.327   5.073  0.0982 -0.0614  0.5701
 6350SOL    HW225172   2.466   6.328   4.987 -0.0308 -0.5624  0.4985
 6350SOL    HW325173   2.368   6.404   5.073 -1.8733 -1.4207 -0.7829
 6350SOL    MW425174   2.423   6.337   5.062 -0.3346  0.3560 -0.1455
 6351SOL     OW25175   3.144   1.309   1.356 -0.6029  0.7565  0.0222
 6351SOL    HW225176   3.163   1.234   1.299  0.2540  2.3273 -1.8679
 6351SOL    HW325177   3.052   1.329   1.339 -0.6315  0.5824 -0.0294
 6351SOL    MW425178   3.134   1.301   1.346 -0.0787 -0.1078 -0.3105
 6352SOL     OW25179   4.604   4.623   1.121 -0.6104 -0.1955 -0.3495
 6352SOL    HW225180   4.621   4.645   1.212 -1.5142  1.9039 -0.6189
 6352SOL    HW325181   4.691   4.621   1.080 -0.3213  1.3884  0.0926
 6352SOL    MW425182   4.618   4.626   1.127  0.4412  0.0633  0.2445
 6353SOL     OW25183   2.971   2.570   3.987 -0.1326 -0.2812 -0.7103
 6353SOL    HW225184   2.970   2.495   3.927  0.0562 -0.3695 -0.6021
 6353SOL    HW325185   3.032   2.545   4.055 -2.2728 -1.3285  0.9670
 6353SOL    MW425186   2.979   2.557   3.988 -0.7431 -0.1496  0.6490
 6354SOL     OW25187   2.717   2.085   1.698 -0.0474 -0.3153  0.0726
 6354SOL    HW225188   2.622   2.076   1.694 -0.2128  1.3569 -1.2289
 6354SOL    HW325189   2.733   2.176   1.670  1.9656 -0.7840 -0.4568
 6354SOL    MW425190   2.707   2.096   1.694 -0.5018  0.5522  0.5965
 6355SOL     OW25191   2.289   6.113   6.044  0.4334  0.0615 -0.1726
 6355SOL    HW225192   2.333   6.108   6.128 -0.2657  0.6043  0.2383
 6355SOL    HW325193   2.197   6.132   6.066 -0.1054 -1.4377 -0.9716
 6355SOL    MW425194   2.282   6.115   6.058 -0.2551 -0.3237 -0.2364
 6356SOL     OW25195   1.974   6.117   6.311  0.1169 -0.1320 -0.2582
 6356SOL    HW225196   1.965   6.109   6.406  1.1441 -1.6746 -0.2575
 6356SOL    HW325197   1.887   6.096   6.277 -0.5055  1.3413  0.3547
 6356SOL    MW425198   1.962   6.113   6.319  0.8149  0.0525  0.3394
 6357SOL     OW25199   4.500   4.013   1.031 -0.0662 -0.1139 -0.1827
 6357SOL    HW225200   4.408   3.986   1.033  0.0958 -0.6851 -0.3290
 6357SOL    HW325201   4.547   3.935   1.003  0.3214  0.5719 -1.5231
 6357SOL    MW425202   4.494   3.999   1.028  0.0078 -0.5904  0.5360
 6358SOL     OW25203   1.421   5.887   0.142  0.1218 -0.3464 -0.0120
 6358SOL    HW225204   1.454   5.945   0.073  1.5397 -0.5100  0.4896
 6358SOL    HW325205   1.349   5.935   0.182  1.7767  1.4740  0.9304
 6358SOL    MW425206   1.416   5.901   0.138  0.3820 -0.0420  0.2863
 6359SOL     OW25207   1.433   3.748   3.115 -0.7160  0.0015  0.3912
 6359SOL    HW225208   1.349   3.796   3.115  0.0223  1.3678  1.0392
 6359SOL    HW325209   1.412   3.665   3.157 -1.8389  0.1631  0.1976
 6359SOL    MW425210   1.419   3.744   3.121  0.6284 -0.3490 -0.1995
 6360SOL     OW25211   0.056   4.159   4.520 -0.2281 -0.0663 -0.4309
 6360SOL    HW225212  -0.017   4.216   4.544  0.7976  0.3709  1.9463
 6360SOL    HW325213   0.134   4.213   4.535  0.6499 -0.6805 -2.4511
 6360SOL    MW425214   0.057   4.174   4.525 -0.0815 -0.4965  0.2357
 6361SOL     OW25215   3.870   5.736   4.549  0.1822  0.2514  0.4257
 6361SOL    HW225216   3.880   5.738   4.454  1.2861  0.9127  0.5484
 6361SOL    HW325217   3.839   5.823   4.572  0.9817  0.4535  0.7740
 6361SOL    MW425218   3.867   5.747   4.540 -0.2559  0.1386 -0.5994
 6362SOL     OW25219   6.243   6.186   5.790  0.2152  0.0216  0.1085
 6362SOL    HW225220   6.326   6.180   5.742  0.8488  0.9912  1.0268
 6362SOL    HW325221   6.267   6.169   5.881 -0.8947 -1.3641  0.1808
 6362SOL    MW425222   6.257   6.183   5.795  0.0828  0.0653  0.2892
 6363SOL     OW25223   0.847   0.324   5.473 -0.2419 -0.8474  0.7614
 6363SOL    HW225224   0.810   0.411   5.459  3.2808  0.7318 -0.0428
 6363SOL    HW325225   0.815   0.272   5.399  0.6130  0.9840 -0.9815
 6363SOL    MW425226   0.838   0.328   5.461 -0.0545 -0.3915 -0.3002
 6364SOL     OW25227   6.144   2.840   3.731  0.1124 -0.1312 -0.0056
 6364SOL    HW225228   6.100   2.764   3.692 -1.6569  0.9705 -0.3057
 6364SOL    HW325229   6.164   2.813   3.821  2.1720 -1.9160 -0.9217
 6364SOL    MW425230   6.141   2.827   3.738  0.0325  0.7774  0.8129
 6365SOL     OW25231   2.460   0.154   1.187  0.2962  0.1706 -0.2222
 6365SOL    HW225232   2.421   0.155   1.275 -3.4388  0.6540 -1.6715
 6365SOL    HW325233   2.494   0.242   1.175  0.9282  0.0713  0.7495
 6365SOL    MW425234   2.459   0.166   1.197  0.2155 -0.0895  0.3430
 6366SOL     OW25235   1.347   2.697   4.179 -0.0027 -0.2902 -0.5308
 6366SOL    HW225236   1.282   2.680   4.111 -0.8437 -0.1652  0.2177
 6366SOL    HW325237   1.312   2.653   4.257  0.1037  0.9487  0.2432
 6366SOL    MW425238   1.334   2.689   4.180  0.0879  0.0248  0.2155
 6367SOL     OW25239   2.848   5.465   4.427  0.4744 -0.1425  0.2556
 6367SOL    HW225240   2.788   5.530   4.391  0.2598 -0.5538 -0.1363
 6367SOL    HW325241   2.869   5.408   4.354  2.1961  0.6087  0.1063
 6367SOL    MW425242   2.843   5.466   4.413 -0.4015  0.3534  0.1776
 6368SOL     OW25243   0.441   1.658   6.295  0.0503  0.0034  0.0042
 6368SOL    HW225244   0.488   1.697   6.221 -1.3411 -0.4995 -1.2098
 6368SOL    HW325245   0.417   1.733   6.350 -1.7635  0.8499 -1.7947
 6368SOL    MW425246   0.444   1.673   6.292  0.3477  0.3274 -0.2259
 6369SOL     OW25247   0.806   3.258   5.194  0.1424 -0.3463 -0.7907
 6369SOL    HW225248   0.728   3.225   5.238  0.0549  0.9934  0.1286
 6369SOL    HW325249   0.774   3.333   5.143  0.9759  0.8916  0.4451
 6369SOL    MW425250   0.791   3.264   5.193 -0.7001  0.7240 -0.6645
 6370SOL     OW25251   0.777   4.156   2.344  0.1030 -0.4456  0.1415
 6370SOL    HW225252   0.841   4.094   2.379 -0.8387 -2.2303 -1.1439
 6370SOL    HW325253   0.697   4.139   2.393  0.1826  0.7844  0.7515
 6370SOL    MW425254   0.775   4.146   2.355 -0.7102  0.2419  0.0683
 6371SOL     OW25255   0.534   1.635   5.632  0.0090  0.1774 -0.0504
 6371SOL    HW225256   0.522   1.554   5.682 -0.6958 -0.3090 -0.9769
 6371SOL    HW325257   0.480   1.700   5.678 -0.1641 -0.1161  0.1627
 6371SOL    MW425258   0.525   1.633   5.645 -0.0593  0.4705  0.2809
 6372SOL     OW25259   1.269   6.408   5.010  0.4359 -0.4837  0.0795
 6372SOL    HW225260   1.364   6.401   5.019  0.5716 -0.5737 -1.1702
 6372SOL    HW325261   1.255   6.415   4.915 -0.9095 -1.9465  0.1352
 6372SOL    MW425262   1.280   6.408   4.998 -0.0002 -0.1755 -0.2629
 6373SOL     OW25263   1.148   2.718   3.973 -0.2006 -0.4464 -0.1610
 6373SOL    HW225264   1.163   2.662   3.896  2.3283  0.8964 -0.7703
 6373SOL    HW325265   1.095   2.664   4.031  0.4796 -2.7599 -1.5103
 6373SOL    MW425266   1.143   2.703   3.970 -0.2624 -0.4369 -0.4351
 6374SOL     OW25267   5.218   3.816   5.249 -0.0879 -0.0738  0.2371
 6374SOL    HW225268   5.295   3.771   5.282 -0.4024 -0.8022  0.0079
 6374SOL    HW325269   5.159   3.746   5.221 -0.1384  0.4887 -1.1714
 6374SOL    MW425270   5.220   3.801   5.249  0.2614  0.0786  0.1513
 6375SOL     OW25271   1.528   0.855   5.531 -0.3276 -0.4652  0.8868
 6375SOL    HW225272   1.508   0.937   5.485  1.5294 -0.2933  0.3216
 6375SOL    HW325273   1.442   0.814   5.545 -1.1007  0.4085 -0.9858
 6375SOL    MW425274   1.514   0.860   5.527 -0.3067  0.2036 -0.3298
 6376SOL     OW25275   2.366   1.404   5.887  0.0249  0.6845 -0.0858
 6376SOL    HW225276   2.360   1.378   5.979 -0.3175 -0.9512 -0.5268
 6376SOL    HW325277   2.447   1.455   5.881  1.1762 -0.9436  0.7710
 6376SOL    MW425278   2.376   1.407   5.898  0.5632 -0.1223  0.1932
 6377SOL     OW25279   2.139   3.841   4.617  0.3916  0.5085 -0.1898
 6377SOL    HW225280   2.123   3.903   4.688 -0.5959 -0.6640  0.6383
 6377SOL    HW325281   2.209   3.784   4.650 -0.6749 -0.5942  0.2410
 6377SOL    MW425282   2.146   3.842   4.631 -0.1299 -0.0888  0.3795
 6378SOL     OW25283   3.647   0.780   2.805 -0.2952  0.4303  0.8023
 6378SOL    HW225284   3.594   0.860   2.810  1.4204  1.6750  0.1325
 6378SOL    HW325285   3.675   0.775   2.714 -0.4099 -0.9980  0.8224
 6378SOL    MW425286   3.644   0.790   2.794 -0.1063 -0.4489 -0.4800
 6379SOL     OW25287   3.085   3.492   3.082 -0.4093 -0.4504 -0.0569
 6379SOL    HW225288   2.993   3.515   3.066 -1.0054 -2.1476  0.7568
 6379SOL    HW325289   3.117   3.563   3.138 -1.4498 -0.2158  0.2775
 6379SOL    MW425290   3.077   3.505   3.087  0.5094 -0.6599  0.5700
 6380SOL     OW25291   0.921   2.450   5.304  0.2829 -0.2279  0.6128
 6380SOL    HW225292   0.889   2.388   5.370  3.2564 -1.1761  1.3023
 6380SOL    HW325293   0.935   2.531   5.353 -0.2552 -0.0677  0.5015
 6380SOL    MW425294   0.919   2.452   5.319 -0.0991  0.2848  0.2280
 6381SOL     OW25295   2.908   4.394   4.996  0.0249 -0.2613 -0.2958
 6381SOL    HW225296   2.832   4.379   5.052  1.2061  0.4109  1.6007
 6381SOL    HW325297   2.973   4.331   5.027  0.9626  0.6210 -0.4165
 6381SOL    MW425298   2.907   4.384   5.007 -0.5691  0.5922 -0.5758
 6382SOL     OW25299   5.296   5.835   4.319  0.1874  0.3255  0.3279
 6382SOL    HW225300   5.222   5.894   4.332 -0.7847 -1.0611  1.3192
 6382SOL    HW325301   5.358   5.858   4.388 -1.2178 -1.3061  2.2339
 6382SOL    MW425302   5.294   5.846   4.330 -0.2402 -0.2226 -0.0765
 6383SOL     OW25303   1.997   4.550   5.462  0.0829 -0.2523 -0.1664
 6383SOL    HW225304   1.958   4.539   5.549 -1.2467 -1.8864 -0.8976
 6383SOL    HW325305   1.956   4.481   5.409  0.6598  0.8646 -2.1627
 6383SOL    MW425306   1.986   4.539   5.467 -0.4971 -0.3874 -0.0578
 6384SOL     OW25307   3.864   0.797   1.122 -0.1393 -0.2574  0.1440
 6384SOL    HW225308   3.803   0.869   1.136 -0.6359 -0.5755 -0.3361
 6384SOL    HW325309   3.810   0.725   1.088  0.5727 -0.3634 -0.8210
 6384SOL    MW425310   3.849   0.797   1.119 -0.8338  0.1761  0.2739
 6385SOL     OW25311   6.290   3.132   3.756 -0.3630 -0.0800 -0.4595
 6385SOL    HW225312   6.366   3.176   3.796 -0.8262  1.1907 -0.9162
 6385SOL    HW325313   6.224   3.201   3.749 -0.6784 -0.5194 -2.4215
 6385SOL    MW425314   6.291   3.147   3.761 -0.1886 -0.1935 -0.1433
 6386SOL     OW25315   3.427   1.003   5.954  0.4020 -0.3362 -0.6245
 6386SOL    HW225316   3.480   0.946   5.899  2.2753  0.1012  0.6421
 6386SOL    HW325317   3.490   1.055   6.004 -1.2229  0.5298  0.6485
 6386SOL    MW425318   3.442   1.003   5.953  0.3617  0.6190 -0.8601
 6387SOL     OW25319   1.097   4.340   3.447  0.5303  0.3190 -0.8575
 6387SOL    HW225320   1.096   4.364   3.540  0.3937 -0.1450 -0.7337
 6387SOL    HW325321   1.178   4.289   3.437  0.7270  0.6737 -1.0744
 6387SOL    MW425322   1.108   4.336   3.458 -0.2883 -0.4314  0.1736
 6388SOL     OW25323   1.808   1.155   3.177  0.3476 -0.6464 -0.0479
 6388SOL    HW225324   1.774   1.191   3.259 -0.7433 -1.2029 -0.2292
 6388SOL    HW325325   1.842   1.231   3.130  0.3513 -0.2203  0.6299
 6388SOL    MW425326   1.808   1.170   3.182  0.0148  0.6804 -0.2228
 6389SOL     OW25327   0.621   2.096   5.895 -0.2681 -0.0068  0.1442
 6389SOL    HW225328   0.593   2.135   5.812 -0.0906  1.4438  0.7440
 6389SOL    HW325329   0.540   2.079   5.942 -0.3670 -0.7876 -0.2858
 6389SOL    MW425330   0.607   2.099   5.890  0.0679 -0.5910 -0.0206
 6390SOL     OW25331   1.195   4.472   5.810 -0.6036  0.2584  0.2524
 6390SOL    HW225332   1.261   4.403   5.814  0.4092  1.2218  0.4249
 6390SOL    HW325333   1.222   4.535   5.876 -2.6250 -0.0995  1.5079
 6390SOL    MW425334   1.207   4.471   5.819  0.1555  0.3378 -0.2543
 6391SOL     OW25335   3.477   6.291   3.916 -0.7309 -0.0813  0.2553
 6391SOL    HW225336   3.567   6.256   3.917 -0.5974  0.1126 -1.4285
 6391SOL    HW325337   3.482   6.372   3.966 -0.9638 -2.1462  3.9719
 6391SOL    MW425338   3.490   6.297   3.922 -0.2682 -0.2963  0.4382
 6392SOL     OW25339   2.025   1.848   2.916 -0.0600  0.1997 -0.1367
 6392SOL    HW225340   2.097   1.841   2.978 -0.3396 -1.7625  0.0343
 6392SOL    HW325341   1.951   1.807   2.960 -1.2764  2.0318 -0.3758
 6392SOL    MW425342   2.025   1.842   2.930  0.2827  0.2480 -0.9635
 6393SOL     OW25343   4.971   2.906   0.261 -0.4734 -0.1775  0.0201
 6393SOL    HW225344   5.026   2.832   0.235  0.8981  1.1663 -1.0846
 6393SOL    HW325345   5.003   2.930   0.348  0.6452  0.4935 -0.5468
 6393SOL    MW425346   4.982   2.899   0.269  0.3960  0.2520  0.6402
 6394SOL     OW25347   4.783   4.518   2.887  0.0242 -0.1901  0.0806
 6394SOL    HW225348   4.837   4.451   2.929  1.0498  1.2329  1.1803
 6394SOL    HW325349   4.843   4.561   2.825 -0.6546 -0.3753 -0.7192
 6394SOL    MW425350   4.798   4.515   2.884  0.3924  0.5861 -0.0446
 6395SOL     OW25351   1.270   5.632   1.095 -0.2639  0.0926  0.1656
 6395SOL    HW225352   1.354   5.662   1.129 -1.1995 -0.0257  2.8016
 6395SOL    HW325353   1.232   5.580   1.166 -2.9075  0.8192 -0.5947
 6395SOL    MW425354   1.276   5.629   1.109 -0.9169 -0.4231  0.5476
 6396SOL     OW25355   5.430   4.382   5.150  0.6136  0.1506 -0.3191
 6396SOL    HW225356   5.500   4.442   5.175  0.2007 -0.3743  2.4825
 6396SOL    HW325357   5.350   4.425   5.180  0.1337 -0.9592  0.0440
 6396SOL    MW425358   5.429   4.396   5.157 -0.0619 -0.7364  0.3308
 6397SOL     OW25359   1.443   4.139   2.153  0.5332  0.1905 -0.6200
 6397SOL    HW225360   1.524   4.117   2.198  0.4721 -0.9032 -1.0320
 6397SOL    HW325361   1.440   4.081   2.077 -1.0418 -0.3943 -0.1616
 6397SOL    MW425362   1.453   4.129   2.149  0.3640  0.7034 -0.2813
 6398SOL     OW25363   6.283   1.288   1.035 -0.1862  0.1669  0.0703
 6398SOL    HW225364   6.321   1.369   1.070  1.6601 -0.3016 -0.7226
 6398SOL    HW325365   6.241   1.314   0.953  0.6084  0.2876 -0.3007
 6398SOL    MW425366   6.282   1.302   1.029  0.4945  0.0460 -0.4543
 6399SOL     OW25367   5.010   2.050   3.310  0.5937  0.6797 -0.4957
 6399SOL    HW225368   5.024   2.082   3.221  0.4186 -1.4403 -1.3462
 6399SOL    HW325369   4.915   2.055   3.322  0.5488  0.3141 -0.6938
 6399SOL    MW425370   4.999   2.055   3.300  0.1262 -0.0442  0.0504
 6400SOL     OW25371   3.136   5.870   5.293 -0.0938 -0.8470 -0.6952
 6400SOL    HW225372   3.076   5.857   5.220 -0.7437 -1.6590 -0.0433
 6400SOL    HW325373   3.204   5.804   5.281  0.1767 -0.5238 -0.9415
 6400SOL    MW425374   3.137   5.860   5.282 -0.0268 -0.3243 -0.2520
 6401SOL     OW25375   5.178   3.118   1.854 -0.2891  0.0198 -0.1801
 6401SOL    HW225376   5.138   3.041   1.815 -0.4162  0.1172 -0.2434
 6401SOL    HW325377   5.239   3.151   1.787 -1.1036  0.6583 -0.6257
 6401SOL    MW425378   5.181   3.112   1.840 -0.1553  0.0142  0.0355
 6402SOL     OW25379   0.347   1.015   1.770  0.6773 -0.4214  0.7465
 6402SOL    HW225380   0.263   0.997   1.813 -0.0189  0.1768 -0.3237
 6402SOL    HW325381   0.334   0.988   1.680  0.0448  3.6864 -0.6276
 6402SOL    MW425382   0.334   1.009   1.764 -0.0174  0.9190 -0.1979
 6403SOL     OW25383   4.369   4.729   0.145  0.0485  0.4975  0.1795
 6403SOL    HW225384   4.429   4.772   0.084  2.1398  0.3388  1.9855
 6403SOL    HW325385   4.304   4.687   0.090  3.3562 -2.0339 -2.1786
 6403SOL    MW425386   4.369   4.729   0.130  0.8404  0.1890 -0.0530
 6404SOL     OW25387   4.303   0.232   5.055  0.3492  0.4833  0.4875
 6404SOL    HW225388   4.330   0.315   5.017  0.0673  0.8195  1.0057
 6404SOL    HW325389   4.322   0.241   5.148 -0.7021  0.3961  0.7256
 6404SOL    MW425390   4.309   0.244   5.062  0.1247 -0.4236  0.2134
 6405SOL     OW25391   3.703   4.676   2.658  0.5486  0.1085  0.3338
 6405SOL    HW225392   3.634   4.681   2.724  0.6507  1.5673  0.3624
 6405SOL    HW325393   3.676   4.604   2.600 -1.0133  0.6678  0.3302
 6405SOL    MW425394   3.690   4.667   2.659 -0.3588  0.4786 -0.4189
 6406SOL     OW25395   0.066   0.292   3.681 -0.3497  0.2626 -0.0334
 6406SOL    HW225396  -0.018   0.265   3.718  0.9903 -1.6877  1.8034
 6406SOL    HW325397   0.102   0.354   3.745  0.7853 -1.0329  0.6253
 6406SOL    MW425398   0.060   0.297   3.694 -0.4847 -0.2268  0.6060
 6407SOL     OW25399   2.883   1.813   5.939  0.0093  0.3402 -0.2400
 6407SOL    HW225400   2.809   1.806   6.000  0.0077 -0.2873 -0.3047
 6407SOL    HW325401   2.912   1.904   5.947  0.1436  0.2101  0.8532
 6407SOL    MW425402   2.877   1.824   5.948 -0.0883 -0.3585 -0.1621
 6408SOL     OW25403   5.033   2.316   3.515  0.7116 -0.0588  0.1821
 6408SOL    HW225404   4.939   2.331   3.504  0.4968 -0.4082  1.3984
 6408SOL    HW325405   5.053   2.245   3.454  0.0300 -0.4588  0.4080
 6408SOL    MW425406   5.023   2.308   3.506 -0.4079  0.6161  0.7276
 6409SOL     OW25407   3.917   0.019   1.899 -0.4883 -0.0467 -0.1145
 6409SOL    HW225408   3.957   0.083   1.840 -0.0903 -1.9613 -2.0371
 6409SOL    HW325409   3.884   0.071   1.972  0.0688  2.2937 -1.4394
 6409SOL    MW425410   3.918   0.034   1.901  0.3910  0.3427 -0.5963
 6410SOL     OW25411   2.887   4.867   1.863  0.2109 -0.4281 -0.1887
 6410SOL    HW225412   2.819   4.934   1.859 -0.0891 -0.7926 -2.0691
 6410SOL    HW325413   2.965   4.910   1.828 -0.0078 -1.0621 -1.4940
 6410SOL    MW425414   2.888   4.882   1.858 -0.2140  1.0030 -0.1967
 6411SOL     OW25415   4.745   0.579   4.217  0.1465 -0.3672 -0.6687
 6411SOL    HW225416   4.762   0.555   4.309 -0.8533  0.5556 -0.2319
 6411SOL    HW325417   4.831   0.572   4.175  1.0063  0.9618  0.7553
 6411SOL    MW425418   4.759   0.575   4.224 -0.1526  0.7067 -0.2860
 6412SOL     OW25419   5.084   3.815   2.599  0.9956  0.0680 -0.4820
 6412SOL    HW225420   5.089   3.909   2.617 -1.4639  0.4003 -1.1640
 6412SOL    HW325421   5.090   3.774   2.686  1.2922  0.8860 -0.1028
 6412SOL    MW425422   5.086   3.822   2.613  0.5820 -0.4670  0.5706
 6413SOL     OW25423   3.946   3.947   2.676 -0.0287 -0.1918 -0.2492
 6413SOL    HW225424   3.932   3.859   2.641 -0.0931 -0.0670 -0.5414
 6413SOL    HW325425   3.864   3.968   2.722  0.1701 -0.4768  0.2466
 6413SOL    MW425426   3.933   3.938   2.678 -0.0075  0.3368 -0.2635
 6414SOL     OW25427   6.037   1.605   6.108  0.7585  0.1134  0.2935
 6414SOL    HW225428   5.977   1.674   6.136  1.7971  1.1311  0.1003
 6414SOL    HW325429   6.119   1.651   6.088  0.7064 -0.7664 -2.5027
 6414SOL    MW425430   6.040   1.620   6.109  0.1741  1.2594 -0.2138
 6415SOL     OW25431   0.429   5.304   3.889 -0.4333  0.2295 -0.0879
 6415SOL    HW225432   0.410   5.397   3.872 -2.2458 -0.2371 -0.8235
 6415SOL    HW325433   0.382   5.284   3.970 -2.0915 -0.6052 -1.2042
 6415SOL    MW425434   0.421   5.314   3.897  0.3134 -0.1097  0.2200
 6416SOL     OW25435   4.699   0.615   0.906  0.2472  0.6793  0.3315
 6416SOL    HW225436   4.755   0.646   0.976  0.9220  0.9202 -0.3036
 6416SOL    HW325437   4.641   0.550   0.947  0.4812  0.9874  1.1430
 6416SOL    MW425438   4.698   0.610   0.920 -0.3197 -0.6390 -0.4634
 6417SOL     OW25439   2.525   1.951   6.140  0.1837 -0.5183 -0.0418
 6417SOL    HW225440   2.557   2.030   6.096 -2.6947  1.9501  1.8843
 6417SOL    HW325441   2.441   1.932   6.098  0.0004 -1.4500  0.7136
 6417SOL    MW425442   2.518   1.959   6.129 -0.1302  0.4063 -0.2140
 6418SOL     OW25443   5.497   2.545   3.116 -0.4398 -0.0326  0.7678
 6418SOL    HW225444   5.447   2.465   3.102 -0.4122  0.1320 -0.3850
 6418SOL    HW325445   5.430   2.611   3.136 -0.4434 -0.3723  1.9643
 6418SOL    MW425446   5.481   2.544   3.117 -0.0412  0.7057 -0.2152
 6419SOL     OW25447   1.831   1.407   1.918  0.6965 -0.5928  0.0582
 6419SOL    HW225448   1.873   1.377   1.998 -0.3579 -1.8424  0.1704
 6419SOL    HW325449   1.737   1.399   1.936  0.4407 -0.3881 -1.1194
 6419SOL    MW425450   1.824   1.402   1.931 -0.2568 -0.2940 -0.4980
 6420SOL     OW25451   4.281   0.217   2.879  0.5001  0.4993  0.9383
 6420SOL    HW225452   4.192   0.195   2.852  0.7080  0.7178  0.0380
 6420SOL    HW325453   4.285   0.192   2.972  0.2012 -1.6663  0.4375
 6420SOL    MW425454   4.270   0.211   2.888 -0.3933 -0.1809  0.0224
 6421SOL     OW25455   6.140   1.623   0.749  0.0145  0.2228  0.3689
 6421SOL    HW225456   6.063   1.617   0.693 -1.0525  2.0658  1.5376
 6421SOL    HW325457   6.175   1.534   0.751 -1.9427 -0.6245 -0.3825
 6421SOL    MW425458   6.135   1.611   0.742 -0.0317  0.2012  0.1362
 6422SOL     OW25459   5.658   3.874   3.058  0.0618  0.2444 -0.3650
 6422SOL    HW225460   5.651   3.813   3.131 -0.6066 -1.7623 -2.0120
 6422SOL    HW325461   5.611   3.952   3.087 -1.2768 -0.9650  0.8758
 6422SOL    MW425462   5.651   3.877   3.072  0.2817 -0.0855 -0.1152
 6423SOL     OW25463   0.667   5.462   1.272  0.2562 -0.0481  0.4053
 6423SOL    HW225464   0.757   5.482   1.246  0.6890 -2.3032 -0.0433
 6423SOL    HW325465   0.620   5.451   1.189  0.2429 -1.5112  0.5774
 6423SOL    MW425466   0.673   5.463   1.258  0.1227  0.2300 -0.1196
 6424SOL     OW25467   6.012   0.077   3.186  0.0934  0.1180 -0.2886
 6424SOL    HW225468   5.934   0.026   3.207 -0.5833  1.2088 -0.0916
 6424SOL    HW325469   6.023   0.136   3.261  3.1507 -2.3065  1.4568
 6424SOL    MW425470   6.003   0.078   3.199  0.0728  0.1131  0.1144
 6425SOL     OW25471   4.879   2.832   1.544  0.2587 -0.1667 -0.0657
 6425SOL    HW225472   4.805   2.892   1.536  0.5032  0.1112 -0.2696
 6425SOL    HW325473   4.840   2.744   1.543 -0.0624 -0.0222 -0.2310
 6425SOL    MW425474   4.864   2.828   1.543 -0.0592 -0.2061 -0.0049
 6426SOL     OW25475   1.973   5.665   5.700  0.5236 -0.1947 -0.6107
 6426SOL    HW225476   1.975   5.669   5.795  2.2575  1.1645 -0.6614
 6426SOL    HW325477   2.018   5.583   5.678 -0.8169 -1.0552 -0.2825
 6426SOL    MW425478   1.979   5.655   5.709 -0.0396  0.5462  0.1259
 6427SOL     OW25479   0.951   3.473   5.601 -0.4815 -0.2855 -0.2833
 6427SOL    HW225480   0.929   3.525   5.524 -2.5721  1.3903  1.3406
 6427SOL    HW325481   1.034   3.509   5.632 -1.6614  1.8959  0.5415
 6427SOL    MW425482   0.959   3.484   5.595 -0.5222  0.5920  0.2619
 6428SOL     OW25483   1.716   1.845   1.774 -0.3413  0.5648 -0.2449
 6428SOL    HW225484   1.734   1.805   1.859 -0.5138  1.0869  0.0397
 6428SOL    HW325485   1.732   1.938   1.788 -2.4955  0.9726 -0.1847
 6428SOL    MW425486   1.720   1.852   1.787 -0.2507  0.2214 -0.3359
 6429SOL     OW25487   4.929   2.257   0.953  0.0414 -0.0398 -0.2044
 6429SOL    HW225488   5.024   2.270   0.958  0.0267 -0.4167  2.5141
 6429SOL    HW325489   4.896   2.336   0.911  1.4679  0.4973 -0.3684
 6429SOL    MW425490   4.937   2.269   0.948  0.1268  0.2835 -0.0046
 6430SOL     OW25491   2.800   5.091   2.141  0.1666 -0.2663  0.5574
 6430SOL    HW225492   2.860   5.128   2.076  0.7137 -0.2354  1.0783
 6430SOL    HW325493   2.718   5.078   2.092  0.9403 -1.4590 -0.4948
 6430SOL    MW425494   2.797   5.094   2.126  0.0642 -0.5380  0.8705
 6431SOL     OW25495   6.235   5.355   5.354 -0.1537  0.7193  0.0327
 6431SOL    HW225496   6.161   5.414   5.344  0.3242  1.1493 -1.1701
 6431SOL    HW325497   6.312   5.412   5.355  0.2126  0.2404  0.7179
 6431SOL    MW425498   6.236   5.370   5.353 -0.8216  0.0767 -0.5965
 6432SOL     OW25499   0.636   1.089   1.967 -0.2212  0.1815  0.0069
 6432SOL    HW225500   0.547   1.117   1.988 -0.3759 -0.1114 -0.2462
 6432SOL    HW325501   0.666   1.045   2.047  0.1475  1.3331  0.5260
 6432SOL    MW425502   0.628   1.087   1.981  0.4869  0.2794 -0.6886
 6433SOL     OW25503   5.281   5.439   4.872 -0.7274 -0.2449  0.3875
 6433SOL    HW225504   5.205   5.494   4.855  2.2353  4.8538  1.4025
 6433SOL    HW325505   5.305   5.403   4.787 -2.6551  0.2652 -0.4175
 6433SOL    MW425506   5.274   5.441   4.859 -0.1386 -0.1960  0.2466
 6434SOL     OW25507   6.017   2.641   5.509  0.3296 -0.3111 -0.0289
 6434SOL    HW225508   5.982   2.554   5.491  0.4113 -0.2817 -0.3324
 6434SOL    HW325509   6.105   2.625   5.543  0.6366 -0.3174 -0.8114
 6434SOL    MW425510   6.024   2.628   5.511 -0.3806 -0.4645  0.1618
 6435SOL     OW25511   0.976   1.927   0.109 -0.0984  0.2620  0.2567
 6435SOL    HW225512   1.065   1.892   0.119  0.4840  1.8286  0.8165
 6435SOL    HW325513   0.976   2.008   0.160 -1.1802  1.4271 -1.4846
 6435SOL    MW425514   0.988   1.933   0.117 -0.6364  0.5692 -0.9424
 6436SOL     OW25515   3.903   2.476   5.263 -0.6096 -0.0605 -0.2320
 6436SOL    HW225516   3.896   2.405   5.327 -0.6621  1.5711  1.6806
 6436SOL    HW325517   3.970   2.534   5.298  0.7187 -0.0018 -2.6617
 6436SOL    MW425518   3.911   2.475   5.276 -0.6842 -0.2119 -0.5033
 6437SOL     OW25519   4.810   3.270   4.456 -0.0496 -0.4978 -0.1702
 6437SOL    HW225520   4.864   3.192   4.461 -0.1846 -0.6059 -0.3681
 6437SOL    HW325521   4.787   3.277   4.363  3.2789  2.0215 -1.0136
 6437SOL    MW425522   4.814   3.261   4.444 -0.0580 -0.1677  0.2173
 6438SOL     OW25523   0.973   5.077   0.003  0.6007  0.1787 -0.4878
 6438SOL    HW225524   0.986   5.001  -0.053  2.1549 -0.1760  0.3043
 6438SOL    HW325525   0.885   5.064   0.041  0.9088 -1.3314 -0.2219
 6438SOL    MW425526   0.963   5.065   0.001 -0.0267  0.1966 -0.0125
 6439SOL     OW25527   2.374   1.542   5.503 -0.1345  0.3296  0.7073
 6439SOL    HW225528   2.435   1.473   5.478 -1.4917 -0.2084 -1.4223
 6439SOL    HW325529   2.424   1.623   5.495  1.2239 -0.2876  2.3966
 6439SOL    MW425530   2.388   1.543   5.499 -0.1035  0.4249  0.1440
 6440SOL     OW25531   5.725   3.734   1.535  0.0113 -0.4444 -0.2748
 6440SOL    HW225532   5.716   3.827   1.516 -0.5274 -0.4696 -0.1533
 6440SOL    HW325533   5.742   3.730   1.629 -0.3127 -0.4884 -0.2182
 6440SOL    MW425534   5.726   3.745   1.545 -0.2472 -0.0505  0.2527
 6441SOL     OW25535   1.392   1.930   1.166  0.0760 -0.0679 -0.3522
 6441SOL    HW225536   1.399   1.933   1.070  1.0027 -0.5133 -0.3077
 6441SOL    HW325537   1.476   1.962   1.197  0.1284 -0.8168  0.3019
 6441SOL    MW425538   1.404   1.935   1.157 -0.3336  0.5560  0.0479
 6442SOL     OW25539   0.252   4.390   3.760 -0.5101  0.2112  0.2058
 6442SOL    HW225540   0.220   4.332   3.691 -0.1830 -0.4232  0.5795
 6442SOL    HW325541   0.176   4.444   3.783 -0.9068 -0.2749  0.0613
 6442SOL    MW425542   0.238   4.390   3.754 -0.0519 -0.1187 -0.4199
 6443SOL     OW25543   3.781   2.038   4.772  0.0043  0.1019 -0.4082
 6443SOL    HW225544   3.853   1.997   4.724 -0.2285 -1.1092  0.2161
 6443SOL    HW325545   3.801   2.131   4.771  2.0093 -0.2517  0.3859
 6443SOL    MW425546   3.793   2.045   4.766  0.4971  0.4458 -0.0015
 6444SOL     OW25547   0.232   2.481   3.225 -0.1306 -0.8026  0.2557
 6444SOL    HW225548   0.309   2.427   3.242  0.2824 -0.6225 -0.9277
 6444SOL    HW325549   0.159   2.431   3.261  0.5721 -0.7732  1.8079
 6444SOL    MW425550   0.233   2.467   3.232 -0.0258 -0.3669 -0.1806
 6445SOL     OW25551   0.720   5.596   5.004  0.3865  0.0313 -0.0845
 6445SOL    HW225552   0.729   5.692   5.000  0.2972  0.0081 -1.3732
 6445SOL    HW325553   0.809   5.563   4.989  0.1898 -0.0793 -1.1271
 6445SOL    MW425554   0.733   5.605   5.001  0.2490  0.1132 -0.9170
 6446SOL     OW25555   1.546   0.479   5.502  0.5344 -0.3533  0.0774
 6446SOL    HW225556   1.474   0.482   5.440  1.3948  0.2756 -0.9173
 6446SOL    HW325557   1.549   0.388   5.531  0.7658 -0.9084 -1.5863
 6446SOL    MW425558   1.537   0.467   5.498  0.4259 -0.1123 -0.2123
 6447SOL     OW25559   5.541   2.537   1.318  0.2434 -1.0249 -0.0189
 6447SOL    HW225560   5.532   2.479   1.243 -0.7710 -0.6678 -0.1950
 6447SOL    HW325561   5.497   2.491   1.390 -1.5139 -0.0602 -0.4180
 6447SOL    MW425562   5.534   2.523   1.318 -0.3848 -0.4187 -0.4178
 6448SOL     OW25563   4.545   4.095   4.468 -0.1882 -0.1653 -0.3252
 6448SOL    HW225564   4.579   4.017   4.424 -1.4387  0.6182 -2.8749
 6448SOL    HW325565   4.460   4.068   4.501 -0.0781 -0.2073 -0.0703
 6448SOL    MW425566   4.539   4.081   4.467  0.5091  0.5922  0.4462
 6449SOL     OW25567   1.075   4.764   0.729 -0.0021 -0.4248 -0.3635
 6449SOL    HW225568   1.151   4.795   0.679 -0.0959 -0.1828 -0.3562
 6449SOL    HW325569   1.113   4.713   0.801  0.1663 -0.1088 -0.2244
 6449SOL    MW425570   1.090   4.761   0.732 -0.4825  0.4145 -0.2051
 6450SOL     OW25571   1.662   0.796   3.320  0.3137  0.1924 -0.2694
 6450SOL    HW225572   1.704   0.762   3.240  0.1582 -0.6031 -0.0252
 6450SOL    HW325573   1.717   0.762   3.391 -0.7223 -0.8734  0.0547
 6450SOL    MW425574   1.675   0.787   3.319  0.0701 -0.6505  0.2476
 6451SOL     OW25575   5.539   2.933   3.084 -0.3758 -0.4087 -0.4738
 6451SOL    HW225576   5.473   2.957   3.150  1.8952  1.2551  1.3504
 6451SOL    HW325577   5.502   2.965   3.002 -0.4068  3.8329  0.9664
 6451SOL    MW425578   5.525   2.940   3.082 -0.0228 -0.4480  0.2013
 6452SOL     OW25579   2.757   0.488   1.309 -0.2773  0.0338  0.0206
 6452SOL    HW225580   2.675   0.479   1.260 -0.8040  1.8196  0.4823
 6452SOL    HW325581   2.730   0.514   1.397  0.7315 -1.2443  0.7434
 6452SOL    MW425582   2.743   0.491   1.314  0.1882  0.3259  0.4390
 6453SOL     OW25583   1.177   6.127   3.308  0.5608  0.3186 -0.1440
 6453SOL    HW225584   1.261   6.108   3.266 -0.6008 -0.8704 -2.0761
 6453SOL    HW325585   1.150   6.044   3.347  1.3535  1.2726  2.6638
 6453SOL    MW425586   1.184   6.114   3.308 -0.0820  0.7250 -0.1222
 6454SOL     OW25587   0.426   2.355   1.343 -0.2958 -0.3728  0.1240
 6454SOL    HW225588   0.460   2.420   1.282  0.4909 -0.7593  0.1315
 6454SOL    HW325589   0.423   2.400   1.427 -0.3652 -0.1576  0.0065
 6454SOL    MW425590   0.430   2.369   1.346 -0.0410 -0.2467  0.5626
 6455SOL     OW25591   1.871   0.148   4.897 -0.2035  0.1165  0.1070
 6455SOL    HW225592   1.964   0.125   4.898 -0.6982 -2.1425 -0.5796
 6455SOL    HW325593   1.842   0.136   4.988  0.0845  0.5243  0.2580
 6455SOL    MW425594   1.880   0.144   4.909 -0.3158 -0.6746 -0.2204
 6456SOL     OW25595   2.629   0.182   3.238  0.2216  0.3824 -0.3998
 6456SOL    HW225596   2.537   0.185   3.211  0.2872  1.4200 -0.5642
 6456SOL    HW325597   2.642   0.264   3.287  1.5037  1.1186 -1.8955
 6456SOL    MW425598   2.619   0.193   3.241 -0.4026 -0.1773 -0.0642
 6457SOL     OW25599   5.513   5.318   5.217 -0.6422  0.1481  0.3078
 6457SOL    HW225600   5.523   5.386   5.150  1.8287  1.7065  2.0939
 6457SOL    HW325601   5.507   5.237   5.167 -0.5913  1.3873 -1.8468
 6457SOL    MW425602   5.514   5.316   5.201 -0.1666  0.4588 -0.0441
 6458SOL     OW25603   0.151   1.135   0.205  0.2488  0.3680  0.0346
 6458SOL    HW225604   0.178   1.051   0.167 -0.2197  0.8273 -1.3936
 6458SOL    HW325605   0.228   1.192   0.196  0.7810 -0.0629  1.5889
 6458SOL    MW425606   0.165   1.132   0.199 -0.0849  0.1387 -0.2158
 6459SOL     OW25607   4.676   5.197   0.349 -0.5942  0.5797  0.4764
 6459SOL    HW225608   4.739   5.175   0.418  0.1078  1.7899  0.2485
 6459SOL    HW325609   4.669   5.116   0.297 -1.6342 -0.5598  2.3014
 6459SOL    MW425610   4.684   5.183   0.351 -0.8740  0.1569 -0.2340
 6460SOL     OW25611   1.548   1.199   0.036  0.1069  0.3555 -0.0194
 6460SOL    HW225612   1.517   1.165   0.120 -1.9088 -0.8264 -1.1589
 6460SOL    HW325613   1.569   1.291   0.053  0.3015 -0.0068  1.8867
 6460SOL    MW425614   1.547   1.207   0.049 -0.8227 -0.2876  0.3243
 6461SOL     OW25615   2.033   0.902   3.833 -0.1059  0.2747 -0.5218
 6461SOL    HW225616   2.044   0.951   3.751 -1.4488 -0.1796 -0.9955
 6461SOL    HW325617   2.007   0.969   3.897 -0.6038  0.3908 -0.8421
 6461SOL    MW425618   2.031   0.917   3.831 -0.3316 -0.0597 -0.0545
 6462SOL     OW25619   4.409   2.006   1.338  0.2416  0.2534 -0.0241
 6462SOL    HW225620   4.411   2.100   1.358 -1.2134  0.1755  0.6065
 6462SOL    HW325621   4.316   1.984   1.334  0.5409 -1.3566  0.8120
 6462SOL    MW425622   4.397   2.015   1.340 -0.1677  0.6432  0.0525
 6463SOL     OW25623   4.307   4.667   1.195  0.2724  0.2830  0.4959
 6463SOL    HW225624   4.344   4.623   1.118  0.5692  1.7093 -0.2198
 6463SOL    HW325625   4.383   4.692   1.248  0.2167  1.0697  0.2297
 6463SOL    MW425626   4.322   4.665   1.192 -0.0408  0.4965 -0.3536
 6464SOL     OW25627   4.191   1.943   0.238 -0.1041  0.0613 -0.3374
 6464SOL    HW225628   4.141   1.936   0.157 -1.3985  3.2353  0.0521
 6464SOL    HW325629   4.137   1.900   0.304 -2.1605  2.7585 -0.0833
 6464SOL    MW425630   4.177   1.937   0.236  0.5804 -0.9366 -0.0145
 6465SOL     OW25631   1.330   4.409   3.866  0.5009  0.2716 -0.5409
 6465SOL    HW225632   1.397   4.377   3.806 -0.3151 -1.2929 -0.6552
 6465SOL    HW325633   1.248   4.394   3.820 -0.1817 -1.4171  1.1315
 6465SOL    MW425634   1.328   4.403   3.852  0.2188 -0.1526 -0.3145
 6466SOL     OW25635   4.484   5.826   1.363 -0.4290 -0.0488 -0.2911
 6466SOL    HW225636   4.460   5.894   1.299 -2.0756 -1.3320 -1.0923
 6466SOL    HW325637   4.579   5.819   1.355 -0.5143  0.3170 -2.1286
 6466SOL    MW425638   4.493   5.834   1.353  0.1872 -0.5815 -0.2569
 6467SOL     OW25639   0.464   0.018   5.648  0.6636  0.2317 -0.7848
 6467SOL    HW225640   0.519   0.056   5.716 -1.6657  0.7685  0.9567
 6467SOL    HW325641   0.522  -0.041   5.600  2.6606  0.5518  1.0566
 6467SOL    MW425642   0.479   0.015   5.651  0.7001 -0.9589  0.2529
 6468SOL     OW25643   3.929   5.964   1.401 -0.2442  0.0610  0.2688
 6468SOL    HW225644   3.890   6.051   1.402  0.6619  0.4831  0.5422
 6468SOL    HW325645   4.021   5.979   1.423  0.1593 -0.8485 -0.7181
 6468SOL    MW425646   3.936   5.977   1.404  0.1355 -0.0512 -0.7499
 6469SOL     OW25647   0.517   0.791   4.724 -0.2167 -0.4650  0.2204
 6469SOL    HW225648   0.606   0.823   4.706 -0.0313 -1.4790 -0.8081
 6469SOL    HW325649   0.515   0.779   4.820  0.2217  1.0354  0.4311
 6469SOL    MW425650   0.529   0.793   4.735 -0.6091  0.4191 -0.0947
 6470SOL     OW25651   2.457   4.170   6.177 -0.2067 -0.2042  0.2100
 6470SOL    HW225652   2.383   4.194   6.121  0.6566  1.5201 -0.2451
 6470SOL    HW325653   2.426   4.186   6.266 -1.0514 -1.4607  0.1692
 6470SOL    MW425654   2.443   4.175   6.182 -0.6535  1.1564  0.0831
 6471SOL     OW25655   1.021   3.420   4.911 -0.7630 -0.2366  0.5497
 6471SOL    HW225656   1.054   3.332   4.893  1.2219 -0.3573  3.9556
 6471SOL    HW325657   0.927   3.408   4.924 -0.4437 -1.9661  1.4867
 6471SOL    MW425658   1.013   3.407   4.910 -0.1311  0.6819 -0.2998
 6472SOL     OW25659   1.307   2.501   3.495  0.3035 -0.7650  0.3381
 6472SOL    HW225660   1.251   2.456   3.431 -1.2771  0.2276  0.9748
 6472SOL    HW325661   1.360   2.561   3.442 -0.0783 -0.8656 -0.1651
 6472SOL    MW425662   1.306   2.503   3.480  0.3545 -0.0849 -0.0258
 6473SOL     OW25663   4.902   3.531   1.159 -0.2821 -0.1202  0.3771
 6473SOL    HW225664   4.895   3.616   1.201 -1.3867  0.4046 -0.8143
 6473SOL    HW325665   4.971   3.485   1.208  1.3381  1.9523  0.1722
 6473SOL    MW425666   4.910   3.536   1.171  0.6386 -0.4755  0.3046
 6474SOL     OW25667   6.260   0.850   3.834 -0.0469  0.5503  0.0601
 6474SOL    HW225668   6.171   0.846   3.871 -0.3945 -0.5725 -0.8431
 6474SOL    HW325669   6.271   0.766   3.789  0.9969  1.1974 -0.9340
 6474SOL    MW425670   6.250   0.838   3.833 -0.2190 -0.3450 -0.5041
 6475SOL     OW25671   4.562   6.399   2.690  0.4935  0.2067 -0.0612
 6475SOL    HW225672   4.526   6.419   2.604  0.4851  0.9110  0.1002
 6475SOL    HW325673   4.562   6.483   2.736  0.2232 -0.2109  0.7261
 6475SOL    MW425674   4.557   6.413   2.685 -0.3685  0.4162 -0.4797
 6476SOL     OW25675   2.242   5.828   0.091 -0.0398  0.3744 -0.4618
 6476SOL    HW225676   2.332   5.810   0.061  0.1924 -1.2382  1.0253
 6476SOL    HW325677   2.252   5.894   0.159 -0.1987  1.4891 -1.4922
 6476SOL    MW425678   2.255   5.834   0.096 -0.7804 -0.2875  0.0893
 6477SOL     OW25679   3.612   2.756   1.639 -0.8890  0.6624  0.1418
 6477SOL    HW225680   3.688   2.700   1.627  1.0370  3.1842 -0.2850
 6477SOL    HW325681   3.594   2.792   1.552 -0.8154  2.1700  0.7175
 6477SOL    MW425682   3.619   2.754   1.626  0.4235  0.6354 -0.6023
 6478SOL     OW25683   1.944   2.212   5.247 -0.4246  0.6196 -0.2273
 6478SOL    HW225684   1.967   2.302   5.223 -1.9154  1.1658  0.2498
 6478SOL    HW325685   1.852   2.217   5.273 -0.6863 -1.1410 -0.6521
 6478SOL    MW425686   1.935   2.224   5.247 -0.0479 -0.2399 -0.0557
 6479SOL     OW25687   4.712   5.454   0.271 -0.1841 -0.0436  0.5096
 6479SOL    HW225688   4.805   5.458   0.291 -0.1125 -0.2640  0.2314
 6479SOL    HW325689   4.691   5.360   0.271  0.5236 -0.3718 -3.5460
 6479SOL    MW425690   4.721   5.442   0.274 -0.5428  0.6637  0.0440
 6480SOL     OW25691   3.780   1.110   1.793 -0.2716  0.2069 -0.3730
 6480SOL    HW225692   3.816   1.063   1.869  1.1142  0.9984 -0.5011
 6480SOL    HW325693   3.797   1.051   1.719  0.8983  0.6119 -0.4453
 6480SOL    MW425694   3.787   1.096   1.793 -0.7504 -0.0499 -0.0192
 6481SOL     OW25695   3.005   5.595   3.500  0.3855 -0.3005 -0.3021
 6481SOL    HW225696   2.968   5.508   3.485  1.6118 -0.5944 -1.8870
 6481SOL    HW325697   3.075   5.602   3.436  0.3707  1.8332 -0.1426
 6481SOL    MW425698   3.009   5.584   3.489 -0.4584 -0.1501 -0.0502
 6482SOL     OW25699   3.571   2.331   5.084  0.0395  0.3046 -0.0222
 6482SOL    HW225700   3.649   2.339   5.030 -0.2277  2.0104 -0.1926
 6482SOL    HW325701   3.588   2.386   5.160  0.0733 -1.4187  1.2608
 6482SOL    MW425702   3.583   2.339   5.087 -0.8804  0.1211 -0.0900
 6483SOL     OW25703   4.097   3.304   4.186 -0.5814  0.0576  0.1854
 6483SOL    HW225704   4.141   3.225   4.154  2.5310  0.0320  3.8124
 6483SOL    HW325705   4.016   3.271   4.226 -0.7750 -0.8411 -0.8900
 6483SOL    MW425706   4.092   3.289   4.187  0.5672 -0.0538 -0.2008
 6484SOL     OW25707   4.003   0.360   3.144  0.4513 -0.0925  0.3701
 6484SOL    HW225708   4.078   0.397   3.098 -0.8693  1.4050 -0.6970
 6484SOL    HW325709   3.949   0.320   3.075  0.7530 -2.1632  1.2467
 6484SOL    MW425710   4.006   0.359   3.129 -0.6584 -0.1389  0.2404
 6485SOL     OW25711   5.466   2.289   5.698  0.1101  0.5106 -0.0251
 6485SOL    HW225712   5.439   2.378   5.723 -0.3188  0.4775 -0.3555
 6485SOL    HW325713   5.497   2.250   5.779 -1.9626  0.1445  0.6575
 6485SOL    MW425714   5.467   2.296   5.712 -0.1500 -0.0811 -0.4574
 6486SOL     OW25715   2.647   4.292   1.975  0.6971 -0.5654 -0.0345
 6486SOL    HW225716   2.726   4.346   1.976  0.7589 -0.6551 -0.1179
 6486SOL    HW325717   2.599   4.319   2.053  0.2865  0.2810 -0.5628
 6486SOL    MW425718   2.651   4.303   1.986  0.1684 -0.3046 -0.0102
 6487SOL     OW25719   1.977   2.211   4.539  0.4954 -0.2129 -0.5080
 6487SOL    HW225720   1.955   2.250   4.623 -0.3235  0.9229 -1.2199
 6487SOL    HW325721   1.908   2.147   4.523  0.0403  0.3487 -0.8093
 6487SOL    MW425722   1.965   2.208   4.548 -0.3701  0.1607 -0.4961
 6488SOL     OW25723   3.935   4.834   2.608  0.2592  0.1151  0.2380
 6488SOL    HW225724   3.853   4.791   2.632  1.1677 -1.6932  0.2816
 6488SOL    HW325725   3.913   4.927   2.599 -1.6351 -0.2528  0.8643
 6488SOL    MW425726   3.922   4.841   2.610  0.1917  0.0373  0.2671
 6489SOL     OW25727   3.835   5.835   0.965 -0.0591 -0.4958 -0.3386
 6489SOL    HW225728   3.924   5.844   1.000 -0.5505 -1.4898  1.2493
 6489SOL    HW325729   3.818   5.918   0.921  0.8467  0.5680  1.2195
 6489SOL    MW425730   3.845   5.847   0.963 -0.3504 -0.1719  0.1759
 6490SOL     OW25731   2.113   1.574   0.515 -0.3228  0.5441 -0.1896
 6490SOL    HW225732   2.054   1.605   0.584  0.2492  0.2026  0.4615
 6490SOL    HW325733   2.178   1.522   0.561  0.6927  1.2003 -0.8580
 6490SOL    MW425734   2.114   1.571   0.531 -0.2344 -0.3258  0.4285
 6491SOL     OW25735   1.421   0.968   6.043  0.1548 -0.1184 -0.4580
 6491SOL    HW225736   1.427   0.959   6.138 -1.4637  1.1992 -0.1897
 6491SOL    HW325737   1.499   0.923   6.010  0.6896 -0.7070  1.4718
 6491SOL    MW425738   1.432   0.961   6.052 -0.1438  0.4215  0.5259
 6492SOL     OW25739   0.228   6.155   0.489  1.1318  0.1883  0.6578
 6492SOL    HW225740   0.223   6.097   0.565  0.5840  1.3390  1.5282
 6492SOL    HW325741   0.321   6.166   0.473  1.2780  0.6338  1.7341
 6492SOL    MW425742   0.239   6.149   0.497 -0.4742  0.3899  0.2457
 6493SOL     OW25743   3.293   0.495   1.033 -0.3250  0.9399 -0.8005
 6493SOL    HW225744   3.354   0.446   1.088 -0.9816  0.4249 -0.5047
 6493SOL    HW325745   3.330   0.583   1.027  1.0698  0.3318 -1.6341
 6493SOL    MW425746   3.306   0.500   1.040 -0.2266 -0.6277 -0.4813
 6494SOL     OW25747   3.613   5.991   4.427 -0.7451  0.0811  0.3395
 6494SOL    HW225748   3.560   6.053   4.477 -0.2479  1.2435 -0.5184
 6494SOL    HW325749   3.591   6.010   4.335 -0.0908 -0.5684  0.0416
 6494SOL    MW425750   3.603   6.002   4.421 -0.1113 -0.0451  0.2948
 6495SOL     OW25751   0.403   3.354   3.946  0.3567 -0.2350  0.5163
 6495SOL    HW225752   0.339   3.380   4.012 -0.9015 -0.7306 -0.4450
 6495SOL    HW325753   0.414   3.431   3.891 -0.5534 -0.5771 -0.1699
 6495SOL    MW425754   0.396   3.367   3.947  0.5901  0.3514 -0.3331
 6496SOL     OW25755   2.469   5.749   0.353  0.2662 -0.3883  0.3130
 6496SOL    HW225756   2.409   5.747   0.427  0.2836  0.6688  0.3701
 6496SOL    HW325757   2.539   5.808   0.380  1.9613 -2.4467  0.6851
 6496SOL    MW425758   2.470   5.757   0.366  0.0765  0.3147 -0.0620
 6497SOL     OW25759   1.190   3.293   0.649  0.1057 -0.8683  0.1190
 6497SOL    HW225760   1.227   3.339   0.574 -0.6071 -2.0938 -1.0224
 6497SOL    HW325761   1.211   3.349   0.724  1.9620 -0.2508 -0.8004
 6497SOL    MW425762   1.198   3.307   0.649 -0.1133 -0.3608  0.6100
 6498SOL     OW25763   1.060   3.801   5.712  0.5471 -0.2586  0.5130
 6498SOL    HW225764   1.123   3.847   5.767  0.6274 -2.1342  2.0896
 6498SOL    HW325765   1.107   3.784   5.631  2.9784 -3.4256  2.3485
 6498SOL    MW425766   1.075   3.805   5.709 -0.3123 -0.2507 -0.3252
 6499SOL     OW25767   0.115   2.797   5.500 -0.4231 -0.9455  0.1895
 6499SOL    HW225768   0.068   2.866   5.453 -0.5976 -0.6064  0.8558
 6499SOL    HW325769   0.143   2.737   5.431 -0.3969 -0.2903 -0.3828
 6499SOL    MW425770   0.112   2.798   5.484 -0.5026  0.0902  0.4607
 6500SOL     OW25771   1.464   1.874   6.354 -1.3509  0.6291  0.7911
 6500SOL    HW225772   1.469   1.795   6.300 -2.4417  2.0469 -1.5326
 6500SOL    HW325773   1.512   1.852   6.433  0.2574 -1.6121 -0.6989
 6500SOL    MW425774   1.471   1.860   6.357  0.3911  0.2330  0.0657
 6501SOL     OW25775   5.563   4.836   1.600  0.0464  0.5366  0.0888
 6501SOL    HW225776   5.469   4.836   1.583  0.1672  0.0326 -0.6343
 6501SOL    HW325777   5.583   4.925   1.629 -1.0372  0.0563  2.4977
 6501SOL    MW425778   5.553   4.847   1.601  0.0925 -0.1686  0.2886
 6502SOL     OW25779   6.022   2.780   1.177  0.2566 -0.5246  0.0543
 6502SOL    HW225780   5.929   2.776   1.152  0.2526 -1.2650  0.1858
 6502SOL    HW325781   6.045   2.690   1.200  1.1288 -0.4298 -0.4054
 6502SOL    MW425782   6.013   2.768   1.177  0.2963  0.1869 -0.0693
 6503SOL     OW25783   5.185   5.536   2.581 -0.1686  0.1641  0.6352
 6503SOL    HW225784   5.108   5.594   2.592 -0.9490 -0.6412 -0.4169
 6503SOL    HW325785   5.257   5.586   2.620 -1.4102  0.4685  2.7256
 6503SOL    MW425786   5.184   5.551   2.588  0.0491 -0.5340  0.4160
 6504SOL     OW25787   2.059   4.235   0.597  0.0320  0.1275 -0.2457
 6504SOL    HW225788   2.086   4.154   0.554  1.1660  1.4547 -2.1706
 6504SOL    HW325789   2.141   4.280   0.615 -0.6416  1.6219 -0.8000
 6504SOL    MW425790   2.074   4.230   0.594  0.0230  0.0733  0.2370
 6505SOL     OW25791   3.454   0.987   1.953 -0.2136 -0.3011 -0.2083
 6505SOL    HW225792   3.359   0.987   1.951 -0.2596 -0.8933  1.1706
 6505SOL    HW325793   3.477   0.990   2.046  1.1064 -0.3129 -0.5073
 6505SOL    MW425794   3.445   0.987   1.965 -0.0839  0.1415 -0.0238
 6506SOL     OW25795   1.067   1.527   3.256 -0.1344 -0.7953 -0.2838
 6506SOL    HW225796   0.985   1.541   3.302 -0.6415  1.8358 -1.8012
 6506SOL    HW325797   1.131   1.510   3.325 -0.9955  2.2394  1.4096
 6506SOL    MW425798   1.065   1.526   3.271  0.2780 -0.0068  0.2496
 6507SOL     OW25799   2.824   5.013   4.090  0.0544  0.0504 -0.5300
 6507SOL    HW225800   2.759   4.958   4.133  0.4181  1.1668  1.6286
 6507SOL    HW325801   2.907   4.986   4.128  0.8049 -0.8110 -2.6649
 6507SOL    MW425802   2.826   5.002   4.101 -0.2486 -0.0978 -0.0961
 6508SOL     OW25803   6.403   3.235   2.424  0.1874  0.3582 -0.2116
 6508SOL    HW225804   6.363   3.160   2.467  1.8142  0.5578  1.7586
 6508SOL    HW325805   6.491   3.206   2.400  0.1097  0.9953 -1.3623
 6508SOL    MW425806   6.409   3.221   2.427 -0.4750 -0.1873  0.3088
 6509SOL     OW25807   1.084   0.244   2.143  0.2174 -0.2853 -0.1506
 6509SOL    HW225808   1.124   0.282   2.221 -0.2739 -1.1632  0.5420
 6509SOL    HW325809   0.990   0.243   2.162  0.2873 -3.5365  0.7065
 6509SOL    MW425810   1.077   0.249   2.156 -0.4095  0.2765 -0.1386
 6510SOL     OW25811   2.499   4.158   2.975  0.5969  0.3332 -0.1291
 6510SOL    HW225812   2.593   4.139   2.979  0.7885  1.2177 -0.1834
 6510SOL    HW325813   2.475   4.179   3.065 -0.0853 -2.1697  0.3597
 6510SOL    MW425814   2.508   4.158   2.987 -0.1855  0.5925 -0.0034
 6511SOL     OW25815   2.256   1.007   0.447 -0.1862  0.4354  0.4230
 6511SOL    HW225816   2.314   1.081   0.464 -0.0533  0.1639  1.1954
 6511SOL    HW325817   2.314   0.937   0.418  0.0149 -0.1371  2.1325
 6511SOL    MW425818   2.271   1.008   0.445 -0.0774  0.0439  0.6204
 6512SOL     OW25819   3.647   4.889   4.167  0.4242 -1.0661  0.2470
 6512SOL    HW225820   3.719   4.826   4.164  1.3293 -0.0508 -0.1241
 6512SOL    HW325821   3.649   4.930   4.080  1.3633  1.0768  1.2109
 6512SOL    MW425822   3.657   4.886   4.155  0.3941 -0.2351 -0.2701
 6513SOL     OW25823   5.146   4.443   4.631 -0.3600 -0.1645  0.3822
 6513SOL    HW225824   5.160   4.523   4.683 -0.5510 -0.4990  0.9532
 6513SOL    HW325825   5.055   4.449   4.601  0.1087  0.6387 -0.9812
 6513SOL    MW425826   5.136   4.455   4.634  0.3804  0.1651  0.3942
 6514SOL     OW25827   3.443   2.622   1.111  0.2805 -0.1515  0.1734
 6514SOL    HW225828   3.507   2.651   1.177  0.4708 -0.0843 -0.0394
 6514SOL    HW325829   3.379   2.693   1.108 -0.1840 -0.5317  0.8883
 6514SOL    MW425830   3.443   2.635   1.119  0.2933 -0.2562  0.5674
 6515SOL     OW25831   5.037   2.652   6.036  0.7614 -0.1164 -0.1482
 6515SOL    HW225832   5.091   2.669   5.959 -0.0364  0.7845 -0.5275
 6515SOL    HW325833   4.953   2.621   6.001  0.3067  0.5328  0.3432
 6515SOL    MW425834   5.033   2.650   6.021  0.4077 -0.4838  0.3852
 6516SOL     OW25835   3.617   1.914   0.329 -0.4709  0.5633  0.6159
 6516SOL    HW225836   3.543   1.860   0.355 -0.7116  0.3852 -0.4234
 6516SOL    HW325837   3.656   1.941   0.412  0.1290 -1.8113  1.1746
 6516SOL    MW425838   3.612   1.911   0.343 -0.1913 -0.1330 -0.0671
 6517SOL     OW25839   5.392   2.143   0.337  0.2916 -0.0041 -0.4815
 6517SOL    HW225840   5.333   2.153   0.262  0.9055 -1.0830 -1.1300
 6517SOL    HW325841   5.379   2.053   0.367  1.3948 -0.1788 -0.4669
 6517SOL    MW425842   5.383   2.133   0.331  0.5373  0.1301 -0.1971
 6518SOL     OW25843   1.346   4.887   4.684 -0.1162  0.1955  0.0216
 6518SOL    HW225844   1.378   4.923   4.601  0.6803  2.2031  1.1325
 6518SOL    HW325845   1.252   4.875   4.670  0.1185 -0.1680 -1.3778
 6518SOL    MW425846   1.337   4.890   4.671  0.1369 -0.2121  0.0209
 6519SOL     OW25847   4.556   3.241   1.132 -0.2788  0.0594 -0.4736
 6519SOL    HW225848   4.503   3.173   1.175  1.7982 -1.5252 -0.2219
 6519SOL    HW325849   4.617   3.269   1.200  0.0715  0.8750 -1.1122
 6519SOL    MW425850   4.557   3.235   1.147 -0.1413  0.4670 -0.5250
 6520SOL     OW25851   2.034   1.311   5.920  0.1214  0.1494  0.2255
 6520SOL    HW225852   2.078   1.266   5.848 -0.8665  1.1662 -1.0723
 6520SOL    HW325853   2.048   1.404   5.902  0.5632  0.4250  1.8376
 6520SOL    MW425854   2.042   1.317   5.908 -0.0137  0.5001 -0.0705
 6521SOL     OW25855   2.953   2.071   0.910 -0.0382 -0.1121  0.1219
 6521SOL    HW225856   2.941   2.105   0.822 -0.2861 -0.1469  0.1416
 6521SOL    HW325857   2.970   2.148   0.964 -1.1493  0.0467  0.2648
 6521SOL    MW425858   2.954   2.086   0.906  0.3227 -0.2905  0.0374
 6522SOL     OW25859   6.308   1.687   2.115 -0.3750 -0.8607 -0.0862
 6522SOL    HW225860   6.314   1.696   2.210 -1.4262 -1.4906  0.0525
 6522SOL    HW325861   6.217   1.712   2.095  0.4268  1.4302 -1.1920
 6522SOL    MW425862   6.296   1.692   2.125 -0.0172 -0.3266  0.2392
 6523SOL     OW25863   5.068   1.621   1.501  0.1254  0.5902  0.0692
 6523SOL    HW225864   5.008   1.690   1.474 -1.1011  0.5596  2.4911
 6523SOL    HW325865   5.019   1.570   1.565  2.5225  0.1689  1.6837
 6523SOL    MW425866   5.053   1.623   1.506 -0.1236  0.1340  0.0444
 6524SOL     OW25867   4.033   6.235   2.274 -0.3901 -0.3570 -0.0001
 6524SOL    HW225868   4.021   6.152   2.321 -0.2315 -0.4904 -0.1940
 6524SOL    HW325869   3.948   6.277   2.279 -0.1484  0.0211  1.1523
 6524SOL    MW425870   4.020   6.229   2.281 -0.5008 -0.2067  0.4885
 6525SOL     OW25871   4.760   2.304   3.486  0.2327 -0.2971  0.3459
 6525SOL    HW225872   4.764   2.249   3.564 -0.6702  0.8602  1.2408
 6525SOL    HW325873   4.730   2.245   3.416  0.0783 -1.1101  1.0861
 6525SOL    MW425874   4.757   2.289   3.487  0.0241  0.0005  0.0051
 6526SOL     OW25875   4.773   1.134   2.126 -0.1788 -0.2535 -0.5175
 6526SOL    HW225876   4.766   1.197   2.054 -2.3042 -0.7994 -0.8681
 6526SOL    HW325877   4.683   1.123   2.157  0.2640 -2.3593  0.1738
 6526SOL    MW425878   4.760   1.141   2.120 -0.0755  0.1465  0.6915
 6527SOL     OW25879   2.583   1.457   4.099 -0.1833  0.1806 -0.5297
 6527SOL    HW225880   2.537   1.520   4.043 -1.3150  0.4688  0.6560
 6527SOL    HW325881   2.537   1.374   4.085 -1.0620  0.4448  0.5726
 6527SOL    MW425882   2.571   1.455   4.090 -0.0602 -0.0211 -0.0027
 6528SOL     OW25883   1.715   3.280   3.032  0.1954  0.2599 -0.0642
 6528SOL    HW225884   1.767   3.234   3.097  2.0751  0.2681 -1.4907
 6528SOL    HW325885   1.737   3.373   3.045  1.3801  0.1828 -1.3254
 6528SOL    MW425886   1.725   3.286   3.042  0.5550  1.0370 -0.1445
 6529SOL     OW25887   2.821   3.774   0.013 -0.0327 -0.2166  0.1991
 6529SOL    HW225888   2.843   3.853   0.063 -1.5163  0.0172  0.5445
 6529SOL    HW325889   2.731   3.753   0.040  1.0476 -3.3665  1.8044
 6529SOL    MW425890   2.812   3.782   0.023  0.2097  0.1974  0.0703
 6530SOL     OW25891   1.471   5.348   1.101  0.5702  0.0833  0.0440
 6530SOL    HW225892   1.538   5.321   1.037  0.5343 -0.0995  0.0816
 6530SOL    HW325893   1.480   5.443   1.107 -0.1990  0.2526 -1.1095
 6530SOL    MW425894   1.481   5.357   1.093 -0.5929 -0.0496 -0.0669
 6531SOL     OW25895   4.467   6.136   2.178 -0.6244  0.3138  0.5128
 6531SOL    HW225896   4.432   6.067   2.233 -2.1388 -0.3878 -1.2332
 6531SOL    HW325897   4.524   6.091   2.116 -2.4967  0.3577 -1.3709
 6531SOL    MW425898   4.470   6.121   2.177 -0.6044 -0.4408 -0.2123
 6532SOL     OW25899   1.827   1.911   1.077  0.1835 -0.3964 -0.4985
 6532SOL    HW225900   1.763   1.911   1.005 -1.2755 -0.5532  0.7427
 6532SOL    HW325901   1.801   1.838   1.132  0.2437  0.6915  1.0446
 6532SOL    MW425902   1.815   1.902   1.074  0.1242  0.1849 -0.8711
 6533SOL     OW25903   2.742   4.004   4.348 -0.0802 -0.4635 -0.0745
 6533SOL    HW225904   2.815   3.953   4.382 -0.7001 -1.8572 -0.7330
 6533SOL    HW325905   2.778   4.053   4.275  0.6776  0.5956  0.9719
 6533SOL    MW425906   2.756   4.004   4.343  0.7145  0.8619  0.2020
 6534SOL     OW25907   3.694   4.630   5.050 -0.1176  0.1719  0.5239
 6534SOL    HW225908   3.751   4.689   5.000 -0.3477  0.3793  0.5046
 6534SOL    HW325909   3.754   4.582   5.107  0.2113 -0.4654 -0.3409
 6534SOL    MW425910   3.710   4.632   5.051 -0.2979  0.5873  0.0035
 6535SOL     OW25911   2.444   0.062   1.459  0.4557  0.3790  0.5019
 6535SOL    HW225912   2.454   0.136   1.518  0.3831  0.4882  0.3770
 6535SOL    HW325913   2.372   0.011   1.496  1.3879 -0.3666  1.3571
 6535SOL    MW425914   2.436   0.065   1.471 -0.2123  0.2968  0.4188
 6536SOL     OW25915   2.326   4.854   1.489 -0.8241  1.0248  0.7597
 6536SOL    HW225916   2.365   4.889   1.570  0.5884 -0.1138  0.6153
 6536SOL    HW325917   2.286   4.771   1.516  1.0507 -0.1654  0.0418
 6536SOL    MW425918   2.326   4.848   1.504 -0.8952  0.5415 -0.7512
 6537SOL     OW25919   4.679   1.734   2.924  0.3503 -0.2572 -0.0383
 6537SOL    HW225920   4.712   1.655   2.881  2.1292  0.0285  0.6993
 6537SOL    HW325921   4.584   1.726   2.919  0.4182 -0.5919 -3.3274
 6537SOL    MW425922   4.671   1.722   2.917 -0.3634  0.0575  0.0082
 6538SOL     OW25923   4.655   3.803   0.899 -0.2500  0.4562 -0.0226
 6538SOL    HW225924   4.609   3.832   0.821  1.1560  3.1381  0.0315
 6538SOL    HW325925   4.742   3.842   0.892  0.8491 -1.4893  1.5870
 6538SOL    MW425926   4.661   3.812   0.888 -0.3909  0.1369  0.8504
 6539SOL     OW25927   3.456   5.830   4.098  0.7253 -0.1074  0.1329
 6539SOL    HW225928   3.451   5.746   4.144  0.9383 -0.6258 -0.7711
 6539SOL    HW325929   3.374   5.834   4.049  0.9897 -0.0709 -0.3046
 6539SOL    MW425930   3.444   5.819   4.098  0.3232  0.0842 -0.2385
 6540SOL     OW25931   4.246   2.880   0.735 -0.2591 -0.8123 -0.4794
 6540SOL    HW225932   4.277   2.937   0.805 -0.2355  0.8157 -1.7506
 6540SOL    HW325933   4.266   2.928   0.655  0.0136 -2.7647 -1.6394
 6540SOL    MW425934   4.252   2.894   0.734 -0.3176  0.0363 -0.4253
 6541SOL     OW25935   5.934   3.600   6.287 -0.2618 -0.3340 -0.0641
 6541SOL    HW225936   5.970   3.679   6.247 -0.5280 -0.1852 -0.0129
 6541SOL    HW325937   5.950   3.531   6.223 -0.7878 -0.0759 -0.4890
 6541SOL    MW425938   5.941   3.601   6.273 -0.3828 -0.3596 -0.0703
 6542SOL     OW25939   3.967   4.709   5.264 -0.0999 -0.0671 -0.1684
 6542SOL    HW225940   3.939   4.800   5.252  0.3171  0.0420 -0.3266
 6542SOL    HW325941   3.960   4.694   5.358 -0.2524  0.1025 -0.1521
 6542SOL    MW425942   3.962   4.719   5.275 -0.2110 -0.1611 -0.4007
 6543SOL     OW25943   2.485   0.268   0.032 -0.2219  0.1023  0.3118
 6543SOL    HW225944   2.400   0.311   0.032 -0.8972 -1.1694 -0.3145
 6543SOL    HW325945   2.471   0.185   0.077 -0.1087 -1.4932 -2.3771
 6543SOL    MW425946   2.472   0.263   0.038  0.1085 -0.2268 -0.4098
 6544SOL     OW25947   5.211   3.320   4.970 -0.0694 -0.5017  0.0425
 6544SOL    HW225948   5.229   3.273   4.888 -0.8135 -0.8213  0.0541
 6544SOL    HW325949   5.162   3.257   5.023 -2.3808  0.7052 -0.5057
 6544SOL    MW425950   5.207   3.306   4.966  0.5311  0.1502  0.0451
 6545SOL     OW25951   3.483   5.217   2.516  0.3124 -0.2052  0.2060
 6545SOL    HW225952   3.538   5.204   2.439  0.1081 -1.6308  0.2726
 6545SOL    HW325953   3.417   5.147   2.510 -0.0866  0.0517  1.3350
 6545SOL    MW425954   3.481   5.206   2.505 -0.4817  0.4150 -0.9938
 6546SOL     OW25955   0.914   2.290   4.004  0.5453  0.1283  0.2907
 6546SOL    HW225956   0.904   2.208   4.052 -0.1381 -1.3276 -2.1630
 6546SOL    HW325957   0.829   2.334   4.014  0.6797  0.2132  1.0585
 6546SOL    MW425958   0.901   2.285   4.011  0.2630  0.6183  0.5778
 6547SOL     OW25959   6.003   0.449   1.151 -0.7117 -0.1203 -0.6686
 6547SOL    HW225960   5.946   0.376   1.174 -0.3945 -0.1808 -0.0540
 6547SOL    HW325961   6.065   0.455   1.223 -0.4041  0.4207 -0.9689
 6547SOL    MW425962   6.004   0.440   1.164  0.6463 -0.5103  0.0637
 6548SOL     OW25963   0.946   2.759   4.703  0.1416 -0.1838  0.6845
 6548SOL    HW225964   0.931   2.705   4.781  0.2627  1.0004  1.5586
 6548SOL    HW325965   0.898   2.715   4.633  0.6784 -1.7030  1.2355
 6548SOL    MW425966   0.938   2.746   4.704 -0.1108  0.7324 -0.1078
 6549SOL     OW25967   1.614   4.891   2.093  0.4591  0.4269 -0.2102
 6549SOL    HW225968   1.603   4.866   2.185 -2.0636 -0.4112 -0.6731
 6549SOL    HW325969   1.642   4.810   2.050 -0.9439  0.1234 -0.5831
 6549SOL    MW425970   1.616   4.877   2.100  0.7322 -0.3983 -0.2934
 6550SOL     OW25971   3.903   5.151   0.572  0.3476  0.1100 -0.7957
 6550SOL    HW225972   3.837   5.216   0.547 -0.8349 -0.8937 -0.4371
 6550SOL    HW325973   3.883   5.075   0.518  2.1653  0.2559 -1.7282
 6550SOL    MW425974   3.892   5.150   0.562  0.6355  0.1314  0.8004
 6551SOL     OW25975   3.135   4.874   3.569  0.2563  0.2701  0.1555
 6551SOL    HW225976   3.136   4.924   3.487 -0.6079 -0.3295 -0.2381
 6551SOL    HW325977   3.185   4.928   3.630 -1.7965  2.3601  0.1536
 6551SOL    MW425978   3.142   4.888   3.566 -0.3025  0.0283  0.1286
 6552SOL     OW25979   4.508   5.490   4.436 -0.0753 -0.0947  0.1457
 6552SOL    HW225980   4.492   5.562   4.496 -0.2213  2.0969 -2.3369
 6552SOL    HW325981   4.425   5.476   4.391  0.1582 -1.3337  0.0516
 6552SOL    MW425982   4.495   5.497   4.438  0.3645 -0.3636 -0.2211
 6553SOL     OW25983   1.340   4.260   5.323  0.1993 -0.5535 -0.4402
 6553SOL    HW225984   1.318   4.318   5.396  0.3631  0.8579 -1.4538
 6553SOL    HW325985   1.319   4.172   5.354 -1.8447  0.2089  0.5061
 6553SOL    MW425986   1.334   4.256   5.336  0.1489  0.0282 -0.2140
 6554SOL     OW25987   3.944   1.340   3.555  0.7662  0.2940  0.7433
 6554SOL    HW225988   4.008   1.359   3.623  1.3023  0.2434  0.2557
 6554SOL    HW325989   3.996   1.322   3.477  0.1757 -0.2844  0.4756
 6554SOL    MW425990   3.959   1.341   3.553  0.3685 -0.1840  0.3464
 6555SOL     OW25991   5.214   3.209   0.219  0.2216  0.1098 -0.2791
 6555SOL    HW225992   5.223   3.170   0.132  0.0084 -0.1310 -0.1971
 6555SOL    HW325993   5.243   3.140   0.279 -0.7943 -0.1699 -0.0946
 6555SOL    MW425994   5.219   3.194   0.215 -0.0875 -0.1697 -0.0739
 6556SOL     OW25995   4.577   4.430   0.831  0.5528 -0.4600 -0.2668
 6556SOL    HW225996   4.612   4.455   0.745  0.0401  0.5611 -0.1965
 6556SOL    HW325997   4.653   4.433   0.889  0.5124  1.1797 -0.2330
 6556SOL    MW425998   4.592   4.434   0.827 -0.3084 -0.0500  0.1883
 6557SOL     OW25999   3.480   0.311   5.875  0.4621  0.4538  0.8171
 6557SOL    HW226000   3.484   0.229   5.826 -0.6224  2.3419 -2.8488
 6557SOL    HW326001   3.524   0.292   5.958  0.0790 -3.7969  0.2670
 6557SOL    MW426002   3.487   0.298   5.879  0.0986 -0.7552  0.7188
 6558SOL     OW26003   4.078   4.417   2.501  0.1137 -0.2816  0.1395
 6558SOL    HW226004   4.159   4.416   2.551  0.7456 -2.8313 -0.7571
 6558SOL    HW326005   4.024   4.349   2.541 -0.2844 -0.7771 -1.1813
 6558SOL    MW426006   4.081   4.408   2.513  0.3106 -0.0439 -0.3676
 6559SOL     OW26007   3.587   2.329   6.037 -0.4042  0.1671 -0.0068
 6559SOL    HW226008   3.673   2.317   5.996 -0.1069 -2.0450  1.1139
 6559SOL    HW326009   3.601   2.398   6.102 -0.2664  1.9047 -1.7722
 6559SOL    MW426010   3.600   2.337   6.040  0.0515  0.3106 -0.0618
 6560SOL     OW26011   2.755   5.978   3.919  0.2015 -0.2313 -0.3845
 6560SOL    HW226012   2.676   6.003   3.871 -0.2437  0.6581  0.7523
 6560SOL    HW326013   2.738   5.889   3.949  0.1464 -0.4907 -1.1571
 6560SOL    MW426014   2.742   5.970   3.917  0.3961  0.4335  0.0851
 6561SOL     OW26015   5.288   0.798   1.479 -0.4387 -0.0116 -0.3096
 6561SOL    HW226016   5.207   0.749   1.493  0.0333 -0.6079  0.4825
 6561SOL    HW326017   5.260   0.885   1.452 -1.3055 -0.7206 -1.7691
 6561SOL    MW426018   5.274   0.803   1.478 -0.0738  0.8210 -0.1428
 6562SOL     OW26019   0.104   4.101   4.912  0.7353  0.3545  0.6130
 6562SOL    HW226020   0.032   4.082   4.852 -0.0084  0.2003  1.5271
 6562SOL    HW326021   0.175   4.130   4.856 -0.1367  0.7989 -0.2934
 6562SOL    MW426022   0.104   4.103   4.897 -0.0230  0.3348  0.3772
 6563SOL     OW26023   2.342   2.938   2.055  0.3528 -0.3034 -0.2328
 6563SOL    HW226024   2.322   2.850   2.023  0.5239  0.0324 -1.2861
 6563SOL    HW326025   2.368   2.924   2.146 -1.9489 -1.0717  0.3812
 6563SOL    MW426026   2.343   2.924   2.063 -0.2825 -0.0315  0.1047
 6564SOL     OW26027   6.320   1.169   1.949  0.0500  0.3897 -0.1013
 6564SOL    HW226028   6.393   1.229   1.964 -0.6355  1.2201 -0.0401
 6564SOL    HW326029   6.251   1.199   2.008  0.0592 -1.1427  0.7592
 6564SOL    MW426030   6.320   1.181   1.959  0.0439 -0.2293 -0.3401
 6565SOL     OW26031   0.789   0.458   6.211  0.3464 -0.1464 -0.2680
 6565SOL    HW226032   0.845   0.381   6.212  1.2909  0.5292  0.6218
 6565SOL    HW326033   0.735   0.450   6.289 -0.1237 -0.3043 -0.6049
 6565SOL    MW426034   0.789   0.447   6.221 -0.1933  0.1279  0.1861
 6566SOL     OW26035   1.081   2.877   4.402  0.3287  0.2321 -0.1931
 6566SOL    HW226036   1.101   2.885   4.309  1.8785  0.9103  0.1650
 6566SOL    HW326037   1.087   2.784   4.420 -1.5806 -0.1045 -1.0716
 6566SOL    MW426038   1.084   2.866   4.392  0.0833 -0.7222  0.0850
 6567SOL     OW26039   2.905   3.386   3.714  0.4074  0.2864  0.5726
 6567SOL    HW226040   2.850   3.308   3.703  0.6103  0.2903 -0.6022
 6567SOL    HW326041   2.875   3.425   3.796 -0.1006 -0.6973  0.8805
 6567SOL    MW426042   2.894   3.381   3.724 -0.4628 -0.5172 -0.0041
 6568SOL     OW26043   0.995   5.968   5.153  0.0021  0.1016  0.4553
 6568SOL    HW226044   0.988   5.948   5.247 -1.2479  0.6069  0.4875
 6568SOL    HW326045   1.014   6.062   5.150 -3.7801  1.0208  0.2245
 6568SOL    MW426046   0.996   5.978   5.165  0.4737  0.0479 -0.0015
 6569SOL     OW26047   0.190   3.975   1.919  0.2892  0.2776  0.0646
 6569SOL    HW226048   0.179   4.066   1.946 -0.9228  1.1847 -3.0144
 6569SOL    HW326049   0.281   3.970   1.887  1.3168 -0.4732  2.8363
 6569SOL    MW426050   0.201   3.986   1.918  0.5429  0.1399 -0.1879
 6570SOL     OW26051   3.688   2.158   2.535 -0.0351 -0.9370  0.4975
 6570SOL    HW226052   3.701   2.113   2.618  0.4148  2.0055  2.1781
 6570SOL    HW326053   3.772   2.200   2.517 -0.3844 -0.8249 -1.0302
 6570SOL    MW426054   3.701   2.158   2.544 -0.5369 -0.6009  0.0779
 6571SOL     OW26055   5.591   3.468   2.182  0.0892  0.0443  0.1934
 6571SOL    HW226056   5.647   3.451   2.257  0.0932  0.6565  0.3366
 6571SOL    HW326057   5.618   3.554   2.150 -0.1172 -0.0773 -0.3227
 6571SOL    MW426058   5.602   3.477   2.188  0.7701 -0.4751  0.3396
 6572SOL     OW26059   2.066   1.063   3.615  0.5727 -0.0398 -0.3150
 6572SOL    HW226060   2.100   1.074   3.526  1.3795  1.8169  0.1834
 6572SOL    HW326061   2.127   1.110   3.671  1.1240 -2.6718  1.5119
 6572SOL    MW426062   2.078   1.070   3.611 -0.2031  0.4632  0.7026
 6573SOL     OW26063   0.308   4.244   4.473 -0.1205 -0.1304  0.1756
 6573SOL    HW226064   0.296   4.327   4.519 -1.6126 -0.7465  0.9868
 6573SOL    HW326065   0.266   4.257   4.388 -0.8623 -0.2231  0.5212
 6573SOL    MW426066   0.301   4.257   4.468  0.5811  0.4766 -0.1976
 6574SOL     OW26067   4.256   0.339   5.863  0.2895  0.4108 -0.6372
 6574SOL    HW226068   4.336   0.377   5.827  1.7662 -1.1298  0.8447
 6574SOL    HW326069   4.275   0.245   5.870 -0.6926  0.3218  2.0538
 6574SOL    MW426070   4.269   0.332   5.859  0.0547 -0.0321 -0.2958
 6575SOL     OW26071   0.246   0.329   1.880 -0.6469 -0.0665 -0.0086
 6575SOL    HW226072   0.248   0.368   1.793 -0.3208  0.3247  0.1701
 6575SOL    HW326073   0.229   0.236   1.865  3.1773 -0.8030 -0.7935
 6575SOL    MW426074   0.244   0.322   1.867  0.0395 -0.0062 -0.0296
 6576SOL     OW26075   4.313   6.149   0.766 -0.1456  0.6047 -0.1960
 6576SOL    HW226076   4.218   6.149   0.774 -0.2629  1.9777 -1.1899
 6576SOL    HW326077   4.344   6.095   0.839 -1.6857 -0.1718 -0.0823
 6576SOL    MW426078   4.305   6.142   0.777  0.0437  0.2182  0.1948
 6577SOL     OW26079   3.365   0.187   1.954  0.1819  0.9416 -0.3742
 6577SOL    HW226080   3.272   0.172   1.935 -0.1749  0.4398  1.6170
 6577SOL    HW326081   3.375   0.166   2.047  1.5761  4.2128  0.3558
 6577SOL    MW426082   3.354   0.182   1.964 -0.1833  0.0797  0.3608
 6578SOL     OW26083   2.554   2.754   5.760 -0.0800  0.0958 -0.0219
 6578SOL    HW226084   2.575   2.668   5.797 -1.1774  0.3439  1.2797
 6578SOL    HW326085   2.566   2.744   5.666  1.0214 -1.1180  0.2190
 6578SOL    MW426086   2.559   2.741   5.753  0.0702  0.7440 -0.0831
 6579SOL     OW26087   4.306   3.581   4.014 -0.1841 -0.7834 -0.7627
 6579SOL    HW226088   4.385   3.540   3.977  0.5148  0.4161 -0.6510
 6579SOL    HW326089   4.304   3.668   3.975 -1.4965 -0.8048 -0.7849
 6579SOL    MW426090   4.316   3.587   4.004 -0.0836  0.1578 -0.1294
 6580SOL     OW26091   6.082   2.011   4.500  0.0984  0.5616  0.5793
 6580SOL    HW226092   6.026   2.045   4.431  0.6448  1.4292  0.5471
 6580SOL    HW326093   6.164   2.060   4.491  1.0251 -0.9585  0.3648
 6580SOL    MW426094   6.086   2.022   4.490 -0.2499 -0.1165  0.4578
 6581SOL     OW26095   5.509   5.912   1.702 -0.1983 -0.1800 -0.3189
 6581SOL    HW226096   5.579   5.867   1.656  0.6969 -0.5484  1.3038
 6581SOL    HW326097   5.445   5.844   1.724  1.2015 -0.8130  2.2200
 6581SOL    MW426098   5.510   5.897   1.699 -0.0610 -0.4644  0.3088
 6582SOL     OW26099   1.488   5.812   5.874  0.0057 -0.4295  0.5728
 6582SOL    HW226100   1.444   5.836   5.955  0.7960  0.5733  0.7323
 6582SOL    HW326101   1.426   5.833   5.804 -0.7256 -1.4193  0.9181
 6582SOL    MW426102   1.474   5.818   5.875 -0.2534 -0.4030 -0.1052
 6583SOL     OW26103   3.253   5.918   1.435 -0.2741  0.9160  0.3470
 6583SOL    HW226104   3.311   5.951   1.504  0.9235  0.4938 -0.4109
 6583SOL    HW326105   3.265   5.823   1.438  0.0351  0.9152 -0.6330
 6583SOL    MW426106   3.263   5.909   1.445 -0.3865  0.1531 -0.4071
 6584SOL     OW26107   1.314   0.257   4.567 -1.2927  0.9165  0.4629
 6584SOL    HW226108   1.380   0.255   4.498 -2.7789 -0.1516 -1.0156
 6584SOL    HW326109   1.245   0.315   4.533 -2.6976 -0.7414  0.3545
 6584SOL    MW426110   1.313   0.265   4.554 -0.7613  0.4898  0.1964
 6585SOL     OW26111   1.145   0.272   1.877 -0.8501 -0.5943 -0.3283
 6585SOL    HW226112   1.134   0.267   1.972 -1.0396  0.0627 -0.3106
 6585SOL    HW326113   1.076   0.216   1.842 -0.9589 -0.6138 -0.0860
 6585SOL    MW426114   1.134   0.264   1.885 -0.1286  0.4243 -0.5124
 6586SOL     OW26115   2.036   2.664   0.592  0.0693  0.3055  0.6904
 6586SOL    HW226116   2.128   2.638   0.580  0.0233 -1.2518  2.9700
 6586SOL    HW326117   2.041   2.742   0.647  0.0356  1.0018 -0.2787
 6586SOL    MW426118   2.049   2.671   0.598  0.4318  0.3134  0.4766
 6587SOL     OW26119   1.054   2.659   6.380  0.4489  0.6155 -0.2121
 6587SOL    HW226120   0.977   2.636   6.432  0.8511  0.7863  0.4744
 6587SOL    HW326121   1.042   2.752   6.360  1.4042  1.1521  1.5551
 6587SOL    MW426122   1.042   2.668   6.384  0.2069  0.3413  0.2850
 6588SOL     OW26123   5.988   3.498   5.146  0.5197  0.3909  0.1658
 6588SOL    HW226124   5.996   3.456   5.061 -0.0865  0.3525  0.1218
 6588SOL    HW326125   6.063   3.557   5.151  0.5860  0.3572 -0.3713
 6588SOL    MW426126   5.999   3.500   5.136 -0.3840  0.5896 -0.4792
 6589SOL     OW26127   4.759   4.284   2.680 -0.4711 -0.4238 -0.5341
 6589SOL    HW226128   4.709   4.204   2.696  0.5904 -0.8410  0.8825
 6589SOL    HW326129   4.782   4.317   2.767  0.4180  0.5828 -1.1160
 6589SOL    MW426130   4.756   4.278   2.693  0.5940  0.7377 -0.4194
 6590SOL     OW26131   6.301   2.682   5.240  0.4728  0.6066  0.1577
 6590SOL    HW226132   6.293   2.690   5.145 -1.2184 -0.2154  0.1943
 6590SOL    HW326133   6.388   2.643   5.253  0.2582 -0.3833 -1.1291
 6590SOL    MW426134   6.312   2.678   5.229  0.3910 -0.0819 -0.0326
 6591SOL     OW26135   2.387   3.692   4.984 -0.0047  0.6427  0.2419
 6591SOL    HW226136   2.413   3.782   5.002  0.2964  0.6785 -0.3597
 6591SOL    HW326137   2.416   3.675   4.895  0.3123 -0.1911  0.4851
 6591SOL    MW426138   2.394   3.701   4.975 -0.4018 -0.4287  0.0776
 6592SOL     OW26139   0.422   3.386   6.324  0.3655 -0.8237 -0.2905
 6592SOL    HW226140   0.349   3.379   6.262 -0.2119  0.7457  0.1618
 6592SOL    HW326141   0.500   3.370   6.271  0.0479  2.3318 -1.9394
 6592SOL    MW426142   0.423   3.383   6.309 -0.4514 -0.0145  0.0074
 6593SOL     OW26143   1.709   1.242   5.226  0.2272 -0.5970 -0.3796
 6593SOL    HW226144   1.698   1.325   5.272 -1.6240 -0.6707 -0.6121
 6593SOL    HW326145   1.801   1.220   5.238  0.6757  1.2919  0.0098
 6593SOL    MW426146   1.720   1.250   5.234 -0.1821  0.0050 -1.0284
 6594SOL     OW26147   6.011   5.538   6.020  0.3950  0.5566 -0.2915
 6594SOL    HW226148   5.951   5.611   6.037  0.9199  0.6022  1.6139
 6594SOL    HW326149   5.977   5.466   6.074  2.2467  0.7171  1.1859
 6594SOL    MW426150   5.999   5.538   6.030  0.3345  0.4122  0.0486
 6595SOL     OW26151   4.059   1.088   4.086  0.1969  0.0786 -0.4188
 6595SOL    HW226152   4.106   1.052   4.161  0.3993 -2.0784 -1.5138
 6595SOL    HW326153   4.106   1.169   4.065  1.0796 -0.0891  0.8178
 6595SOL    MW426154   4.071   1.094   4.093  0.2670 -0.5298 -0.6399
 6596SOL     OW26155   4.293   2.704   2.769  0.5064  0.0751  0.3881
 6596SOL    HW226156   4.277   2.791   2.731  1.4709  0.1267  0.0697
 6596SOL    HW326157   4.297   2.719   2.864  2.4845  0.7342  0.2604
 6596SOL    MW426158   4.292   2.717   2.777 -0.0657 -0.2044  0.2026
 6597SOL     OW26159   2.871   0.559   2.579  0.2661  0.5429 -0.3116
 6597SOL    HW226160   2.943   0.517   2.531  1.6207  2.0072  0.3382
 6597SOL    HW326161   2.863   0.507   2.659 -0.0853 -0.2166 -0.8277
 6597SOL    MW426162   2.880   0.546   2.583 -0.4405 -0.2334 -0.4697
 6598SOL     OW26163   5.313   3.254   0.884  0.2080  0.5122 -0.0604
 6598SOL    HW226164   5.249   3.325   0.871 -1.0813  0.1880  3.5439
 6598SOL    HW326165   5.376   3.290   0.946 -1.2596 -1.7297  3.0013
 6598SOL    MW426166   5.313   3.268   0.890  0.2396 -0.6342  0.0751
 6599SOL     OW26167   1.115   1.266   5.595 -0.3090  0.4039  0.3187
 6599SOL    HW226168   1.149   1.181   5.620 -0.6277 -0.0765 -0.8279
 6599SOL    HW326169   1.100   1.312   5.678 -1.2221 -1.0810  1.0115
 6599SOL    MW426170   1.117   1.261   5.609 -0.1327 -0.5274 -0.3095
 6600SOL     OW26171   2.476   0.903   5.666  0.3122  0.1328 -0.4618
 6600SOL    HW226172   2.400   0.874   5.717 -0.3448  0.5845 -1.1418
 6600SOL    HW326173   2.520   0.822   5.641  0.5924 -0.0972  0.7174
 6600SOL    MW426174   2.472   0.889   5.669 -0.4857  0.2033 -0.3838
 6601SOL     OW26175   5.426   2.041   1.636 -0.1155  0.0990 -0.5464
 6601SOL    HW226176   5.398   1.967   1.581 -0.1716  1.1525 -2.0091
 6601SOL    HW326177   5.513   2.016   1.667  0.3412 -0.1595 -1.9278
 6601SOL    MW426178   5.434   2.028   1.633 -0.2804  0.4508 -0.2794
 6602SOL     OW26179   3.995   0.791   5.349  0.3711  0.0475 -0.3437
 6602SOL    HW226180   4.084   0.825   5.363 -0.6428  2.6908  0.3204
 6602SOL    HW326181   3.967   0.762   5.436  0.6693 -1.1460 -0.6236
 6602SOL    MW426182   4.003   0.792   5.362 -0.1954  0.0889 -0.4203
 6603SOL     OW26183   0.256   6.359   2.891 -0.2729  0.1013  0.8278
 6603SOL    HW226184   0.290   6.270   2.896 -1.5446 -0.4810 -0.1446
 6603SOL    HW326185   0.161   6.349   2.890 -0.4658  1.5299  1.4668
 6603SOL    MW426186   0.248   6.346   2.891  0.4294  0.2763 -0.5267
 6604SOL     OW26187   3.598   5.393   1.211 -0.2730 -0.3997 -0.0789
 6604SOL    HW226188   3.579   5.303   1.239  0.6821 -0.2900  0.9964
 6604SOL    HW326189   3.654   5.382   1.134 -2.6684 -0.7035 -1.9031
 6604SOL    MW426190   3.603   5.380   1.204  0.3145 -0.4995  0.6638
 6605SOL     OW26191   6.248   2.239   0.428  0.0925 -0.3917 -0.1696
 6605SOL    HW226192   6.280   2.304   0.492  0.0150 -0.3123 -0.2110
 6605SOL    HW326193   6.162   2.272   0.402  0.3663 -0.1193 -0.7465
 6605SOL    MW426194   6.241   2.252   0.433  0.2913 -0.0551  0.4515
 6606SOL     OW26195   4.505   4.477   0.225  0.4839 -0.2463 -0.7985
 6606SOL    HW226196   4.468   4.562   0.248 -0.9074 -1.7040  3.2607
 6606SOL    HW326197   4.540   4.443   0.308 -2.2616 -5.0846 -1.2310
 6606SOL    MW426198   4.505   4.484   0.239 -0.0193  0.2281 -0.1524
 6607SOL     OW26199   2.964   5.100   1.334  0.0999 -0.5033 -0.0309
 6607SOL    HW226200   2.964   5.005   1.322 -2.1796 -0.4487 -1.0950
 6607SOL    HW326201   2.972   5.135   1.245  1.1155  0.3187  0.3718
 6607SOL    MW426202   2.965   5.092   1.321  0.2853  0.2398  0.1111
 6608SOL     OW26203   1.308   6.222   1.496 -0.6543 -0.4076  0.3988
 6608SOL    HW226204   1.358   6.144   1.474  0.6563  0.3360  0.6304
 6608SOL    HW326205   1.243   6.192   1.560 -1.3868 -1.6441 -0.8724
 6608SOL    MW426206   1.306   6.208   1.502 -0.0506  0.1829  0.0473
 6609SOL     OW26207   2.142   1.258   2.385  0.2547 -0.0960  0.0116
 6609SOL    HW226208   2.104   1.266   2.473  1.3837  0.0344  0.5102
 6609SOL    HW326209   2.234   1.284   2.397  0.4590 -0.2382 -1.1800
 6609SOL    MW426210   2.149   1.262   2.398 -0.6138 -0.6542 -0.4265
 6610SOL     OW26211   2.391   5.735   1.238  0.3327 -0.4560  0.1109
 6610SOL    HW226212   2.451   5.732   1.312  0.5588  1.5846  0.0548
 6610SOL    HW326213   2.435   5.788   1.172 -1.0241  0.0801 -0.4083
 6610SOL    MW426214   2.404   5.741   1.239  0.7155  0.5602 -0.0413
 6611SOL     OW26215   5.221   0.950   0.720  0.1268  0.3155  0.1074
 6611SOL    HW226216   5.160   1.015   0.755  0.6799  0.7860  0.2109
 6611SOL    HW326217   5.251   0.902   0.796 -0.9473 -0.6654 -0.0581
 6611SOL    MW426218   5.217   0.952   0.734  0.4708  0.2069 -0.0307
 6612SOL     OW26219   3.425   5.495   4.034  0.0369 -0.0325  0.6963
 6612SOL    HW226220   3.438   5.401   4.044  0.5252  0.0360  0.6910
 6612SOL    HW326221   3.413   5.527   4.124  0.3153 -0.0302  0.7306
 6612SOL    MW426222   3.425   5.487   4.048 -0.1359 -0.6368  0.1158
 6613SOL     OW26223   6.415   0.370   1.238  0.4144 -0.5951  0.2493
 6613SOL    HW226224   6.388   0.283   1.206 -0.4351 -0.5039  0.6848
 6613SOL    HW326225   6.408   0.363   1.333  2.6984 -0.7930  0.4435
 6613SOL    MW426226   6.410   0.357   1.246 -0.0031 -0.1606 -0.9915
 6614SOL     OW26227   0.484   6.181   0.453  0.0108  0.3509  0.2766
 6614SOL    HW226228   0.487   6.249   0.385  0.4123 -0.2639 -0.3267
 6614SOL    HW326229   0.548   6.116   0.425 -0.5729 -0.4206  0.7112
 6614SOL    MW426230   0.493   6.182   0.440 -0.3993  0.0561  0.0684
 6615SOL     OW26231   5.766   6.254   0.616 -0.0944 -0.3254 -0.2991
 6615SOL    HW226232   5.761   6.325   0.553 -1.8224 -2.2570 -2.5394
 6615SOL    HW326233   5.678   6.217   0.617 -0.1456 -0.5255  3.2390
 6615SOL    MW426234   5.754   6.259   0.608  0.2354 -0.1088 -0.4214
 6616SOL     OW26235   1.584   2.943   5.424 -0.0904 -0.5603  0.3224
 6616SOL    HW226236   1.537   3.006   5.478  1.3866 -0.5267  1.6461
 6616SOL    HW326237   1.672   2.939   5.462  0.2230 -2.5136 -0.4599
 6616SOL    MW426238   1.590   2.951   5.436 -0.2770  0.1740  0.2596
 6617SOL     OW26239   4.700   0.002   4.955 -0.3398  0.0597 -0.6326
 6617SOL    HW226240   4.605   0.002   4.970 -0.3948  0.6103 -0.9296
 6617SOL    HW326241   4.716  -0.075   4.901 -0.7163  0.3170 -1.1235
 6617SOL    MW426242   4.690  -0.008   4.950 -0.0487 -0.2403  0.5588
 6618SOL     OW26243   2.200   2.012   4.552 -0.3251 -0.1791 -0.2671
 6618SOL    HW226244   2.231   2.020   4.462 -0.4706 -0.8080 -0.3730
 6618SOL    HW326245   2.142   2.088   4.564 -1.8454 -1.1207 -1.3327
 6618SOL    MW426246   2.196   2.023   4.542  0.5738 -0.9923  0.0935
 6619SOL     OW26247   1.027   2.465   6.132 -0.0611  0.5753  0.0709
 6619SOL    HW226248   1.065   2.544   6.169  0.5463  1.1815 -1.7470
 6619SOL    HW326249   1.090   2.435   6.067 -0.2706 -1.4369  0.7173
 6619SOL    MW426250   1.040   2.472   6.128  0.2068 -0.1942  0.0534
 6620SOL     OW26251   3.388   3.958   5.816 -0.8179 -0.2965  0.0079
 6620SOL    HW226252   3.446   3.933   5.888  0.7879  0.6565 -0.8918
 6620SOL    HW326253   3.441   3.947   5.737 -2.5450 -1.3697 -1.0710
 6620SOL    MW426254   3.402   3.953   5.815 -0.0771 -0.2408 -0.1519
 6621SOL     OW26255   1.723   0.683   6.259 -0.3348 -0.3373 -0.1280
 6621SOL    HW226256   1.690   0.603   6.300 -0.7909 -1.2706 -2.1836
 6621SOL    HW326257   1.794   0.654   6.203 -0.0908  0.8054 -0.4392
 6621SOL    MW426258   1.728   0.669   6.257 -0.6219  0.4542 -0.0018
 6622SOL     OW26259   1.309   5.643   2.878  0.1278  0.7059 -0.4147
 6622SOL    HW226260   1.272   5.693   2.805 -1.8058  0.3447  0.2512
 6622SOL    HW326261   1.306   5.552   2.849  0.9394  0.7005 -0.5095
 6622SOL    MW426262   1.304   5.638   2.865  0.0737  0.0636 -0.4499
 6623SOL     OW26263   2.165   4.252   2.690  0.0598 -0.1452 -0.1618
 6623SOL    HW226264   2.154   4.343   2.662  0.4687 -0.5112 -1.5964
 6623SOL    HW326265   2.249   4.226   2.653 -0.6723 -1.5140 -0.9414
 6623SOL    MW426266   2.175   4.260   2.682  0.3991  0.5877 -0.2810
 6624SOL     OW26267   3.225   0.672   0.151  0.1978  0.5110  0.3162
 6624SOL    HW226268   3.149   0.620   0.180  1.4782 -0.8003  1.4916
 6624SOL    HW326269   3.187   0.742   0.098 -2.0210  0.9216  2.2531
 6624SOL    MW426270   3.210   0.674   0.148  0.2120 -0.2263 -0.3809
 6625SOL     OW26271   3.483   5.509   0.094  0.2574  0.4119 -0.3204
 6625SOL    HW226272   3.432   5.448   0.147  0.0315 -0.8707 -1.9349
 6625SOL    HW326273   3.421   5.541   0.028  1.0226  0.3824 -1.0682
 6625SOL    MW426274   3.468   5.505   0.092 -0.2555 -0.7204 -0.4707
 6626SOL     OW26275   1.591   1.117   2.008  0.5887  0.2037  0.7235
 6626SOL    HW226276   1.592   1.207   2.038 -1.9582  1.2059 -1.7740
 6626SOL    HW326277   1.500   1.089   2.018  0.1938 -0.3406 -2.9130
 6626SOL    MW426278   1.579   1.125   2.013 -0.2318 -0.3070 -0.1196
 6627SOL     OW26279   0.815   0.102   1.874 -0.3695  0.1851 -0.0171
 6627SOL    HW226280   0.877   0.037   1.842 -1.1396  0.3904 -2.0739
 6627SOL    HW326281   0.811   0.088   1.968  0.9923 -1.3975 -0.1647
 6627SOL    MW426282   0.822   0.092   1.882  0.1858  0.2840 -0.4927
 6628SOL     OW26283   3.649   3.925   2.000 -0.0024 -0.1936  0.1172
 6628SOL    HW226284   3.554   3.913   2.003  0.0818 -0.7757  0.9445
 6628SOL    HW326285   3.672   3.920   1.907 -0.7158 -0.6007 -0.0406
 6628SOL    MW426286   3.640   3.923   1.988  0.0629  0.3313  0.0561
 6629SOL     OW26287   5.361   2.528   0.941 -0.1953  0.0086 -0.2621
 6629SOL    HW226288   5.404   2.518   0.856 -0.4866  0.7438 -0.5064
 6629SOL    HW326289   5.395   2.610   0.976 -0.7779  0.1867 -0.0986
 6629SOL    MW426290   5.371   2.538   0.934 -0.2565  0.1202 -0.0630
 6630SOL     OW26291   2.062   3.639   3.095 -0.2690 -0.1619 -0.9865
 6630SOL    HW226292   2.095   3.563   3.143 -2.2406 -1.1872 -1.1405
 6630SOL    HW326293   2.103   3.714   3.137  0.4625 -1.2102  0.2496
 6630SOL    MW426294   2.072   3.639   3.107 -0.2933  0.5194 -0.4826
 6631SOL     OW26295   1.408   4.401   2.061  0.2349 -0.0011 -0.4886
 6631SOL    HW226296   1.428   4.324   2.115 -1.2197  0.1049  0.2713
 6631SOL    HW326297   1.376   4.465   2.124  0.4928  0.8806 -1.2440
 6631SOL    MW426298   1.406   4.399   2.077 -0.0807  0.4924  0.4944
 6632SOL     OW26299   0.780   2.972   5.806 -0.1355 -0.2294  0.5111
 6632SOL    HW226300   0.755   3.053   5.849  2.6170  0.9291  0.1256
 6632SOL    HW326301   0.862   2.993   5.760 -0.3600 -2.7028 -1.2330
 6632SOL    MW426302   0.788   2.985   5.806  0.4096  0.3607 -0.4010
 6633SOL     OW26303   5.529   2.964   0.921 -0.2967 -0.1799  0.3312
 6633SOL    HW226304   5.483   2.948   0.838  1.1257 -0.8784 -0.3606
 6633SOL    HW326305   5.520   2.881   0.968  1.9836 -1.1127 -0.7174
 6633SOL    MW426306   5.522   2.951   0.916 -0.0226  0.1025  0.4226
 6634SOL     OW26307   2.505   4.003   4.737 -0.3624  0.1340  0.3104
 6634SOL    HW226308   2.530   3.943   4.667  1.3909  0.3772  0.6971
 6634SOL    HW326309   2.567   3.985   4.808 -3.2986 -1.5532  2.6919
 6634SOL    MW426310   2.516   3.993   4.737  0.4267  0.1991  0.1094
 6635SOL     OW26311   3.658   0.531   3.334  0.1114  0.6228  0.1847
 6635SOL    HW226312   3.618   0.615   3.357  0.5722  1.0213 -0.4499
 6635SOL    HW326313   3.750   0.551   3.320  0.2605 -0.0261  0.1797
 6635SOL    MW426314   3.665   0.544   3.335 -0.5616 -0.4460 -0.0487
 6636SOL     OW26315   6.329   2.154   4.455  0.2804  0.3379  0.8568
 6636SOL    HW226316   6.315   2.223   4.391 -1.3664 -0.7889 -0.0802
 6636SOL    HW326317   6.405   2.183   4.506  2.0980  0.9775 -1.9915
 6636SOL    MW426318   6.337   2.167   4.454 -0.0911  0.1608  0.4919
 6637SOL     OW26319   4.055   3.570   5.934  0.4092 -0.2087  0.3040
 6637SOL    HW226320   4.106   3.631   5.880 -0.6437  2.3922  2.0122
 6637SOL    HW326321   4.108   3.490   5.937  3.5240  1.6812  0.4941
 6637SOL    MW426322   4.069   3.568   5.927  0.1086 -0.4297 -0.0799
 6638SOL     OW26323   2.194   0.895   1.953 -0.3786  0.0178  0.0537
 6638SOL    HW226324   2.144   0.977   1.957  1.6627  1.3010  0.7825
 6638SOL    HW326325   2.252   0.898   2.029  1.1167 -1.1599 -0.9662
 6638SOL    MW426326   2.195   0.906   1.963 -0.3151  0.0490  0.0960
 6639SOL     OW26327   5.852   0.934   3.115  0.6228 -0.1062 -0.5880
 6639SOL    HW226328   5.934   0.962   3.074  0.7883  0.0651 -0.1467
 6639SOL    HW326329   5.784   0.975   3.062  0.8095 -0.4174 -1.0852
 6639SOL    MW426330   5.854   0.943   3.102 -0.3843 -0.0524 -0.0081
 6640SOL     OW26331   3.469   1.193   1.663 -0.1642 -0.0722 -0.4436
 6640SOL    HW226332   3.555   1.173   1.626  0.2373 -0.4758  0.6710
 6640SOL    HW326333   3.488   1.237   1.746 -1.0216 -0.8979  0.2102
 6640SOL    MW426334   3.483   1.196   1.669  0.3093 -0.1253 -0.1565
 6641SOL     OW26335   0.731   3.214   3.270  0.3006 -0.5474 -0.0041
 6641SOL    HW226336   0.663   3.195   3.334 -0.3721  1.0696 -0.1731
 6641SOL    HW326337   0.782   3.134   3.264 -0.4342 -1.1762  1.5494
 6641SOL    MW426338   0.729   3.201   3.278 -0.7120  0.0410  0.6160
 6642SOL     OW26339   3.933   4.385   1.298  0.5670  0.2899  0.6416
 6642SOL    HW226340   3.866   4.440   1.338 -0.2170 -1.0200  1.1973
 6642SOL    HW326341   4.012   4.404   1.349  0.9899  2.6967 -0.7362
 6642SOL    MW426342   3.935   4.395   1.310 -0.2514  0.4098  0.0544
 6643SOL     OW26343   1.304   1.341   3.891  0.2311 -0.4901  0.3368
 6643SOL    HW226344   1.330   1.423   3.932  0.5116 -0.8590  0.9027
 6643SOL    HW326345   1.244   1.367   3.821  1.7949  0.3576 -0.7504
 6643SOL    MW426346   1.300   1.355   3.887  0.1522 -0.0558 -0.2484
 6644SOL     OW26347   2.097   1.946   5.037  0.3071 -0.0649  0.0232
 6644SOL    HW226348   2.124   1.856   5.022 -0.0171 -0.0179 -0.9785
 6644SOL    HW326349   2.090   1.954   5.132  2.7435 -0.3653  0.2798
 6644SOL    MW426350   2.099   1.935   5.047 -0.5326  0.4592 -0.5625
 6645SOL     OW26351   6.345   5.739   5.266 -0.3189  0.2079  0.0803
 6645SOL    HW226352   6.375   5.661   5.312 -2.8555 -1.4770 -0.8523
 6645SOL    HW326353   6.417   5.763   5.208  1.0749 -0.5424  1.4626
 6645SOL    MW426354   6.358   5.731   5.264  0.0756 -0.1763  0.2660
 6646SOL     OW26355   4.937   4.628   5.526 -0.4066  0.2721  0.3160
 6646SOL    HW226356   4.861   4.592   5.572 -1.2433  1.6360  0.0611
 6646SOL    HW326357   4.984   4.678   5.594 -0.0842 -0.0549  0.3327
 6646SOL    MW426358   4.933   4.630   5.541  0.4465  0.2630  0.0462
 6647SOL     OW26359   2.535   2.885   5.220  0.3137 -0.1680 -0.4154
 6647SOL    HW226360   2.469   2.816   5.212  2.1238 -1.8645 -1.9465
 6647SOL    HW326361   2.516   2.946   5.149 -0.6031  0.2955  0.2185
 6647SOL    MW426362   2.524   2.884   5.210  0.6473  0.0282 -0.1248
 6648SOL     OW26363   6.304   3.134   0.882 -0.3357 -0.0104 -0.0683
 6648SOL    HW226364   6.292   3.065   0.948 -0.5427  0.0853 -0.0051
 6648SOL    HW326365   6.341   3.089   0.806  2.3517  0.2564  0.9551
 6648SOL    MW426366   6.308   3.119   0.881 -0.6474  0.0728 -0.7856
 6649SOL     OW26367   1.930   4.995   2.863 -0.0424  0.6756 -0.3751
 6649SOL    HW226368   1.960   4.991   2.954 -1.5170 -0.4250  0.1065
 6649SOL    HW326369   1.862   5.062   2.864 -0.2009  0.5165 -0.6232
 6649SOL    MW426370   1.925   5.003   2.875  0.6786  0.2114  0.1661
 6650SOL     OW26371   5.940   4.381   5.741  0.6260  0.3713  0.7595
 6650SOL    HW226372   5.918   4.358   5.831 -0.7325 -1.9052 -0.0681
 6650SOL    HW326373   5.856   4.403   5.700  1.0460  0.1372 -0.2683
 6650SOL    MW426374   5.926   4.381   5.748  0.3297 -0.5670  0.3260
 6651SOL     OW26375   1.992   5.836   2.497  0.3624  0.4654  0.4942
 6651SOL    HW226376   2.065   5.894   2.518 -0.2428  0.9703  1.2463
 6651SOL    HW326377   1.941   5.884   2.432  1.0693 -0.1949 -0.5879
 6651SOL    MW426378   1.995   5.850   2.491  0.3009 -0.3997 -0.2262
 6652SOL     OW26379   0.487   4.749   4.764  0.7489 -0.1022 -0.5822
 6652SOL    HW226380   0.405   4.745   4.813  1.2960 -1.8746  0.2442
 6652SOL    HW326381   0.460   4.753   4.672 -0.2623 -1.0948 -0.3402
 6652SOL    MW426382   0.473   4.749   4.758  0.0211  0.1765  0.1598
 6653SOL     OW26383   1.279   5.850   5.685 -0.1158  0.4039  0.0950
 6653SOL    HW226384   1.199   5.898   5.664  1.9857  3.6364 -1.3877
 6653SOL    HW326385   1.304   5.808   5.603  0.2949  0.3593  0.2389
 6653SOL    MW426386   1.272   5.851   5.671 -0.3843  0.3649  0.3099
 6654SOL     OW26387   4.267   2.372   5.922  0.1380  0.2279 -0.2809
 6654SOL    HW226388   4.175   2.353   5.941 -0.1165  0.8655 -0.8212
 6654SOL    HW326389   4.310   2.373   6.008 -0.1229 -1.2117 -0.1209
 6654SOL    MW426390   4.261   2.370   5.936 -0.0218 -0.4164  0.1527
 6655SOL     OW26391   1.804   0.184   2.364  0.1360  0.0829 -0.4949
 6655SOL    HW226392   1.842   0.145   2.285  0.8266  1.8251 -1.0710
 6655SOL    HW326393   1.766   0.267   2.334  0.1291  0.6294  0.9502
 6655SOL    MW426394   1.804   0.190   2.349  0.1829  0.1673 -0.6880
 6656SOL     OW26395   5.849   0.218   6.181  0.2995 -0.0948  0.6984
 6656SOL    HW226396   5.904   0.262   6.116  0.0979 -0.2685  0.4070
 6656SOL    HW326397   5.902   0.215   6.260  0.2366  0.8523  0.7773
 6656SOL    MW426398   5.863   0.223   6.182  0.1035  0.7780 -0.4127
 6657SOL     OW26399   0.285   0.322   2.578  0.1981  0.5808 -0.1425
 6657SOL    HW226400   0.193   0.300   2.586  0.0846  1.5212  1.5039
 6657SOL    HW326401   0.331   0.248   2.618  0.0764  0.8348  0.4739
 6657SOL    MW426402   0.279   0.309   2.584  0.0046 -0.0752  0.6717
 6658SOL     OW26403   4.608   2.031   4.887 -0.7391  0.2110  0.0136
 6658SOL    HW226404   4.633   2.122   4.902 -0.5901  0.2206 -0.2929
 6658SOL    HW326405   4.645   1.983   4.961  0.1586  0.2248 -0.4223
 6658SOL    MW426406   4.616   2.037   4.899 -0.3546  0.1807  0.1021
 6659SOL     OW26407   1.613   2.021   0.582 -0.3575  0.5988  0.8677
 6659SOL    HW226408   1.647   2.088   0.523 -0.3661  0.5560  0.8130
 6659SOL    HW326409   1.670   1.945   0.567  0.6390  1.0796  2.0659
 6659SOL    MW426410   1.625   2.020   0.572  0.1860 -0.5061 -0.0541
 6660SOL     OW26411   5.208   3.948   3.902  0.7890  0.3691 -0.7754
 6660SOL    HW226412   5.159   4.002   3.840  0.3080  0.5773 -0.2220
 6660SOL    HW326413   5.208   3.998   3.984  1.2136 -0.0079 -0.5386
 6660SOL    MW426414   5.201   3.962   3.905 -0.0712  0.0765  0.2422
 6661SOL     OW26415   2.908   5.845   3.396 -0.7868 -0.1447  0.1655
 6661SOL    HW226416   2.934   5.754   3.386 -1.2454 -0.1180 -1.6316
 6661SOL    HW326417   2.825   5.852   3.348 -1.3962  0.9509  1.3082
 6661SOL    MW426418   2.901   5.834   3.388  0.1742 -0.1679  0.2856
 6662SOL     OW26419   0.772   6.024   0.041 -0.0759 -0.3758 -0.2037
 6662SOL    HW226420   0.763   6.045   0.134 -0.6470  2.0224 -0.7307
 6662SOL    HW326421   0.811   5.936   0.040  1.9325  0.3576  2.2852
 6662SOL    MW426422   0.776   6.015   0.053  0.5447  0.5841  0.5229
 6663SOL     OW26423   0.075   4.164   2.619 -1.0063 -0.4197  0.6927
 6663SOL    HW226424   0.095   4.204   2.534  0.2267 -0.7880  0.7908
 6663SOL    HW326425   0.105   4.073   2.611 -1.4638 -0.6327  1.3103
 6663SOL    MW426426   0.082   4.157   2.607  0.3225 -0.7325  0.2910
 6664SOL     OW26427   5.548   5.757   0.947 -0.4764  0.3525 -0.5430
 6664SOL    HW226428   5.499   5.753   1.029  1.0945  0.4604  0.4320
 6664SOL    HW326429   5.555   5.666   0.918  0.0529  0.1732  0.1256
 6664SOL    MW426430   5.543   5.744   0.954  0.0118  0.1610  0.0681
 6665SOL     OW26431   3.962   4.420   4.147  0.4360  0.2836 -0.1167
 6665SOL    HW226432   3.988   4.430   4.238 -1.3294  1.4549  0.3043
 6665SOL    HW326433   4.044   4.425   4.097  1.0840  4.0753  1.0727
 6665SOL    MW426434   3.976   4.422   4.152  0.0684  0.1426 -0.3744
 6666SOL     OW26435   5.141   1.844   5.275 -0.1610  0.0240  0.2212
 6666SOL    HW226436   5.067   1.815   5.221  2.2208 -2.7271 -1.8878
 6666SOL    HW326437   5.179   1.763   5.309  2.2349  1.2699  0.7025
 6666SOL    MW426438   5.136   1.829   5.272  0.0173 -0.2886 -0.1450
 6667SOL     OW26439   5.994   0.220   4.849  0.0797 -0.0403  0.9206
 6667SOL    HW226440   6.014   0.140   4.897  1.4509  0.1739  0.7467
 6667SOL    HW326441   6.014   0.199   4.758  0.0325  0.3739  0.8146
 6667SOL    MW426442   5.999   0.207   4.843  0.2876 -0.0217  0.1361
 6668SOL     OW26443   5.834   3.160   4.434 -0.2886 -0.2523 -0.6181
 6668SOL    HW226444   5.799   3.247   4.456  0.0408 -0.3634  0.3525
 6668SOL    HW326445   5.866   3.125   4.516 -0.8281 -1.4931 -0.9174
 6668SOL    MW426446   5.833   3.167   4.447  0.3299 -0.7288  0.0356
 6669SOL     OW26447   5.388   2.342   3.461  0.3744  0.2770 -0.0878
 6669SOL    HW226448   5.344   2.416   3.419 -0.3174  0.8220  1.5223
 6669SOL    HW326449   5.465   2.379   3.503 -0.9465  0.5362  2.3246
 6669SOL    MW426450   5.392   2.356   3.461 -0.0374  0.2821  0.0010
 6670SOL     OW26451   3.307   1.255   0.790 -0.6332 -0.3683  0.2108
 6670SOL    HW226452   3.263   1.210   0.862  1.4689 -2.1150  0.5190
 6670SOL    HW326453   3.279   1.207   0.711 -1.4332  0.3123  0.0736
 6670SOL    MW426454   3.297   1.242   0.789 -0.3064  0.0134 -0.1269
 6671SOL     OW26455   4.519   1.143   2.248 -0.1427  0.3371 -0.3348
 6671SOL    HW226456   4.434   1.099   2.242  0.6023 -1.3724  0.6888
 6671SOL    HW326457   4.514   1.195   2.328 -0.5969  1.1599 -0.8846
 6671SOL    MW426458   4.507   1.144   2.258 -0.3561  0.1417  0.0317
 6672SOL     OW26459   6.351   3.836   5.180 -0.0465  0.3813 -0.0756
 6672SOL    HW226460   6.356   3.868   5.270 -1.1456 -2.4968  1.1525
 6672SOL    HW326461   6.430   3.783   5.169 -0.2372  0.1928 -0.5661
 6672SOL    MW426462   6.362   3.833   5.191  0.2937  0.4154  0.1061
 6673SOL     OW26463   0.609   2.429   6.252 -0.1118 -0.0066 -0.6572
 6673SOL    HW226464   0.587   2.450   6.161  0.8099  1.6254 -0.5418
 6673SOL    HW326465   0.528   2.446   6.301 -0.4287 -0.2879 -1.0791
 6673SOL    MW426466   0.595   2.434   6.247  0.3440  0.3276  0.9531
 6674SOL     OW26467   1.686   3.823   0.746 -0.4387  0.0117  0.7672
 6674SOL    HW226468   1.664   3.916   0.736 -0.3447 -0.1659 -1.6373
 6674SOL    HW326469   1.752   3.807   0.679 -1.4293 -2.1072  0.2442
 6674SOL    MW426470   1.692   3.833   0.736 -0.0796  0.0414  0.7390
 6675SOL     OW26471   2.008   0.350   3.352  0.4423  0.3541  0.4455
 6675SOL    HW226472   1.926   0.389   3.382  0.8766  1.2441  0.5175
 6675SOL    HW326473   2.000   0.257   3.374 -0.3595  0.5097  0.8499
 6675SOL    MW426474   1.996   0.343   3.359 -0.0353  0.3440 -0.4971
 6676SOL     OW26475   2.856   1.917   2.222 -0.1393  0.0341  0.1217
 6676SOL    HW226476   2.819   1.925   2.134 -1.3303  2.2347  0.7498
 6676SOL    HW326477   2.950   1.926   2.210 -0.0635 -1.8949 -1.1162
 6676SOL    MW426478   2.863   1.920   2.209 -1.0999  0.3333 -0.3411
 6677SOL     OW26479   4.668   1.538   5.348 -0.8783  0.0997 -0.3123
 6677SOL    HW226480   4.596   1.555   5.408 -0.5539 -0.2247  0.1762
 6677SOL    HW326481   4.637   1.465   5.294 -1.4115  0.7937 -0.9575
 6677SOL    MW426482   4.654   1.531   5.349  0.3922 -0.6241 -0.0354
 6678SOL     OW26483   0.468   2.326   4.265  0.0792 -0.6975 -0.1667
 6678SOL    HW226484   0.558   2.293   4.267 -0.1736 -1.4609 -0.8473
 6678SOL    HW326485   0.478   2.422   4.267  0.8993 -0.7759 -0.0271
 6678SOL    MW426486   0.482   2.335   4.265  0.4253  0.3502 -0.0184
 6679SOL     OW26487   1.721   2.389   3.688 -0.0832 -0.0213 -0.1747
 6679SOL    HW226488   1.800   2.410   3.639 -0.2070  0.0959 -0.3263
 6679SOL    HW326489   1.657   2.363   3.621  0.3650 -1.8861  0.0720
 6679SOL    MW426490   1.723   2.388   3.672 -0.2791 -0.2831 -0.0430
 6680SOL     OW26491   1.602   2.958   4.877  0.3623  0.1432  0.0243
 6680SOL    HW226492   1.600   2.974   4.972  1.1157  1.0038 -0.0800
 6680SOL    HW326493   1.690   2.988   4.851  0.1756 -0.1398 -0.9315
 6680SOL    MW426494   1.614   2.964   4.886  0.5959  0.8709  0.2464
 6681SOL     OW26495   0.514   5.821   0.259  0.2114  0.0884 -0.0017
 6681SOL    HW226496   0.473   5.884   0.318  3.2188  1.3892  0.8730
 6681SOL    HW326497   0.508   5.862   0.172  0.8360  0.9261  0.3378
 6681SOL    MW426498   0.508   5.835   0.255  0.1789 -0.3480 -0.3294
 6682SOL     OW26499   5.490   1.559   5.196  0.3646 -0.0885 -0.2706
 6682SOL    HW226500   5.570   1.521   5.160  1.2224  1.1270  0.2814
 6682SOL    HW326501   5.508   1.653   5.201 -1.2454  0.2624 -0.4992
 6682SOL    MW426502   5.503   1.566   5.192  0.0455  0.0293  0.6136
 6683SOL     OW26503   2.674   4.342   5.149 -0.1330 -0.0963  0.0955
 6683SOL    HW226504   2.692   4.412   5.212  0.7077  0.1753 -0.4321
 6683SOL    HW326505   2.623   4.384   5.080  0.7586  0.1212 -0.4473
 6683SOL    MW426506   2.670   4.357   5.148 -0.2016 -0.9849  0.8007
 6684SOL     OW26507   4.382   5.377   2.803 -0.1946 -0.1149  0.5674
 6684SOL    HW226508   4.307   5.426   2.771 -0.1072 -0.2588  0.1287
 6684SOL    HW326509   4.424   5.435   2.866 -0.4051  0.1542  0.4597
 6684SOL    MW426510   4.378   5.391   2.807 -0.0940 -0.4669  0.4628
 6685SOL     OW26511   1.245   3.109   6.360  0.3605  0.0394 -0.1905
 6685SOL    HW226512   1.320   3.050   6.349  1.7828  2.0199 -2.0717
 6685SOL    HW326513   1.246   3.163   6.281 -2.9770  0.3112 -0.1769
 6685SOL    MW426514   1.255   3.108   6.348  0.4296  0.5762  0.0523
 6686SOL     OW26515   4.694   3.914   0.061 -0.0742  0.4710 -0.7837
 6686SOL    HW226516   4.608   3.874   0.048  0.1604  0.5577 -2.9853
 6686SOL    HW326517   4.756   3.846   0.035  0.4972  0.7131 -0.0840
 6686SOL    MW426518   4.691   3.900   0.056  0.3047 -0.1338  0.0271
 6687SOL     OW26519   1.161   4.528   6.393  0.0103  0.2640 -0.1538
 6687SOL    HW226520   1.216   4.462   6.436  0.9230  1.6578  0.9020
 6687SOL    HW326521   1.073   4.490   6.393  0.5381 -1.0337  0.2279
 6687SOL    MW426522   1.157   4.514   6.398 -0.1086  0.2474  0.0359
 6688SOL     OW26523   2.238   2.736   3.830  0.2683  0.2636  0.1078
 6688SOL    HW226524   2.307   2.749   3.896  0.1560 -0.4554  0.3792
 6688SOL    HW326525   2.241   2.815   3.777  0.5480  0.7350  0.8087
 6688SOL    MW426526   2.248   2.748   3.831  0.3511 -0.1320 -0.1326
 6689SOL     OW26527   5.758   4.409   4.541 -0.0328 -0.0508  0.0895
 6689SOL    HW226528   5.702   4.335   4.565 -0.1694  0.4286  1.3920
 6689SOL    HW326529   5.700   4.485   4.547  0.0035  0.1388 -1.6209
 6689SOL    MW426530   5.743   4.410   4.545 -0.0275  0.1269 -0.0717
 6690SOL     OW26531   5.365   3.544   5.601 -0.3097  0.2020 -0.3308
 6690SOL    HW226532   5.375   3.588   5.517  0.6917 -0.2643 -0.4793
 6690SOL    HW326533   5.449   3.557   5.645  0.2099 -1.9225 -0.5772
 6690SOL    MW426534   5.378   3.551   5.596  0.0583  0.9313 -0.0616
 6691SOL     OW26535   1.770   4.796   0.372 -0.3937 -0.0038 -0.0573
 6691SOL    HW226536   1.794   4.713   0.412 -0.9312  0.5479  1.4765
 6691SOL    HW326537   1.700   4.774   0.311  1.3216 -1.0497 -1.7774
 6691SOL    MW426538   1.764   4.783   0.369  0.3487  0.5144  0.9748
 6692SOL     OW26539   3.283   5.900   0.632 -0.0323  0.3718  0.4394
 6692SOL    HW226540   3.341   5.945   0.571  0.3422  1.2855  1.4607
 6692SOL    HW326541   3.321   5.914   0.718 -0.4724 -1.0303  0.8995
 6692SOL    MW426542   3.295   5.907   0.635 -0.8319  0.4467 -0.1486
 6693SOL     OW26543   6.137   5.557   5.138 -0.2537  0.0609  0.0725
 6693SOL    HW226544   6.212   5.521   5.091 -1.7346  0.3093 -2.7019
 6693SOL    HW326545   6.168   5.642   5.170  0.9922 -0.3543  0.0304
 6693SOL    MW426546   6.151   5.564   5.136  0.3056  0.3809  0.1647
 6694SOL     OW26547   0.395   0.693   1.847  0.1239  0.3081  0.1275
 6694SOL    HW226548   0.462   0.758   1.824 -1.0917  1.3436 -0.6208
 6694SOL    HW326549   0.445   0.614   1.867  1.5427  0.8013 -1.2069
 6694SOL    MW426550   0.411   0.691   1.846 -0.3545 -0.9390  0.3025
 6695SOL     OW26551   1.350   3.798   4.233 -0.1677  0.0419 -0.0444
 6695SOL    HW226552   1.373   3.874   4.287  0.0925  1.3921 -1.9558
 6695SOL    HW326553   1.280   3.830   4.176 -0.3902 -1.3191 -0.5661
 6695SOL    MW426554   1.344   3.812   4.233 -0.5071  0.4435 -0.6427
 6696SOL     OW26555   2.960   2.532   0.411  0.2202  0.1710 -0.1330
 6696SOL    HW226556   2.980   2.615   0.455 -0.0761 -0.8204  2.0056
 6696SOL    HW326557   3.018   2.468   0.453  1.2270 -0.5711 -2.4962
 6696SOL    MW426558   2.971   2.534   0.423 -0.6292  0.0870 -0.3899
 6697SOL     OW26559   5.172   0.936   4.240 -0.0815 -0.3420  0.1655
 6697SOL    HW226560   5.155   0.972   4.153 -1.2297  0.6592  0.7703
 6697SOL    HW326561   5.263   0.957   4.258  0.9628 -2.7186 -1.7511
 6697SOL    MW426562   5.181   0.943   4.231  0.7205  0.1752  0.4720
 6698SOL     OW26563   5.594   5.101   1.645 -0.0660  0.0646 -0.1909
 6698SOL    HW226564   5.629   5.093   1.557 -0.7691 -0.7538 -0.4017
 6698SOL    HW326565   5.668   5.134   1.697  0.1234  1.3708 -1.2269
 6698SOL    MW426566   5.608   5.104   1.640 -0.2631 -0.3168  0.0585
 6699SOL     OW26567   4.291   2.945   6.353  0.1996 -0.1565  0.2885
 6699SOL    HW226568   4.212   2.995   6.372 -0.2806 -1.4161  1.8562
 6699SOL    HW326569   4.362   2.999   6.387 -0.1270  0.3216  0.2162
 6699SOL    MW426570   4.290   2.959   6.360 -0.0084 -0.3712 -0.2138
 6700SOL     OW26571   4.485   4.372   5.188 -0.0125 -0.1254  0.0906
 6700SOL    HW226572   4.477   4.437   5.258  1.8197  1.2009 -0.8458
 6700SOL    HW326573   4.478   4.423   5.107 -0.7475 -1.4408 -0.7077
 6700SOL    MW426574   4.483   4.388   5.186 -0.2542  0.0490  0.0822
 6701SOL     OW26575   3.833   4.794   1.231  0.0787 -0.2731  0.0108
 6701SOL    HW226576   3.873   4.879   1.248  1.4402 -1.3097  2.5518
 6701SOL    HW326577   3.902   4.743   1.189 -0.5937 -0.2830 -1.1133
 6701SOL    MW426578   3.848   4.799   1.228  0.0646 -0.5713  0.0226
 6702SOL     OW26579   2.853   3.295   4.937  0.3003  0.0456 -0.4301
 6702SOL    HW226580   2.849   3.390   4.942 -1.7271  0.1666 -2.7864
 6702SOL    HW326581   2.939   3.276   4.900 -0.2649  1.1675 -2.4350
 6702SOL    MW426582   2.864   3.305   4.933 -0.3951  0.2941 -0.2804
 6703SOL     OW26583   2.813   3.196   5.954 -0.1270 -0.3673 -0.4489
 6703SOL    HW226584   2.864   3.266   5.996 -0.5844  0.6402 -1.4803
 6703SOL    HW326585   2.878   3.147   5.903  0.0240  0.0766 -0.6910
 6703SOL    MW426586   2.829   3.199   5.953  0.1698  0.6372 -0.0688
 6704SOL     OW26587   2.723   3.743   2.334 -0.2697 -0.0035  0.2553
 6704SOL    HW226588   2.782   3.766   2.406  0.1289  0.6937 -0.2858
 6704SOL    HW326589   2.637   3.737   2.375  0.2439 -1.6714  1.1797
 6704SOL    MW426590   2.720   3.745   2.349  0.1106 -0.2822 -0.1473
 6705SOL     OW26591   5.669   3.722   3.294 -0.3647 -0.1991  0.4422
 6705SOL    HW226592   5.764   3.713   3.309 -0.2098  0.2444 -0.2262
 6705SOL    HW326593   5.638   3.632   3.284  0.4776 -0.2827 -2.1197
 6705SOL    MW426594   5.678   3.709   3.295 -0.0003  0.3337 -0.0137
 6706SOL     OW26595   0.943   1.906   4.589  0.1451 -0.2255  0.1213
 6706SOL    HW226596   0.967   1.946   4.505  0.3869  0.8204  0.6744
 6706SOL    HW326597   1.023   1.863   4.619  0.5129  0.7118  0.5333
 6706SOL    MW426598   0.956   1.906   4.582 -0.6533  0.5235 -0.3318
 6707SOL     OW26599   3.953   5.861   0.261 -0.0733  0.9664  0.3830
 6707SOL    HW226600   4.025   5.803   0.283 -0.3290 -0.3622 -1.9674
 6707SOL    HW326601   3.995   5.943   0.234  0.5071  0.5132 -0.0938
 6707SOL    MW426602   3.968   5.864   0.261 -0.1785  0.1973 -0.0171
 6708SOL     OW26603   1.646   0.293   0.777  0.1537 -0.2710  0.1613
 6708SOL    HW226604   1.669   0.309   0.869 -1.0193 -1.8969  0.7744
 6708SOL    HW326605   1.584   0.220   0.780  1.1184 -1.2596 -2.0303
 6708SOL    MW426606   1.641   0.286   0.790 -0.1880  0.6373  0.2904
 6709SOL     OW26607   1.936   0.790   4.452  0.4091  0.5192  0.0640
 6709SOL    HW226608   1.845   0.818   4.451 -0.1902 -1.3036 -0.1396
 6709SOL    HW326609   1.945   0.738   4.531  1.3071  0.7516  0.1278
 6709SOL    MW426610   1.925   0.787   4.462 -0.1520 -0.2409  0.1998
 6710SOL     OW26611   2.384   0.092   3.132  0.0030 -0.7418 -0.1921
 6710SOL    HW226612   2.365   0.002   3.103  1.1171 -0.8087 -0.7675
 6710SOL    HW326613   2.379   0.144   3.052 -1.8087 -0.0657  0.3240
 6710SOL    MW426614   2.381   0.087   3.118  0.3720 -0.5069  0.2996
 6711SOL     OW26615   0.644   0.585   4.423 -0.2994 -0.0116  0.1531
 6711SOL    HW226616   0.634   0.504   4.472 -0.5296  1.8492  3.4485
 6711SOL    HW326617   0.571   0.639   4.450  2.2389  2.9633  1.7275
 6711SOL    MW426618   0.633   0.581   4.433  0.4733  0.5057  0.3344
 6712SOL     OW26619   3.173   0.767   0.698  0.1179  0.5568 -0.0869
 6712SOL    HW226620   3.154   0.851   0.738 -2.4583 -0.0265  0.0799
 6712SOL    HW326621   3.170   0.783   0.603  1.5867  0.9999 -0.0814
 6712SOL    MW426622   3.170   0.780   0.690  0.2820 -0.4278  0.0837
 6713SOL     OW26623   4.765   5.755   1.085  0.0267  0.1667 -0.6477
 6713SOL    HW226624   4.747   5.797   1.169  1.9037  0.0107 -0.1332
 6713SOL    HW326625   4.858   5.733   1.088 -0.4218 -2.2185 -1.7207
 6713SOL    MW426626   4.775   5.758   1.096  0.3765  0.2619  0.4349
 6714SOL     OW26627   4.299   3.138   1.563  0.4522 -0.1911  0.3192
 6714SOL    HW226628   4.317   3.106   1.474  0.2607  3.1901 -1.0848
 6714SOL    HW326629   4.225   3.198   1.552  0.7650  0.7400  2.6815
 6714SOL    MW426630   4.291   3.142   1.550 -0.0443  0.4991 -0.0197
 6715SOL     OW26631   0.458   4.747   2.232 -0.1121  0.1047 -0.0072
 6715SOL    HW226632   0.415   4.819   2.279  0.6872  0.8837 -0.4434
 6715SOL    HW326633   0.539   4.785   2.198  1.2532 -1.4768  1.3156
 6715SOL    MW426634   0.463   4.762   2.234 -0.6035  0.1092  1.0595
 6716SOL     OW26635   5.349   3.201   1.646 -0.2375  0.0051 -0.2743
 6716SOL    HW226636   5.443   3.214   1.661 -0.1432 -0.7814 -0.1016
 6716SOL    HW326637   5.346   3.140   1.572 -0.5840 -0.6234  0.2443
 6716SOL    MW426638   5.361   3.195   1.638  0.0206  0.0876 -0.1618
 6717SOL     OW26639   0.816   5.365   6.329 -0.0864  0.0891 -0.8010
 6717SOL    HW226640   0.778   5.432   6.273  1.2860  0.2651 -1.5469
 6717SOL    HW326641   0.887   5.328   6.278 -0.1143 -1.1768  0.0352
 6717SOL    MW426642   0.820   5.369   6.315  0.6434 -0.0003 -0.3004
 6718SOL     OW26643   4.795   3.562   5.249 -0.1548  0.3688  0.4791
 6718SOL    HW226644   4.726   3.558   5.315  0.5976 -1.6038  1.2007
 6718SOL    HW326645   4.749   3.551   5.166 -0.7305 -0.8280  0.9386
 6718SOL    MW426646   4.780   3.560   5.247 -0.1742  0.2613 -0.7662
 6719SOL     OW26647   3.734   1.129   2.866  0.1567  0.4859  0.0710
 6719SOL    HW226648   3.660   1.184   2.841 -1.1940 -1.8107 -1.3534
 6719SOL    HW326649   3.768   1.095   2.783  0.4726 -1.3416  0.8959
 6719SOL    MW426650   3.729   1.132   2.852 -0.2658 -0.9788 -0.0982
 6720SOL     OW26651   1.421   5.377   5.856 -0.3225  0.3478  0.1005
 6720SOL    HW226652   1.392   5.437   5.925  0.1703  0.4576  0.2150
 6720SOL    HW326653   1.419   5.430   5.776 -2.4879 -0.2201 -0.2801
 6720SOL    MW426654   1.417   5.392   5.855  0.1545 -0.0899 -0.2287
 6721SOL     OW26655   4.434   3.432   3.586  0.0560 -0.0664 -0.3753
 6721SOL    HW226656   4.452   3.524   3.606  0.3409 -0.0345 -0.7642
 6721SOL    HW326657   4.437   3.428   3.490  3.0742 -1.0569 -0.3474
 6721SOL    MW426658   4.437   3.444   3.576 -0.2027 -0.2654  0.3894
 6722SOL     OW26659   3.884   3.640   2.132  0.3038 -0.1567  0.0792
 6722SOL    HW226660   3.911   3.731   2.146  1.3550 -0.3539 -0.5405
 6722SOL    HW326661   3.946   3.589   2.184 -0.6914 -0.5060  0.9603
 6722SOL    MW426662   3.896   3.645   2.141  0.9288 -0.4872  0.1537
 6723SOL     OW26663   5.189   1.740   3.823  0.0242 -0.4529 -0.6265
 6723SOL    HW226664   5.100   1.770   3.841 -0.1524  0.1584 -2.3641
 6723SOL    HW326665   5.241   1.820   3.816  0.7118 -0.8036  0.2525
 6723SOL    MW426666   5.184   1.754   3.825  0.3499  0.2784  0.2088
 6724SOL     OW26667   6.086   4.448   1.842 -0.4212  0.0541  0.5643
 6724SOL    HW226668   6.017   4.510   1.817 -0.0268 -0.1012 -1.0036
 6724SOL    HW326669   6.090   4.455   1.937 -1.3373  1.4155  0.5434
 6724SOL    MW426670   6.077   4.457   1.851 -0.4454 -0.0964 -0.3049
 6725SOL     OW26671   3.902   5.825   6.402 -0.1443  0.1960  0.3322
 6725SOL    HW226672   3.859   5.743   6.379  2.5309 -1.0695 -0.5256
 6725SOL    HW326673   3.905   5.824   6.498 -1.3495  0.0028  0.3841
 6725SOL    MW426674   3.897   5.814   6.412 -0.6043 -0.7578 -0.1097
 6726SOL     OW26675   5.210   3.013   0.816 -0.2532  0.0444 -0.0622
 6726SOL    HW226676   5.235   2.959   0.891  1.9686  1.3721  0.2604
 6726SOL    HW326677   5.245   3.100   0.837 -0.1080  0.5934 -2.3684
 6726SOL    MW426678   5.218   3.017   0.829  0.2512 -0.0569 -0.0104
 6727SOL     OW26679   5.394   2.159   6.120 -0.1656 -0.1373  0.5363
 6727SOL    HW226680   5.402   2.248   6.154 -0.1872  1.2866 -2.7948
 6727SOL    HW326681   5.477   2.144   6.073 -0.9280 -1.0809 -0.5523
 6727SOL    MW426682   5.406   2.169   6.118  0.0272 -0.0167 -0.4556
 6728SOL     OW26683   0.005   4.409   1.395  0.1596 -0.4609 -0.1852
 6728SOL    HW226684  -0.069   4.406   1.456 -0.1582 -1.1914 -0.5905
 6728SOL    HW326685   0.039   4.319   1.394 -0.0898 -0.5622 -1.3860
 6728SOL    MW426686   0.000   4.396   1.403  0.3912 -0.1512 -0.0044
 6729SOL     OW26687   2.176   6.261   3.830 -0.1650  0.2497  0.8192
 6729SOL    HW226688   2.203   6.353   3.835  0.3748  0.2863 -1.5526
 6729SOL    HW326689   2.241   6.214   3.882  1.2627  0.9412 -0.2730
 6729SOL    MW426690   2.188   6.267   3.838  0.3373 -0.6295  0.7238
 6730SOL     OW26691   2.174   3.279   2.365 -0.4002  0.3862 -0.5453
 6730SOL    HW226692   2.148   3.368   2.390 -0.2087  0.1045  0.6980
 6730SOL    HW326693   2.239   3.292   2.296 -0.0384  1.2307 -0.0566
 6730SOL    MW426694   2.179   3.293   2.359 -0.2977  0.3860  0.2994
 6731SOL     OW26695   5.857   3.610   5.563 -0.0990  0.3423  0.6631
 6731SOL    HW226696   5.845   3.538   5.625 -0.5691 -2.4520 -2.3742
 6731SOL    HW326697   5.952   3.623   5.559  0.0603 -0.7616  0.6185
 6731SOL    MW426698   5.868   3.602   5.571  0.0473 -0.1233 -0.1185
 6732SOL     OW26699   3.521   0.770   3.376  0.0673 -0.0673  0.1729
 6732SOL    HW226700   3.584   0.828   3.420  0.7939  0.1509 -1.0964
 6732SOL    HW326701   3.469   0.733   3.447  0.0779  1.5585  1.0974
 6732SOL    MW426702   3.522   0.773   3.391 -0.5489 -0.7225 -0.0202
 6733SOL     OW26703   1.588   5.066   0.213 -0.1869  0.2724 -0.1482
 6733SOL    HW226704   1.677   5.069   0.247 -0.3579 -2.5136  0.7548
 6733SOL    HW326705   1.540   5.128   0.269  0.8402  0.6288  0.3747
 6733SOL    MW426706   1.593   5.075   0.225  0.4784 -0.2178 -0.0769
 6734SOL     OW26707   3.198   0.522   1.727  0.4125  0.0016  0.0604
 6734SOL    HW226708   3.292   0.519   1.708  0.3555 -0.6683 -0.1301
 6734SOL    HW326709   3.178   0.615   1.733  0.9951  0.1592 -0.3790
 6734SOL    MW426710   3.208   0.534   1.726 -0.0332 -0.3742  0.1357
 6735SOL     OW26711   4.070   0.921   1.383  0.6067 -0.3961 -0.1284
 6735SOL    HW226712   4.027   0.835   1.377 -0.8100  0.2795 -0.1304
 6735SOL    HW326713   4.096   0.941   1.293  0.1619 -0.4494 -0.2723
 6735SOL    MW426714   4.068   0.912   1.370 -0.3110  0.3769 -0.1746
 6736SOL     OW26715   2.276   5.513   4.957  0.5012  0.8775  0.6381
 6736SOL    HW226716   2.224   5.541   4.882 -0.2738  1.2930  1.3134
 6736SOL    HW326717   2.357   5.479   4.919 -0.9305 -1.4162 -0.6056
 6736SOL    MW426718   2.280   5.512   4.942 -0.5537 -0.2241 -0.1854
 6737SOL     OW26719   1.416   4.101   2.942 -0.6109 -0.1247 -0.2765
 6737SOL    HW226720   1.433   4.138   3.029 -3.3968  0.3848  0.1443
 6737SOL    HW326721   1.390   4.177   2.889 -1.4277 -0.7726 -0.8221
 6737SOL    MW426722   1.415   4.116   2.947 -0.3850 -0.3693 -0.1936
 6738SOL     OW26723   2.581   5.089   5.373 -0.2649 -0.5165  0.1467
 6738SOL    HW226724   2.576   5.168   5.427 -0.0859 -0.1325 -0.3829
 6738SOL    HW326725   2.552   5.118   5.286  0.7817 -0.7769 -0.3139
 6738SOL    MW426726   2.577   5.103   5.369  0.0445  0.3910  0.6374
 6739SOL     OW26727   0.489   2.794   3.385 -0.5199 -0.6585 -0.4455
 6739SOL    HW226728   0.533   2.782   3.469  0.9271 -1.0103 -1.2433
 6739SOL    HW326729   0.409   2.741   3.392 -1.2355  0.5343  1.2678
 6739SOL    MW426730   0.484   2.786   3.397  0.3392 -0.0688  0.6465
 6740SOL     OW26731   0.456   0.541   3.763  0.1111 -0.1123  0.2625
 6740SOL    HW226732   0.449   0.446   3.760 -2.1361 -0.1114  2.2577
 6740SOL    HW326733   0.501   0.560   3.846 -1.9243  0.5157  1.3080
 6740SOL    MW426734   0.461   0.531   3.774  0.1223 -0.8537  0.2703
 6741SOL     OW26735   5.293   5.034   4.678  0.1055 -0.6052  0.0147
 6741SOL    HW226736   5.343   5.115   4.680  1.0084 -1.1517  0.5638
 6741SOL    HW326737   5.304   4.997   4.765  0.3855 -1.7029 -0.4654
 6741SOL    MW426738   5.301   5.040   4.690 -0.6034 -0.4778 -0.1761
 6742SOL     OW26739   5.647   2.684   4.706 -0.6590 -0.3109 -0.2763
 6742SOL    HW226740   5.737   2.656   4.726  0.0254  0.6973 -1.7822
 6742SOL    HW326741   5.650   2.780   4.711 -1.7335 -0.2724 -0.1123
 6742SOL    MW426742   5.659   2.693   4.710 -0.4630 -0.1851 -0.1728
 6743SOL     OW26743   2.753   2.920   1.765  0.1134 -0.0663  0.5852
 6743SOL    HW226744   2.677   2.944   1.817 -1.8279  0.2923 -2.1739
 6743SOL    HW326745   2.725   2.843   1.715  0.9665  0.9644 -1.6297
 6743SOL    MW426746   2.740   2.913   1.765 -0.0989  0.2084 -0.2045
 6744SOL     OW26747   1.748   3.656   4.370 -0.6513  0.0742 -0.6555
 6744SOL    HW226748   1.777   3.703   4.292 -0.7087  2.3861  0.6403
 6744SOL    HW326749   1.828   3.631   4.415 -0.5844  1.6044  0.1359
 6744SOL    MW426750   1.762   3.659   4.366 -0.2734  0.0190  0.0461
 6745SOL     OW26751   0.101   3.206   3.553 -0.1068 -0.1724 -0.0062
 6745SOL    HW226752   0.040   3.272   3.586 -2.2728 -1.7688 -0.5759
 6745SOL    HW326753   0.095   3.213   3.457  1.8112  0.6478 -0.1063
 6745SOL    MW426754   0.092   3.216   3.544  0.8175 -0.8231 -0.0225
 6746SOL     OW26755   4.431   5.571   0.433  0.2059  0.0280 -0.7936
 6746SOL    HW226756   4.402   5.511   0.364  0.4551  0.0510 -0.9240
 6746SOL    HW326757   4.487   5.633   0.387  2.5539 -1.4897 -0.1850
 6746SOL    MW426758   4.435   5.571   0.418 -0.6580  0.2248  0.1076
 6747SOL     OW26759   1.302   0.753   0.543  0.6652  0.4287 -0.2155
 6747SOL    HW226760   1.268   0.836   0.574  0.2471  0.5400 -0.9647
 6747SOL    HW326761   1.397   0.760   0.555  0.7185  1.3490 -1.0421
 6747SOL    MW426762   1.310   0.765   0.548 -0.1708 -0.3433 -0.5008
 6748SOL     OW26763   0.226   2.688   2.497 -0.3172  0.3214 -0.4917
 6748SOL    HW226764   0.230   2.593   2.507 -1.4237  0.2429 -0.6278
 6748SOL    HW326765   0.313   2.719   2.521 -0.1162 -0.6759  0.1156
 6748SOL    MW426766   0.238   2.679   2.502  0.0082 -0.2260  0.6065
 6749SOL     OW26767   0.336   1.310   4.605  0.5514  0.5026  0.2229
 6749SOL    HW226768   0.240   1.308   4.597  0.4183 -0.5104  1.6379
 6749SOL    HW326769   0.353   1.378   4.670  0.7897  0.6046  0.0552
 6749SOL    MW426770   0.325   1.318   4.613  0.4411 -0.4923 -0.3129
 6750SOL     OW26771   5.028   0.144   0.362 -0.3086 -0.6895  0.0179
 6750SOL    HW226772   4.989   0.231   0.362  0.2638 -0.4241 -0.7508
 6750SOL    HW326773   4.981   0.096   0.295  2.8164  0.6706 -3.4873
 6750SOL    MW426774   5.017   0.149   0.353 -0.1998  0.5716 -0.3166
 6751SOL     OW26775   4.327   6.200   1.360  0.4005  0.2584  0.0288
 6751SOL    HW226776   4.303   6.282   1.405  0.6430  0.9632 -1.0777
 6751SOL    HW326777   4.277   6.203   1.279  0.0362 -0.9520  0.1973
 6751SOL    MW426778   4.317   6.211   1.355 -0.1300  0.7569 -0.1763
 6752SOL     OW26779   5.362   1.073   2.029  0.1364 -0.1049  0.1898
 6752SOL    HW226780   5.421   0.998   2.026  0.2980  0.0520 -3.0539
 6752SOL    HW326781   5.409   1.138   2.082  1.7095 -0.8897 -0.1850
 6752SOL    MW426782   5.376   1.072   2.036  0.4403 -0.1762 -0.1271
 6753SOL     OW26783   0.224   0.423   4.880  0.7948  0.0230  0.2877
 6753SOL    HW226784   0.209   0.510   4.843 -1.8606 -1.0382 -1.4146
 6753SOL    HW326785   0.286   0.381   4.820  0.0745 -0.1061 -0.3819
 6753SOL    MW426786   0.230   0.429   4.867  0.6237  0.3062 -0.5068
 6754SOL     OW26787   5.645   4.062   4.358  0.2819 -0.5833 -0.7973
 6754SOL    HW226788   5.588   4.048   4.283  0.8458 -0.5788 -1.2351
 6754SOL    HW326789   5.696   3.981   4.364  0.4565 -0.4598 -0.6163
 6754SOL    MW426790   5.644   4.050   4.349  0.2216 -0.1484  0.8095
 6755SOL     OW26791   6.103   2.501   0.805 -0.0248 -0.3499  0.3540
 6755SOL    HW226792   6.014   2.475   0.831 -0.7738 -0.7770 -2.3109
 6755SOL    HW326793   6.103   2.597   0.813 -0.2015 -0.4370  1.7280
 6755SOL    MW426794   6.091   2.511   0.810  0.8169 -0.2562  0.1615
 6756SOL     OW26795   4.236   1.559   4.301  0.3101 -0.0711  0.1321
 6756SOL    HW226796   4.213   1.591   4.214 -0.3346  1.0380  0.6776
 6756SOL    HW326797   4.330   1.541   4.296  0.4566  0.8078 -0.5570
 6756SOL    MW426798   4.246   1.561   4.289 -0.1876 -0.0056  0.2745
 6757SOL     OW26799   1.823   5.046   6.052 -0.3672 -0.1447 -0.6275
 6757SOL    HW226800   1.812   4.955   6.080 -0.7275  0.0908  0.0053
 6757SOL    HW326801   1.811   5.043   5.957 -1.0327 -0.6532 -0.5306
 6757SOL    MW426802   1.820   5.033   6.043  0.1333  0.0195 -0.2093
 6758SOL     OW26803   5.456   0.748   0.897 -0.0222 -0.4285  0.1170
 6758SOL    HW226804   5.438   0.779   0.986  0.0221 -1.0078  0.3286
 6758SOL    HW326805   5.527   0.804   0.866 -1.8513  1.6772 -0.6086
 6758SOL    MW426806   5.463   0.759   0.904  0.2449 -0.2066 -0.4546
 6759SOL     OW26807   1.660   1.314   4.091  0.1059 -0.2928  0.4425
 6759SOL    HW226808   1.658   1.331   3.997  1.9676 -1.3620  0.1579
 6759SOL    HW326809   1.724   1.375   4.126  1.9788 -2.1272  0.4174
 6759SOL    MW426810   1.668   1.324   4.084 -0.3477 -0.3620  0.0810
 6760SOL     OW26811   0.991   0.781   5.317  0.0704 -0.1395  0.1582
 6760SOL    HW226812   1.000   0.861   5.265 -1.2644  0.1960  0.4083
 6760SOL    HW326813   1.056   0.721   5.280 -0.8261  0.0832 -1.9203
 6760SOL    MW426814   1.000   0.783   5.305  0.4146 -0.2675  0.2091
 6761SOL     OW26815   5.269   0.120   4.351  0.0685 -0.5524 -0.1799
 6761SOL    HW226816   5.344   0.093   4.404 -0.1345  0.0894  0.4527
 6761SOL    HW326817   5.294   0.099   4.261  1.3164  0.3319 -0.0635
 6761SOL    MW426818   5.282   0.113   4.346  0.6995  0.1219  0.1219
 6762SOL     OW26819   5.218   2.850   1.052  0.2280 -0.4671  0.4264
 6762SOL    HW226820   5.253   2.802   1.127 -1.1815 -2.0369  0.1527
 6762SOL    HW326821   5.160   2.787   1.009  2.0225 -0.1280 -2.8146
 6762SOL    MW426822   5.215   2.836   1.056 -0.3066  0.3447  0.4031
 6763SOL     OW26823   2.355   5.349   0.512  0.1916  0.3447  0.2611
 6763SOL    HW226824   2.264   5.324   0.498  0.3854 -0.0190 -0.3292
 6763SOL    HW326825   2.392   5.278   0.565  0.9092 -0.9902 -1.9277
 6763SOL    MW426826   2.348   5.337   0.517 -0.2483 -0.4567  0.2951
 6764SOL     OW26827   2.026   0.781   3.377 -0.2352  0.5041  0.7653
 6764SOL    HW226828   2.045   0.701   3.328 -2.4384 -1.8644  3.5114
 6764SOL    HW326829   2.005   0.846   3.309  1.2818 -1.2430 -1.5281
 6764SOL    MW426830   2.026   0.779   3.361 -0.4453  0.6735 -0.4241
 6765SOL     OW26831   1.085   3.603   1.492  0.2448  0.0536  0.3905
 6765SOL    HW226832   1.022   3.652   1.439 -0.1426 -1.0814 -0.2274
 6765SOL    HW326833   1.107   3.526   1.440  0.4545 -0.6959  1.5330
 6765SOL    MW426834   1.079   3.599   1.478 -0.0911 -0.0335 -0.0933
 6766SOL     OW26835   5.516   6.305   5.697  0.9851  0.4918 -0.3957
 6766SOL    HW226836   5.503   6.400   5.692 -0.1080  0.4529  1.2204
 6766SOL    HW326837   5.435   6.268   5.662  0.6553  0.1798  0.6744
 6766SOL    MW426838   5.504   6.313   5.692 -0.1211 -0.2915 -0.5964
 6767SOL     OW26839   3.135   3.592   5.971 -0.0828  0.1105 -0.4444
 6767SOL    HW226840   3.129   3.669   6.028  0.4372  0.3753 -0.7426
 6767SOL    HW326841   3.220   3.554   5.992  1.2876  1.6399 -2.8163
 6767SOL    MW426842   3.145   3.597   5.981 -0.1229  0.1868  0.2316
 6768SOL     OW26843   1.069   2.524   1.023  0.2590  0.0145 -0.4589
 6768SOL    HW226844   1.056   2.493   0.933  1.1870 -0.5567 -0.4087
 6768SOL    HW326845   1.163   2.539   1.029  0.4859 -1.7413  0.9857
 6768SOL    MW426846   1.080   2.522   1.012 -0.4032  0.3452  0.3790
 6769SOL     OW26847   4.064   5.765   5.219 -0.2785 -0.0031  0.0269
 6769SOL    HW226848   3.996   5.826   5.191  0.1569  0.6545  0.3974
 6769SOL    HW326849   4.146   5.807   5.193 -0.0231 -1.2994 -1.4490
 6769SOL    MW426850   4.065   5.778   5.212  0.2978  0.0706  0.1595
 6770SOL     OW26851   3.171   2.091   2.877  0.5849 -0.1325 -0.4444
 6770SOL    HW226852   3.204   2.176   2.850 -0.3215  0.3322 -0.1434
 6770SOL    HW326853   3.229   2.063   2.949 -0.4293  1.2791  0.9920
 6770SOL    MW426854   3.183   2.098   2.883  0.7452  0.3180 -0.5065
 6771SOL     OW26855   3.000   0.553   5.548 -0.4549 -0.2877 -0.0469
 6771SOL    HW226856   3.017   0.459   5.560  0.2953 -0.1591 -0.0545
 6771SOL    HW326857   2.936   0.557   5.477  0.1789 -0.7548 -0.6553
 6771SOL    MW426858   2.994   0.541   5.540 -0.3814 -0.1699 -0.6986
 6772SOL     OW26859   0.135   6.263   2.496  0.1494  0.4268 -0.1478
 6772SOL    HW226860   0.192   6.326   2.452 -2.3815  1.8513 -1.6495
 6772SOL    HW326861   0.078   6.317   2.550 -0.8570 -0.7634  0.0146
 6772SOL    MW426862   0.135   6.278   2.497 -0.1320  0.3744 -0.0469
 6773SOL     OW26863   1.000  -0.006   3.700  0.1805  0.5068  0.0025
 6773SOL    HW226864   0.952   0.043   3.633  0.1130  0.9007  0.3395
 6773SOL    HW326865   1.085   0.038   3.705  1.0472 -0.8804 -1.4187
 6773SOL    MW426866   1.005   0.006   3.692  0.1326 -0.2576 -0.0063
 6774SOL     OW26867   3.418   6.405   1.438  0.3254  0.6947  0.3505
 6774SOL    HW226868   3.465   6.346   1.379  1.1721  1.4800  0.2196
 6774SOL    HW326869   3.457   6.491   1.423 -0.7049  1.2523  0.7293
 6774SOL    MW426870   3.429   6.408   1.428 -0.8030 -0.2159 -0.0133
 6775SOL     OW26871   0.529   3.575   5.257 -0.3175  0.2807 -0.7145
 6775SOL    HW226872   0.553   3.500   5.312  0.4947 -0.0963 -1.5467
 6775SOL    HW326873   0.608   3.629   5.256 -0.4529  0.4680 -1.2021
 6775SOL    MW426874   0.542   3.572   5.264  0.4007  0.1243  0.5065
 6776SOL     OW26875   1.600   4.848   6.270  0.0456  0.1997  0.4013
 6776SOL    HW226876   1.564   4.760   6.282 -0.5049  0.0685 -1.8483
 6776SOL    HW326877   1.679   4.834   6.218  0.0396  1.0386  0.1616
 6776SOL    MW426878   1.606   4.835   6.265 -0.2022  0.0670 -0.2602
 6777SOL     OW26879   0.448   0.158   2.212  0.1506  0.1502  0.3152
 6777SOL    HW226880   0.450   0.133   2.120 -1.9083 -1.5410  0.6448
 6777SOL    HW326881   0.513   0.101   2.254 -0.6199 -0.8261  0.2272
 6777SOL    MW426882   0.457   0.147   2.205 -0.4170  0.2651  0.5582
 6778SOL     OW26883   6.148   2.334   2.822  0.2698 -0.0060  0.2804
 6778SOL    HW226884   6.124   2.338   2.914  0.7929  1.5875  0.3799
 6778SOL    HW326885   6.104   2.409   2.782 -1.1846 -1.5287 -1.1025
 6778SOL    MW426886   6.139   2.345   2.829 -0.4013 -0.7915 -0.0487
 6779SOL     OW26887   0.794   2.953   2.480  0.0011 -0.5794  0.3306
 6779SOL    HW226888   0.702   2.980   2.477  0.0766 -0.2850  0.6446
 6779SOL    HW326889   0.839   3.025   2.524  0.9581  0.9384 -2.8397
 6779SOL    MW426890   0.788   2.966   2.485 -0.5680  0.2962 -0.1686
 6780SOL     OW26891   2.659   3.457   4.165  0.1887  0.0428  0.1723
 6780SOL    HW226892   2.652   3.546   4.201 -1.2583  0.1851 -0.3766
 6780SOL    HW326893   2.745   3.454   4.124  0.1582  1.2972 -0.0330
 6780SOL    MW426894   2.669   3.468   4.164 -0.4130 -0.5207 -0.0008
 6781SOL     OW26895   4.427   5.953   0.257  0.3537 -0.4312  0.4088
 6781SOL    HW226896   4.496   5.917   0.312  0.1633  1.5793  2.1075
 6781SOL    HW326897   4.387   6.022   0.311 -0.5895  0.9162 -1.8530
 6781SOL    MW426898   4.430   5.957   0.271  0.4151 -0.5514  0.1601
 6782SOL     OW26899   0.726   5.071   5.621  0.1117  0.1588  0.1151
 6782SOL    HW226900   0.811   5.072   5.578  2.1246  0.7038  3.7495
 6782SOL    HW326901   0.694   5.162   5.613  1.2080  0.6477  0.9998
 6782SOL    MW426902   0.733   5.083   5.614 -0.2979  0.6733  0.3494
 6783SOL     OW26903   6.414   0.990   1.485 -0.6321 -0.3688  0.3707
 6783SOL    HW226904   6.367   0.973   1.403 -0.4804  0.6675  0.0508
 6783SOL    HW326905   6.391   1.080   1.508 -0.3045 -0.4909  1.2264
 6783SOL    MW426906   6.405   1.000   1.477 -0.5064 -0.0978 -0.2259
 6784SOL     OW26907   1.167   3.697   2.875 -0.2596 -0.0135  0.4136
 6784SOL    HW226908   1.095   3.659   2.824  0.1650  0.0448 -0.2380
 6784SOL    HW326909   1.213   3.621   2.911 -0.6168 -0.0526  0.7997
 6784SOL    MW426910   1.163   3.682   2.873  0.0218  0.0058 -0.4287
 6785SOL     OW26911   0.663   4.283   1.974  0.3595  0.1013 -0.2987
 6785SOL    HW226912   0.607   4.265   1.899 -0.7743 -0.0409  0.5483
 6785SOL    HW326913   0.737   4.332   1.938  0.4830 -1.0506 -1.6849
 6785SOL    MW426914   0.665   4.287   1.959 -0.1085 -0.8163  0.0793
 6786SOL     OW26915   2.545   1.330   1.458  0.0628  0.2949  0.0702
 6786SOL    HW226916   2.563   1.237   1.444  1.6310  0.6836 -0.8108
 6786SOL    HW326917   2.545   1.340   1.553 -0.3935 -0.6383  0.1867
 6786SOL    MW426918   2.548   1.319   1.468  0.4058 -0.3646 -0.4406
 6787SOL     OW26919   0.972   4.671   3.734 -0.4477 -0.1342 -0.0481
 6787SOL    HW226920   1.016   4.713   3.660  3.4215 -0.4826  1.7948
 6787SOL    HW326921   0.946   4.744   3.791  0.4606  0.0424  0.1672
 6787SOL    MW426922   0.975   4.686   3.732 -0.0391  0.3091 -0.4215
 6788SOL     OW26923   4.042   4.873   0.952 -0.0325 -0.0097 -0.2405
 6788SOL    HW226924   4.134   4.898   0.953  0.0050 -0.1648  0.4911
 6788SOL    HW326925   3.997   4.951   0.919  0.2797  0.3598  0.1794
 6788SOL    MW426926   4.048   4.887   0.948  0.5565  0.2734  0.1690
 6789SOL     OW26927   1.783   1.982   4.555 -0.4494  0.0200 -0.3679
 6789SOL    HW226928   1.792   1.916   4.624  0.1047  0.7927  0.3215
 6789SOL    HW326929   1.707   2.034   4.581  0.5118  1.0963  0.3503
 6789SOL    MW426930   1.774   1.980   4.567 -0.0299  0.0568  0.0832
 6790SOL     OW26931   0.856   6.300   5.006 -0.7993 -0.4893  0.0655
 6790SOL    HW226932   0.887   6.357   4.935 -1.2926 -2.6682 -2.0341
 6790SOL    HW326933   0.935   6.269   5.049 -0.4927  0.8747  0.5457
 6790SOL    MW426934   0.870   6.304   5.002  0.1907 -0.4985 -0.5078
 6791SOL     OW26935   4.615   0.956   6.249  0.2634 -0.1546 -0.1426
 6791SOL    HW226936   4.661   1.032   6.283 -0.0551 -0.5659  1.2734
 6791SOL    HW326937   4.554   0.991   6.184  1.1894  0.6021 -0.6319
 6791SOL    MW426938   4.613   0.970   6.245 -0.2264 -0.7112  0.2775
 6792SOL     OW26939   0.548   5.005   5.385 -0.1689  0.0197  0.2799
 6792SOL    HW226940   0.465   5.044   5.413  0.3279  0.7864  0.7230
 6792SOL    HW326941   0.595   4.987   5.467  0.0268 -0.5927  0.0408
 6792SOL    MW426942   0.543   5.008   5.400 -0.2248 -0.3873  0.0622
 6793SOL     OW26943   4.443   3.033   4.244  0.1399  0.3754 -0.2384
 6793SOL    HW226944   4.466   3.032   4.337  0.4658 -0.6377 -0.3254
 6793SOL    HW326945   4.347   3.032   4.243  0.0993 -2.1485  0.1025
 6793SOL    MW426946   4.433   3.033   4.256 -0.2002  0.7042  0.0529
 6794SOL     OW26947   1.868   4.114   5.402 -0.1609  0.4851  0.2072
 6794SOL    HW226948   1.952   4.095   5.443  0.0184  0.0772 -0.3430
 6794SOL    HW326949   1.806   4.117   5.475  0.0920 -0.5822  0.4873
 6794SOL    MW426950   1.871   4.112   5.417 -1.0463  0.2124  0.5810
 6795SOL     OW26951   2.324   1.759   3.293  0.8676 -0.5012 -0.2225
 6795SOL    HW226952   2.333   1.798   3.206  1.1902  0.3128  0.1677
 6795SOL    HW326953   2.245   1.705   3.287 -0.5398  1.4483 -0.3269
 6795SOL    MW426954   2.315   1.757   3.281  0.2727 -0.4470 -0.5561
 6796SOL     OW26955   2.285   6.243   0.033  0.2392  0.4313  0.0556
 6796SOL    HW226956   2.335   6.183  -0.023 -1.2521  0.3941 -1.3216
 6796SOL    HW326957   2.342   6.260   0.107  2.1024  0.0683 -1.2324
 6796SOL    MW426958   2.299   6.237   0.035  1.1103  0.1325  0.1462
 6797SOL     OW26959   4.548   2.285   5.220 -0.2174 -0.0354  0.2994
 6797SOL    HW226960   4.487   2.330   5.163 -0.2861  1.1530  1.2564
 6797SOL    HW326961   4.506   2.201   5.240 -0.6070 -0.0650 -0.6312
 6797SOL    MW426962   4.535   2.280   5.215 -0.2561  0.3568 -0.0654
 6798SOL     OW26963   3.840   0.881   5.120  0.1978  0.2338  0.0093
 6798SOL    HW226964   3.787   0.955   5.148 -0.1597  0.3734 -1.0189
 6798SOL    HW326965   3.882   0.850   5.201 -2.0356 -0.3913  1.0227
 6798SOL    MW426966   3.839   0.886   5.135 -0.6905  0.0384  0.2988
 6799SOL     OW26967   0.974   5.906   6.127 -0.0488  0.5350 -0.0950
 6799SOL    HW226968   0.967   5.991   6.171  0.4951  0.0960  0.8860
 6799SOL    HW326969   0.891   5.863   6.145  0.1652  0.3624  0.5164
 6799SOL    MW426970   0.962   5.912   6.135 -0.1367 -0.2040 -0.5523
 6800SOL     OW26971   3.512   1.800   6.394  0.6872 -0.0208  0.5941
 6800SOL    HW226972   3.440   1.781   6.453 -0.2916  2.5281  0.3022
 6800SOL    HW326973   3.589   1.807   6.451  0.3265 -0.5632  1.1567
 6800SOL    MW426974   3.513   1.798   6.409  0.2099 -0.1348  0.0077
 6801SOL     OW26975   3.353   3.214   1.757  0.4271  0.0411 -0.2737
 6801SOL    HW226976   3.334   3.289   1.700 -0.6447 -0.7752 -1.0455
 6801SOL    HW326977   3.268   3.193   1.797  1.1607  0.5805  1.6282
 6801SOL    MW426978   3.339   3.221   1.755  0.1570 -0.0913  0.9215
 6802SOL     OW26979   2.877   3.395   5.474 -0.1117 -0.9591  0.1214
 6802SOL    HW226980   2.833   3.310   5.473 -1.3624 -0.3358  0.1783
 6802SOL    HW326981   2.906   3.405   5.564 -0.5063 -1.0604  0.2639
 6802SOL    MW426982   2.875   3.385   5.485  0.2480  0.3341  0.6665
 6803SOL     OW26983   4.401   0.492   0.021  0.5092  0.7315 -0.4481
 6803SOL    HW226984   4.326   0.433   0.020 -0.5814  1.9847 -2.9926
 6803SOL    HW326985   4.461   0.457  -0.045  0.8311  1.2793 -0.4590
 6803SOL    MW426986   4.399   0.480   0.012 -0.4937 -0.4269 -0.5159
 6804SOL     OW26987   5.839   4.274   4.256 -0.0436 -0.3818 -0.4734
 6804SOL    HW226988   5.782   4.211   4.299 -0.0618 -2.5166 -3.3185
 6804SOL    HW326989   5.927   4.244   4.275  0.0755  0.5495  0.5805
 6804SOL    MW426990   5.843   4.262   4.264  0.1674 -0.3734 -0.3584
 6805SOL     OW26991   0.574   1.105   2.319  0.3744 -0.2485  0.1433
 6805SOL    HW226992   0.557   1.199   2.321 -0.9747 -0.4460 -0.7730
 6805SOL    HW326993   0.488   1.065   2.308  1.1143 -1.4903 -1.5924
 6805SOL    MW426994   0.560   1.112   2.318  0.2474 -0.2148 -0.4100
 6806SOL     OW26995   4.826   1.872   5.752  0.9870 -0.6756  0.1728
 6806SOL    HW226996   4.922   1.870   5.749  1.0026 -1.3304  0.8132
 6806SOL    HW326997   4.801   1.920   5.673  1.8615  0.1613  0.3800
 6806SOL    MW426998   4.836   1.878   5.741  0.4552 -0.3190 -0.4380
 6807SOL     OW26999   5.437   0.966   4.283  0.2264  0.2243 -0.8093
 6807SOL    HW227000   5.451   0.999   4.195 -1.3450 -0.8923 -1.5315
 6807SOL    HW327001   5.492   0.887   4.288 -0.8646 -0.6067 -1.3957
 6807SOL    MW427002   5.446   0.960   4.272 -0.5015  0.2358  0.1753
 6808SOL     OW27003   5.522   2.440   6.167 -0.1802 -0.0379  0.0329
 6808SOL    HW227004   5.482   2.476   6.088  1.1108 -1.1495 -1.1909
 6808SOL    HW327005   5.607   2.484   6.173  1.2090 -2.3522 -1.1942
 6808SOL    MW427006   5.528   2.451   6.158 -0.1008 -0.0887 -0.2793
 6809SOL     OW27007   4.094   2.708   6.009 -0.1205  0.6035 -0.3552
 6809SOL    HW227008   4.003   2.677   6.005 -0.1149  0.2697  1.3708
 6809SOL    HW327009   4.127   2.698   5.920 -1.0809 -1.4486 -0.5214
 6809SOL    MW427010   4.086   2.703   5.997  0.0214  0.0274 -0.6951
 6810SOL     OW27011   1.499   2.900   4.068  0.1877 -0.3403 -0.2816
 6810SOL    HW227012   1.444   2.824   4.088  1.2939 -1.0126  0.3174
 6810SOL    HW327013   1.539   2.880   3.984  0.9642 -0.7218  0.1690
 6810SOL    MW427014   1.497   2.888   4.060  0.7823  0.1186  0.8426
 6811SOL     OW27015   0.938   0.016   1.020  0.3798 -0.4760  0.3650
 6811SOL    HW227016   0.901   0.104   1.025  1.6287  0.1338 -0.5366
 6811SOL    HW327017   0.865  -0.040   0.997 -0.4584  0.3044  1.0604
 6811SOL    MW427018   0.924   0.021   1.018  0.7629 -0.1451 -0.1926
 6812SOL     OW27019   3.111   4.581   5.442  0.5353  0.0192 -0.0439
 6812SOL    HW227020   3.063   4.655   5.405 -4.6934 -2.8952 -0.0583
 6812SOL    HW327021   3.112   4.598   5.537 -1.2688 -0.0520  0.0319
 6812SOL    MW427022   3.104   4.593   5.450  0.1840  0.4261 -0.7499
 6813SOL     OW27023   0.907   2.356   3.225  0.7745  0.4585  0.1883
 6813SOL    HW227024   0.903   2.270   3.184  0.9406  1.0164 -1.0264
 6813SOL    HW327025   0.999   2.365   3.252  1.0358  0.7169 -0.7423
 6813SOL    MW427026   0.919   2.345   3.224  0.3053 -0.6334  0.5410
 6814SOL     OW27027   0.828   2.566   0.113  0.1597  0.3280 -0.3433
 6814SOL    HW227028   0.838   2.471   0.105 -1.1435  0.2902 -1.8717
 6814SOL    HW327029   0.829   2.582   0.208  2.3977 -0.9447 -0.0961
 6814SOL    MW427030   0.829   2.556   0.125  0.4347  0.2227  0.1063
 6815SOL     OW27031   3.389   6.309   0.342  0.0614 -0.1879 -0.0427
 6815SOL    HW227032   3.333   6.237   0.313 -0.2958  0.1290 -0.1547
 6815SOL    HW327033   3.413   6.355   0.261 -0.1255  0.1167  0.0730
 6815SOL    MW427034   3.385   6.306   0.327  0.2226  0.9423  0.1273
 6816SOL     OW27035   0.297   4.627   1.483  0.7984  0.0087 -1.0446
 6816SOL    HW227036   0.230   4.643   1.416 -1.1937  0.0106  0.8215
 6816SOL    HW327037   0.338   4.712   1.497 -1.0205  0.7801 -0.0515
 6816SOL    MW427038   0.293   4.640   1.476 -0.0983 -0.0377 -0.0282
 6817SOL     OW27039   5.880   0.672   3.760  0.2825 -0.1198 -0.0213
 6817SOL    HW227040   5.799   0.664   3.711  1.2844  1.0137 -1.9962
 6817SOL    HW327041   5.906   0.582   3.779 -0.6341 -0.5476 -0.7330
 6817SOL    MW427042   5.873   0.659   3.756  0.3073 -0.3817 -0.2983
 6818SOL     OW27043   2.530   3.636   1.386  0.0547  0.2114 -0.1757
 6818SOL    HW227044   2.519   3.722   1.426  1.3947  0.4079 -0.1842
 6818SOL    HW327045   2.445   3.618   1.345  0.1451  2.1480 -1.3789
 6818SOL    MW427046   2.517   3.645   1.386 -0.2528 -0.4065 -0.1445
 6819SOL     OW27047   5.796   3.257   6.057  0.1332  0.3882  0.1991
 6819SOL    HW227048   5.874   3.311   6.058  0.9296 -0.7147  1.2828
 6819SOL    HW327049   5.785   3.229   6.149 -1.6724  0.7173  0.1183
 6819SOL    MW427050   5.805   3.260   6.070 -0.3155  0.0797 -0.1982
 6820SOL     OW27051   6.077   2.094   0.021 -0.4828 -0.2465  0.6989
 6820SOL    HW227052   6.065   2.156  -0.052  1.0305  1.3742  1.7243
 6820SOL    HW327053   6.012   2.120   0.086  0.3975  0.5731  1.2841
 6820SOL    MW427054   6.067   2.106   0.020  0.2696 -0.1593  0.1449
 6821SOL     OW27055   1.818   2.678   4.660  0.1979 -0.1726  0.2377
 6821SOL    HW227056   1.740   2.734   4.652  0.5918  0.2722 -0.6146
 6821SOL    HW327057   1.857   2.679   4.572  1.3648 -0.0996  0.7472
 6821SOL    MW427058   1.813   2.686   4.647 -0.0129  0.6189 -0.4050
 6822SOL     OW27059   0.494   0.303   5.229 -0.4927 -0.0423 -0.1992
 6822SOL    HW227060   0.544   0.256   5.296 -0.3446  1.0745  0.4917
 6822SOL    HW327061   0.445   0.235   5.184  1.6030 -1.2064 -0.8877
 6822SOL    MW427062   0.494   0.288   5.231 -0.1254  0.2170 -0.2429
 6823SOL     OW27063   3.603   0.496   5.100 -0.0135 -0.5435  0.3721
 6823SOL    HW227064   3.669   0.429   5.119  0.4971 -0.1780 -0.0776
 6823SOL    HW327065   3.650   0.563   5.050 -0.7528 -0.3216 -0.0441
 6823SOL    MW427066   3.618   0.496   5.096  0.0272  0.4423  0.1538
 6824SOL     OW27067   0.426   4.099   0.294 -0.2647  0.1770  0.1894
 6824SOL    HW227068   0.341   4.094   0.250  0.0914 -2.1337 -0.3723
 6824SOL    HW327069   0.458   4.009   0.294  0.7652  0.4174  3.2551
 6824SOL    MW427070   0.419   4.086   0.288  0.2343  0.2638  0.5226
 6825SOL     OW27071   5.815   3.193   5.126  0.4342  0.2864  0.4243
 6825SOL    HW227072   5.864   3.240   5.058  0.5985  0.7354  0.8437
 6825SOL    HW327073   5.724   3.196   5.097  0.3802  1.2482  0.6518
 6825SOL    MW427074   5.810   3.200   5.113 -0.1422  0.3244 -0.8327
 6826SOL     OW27075   4.153   5.909   5.779  0.2178  0.0404 -0.0487
 6826SOL    HW227076   4.061   5.886   5.770  0.3029  0.5532 -3.5742
 6826SOL    HW327077   4.195   5.831   5.815 -1.5202 -0.1383  1.7989
 6826SOL    MW427078   4.147   5.896   5.783 -0.3481  0.3476  0.6110
 6827SOL     OW27079   2.580   0.498   0.168 -0.2865  0.1633  0.1421
 6827SOL    HW227080   2.600   0.413   0.130  0.4247  0.2425  0.3269
 6827SOL    HW327081   2.556   0.479   0.259  0.7160  0.2395  0.4273
 6827SOL    MW427082   2.579   0.485   0.175  0.1485 -0.5072 -0.1549
 6828SOL     OW27083   3.436   1.181   3.547  0.1663  0.5455 -0.2136
 6828SOL    HW227084   3.398   1.130   3.476  0.9338  1.3526 -1.2178
 6828SOL    HW327085   3.364   1.190   3.611  0.0758 -1.9993  0.1546
 6828SOL    MW427086   3.421   1.176   3.546  0.3276  0.4860 -0.0012
 6829SOL     OW27087   0.114   4.833   6.088  0.4936 -0.4225  0.4639
 6829SOL    HW227088   0.141   4.786   6.167  0.9833 -0.0840  0.4975
 6829SOL    HW327089   0.195   4.846   6.039  0.2950  0.0061  0.2470
 6829SOL    MW427090   0.128   4.828   6.092  0.3759  0.1647 -0.5001
 6830SOL     OW27091   3.572   1.464   2.772 -0.2205 -0.2795 -0.3072
 6830SOL    HW227092   3.591   1.453   2.865 -3.6734  0.1267  0.5910
 6830SOL    HW327093   3.542   1.555   2.764 -3.5968 -1.2863 -0.9152
 6830SOL    MW427094   3.570   1.475   2.783  0.3565  0.4872 -0.0027
 6831SOL     OW27095   3.461   0.707   3.113 -0.6797  0.0894 -0.3628
 6831SOL    HW227096   3.545   0.724   3.070 -0.7668 -0.9286 -0.9605
 6831SOL    HW327097   3.471   0.744   3.201  0.4176 -0.1097 -0.3939
 6831SOL    MW427098   3.473   0.714   3.119  0.4098  0.1823 -0.3364
 6832SOL     OW27099   1.618   2.275   0.907  0.2221  0.4278  0.1838
 6832SOL    HW227100   1.601   2.323   0.826  1.3164  1.7825  0.7216
 6832SOL    HW327101   1.532   2.267   0.948  0.0322  2.1868  0.1946
 6832SOL    MW427102   1.604   2.280   0.902  0.0377  0.3561  0.1122
 6833SOL     OW27103   0.192   3.215   4.160 -0.1054 -0.7533 -0.2014
 6833SOL    HW227104   0.269   3.177   4.202 -0.1861 -1.3920 -0.6124
 6833SOL    HW327105   0.163   3.283   4.220  0.1664 -1.2079  0.4618
 6833SOL    MW427106   0.198   3.219   4.173 -0.3550 -0.0302  0.6151
 6834SOL     OW27107   3.823   4.618   0.930 -0.6467 -0.1645 -1.1174
 6834SOL    HW227108   3.896   4.621   0.992 -1.9183 -0.6443  0.5014
 6834SOL    HW327109   3.854   4.664   0.853  0.2212  2.7077  0.7860
 6834SOL    MW427110   3.837   4.624   0.928  0.2400 -0.0680  0.4815
 6835SOL     OW27111   1.077   2.597   2.623  0.2422  0.1025  0.0427
 6835SOL    HW227112   1.101   2.613   2.532  0.0636  1.0029  0.1465
 6835SOL    HW327113   0.991   2.555   2.618  0.2806  0.0526 -0.2068
 6835SOL    MW427114   1.069   2.593   2.611  0.5636 -0.1393  0.2767
 6836SOL     OW27115   4.390   6.322   2.911 -0.8956 -0.0631  0.1076
 6836SOL    HW227116   4.434   6.375   2.977 -1.5843  0.2320  0.3277
 6836SOL    HW327117   4.439   6.340   2.830  0.1746 -0.6983  0.5833
 6836SOL    MW427118   4.402   6.331   2.909  0.2334 -0.2313  0.4007
 6837SOL     OW27119   5.471   3.386   1.053 -0.4634 -0.1846  0.2289
 6837SOL    HW227120   5.539   3.405   0.989 -0.4850 -1.1130 -0.0881
 6837SOL    HW327121   5.434   3.471   1.075 -0.0861  0.1972 -0.5775
 6837SOL    MW427122   5.475   3.400   1.048 -0.0975 -0.0165 -0.1655
 6838SOL     OW27123   2.174   1.642   2.232 -0.2627 -0.2087 -0.3185
 6838SOL    HW227124   2.150   1.705   2.300  2.2589  0.2893  0.2240
 6838SOL    HW327125   2.197   1.697   2.157  1.6203 -0.4393  0.0470
 6838SOL    MW427126   2.174   1.658   2.231 -0.6491 -0.3897 -0.3074
 6839SOL     OW27127   3.743   4.153   0.459  0.3253  0.1080 -0.0891
 6839SOL    HW227128   3.791   4.219   0.511 -0.7266  0.0346  1.0290
 6839SOL    HW327129   3.806   4.082   0.448  0.7637  0.3722  0.6043
 6839SOL    MW427130   3.758   4.152   0.465 -0.5300 -0.0595 -0.1763
 6840SOL     OW27131   1.035   0.009   2.268 -0.8620 -0.6178 -0.4768
 6840SOL    HW227132   1.075   0.088   2.231  1.1828 -1.8352 -0.9696
 6840SOL    HW327133   0.966   0.042   2.325 -0.1851  1.5201 -0.8175
 6840SOL    MW427134   1.031   0.024   2.271 -0.2925  1.1421 -0.0520
 6841SOL     OW27135   0.114   1.971   2.424  0.3250  0.4080  0.4347
 6841SOL    HW227136   0.103   2.048   2.368  1.2934  0.0688 -0.2533
 6841SOL    HW327137   0.150   2.005   2.506  0.9471  0.6706  0.0578
 6841SOL    MW427138   0.117   1.986   2.427  0.1925 -0.0205  0.2756
 6842SOL     OW27139   5.526   1.385   2.763 -0.4765  0.4894 -0.3233
 6842SOL    HW227140   5.488   1.341   2.687 -0.2727 -2.4557  1.1420
 6842SOL    HW327141   5.537   1.476   2.735 -2.0063 -0.0864 -3.1839
 6842SOL    MW427142   5.522   1.391   2.749  0.2492 -0.1196  0.4625
 6843SOL     OW27143   0.266   1.386   1.500  0.1267  0.2268  0.6975
 6843SOL    HW227144   0.302   1.341   1.576  0.5488  1.2901  1.1428
 6843SOL    HW327145   0.321   1.357   1.427 -0.0669 -0.5332  0.8453
 6843SOL    MW427146   0.278   1.376   1.500  0.0847 -0.1046  0.2911
 6844SOL     OW27147   1.650   5.482   0.145  0.4407  0.0177  0.3348
 6844SOL    HW227148   1.617   5.400   0.108 -0.2408  0.3062  0.2939
 6844SOL    HW327149   1.743   5.483   0.123  0.1742 -0.1024 -0.8594
 6844SOL    MW427150   1.658   5.472   0.137 -0.3440  0.0680  0.0166
 6845SOL     OW27151   0.974   1.317   1.718 -0.1606 -0.1362  0.0346
 6845SOL    HW227152   0.997   1.317   1.811 -1.9979  0.7044  0.5186
 6845SOL    HW327153   0.938   1.230   1.701  2.5771 -1.2803 -0.6094
 6845SOL    MW427154   0.972   1.305   1.728  0.6421  0.3136 -0.3960
 6846SOL     OW27155   4.258   1.607   2.759  0.4278 -0.3807 -0.1444
 6846SOL    HW227156   4.167   1.579   2.764  0.1735 -0.0520 -2.0329
 6846SOL    HW327157   4.253   1.702   2.745  1.1297 -0.0810  1.4471
 6846SOL    MW427158   4.246   1.616   2.758 -0.4758  0.3392 -0.2687
 6847SOL     OW27159   2.413   5.736   1.837  0.1062 -0.0343 -0.2268
 6847SOL    HW227160   2.472   5.800   1.875  0.2725  0.1160 -0.7301
 6847SOL    HW327161   2.395   5.769   1.749 -1.1143  0.1729  0.0853
 6847SOL    MW427162   2.419   5.748   1.830  0.3234 -0.3171 -0.7673
 6848SOL     OW27163   4.278   2.361   4.248 -0.3342  1.0510  0.3463
 6848SOL    HW227164   4.363   2.397   4.272  0.6978 -0.6394 -0.5653
 6848SOL    HW327165   4.293   2.317   4.164 -1.1288 -2.3096  1.7648
 6848SOL    MW427166   4.291   2.360   4.240  0.8482  0.3724 -0.0758
 6849SOL     OW27167   4.656   2.086   1.642 -0.0118  0.7807  0.3118
 6849SOL    HW227168   4.701   2.121   1.565 -0.1664  1.6129  0.5930
 6849SOL    HW327169   4.658   1.991   1.630 -0.9529  0.9229 -1.2532
 6849SOL    MW427170   4.662   2.078   1.630  0.1411  0.0259 -0.4486
 6850SOL     OW27171   4.276   4.919   0.331 -0.9430 -0.0764  0.1192
 6850SOL    HW227172   4.284   4.879   0.418 -1.0861  0.0610  0.1953
 6850SOL    HW327173   4.320   4.857   0.272 -1.6922 -0.6428  0.1459
 6850SOL    MW427174   4.283   4.905   0.335 -0.2768  0.1792 -0.6216
 6851SOL     OW27175   6.315   5.101   3.628  0.8723 -0.1028 -0.0015
 6851SOL    HW227176   6.282   5.191   3.634 -0.8884 -0.5262 -2.0498
 6851SOL    HW327177   6.273   5.055   3.701  1.1843  0.5647  0.6038
 6851SOL    MW427178   6.305   5.107   3.638  0.2725  0.0943  0.1737
 6852SOL     OW27179   5.060   6.077   2.513 -0.4320  0.2686 -0.0851
 6852SOL    HW227180   5.151   6.103   2.501  0.1069 -0.4500  2.0363
 6852SOL    HW327181   5.039   6.104   2.602 -2.1031 -0.1503 -0.3167
 6852SOL    MW427182   5.069   6.084   2.523  0.0219 -0.3579 -0.0358
 6853SOL     OW27183   0.203   6.302   3.575 -0.4184 -0.3207 -0.3368
 6853SOL    HW227184   0.215   6.356   3.653 -0.1692 -0.4304 -0.2962
 6853SOL    HW327185   0.243   6.353   3.504 -0.3821 -0.3522 -0.3391
 6853SOL    MW427186   0.210   6.316   3.576  0.0175  0.4483 -0.0053
 6854SOL     OW27187   1.122   2.491   1.601  0.0716  0.1258 -0.1112
 6854SOL    HW227188   1.131   2.557   1.532 -0.1189  0.5680  0.2827
 6854SOL    HW327189   1.158   2.532   1.679  1.7544 -0.9586 -0.2820
 6854SOL    MW427190   1.128   2.505   1.602  0.1638 -0.0965 -0.0980
 6855SOL     OW27191   4.150   2.520   1.060  0.1473 -0.5215  0.4919
 6855SOL    HW227192   4.105   2.572   1.127 -0.1961 -1.8712  1.3461
 6855SOL    HW327193   4.147   2.575   0.982  0.9755  1.3055  1.6727
 6855SOL    MW427194   4.143   2.534   1.059  0.8608 -0.6976 -0.4006
 6856SOL     OW27195   6.291   4.901   4.879  0.5166  0.2031  0.2434
 6856SOL    HW227196   6.205   4.877   4.846  0.8957  0.4392 -0.9537
 6856SOL    HW327197   6.277   4.985   4.923  0.0571  0.0140  0.4643
 6856SOL    MW427198   6.278   4.909   4.881 -0.7622  0.0245 -0.3731
 6857SOL     OW27199   0.087   2.664   1.384 -0.5624 -0.0551 -0.0520
 6857SOL    HW227200   0.071   2.688   1.292 -0.5094  0.8136  0.1560
 6857SOL    HW327201   0.002   2.674   1.426 -0.7875 -1.3154 -0.1749
 6857SOL    MW427202   0.073   2.669   1.377  0.3298 -0.6770  0.2373
 6858SOL     OW27203   2.914   0.671   1.569 -0.6016 -0.3774 -0.0220
 6858SOL    HW227204   2.925   0.749   1.622  0.7979 -1.0727  0.7764
 6858SOL    HW327205   2.988   0.672   1.508 -1.3753 -0.3480 -0.9809
 6858SOL    MW427206   2.925   0.681   1.568 -0.3213  0.7741 -0.0050
 6859SOL     OW27207   4.210   2.246   2.440  0.0877  0.2667 -0.4530
 6859SOL    HW227208   4.121   2.277   2.454 -0.1197 -0.0962 -0.9612
 6859SOL    HW327209   4.211   2.158   2.478  0.2362  0.2793 -0.4263
 6859SOL    MW427210   4.199   2.238   2.447  0.3784  0.2448  0.4993
 6860SOL     OW27211   1.104   2.849   3.404 -0.1822  0.5771 -0.5471
 6860SOL    HW227212   1.157   2.838   3.325  0.2310 -0.3234 -0.1646
 6860SOL    HW327213   1.047   2.772   3.404 -0.4159  0.7486 -0.1446
 6860SOL    MW427214   1.103   2.837   3.393  0.3328  0.1271  0.0613
 6861SOL     OW27215   0.432   0.088   0.744  0.1792 -0.3820 -0.8825
 6861SOL    HW227216   0.376   0.114   0.671  0.4598 -0.5515 -1.1631
 6861SOL    HW327217   0.408   0.147   0.815  1.4756  1.3314 -1.7972
 6861SOL    MW427218   0.421   0.099   0.744 -0.2453 -0.1757  0.4441
 6862SOL     OW27219   3.572   0.074   4.241 -0.3924  0.1644 -0.0921
 6862SOL    HW227220   3.546   0.109   4.156  0.7609  0.0110 -0.5113
 6862SOL    HW327221   3.655   0.118   4.261 -0.6656  0.2259  0.9732
 6862SOL    MW427222   3.579   0.085   4.233 -0.2793 -0.2020  0.0246
 6863SOL     OW27223   2.068   4.165   1.074  0.7202 -0.0431  0.0816
 6863SOL    HW227224   2.160   4.192   1.067  1.0257 -1.1384 -0.2822
 6863SOL    HW327225   2.043   4.189   1.163  2.0179 -1.7070  0.9503
 6863SOL    MW427226   2.077   4.172   1.085  0.2428 -0.8998  0.7230
 6864SOL     OW27227   0.473   0.041   4.862  0.3002 -0.1936  0.2894
 6864SOL    HW227228   0.554   0.087   4.843 -0.1851  0.4873 -0.1955
 6864SOL    HW327229   0.485  -0.047   4.825  1.1542 -0.4022  1.0361
 6864SOL    MW427230   0.485   0.035   4.855  0.1766 -0.1437 -0.4413
 6865SOL     OW27231   0.280   5.982   1.818 -0.0784 -0.3262  0.1031
 6865SOL    HW227232   0.275   5.909   1.879 -0.5573 -1.1279 -0.8681
 6865SOL    HW327233   0.205   6.038   1.840  0.2581 -0.1365  0.8077
 6865SOL    MW427234   0.270   5.980   1.829  0.1498 -0.2483 -0.7830
 6866SOL     OW27235   5.659   5.341   4.832 -0.2525 -0.6911 -0.0050
 6866SOL    HW227236   5.742   5.295   4.844 -0.4815 -0.8390  1.1290
 6866SOL    HW327237   5.679   5.412   4.772  0.8974 -0.2188  0.8956
 6866SOL    MW427238   5.673   5.344   4.826  0.1094 -0.0578  0.0518
 6867SOL     OW27239   4.221   1.139   3.573 -0.5394 -0.4163  0.1938
 6867SOL    HW227240   4.258   1.096   3.495  0.8628  1.5893 -0.3253
 6867SOL    HW327241   4.172   1.069   3.617 -2.0736 -1.4837 -2.8452
 6867SOL    MW427242   4.219   1.124   3.568  0.4074 -0.0622 -0.3387
 6868SOL     OW27243   1.377   1.456   0.248  0.5167  0.1830  0.7550
 6868SOL    HW227244   1.448   1.476   0.187  1.8591 -0.9770  1.8452
 6868SOL    HW327245   1.299   1.491   0.207  1.6035  0.7961 -0.8853
 6868SOL    MW427246   1.376   1.463   0.235 -0.0945  0.5299  0.1912
 6869SOL     OW27247   3.294   6.197   1.202 -0.8255 -0.3419 -0.4556
 6869SOL    HW227248   3.286   6.102   1.193 -1.2574 -0.3230 -0.2905
 6869SOL    HW327249   3.227   6.221   1.266  1.0184 -0.2412  1.5520
 6869SOL    MW427250   3.284   6.187   1.209  0.3385 -0.5259  0.2180
 6870SOL     OW27251   1.126   1.350   4.420 -0.6242 -0.0945  0.1833
 6870SOL    HW227252   1.118   1.334   4.514 -1.3990  0.4925  0.2278
 6870SOL    HW327253   1.204   1.301   4.394 -0.0459  0.2382  1.2404
 6870SOL    MW427254   1.135   1.341   4.429 -0.4758  0.3360 -0.1002
 6871SOL     OW27255   2.238   1.335   1.954  0.1949  0.3118 -0.3304
 6871SOL    HW227256   2.226   1.402   1.886  0.3665  1.0982  0.3862
 6871SOL    HW327257   2.301   1.375   2.015  0.3964 -0.5632  0.0501
 6871SOL    MW427258   2.245   1.349   1.953 -0.2318  0.3128 -0.6007
 6872SOL     OW27259   3.484   3.070   6.304 -0.4066  0.4418 -0.4101
 6872SOL    HW227260   3.420   3.029   6.362 -2.2758  3.0804 -0.4180
 6872SOL    HW327261   3.537   2.997   6.272 -1.0773 -1.4508  2.3846
 6872SOL    MW427262   3.482   3.055   6.307  0.0780 -0.3125  0.3617
 6873SOL     OW27263   1.792   3.774   4.795  0.1712 -0.4740 -0.0897
 6873SOL    HW227264   1.859   3.725   4.746 -0.7502 -1.8517 -0.0197
 6873SOL    HW327265   1.732   3.707   4.827 -0.8010  0.6709  0.5504
 6873SOL    MW427266   1.793   3.759   4.793 -0.4895 -0.4572 -0.7237
 6874SOL     OW27267   5.082   5.531   3.947 -0.2419  0.2426 -0.0329
 6874SOL    HW227268   5.161   5.574   3.915  0.7113 -0.0984  1.7631
 6874SOL    HW327269   5.102   5.438   3.943 -0.4070  0.1693  0.7912
 6874SOL    MW427270   5.095   5.524   3.942  0.7720 -0.0019 -0.1391
 6875SOL     OW27271   3.419   4.416   2.302  0.6105  0.0936 -0.5050
 6875SOL    HW227272   3.349   4.449   2.246  1.0364  0.2982 -0.9196
 6875SOL    HW327273   3.410   4.321   2.299  0.7547  0.0945 -1.0837
 6875SOL    MW427274   3.409   4.408   2.294  0.2012  0.0376  0.4371
 6876SOL     OW27275   3.876   3.622   0.947 -0.2764 -0.5290  0.4550
 6876SOL    HW227276   3.862   3.587   1.035 -0.4980  1.3402  1.2071
 6876SOL    HW327277   3.861   3.547   0.889 -0.0839 -1.8131  1.9928
 6876SOL    MW427278   3.872   3.608   0.951 -0.0739  0.1916  0.2810
 6877SOL     OW27279   5.655   4.876   4.780  0.2389 -0.3524  0.1397
 6877SOL    HW227280   5.742   4.837   4.781  0.3853 -0.0412 -0.2376
 6877SOL    HW327281   5.661   4.945   4.714 -0.1237  0.0476  0.5215
 6877SOL    MW427282   5.668   4.880   4.772 -0.0298  0.1212 -0.3490
 6878SOL     OW27283   0.341   1.689   5.424 -0.4674 -0.5555 -0.5339
 6878SOL    HW227284   0.340   1.616   5.361  0.1100 -0.6315 -0.4543
 6878SOL    HW327285   0.400   1.660   5.494 -1.1850 -0.5143  0.1045
 6878SOL    MW427286   0.348   1.676   5.425  0.2331 -0.2462 -0.1724
 6879SOL     OW27287   6.322   2.790   0.870  0.5480  0.0784  0.2943
 6879SOL    HW227288   6.285   2.850   0.934  0.1342  0.0893  0.0474
 6879SOL    HW327289   6.389   2.841   0.825 -0.0256  0.4594 -0.1378
 6879SOL    MW427290   6.326   2.805   0.872  0.0574 -0.3478  0.4529
 6880SOL     OW27291   3.666   2.783   5.201 -0.1588 -0.3287 -0.1902
 6880SOL    HW227292   3.651   2.870   5.240 -1.2973 -1.3245  1.7157
 6880SOL    HW327293   3.761   2.773   5.200  0.3399  2.4050 -3.9797
 6880SOL    MW427294   3.676   2.793   5.206 -0.3171  0.1230  0.5415
 6881SOL     OW27295   5.829   1.398   2.927  0.3893 -0.4520  0.6979
 6881SOL    HW227296   5.763   1.459   2.959 -0.5327 -1.0986  0.0746
 6881SOL    HW327297   5.860   1.436   2.845  0.9220 -0.0745  1.0623
 6881SOL    MW427298   5.824   1.411   2.920  0.1957 -0.4082  0.7387
 6882SOL     OW27299   4.988   4.409   2.004  0.2823 -0.0382 -0.1831
 6882SOL    HW227300   4.960   4.358   2.080  0.9392 -0.1645 -0.0189
 6882SOL    HW327301   4.913   4.407   1.944 -0.1560 -0.1246  0.3634
 6882SOL    MW427302   4.975   4.402   2.006 -0.1192 -0.0630  0.6371
 6883SOL     OW27303   2.481   2.743   1.682  0.6072  0.0558 -0.1378
 6883SOL    HW227304   2.387   2.751   1.671  0.6776 -0.0539 -0.8742
 6883SOL    HW327305   2.518   2.791   1.608  1.1013 -1.2814 -0.7904
 6883SOL    MW427306   2.474   2.750   1.670  0.0413 -0.3542 -0.2146
 6884SOL     OW27307   2.238   4.667   5.393  0.1381  0.0723  1.0625
 6884SOL    HW227308   2.157   4.637   5.434 -0.1279 -0.1774  0.3628
 6884SOL    HW327309   2.255   4.604   5.323  0.1511  0.9178  0.2757
 6884SOL    MW427310   2.230   4.655   5.389 -0.4790 -0.3657  0.4188
 6885SOL     OW27311   4.933   5.102   5.336 -0.0700 -0.2915 -0.1902
 6885SOL    HW227312   4.851   5.099   5.287 -0.0294 -0.8756 -0.2278
 6885SOL    HW327313   4.980   5.177   5.300 -0.1054 -0.6230 -0.9424
 6885SOL    MW427314   4.929   5.111   5.325  0.0020 -1.1373 -0.2390
 6886SOL     OW27315   1.863   4.806   1.211 -0.0610  0.2948  0.0450
 6886SOL    HW227316   1.807   4.810   1.288 -1.8660 -0.7380 -1.1458
 6886SOL    HW327317   1.847   4.720   1.173  0.7459  0.7842 -1.5148
 6886SOL    MW427318   1.854   4.795   1.216 -0.1082  0.1456  0.4140
 6887SOL     OW27319   6.125   2.014   1.020  0.0232  0.2819 -0.2281
 6887SOL    HW227320   6.210   2.003   1.063 -0.9392 -0.0621  1.6967
 6887SOL    HW327321   6.092   2.097   1.053 -1.5350 -0.8399  1.2527
 6887SOL    MW427322   6.132   2.023   1.030  0.1392 -0.5752  0.8330
 6888SOL     OW27323   4.143   1.840   5.739 -0.2879  0.0988  0.8636
 6888SOL    HW227324   4.198   1.902   5.693 -0.7890  0.5293  0.8371
 6888SOL    HW327325   4.104   1.890   5.811 -1.6151  0.1406  0.1480
 6888SOL    MW427326   4.145   1.854   5.742  0.5221  0.3653 -0.5456
 6889SOL     OW27327   2.510   1.713   2.899  0.4359  1.0784  0.2145
 6889SOL    HW227328   2.566   1.707   2.976  0.2946 -0.8571  0.1986
 6889SOL    HW327329   2.543   1.790   2.852  1.2756  1.5922  1.5924
 6889SOL    MW427330   2.522   1.722   2.903 -0.6791 -0.4485  0.3460
 6890SOL     OW27331   0.270   1.446   0.285  0.0608 -1.0627  0.4880
 6890SOL    HW227332   0.252   1.421   0.375  0.8827 -2.4278  0.3046
 6890SOL    HW327333   0.336   1.383   0.255  1.0753  0.4076 -0.5311
 6890SOL    MW427334   0.276   1.434   0.293  0.1094  0.2828 -0.2594
 6891SOL     OW27335   5.906   2.434   3.275  0.0673  0.5206  0.0467
 6891SOL    HW227336   5.858   2.413   3.194  0.1411 -2.7427  0.7013
 6891SOL    HW327337   5.906   2.530   3.279 -2.6410  0.7490 -2.2014
 6891SOL    MW427338   5.900   2.444   3.265  0.2250  0.5672  0.1699
 6892SOL     OW27339   2.426   5.058   1.685 -0.2668  0.0024  0.1908
 6892SOL    HW227340   2.442   5.148   1.659  0.9607 -0.3742 -0.4383
 6892SOL    HW327341   2.365   5.064   1.759  0.7558  1.4064  0.9466
 6892SOL    MW427342   2.420   5.070   1.692  0.1334 -0.3952  0.1490
 6893SOL     OW27343   3.545   2.047   2.785  0.6038  0.1561  0.0333
 6893SOL    HW227344   3.490   1.969   2.792  0.3804  0.2367 -0.7576
 6893SOL    HW327345   3.485   2.120   2.796  0.5834  0.2399 -0.6007
 6893SOL    MW427346   3.530   2.046   2.788 -0.2189  0.2442 -0.1209
 6894SOL     OW27347   1.047   2.111   2.707 -0.0629  0.4293  0.0352
 6894SOL    HW227348   0.997   2.067   2.638 -1.3031  2.3232 -0.3568
 6894SOL    HW327349   0.986   2.173   2.746  1.0365  0.4361  1.8973
 6894SOL    MW427350   1.033   2.113   2.703 -0.0354 -0.2805 -0.0539
 6895SOL     OW27351   4.936   6.371   1.228  0.0645 -0.3147 -0.0975
 6895SOL    HW227352   4.886   6.295   1.198 -1.5354  0.6800 -0.0799
 6895SOL    HW327353   4.913   6.440   1.166 -1.1378  1.0313  1.7355
 6895SOL    MW427354   4.926   6.370   1.216 -0.0032 -0.2955 -0.6292
 6896SOL     OW27355   5.862   5.588   4.590  0.6002 -0.0840  0.1755
 6896SOL    HW227356   5.846   5.610   4.682  0.4914 -1.7007  0.5705
 6896SOL    HW327357   5.872   5.493   4.590 -2.6222 -0.5422 -1.9534
 6896SOL    MW427358   5.862   5.578   4.602 -0.2786 -1.2609  0.2880
 6897SOL     OW27359   2.461   0.601   2.349  0.4440 -0.5115 -0.4018
 6897SOL    HW227360   2.375   0.574   2.317 -0.8196  2.8608 -0.3083
 6897SOL    HW327361   2.447   0.622   2.442  0.1753  3.6236 -1.1563
 6897SOL    MW427362   2.448   0.600   2.357  0.1823  0.8747  0.1000
 6898SOL     OW27363   0.875   6.396   2.818 -0.5065 -0.2499 -0.2485
 6898SOL    HW227364   0.881   6.455   2.893 -0.4786 -0.9588  0.3151
 6898SOL    HW327365   0.966   6.382   2.792 -0.4344 -0.9392  0.3378
 6898SOL    MW427366   0.888   6.402   2.825 -0.7318 -0.0578  0.3374
 6899SOL     OW27367   1.002   5.924   5.725 -0.8931 -0.5576  0.2702
 6899SOL    HW227368   1.020   6.010   5.762 -1.3030 -0.1153 -0.5466
 6899SOL    HW327369   0.977   5.941   5.634 -1.6467 -1.4816  0.2915
 6899SOL    MW427370   1.001   5.937   5.718  0.7453  0.1306  0.5524
 6900SOL     OW27371   2.311   1.193   2.689 -0.1190 -0.4081 -0.5997
 6900SOL    HW227372   2.246   1.220   2.754  2.5518 -1.7936  3.0118
 6900SOL    HW327373   2.360   1.273   2.668 -0.3681 -0.1216 -0.0936
 6900SOL    MW427374   2.309   1.207   2.695 -0.6648 -0.0095 -0.5165
 6901SOL     OW27375   2.888   4.883   6.372  0.0929 -0.1661 -0.0803
 6901SOL    HW227376   2.827   4.947   6.407 -0.2384  0.3234 -1.4751
 6901SOL    HW327377   2.836   4.830   6.312  0.6269 -0.9696  0.1491
 6901SOL    MW427378   2.873   4.884   6.369  0.1233  0.2026  0.0643
 6902SOL     OW27379   0.853   0.195   5.707 -0.1555  0.1467 -0.5756
 6902SOL    HW227380   0.848   0.249   5.628 -0.6169 -0.2776 -0.8350
 6902SOL    HW327381   0.923   0.236   5.759  1.5699 -0.7225 -2.0784
 6902SOL    MW427382   0.862   0.208   5.703  0.0023  0.0552  0.0313
 6903SOL     OW27383   0.461   1.516   2.913  0.5085 -0.5743  0.6304
 6903SOL    HW227384   0.456   1.487   2.822 -1.4699 -0.8101  0.7894
 6903SOL    HW327385   0.541   1.569   2.916 -1.2364  2.6533 -2.2216
 6903SOL    MW427386   0.471   1.519   2.901  0.2050  0.3172 -0.3138
 6904SOL     OW27387   3.088   0.948   3.779  0.2068 -0.1236  0.0048
 6904SOL    HW227388   3.103   0.866   3.732 -0.9507  0.3147 -1.1892
 6904SOL    HW327389   3.146   1.011   3.737  1.3675 -0.3890  1.1647
 6904SOL    MW427390   3.097   0.945   3.767  1.0163  0.1725  0.0047
 6905SOL     OW27391   2.449   5.411   6.291  0.3480 -0.0320 -0.5785
 6905SOL    HW227392   2.466   5.363   6.372 -0.9177  0.6460  0.1133
 6905SOL    HW327393   2.514   5.481   6.289 -0.3088  0.6286  0.4371
 6905SOL    MW427394   2.460   5.414   6.301  0.7919  0.0671 -0.0325
 6906SOL     OW27395   2.147   6.072   5.300  0.5902 -0.1957 -0.3533
 6906SOL    HW227396   2.192   6.098   5.220 -0.7996  0.9691 -0.7834
 6906SOL    HW327397   2.138   5.977   5.293 -0.9306  0.0514 -2.3520
 6906SOL    MW427398   2.152   6.063   5.289 -0.4781 -0.3240  0.2574
 6907SOL     OW27399   3.851   1.797   2.036 -0.0933 -0.7123 -0.0450
 6907SOL    HW227400   3.920   1.863   2.040 -1.8324  1.3135 -0.9160
 6907SOL    HW327401   3.783   1.837   1.981 -1.6121 -2.9201  0.0779
 6907SOL    MW427402   3.851   1.811   2.030  0.2902  0.2810  0.3162
 6908SOL     OW27403   0.979   4.922   5.216 -0.1417  0.6079  0.6943
 6908SOL    HW227404   1.055   4.953   5.168 -1.1727  1.9986 -0.1015
 6908SOL    HW327405   0.934   4.863   5.155  0.0425  0.1510  0.9939
 6908SOL    MW427406   0.983   4.918   5.201 -0.2544  0.2658 -0.3267
 6909SOL     OW27407   4.614   5.516   3.998 -0.3110 -0.3351  0.5047
 6909SOL    HW227408   4.610   5.423   4.020  0.2193 -0.2211  1.1132
 6909SOL    HW327409   4.681   5.521   3.930 -1.4713 -0.5970 -0.6980
 6909SOL    MW427410   4.622   5.504   3.992  0.7228 -0.2067  0.3217
 6910SOL     OW27411   0.508   5.016   0.795  0.7200 -0.5146  0.5669
 6910SOL    HW227412   0.550   5.102   0.786  3.0331 -1.7097 -0.9879
 6910SOL    HW327413   0.543   4.981   0.877 -0.8032  0.2378  1.6003
 6910SOL    MW427414   0.518   5.023   0.805  0.3817 -0.7527  0.0629
 6911SOL     OW27415   5.187   6.159   4.633  0.2770 -0.0624  0.5209
 6911SOL    HW227416   5.139   6.084   4.667  0.9232 -0.6511  0.1724
 6911SOL    HW327417   5.248   6.183   4.702 -0.3649  0.5531  0.8819
 6911SOL    MW427418   5.189   6.153   4.646  0.0999 -0.7131 -0.0324
 6912SOL     OW27419   4.852   0.671   3.081  0.3875 -0.4626 -0.0840
 6912SOL    HW227420   4.891   0.721   3.153 -0.7233 -0.4137  0.5067
 6912SOL    HW327421   4.794   0.733   3.038  0.0933 -0.8444 -0.2392
 6912SOL    MW427422   4.849   0.686   3.085  0.2813 -0.1076  0.5306
 6913SOL     OW27423   1.321   3.199   0.958  0.1082  0.4655  0.1193
 6913SOL    HW227424   1.301   3.208   1.051 -2.0353  0.3473 -0.2702
 6913SOL    HW327425   1.390   3.132   0.955  0.5819  0.8484  1.6353
 6913SOL    MW427426   1.328   3.191   0.970 -0.0145 -0.1652 -0.6702
 6914SOL     OW27427   2.422   5.321   3.360 -0.7196  0.2956  0.1071
 6914SOL    HW227428   2.331   5.294   3.368 -0.3348 -1.1329  0.0617
 6914SOL    HW327429   2.458   5.264   3.292  0.8648 -1.1698  2.0368
 6914SOL    MW427430   2.415   5.310   3.352  0.2136  0.4558  0.7664
 6915SOL     OW27431   0.580   0.935   2.799 -0.0451  0.2694 -0.3158
 6915SOL    HW227432   0.487   0.921   2.813 -0.1258  0.7363 -0.3637
 6915SOL    HW327433   0.620   0.924   2.886 -0.0629 -0.5254 -0.4018
 6915SOL    MW427434   0.573   0.932   2.812  0.0280  0.0238  0.1262
 6916SOL     OW27435   0.039   2.876   4.027 -0.0607  0.1388  0.1214
 6916SOL    HW227436   0.035   2.784   4.053 -1.2794  0.0224 -0.3816
 6916SOL    HW327437   0.066   2.922   4.106 -0.4314 -0.5492  0.6684
 6916SOL    MW427438   0.042   2.870   4.041 -0.5407  0.1254  0.0454
 6917SOL     OW27439   3.007   2.120   1.804 -0.1161 -0.6204 -0.3756
 6917SOL    HW227440   2.981   2.071   1.726 -0.8601 -0.9485  0.0742
 6917SOL    HW327441   2.924   2.150   1.843  0.3045  0.9065 -0.5779
 6917SOL    MW427442   2.992   2.117   1.799  0.1063  0.2314 -0.1799
 6918SOL     OW27443   5.975   4.446   5.280 -0.0592  0.3951 -0.1620
 6918SOL    HW227444   6.031   4.400   5.343 -1.2443 -0.4752  0.3020
 6918SOL    HW327445   6.002   4.537   5.286 -0.5087  0.4499  2.0535
 6918SOL    MW427446   5.986   4.452   5.289  0.1121  0.4339  0.4012
 6919SOL     OW27447   3.807   2.159   5.908  0.6551  0.6584  0.5383
 6919SOL    HW227448   3.787   2.151   5.815 -1.0258 -0.2104  0.9236
 6919SOL    HW327449   3.825   2.069   5.937 -1.3506  0.4881  1.5031
 6919SOL    MW427450   3.807   2.146   5.900  0.2309 -0.2349 -0.1209
 6920SOL     OW27451   5.546   5.711   4.186  0.3686  0.0462  0.3185
 6920SOL    HW227452   5.546   5.677   4.276 -4.5859  2.3666  1.5636
 6920SOL    HW327453   5.527   5.635   4.132 -0.0077 -0.8752  1.6830
 6920SOL    MW427454   5.543   5.696   4.191  0.1207 -0.2961 -0.2137
 6921SOL     OW27455   5.428   5.094   2.087 -0.2021 -0.3335 -0.5173
 6921SOL    HW227456   5.400   5.103   1.996 -1.9665  0.5802  0.0691
 6921SOL    HW327457   5.351   5.061   2.133  0.3110  0.2438  0.8202
 6921SOL    MW427458   5.414   5.091   2.081 -0.1673  0.0230 -0.1700
 6922SOL     OW27459   2.942   3.178   2.974  0.2672  0.1843 -0.4240
 6922SOL    HW227460   2.946   3.111   2.905  0.7837  0.6706 -0.8734
 6922SOL    HW327461   3.031   3.183   3.009 -0.4319 -1.6317  1.8397
 6922SOL    MW427462   2.954   3.170   2.969 -0.2477 -0.4526 -0.1482
 6923SOL     OW27463   0.907   4.436   2.424 -0.3032  0.2310  0.1815
 6923SOL    HW227464   0.867   4.509   2.472 -0.9762  0.2911 -0.4451
 6923SOL    HW327465   0.841   4.367   2.428 -0.1382  0.0496 -0.1823
 6923SOL    MW427466   0.893   4.437   2.431 -0.3988 -0.1714  0.1583
 6924SOL     OW27467   2.234   1.485   1.733  0.3941  0.4586 -0.1745
 6924SOL    HW227468   2.260   1.502   1.643  0.7901  0.6509 -0.0253
 6924SOL    HW327469   2.157   1.540   1.746  1.0477  1.3607 -0.0241
 6924SOL    MW427470   2.227   1.494   1.723  0.7863  0.2207 -0.1973
 6925SOL     OW27471   1.643   3.269   1.200 -0.0277  0.3580  0.6765
 6925SOL    HW227472   1.725   3.268   1.248 -1.2777 -1.4609  2.9650
 6925SOL    HW327473   1.650   3.196   1.138  0.6390  1.1939 -0.2683
 6925SOL    MW427474   1.655   3.259   1.198  0.2662  0.0897  0.0525
 6926SOL     OW27475   0.598   3.828   0.246 -0.4487  0.2108  0.1487
 6926SOL    HW227476   0.616   3.899   0.185 -0.7918  0.4707  0.3508
 6926SOL    HW327477   0.658   3.843   0.319 -1.5398  1.1595  0.8889
 6926SOL    MW427478   0.608   3.839   0.247  0.0479 -0.2464 -0.1301
 6927SOL     OW27479   4.105   0.736   2.576  0.3853  0.2264 -0.1664
 6927SOL    HW227480   4.128   0.826   2.600 -1.5407  0.9969 -0.9660
 6927SOL    HW327481   4.174   0.708   2.516  0.4458  1.5797 -0.7581
 6927SOL    MW427482   4.117   0.744   2.571  0.2472 -0.3377 -0.1388
 6928SOL     OW27483   5.993   3.059   5.944 -0.6827 -0.4410  0.6223
 6928SOL    HW227484   6.061   3.121   5.919  0.1109 -1.4659  0.1498
 6928SOL    HW327485   5.924   3.113   5.983 -1.3222  1.1204 -2.3479
 6928SOL    MW427486   5.993   3.074   5.946  0.4003  0.1423  0.3190
 6929SOL     OW27487   5.593   3.446   4.204  0.0997  0.1395  0.2129
 6929SOL    HW227488   5.506   3.482   4.222 -0.1606  0.3826 -1.3765
 6929SOL    HW327489   5.590   3.357   4.240 -0.9760 -0.0250 -0.2347
 6929SOL    MW427490   5.581   3.439   4.211  0.0359 -0.7137  0.0851
 6930SOL     OW27491   2.302   2.697   5.032 -0.6099  0.4025  0.2398
 6930SOL    HW227492   2.222   2.711   5.083 -0.3815 -2.9794  1.7776
 6930SOL    HW327493   2.278   2.630   4.969  0.5256  0.7929 -0.6313
 6930SOL    MW427494   2.288   2.690   5.031 -0.3108  0.4531 -0.1271
 6931SOL     OW27495   4.858   0.284   2.445 -0.4945 -0.2351  0.3045
 6931SOL    HW227496   4.916   0.329   2.507 -0.2673  0.8475 -0.6515
 6931SOL    HW327497   4.866   0.191   2.466  2.3774 -0.2303 -0.4264
 6931SOL    MW427498   4.867   0.278   2.456  0.1758 -0.0298  0.1146
 6932SOL     OW27499   1.411   5.518   5.607  0.3731  0.5000  0.7688
 6932SOL    HW227500   1.385   5.493   5.518  2.3018  1.3914 -0.0931
 6932SOL    HW327501   1.379   5.608   5.618  0.8947  0.7040  0.6408
 6932SOL    MW427502   1.403   5.527   5.597 -0.2159 -0.4313 -0.2527
 6933SOL     OW27503   2.332   3.687   0.501 -0.7069  0.2309 -0.0696
 6933SOL    HW227504   2.255   3.731   0.467 -1.7776 -1.6488 -0.1678
 6933SOL    HW327505   2.336   3.715   0.593 -3.8388 -2.5452  1.1056
 6933SOL    MW427506   2.323   3.697   0.509  0.1899 -0.2311 -0.2680
 6934SOL     OW27507   5.975   4.707   3.376  0.1426 -0.2986  0.6406
 6934SOL    HW227508   6.008   4.620   3.399  2.7619  1.1255  3.0113
 6934SOL    HW327509   5.952   4.747   3.460 -1.1697  1.2493 -0.3975
 6934SOL    MW427510   5.977   4.701   3.390 -0.3104 -1.0350 -0.4034
 6935SOL     OW27511   2.343   0.271   0.751 -0.6830  0.0390  0.4184
 6935SOL    HW227512   2.314   0.201   0.809 -1.3944 -0.9710 -1.0862
 6935SOL    HW327513   2.320   0.240   0.663  0.9549  1.1949 -0.4748
 6935SOL    MW427514   2.336   0.257   0.747  0.3412 -0.1588  0.2315
 6936SOL     OW27515   0.242   0.165   5.914  0.3110  0.3016 -0.0624
 6936SOL    HW227516   0.232   0.114   5.834  1.3069  1.0453 -0.6810
 6936SOL    HW327517   0.156   0.160   5.957  0.5983 -2.5380  0.3216
 6936SOL    MW427518   0.229   0.158   5.909  0.4149 -0.4544  0.5304
 6937SOL     OW27519   0.656   1.377   4.763  0.1565 -0.2065 -0.9105
 6937SOL    HW227520   0.733   1.430   4.742  0.2101 -0.9928 -2.8913
 6937SOL    HW327521   0.582   1.437   4.755  0.5299  0.6731  1.4620
 6937SOL    MW427522   0.656   1.392   4.759 -0.2012  0.0614  0.3365
 6938SOL     OW27523   1.219   0.264   5.547  0.2021 -0.5604  0.3685
 6938SOL    HW227524   1.169   0.185   5.526 -1.4386  0.3554  0.6901
 6938SOL    HW327525   1.247   0.297   5.461 -0.2632 -0.7539  0.1377
 6938SOL    MW427526   1.216   0.258   5.533  0.2612 -0.1183  0.1903
 6939SOL     OW27527   2.615   3.935   6.171 -0.3635 -0.1124  0.1976
 6939SOL    HW227528   2.558   4.012   6.174  0.8321  0.9444 -1.8416
 6939SOL    HW327529   2.665   3.946   6.090  0.4035 -2.6630  0.2495
 6939SOL    MW427530   2.614   3.946   6.161 -0.1039  0.3897 -0.4099
 6940SOL     OW27531   0.932   5.172   3.439 -0.0935 -0.2934  0.0598
 6940SOL    HW227532   0.883   5.114   3.497 -0.6355  0.3613  0.2744
 6940SOL    HW327533   0.911   5.141   3.351  0.4550 -1.0718  0.1905
 6940SOL    MW427534   0.922   5.160   3.435 -0.8183  0.0314 -0.3333
 6941SOL     OW27535   4.688   1.681   1.193 -0.0017  0.0421 -0.6833
 6941SOL    HW227536   4.718   1.597   1.229  0.3635  0.4690  0.0318
 6941SOL    HW327537   4.702   1.673   1.098 -0.4294 -0.8817 -0.6753
 6941SOL    MW427538   4.694   1.669   1.185 -0.1984 -0.2381 -0.1955
 6942SOL     OW27539   1.163   1.664   2.184  0.5215 -0.0739  0.6712
 6942SOL    HW227540   1.108   1.651   2.106  1.1809 -3.4335  0.6043
 6942SOL    HW327541   1.102   1.658   2.257  0.4946 -2.8564  0.5529
 6942SOL    MW427542   1.148   1.661   2.183  0.3389  0.1118 -0.4995
 6943SOL     OW27543   4.144   4.651   0.786 -0.2899  0.0181 -0.0831
 6943SOL    HW227544   4.113   4.702   0.862 -1.0603 -0.4776 -0.0606
 6943SOL    HW327545   4.073   4.657   0.722 -0.3352 -0.9202 -0.1310
 6943SOL    MW427546   4.130   4.659   0.788 -0.4427 -0.5893 -0.1657
 6944SOL     OW27547   0.593   4.079   3.063 -0.0648  0.1083 -0.4103
 6944SOL    HW227548   0.686   4.059   3.062  0.0189  0.4991 -1.0299
 6944SOL    HW327549   0.579   4.122   3.147  0.7670  2.0471 -1.2035
 6944SOL    MW427550   0.603   4.082   3.074 -0.3434 -0.0442 -0.1697
 6945SOL     OW27551   1.833   0.961   5.924  0.1536  0.2445  0.4104
 6945SOL    HW227552   1.803   1.019   5.855  0.7491  2.0173  1.5721
 6945SOL    HW327553   1.889   0.897   5.879  0.5458  1.3581 -0.7365
 6945SOL    MW427554   1.836   0.960   5.909  0.4761 -0.7189 -0.5997
 6946SOL     OW27555   3.690   5.862   0.650 -0.5155  0.5258  0.1665
 6946SOL    HW227556   3.611   5.907   0.680 -0.0996  0.3349  1.6425
 6946SOL    HW327557   3.733   5.924   0.591  0.2213  2.2838  2.3947
 6946SOL    MW427558   3.686   5.876   0.646 -0.7398 -0.5756 -0.6611
 6947SOL     OW27559   4.093   1.020   5.038  0.4306  0.0865 -0.3971
 6947SOL    HW227560   4.056   1.090   4.983 -0.5399 -1.5692 -1.9774
 6947SOL    HW327561   4.020   0.958   5.050  1.2323 -0.6226  1.0445
 6947SOL    MW427562   4.078   1.021   5.032  0.1948 -0.2573  0.0709
 6948SOL     OW27563   3.768   6.205   4.010 -0.4605  0.4844 -0.1917
 6948SOL    HW227564   3.808   6.124   3.979 -0.9882  0.1437 -0.0007
 6948SOL    HW327565   3.795   6.211   4.102  0.1079  0.8633 -0.3803
 6948SOL    MW427566   3.777   6.195   4.018 -0.6497 -0.1469  0.2970
 6949SOL     OW27567   0.831   4.641   1.491  0.0774 -0.1676  0.2843
 6949SOL    HW227568   0.813   4.734   1.497  1.2539 -0.0327  2.7457
 6949SOL    HW327569   0.747   4.599   1.510 -0.0880  0.3876  0.7923
 6949SOL    MW427570   0.817   4.647   1.494 -0.1224 -0.1251  0.2191
 6950SOL     OW27571   2.949   3.801   2.491 -0.0860  0.0365  0.0596
 6950SOL    HW227572   2.987   3.882   2.456 -0.6244  0.2967  0.0703
 6950SOL    HW327573   2.969   3.735   2.424  1.5630 -0.1375  0.6813
 6950SOL    MW427574   2.957   3.803   2.477  0.2554 -0.0806  0.6937
 6951SOL     OW27575   3.009   3.192   0.761 -0.2630  0.7226 -0.1275
 6951SOL    HW227576   3.035   3.175   0.852  1.3197 -1.4819 -0.9122
 6951SOL    HW327577   2.913   3.200   0.765 -0.3192 -0.2542  1.6034
 6951SOL    MW427578   2.999   3.191   0.774 -0.3489 -0.2717  0.2756
 6952SOL     OW27579   1.574   2.347   1.263  0.1444  0.5913  0.3700
 6952SOL    HW227580   1.636   2.383   1.200 -0.5512  0.4667 -0.3937
 6952SOL    HW327581   1.560   2.257   1.234 -0.7520  0.7592  0.2587
 6952SOL    MW427582   1.580   2.340   1.251  0.0227  0.5446  0.1239
 6953SOL     OW27583   6.372   4.485   2.002 -0.4803 -0.0494  0.3059
 6953SOL    HW227584   6.466   4.469   1.992 -0.8550 -1.3816 -1.5765
 6953SOL    HW327585   6.366   4.540   2.080  1.6051 -2.8480  2.7083
 6953SOL    MW427586   6.384   4.490   2.011 -0.4441 -0.6668  0.1778
 6954SOL     OW27587   0.561   5.086   3.436  0.0331  0.0103 -0.0301
 6954SOL    HW227588   0.547   5.146   3.509 -1.7311  0.0023 -0.3256
 6954SOL    HW327589   0.606   5.139   3.370  0.2611  0.4352  0.4574
 6954SOL    MW427590   0.565   5.101   3.437  0.4559 -0.2587 -0.2622
 6955SOL     OW27591   1.218   2.623   0.655  0.2988  0.6080 -0.0156
 6955SOL    HW227592   1.125   2.627   0.637  0.4744  0.9175 -0.9036
 6955SOL    HW327593   1.237   2.702   0.705 -0.4712 -0.9913  3.0708
 6955SOL    MW427594   1.209   2.634   0.659 -0.0993  0.6367  0.6639
 6956SOL     OW27595   3.159   2.411   5.221 -0.2319 -0.4848  0.1539
 6956SOL    HW227596   3.073   2.386   5.187  0.6896 -1.7661 -1.3583
 6956SOL    HW327597   3.150   2.404   5.316 -2.0152  0.2033  0.0758
 6956SOL    MW427598   3.147   2.407   5.229 -0.0313  0.2356  0.0724
 6957SOL     OW27599   0.835   2.319   3.504  0.4889 -0.5497 -0.1493
 6957SOL    HW227600   0.743   2.295   3.512  0.6830 -1.4088 -0.3442
 6957SOL    HW327601   0.852   2.317   3.410  0.2010  1.6680 -0.2985
 6957SOL    MW427602   0.825   2.315   3.493  0.0879 -0.1259 -0.2543
 6958SOL     OW27603   3.211   0.394   0.762  0.4525 -0.3424 -0.2364
 6958SOL    HW227604   3.228   0.467   0.821  1.2373 -0.4677 -0.2985
 6958SOL    HW327605   3.239   0.316   0.810  0.3260 -0.5306 -0.4601
 6958SOL    MW427606   3.217   0.393   0.776 -0.3331 -0.3298 -0.7567
 6959SOL     OW27607   4.674   5.489   1.103  0.9038  0.0317  0.1091
 6959SOL    HW227608   4.623   5.452   1.174 -0.5890  0.8822 -0.4820
 6959SOL    HW327609   4.671   5.584   1.117  2.2178  0.1114 -0.0199
 6959SOL    MW427610   4.667   5.497   1.114 -0.3336 -0.6384  0.1883
 6960SOL     OW27611   5.704   4.386   2.022 -0.3154  0.5626  0.2002
 6960SOL    HW227612   5.693   4.390   1.927 -1.2853  0.6540  0.3045
 6960SOL    HW327613   5.680   4.296   2.045 -1.1538  0.8481  0.4753
 6960SOL    MW427614   5.700   4.374   2.013 -0.0711  0.4755 -0.0734
 6961SOL     OW27615   6.280   4.189   1.754  0.0570  0.3346 -0.2531
 6961SOL    HW227616   6.288   4.284   1.756 -0.0712  0.3683  2.3593
 6961SOL    HW327617   6.369   4.158   1.742  0.0995  0.7494 -1.1344
 6961SOL    MW427618   6.292   4.198   1.753 -0.5076 -0.5153 -0.9480
 6962SOL     OW27619   2.377   6.175   4.013 -0.0106  0.0551  0.8530
 6962SOL    HW227620   2.426   6.099   3.982  2.1348  1.1310  1.4107
 6962SOL    HW327621   2.442   6.245   4.019 -1.8178  1.8376  0.7737
 6962SOL    MW427622   2.392   6.174   4.010 -0.3946  0.1453 -0.4188
 6963SOL     OW27623   0.434   2.983   5.807 -0.1829 -0.2768 -0.2697
 6963SOL    HW227624   0.471   2.916   5.865 -0.7524 -0.3378  0.0241
 6963SOL    HW327625   0.353   2.945   5.775 -0.1249 -0.0350 -0.7089
 6963SOL    MW427626   0.428   2.969   5.811  0.2305 -0.2669  0.2317
 6964SOL     OW27627   0.501   2.276   5.657  0.3047  0.2970  0.1642
 6964SOL    HW227628   0.572   2.340   5.658  0.4204  0.1779  1.4253
 6964SOL    HW327629   0.431   2.316   5.709  0.2610 -0.4479  0.7064
 6964SOL    MW427630   0.501   2.289   5.664 -0.4190  0.1239  0.5249
 6965SOL     OW27631   0.111   3.357   5.808  0.7724 -0.1355 -0.4031
 6965SOL    HW227632   0.112   3.272   5.851 -0.1771 -0.0901 -0.2693
 6965SOL    HW327633   0.039   3.352   5.745  0.9784  0.4243 -0.6964
 6965SOL    MW427634   0.102   3.345   5.806  0.3292 -0.4745  0.5568
 6966SOL     OW27635   6.217   0.452   4.638  0.2049 -0.3016 -0.4866
 6966SOL    HW227636   6.228   0.426   4.729 -1.0277  0.4969 -0.0929
 6966SOL    HW327637   6.160   0.529   4.641  1.3802  0.6714 -1.8347
 6966SOL    MW427638   6.211   0.458   4.650 -0.6817 -0.2168  0.5465
 6967SOL     OW27639   2.003   1.936   0.822 -0.0953  0.4134  0.4007
 6967SOL    HW227640   1.920   1.933   0.868 -1.1447  1.8500 -1.2809
 6967SOL    HW327641   1.996   2.010   0.762  2.3147  0.4500  0.0294
 6967SOL    MW427642   1.991   1.945   0.820  0.8205  0.0810 -0.1951
 6968SOL     OW27643   3.067   2.221   1.231 -0.2151  0.5844 -0.4869
 6968SOL    HW227644   3.149   2.182   1.199  0.4518  0.5707  1.1141
 6968SOL    HW327645   3.085   2.315   1.237 -1.0557  0.8775 -2.1585
 6968SOL    MW427646   3.080   2.228   1.228  0.0567 -0.1954  0.3160
 6969SOL     OW27647   2.004   0.550   0.539  0.5138  0.4980 -0.1120
 6969SOL    HW227648   1.985   0.468   0.583 -0.3255  0.8462  0.2008
 6969SOL    HW327649   1.978   0.535   0.448 -3.2261  1.5164  0.6268
 6969SOL    MW427650   1.998   0.537   0.533  0.5676  0.6249 -0.1722
 6970SOL     OW27651   1.338   6.411   6.174 -0.0792 -0.2655 -0.3288
 6970SOL    HW227652   1.389   6.488   6.200  0.9472 -0.3882 -1.8201
 6970SOL    HW327653   1.368   6.392   6.085 -2.4160 -0.6603 -1.0880
 6970SOL    MW427654   1.349   6.419   6.166 -0.4099 -0.8310 -0.1165
 6971SOL     OW27655   3.234   5.189   1.906  0.1525  0.1341 -0.6161
 6971SOL    HW227656   3.237   5.103   1.949 -1.1403  0.2726 -0.2224
 6971SOL    HW327657   3.277   5.175   1.822  0.8007 -0.6658 -0.1678
 6971SOL    MW427658   3.240   5.175   1.901 -0.0234  0.6711 -0.2618
 6972SOL     OW27659   0.422   0.232   3.764  0.0136 -0.5136  0.1594
 6972SOL    HW227660   0.355   0.168   3.786 -0.5579  0.4932  1.4411
 6972SOL    HW327661   0.491   0.181   3.721 -0.7127 -1.8675  0.5686
 6972SOL    MW427662   0.422   0.217   3.761 -0.0564  0.1739 -0.2109
 6973SOL     OW27663   3.107   2.381   2.284  0.2847 -0.2886  0.0703
 6973SOL    HW227664   3.103   2.468   2.322 -0.4257  0.3155 -1.3208
 6973SOL    HW327665   3.198   2.353   2.294  0.2592  0.1194  1.5566
 6973SOL    MW427666   3.118   2.389   2.290 -0.0450 -0.7840  0.3932
 6974SOL     OW27667   0.991   6.185   5.821 -0.3064  0.4514 -0.1857
 6974SOL    HW227668   0.981   6.258   5.882 -3.2590  1.2353 -1.4459
 6974SOL    HW327669   1.050   6.218   5.753  0.3373  0.7459  0.5039
 6974SOL    MW427670   0.998   6.199   5.820  0.9579  0.1656 -0.7410
 6975SOL     OW27671   4.098   6.082   0.156  0.7232  0.6314  1.1534
 6975SOL    HW227672   4.052   6.137   0.093  0.8423  0.0275  0.5231
 6975SOL    HW327673   4.148   6.021   0.103 -1.8443 -2.2197  1.6769
 6975SOL    MW427674   4.098   6.081   0.141  0.1621 -0.1178 -0.2019
 6976SOL     OW27675   4.540   2.020   5.691 -0.1576  0.3070  0.3201
 6976SOL    HW227676   4.529   2.114   5.708 -0.2453  0.7184 -1.7606
 6976SOL    HW327677   4.606   2.016   5.622  0.8435 -1.2659  1.3246
 6976SOL    MW427678   4.547   2.032   5.684 -0.2688  0.6407  0.0998
 6977SOL     OW27679   4.977   2.493   2.453 -0.2750  0.4490  0.1460
 6977SOL    HW227680   5.010   2.403   2.451  0.0238  0.5461  0.4411
 6977SOL    HW327681   4.889   2.486   2.489 -1.5235 -0.0731 -2.7245
 6977SOL    MW427682   4.970   2.481   2.458 -0.1639  0.6601  0.1354
 6978SOL     OW27683   4.700   2.299   2.921 -0.3859  0.0901  0.0226
 6978SOL    HW227684   4.732   2.275   2.834 -2.5456 -0.9177 -0.5728
 6978SOL    HW327685   4.725   2.391   2.931 -0.7775  0.4787 -2.0306
 6978SOL    MW427686   4.707   2.308   2.911 -0.3908 -0.8103  0.0077
 6979SOL     OW27687   5.005   2.515   4.830  0.1330  0.1942 -0.2756
 6979SOL    HW227688   4.990   2.424   4.804 -1.5581  0.1956  0.5082
 6979SOL    HW327689   5.094   2.535   4.802  1.5815 -2.5440  1.9112
 6979SOL    MW427690   5.015   2.506   4.823 -0.6462  0.2796  0.0865
 6980SOL     OW27691   2.413   3.398   1.721  0.4124  0.5991 -0.4401
 6980SOL    HW227692   2.490   3.432   1.675 -0.8815  2.3064 -1.4518
 6980SOL    HW327693   2.393   3.315   1.677  0.4095  1.2022 -1.5921
 6980SOL    MW427694   2.420   3.391   1.709  0.3608  0.3542  0.3623
 6981SOL     OW27695   0.911   2.439   3.747  0.0317  0.1587 -0.2617
 6981SOL    HW227696   0.893   2.392   3.665 -0.5283 -1.2781  0.6459
 6981SOL    HW327697   0.881   2.379   3.816  1.2879  0.9613  1.0340
 6981SOL    MW427698   0.905   2.425   3.745 -0.1965  0.4034  0.2798
 6982SOL     OW27699   6.325   4.709   3.707 -0.5347  0.4945  0.7606
 6982SOL    HW227700   6.414   4.744   3.710 -0.1571 -0.2271 -0.8924
 6982SOL    HW327701   6.295   4.728   3.618 -0.9300 -1.7840  0.3427
 6982SOL    MW427702   6.333   4.716   3.695  0.2849  0.2922 -0.1502
 6983SOL     OW27703   2.684   2.493   1.366 -0.2689  0.8566 -0.0173
 6983SOL    HW227704   2.732   2.531   1.293  2.2523  0.2307  1.2047
 6983SOL    HW327705   2.665   2.403   1.339  2.1738  0.0696  0.6473
 6983SOL    MW427706   2.688   2.486   1.353  0.1868  0.2061 -0.1217
 6984SOL     OW27707   4.189   1.160   4.501  0.0337  0.5794 -0.1000
 6984SOL    HW227708   4.170   1.093   4.435  2.1132  0.9143 -1.1147
 6984SOL    HW327709   4.197   1.111   4.583  1.8038 -0.5419 -0.8730
 6984SOL    MW427710   4.188   1.145   4.503  0.1055  0.3934 -0.2282
 6985SOL     OW27711   4.187   4.302   0.650 -0.4706 -0.1407 -0.0094
 6985SOL    HW227712   4.189   4.260   0.736 -0.2134 -0.9805 -0.4114
 6985SOL    HW327713   4.207   4.231   0.589 -0.8431  0.4053 -0.7771
 6985SOL    MW427714   4.190   4.287   0.653 -0.1529  0.4444  0.4324
 6986SOL     OW27715   4.284   0.512   5.512 -0.0205  0.3167  0.1902
 6986SOL    HW227716   4.313   0.531   5.423  0.2604 -0.2800  0.1499
 6986SOL    HW327717   4.245   0.594   5.543 -0.0262  0.5557 -0.4431
 6986SOL    MW427718   4.283   0.525   5.504 -0.0958 -0.0831  0.0448
 6987SOL     OW27719   0.047   1.287   4.596 -0.4820  0.1607 -0.4442
 6987SOL    HW227720   0.034   1.195   4.616 -0.9573 -0.0168 -1.4796
 6987SOL    HW327721   0.013   1.297   4.507 -1.0331  1.4725 -0.1036
 6987SOL    MW427722   0.041   1.276   4.587 -0.1093 -0.1177 -0.6737
 6988SOL     OW27723   1.056  -0.007   0.551 -0.0264  0.1372  0.1713
 6988SOL    HW227724   1.100   0.007   0.635 -0.7671  0.5497  0.5089
 6988SOL    HW327725   1.115   0.032   0.486  0.1440  0.6146  0.6012
 6988SOL    MW427726   1.070   0.000   0.554  0.4730 -0.1802  0.1973
 6989SOL     OW27727   2.235   6.395   4.385  0.2439  0.3341 -0.2141
 6989SOL    HW227728   2.152   6.406   4.432 -0.3876 -2.6670 -0.4603
 6989SOL    HW327729   2.300   6.383   4.453  0.1851  0.9483 -0.0460
 6989SOL    MW427730   2.233   6.395   4.400  0.3077  0.1920  0.6997
 6990SOL     OW27731   1.539   6.364   5.038  0.6843  0.4599 -0.7836
 6990SOL    HW227732   1.547   6.297   4.970  0.5431  0.6476 -0.9895
 6990SOL    HW327733   1.562   6.319   5.119 -0.0851 -0.0183 -0.8221
 6990SOL    MW427734   1.543   6.349   5.039 -0.1171  0.0924 -0.6901
 6991SOL     OW27735   4.520   4.664   2.113  0.4811 -0.4285 -0.1252
 6991SOL    HW227736   4.581   4.737   2.120  0.1160 -0.2439  1.6198
 6991SOL    HW327737   4.476   4.661   2.198 -0.0369 -2.2305 -0.4096
 6991SOL    MW427738   4.522   4.673   2.125  0.0503 -0.3394  0.1524
 6992SOL     OW27739   3.397   2.558   5.504 -0.1077 -0.1236  0.0641
 6992SOL    HW227740   3.409   2.636   5.558  0.1804 -0.8977  1.1601
 6992SOL    HW327741   3.480   2.550   5.455  0.7688 -0.9478  1.6010
 6992SOL    MW427742   3.410   2.567   5.505  0.4556 -0.2394 -0.0381
 6993SOL     OW27743   5.853   5.287   3.781  0.2269  0.0703  0.3171
 6993SOL    HW227744   5.808   5.221   3.728 -1.4073  1.3663  0.0054
 6993SOL    HW327745   5.934   5.305   3.733 -1.1622  1.1296 -1.7743
 6993SOL    MW427746   5.858   5.281   3.768 -0.0986 -0.1143 -0.1188
 6994SOL     OW27747   2.001   1.892   5.682 -0.4078  0.1538  0.8556
 6994SOL    HW227748   1.958   1.853   5.758  1.5390  0.0827  1.9865
 6994SOL    HW327749   2.063   1.826   5.652  0.3894  0.9989  0.5682
 6994SOL    MW427750   2.004   1.878   5.688  0.3411  0.0678 -0.4311
 6995SOL     OW27751   0.172   0.591   0.858 -0.3368 -0.0206  0.2517
 6995SOL    HW227752   0.126   0.519   0.901 -0.9855 -0.1905 -0.7045
 6995SOL    HW327753   0.164   0.664   0.919 -0.5054 -0.4776  0.7966
 6995SOL    MW427754   0.165   0.591   0.872 -0.3305 -0.2273 -0.3498
 6996SOL     OW27755   2.873   3.718   1.652  0.2395 -0.3514  0.2683
 6996SOL    HW227756   2.858   3.810   1.675 -0.0787 -0.3848  0.1992
 6996SOL    HW327757   2.924   3.721   1.571 -1.6795 -0.2234 -0.9861
 6996SOL    MW427758   2.878   3.730   1.644  0.2523 -0.1910  0.1756
 6997SOL     OW27759   5.576   5.713   5.630 -0.1937 -0.1434 -1.6171
 6997SOL    HW227760   5.485   5.703   5.661 -0.1353  0.6104 -1.1655
 6997SOL    HW327761   5.599   5.803   5.654  0.6763 -0.3314 -1.7310
 6997SOL    MW427762   5.567   5.723   5.637  0.1743 -0.1596 -0.4689
 6998SOL     OW27763   3.844   2.684   2.961  0.4165 -0.3697  0.1539
 6998SOL    HW227764   3.875   2.771   2.935  1.1762 -0.6508  0.0932
 6998SOL    HW327765   3.909   2.624   2.927 -0.4188 -1.0247 -0.3366
 6998SOL    MW427766   3.856   2.688   2.953  0.2367  0.2326 -0.1099
 6999SOL     OW27767   3.225   2.931   6.404  0.6128 -0.0827  0.4712
 6999SOL    HW227768   3.212   2.892   6.491 -0.2668 -0.6878  0.0781
 6999SOL    HW327769   3.273   2.864   6.355 -1.2547 -0.9021 -0.3314
 6999SOL    MW427770   3.230   2.917   6.409  0.1458  0.2455 -0.2226
 7000SOL     OW27771   4.885   1.671   3.286 -0.4468 -0.0269 -0.7820
 7000SOL    HW227772   4.825   1.614   3.238  0.3138 -0.9501 -0.6645
 7000SOL    HW327773   4.932   1.612   3.345  1.2120  0.5154 -1.5064
 7000SOL    MW427774   4.883   1.656   3.287 -0.2914  0.4502 -0.1994
 7001SOL     OW27775   6.155   0.496   1.389  0.2137 -0.1978 -0.1628
 7001SOL    HW227776   6.120   0.422   1.439 -0.6231 -0.4338 -1.0844
 7001SOL    HW327777   6.250   0.484   1.394  0.0928 -1.3412 -0.3115
 7001SOL    MW427778   6.163   0.485   1.396  1.2000  0.1520 -0.2974
 7002SOL     OW27779   3.774   0.922   6.251  0.2098  0.5713 -0.1690
 7002SOL    HW227780   3.720   0.872   6.313  0.7277  1.5217  1.1046
 7002SOL    HW327781   3.807   0.857   6.190  0.0894 -0.5035  0.8718
 7002SOL    MW427782   3.771   0.907   6.251  0.4520  0.0761  0.4044
 7003SOL     OW27783   2.698   5.989   0.157 -0.0589  0.5661 -0.3251
 7003SOL    HW227784   2.739   5.903   0.152 -0.6441  0.2378  0.2827
 7003SOL    HW327785   2.754   6.040   0.215 -1.0979 -0.2569  1.4901
 7003SOL    MW427786   2.711   5.985   0.164  0.2495  0.1905 -0.0801
 7004SOL     OW27787   2.423   5.201   3.710  0.3597 -0.1904 -0.1796
 7004SOL    HW227788   2.471   5.181   3.791  0.1601 -0.3955 -0.1107
 7004SOL    HW327789   2.431   5.296   3.700  0.5467 -0.1898 -0.0200
 7004SOL    MW427790   2.430   5.211   3.720  0.2396 -0.4495 -0.9348
 7005SOL     OW27791   3.116   0.614   4.688  0.3656 -0.2777  0.4223
 7005SOL    HW227792   3.176   0.674   4.644  0.4851 -0.6777  0.0211
 7005SOL    HW327793   3.036   0.618   4.636  0.9241 -1.7071 -0.6375
 7005SOL    MW427794   3.113   0.622   4.675  0.1088  0.2292  0.2165
 7006SOL     OW27795   1.780   1.591   0.368 -0.1785  0.2818 -0.1957
 7006SOL    HW227796   1.739   1.675   0.387  0.0130 -0.0534  2.0163
 7006SOL    HW327797   1.869   1.613   0.340  0.6104  0.8418  2.4612
 7006SOL    MW427798   1.786   1.605   0.367  0.2427 -0.4084  0.0588
 7007SOL     OW27799   5.442   5.783   1.208  0.2949  0.4721  1.0355
 7007SOL    HW227800   5.369   5.826   1.253  0.1241 -0.5915  1.8362
 7007SOL    HW327801   5.507   5.768   1.277  0.0777 -1.0979  0.9520
 7007SOL    MW427802   5.441   5.787   1.223 -0.1608  0.3318  0.0489
 7008SOL     OW27803   1.124   1.915   1.238 -0.2609  1.1110 -0.0952
 7008SOL    HW227804   1.218   1.902   1.227 -0.2255  1.8517 -0.7543
 7008SOL    HW327805   1.083   1.854   1.176 -0.2693 -0.1761  1.1297
 7008SOL    MW427806   1.131   1.905   1.228  0.0855 -0.7515  0.0620
 7009SOL     OW27807   0.682   0.873   3.071  0.8223  0.0167 -0.6165
 7009SOL    HW227808   0.725   0.958   3.082  0.1571  0.0573  2.8745
 7009SOL    HW327809   0.753   0.809   3.078  1.1735  0.2013 -2.1378
 7009SOL    MW427810   0.697   0.876   3.074 -0.0542  0.4906  0.0686
 7010SOL     OW27811   2.086   3.045   0.541  0.1987  0.1418 -0.3818
 7010SOL    HW227812   2.160   2.991   0.569 -0.1127 -0.0177  0.1278
 7010SOL    HW327813   2.101   3.130   0.582  0.4876  0.3375 -0.8790
 7010SOL    MW427814   2.098   3.049   0.550 -0.1133 -0.0532 -0.0995
 7011SOL     OW27815   2.072   2.758   5.193 -0.1456  0.2230  0.1437
 7011SOL    HW227816   2.001   2.803   5.147 -0.7426  0.2426  1.0565
 7011SOL    HW327817   2.043   2.667   5.199 -0.3832  0.3521  1.0531
 7011SOL    MW427818   2.059   2.752   5.188 -0.1900  0.2134  0.4131
 7012SOL     OW27819   4.950   3.916   4.315  0.4220 -0.4105 -0.3151
 7012SOL    HW227820   5.012   3.857   4.357 -0.0311 -0.3829  0.4160
 7012SOL    HW327821   4.866   3.894   4.355  0.3592  1.2264  0.5428
 7012SOL    MW427822   4.947   3.905   4.326  0.1134  0.6615  0.1812
 7013SOL     OW27823   2.650   6.268   1.482  0.2669  0.0369  0.1753
 7013SOL    HW227824   2.720   6.297   1.425  0.2923 -1.3008 -0.5208
 7013SOL    HW327825   2.577   6.328   1.464  0.3249 -0.2592 -1.1554
 7013SOL    MW427826   2.650   6.279   1.472 -0.8082 -0.1916 -0.1456
 7014SOL     OW27827   4.735   4.750   4.394  0.3931 -0.6253  0.0630
 7014SOL    HW227828   4.663   4.716   4.342  0.3803 -0.2387 -0.1709
 7014SOL    HW327829   4.723   4.711   4.481  0.8569 -1.8961 -0.4168
 7014SOL    MW427830   4.724   4.740   4.399 -0.0808  0.0544  0.2186
 7015SOL     OW27831   2.602   2.523   2.292 -0.1065 -0.3189 -0.2673
 7015SOL    HW227832   2.632   2.608   2.261 -1.3301  0.0832 -0.3649
 7015SOL    HW327833   2.670   2.496   2.355 -0.4938  1.4600  0.9945
 7015SOL    MW427834   2.615   2.530   2.296 -0.4534 -0.3098  0.4054
 7016SOL     OW27835   3.688   3.094   0.131 -0.0866  0.2862  0.1081
 7016SOL    HW227836   3.759   3.031   0.121  0.0598  0.4506  0.1026
 7016SOL    HW327837   3.715   3.148   0.206  0.8127  1.6815 -1.1667
 7016SOL    MW427838   3.701   3.093   0.140  0.2796 -0.4361 -0.2502
 7017SOL     OW27839   5.384   4.804   4.492  0.5825 -0.3177  0.4359
 7017SOL    HW227840   5.419   4.751   4.563 -1.0099 -2.6995 -0.4680
 7017SOL    HW327841   5.362   4.887   4.534 -0.2526 -1.6128  2.7271
 7017SOL    MW427842   5.386   4.808   4.507 -0.1561 -0.0462 -0.5666
 7018SOL     OW27843   5.130   1.069   4.887  0.2294  0.2939 -0.1540
 7018SOL    HW227844   5.053   1.046   4.836 -0.3685  0.6305  0.5853
 7018SOL    HW327845   5.165   0.984   4.916 -1.4842  0.2046  1.8559
 7018SOL    MW427846   5.125   1.054   4.884  0.3446 -0.2641  0.1569
 7019SOL     OW27847   6.323   0.668   5.595 -0.4258 -0.1863  0.1832
 7019SOL    HW227848   6.415   0.671   5.570 -0.5932  0.2596 -0.4156
 7019SOL    HW327849   6.279   0.725   5.531 -1.1954 -0.8780  0.0805
 7019SOL    MW427850   6.329   0.676   5.583 -0.4399 -0.3139  0.3877
 7020SOL     OW27851   5.017   0.236   6.343  0.2983 -0.2724 -0.8738
 7020SOL    HW227852   4.967   0.240   6.261 -0.4460  1.6264 -0.3849
 7020SOL    HW327853   5.105   0.210   6.317  0.2380  0.9328 -2.3779
 7020SOL    MW427854   5.022   0.233   6.329 -0.2648  0.6556  0.5452
 7021SOL     OW27855   4.592   4.140   0.816 -0.2788 -0.8157 -0.0381
 7021SOL    HW227856   4.590   4.235   0.830  2.5706 -0.8165  1.0218
 7021SOL    HW327857   4.540   4.105   0.889  1.3481 -0.1450  1.5118
 7021SOL    MW427858   4.585   4.148   0.828 -0.2212  0.1257  0.1701
 7022SOL     OW27859   5.885   4.634   4.428 -0.1940  0.4440  0.5742
 7022SOL    HW227860   5.848   4.547   4.413 -0.6761  0.3838  1.9787
 7022SOL    HW327861   5.973   4.618   4.461 -0.4363  0.4595  1.2495
 7022SOL    MW427862   5.892   4.621   4.430 -0.7067 -0.3717  0.0836
 7023SOL     OW27863   0.874   5.793   3.292  0.2553 -0.1829 -0.1115
 7023SOL    HW227864   0.804   5.733   3.316  0.9472 -0.6016  0.9654
 7023SOL    HW327865   0.832   5.879   3.288 -0.8220 -0.7670 -2.0751
 7023SOL    MW427866   0.859   5.797   3.295  0.5273  0.3195  0.0183
 7024SOL     OW27867   6.151   4.335   5.463 -0.1034  0.8563 -0.1508
 7024SOL    HW227868   6.124   4.316   5.552 -1.7511  0.4221 -0.7146
 7024SOL    HW327869   6.179   4.251   5.427  1.8991  1.2451  0.3303
 7024SOL    MW427870   6.151   4.322   5.470 -0.1354 -0.2196 -0.2334
 7025SOL     OW27871   6.170   4.791   4.062 -0.2346  0.1669 -0.3355
 7025SOL    HW227872   6.075   4.792   4.070 -0.1041  0.5441  2.0979
 7025SOL    HW327873   6.194   4.700   4.080 -0.1364  0.0053 -1.2536
 7025SOL    MW427874   6.161   4.779   4.065 -0.2169 -0.6321 -0.2616
 7026SOL     OW27875   5.741   2.533   5.587  0.2170  0.3928 -0.5199
 7026SOL    HW227876   5.732   2.454   5.640 -0.4488  0.7466 -0.0939
 7026SOL    HW327877   5.694   2.514   5.506  0.9704 -0.0327 -0.8727
 7026SOL    MW427878   5.734   2.520   5.583  0.1537  0.2513 -0.3936
 7027SOL     OW27879   3.997   6.256   6.379 -0.2291 -0.0141 -0.4371
 7027SOL    HW227880   4.068   6.320   6.387 -0.7228  0.4423  0.4755
 7027SOL    HW327881   4.031   6.190   6.318  0.8477  0.3567 -0.2683
 7027SOL    MW427882   4.011   6.256   6.372 -0.3822  0.1276 -0.3691
 7028SOL     OW27883   1.451   4.400   4.142  0.3408  0.3044 -0.1439
 7028SOL    HW227884   1.505   4.327   4.172  0.6322  0.3815 -0.4645
 7028SOL    HW327885   1.434   4.379   4.050  3.3302  2.2948 -1.3158
 7028SOL    MW427886   1.456   4.388   4.134 -0.1337  0.0058 -0.0691
 7029SOL     OW27887   1.744   0.602   0.174 -0.2970 -0.2871  0.3866
 7029SOL    HW227888   1.664   0.595   0.123  0.1980  2.2823 -0.9067
 7029SOL    HW327889   1.729   0.676   0.234  1.3077  0.7287 -0.4013
 7029SOL    MW427890   1.732   0.611   0.175  0.0274  0.3115  0.6575
 7030SOL     OW27891   6.107   3.596   2.491  0.1911  0.5032 -0.2442
 7030SOL    HW227892   6.084   3.539   2.417  1.1839  1.9530 -1.7386
 7030SOL    HW327893   6.163   3.542   2.546  0.8430 -0.1037 -1.4556
 7030SOL    MW427894   6.111   3.581   2.488  0.3395  0.4835  0.7322
 7031SOL     OW27895   6.306   2.232   0.143  0.4183 -0.2320  0.4971
 7031SOL    HW227896   6.236   2.172   0.114  0.3337 -0.5136  1.2600
 7031SOL    HW327897   6.275   2.265   0.227 -1.3509  3.8275 -1.4450
 7031SOL    MW427898   6.292   2.228   0.150 -0.3486  0.8363 -0.5969
 7032SOL     OW27899   1.989   4.091   6.085 -0.0588 -0.3525  0.0988
 7032SOL    HW227900   1.995   4.036   6.007 -0.3589 -0.2054 -0.0292
 7032SOL    HW327901   2.043   4.046   6.150  1.1520  0.1418 -0.5438
 7032SOL    MW427902   1.997   4.078   6.084  0.1466 -0.1142 -0.6766
 7033SOL     OW27903   1.904   1.417   4.885 -0.1783 -0.3196 -0.6285
 7033SOL    HW227904   1.954   1.487   4.843  1.9850 -1.2425  0.2525
 7033SOL    HW327905   1.916   1.432   4.979 -2.0403 -0.2985 -0.3435
 7033SOL    MW427906   1.912   1.428   4.892  0.1147 -0.0485  0.0805
 7034SOL     OW27907   5.356   1.169   0.114  0.2891 -0.9479 -0.0373
 7034SOL    HW227908   5.437   1.118   0.119 -0.1133 -1.7483 -1.3059
 7034SOL    HW327909   5.329   1.164   0.023 -0.9677 -0.3227  0.2703
 7034SOL    MW427910   5.363   1.162   0.103 -0.1784  0.1956  0.4148
 7035SOL     OW27911   6.269   3.247   3.109 -0.5331  0.0414  0.5060
 7035SOL    HW227912   6.314   3.171   3.072 -0.3131  0.5607 -0.3267
 7035SOL    HW327913   6.179   3.218   3.122 -0.1094 -0.8305  1.6564
 7035SOL    MW427914   6.263   3.233   3.106  0.2363  0.1003  0.0607
 7036SOL     OW27915   0.381   2.434   0.964 -0.3437 -0.0674 -0.6869
 7036SOL    HW227916   0.355   2.349   0.999 -0.6384 -0.3700 -1.6141
 7036SOL    HW327917   0.403   2.486   1.041 -0.6528 -0.8209 -0.0788
 7036SOL    MW427918   0.380   2.429   0.979 -0.4282 -0.6203 -0.0652
 7037SOL     OW27919   2.821   1.644   4.802 -0.1121  0.3738 -0.5572
 7037SOL    HW227920   2.868   1.579   4.749  0.3393  1.3418 -1.3839
 7037SOL    HW327921   2.786   1.706   4.738 -2.1082 -0.0233  0.0838
 7037SOL    MW427922   2.823   1.644   4.787 -0.0225 -0.2222 -0.1502
 7038SOL     OW27923   6.002   3.612   3.073 -0.0973 -0.2797 -0.5069
 7038SOL    HW227924   5.963   3.697   3.051 -1.2542 -1.1046 -1.7968
 7038SOL    HW327925   5.976   3.596   3.164  2.6473  2.0513  0.8417
 7038SOL    MW427926   5.993   3.621   3.082 -0.7034 -0.4319 -0.8210
 7039SOL     OW27927   1.492   6.096   4.401 -0.5602  0.5172 -0.3436
 7039SOL    HW227928   1.436   6.151   4.456  0.6038  1.2046  0.1910
 7039SOL    HW327929   1.432   6.058   4.337 -1.8395  0.2197  0.9795
 7039SOL    MW427930   1.476   6.098   4.399  0.7242 -0.1156  0.0687
 7040SOL     OW27931   6.260   3.459   4.152  0.3807  0.0404  0.0516
 7040SOL    HW227932   6.214   3.531   4.196 -0.7267 -1.0018  0.6495
 7040SOL    HW327933   6.195   3.421   4.092  1.0690 -0.2288 -0.5380
 7040SOL    MW427934   6.245   3.464   4.150 -0.1959  0.2271 -0.1692
 7041SOL     OW27935   1.646  -0.004   3.113 -0.0985  0.1115 -0.0560
 7041SOL    HW227936   1.740  -0.020   3.121  0.2596  1.8528 -0.3406
 7041SOL    HW327937   1.638   0.055   3.038 -1.7070 -2.1193 -1.7578
 7041SOL    MW427938   1.658   0.002   3.104 -0.0863  0.2155  0.4989
 7042SOL     OW27939   4.448   1.483   2.290 -0.3377 -0.1973 -0.0386
 7042SOL    HW227940   4.516   1.416   2.291  2.8590  2.7370 -0.9405
 7042SOL    HW327941   4.461   1.531   2.372 -2.3149 -0.3815  0.4244
 7042SOL    MW427942   4.459   1.480   2.301 -0.0653  0.0686 -0.7492
 7043SOL     OW27943   4.295   0.036   1.512  0.0271 -0.1872  0.1862
 7043SOL    HW227944   4.306   0.001   1.600 -2.0723 -0.7148  0.2982
 7043SOL    HW327945   4.381   0.073   1.489  0.5562  0.1571  2.5050
 7043SOL    MW427946   4.308   0.036   1.520 -0.4793  1.0844 -0.7843
 7044SOL     OW27947   3.945   5.538   0.574  0.8113  0.1958 -0.3438
 7044SOL    HW227948   3.920   5.562   0.663 -0.5722  0.9750 -0.9029
 7044SOL    HW327949   3.984   5.618   0.539  2.0462 -0.3343 -0.2129
 7044SOL    MW427950   3.947   5.552   0.581 -0.1357 -0.6592 -0.0313
 7045SOL     OW27951   0.630   2.153   3.991 -0.0490 -0.1810 -0.2650
 7045SOL    HW227952   0.544   2.194   3.994  0.7102  1.4540  1.4683
 7045SOL    HW327953   0.621   2.074   4.044 -0.5036 -0.0530 -0.1498
 7045SOL    MW427954   0.618   2.148   3.999  0.6318  0.5640  0.1791
 7046SOL     OW27955   1.524   1.840   5.002  0.2269  0.0241  0.1019
 7046SOL    HW227956   1.583   1.783   5.050 -0.4280 -0.5469  0.2391
 7046SOL    HW327957   1.574   1.921   4.989  1.1942 -0.6027 -0.1729
 7046SOL    MW427958   1.539   1.843   5.006 -0.7356 -0.7462 -0.7132
 7047SOL     OW27959   4.742   1.136   2.960 -0.6702 -0.5991  0.1940
 7047SOL    HW227960   4.733   1.041   2.964 -0.6968 -0.6104 -0.0825
 7047SOL    HW327961   4.827   1.155   2.999 -0.0436 -0.8552 -1.0140
 7047SOL    MW427962   4.752   1.126   2.966 -0.0545 -0.3826 -0.0968
 7048SOL     OW27963   4.545   5.127   4.524 -0.3072 -0.0173 -0.1913
 7048SOL    HW227964   4.543   5.043   4.570  0.0700 -0.6929 -1.3511
 7048SOL    HW327965   4.558   5.192   4.593  0.9190 -1.0406  0.6027
 7048SOL    MW427966   4.546   5.125   4.539  0.2424  0.0731 -0.1533
 7049SOL     OW27967   3.466   1.680   3.748 -0.4064  0.6506  0.1723
 7049SOL    HW227968   3.382   1.635   3.752 -0.5313  0.9317  0.8005
 7049SOL    HW327969   3.444   1.773   3.755  0.0017  0.6931  0.9935
 7049SOL    MW427970   3.452   1.686   3.750 -0.2108  0.2217  0.6062
 7050SOL     OW27971   0.190   5.871   3.042  0.5606 -0.2504  0.3484
 7050SOL    HW227972   0.252   5.811   3.001 -0.5074 -0.5194 -0.9317
 7050SOL    HW327973   0.149   5.917   2.969 -1.0284 -0.3674  1.1205
 7050SOL    MW427974   0.193   5.869   3.027 -0.1306 -0.2195 -0.1342
 7051SOL     OW27975   1.793   5.924   1.975  0.1084  0.4586 -0.1313
 7051SOL    HW227976   1.877   5.925   2.020  0.0806  1.0577 -0.0900
 7051SOL    HW327977   1.745   5.999   2.011  0.5038  1.6571 -1.9317
 7051SOL    MW427978   1.798   5.934   1.985  0.2217  0.2074  0.4297
 7052SOL     OW27979   6.240   4.361   4.487  0.4269 -0.1762  0.0737
 7052SOL    HW227980   6.182   4.411   4.544 -0.9464  0.5114 -1.8284
 7052SOL    HW327981   6.328   4.390   4.510 -0.1321  0.5107  1.4108
 7052SOL    MW427982   6.244   4.371   4.497  0.1336  0.1501 -0.0056
 7053SOL     OW27983   2.518   4.119   0.793  0.8179  0.4741 -0.4827
 7053SOL    HW227984   2.491   4.124   0.885 -0.5616  0.8346 -0.8871
 7053SOL    HW327985   2.523   4.210   0.764  1.2966  0.3626 -0.7568
 7053SOL    MW427986   2.515   4.131   0.801  0.1539 -0.3383  0.1816
 7054SOL     OW27987   3.666   1.682   4.790 -0.3408 -0.6053 -0.0159
 7054SOL    HW227988   3.666   1.690   4.695 -0.1772 -3.0772 -0.3034
 7054SOL    HW327989   3.619   1.759   4.821  1.7736  1.5947 -1.8904
 7054SOL    MW427990   3.660   1.693   4.782  0.1428 -0.1977  0.0111
 7055SOL     OW27991   3.058   4.193   5.084 -0.0211  0.3991 -0.4300
 7055SOL    HW227992   3.014   4.130   5.142  0.0049  0.6309 -0.1580
 7055SOL    HW327993   3.089   4.140   5.010 -0.6354  0.2108 -0.5574
 7055SOL    MW427994   3.056   4.178   5.082  0.0454  0.1449 -0.2276
 7056SOL     OW27995   4.206   4.895   1.715  0.0501  0.0125  0.4118
 7056SOL    HW227996   4.185   4.890   1.809 -0.4051 -0.1108  0.3089
 7056SOL    HW327997   4.281   4.837   1.704  0.9800  1.0803  0.9353
 7056SOL    MW427998   4.213   4.887   1.726  0.0693 -0.0269 -0.2243
 7057SOL     OW27999   5.912   2.319   0.934 -0.0940 -0.0219  0.6347
 7057SOL    HW228000   5.821   2.339   0.957  0.0869  1.2224  0.3512
 7057SOL    HW328001   5.905   2.261   0.858 -0.6688  0.9004 -0.0441
 7057SOL    MW428002   5.899   2.314   0.927 -0.0997 -0.1470  0.1141
 7058SOL     OW28003   3.017   3.568   0.068 -0.3387  0.1426  0.3410
 7058SOL    HW228004   3.081   3.631   0.099  0.9957 -1.5229  1.1281
 7058SOL    HW328005   2.946   3.621   0.031  1.6197  2.0422 -0.8901
 7058SOL    MW428006   3.016   3.583   0.067 -0.1777  0.0199  0.6613
 7059SOL     OW28007   5.121   1.662   4.647  0.0374 -0.0686  0.2219
 7059SOL    HW228008   5.055   1.655   4.578 -0.4178 -0.6302  0.7094
 7059SOL    HW328009   5.199   1.622   4.610  0.4207  1.4595 -0.7229
 7059SOL    MW428010   5.123   1.656   4.633 -0.4476 -0.5659 -0.1143
 7060SOL     OW28011   2.148   1.642   5.616 -0.0385  0.0087 -0.5354
 7060SOL    HW228012   2.239   1.614   5.604 -0.0053 -0.0028 -0.2730
 7060SOL    HW328013   2.119   1.596   5.695 -0.8128 -1.3082 -1.5634
 7060SOL    MW428014   2.156   1.633   5.625 -0.3034 -0.6857 -0.0633
 7061SOL     OW28015   4.875   3.048   5.541 -0.1330 -0.4107 -0.2427
 7061SOL    HW228016   4.813   3.070   5.610 -0.7655  0.6771 -1.1394
 7061SOL    HW328017   4.834   2.974   5.495 -1.2082  0.8086 -1.3368
 7061SOL    MW428018   4.861   3.041   5.544 -0.3535  0.6162 -0.2045
 7062SOL     OW28019   2.405   4.096   1.292 -0.4251 -0.0001 -0.7760
 7062SOL    HW228020   2.470   4.044   1.338  0.0260  2.5595  1.7430
 7062SOL    HW328021   2.321   4.061   1.321 -0.2105 -1.3232 -1.6475
 7062SOL    MW428022   2.402   4.085   1.302  0.1272 -0.3345  0.0053
 7063SOL     OW28023   4.872   2.966   3.564  0.2149 -0.3925 -0.4253
 7063SOL    HW228024   4.803   2.949   3.628  1.6482 -0.6337  1.1040
 7063SOL    HW328025   4.852   3.054   3.530 -2.6609 -1.6450 -2.4815
 7063SOL    MW428026   4.860   2.975   3.568 -0.0752 -0.3307 -0.0155
 7064SOL     OW28027   4.419   2.666   4.076 -0.0557  0.2060 -0.2927
 7064SOL    HW228028   4.450   2.733   4.137  0.0492 -0.6178  0.5885
 7064SOL    HW328029   4.325   2.660   4.093 -0.1825  0.5787 -0.8333
 7064SOL    MW428030   4.410   2.674   4.086  0.5326  0.3540  0.1228
 7065SOL     OW28031   3.377   0.587   3.884 -0.2821 -0.9860  0.1643
 7065SOL    HW228032   3.450   0.537   3.847 -0.0568 -0.9593  0.5664
 7065SOL    HW328033   3.360   0.655   3.820 -0.4573 -1.4551 -0.2939
 7065SOL    MW428034   3.385   0.589   3.871  0.3935  0.2639 -0.2521
 7066SOL     OW28035   2.141   3.492   5.979 -0.9039  0.1788 -0.3779
 7066SOL    HW228036   2.094   3.509   5.897 -1.1114  1.3663 -0.0275
 7066SOL    HW328037   2.128   3.571   6.031 -0.6972 -0.5230  0.7770
 7066SOL    MW428038   2.133   3.505   5.975 -0.1347  0.3043  0.2311
 7067SOL     OW28039   5.327   1.153   2.876 -0.0514 -0.0195  0.4463
 7067SOL    HW228040   5.381   1.198   2.941  1.0491 -1.4473  0.5550
 7067SOL    HW328041   5.309   1.068   2.915 -2.7789  0.5253  0.5944
 7067SOL    MW428042   5.331   1.148   2.890  0.2298 -0.1085  0.2916
 7068SOL     OW28043   2.193   1.648   3.635  0.1469 -0.2032 -0.3396
 7068SOL    HW228044   2.233   1.734   3.648  0.0761  0.1751 -2.3752
 7068SOL    HW328045   2.133   1.638   3.709  0.3764  1.3558  0.0855
 7068SOL    MW428046   2.191   1.658   3.647  0.5503 -0.4131  0.4179
 7069SOL     OW28047   3.429   0.079   4.930  0.5891  0.5092 -0.3157
 7069SOL    HW228048   3.338   0.051   4.939  0.6849  0.3245  0.0805
 7069SOL    HW328049   3.455   0.109   5.017  1.3403 -0.7580 -0.0713
 7069SOL    MW428050   3.421   0.079   4.942  0.6013 -0.0778 -0.5704
 7070SOL     OW28051   0.210   2.531   3.915 -0.4627  0.0100  0.2535
 7070SOL    HW228052   0.136   2.494   3.964  0.2608  0.4114  1.6985
 7070SOL    HW328053   0.174   2.551   3.829 -1.5507 -1.5447  0.3149
 7070SOL    MW428054   0.195   2.529   3.910 -0.2862  0.0040  0.0859
 7071SOL     OW28055   1.000   2.299   1.172  0.2572  0.4085 -0.5033
 7071SOL    HW228056   1.018   2.379   1.123  3.0814  0.3298  0.2481
 7071SOL    HW328057   1.083   2.277   1.213 -1.4984 -0.5371  2.8798
 7071SOL    MW428058   1.013   2.307   1.171 -0.0019 -0.1599  0.5176
 7072SOL     OW28059   2.377   2.275   3.026 -0.5392 -0.4322  0.2320
 7072SOL    HW228060   2.295   2.279   2.977  0.0390  0.3456 -0.7127
 7072SOL    HW328061   2.439   2.324   2.972  0.8545 -2.0129  0.3297
 7072SOL    MW428062   2.374   2.282   3.012 -0.0946  0.1373 -0.1248
 7073SOL     OW28063   5.424   5.890   3.409  0.4207  0.2397 -0.8830
 7073SOL    HW228064   5.386   5.873   3.495  0.8562  0.4681 -0.6411
 7073SOL    HW328065   5.519   5.895   3.426  0.4185  1.3993 -1.1851
 7073SOL    MW428066   5.432   5.888   3.423  0.5832  0.5980  0.1364
 7074SOL     OW28067   5.759   5.349   0.552  0.0399 -0.1231 -0.1030
 7074SOL    HW228068   5.669   5.351   0.583  0.7381  2.2618  2.1382
 7074SOL    HW328069   5.756   5.391   0.466 -0.8761  0.8623  0.3926
 7074SOL    MW428070   5.747   5.355   0.545  0.6469 -0.1404 -0.0888
 7075SOL     OW28071   3.038   3.742   0.347  0.0243  0.3915 -0.5916
 7075SOL    HW228072   3.031   3.647   0.349 -0.3299  0.4203 -0.4422
 7075SOL    HW328073   2.956   3.771   0.307  0.1746  0.6286 -0.7284
 7075SOL    MW428074   3.026   3.733   0.342 -0.2555 -0.2196  0.8278
 7076SOL     OW28075   3.334   1.791   0.182 -0.3318 -0.3230 -0.0979
 7076SOL    HW228076   3.316   1.764   0.273  0.9873  0.6976  0.5063
 7076SOL    HW328077   3.249   1.812   0.146 -0.9974 -1.6437  0.5905
 7076SOL    MW428078   3.320   1.790   0.189 -0.1986  0.1154 -0.2354
 7077SOL     OW28079   2.817   0.062   4.887  0.2634  0.0903 -0.5844
 7077SOL    HW228080   2.886  -0.003   4.874 -1.6177 -1.6751 -2.3073
 7077SOL    HW328081   2.862   0.146   4.877  2.5184 -0.9341  0.3675
 7077SOL    MW428082   2.832   0.065   4.884 -0.0520 -0.1505  0.9131
 7078SOL     OW28083   2.255   1.972   2.667 -0.4060  0.4447 -0.4235
 7078SOL    HW228084   2.187   2.035   2.690 -0.4548  0.8652 -1.6324
 7078SOL    HW328085   2.218   1.887   2.692 -0.4506  0.8424  0.9696
 7078SOL    MW428086   2.241   1.969   2.673 -0.6259  0.2459 -0.0814
 7079SOL     OW28087   2.192   1.763   0.955  0.2834 -0.6938  0.0572
 7079SOL    HW228088   2.272   1.806   0.984 -0.8377  0.6130  1.3414
 7079SOL    HW328089   2.157   1.822   0.888 -1.0035  0.2224  1.4761
 7079SOL    MW428090   2.198   1.777   0.950  0.1411  0.0814 -0.2602
 7080SOL     OW28091   5.422   4.941   6.224  0.1125 -0.1648  0.3148
 7080SOL    HW228092   5.372   4.888   6.163  0.1578 -0.6314  0.6771
 7080SOL    HW328093   5.445   5.020   6.175 -1.0271  0.0899  0.1556
 7080SOL    MW428094   5.418   4.945   6.210 -0.0881  0.7223  0.1185
 7081SOL     OW28095   0.107   6.077   0.243 -0.3832  0.1741 -0.1183
 7081SOL    HW228096   0.122   6.113   0.330  5.0523  0.9897 -0.9867
 7081SOL    HW328097   0.095   5.983   0.257 -0.6088  0.4239  1.5227
 7081SOL    MW428098   0.108   6.069   0.256 -0.1330 -0.1597  0.4053
 7082SOL     OW28099   4.120   3.170   5.772 -0.5245 -0.0888 -0.3547
 7082SOL    HW228100   4.062   3.111   5.820 -0.6548  1.3029  1.2924
 7082SOL    HW328101   4.191   3.114   5.740 -1.7415 -1.4798 -0.7436
 7082SOL    MW428102   4.121   3.155   5.774  0.5059 -0.4918  0.0143
 7083SOL     OW28103   0.486   3.802   3.953 -0.0311  0.0282 -0.0432
 7083SOL    HW228104   0.475   3.893   3.925  0.6251  0.8430  2.1460
 7083SOL    HW328105   0.570   3.801   3.998 -1.0052 -1.1450  1.8609
 7083SOL    MW428106   0.495   3.814   3.955  0.2216  0.2064  0.1231
 7084SOL     OW28107   3.127   4.121   0.234  0.4943 -0.1650 -0.0856
 7084SOL    HW228108   3.220   4.098   0.231  0.4971 -0.3172  0.8973
 7084SOL    HW328109   3.121   4.202   0.182  1.0308 -0.5812 -0.8253
 7084SOL    MW428110   3.139   4.129   0.227  0.1389  0.1043 -0.1575
 7085SOL     OW28111   0.168   4.132   0.180 -0.5774 -0.7225  0.0281
 7085SOL    HW228112   0.173   4.228   0.181  1.3519 -0.7746  2.1213
 7085SOL    HW328113   0.214   4.107   0.099 -2.4124  0.0818 -1.3459
 7085SOL    MW428114   0.175   4.141   0.169 -0.6383 -0.2812  0.0828
 7086SOL     OW28115   1.843   5.581   0.988 -0.0267  0.4669  0.1207
 7086SOL    HW228116   1.826   5.508   1.046  0.1328  0.0625 -0.3362
 7086SOL    HW328117   1.837   5.658   1.044 -2.2444  0.2864  0.2218
 7086SOL    MW428118   1.840   5.582   1.003 -0.4713 -0.2278 -0.0614
 7087SOL     OW28119   3.613   3.977   2.441 -0.4955 -0.0507 -0.0585
 7087SOL    HW228120   3.678   4.046   2.430 -1.5855  0.9817 -0.2067
 7087SOL    HW328121   3.626   3.920   2.365 -1.5441  1.6886 -1.6581
 7087SOL    MW428122   3.623   3.979   2.429 -0.7005  0.3650  0.6537
 7088SOL     OW28123   0.622   6.402   2.358 -0.1147 -0.2798  0.1586
 7088SOL    HW228124   0.623   6.405   2.453  0.6076  1.0375  0.1304
 7088SOL    HW328125   0.646   6.311   2.337  0.8308 -0.3049  1.2315
 7088SOL    MW428126   0.626   6.390   2.367  0.0258  0.1307 -0.0291
 7089SOL     OW28127   1.410   3.712   4.711  0.6539 -0.5876 -0.7584
 7089SOL    HW228128   1.325   3.755   4.720  2.2634  2.9646 -0.7667
 7089SOL    HW328129   1.417   3.690   4.619 -0.1769 -0.7351 -0.7908
 7089SOL    MW428130   1.400   3.715   4.700 -0.4757 -0.2001 -0.1477
 7090SOL     OW28131   5.092   3.902   5.477  0.1896  0.5073 -0.4016
 7090SOL    HW228132   5.099   3.996   5.460 -1.0995  0.2818 -2.7110
 7090SOL    HW328133   5.132   3.861   5.400  2.1559 -0.9035  1.2876
 7090SOL    MW428134   5.098   3.909   5.465 -0.5090  0.0623 -0.5438
 7091SOL     OW28135   2.288   3.559   1.300 -0.1018 -0.2078  0.1090
 7091SOL    HW228136   2.238   3.478   1.302 -0.3217 -0.0660  0.9165
 7091SOL    HW328137   2.228   3.623   1.263  0.1453 -0.4511 -0.7345
 7091SOL    MW428138   2.274   3.557   1.295 -0.1424 -0.1788  0.1134
 7092SOL     OW28139   4.074   2.673   0.331 -0.0456 -0.3598  0.6210
 7092SOL    HW228140   4.015   2.599   0.321  0.3414 -0.7702  1.3070
 7092SOL    HW328141   4.017   2.749   0.334 -0.6055 -0.7975  1.8830
 7092SOL    MW428142   4.059   2.673   0.330 -0.1839  0.4357  0.1389
 7093SOL     OW28143   5.918   3.404   0.530 -0.0524 -0.2985 -0.0086
 7093SOL    HW228144   5.942   3.338   0.595 -1.5971 -3.0537 -2.0276
 7093SOL    HW328145   5.822   3.405   0.532 -0.2613 -1.8324 -3.3382
 7093SOL    MW428146   5.908   3.396   0.539 -0.5084 -0.1053  0.6717
 7094SOL     OW28147   0.956   4.808   3.457 -0.4848  0.0146 -0.4775
 7094SOL    HW228148   0.926   4.753   3.384 -0.8613  1.5125 -1.5091
 7094SOL    HW328149   0.880   4.863   3.478 -0.3809 -0.4042  1.0780
 7094SOL    MW428150   0.942   4.808   3.450 -0.1265  0.0055  0.2934
 7095SOL     OW28151   6.254   0.182   5.074  0.0762  0.3130 -0.5672
 7095SOL    HW228152   6.256   0.252   5.010 -1.1609  0.4988 -0.4235
 7095SOL    HW328153   6.280   0.223   5.156  2.2044 -0.0405 -1.0073
 7095SOL    MW428154   6.257   0.197   5.077 -0.2136 -0.2861  0.6144
 7096SOL     OW28155   0.018   2.161   3.041  0.4820  0.0874  0.4801
 7096SOL    HW228156  -0.014   2.122   2.960  0.0312  1.2055  0.0996
 7096SOL    HW328157   0.110   2.136   3.046 -0.1394 -2.4212  1.1234
 7096SOL    MW428158   0.026   2.152   3.031  0.5267  0.4410  0.4036
 7097SOL     OW28159   2.775   4.111   3.000  0.2344 -0.2334 -0.3226
 7097SOL    HW228160   2.822   4.121   2.917 -0.7328  1.8293 -0.6694
 7097SOL    HW328161   2.804   4.026   3.033  2.6803  0.0735 -1.4559
 7097SOL    MW428162   2.785   4.101   2.993  0.1038 -0.8510 -0.3817
 7098SOL     OW28163   3.274   3.992   3.203 -0.1244  0.3433 -0.0618
 7098SOL    HW228164   3.305   3.903   3.220 -1.1538  0.0098  0.1709
 7098SOL    HW328165   3.182   3.991   3.231 -0.7462  0.9185 -1.9457
 7098SOL    MW428166   3.266   3.980   3.209  0.3829 -0.5187 -0.3349
 7099SOL     OW28167   3.260   3.893   4.000 -0.5130 -0.2624  0.3698
 7099SOL    HW228168   3.328   3.932   4.054  0.6491 -0.1918 -1.0712
 7099SOL    HW328169   3.197   3.964   3.984 -1.0033 -0.3577  1.7887
 7099SOL    MW428170   3.260   3.907   4.005  0.3793 -0.2004 -0.0039
 7100SOL     OW28171   2.709   5.568   1.702 -0.2380  0.4486 -0.0392
 7100SOL    HW228172   2.626   5.532   1.673 -0.5447 -0.0863  1.3941
 7100SOL    HW328173   2.692   5.597   1.792  0.9330  0.9618  0.0306
 7100SOL    MW428174   2.696   5.567   1.710  0.3173 -0.3592 -0.7462
 7101SOL     OW28175   1.192   2.358   3.295 -0.0383  0.0448  0.3149
 7101SOL    HW228176   1.218   2.344   3.204 -0.8045 -0.1181  0.1176
 7101SOL    HW328177   1.180   2.269   3.330 -1.8089  0.1201 -0.0364
 7101SOL    MW428178   1.194   2.344   3.288  0.2954 -0.1910 -0.5437
 7102SOL     OW28179   4.754   4.975   2.311 -0.0651 -0.3192 -0.3111
 7102SOL    HW228180   4.693   5.012   2.375  1.0787  1.5344 -0.2347
 7102SOL    HW328181   4.769   4.885   2.341 -0.6543  0.0557  1.1908
 7102SOL    MW428182   4.748   4.968   2.323  0.4411  0.3204 -0.5191
 7103SOL     OW28183   2.071   4.252   4.177  0.4488 -0.2756 -0.3938
 7103SOL    HW228184   2.118   4.242   4.260 -0.1031  2.3135  0.3000
 7103SOL    HW328185   2.132   4.297   4.119  0.3707 -0.9111 -0.9898
 7103SOL    MW428186   2.085   4.256   4.180 -0.4510  0.4950  0.4142
 7104SOL     OW28187   1.244   4.649   3.303 -0.4809 -0.6790  0.0444
 7104SOL    HW228188   1.288   4.605   3.375 -0.4498 -0.8358 -0.0696
 7104SOL    HW328189   1.285   4.735   3.298 -0.5878 -0.6109  0.3111
 7104SOL    MW428190   1.255   4.655   3.312  0.8516  0.3505 -0.4814
 7105SOL     OW28191   1.386   4.037   4.403 -0.0101 -0.0946 -0.6333
 7105SOL    HW228192   1.297   4.010   4.427  0.0797  0.9216  0.9623
 7105SOL    HW328193   1.434   4.040   4.485  1.6115 -0.8978 -1.5001
 7105SOL    MW428194   1.380   4.034   4.417  0.1178  0.9177 -0.3972
 7106SOL     OW28195   1.786   5.427   3.939  0.2312  0.7788 -1.4574
 7106SOL    HW228196   1.823   5.395   3.856  2.3083  0.3031 -0.4208
 7106SOL    HW328197   1.795   5.353   3.999  3.7393  2.5740  0.5966
 7106SOL    MW428198   1.792   5.413   3.936  0.0824 -0.3519 -0.1591
 7107SOL     OW28199   5.257   4.462   3.105  0.2403  0.1655  0.0152
 7107SOL    HW228200   5.347   4.431   3.113  0.0276 -0.2241  0.9738
 7107SOL    HW328201   5.266   4.549   3.065  0.8922 -0.6988 -1.8007
 7107SOL    MW428202   5.270   4.470   3.101 -0.4224 -0.2252  0.1451
 7108SOL     OW28203   0.642   0.280   4.517 -0.0652  0.0659 -0.2248
 7108SOL    HW228204   0.592   0.236   4.448 -0.4500 -3.1106  1.8631
 7108SOL    HW328205   0.733   0.258   4.499  0.0377  0.9294 -0.7957
 7108SOL    MW428206   0.647   0.271   4.506  0.6864 -0.3624 -0.2856
 7109SOL     OW28207   0.694   1.883   2.178 -0.3432  0.0279  0.2745
 7109SOL    HW228208   0.705   1.823   2.252  0.9388 -1.3618 -0.9599
 7109SOL    HW328209   0.610   1.858   2.139 -0.3585 -0.1842  0.4415
 7109SOL    MW428210   0.684   1.872   2.182 -0.3876 -0.2232 -0.6219
 7110SOL     OW28211   0.892   2.566   4.898  0.5788 -0.1833 -0.1791
 7110SOL    HW228212   0.981   2.544   4.928  0.4326  0.6975  0.9810
 7110SOL    HW328213   0.835   2.536   4.969 -0.1150 -1.0900 -1.0818
 7110SOL    MW428214   0.896   2.559   4.912 -0.0839  0.6908 -0.0565
 7111SOL     OW28215   2.928   3.440   6.073  0.0799  0.0886  0.1846
 7111SOL    HW228216   3.017   3.471   6.055 -0.3010  0.8182 -0.4915
 7111SOL    HW328217   2.930   3.416   6.166  1.0274 -0.0825  0.1343
 7111SOL    MW428218   2.940   3.441   6.083 -0.5072  0.4396  0.3930
 7112SOL     OW28219   2.622   2.782   5.474  0.2873  0.2464  0.0556
 7112SOL    HW228220   2.708   2.739   5.473  1.4587  2.4141 -0.3734
 7112SOL    HW328221   2.615   2.821   5.387 -0.0693  2.0152  0.8435
 7112SOL    MW428222   2.633   2.781   5.462 -0.2306  0.1634 -0.6697
 7113SOL     OW28223   6.334   4.617   0.431 -0.6335  0.1331  0.2650
 7113SOL    HW228224   6.396   4.625   0.359  0.0272  1.3073  0.9268
 7113SOL    HW328225   6.283   4.698   0.428 -0.2046  0.4724  1.4379
 7113SOL    MW428226   6.335   4.629   0.421 -0.0084  0.0602  0.0822
 7114SOL     OW28227   4.839   3.568   3.807 -0.3912  0.5313 -0.3286
 7114SOL    HW228228   4.911   3.609   3.856 -0.2181 -0.5987  0.4044
 7114SOL    HW328229   4.780   3.534   3.875 -1.3010  0.8721 -0.9231
 7114SOL    MW428230   4.841   3.569   3.822  0.3497 -0.0013 -0.0570
 7115SOL     OW28231   1.958   0.471   0.271  0.2821 -0.0092  0.1278
 7115SOL    HW228232   2.032   0.525   0.240  0.3073 -1.5445 -2.8680
 7115SOL    HW328233   1.881   0.512   0.231  0.2692 -1.8209 -1.9294
 7115SOL    MW428234   1.958   0.484   0.261  0.4327 -0.2731  0.5786
 7116SOL     OW28235   0.966   1.203   2.877 -0.2482  0.3974  0.2545
 7116SOL    HW228236   0.919   1.177   2.956 -0.4918  2.7726  0.9436
 7116SOL    HW328237   1.055   1.222   2.907  0.4909 -1.4752 -0.5907
 7116SOL    MW428238   0.972   1.202   2.891  0.6012  0.2228  0.2551
 7117SOL     OW28239   4.834   6.408   0.842  0.2685 -0.1661  0.1975
 7117SOL    HW228240   4.878   6.325   0.860  2.2471  0.5012 -1.1225
 7117SOL    HW328241   4.867   6.468   0.908  1.2186  0.2763 -0.6454
 7117SOL    MW428242   4.844   6.405   0.853 -0.6103  0.2287 -0.0724
 7118SOL     OW28243   1.202   4.843   0.281  0.1273  0.2036  0.8064
 7118SOL    HW228244   1.222   4.751   0.264  2.6425  0.8574 -0.2750
 7118SOL    HW328245   1.109   4.852   0.259  0.2195 -1.7222 -0.6090
 7118SOL    MW428246   1.192   4.832   0.276 -0.1581 -0.0940  0.5006
 7119SOL     OW28247   5.844   5.562   4.104  0.0687  0.1092  0.1589
 7119SOL    HW228248   5.827   5.641   4.154  1.3928  0.3452  0.2522
 7119SOL    HW328249   5.779   5.499   4.136 -0.7962  1.0510  0.2953
 7119SOL    MW428250   5.833   5.564   4.114  0.1672  0.2068  0.3957
 7120SOL     OW28251   3.026   5.197   1.052  0.1397  0.2194  0.0349
 7120SOL    HW228252   3.110   5.181   1.095 -0.3318  0.3329  1.0354
 7120SOL    HW328253   3.020   5.130   0.985  0.7243 -0.2153  0.4100
 7120SOL    MW428254   3.036   5.186   1.049  0.5470  0.0533 -0.2415
 7121SOL     OW28255   0.176   6.378   0.824  0.4599 -0.2747 -0.1292
 7121SOL    HW228256   0.142   6.308   0.880  0.0227  0.7064  0.8757
 7121SOL    HW328257   0.099   6.412   0.778  0.2194  1.1779  1.2710
 7121SOL    MW428258   0.161   6.373   0.825 -0.6841 -0.6338 -0.0412
 7122SOL     OW28259   1.418   1.229   3.440  0.1560 -0.1736  0.1164
 7122SOL    HW228260   1.398   1.172   3.514 -0.5217 -0.0755  0.0181
 7122SOL    HW328261   1.432   1.169   3.367 -1.1752 -0.2155 -0.1337
 7122SOL    MW428262   1.417   1.214   3.440 -0.0582 -0.2791  0.0268
 7123SOL     OW28263   3.468   6.200   6.123 -0.2517 -0.5958 -0.3389
 7123SOL    HW228264   3.444   6.179   6.033 -1.3040 -0.1399 -0.1779
 7123SOL    HW328265   3.424   6.134   6.176 -1.1160  0.2050 -0.0412
 7123SOL    MW428266   3.459   6.189   6.118 -0.2611  0.4117  0.0351
 7124SOL     OW28267   4.339   2.972   2.634  0.9692  0.1200 -0.4054
 7124SOL    HW228268   4.421   3.013   2.604  0.5358  1.2178 -0.1586
 7124SOL    HW328269   4.324   3.011   2.721  1.1396 -1.4664  0.3683
 7124SOL    MW428270   4.348   2.983   2.642  0.1255  0.2390  0.3136
 7125SOL     OW28271   2.044   6.291   2.494 -0.2415  0.0361  0.2932
 7125SOL    HW228272   2.091   6.216   2.457 -0.1723 -0.2557  0.9550
 7125SOL    HW328273   1.958   6.288   2.453  0.4507  0.8548 -1.2922
 7125SOL    MW428274   2.039   6.280   2.484 -0.0640 -0.2107  0.6870
 7126SOL     OW28275   5.172   4.347   2.841 -0.1221  0.1269 -0.0706
 7126SOL    HW228276   5.229   4.271   2.849  0.9107  0.6911 -1.5652
 7126SOL    HW328277   5.195   4.403   2.914  1.3130  0.3700 -0.6821
 7126SOL    MW428278   5.182   4.344   2.851  0.0017  0.1876  0.2415
 7127SOL     OW28279   5.555   1.466   0.721  0.4433  0.1946 -0.0707
 7127SOL    HW228280   5.558   1.531   0.791  0.1774 -1.0402  1.1285
 7127SOL    HW328281   5.547   1.382   0.767  1.7838 -0.7761 -1.5296
 7127SOL    MW428282   5.554   1.463   0.736 -0.2607  0.0222  0.2335
 7128SOL     OW28283   5.713   3.120   3.202  0.6655 -0.3815 -0.1075
 7128SOL    HW228284   5.732   3.059   3.274 -0.7297 -0.6165  0.0866
 7128SOL    HW328285   5.654   3.072   3.145  0.8739  0.2088 -0.8354
 7128SOL    MW428286   5.708   3.106   3.204  0.0961 -0.0096  0.1146
 7129SOL     OW28287   0.512   2.708   1.945  0.3428  0.0180 -0.0407
 7129SOL    HW228288   0.564   2.670   1.875  0.2128  0.8068 -0.5814
 7129SOL    HW328289   0.456   2.637   1.975  0.1986 -0.2549 -0.9359
 7129SOL    MW428290   0.511   2.694   1.940  0.3019 -0.0797  0.2926
 7130SOL     OW28291   2.069   6.139   0.661 -0.3080 -0.3999 -0.2091
 7130SOL    HW228292   2.070   6.053   0.619  1.0283 -0.2768 -0.4569
 7130SOL    HW328293   2.000   6.187   0.615 -1.1894 -1.3737  0.0448
 7130SOL    MW428294   2.060   6.134   0.649 -0.4872 -0.4300 -0.7306
 7131SOL     OW28295   0.102   4.160   1.293  0.6390  0.6329 -0.0153
 7131SOL    HW228296   0.178   4.110   1.323  0.5254  0.8230  0.6058
 7131SOL    HW328297   0.114   4.167   1.198  0.5226 -0.7919 -0.1465
 7131SOL    MW428298   0.114   4.154   1.285 -0.3258 -0.1112 -0.3253
 7132SOL     OW28299   1.851   0.241   3.680  0.1247 -0.0713 -0.2663
 7132SOL    HW228300   1.819   0.158   3.715 -0.9487  0.9509  1.3419
 7132SOL    HW328301   1.840   0.303   3.753  0.3332  1.6088 -1.6079
 7132SOL    MW428302   1.845   0.239   3.694 -0.0448 -0.2343  0.6790
 7133SOL     OW28303   5.546   1.824   5.882 -0.6595 -0.0715 -0.1127
 7133SOL    HW228304   5.489   1.777   5.943  1.7943 -3.4350 -0.1058
 7133SOL    HW328305   5.588   1.754   5.831  0.6016  2.3956 -2.7089
 7133SOL    MW428306   5.544   1.808   5.883  0.0294 -0.4798  0.4210
 7134SOL     OW28307   0.461   6.174   5.131 -0.2918  0.8746 -0.3987
 7134SOL    HW228308   0.385   6.202   5.182  0.2409  0.0232  0.9146
 7134SOL    HW328309   0.475   6.083   5.157  2.3539  1.5712  0.9392
 7134SOL    MW428310   0.453   6.166   5.141 -0.4847  0.1536  0.5475
 7135SOL     OW28311   1.626   3.313   3.654  0.4258  0.2654 -0.1496
 7135SOL    HW228312   1.681   3.314   3.575 -0.0298 -2.8506 -0.6216
 7135SOL    HW328313   1.539   3.289   3.623  0.2278 -1.0006  1.2600
 7135SOL    MW428314   1.622   3.310   3.640  0.3546 -0.1422  0.1699
 7136SOL     OW28315   4.275   0.854   3.947  0.1496 -0.1592  0.0350
 7136SOL    HW228316   4.357   0.849   3.897  0.4850  0.7791  0.4782
 7136SOL    HW328317   4.295   0.912   4.021 -1.2613  1.0706 -0.5071
 7136SOL    MW428318   4.289   0.861   3.951  0.4021  0.1060  0.2802
 7137SOL     OW28319   5.144   5.183   1.894 -0.3794 -0.4707  0.3327
 7137SOL    HW228320   5.231   5.206   1.862 -0.1029 -1.4865  0.3144
 7137SOL    HW328321   5.129   5.243   1.968 -1.1911  2.1855 -1.8161
 7137SOL    MW428322   5.154   5.194   1.900  0.2070 -0.4558  0.1219
 7138SOL     OW28323   2.422   3.770   6.120 -0.5588  0.7058  0.2307
 7138SOL    HW228324   2.495   3.831   6.131 -0.7914  1.0019  0.1284
 7138SOL    HW328325   2.411   3.730   6.206  0.8662 -0.6415 -0.1577
 7138SOL    MW428326   2.430   3.773   6.133  0.5369 -0.6326 -0.3087
 7139SOL     OW28327   0.347   4.520   2.545 -0.0524  0.3442 -0.0860
 7139SOL    HW228328   0.382   4.596   2.591  0.7155 -0.1730  0.2013
 7139SOL    HW328329   0.421   4.485   2.496 -0.9194  1.0867 -2.0304
 7139SOL    MW428330   0.361   4.525   2.545  0.0530  0.4760 -0.4237
 7140SOL     OW28331   2.638   2.433   0.762  0.0173 -0.7386  0.0283
 7140SOL    HW228332   2.715   2.409   0.814 -1.2756  0.0332  2.4848
 7140SOL    HW328333   2.591   2.351   0.749 -0.5293 -0.7568  1.7522
 7140SOL    MW428334   2.642   2.419   0.767 -0.9513 -0.2143 -0.1895
 7141SOL     OW28335   1.976   3.520   0.326  0.0420 -0.9998  0.2634
 7141SOL    HW228336   1.961   3.529   0.420 -0.4389  0.2421  0.0896
 7141SOL    HW328337   1.898   3.557   0.286  1.4469  1.1990 -0.6361
 7141SOL    MW428338   1.964   3.526   0.333 -0.5455 -0.5148  0.4633
 7142SOL     OW28339   3.390   1.371   4.543 -0.5919 -0.2368 -0.0882
 7142SOL    HW228340   3.438   1.296   4.579  0.2657  0.5591  0.4566
 7142SOL    HW328341   3.383   1.432   4.616 -0.8426  0.4258 -0.6591
 7142SOL    MW428342   3.396   1.369   4.557 -0.6115  0.2585 -0.1687
 7143SOL     OW28343   1.516   2.284   5.506  0.5129  0.3599 -0.2274
 7143SOL    HW228344   1.501   2.191   5.487 -1.1845  0.6713 -0.4900
 7143SOL    HW328345   1.442   2.329   5.467  1.5323  1.8912 -0.4592
 7143SOL    MW428346   1.505   2.277   5.498 -0.4031  0.0774 -0.4999
 7144SOL     OW28347   5.862   4.608   1.778 -0.5870  0.0092 -0.3357
 7144SOL    HW228348   5.808   4.530   1.764  0.1973 -0.6138  0.0172
 7144SOL    HW328349   5.867   4.649   1.692 -0.4294 -0.7259 -0.6898
 7144SOL    MW428350   5.856   4.603   1.764 -0.4554 -0.3373 -0.1053
 7145SOL     OW28351   3.569   4.205   5.681  0.5837  0.4303 -0.6466
 7145SOL    HW228352   3.513   4.282   5.670  0.6730  0.6367  0.3087
 7145SOL    HW328353   3.597   4.208   5.772  0.0547 -1.1015 -0.4096
 7145SOL    MW428354   3.565   4.216   5.691  0.1477 -0.1931  0.0640
 7146SOL     OW28355   1.813   0.143   5.706  0.3685 -0.4722 -0.1666
 7146SOL    HW228356   1.795   0.097   5.788 -0.7467  0.5114  0.1633
 7146SOL    HW328357   1.818   0.074   5.641 -1.8866 -1.0837  0.2099
 7146SOL    MW428358   1.811   0.128   5.709 -0.3479 -0.1202 -0.0623
 7147SOL     OW28359   3.075   5.478   5.448  0.3173  0.0121 -0.4698
 7147SOL    HW228360   3.050   5.518   5.365 -0.7885 -0.4935 -0.4058
 7147SOL    HW328361   3.117   5.396   5.424 -0.0249 -0.1464 -0.5424
 7147SOL    MW428362   3.077   5.473   5.434  0.1505 -0.1869 -0.1677
 7148SOL     OW28363   1.255   2.033   2.853  0.3651 -0.1136 -0.1303
 7148SOL    HW228364   1.197   2.049   2.778 -0.2225  0.0638  0.3607
 7148SOL    HW328365   1.271   1.939   2.850  0.8560 -0.0203 -0.8465
 7148SOL    MW428366   1.250   2.023   2.842 -0.6177 -0.1637 -0.1613
 7149SOL     OW28367   2.206   2.571   2.654 -0.2641  0.4345  0.2709
 7149SOL    HW228368   2.202   2.667   2.661 -0.7130  0.5405 -1.1450
 7149SOL    HW328369   2.127   2.547   2.607 -0.6724 -0.7595  1.5074
 7149SOL    MW428370   2.195   2.581   2.649  0.1272  0.1361 -0.2980
 7150SOL     OW28371   0.976   1.305   4.938  0.1484  0.2399 -0.2868
 7150SOL    HW228372   0.906   1.370   4.934  0.2165  0.3557  0.2533
 7150SOL    HW328373   1.016   1.307   4.851 -0.3739  0.3321 -0.5261
 7150SOL    MW428374   0.972   1.314   4.926  0.1605 -0.5764  0.3844
 7151SOL     OW28375   4.278   4.828   3.716 -0.3759  0.4849 -0.1056
 7151SOL    HW228376   4.212   4.771   3.756  1.6166 -1.9875 -0.0929
 7151SOL    HW328377   4.229   4.879   3.652 -2.4278 -0.7357  0.3816
 7151SOL    MW428378   4.263   4.827   3.713  0.0980 -0.4697 -0.0487
 7152SOL     OW28379   4.181   4.990   5.826 -0.1618 -0.0544  0.3171
 7152SOL    HW228380   4.192   4.981   5.731 -0.4740 -0.9108  0.3562
 7152SOL    HW328381   4.258   5.041   5.854 -0.0514  0.1748 -0.3883
 7152SOL    MW428382   4.193   4.996   5.817 -0.2390  0.0294 -0.1886
 7153SOL     OW28383   1.323   1.408   6.260  0.0197  0.0788  0.1201
 7153SOL    HW228384   1.413   1.404   6.292  0.4053  0.2615 -0.9062
 7153SOL    HW328385   1.290   1.319   6.272 -0.2552  0.4079  2.1028
 7153SOL    MW428386   1.331   1.396   6.266 -0.2764 -0.5557  0.1278
 7154SOL     OW28387   3.239   4.502   2.102  0.2351 -0.3202 -0.0758
 7154SOL    HW228388   3.244   4.552   2.020  0.3182  1.7607  1.1355
 7154SOL    HW328389   3.162   4.537   2.147 -0.2828 -1.9959  0.4453
 7154SOL    MW428390   3.229   4.513   2.097  0.1031  0.0408  0.5017
 7155SOL     OW28391   5.895   5.200   5.276  0.0639  0.0060 -0.1850
 7155SOL    HW228392   5.925   5.288   5.297 -0.8476 -0.0823  1.7518
 7155SOL    HW328393   5.868   5.163   5.360 -2.4816 -1.0031 -1.3208
 7155SOL    MW428394   5.895   5.206   5.290  0.1393 -0.0881 -0.0715
 7156SOL     OW28395   4.742   4.010   1.986  0.2096 -0.1572  0.2380
 7156SOL    HW228396   4.718   3.918   1.974  1.4419 -0.3990 -0.5822
 7156SOL    HW328397   4.691   4.057   1.920  0.4428 -0.4135 -0.1316
 7156SOL    MW428398   4.732   4.004   1.976 -0.0653  0.1996 -0.0927
 7157SOL     OW28399   2.004   2.171   0.647 -0.4493 -0.4048  0.3833
 7157SOL    HW228400   2.069   2.221   0.598 -1.7443  1.0365  0.0788
 7157SOL    HW328401   1.982   2.097   0.589  0.4183 -0.5405  0.2160
 7157SOL    MW428402   2.009   2.168   0.633 -0.3096 -0.2134  0.0911
 7158SOL     OW28403   4.943   3.507   4.170  0.6863 -0.4063  0.1544
 7158SOL    HW228404   4.971   3.435   4.114 -0.5220 -1.7718  1.2149
 7158SOL    HW328405   4.971   3.586   4.125  0.2252 -1.4641 -2.1020
 7158SOL    MW428406   4.950   3.508   4.157  0.3091  0.2015 -0.2221
 7159SOL     OW28407   1.394   3.154   0.536  0.0619  0.4638 -0.4643
 7159SOL    HW228408   1.360   3.073   0.499  1.2493  0.1543 -0.9327
 7159SOL    HW328409   1.321   3.190   0.586 -0.5447 -0.7956 -0.3983
 7159SOL    MW428410   1.380   3.148   0.538 -0.2133  0.1157 -0.4023
 7160SOL     OW28411   2.410   1.988   5.732 -0.7882 -0.1319 -0.3748
 7160SOL    HW228412   2.473   2.035   5.786 -1.6761  1.9886 -1.0825
 7160SOL    HW328413   2.329   2.038   5.739 -1.9662 -1.8752 -0.7777
 7160SOL    MW428414   2.408   2.001   5.740  0.1960  0.7473 -0.1222
 7161SOL     OW28415   3.352   1.528   1.182  0.1999 -0.4815 -0.0789
 7161SOL    HW228416   3.301   1.604   1.155  0.3848 -0.0543  0.7502
 7161SOL    HW328417   3.373   1.544   1.274  2.3366 -0.3478 -0.5406
 7161SOL    MW428418   3.348   1.540   1.190  0.3378 -0.1159  0.1428
 7162SOL     OW28419   2.900   2.163   3.288  0.0475  0.1307 -0.3726
 7162SOL    HW228420   2.811   2.128   3.286  0.5393 -1.1762 -0.2871
 7162SOL    HW328421   2.934   2.148   3.200 -0.4789  2.5315 -1.0613
 7162SOL    MW428422   2.893   2.156   3.276 -0.5333  0.5037 -0.1159
 7163SOL     OW28423   6.029   5.394   4.908 -0.0042  0.0032  0.0746
 7163SOL    HW228424   6.059   5.439   4.987  1.6558  0.1692 -0.6022
 7163SOL    HW328425   5.968   5.455   4.867  0.6788  0.7964  0.2072
 7163SOL    MW428426   6.025   5.408   4.913 -0.4080  0.1069  0.3860
 7164SOL     OW28427   3.149   4.412   0.688  0.0272  0.0560 -0.7069
 7164SOL    HW228428   3.149   4.391   0.782  3.2893  1.3414 -0.3015
 7164SOL    HW328429   3.136   4.328   0.645 -1.3258 -0.5966  0.8530
 7164SOL    MW428430   3.147   4.398   0.695 -0.4307  0.8297  0.0780
 7165SOL     OW28431   2.939   5.794   0.419 -0.1556  0.0481  0.1933
 7165SOL    HW228432   2.889   5.781   0.338  0.1004  1.0570 -0.1334
 7165SOL    HW328433   3.027   5.762   0.399  0.5149  2.3161 -0.6580
 7165SOL    MW428434   2.944   5.788   0.406 -0.0542 -0.4022  0.4228
 7166SOL     OW28435   4.347   3.261   6.390 -0.7279  0.0129 -0.4291
 7166SOL    HW228436   4.353   3.356   6.397  0.1904 -0.0564 -0.0718
 7166SOL    HW328437   4.417   3.238   6.329  0.4937 -0.5931  1.1173
 7166SOL    MW428438   4.357   3.271   6.383 -0.3422 -0.0937 -0.4820
 7167SOL     OW28439   5.771   4.592   3.993 -0.6541 -0.4069 -0.2000
 7167SOL    HW228440   5.844   4.529   3.998 -1.0228 -0.7584  1.6213
 7167SOL    HW328441   5.715   4.569   4.067 -1.9200  0.7416 -0.7594
 7167SOL    MW428442   5.773   4.581   4.003 -0.3697  0.2799  0.9562
 7168SOL     OW28443   6.089   3.994   2.819 -0.6688  0.6124  0.3493
 7168SOL    HW228444   6.154   4.016   2.752  1.4494 -0.9948  1.7549
 7168SOL    HW328445   6.008   3.978   2.770  1.0319 -1.5128 -1.9687
 7168SOL    MW428446   6.087   3.995   2.804  0.4438  0.3319 -0.0315
 7169SOL     OW28447   0.686   2.075   0.198 -0.4482 -0.5606 -0.5745
 7169SOL    HW228448   0.595   2.089   0.170  0.0923 -0.5048 -2.4733
 7169SOL    HW328449   0.694   1.981   0.209 -0.7435 -0.5642 -0.3883
 7169SOL    MW428450   0.675   2.064   0.196  0.1108 -0.4304 -0.3846
 7170SOL     OW28451   3.123   4.607   2.851  0.3445  0.3080 -0.2590
 7170SOL    HW228452   3.172   4.569   2.924 -0.3835  0.0224  0.0914
 7170SOL    HW328453   3.190   4.645   2.794  1.0745 -1.2426 -0.4854
 7170SOL    MW428454   3.138   4.607   2.853  0.1564  0.1114  0.4492
 7171SOL     OW28455   4.276   5.672   1.864 -0.8411 -0.2028  0.1984
 7171SOL    HW228456   4.266   5.757   1.821  1.2535  0.3744  0.7228
 7171SOL    HW328457   4.344   5.687   1.930 -1.3169 -1.9923  1.1445
 7171SOL    MW428458   4.284   5.685   1.867 -0.0168 -0.4943  0.0326
 7172SOL     OW28459   0.854   2.272   6.241 -0.3666  0.1222  0.2435
 7172SOL    HW228460   0.769   2.316   6.239 -0.4188  0.0217  0.2258
 7172SOL    HW328461   0.916   2.337   6.206 -0.5616 -0.0686 -0.4654
 7172SOL    MW428462   0.851   2.287   6.236 -0.8518  0.4551 -0.1799
 7173SOL     OW28463   5.608   1.372   1.989 -0.2524 -0.0851 -0.4197
 7173SOL    HW228464   5.567   1.446   1.945 -2.8873 -0.6256  0.8992
 7173SOL    HW328465   5.691   1.406   2.022 -1.3881  2.3355  0.1842
 7173SOL    MW428466   5.614   1.386   1.988 -0.4020  0.2023  0.6049
 7174SOL     OW28467   1.523   1.520   5.041  0.4213 -0.0982 -0.1383
 7174SOL    HW228468   1.438   1.565   5.049  0.5624 -0.1112  4.5708
 7174SOL    HW328469   1.499   1.429   5.023 -0.4726  0.1540 -0.3195
 7174SOL    MW428470   1.508   1.514   5.040 -0.2124 -0.5028 -0.4380
 7175SOL     OW28471   5.963   6.166   2.727 -0.5016 -0.2420  0.2595
 7175SOL    HW228472   6.005   6.145   2.810  0.0403 -1.7459 -0.3764
 7175SOL    HW328473   5.877   6.200   2.752 -0.5589 -1.2029  1.4192
 7175SOL    MW428474   5.957   6.168   2.741 -0.5551 -0.7518  0.3777
 7176SOL     OW28475   1.651   6.209   3.934  0.9625  0.0983 -0.2708
 7176SOL    HW228476   1.633   6.150   3.861 -0.3194  0.9102 -0.6539
 7176SOL    HW328477   1.682   6.290   3.893  0.9779  0.3014  0.1315
 7176SOL    MW428478   1.653   6.212   3.919 -0.1801  0.1851  0.8383
 7177SOL     OW28479   1.141   6.093   3.019 -0.1743 -0.1964  0.5079
 7177SOL    HW228480   1.194   6.014   3.033 -2.3409 -1.8038  0.2200
 7177SOL    HW328481   1.105   6.113   3.105 -0.6028 -0.2783  0.3509
 7177SOL    MW428482   1.143   6.085   3.032 -0.0019  0.2105 -0.2678
 7178SOL     OW28483   2.413   6.162   5.423  0.0883 -0.1228  0.1630
 7178SOL    HW228484   2.485   6.165   5.359  0.6725 -0.2244  0.8056
 7178SOL    HW328485   2.343   6.115   5.378 -0.2091  1.4321 -1.0961
 7178SOL    MW428486   2.413   6.156   5.408 -0.0019 -0.7519 -0.3079
 7179SOL     OW28487   0.729   4.604   3.566 -0.2831  0.1028  0.3769
 7179SOL    HW228488   0.725   4.562   3.480  0.7749  1.1949 -0.2275
 7179SOL    HW328489   0.822   4.612   3.585 -0.4982  0.1682  1.4905
 7179SOL    MW428490   0.741   4.600   3.557  0.3364  0.1093  0.4849
 7180SOL     OW28491   3.167   1.280   3.012 -0.1964 -0.0379  0.4124
 7180SOL    HW228492   3.205   1.341   3.075  0.3258  1.1321 -0.9854
 7180SOL    HW328493   3.212   1.298   2.930 -0.4877 -1.8882 -0.2113
 7180SOL    MW428494   3.178   1.290   3.010 -0.1577  0.2320  0.1904
 7181SOL     OW28495   4.481   3.687   3.132  0.1698 -0.0665  0.1489
 7181SOL    HW228496   4.436   3.611   3.169 -1.1836  1.2854  1.4243
 7181SOL    HW328497   4.411   3.750   3.115  1.3218  1.1610 -0.2011
 7181SOL    MW428498   4.466   3.685   3.135  0.5665 -0.5269 -0.8364
 7182SOL     OW28499   3.144   5.786   0.074 -0.0615 -0.2083 -0.1162
 7182SOL    HW228500   3.071   5.836   0.040  0.7317  0.8307 -0.3531
 7182SOL    HW328501   3.159   5.718   0.009  1.2915  1.6135 -1.8279
 7182SOL    MW428502   3.137   5.783   0.061  0.4036  0.0826  0.5516
 7183SOL     OW28503   0.911   4.914   3.915  0.1974  0.0132 -0.2480
 7183SOL    HW228504   0.995   4.933   3.874 -0.1521 -1.0834 -1.5677
 7183SOL    HW328505   0.850   4.976   3.874  0.0130 -0.5175 -0.8113
 7183SOL    MW428506   0.914   4.925   3.904 -0.3953  0.0906 -0.1200
 7184SOL     OW28507   5.085   3.050   5.727  0.4094 -0.1396  0.7710
 7184SOL    HW228508   5.036   3.110   5.783 -0.7905  0.1923 -0.5862
 7184SOL    HW328509   5.025   3.029   5.655  1.4216 -1.6047  0.2975
 7184SOL    MW428510   5.071   3.055   5.725 -0.5622 -0.3419 -0.5315
 7185SOL     OW28511   3.304   1.292   2.730  0.3969 -0.5794  0.1923
 7185SOL    HW228512   3.330   1.226   2.665  1.3399 -1.9357  1.8679
 7185SOL    HW328513   3.380   1.349   2.738 -0.5367  0.9946 -1.4973
 7185SOL    MW428514   3.318   1.290   2.722 -0.0250 -0.8893 -0.4356
 7186SOL     OW28515   0.641   3.547   2.902 -0.0541 -0.7536  0.5077
 7186SOL    HW228516   0.638   3.610   2.974 -0.8511  0.0893 -0.2256
 7186SOL    HW328517   0.729   3.557   2.865 -0.4099  0.5281 -0.0719
 7186SOL    MW428518   0.652   3.557   2.906  0.0951  0.2147 -0.2837
 7187SOL     OW28519   2.569   2.716   0.117 -0.0895 -0.7634  0.0510
 7187SOL    HW228520   2.641   2.694   0.058 -0.0476 -0.1380 -0.1421
 7187SOL    HW328521   2.587   2.806   0.144  0.4670 -1.3941  1.8836
 7187SOL    MW428522   2.581   2.725   0.113 -0.0801  0.1420  0.3037
 7188SOL     OW28523   0.088   2.745   2.764 -0.2824  0.2923  0.2788
 7188SOL    HW228524   0.123   2.695   2.691 -1.4580  1.0515 -0.8466
 7188SOL    HW328525   0.137   2.714   2.840  0.7262 -0.7654 -0.7639
 7188SOL    MW428526   0.099   2.734   2.764  0.1341  0.1692 -0.5840
 7189SOL     OW28527   5.425   5.277   4.672 -0.3558  0.0239  0.1321
 7189SOL    HW228528   5.468   5.272   4.587  0.1427 -2.6748  0.4811
 7189SOL    HW328529   5.495   5.302   4.733 -0.0866 -0.8030  0.1636
 7189SOL    MW428530   5.440   5.280   4.669  0.9930 -0.0662  0.5078
 7190SOL     OW28531   4.659   3.534   2.969 -0.4469 -0.2812  0.2654
 7190SOL    HW228532   4.594   3.580   3.022  1.0870  0.2500  1.7895
 7190SOL    HW328533   4.643   3.564   2.880 -2.8837 -0.9114  0.4283
 7190SOL    MW428534   4.649   3.544   2.965 -0.4801 -0.6946 -0.1740
 7191SOL     OW28535   5.199   0.718   6.047  0.3200  0.0331  0.0971
 7191SOL    HW228536   5.283   0.761   6.057 -0.9246  2.6486  0.0786
 7191SOL    HW328537   5.192   0.660   6.123  0.7992  2.1843  1.8590
 7191SOL    MW428538   5.209   0.716   6.058 -0.2365  0.1971  0.5517
 7192SOL     OW28539   4.091   5.189   4.065  0.4852 -0.0789  0.3890
 7192SOL    HW228540   4.052   5.274   4.088  0.1941 -0.4596  1.3604
 7192SOL    HW328541   4.186   5.206   4.064  0.3783  0.4856 -0.4197
 7192SOL    MW428542   4.099   5.203   4.068 -0.8396  0.0813  0.6593
 7193SOL     OW28543   3.967   2.155   4.354  0.4435 -0.2808  0.2775
 7193SOL    HW228544   4.008   2.108   4.281  1.5662  0.0541  0.6787
 7193SOL    HW328545   4.039   2.178   4.411 -0.0854  1.8688  0.1437
 7193SOL    MW428546   3.982   2.152   4.352 -0.2886  0.3742 -0.0611
 7194SOL     OW28547   4.277   1.242   0.723  0.0412 -0.3803  0.1504
 7194SOL    HW228548   4.269   1.192   0.641  0.9988 -1.1777  0.5253
 7194SOL    HW328549   4.259   1.333   0.697 -2.8765 -0.9884 -0.3451
 7194SOL    MW428550   4.273   1.247   0.708  0.1853 -0.0928 -0.3339
 7195SOL     OW28551   6.077   4.475   3.520 -0.2699 -0.1757 -0.5746
 7195SOL    HW228552   5.983   4.456   3.513  0.0020 -1.2299 -1.7142
 7195SOL    HW328553   6.120   4.393   3.493  1.0102 -0.5828  2.3320
 7195SOL    MW428554   6.070   4.461   3.515  0.5626  0.0508  0.1982
 7196SOL     OW28555   3.289   4.873   1.761  0.1459  0.1306 -0.3203
 7196SOL    HW228556   3.271   4.789   1.803 -1.0613  0.4405 -0.2074
 7196SOL    HW328557   3.282   4.855   1.667  0.3256  0.0145 -0.3126
 7196SOL    MW428558   3.286   4.859   1.754 -0.1694  0.4337 -0.1465
 7197SOL     OW28559   0.023   4.964   3.379  0.3891  0.5200 -0.5983
 7197SOL    HW228560  -0.047   4.908   3.412  0.7034  0.2956 -0.2990
 7197SOL    HW328561   0.051   5.014   3.456 -0.2925  1.5389 -0.9813
 7197SOL    MW428562   0.017   4.963   3.394  0.1915  0.0461  0.1994
 7198SOL     OW28563   4.651   3.771   1.879  0.0159  0.1301  0.4171
 7198SOL    HW228564   4.621   3.703   1.939  0.1473 -0.1037  0.2210
 7198SOL    HW328565   4.723   3.730   1.831  0.4094  0.5628  0.6263
 7198SOL    MW428566   4.656   3.757   1.881  0.4810 -0.0155 -0.2637
 7199SOL     OW28567   4.541   2.701   0.890 -0.0283  0.3006 -0.1733
 7199SOL    HW228568   4.501   2.617   0.867 -0.5240  0.9935 -2.0748
 7199SOL    HW328569   4.505   2.722   0.976  0.6102 -1.6987  0.6524
 7199SOL    MW428570   4.531   2.693   0.898  0.3579  0.3965 -0.0395
 7200SOL     OW28571   1.295   5.794   0.640 -0.1815  0.0985 -0.0613
 7200SOL    HW228572   1.263   5.751   0.560 -1.1379 -0.6252  0.6900
 7200SOL    HW328573   1.315   5.721   0.699  0.1464  0.6422  0.5005
 7200SOL    MW428574   1.293   5.778   0.637  0.4587  0.0894  0.6018
 7201SOL     OW28575   2.182   1.224   3.811 -0.1097  0.0201 -0.2521
 7201SOL    HW228576   2.268   1.223   3.853  0.4361  0.0679 -1.3383
 7201SOL    HW328577   2.187   1.294   3.747 -1.4711  0.9926  0.6650
 7201SOL    MW428578   2.194   1.233   3.808  0.0213  0.4294  0.7763
 7202SOL     OW28579   3.466   3.206   2.014 -0.4875  0.3028 -0.1539
 7202SOL    HW228580   3.432   3.222   1.926  0.8908  1.3717 -0.5360
 7202SOL    HW328581   3.561   3.200   2.002 -0.3263 -0.1850  1.1779
 7202SOL    MW428582   3.474   3.207   2.001 -0.5703  0.4384 -0.4204
 7203SOL     OW28583   5.304   3.160   5.331  0.0111  0.1854  0.6316
 7203SOL    HW228584   5.396   3.183   5.315 -0.5306  2.3261  0.2338
 7203SOL    HW328585   5.293   3.169   5.425 -0.0263  0.9985  0.5582
 7203SOL    MW428586   5.315   3.165   5.341  0.7053  0.1007 -0.4319
 7204SOL     OW28587   5.918   0.664   2.919 -0.5809 -0.0007 -0.2185
 7204SOL    HW228588   5.926   0.705   2.833  0.2121  0.0526 -0.1223
 7204SOL    HW328589   5.828   0.684   2.947 -0.2020  1.7214 -0.1388
 7204SOL    MW428590   5.907   0.672   2.911 -0.3421  0.1739  0.0638
 7205SOL     OW28591   3.583   4.856   0.359 -0.0206 -0.4889  0.1171
 7205SOL    HW228592   3.556   4.837   0.269  1.5473 -0.7278 -0.3342
 7205SOL    HW328593   3.612   4.948   0.356 -1.3002 -0.0345  0.7387
 7205SOL    MW428594   3.584   4.866   0.346  0.2803 -0.3260  0.2986
 7206SOL     OW28595   5.063   3.098   3.298 -0.1893 -0.0692  0.5856
 7206SOL    HW228596   5.001   3.124   3.230 -1.3666 -1.5715  1.0322
 7206SOL    HW328597   5.148   3.099   3.254 -0.9393 -1.1136 -0.9509
 7206SOL    MW428598   5.066   3.102   3.283  0.0920  0.0802  0.6399
 7207SOL     OW28599   0.560   3.104   5.207 -0.2358  0.4132  0.1182
 7207SOL    HW228600   0.575   3.112   5.113  0.0382 -2.3167 -0.1514
 7207SOL    HW328601   0.619   3.035   5.235 -1.4040  0.1138  2.0129
 7207SOL    MW428602   0.570   3.096   5.199  0.1255 -0.2974 -0.5583
 7208SOL     OW28603   4.960   2.753   3.768  0.2474 -0.2601  0.2487
 7208SOL    HW228604   4.991   2.842   3.759 -0.2711 -0.1194 -0.2160
 7208SOL    HW328605   4.915   2.734   3.686  0.0461 -0.8223  0.4774
 7208SOL    MW428606   4.958   2.762   3.756 -0.6550  0.3692  0.5243
 7209SOL     OW28607   5.152   2.140   3.056  0.7381 -0.5545  0.0808
 7209SOL    HW228608   5.062   2.169   3.039  0.7754 -0.3963  0.1550
 7209SOL    HW328609   5.159   2.057   3.009 -0.0073 -1.4622  1.4872
 7209SOL    MW428610   5.141   2.133   3.048  0.2649  0.0294  0.2930
 7210SOL     OW28611   6.323   0.855   5.008  0.0038 -0.0925  0.4812
 7210SOL    HW228612   6.277   0.938   4.996 -1.6729 -0.8992  0.9817
 7210SOL    HW328613   6.415   0.879   5.016 -0.2725  1.5733 -0.8404
 7210SOL    MW428614   6.329   0.869   5.008 -0.2923 -0.2115 -0.1736
 7211SOL     OW28615   0.838   5.303   1.656 -0.2508  0.2268  0.3847
 7211SOL    HW228616   0.845   5.397   1.672 -1.3109  0.0910  1.7785
 7211SOL    HW328617   0.771   5.295   1.588  0.0878  0.4824  0.0136
 7211SOL    MW428618   0.830   5.314   1.649 -0.0741  0.0532  0.2374
 7212SOL     OW28619   5.746   3.416   4.485 -0.0811 -0.4011  0.3955
 7212SOL    HW228620   5.804   3.460   4.423  0.7141 -1.4958  0.3313
 7212SOL    HW328621   5.667   3.469   4.487  0.2589  0.1629 -0.8410
 7212SOL    MW428622   5.743   3.429   4.477 -0.2817  0.1561  0.4353
 7213SOL     OW28623   4.522   3.073   5.986 -0.1835  0.3190 -0.1765
 7213SOL    HW228624   4.513   3.100   5.895  1.8142  1.1330 -0.1864
 7213SOL    HW328625   4.563   2.986   5.981  0.7437  0.7411 -0.0642
 7213SOL    MW428626   4.526   3.065   5.973  0.1935 -0.1809 -0.1294
 7214SOL     OW28627   3.781   3.112   4.566  0.3182 -0.5283 -0.0906
 7214SOL    HW228628   3.828   3.162   4.634 -0.5276  1.5029 -0.9232
 7214SOL    HW328629   3.812   3.149   4.484  0.0096 -1.7476 -0.7778
 7214SOL    MW428630   3.791   3.124   4.564  0.1424 -0.4688  0.4383
 7215SOL     OW28631   3.123   6.392   5.828 -0.0594  0.1764  0.1570
 7215SOL    HW228632   3.164   6.307   5.843 -0.9972 -0.3486 -0.1464
 7215SOL    HW328633   3.118   6.401   5.733  3.3920  2.2775 -0.0079
 7215SOL    MW428634   3.128   6.382   5.817  0.5739  0.3911 -0.3771
 7216SOL     OW28635   5.295   3.879   6.150  0.0734 -0.3866 -0.0897
 7216SOL    HW228636   5.331   3.828   6.223 -0.0425 -1.2301 -0.6065
 7216SOL    HW328637   5.325   3.969   6.167  0.4809 -0.6577  0.7156
 7216SOL    MW428638   5.304   3.884   6.162  0.2131 -0.5962 -0.4717
 7217SOL     OW28639   0.906   1.765   5.698 -1.2101 -0.3960  0.0252
 7217SOL    HW228640   0.943   1.807   5.621 -1.7088 -0.8446 -0.4621
 7217SOL    HW328641   0.925   1.826   5.770  0.4130 -0.5763 -0.2106
 7217SOL    MW428642   0.914   1.778   5.698  0.3746 -0.6692  0.1440
 7218SOL     OW28643   3.594   3.556   5.956  0.3869 -0.3707  0.1914
 7218SOL    HW228644   3.572   3.641   5.993  1.6667  0.0989 -0.0842
 7218SOL    HW328645   3.635   3.508   6.028 -0.5227 -0.8527  0.4074
 7218SOL    MW428646   3.596   3.561   5.970 -0.5561  0.3963  0.7558
 7219SOL     OW28647   5.846   6.056   1.540 -0.9801  0.6069 -0.0008
 7219SOL    HW228648   5.830   6.004   1.461  2.0140  0.4000 -0.5951
 7219SOL    HW328649   5.811   6.143   1.519 -2.4508 -0.0939 -0.5547
 7219SOL    MW428650   5.839   6.061   1.527  0.3101  0.3568  0.3414
 7220SOL     OW28651   5.204   6.398   1.962 -0.1293 -0.1575  0.0595
 7220SOL    HW228652   5.176   6.397   2.054  1.7075  1.1341  0.6932
 7220SOL    HW328653   5.249   6.314   1.950 -0.9455 -0.6200  0.1061
 7220SOL    MW428654   5.206   6.387   1.973  0.4938  0.1196  0.1629
 7221SOL     OW28655   0.589   0.651   2.451  0.5369 -0.2601  0.2327
 7221SOL    HW228656   0.499   0.626   2.470  0.5452  0.4445  1.2767
 7221SOL    HW328657   0.625   0.677   2.535  1.6899 -0.4136 -0.1879
 7221SOL    MW428658   0.582   0.651   2.464  0.6934 -0.4263  0.3642
 7222SOL     OW28659   3.547   2.960   4.525 -0.1779 -0.3916  0.2444
 7222SOL    HW228660   3.473   3.012   4.557  0.1506 -0.7474  1.6721
 7222SOL    HW328661   3.624   3.012   4.547  0.0259  1.2434 -3.5759
 7222SOL    MW428662   3.547   2.974   4.533  0.0047 -0.4862  0.5370
 7223SOL     OW28663   6.310   4.998   2.142 -0.9024 -0.2458  0.0072
 7223SOL    HW228664   6.327   5.062   2.210 -0.4199 -0.1417 -0.2064
 7223SOL    HW328665   6.277   5.049   2.068 -0.7504 -0.2719 -0.0790
 7223SOL    MW428666   6.308   5.013   2.141 -0.2254  0.2705  0.5077
 7224SOL     OW28667   4.326   2.059   0.508 -0.0837 -0.1637 -0.6534
 7224SOL    HW228668   4.420   2.080   0.512 -0.1330  0.1690 -1.1555
 7224SOL    HW328669   4.316   2.008   0.427 -0.3293 -0.2350 -0.5792
 7224SOL    MW428670   4.337   2.055   0.498  0.5839 -0.3763  0.3189
 7225SOL     OW28671   6.183   1.171   3.390 -0.4214 -0.4196  0.8904
 7225SOL    HW228672   6.223   1.084   3.378  0.7582  0.3225 -1.0856
 7225SOL    HW328673   6.188   1.187   3.485  2.3563 -1.1825  0.9617
 7225SOL    MW428674   6.189   1.162   3.401 -0.1793 -0.8025  0.0081
 7226SOL     OW28675   1.270   0.305   5.032  0.0153  0.0694  0.3054
 7226SOL    HW228676   1.182   0.268   5.034 -0.0491  0.2615  1.6052
 7226SOL    HW328677   1.320   0.246   4.976 -0.4632 -1.1088  1.0991
 7226SOL    MW428678   1.265   0.293   5.025 -0.2866  0.3959  0.5766
 7227SOL     OW28679   1.217   2.342   2.759 -0.1030 -0.0389  0.4358
 7227SOL    HW228680   1.261   2.396   2.693 -0.5263 -0.2952 -0.0645
 7227SOL    HW328681   1.169   2.276   2.708 -1.7568  0.7505  0.9034
 7227SOL    MW428682   1.216   2.341   2.744 -0.0904  0.0784 -0.3474
 7228SOL     OW28683   3.597   5.701   1.557  0.0404 -0.3593  0.1257
 7228SOL    HW228684   3.667   5.729   1.616 -0.4022  0.2558  0.3642
 7228SOL    HW328685   3.624   5.733   1.471 -0.3085  0.5286  0.3436
 7228SOL    MW428686   3.610   5.709   1.553  0.9962  0.3948  0.1371
 7229SOL     OW28687   1.186   1.008   0.643 -0.5883  0.0560 -0.5590
 7229SOL    HW228688   1.248   1.078   0.623 -0.7823 -0.1666 -1.9959
 7229SOL    HW328689   1.119   1.015   0.576 -0.9187 -1.1511 -0.3771
 7229SOL    MW428690   1.185   1.018   0.632 -0.1875  0.0890 -0.2647
 7230SOL     OW28691   4.384   4.493   3.057  0.1356 -0.2034 -0.0884
 7230SOL    HW228692   4.337   4.474   3.139  0.1262 -0.4956 -0.1639
 7230SOL    HW328693   4.317   4.532   3.000  0.1588  0.0697  0.0668
 7230SOL    MW428694   4.369   4.496   3.060 -0.2563  0.4066 -0.1582
 7231SOL     OW28695   3.427   3.939   4.232 -0.2420  0.6579  0.3923
 7231SOL    HW228696   3.516   3.962   4.202 -0.9952 -0.0561 -2.7793
 7231SOL    HW328697   3.430   3.844   4.245 -0.6671  0.5305 -0.3677
 7231SOL    MW428698   3.440   3.929   4.230 -0.3848 -0.3062  0.2639
 7232SOL     OW28699   2.314   5.759   5.080 -0.6454 -0.0611 -0.2519
 7232SOL    HW228700   2.273   5.815   5.014  1.8952  0.7420 -1.2816
 7232SOL    HW328701   2.312   5.671   5.042 -0.2743  0.1998 -0.8959
 7232SOL    MW428702   2.309   5.755   5.066 -0.1416 -0.8715 -0.1429
 7233SOL     OW28703   4.060   6.078   0.836 -0.7411 -0.0984  0.1414
 7233SOL    HW228704   4.092   6.075   0.927 -2.0225 -1.2327  0.5900
 7233SOL    HW328705   3.966   6.061   0.844 -1.4587  2.7896 -1.1515
 7233SOL    MW428706   4.051   6.075   0.849 -0.0351 -0.4113 -0.3684
 7234SOL     OW28707   4.532   4.208   5.746 -1.0484 -0.0110  0.1650
 7234SOL    HW228708   4.548   4.115   5.757 -1.5128 -0.0064  0.9418
 7234SOL    HW328709   4.436   4.215   5.739 -1.0894  0.4878  1.0443
 7234SOL    MW428710   4.521   4.197   5.746 -1.1123 -0.2029 -0.6255
 7235SOL     OW28711   1.604   2.443   4.858 -0.1865 -0.1676 -0.4692
 7235SOL    HW228712   1.655   2.521   4.881 -0.5606 -0.1135  0.2233
 7235SOL    HW328713   1.560   2.419   4.940  0.5632 -1.5922 -0.4640
 7235SOL    MW428714   1.605   2.450   4.872 -0.0461  0.5353 -0.4630
 7236SOL     OW28715   2.221   2.520   5.495 -0.1939 -0.3098  0.5300
 7236SOL    HW228716   2.231   2.560   5.581  0.1243  1.6840 -0.3858
 7236SOL    HW328717   2.269   2.578   5.436 -0.2871 -1.7056 -0.9874
 7236SOL    MW428718   2.229   2.533   5.498  0.1471 -0.5265  0.1815
 7237SOL     OW28719   6.178   4.959   3.830  0.2537 -0.4021 -0.2866
 7237SOL    HW228720   6.180   4.880   3.884  3.1739 -0.8640 -0.8565
 7237SOL    HW328721   6.143   5.027   3.887  0.7687 -1.4427  1.3317
 7237SOL    MW428722   6.174   4.958   3.845  0.6422 -0.2790 -0.8142
 7238SOL     OW28723   2.322   2.592   0.534 -0.1425  0.6886 -0.8032
 7238SOL    HW228724   2.403   2.581   0.484  0.5429  1.7320  0.0241
 7238SOL    HW328725   2.351   2.614   0.622 -1.3048 -1.7938  0.2985
 7238SOL    MW428726   2.336   2.594   0.539  0.0702 -0.3966 -0.3270
 7239SOL     OW28727   1.350   3.024   4.778  0.3233  0.5160 -0.2563
 7239SOL    HW228728   1.439   3.014   4.811 -0.2975 -0.0124  1.3216
 7239SOL    HW328729   1.322   2.934   4.760  0.1250  0.6890 -0.8208
 7239SOL    MW428730   1.358   3.011   4.780  0.3415  0.0555  0.2149
 7240SOL     OW28731   1.729   6.051   6.201  0.0292 -0.0248 -0.4420
 7240SOL    HW228732   1.734   6.110   6.125  2.1484  2.0807  1.1715
 7240SOL    HW328733   1.730   5.963   6.162  0.5516  0.9567 -2.8828
 7240SOL    MW428734   1.730   6.047   6.186 -0.3928 -0.3206  0.4975
 7241SOL     OW28735   1.445   0.538   5.071 -0.1873  0.0129 -0.3798
 7241SOL    HW228736   1.384   0.466   5.059 -1.9919  0.6297  3.4384
 7241SOL    HW328737   1.531   0.496   5.080 -0.7223 -1.3262 -1.2688
 7241SOL    MW428738   1.449   0.523   5.071 -0.1265 -0.1301 -0.7805
 7242SOL     OW28739   5.948   1.012   1.354  0.0971  0.4303  0.0710
 7242SOL    HW228740   5.987   1.032   1.439  1.8158 -0.9424 -0.3294
 7242SOL    HW328741   5.880   0.948   1.373  2.2194 -1.9427  0.2634
 7242SOL    MW428742   5.944   1.006   1.368  0.6100 -0.4739 -0.8988
 7243SOL     OW28743   2.233   6.222   3.127 -0.5554 -0.1153  0.1672
 7243SOL    HW228744   2.173   6.277   3.178 -1.2761 -0.4703 -0.2886
 7243SOL    HW328745   2.242   6.142   3.178  0.8941  0.5833  1.0869
 7243SOL    MW428746   2.227   6.219   3.140 -0.1501  0.2036  0.3533
 7244SOL     OW28747   3.713   4.795   6.183  0.7436  0.1136  0.4869
 7244SOL    HW228748   3.783   4.741   6.219  0.7921 -0.3968 -0.3407
 7244SOL    HW328749   3.649   4.803   6.254  0.0447 -2.2479  0.2095
 7244SOL    MW428750   3.714   4.789   6.197  0.1039 -0.6067 -0.9464
 7245SOL     OW28751   0.561   3.634   6.268 -0.3546  0.2476  0.0109
 7245SOL    HW228752   0.498   3.570   6.302  0.1965 -0.6727 -0.6644
 7245SOL    HW328753   0.623   3.646   6.340 -0.3823 -0.0842  0.0910
 7245SOL    MW428754   0.561   3.627   6.282 -0.0505  0.1230  0.3457
 7246SOL     OW28755   0.211   2.132   5.032  0.2129 -0.2719  0.3881
 7246SOL    HW228756   0.214   2.113   5.126  1.4607  0.0691  0.4343
 7246SOL    HW328757   0.296   2.102   4.999  0.1623  0.4903 -0.4550
 7246SOL    MW428758   0.222   2.125   5.040 -0.9817  0.1794  0.3315
 7247SOL     OW28759   5.634   4.702   0.313 -0.2658  0.1288 -0.3201
 7247SOL    HW228760   5.713   4.685   0.364 -0.5874  0.1157  0.1810
 7247SOL    HW328761   5.661   4.688   0.222  0.2571 -0.0618 -0.1409
 7247SOL    MW428762   5.648   4.698   0.308 -0.3666  0.3027 -0.0938
 7248SOL     OW28763   2.400   4.180   2.566  0.3110 -0.4465 -0.2129
 7248SOL    HW228764   2.494   4.166   2.579 -0.1314 -2.2200  1.7250
 7248SOL    HW328765   2.369   4.100   2.523 -0.1887  0.5986 -1.9067
 7248SOL    MW428766   2.408   4.168   2.562 -0.0357  0.0092 -0.2214
 7249SOL     OW28767   0.950   2.656   0.624 -0.2403 -0.5136 -0.1666
 7249SOL    HW228768   0.929   2.739   0.667  0.9151 -0.6448  0.6783
 7249SOL    HW328769   0.903   2.590   0.674  0.1786 -0.5416  0.1942
 7249SOL    MW428770   0.941   2.658   0.636 -0.4197  0.1185  0.7118
 7250SOL     OW28771   1.632   5.975   4.608 -0.3664 -1.1057  0.1257
 7250SOL    HW228772   1.570   5.992   4.537 -0.1185  0.3905  0.2400
 7250SOL    HW328773   1.718   5.973   4.565 -0.0484  1.2521  0.5003
 7250SOL    MW428774   1.635   5.977   4.593 -1.0834 -0.2517 -0.1275
 7251SOL     OW28775   4.329   5.730   2.173 -0.2351  0.3435  0.8964
 7251SOL    HW228776   4.235   5.739   2.154 -0.0974 -0.3096 -0.1578
 7251SOL    HW328777   4.335   5.654   2.230 -0.2409 -0.3996 -0.0697
 7251SOL    MW428778   4.317   5.721   2.178  0.5802  0.0366 -0.2993
 7252SOL     OW28779   0.597   3.803   3.585  0.6392 -0.1384  0.0310
 7252SOL    HW228780   0.515   3.821   3.538  1.2658 -0.0833 -1.0747
 7252SOL    HW328781   0.634   3.890   3.602  0.6082 -0.1741  0.2815
 7252SOL    MW428782   0.591   3.817   3.581 -0.4591  0.0006 -0.3959
 7253SOL     OW28783   3.904   0.602   5.867  0.2189  0.5419  0.0723
 7253SOL    HW228784   3.870   0.675   5.816 -0.9621  1.3088  1.8721
 7253SOL    HW328785   3.915   0.531   5.803 -2.1868  1.1138 -1.1069
 7253SOL    MW428786   3.901   0.602   5.852 -0.4476 -0.4594  0.2449
 7254SOL     OW28787   3.228   3.091   3.932  0.2964 -0.2173 -0.1197
 7254SOL    HW228788   3.220   3.109   3.839 -0.1235 -0.0872 -0.0576
 7254SOL    HW328789   3.273   3.006   3.936  0.6256 -0.0594 -0.4317
 7254SOL    MW428790   3.233   3.082   3.920 -0.2453  0.2489 -0.5818
 7255SOL     OW28791   4.735   1.054   5.876  0.3211 -0.3939  0.0056
 7255SOL    HW228792   4.732   1.095   5.790 -1.7644  2.1097  1.1121
 7255SOL    HW328793   4.806   1.099   5.922 -0.4196  0.3255  0.4679
 7255SOL    MW428794   4.744   1.065   5.871 -0.5833 -0.5598  0.8886
 7256SOL     OW28795   4.520   6.078   4.457 -0.1951  0.0697 -0.5578
 7256SOL    HW228796   4.518   6.002   4.400  0.8594 -0.5017  0.1403
 7256SOL    HW328797   4.573   6.142   4.410  2.8249 -1.2792  0.7447
 7256SOL    MW428798   4.527   6.077   4.443 -0.3683 -0.0797 -0.3573
 7257SOL     OW28799   2.122   0.986   0.168  0.0649 -0.8276  0.3198
 7257SOL    HW228800   2.090   0.920   0.106 -0.0775 -1.5839  1.1740
 7257SOL    HW328801   2.140   0.937   0.248  1.8665 -0.1504  0.3689
 7257SOL    MW428802   2.120   0.971   0.170  0.0545  0.4053  0.5081
 7258SOL     OW28803   1.513   3.591   0.717 -0.0684  0.4139  0.3191
 7258SOL    HW228804   1.571   3.666   0.733 -0.4605  0.7058  0.3911
 7258SOL    HW328805   1.534   3.528   0.786  0.5156  0.3041  0.0449
 7258SOL    MW428806   1.523   3.593   0.728  0.0740 -0.1539  0.2505
 7259SOL     OW28807   3.478   2.777   0.362 -0.1262 -0.0552  0.4518
 7259SOL    HW228808   3.493   2.818   0.447 -2.2703  1.0362  0.3663
 7259SOL    HW328809   3.390   2.804   0.337  0.2305 -0.7756 -1.8858
 7259SOL    MW428810   3.469   2.786   0.370 -0.1161 -0.2541 -0.8560
 7260SOL     OW28811   5.315   1.142   5.808  0.2107 -0.6613  0.0240
 7260SOL    HW228812   5.225   1.111   5.818 -0.1006  0.3626  0.5805
 7260SOL    HW328813   5.320   1.171   5.717  0.1411 -1.1982 -0.1557
 7260SOL    MW428814   5.304   1.142   5.798 -0.0253  0.1471  0.2409
 7261SOL     OW28815   0.708   4.893   3.234  0.0270  0.1857 -0.6492
 7261SOL    HW228816   0.650   4.885   3.310  0.6479  1.2008 -0.0369
 7261SOL    HW328817   0.658   4.857   3.161 -0.2157 -1.7846  0.4056
 7261SOL    MW428818   0.694   4.887   3.234 -0.2322 -0.1957  0.6529
 7262SOL     OW28819   3.685   5.110   3.322 -0.0018 -0.0378  0.4444
 7262SOL    HW228820   3.605   5.117   3.375  0.7039  1.0144  1.4220
 7262SOL    HW328821   3.656   5.070   3.241 -1.6892  1.0459  0.4527
 7262SOL    MW428822   3.670   5.106   3.319  0.7345  0.2448 -0.0988
 7263SOL     OW28823   2.432   1.312   2.379  0.1418  0.2007 -0.4118
 7263SOL    HW228824   2.471   1.373   2.442  0.6760 -0.5961  0.0403
 7263SOL    HW328825   2.428   1.363   2.297  0.8987  0.7433 -0.1273
 7263SOL    MW428826   2.437   1.327   2.376 -0.1103  0.2355 -0.8734
 7264SOL     OW28827   0.456   1.544   3.657  0.7046 -0.0292 -0.1336
 7264SOL    HW228828   0.459   1.576   3.748  0.0024  1.7387 -0.6901
 7264SOL    HW328829   0.397   1.468   3.660  0.5333  0.1301  0.8526
 7264SOL    MW428830   0.449   1.538   3.670  0.0383  0.2682 -0.4974
 7265SOL     OW28831   3.693   1.880   3.193  0.6565 -0.0618  0.1295
 7265SOL    HW228832   3.690   1.959   3.139 -1.0116 -0.4544 -0.4180
 7265SOL    HW328833   3.654   1.906   3.277  2.6106  0.3659  0.9606
 7265SOL    MW428834   3.688   1.894   3.197 -0.0903 -0.5162 -0.1914
 7266SOL     OW28835   5.515   2.727   1.071  0.4060 -0.1330 -0.3798
 7266SOL    HW228836   5.478   2.733   1.159  0.1783 -0.2866 -0.4636
 7266SOL    HW328837   5.603   2.693   1.084 -0.0389 -1.3217 -0.2955
 7266SOL    MW428838   5.521   2.723   1.084 -0.2270  0.4876 -0.3703
 7267SOL     OW28839   0.558   2.053   5.323  0.0219  0.0560  0.0171
 7267SOL    HW228840   0.520   2.022   5.406 -0.8149 -1.3227 -0.8421
 7267SOL    HW328841   0.527   2.143   5.315 -0.1179  0.1152  1.0667
 7267SOL    MW428842   0.549   2.061   5.333  0.1187  0.2441  0.4510
 7268SOL     OW28843   3.731   2.332   3.126 -0.2359  0.0186  0.2495
 7268SOL    HW228844   3.696   2.262   3.072  2.0001 -1.2475  0.3015
 7268SOL    HW328845   3.685   2.324   3.209 -0.6280 -0.8236 -0.0414
 7268SOL    MW428846   3.721   2.321   3.130  0.1233 -0.4888  0.3851
 7269SOL     OW28847   6.286   3.709   6.253  0.3181 -0.0353  0.2207
 7269SOL    HW228848   6.350   3.719   6.182 -0.1366 -1.0870 -0.3586
 7269SOL    HW328849   6.211   3.762   6.226 -0.5588 -1.7877 -0.9767
 7269SOL    MW428850   6.285   3.717   6.240  0.1627  0.8659 -0.4956
 7270SOL     OW28851   0.779   5.434   4.702 -0.0466 -0.4377  0.1160
 7270SOL    HW228852   0.787   5.395   4.789 -0.9244 -1.0162 -0.0590
 7270SOL    HW328853   0.869   5.461   4.680 -0.0248  1.2069  1.8696
 7270SOL    MW428854   0.792   5.433   4.711 -0.4923 -0.1504 -0.5790
 7271SOL     OW28855   4.920   4.741   3.254 -0.0194  0.3018 -0.0448
 7271SOL    HW228856   4.970   4.662   3.238 -1.3678 -0.2960 -1.6186
 7271SOL    HW328857   4.831   4.710   3.273 -0.4042  1.4191  0.0666
 7271SOL    MW428858   4.915   4.727   3.255  0.0934 -0.2366 -0.3317
 7272SOL     OW28859   5.163   1.929   1.097  0.0358 -0.2399  0.3750
 7272SOL    HW228860   5.112   1.951   1.019 -1.3921  1.9271  1.8348
 7272SOL    HW328861   5.239   1.882   1.063 -0.3046  1.0099 -2.3583
 7272SOL    MW428862   5.166   1.925   1.082 -0.0299  0.7280  0.3643
 7273SOL     OW28863   5.209   6.340   0.307  0.4857 -0.2638  0.6932
 7273SOL    HW228864   5.168   6.413   0.353 -0.2692  0.4482 -1.0350
 7273SOL    HW328865   5.178   6.262   0.354  0.1485  0.4391  1.6743
 7273SOL    MW428866   5.200   6.339   0.320  0.1723  0.2949  0.2864
 7274SOL     OW28867   1.020   3.179   1.066  0.5894  0.2580 -0.1737
 7274SOL    HW228868   0.990   3.231   0.991  0.7193 -0.3771 -0.6786
 7274SOL    HW328869   1.077   3.112   1.027  0.3888 -0.2850  0.4574
 7274SOL    MW428870   1.024   3.177   1.051  0.2086  0.7030 -0.0553
 7275SOL     OW28871   2.707   0.909   0.049  0.4863 -0.0861 -0.1836
 7275SOL    HW228872   2.793   0.873   0.072  0.4643  0.6600  1.1966
 7275SOL    HW328873   2.725   1.001   0.030  0.1153 -0.1375 -0.8027
 7275SOL    MW428874   2.721   0.917   0.049 -0.9665  0.4482 -0.1941
 7276SOL     OW28875   4.371   5.202   5.950  0.4065  0.2266  0.1420
 7276SOL    HW228876   4.304   5.208   6.017  0.6236  0.9223  0.3015
 7276SOL    HW328877   4.439   5.146   5.989 -1.2525 -2.8924 -1.0427
 7276SOL    MW428878   4.371   5.195   5.964  0.4856  0.4570 -0.4004
 7277SOL     OW28879   0.437   4.488   4.159  0.2639 -0.5155 -0.1900
 7277SOL    HW228880   0.427   4.475   4.065  0.6408  0.4294 -0.3791
 7277SOL    HW328881   0.348   4.486   4.193 -0.1784  1.8988 -0.9905
 7277SOL    MW428882   0.424   4.486   4.151 -0.7567  1.0976 -0.4128
 7278SOL     OW28883   4.577   0.291   2.517  0.3100 -0.9663 -0.1398
 7278SOL    HW228884   4.669   0.303   2.495  0.1953  1.4383  0.4117
 7278SOL    HW328885   4.574   0.296   2.613 -0.2803 -2.1551 -0.0798
 7278SOL    MW428886   4.589   0.294   2.527  0.2603  0.6080 -0.1054
 7279SOL     OW28887   0.512   0.136   1.910 -0.0480 -0.4040  0.0392
 7279SOL    HW228888   0.497   0.222   1.870 -0.2588 -0.4133  0.0988
 7279SOL    HW328889   0.607   0.122   1.901  0.2010  0.4026  1.1759
 7279SOL    MW428890   0.523   0.146   1.903  0.0668 -0.1050  0.0213
 7280SOL     OW28891   3.127   5.060   5.930 -0.4437 -0.3433 -0.5751
 7280SOL    HW228892   3.123   5.120   5.856  0.6747  0.4340 -0.0326
 7280SOL    HW328893   3.044   5.073   5.976 -0.7916 -0.2256 -1.2319
 7280SOL    MW428894   3.115   5.070   5.926 -0.0470 -1.4987 -0.0014
 7281SOL     OW28895   3.662   3.462   4.860 -1.2500 -0.2575 -0.4910
 7281SOL    HW228896   3.686   3.439   4.950  0.8852  0.5520 -0.7834
 7281SOL    HW328897   3.699   3.549   4.847 -1.6271 -0.3097 -2.1202
 7281SOL    MW428898   3.670   3.470   4.870  0.5116 -0.8357 -0.2702
 7282SOL     OW28899   1.834   1.817   4.769  0.4734  0.3903 -0.0363
 7282SOL    HW228900   1.923   1.784   4.752 -0.1052 -1.1698 -0.2421
 7282SOL    HW328901   1.821   1.803   4.862  0.0138 -0.6073 -0.2275
 7282SOL    MW428902   1.844   1.811   4.779  0.3943  0.8363  0.1581
 7283SOL     OW28903   5.556   4.370   2.742 -0.0454  0.4180 -0.0138
 7283SOL    HW228904   5.551   4.356   2.837 -1.3292  1.0389  0.0401
 7283SOL    HW328905   5.559   4.466   2.732  1.6612  0.3381 -0.5721
 7283SOL    MW428906   5.556   4.381   2.754 -0.0402 -0.1046  0.0362
 7284SOL     OW28907   2.647   1.798   5.234 -0.4695 -0.4126  0.2845
 7284SOL    HW228908   2.670   1.876   5.285  0.2118 -1.3260  1.4319
 7284SOL    HW328909   2.694   1.809   5.152 -0.1467  0.2551  0.5510
 7284SOL    MW428910   2.656   1.809   5.230 -0.3071 -0.0533  0.0685
 7285SOL     OW28911   2.243   4.071   4.788  0.3695  0.2795  0.3451
 7285SOL    HW228912   2.243   4.160   4.755  0.4886  1.3959  3.0671
 7285SOL    HW328913   2.332   4.040   4.772  1.3820  1.9350  2.2995
 7285SOL    MW428914   2.255   4.078   4.782  0.1244  0.1375  0.3855
 7286SOL     OW28915   0.210   2.181   6.002  0.0759 -0.2546  0.4716
 7286SOL    HW228916   0.285   2.126   6.025 -0.7089 -2.0866 -1.0669
 7286SOL    HW328917   0.223   2.262   6.052  2.3261 -1.0541  1.3030
 7286SOL    MW428918   0.222   2.185   6.011  0.2411  0.5610 -0.3859
 7287SOL     OW28919   3.853   1.777   2.882  0.0516  0.4570 -0.4445
 7287SOL    HW228920   3.925   1.800   2.940 -0.5449  1.3155 -0.0232
 7287SOL    HW328921   3.880   1.694   2.842  2.0658  1.6376 -1.6957
 7287SOL    MW428922   3.866   1.769   2.884  0.0394 -0.2612 -1.1445
 7288SOL     OW28923   1.758   3.066   5.764 -0.0678 -0.4167  0.4475
 7288SOL    HW228924   1.824   3.046   5.830 -0.9563 -1.1661  1.1478
 7288SOL    HW328925   1.783   3.014   5.688  1.5043  1.1878 -0.1865
 7288SOL    MW428926   1.770   3.056   5.763  0.0543  0.2872 -0.3591
 7289SOL     OW28927   0.816   4.770   5.034  0.4050  0.4504 -0.2655
 7289SOL    HW228928   0.732   4.795   5.072 -0.0768 -2.5162  0.9169
 7289SOL    HW328929   0.823   4.822   4.954 -2.5490  0.8060 -0.3932
 7289SOL    MW428930   0.806   4.780   5.029  0.8406  0.2972 -1.0062
 7290SOL     OW28931   0.431   2.513   0.341 -0.3827  0.2674  0.3076
 7290SOL    HW228932   0.427   2.506   0.246 -0.9292 -1.3979  0.4284
 7290SOL    HW328933   0.348   2.476   0.372  0.8994 -1.8145  1.5228
 7290SOL    MW428934   0.420   2.507   0.333 -0.7908  0.1892 -0.0952
 7291SOL     OW28935   0.227   1.143   4.894  0.0258  0.3405  0.7082
 7291SOL    HW228936   0.320   1.163   4.905  0.4938 -0.9130 -0.5968
 7291SOL    HW328937   0.213   1.065   4.948  0.2682 -0.6995 -0.6698
 7291SOL    MW428938   0.238   1.135   4.903 -0.1957  0.1632  0.2019
 7292SOL     OW28939   3.209   5.062   4.016  0.6687  0.3590  0.1707
 7292SOL    HW228940   3.278   5.109   4.062  1.0421  0.7776 -0.7870
 7292SOL    HW328941   3.140   5.127   4.004  1.2132  0.7182 -1.2176
 7292SOL    MW428942   3.209   5.077   4.021 -0.2014  0.5734 -0.0771
 7293SOL     OW28943   1.364   4.191   5.769  0.4248 -0.6298 -0.6440
 7293SOL    HW228944   1.386   4.156   5.683  0.3938 -0.0099 -0.9067
 7293SOL    HW328945   1.448   4.213   5.808  0.5316 -2.0748 -0.0043
 7293SOL    MW428946   1.378   4.189   5.763 -0.2491  0.1578 -0.1430
 7294SOL     OW28947   5.856   5.276   1.392  0.6662 -0.2208  0.0463
 7294SOL    HW228948   5.811   5.191   1.386 -0.3374  0.3875 -2.6344
 7294SOL    HW328949   5.946   5.257   1.365  0.5728 -0.5299 -0.0630
 7294SOL    MW428950   5.862   5.262   1.388  0.3511 -0.3438  0.3120
 7295SOL     OW28951   0.665   3.471   0.717  0.3020 -0.2931 -0.8246
 7295SOL    HW228952   0.724   3.545   0.705  1.4193 -0.8620  0.8483
 7295SOL    HW328953   0.662   3.429   0.630  0.4080  1.1276 -1.5483
 7295SOL    MW428954   0.672   3.475   0.704  0.4475  0.2826  0.0926
 7296SOL     OW28955   5.574   1.474   5.525 -0.2503 -0.0192 -0.2869
 7296SOL    HW228956   5.482   1.469   5.550 -0.6230  0.6109 -1.4858
 7296SOL    HW328957   5.583   1.557   5.479  1.5143  1.2247  2.0679
 7296SOL    MW428958   5.563   1.484   5.522 -0.1092 -0.1476  0.4892
 7297SOL     OW28959   5.502   2.409   2.689  0.5584  0.0886  0.4882
 7297SOL    HW228960   5.503   2.489   2.741  1.7552  1.1638 -1.1120
 7297SOL    HW328961   5.427   2.419   2.630 -0.3706 -0.8153  1.4623
 7297SOL    MW428962   5.492   2.421   2.688  0.4576  0.0537 -0.8404
 7298SOL     OW28963   2.977   5.231   1.977 -0.2353  0.3510  0.4068
 7298SOL    HW228964   2.990   5.314   2.022 -1.2164  1.5534 -1.4031
 7298SOL    HW328965   3.065   5.207   1.946  0.0534  0.7134  0.9207
 7298SOL    MW428966   2.991   5.239   1.979 -0.8147 -0.4465  0.5399
 7299SOL     OW28967   6.009   2.858   4.677 -0.1494 -0.7212  0.3533
 7299SOL    HW228968   6.030   2.879   4.587 -1.9924  1.9975  0.4257
 7299SOL    HW328969   6.093   2.854   4.722  0.6705  2.3261 -0.6931
 7299SOL    MW428970   6.023   2.861   4.671  0.3618 -0.6143 -0.3184
 7300SOL     OW28971   4.133   1.369   6.055 -0.0186  0.0060  0.0396
 7300SOL    HW228972   4.113   1.458   6.028  3.2035  1.8223  2.9552
 7300SOL    HW328973   4.086   1.358   6.138 -0.5872 -1.1543 -0.4121
 7300SOL    MW428974   4.124   1.379   6.062  0.6680  0.0379  0.3654
 7301SOL     OW28975   1.984   1.096   4.106  0.3288 -0.4662  0.4409
 7301SOL    HW228976   2.002   1.188   4.085 -0.0043 -0.7965 -1.5297
 7301SOL    HW328977   1.912   1.099   4.169  0.6702  0.6261  0.8051
 7301SOL    MW428978   1.977   1.108   4.111  1.0950 -0.6871  0.0338
 7302SOL     OW28979   5.266   1.054   4.571  0.2341 -0.8383 -0.2227
 7302SOL    HW228980   5.253   1.128   4.630 -2.1023 -0.7075 -0.8352
 7302SOL    HW328981   5.258   0.977   4.628 -2.5169 -0.7321 -0.3439
 7302SOL    MW428982   5.264   1.053   4.586 -0.2057 -0.2147 -0.3026
 7303SOL     OW28983   3.115   2.040   2.236  0.1388 -0.1224  0.6091
 7303SOL    HW228984   3.139   2.025   2.145  1.0964  0.8614  0.6836
 7303SOL    HW328985   3.110   2.135   2.245  3.0719 -0.0112  2.2701
 7303SOL    MW428986   3.118   2.050   2.225  0.0247  0.1831 -0.0589
 7304SOL     OW28987   3.184   1.776   6.058 -0.2676 -0.1409  0.0971
 7304SOL    HW228988   3.142   1.712   6.000  1.3861 -1.7668  0.5900
 7304SOL    HW328989   3.226   1.723   6.126 -1.5919  1.6650  2.4804
 7304SOL    MW428990   3.184   1.760   6.059 -0.2038 -0.5885 -0.2099
 7305SOL     OW28991   5.206   2.421   3.260  0.5266 -0.4836 -0.2918
 7305SOL    HW228992   5.235   2.403   3.171 -1.9128 -2.3393 -0.7911
 7305SOL    HW328993   5.111   2.432   3.253  0.5245  1.6542  1.7810
 7305SOL    MW428994   5.197   2.420   3.248  0.2993 -0.2146  0.1311
 7306SOL     OW28995   1.927   1.350   3.570  0.2783 -0.1494 -0.0819
 7306SOL    HW228996   1.861   1.321   3.506  0.7868 -0.1781 -0.6032
 7306SOL    HW328997   1.889   1.330   3.655 -0.4806  0.0273 -0.3699
 7306SOL    MW428998   1.913   1.344   3.573 -0.4407 -0.1937  0.4192
 7307SOL     OW28999   0.829   0.159   5.247 -0.6142 -0.6569  0.6680
 7307SOL    HW229000   0.773   0.085   5.225  1.4602 -2.3163  0.6275
 7307SOL    HW329001   0.870   0.185   5.164 -0.7647  0.0573  0.8070
 7307SOL    MW429002   0.827   0.153   5.233 -0.1535  0.6907 -0.6626
 7308SOL     OW29003   1.344   1.451   4.716 -0.0663  0.2675  0.3521
 7308SOL    HW229004   1.267   1.399   4.692 -0.5206  1.3667 -0.6939
 7308SOL    HW329005   1.386   1.472   4.632  2.2377 -1.5043  0.9544
 7308SOL    MW429006   1.339   1.447   4.702  0.1743  0.2929 -0.0387
 7309SOL     OW29007   4.313   4.069   2.682 -0.0252 -0.0519  0.8662
 7309SOL    HW229008   4.252   4.042   2.750 -0.4276 -0.3407  0.3964
 7309SOL    HW329009   4.399   4.061   2.723 -0.2460 -0.4124  1.2769
 7309SOL    MW429010   4.316   4.065   2.696  0.2480 -0.0257 -0.1030
 7310SOL     OW29011   3.098   5.870   2.728  0.2971 -0.0772  0.0415
 7310SOL    HW229012   3.154   5.913   2.793  1.3712  0.1888 -1.0361
 7310SOL    HW329013   3.157   5.813   2.679 -0.2370  0.6413 -1.5033
 7310SOL    MW429014   3.113   5.868   2.730 -0.2835 -0.2948 -0.2163
 7311SOL     OW29015   1.548   2.097   4.646  0.0982 -0.0083 -0.0559
 7311SOL    HW229016   1.567   2.112   4.738 -0.4090 -2.7625  0.5846
 7311SOL    HW329017   1.464   2.051   4.646 -0.2371  0.5040 -1.9625
 7311SOL    MW429018   1.539   2.093   4.658 -0.5730 -0.3944  0.1733
 7312SOL     OW29019   0.517   4.368   5.308  0.2413 -0.4613  0.2851
 7312SOL    HW229020   0.545   4.432   5.373  1.6772 -2.3778  1.6804
 7312SOL    HW329021   0.599   4.334   5.270 -0.5278 -0.2408 -1.7163
 7312SOL    MW429022   0.532   4.372   5.311  0.1940  0.2197  0.4400
 7313SOL     OW29023   3.488   6.183   0.791  0.1814 -0.5498 -0.0646
 7313SOL    HW229024   3.524   6.192   0.703 -0.4499 -1.6733 -0.4512
 7313SOL    HW329025   3.554   6.223   0.848  0.2983  0.8111 -1.0838
 7313SOL    MW429026   3.502   6.190   0.787 -0.1263 -0.4734 -0.1753
 7314SOL     OW29027   0.593   3.652   1.367  0.4336 -0.1560 -0.6424
 7314SOL    HW229028   0.569   3.703   1.445 -0.7912  0.6821 -1.5266
 7314SOL    HW329029   0.681   3.680   1.345 -0.2399  1.6884 -1.1507
 7314SOL    MW429030   0.601   3.662   1.375 -0.1019  0.4235 -0.0661
 7315SOL     OW29031   0.475   2.008   5.572  0.2098  0.2174 -0.3009
 7315SOL    HW229032   0.405   1.970   5.625 -0.4579 -0.3688 -1.5529
 7315SOL    HW329033   0.468   2.102   5.588 -1.4738  0.2638 -1.0614
 7315SOL    MW429034   0.465   2.015   5.581 -0.0470 -0.1861  0.1379
 7316SOL     OW29035   1.880   1.578   3.412  0.2220 -0.3282 -0.1386
 7316SOL    HW229036   1.922   1.517   3.473 -1.8516 -0.9030  0.7824
 7316SOL    HW329037   1.856   1.653   3.466  1.0328  0.4989 -0.8868
 7316SOL    MW429038   1.883   1.580   3.427  0.1400 -0.0769 -0.2290
 7317SOL     OW29039   3.880   0.944   0.797  0.5526 -0.6206  0.0576
 7317SOL    HW229040   3.824   0.919   0.724  0.0110  1.0308 -0.1329
 7317SOL    HW329041   3.939   1.009   0.761  3.1296 -2.7590  0.0827
 7317SOL    MW429042   3.881   0.949   0.783 -0.3710  0.0461  0.7940
 7318SOL     OW29043   4.291   1.928   6.222 -0.3685  0.3530  0.5580
 7318SOL    HW229044   4.324   1.941   6.134  1.8648  1.2487  1.4524
 7318SOL    HW329045   4.290   1.832   6.233  0.8367  0.2565  0.0440
 7318SOL    MW429046   4.296   1.917   6.212  0.0365 -0.8235  0.2698
 7319SOL     OW29047   4.571   3.107   2.545  0.6337  0.3245  0.7007
 7319SOL    HW229048   4.651   3.054   2.538  0.0267 -0.5888  0.5050
 7319SOL    HW329049   4.586   3.162   2.622  1.0183 -0.6172  1.3186
 7319SOL    MW429050   4.584   3.107   2.554 -0.3410  0.0781 -0.0719
 7320SOL     OW29051   0.722   2.787   6.329 -0.1234 -0.2019  0.1461
 7320SOL    HW229052   0.740   2.878   6.351  0.5394 -0.8220  2.3675
 7320SOL    HW329053   0.760   2.736   6.400  3.2917 -2.5356 -2.9623
 7320SOL    MW429054   0.729   2.792   6.341 -0.4885  0.5908 -0.4010
 7321SOL     OW29055   5.667   5.337   4.165  0.0650 -0.4909  0.6082
 7321SOL    HW229056   5.606   5.333   4.239 -0.8621  0.7360 -0.0425
 7321SOL    HW329057   5.691   5.246   4.148 -0.2003 -0.8426  2.0052
 7321SOL    MW429058   5.662   5.324   4.172  0.1351 -0.2362  0.1350
 7322SOL     OW29059   1.241   4.140   0.992 -0.0606  0.0492 -0.1872
 7322SOL    HW229060   1.203   4.055   0.968 -0.9417  0.3446  0.1185
 7322SOL    HW329061   1.191   4.203   0.940 -0.8126  0.5415  1.0908
 7322SOL    MW429062   1.229   4.137   0.982  0.5778 -0.7017 -0.0158
 7323SOL     OW29063   6.310   1.060   4.234 -0.3573  0.4397 -0.0761
 7323SOL    HW229064   6.390   1.091   4.191 -0.1181  0.9978  0.7633
 7323SOL    HW329065   6.341   1.005   4.306 -0.7050  1.0005  0.5174
 7323SOL    MW429066   6.325   1.057   4.238 -0.1404  0.4589 -0.0916
 7324SOL     OW29067   1.399   5.429   4.228  0.1608  0.1292 -0.3749
 7324SOL    HW229068   1.317   5.392   4.196  0.6944 -1.0565 -0.4041
 7324SOL    HW329069   1.444   5.460   4.149 -0.3865  1.0959 -0.3271
 7324SOL    MW429070   1.394   5.428   4.213 -0.1770  0.2324 -0.5212
 7325SOL     OW29071   4.377   0.752   3.200  0.0415  0.5827 -0.3969
 7325SOL    HW229072   4.412   0.732   3.113 -0.2355 -0.7215 -0.2327
 7325SOL    HW329073   4.443   0.809   3.240  0.7716  0.1858 -1.0126
 7325SOL    MW429074   4.391   0.757   3.194 -0.3192 -0.0472 -0.3824
 7326SOL     OW29075   4.761   5.639   1.834 -0.2695  0.5395  0.3477
 7326SOL    HW229076   4.717   5.672   1.756 -0.2483  0.7457  0.4206
 7326SOL    HW329077   4.696   5.645   1.903  0.1055  1.6242  0.6384
 7326SOL    MW429078   4.747   5.644   1.832  0.1732 -0.2622  0.3792
 7327SOL     OW29079   0.787   3.368   0.011  0.5209 -0.2933  0.3969
 7327SOL    HW229080   0.769   3.462   0.024  1.4304  0.0381 -0.6575
 7327SOL    HW329081   0.707   3.325   0.042 -0.1975  0.8687  0.2502
 7327SOL    MW429082   0.774   3.375   0.017  0.5761  0.1620  0.3508
 7328SOL     OW29083   0.025   6.328   5.952  0.7073  0.5164  0.1697
 7328SOL    HW229084  -0.002   6.407   5.998  1.9407  1.2178 -0.2621
 7328SOL    HW329085   0.115   6.346   5.923  0.7569 -0.7583 -0.5685
 7328SOL    MW429086   0.034   6.341   5.954  0.2774 -0.7446 -0.3640
 7329SOL     OW29087   4.194   4.274   0.948 -0.2735 -0.1419  0.5348
 7329SOL    HW229088   4.205   4.367   0.966 -1.0339 -0.4131  2.7448
 7329SOL    HW329089   4.223   4.231   1.028 -0.7111 -1.7604 -0.1439
 7329SOL    MW429090   4.199   4.281   0.961 -0.1262 -0.5764  0.2641
 7330SOL     OW29091   2.544   5.058   4.920 -0.5879  0.2790  0.0351
 7330SOL    HW229092   2.511   4.971   4.897 -0.9914  0.6455 -0.8133
 7330SOL    HW329093   2.640   5.047   4.921 -0.6627 -0.7397  2.3211
 7330SOL    MW429094   2.553   5.045   4.917 -0.1833 -0.2001  0.2056
 7331SOL     OW29095   1.457   0.656   4.371  0.1292 -0.5598  0.3155
 7331SOL    HW229096   1.393   0.676   4.439  0.5930 -0.8728  0.8475
 7331SOL    HW329097   1.488   0.568   4.392 -0.1300 -0.8868 -0.6187
 7331SOL    MW429098   1.453   0.647   4.383  0.5361  0.4580 -0.4446
 7332SOL     OW29099   1.673   1.772   2.605 -0.0594 -0.0158 -0.0042
 7332SOL    HW229100   1.633   1.720   2.535  1.5448  1.1857 -1.9405
 7332SOL    HW329101   1.632   1.859   2.597  0.6217  0.3205  0.0741
 7332SOL    MW429102   1.663   1.777   2.594 -0.0830 -0.0259  0.2241
 7333SOL     OW29103   5.884   0.405   3.825  0.1025  0.0697 -0.0511
 7333SOL    HW229104   5.883   0.321   3.870  1.1841  0.1034  0.0770
 7333SOL    HW329105   5.865   0.384   3.733 -1.9201 -0.0196  0.3435
 7333SOL    MW429106   5.882   0.391   3.819  0.1677  0.2142  0.1668
 7334SOL     OW29107   2.889   2.586   5.590  0.4816 -0.3427  0.1169
 7334SOL    HW229108   2.944   2.654   5.630 -0.6131 -0.3826  1.7700
 7334SOL    HW329109   2.950   2.515   5.570  2.0194  1.6502 -3.2870
 7334SOL    MW429110   2.904   2.586   5.593  0.2625 -0.1577  0.3087
 7335SOL     OW29111   6.134   4.221   6.050  0.5354 -0.2002 -0.0500
 7335SOL    HW229112   6.166   4.145   6.000 -0.3711 -0.8300  0.2995
 7335SOL    HW329113   6.158   4.296   5.997  1.0519 -0.7626 -0.6318
 7335SOL    MW429114   6.141   4.221   6.036  0.0529  0.8449 -0.0093
 7336SOL     OW29115   0.973   2.926   6.089 -0.0787  0.0239 -0.0005
 7336SOL    HW229116   0.911   2.855   6.076  0.1491 -0.0699 -0.5665
 7336SOL    HW329117   0.973   2.941   6.184 -0.9384  0.0028  0.0087
 7336SOL    MW429118   0.965   2.919   6.100  0.2559  0.4073  0.2005
 7337SOL     OW29119   5.043   1.038   6.355  0.1971  0.2910  0.2627
 7337SOL    HW229120   4.990   0.992   6.291  0.3260  0.4134  0.0682
 7337SOL    HW329121   4.981   1.090   6.406  0.1338  0.4599  0.0148
 7337SOL    MW429122   5.028   1.039   6.353 -0.0993  0.2099 -0.2487
 7338SOL     OW29123   1.040   0.354   0.697 -0.4344 -0.0882 -0.3427
 7338SOL    HW229124   1.079   0.440   0.689  0.8904 -0.7447 -1.2949
 7338SOL    HW329125   0.949   0.365   0.670 -0.6227  1.2270  0.7344
 7338SOL    MW429126   1.033   0.367   0.692  0.2021  0.3367  0.2783
 7339SOL     OW29127   1.591   2.418   0.664 -0.0759 -0.3473  0.7029
 7339SOL    HW229128   1.602   2.502   0.709  0.5720 -0.4498  0.7491
 7339SOL    HW329129   1.677   2.401   0.624 -0.1918 -1.0045  0.7251
 7339SOL    MW429130   1.604   2.427   0.665 -0.4253 -0.1641  0.3181
 7340SOL     OW29131   3.515   3.214   2.321  0.7822  0.1315 -0.1634
 7340SOL    HW229132   3.490   3.234   2.231  0.1529  0.8839  0.1595
 7340SOL    HW329133   3.431   3.204   2.367  1.0531 -2.5740 -0.1174
 7340SOL    MW429134   3.500   3.215   2.316  0.0812 -0.0142 -0.0323
 7341SOL     OW29135   3.135   6.350   1.417 -0.4609  0.7229  0.0126
 7341SOL    HW229136   3.118   6.313   1.503 -0.3847  1.5019  0.3699
 7341SOL    HW329137   3.228   6.375   1.419 -0.7204  1.7305  0.0962
 7341SOL    MW429138   3.145   6.349   1.429 -0.0409  0.4276  0.0367
 7342SOL     OW29139   4.189   6.161   1.086  0.1662  0.2707  0.3826
 7342SOL    HW229140   4.245   6.084   1.072  0.3579  0.3362  0.7862
 7342SOL    HW329141   4.238   6.232   1.044  0.3381  0.3078  0.6423
 7342SOL    MW429142   4.203   6.160   1.078 -0.4780  0.1067  0.6999
 7343SOL     OW29143   3.722   0.875   1.589  0.4484  0.1412 -0.6715
 7343SOL    HW229144   3.705   0.794   1.637 -1.2851 -0.4062 -2.0934
 7343SOL    HW329145   3.751   0.846   1.502 -0.1637  1.0199 -1.1890
 7343SOL    MW429146   3.724   0.860   1.584 -0.1219  0.0740 -0.1677
 7344SOL     OW29147   1.621   3.263   5.440 -0.5000  0.2980  0.3537
 7344SOL    HW229148   1.662   3.284   5.524 -1.8113  0.6578  0.9248
 7344SOL    HW329149   1.538   3.221   5.463 -0.6730 -0.0103 -0.7681
 7344SOL    MW429150   1.615   3.260   5.454 -0.1428  0.6310  0.1772
 7345SOL     OW29151   4.615   5.281   2.624 -0.6416  0.1522 -0.6271
 7345SOL    HW229152   4.684   5.262   2.687 -0.4612 -0.0434 -0.8834
 7345SOL    HW329153   4.534   5.266   2.673 -0.5121 -1.2214 -0.7810
 7345SOL    MW429154   4.613   5.276   2.639  0.2666 -0.1871  0.5194
 7346SOL     OW29155   3.038   0.919   2.717 -0.6500  0.7200  0.2507
 7346SOL    HW229156   3.021   1.013   2.728 -0.8943  0.8897 -1.3315
 7346SOL    HW329157   2.967   0.888   2.661 -0.7797 -0.4992  1.0566
 7346SOL    MW429158   3.027   0.927   2.711  0.0691  0.9446  0.2462
 7347SOL     OW29159   1.852   3.271   5.005  0.7346  0.0404  0.6863
 7347SOL    HW229160   1.947   3.269   5.013  0.6627  1.4316  2.2895
 7347SOL    HW329161   1.820   3.229   5.084 -0.0013 -0.2466  0.2486
 7347SOL    MW429162   1.860   3.265   5.016 -0.6382  0.4719  0.3710
 7348SOL     OW29163   5.728   5.085   0.223 -0.0506 -0.1897  0.0908
 7348SOL    HW229164   5.798   5.150   0.224 -0.0495 -0.1942  0.3706
 7348SOL    HW329165   5.648   5.135   0.238  0.1869 -0.5283  2.9911
 7348SOL    MW429166   5.727   5.100   0.225 -0.1540 -0.2281 -0.9336
 7349SOL     OW29167   5.701   4.975   0.497  0.0104 -0.0491 -0.0736
 7349SOL    HW229168   5.701   4.987   0.402  2.4017 -0.7848 -0.2258
 7349SOL    HW329169   5.770   5.034   0.528 -1.0848  0.5766  1.3118
 7349SOL    MW429170   5.710   4.985   0.488 -0.1213  0.3149 -0.1680
 7350SOL     OW29171   2.436   2.903   3.265 -0.1015  0.5536 -0.0890
 7350SOL    HW229172   2.423   2.968   3.334 -0.3707 -0.3056  0.6968
 7350SOL    HW329173   2.359   2.910   3.210 -0.0751  0.9711 -0.0756
 7350SOL    MW429174   2.424   2.913   3.267  0.0608 -0.5178  0.7397
 7351SOL     OW29175   0.085   5.183   1.663 -0.0577 -0.5287  0.1765
 7351SOL    HW229176  -0.001   5.179   1.622  0.9834 -0.9687 -2.1864
 7351SOL    HW329177   0.115   5.093   1.664  1.3746 -0.1353 -1.5214
 7351SOL    MW429178   0.078   5.171   1.658 -0.2693  0.2120  0.3213
 7352SOL     OW29179   6.074   0.946   2.696 -0.3986  0.6813  0.0567
 7352SOL    HW229180   6.013   0.882   2.659  0.1165 -0.0532  0.4528
 7352SOL    HW329181   6.152   0.939   2.640 -0.7106  1.7032 -0.5240
 7352SOL    MW429182   6.076   0.936   2.684 -0.0950 -0.5349 -0.3093
 7353SOL     OW29183   5.480   5.374   0.648 -0.5010 -0.1091 -0.4936
 7353SOL    HW229184   5.419   5.419   0.589  3.0310  0.6844 -3.9264
 7353SOL    HW329185   5.449   5.283   0.649 -3.5676  0.7972  0.7507
 7353SOL    MW429186   5.468   5.368   0.640 -0.0407  0.1138  0.3542
 7354SOL     OW29187   2.143   3.298   1.281  0.1006 -0.2496 -0.4325
 7354SOL    HW229188   2.206   3.232   1.250  2.4134  2.2828 -1.5313
 7354SOL    HW329189   2.084   3.311   1.207  0.6980  0.1025 -0.8571
 7354SOL    MW429190   2.144   3.291   1.267  0.0528  0.1350  0.2992
 7355SOL     OW29191   3.349   0.524   6.108 -0.4132  0.0988 -0.0452
 7355SOL    HW229192   3.411   0.583   6.065 -0.2180  0.3273  0.5318
 7355SOL    HW329193   3.383   0.516   6.197 -2.2714  1.8341  0.9087
 7355SOL    MW429194   3.361   0.531   6.114 -0.3617  0.0154 -0.4945
 7356SOL     OW29195   3.153   5.692   5.671 -0.0272  0.4496 -0.3657
 7356SOL    HW229196   3.125   5.648   5.591 -0.3073  1.5652 -0.8992
 7356SOL    HW329197   3.248   5.681   5.672 -0.2671 -2.0232  0.6560
 7356SOL    MW429198   3.162   5.685   5.661  0.3375  0.5167  0.8197
 7357SOL     OW29199   3.723   0.596   0.388  0.3768  0.2850  0.1129
 7357SOL    HW229200   3.639   0.609   0.346  0.2388 -1.3678 -0.1784
 7357SOL    HW329201   3.786   0.638   0.330  0.1059 -1.2861 -1.3967
 7357SOL    MW429202   3.720   0.603   0.375 -0.3077  0.5552 -0.3323
 7358SOL     OW29203   1.715   5.981   2.314 -0.0559 -0.3157 -0.1040
 7358SOL    HW229204   1.784   5.988   2.248 -0.7533 -0.9652 -0.9114
 7358SOL    HW329205   1.724   6.061   2.366 -1.7107  2.0482 -3.1368
 7358SOL    MW429206   1.725   5.992   2.312 -0.8252 -0.5288 -0.8003
 7359SOL     OW29207   3.553   1.370   4.310  0.1821 -0.2161 -0.9772
 7359SOL    HW229208   3.637   1.387   4.353 -0.8376  1.3027  0.5206
 7359SOL    HW329209   3.494   1.345   4.381 -1.0603  0.4304 -1.7457
 7359SOL    MW429210   3.556   1.369   4.325 -0.4219 -0.3507 -0.0700
 7360SOL     OW29211   4.536   5.913   5.840 -0.0619 -0.2576  0.5905
 7360SOL    HW229212   4.497   5.989   5.882  1.3938  0.1215  1.3467
 7360SOL    HW329213   4.554   5.941   5.750  0.2101  0.2003  0.7848
 7360SOL    MW429214   4.533   5.927   5.834  0.3886 -0.8335 -0.1461
 7361SOL     OW29215   4.591   2.464   4.051 -0.2344  0.4272 -0.2913
 7361SOL    HW229216   4.658   2.529   4.028 -0.6889  0.9418 -0.1989
 7361SOL    HW329217   4.512   2.517   4.069  0.1460  0.1551  2.7533
 7361SOL    MW429218   4.589   2.480   4.050  0.3208 -0.3741 -0.1743
 7362SOL     OW29219   1.163   4.282   1.239  0.3969 -0.1570  0.4727
 7362SOL    HW229220   1.119   4.367   1.240  0.8557  0.0769  1.2500
 7362SOL    HW329221   1.172   4.261   1.146  1.1246  1.0886  0.2433
 7362SOL    MW429222   1.158   4.290   1.227 -0.3331  0.1669  0.2802
 7363SOL     OW29223   4.271   1.011   2.178  0.2819 -0.0833 -0.1347
 7363SOL    HW229224   4.202   0.987   2.240  0.2322  1.8259  0.6055
 7363SOL    HW329225   4.233   1.082   2.127  1.5488  0.7230  0.0166
 7363SOL    MW429226   4.257   1.017   2.180 -0.5864  0.3354 -0.5837
 7364SOL     OW29227   1.098   5.231   1.589  0.1675  0.1307 -0.1701
 7364SOL    HW229228   1.008   5.258   1.605  0.4687  0.4525  1.0311
 7364SOL    HW329229   1.134   5.212   1.675  1.2791  0.0942 -0.6195
 7364SOL    MW429230   1.091   5.232   1.602 -0.3835  0.1471  0.5245
 7365SOL     OW29231   6.160   3.220   4.361  0.1926  0.0705  0.6478
 7365SOL    HW229232   6.085   3.274   4.334 -0.0600 -0.8630 -0.6072
 7365SOL    HW329233   6.209   3.205   4.280  0.5193 -1.1732  1.0558
 7365SOL    MW429234   6.157   3.226   4.347  0.2158  0.0237 -0.3914
 7366SOL     OW29235   2.973   1.608   1.277 -0.8764  0.0572 -0.2523
 7366SOL    HW229236   2.997   1.564   1.195  2.1951 -0.4881  0.8035
 7366SOL    HW329237   2.955   1.699   1.251 -3.1030 -0.7710 -1.8839
 7366SOL    MW429238   2.974   1.614   1.263 -0.3115 -0.4650 -0.6294
 7367SOL     OW29239   3.276   5.057   3.739 -0.1047  0.1359  0.1163
 7367SOL    HW229240   3.253   5.143   3.705  0.6910 -0.4144 -2.0188
 7367SOL    HW329241   3.273   5.066   3.834 -1.2803  2.1486 -0.0710
 7367SOL    MW429242   3.273   5.069   3.747  0.0848  0.3267  0.2271
 7368SOL     OW29243   2.367   0.429   0.357  0.4613  0.0866 -0.8658
 7368SOL    HW229244   2.324   0.502   0.402  1.3406  0.1120 -0.0358
 7368SOL    HW329245   2.327   0.428   0.270 -0.1601  1.0272 -0.6101
 7368SOL    MW429246   2.356   0.438   0.351 -0.1714 -0.0666 -0.0926
 7369SOL     OW29247   5.768   2.641   1.061 -0.2192  0.4715 -0.2715
 7369SOL    HW229248   5.768   2.613   0.970 -0.0231 -0.5610  0.0216
 7369SOL    HW329249   5.786   2.560   1.110 -2.9817  0.4434  0.8565
 7369SOL    MW429250   5.771   2.626   1.056 -0.1925  0.0698  0.1163
 7370SOL     OW29251   4.316   4.251   1.203 -0.2713  0.4357 -0.1387
 7370SOL    HW229252   4.407   4.283   1.196 -0.7386  1.9612  0.2534
 7370SOL    HW329253   4.321   4.179   1.265  0.6752  0.5332 -0.0787
 7370SOL    MW429254   4.329   4.246   1.210 -0.4696 -0.3010  1.0063
 7371SOL     OW29255   2.598   0.847   4.416 -0.3930  0.1937 -0.0292
 7371SOL    HW229256   2.513   0.890   4.427 -0.6109 -0.2020 -0.1316
 7371SOL    HW329257   2.608   0.794   4.495 -0.2765  0.1774 -0.0544
 7371SOL    MW429258   2.588   0.846   4.428 -0.0784 -0.1942  0.4004
 7372SOL     OW29259   1.751   2.590   5.263 -0.0875 -0.5075  0.3225
 7372SOL    HW229260   1.731   2.596   5.357 -0.7722 -2.6501  0.3587
 7372SOL    HW329261   1.675   2.627   5.220  0.6042  1.3273  0.5706
 7372SOL    MW429262   1.739   2.595   5.270 -0.3345 -0.0705 -0.0890
 7373SOL     OW29263   5.972   5.002   1.638  0.3816 -0.3688  0.5330
 7373SOL    HW229264   5.917   4.948   1.581  0.8175 -3.1347  2.5226
 7373SOL    HW329265   5.910   5.044   1.698  0.1823 -0.7264  0.5837
 7373SOL    MW429266   5.956   5.000   1.639  0.2456 -0.3653 -0.5314
 7374SOL     OW29267   1.040   0.107   4.130  0.7742 -0.3868 -0.2654
 7374SOL    HW229268   0.981   0.056   4.184 -0.6090  0.4926 -0.8995
 7374SOL    HW329269   0.992   0.122   4.048  2.1913 -0.3558 -1.1396
 7374SOL    MW429270   1.026   0.102   4.126  0.6163  0.2309 -0.0130
 7375SOL     OW29271   5.029   6.358   6.088  0.3477 -0.0655 -0.1957
 7375SOL    HW229272   5.114   6.317   6.104  0.9644  1.4655  0.6707
 7375SOL    HW329273   5.030   6.382   5.996  0.4218 -0.9714 -0.4391
 7375SOL    MW429274   5.040   6.356   6.078 -0.0983 -0.0003 -0.3021
 7376SOL     OW29275   3.655   3.855   4.430  0.0681 -0.3741 -0.1796
 7376SOL    HW229276   3.571   3.898   4.449 -0.2898 -1.5917  1.2218
 7376SOL    HW329277   3.666   3.864   4.336 -2.1318 -0.9881 -0.5576
 7376SOL    MW429278   3.645   3.862   4.420  0.1357 -0.1437  0.4196
 7377SOL     OW29279   3.347   1.847   5.094  0.3802  0.2334  0.2956
 7377SOL    HW229280   3.425   1.895   5.123  0.1094 -0.2640  1.9433
 7377SOL    HW329281   3.381   1.763   5.062  0.5454  0.0276  0.9863
 7377SOL    MW429282   3.362   1.842   5.094  0.1622  0.3949  0.1752
 7378SOL     OW29283   1.456   6.395   3.648 -0.0140 -0.0504 -0.8948
 7378SOL    HW229284   1.404   6.315   3.636  0.5761 -0.5251 -0.3655
 7378SOL    HW329285   1.490   6.414   3.561 -0.2014 -0.3509 -1.0375
 7378SOL    MW429286   1.453   6.387   3.635  0.0372 -0.3395 -0.2772
 7379SOL     OW29287   1.320   5.233   4.645  0.5989 -0.2320  0.1149
 7379SOL    HW229288   1.260   5.193   4.582 -0.3612  0.7390  0.3716
 7379SOL    HW329289   1.362   5.304   4.596  1.5500 -0.9131 -0.0626
 7379SOL    MW429290   1.317   5.237   4.630  0.2665  0.2146 -0.0262
 7380SOL     OW29291   1.391   0.753   0.965 -0.8576  0.2328  0.0903
 7380SOL    HW229292   1.379   0.660   0.982  0.6467  0.0830  0.4240
 7380SOL    HW329293   1.303   0.785   0.945 -1.6862 -0.8984  1.7122
 7380SOL    MW429294   1.378   0.745   0.965 -0.2129  0.3525 -0.1793
 7381SOL     OW29295   4.615   5.353   3.735  0.8518  0.3085  0.0828
 7381SOL    HW229296   4.541   5.292   3.738  0.4949  0.7582  0.7984
 7381SOL    HW329297   4.692   5.297   3.723  0.3559 -0.1263 -1.1362
 7381SOL    MW429298   4.616   5.338   3.734 -0.5964  0.0774  0.6465
 7382SOL     OW29299   4.712   2.314   4.885 -0.4406 -0.3765 -0.5965
 7382SOL    HW229300   4.786   2.267   4.847 -0.3967 -0.0211 -0.9591
 7382SOL    HW329301   4.752   2.385   4.935 -0.5562  0.8678 -2.1867
 7382SOL    MW429302   4.727   2.317   4.886  0.2408 -0.8908  0.0572
 7383SOL     OW29303   2.492   5.115   4.553 -0.6020 -0.4454 -0.0856
 7383SOL    HW229304   2.453   5.037   4.514  0.0629 -1.3684  1.0342
 7383SOL    HW329305   2.424   5.149   4.611 -1.1731  0.2784 -1.1377
 7383SOL    MW429306   2.478   5.109   4.555  0.4944 -0.3686  0.0014
 7384SOL     OW29307   4.500   3.513   4.364  0.2433  0.1397 -0.0303
 7384SOL    HW229308   4.540   3.453   4.302  0.5770 -0.8781  1.1418
 7384SOL    HW329309   4.406   3.506   4.347  0.2314 -1.1491  0.4367
 7384SOL    MW429310   4.493   3.504   4.354 -0.1514 -0.3073  0.0111
 7385SOL     OW29311   3.506   2.165   6.314 -0.2666 -0.3282 -0.5244
 7385SOL    HW229312   3.557   2.100   6.266 -0.1688 -0.0002 -0.8643
 7385SOL    HW329313   3.545   2.249   6.290 -0.9980 -0.0710 -0.8271
 7385SOL    MW429314   3.518   2.168   6.305  0.0982 -0.0304  0.2858
 7386SOL     OW29315   5.566   6.378   0.860 -0.0103  0.1355  0.5159
 7386SOL    HW229316   5.643   6.322   0.875 -0.1736 -0.3741 -0.4244
 7386SOL    HW329317   5.602   6.456   0.818 -0.0088 -0.2131 -0.1651
 7386SOL    MW429318   5.581   6.381   0.856  0.7542 -0.2014  0.1336
 7387SOL     OW29319   1.238   1.905   4.291  0.0211  0.0780  0.2564
 7387SOL    HW229320   1.194   1.934   4.212  0.3345  0.0714  0.0760
 7387SOL    HW329321   1.213   1.814   4.301 -0.2408  0.1577  0.3192
 7387SOL    MW429322   1.229   1.897   4.282  0.8105  0.2452 -0.1405
 7388SOL     OW29323   4.572   0.899   0.182  0.0094  0.4414 -0.8117
 7388SOL    HW229324   4.570   0.980   0.132 -1.2593 -0.3423 -2.1368
 7388SOL    HW329325   4.505   0.844   0.141 -1.6436 -0.0213  2.2012
 7388SOL    MW429326   4.563   0.902   0.170 -1.0135  0.0914  0.3968
 7389SOL     OW29327   5.470   6.389   1.596  0.1140 -0.1056 -0.1148
 7389SOL    HW229328   5.378   6.364   1.586 -0.4453  1.4421  0.7335
 7389SOL    HW329329   5.499   6.343   1.675  0.2458 -1.0116 -0.6779
 7389SOL    MW429330   5.462   6.379   1.605 -0.2178  0.2594  0.1487
 7390SOL     OW29331   0.255   2.417   2.574 -0.5054  0.2682  0.5702
 7390SOL    HW229332   0.174   2.373   2.599  1.4631 -3.7134  0.5569
 7390SOL    HW329333   0.298   2.438   2.657 -0.5402  0.3407  0.5698
 7390SOL    MW429334   0.250   2.414   2.589 -0.5329 -0.3473 -0.0073
 7391SOL     OW29335   0.322   4.156   3.421  0.3222  0.1295  0.1402
 7391SOL    HW229336   0.415   4.177   3.420  0.5566 -0.8552  0.3255
 7391SOL    HW329337   0.291   4.180   3.334  0.8653 -0.0358 -0.1025
 7391SOL    MW429338   0.330   4.162   3.409 -0.0681 -0.3987  0.0488
 7392SOL     OW29339   2.884   6.410   5.983  0.3911  0.3146 -0.3126
 7392SOL    HW229340   2.963   6.415   5.929 -0.4486 -0.6697 -1.7034
 7392SOL    HW329341   2.836   6.490   5.963 -0.7403 -0.7973 -2.4857
 7392SOL    MW429342   2.888   6.421   5.973  0.4367  0.1579  0.1740
 7393SOL     OW29343   3.495   2.796   3.386  0.2518 -0.0995  0.5018
 7393SOL    HW229344   3.432   2.849   3.435  0.1925 -1.2221  1.6967
 7393SOL    HW329345   3.574   2.850   3.383 -0.0790  0.4214  0.9032
 7393SOL    MW429346   3.497   2.810   3.392  0.0443  0.3024  0.4470
 7394SOL     OW29347   0.845   0.125   2.441  0.3941  0.2677 -0.1470
 7394SOL    HW229348   0.767   0.090   2.398 -0.5327  1.8501  0.1877
 7394SOL    HW329349   0.814   0.200   2.491  2.1910  1.1386 -0.2564
 7394SOL    MW429350   0.831   0.130   2.442  0.2178  0.5442  0.2361
 7395SOL     OW29351   1.613   6.126   2.075 -0.7872 -0.1649  0.1927
 7395SOL    HW229352   1.526   6.140   2.038 -1.1350 -0.6998  0.8000
 7395SOL    HW329353   1.598   6.080   2.157  0.0897 -0.6335  0.1084
 7395SOL    MW429354   1.600   6.122   2.081 -0.4498  0.6397 -0.6414
 7396SOL     OW29355   0.515   4.843   0.132  0.0312  0.2276 -0.3651
 7396SOL    HW229356   0.462   4.912   0.172  0.2092  0.2419 -0.1514
 7396SOL    HW329357   0.500   4.766   0.186 -0.2306  0.0746 -0.6515
 7396SOL    MW429358   0.506   4.842   0.144 -0.5664  0.3748  0.0471
 7397SOL     OW29359   4.020   2.848   3.416 -0.0114 -0.2063  0.0129
 7397SOL    HW229360   3.992   2.790   3.345 -1.3293 -0.4469  0.6996
 7397SOL    HW329361   4.061   2.922   3.372 -1.7898  0.1821 -1.0679
 7397SOL    MW429362   4.022   2.850   3.401 -0.4775 -0.1747 -0.0187
 7398SOL     OW29363   0.110   3.652   4.457  0.1636 -0.3237 -0.4937
 7398SOL    HW229364   0.056   3.726   4.429 -0.7134  0.1099  2.0369
 7398SOL    HW329365   0.191   3.692   4.490 -0.1361 -0.4871  0.4824
 7398SOL    MW429366   0.113   3.667   4.458 -0.3450 -0.4371  0.2151
 7399SOL     OW29367   2.340   0.519   3.082 -0.2582 -0.7476 -0.0254
 7399SOL    HW229368   2.337   0.446   3.019  0.6277 -1.0848  0.3064
 7399SOL    HW329369   2.409   0.576   3.049 -0.1815 -0.6323  0.3300
 7399SOL    MW429370   2.348   0.517   3.069  0.5056  0.5388 -0.1662
 7400SOL     OW29371   4.462   0.482   0.528  0.4614  0.7589 -0.0985
 7400SOL    HW229372   4.484   0.503   0.436  0.3012  0.1265 -0.2829
 7400SOL    HW329373   4.371   0.456   0.526  1.1219 -1.7625 -0.1950
 7400SOL    MW429374   4.453   0.481   0.515  0.2455  0.1505 -0.2513
 7401SOL     OW29375   0.547   1.669   1.462  0.2952 -0.2777 -0.7585
 7401SOL    HW229376   0.469   1.659   1.516 -0.4311  2.6199 -1.0857
 7401SOL    HW329377   0.554   1.764   1.447  2.7823 -0.6089 -2.3552
 7401SOL    MW429378   0.538   1.681   1.467 -0.2587 -0.3750  0.0355
 7402SOL     OW29379   0.432   5.652   1.345  0.1047  0.0164 -0.6069
 7402SOL    HW229380   0.496   5.606   1.290 -1.3506 -1.0877 -1.4578
 7402SOL    HW329381   0.349   5.609   1.326 -0.6659  0.3735  1.6173
 7402SOL    MW429382   0.430   5.640   1.335  0.4081  0.2102 -0.1422
 7403SOL     OW29383   2.516   2.045   3.108  0.3696 -0.2600  0.1628
 7403SOL    HW229384   2.490   2.133   3.080 -0.5844 -0.2936  0.8934
 7403SOL    HW329385   2.586   2.021   3.048 -0.5380  0.2970 -1.1751
 7403SOL    MW429386   2.522   2.053   3.096  0.1418 -0.1073 -0.2807
 7404SOL     OW29387   5.726   3.472   2.443 -0.9131  0.0991 -0.0996
 7404SOL    HW229388   5.755   3.398   2.497  0.5249  0.3393 -0.5146
 7404SOL    HW329389   5.774   3.547   2.478  0.5330  0.1584 -2.0613
 7404SOL    MW429390   5.736   3.472   2.455  0.3214 -0.1660 -0.3158
 7405SOL     OW29391   3.148   2.367   3.597 -0.5203  0.0949  0.2259
 7405SOL    HW229392   3.223   2.393   3.650  0.0759 -0.8397 -0.1491
 7405SOL    HW329393   3.153   2.425   3.520 -0.8441  0.7988  0.7198
 7405SOL    MW429394   3.159   2.378   3.594  0.4294 -0.0660 -0.1392
 7406SOL     OW29395   2.173   4.095   3.472 -0.0922 -0.1189 -0.1968
 7406SOL    HW229396   2.155   4.126   3.561  2.2848  0.1550  0.2494
 7406SOL    HW329397   2.251   4.040   3.481  1.4092  1.4973 -2.3411
 7406SOL    MW429398   2.181   4.092   3.485 -0.1118  0.5985  0.3990
 7407SOL     OW29399   3.839   5.106   2.580  0.0789  0.3347 -0.3614
 7407SOL    HW229400   3.836   5.197   2.552  1.1950  1.2638  2.2885
 7407SOL    HW329401   3.749   5.086   2.607 -0.5050  0.1099 -2.3127
 7407SOL    MW429402   3.827   5.115   2.580 -0.0917  0.0396 -0.5024
 7408SOL     OW29403   0.993   0.289   1.413 -0.0543 -0.5582 -0.4330
 7408SOL    HW229404   0.932   0.231   1.366 -1.5594  1.5810 -1.2829
 7408SOL    HW329405   0.953   0.376   1.405  1.1325  0.3390  2.3938
 7408SOL    MW429406   0.979   0.293   1.405 -0.2456 -0.0178 -0.5721
 7409SOL     OW29407   0.233   0.878   0.117  0.6422  0.1960 -0.0326
 7409SOL    HW229408   0.240   0.806   0.181  0.1431  0.2061  0.0353
 7409SOL    HW329409   0.233   0.835   0.032  1.0755  0.1656 -0.0171
 7409SOL    MW429410   0.234   0.863   0.115  0.2025  0.4734  0.7147
 7410SOL     OW29411   3.246   3.722   5.738 -0.0259  0.0662 -0.4576
 7410SOL    HW229412   3.211   3.685   5.819  0.3013 -0.2789 -0.4719
 7410SOL    HW329413   3.268   3.812   5.761  2.4463 -0.7069  0.5757
 7410SOL    MW429414   3.244   3.729   5.752 -0.5723  0.4376  0.2926
 7411SOL     OW29415   1.487   3.974   5.529  0.2958  0.8209 -0.1133
 7411SOL    HW229416   1.518   3.952   5.441  0.4073 -1.2366  0.3765
 7411SOL    HW329417   1.393   3.985   5.519  0.0479 -1.1219 -0.2410
 7411SOL    MW429418   1.479   3.972   5.516  0.0793  0.1658  0.0986
 7412SOL     OW29419   2.160   0.177   0.548  0.6712 -0.3006  0.0099
 7412SOL    HW229420   2.162   0.083   0.567 -2.1281 -0.4236  0.1061
 7412SOL    HW329421   2.195   0.184   0.459 -0.9058 -1.7517 -0.8021
 7412SOL    MW429422   2.165   0.165   0.539  0.5595 -0.0390  0.3892
 7413SOL     OW29423   6.039   2.804   2.935  0.0250 -0.2763  0.0574
 7413SOL    HW229424   6.064   2.887   2.895 -0.8857 -0.1239 -0.2193
 7413SOL    HW329425   6.095   2.739   2.892 -0.0915  0.0438 -0.5818
 7413SOL    MW429426   6.050   2.806   2.924  0.4447  0.0847  0.1714
 7414SOL     OW29427   2.895   2.733   4.258  0.0370  0.0075 -0.5614
 7414SOL    HW229428   2.984   2.742   4.224 -0.5356  2.3712 -1.5997
 7414SOL    HW329429   2.900   2.658   4.318  3.2561  1.4408  1.2031
 7414SOL    MW429430   2.907   2.724   4.262 -0.6320 -0.4034  0.3073
 7415SOL     OW29431   1.206   4.961   3.813  0.3144  0.0725 -0.7215
 7415SOL    HW229432   1.202   4.970   3.718  1.9791  0.1841 -0.8104
 7415SOL    HW329433   1.242   4.873   3.827 -1.1157 -0.4487 -0.1514
 7415SOL    MW429434   1.210   4.950   3.803 -0.5113  0.5444  0.3339
 7416SOL     OW29435   3.852   5.304   2.171  0.2622 -0.3026 -0.5218
 7416SOL    HW229436   3.891   5.244   2.108  2.2354 -1.3845  1.5533
 7416SOL    HW329437   3.836   5.384   2.121  1.7026 -1.0930 -2.3759
 7416SOL    MW429438   3.855   5.307   2.156 -0.3990  0.1884  0.1971
 7417SOL     OW29439   4.887   5.702   6.244  0.2789 -0.0714 -0.2763
 7417SOL    HW229440   4.796   5.732   6.254  0.4263  0.1630  0.4233
 7417SOL    HW329441   4.889   5.617   6.287  0.4750  0.0865  0.0271
 7417SOL    MW429442   4.875   5.695   6.251 -0.2911 -0.6484  0.0748
 7418SOL     OW29443   5.097   2.726   5.347  0.0071  1.1549 -0.1658
 7418SOL    HW229444   5.135   2.755   5.430  0.8652 -1.2274  0.3637
 7418SOL    HW329445   5.007   2.700   5.370  0.1642  0.7294 -0.0269
 7418SOL    MW429446   5.090   2.726   5.361 -0.0179  0.3721  0.4707
 7419SOL     OW29447   1.686   5.279   1.595 -0.9643  0.2872  0.2910
 7419SOL    HW229448   1.770   5.308   1.560 -1.4754  1.2977 -0.1278
 7419SOL    HW329449   1.635   5.253   1.519 -1.0325 -0.3529  0.5450
 7419SOL    MW429450   1.691   5.280   1.581  0.0441 -0.5370  0.3012
 7420SOL     OW29451   0.396   5.864   4.275 -0.1784  0.0195 -0.1847
 7420SOL    HW229452   0.470   5.828   4.323 -0.5080 -0.7676 -0.2316
 7420SOL    HW329453   0.323   5.859   4.337 -0.3315  0.1821 -0.3499
 7420SOL    MW429454   0.396   5.858   4.289 -0.4225 -0.4099  0.2734
 7421SOL     OW29455   1.173   1.498   1.287  0.1632  0.3813 -0.0925
 7421SOL    HW229456   1.242   1.530   1.228  0.5652  0.0904  0.2145
 7421SOL    HW329457   1.179   1.553   1.364  1.1469 -0.6766  0.6220
 7421SOL    MW429458   1.183   1.509   1.289 -0.3896 -0.4722  0.6076
 7422SOL     OW29459   3.474   1.159   3.172  0.2272  0.4218  0.3790
 7422SOL    HW229460   3.469   1.105   3.093  0.7686  0.2449  0.4613
 7422SOL    HW329461   3.413   1.118   3.233 -1.0968  1.2519 -0.3467
 7422SOL    MW429462   3.465   1.146   3.169 -0.3943 -0.1099 -0.5209
 7423SOL     OW29463   4.533   6.129   4.760  0.1707 -0.1298  0.0115
 7423SOL    HW229464   4.524   6.117   4.665 -0.4854  2.0991 -0.2714
 7423SOL    HW329465   4.622   6.163   4.771  0.0139  0.2406  0.1265
 7423SOL    MW429466   4.544   6.132   4.749  1.0453  0.4601  0.2017
 7424SOL     OW29467   5.412   5.587   4.628  0.0895 -0.0317  0.3042
 7424SOL    HW229468   5.372   5.660   4.675  1.6806  0.4337  1.0135
 7424SOL    HW329469   5.342   5.552   4.573 -1.6701 -0.1675  2.5044
 7424SOL    MW429470   5.398   5.592   4.627 -0.6653  0.4614  0.4239
 7425SOL     OW29471   0.932   5.190   5.969 -0.1919  0.0866  0.1284
 7425SOL    HW229472   0.998   5.161   5.906  0.3655  1.8444 -0.1461
 7425SOL    HW329473   0.924   5.117   6.030  0.5421 -0.9544 -0.9634
 7425SOL    MW429474   0.939   5.176   5.969 -0.4157  0.3345 -0.3551
 7426SOL     OW29475   0.422   6.045   4.063 -0.0209  0.0650 -0.2525
 7426SOL    HW229476   0.507   6.078   4.033 -0.2807  1.9799  0.9376
 7426SOL    HW329477   0.444   5.973   4.122  0.7817  0.6084  0.1296
 7426SOL    MW429478   0.437   6.040   4.067 -0.0850  0.5378 -0.0604
 7427SOL     OW29479   1.385   2.745   5.485  0.1056 -0.2594  0.4334
 7427SOL    HW229480   1.340   2.791   5.556  1.4076 -0.2204  1.2665
 7427SOL    HW329481   1.452   2.807   5.455 -0.1680 -0.4356 -0.5628
 7427SOL    MW429482   1.388   2.759   5.491  0.5359 -0.7295 -0.3299
 7428SOL     OW29483   3.886   3.146   2.206  0.1238 -0.3463 -0.5321
 7428SOL    HW229484   3.976   3.119   2.224  0.3147 -0.4562 -1.5906
 7428SOL    HW329485   3.836   3.112   2.281  0.9490 -0.2613  0.0796
 7428SOL    MW429486   3.891   3.138   2.219  0.2903 -0.1714  0.3051
 7429SOL     OW29487   2.482   3.719   1.724 -0.0410 -0.4351 -0.0177
 7429SOL    HW229488   2.555   3.757   1.773 -0.5165 -1.8039  1.8415
 7429SOL    HW329489   2.525   3.661   1.661  0.5653  1.2506 -1.2537
 7429SOL    MW429490   2.498   3.716   1.722  0.7003  0.4275  0.4464
 7430SOL     OW29491   0.512   4.540   0.478 -0.6654 -0.0825 -0.0355
 7430SOL    HW229492   0.451   4.521   0.550 -0.6674  2.4037  0.6965
 7430SOL    HW329493   0.580   4.473   0.486 -0.5972  0.1955  2.3837
 7430SOL    MW429494   0.513   4.529   0.489 -0.0529  0.6698  0.3329
 7431SOL     OW29495   5.563   2.085   2.035 -0.4526  0.0607 -0.0185
 7431SOL    HW229496   5.540   2.012   1.977  1.2040  0.7433 -1.6406
 7431SOL    HW329497   5.526   2.162   1.992 -0.6897  0.3925  0.7656
 7431SOL    MW429498   5.555   2.085   2.021 -0.2843  0.0924  0.0573
 7432SOL     OW29499   3.999   4.993   2.300 -0.1811 -0.6433 -1.0282
 7432SOL    HW229500   4.070   4.929   2.305 -0.7130 -1.1617  0.9399
 7432SOL    HW329501   4.001   5.037   2.385 -0.6157  1.1076 -1.8869
 7432SOL    MW429502   4.008   4.990   2.312 -0.1287  0.0408 -0.1656
 7433SOL     OW29503   1.812   5.411   1.201  0.2367  0.1762 -0.4203
 7433SOL    HW229504   1.848   5.413   1.290  0.2754 -1.0015 -0.3919
 7433SOL    HW329505   1.779   5.322   1.191 -2.3663  1.0882 -0.5986
 7433SOL    MW429506   1.813   5.400   1.212 -0.2175  0.0438  0.1613
 7434SOL     OW29507   4.518   4.983   5.481  0.2573  0.0211  0.3876
 7434SOL    HW229508   4.458   4.911   5.460  1.0458 -0.0684 -1.8528
 7434SOL    HW329509   4.588   4.942   5.531 -1.0963 -0.0110  2.3721
 7434SOL    MW429510   4.519   4.968   5.484 -0.6656 -0.3321  0.1570
 7435SOL     OW29511   4.484   1.562   6.108 -0.2654  0.1619 -0.2454
 7435SOL    HW229512   4.567   1.540   6.065 -1.7618  0.0507 -3.3705
 7435SOL    HW329513   4.501   1.646   6.151  1.4185  0.2006 -0.8975
 7435SOL    MW429514   4.497   1.570   6.108 -0.1240 -0.5489 -0.2948
 7436SOL     OW29515   6.120   5.530   0.671 -0.1721  0.0899  0.0973
 7436SOL    HW229516   6.032   5.567   0.666 -0.0605  0.5897  1.4239
 7436SOL    HW329517   6.178   5.604   0.656  0.0393 -0.1413 -0.2570
 7436SOL    MW429518   6.116   5.544   0.668  0.2051  0.4800 -0.6936
 7437SOL     OW29519   3.732   4.992   5.494 -0.0625  0.6697 -0.1431
 7437SOL    HW229520   3.765   4.986   5.404  0.1849  0.3556 -0.0339
 7437SOL    HW329521   3.782   5.064   5.533  0.0827  0.5744 -0.1518
 7437SOL    MW429522   3.743   5.001   5.487 -0.2419  0.0466  0.0549
 7438SOL     OW29523   4.187   2.535   4.526 -0.9299 -0.0161 -0.5416
 7438SOL    HW229524   4.237   2.581   4.458 -1.8397  0.9020 -0.6115
 7438SOL    HW329525   4.097   2.536   4.494 -1.3606  0.3455  0.6228
 7438SOL    MW429526   4.182   2.541   4.513  0.2128 -0.2456  0.8098
 7439SOL     OW29527   1.185   3.479   1.864  0.4267 -0.2103 -0.0688
 7439SOL    HW229528   1.193   3.426   1.786  0.8187 -0.7504  0.3299
 7439SOL    HW329529   1.149   3.421   1.931 -2.5344  0.9357 -0.5206
 7439SOL    MW429530   1.181   3.465   1.863 -0.2594  1.0378 -0.1086
 7440SOL     OW29531   3.136   5.313   5.786  0.0360 -0.1533 -0.4013
 7440SOL    HW229532   3.190   5.280   5.713 -0.9977 -1.0806 -0.7813
 7440SOL    HW329533   3.055   5.341   5.745  0.0421  0.8015  0.2190
 7440SOL    MW429534   3.133   5.312   5.771 -0.5423  0.0489  0.0408
 7441SOL     OW29535   0.451   1.227   5.377 -0.8374 -0.7449  0.1833
 7441SOL    HW229536   0.383   1.234   5.445 -0.8888  1.1415 -0.0201
 7441SOL    HW329537   0.441   1.306   5.324  1.6882 -0.2590  0.2955
 7441SOL    MW429538   0.441   1.238   5.379  0.0085  0.4701 -0.1955
 7442SOL     OW29539   5.885   3.121   4.715 -0.2487  0.4633 -0.3639
 7442SOL    HW229540   5.905   3.178   4.789  0.7541  0.7549 -0.8383
 7442SOL    HW329541   5.938   3.043   4.730 -1.2822 -0.1693  0.0533
 7442SOL    MW429542   5.895   3.118   4.727  0.3796 -0.0308  0.1436
 7443SOL     OW29543   6.301   5.217   1.015 -0.3618 -0.0751  0.0333
 7443SOL    HW229544   6.388   5.186   0.991 -1.2965 -2.1209 -1.0132
 7443SOL    HW329545   6.261   5.143   1.060 -0.9766  1.4507  2.1700
 7443SOL    MW429546   6.307   5.203   1.018  0.1351  0.1650 -0.0769
 7444SOL     OW29547   2.763   0.683   0.232 -0.1357  0.3516 -0.0836
 7444SOL    HW229548   2.732   0.683   0.322  0.7994  0.2072  0.2456
 7444SOL    HW329549   2.711   0.615   0.189 -0.5671  0.4050  0.3472
 7444SOL    MW429550   2.752   0.674   0.238 -0.3536 -0.1462 -0.0476
 7445SOL     OW29551   1.550   0.892   0.498 -0.1592  0.5986  0.0535
 7445SOL    HW229552   1.532   0.963   0.560  0.0603 -0.2989  1.1853
 7445SOL    HW329553   1.491   0.909   0.425 -0.8894  1.3506  0.7822
 7445SOL    MW429554   1.540   0.904   0.497 -0.0166  0.7248  0.0435
 7446SOL     OW29555   5.189   4.761   5.995  0.2012  0.1442 -0.1879
 7446SOL    HW229556   5.178   4.681   6.047  1.7210  0.4339  0.6314
 7446SOL    HW329557   5.154   4.830   6.051  0.4504  0.2609 -0.1741
 7446SOL    MW429558   5.183   4.759   6.010  0.5267 -0.0596 -0.4861
 7447SOL     OW29559   1.399   0.618   5.717 -0.1289  0.6177 -0.3601
 7447SOL    HW229560   1.312   0.578   5.717 -1.2608  2.8517  1.8627
 7447SOL    HW329561   1.447   0.569   5.650 -2.3392 -2.2498 -0.0638
 7447SOL    MW429562   1.394   0.606   5.708  0.2441  0.7521 -0.1838
 7448SOL     OW29563   4.359   2.375   6.186 -0.1181 -0.3117 -0.2154
 7448SOL    HW229564   4.443   2.419   6.169 -1.0719  1.3782 -0.8082
 7448SOL    HW329565   4.306   2.442   6.230 -0.3405 -2.1530  2.5137
 7448SOL    MW429566   4.363   2.390   6.190 -0.4399 -0.0364  0.1522
 7449SOL     OW29567   0.693   3.017   3.012  0.0399 -0.3762  0.1404
 7449SOL    HW229568   0.754   3.008   3.085  0.5125 -0.6882 -0.2891
 7449SOL    HW329569   0.686   3.112   2.997  0.1289 -0.3248  0.4302
 7449SOL    MW429570   0.700   3.028   3.020 -0.1562  0.1541  0.1472
 7450SOL     OW29571   1.557   4.782   0.136 -0.3706  0.0078 -0.2775
 7450SOL    HW229572   1.553   4.857   0.195  1.1447 -0.0355 -0.0743
 7450SOL    HW329573   1.598   4.817   0.057 -0.8841 -0.3117 -0.6897
 7450SOL    MW429574   1.562   4.797   0.133 -0.5311  0.3076 -0.1948
 7451SOL     OW29575   2.925   3.039   4.726  0.0930  0.3289 -0.1118
 7451SOL    HW229576   2.848   2.995   4.761  0.1230  0.8450  0.6360
 7451SOL    HW329577   2.970   3.073   4.803  1.4615 -0.5759 -0.4836
 7451SOL    MW429578   2.920   3.038   4.740  0.3749 -0.3424 -1.5205
 7452SOL     OW29579   5.029   1.645   0.589 -0.3827  0.3147  0.3227
 7452SOL    HW229580   5.002   1.735   0.574 -0.9461 -0.1070 -1.4947
 7452SOL    HW329581   4.946   1.596   0.596 -0.1246  0.0748  2.6508
 7452SOL    MW429582   5.014   1.650   0.588 -0.3945  0.9494 -0.3143
 7453SOL     OW29583   1.109   4.218   0.247 -0.2115  0.7447  0.6834
 7453SOL    HW229584   1.119   4.303   0.289  0.2708  0.5448  0.9847
 7453SOL    HW329585   1.127   4.155   0.317  0.6657  0.4076  0.1787
 7453SOL    MW429586   1.113   4.221   0.262  0.0850 -0.4566  0.5374
 7454SOL     OW29587   4.500   2.457   4.800 -0.6503  0.1196  0.0681
 7454SOL    HW229588   4.482   2.417   4.715 -0.7129  0.3818 -0.0438
 7454SOL    HW329589   4.573   2.407   4.836 -1.9644 -1.3897  0.8058
 7454SOL    MW429590   4.507   2.445   4.794 -0.3977  0.0823  0.2485
 7455SOL     OW29591   3.108   1.008   3.089 -0.1241 -0.3859  0.2019
 7455SOL    HW229592   3.134   1.100   3.098  1.1731 -0.8615  1.7450
 7455SOL    HW329593   3.173   0.971   3.030  0.2956 -0.6577  0.8276
 7455SOL    MW429594   3.120   1.015   3.082  0.0065  0.3584  0.4040
 7456SOL     OW29595   5.006   0.105   0.650  0.0817 -0.4229 -0.1778
 7456SOL    HW229596   4.997   0.086   0.557 -2.1859  0.7394 -0.2689
 7456SOL    HW329597   4.930   0.062   0.690  0.2239  0.3162  0.9118
 7456SOL    MW429598   4.994   0.097   0.643 -0.6003 -0.3978  0.0201
 7457SOL     OW29599   2.737   4.551   4.664 -0.5628 -0.0328  0.0100
 7457SOL    HW229600   2.742   4.551   4.569 -0.1490 -2.4263 -0.0280
 7457SOL    HW329601   2.828   4.550   4.693 -0.6670  1.4463  0.4969
 7457SOL    MW429602   2.749   4.551   4.655  0.5130 -0.0032 -0.4737
 7458SOL     OW29603   0.821   1.308   2.080 -0.1675  0.4821 -0.1497
 7458SOL    HW229604   0.901   1.331   2.033 -0.7009 -0.8706 -1.7852
 7458SOL    HW329605   0.810   1.214   2.066 -1.1648  0.3222  1.4506
 7458SOL    MW429606   0.830   1.299   2.072 -0.0062  0.2504 -0.2400
 7459SOL     OW29607   2.041   5.866   0.548  0.6369 -0.8518  0.9320
 7459SOL    HW229608   1.964   5.840   0.496  2.1914 -0.5225 -1.7009
 7459SOL    HW329609   2.081   5.783   0.574  0.6045 -1.0517  0.3629
 7459SOL    MW429610   2.036   5.851   0.544 -0.1812 -0.2959 -0.2559
 7460SOL     OW29611   2.832   2.599   3.185  0.2464  0.2796  0.0548
 7460SOL    HW229612   2.748   2.636   3.213 -0.2893  0.5656 -1.7939
 7460SOL    HW329613   2.886   2.676   3.165  0.6997  0.0830  0.4903
 7460SOL    MW429614   2.828   2.614   3.186 -0.1589 -0.2936 -0.3695
 7461SOL     OW29615   4.994   3.302   1.576 -0.0171  0.5027  0.3052
 7461SOL    HW229616   4.963   3.223   1.531 -0.4235  0.2994  0.9350
 7461SOL    HW329617   5.073   3.327   1.528 -0.7376  0.6075 -0.8693
 7461SOL    MW429618   5.001   3.295   1.564  0.5850 -0.2558  0.4461
 7462SOL     OW29619   1.988   1.870   4.311 -0.1234 -0.0950  0.3788
 7462SOL    HW229620   1.958   1.894   4.399  0.9737 -0.5564  0.9013
 7462SOL    HW329621   1.909   1.842   4.266 -0.5090 -1.2639  1.7013
 7462SOL    MW429622   1.974   1.870   4.317 -0.2781 -0.3509  0.3382
 7463SOL     OW29623   5.676   0.362   1.848 -0.8262 -0.6250 -0.4928
 7463SOL    HW229624   5.682   0.267   1.852  0.2337 -0.5325  0.6659
 7463SOL    HW329625   5.718   0.385   1.766  0.2603 -1.0856 -0.0905
 7463SOL    MW429626   5.682   0.352   1.838  0.5425  0.1525 -0.3240
 7464SOL     OW29627   6.193   4.845   1.575  0.0557  0.4494 -0.5282
 7464SOL    HW229628   6.258   4.833   1.644  1.3022 -0.1416 -1.7556
 7464SOL    HW329629   6.126   4.901   1.614  0.3162 -0.5370  1.4030
 7464SOL    MW429630   6.193   4.851   1.589  0.3592  0.0735 -0.0610
 7465SOL     OW29631   1.086   6.156   4.851  0.3914 -0.0021 -0.1104
 7465SOL    HW229632   1.058   6.246   4.867 -1.2341 -0.4456 -0.2897
 7465SOL    HW329633   1.135   6.160   4.769 -0.9288  0.5169 -0.9070
 7465SOL    MW429634   1.089   6.169   4.842 -0.2205 -0.1882 -0.8942
 7466SOL     OW29635   4.788   0.279   5.209 -0.6673 -0.2960  0.2432
 7466SOL    HW229636   4.740   0.362   5.218  2.0353  1.2544  2.0326
 7466SOL    HW329637   4.821   0.280   5.119 -3.0621 -0.9257 -0.6934
 7466SOL    MW429638   4.786   0.290   5.198 -0.0372 -0.0181  0.0155
 7467SOL     OW29639   0.111   1.556   2.040  0.0972  0.3481  0.5336
 7467SOL    HW229640   0.176   1.613   1.998  0.8305 -0.0837  1.0437
 7467SOL    HW329641   0.037   1.614   2.059  0.5571  0.9824  0.4479
 7467SOL    MW429642   0.110   1.571   2.037 -0.4527  0.3921 -0.2508
 7468SOL     OW29643   0.701   4.896   2.134  0.4240 -0.5575  0.3715
 7468SOL    HW229644   0.716   4.837   2.060 -0.0223 -0.5973  0.3089
 7468SOL    HW329645   0.788   4.911   2.171  0.7097 -0.1705 -0.4408
 7468SOL    MW429646   0.714   4.890   2.129  0.4593  0.0708  0.1804
 7469SOL     OW29647   0.093   3.712   1.977 -0.2705  0.4552  0.5982
 7469SOL    HW229648   0.099   3.803   1.949 -0.9473  0.2645 -0.2378
 7469SOL    HW329649   0.182   3.686   1.998 -0.0242  1.2001  0.4755
 7469SOL    MW429650   0.105   3.720   1.976 -0.6729 -0.2717  0.2456
 7470SOL     OW29651   1.515   3.268   2.827 -0.0082 -0.8420 -0.4888
 7470SOL    HW229652   1.557   3.263   2.913 -1.7718 -3.1113  0.3679
 7470SOL    HW329653   1.578   3.229   2.767  1.7475  1.8559 -0.5486
 7470SOL    MW429654   1.529   3.262   2.831 -0.1209  0.0377 -0.0797
 7471SOL     OW29655   6.392   3.376   0.391 -0.7446  0.3941  0.3863
 7471SOL    HW229656   6.359   3.394   0.479 -1.2225 -0.6450  0.4387
 7471SOL    HW329657   6.486   3.361   0.403 -0.7326  0.6651  0.6545
 7471SOL    MW429658   6.400   3.377   0.404 -0.0583  0.6416 -0.3432
 7472SOL     OW29659   0.715   2.822   1.097 -0.2521  0.3613  0.7968
 7472SOL    HW229660   0.729   2.911   1.130 -2.2460  0.4519  1.5038
 7472SOL    HW329661   0.737   2.765   1.171 -0.4940  0.3501  0.8615
 7472SOL    MW429662   0.720   2.826   1.111  0.7537 -0.4376 -0.0557
 7473SOL     OW29663   0.014   1.385   5.424 -0.5338  0.1232  0.0768
 7473SOL    HW229664   0.080   1.329   5.465  0.7292  0.2522 -1.6691
 7473SOL    HW329665  -0.011   1.338   5.344 -0.8735  1.1594 -0.4389
 7473SOL    MW429666   0.019   1.371   5.419 -0.3086  0.1501  0.1108
 7474SOL     OW29667   3.676   2.887   3.097  0.4501 -0.9531 -0.7844
 7474SOL    HW229668   3.726   2.815   3.060  0.2335 -1.2450 -0.5088
 7474SOL    HW329669   3.742   2.942   3.141  0.3055 -2.7130  1.9141
 7474SOL    MW429670   3.691   2.885   3.098  0.3490  0.1695  0.2141
 7475SOL     OW29671   2.103   3.798   4.987  0.3092  0.2954  0.5836
 7475SOL    HW229672   2.052   3.718   4.984  0.6831  0.0529  0.6015
 7475SOL    HW329673   2.193   3.769   4.974  0.2499  0.9209 -1.6480
 7475SOL    MW429674   2.108   3.784   4.984 -0.0742 -0.0919 -0.5409
 7476SOL     OW29675   1.478   5.630   4.679 -0.4248  0.3825 -0.2349
 7476SOL    HW229676   1.514   5.704   4.728  2.5844 -1.1887  0.1434
 7476SOL    HW329677   1.394   5.612   4.722  0.1185  1.7714  1.5279
 7476SOL    MW429678   1.471   5.637   4.692 -0.1498 -0.0877 -0.1550
 7477SOL     OW29679   0.987   3.613   0.411  0.0186  0.1063  0.1471
 7477SOL    HW229680   0.975   3.522   0.383 -0.9622 -0.4124  2.0861
 7477SOL    HW329681   1.082   3.625   0.413  0.1529 -0.2491 -1.9080
 7477SOL    MW429682   0.998   3.602   0.407 -0.2392  0.0221 -0.0955
 7478SOL     OW29683   0.765   0.803   4.088  0.1180  0.5690 -0.0891
 7478SOL    HW229684   0.761   0.898   4.090  0.3078  0.6028 -0.9860
 7478SOL    HW329685   0.776   0.777   4.180  1.1328  1.4532  0.0559
 7478SOL    MW429686   0.766   0.812   4.101  0.1961  0.1820  0.4812
 7479SOL     OW29687   5.050   5.811   0.488  0.1989  0.3143  0.6977
 7479SOL    HW229688   5.035   5.783   0.578 -1.9118  2.1450  0.9989
 7479SOL    HW329689   5.145   5.821   0.481  0.4802 -0.8167  2.3875
 7479SOL    MW429690   5.060   5.809   0.499 -0.1536  0.0146 -1.0041
 7480SOL     OW29691   1.358   5.718   1.939  0.3596  0.2808 -0.5288
 7480SOL    HW229692   1.448   5.690   1.953 -0.2577 -1.7756 -0.3431
 7480SOL    HW329693   1.333   5.762   2.020  0.8578 -0.1176 -0.1537
 7480SOL    MW429694   1.367   5.720   1.951  0.3144  0.0899  0.0322
 7481SOL     OW29695   3.125   4.336   3.282  0.3893 -0.2517  0.0071
 7481SOL    HW229696   3.171   4.334   3.366  3.4977 -1.9851 -1.5861
 7481SOL    HW329697   3.104   4.245   3.264 -3.1473  0.3884  0.2433
 7481SOL    MW429698   3.128   4.324   3.290  0.1943 -0.1035 -0.4578
 7482SOL     OW29699   4.299   1.904   0.958  0.0917  0.3302 -0.0820
 7482SOL    HW229700   4.230   1.970   0.966  0.3738  0.6203 -0.0217
 7482SOL    HW329701   4.367   1.933   1.019 -0.3352 -0.7258  0.9633
 7482SOL    MW429702   4.299   1.916   0.967  0.0163 -0.1829  0.5928
 7483SOL     OW29703   2.196   3.949   1.354  0.1868 -0.0556 -0.2219
 7483SOL    HW229704   2.226   3.904   1.432 -1.6800 -0.9614  0.0382
 7483SOL    HW329705   2.144   4.023   1.388 -0.9701 -0.6887 -0.5627
 7483SOL    MW429706   2.193   3.953   1.369  0.0365  0.2872 -0.7643
 7484SOL     OW29707   5.283   0.360   1.385  0.3349 -0.1197  0.5399
 7484SOL    HW229708   5.193   0.352   1.416  0.0430  0.2588 -0.1676
 7484SOL    HW329709   5.330   0.288   1.427  0.4251  1.4610  3.3891
 7484SOL    MW429710   5.277   0.350   1.395 -0.1961 -0.3590  0.0648
 7485SOL     OW29711   1.658   3.574   3.335  0.0566  0.1385 -0.5308
 7485SOL    HW229712   1.725   3.588   3.268  0.6781 -1.7323 -0.3870
 7485SOL    HW329713   1.696   3.609   3.416 -0.4008  1.7497 -0.9767
 7485SOL    MW429714   1.672   3.580   3.337  0.1387  0.3187 -0.1898
 7486SOL     OW29715   0.507   1.962   0.712 -0.6625  0.3411  0.1060
 7486SOL    HW229716   0.557   1.998   0.638 -1.6260  0.3732 -0.5512
 7486SOL    HW329717   0.494   2.035   0.771 -0.8219  0.5805 -0.2230
 7486SOL    MW429718   0.512   1.976   0.710  0.5372  0.4777  0.2767
 7487SOL     OW29719   0.007   4.180   3.002 -0.0425  0.2891  1.0099
 7487SOL    HW229720   0.029   4.096   3.040 -0.2644 -0.3150 -0.1538
 7487SOL    HW329721  -0.085   4.193   3.025 -0.5606 -0.6957 -0.3788
 7487SOL    MW429722  -0.003   4.171   3.010 -0.8688  0.3082  0.0306
 7488SOL     OW29723   3.874   5.879   5.691  0.2065 -0.1382 -0.6867
 7488SOL    HW229724   3.854   5.883   5.785 -0.6494 -1.1459 -0.8117
 7488SOL    HW329725   3.790   5.895   5.648  0.4122 -0.6230 -1.2713
 7488SOL    MW429726   3.860   5.882   5.698  0.2620 -0.0097 -0.0772
 7489SOL     OW29727   2.606   5.878   2.003  0.1808 -0.1347  0.0481
 7489SOL    HW229728   2.625   5.785   2.014 -1.3597 -0.3566  1.2400
 7489SOL    HW329729   2.655   5.921   2.074  1.3799  0.0644 -0.8694
 7489SOL    MW429730   2.615   5.871   2.014  0.1807  0.0333  0.4666
 7490SOL     OW29731   0.779   2.313   1.332 -0.1201 -0.0087  0.2136
 7490SOL    HW229732   0.863   2.301   1.286 -0.5331  1.3845 -0.9912
 7490SOL    HW329733   0.750   2.400   1.306 -1.2230  0.1522  1.8334
 7490SOL    MW429734   0.786   2.323   1.323 -0.0179  0.1668  0.0017
 7491SOL     OW29735   0.557   3.673   2.113  0.2777  0.3611  0.3327
 7491SOL    HW229736   0.631   3.717   2.072  1.5709 -1.8066  0.2047
 7491SOL    HW329737   0.595   3.599   2.160 -1.4865  0.9497  2.9381
 7491SOL    MW429738   0.572   3.669   2.114 -0.1903  0.6211  0.2735
 7492SOL     OW29739   5.350   2.482   3.780  0.4311  0.2671  0.0427
 7492SOL    HW229740   5.304   2.399   3.785  0.1969  0.4094  0.3136
 7492SOL    HW329741   5.353   2.503   3.687 -3.4893  2.1399  0.1501
 7492SOL    MW429742   5.345   2.474   3.769  0.4167  0.0560  0.3248
 7493SOL     OW29743   1.336   2.279   0.982  0.1435 -0.0124  0.8393
 7493SOL    HW229744   1.321   2.373   0.982  2.2965  0.5083 -2.3307
 7493SOL    HW329745   1.257   2.242   0.944  0.5527  0.9761 -1.1200
 7493SOL    MW429746   1.324   2.286   0.977 -0.5453  0.3390  0.0216
 7494SOL     OW29747   2.589   0.047   2.467 -0.8731 -0.2115 -0.1272
 7494SOL    HW229748   2.497   0.061   2.446 -1.8659 -0.7156  3.2064
 7494SOL    HW329749   2.595  -0.045   2.491  0.2725  0.0048  0.5515
 7494SOL    MW429750   2.578   0.037   2.467  0.0526  0.5702 -0.4696
 7495SOL     OW29751   3.270   0.992   4.497 -0.7057  0.0047 -0.1006
 7495SOL    HW229752   3.230   0.960   4.416  0.3876  1.0565 -1.0887
 7495SOL    HW329753   3.352   1.032   4.470  0.0869 -0.3242  1.6411
 7495SOL    MW429754   3.276   0.993   4.483  0.3789 -0.3209  0.0280
 7496SOL     OW29755   3.568   1.954   1.501  0.0672  0.1787 -0.2351
 7496SOL    HW229756   3.620   2.033   1.488  0.8757 -0.1352  0.9326
 7496SOL    HW329757   3.477   1.983   1.494  0.3554  1.1853  0.0398
 7496SOL    MW429758   3.563   1.968   1.498  0.2322  0.1568 -1.0267
 7497SOL     OW29759   0.852   6.327   0.248  0.5040 -0.6066  0.4055
 7497SOL    HW229760   0.838   6.391   0.317  1.2648 -0.9556  0.8855
 7497SOL    HW329761   0.911   6.370   0.186  0.4396 -0.5821  0.3606
 7497SOL    MW429762   0.858   6.341   0.249 -0.0712 -0.4020  0.0706
 7498SOL     OW29763   5.156   4.281   0.787 -0.2802 -0.5095  0.4129
 7498SOL    HW229764   5.070   4.322   0.775  0.3984  0.7180 -0.3885
 7498SOL    HW329765   5.216   4.335   0.736  0.9536 -1.4577  0.8155
 7498SOL    MW429766   5.152   4.293   0.779 -0.3123  0.0180 -0.0877
 7499SOL     OW29767   6.405   3.904   4.374  0.3983  0.6501  0.5379
 7499SOL    HW229768   6.400   3.911   4.279 -2.3327  1.0252  0.6343
 7499SOL    HW329769   6.446   3.986   4.401  0.5962  0.8291 -0.2720
 7499SOL    MW429770   6.410   3.916   4.365 -0.7010 -1.1765 -0.3642
 7500SOL     OW29771   0.347   3.776   4.518 -0.0407 -0.4542  0.2719
 7500SOL    HW229772   0.402   3.698   4.509  0.4542 -0.1603  0.6604
 7500SOL    HW329773   0.350   3.797   4.611  0.6073  0.5701  0.0402
 7500SOL    MW429774   0.355   3.768   4.529  0.0666 -0.7702 -0.8026
 7501SOL     OW29775   1.520   4.597   1.349  0.4614 -0.5398  0.1787
 7501SOL    HW229776   1.434   4.608   1.391  1.2293  0.4403  1.5561
 7501SOL    HW329777   1.569   4.542   1.410  0.5952 -1.7430 -0.9659
 7501SOL    MW429778   1.515   4.591   1.363  0.6347 -0.2794  0.5635
 7502SOL     OW29779   2.650   4.755   6.221  0.3513 -0.3140 -0.5104
 7502SOL    HW229780   2.574   4.789   6.174  0.6946  0.5206 -0.4781
 7502SOL    HW329781   2.722   4.760   6.158  0.7392  0.4940 -0.0184
 7502SOL    MW429782   2.649   4.760   6.207  0.2966 -0.8036 -0.3500
 7503SOL     OW29783   1.251   5.412   2.088  0.0901  0.3038  0.0426
 7503SOL    HW229784   1.220   5.435   2.000 -0.9748 -0.0971  0.3077
 7503SOL    HW329785   1.251   5.495   2.136 -0.2091  0.3700 -0.0681
 7503SOL    MW429786   1.247   5.426   2.082  0.4831 -0.0601 -0.4128
 7504SOL     OW29787   3.506   0.215   2.581 -0.3565  0.7911 -0.3791
 7504SOL    HW229788   3.537   0.213   2.671 -0.3597  0.0533 -0.3851
 7504SOL    HW329789   3.568   0.160   2.533  0.2428  2.0034 -1.0317
 7504SOL    MW429790   3.518   0.207   2.586  0.2410 -0.8124  0.4575
 7505SOL     OW29791   3.379   4.593   5.830 -0.9127  0.2417 -0.2304
 7505SOL    HW229792   3.365   4.507   5.870  0.1002  0.0679 -0.2138
 7505SOL    HW329793   3.460   4.625   5.871 -1.4201  1.3133 -0.0528
 7505SOL    MW429794   3.388   4.586   5.840 -0.3247  0.3495  0.2018
 7506SOL     OW29795   6.398   1.576   2.583  0.3102 -0.0294 -0.1271
 7506SOL    HW229796   6.471   1.523   2.552  0.2322  0.9307 -2.0893
 7506SOL    HW329797   6.438   1.651   2.627  0.5585  0.8451 -1.7959
 7506SOL    MW429798   6.413   1.579   2.585  0.1867 -0.6456 -0.7348
 7507SOL     OW29799   1.219   4.296   4.978 -0.1350  0.3484  0.7523
 7507SOL    HW229800   1.263   4.378   5.001  2.0611 -0.6862  0.5038
 7507SOL    HW329801   1.240   4.237   5.051 -0.0846 -0.5206  0.0502
 7507SOL    MW429802   1.228   4.299   4.991 -0.7483 -0.1832 -0.1543
 7508SOL     OW29803   2.892   6.168   4.083 -0.1134 -0.0897 -0.1610
 7508SOL    HW229804   2.851   6.110   4.019 -2.1331  0.3803  0.6329
 7508SOL    HW329805   2.971   6.121   4.111 -0.0717 -1.0413 -1.7551
 7508SOL    MW429806   2.897   6.154   4.078  0.1595 -0.0520  0.3645
 7509SOL     OW29807   4.718   5.137   6.228 -0.2317  0.3238  0.0893
 7509SOL    HW229808   4.672   5.110   6.149  0.4474 -2.3985  0.5244
 7509SOL    HW329809   4.681   5.222   6.249 -3.2853 -0.6214 -0.9312
 7509SOL    MW429810   4.707   5.145   6.220 -0.2016 -0.2032  0.3287
 7510SOL     OW29811   2.476   4.771   4.649  0.7073  0.0842  0.5826
 7510SOL    HW229812   2.460   4.746   4.557 -0.0611  0.2620  0.6601
 7510SOL    HW329813   2.516   4.693   4.688  1.6944  0.2505 -0.0708
 7510SOL    MW429814   2.479   4.757   4.642  0.8034 -0.1451  0.1681
 7511SOL     OW29815   3.162   4.249   1.400 -0.1517  0.0979  0.7131
 7511SOL    HW229816   3.085   4.302   1.380 -0.7859 -1.3376 -0.9075
 7511SOL    HW329817   3.164   4.243   1.495 -2.8451 -0.9410  0.7780
 7511SOL    MW429818   3.152   4.255   1.410  0.0666  0.1947  0.5994
 7512SOL     OW29819   1.330   3.597   5.981  0.0149  0.3893 -0.0227
 7512SOL    HW229820   1.420   3.575   6.005 -0.6614 -1.5720  0.9290
 7512SOL    HW329821   1.326   3.692   5.989  1.6511  0.4040  1.1442
 7512SOL    MW429822   1.342   3.607   5.985  0.5722 -0.4376 -0.5086
 7513SOL     OW29823   2.404   0.521   1.803  0.1484 -0.1873  0.2087
 7513SOL    HW229824   2.373   0.597   1.754  1.7320 -0.8137 -1.9216
 7513SOL    HW329825   2.454   0.470   1.740  1.3994 -1.6543  2.2379
 7513SOL    MW429826   2.406   0.524   1.789 -0.6519 -0.0947  0.7847
 7514SOL     OW29827   5.609   0.954   2.260  0.1747  0.2556  0.2879
 7514SOL    HW229828   5.527   0.964   2.309  0.6779  0.0542  1.1845
 7514SOL    HW329829   5.581   0.919   2.175 -0.5875 -0.8281  0.9524
 7514SOL    MW429830   5.594   0.951   2.255 -0.0321  0.3685  0.5092
 7515SOL     OW29831   4.238   0.075   1.924 -0.1984  0.3555  0.6690
 7515SOL    HW229832   4.211   0.130   1.851 -3.0462 -1.8076 -0.1070
 7515SOL    HW329833   4.274  -0.003   1.883 -2.0184 -0.9855  1.4491
 7515SOL    MW429834   4.239   0.072   1.909  0.3415 -0.3150 -0.7643
 7516SOL     OW29835   1.761   1.320   0.313 -0.0680 -0.1893  0.1104
 7516SOL    HW229836   1.781   1.413   0.298 -2.0320  0.2217 -0.1916
 7516SOL    HW329837   1.847   1.278   0.320  0.8802  1.3298 -1.6343
 7516SOL    MW429838   1.775   1.327   0.312 -0.8586  0.2141 -0.0475
 7517SOL     OW29839   1.125   4.764   6.240  0.1106  0.1031 -0.3771
 7517SOL    HW229840   1.201   4.813   6.272  1.1090 -1.2554 -0.5666
 7517SOL    HW329841   1.122   4.686   6.296  0.2432 -0.9644 -1.8053
 7517SOL    MW429842   1.135   4.760   6.252  0.1777 -0.2291  0.5824
 7518SOL     OW29843   0.243   2.295   2.303  0.0852 -0.3962  0.2536
 7518SOL    HW229844   0.256   2.315   2.396  2.3133  0.1321 -0.1032
 7518SOL    HW329845   0.284   2.369   2.257 -1.3417 -0.4397 -1.1745
 7518SOL    MW429846   0.250   2.308   2.309 -0.3005  0.4938  0.1116
 7519SOL     OW29847   5.903   6.122   3.163 -0.1344  0.2405 -0.2445
 7519SOL    HW229848   5.826   6.120   3.107  1.4284  0.3298 -2.5325
 7519SOL    HW329849   5.874   6.167   3.242 -1.8101  2.5157 -2.0265
 7519SOL    MW429850   5.889   6.128   3.166 -1.2871 -0.5888 -0.4860
 7520SOL     OW29851   3.010   5.475   2.107  0.3886  0.3393  0.1955
 7520SOL    HW229852   3.035   5.436   2.191  0.2778 -0.7695 -0.2734
 7520SOL    HW329853   2.958   5.552   2.132 -1.3190 -1.0374  1.1820
 7520SOL    MW429854   3.006   5.480   2.122  0.4180 -0.0802  0.2779
 7521SOL     OW29855   3.339   5.319   6.232 -0.6150  0.2508 -0.0101
 7521SOL    HW229856   3.324   5.343   6.141  0.6950 -0.7498 -0.5135
 7521SOL    HW329857   3.281   5.245   6.248  0.7490 -1.0349 -0.7489
 7521SOL    MW429858   3.329   5.313   6.222 -0.2237 -0.4846  0.6447
 7522SOL     OW29859   2.481   0.266   4.036  0.1913 -0.0920 -0.3030
 7522SOL    HW229860   2.432   0.219   3.969  0.5558 -0.6120 -0.2042
 7522SOL    HW329861   2.413   0.307   4.091 -0.1920  3.3317 -2.9887
 7522SOL    MW429862   2.465   0.265   4.035  0.0293 -0.4301 -0.5397
 7523SOL     OW29863   3.387   0.373   5.534 -0.1338 -0.3687 -0.5656
 7523SOL    HW229864   3.340   0.413   5.607  2.2432 -2.2060  2.2463
 7523SOL    HW329865   3.425   0.447   5.486 -0.3118  0.9054  1.1676
 7523SOL    MW429866   3.386   0.388   5.538 -0.1767  0.2580  0.1518
 7524SOL     OW29867   3.044   6.193   4.893  0.0864  0.1859  0.4217
 7524SOL    HW229868   3.080   6.113   4.932 -0.8422  0.6185  2.2824
 7524SOL    HW329869   2.995   6.162   4.816 -0.5857 -1.0981  1.3223
 7524SOL    MW429870   3.042   6.178   4.888 -0.8700  0.9166  0.2983
 7525SOL     OW29871   3.646   4.639   5.924 -0.3030 -0.1847  0.5498
 7525SOL    HW229872   3.678   4.690   5.849 -0.0716 -1.0996  0.0150
 7525SOL    HW329873   3.669   4.692   6.000 -1.1480  1.0981 -0.0491
 7525SOL    MW429874   3.653   4.653   5.924 -0.2035 -0.5463 -0.5592
 7526SOL     OW29875   5.839   1.753   3.125  0.9509 -0.4550  0.1384
 7526SOL    HW229876   5.850   1.733   3.217  0.2203  0.1103  0.3587
 7526SOL    HW329877   5.764   1.701   3.097  1.8522 -1.4895 -0.4306
 7526SOL    MW429878   5.831   1.744   3.133 -0.0384  0.3885  0.1327
 7527SOL     OW29879   3.198   3.981   1.337 -0.0828  0.1084 -0.4342
 7527SOL    HW229880   3.216   3.972   1.243 -0.4902  0.9118 -0.5956
 7527SOL    HW329881   3.192   4.075   1.352 -1.7828 -0.0367  0.0519
 7527SOL    MW429882   3.200   3.992   1.326 -0.1732 -0.1254  0.2878
 7528SOL     OW29883   1.641   3.279   1.994  0.7292  0.3609 -0.0116
 7528SOL    HW229884   1.725   3.318   1.972  0.3039  2.5797  1.8625
 7528SOL    HW329885   1.576   3.345   1.969 -0.2900 -0.3510  0.6486
 7528SOL    MW429886   1.643   3.293   1.988  0.0786 -0.1049  0.0408
 7529SOL     OW29887   4.216   4.440   3.605  0.0395 -0.0620 -0.2364
 7529SOL    HW229888   4.232   4.451   3.511  0.0580 -1.3762 -0.4088
 7529SOL    HW329889   4.122   4.454   3.615  0.1798  1.0004 -0.2896
 7529SOL    MW429890   4.205   4.443   3.594 -0.1270  0.3264  0.5749
 7530SOL     OW29891   3.353   4.461   0.303 -0.1523  0.6001  0.2946
 7530SOL    HW229892   3.391   4.398   0.364 -0.0765  0.2908 -0.0646
 7530SOL    HW329893   3.276   4.496   0.349 -0.8321 -0.5606  0.0876
 7530SOL    MW429894   3.348   4.457   0.317 -0.6001 -0.2564  0.8207
 7531SOL     OW29895   0.160   2.702   2.129  0.1030  0.4178 -0.1557
 7531SOL    HW229896   0.232   2.643   2.108  1.0270  1.2392  0.6071
 7531SOL    HW329897   0.132   2.738   2.044 -1.8200 -2.5168 -0.9338
 7531SOL    MW429898   0.166   2.699   2.115 -0.8841 -0.6048 -0.0086
 7532SOL     OW29899   5.201   0.093   3.597 -0.0573  0.2951  0.5048
 7532SOL    HW229900   5.193   0.176   3.644  0.1262  1.2584 -1.0886
 7532SOL    HW329901   5.257   0.113   3.522  0.1586 -1.3308  0.1961
 7532SOL    MW429902   5.207   0.107   3.593 -0.2512 -0.0613 -0.2543
 7533SOL     OW29903   6.118   1.878   4.215  0.7777  0.0412  0.2879
 7533SOL    HW229904   6.212   1.891   4.229  0.6217  1.1500  0.4139
 7533SOL    HW329905   6.076   1.944   4.270  0.0098  1.3836 -1.7633
 7533SOL    MW429906   6.125   1.889   4.224  0.2337  0.5236  0.3662
 7534SOL     OW29907   0.434   1.216   0.214  0.3404  0.3582  0.5704
 7534SOL    HW229908   0.513   1.228   0.161  0.7733 -0.3943  1.0327
 7534SOL    HW329909   0.466   1.209   0.304 -0.3301  0.8856  0.8638
 7534SOL    MW429910   0.449   1.217   0.219  0.1204 -0.0726  0.1091
 7535SOL     OW29911   1.009   1.050   5.197  0.4730 -0.9899  0.2047
 7535SOL    HW229912   1.098   1.081   5.180  0.4607 -1.7345 -1.4593
 7535SOL    HW329913   0.974   1.111   5.262  1.6626  0.2699 -0.2863
 7535SOL    MW429914   1.016   1.062   5.203 -0.2671  0.3636  0.1188
 7536SOL     OW29915   3.469   4.219   0.421  0.0592 -0.3329 -0.6002
 7536SOL    HW229916   3.557   4.185   0.439 -0.6645 -0.9290  2.3022
 7536SOL    HW329917   3.423   4.211   0.504 -2.7034  0.2001 -1.9741
 7536SOL    MW429918   3.475   4.214   0.434 -0.3463 -0.1433  0.0017
 7537SOL     OW29919   0.516   2.614   4.319  0.6920  0.2129  0.0306
 7537SOL    HW229920   0.438   2.620   4.375  0.5538 -2.6882  0.2709
 7537SOL    HW329921   0.484   2.637   4.231 -0.9088 -2.3988 -0.1745
 7537SOL    MW429922   0.501   2.618   4.315 -0.6874 -0.0994 -0.0930
 7538SOL     OW29923   0.880   6.351   5.611 -0.3453 -0.3264  0.1636
 7538SOL    HW229924   0.865   6.438   5.647  0.1570  0.7397 -2.0073
 7538SOL    HW329925   0.900   6.296   5.687  0.5119  1.7052  1.4895
 7538SOL    MW429926   0.881   6.355   5.626 -0.5520 -0.5906 -0.3006
 7539SOL     OW29927   4.519   5.404   0.004  0.2430 -0.1645 -0.2178
 7539SOL    HW229928   4.550   5.426  -0.084  0.2933  1.1788  0.1148
 7539SOL    HW329929   4.596   5.415   0.060 -0.2671  0.9461  0.2795
 7539SOL    MW429930   4.533   5.408   0.000  0.4373 -0.0714 -0.4609
 7540SOL     OW29931   3.126   1.675   2.979 -0.3689  0.2948 -0.2540
 7540SOL    HW229932   3.176   1.735   2.924 -0.7588  1.3826  0.5529
 7540SOL    HW329933   3.077   1.621   2.917  1.8104 -0.8548 -1.0799
 7540SOL    MW429934   3.126   1.676   2.964 -0.2656 -0.1237  0.4576
 7541SOL     OW29935   0.127   4.175   3.622  0.4498  0.0555 -0.1948
 7541SOL    HW229936   0.062   4.244   3.615 -0.5070 -0.9686 -1.9177
 7541SOL    HW329937   0.180   4.183   3.543  1.3039 -0.2300  0.3324
 7541SOL    MW429938   0.126   4.185   3.611  0.4133 -0.2292  0.9617
 7542SOL     OW29939   1.082   4.845   4.654 -0.3070 -0.5573 -0.5759
 7542SOL    HW229940   1.120   4.757   4.659  1.7137  0.3059  2.2346
 7542SOL    HW329941   1.050   4.853   4.564  0.2309 -3.8076 -1.1810
 7542SOL    MW429942   1.083   4.834   4.643  0.3067 -0.0315  0.2079
 7543SOL     OW29943   5.784   2.544   6.168 -0.2756 -0.2688 -0.0086
 7543SOL    HW229944   5.830   2.498   6.098  0.2337 -0.4298  0.4283
 7543SOL    HW329945   5.797   2.637   6.149  0.5466 -0.3152  0.3199
 7543SOL    MW429946   5.792   2.550   6.156  1.2651  0.3340  0.5311
 7544SOL     OW29947   1.426   6.256   5.907  0.2263  0.1266  0.6645
 7544SOL    HW229948   1.374   6.184   5.944  1.1678 -0.1115  1.5827
 7544SOL    HW329949   1.506   6.214   5.876  0.6554  0.7282  0.9390
 7544SOL    MW429950   1.429   6.241   5.908 -0.2795 -0.6809  0.0372
 7545SOL     OW29951   2.504   6.182   0.186 -0.4123 -0.4208 -0.6498
 7545SOL    HW229952   2.471   6.143   0.267 -0.6592 -2.0237 -1.4843
 7545SOL    HW329953   2.563   6.116   0.151  1.3140  1.1199 -0.7555
 7545SOL    MW429954   2.507   6.168   0.192  0.0958  0.4296 -0.1517
 7546SOL     OW29955   3.306   0.728   5.635  0.1435  0.0551 -0.0822
 7546SOL    HW229956   3.270   0.640   5.651  1.1070 -0.4106 -0.4580
 7546SOL    HW329957   3.359   0.746   5.713 -0.2846  0.4330  0.1275
 7546SOL    MW429958   3.308   0.719   5.648  0.2114 -0.3839  0.2114
 7547SOL     OW29959   3.913   6.283   4.261  0.1725 -0.8812 -0.0435
 7547SOL    HW229960   3.901   6.336   4.339 -0.5564  0.6194 -1.1342
 7547SOL    HW329961   3.981   6.220   4.286  0.3347 -0.1123  1.6189
 7547SOL    MW429962   3.920   6.281   4.275 -0.2025  0.3889 -0.2856
 7548SOL     OW29963   3.422   5.140   4.909  0.3374 -0.4765  0.9001
 7548SOL    HW229964   3.418   5.044   4.904  1.6845 -0.5861  1.3676
 7548SOL    HW329965   3.428   5.168   4.817  0.5978 -0.8970  0.7834
 7548SOL    MW429966   3.422   5.131   4.896  0.1948  0.4136  0.3341
 7549SOL     OW29967   3.660   5.748   3.929  0.3295  0.1469 -0.0653
 7549SOL    HW229968   3.575   5.762   3.969 -0.6637 -2.2201 -1.1534
 7549SOL    HW329969   3.641   5.733   3.836  1.6883 -2.1986 -0.0428
 7549SOL    MW429970   3.646   5.748   3.922  0.5758  0.0814  0.0374
 7550SOL     OW29971   1.636   5.952   4.093 -0.4954 -0.0702 -0.7108
 7550SOL    HW229972   1.668   6.032   4.051  0.3450 -0.9219 -1.7625
 7550SOL    HW329973   1.715   5.907   4.123 -0.8540 -1.0807 -1.2262
 7550SOL    MW429974   1.651   5.957   4.092 -0.2645 -0.1911 -0.8078
 7551SOL     OW29975   0.086   2.949   0.225  0.2841  0.3685  0.2854
 7551SOL    HW229976   0.113   2.987   0.141 -1.3653 -1.4750 -1.1839
 7551SOL    HW329977   0.022   3.011   0.260 -1.2148 -0.2051 -1.3052
 7551SOL    MW429978   0.081   2.962   0.218  0.1344 -0.2158  0.5289
 7552SOL     OW29979   5.502   6.077   0.333  0.0030 -0.0509  0.5963
 7552SOL    HW229980   5.478   6.077   0.240  0.7799  0.2383  0.3895
 7552SOL    HW329981   5.505   6.169   0.358  1.2723 -0.0496  0.5049
 7552SOL    MW429982   5.499   6.089   0.324 -0.1858  0.1011 -0.3297
 7553SOL     OW29983   2.075   6.083   5.722 -0.3316 -0.0213 -0.3236
 7553SOL    HW229984   2.166   6.054   5.728 -0.2215  0.3981  0.0348
 7553SOL    HW329985   2.025   6.014   5.766  0.0133  0.7077  1.3017
 7553SOL    MW429986   2.080   6.070   5.729 -0.0918  0.0046  0.1627
 7554SOL     OW29987   5.164   3.585   6.187 -0.0478  0.0018  0.4421
 7554SOL    HW229988   5.183   3.639   6.264  0.4628 -0.9224  0.9798
 7554SOL    HW329989   5.114   3.512   6.221  0.2406 -0.4513 -0.0960
 7554SOL    MW429990   5.160   3.583   6.202  0.4192 -0.1353  0.1356
 7555SOL     OW29991   2.224   0.336   4.190 -0.2388 -0.2085 -0.4355
 7555SOL    HW229992   2.169   0.414   4.194  0.4005  0.2629 -0.6146
 7555SOL    HW329993   2.163   0.263   4.178 -0.8005  0.3276 -0.8588
 7555SOL    MW429994   2.209   0.336   4.189 -0.2485 -0.6935  0.1022
 7556SOL     OW29995   3.684   1.501   0.133  0.0285  0.0644  0.3884
 7556SOL    HW229996   3.589   1.500   0.151  0.2588  0.2858  1.7177
 7556SOL    HW329997   3.690   1.497   0.037 -1.3375  0.6610  0.2499
 7556SOL    MW429998   3.672   1.500   0.123  0.3450  0.6328 -0.0746
 7557SOL     OW29999   2.402   4.942   4.082 -0.7941 -0.5321  0.1432
 7557SOL    HW230000   2.355   4.885   4.021 -0.8158 -1.9245  1.4051
 7557SOL    HW330001   2.480   4.892   4.105  0.2048  0.8200 -0.2263
 7557SOL    MW430002   2.406   4.928   4.077 -0.0686 -0.0286  0.1416
 7558SOL     OW30003   0.544   2.266   2.879 -0.0757 -0.2566  0.4481
 7558SOL    HW230004   0.519   2.190   2.826  0.0595 -0.1389  0.2113
 7558SOL    HW330005   0.472   2.328   2.866 -0.4821 -0.5804  1.1301
 7558SOL    MW430006   0.531   2.265   2.870  0.4238  0.7168 -0.0490
 7559SOL     OW30007   0.850   0.302   1.684 -0.6394 -0.3256 -0.1927
 7559SOL    HW230008   0.844   0.222   1.737 -0.5928 -0.6285 -0.6345
 7559SOL    HW330009   0.899   0.275   1.606  1.7073  0.7431  0.8264
 7559SOL    MW430010   0.856   0.288   1.681 -0.2949  0.1455 -0.6447
 7560SOL     OW30011   4.820   4.199   2.175  0.2877  0.4130 -0.7196
 7560SOL    HW230012   4.793   4.126   2.120 -1.6893  0.9131 -0.4792
 7560SOL    HW330013   4.882   4.160   2.238  0.5998 -0.6665 -1.6594
 7560SOL    MW430014   4.825   4.184   2.176  0.2118  0.2267 -0.8750
 7561SOL     OW30015   4.896   3.545   3.536  0.2064  0.3611  0.0701
 7561SOL    HW230016   4.960   3.477   3.515  1.8888  1.9971 -0.3689
 7561SOL    HW330017   4.891   3.546   3.632 -0.2167 -0.6881  0.0664
 7561SOL    MW430018   4.903   3.536   3.546 -0.6337  0.5173  0.0285
 7562SOL     OW30019   3.300   3.340   5.606 -0.1476 -0.2267  0.5561
 7562SOL    HW230020   3.330   3.429   5.627 -0.0679 -0.2866  0.6999
 7562SOL    HW330021   3.214   3.352   5.567 -0.4668 -0.1390  1.2742
 7562SOL    MW430022   3.293   3.354   5.604 -0.2666 -0.1530  0.1850
 7563SOL     OW30023   0.257   0.211   1.452  0.7145  0.2435  0.5138
 7563SOL    HW230024   0.270   0.292   1.501  2.8872 -0.0054  0.4741
 7563SOL    HW330025   0.164   0.210   1.431  0.8300  3.5126 -0.8384
 7563SOL    MW430026   0.247   0.222   1.456 -0.4754  0.0024  0.0536
 7564SOL     OW30027   2.120   5.119   0.886  0.3951 -0.0512 -0.1360
 7564SOL    HW230028   2.197   5.173   0.870  0.8685 -0.5138  0.5077
 7564SOL    HW330029   2.051   5.182   0.908  1.0018  0.2960  0.8545
 7564SOL    MW430030   2.121   5.134   0.887  0.1781  0.6905  0.0438
 7565SOL     OW30031   1.681   0.695   3.775 -0.1613  0.6498 -0.2138
 7565SOL    HW230032   1.731   0.751   3.835  2.0853 -1.1428 -0.2754
 7565SOL    HW330033   1.728   0.704   3.692 -0.9679  0.1845 -0.7227
 7565SOL    MW430034   1.694   0.704   3.772 -0.0906 -0.4101  0.4863
 7566SOL     OW30035   4.577   0.748   5.507  0.3461 -0.3030  0.8511
 7566SOL    HW230036   4.523   0.709   5.439  0.4491  0.7982  0.1162
 7566SOL    HW330037   4.527   0.736   5.588  0.0663 -1.3095  0.5402
 7566SOL    MW430038   4.563   0.741   5.509 -0.1529  0.1098  0.9414
 7567SOL     OW30039   5.339   0.504   4.836 -0.4108  0.1014  0.3232
 7567SOL    HW230040   5.252   0.474   4.810 -0.2074 -0.8601  0.7371
 7567SOL    HW330041   5.400   0.459   4.777 -0.1847  0.7539  0.0474
 7567SOL    MW430042   5.336   0.494   4.824 -0.0054  0.1888  0.2584
 7568SOL     OW30043   2.428   2.858   4.010  0.1886  0.0935  0.2255
 7568SOL    HW230044   2.489   2.903   3.950 -1.7307  0.3204 -1.6713
 7568SOL    HW330045   2.485   2.812   4.071  2.2864  0.3469 -1.4048
 7568SOL    MW430046   2.444   2.858   4.010  0.8026 -0.0956  0.4696
 7569SOL     OW30047   6.175   2.036   6.150  0.1988 -0.6970 -0.5327
 7569SOL    HW230048   6.144   2.126   6.158 -1.6036 -1.3053 -0.0521
 7569SOL    HW330049   6.245   2.040   6.086 -0.0161  1.0037 -0.7085
 7569SOL    MW430050   6.180   2.048   6.143  0.2505  0.3479  0.3195
 7570SOL     OW30051   0.955   2.779   0.993 -0.0676 -0.6019 -0.0880
 7570SOL    HW230052   0.970   2.688   1.018  0.6916 -0.8841 -1.4972
 7570SOL    HW330053   0.864   2.795   1.018  0.3250 -1.1572  1.8453
 7570SOL    MW430054   0.945   2.769   1.000  0.0475 -0.0366  0.0293
 7571SOL     OW30055   1.610   5.808   2.501 -0.0591 -0.0891 -0.2142
 7571SOL    HW230056   1.676   5.849   2.557 -0.3251  0.8076 -0.5305
 7571SOL    HW330057   1.621   5.851   2.416 -0.4866 -0.5411 -0.5020
 7571SOL    MW430058   1.620   5.819   2.497 -0.3923  0.2278 -0.6514
 7572SOL     OW30059   5.977   4.008   2.394  0.0316 -0.5054 -0.1291
 7572SOL    HW230060   5.923   3.930   2.405 -1.3550  0.3794 -0.5330
 7572SOL    HW330061   5.948   4.046   2.312 -0.6036  1.4163  0.9291
 7572SOL    MW430062   5.966   4.003   2.385 -0.0843  0.2788  0.0685
 7573SOL     OW30063   5.155   4.200   5.596 -0.0122  0.0174 -0.4060
 7573SOL    HW230064   5.131   4.281   5.551 -0.8140 -0.3631 -0.6887
 7573SOL    HW330065   5.248   4.188   5.576 -0.1271  0.3561 -1.1862
 7573SOL    MW430066   5.164   4.209   5.587 -0.2640 -0.3975 -0.3937
 7574SOL     OW30067   2.658   4.822   2.450 -0.0617  0.0462 -0.3026
 7574SOL    HW230068   2.698   4.907   2.469  2.8914 -1.0729 -0.9601
 7574SOL    HW330069   2.703   4.761   2.509  0.4478 -1.5477 -2.2488
 7574SOL    MW430070   2.670   4.825   2.460  0.2339 -0.4853  0.1937
 7575SOL     OW30071   1.454   3.730   3.970 -0.2458 -0.3225 -0.0018
 7575SOL    HW230072   1.420   3.641   3.981  1.7909 -1.0260  1.1932
 7575SOL    HW330073   1.426   3.777   4.048  0.4843 -0.5785  0.4308
 7575SOL    MW430074   1.446   3.724   3.982  0.0833  0.2696  0.0949
 7576SOL     OW30075   3.925   2.521   4.459  0.3226  0.0230  0.2829
 7576SOL    HW230076   3.894   2.586   4.396  0.8921 -0.5891 -0.6588
 7576SOL    HW330077   3.858   2.452   4.458  0.6877 -0.3270 -0.2004
 7576SOL    MW430078   3.912   2.521   4.451 -0.5288 -0.0051  0.1413
 7577SOL     OW30079   6.278   1.710   6.364 -0.6745  0.5427  0.1918
 7577SOL    HW230080   6.183   1.699   6.371 -0.7120 -0.2169 -1.1964
 7577SOL    HW330081   6.313   1.663   6.440 -1.2878 -2.0722 -1.0339
 7577SOL    MW430082   6.270   1.702   6.375 -0.1913  0.2466 -0.0713
 7578SOL     OW30083   0.393   3.091   3.860  0.2188 -0.4939 -0.6323
 7578SOL    HW230084   0.404   3.182   3.886  2.4462 -0.6076 -1.0408
 7578SOL    HW330085   0.445   3.040   3.922  0.9869 -1.2569 -1.8635
 7578SOL    MW430086   0.401   3.096   3.871  0.3517 -0.6405  0.1652
 7579SOL     OW30087   1.468   0.927   4.802 -0.4939  0.0658  0.2145
 7579SOL    HW230088   1.528   0.855   4.781 -0.8055 -0.6210  1.5434
 7579SOL    HW330089   1.512   0.976   4.871  0.5690  2.3434 -1.9331
 7579SOL    MW430090   1.482   0.924   4.809 -0.7365  0.0813  0.1308
 7580SOL     OW30091   3.022   4.726   0.899 -0.3105  0.2596 -1.1209
 7580SOL    HW230092   3.101   4.686   0.862  0.7493 -0.7706  1.9808
 7580SOL    HW330093   2.957   4.657   0.896  0.5967 -0.7830  1.3393
 7580SOL    MW430094   3.024   4.712   0.894  0.0032 -0.1425 -0.1107
 7581SOL     OW30095   0.767   2.133   2.308  0.3671  0.5123 -0.4562
 7581SOL    HW230096   0.840   2.159   2.252 -0.2966 -0.1799 -1.6951
 7581SOL    HW330097   0.733   2.053   2.268  0.1831 -0.3233  1.2487
 7581SOL    MW430098   0.772   2.126   2.296 -0.3224 -0.0543 -0.3745
 7582SOL     OW30099   5.380   5.129   1.346  0.4917  0.6071  0.1419
 7582SOL    HW230100   5.344   5.116   1.434  0.8339 -0.0285  0.1958
 7582SOL    HW330101   5.348   5.053   1.296  1.4219  0.2409  0.0866
 7582SOL    MW430102   5.371   5.117   1.351 -0.1497  0.2752 -0.6727
 7583SOL     OW30103   4.884   2.697   3.490 -0.3635 -0.1658 -0.0211
 7583SOL    HW230104   4.790   2.695   3.474 -0.0310 -1.0151 -2.2944
 7583SOL    HW330105   4.909   2.788   3.475 -0.7357 -0.0355  0.1302
 7583SOL    MW430106   4.875   2.709   3.486  0.8748 -0.1198  0.5209
 7584SOL     OW30107   2.685   5.561   3.252  0.2610  0.3537  0.5065
 7584SOL    HW230108   2.609   5.610   3.286  1.0595  1.2071  1.1302
 7584SOL    HW330109   2.708   5.501   3.323 -0.3022 -0.4779  0.0033
 7584SOL    MW430110   2.678   5.560   3.266 -0.4420 -0.0880  0.5297
 7585SOL     OW30111   1.314   3.211   4.268  0.6006 -0.0030  0.0159
 7585SOL    HW230112   1.354   3.173   4.346  1.1868  0.9637  0.2171
 7585SOL    HW330113   1.269   3.289   4.300  1.3066  0.7044 -0.6722
 7585SOL    MW430114   1.314   3.217   4.282 -0.0000  0.4277  1.0605
 7586SOL     OW30115   5.304   4.074   4.920 -0.2324 -0.0117  0.2916
 7586SOL    HW230116   5.290   3.993   4.871  2.0891  0.4354 -1.2760
 7586SOL    HW330117   5.261   4.142   4.869 -1.9571 -0.1576  1.4728
 7586SOL    MW430118   5.296   4.072   4.907 -0.3339  0.1958 -0.0115
 7587SOL     OW30119   3.693   0.723   4.924 -0.2359 -0.2598  0.0405
 7587SOL    HW230120   3.716   0.780   4.997  0.2797 -0.6752  0.2047
 7587SOL    HW330121   3.771   0.721   4.869 -0.3874 -0.4946 -0.1691
 7587SOL    MW430122   3.706   0.730   4.927 -0.5490  0.2842  0.3460
 7588SOL     OW30123   3.824   1.304   5.320  0.0764 -0.1296  0.6934
 7588SOL    HW230124   3.906   1.293   5.271 -0.3674 -0.2377 -0.0528
 7588SOL    HW330125   3.787   1.386   5.286 -1.1137 -1.1107 -0.4967
 7588SOL    MW430126   3.830   1.314   5.309 -0.0774  0.3216 -0.4696
 7589SOL     OW30127   3.783   6.112   5.450 -0.3156  0.1490 -0.1363
 7589SOL    HW230128   3.757   6.164   5.374  0.1377  1.9236  0.8671
 7589SOL    HW330129   3.700   6.088   5.491 -0.5343  0.4615 -0.3807
 7589SOL    MW430130   3.769   6.116   5.445 -0.0256 -0.2086 -0.4097
 7590SOL     OW30131   1.043   4.321   0.878  0.7396 -0.0203 -0.3186
 7590SOL    HW230132   0.950   4.344   0.879  1.3065  2.8668  2.5514
 7590SOL    HW330133   1.075   4.357   0.795 -0.5215 -0.2836 -0.9480
 7590SOL    MW430134   1.035   4.329   0.867 -0.1464  0.4630  0.3976
 7591SOL     OW30135   4.841   2.133   0.724  0.2135  0.4661 -0.3101
 7591SOL    HW230136   4.905   2.174   0.666  0.8060 -2.4403 -1.8964
 7591SOL    HW330137   4.861   2.169   0.810 -0.9221  5.2674 -1.7194
 7591SOL    MW430138   4.852   2.143   0.728  0.7939  0.0476 -0.4315
 7592SOL     OW30139   3.371   5.074   3.081  0.5037 -0.4083 -0.5209
 7592SOL    HW230140   3.394   5.153   3.131  0.9863  0.0645 -1.4678
 7592SOL    HW330141   3.347   5.010   3.148  2.9263 -0.3877  0.4529
 7592SOL    MW430142   3.371   5.076   3.097 -0.0744  0.4170  0.3736
 7593SOL     OW30143   0.674   2.715   3.583 -0.7178  0.1629 -0.0901
 7593SOL    HW230144   0.759   2.678   3.561 -1.6100 -0.8607 -2.0267
 7593SOL    HW330145   0.691   2.809   3.596  1.0893 -0.3689  2.1363
 7593SOL    MW430146   0.687   2.723   3.582  0.3967  0.0195 -0.4587
 7594SOL     OW30147   0.281   5.669   4.515  0.1594 -0.2342 -0.3509
 7594SOL    HW230148   0.355   5.623   4.474 -0.1837  0.1016 -1.3806
 7594SOL    HW330149   0.203   5.626   4.480 -0.1692  1.0734 -1.2969
 7594SOL    MW430150   0.281   5.657   4.505  0.7903 -0.2495 -0.2583
 7595SOL     OW30151   5.769   4.795   0.798 -0.4524 -0.7263  0.0337
 7595SOL    HW230152   5.832   4.772   0.729  0.2375 -1.2759  0.8163
 7595SOL    HW330153   5.777   4.723   0.862 -1.3308 -0.4094  0.5160
 7595SOL    MW430154   5.779   4.782   0.798  0.1736 -0.9349 -0.1841
 7596SOL     OW30155   5.223   0.173   5.885 -0.1324 -0.1850  0.0446
 7596SOL    HW230156   5.132   0.194   5.864 -1.0217 -1.4011  2.3079
 7596SOL    HW330157   5.246   0.234   5.954  1.0523  0.5449 -0.9533
 7596SOL    MW430158   5.214   0.183   5.891  0.3119  0.1531 -0.6161
 7597SOL     OW30159   3.056   1.505   0.057  0.0577  0.0224  0.4940
 7597SOL    HW230160   3.081   1.489  -0.034  1.0101  1.5034  0.4691
 7597SOL    HW330161   2.964   1.478   0.062 -0.8014  2.2789 -1.5871
 7597SOL    MW430162   3.047   1.499   0.046 -0.5202  0.5136  0.6015
 7598SOL     OW30163   1.335   5.814   2.214  0.1938  0.6548 -0.7251
 7598SOL    HW230164   1.370   5.748   2.274 -1.0511  0.4700 -0.1882
 7598SOL    HW330165   1.359   5.898   2.253  0.2994  0.5333 -0.5279
 7598SOL    MW430166   1.343   5.816   2.227  0.4785  0.1268 -0.2182
 7599SOL     OW30167   2.813   5.193   3.179 -0.0501 -0.2733  0.2673
 7599SOL    HW230168   2.893   5.149   3.151  1.6276  2.8506 -0.3088
 7599SOL    HW330169   2.818   5.279   3.138 -1.4444  1.7298  3.9133
 7599SOL    MW430170   2.824   5.198   3.170  0.0313  0.1112  0.7518
 7600SOL     OW30171   2.077   5.909   3.572  0.3925  0.6860 -0.4188
 7600SOL    HW230172   2.122   5.830   3.601  1.6069  1.0073 -1.3499
 7600SOL    HW330173   2.020   5.880   3.501 -1.3389  0.1891  1.0946
 7600SOL    MW430174   2.075   5.895   3.566  0.6227  0.4392  0.0345
 7601SOL     OW30175   0.832   0.498   2.748 -0.0970 -0.0511  0.2857
 7601SOL    HW230176   0.856   0.523   2.838  0.2290  1.1707 -0.1159
 7601SOL    HW330177   0.811   0.581   2.706  1.0298 -0.4562 -1.1483
 7601SOL    MW430178   0.833   0.513   2.755 -0.1011  0.1151  0.2156
 7602SOL     OW30179   5.755   4.046   5.813  0.1611 -0.0521 -0.0461
 7602SOL    HW230180   5.695   4.121   5.810  1.9169  1.4264 -0.3585
 7602SOL    HW330181   5.785   4.036   5.723 -0.9768 -2.0056 -0.2663
 7602SOL    MW430182   5.751   4.055   5.801 -0.1207  0.2124  0.1100
 7603SOL     OW30183   6.314   5.018   4.147 -0.2509  0.2752  0.1142
 7603SOL    HW230184   6.348   5.050   4.064 -0.1277  0.3354  0.1874
 7603SOL    HW330185   6.264   4.939   4.124  0.3404 -0.0856  0.0640
 7603SOL    MW430186   6.312   5.012   4.133 -0.0738  0.1659 -0.1526
 7604SOL     OW30187   6.375   0.975   0.943 -0.1051 -0.5955  0.1746
 7604SOL    HW230188   6.348   1.023   1.021 -1.0836 -1.7130  0.5610
 7604SOL    HW330189   6.377   1.040   0.873 -0.6658  0.1396  0.8284
 7604SOL    MW430190   6.372   0.990   0.944  0.8240 -0.3173  0.5314
 7605SOL     OW30191   6.353   4.870   2.530  0.1684  0.0432  0.2560
 7605SOL    HW230192   6.343   4.880   2.625 -2.3451 -0.2829  0.1115
 7605SOL    HW330193   6.382   4.780   2.518 -1.8213 -0.7192  0.7017
 7605SOL    MW430194   6.355   4.859   2.541  0.7405  0.4206 -0.0006
 7606SOL     OW30195   1.976   4.594   1.671 -0.6554 -0.1274 -0.1634
 7606SOL    HW230196   1.990   4.680   1.710  1.3092 -0.5084  0.0777
 7606SOL    HW330197   1.937   4.542   1.742 -0.3709  0.1444  0.1962
 7606SOL    MW430198   1.973   4.598   1.686  0.4248 -0.0400 -0.3136
 7607SOL     OW30199   5.810   1.894   6.107  0.3278 -0.1867  0.2410
 7607SOL    HW230200   5.857   1.914   6.026 -0.1227  1.0087  0.2561
 7607SOL    HW330201   5.879   1.871   6.169  0.7120 -0.6502 -0.3495
 7607SOL    MW430202   5.826   1.894   6.105  0.3175  0.4097 -0.1045
 7608SOL     OW30203   3.713   5.749   2.238 -0.2545 -0.2299 -0.5248
 7608SOL    HW230204   3.684   5.839   2.226 -0.5684 -0.2068  0.3370
 7608SOL    HW330205   3.637   5.696   2.217 -0.4301 -0.2396  0.1201
 7608SOL    MW430206   3.699   5.754   2.234 -0.1918 -0.1963  0.3251
 7609SOL     OW30207   0.726   1.688   5.443 -0.8917  0.2140 -0.6762
 7609SOL    HW230208   0.789   1.745   5.488 -0.5375 -1.1204  0.5621
 7609SOL    HW330209   0.663   1.663   5.511  0.8673 -3.6106 -0.1900
 7609SOL    MW430210   0.726   1.692   5.458 -0.3431  0.0449  0.0560
 7610SOL     OW30211   1.709   4.796   4.686  0.0192 -0.6084 -0.3600
 7610SOL    HW230212   1.750   4.830   4.766  2.6517 -0.0961 -1.8014
 7610SOL    HW330213   1.641   4.737   4.717 -0.1901  0.8511  2.2419
 7610SOL    MW430214   1.706   4.793   4.701  0.0010 -0.5682 -0.1623
 7611SOL     OW30215   1.351   3.669   1.051  0.0602  0.1520 -0.1343
 7611SOL    HW230216   1.325   3.604   0.986 -1.1176  0.8891 -0.4431
 7611SOL    HW330217   1.375   3.618   1.128 -1.8754 -0.6501  0.0002
 7611SOL    MW430218   1.351   3.654   1.053 -0.0068  0.4059  0.3912
 7612SOL     OW30219   6.017   3.032   1.385  0.2143 -0.4845 -0.3444
 7612SOL    HW230220   6.044   2.943   1.361  0.6472 -0.3625 -0.3241
 7612SOL    HW330221   6.038   3.085   1.308  0.8242 -0.2413 -0.0218
 7612SOL    MW430222   6.023   3.027   1.372  0.3466  0.4012  0.1000
 7613SOL     OW30223   3.292   3.295   6.404  0.0751  0.1928 -0.4004
 7613SOL    HW230224   3.268   3.371   6.351  0.8843  0.1395 -0.8720
 7613SOL    HW330225   3.388   3.301   6.411 -0.0225  0.2543  1.1502
 7613SOL    MW430226   3.302   3.306   6.398 -0.2244 -0.0948  0.1454
 7614SOL     OW30227   1.698   2.108   1.940  0.0936  0.0583 -0.1498
 7614SOL    HW230228   1.732   2.158   2.014 -0.9260  0.0117  0.3557
 7614SOL    HW330229   1.615   2.071   1.970 -0.2279 -0.1614 -1.2316
 7614SOL    MW430230   1.692   2.110   1.953  0.1697  0.6682 -0.4026
 7615SOL     OW30231   5.291   2.686   3.214  0.5167 -0.3830  0.0200
 7615SOL    HW230232   5.237   2.610   3.235  1.1318 -0.5208  1.2291
 7615SOL    HW330233   5.316   2.721   3.300  0.4591  1.0291 -0.5205
 7615SOL    MW430234   5.287   2.681   3.228  0.4872  0.0233 -0.1317
 7616SOL     OW30235   5.048   3.965   6.237 -0.2067  0.0768 -0.8304
 7616SOL    HW230236   5.130   3.930   6.204  0.9854  0.1527  1.7940
 7616SOL    HW330237   5.020   4.028   6.170  1.5201 -0.4195 -2.0922
 7616SOL    MW430238   5.055   3.969   6.224 -0.5799 -0.6799  0.2455
 7617SOL     OW30239   0.020   4.645   0.122  0.2475  0.2874 -0.0031
 7617SOL    HW230240   0.031   4.659   0.028  0.3586 -0.9170 -0.1967
 7617SOL    HW330241  -0.075   4.651   0.136 -0.2650 -3.2093 -0.9326
 7617SOL    MW430242   0.009   4.647   0.112  0.1414 -0.3526 -0.4533
 7618SOL     OW30243   0.162   3.377   4.748  0.5218  0.1737 -0.2975
 7618SOL    HW230244   0.107   3.455   4.740 -1.4910 -1.1090  0.2771
 7618SOL    HW330245   0.161   3.337   4.661  3.5220  1.9338 -1.2703
 7618SOL    MW430246   0.154   3.382   4.736 -0.2832 -0.5756  0.2212
 7619SOL     OW30247   3.876   4.725   0.642 -0.0113  0.0438 -0.0663
 7619SOL    HW230248   3.844   4.790   0.703  0.4152 -1.2115  1.5583
 7619SOL    HW330249   3.798   4.677   0.614  0.0545 -1.2000  1.7255
 7619SOL    MW430250   3.862   4.727   0.646  0.5950 -0.9380 -0.3742
 7620SOL     OW30251   4.094   2.662   0.819  0.4044 -0.6248 -0.8227
 7620SOL    HW230252   4.116   2.613   0.739  1.2057  0.3416 -1.2150
 7620SOL    HW330253   4.162   2.729   0.825 -0.4941  0.2400 -0.1239
 7620SOL    MW430254   4.106   2.664   0.809  0.4563  0.1574 -0.6513
 7621SOL     OW30255   1.404   2.386   0.479 -0.3539  0.4903  0.4001
 7621SOL    HW230256   1.371   2.305   0.516  1.5785  0.0994  1.4048
 7621SOL    HW330257   1.453   2.427   0.551  1.9983  0.5910 -1.1515
 7621SOL    MW430258   1.406   2.381   0.493  0.2297  0.0965  1.0181
 7622SOL     OW30259   2.647   4.295   4.403 -0.0455  0.0590  0.2772
 7622SOL    HW230260   2.701   4.220   4.426 -0.2475 -0.5927 -1.2654
 7622SOL    HW330261   2.591   4.308   4.480  0.7358 -0.6732  0.9950
 7622SOL    MW430262   2.647   4.287   4.416  0.2907 -0.4228  0.0810
 7623SOL     OW30263   0.974   0.406   5.865  0.3814 -0.3133 -0.6504
 7623SOL    HW230264   0.889   0.451   5.872  0.3670 -0.3538 -0.5670
 7623SOL    HW330265   0.981   0.356   5.947  2.3301  2.9059  1.3663
 7623SOL    MW430266   0.964   0.406   5.877  0.5588 -0.0546  0.2298
 7624SOL     OW30267   4.673   5.739   3.082  0.2874 -0.5401  0.5102
 7624SOL    HW230268   4.724   5.782   3.013 -1.7377  0.1268 -0.6486
 7624SOL    HW330269   4.671   5.803   3.153 -2.4080  1.3545 -1.0691
 7624SOL    MW430270   4.679   5.753   3.082  0.1947  0.5585  0.1430
 7625SOL     OW30271   0.331   4.613   3.530  0.4614  0.3531  0.1473
 7625SOL    HW230272   0.354   4.604   3.622  1.1012  0.7225  0.0374
 7625SOL    HW330273   0.411   4.649   3.490  0.4161 -0.4330 -0.6667
 7625SOL    MW430274   0.345   4.617   3.537  0.6439  0.1195 -0.5616
 7626SOL     OW30275   2.211   6.339   0.499  0.1063  0.3342  0.1247
 7626SOL    HW230276   2.306   6.350   0.493  0.3677 -2.0310 -2.4854
 7626SOL    HW330277   2.199   6.266   0.560 -0.1294  1.3183  1.2697
 7626SOL    MW430278   2.222   6.331   0.506 -0.4789 -1.0119 -0.2669
 7627SOL     OW30279   3.075   4.334   4.554  1.0495 -0.5329 -0.5208
 7627SOL    HW230280   3.044   4.412   4.599  0.6370 -1.2452  0.4702
 7627SOL    HW330281   3.099   4.364   4.466 -1.3091  0.2877 -0.9515
 7627SOL    MW430282   3.074   4.348   4.548 -0.0891 -0.4497 -0.2318
 7628SOL     OW30283   6.007   4.091   0.491  0.3577 -0.6510  0.1644
 7628SOL    HW230284   6.053   4.173   0.473  1.9601 -0.9332  2.5559
 7628SOL    HW330285   6.046   4.028   0.431 -1.3111  0.3440 -2.1358
 7628SOL    MW430286   6.018   4.093   0.480  0.0796  0.3752  0.6197
 7629SOL     OW30287   3.258   4.527   4.882  0.0927 -0.1629  0.1450
 7629SOL    HW230288   3.350   4.521   4.907 -0.0199  0.1663  0.6588
 7629SOL    HW330289   3.244   4.620   4.865 -0.0690 -0.2559 -0.2238
 7629SOL    MW430290   3.268   4.539   4.883  0.3981 -0.2625  0.5730
 7630SOL     OW30291   3.690   1.450   1.730  0.3028 -0.0138 -0.4024
 7630SOL    HW230292   3.737   1.387   1.675 -0.6003 -0.5630 -0.5587
 7630SOL    HW330293   3.637   1.396   1.789 -0.6443  0.5897 -0.6843
 7630SOL    MW430294   3.690   1.435   1.730 -0.5188  0.0211  0.1484
 7631SOL     OW30295   0.874   5.636   2.774  0.0947 -0.3456 -0.5274
 7631SOL    HW230296   0.785   5.670   2.769  0.0271 -0.3372  0.5381
 7631SOL    HW330297   0.902   5.655   2.864  0.8445 -1.1375 -0.5818
 7631SOL    MW430298   0.866   5.643   2.785  0.6669 -0.3262 -0.0971
 7632SOL     OW30299   0.740   2.981   5.400 -0.2353  0.5695  0.0477
 7632SOL    HW230300   0.735   3.054   5.462  0.4927  1.0291 -0.4132
 7632SOL    HW330301   0.753   2.904   5.455  1.3250  1.0797  0.4575
 7632SOL    MW430302   0.741   2.980   5.415  0.0519  0.1226 -0.5308
 7633SOL     OW30303   5.200   1.496   1.930 -0.2500  0.4618 -0.1005
 7633SOL    HW230304   5.190   1.583   1.890 -0.1597  1.6281  2.2146
 7633SOL    HW330305   5.294   1.478   1.925 -0.3080  0.3575 -0.8595
 7633SOL    MW430306   5.211   1.505   1.924  0.1977 -0.5922 -0.3900
 7634SOL     OW30307   1.941   5.312   0.862 -0.5163 -0.0446 -0.4689
 7634SOL    HW230308   1.993   5.356   0.930 -0.7853  1.2040 -1.0511
 7634SOL    HW330309   1.936   5.375   0.791  0.8464 -1.7860 -2.2284
 7634SOL    MW430310   1.947   5.326   0.862  0.4793 -0.3522  0.7569
 7635SOL     OW30311   3.770   0.332   2.444 -0.1670 -0.5516 -0.0321
 7635SOL    HW230312   3.775   0.243   2.479 -0.3169 -0.2830  0.7083
 7635SOL    HW330313   3.713   0.326   2.368 -0.4652 -1.0271  0.2265
 7635SOL    MW430314   3.763   0.319   2.439 -0.3205  0.0727  0.0032
 7636SOL     OW30315   4.344   3.582   5.719  0.2683 -0.3720 -0.1014
 7636SOL    HW230316   4.392   3.586   5.637  0.9647 -0.2546  0.2971
 7636SOL    HW330317   4.412   3.570   5.786 -0.3734 -1.7482  0.3542
 7636SOL    MW430318   4.360   3.581   5.717  0.4650  0.4608 -0.5133
 7637SOL     OW30319   4.227   5.690   1.298 -0.1398  0.0239  0.3743
 7637SOL    HW230320   4.319   5.674   1.280 -0.1559 -1.2052  1.2152
 7637SOL    HW330321   4.226   5.745   1.375 -0.1055 -0.0389  0.4194
 7637SOL    MW430322   4.239   5.695   1.306  0.1849  0.2154  0.0415
 7638SOL     OW30323   4.643   2.909   4.097  0.4396 -0.4650 -0.5124
 7638SOL    HW230324   4.624   2.935   4.006 -0.6812  1.4780  0.2214
 7638SOL    HW330325   4.566   2.937   4.146  0.9002 -1.7804  1.0191
 7638SOL    MW430326   4.630   2.916   4.091  0.0681 -0.5231  0.5139
 7639SOL     OW30327   1.291   3.681   0.400  0.3370  0.2156  0.2135
 7639SOL    HW230328   1.315   3.740   0.328  0.5518  0.6709  0.6506
 7639SOL    HW330329   1.314   3.593   0.368 -0.7819  0.2636 -0.7734
 7639SOL    MW430330   1.297   3.677   0.386  0.3116  0.3858 -0.0564
 7640SOL     OW30331   2.444   5.173   2.249  0.4449  0.2006 -0.5509
 7640SOL    HW230332   2.411   5.109   2.311  1.3723  0.8106  0.6196
 7640SOL    HW330333   2.366   5.204   2.202 -0.6239  1.1793  1.7011
 7640SOL    MW430334   2.429   5.169   2.251 -0.1694  0.4066  0.4147
 7641SOL     OW30335   0.318   5.135   6.209 -0.4123  0.3825  0.7427
 7641SOL    HW230336   0.345   5.224   6.187  1.2665 -0.7366 -2.3725
 7641SOL    HW330337   0.250   5.115   6.144  1.3351 -1.5395 -0.5882
 7641SOL    MW430338   0.312   5.144   6.197 -0.5053 -0.1573 -0.2201
 7642SOL     OW30339   3.259   4.497   3.084  0.2911  0.3769 -0.3194
 7642SOL    HW230340   3.312   4.561   3.131  0.0268 -0.5012  1.2639
 7642SOL    HW330341   3.214   4.448   3.154  1.4707 -2.3946 -1.3735
 7642SOL    MW430342   3.260   4.499   3.100  0.0051 -0.0136 -0.2054
 7643SOL     OW30343   4.696   1.522   0.353 -0.2285 -0.6192 -0.2893
 7643SOL    HW230344   4.647   1.447   0.387 -1.7104  0.3110 -0.2797
 7643SOL    HW330345   4.688   1.516   0.258 -1.4915  0.2364 -0.2516
 7643SOL    MW430346   4.689   1.511   0.345 -0.7365  0.1091  0.6519
 7644SOL     OW30347   1.766   1.409   1.219  0.2264  0.1923  0.1587
 7644SOL    HW230348   1.845   1.419   1.272 -0.3966  2.2166  0.7772
 7644SOL    HW330349   1.798   1.384   1.132  1.5312  0.7540  0.4578
 7644SOL    MW430350   1.780   1.407   1.214 -0.4548  0.7061 -0.0789
 7645SOL     OW30351   5.770   2.535   3.702  0.2896  0.4756 -0.4326
 7645SOL    HW230352   5.734   2.504   3.619 -0.1696 -0.1900  0.0056
 7645SOL    HW330353   5.714   2.496   3.769 -0.3640  2.3187  0.1567
 7645SOL    MW430354   5.758   2.526   3.700  0.9576  0.0330 -0.5102
 7646SOL     OW30355   0.872   0.730   4.332  0.4427 -0.2184 -0.0766
 7646SOL    HW230356   0.856   0.812   4.379  1.1717  0.5070 -1.0502
 7646SOL    HW330357   0.819   0.665   4.378  1.0826  0.4675  1.6795
 7646SOL    MW430358   0.863   0.732   4.344 -0.0254  0.0281 -0.0329
 7647SOL     OW30359   0.635   5.926   2.971  0.1953  0.2816 -0.4122
 7647SOL    HW230360   0.631   5.906   3.065  3.8953 -1.2083 -0.3914
 7647SOL    HW330361   0.686   6.006   2.966 -0.8802  0.9349 -1.1553
 7647SOL    MW430362   0.641   5.934   2.983 -0.2773 -0.7482 -0.1048
 7648SOL     OW30363   2.928   3.646   1.150  0.6268 -0.3714  0.0462
 7648SOL    HW230364   2.884   3.563   1.164  2.1552 -0.9634  1.7800
 7648SOL    HW330365   2.949   3.647   1.056  0.3999 -1.8435 -0.0392
 7648SOL    MW430366   2.925   3.635   1.139 -0.3517  0.0568 -0.0748
 7649SOL     OW30367   0.481   5.272   5.249 -0.0467  0.0836 -0.6524
 7649SOL    HW230368   0.546   5.248   5.315  0.3026 -0.5603 -1.2143
 7649SOL    HW330369   0.425   5.336   5.293  0.1791 -0.3287  0.2647
 7649SOL    MW430370   0.482   5.277   5.264  0.5109 -0.1590 -0.2686
 7650SOL     OW30371   3.175   1.617   4.392 -0.7943 -0.1783 -0.5451
 7650SOL    HW230372   3.182   1.527   4.422  0.2916 -0.4102 -1.4275
 7650SOL    HW330373   3.266   1.648   4.384 -1.1423  1.5164  1.1981
 7650SOL    MW430374   3.188   1.610   4.395 -0.1199  0.0101  0.0108
 7651SOL     OW30375   1.502   2.619   3.328  0.4823 -0.3780  0.0002
 7651SOL    HW230376   1.573   2.655   3.382  1.5596 -1.1113 -0.8717
 7651SOL    HW330377   1.545   2.595   3.246 -0.8145 -0.7454 -0.5906
 7651SOL    MW430378   1.517   2.621   3.325 -0.1869  0.6563 -0.5805
 7652SOL     OW30379   0.473   2.574   5.738 -0.2575  0.2694 -0.3914
 7652SOL    HW230380   0.389   2.617   5.752 -0.3405  0.5269 -1.5557
 7652SOL    HW330381   0.538   2.645   5.746 -0.2804  0.3582 -0.9741
 7652SOL    MW430382   0.471   2.589   5.741  0.3128  0.0658  0.4966
 7653SOL     OW30383   0.097   1.671   4.033  0.1677  0.6024 -0.8811
 7653SOL    HW230384   0.119   1.763   4.043  0.4535  0.3240  1.6390
 7653SOL    HW330385   0.023   1.656   4.092  0.0972 -0.7796 -1.2653
 7653SOL    MW430386   0.090   1.681   4.042  0.0413 -0.0074 -0.1004
 7654SOL     OW30387   1.866   3.069   3.153 -0.1173 -0.6127 -0.1301
 7654SOL    HW230388   1.874   2.977   3.125  0.2884 -0.4515 -0.5671
 7654SOL    HW330389   1.943   3.112   3.115  0.0514 -0.2252  0.6318
 7654SOL    MW430390   1.877   3.062   3.144 -0.1998  0.1929 -0.2930
 7655SOL     OW30391   0.628   1.645   5.176 -0.4909  0.3440 -0.0200
 7655SOL    HW230392   0.627   1.731   5.136 -1.8439  0.4098  0.1213
 7655SOL    HW330393   0.643   1.662   5.269 -1.0707  0.4527  0.0552
 7655SOL    MW430394   0.630   1.658   5.183  0.1008  0.4843  0.7346
 7656SOL     OW30395   0.191   4.927   1.733 -0.1362  0.1017 -0.1619
 7656SOL    HW230396   0.236   4.947   1.815 -0.3004 -0.5744  0.0928
 7656SOL    HW330397   0.115   4.876   1.758 -0.4083  0.2312 -0.7008
 7656SOL    MW430398   0.187   4.923   1.747  0.0251 -0.2094  0.0812
 7657SOL     OW30399   2.862   0.719   5.939 -0.7794  0.2321  0.2078
 7657SOL    HW230400   2.945   0.687   5.975 -1.1964 -2.1999 -0.7849
 7657SOL    HW330401   2.886   0.797   5.889  0.6528  0.4287  1.1392
 7657SOL    MW430402   2.876   0.725   5.937 -0.4821  0.1282  0.0223
 7658SOL     OW30403   0.223   4.243   3.168 -0.0186  1.2055 -0.4348
 7658SOL    HW230404   0.240   4.335   3.148 -0.7041  1.0627 -1.7695
 7658SOL    HW330405   0.143   4.222   3.119  0.5872 -0.3249 -0.8179
 7658SOL    MW430406   0.214   4.252   3.159 -0.2978 -0.0298 -0.3947
 7659SOL     OW30407   3.660   0.630   2.355  0.2434 -0.1630  0.5135
 7659SOL    HW230408   3.712   0.616   2.276 -1.5429  1.7860 -1.1031
 7659SOL    HW330409   3.660   0.544   2.399  1.7705 -1.1443 -1.2559
 7659SOL    MW430410   3.667   0.617   2.350 -0.3701  0.4812  0.0803
 7660SOL     OW30411   3.603   5.273   1.842 -0.3127  0.2911  0.5977
 7660SOL    HW230412   3.541   5.343   1.861  0.4379  1.5007 -1.1417
 7660SOL    HW330413   3.659   5.309   1.773  1.7281 -1.0826  1.4245
 7660SOL    MW430414   3.602   5.287   1.835  0.2003  0.1024  0.4008
 7661SOL     OW30415   1.860   1.525   0.659  0.6050 -0.3290  0.4468
 7661SOL    HW230416   1.840   1.535   0.566 -1.4586 -0.3225  0.8617
 7661SOL    HW330417   1.865   1.431   0.673 -0.2838 -0.3698  0.5455
 7661SOL    MW430418   1.858   1.514   0.648  0.7477  0.0561  0.1664
 7662SOL     OW30419   3.686   5.087   4.947 -0.2167 -0.0891 -0.4315
 7662SOL    HW230420   3.593   5.105   4.938 -0.5937 -0.7089  1.6054
 7662SOL    HW330421   3.730   5.167   4.918 -1.4577  0.8381  0.1843
 7662SOL    MW430422   3.680   5.100   4.942 -0.5491  0.0715 -0.1007
 7663SOL     OW30423   3.841   0.555   4.496  0.0587 -0.0311 -0.6228
 7663SOL    HW230424   3.851   0.462   4.512  0.5725 -0.0089 -0.7816
 7663SOL    HW330425   3.747   0.569   4.489  0.0381 -0.8485 -2.4183
 7663SOL    MW430426   3.830   0.545   4.497  0.3052 -0.2021 -0.0741
 7664SOL     OW30427   0.736   5.958   5.792 -0.1946  0.3670 -0.3579
 7664SOL    HW230428   0.695   5.955   5.705 -0.2276  2.1477 -0.4362
 7664SOL    HW330429   0.826   5.929   5.777 -0.1617  0.7860 -1.0127
 7664SOL    MW430430   0.743   5.954   5.778  0.6402 -0.1766  0.7441
 7665SOL     OW30431   3.623   2.533   5.275  0.6444 -0.5862 -0.2359
 7665SOL    HW230432   3.716   2.518   5.288  0.6901  0.4010  0.7398
 7665SOL    HW330433   3.615   2.628   5.265 -0.2496 -0.6674 -0.3888
 7665SOL    MW430434   3.634   2.543   5.275  0.3372  0.4776  0.0477
 7666SOL     OW30435   5.522   0.858   1.617 -0.6787  0.6302 -0.2614
 7666SOL    HW230436   5.504   0.948   1.645  0.5027  1.3514 -1.6457
 7666SOL    HW330437   5.442   0.831   1.572 -1.8476  0.1661  1.9769
 7666SOL    MW430438   5.509   0.866   1.614  0.1083 -0.4485  0.0047
 7667SOL     OW30439   5.350   5.108   0.577  0.0832  0.0261  0.0929
 7667SOL    HW230440   5.389   5.022   0.592 -1.5035 -1.1380 -1.8798
 7667SOL    HW330441   5.262   5.101   0.614  0.1399  1.0324  0.4470
 7667SOL    MW430442   5.344   5.096   0.584 -0.2450  0.2809 -0.2761
 7668SOL     OW30443   4.701   3.010   0.240 -0.1377 -0.2300  0.4943
 7668SOL    HW230444   4.779   2.954   0.252  0.0155 -0.1923 -0.2810
 7668SOL    HW330445   4.636   2.952   0.202  0.5033  0.4293 -1.7648
 7668SOL    MW430446   4.703   2.995   0.237 -0.0942 -0.1573 -0.1270
 7669SOL     OW30447   4.784   2.682   4.242 -0.0243  0.7460 -0.1290
 7669SOL    HW230448   4.766   2.739   4.317 -0.1434  0.4676  0.0530
 7669SOL    HW330449   4.730   2.719   4.172 -1.9306 -0.5120  0.6050
 7669SOL    MW430450   4.774   2.694   4.243 -0.4192 -0.3274 -0.7189
 7670SOL     OW30451   0.917   2.061   1.810  0.6640  1.2557 -0.1816
 7670SOL    HW230452   0.897   2.115   1.733 -0.7627 -0.1689 -0.8849
 7670SOL    HW330453   0.890   1.973   1.784 -1.3521  0.9782  2.4658
 7670SOL    MW430454   0.910   2.057   1.796 -0.0075  0.1424 -0.2576
 7671SOL     OW30455   0.069   4.666   1.289  0.5848  0.0320  0.1984
 7671SOL    HW230456   0.029   4.597   1.342  2.2616  0.0101  1.5363
 7671SOL    HW330457   0.037   4.747   1.327 -0.4379  0.0275 -0.6074
 7671SOL    MW430458   0.060   4.667   1.301 -0.0326  0.7517 -0.0277
 7672SOL     OW30459   2.280   0.092   0.954 -0.3174  0.0480  1.0850
 7672SOL    HW230460   2.257   0.000   0.944  0.1205  0.1400 -1.3915
 7672SOL    HW330461   2.361   0.091   1.005 -0.0079 -0.9854  0.5946
 7672SOL    MW430462   2.288   0.080   0.960 -0.2302  0.1179 -0.3021
 7673SOL     OW30463   1.872   3.430   2.230 -0.0235  0.4241  0.4099
 7673SOL    HW230464   1.934   3.462   2.295  1.3883  0.5625 -0.9574
 7673SOL    HW330465   1.849   3.507   2.179  1.2335 -0.1760 -1.1398
 7673SOL    MW430466   1.877   3.444   2.232  0.1059  0.8661  0.2605
 7674SOL     OW30467   1.497   1.011   2.947 -0.0156 -0.1738  0.2706
 7674SOL    HW230468   1.548   0.936   2.916  0.8717  1.0324 -1.4015
 7674SOL    HW330469   1.407   0.988   2.927  0.3512 -0.3454 -1.3697
 7674SOL    MW430470   1.492   0.998   2.940 -0.1668  0.2867 -1.2956
 7675SOL     OW30471   3.210   1.195   1.594  0.6811 -0.5496  0.0103
 7675SOL    HW230472   3.188   1.256   1.524 -2.1583 -1.2249  0.2006
 7675SOL    HW330473   3.305   1.203   1.604  0.5932  2.8754 -0.7823
 7675SOL    MW430474   3.220   1.204   1.586  0.2104  0.2061  0.3182
 7676SOL     OW30475   1.833   3.294   6.111  0.0193  0.7953  0.2850
 7676SOL    HW230476   1.907   3.311   6.170  0.5474  0.1314 -0.1724
 7676SOL    HW330477   1.758   3.282   6.170  0.4281  0.7022  0.8001
 7676SOL    MW430478   1.833   3.295   6.127  0.5473  0.4645  0.3558
 7677SOL     OW30479   5.911   3.277   2.487 -0.3032 -0.2298  0.3977
 7677SOL    HW230480   5.935   3.195   2.445 -0.8894  0.5344 -1.5359
 7677SOL    HW330481   5.976   3.289   2.556  2.1949 -0.4461 -1.7556
 7677SOL    MW430482   5.923   3.268   2.491  0.3719 -0.6245  0.6526
 7678SOL     OW30483   3.919   1.978   1.538  0.0578  0.3131 -0.5012
 7678SOL    HW230484   3.863   1.908   1.574  0.1060  1.4780  2.0527
 7678SOL    HW330485   3.968   1.935   1.468  0.7562 -2.4969  1.5214
 7678SOL    MW430486   3.918   1.963   1.534  0.5341  0.1378 -0.6335
 7679SOL     OW30487   3.802   4.430   6.025  0.2164 -0.0010  0.2761
 7679SOL    HW230488   3.728   4.490   6.012 -2.9372 -3.1890  1.5955
 7679SOL    HW330489   3.831   4.408   5.937 -3.0343 -1.3546 -0.6380
 7679SOL    MW430490   3.796   4.435   6.012  0.1637 -0.2642  0.0395
 7680SOL     OW30491   4.831   5.193   3.694  0.0498  0.2093  0.3309
 7680SOL    HW230492   4.908   5.249   3.685 -0.9992  1.5659 -0.6467
 7680SOL    HW330493   4.866   5.108   3.722  1.7386  1.1871  1.3484
 7680SOL    MW430494   4.845   5.189   3.696  0.6835 -0.0206 -0.2181
 7681SOL     OW30495   4.127   5.351   0.850 -0.8242  0.2896  0.4233
 7681SOL    HW230496   4.203   5.342   0.791 -0.7290 -0.0408  0.5958
 7681SOL    HW330497   4.129   5.272   0.903 -2.9081 -1.1375 -1.4479
 7681SOL    MW430498   4.137   5.339   0.849  0.1265  0.7082 -0.6154
 7682SOL     OW30499   5.170   4.020   0.659  0.5483 -0.8956  0.8033
 7682SOL    HW230500   5.157   4.106   0.699 -0.8611 -0.9505  0.5137
 7682SOL    HW330501   5.137   4.029   0.570  0.7854 -1.6251  0.6342
 7682SOL    MW430502   5.164   4.032   0.653 -0.5817 -0.0793  0.5241
 7683SOL     OW30503   5.699   1.053   6.295 -0.1849  0.0226 -0.4393
 7683SOL    HW230504   5.658   1.105   6.225  0.7073  1.6297  0.1724
 7683SOL    HW330505   5.782   1.098   6.312  0.8315 -1.8833 -0.1467
 7683SOL    MW430506   5.704   1.066   6.288 -0.3980 -0.4321  0.2609
 7684SOL     OW30507   0.156   3.284   5.019 -0.1624 -0.3763  0.2026
 7684SOL    HW230508   0.214   3.349   5.058 -0.4670  0.4244 -0.6234
 7684SOL    HW330509   0.135   3.319   4.932 -1.7329 -0.7098  0.4042
 7684SOL    MW430510   0.161   3.297   5.013  0.3806  0.4854  0.5942
 7685SOL     OW30511   1.452   0.499   4.665 -0.5961  0.1953  0.5332
 7685SOL    HW230512   1.429   0.412   4.632 -0.7202  0.4166  0.0222
 7685SOL    HW330513   1.538   0.488   4.705  0.3378  0.2367 -1.3269
 7685SOL    MW430514   1.460   0.486   4.666 -0.3682  0.7451  0.5833
 7686SOL     OW30515   1.684   1.333   2.246  0.2678  0.3962  0.8013
 7686SOL    HW230516   1.768   1.355   2.286  0.4936  1.1900 -0.0720
 7686SOL    HW330517   1.650   1.261   2.299  1.5157  0.0358  1.1458
 7686SOL    MW430518   1.690   1.327   2.258 -0.4276  0.2117 -0.3388
 7687SOL     OW30519   5.353   5.567   3.355  0.1762  0.4265 -0.0953
 7687SOL    HW230520   5.383   5.656   3.333  0.3895  0.2109 -0.6948
 7687SOL    HW330521   5.261   5.565   3.326 -0.0928  0.7258  0.7141
 7687SOL    MW430522   5.345   5.579   3.348 -0.2698  0.1993 -0.1633
 7688SOL     OW30523   2.794   1.404   3.125 -0.7255 -0.1773  0.0129
 7688SOL    HW230524   2.754   1.489   3.104  0.5567  0.6777  0.8782
 7688SOL    HW330525   2.810   1.363   3.040  0.1209  1.1679 -0.5024
 7688SOL    MW430526   2.791   1.410   3.111 -0.4791  0.7057  0.2373
 7689SOL     OW30527   3.301   4.298   6.324  0.0011 -0.4518 -0.2103
 7689SOL    HW230528   3.377   4.343   6.286  0.3658 -0.6916  0.2225
 7689SOL    HW330529   3.248   4.369   6.361 -0.3079 -0.2252 -1.0620
 7689SOL    MW430530   3.304   4.314   6.324 -0.1854  0.1629  0.1772
 7690SOL     OW30531   5.063   1.776   6.009  0.0101  0.0811  0.1655
 7690SOL    HW230532   5.016   1.816   6.081  0.0434 -1.0903  0.8613
 7690SOL    HW330533   5.155   1.778   6.035  0.4260  2.3999 -1.2065
 7690SOL    MW430534   5.069   1.781   6.022 -0.7453 -1.5100 -0.4449
 7691SOL     OW30535   1.571   0.171   5.372  0.0813 -0.3967  0.1239
 7691SOL    HW230536   1.483   0.161   5.336 -0.2359 -1.4611  1.1156
 7691SOL    HW330537   1.567   0.126   5.457  1.6920 -0.8469 -0.0059
 7691SOL    MW430538   1.559   0.164   5.379 -0.1484  0.0486 -0.2407
 7692SOL     OW30539   1.005   4.437   4.828 -0.3829 -0.2788 -0.3688
 7692SOL    HW230540   1.060   4.397   4.894 -0.2533  0.4355 -0.0376
 7692SOL    HW330541   0.927   4.466   4.875  0.4258  1.7635 -0.1540
 7692SOL    MW430542   1.002   4.436   4.843  0.1223  0.1411 -0.3385
 7693SOL     OW30543   0.791   0.591   0.833  0.2539  0.0670 -0.2341
 7693SOL    HW230544   0.717   0.615   0.889 -1.4648 -0.9292 -1.9238
 7693SOL    HW330545   0.854   0.550   0.892 -2.0358 -2.1722  0.8662
 7693SOL    MW430546   0.790   0.588   0.848 -0.3373 -0.3636 -0.2360
 7694SOL     OW30547   2.250   5.082   0.030  0.6883 -0.3647 -0.5769
 7694SOL    HW230548   2.231   5.106  -0.061  0.0534 -0.7070 -0.5346
 7694SOL    HW330549   2.164   5.067   0.070  1.0186 -1.3100 -0.2128
 7694SOL    MW430550   2.236   5.083   0.023 -0.6470 -0.0994  0.2185
 7695SOL     OW30551   5.917   6.358   1.865 -0.1060 -0.1196  0.3722
 7695SOL    HW230552   5.910   6.277   1.814  1.5262  0.3638 -0.7138
 7695SOL    HW330553   6.005   6.354   1.903 -0.0991  1.0464  0.4988
 7695SOL    MW430554   5.928   6.347   1.863  0.0268 -0.2797  0.6007
 7696SOL     OW30555   4.525   5.706   4.920  0.6551  0.4327  0.2516
 7696SOL    HW230556   4.582   5.773   4.959  0.1587  1.8535 -1.3294
 7696SOL    HW330557   4.546   5.626   4.968  1.2613  1.7046  2.2359
 7696SOL    MW430558   4.535   5.704   4.931 -0.2409 -0.1272 -0.0184
 7697SOL     OW30559   0.188   4.175   1.000  0.3768  0.1241  0.5319
 7697SOL    HW230560   0.107   4.174   0.950 -0.2930  0.0377  1.5954
 7697SOL    HW330561   0.256   4.192   0.935 -0.6027  1.3691 -0.2045
 7697SOL    MW430562   0.186   4.177   0.985 -0.0449 -0.1909 -0.2557
 7698SOL     OW30563   4.162   6.007   6.219 -0.1879 -0.1422 -0.0718
 7698SOL    HW230564   4.211   5.968   6.291  1.3587 -0.1694 -1.0811
 7698SOL    HW330565   4.229   6.027   6.153 -1.3365  1.3400 -0.8512
 7698SOL    MW430566   4.177   6.005   6.220 -0.2891  0.0467 -0.2282
 7699SOL     OW30567   2.494   1.692   1.774  0.4534  0.0454  0.1626
 7699SOL    HW230568   2.415   1.709   1.724  0.6627 -1.7061 -0.8545
 7699SOL    HW330569   2.562   1.744   1.731  0.0351  0.8815  0.5069
 7699SOL    MW430570   2.493   1.701   1.762  0.0810  0.4372  0.2073
 7700SOL     OW30571   1.554   4.756   2.809  0.2314  0.3021 -0.0558
 7700SOL    HW230572   1.503   4.816   2.863  1.6492  1.3492  0.1820
 7700SOL    HW330573   1.563   4.677   2.862 -0.7567  0.2720  0.0759
 7700SOL    MW430574   1.549   4.753   2.823  0.6023  0.1121  0.1321
 7701SOL     OW30575   2.225   4.843   0.493  0.0510 -0.2401 -0.6241
 7701SOL    HW230576   2.181   4.759   0.507 -0.7871  0.1926 -0.6655
 7701SOL    HW330577   2.159   4.909   0.511  0.9509  0.4432  0.2515
 7701SOL    MW430578   2.211   4.840   0.497 -0.3504  0.5371 -0.1078
 7702SOL     OW30579   4.668   1.179   5.629 -0.0765  0.0462  0.2807
 7702SOL    HW230580   4.732   1.250   5.641 -0.2515 -0.1445  3.1537
 7702SOL    HW330581   4.592   1.222   5.590 -0.0273  1.4204  1.5934
 7702SOL    MW430582   4.666   1.194   5.626 -0.1910  0.1421  0.2997
 7703SOL     OW30583   1.772   5.920   2.705 -0.2424  0.3483  0.2081
 7703SOL    HW230584   1.709   5.897   2.774  0.9798  0.9264  1.5653
 7703SOL    HW330585   1.848   5.865   2.722  0.0567  0.4552 -0.7229
 7703SOL    MW430586   1.774   5.910   2.716  0.1055 -0.2385 -0.0332
 7704SOL     OW30587   2.371   3.646   4.710  0.8549  0.0894 -0.0673
 7704SOL    HW230588   2.448   3.624   4.658  1.2487  0.5979  0.2909
 7704SOL    HW330589   2.329   3.562   4.727  1.0695 -0.1448 -0.6594
 7704SOL    MW430590   2.375   3.632   4.705  0.3940  0.6420  0.2830
 7705SOL     OW30591   4.910   4.760   0.769  0.4414 -0.3814 -0.0168
 7705SOL    HW230592   4.910   4.699   0.843  0.2067 -1.0895 -0.5911
 7705SOL    HW330593   4.839   4.821   0.789 -0.9729 -1.7713 -0.6030
 7705SOL    MW430594   4.901   4.760   0.782 -0.2673 -0.1232 -0.2385
 7706SOL     OW30595   6.050   0.893   4.213  0.6124  0.2769 -0.8187
 7706SOL    HW230596   6.117   0.960   4.220 -0.2208  1.1910 -1.4074
 7706SOL    HW330597   5.971   0.933   4.249  0.6483 -1.2284  1.1015
 7706SOL    MW430598   6.049   0.907   4.218 -0.5903  1.0060  0.5410
 7707SOL     OW30599   5.341   0.171   5.457 -0.7130 -0.4221 -0.4174
 7707SOL    HW230600   5.398   0.176   5.534 -0.3552  1.3680 -0.7679
 7707SOL    HW330601   5.400   0.145   5.385 -0.5140  0.5193 -0.5991
 7707SOL    MW430602   5.356   0.168   5.457  0.4378 -0.0118 -0.2686
 7708SOL     OW30603   5.238   5.266   3.475 -0.3625 -0.4134  0.0910
 7708SOL    HW230604   5.194   5.330   3.531 -0.7387 -0.7770  0.2163
 7708SOL    HW330605   5.166   5.217   3.435 -0.0818 -0.5315 -0.2695
 7708SOL    MW430606   5.222   5.268   3.477  0.2755 -0.8240 -0.0393
 7709SOL     OW30607   0.893   1.216   5.440  0.0918  0.3185  0.0546
 7709SOL    HW230608   0.957   1.219   5.511 -2.3410 -0.2734  2.4416
 7709SOL    HW330609   0.873   1.307   5.421 -0.0650  0.4685  0.9342
 7709SOL    MW430610   0.899   1.228   5.447  0.2741 -0.1953  0.0657
 7710SOL     OW30611   3.331   2.928   2.557  0.1040 -0.3510  0.1878
 7710SOL    HW230612   3.277   2.932   2.478  2.0196  0.9002 -1.1383
 7710SOL    HW330613   3.349   3.020   2.578  2.1108 -0.7133  0.2461
 7710SOL    MW430614   3.326   2.941   2.549 -0.1420 -0.0518  0.1666
 7711SOL     OW30615   5.777   2.673   4.254 -0.5749 -0.5635 -0.1018
 7711SOL    HW230616   5.725   2.671   4.173  0.3397  0.4861 -0.7437
 7711SOL    HW330617   5.740   2.745   4.305  0.7588  0.7784 -0.9544
 7711SOL    MW430618   5.765   2.682   4.250  0.2525  0.1360  0.4916
 7712SOL     OW30619   1.331   4.274   0.073 -0.8822  0.3957 -0.1583
 7712SOL    HW230620   1.339   4.220  -0.006  0.4846  1.1347 -0.5507
 7712SOL    HW330621   1.258   4.234   0.121 -1.1723 -0.6088 -1.3565
 7712SOL    MW430622   1.322   4.261   0.069  0.4402  0.2097  0.1787
 7713SOL     OW30623   0.786   1.514   4.986 -0.1748  0.1494  0.2062
 7713SOL    HW230624   0.727   1.476   4.921  0.7430 -0.7036 -0.1435
 7713SOL    HW330625   0.728   1.543   5.057 -1.2358  1.4168 -1.1081
 7713SOL    MW430626   0.771   1.513   4.987 -0.4388  0.4203  0.5417
 7714SOL     OW30627   2.243   0.049   3.520 -0.1419 -0.2474 -0.5354
 7714SOL    HW230628   2.202  -0.038   3.518 -1.2670  0.1075  2.4311
 7714SOL    HW330629   2.336   0.031   3.534 -0.4708 -1.0010  0.8395
 7714SOL    MW430630   2.250   0.035   3.521  0.3899 -0.3728 -0.1304
 7715SOL     OW30631   4.688   2.508   2.151  0.7973  0.0771 -0.5415
 7715SOL    HW230632   4.699   2.463   2.235  0.0176  1.5232  0.3726
 7715SOL    HW330633   4.624   2.455   2.104 -0.0708  0.1663  0.4958
 7715SOL    MW430634   4.681   2.495   2.156 -0.6686  0.0153  0.1120
 7716SOL     OW30635   0.950   1.417   6.106  0.2967 -0.0723  0.0528
 7716SOL    HW230636   0.863   1.440   6.074  0.9574  3.1999  0.2170
 7716SOL    HW330637   0.993   1.376   6.031 -1.2285 -1.4675 -0.1188
 7716SOL    MW430638   0.944   1.415   6.092 -0.4778  0.1291 -0.8386
 7717SOL     OW30639   0.726   1.118   3.371  0.2891 -0.7998  0.0203
 7717SOL    HW230640   0.635   1.137   3.394  0.5708 -0.1358  0.6232
 7717SOL    HW330641   0.752   1.049   3.432  1.0254  0.9368  1.7675
 7717SOL    MW430642   0.717   1.111   3.382  0.7104 -0.1070  0.3691
 7718SOL     OW30643   4.994   4.088   4.079 -0.6177  0.4041 -0.4432
 7718SOL    HW230644   5.008   4.016   4.140  1.5212  0.8369 -0.3507
 7718SOL    HW330645   4.948   4.048   4.005 -2.3201 -0.3393  0.9293
 7718SOL    MW430646   4.990   4.074   4.077 -0.7094  0.4955 -0.6566
 7719SOL     OW30647   4.559   0.165   4.749  0.4106 -0.2538 -0.3684
 7719SOL    HW230648   4.577   0.104   4.821 -2.5119  0.0959  0.7767
 7719SOL    HW330649   4.568   0.112   4.670  2.6826 -0.8943  0.2204
 7719SOL    MW430650   4.563   0.150   4.748 -0.1377  0.1083 -0.2416
 7720SOL     OW30651   0.717   3.705   4.924  0.4282  0.4882  0.2853
 7720SOL    HW230652   0.792   3.687   4.867  0.7854 -0.1527  0.9488
 7720SOL    HW330653   0.660   3.760   4.870  0.8568  0.0804 -0.6162
 7720SOL    MW430654   0.719   3.710   4.909 -0.1184 -0.0609 -0.0655
 7721SOL     OW30655   2.811   4.153   0.398  0.6457 -0.1628 -0.4660
 7721SOL    HW230656   2.791   4.076   0.345 -0.3278  0.1427 -0.5785
 7721SOL    HW330657   2.725   4.186   0.424  0.8377  2.4189 -2.6071
 7721SOL    MW430658   2.797   4.147   0.394 -0.1669 -0.0010  0.3941
 7722SOL     OW30659   2.595   0.660   5.556  0.5154 -0.1611 -0.3134
 7722SOL    HW230660   2.653   0.648   5.481 -0.0116 -0.2861 -0.7073
 7722SOL    HW330661   2.649   0.639   5.632  0.9944 -0.2437 -0.6733
 7722SOL    MW430662   2.609   0.656   5.556 -0.1519  0.1137 -0.3237
 7723SOL     OW30663   4.784   6.225   6.173  0.5582  0.1841  0.1437
 7723SOL    HW230664   4.813   6.134   6.172 -0.5911 -0.3160  3.2192
 7723SOL    HW330665   4.865   6.275   6.162  1.2406 -1.1307 -1.3742
 7723SOL    MW430666   4.799   6.220   6.171 -0.0403 -0.1814  0.3470
 7724SOL     OW30667   2.848   0.201   1.304 -0.0887  0.1755 -0.0279
 7724SOL    HW230668   2.872   0.199   1.396  0.2100  0.3496 -0.0980
 7724SOL    HW330669   2.872   0.289   1.275 -1.0115  0.4282 -0.0587
 7724SOL    MW430670   2.855   0.212   1.312 -0.2364  0.4078 -0.1478
 7725SOL     OW30671   4.614   1.285   0.983  0.3489  0.7511  0.1821
 7725SOL    HW230672   4.586   1.280   1.075 -1.3352 -0.5337 -0.3422
 7725SOL    HW330673   4.611   1.194   0.953 -1.3934  1.3728 -1.7468
 7725SOL    MW430674   4.610   1.272   0.991  0.1283  0.4440  0.0796
 7726SOL     OW30675   0.749   0.501   3.384 -0.5286 -0.2355 -0.6264
 7726SOL    HW230676   0.684   0.437   3.355  0.0460  0.1438 -2.9809
 7726SOL    HW330677   0.723   0.523   3.473 -2.1225 -1.9611 -0.5978
 7726SOL    MW430678   0.737   0.495   3.392  0.1880  0.0028  0.6230
 7727SOL     OW30679   3.878   4.151   5.084  0.1897  0.0908  0.0577
 7727SOL    HW230680   3.965   4.146   5.044  0.1362  1.4384 -0.2734
 7727SOL    HW330681   3.884   4.095   5.162  1.5882  0.7885  0.4749
 7727SOL    MW430682   3.891   4.143   5.089  0.0440 -0.6585 -0.1959
 7728SOL     OW30683   4.326   5.283   2.404  0.6346 -0.0100 -0.0635
 7728SOL    HW230684   4.407   5.233   2.409  0.5221 -0.1309  0.5698
 7728SOL    HW330685   4.265   5.238   2.463  0.4439  0.7065  0.2997
 7728SOL    MW430686   4.328   5.271   2.412 -0.5817  0.1521 -0.3001
 7729SOL     OW30687   2.750   5.080   2.544  0.9709  0.0257 -0.4115
 7729SOL    HW230688   2.825   5.068   2.602  1.4834 -2.3694 -1.4417
 7729SOL    HW330689   2.679   5.108   2.601  2.2561  0.8898  0.8209
 7729SOL    MW430690   2.751   5.082   2.559  0.1456  0.0415 -0.3214
 7730SOL     OW30691   1.906   0.090   3.408 -0.2759  0.3537  0.4617
 7730SOL    HW230692   1.911   0.010   3.460 -0.4995 -0.1382 -0.2564
 7730SOL    HW330693   1.818   0.123   3.423 -0.5528 -0.1290 -0.0985
 7730SOL    MW430694   1.895   0.084   3.417 -0.5874 -0.2175 -0.3528
 7731SOL     OW30695   5.994   6.057   3.485  0.1928 -0.3416 -0.0312
 7731SOL    HW230696   5.955   5.986   3.537 -0.0084 -0.2008  0.0087
 7731SOL    HW330697   6.082   6.025   3.464  1.4375  0.8418  2.9541
 7731SOL    MW430698   6.001   6.043   3.489  0.5248  0.2174 -0.1529
 7732SOL     OW30699   5.314   2.320   4.755  0.5214 -0.1137  0.0946
 7732SOL    HW230700   5.298   2.413   4.738 -1.0776 -0.5489 -0.9216
 7732SOL    HW330701   5.281   2.306   4.844 -1.3787 -0.1773 -0.5953
 7732SOL    MW430702   5.308   2.331   4.765 -0.0347 -0.6237  0.0684
 7733SOL     OW30703   5.665   1.974   4.216 -0.1099 -0.0426  0.0155
 7733SOL    HW230704   5.596   2.033   4.247 -0.9120 -2.2832  2.9234
 7733SOL    HW330705   5.648   1.966   4.122 -0.3948  3.6439 -0.4167
 7733SOL    MW430706   5.653   1.981   4.207 -0.6563 -0.5215 -0.7280
 7734SOL     OW30707   2.669   5.619   2.000 -1.0534 -0.2294 -0.6464
 7734SOL    HW230708   2.742   5.646   2.055 -0.8912 -0.3939 -0.7779
 7734SOL    HW330709   2.618   5.559   2.055 -0.0148 -1.6664 -1.1823
 7734SOL    MW430710   2.672   5.614   2.014  0.3285 -0.8068  0.3606
 7735SOL     OW30711   6.256   5.842   2.228  0.7001 -0.5990  0.2161
 7735SOL    HW230712   6.164   5.847   2.201  1.0560 -1.1045 -1.2235
 7735SOL    HW330713   6.296   5.920   2.190  1.4488 -1.8976 -1.8890
 7735SOL    MW430714   6.249   5.853   2.219 -0.0463  0.0597  0.5485
 7736SOL     OW30715   0.329   4.682   5.282  0.0651  0.2640  0.6300
 7736SOL    HW230716   0.267   4.727   5.339 -1.4497  1.2704 -1.6282
 7736SOL    HW330717   0.378   4.753   5.240  0.2086 -0.3443 -0.2681
 7736SOL    MW430718   0.327   4.697   5.284 -0.1477  0.1319 -0.4586
 7737SOL     OW30719   2.859   2.116   1.399  0.1767  0.7310 -0.2792
 7737SOL    HW230720   2.777   2.152   1.366  0.4300 -0.5109 -2.4166
 7737SOL    HW330721   2.928   2.158   1.347  0.7750  0.3101  0.1450
 7737SOL    MW430722   2.858   2.127   1.388 -0.4556 -0.0267  0.5240
 7738SOL     OW30723   6.310   5.567   5.682 -0.4482  0.0773  0.1525
 7738SOL    HW230724   6.294   5.659   5.662 -0.6813 -0.0875 -0.4367
 7738SOL    HW330725   6.382   5.569   5.745 -0.3560  0.6543  0.0398
 7738SOL    MW430726   6.317   5.580   5.688 -0.3039  0.3148 -0.2865
 7739SOL     OW30727   3.171   5.932   4.894  0.2566  0.7470 -0.8846
 7739SOL    HW230728   3.129   5.851   4.924 -0.4348  1.4872  0.1912
 7739SOL    HW330729   3.202   5.911   4.806  0.1183 -0.7022 -0.6166
 7739SOL    MW430730   3.170   5.918   4.886 -0.0993  0.2972 -0.4693
 7740SOL     OW30731   6.171   2.726   2.526  0.3288  0.2985  0.0841
 7740SOL    HW230732   6.185   2.676   2.606  0.4884 -2.7618 -1.7188
 7740SOL    HW330733   6.076   2.734   2.519  0.2767 -0.2481  0.1225
 7740SOL    MW430734   6.160   2.721   2.535 -0.0583  0.2848 -0.0109
 7741SOL     OW30735   0.849   0.903   0.178 -0.1910 -0.0116 -0.7945
 7741SOL    HW230736   0.835   0.810   0.197 -1.8532  0.5290  0.8561
 7741SOL    HW330737   0.839   0.909   0.083  0.0657 -1.5283 -0.9471
 7741SOL    MW430738   0.846   0.892   0.168 -0.0204  0.7015  0.2873
 7742SOL     OW30739   3.680   1.475   5.703  0.2762  0.0813  0.2975
 7742SOL    HW230740   3.755   1.486   5.644  1.1270  0.5401  1.4135
 7742SOL    HW330741   3.630   1.403   5.664  1.5542 -0.5654 -0.2454
 7742SOL    MW430742   3.684   1.467   5.690  0.1639 -0.3459  0.5347
 7743SOL     OW30743   5.482   5.929   4.905 -0.2807 -0.2596  0.0161
 7743SOL    HW230744   5.483   6.017   4.944  0.6001  0.2001 -0.9735
 7743SOL    HW330745   5.573   5.913   4.881 -0.1528 -2.0885  1.4982
 7743SOL    MW430746   5.494   5.939   4.907  0.6027 -0.8128  0.0882
 7744SOL     OW30747   0.459   5.594   3.178 -0.0175  0.2716 -0.2110
 7744SOL    HW230748   0.391   5.536   3.214  0.0775  0.4643  0.2881
 7744SOL    HW330749   0.439   5.599   3.085 -0.8153  0.4920 -0.0347
 7744SOL    MW430750   0.447   5.587   3.171 -0.7607 -0.4197  0.1676
 7745SOL     OW30751   1.935   4.144   4.727 -0.0729  0.1261  0.5205
 7745SOL    HW230752   1.859   4.190   4.694 -0.8311 -1.2934  0.2042
 7745SOL    HW330753   1.906   4.105   4.809 -0.8946 -3.3093 -1.2100
 7745SOL    MW430754   1.921   4.145   4.733  0.4363  0.2700  0.1606
 7746SOL     OW30755   5.280   5.437   5.944  0.1663 -0.7945  0.0046
 7746SOL    HW230756   5.235   5.353   5.929  2.4930 -2.6064  2.3891
 7746SOL    HW330757   5.257   5.461   6.033 -0.1824  1.0099 -0.5344
 7746SOL    MW430758   5.271   5.429   5.954 -0.2566 -0.6433 -0.2870
 7747SOL     OW30759   1.475   3.964   4.913 -0.4022 -0.1353 -0.5973
 7747SOL    HW230760   1.530   3.900   4.958  1.0477  0.3526 -1.6007
 7747SOL    HW330761   1.471   3.933   4.823 -0.4677  0.6630 -0.8760
 7747SOL    MW430762   1.482   3.952   4.907 -0.0427  0.1582  0.1165
 7748SOL     OW30763   2.577   1.858   1.354 -0.7891  0.0020 -0.5381
 7748SOL    HW230764   2.668   1.858   1.324  0.2934  0.3241  2.4038
 7748SOL    HW330765   2.548   1.767   1.343 -0.2377 -0.0498 -1.7427
 7748SOL    MW430766   2.585   1.846   1.349  0.0013  0.0823 -0.0391
 7749SOL     OW30767   1.748   6.026   5.168 -0.2083 -0.3109  0.4413
 7749SOL    HW230768   1.760   5.949   5.223  0.7379 -1.1230 -0.8279
 7749SOL    HW330769   1.660   6.018   5.132 -0.3782 -0.4048  0.8735
 7749SOL    MW430770   1.738   6.015   5.171 -0.0715 -0.0221  0.0568
 7750SOL     OW30771   6.315   1.206   1.638  0.3245  0.4202 -0.2401
 7750SOL    HW230772   6.343   1.205   1.729  1.1292 -2.2606 -0.4147
 7750SOL    HW330773   6.345   1.290   1.604  2.3162  0.3999  1.2892
 7750SOL    MW430774   6.322   1.217   1.646 -0.1490  0.1763 -0.0519
 7751SOL     OW30775  -0.002   5.922   1.614 -0.1893 -0.0815 -0.7134
 7751SOL    HW230776   0.042   6.007   1.611 -0.2990 -0.0442 -2.5154
 7751SOL    HW330777  -0.085   5.936   1.567 -0.5937 -0.9705 -0.2943
 7751SOL    MW430778  -0.007   5.935   1.607 -0.0852 -0.5949  0.3678
 7752SOL     OW30779   4.252   2.651   3.072  0.4483 -0.7224  0.2242
 7752SOL    HW230780   4.231   2.744   3.081 -2.9545 -0.9656 -2.9444
 7752SOL    HW330781   4.182   2.606   3.118  1.3069 -1.7799  0.5543
 7752SOL    MW430782   4.240   2.658   3.079 -0.3674 -0.9097  0.5668
 7753SOL     OW30783   2.521   1.569   0.744  0.0552  0.1402  0.3878
 7753SOL    HW230784   2.568   1.502   0.694  0.5731  0.7417  0.0520
 7753SOL    HW330785   2.589   1.614   0.794 -0.0116  1.6793 -0.8573
 7753SOL    MW430786   2.536   1.566   0.744 -0.5313  0.3569 -0.0040
 7754SOL     OW30787   5.288   6.154   0.618  0.1320  0.2224  0.4888
 7754SOL    HW230788   5.294   6.249   0.608  0.8396  0.0797 -0.5699
 7754SOL    HW330789   5.216   6.129   0.561  1.1166 -0.0638 -0.6686
 7754SOL    MW430790   5.279   6.163   0.609  0.1574 -1.0037  0.0724
 7755SOL     OW30791   1.366   3.934   6.077  0.3018  0.5904  0.4128
 7755SOL    HW230792   1.323   3.934   5.991  0.4233  0.8924  0.3490
 7755SOL    HW330793   1.458   3.915   6.057  0.0969 -0.7373  0.6116
 7755SOL    MW430794   1.373   3.931   6.063 -0.8784 -0.4284  0.0960
 7756SOL     OW30795   4.910   4.271   2.920 -0.2401 -0.6273 -0.2180
 7756SOL    HW230796   4.928   4.246   3.010  0.5756 -1.2314 -0.5403
 7756SOL    HW330797   4.995   4.293   2.883 -0.7483  1.2198 -0.3840
 7756SOL    MW430798   4.923   4.271   2.927  0.3176  0.0077  0.6631
 7757SOL     OW30799   2.127   1.381   4.437 -0.0912 -0.2596 -0.1940
 7757SOL    HW230800   2.200   1.327   4.407 -0.6835 -0.6972 -0.8792
 7757SOL    HW330801   2.157   1.417   4.521  0.1909 -1.9435  0.4811
 7757SOL    MW430802   2.140   1.378   4.444 -0.1279  0.6567 -1.0584
 7758SOL     OW30803   2.761   1.658   2.251 -0.2859 -0.0524 -0.0358
 7758SOL    HW230804   2.780   1.751   2.240 -0.4788  0.0375  0.3432
 7758SOL    HW330805   2.737   1.627   2.164  2.3137 -0.3591 -0.7332
 7758SOL    MW430806   2.760   1.666   2.238  0.4190  0.8513 -0.4988
 7759SOL     OW30807   5.071   1.802   0.262  0.1004  0.0823  0.1446
 7759SOL    HW230808   4.994   1.795   0.319 -0.6035  2.0901 -0.4678
 7759SOL    HW330809   5.096   1.711   0.245 -1.2144 -0.6075  1.5617
 7759SOL    MW430810   5.064   1.789   0.267 -0.4131  0.5580  0.2691
 7760SOL     OW30811   0.558   0.723   0.197 -0.7682 -0.3319  0.1325
 7760SOL    HW230812   0.533   0.741   0.288  0.4307 -0.4307  0.5029
 7760SOL    HW330813   0.632   0.663   0.204 -0.9776 -0.7286 -0.9314
 7760SOL    MW430814   0.564   0.718   0.210  0.1322  0.3186 -0.6447
 7761SOL     OW30815   4.044   4.050   5.734  0.1324 -0.7016  0.0755
 7761SOL    HW230816   3.972   4.038   5.672 -0.3875 -0.3036  0.5924
 7761SOL    HW330817   4.003   4.041   5.820  0.5781  0.2098  0.3883
 7761SOL    MW430818   4.029   4.047   5.737 -0.2573 -0.0018 -0.3696
 7762SOL     OW30819   3.446   6.195   4.537 -0.3080 -0.6182  0.2691
 7762SOL    HW230820   3.366   6.202   4.589 -0.7917 -0.8054 -0.4276
 7762SOL    HW330821   3.418   6.215   4.448  0.9222  1.9147  0.3552
 7762SOL    MW430822   3.432   6.198   4.532 -0.1702  0.0784  0.0995
 7763SOL     OW30823   1.126   3.106   3.755  0.3882 -0.4132  0.2713
 7763SOL    HW230824   1.099   3.018   3.729 -0.3539  0.0576 -0.6079
 7763SOL    HW330825   1.211   3.094   3.796 -0.0662 -1.6408  0.8957
 7763SOL    MW430826   1.133   3.093   3.757 -0.1303 -0.5331 -0.2228
 7764SOL     OW30827   1.111   3.737   1.167  0.1176 -0.0345 -0.5479
 7764SOL    HW230828   1.200   3.747   1.133  1.6365  1.0232  3.2945
 7764SOL    HW330829   1.091   3.821   1.208 -2.1791 -0.6903 -0.1889
 7764SOL    MW430830   1.120   3.749   1.168  0.3377 -0.5737 -0.1824
 7765SOL     OW30831   6.044   6.136   3.814 -0.3770 -0.7869  0.2077
 7765SOL    HW230832   6.101   6.141   3.737 -0.0718 -0.3123  0.4598
 7765SOL    HW330833   6.089   6.189   3.880 -1.5538  0.3529  0.1219
 7765SOL    MW430834   6.058   6.144   3.813  0.1511 -0.0860  0.1364
 7766SOL     OW30835   1.284   4.656   6.010 -1.0455 -0.0107  0.5869
 7766SOL    HW230836   1.333   4.585   6.052  0.1400 -0.0675 -0.8254
 7766SOL    HW330837   1.222   4.684   6.077  0.8079 -0.0213  2.4337
 7766SOL    MW430838   1.282   4.650   6.025 -0.4049 -0.1833 -0.2402
 7767SOL     OW30839   5.344   4.385   0.166 -0.0042  0.1775  0.7947
 7767SOL    HW230840   5.314   4.400   0.077  0.1453  0.1723  0.7430
 7767SOL    HW330841   5.344   4.471   0.207  0.2009  0.2207  0.7035
 7767SOL    MW430842   5.340   4.398   0.160 -0.0180  0.3264  0.4510
 7768SOL     OW30843   4.459   0.027   5.681  0.0181 -0.6104 -0.2286
 7768SOL    HW230844   4.402   0.046   5.756 -0.7186 -0.6330 -0.7690
 7768SOL    HW330845   4.469   0.111   5.637 -1.3447 -0.9737 -1.3167
 7768SOL    MW430846   4.453   0.040   5.685  0.1074 -0.3385 -0.2635
 7769SOL     OW30847   1.449   6.062   3.304 -0.7391 -0.6395  0.3781
 7769SOL    HW230848   1.492   5.984   3.268 -0.7391 -0.9180  0.9737
 7769SOL    HW330849   1.466   6.058   3.398 -1.2146 -0.2154  0.4884
 7769SOL    MW430850   1.457   6.051   3.312 -0.5448  0.2350 -0.2497
 7770SOL     OW30851   0.336   3.050   3.606  0.2983 -0.3194  0.0995
 7770SOL    HW230852   0.262   3.110   3.595  0.4711  0.0443  0.8498
 7770SOL    HW330853   0.358   3.055   3.699  1.2348 -0.4633 -0.1005
 7770SOL    MW430854   0.329   3.059   3.617  0.2621  0.0320  0.5453
 7771SOL     OW30855   2.541   2.452   1.073 -0.3308 -0.5352  0.5005
 7771SOL    HW230856   2.592   2.524   1.035 -0.4569  0.5169  2.1986
 7771SOL    HW330857   2.555   2.378   1.013 -0.7035  1.0465 -1.6543
 7771SOL    MW430858   2.549   2.452   1.060 -0.5247 -0.7862  0.1978
 7772SOL     OW30859   0.722   0.557   5.915  0.1636  0.0846  0.6647
 7772SOL    HW230860   0.743   0.624   5.851  1.2141 -1.4846 -0.7332
 7772SOL    HW330861   0.748   0.594   5.999 -1.6118  2.3406  0.2957
 7772SOL    MW430862   0.728   0.570   5.918  0.7827 -0.2388  0.3882
 7773SOL     OW30863   4.127   0.560   1.123  0.4181  0.8852 -0.4714
 7773SOL    HW230864   4.114   0.637   1.067  2.4039  1.1755 -0.6032
 7773SOL    HW330865   4.159   0.595   1.206  2.5451  0.2185 -0.9268
 7773SOL    MW430866   4.130   0.575   1.126  0.7129  0.1045 -0.0646
 7774SOL     OW30867   2.424   3.708   5.852 -0.0010 -0.0722 -0.4394
 7774SOL    HW230868   2.419   3.748   5.939  0.5857 -0.3752 -0.2603
 7774SOL    HW330869   2.516   3.682   5.843 -0.0394  0.0428 -1.1899
 7774SOL    MW430870   2.436   3.710   5.862 -0.3185 -0.2577 -0.2248
 7775SOL     OW30871   0.391   5.791   0.517 -0.0235 -0.1748 -0.3767
 7775SOL    HW230872   0.329   5.845   0.567 -0.4851 -0.5022 -0.5905
 7775SOL    HW330873   0.372   5.701   0.544  0.3807 -0.2733 -0.4210
 7775SOL    MW430874   0.380   5.786   0.527  0.2712  0.1102 -0.2285
 7776SOL     OW30875   5.275   0.175   6.291 -0.2239  0.0863  0.0550
 7776SOL    HW230876   5.340   0.180   6.360 -1.5800 -1.1315  1.4936
 7776SOL    HW330877   5.280   0.084   6.260 -0.8836  0.1243 -0.1825
 7776SOL    MW430878   5.284   0.163   6.296 -0.5972 -0.1154  0.2566
 7777SOL     OW30879   5.379   2.422   0.297  0.1241  0.0349 -0.0879
 7777SOL    HW230880   5.385   2.329   0.319  3.3418  0.3094  0.6827
 7777SOL    HW330881   5.409   2.427   0.206  1.0601  0.3834  0.2257
 7777SOL    MW430882   5.384   2.410   0.288 -1.1352 -0.0692 -0.0615
 7778SOL     OW30883   1.991   6.063   2.237  0.3218 -0.0383 -0.2615
 7778SOL    HW230884   2.035   6.127   2.180  2.1027 -1.5353 -0.6542
 7778SOL    HW330885   2.048   6.056   2.313 -1.1028  0.5585  0.9109
 7778SOL    MW430886   2.004   6.071   2.239  0.2883  0.3623  0.5287
 7779SOL     OW30887   3.497   1.453   0.573  0.1335 -0.2177 -0.0929
 7779SOL    HW230888   3.568   1.500   0.529 -0.4158  0.8098  0.0698
 7779SOL    HW330889   3.431   1.439   0.505  0.8560 -2.0217 -0.4753
 7779SOL    MW430890   3.497   1.458   0.558  1.1022 -0.1001 -0.1481
 7780SOL     OW30891   2.784   6.275   0.649  0.2964  0.2223  0.3558
 7780SOL    HW230892   2.794   6.341   0.717 -0.4637  1.4568 -0.6841
 7780SOL    HW330893   2.868   6.276   0.602  0.5948 -0.1823  0.8704
 7780SOL    MW430894   2.797   6.284   0.652 -0.5488 -0.5139 -1.2121
 7781SOL     OW30895   0.070   2.546   4.785  0.7419 -0.0859 -0.2294
 7781SOL    HW230896   0.045   2.453   4.782 -0.3210  0.1953 -0.3556
 7781SOL    HW330897   0.061   2.576   4.695 -0.8440  0.6187  0.1407
 7781SOL    MW430898   0.065   2.538   4.773  0.2570 -0.3178 -0.1273
 7782SOL     OW30899   2.854   5.909   4.427 -0.2405 -0.0450  0.2135
 7782SOL    HW230900   2.896   5.864   4.353 -1.0916 -2.1704  0.9591
 7782SOL    HW330901   2.790   5.966   4.386  0.8616  0.5395 -0.7703
 7782SOL    MW430902   2.851   5.910   4.412 -0.4726  0.0666 -0.2121
 7783SOL     OW30903   4.410   2.329   2.633  0.6564 -0.5562 -0.1071
 7783SOL    HW230904   4.355   2.327   2.555  1.4537 -1.1167 -0.6726
 7783SOL    HW330905   4.472   2.400   2.616  0.6119 -0.4480  0.1799
 7783SOL    MW430906   4.411   2.338   2.620  0.0544 -0.8939 -0.5110
 7784SOL     OW30907   5.663   3.529   0.169 -0.2015 -0.2505  0.0352
 7784SOL    HW230908   5.682   3.584   0.244  0.2254 -1.3936  0.7941
 7784SOL    HW330909   5.714   3.567   0.097  0.0186  0.3801  0.5245
 7784SOL    MW430910   5.672   3.541   0.169 -0.9457 -0.7889 -0.7597
 7785SOL     OW30911   2.743   2.267   5.388  0.4592 -0.1041  0.2556
 7785SOL    HW230912   2.734   2.173   5.406  3.7731 -0.7368 -0.7339
 7785SOL    HW330913   2.687   2.282   5.312  0.4245 -1.4165 -0.0010
 7785SOL    MW430914   2.734   2.256   5.381  0.4530  0.5572  0.3285
 7786SOL     OW30915   2.418   5.621   3.345  0.0626 -0.4468 -0.1796
 7786SOL    HW230916   2.411   5.527   3.363 -0.6892 -0.1093  1.4750
 7786SOL    HW330917   2.419   5.662   3.431  1.3994  1.0318 -0.8444
 7786SOL    MW430918   2.417   5.614   3.359 -0.3202 -0.0406  0.2714
 7787SOL     OW30919   3.036   5.956   1.996 -0.0754 -0.2849  0.3440
 7787SOL    HW230920   3.001   5.895   2.060  1.8860 -0.3792  1.3858
 7787SOL    HW330921   2.965   6.019   1.982 -1.1008 -1.1647  1.3932
 7787SOL    MW430922   3.022   5.956   2.002  0.2766  0.2195  0.2071
 7788SOL     OW30923   4.722   4.766   6.077 -0.0382 -0.3856  0.0333
 7788SOL    HW230924   4.763   4.801   6.156 -0.0533 -2.1278  0.8653
 7788SOL    HW330925   4.629   4.763   6.099 -0.1903  0.2021 -0.5039
 7788SOL    MW430926   4.715   4.770   6.090 -0.7112 -0.3262  0.5028
 7789SOL     OW30927   6.393   2.277   1.025 -0.3716 -0.5232  0.2830
 7789SOL    HW230928   6.400   2.238   0.938 -0.7474 -0.0776  0.0522
 7789SOL    HW330929   6.456   2.228   1.078 -0.2308 -0.8781 -0.2075
 7789SOL    MW430930   6.402   2.266   1.020 -0.2946 -0.3236  0.3471
 7790SOL     OW30931   1.758   0.763   5.409 -0.0034 -0.2239  0.2349
 7790SOL    HW230932   1.762   0.675   5.448 -3.1603 -1.3560 -1.6185
 7790SOL    HW330933   1.676   0.799   5.441  1.3878  2.3080  1.2176
 7790SOL    MW430934   1.748   0.756   5.419  0.4629  0.4989  0.2279
 7791SOL     OW30935   1.168   5.786   5.965  0.0491 -0.2374  0.0410
 7791SOL    HW230936   1.111   5.831   6.027  1.3822  1.1987  0.2979
 7791SOL    HW330937   1.155   5.833   5.882  0.1516 -0.5120 -0.1333
 7791SOL    MW430938   1.159   5.798   5.962 -0.4273  0.2410 -0.5122
 7792SOL     OW30939   4.024   4.435   4.404  0.3508  0.3304 -0.7059
 7792SOL    HW230940   4.106   4.392   4.427 -0.0313  1.1276  2.8300
 7792SOL    HW330941   4.039   4.528   4.426 -0.9636  0.7897 -1.6206
 7792SOL    MW430942   4.037   4.442   4.410  1.2925  0.3836 -0.3568
 7793SOL     OW30943   0.566   5.189   4.449  0.2129  0.0804 -0.2276
 7793SOL    HW230944   0.512   5.135   4.507  1.4418 -0.2881  0.6226
 7793SOL    HW330945   0.561   5.277   4.486 -0.2748  0.1694 -0.5012
 7793SOL    MW430946   0.558   5.193   4.462 -0.1892 -0.4105  0.4070
 7794SOL     OW30947   0.951   4.366   1.835  0.1625  0.2725  0.4178
 7794SOL    HW230948   0.977   4.451   1.799 -0.7488  0.1831 -0.5073
 7794SOL    HW330949   0.926   4.314   1.758 -1.4763 -0.0626  1.1217
 7794SOL    MW430950   0.951   4.370   1.820 -0.3872  0.3042  0.2219
 7795SOL     OW30951   5.662   0.076   2.392  0.1835  0.9463 -0.1921
 7795SOL    HW230952   5.693  -0.014   2.389 -0.9830  0.5382 -1.6211
 7795SOL    HW330953   5.571   0.069   2.422 -0.4079  1.4485 -1.7429
 7795SOL    MW430954   5.654   0.063   2.395  0.4043 -0.6857 -0.4348
 7796SOL     OW30955   4.484   2.951   4.737  0.3286 -0.5219  0.7377
 7796SOL    HW230956   4.560   2.943   4.794  0.6683  4.0149  1.3493
 7796SOL    HW330957   4.414   2.980   4.796  0.4529  3.4111 -0.7076
 7796SOL    MW430958   4.484   2.954   4.752 -0.2425 -0.2366 -0.0586
 7797SOL     OW30959   1.711   6.152   3.487 -0.2482  0.4142  0.3374
 7797SOL    HW230960   1.693   6.238   3.525  2.2146  0.8109  0.7697
 7797SOL    HW330961   1.703   6.166   3.392 -3.5303  0.1207  0.4538
 7797SOL    MW430962   1.708   6.165   3.479 -0.2964  0.3761  0.2773
 7798SOL     OW30963   2.788   6.080   4.994  0.5400  0.2006  0.2395
 7798SOL    HW230964   2.747   6.117   5.072  0.7822 -1.3597  1.1499
 7798SOL    HW330965   2.779   6.148   4.927 -0.6683  1.1300  1.3068
 7798SOL    MW430966   2.781   6.094   4.995  0.2324 -0.0777  0.1495
 7799SOL     OW30967   2.690   3.278   2.702 -0.2237 -0.0303  0.1282
 7799SOL    HW230968   2.631   3.352   2.721  0.5299  0.3438  1.1520
 7799SOL    HW330969   2.734   3.261   2.786  0.6383 -0.7277 -0.4475
 7799SOL    MW430970   2.688   3.286   2.716 -0.1524 -0.3359 -0.3428
 7800SOL     OW30971   3.130   0.272   0.200  0.1769  0.0519  0.0405
 7800SOL    HW230972   3.127   0.264   0.105 -3.3370  1.2314 -0.1282
 7800SOL    HW330973   3.102   0.362   0.217 -1.8170 -0.8642  2.1614
 7800SOL    MW430974   3.126   0.283   0.190  0.3563 -0.5017  0.6472
 7801SOL     OW30975   5.014   5.106   4.592 -0.7437  0.5616 -0.1136
 7801SOL    HW230976   4.946   5.040   4.603 -0.3884  0.3075  0.6663
 7801SOL    HW330977   5.096   5.060   4.614 -0.4064  1.0557 -0.3135
 7801SOL    MW430978   5.016   5.091   4.596 -0.3432 -0.3594  0.3181
 7802SOL     OW30979   5.330   5.563   0.240  0.2450 -0.7438 -0.0374
 7802SOL    HW230980   5.252   5.614   0.217  1.3480  1.2008  0.2615
 7802SOL    HW330981   5.344   5.505   0.166  0.8052  1.7589 -2.0233
 7802SOL    MW430982   5.321   5.562   0.227  0.3495 -0.0999 -0.4061
 7803SOL     OW30983   2.478   4.318   1.755 -0.9089 -0.0462  0.3060
 7803SOL    HW230984   2.528   4.394   1.725 -0.5758 -0.7537 -0.9973
 7803SOL    HW330985   2.525   4.287   1.833  0.0385 -0.0238 -0.2422
 7803SOL    MW430986   2.491   4.324   1.761  0.3114  0.0609  0.7618
 7804SOL     OW30987   3.628   3.464   2.372 -0.9983  0.2419 -0.2875
 7804SOL    HW230988   3.559   3.398   2.372 -0.0598 -0.8680  1.7125
 7804SOL    HW330989   3.641   3.484   2.465  1.5380  0.1520 -0.5493
 7804SOL    MW430990   3.621   3.458   2.384  0.2395 -0.6781  0.2071
 7805SOL     OW30991   1.994   4.783   4.863 -0.9389 -0.1731 -0.1139
 7805SOL    HW230992   2.072   4.799   4.810 -0.6760  0.5017  0.4664
 7805SOL    HW330993   2.010   4.830   4.945 -2.0497  0.1816 -0.0802
 7805SOL    MW430994   2.006   4.791   4.867  0.1282  0.7209  0.3342
 7806SOL     OW30995   1.212   3.461   0.915  0.1454  0.3690 -0.5062
 7806SOL    HW230996   1.132   3.483   0.964  0.4354  0.9051 -0.2592
 7806SOL    HW330997   1.232   3.371   0.940  0.8481  0.9524  1.1803
 7806SOL    MW430998   1.204   3.452   0.925 -0.2441 -0.1185  0.5397
 7807SOL     OW30999   1.768   4.737   5.501  0.3099  0.0181  0.3633
 7807SOL    HW231000   1.730   4.652   5.521  0.0946  0.1363  0.4601
 7807SOL    HW331001   1.846   4.717   5.449  0.4865 -0.2589  0.7280
 7807SOL    MW431002   1.773   4.723   5.497 -0.3468  0.2024 -0.1724
 7808SOL     OW31003   4.296   2.442   3.454 -0.6418  0.1689  0.0023
 7808SOL    HW231004   4.358   2.449   3.527 -2.0518  0.7897  1.1833
 7808SOL    HW331005   4.345   2.395   3.386  0.5799 -0.8057  1.4831
 7808SOL    MW431006   4.311   2.437   3.455  0.1315 -0.3627 -0.1120
 7809SOL     OW31007   3.656   2.721   4.632  0.3374  0.5412 -0.1552
 7809SOL    HW231008   3.597   2.791   4.604 -0.4184  1.4240  3.1426
 7809SOL    HW331009   3.743   2.751   4.607 -0.0553  2.3484  0.4951
 7809SOL    MW431010   3.660   2.734   4.625  0.5305 -0.3621 -0.2351
 7810SOL     OW31011   1.789   1.898   5.262  1.0503  0.3276  0.0588
 7810SOL    HW231012   1.784   1.978   5.315 -0.9489  0.9780 -0.9649
 7810SOL    HW331013   1.771   1.827   5.323 -0.1462  0.9748  0.5036
 7810SOL    MW431014   1.786   1.900   5.277 -0.3876  0.4133 -0.1954
 7811SOL     OW31015   0.714   1.551   4.058  0.5220  0.4262  0.2393
 7811SOL    HW231016   0.661   1.500   4.119 -2.8723  0.7699 -2.1554
 7811SOL    HW331017   0.763   1.486   4.009  0.6598 -0.0841  1.0379
 7811SOL    MW431018   0.713   1.536   4.059 -0.1909 -0.5210 -0.2955
 7812SOL     OW31019   0.850   5.581   1.723 -0.3127  0.0633  0.1474
 7812SOL    HW231020   0.773   5.596   1.778 -0.4225  0.9104 -0.2352
 7812SOL    HW331021   0.860   5.661   1.672  1.2408  0.2462  0.6871
 7812SOL    MW431022   0.841   5.593   1.724 -0.7367 -0.0276  0.1771
 7813SOL     OW31023   1.903   5.985   3.803 -0.2692 -0.0941  0.3252
 7813SOL    HW231024   1.972   5.963   3.741  0.2338  0.0185  0.8426
 7813SOL    HW331025   1.947   5.989   3.888 -0.1475  3.5272  0.2420
 7813SOL    MW431026   1.918   5.982   3.806 -0.7509 -0.1786 -0.4173
 7814SOL     OW31027   4.270   5.402   0.253  0.0674  0.4743  0.4029
 7814SOL    HW231028   4.205   5.382   0.320 -1.4778 -0.8079 -1.3726
 7814SOL    HW331029   4.322   5.323   0.246  0.1704  0.5737  0.0405
 7814SOL    MW431030   4.268   5.389   0.261 -0.3367  0.0289  0.3869
 7815SOL     OW31031   5.407   5.541   1.473  0.2805  0.0753 -0.0141
 7815SOL    HW231032   5.460   5.620   1.482 -0.3942  0.5369 -0.0252
 7815SOL    HW331033   5.412   5.519   1.380  0.1481  0.3327 -0.0815
 7815SOL    MW431034   5.415   5.548   1.462 -0.1787 -0.2497 -0.2875
 7816SOL     OW31035   0.606   2.505   2.197  0.1992  0.1290  1.1581
 7816SOL    HW231036   0.659   2.459   2.132 -0.3338 -0.0790  0.8598
 7816SOL    HW331037   0.601   2.445   2.271  1.9860  0.9381  1.9912
 7816SOL    MW431038   0.612   2.491   2.198 -0.1775  0.4946 -0.3926
 7817SOL     OW31039   2.297   3.086   1.220  0.0221 -0.4214  0.1178
 7817SOL    HW231040   2.291   3.014   1.283  0.9300 -0.6379 -0.0249
 7817SOL    HW331041   2.279   3.044   1.135 -1.1101 -0.1483  0.2056
 7817SOL    MW431042   2.294   3.071   1.217  0.0944  0.4788  0.0479
 7818SOL     OW31043   5.434   2.050   6.365 -0.2658 -0.4289  0.4825
 7818SOL    HW231044   5.464   2.071   6.277  0.1268  1.6654  1.0754
 7818SOL    HW331045   5.369   1.981   6.352 -0.4662  0.0675 -1.4658
 7818SOL    MW431046   5.430   2.043   6.352 -0.0083  0.1097 -0.3730
 7819SOL     OW31047   5.269   6.168   5.260  0.0763 -0.9332  0.4273
 7819SOL    HW231048   5.265   6.157   5.165 -0.6131 -1.2574  0.4862
 7819SOL    HW331049   5.205   6.236   5.280 -0.3591 -1.4215  0.7335
 7819SOL    MW431050   5.260   6.175   5.250 -0.3379  0.6178 -0.1393
 7820SOL     OW31051   2.052   4.995   5.035 -0.1428 -0.5694  0.1609
 7820SOL    HW231052   2.108   5.029   5.105 -2.2850  2.6841  0.5119
 7820SOL    HW331053   2.081   5.041   4.957 -2.6636  1.8057  0.5017
 7820SOL    MW431054   2.064   5.005   5.034  0.0752  0.5670 -0.0361
 7821SOL     OW31055   4.462   0.058   2.446 -0.2925  0.2984  0.4687
 7821SOL    HW231056   4.490   0.150   2.450  0.4691  0.1157 -0.2258
 7821SOL    HW331057   4.516   0.020   2.377 -1.7986 -0.2571 -0.4643
 7821SOL    MW431058   4.473   0.065   2.437 -0.3487 -0.0299 -0.0429
 7822SOL     OW31059   2.917   2.557   1.186  0.1290  0.2928 -0.0406
 7822SOL    HW231060   2.928   2.628   1.123  0.4402  0.9173  0.7150
 7822SOL    HW331061   2.995   2.562   1.242  0.2518 -0.7578 -0.0907
 7822SOL    MW431062   2.929   2.567   1.185 -0.5944 -0.1641  1.0414
 7823SOL     OW31063   6.108   5.806   1.837  0.2156  0.1909  0.2484
 7823SOL    HW231064   6.073   5.769   1.756  0.5895  1.0667 -0.3171
 7823SOL    HW331065   6.183   5.751   1.858 -1.8082 -2.2048  1.8900
 7823SOL    MW431066   6.113   5.794   1.829 -0.1396  0.1264  0.2199
 7824SOL     OW31067   6.329   5.138   0.014 -0.4528 -0.0943  0.0066
 7824SOL    HW231068   6.324   5.120   0.108 -1.4534 -0.3680 -0.0884
 7824SOL    HW331069   6.420   5.162  -0.001 -0.3353  0.1879  1.0918
 7824SOL    MW431070   6.340   5.139   0.025 -0.3156  0.1775 -0.7238
 7825SOL     OW31071   0.108   6.081   1.013 -0.1437  0.2789  0.5832
 7825SOL    HW231072   0.162   6.058   1.088 -0.5869 -1.1882  0.4644
 7825SOL    HW331073   0.042   6.013   1.008 -0.1719  0.3871 -1.0972
 7825SOL    MW431074   0.107   6.069   1.022 -0.1999  0.1151 -0.4605
 7826SOL     OW31075   5.936   5.110   0.564 -1.2064  0.0708 -0.3818
 7826SOL    HW231076   5.965   5.133   0.652  0.1203  0.4595 -0.8989
 7826SOL    HW331077   5.903   5.192   0.527 -2.0687 -0.1608 -0.1420
 7826SOL    MW431078   5.936   5.123   0.571  0.3463  0.4619  0.5063
 7827SOL     OW31079   2.748   5.764   4.106 -0.3700  0.5991 -0.1395
 7827SOL    HW231080   2.779   5.703   4.039  0.4197 -0.0268  0.7753
 7827SOL    HW331081   2.711   5.708   4.174 -1.3395  1.2387 -0.1212
 7827SOL    MW431082   2.747   5.749   4.106 -0.7421  0.4225 -0.2760
 7828SOL     OW31083   2.685   4.844   5.253  0.0957 -0.1854 -0.0426
 7828SOL    HW231084   2.606   4.884   5.289 -0.4120 -0.1094 -1.1876
 7828SOL    HW331085   2.745   4.917   5.239  0.4000 -0.2506  0.8863
 7828SOL    MW431086   2.682   4.859   5.256 -0.1503 -0.0450  0.1821
 7829SOL     OW31087   3.505   1.285   1.140 -0.2430  0.2454  0.0502
 7829SOL    HW231088   3.435   1.344   1.167  0.4639  0.3049  1.9018
 7829SOL    HW331089   3.576   1.343   1.112 -0.2721  0.2284 -0.0588
 7829SOL    MW431090   3.506   1.300   1.140 -0.3838  0.0213  0.5669
 7830SOL     OW31091   5.652   5.328   6.205  0.3139  0.0693  0.3350
 7830SOL    HW231092   5.747   5.332   6.218  0.1988  0.1811  1.2483
 7830SOL    HW331093   5.637   5.244   6.162  0.7699 -0.2698  0.8122
 7830SOL    MW431094   5.663   5.318   6.201  0.3363 -0.1550  0.2381
 7831SOL     OW31095   4.628   4.781   3.331  0.2949  0.1155  0.2128
 7831SOL    HW231096   4.644   4.735   3.248  0.8053  0.5129  0.0775
 7831SOL    HW331097   4.605   4.870   3.304  1.9254  0.6718  0.5027
 7831SOL    MW431098   4.627   4.787   3.316 -0.6732 -0.0184 -0.1447
 7832SOL     OW31099   0.463   3.257   4.972 -0.2302  0.0303  0.8674
 7832SOL    HW231100   0.403   3.192   4.935  0.8266 -0.6607  0.3167
 7832SOL    HW331101   0.412   3.337   4.975 -0.8800 -0.2916 -0.5451
 7832SOL    MW431102   0.448   3.259   4.967  0.3695  0.6943 -0.7203
 7833SOL     OW31103   6.391   1.893   5.645  0.0228  0.2162  0.0153
 7833SOL    HW231104   6.405   1.810   5.600 -1.1388  0.5987 -1.0970
 7833SOL    HW331105   6.304   1.884   5.684 -0.4860  1.2386 -0.8635
 7833SOL    MW431106   6.382   1.881   5.644  0.0028 -0.3902  0.2049
 7834SOL     OW31107   5.659   6.032   0.932  0.1167 -0.5594 -0.1393
 7834SOL    HW231108   5.734   6.047   0.875 -2.0182  1.4250 -2.7592
 7834SOL    HW331109   5.646   5.937   0.932  1.2856 -0.7458 -1.4981
 7834SOL    MW431110   5.667   6.022   0.924 -0.4642  0.1097 -0.0203
 7835SOL     OW31111   2.801   3.136   5.540  0.2704 -0.9252 -0.0184
 7835SOL    HW231112   2.745   3.163   5.613 -0.2247  1.5624 -1.1982
 7835SOL    HW331113   2.741   3.097   5.477  0.3725 -1.1656  0.0325
 7835SOL    MW431114   2.786   3.134   5.542 -0.5530 -0.3966  0.3306
 7836SOL     OW31115   4.766   2.558   2.991 -0.2887 -0.0974  0.5251
 7836SOL    HW231116   4.677   2.582   3.014  0.7657  2.3307  2.4747
 7836SOL    HW331117   4.787   2.612   2.915  0.3082  1.3249  1.6501
 7836SOL    MW431118   4.757   2.568   2.984 -0.1761  0.5466  0.0889
 7837SOL     OW31119   4.730   5.884   3.296 -0.0115  0.0880  0.3867
 7837SOL    HW231120   4.666   5.911   3.361  0.6257 -0.7100  1.3846
 7837SOL    HW331121   4.815   5.898   3.339  0.3887 -1.3550  0.1108
 7837SOL    MW431122   4.733   5.889   3.310  0.1851 -0.7404  0.4574
 7838SOL     OW31123   5.471   4.022   4.135 -0.1534  0.1609  0.0654
 7838SOL    HW231124   5.514   3.962   4.074 -0.6774 -1.2671  1.0201
 7838SOL    HW331125   5.418   3.964   4.191 -0.4802  1.5105  1.2049
 7838SOL    MW431126   5.470   4.006   4.135  0.0827 -0.3601  0.1029
 7839SOL     OW31127   1.002   3.478   1.085  0.1339 -0.2979 -0.2919
 7839SOL    HW231128   0.908   3.472   1.068  0.0953  0.9850 -0.6841
 7839SOL    HW331129   1.014   3.568   1.115  1.4468  0.0528 -1.7605
 7839SOL    MW431130   0.991   3.489   1.087  0.1313  0.5064  0.4793
 7840SOL     OW31131   5.592   2.109   5.931  0.2692  0.1560  0.7406
 7840SOL    HW231132   5.571   2.023   5.895  0.3238  1.1890 -1.9598
 7840SOL    HW331133   5.669   2.094   5.985  0.1054 -1.5223  0.5662
 7840SOL    MW431134   5.599   2.095   5.933  0.1590  0.0884  0.4452
 7841SOL     OW31135   5.274   4.058   1.899  0.1211  0.2206  0.2168
 7841SOL    HW231136   5.324   4.109   1.963  1.9945 -0.0413 -0.9642
 7841SOL    HW331137   5.255   3.976   1.943  1.5973 -0.0503  0.3858
 7841SOL    MW431138   5.278   4.054   1.913  0.3707  0.0085  0.0050
 7842SOL     OW31139   1.642   0.496   0.600 -0.0882 -0.1845  0.2044
 7842SOL    HW231140   1.662   0.438   0.673  0.0656  0.1777  0.4552
 7842SOL    HW331141   1.667   0.583   0.631 -0.3428  0.0209 -0.1530
 7842SOL    MW431142   1.648   0.500   0.614 -0.3654  0.0509  0.2675
 7843SOL     OW31143   0.610   0.727   2.197  0.2562  0.7076 -0.1743
 7843SOL    HW231144   0.696   0.697   2.168  0.9196  1.9556  0.4402
 7843SOL    HW331145   0.607   0.704   2.290 -0.1521  0.5124 -0.2328
 7843SOL    MW431146   0.621   0.720   2.205  0.7101  0.5882 -0.3680
 7844SOL     OW31147   1.903   0.070   1.686 -0.4459 -0.0485  0.3313
 7844SOL    HW231148   1.994   0.044   1.699  0.3043  1.5526 -1.2611
 7844SOL    HW331149   1.881   0.123   1.762 -0.0098 -0.3233  0.6514
 7844SOL    MW431150   1.912   0.073   1.698  0.5138  0.5775 -0.0366
 7845SOL     OW31151   4.216   3.865   1.043 -0.1615  0.0003 -0.0902
 7845SOL    HW231152   4.136   3.903   1.078  0.3534  0.8287  0.2259
 7845SOL    HW331153   4.269   3.845   1.121 -0.4386 -1.4336 -0.2479
 7845SOL    MW431154   4.213   3.867   1.058 -0.2868 -0.1213  0.0158
 7846SOL     OW31155   4.009   2.340   6.329  0.4786 -0.4138  1.1211
 7846SOL    HW231156   4.035   2.429   6.305 -1.4654  0.8803  3.4153
 7846SOL    HW331157   4.066   2.316   6.402  2.2221 -1.8834 -0.6005
 7846SOL    MW431158   4.020   2.348   6.335 -0.0337 -0.6607  0.4555
 7847SOL     OW31159   4.967   4.125   6.008  0.1773 -0.5104 -0.1824
 7847SOL    HW231160   4.894   4.108   5.950  0.4236 -0.3600 -0.5407
 7847SOL    HW331161   5.045   4.102   5.957  0.5583  1.9118 -0.8108
 7847SOL    MW431162   4.968   4.120   5.994 -0.1294  0.2289  0.0671
 7848SOL     OW31163   5.044   5.849   1.960  0.1650 -0.0160 -0.1365
 7848SOL    HW231164   5.031   5.756   1.941  0.7665 -0.4369  1.3676
 7848SOL    HW331165   4.982   5.869   2.030  1.1046  0.3037  0.6333
 7848SOL    MW431166   5.034   5.840   1.967  0.3694  0.5445  0.0547
 7849SOL     OW31167   0.835   6.250   1.773  0.1784 -0.4571  0.5377
 7849SOL    HW231168   0.855   6.170   1.821 -0.2215 -0.6908  0.3204
 7849SOL    HW331169   0.740   6.251   1.765  0.2628 -0.6467 -0.6188
 7849SOL    MW431170   0.825   6.240   1.778 -0.2574  0.0305  0.8722
 7850SOL     OW31171   5.322   6.080   2.406 -0.1282  0.2909 -0.5348
 7850SOL    HW231172   5.326   5.994   2.365 -0.9030  0.4561 -0.9753
 7850SOL    HW331173   5.384   6.133   2.356  2.2339 -0.5892  1.2566
 7850SOL    MW431174   5.331   6.076   2.394 -0.1875 -0.2081  0.3750
 7851SOL     OW31175   5.864   3.602   1.797  0.0925 -0.4274  0.3976
 7851SOL    HW231176   5.885   3.583   1.888  0.8797 -1.0956  0.0940
 7851SOL    HW331177   5.777   3.564   1.784 -0.3540  0.3288  1.0552
 7851SOL    MW431178   5.855   3.594   1.807  0.1188 -0.5723 -0.3187
 7852SOL     OW31179   2.635   2.238   1.276 -0.4252  0.5597 -0.6411
 7852SOL    HW231180   2.629   2.259   1.183 -0.1786 -1.0047 -1.0405
 7852SOL    HW331181   2.567   2.172   1.290  0.0277  0.2411  0.1296
 7852SOL    MW431182   2.625   2.232   1.266 -0.1903 -0.3344  0.3631
 7853SOL     OW31183   2.253   3.479   2.638  0.2729  0.1942  1.1879
 7853SOL    HW231184   2.338   3.483   2.681  1.0609 -1.2798 -0.1473
 7853SOL    HW331185   2.261   3.539   2.563  0.8011 -1.2627  0.0309
 7853SOL    MW431186   2.265   3.487   2.634 -0.8403  0.1460  0.0697
 7854SOL     OW31187   0.291   3.907   5.249 -0.4064  0.0648 -0.1853
 7854SOL    HW231188   0.350   3.976   5.279  1.5107 -1.2310 -0.7969
 7854SOL    HW331189   0.214   3.953   5.216  0.7881  1.8981 -0.5195
 7854SOL    MW431190   0.288   3.922   5.249 -0.1163  0.0162 -0.0509
 7855SOL     OW31191   5.104   5.660   3.238  0.1184  0.1260 -0.1077
 7855SOL    HW231192   5.077   5.751   3.250  0.2539  0.2218 -0.5087
 7855SOL    HW331193   5.120   5.652   3.144 -0.4989 -0.4821 -0.1720
 7855SOL    MW431194   5.102   5.670   3.227  0.3397  0.2235  0.1702
 7856SOL     OW31195   4.841   0.561   6.132  0.0508 -0.0744  0.3339
 7856SOL    HW231196   4.892   0.579   6.211  0.8595  0.2521 -0.2444
 7856SOL    HW331197   4.752   0.588   6.154 -0.1044 -1.5366  1.6918
 7856SOL    MW431198   4.836   0.567   6.145 -0.1585  0.1927 -0.6265
 7857SOL     OW31199   2.705   0.640   4.895  0.3306  0.6220  0.9475
 7857SOL    HW231200   2.709   0.608   4.805  0.4579 -0.1114  1.2044
 7857SOL    HW331201   2.612   0.650   4.913  0.2453 -0.3106  1.0906
 7857SOL    MW431202   2.694   0.637   4.886 -0.1783 -0.1515  0.4046
 7858SOL     OW31203   2.020   0.434   6.325  0.1204  0.5955  0.7107
 7858SOL    HW231204   2.028   0.528   6.309  0.5038  0.3547 -0.5594
 7858SOL    HW331205   1.927   0.422   6.348 -0.3658  1.0479 -0.8912
 7858SOL    MW431206   2.009   0.445   6.326 -0.1723 -0.2410 -0.8152
 7859SOL     OW31207   5.709   0.794   5.529 -0.4223 -0.4279  0.4572
 7859SOL    HW231208   5.692   0.848   5.452  1.6634  1.7511  1.3759
 7859SOL    HW331209   5.659   0.836   5.599  2.4953  1.5897  1.5543
 7859SOL    MW431210   5.700   0.807   5.529  1.2066 -0.3839 -0.5791
 7860SOL     OW31211   0.993   3.222   3.092 -0.1779  0.3717  0.4127
 7860SOL    HW231212   1.070   3.179   3.129 -0.6863 -0.3887  0.6280
 7860SOL    HW331213   1.003   3.314   3.113  2.0203  0.7664 -1.8956
 7860SOL    MW431214   1.004   3.228   3.100  0.2044  0.0289 -0.1294
 7861SOL     OW31215   6.019   0.055   0.653 -0.5468  0.2583 -0.4972
 7861SOL    HW231216   5.941   0.109   0.663  0.0055  0.8719  0.7393
 7861SOL    HW331217   6.082   0.112   0.609 -0.1801  0.4133  0.2165
 7861SOL    MW431218   6.017   0.069   0.649  0.3189 -0.0320  0.1414
 7862SOL     OW31219   5.895   2.478   2.866 -0.0036 -0.4943  0.0271
 7862SOL    HW231220   5.843   2.526   2.931  1.1994  0.5686  0.2427
 7862SOL    HW331221   5.870   2.386   2.878 -1.1958 -0.1035  0.6883
 7862SOL    MW431222   5.885   2.472   2.876  0.8366 -0.3515  0.2572
 7863SOL     OW31223   4.847   3.263   0.055 -0.1076  0.2516  0.2367
 7863SOL    HW231224   4.789   3.326   0.014 -1.5178 -0.9806  0.2602
 7863SOL    HW331225   4.856   3.293   0.145  0.1383  1.0204 -0.0427
 7863SOL    MW431226   4.841   3.275   0.061  0.4923  0.8582  0.8477
 7864SOL     OW31227   4.995   5.425   3.632 -0.4510  0.0402  0.0520
 7864SOL    HW231228   5.072   5.483   3.628 -1.7651  1.9955  1.2010
 7864SOL    HW331229   4.925   5.481   3.666 -1.8863 -2.2091  1.0204
 7864SOL    MW431230   4.996   5.440   3.636 -0.2616  0.5060 -0.0202
 7865SOL     OW31231   2.480   0.217   4.955  0.1285 -0.4164  0.2838
 7865SOL    HW231232   2.437   0.250   5.034  0.9638 -2.3518  1.6261
 7865SOL    HW331233   2.568   0.254   4.957  1.5915 -3.5341  2.5932
 7865SOL    MW431234   2.486   0.226   4.966 -0.0561 -0.4200 -0.1123
 7866SOL     OW31235   1.136   5.921   2.405  0.0075 -0.0259  0.2698
 7866SOL    HW231236   1.059   5.876   2.440 -0.8286  2.1162  1.3413
 7866SOL    HW331237   1.209   5.889   2.457 -0.2798 -1.3281 -0.0875
 7866SOL    MW431238   1.135   5.911   2.416  0.0077 -0.0591 -0.3799
 7867SOL     OW31239   1.415   1.881   0.890  0.1239  0.0568  0.4181
 7867SOL    HW231240   1.502   1.920   0.876  0.0479  0.0409 -0.1287
 7867SOL    HW331241   1.354   1.947   0.857  0.0556 -1.2694 -2.4023
 7867SOL    MW431242   1.419   1.895   0.884  0.1577  0.4588  0.4551
 7868SOL     OW31243   0.016   1.000   3.676 -0.0042 -0.8746 -0.5525
 7868SOL    HW231244  -0.029   1.081   3.701  0.2201 -0.9492  0.1078
 7868SOL    HW331245  -0.035   0.930   3.718 -0.9385 -1.1954 -2.1298
 7868SOL    MW431246   0.003   1.001   3.684  0.0360  0.5221 -0.2211
 7869SOL     OW31247   2.698   1.305   4.531 -0.0756  0.3624 -0.0826
 7869SOL    HW231248   2.647   1.357   4.470  1.0686  1.2070 -0.3473
 7869SOL    HW331249   2.725   1.228   4.481 -0.7711  0.0867 -0.0438
 7869SOL    MW431250   2.695   1.301   4.516  0.3189  0.0156 -0.1991
 7870SOL     OW31251   4.950   4.637   0.288  0.0947 -0.6053 -0.0145
 7870SOL    HW231252   4.977   4.720   0.327  1.1698 -1.5159  1.2494
 7870SOL    HW331253   4.984   4.570   0.347 -0.4054 -1.9708 -1.2169
 7870SOL    MW431254   4.958   4.639   0.301  0.4949  0.0962 -0.3524
 7871SOL     OW31255   1.382   1.519   0.901  0.2745  0.1839  0.0141
 7871SOL    HW231256   1.403   1.545   0.991  0.4513  0.8393 -0.2103
 7871SOL    HW331257   1.452   1.558   0.848  1.4795 -2.0615 -0.1948
 7871SOL    MW431258   1.394   1.528   0.906  0.8873  0.0586 -0.1061
 7872SOL     OW31259   4.154   3.603   0.986 -0.3012  0.5639 -0.1795
 7872SOL    HW231260   4.063   3.620   0.961 -0.1920  0.6083 -0.5631
 7872SOL    HW331261   4.193   3.690   0.995 -0.4974  0.5599  0.7636
 7872SOL    MW431262   4.147   3.617   0.984  0.2274 -0.6853 -0.4459
 7873SOL     OW31263   1.002   4.481   2.939 -0.4949 -0.1912  0.7321
 7873SOL    HW231264   0.931   4.540   2.913  0.9049  0.3640 -2.2895
 7873SOL    HW331265   0.982   4.399   2.893  0.2648 -0.3709  0.7222
 7873SOL    MW431266   0.990   4.478   2.929 -0.5066 -0.0679 -0.4502
 7874SOL     OW31267   5.388   2.790   0.144  0.1111 -0.9281  0.6930
 7874SOL    HW231268   5.321   2.798   0.076  0.5118 -3.7532 -0.1340
 7874SOL    HW331269   5.339   2.799   0.227 -0.7474  0.1364  0.1088
 7874SOL    MW431270   5.372   2.792   0.146 -0.3690 -0.3806 -0.4561
 7875SOL     OW31271   0.426   1.169   6.258  0.0080  0.0713  0.7171
 7875SOL    HW231272   0.338   1.158   6.294  0.4299 -0.0877  1.7431
 7875SOL    HW331273   0.456   1.080   6.239 -1.7920  0.2100 -4.2050
 7875SOL    MW431274   0.418   1.156   6.260 -0.7676 -0.4762  0.0578
 7876SOL     OW31275   5.548   5.672   0.057 -0.2427 -0.3316  0.2205
 7876SOL    HW231276   5.467   5.659   0.105 -0.0856 -0.6142  0.4076
 7876SOL    HW331277   5.606   5.716   0.120 -0.5930  0.8345 -0.2345
 7876SOL    MW431278   5.545   5.676   0.072 -1.1655 -0.3382  0.5922
 7877SOL     OW31279   3.393   3.843   1.951  0.3153 -0.1277  0.3744
 7877SOL    HW231280   3.394   3.748   1.937 -0.5653 -0.0678 -0.1763
 7877SOL    HW331281   3.373   3.880   1.865  0.3810  0.5411  0.6417
 7877SOL    MW431282   3.390   3.835   1.938  0.1730  0.1612 -0.6618
 7878SOL     OW31283   1.463   3.082   2.095  0.2282  0.7730  0.0878
 7878SOL    HW231284   1.516   3.139   2.040 -0.2518 -0.7956 -2.1389
 7878SOL    HW331285   1.468   2.996   2.053 -1.9498 -0.0266  1.2753
 7878SOL    MW431286   1.471   3.078   2.082  0.2758 -0.2972 -0.2534
 7879SOL     OW31287   4.608   5.068   5.213 -0.1786 -0.2181  0.2357
 7879SOL    HW231288   4.574   5.012   5.283 -0.2046 -0.7532 -0.2000
 7879SOL    HW331289   4.658   5.008   5.157 -1.2166 -0.0478 -0.9138
 7879SOL    MW431290   4.610   5.052   5.215  0.0466  0.4938 -0.7085
 7880SOL     OW31291   0.971   1.133   6.200  0.3152  0.3707 -0.1176
 7880SOL    HW231292   0.962   1.228   6.186  0.2332  0.3243 -0.3930
 7880SOL    HW331293   1.059   1.122   6.235  1.8174  0.2022 -3.5302
 7880SOL    MW431294   0.981   1.144   6.202  0.4980 -0.0761 -0.0418
 7881SOL     OW31295   4.145   3.519   1.923  0.7579  0.2184 -0.3290
 7881SOL    HW231296   4.147   3.611   1.949 -0.4706 -0.3695  2.1459
 7881SOL    HW331297   4.231   3.503   1.883  1.1289  2.3066 -0.4772
 7881SOL    MW431298   4.157   3.529   1.921 -0.6868  0.3679  0.7125
 7882SOL     OW31299   2.278   3.054   0.936 -0.1866  0.0089 -0.8669
 7882SOL    HW231300   2.229   3.011   0.866  0.1550 -0.9007 -0.5617
 7882SOL    HW331301   2.301   3.140   0.900  1.0022 -0.8625 -2.3321
 7882SOL    MW431302   2.275   3.059   0.922 -0.0383 -0.0273 -0.2038
 7883SOL     OW31303   1.607   3.915   3.577 -0.0376  0.5511 -0.3364
 7883SOL    HW231304   1.533   3.878   3.626 -0.6246  1.6721 -0.3329
 7883SOL    HW331305   1.674   3.846   3.578 -1.1452 -0.5607 -0.5065
 7883SOL    MW431306   1.606   3.901   3.584 -0.5909 -0.1279  0.2409
 7884SOL     OW31307   5.068   5.084   3.358  0.1680 -0.2505 -0.8021
 7884SOL    HW231308   5.089   5.016   3.423 -2.2538 -0.8481 -0.5554
 7884SOL    HW331309   5.015   5.039   3.292  0.0571  1.0209 -1.6184
 7884SOL    MW431310   5.064   5.069   3.358  0.0319  0.4733 -0.1620
 7885SOL     OW31311   5.845   3.253   5.476  0.5833 -0.2204 -0.6532
 7885SOL    HW231312   5.868   3.160   5.468  0.6456 -0.0860 -2.4286
 7885SOL    HW331313   5.926   3.300   5.455  0.6273  0.2660  0.5092
 7885SOL    MW431314   5.859   3.247   5.472 -0.4365 -0.4365 -0.4873
 7886SOL     OW31315   2.147   3.901   3.174 -0.3692  0.0002 -0.2975
 7886SOL    HW231316   2.159   3.930   3.084 -1.4952  1.0742 -0.1276
 7886SOL    HW331317   2.235   3.879   3.204 -0.0228 -0.6476 -1.7425
 7886SOL    MW431318   2.160   3.902   3.166 -0.0203  0.5504 -0.3060
 7887SOL     OW31319   6.355   3.791   5.961  0.1473  0.2444  0.2795
 7887SOL    HW231320   6.408   3.855   6.009  0.3857  1.0798 -1.0374
 7887SOL    HW331321   6.412   3.763   5.889 -0.3862 -0.5740  0.1658
 7887SOL    MW431322   6.370   3.796   5.958  0.5537 -0.2238  0.8710
 7888SOL     OW31323   2.974   5.105   0.284 -0.3915 -0.5255 -0.6269
 7888SOL    HW231324   3.065   5.109   0.315  0.2317 -1.3313 -2.2339
 7888SOL    HW331325   2.961   5.014   0.260 -1.5907 -0.3798 -0.5766
 7888SOL    MW431326   2.984   5.094   0.285  0.0017 -1.0359  0.0341
 7889SOL     OW31327   1.894   4.017   1.525 -0.2587  0.8516 -0.4684
 7889SOL    HW231328   1.871   3.936   1.568  1.1007  1.0733  0.7525
 7889SOL    HW331329   1.900   3.994   1.432  1.3896 -0.8020 -0.0259
 7889SOL    MW431330   1.892   4.004   1.518  0.2244 -0.6004 -0.6661
 7890SOL     OW31331   4.903   5.156   5.875  0.2694  0.5093 -0.0937
 7890SOL    HW231332   4.878   5.064   5.863  1.3974  0.2390 -0.4903
 7890SOL    HW331333   4.822   5.205   5.862 -0.2622 -0.4016 -0.2757
 7890SOL    MW431334   4.889   5.150   5.872 -0.0102  0.3826 -0.5657
 7891SOL     OW31335   5.365   2.875   5.951  0.4439  0.1463  0.5638
 7891SOL    HW231336   5.285   2.838   5.914  0.8897  0.5244 -0.8649
 7891SOL    HW331337   5.370   2.840   6.039 -0.7494 -0.7187  0.3083
 7891SOL    MW431338   5.355   2.865   5.957 -0.0595  0.2409  0.0037
 7892SOL     OW31339   3.391   4.045   0.228  0.3468  0.2459 -0.0998
 7892SOL    HW231340   3.462   3.981   0.231  1.0635  1.0531  1.1827
 7892SOL    HW331341   3.403   4.098   0.307 -2.3278 -0.2634  0.7515
 7892SOL    MW431342   3.402   4.043   0.239 -0.1624  0.1127 -0.3664
 7893SOL     OW31343   3.276   0.203   5.363 -0.0463  0.2330  0.5616
 7893SOL    HW231344   3.227   0.255   5.299  3.5106  1.4316 -1.4620
 7893SOL    HW331345   3.320   0.267   5.419  1.4772 -0.6139  0.4089
 7893SOL    MW431346   3.275   0.218   5.362  0.0188  0.2523  0.3025
 7894SOL     OW31347   0.839   4.294   0.331  0.2977  0.4735 -0.0218
 7894SOL    HW231348   0.819   4.370   0.278 -0.1926  0.8495  0.6961
 7894SOL    HW331349   0.934   4.285   0.324  0.5748  2.0675  1.0854
 7894SOL    MW431350   0.849   4.303   0.323 -0.3393  0.1419  0.4425
 7895SOL     OW31351   0.616   5.723   2.749 -0.1774 -0.1225 -0.0282
 7895SOL    HW231352   0.628   5.804   2.797  0.4327 -0.1705 -0.0942
 7895SOL    HW331353   0.569   5.749   2.670 -0.7665  0.0252  0.3649
 7895SOL    MW431354   0.611   5.737   2.745  0.0620 -0.5562 -0.5925
 7896SOL     OW31355   3.829   3.646   1.864 -0.0836 -0.1854  0.5430
 7896SOL    HW231356   3.890   3.579   1.832 -0.7207 -0.7490  0.5057
 7896SOL    HW331357   3.869   3.677   1.945  0.9495  0.4186 -0.1661
 7896SOL    MW431358   3.843   3.641   1.870  0.1072 -1.5316 -0.2419
 7897SOL     OW31359   0.193   5.208   2.975  0.2300 -0.4295  0.2275
 7897SOL    HW231360   0.142   5.283   3.005  1.0756 -0.0483  0.7441
 7897SOL    HW331361   0.167   5.137   3.032 -0.6446 -0.5740 -0.3221
 7897SOL    MW431362   0.183   5.209   2.986 -0.0824 -0.2452 -0.2560
 7898SOL     OW31363   0.808   6.347   6.026 -0.5899  0.3129  0.8021
 7898SOL    HW231364   0.882   6.403   6.003  0.5434 -1.8919 -1.3671
 7898SOL    HW331365   0.837   6.301   6.105 -0.1704  0.3693  0.6833
 7898SOL    MW431366   0.822   6.349   6.033  0.3031  0.2424 -0.2961
 7899SOL     OW31367   1.914   0.716   4.987 -0.3122 -0.2958 -0.2470
 7899SOL    HW231368   1.997   0.725   4.939  0.1896  0.3044  0.7148
 7899SOL    HW331369   1.940   0.698   5.077 -1.1658  1.9904  0.5259
 7899SOL    MW431370   1.929   0.714   4.992 -0.0181 -0.5368  0.2311
 7900SOL     OW31371   4.827   1.971   4.320  0.1691  0.1174  0.6575
 7900SOL    HW231372   4.921   1.978   4.340 -0.2408  0.4797  2.5803
 7900SOL    HW331373   4.796   2.061   4.323 -0.1414  0.0705 -0.6430
 7900SOL    MW431374   4.835   1.984   4.323  0.0099 -0.0067 -0.1160
 7901SOL     OW31375   2.544   4.381   1.255 -0.3731 -0.2225  0.6347
 7901SOL    HW231376   2.556   4.424   1.340 -1.4863 -0.3331  0.8662
 7901SOL    HW331377   2.505   4.296   1.277 -0.0361 -0.5322  0.0516
 7901SOL    MW431378   2.541   4.375   1.269  0.2951  0.2000 -0.4363
 7902SOL     OW31379   1.831   5.215   4.097 -0.0219 -0.0341  0.6027
 7902SOL    HW231380   1.829   5.200   4.191 -0.6967  0.8338  0.7499
 7902SOL    HW331381   1.897   5.155   4.063  0.8192  0.2224  1.7382
 7902SOL    MW431382   1.839   5.205   4.105 -0.7157  0.5277  0.1438
 7903SOL     OW31383   2.243   4.018   2.934  0.1936  0.1821  0.0778
 7903SOL    HW231384   2.323   4.068   2.950  0.5367 -0.4194  0.2571
 7903SOL    HW331385   2.265   3.958   2.864  0.0685 -0.3665  0.5017
 7903SOL    MW431386   2.256   4.017   2.927  0.2789 -0.4998 -0.1196
 7904SOL     OW31387   1.069   2.157   0.254  0.3613 -0.4497 -0.6709
 7904SOL    HW231388   0.989   2.199   0.221 -0.9008 -1.9927  0.2861
 7904SOL    HW331389   1.130   2.161   0.181 -0.9908 -0.2539 -1.8268
 7904SOL    MW431390   1.066   2.163   0.240  0.1764  0.0474  0.0525
 7905SOL     OW31391   4.608   3.867   3.835  0.1140 -0.2927 -0.2299
 7905SOL    HW231392   4.613   3.819   3.918 -2.2555  0.8596  0.6483
 7905SOL    HW331393   4.583   3.800   3.771  1.9636 -1.1919 -0.0977
 7905SOL    MW431394   4.605   3.852   3.838 -0.0390  0.1510 -0.3110
 7906SOL     OW31395   2.221   4.420   2.982  0.5634 -0.6216 -0.1939
 7906SOL    HW231396   2.293   4.463   3.030  1.1190 -0.8902 -0.7729
 7906SOL    HW331397   2.194   4.348   3.039 -0.5097  0.5829  0.8806
 7906SOL    MW431398   2.227   4.416   2.996 -0.0597 -0.3409 -0.4071
 7907SOL     OW31399   5.523   5.135   5.805 -0.5656 -0.1754 -0.1217
 7907SOL    HW231400   5.433   5.102   5.811 -0.5124 -0.3922 -0.5064
 7907SOL    HW331401   5.514   5.224   5.772 -0.7672  0.5212  1.6943
 7907SOL    MW431402   5.510   5.142   5.802  0.1979  0.3981 -0.5043
 7908SOL     OW31403   0.888   3.909   1.540  0.0358 -0.3692  0.6143
 7908SOL    HW231404   0.896   3.862   1.623  3.0124 -3.0335 -0.9737
 7908SOL    HW331405   0.967   3.962   1.534  0.0082 -0.4308 -0.6253
 7908SOL    MW431406   0.899   3.910   1.550  0.4192  0.2908 -0.4063
 7909SOL     OW31407   6.290   3.878   1.770  0.0675  0.0082 -0.5317
 7909SOL    HW231408   6.239   3.872   1.850  0.2181 -0.9906 -0.4953
 7909SOL    HW331409   6.225   3.892   1.701  0.0778  2.7910 -0.0597
 7909SOL    MW431410   6.275   3.879   1.771  0.1062  0.0975  0.1216
 7910SOL     OW31411   1.776   0.427   3.467 -0.1855 -0.6779 -0.3346
 7910SOL    HW231412   1.680   0.420   3.465 -0.3839  0.3352  2.1954
 7910SOL    HW331413   1.803   0.358   3.528  0.4638  0.4594  0.7056
 7910SOL    MW431414   1.767   0.417   3.475  0.8705  0.3526  0.1036
 7911SOL     OW31415   5.324   1.729   6.081 -0.5263 -0.4037 -0.2894
 7911SOL    HW231416   5.332   1.638   6.110  2.1196 -0.1416  0.0360
 7911SOL    HW331417   5.316   1.779   6.162  2.5191 -0.0401 -0.1130
 7911SOL    MW431418   5.324   1.724   6.096 -0.1599 -0.2370 -0.1167
 7912SOL     OW31419   6.023   3.565   3.738  0.5345 -0.2043 -0.3046
 7912SOL    HW231420   6.050   3.477   3.715  0.5344  0.2524 -2.2543
 7912SOL    HW331421   6.103   3.617   3.734  0.4878 -0.0559  0.5468
 7912SOL    MW431422   6.037   3.560   3.735  0.2003 -0.4340 -0.0307
 7913SOL     OW31423   4.842   5.449   6.386  0.4606 -0.1078  0.3114
 7913SOL    HW231424   4.912   5.392   6.353 -0.0794 -0.5077 -0.1492
 7913SOL    HW331425   4.847   5.440   6.481  1.6133  0.5587  0.3393
 7913SOL    MW431426   4.852   5.440   6.394  0.3370 -0.2458  0.5803
 7914SOL     OW31427   6.060   0.274   3.364  0.7784  0.1435  0.7702
 7914SOL    HW231428   6.062   0.342   3.297 -1.2644  1.2785  1.7841
 7914SOL    HW331429   6.146   0.280   3.407  2.3823 -1.0291 -2.0347
 7914SOL    MW431430   6.072   0.283   3.361  0.1897 -0.0549 -0.0858
 7915SOL     OW31431   5.484   1.258   2.222  0.3899  0.2169  0.2660
 7915SOL    HW231432   5.519   1.312   2.152 -1.6531  1.0830 -0.1507
 7915SOL    HW331433   5.552   1.193   2.239  1.1136  0.2391 -2.2162
 7915SOL    MW431434   5.498   1.256   2.215 -0.0046 -0.1286  0.2151
 7916SOL     OW31435   3.179   5.913   3.487  0.5164  0.0808  0.1393
 7916SOL    HW231436   3.152   5.999   3.521  1.3676  0.2381  0.4498
 7916SOL    HW331437   3.103   5.883   3.437  0.3001  1.1316 -0.2046
 7916SOL    MW431438   3.165   5.921   3.485 -0.5186 -0.0823 -0.2456
 7917SOL     OW31439   1.189   3.333   1.619 -0.0192  0.5862 -0.3794
 7917SOL    HW231440   1.175   3.248   1.662  2.3091  0.0362 -0.5868
 7917SOL    HW331441   1.113   3.343   1.562 -0.8001 -0.9191  0.3145
 7917SOL    MW431442   1.177   3.323   1.617 -0.0178 -0.3359 -0.6165
 7918SOL     OW31443   2.575   3.846   4.501 -0.0733 -0.7656 -0.2612
 7918SOL    HW231444   2.617   3.904   4.439  0.5058 -1.0563 -0.1474
 7918SOL    HW331445   2.602   3.758   4.474  0.0977 -0.8999  0.3290
 7918SOL    MW431446   2.584   3.842   4.490 -0.0517 -0.2992  0.1093
 7919SOL     OW31447   4.701   5.986   0.422  0.0321 -0.3267 -0.5586
 7919SOL    HW231448   4.750   5.908   0.397  0.4598 -0.9522  1.9587
 7919SOL    HW331449   4.756   6.059   0.394  0.7487 -0.9749 -0.8709
 7919SOL    MW431450   4.715   5.986   0.415 -0.0074 -0.5647  0.1318
 7920SOL     OW31451   6.408   6.294   2.932 -0.1769  0.0186  0.0126
 7920SOL    HW231452   6.432   6.203   2.912  0.3170 -0.0893  0.9835
 7920SOL    HW331453   6.352   6.287   3.010  1.2628  0.6190  1.1626
 7920SOL    MW431454   6.404   6.281   2.940 -0.0034 -0.7492 -0.4670
 7921SOL     OW31455   1.217   0.618   2.417  0.0133 -0.4287  0.5930
 7921SOL    HW231456   1.122   0.615   2.414  0.0133  0.0159  0.0003
 7921SOL    HW331457   1.238   0.609   2.510 -0.5042 -2.5435  0.5502
 7921SOL    MW431458   1.207   0.617   2.429 -0.2871  0.1388 -0.3217
 7922SOL     OW31459   5.928   1.559   5.815 -0.2463 -0.4925 -0.4311
 7922SOL    HW231460   6.017   1.529   5.795  0.1322  0.6462 -0.5179
 7922SOL    HW331461   5.926   1.564   5.911  0.0022  0.1215 -0.4574
 7922SOL    MW431462   5.939   1.555   5.825 -0.2574 -0.7514 -0.2031
 7923SOL     OW31463   5.751   4.860   4.319  0.3743  0.3084  0.3002
 7923SOL    HW231464   5.808   4.801   4.368  0.2964  0.6019  0.7552
 7923SOL    HW331465   5.674   4.807   4.298  0.4244  0.1705  0.4642
 7923SOL    MW431466   5.748   4.845   4.323 -0.1168 -0.2004 -0.1607
 7924SOL     OW31467   4.053   6.377   3.306 -0.5406  0.0869  0.2134
 7924SOL    HW231468   3.968   6.380   3.262 -0.1483 -2.1211 -0.8096
 7924SOL    HW331469   4.082   6.286   3.297  0.9253  0.2489  2.5037
 7924SOL    MW431470   4.045   6.366   3.299  0.4342  0.6716 -0.2178
 7925SOL     OW31471   0.680   5.969   5.515 -0.2784  0.0819 -0.0933
 7925SOL    HW231472   0.596   5.925   5.504 -0.7402  0.9121  0.0679
 7925SOL    HW331473   0.662   6.061   5.497  1.1325 -0.0614 -2.7583
 7925SOL    MW431474   0.667   5.975   5.511 -0.4727  0.5001 -0.6212
 7926SOL     OW31475   3.205   2.790   0.243 -0.5844 -0.0450 -0.1362
 7926SOL    HW231476   3.220   2.699   0.218 -1.1094 -0.1387 -0.1112
 7926SOL    HW331477   3.112   2.794   0.266 -0.6523  0.5809 -0.5041
 7926SOL    MW431478   3.195   2.779   0.243  0.0846 -0.1123 -0.9228
 7927SOL     OW31479   4.738   1.896   5.102  0.0495 -0.1610 -0.1065
 7927SOL    HW231480   4.757   1.981   5.143 -0.8503 -1.4808  3.4315
 7927SOL    HW331481   4.824   1.859   5.082  0.4602  1.3759 -1.3421
 7927SOL    MW431482   4.752   1.902   5.105  0.3984  0.4160 -0.2086
 7928SOL     OW31483   3.545   4.791   5.657 -0.1898  0.2626  0.7381
 7928SOL    HW231484   3.637   4.817   5.664  0.0077 -0.3657  0.5636
 7928SOL    HW331485   3.518   4.820   5.569 -0.1969  0.5591  0.8379
 7928SOL    MW431486   3.553   4.798   5.646 -0.2429  0.4067  0.3274
 7929SOL     OW31487   5.016   3.651   2.036  0.4231 -0.4236  0.1777
 7929SOL    HW231488   5.002   3.645   1.942 -0.1739 -0.4250  0.2638
 7929SOL    HW331489   5.110   3.667   2.045  0.6334 -1.2408 -0.3824
 7929SOL    MW431490   5.027   3.652   2.025 -0.6594  0.3267 -0.0876
 7930SOL     OW31491   0.948   5.984   2.197  0.4907 -0.0649  0.0453
 7930SOL    HW231492   0.894   5.906   2.182  1.5203 -0.6334 -0.7993
 7930SOL    HW331493   0.999   5.963   2.275  0.8648 -0.2828 -0.2606
 7930SOL    MW431494   0.947   5.971   2.206 -0.4669 -0.2497  0.1159
 7931SOL     OW31495   3.634   0.946   3.584 -0.5312  0.2813  0.0099
 7931SOL    HW231496   3.586   1.028   3.601  0.4264  0.9350 -0.3508
 7931SOL    HW331497   3.722   0.975   3.559  0.3968 -0.9086  1.6986
 7931SOL    MW431498   3.639   0.961   3.583 -0.0794 -0.5873  0.4045
 7932SOL     OW31499   0.471   1.958   2.465  0.0144  0.3212 -0.1250
 7932SOL    HW231500   0.442   2.016   2.394 -2.2737 -0.0292  0.4468
 7932SOL    HW331501   0.542   1.907   2.427  1.1688  2.4839 -1.0767
 7932SOL    MW431502   0.476   1.959   2.451  0.4361  0.7286 -0.0062
 7933SOL     OW31503   2.784   1.797   0.220  0.2793  0.0406  0.0539
 7933SOL    HW231504   2.866   1.839   0.248 -0.0124 -0.6428  2.1718
 7933SOL    HW331505   2.764   1.836   0.135  0.7875  3.1300  1.2122
 7933SOL    MW431506   2.792   1.808   0.213 -0.2328  0.0270 -0.5695
 7934SOL     OW31507   2.477   4.231   2.231  0.0720  0.0828 -0.8834
 7934SOL    HW231508   2.526   4.168   2.285  0.7254  1.2596 -0.0510
 7934SOL    HW331509   2.399   4.251   2.283  0.5575  0.9945 -0.4784
 7934SOL    MW431510   2.473   4.226   2.245 -0.3308 -0.5443 -0.1729
 7935SOL     OW31511   4.037   1.212   5.559 -0.0668  0.4328  0.1979
 7935SOL    HW231512   4.048   1.271   5.634  1.7493 -0.2843  0.5656
 7935SOL    HW331513   4.117   1.159   5.560 -0.9375 -0.9567 -1.0542
 7935SOL    MW431514   4.049   1.213   5.569  0.1239 -0.3812  0.2212
 7936SOL     OW31515   2.120   2.963   5.377 -0.4162 -0.1545 -0.3837
 7936SOL    HW231516   2.193   2.921   5.423 -0.9932 -0.1831  0.5214
 7936SOL    HW331517   2.089   2.897   5.316 -1.9706 -1.4924  1.7209
 7936SOL    MW431518   2.126   2.949   5.375  0.0305  0.0580 -0.0631
 7937SOL     OW31519   2.124   1.134   1.316 -0.1892 -0.2817  0.0108
 7937SOL    HW231520   2.160   1.139   1.404  0.7426  1.7628 -0.4297
 7937SOL    HW331521   2.029   1.141   1.328  0.0081  1.8728  0.8166
 7937SOL    MW431522   2.116   1.136   1.329 -0.2000 -0.6543  0.7829
 7938SOL     OW31523   0.037   0.305   2.894 -0.0981 -0.1654 -0.3743
 7938SOL    HW231524   0.005   0.395   2.890  0.9899  0.4389  2.2540
 7938SOL    HW331525  -0.024   0.260   2.953 -0.0994 -0.9081 -0.9318
 7938SOL    MW431526   0.025   0.311   2.902 -0.2605 -0.0828  0.4298
 7939SOL     OW31527   2.024   4.659   2.199  0.0251  0.5281  0.0312
 7939SOL    HW231528   1.970   4.730   2.164 -0.0445  0.2486 -0.4399
 7939SOL    HW331529   1.961   4.597   2.236 -0.0591 -0.2662 -1.3832
 7939SOL    MW431530   2.009   4.660   2.199 -0.5127 -0.0281  0.9156
 7940SOL     OW31531   2.165   3.514   1.689 -0.1855 -0.7695  0.3034
 7940SOL    HW231532   2.108   3.443   1.660 -1.2104  0.8802 -2.1307
 7940SOL    HW331533   2.250   3.473   1.704 -0.6957 -2.4899 -1.1860
 7940SOL    MW431534   2.169   3.499   1.687 -0.5392 -0.4029  0.1758
 7941SOL     OW31535   4.092   2.225   3.632  0.5497 -0.1163  0.1615
 7941SOL    HW231536   4.066   2.228   3.724 -1.0954 -0.4855 -0.2596
 7941SOL    HW331537   4.100   2.317   3.607 -1.2482  0.0554  0.1061
 7941SOL    MW431538   4.090   2.238   3.641 -0.4029  0.2282  0.5300
 7942SOL     OW31539   1.172   1.395   0.554  0.1093  0.5160 -0.0650
 7942SOL    HW231540   1.155   1.472   0.501 -0.6595 -0.0698 -0.6982
 7942SOL    HW331541   1.200   1.328   0.491 -1.4713 -0.3921  0.1352
 7942SOL    MW431542   1.174   1.396   0.539 -0.2905 -0.0812 -0.3972
 7943SOL     OW31543   4.488   4.150   1.965  0.6588  0.1925 -0.2340
 7943SOL    HW231544   4.521   4.165   1.876  0.0447  0.1912 -0.4681
 7943SOL    HW331545   4.505   4.232   2.011  1.4119  0.0326 -0.2097
 7943SOL    MW431546   4.495   4.163   1.959 -0.3432  0.9427 -0.1481
 7944SOL     OW31547   3.515   0.171   5.181 -0.3203  0.4223  0.2028
 7944SOL    HW231548   3.442   0.173   5.243 -0.7858  1.7632 -0.3437
 7944SOL    HW331549   3.588   0.209   5.230 -0.6843  1.4642 -0.0178
 7944SOL    MW431550   3.515   0.177   5.196 -0.5555 -0.3500 -0.4523
 7945SOL     OW31551   4.659   2.982   3.788  0.3569 -0.0820 -0.3017
 7945SOL    HW231552   4.701   3.067   3.799  0.7756  0.0115 -2.1665
 7945SOL    HW331553   4.571   3.002   3.757  0.3178 -0.3107 -0.3467
 7945SOL    MW431554   4.653   2.996   3.785 -0.2288 -0.1729 -0.0417
 7946SOL     OW31555   1.005   1.716   1.429  0.5200 -0.3085 -0.3551
 7946SOL    HW231556   1.059   1.785   1.393  1.7467 -0.9078  0.2735
 7946SOL    HW331557   0.936   1.703   1.364  0.1555  1.5927 -0.3998
 7946SOL    MW431558   1.003   1.723   1.416 -0.0603  0.4504 -0.5986
 7947SOL     OW31559   3.842   1.147   0.994 -0.3907  0.2608 -0.4090
 7947SOL    HW231560   3.845   1.071   0.936  0.1752  0.0009 -0.0515
 7947SOL    HW331561   3.774   1.203   0.957 -0.1803  0.0049 -1.2043
 7947SOL    MW431562   3.834   1.144   0.982  0.7403  0.2187 -0.1277
 7948SOL     OW31563   6.036   2.322   5.137  0.3956 -0.3109  0.2551
 7948SOL    HW231564   6.129   2.306   5.125  0.4216 -1.5686  1.7924
 7948SOL    HW331565   5.993   2.247   5.097  0.1421 -0.5820  1.0106
 7948SOL    MW431566   6.042   2.310   5.130 -0.1422 -0.1608 -0.2054
 7949SOL     OW31567   1.467   0.158   0.454  0.0222 -0.0417  0.1561
 7949SOL    HW231568   1.477   0.221   0.382  0.4108  0.7618  0.8849
 7949SOL    HW331569   1.550   0.109   0.455  0.0611  0.0231  0.1261
 7949SOL    MW431570   1.479   0.160   0.445 -0.4992  0.3620  0.5686
 7950SOL     OW31571   2.945   2.873   0.320 -0.0285 -0.2193  0.0742
 7950SOL    HW231572   2.982   2.916   0.397  1.8962 -0.0552 -0.8810
 7950SOL    HW331573   2.963   2.934   0.248  0.3476 -1.4082 -0.8674
 7950SOL    MW431574   2.952   2.887   0.321 -0.5611  0.3955  0.0301
 7951SOL     OW31575   4.246   3.106   2.879  0.1841  0.2992 -0.4258
 7951SOL    HW231576   4.176   3.144   2.827 -0.3081  2.8323  1.8419
 7951SOL    HW331577   4.270   3.175   2.941  1.8004 -1.9246  1.6347
 7951SOL    MW431578   4.240   3.120   2.880 -0.2916  0.0929  0.7735
 7952SOL     OW31579   1.532   3.444   4.244 -1.0738  0.2477 -0.1059
 7952SOL    HW231580   1.568   3.357   4.262 -1.4987 -0.1351 -1.0309
 7952SOL    HW331581   1.606   3.493   4.208 -0.4891  0.7015  1.6295
 7952SOL    MW431582   1.547   3.439   4.242  0.3517  0.9129  0.3809
 7953SOL     OW31583   3.336   1.019   0.252 -0.8496 -0.0176  0.1557
 7953SOL    HW231584   3.429   0.998   0.261 -1.3603 -2.8452 -0.3888
 7953SOL    HW331585   3.334   1.087   0.184  0.9475  2.1698  2.1398
 7953SOL    MW431586   3.348   1.025   0.244  0.4559  0.0477  0.0773
 7954SOL     OW31587   3.421   3.378   3.637  0.3856 -0.2218  0.4910
 7954SOL    HW231588   3.353   3.439   3.608  0.7220 -0.2672 -0.4299
 7954SOL    HW331589   3.449   3.333   3.557  1.9071  0.2192  0.7436
 7954SOL    MW431590   3.415   3.380   3.623  0.4260 -0.2377  0.2700
 7955SOL     OW31591   3.407   1.507   0.139 -0.0890  0.0802 -0.0663
 7955SOL    HW231592   3.380   1.599   0.141 -0.9986 -0.1907  1.4180
 7955SOL    HW331593   3.397   1.477   0.229  1.0732 -1.2437 -0.3425
 7955SOL    MW431594   3.402   1.515   0.151 -0.0961 -0.2867 -0.0718
 7956SOL     OW31595   0.015   5.810   0.798 -0.5253  0.1835 -0.1609
 7956SOL    HW231596  -0.051   5.802   0.730 -2.5119 -1.6214  1.8067
 7956SOL    HW331597  -0.034   5.839   0.876  1.2497  0.1419  1.0377
 7956SOL    MW431598   0.000   5.813   0.800 -0.3807  0.2068  0.0157
 7957SOL     OW31599   0.888   3.546   1.695  0.0386 -0.4762 -0.2251
 7957SOL    HW231600   0.953   3.571   1.630 -0.4964 -1.5886 -1.2316
 7957SOL    HW331601   0.817   3.507   1.644 -1.0420 -0.0655  0.9134
 7957SOL    MW431602   0.887   3.544   1.679  0.0292  0.6116  0.5453
 7958SOL     OW31603   2.280   3.496   0.998  0.2616 -0.2359 -0.2452
 7958SOL    HW231604   2.270   3.532   1.086 -1.0456 -0.6745 -0.1935
 7958SOL    HW331605   2.303   3.572   0.944  0.9732  0.0539  0.4511
 7958SOL    MW431606   2.281   3.511   1.003 -0.5737  0.3472  0.0518
 7959SOL     OW31607   2.922   3.354   6.342  0.1683  0.3144  0.0534
 7959SOL    HW231608   2.979   3.395   6.407  1.5028 -0.4137 -0.6210
 7959SOL    HW331609   2.856   3.308   6.394 -0.6395  2.2586  0.8309
 7959SOL    MW431610   2.921   3.353   6.358 -0.4795 -0.1593 -0.4705
 7960SOL     OW31611   1.338   3.939   0.246 -0.7749 -0.0186 -0.0268
 7960SOL    HW231612   1.261   3.938   0.189 -0.0907  0.3951 -0.9829
 7960SOL    HW331613   1.409   3.971   0.190  0.2545 -1.0606  0.6344
 7960SOL    MW431614   1.337   3.943   0.231  0.1210 -0.3863 -0.3950
 7961SOL     OW31615   5.503   1.362   3.349 -0.2146 -0.1478  0.3219
 7961SOL    HW231616   5.569   1.338   3.414 -1.0766  0.8611  1.6124
 7961SOL    HW331617   5.460   1.439   3.385 -1.6682 -0.3944 -0.7838
 7961SOL    MW431618   5.506   1.369   3.362  0.0865  0.3481  0.4011
 7962SOL     OW31619   5.067   5.210   1.354 -0.5505  0.3539 -0.5139
 7962SOL    HW231620   4.984   5.257   1.343 -0.2482  1.3290  1.0842
 7962SOL    HW331621   5.108   5.252   1.429  0.3033 -1.6946  0.2155
 7962SOL    MW431622   5.061   5.222   1.362 -0.2338  0.6031 -0.4567
 7963SOL     OW31623   4.753   3.054   1.966 -0.0745 -0.0173 -0.0076
 7963SOL    HW231624   4.774   3.125   1.906 -0.5825  0.5539  0.4822
 7963SOL    HW331625   4.743   3.096   2.051  1.7994 -0.9560  0.7496
 7963SOL    MW431626   4.754   3.069   1.969 -0.1960  0.1136  0.5756
 7964SOL     OW31627   3.448   3.755   6.261  0.5812 -0.2973 -0.5887
 7964SOL    HW231628   3.486   3.790   6.180 -0.1447  2.1541  0.0521
 7964SOL    HW331629   3.521   3.753   6.322  0.6539  0.1012 -0.6559
 7964SOL    MW431630   3.463   3.760   6.259  0.3493  0.2747  0.4185
 7965SOL     OW31631   2.755   5.935   6.079 -0.4478 -0.4586  0.0839
 7965SOL    HW231632   2.684   5.935   6.015 -0.1300  0.5537 -0.2851
 7965SOL    HW331633   2.830   5.973   6.032 -0.0016 -0.3950  0.8346
 7965SOL    MW431634   2.756   5.940   6.064 -0.3172  0.8697  0.0440
 7966SOL     OW31635   1.349   5.252   0.562 -0.3696  0.3558  0.3070
 7966SOL    HW231636   1.390   5.283   0.481 -0.1002  1.2221  0.7655
 7966SOL    HW331637   1.272   5.204   0.532 -0.7969  1.4544 -0.4525
 7966SOL    MW431638   1.344   5.250   0.547  0.2612  0.3299  0.8844
 7967SOL     OW31639   1.711   5.454   5.311 -0.3936  0.6027  0.0044
 7967SOL    HW231640   1.740   5.363   5.313 -1.0832  0.3755 -0.2723
 7967SOL    HW331641   1.714   5.481   5.403  0.9509  0.6786 -0.0388
 7967SOL    MW431642   1.715   5.446   5.324 -0.8735  0.1544 -0.4999
 7968SOL     OW31643   4.626   5.619   2.067 -0.1013 -0.1391 -0.4093
 7968SOL    HW231644   4.551   5.675   2.088 -0.5015 -0.3226 -1.2902
 7968SOL    HW331645   4.588   5.531   2.061 -0.0691 -0.0602 -2.1283
 7968SOL    MW431646   4.611   5.614   2.069  0.0141 -0.5685  0.4570
 7969SOL     OW31647   1.360   4.599   0.275  0.5932  0.0094 -0.1519
 7969SOL    HW231648   1.414   4.675   0.252  1.2426  0.5091  2.6140
 7969SOL    HW331649   1.408   4.557   0.347 -0.8896 -1.7390 -0.1148
 7969SOL    MW431650   1.374   4.603   0.281  0.0669 -0.0565 -0.2515
 7970SOL     OW31651   2.467   1.999   1.880 -0.0652  0.3376  0.1809
 7970SOL    HW231652   2.444   2.060   1.949 -1.0088  1.0721 -0.7547
 7970SOL    HW331653   2.401   2.013   1.812 -0.2477 -1.6471 -0.1080
 7970SOL    MW431654   2.455   2.009   1.880 -0.1910  0.2162  0.5438
 7971SOL     OW31655   2.381   1.017   4.565  0.7678  0.1080 -0.4280
 7971SOL    HW231656   2.300   0.968   4.578  0.2677  0.6856 -1.2791
 7971SOL    HW331657   2.436   0.993   4.640 -0.4298  0.2094  0.5169
 7971SOL    MW431658   2.378   1.007   4.577 -0.1107 -0.4244 -1.1107
 7972SOL     OW31659   1.454   0.426   2.765  0.3008  0.3556  0.6400
 7972SOL    HW231660   1.393   0.368   2.811  2.2816 -0.4812  2.3908
 7972SOL    HW331661   1.470   0.383   2.681 -0.4945 -0.0772  0.7005
 7972SOL    MW431662   1.448   0.413   2.760 -0.3139  0.0677  0.5783
 7973SOL     OW31663   1.300   1.728   5.624  0.3579 -0.1892  0.5138
 7973SOL    HW231664   1.356   1.732   5.546  0.3314 -0.1210  0.4978
 7973SOL    HW331665   1.300   1.636   5.649 -0.9606 -0.5146 -0.5439
 7973SOL    MW431666   1.307   1.716   5.617 -0.2608  0.2766  0.0020
 7974SOL     OW31667   4.691   1.022   0.849 -0.1208  0.2375  0.2560
 7974SOL    HW231668   4.621   0.963   0.878  0.0962 -0.0025  0.2973
 7974SOL    HW331669   4.769   0.966   0.846  0.1315  0.5716  0.5112
 7974SOL    MW431670   4.692   1.007   0.853  0.4992 -0.3714 -0.7373
 7975SOL     OW31671   6.183   0.187   2.983 -1.0295  0.1138 -0.0400
 7975SOL    HW231672   6.165   0.129   2.909  0.0205  0.1048 -0.3131
 7975SOL    HW331673   6.122   0.159   3.051 -0.0583 -1.8338  0.1115
 7975SOL    MW431674   6.173   0.176   2.982  0.0658 -0.1968 -0.4597
 7976SOL     OW31675   5.975   4.672   1.014 -0.3890  0.0122  0.0912
 7976SOL    HW231676   6.025   4.689   0.934  0.0131 -0.1539  0.3034
 7976SOL    HW331677   6.035   4.623   1.070 -1.4056 -1.8959 -0.3975
 7976SOL    MW431678   5.989   4.668   1.011 -0.3040  0.2202 -0.0628
 7977SOL     OW31679   5.895   1.809   0.176 -0.0566  0.4777 -0.1088
 7977SOL    HW231680   5.944   1.743   0.126  1.6617  1.9287 -0.4402
 7977SOL    HW331681   5.808   1.771   0.185  0.3901 -1.1106 -1.7155
 7977SOL    MW431682   5.890   1.795   0.170  0.0594 -0.6127  0.5214
 7978SOL     OW31683   0.201   1.960   0.909 -0.0300  0.0629 -0.1658
 7978SOL    HW231684   0.247   1.875   0.908  0.9622  0.5846 -0.2398
 7978SOL    HW331685   0.168   1.970   0.820  0.5330  0.1081 -0.3757
 7978SOL    MW431686   0.203   1.950   0.897 -0.4514  0.2058 -0.0457
 7979SOL     OW31687   1.370   2.535   4.730  0.1139  0.4312  0.2988
 7979SOL    HW231688   1.373   2.497   4.642 -0.6401  0.9775  0.0314
 7979SOL    HW331689   1.450   2.502   4.772  0.4629  0.1212 -0.5676
 7979SOL    MW431690   1.381   2.526   4.724  0.5229  0.7855  0.3281
 7980SOL     OW31691   1.452   4.670   4.318  0.6503 -0.6192  0.3563
 7980SOL    HW231692   1.363   4.678   4.283  0.1015 -1.1937  1.5506
 7980SOL    HW331693   1.507   4.652   4.242 -0.2642 -0.2736 -0.3956
 7980SOL    MW431694   1.448   4.668   4.304  0.4229 -0.0326 -0.3183
 7981SOL     OW31695   4.460   1.302   5.494  0.2907  0.3997  0.0504
 7981SOL    HW231696   4.419   1.361   5.430 -0.6966  0.0384  0.3326
 7981SOL    HW331697   4.427   1.332   5.578 -1.6063 -1.5330  0.1094
 7981SOL    MW431698   4.450   1.314   5.496  0.0422 -0.3043  0.7817
 7982SOL     OW31699   2.582   1.348   5.394  0.3827 -0.9350 -0.6042
 7982SOL    HW231700   2.664   1.389   5.423 -0.2456 -0.2103  0.2003
 7982SOL    HW331701   2.576   1.267   5.445  0.8496 -1.2491 -1.0433
 7982SOL    MW431702   2.592   1.343   5.404  0.1912  0.3415  0.2814
 7983SOL     OW31703   3.957   3.934   0.482 -0.2018 -0.2771  0.3627
 7983SOL    HW231704   4.038   3.900   0.443 -0.0740 -1.5393  1.6484
 7983SOL    HW331705   3.948   3.885   0.564 -0.1369  2.6389  2.2647
 7983SOL    MW431706   3.967   3.923   0.488  0.5983 -0.3936 -0.1422
 7984SOL     OW31707   1.160   4.843   1.785 -0.6442  0.2119  0.7144
 7984SOL    HW231708   1.113   4.765   1.755  1.6249 -0.9956  0.0945
 7984SOL    HW331709   1.194   4.883   1.705  1.4076 -0.3308  1.2662
 7984SOL    MW431710   1.159   4.838   1.771 -0.6156 -0.2003  0.4635
 7985SOL     OW31711   0.091   4.526   2.784  0.2805  0.6319  0.2944
 7985SOL    HW231712   0.132   4.439   2.777  2.0830  1.4678 -0.0633
 7985SOL    HW331713   0.057   4.529   2.873 -0.1293 -0.5564  0.2066
 7985SOL    MW431714   0.092   4.515   2.795  0.8545  0.1782  0.1469
 7986SOL     OW31715   3.316   1.214   5.668 -1.0176  0.2622 -0.3573
 7986SOL    HW231716   3.274   1.190   5.750  0.0204 -0.8210 -0.1150
 7986SOL    HW331717   3.258   1.280   5.629 -2.2933 -0.3154  0.5152
 7986SOL    MW431718   3.303   1.220   5.674 -0.0511 -0.7503  0.2456
 7987SOL     OW31719   4.003   2.095   3.397  0.5042 -0.2046  0.6459
 7987SOL    HW231720   3.913   2.082   3.427  0.7106 -0.5878  1.1286
 7987SOL    HW331721   4.041   2.153   3.463  0.4172  0.5107  0.0692
 7987SOL    MW431722   3.996   2.101   3.410 -0.3264 -0.4034 -0.2326
 7988SOL     OW31723   0.789   5.375   2.841  0.3317  0.1158  0.2772
 7988SOL    HW231724   0.790   5.333   2.756  2.8145 -1.3547  0.9061
 7988SOL    HW331725   0.816   5.466   2.824  0.5770 -0.1066 -0.5280
 7988SOL    MW431726   0.793   5.382   2.828 -0.4688  0.2171 -1.0897
 7989SOL     OW31727   1.634   2.047   6.240  0.4926 -0.6090 -0.1822
 7989SOL    HW231728   1.614   2.051   6.147 -0.4622 -1.0819 -0.0160
 7989SOL    HW331729   1.570   1.984   6.275  0.0389  0.4628  0.9913
 7989SOL    MW431730   1.623   2.039   6.232  0.1290 -0.6748 -0.0093
 7990SOL     OW31731   4.168   4.387   5.511  0.0096 -0.0720 -0.2662
 7990SOL    HW231732   4.242   4.344   5.468  0.5227 -1.2239  1.6499
 7990SOL    HW331733   4.094   4.329   5.493  0.2671 -0.6675  0.5374
 7990SOL    MW431734   4.168   4.374   5.503  0.1363 -0.2621 -0.1894
 7991SOL     OW31735   3.385   2.315   2.291  0.7647  0.5275  0.4419
 7991SOL    HW231736   3.437   2.245   2.252  0.8328  0.9102 -0.1556
 7991SOL    HW331737   3.450   2.369   2.338  0.4900 -0.9061  2.6338
 7991SOL    MW431738   3.400   2.313   2.292  0.5905 -0.5078 -0.4134
 7992SOL     OW31739   5.070   5.920   1.504  0.1040 -0.5741  0.4160
 7992SOL    HW231740   5.107   5.834   1.482 -0.6864 -0.8802  0.2454
 7992SOL    HW331741   5.052   5.961   1.419 -0.6793 -0.7586  0.4831
 7992SOL    MW431742   5.072   5.914   1.490 -0.1633 -0.0697  0.6804
 7993SOL     OW31743   0.280   4.462   5.834  0.0078  1.0347  0.0721
 7993SOL    HW231744   0.205   4.499   5.879 -0.2612 -0.8961  1.3613
 7993SOL    HW331745   0.341   4.535   5.824 -0.8640  2.0345  1.6202
 7993SOL    MW431746   0.278   4.476   5.839  0.3912  0.3521 -0.2148
 7994SOL     OW31747   1.023   1.291   1.419 -0.1856 -0.1979 -0.1662
 7994SOL    HW231748   1.077   1.364   1.389 -0.7702  0.7945  1.0999
 7994SOL    HW331749   0.996   1.315   1.507 -2.4184 -0.8150 -0.6165
 7994SOL    MW431750   1.026   1.303   1.426  0.2663  0.4274 -0.5596
 7995SOL     OW31751   2.469   1.822   5.518  0.2369  0.2243 -0.4521
 7995SOL    HW231752   2.432   1.878   5.450 -0.3979  1.7779  1.0896
 7995SOL    HW331753   2.452   1.869   5.600  0.6761 -1.7046  0.8325
 7995SOL    MW431754   2.462   1.835   5.520  0.4335 -0.0855  0.2801
 7996SOL     OW31755   3.673   1.980   6.216  0.1597 -0.1018 -0.3898
 7996SOL    HW231756   3.630   1.915   6.271  2.6283  0.1123  1.9913
 7996SOL    HW331757   3.673   1.941   6.129  1.1132 -3.1269  0.8305
 7996SOL    MW431758   3.667   1.966   6.212 -0.1938 -0.1590 -0.2278
 7997SOL     OW31759   2.542   5.143   2.690 -0.1348 -0.9408 -0.3254
 7997SOL    HW231760   2.480   5.102   2.630  0.5127 -1.5709 -0.5800
 7997SOL    HW331761   2.548   5.082   2.763 -0.1089 -0.6952 -0.1220
 7997SOL    MW431762   2.535   5.129   2.692  0.2489 -0.3545 -0.3678
 7998SOL     OW31763   6.342   6.405   1.703 -0.1850 -0.4262 -0.2757
 7998SOL    HW231764   6.347   6.476   1.767 -0.7701 -1.1276  0.5830
 7998SOL    HW331765   6.354   6.448   1.618  0.8993  0.4815  0.3166
 7998SOL    MW431766   6.344   6.420   1.700  0.1099 -0.0815 -0.2722
 7999SOL     OW31767   0.884   2.792   5.204  0.4246  0.3011 -0.6076
 7999SOL    HW231768   0.885   2.855   5.132 -0.4953  0.5115 -0.4496
 7999SOL    HW331769   0.927   2.837   5.276 -0.3955  0.8415 -0.4368
 7999SOL    MW431770   0.889   2.806   5.204 -0.2368 -0.4266 -0.1253
 8000SOL     OW31771   4.504   2.928   1.898 -0.4459  0.1135 -0.3434
 8000SOL    HW231772   4.591   2.963   1.917 -0.6607 -0.2933  1.7042
 8000SOL    HW331773   4.452   3.004   1.871 -0.1433  0.8996  1.1567
 8000SOL    MW431774   4.509   2.943   1.897  0.4737 -0.3626  0.2717
 8001SOL     OW31775   1.000   0.773   1.152 -0.5138  0.3540  0.1152
 8001SOL    HW231776   0.978   0.685   1.121 -2.4415  0.7854  0.1566
 8001SOL    HW331777   1.059   0.807   1.085 -1.1905 -0.3100 -0.8564
 8001SOL    MW431778   1.005   0.766   1.139 -0.1190  0.4249 -0.8953
 8002SOL     OW31779   1.400   1.208   5.896 -0.1994 -0.2158 -0.3302
 8002SOL    HW231780   1.456   1.173   5.827  0.1908 -2.8893  1.2149
 8002SOL    HW331781   1.417   1.152   5.972 -2.1885  1.2626  1.3272
 8002SOL    MW431782   1.409   1.196   5.897 -0.0164 -0.0509 -0.2956
 8003SOL     OW31783   1.410   4.285   1.323 -0.2862  0.4084 -0.2234
 8003SOL    HW231784   1.417   4.192   1.347  0.0951  0.4611 -0.1229
 8003SOL    HW331785   1.318   4.297   1.301 -1.1622  0.8008  3.1171
 8003SOL    MW431786   1.399   4.274   1.323  0.5622  0.1917 -0.2246
 8004SOL     OW31787   1.566   1.677   2.842 -0.2888 -0.2283  0.2847
 8004SOL    HW231788   1.610   1.705   2.762  1.0365 -2.2651  0.2052
 8004SOL    HW331789   1.635   1.679   2.909 -0.4630 -1.8067  0.5589
 8004SOL    MW431790   1.581   1.681   2.840 -0.4010  0.3098  0.1345
 8005SOL     OW31791   0.128   3.276   3.269  0.0345  0.0364  0.3342
 8005SOL    HW231792   0.065   3.343   3.242  0.5818  0.2708 -0.3657
 8005SOL    HW331793   0.197   3.323   3.314 -0.3124 -0.2349  1.1920
 8005SOL    MW431794   0.129   3.291   3.271  0.3491  0.6548  0.5421
 8006SOL     OW31795   5.409   5.464   2.973 -0.3339  0.3745 -0.5449
 8006SOL    HW231796   5.424   5.398   2.905 -1.4686  0.9248 -1.3801
 8006SOL    HW331797   5.426   5.418   3.055 -0.7601 -0.8658 -1.1169
 8006SOL    MW431798   5.413   5.449   2.975 -0.3309 -0.2345  0.2038
 8007SOL     OW31799   5.934   5.800   5.757  0.6169  0.0944 -0.2722
 8007SOL    HW231800   5.950   5.891   5.779  0.0776  0.0238  0.4164
 8007SOL    HW331801   6.020   5.768   5.727  1.5594  0.0433  2.2435
 8007SOL    MW431802   5.948   5.807   5.756 -0.8462 -0.0777  0.3965
 8008SOL     OW31803   4.171   0.242   3.737  0.1619 -0.1511  0.0565
 8008SOL    HW231804   4.117   0.215   3.663  0.1817 -1.5244  0.5030
 8008SOL    HW331805   4.238   0.174   3.745 -0.0086 -0.1991  1.4864
 8008SOL    MW431806   4.173   0.229   3.728 -0.3136 -0.5783  0.2985
 8009SOL     OW31807   5.881   5.704   5.483  0.0746 -0.2657  0.2173
 8009SOL    HW231808   5.860   5.698   5.576  2.0658  1.1177  0.8209
 8009SOL    HW331809   5.796   5.713   5.440 -0.8147  0.9304  2.0815
 8009SOL    MW431810   5.867   5.705   5.490 -0.1649 -0.7622  0.1055
 8010SOL     OW31811   5.396   3.073   4.834 -0.1598  0.0640 -0.4849
 8010SOL    HW231812   5.456   3.000   4.849 -0.9538 -0.5904 -0.3455
 8010SOL    HW331813   5.422   3.111   4.751  1.3778  0.7511  0.2775
 8010SOL    MW431814   5.407   3.068   4.825 -1.0406  0.7560 -0.0913
 8011SOL     OW31815   5.983   2.731   5.239  0.3089 -0.3638  0.2412
 8011SOL    HW231816   6.076   2.709   5.229  1.1882  2.7675  0.4179
 8011SOL    HW331817   5.969   2.731   5.334  0.4384  0.2073  0.2636
 8011SOL    MW431818   5.994   2.728   5.251 -0.2571 -0.7511  0.5201
 8012SOL     OW31819   0.816   5.936   4.686  0.0383 -0.4509  0.8262
 8012SOL    HW231820   0.760   5.859   4.694 -0.3354 -0.3563 -0.6033
 8012SOL    HW331821   0.904   5.905   4.708 -0.3144 -0.9562  1.5640
 8012SOL    MW431822   0.820   5.922   4.690 -0.2128  0.1766  0.5798
 8013SOL     OW31823   2.236   1.941   3.720  0.0231  0.1512  0.1189
 8013SOL    HW231824   2.225   1.983   3.805  2.3049 -0.7130  0.9251
 8013SOL    HW331825   2.265   2.012   3.662 -2.0480  0.8525 -0.1308
 8013SOL    MW431826   2.238   1.956   3.723 -0.2480  0.4036 -0.3041
 8014SOL     OW31827   5.497   0.543   2.735 -0.2713 -0.0208 -0.3187
 8014SOL    HW231828   5.414   0.530   2.779  0.3370 -1.3352  0.5019
 8014SOL    HW331829   5.474   0.560   2.644 -1.4204 -0.2462 -0.0829
 8014SOL    MW431830   5.483   0.544   2.729  0.1439  0.6624  0.2208
 8015SOL     OW31831   1.432   5.909   1.014  0.1462 -0.4275  0.0956
 8015SOL    HW231832   1.354   5.941   0.967  1.6634 -0.6841 -2.8143
 8015SOL    HW331833   1.466   5.987   1.057 -1.0038 -0.0378  0.3593
 8015SOL    MW431834   1.426   5.924   1.013 -0.3391 -0.3784 -0.0107
 8016SOL     OW31835   5.719   4.274   0.488 -0.4797  0.4478 -0.2648
 8016SOL    HW231836   5.729   4.231   0.403  1.3316  1.4479 -0.6117
 8016SOL    HW331837   5.720   4.202   0.551 -0.1229 -0.2086 -0.9980
 8016SOL    MW431838   5.721   4.259   0.485 -0.4083 -0.2340  0.2074
 8017SOL     OW31839   6.167   5.772   0.150  0.2102 -0.0355 -0.4720
 8017SOL    HW231840   6.168   5.760   0.055  0.5362  0.9359 -0.5951
 8017SOL    HW331841   6.178   5.866   0.163 -2.1535  0.1940  0.4548
 8017SOL    MW431842   6.168   5.783   0.139 -0.1948  0.3172 -0.0622
 8018SOL     OW31843   3.642   5.222   6.122 -0.2550 -0.0173 -0.4301
 8018SOL    HW231844   3.699   5.237   6.198 -1.4678  1.3414  0.2673
 8018SOL    HW331845   3.553   5.234   6.157 -0.8452  0.4555 -2.0356
 8018SOL    MW431846   3.638   5.226   6.137  0.5739 -0.3407  0.6942
 8019SOL     OW31847   1.430   1.798   1.704  0.5552  0.1876  0.3609
 8019SOL    HW231848   1.518   1.814   1.739  1.0024 -1.8964  0.3106
 8019SOL    HW331849   1.393   1.732   1.763 -0.9716  0.9518  0.3169
 8019SOL    MW431850   1.437   1.791   1.717  0.7078 -0.0006  0.4251
 8020SOL     OW31851   1.280   4.189   4.685 -0.2665  0.2825 -0.3547
 8020SOL    HW231852   1.300   4.228   4.770  0.7785 -0.9595  0.0030
 8020SOL    HW331853   1.351   4.126   4.670 -1.9513 -1.6029 -0.8279
 8020SOL    MW431854   1.292   4.186   4.694  0.2381 -0.4883  0.9719
 8021SOL     OW31855   4.680   5.985   5.597  0.2564 -0.0185 -0.0267
 8021SOL    HW231856   4.613   5.981   5.529 -0.7638 -0.3417  0.9678
 8021SOL    HW331857   4.755   5.939   5.559 -0.1931  0.0552 -1.0357
 8021SOL    MW431858   4.681   5.978   5.583  0.5285  0.1650 -0.1309
 8022SOL     OW31859   5.988   3.991   1.282 -0.3025 -0.0936 -0.7958
 8022SOL    HW231860   6.051   4.062   1.294  0.0546 -0.7055  1.6064
 8022SOL    HW331861   6.021   3.941   1.208  0.3955  1.2516 -1.4240
 8022SOL    MW431862   6.000   3.994   1.274 -0.1880  0.3541  0.2613
 8023SOL     OW31863   1.590   5.252   1.322  0.2515  0.3817 -0.2451
 8023SOL    HW231864   1.551   5.165   1.321  0.1564  0.3982  0.8894
 8023SOL    HW331865   1.546   5.299   1.251 -0.0521 -0.3397 -0.5432
 8023SOL    MW431866   1.579   5.247   1.312  0.1120  0.3157  1.1730
 8024SOL     OW31867   0.237   0.965   5.896 -0.0680  0.1943 -0.4019
 8024SOL    HW231868   0.237   0.872   5.919  0.5591  0.5444  1.0967
 8024SOL    HW331869   0.164   1.002   5.945  0.1807  0.6372 -0.3638
 8024SOL    MW431870   0.228   0.958   5.905 -0.6974  0.2894  0.2172
 8025SOL     OW31871   1.168   3.338   5.362  0.1032  0.5633  0.3917
 8025SOL    HW231872   1.103   3.277   5.398 -0.3136  1.1741  0.7148
 8025SOL    HW331873   1.135   3.360   5.275 -1.3554  2.5566  1.3604
 8025SOL    MW431874   1.155   3.333   5.355  0.1135  0.4547 -0.5413
 8026SOL     OW31875   1.945   5.428   0.147 -0.7409  0.2494 -0.1791
 8026SOL    HW231876   1.962   5.425   0.053 -2.7116 -1.8323 -0.5320
 8026SOL    HW331877   1.998   5.502   0.178  2.1181 -0.6697 -2.4380
 8026SOL    MW431878   1.954   5.437   0.139  0.2943 -0.6467 -0.3336
 8027SOL     OW31879   3.078   0.889   5.719 -0.3611  0.0805  0.4674
 8027SOL    HW231880   3.133   0.816   5.690 -2.4320 -1.3090 -0.1182
 8027SOL    HW331881   3.029   0.914   5.642 -1.2760  0.6296  1.2094
 8027SOL    MW431882   3.079   0.883   5.705 -0.4773 -0.0431  0.0187
 8028SOL     OW31883   5.205   4.528   3.507  0.3057  0.2654  0.2573
 8028SOL    HW231884   5.279   4.576   3.469  1.3174 -0.7756  0.8326
 8028SOL    HW331885   5.147   4.511   3.433  0.8630  0.7107 -0.2954
 8028SOL    MW431886   5.207   4.532   3.493  0.6187  0.0904  0.3441
 8029SOL     OW31887   1.791   6.379   5.490  0.2998 -0.1064  0.2380
 8029SOL    HW231888   1.875   6.333   5.490  0.9150  0.9553  1.2594
 8029SOL    HW331889   1.805   6.455   5.433 -0.1000 -0.1478  0.0789
 8029SOL    MW431890   1.804   6.383   5.483  0.1328 -0.1415 -0.0090
 8030SOL     OW31891   3.084   4.613   3.464 -0.2624 -0.4500  0.1078
 8030SOL    HW231892   3.147   4.542   3.475  1.5954  0.6983 -2.1320
 8030SOL    HW331893   3.125   4.688   3.507 -0.4114  0.1381 -0.7553
 8030SOL    MW431894   3.098   4.614   3.471 -0.4359 -0.0831  0.0419
 8031SOL     OW31895   5.884   6.049   0.491 -0.2240  0.0392 -0.2349
 8031SOL    HW231896   5.859   6.132   0.532 -0.1003  0.3148 -0.7006
 8031SOL    HW331897   5.830   5.984   0.534 -0.2498  0.3503  0.2115
 8031SOL    MW431898   5.873   6.052   0.502 -0.6944  0.1535 -0.3805
 8032SOL     OW31899   5.295   1.275   4.770 -0.2561  0.1335  0.1132
 8032SOL    HW231900   5.236   1.223   4.825  1.0950 -0.3560  1.1664
 8032SOL    HW331901   5.314   1.353   4.822 -1.0880  1.0158 -0.8422
 8032SOL    MW431902   5.289   1.278   4.784  0.8301  0.0933 -0.4267
 8033SOL     OW31903   6.276   4.719   5.743 -0.2247  0.0685  0.0135
 8033SOL    HW231904   6.296   4.705   5.650 -0.6558 -1.5738  0.1426
 8033SOL    HW331905   6.186   4.690   5.753  0.4583 -1.8044  1.3344
 8033SOL    MW431906   6.267   4.713   5.732  0.2069 -0.4194 -0.2716
 8034SOL     OW31907   3.630   3.481   2.093 -0.4144 -0.6776  0.1153
 8034SOL    HW231908   3.630   3.470   2.189 -1.7884  0.0137  0.2241
 8034SOL    HW331909   3.711   3.529   2.075 -1.3462  1.4703  1.2611
 8034SOL    MW431910   3.641   3.486   2.103 -0.2756  0.2969  0.0093
 8035SOL     OW31911   4.365   3.771   1.258  0.3298 -0.1653 -0.2799
 8035SOL    HW231912   4.366   3.675   1.261 -0.6433 -0.1738 -0.0702
 8035SOL    HW331913   4.285   3.796   1.303 -0.1062  0.7032 -1.4868
 8035SOL    MW431914   4.355   3.761   1.264  0.1509  0.3895 -0.5820
 8036SOL     OW31915   2.841   3.940   6.004 -0.1521 -0.4769 -0.4279
 8036SOL    HW231916   2.879   4.021   5.969 -0.9451  0.5590  1.0138
 8036SOL    HW331917   2.852   3.877   5.933  4.0501 -0.2446 -0.2611
 8036SOL    MW431918   2.847   3.943   5.990 -0.8307  0.2439  0.1946
 8037SOL     OW31919   2.137   5.456   2.419  0.6527  0.3799  0.7192
 8037SOL    HW231920   2.114   5.499   2.337 -1.1825 -1.1991  0.3257
 8037SOL    HW331921   2.084   5.500   2.485 -0.3331 -0.4309  0.5007
 8037SOL    MW431922   2.127   5.467   2.417 -0.0561  0.0582  0.0880
 8038SOL     OW31923   6.366   6.119   1.329  0.0888 -0.6666  0.4774
 8038SOL    HW231924   6.425   6.108   1.404  0.2088  0.3170  0.5365
 8038SOL    HW331925   6.425   6.134   1.255 -0.0861  0.7596  0.6121
 8038SOL    MW431926   6.382   6.119   1.329  0.1821  0.4608  0.7004
 8039SOL     OW31927   5.948   1.141   0.461  0.2491  0.1717  0.5086
 8039SOL    HW231928   5.905   1.085   0.395  0.9726 -0.2165  0.3561
 8039SOL    HW331929   5.968   1.222   0.414 -1.1363  0.7252  0.8276
 8039SOL    MW431930   5.945   1.144   0.446 -0.0807 -0.2168  0.5139
 8040SOL     OW31931   1.684   4.609   3.216 -0.0062  0.1293  0.4041
 8040SOL    HW231932   1.626   4.572   3.150 -1.4232  0.1034  1.6081
 8040SOL    HW331933   1.760   4.641   3.167 -1.8719  1.9094 -1.4835
 8040SOL    MW431934   1.687   4.608   3.201  0.1185 -0.4514 -0.7121
 8041SOL     OW31935   4.993   6.122   5.816 -0.0294  0.0226 -0.3397
 8041SOL    HW231936   4.935   6.197   5.831 -0.0405 -0.1502  0.5398
 8041SOL    HW331937   5.075   6.145   5.861  0.2153 -0.1796 -0.6806
 8041SOL    MW431938   4.996   6.135   5.824 -0.1841 -0.2153  0.0218
 8042SOL     OW31939   2.673   5.580   0.939 -0.2324 -0.0338  0.2679
 8042SOL    HW231940   2.644   5.596   1.029 -0.6683  0.0150  0.1204
 8042SOL    HW331941   2.768   5.594   0.942 -0.2626  0.1145  0.6854
 8042SOL    MW431942   2.682   5.584   0.951 -0.0746 -0.5668 -0.3147
 8043SOL     OW31943   1.667   2.362   6.169  0.0552 -1.0483  0.4172
 8043SOL    HW231944   1.697   2.335   6.083  0.4580 -1.4247  0.6715
 8043SOL    HW331945   1.635   2.282   6.210  1.1090 -1.1347  1.1188
 8043SOL    MW431946   1.667   2.348   6.163  0.3905  0.2447 -0.1815
 8044SOL     OW31947   3.923   1.488   5.545 -0.2673 -0.4236 -0.2612
 8044SOL    HW231948   3.918   1.409   5.492  0.4337 -0.9745  0.4765
 8044SOL    HW331949   3.936   1.558   5.481 -3.2505 -0.5365 -1.1460
 8044SOL    MW431950   3.924   1.487   5.530  0.4371  0.3852 -0.3393
 8045SOL     OW31951   0.957   3.278   0.798 -0.0164  0.5899  0.2012
 8045SOL    HW231952   1.023   3.270   0.729  0.3738 -1.5405  0.7733
 8045SOL    HW331953   0.925   3.368   0.790  2.0158  1.2672 -0.9395
 8045SOL    MW431954   0.962   3.289   0.788 -0.2699  0.1331 -0.1493
 8046SOL     OW31955   2.931   5.826   5.050 -0.4778 -0.1613  0.0144
 8046SOL    HW231956   2.890   5.911   5.041 -2.1223 -0.9281 -0.0234
 8046SOL    HW331957   2.863   5.763   5.027  0.1019 -1.5746  1.8675
 8046SOL    MW431958   2.917   5.829   5.046 -0.4002 -0.3390  0.0845
 8047SOL     OW31959   5.642   2.072   0.681  0.1077 -0.3397  0.6017
 8047SOL    HW231960   5.654   1.986   0.639  3.5517  0.3521 -0.1130
 8047SOL    HW331961   5.628   2.132   0.608 -0.9602 -0.0653  1.0131
 8047SOL    MW431962   5.642   2.068   0.665 -0.1770  0.3458  0.0783
 8048SOL     OW31963   2.519   2.375   5.222 -0.4089 -0.6088  0.6965
 8048SOL    HW231964   2.505   2.293   5.174 -1.1242  0.1808 -0.5139
 8048SOL    HW331965   2.570   2.429   5.161 -1.6745  0.5655  0.6428
 8048SOL    MW431966   2.524   2.371   5.207  0.2714 -0.0405 -0.0597
 8049SOL     OW31967   0.332   5.536   0.611 -0.1397 -0.1070  0.2217
 8049SOL    HW231968   0.370   5.458   0.572 -0.0739  0.0573 -0.0485
 8049SOL    HW331969   0.244   5.510   0.637  0.9412 -1.2270  3.1481
 8049SOL    MW431970   0.325   5.522   0.609  0.3690  0.6600  0.7943
 8050SOL     OW31971   2.262   4.988   1.905 -0.4567 -0.3232 -0.7205
 8050SOL    HW231972   2.335   4.956   1.958 -0.2966 -0.7893 -1.2061
 8050SOL    HW331973   2.229   5.064   1.953  0.3828 -0.0712 -0.5161
 8050SOL    MW431974   2.268   4.994   1.918 -0.0703 -0.2445 -0.1292
 8051SOL     OW31975   0.740   3.408   3.728  0.0642 -0.0023  0.1296
 8051SOL    HW231976   0.757   3.315   3.718 -0.8190 -0.1825  0.2536
 8051SOL    HW331977   0.672   3.428   3.664 -0.2740  0.3968  0.5959
 8051SOL    MW431978   0.733   3.399   3.718  0.1547  0.2194 -0.8237
 8052SOL     OW31979   0.793   5.288   0.971 -0.0100 -0.2865  0.0151
 8052SOL    HW231980   0.712   5.284   0.920 -0.7581  1.1155  0.9964
 8052SOL    HW331981   0.771   5.245   1.054 -0.2851  1.4107  0.8755
 8052SOL    MW431982   0.780   5.282   0.975 -0.2908 -0.0923 -0.4091
 8053SOL     OW31983   2.554   3.932   4.018  0.1452 -0.1454 -0.3551
 8053SOL    HW231984   2.647   3.908   4.014 -0.2558 -2.3676  1.3216
 8053SOL    HW331985   2.527   3.941   3.927  1.8132 -0.2641 -0.9002
 8053SOL    MW431986   2.563   3.930   4.006 -0.4585  0.2956 -0.1715
 8054SOL     OW31987   3.656   6.021   2.464  0.1479  0.2824 -0.2830
 8054SOL    HW231988   3.640   5.937   2.506  0.6136  0.9503  1.2863
 8054SOL    HW331989   3.624   6.086   2.526  0.4845  1.2899 -1.1384
 8054SOL    MW431990   3.650   6.018   2.477 -0.0436  0.0138  0.5541
 8055SOL     OW31991   5.243   3.116   6.370  0.4968  0.3833  0.2506
 8055SOL    HW231992   5.335   3.101   6.392  0.4756 -2.0522 -0.9866
 8055SOL    HW331993   5.233   3.077   6.284 -1.5773  1.2217  0.0581
 8055SOL    MW431994   5.254   3.109   6.362 -0.3299 -0.4906 -0.4467
 8056SOL     OW31995   2.405   0.983   4.980  0.2710  0.4289 -0.4239
 8056SOL    HW231996   2.393   1.076   5.002 -1.0764  0.0694  0.4459
 8056SOL    HW331997   2.428   0.942   5.063 -1.3234 -0.3614 -0.3426
 8056SOL    MW431998   2.407   0.990   4.993 -0.3732 -0.0174 -0.3152
 8057SOL     OW31999   1.900   2.947   4.399  0.1197  0.5443  0.5582
 8057SOL    HW232000   1.805   2.933   4.397  0.0664  0.9302 -0.0011
 8057SOL    HW332001   1.916   3.008   4.327  0.8364  0.2142  0.4276
 8057SOL    MW432002   1.889   2.953   4.389 -0.3595 -0.2136 -0.3730
 8058SOL     OW32003   4.263   6.258   2.432 -0.4536 -0.1570  0.0771
 8058SOL    HW232004   4.294   6.346   2.453 -2.9989  0.4769  1.5354
 8058SOL    HW332005   4.202   6.270   2.360 -0.4467 -0.8093 -0.0412
 8058SOL    MW432006   4.259   6.271   2.426  0.0057  0.1309  0.3510
 8059SOL     OW32007   6.027   1.916   0.617 -0.4604  0.3335 -0.1237
 8059SOL    HW232008   6.108   1.923   0.666 -0.9922 -0.7398  0.9532
 8059SOL    HW332009   6.048   1.860   0.542 -0.1349  0.3280 -0.0274
 8059SOL    MW432010   6.040   1.910   0.614 -0.1588  0.8240  0.6769
 8060SOL     OW32011   6.001   3.776   0.354 -0.0804 -0.0130  0.6748
 8060SOL    HW232012   5.982   3.692   0.313 -2.2146  0.0469  1.3846
 8060SOL    HW332013   6.050   3.754   0.433  0.1435 -0.5027  0.4031
 8060SOL    MW432014   6.005   3.762   0.359  0.1490  0.0667  0.3293
 8061SOL     OW32015   2.427   3.132   5.654 -0.1730  0.0354 -0.1156
 8061SOL    HW232016   2.503   3.180   5.689  0.3022 -0.8639  0.1106
 8061SOL    HW332017   2.403   3.180   5.575 -0.4530  1.3452  0.7335
 8061SOL    MW432018   2.434   3.145   5.649  0.2965  0.2558 -0.7919
 8062SOL     OW32019   2.667   2.727   2.137 -0.1671 -0.4898  0.7809
 8062SOL    HW232020   2.754   2.749   2.105 -0.9724  1.3997 -0.2849
 8062SOL    HW332021   2.622   2.692   2.060 -0.9628  0.5227  0.7621
 8062SOL    MW432022   2.672   2.725   2.123  0.1498  0.0374  0.2524
 8063SOL     OW32023   2.009   0.676   2.825  0.0215  0.3523 -0.0269
 8063SOL    HW232024   2.076   0.641   2.766  1.5572  0.9462  1.2958
 8063SOL    HW332025   1.959   0.737   2.770  1.0626  0.4741 -0.8776
 8063SOL    MW432026   2.011   0.680   2.810  0.3652 -0.2757  0.2198
 8064SOL     OW32027   1.300   0.134   5.283 -0.2767 -0.2544 -0.0372
 8064SOL    HW232028   1.209   0.120   5.311 -0.7888 -1.0331 -1.9641
 8064SOL    HW332029   1.294   0.186   5.204  1.0672  0.7609  0.4863
 8064SOL    MW432030   1.287   0.139   5.277  0.1067 -0.2318 -0.0273
 8065SOL     OW32031   2.307   0.426   3.352 -0.2341  0.4402  0.4432
 8065SOL    HW232032   2.222   0.383   3.350  0.4235 -0.9178  0.3315
 8065SOL    HW332033   2.313   0.474   3.270 -0.7091  0.1590  0.2453
 8065SOL    MW432034   2.297   0.427   3.341  0.4396 -0.2759 -0.0409
 8066SOL     OW32035   3.270   1.847   2.794  0.1790 -0.4968  0.4221
 8066SOL    HW232036   3.221   1.790   2.734 -1.7264 -1.3259  2.5907
 8066SOL    HW332037   3.228   1.932   2.785  1.2474 -0.0673 -0.8396
 8066SOL    MW432038   3.258   1.851   2.785 -0.6056  0.5806 -0.1828
 8067SOL     OW32039   3.740   5.971   4.861 -0.3307  0.3788  0.4728
 8067SOL    HW232040   3.683   6.030   4.910 -1.6442  0.7405 -1.3765
 8067SOL    HW332041   3.687   5.892   4.847  0.9920 -0.8327  1.9108
 8067SOL    MW432042   3.726   5.968   4.865 -0.0884  0.0606  0.0573
 8068SOL     OW32043   0.124   1.160   2.159  0.7256  0.0237 -0.0171
 8068SOL    HW232044   0.063   1.094   2.127  0.2268  1.0397 -1.2305
 8068SOL    HW332045   0.208   1.137   2.119  0.8587 -0.5952  0.5905
 8068SOL    MW432046   0.127   1.149   2.150  0.3063  0.4379  0.0524
 8069SOL     OW32047   5.621   6.278   5.431 -0.4064  0.0536 -0.6153
 8069SOL    HW232048   5.581   6.193   5.418  0.3016 -0.7329  1.8193
 8069SOL    HW332049   5.592   6.306   5.518  1.3784  1.1150 -0.2960
 8069SOL    MW432050   5.612   6.271   5.441  0.0603  0.3787  0.0427
 8070SOL     OW32051   5.926   0.732   2.600 -0.3613 -0.1726 -0.5150
 8070SOL    HW232052   5.835   0.747   2.574 -0.1421  0.1874 -1.0884
 8070SOL    HW332053   5.953   0.655   2.549  0.1105  0.6158 -1.4767
 8070SOL    MW432054   5.917   0.724   2.590 -0.6638 -0.1091  0.1104
 8071SOL     OW32055   1.479   4.282   1.028  0.1494 -0.4565 -0.0764
 8071SOL    HW232056   1.415   4.220   0.992 -1.8714  2.1109 -1.2714
 8071SOL    HW332057   1.468   4.275   1.123 -2.4018  0.2312 -0.2363
 8071SOL    MW432058   1.469   4.273   1.036  0.2433  0.1131 -0.0971
 8072SOL     OW32059   0.078   3.988   6.103  0.1316  0.3249  0.6043
 8072SOL    HW232060   0.167   3.985   6.066  0.1630  0.7408  0.6468
 8072SOL    HW332061   0.045   4.074   6.080 -0.3114  0.1286  0.4888
 8072SOL    MW432062   0.086   3.999   6.095 -0.0322 -0.3936 -0.7449
 8073SOL     OW32063   1.061   0.017   1.740  0.5005  0.3181  0.0038
 8073SOL    HW232064   1.033  -0.063   1.784 -0.8354 -0.1643 -1.6196
 8073SOL    HW332065   1.154   0.025   1.761  0.2105 -0.5764  1.7722
 8073SOL    MW432066   1.070   0.008   1.749 -0.1246  0.3089  0.2275
 8074SOL     OW32067   1.862   1.156   6.354 -0.3959  0.2308  0.1761
 8074SOL    HW232068   1.807   1.088   6.392 -1.2007  0.8476  0.1284
 8074SOL    HW332069   1.885   1.122   6.267 -2.2556  0.7771 -0.5646
 8074SOL    MW432070   1.858   1.142   6.348 -0.0707 -0.4675  0.6771
 8075SOL     OW32071   2.248   0.434   2.295  0.1692  0.1834  0.5235
 8075SOL    HW232072   2.287   0.421   2.209  0.7908 -0.7440  0.9303
 8075SOL    HW332073   2.310   0.394   2.356 -1.1274 -0.8156  1.2428
 8075SOL    MW432074   2.261   0.427   2.292 -0.2300 -0.5335  0.4257
 8076SOL     OW32075   5.075   6.016   1.228  0.1584 -0.3437  0.0367
 8076SOL    HW232076   5.086   5.940   1.171 -0.4381 -1.1538  0.9604
 8076SOL    HW332077   5.163   6.040   1.254  0.5012  0.4437 -1.7055
 8076SOL    MW432078   5.088   6.009   1.224 -0.3576  0.4368  0.3956
 8077SOL     OW32079   5.812   0.666   1.045  0.7236 -0.1268 -0.1299
 8077SOL    HW232080   5.888   0.658   1.103  0.6905  0.0381 -0.0631
 8077SOL    HW332081   5.849   0.698   0.963  0.8765 -1.0799 -0.4422
 8077SOL    MW432082   5.827   0.669   1.042  0.0025  0.3750 -0.2980
 8078SOL     OW32083   6.242   1.581   0.400  0.1897  0.5481  0.4587
 8078SOL    HW232084   6.290   1.619   0.474  0.3242  2.0736 -0.3696
 8078SOL    HW332085   6.309   1.563   0.334 -0.1680  1.2474 -0.1146
 8078SOL    MW432086   6.257   1.583   0.401 -0.0041  0.1260  0.0211
 8079SOL     OW32087   5.291   3.415   0.065 -0.1524  0.3780  0.1961
 8079SOL    HW232088   5.328   3.380  -0.016 -0.0290 -0.0899  0.4528
 8079SOL    HW332089   5.279   3.338   0.121  1.3810  0.8758  1.2835
 8079SOL    MW432090   5.294   3.400   0.062 -0.6595  0.1343 -0.7418
 8080SOL     OW32091   1.616   3.481   5.265  0.0890  0.4833  0.3474
 8080SOL    HW232092   1.700   3.526   5.275  0.6216 -0.4706  0.2734
 8080SOL    HW332093   1.617   3.412   5.331 -0.8221  0.7181  0.6210
 8080SOL    MW432094   1.627   3.478   5.275 -0.0895 -0.1954 -0.0752
 8081SOL     OW32095   0.614   1.810   4.617  0.5298  0.1281  0.0465
 8081SOL    HW232096   0.520   1.814   4.632  0.0959 -0.3083 -2.1944
 8081SOL    HW332097   0.632   1.886   4.561  1.2065 -0.6803 -0.8588
 8081SOL    MW432098   0.604   1.821   4.611  0.4148  0.0300 -0.1483
 8082SOL     OW32099   4.498   3.575   5.444  0.2956  0.0723 -0.3982
 8082SOL    HW232100   4.436   3.564   5.372  1.3960  0.5269 -1.4402
 8082SOL    HW332101   4.510   3.487   5.479  1.3241 -0.5065 -2.1127
 8082SOL    MW432102   4.491   3.562   5.439  0.0755  0.3227 -0.1397
 8083SOL     OW32103   1.558   1.493   0.021 -0.2799  0.5632 -0.5975
 8083SOL    HW232104   1.540   1.536  -0.062  2.7140  1.4936 -0.8860
 8083SOL    HW332105   1.650   1.514   0.040 -0.1884 -1.4771  1.8355
 8083SOL    MW432106   1.568   1.501   0.013 -0.1697 -0.3214  0.6002
 8084SOL     OW32107   5.526   1.672   0.483 -0.1380  0.0091 -0.4799
 8084SOL    HW232108   5.471   1.628   0.548  0.0409  1.7691  0.9651
 8084SOL    HW332109   5.465   1.720   0.427 -0.2400 -0.6978 -0.9773
 8084SOL    MW432110   5.511   1.673   0.484 -0.5365 -0.8008 -0.3525
 8085SOL     OW32111   5.700   3.943   1.281 -0.3532 -0.1186  0.0278
 8085SOL    HW232112   5.687   3.984   1.366  0.5194  0.1531  0.0318
 8085SOL    HW332113   5.791   3.960   1.259 -0.1619 -1.4710 -0.2839
 8085SOL    MW432114   5.710   3.951   1.289  0.1026  0.1599 -0.6604
 8086SOL     OW32115   1.188   5.320   0.236 -0.1564  0.2535 -0.1910
 8086SOL    HW232116   1.114   5.367   0.200 -1.0291 -1.0452 -0.1530
 8086SOL    HW332117   1.220   5.265   0.165  0.1425  0.0635  0.0814
 8086SOL    MW432118   1.183   5.319   0.222 -0.3788  0.2403  0.2907
 8087SOL     OW32119   4.972   3.019   4.402 -0.1857  0.3706 -0.0689
 8087SOL    HW232120   5.045   3.081   4.397  0.3268 -0.2961 -1.4802
 8087SOL    HW332121   4.928   3.029   4.318 -1.5236  0.4904  0.6228
 8087SOL    MW432122   4.976   3.029   4.390 -0.0944 -0.1731  0.1822
 8088SOL     OW32123   5.594   5.516   1.749 -0.5548 -0.1952 -0.1971
 8088SOL    HW232124   5.647   5.519   1.669  0.3354 -0.0893  0.3766
 8088SOL    HW332125   5.519   5.572   1.730  0.2422  0.7838 -0.5614
 8088SOL    MW432126   5.591   5.524   1.736  0.4944 -0.0779 -0.2266
 8089SOL     OW32127   0.178   6.033   5.413  0.5732  0.1574 -0.1087
 8089SOL    HW232128   0.157   5.953   5.366  0.3069 -0.8622  1.6492
 8089SOL    HW332129   0.170   6.103   5.348  0.5145 -1.2024 -1.6001
 8089SOL    MW432130   0.174   6.032   5.398 -0.3724  0.1363 -0.8732
 8090SOL     OW32131   1.254   2.682   6.131 -0.3368  0.7857  0.1186
 8090SOL    HW232132   1.312   2.606   6.131 -0.5133  0.6492 -0.0289
 8090SOL    HW332133   1.257   2.715   6.042 -0.2490  0.9611  0.1864
 8090SOL    MW432134   1.262   2.676   6.119  0.3523  0.0876  0.6829
 8091SOL     OW32135   2.321   0.547   5.471  0.6159  0.1716  0.3007
 8091SOL    HW232136   2.292   0.628   5.428  0.9109 -0.3508 -0.9382
 8091SOL    HW332137   2.406   0.568   5.508 -0.5407  1.2507  2.5635
 8091SOL    MW432138   2.328   0.560   5.470  0.1457 -0.0502  0.5112
 8092SOL     OW32139   0.935   4.576   0.572  0.0586  0.2053  0.0101
 8092SOL    HW232140   0.888   4.522   0.636 -0.6161  0.5842 -0.1500
 8092SOL    HW332141   0.981   4.641   0.625 -1.2172  1.0752  0.0817
 8092SOL    MW432142   0.935   4.577   0.588  0.4769 -0.4007 -0.5903
 8093SOL     OW32143   2.533   2.726   4.223 -0.8141  0.1788  0.0118
 8093SOL    HW232144   2.593   2.779   4.276  0.4228  1.1246 -2.1973
 8093SOL    HW332145   2.588   2.656   4.188 -1.0972  0.6967 -1.5500
 8093SOL    MW432146   2.548   2.723   4.226  0.6801  0.9859 -0.0834
 8094SOL     OW32147   4.369   0.980   6.091 -0.0947 -0.1999 -0.4940
 8094SOL    HW232148   4.368   1.072   6.119  0.2568 -0.3014 -0.1357
 8094SOL    HW332149   4.296   0.940   6.137 -1.3984  0.2900 -2.0517
 8094SOL    MW432150   4.359   0.987   6.101  0.0638 -0.1616  0.1350
 8095SOL     OW32151   1.864   4.300   3.450 -0.2273  0.4940 -0.0723
 8095SOL    HW232152   1.911   4.236   3.397  1.1934 -0.6183  2.3646
 8095SOL    HW332153   1.829   4.250   3.524 -3.5258  1.6781 -0.6480
 8095SOL    MW432154   1.865   4.285   3.453 -0.3800 -0.5969 -0.0761
 8096SOL     OW32155   5.004   0.361   5.815 -0.4498 -0.2062  0.2467
 8096SOL    HW232156   5.037   0.421   5.748 -1.9351  1.6661  1.1061
 8096SOL    HW332157   4.932   0.315   5.773  0.8505 -1.6566 -0.4945
 8096SOL    MW432158   4.999   0.363   5.800 -0.4705 -0.5913  0.2088
 8097SOL     OW32159   1.532   6.327   0.078 -0.5537 -0.2570 -0.0533
 8097SOL    HW232160   1.610   6.381   0.063  0.2442 -1.2138  0.5639
 8097SOL    HW332161   1.461   6.391   0.088 -0.2959  0.5801 -2.8198
 8097SOL    MW432162   1.533   6.343   0.077  0.7553 -0.2372  0.1682
 8098SOL     OW32163   3.643   4.892   1.027  0.2328 -0.1177 -0.8146
 8098SOL    HW232164   3.678   4.902   0.938 -1.2974 -0.3412 -1.4761
 8098SOL    HW332165   3.703   4.832   1.070  1.3525  0.4866 -1.4867
 8098SOL    MW432166   3.655   4.886   1.021  0.9508  0.0306 -0.3906
 8099SOL     OW32167   1.132   4.444   0.417  0.1458  0.2559 -0.7390
 8099SOL    HW232168   1.064   4.511   0.423  0.9447  0.9689  3.5324
 8099SOL    HW332169   1.209   4.491   0.384  0.3359  1.1802  0.9327
 8099SOL    MW432170   1.133   4.459   0.413 -0.0815 -0.4059 -0.4345
 8100SOL     OW32171   3.620   1.280   0.827  0.4801 -0.3549  0.2855
 8100SOL    HW232172   3.637   1.259   0.735 -0.3057  1.4437 -0.3167
 8100SOL    HW332173   3.528   1.305   0.830  0.5711 -0.0800  1.4958
 8100SOL    MW432174   3.610   1.281   0.815  0.2813  0.5946 -0.2153
 8101SOL     OW32175   0.931   4.305   3.249  0.0954  0.2222 -0.2240
 8101SOL    HW232176   0.984   4.259   3.184 -0.3659 -2.3981  1.1452
 8101SOL    HW332177   0.988   4.314   3.325 -0.4078  0.2510  0.1566
 8101SOL    MW432178   0.945   4.300   3.250 -0.1496 -0.6976 -0.5794
 8102SOL     OW32179   4.617   2.764   6.411 -0.0716 -0.0752 -0.1549
 8102SOL    HW232180   4.562   2.747   6.488 -0.4234  0.8259 -0.2013
 8102SOL    HW332181   4.605   2.857   6.393  0.0389 -0.2642 -1.2794
 8102SOL    MW432182   4.608   2.774   6.419  0.0638  0.0570 -0.0864
 8103SOL     OW32183   3.666   2.960   5.634  0.7412  0.3352 -0.0105
 8103SOL    HW232184   3.635   3.046   5.662 -0.0189  0.5684 -1.4501
 8103SOL    HW332185   3.696   2.918   5.714 -1.2026  0.9821  1.1192
 8103SOL    MW432186   3.666   2.966   5.648 -0.2864 -0.0765  0.2776
 8104SOL     OW32187   0.499   5.170   2.566  0.2187  0.3914  0.2818
 8104SOL    HW232188   0.457   5.239   2.515  0.0092  1.1108  1.3882
 8104SOL    HW332189   0.429   5.137   2.623  1.0181  1.3878  1.9256
 8104SOL    MW432190   0.484   5.175   2.567  0.6110  0.7346 -0.4993
 8105SOL     OW32191   6.182   4.993   5.313 -0.1550 -0.3420  0.2697
 8105SOL    HW232192   6.105   5.038   5.350  0.2772  0.7592 -0.1199
 8105SOL    HW332193   6.177   5.010   5.219 -1.5952 -3.6724 -0.3896
 8105SOL    MW432194   6.171   5.001   5.306  0.6083 -0.0772 -0.3022
 8106SOL     OW32195   4.262   2.957   6.054 -0.3573  0.1686 -0.0718
 8106SOL    HW232196   4.335   3.015   6.032 -1.5351  1.8371  0.2538
 8106SOL    HW332197   4.270   2.944   6.149  1.0378 -1.8695 -0.4064
 8106SOL    MW432198   4.273   2.963   6.064 -0.2069 -0.0556  0.0824
 8107SOL     OW32199   5.280   4.783   1.462 -0.2830  0.3521 -0.3218
 8107SOL    HW232200   5.222   4.811   1.533 -1.3080  0.0753 -1.0146
 8107SOL    HW332201   5.239   4.703   1.429 -0.6430  1.2481 -2.1494
 8107SOL    MW432202   5.267   4.776   1.467  0.2976  0.8963 -0.3287
 8108SOL     OW32203   1.790   6.137   1.792  0.3317 -0.4754 -0.0171
 8108SOL    HW232204   1.813   6.058   1.841  1.6307  0.6922  1.3596
 8108SOL    HW332205   1.848   6.135   1.716 -0.3132 -1.2978 -0.5108
 8108SOL    MW432206   1.801   6.126   1.788  0.6421  0.5379 -0.2554
 8109SOL     OW32207   3.753   3.216   3.464 -0.2158  0.4491  0.4934
 8109SOL    HW232208   3.658   3.226   3.453 -0.1509  0.2722 -0.2447
 8109SOL    HW332209   3.766   3.121   3.463 -0.0002  0.4810  0.3281
 8109SOL    MW432210   3.742   3.205   3.463  0.3233  0.5544  0.0301
 8110SOL     OW32211   5.850   0.714   3.292  0.2031  0.2299 -0.0771
 8110SOL    HW232212   5.858   0.783   3.226  0.4526  0.3175  0.0444
 8110SOL    HW332213   5.795   0.751   3.360  1.5764  0.8796  0.7268
 8110SOL    MW432214   5.844   0.728   3.292  0.0306  0.4914  0.3497
 8111SOL     OW32215   3.573   6.063   3.579 -0.2038  0.1872 -0.1047
 8111SOL    HW232216   3.609   5.980   3.609  4.3562  1.7019 -0.7023
 8111SOL    HW332217   3.521   6.040   3.501  0.9462 -2.1087 -0.2581
 8111SOL    MW432218   3.571   6.049   3.572  0.3156 -0.0853  0.4177
 8112SOL     OW32219   0.490   3.851   1.047  0.1761  0.2214 -0.0702
 8112SOL    HW232220   0.584   3.835   1.062  0.2694 -0.4308 -1.2140
 8112SOL    HW332221   0.475   3.939   1.081  0.7882 -0.3501  1.8082
 8112SOL    MW432222   0.501   3.861   1.054 -0.1003  0.4634  0.0280
 8113SOL     OW32223   2.703   3.038   1.025  0.5039  0.2913  0.3562
 8113SOL    HW232224   2.653   2.989   0.959  1.7359 -0.1739 -0.2634
 8113SOL    HW332225   2.637   3.084   1.076 -0.6334 -1.1994  0.2856
 8113SOL    MW432226   2.688   3.038   1.023 -0.2214 -0.1614 -0.2349
 8114SOL     OW32227   2.616   3.029   3.917 -0.3017  0.2447 -0.2717
 8114SOL    HW232228   2.592   3.098   3.980  0.8929  0.4406 -0.0056
 8114SOL    HW332229   2.686   2.980   3.961 -1.7342 -1.7486 -0.0578
 8114SOL    MW432230   2.622   3.032   3.931  0.3451 -0.4390 -0.2695
 8115SOL     OW32231   1.801   1.443   2.561  0.2022 -0.4557 -0.0070
 8115SOL    HW232232   1.870   1.459   2.625  1.1951 -0.9809 -0.9070
 8115SOL    HW332233   1.825   1.498   2.486 -2.0535  1.7684  0.7537
 8115SOL    MW432234   1.814   1.452   2.559 -0.4874  0.0163  0.1395
 8116SOL     OW32235   6.159   2.690   4.013  0.4802  0.0866  0.1073
 8116SOL    HW232236   6.115   2.701   4.097  1.1822  1.0979  0.3739
 8116SOL    HW332237   6.099   2.637   3.960 -0.6381  0.6686  0.7538
 8116SOL    MW432238   6.145   2.685   4.017  0.1878  0.4585 -0.2159
 8117SOL     OW32239   2.711   3.609   2.099  0.3642  0.5116 -0.0660
 8117SOL    HW232240   2.692   3.521   2.131 -0.5880  0.6716 -0.1530
 8117SOL    HW332241   2.719   3.663   2.178  1.1242  0.3222 -0.0068
 8117SOL    MW432242   2.709   3.605   2.114  0.1450  0.2068 -0.3023
 8118SOL     OW32243   6.275   3.313   2.184  0.2339 -0.3708  0.2919
 8118SOL    HW232244   6.314   3.281   2.266 -1.1206  0.3849  1.2784
 8118SOL    HW332245   6.297   3.406   2.182 -0.2853 -0.2493  0.1260
 8118SOL    MW432246   6.283   3.321   2.195  0.7663  0.4880 -0.0539
 8119SOL     OW32247   0.515   3.320   5.383 -0.2515 -0.4369  0.3599
 8119SOL    HW232248   0.526   3.256   5.313  2.2690 -0.2277  0.4488
 8119SOL    HW332249   0.534   3.271   5.463  0.0019  0.0222  0.5885
 8119SOL    MW432250   0.519   3.305   5.384 -0.5076 -0.2730  0.2660
 8120SOL     OW32251   0.575   0.600   1.299  0.4473 -0.1311 -0.1363
 8120SOL    HW232252   0.563   0.506   1.314 -0.3187  0.2250  1.7308
 8120SOL    HW332253   0.547   0.613   1.208  0.8113 -1.7343 -0.5075
 8120SOL    MW432254   0.570   0.589   1.289 -0.0536 -0.1768  0.4451
 8121SOL     OW32255   1.645   4.165   6.208  0.7391  0.0156 -0.6377
 8121SOL    HW232256   1.739   4.177   6.209  0.7397  0.2828  2.1316
 8121SOL    HW332257   1.631   4.090   6.150  2.6958 -0.3986 -0.6250
 8121SOL    MW432258   1.655   4.157   6.200 -0.3698 -0.1412  0.1373
 8122SOL     OW32259   0.337   5.182   3.263  0.1647  0.3586 -0.4216
 8122SOL    HW232260   0.297   5.116   3.206 -0.1342 -0.3568  0.6001
 8122SOL    HW332261   0.421   5.144   3.288 -0.2305  0.1155  0.5887
 8122SOL    MW432262   0.343   5.169   3.258 -0.5819  0.3437 -0.3470
 8123SOL     OW32263   5.674   5.782   5.297  0.0291 -0.3528 -0.2723
 8123SOL    HW232264   5.606   5.781   5.229  0.5864 -0.3896 -0.8391
 8123SOL    HW332265   5.646   5.849   5.358 -1.3600 -1.4724  0.3755
 8123SOL    MW432266   5.661   5.791   5.296 -0.5242 -0.0494 -0.2268
 8124SOL     OW32267   2.518   2.330   4.215  0.1887  0.2539  0.1223
 8124SOL    HW232268   2.589   2.382   4.177  0.5019  0.6856  1.2513
 8124SOL    HW332269   2.438   2.372   4.185  0.4390  1.5273  1.1601
 8124SOL    MW432270   2.517   2.342   4.206 -0.9451 -0.9492  0.1712
 8125SOL     OW32271   6.177   0.800   3.084 -0.4152 -0.2069  0.2922
 8125SOL    HW232272   6.143   0.867   3.024 -0.3495  0.1760  0.6810
 8125SOL    HW332273   6.159   0.834   3.171  2.8185  1.0621  0.6244
 8125SOL    MW432274   6.170   0.813   3.087  0.1309 -0.2642  0.2403
 8126SOL     OW32275   5.851   6.134   5.511  0.5262  0.5626 -0.3959
 8126SOL    HW232276   5.779   6.183   5.473  0.2136  0.3654 -0.0643
 8126SOL    HW332277   5.890   6.086   5.438  1.0078  1.5158 -0.7718
 8126SOL    MW432278   5.847   6.134   5.497  1.1011  0.3499 -0.0650
 8127SOL     OW32279   1.247   1.826   0.136  0.1428  0.1504  0.0951
 8127SOL    HW232280   1.247   1.740   0.093 -1.2949  0.5659 -0.7822
 8127SOL    HW332281   1.290   1.884   0.074 -2.5637  0.9050 -1.2444
 8127SOL    MW432282   1.253   1.822   0.122  0.2032  0.1701  0.4113
 8128SOL     OW32283   6.281   6.368   0.240 -0.5508 -0.0203 -0.3699
 8128SOL    HW232284   6.327   6.350   0.321 -1.7934  0.7320  0.5409
 8128SOL    HW332285   6.271   6.283   0.198  0.2153 -0.3997  0.1968
 8128SOL    MW432286   6.286   6.355   0.245 -0.7228 -0.5184 -0.4870
 8129SOL     OW32287   4.998   4.359   1.606  0.5983  0.1207 -0.1555
 8129SOL    HW232288   4.968   4.428   1.546  0.7349 -0.0597 -0.4336
 8129SOL    HW332289   5.093   4.369   1.607  0.5678  0.4042  0.3761
 8129SOL    MW432290   5.007   4.370   1.598 -0.1981 -0.0066  0.3435
 8130SOL     OW32291   0.230   5.699   2.591 -0.2594  0.0289 -0.1114
 8130SOL    HW232292   0.176   5.706   2.512 -0.5650 -0.9907  0.0009
 8130SOL    HW332293   0.174   5.657   2.656  0.6158 -0.9170  0.0509
 8130SOL    MW432294   0.215   5.695   2.589  0.1474  0.1045 -0.4628
 8131SOL     OW32295   0.619   4.634   1.817  0.0352  0.3196  0.4480
 8131SOL    HW232296   0.619   4.728   1.798 -0.2500  0.6466  1.9844
 8131SOL    HW332297   0.537   4.619   1.864 -0.0614 -0.7726 -0.0256
 8131SOL    MW432298   0.608   4.645   1.821  0.2076  0.1885  0.4717
 8132SOL     OW32299   6.363   2.939   2.582  0.7060 -0.0245 -0.2591
 8132SOL    HW232300   6.437   2.894   2.624  0.5606  0.4271  0.4943
 8132SOL    HW332301   6.314   2.869   2.539  0.1666 -0.6926  1.3701
 8132SOL    MW432302   6.367   2.923   2.582 -0.2319 -0.2272 -0.1870
 8133SOL     OW32303   1.511   2.952   2.815  0.7645 -0.3685 -0.1277
 8133SOL    HW232304   1.430   2.904   2.827  1.0894 -0.3957  2.4998
 8133SOL    HW332305   1.580   2.887   2.829  1.1918  0.4439  1.9807
 8133SOL    MW432306   1.510   2.937   2.818  0.4577  0.5522 -0.2787
 8134SOL     OW32307   2.978   4.792   1.543  0.2748 -0.1492 -0.4469
 8134SOL    HW232308   2.938   4.787   1.456 -0.7779 -1.0259  0.0585
 8134SOL    HW332309   2.914   4.750   1.600  1.7778 -1.2578  0.4698
 8134SOL    MW432310   2.964   4.786   1.539 -0.3227  0.4358 -0.3321
 8135SOL     OW32311   4.735   0.926   4.422 -0.1314 -0.0248 -0.0230
 8135SOL    HW232312   4.778   0.841   4.431  0.0885 -0.0353 -0.9865
 8135SOL    HW332313   4.800   0.982   4.380 -0.8450  0.1015 -1.0283
 8135SOL    MW432314   4.749   0.922   4.417  0.2004  0.0266  0.2724
 8136SOL     OW32315   5.686   0.273   4.282  0.1228 -0.1388  0.5349
 8136SOL    HW232316   5.627   0.348   4.276  0.1557 -0.2011 -0.8280
 8136SOL    HW332317   5.724   0.280   4.369 -0.5062  0.9467  0.7443
 8136SOL    MW432318   5.683   0.284   4.293  0.7579 -0.1782  0.2368
 8137SOL     OW32319   3.332   1.088   3.965  0.2543  0.1670 -0.3682
 8137SOL    HW232320   3.253   1.038   3.946  0.0705  1.5166 -3.9228
 8137SOL    HW332321   3.404   1.032   3.935  0.4985 -0.0069  0.4951
 8137SOL    MW432322   3.331   1.074   3.959  0.1736 -0.9376 -0.7831
 8138SOL     OW32323   4.417   4.709   1.684 -0.2001 -0.2298 -0.0518
 8138SOL    HW232324   4.435   4.647   1.754  0.3813  0.8833  0.8214
 8138SOL    HW332325   4.488   4.774   1.691 -0.1611 -0.0694 -1.6381
 8138SOL    MW432326   4.429   4.710   1.694  0.5053 -0.3485  0.2708
 8139SOL     OW32327   5.486   4.886   0.651  0.4302 -0.6496  0.1679
 8139SOL    HW232328   5.571   4.918   0.620  1.4774 -1.0241  2.4631
 8139SOL    HW332329   5.457   4.825   0.584  1.8665 -0.3455 -0.7674
 8139SOL    MW432330   5.493   4.882   0.638  0.1576 -0.0796  0.2986
 8140SOL     OW32331   0.910   2.416   1.790  0.0431  0.1099  0.2080
 8140SOL    HW232332   0.986   2.439   1.735  0.2335 -0.9458  0.0074
 8140SOL    HW332333   0.866   2.346   1.741 -0.8815  0.4818  0.4881
 8140SOL    MW432334   0.914   2.410   1.776  0.6317  0.4830  0.1775
 8141SOL     OW32335   0.030   2.829   3.720 -0.4000 -0.4966  0.0158
 8141SOL    HW232336   0.048   2.878   3.800 -0.0791  2.4050 -1.6738
 8141SOL    HW332337  -0.065   2.827   3.713 -0.4278  1.2182 -0.5647
 8141SOL    MW432338   0.020   2.835   3.730 -0.7267 -0.3617  0.1760
 8142SOL     OW32339   3.187   5.606   1.946  0.0168  0.5112 -0.7762
 8142SOL    HW232340   3.231   5.676   1.993  1.3515  0.3625 -1.7351
 8142SOL    HW332341   3.124   5.570   2.009  0.8353  1.1433  0.4437
 8142SOL    MW432342   3.185   5.610   1.960  0.3180 -0.0904  0.1519
 8143SOL     OW32343   0.639   1.841   4.953 -0.1089  0.2104  0.2911
 8143SOL    HW232344   0.716   1.894   4.973  1.6281 -1.9951 -0.1962
 8143SOL    HW332345   0.645   1.824   4.859 -0.2780 -1.3179  0.5337
 8143SOL    MW432346   0.650   1.846   4.943  1.1104  0.1712 -0.2886
 8144SOL     OW32347   5.517   4.346   3.016  0.3064 -0.1614  0.2919
 8144SOL    HW232348   5.558   4.397   3.086  0.4830 -1.6719  1.3357
 8144SOL    HW332349   5.496   4.262   3.056  1.3137 -1.4498 -1.7041
 8144SOL    MW432350   5.520   4.342   3.030  0.6500 -0.3367  0.2857
 8145SOL     OW32351   0.217   6.101   3.195  0.1930  0.2475 -0.5742
 8145SOL    HW232352   0.127   6.120   3.220  0.0987  2.5322 -2.2380
 8145SOL    HW332353   0.210   6.029   3.133 -0.5313  0.5058 -0.8044
 8145SOL    MW432354   0.204   6.094   3.190  0.7272  0.8721 -0.5184
 8146SOL     OW32355   1.962   3.148   4.195  0.2685  0.0611 -0.6932
 8146SOL    HW232356   2.043   3.198   4.202 -0.3956  1.0933 -0.1577
 8146SOL    HW332357   1.942   3.148   4.101  0.7508  0.0155 -0.7966
 8146SOL    MW432358   1.970   3.154   4.183 -0.2189 -0.2524  0.3040
 8147SOL     OW32359   2.742   4.998   1.579 -0.1731  0.3796  0.0727
 8147SOL    HW232360   2.720   4.907   1.559  2.4311 -0.4606  0.5180
 8147SOL    HW332361   2.719   5.009   1.671 -1.4650  0.5508 -0.2503
 8147SOL    MW432362   2.736   4.988   1.589  0.3363 -0.1911  0.0963
 8148SOL     OW32363   3.322   0.466   1.342  0.4149  0.2449  0.6192
 8148SOL    HW232364   3.359   0.383   1.310  0.0465  0.7453 -1.2700
 8148SOL    HW332365   3.383   0.533   1.310 -0.2035  0.8169  0.6272
 8148SOL    MW432366   3.335   0.464   1.333 -0.0065 -0.1633 -0.4149
 8149SOL     OW32367   1.257   1.950   4.578  0.2653  0.2238 -0.3595
 8149SOL    HW232368   1.311   1.882   4.618  0.1185 -0.2186 -0.8855
 8149SOL    HW332369   1.273   1.940   4.484  2.4826  2.8037 -0.3604
 8149SOL    MW432370   1.266   1.939   4.571  0.3123  0.3091 -0.1877
 8150SOL     OW32371   3.428   0.650   2.083 -0.2072 -0.2856  0.1304
 8150SOL    HW232372   3.344   0.656   2.039  0.2480  0.8091 -0.6227
 8150SOL    HW332373   3.412   0.685   2.171 -0.7791 -1.1502  0.3876
 8150SOL    MW432374   3.415   0.655   2.089 -0.3652  0.1491 -0.8588
 8151SOL     OW32375   1.036   4.516   1.244 -0.0739  0.4557  0.5408
 8151SOL    HW232376   0.970   4.556   1.187 -0.2759 -1.7733 -0.9268
 8151SOL    HW332377   1.086   4.590   1.278 -0.6240  1.9782 -1.6931
 8151SOL    MW432378   1.034   4.531   1.241 -0.0906  0.4883  0.5147
 8152SOL     OW32379   2.435   2.814   2.561 -0.1724  0.2048  0.1805
 8152SOL    HW232380   2.459   2.726   2.588 -1.6260 -0.4441 -0.5325
 8152SOL    HW332381   2.349   2.830   2.601 -0.5444  0.7516 -0.7821
 8152SOL    MW432382   2.426   2.805   2.570 -0.5993 -0.1318  0.2318
 8153SOL     OW32383   2.938   3.829   0.688 -0.4244 -0.7358  0.3234
 8153SOL    HW232384   2.896   3.826   0.602 -0.5625  0.2346  0.3492
 8153SOL    HW332385   2.998   3.904   0.684 -0.4252 -0.6800  1.0620
 8153SOL    MW432386   2.940   3.839   0.676  0.0255  0.0163 -0.2757
 8154SOL     OW32387   0.247   5.588   4.115 -0.2367 -0.1511  0.5059
 8154SOL    HW232388   0.311   5.640   4.164 -0.5685  0.7298  0.0164
 8154SOL    HW332389   0.290   5.503   4.103 -0.1786 -0.4507  2.4028
 8154SOL    MW432390   0.261   5.584   4.120  0.3637 -0.4720  0.0053
 8155SOL     OW32391   0.096   1.073   5.636  0.3801 -0.2781 -0.3830
 8155SOL    HW232392   0.018   1.041   5.591 -0.3910  1.3897 -0.2995
 8155SOL    HW332393   0.131   0.996   5.681  0.0113 -1.5342 -2.1373
 8155SOL    MW432394   0.090   1.059   5.636  0.5842 -0.2869 -0.2251
 8156SOL     OW32395   4.661   5.846   3.755 -0.1917 -0.6406  0.3852
 8156SOL    HW232396   4.676   5.893   3.673 -2.1468 -1.2241 -0.3566
 8156SOL    HW332397   4.625   5.762   3.729 -0.5691 -0.9677  1.8385
 8156SOL    MW432398   4.658   5.841   3.741  0.0753 -0.1088 -0.0846
 8157SOL     OW32399   0.465   1.302   1.311 -0.0255  0.1032 -0.3870
 8157SOL    HW232400   0.504   1.314   1.398 -1.1086  1.6913 -0.0813
 8157SOL    HW332401   0.501   1.373   1.258  0.4222 -0.6971 -1.1780
 8157SOL    MW432402   0.475   1.313   1.316 -0.7790  0.4920  0.3744
 8158SOL     OW32403   2.731   4.240   6.212 -0.1755  0.4537 -0.2545
 8158SOL    HW232404   2.732   4.329   6.247 -0.5443 -0.3701  1.9662
 8158SOL    HW332405   2.646   4.233   6.168 -1.6245  0.2544  2.3621
 8158SOL    MW432406   2.720   4.251   6.211  0.2039 -0.6119 -0.0330
 8159SOL     OW32407   0.479   1.192   0.954 -0.1291 -0.0500  0.1178
 8159SOL    HW232408   0.531   1.114   0.974  2.4990  0.8469 -2.3846
 8159SOL    HW332409   0.536   1.265   0.980 -1.9822  1.0785  1.2003
 8159SOL    MW432410   0.494   1.191   0.960 -0.1860  0.5346  0.0741
 8160SOL     OW32411   5.727   2.491   0.354 -0.4416 -0.1304 -0.0004
 8160SOL    HW232412   5.783   2.428   0.400 -2.1086 -1.5368  0.2087
 8160SOL    HW332413   5.752   2.483   0.262 -0.2686 -0.7327  0.0952
 8160SOL    MW432414   5.738   2.481   0.348 -0.4168  0.8441 -0.4069
 8161SOL     OW32415   5.090   4.423   0.496  0.3567  0.3321 -0.6138
 8161SOL    HW232416   5.075   4.360   0.426  1.2316 -0.6910  0.0978
 8161SOL    HW332417   5.007   4.425   0.544  0.2523 -0.0925 -0.7747
 8161SOL    MW432418   5.077   4.415   0.493 -0.1032  0.4561  0.6011
 8162SOL     OW32419   2.739   5.354   1.098  0.0551  0.6571 -0.4825
 8162SOL    HW232420   2.708   5.414   1.031 -0.6190  1.2783  0.3708
 8162SOL    HW332421   2.829   5.334   1.072  0.0619  1.4976 -1.1456
 8162SOL    MW432422   2.747   5.359   1.086  0.3364 -0.8993  0.0112
 8163SOL     OW32423   4.118   1.850   4.445  0.2870 -0.2460  0.3821
 8163SOL    HW232424   4.191   1.795   4.473 -0.0668 -0.7945  0.2330
 8163SOL    HW332425   4.150   1.940   4.455  1.8995 -0.4611 -2.0416
 8163SOL    MW432426   4.132   1.855   4.450  0.1091 -0.0916  0.3515
 8164SOL     OW32427   2.075   2.261   2.119  0.8505 -0.0085  0.4201
 8164SOL    HW232428   2.105   2.253   2.210 -0.3240  0.4060  0.8575
 8164SOL    HW332429   1.993   2.309   2.125  2.3010  2.9141 -1.1583
 8164SOL    MW432430   2.068   2.266   2.132 -0.5571 -0.2444  0.0882
 8165SOL     OW32431   0.285   2.633   3.425  0.5138  0.8398 -0.0122
 8165SOL    HW232432   0.248   2.571   3.362  1.7534 -1.4401  1.3422
 8165SOL    HW332433   0.217   2.644   3.491  0.2788  0.9272 -0.2683
 8165SOL    MW432434   0.271   2.626   3.425 -0.1746  0.2022 -0.4070
 8166SOL     OW32435   3.639   0.178   0.322 -0.3578  0.1775 -0.0483
 8166SOL    HW232436   3.550   0.208   0.304 -0.3848 -0.0116 -0.2374
 8166SOL    HW332437   3.694   0.255   0.306 -0.5750  0.5650  1.0006
 8166SOL    MW432438   3.634   0.192   0.317 -0.1894 -0.1559 -0.2738
 8167SOL     OW32439   2.908   3.192   2.494  0.0097 -1.0885 -0.2099
 8167SOL    HW232440   2.992   3.218   2.533 -0.1128  0.9259 -1.1704
 8167SOL    HW332441   2.844   3.204   2.565  0.0602  0.7143 -0.4406
 8167SOL    MW432442   2.910   3.197   2.509  0.2484  0.3619  0.2953
 8168SOL     OW32443   3.811   5.538   2.046  0.1318  0.0159  0.0516
 8168SOL    HW232444   3.814   5.611   2.109  1.0907  0.0455 -0.0111
 8168SOL    HW332445   3.900   5.533   2.011 -0.5015  0.3143 -1.6826
 8168SOL    MW432446   3.823   5.547   2.050 -0.1340 -0.4959  1.0083
 8169SOL     OW32447   5.177   5.832   5.260 -0.3067 -0.0523  0.5140
 8169SOL    HW232448   5.122   5.900   5.298  0.0058  0.4682  0.0397
 8169SOL    HW332449   5.124   5.794   5.191 -0.5553 -0.4311  0.9069
 8169SOL    MW432450   5.163   5.836   5.256  0.2802  0.4588  0.0287
 8170SOL     OW32451   1.798   1.820   2.241 -0.1202  0.4514  0.3398
 8170SOL    HW232452   1.743   1.870   2.301 -0.6789  0.0998  0.1392
 8170SOL    HW332453   1.874   1.875   2.224 -1.3938  1.8716 -1.0200
 8170SOL    MW432454   1.801   1.834   2.247  0.1030 -0.7028  0.5495
 8171SOL     OW32455   1.268   0.008   4.729 -0.0687 -0.0927 -0.0508
 8171SOL    HW232456   1.320   0.072   4.682  0.9625 -0.8253  0.0418
 8171SOL    HW332457   1.278  -0.073   4.678  0.3063 -0.6643  0.8862
 8171SOL    MW432458   1.277   0.005   4.716 -0.3176 -0.2959 -0.0486
 8172SOL     OW32459   1.931   6.274   2.739 -0.1767  0.6880  0.2208
 8172SOL    HW232460   1.836   6.272   2.729 -0.0413 -1.8052 -1.0762
 8172SOL    HW332461   1.964   6.303   2.654  0.2789  0.5319  0.3429
 8172SOL    MW432462   1.923   6.278   2.727  0.2497  0.2089  0.0929
 8173SOL     OW32463   4.802   2.279   5.613  0.1303 -0.4603  0.0290
 8173SOL    HW232464   4.869   2.284   5.545 -1.0609 -3.0642 -1.4879
 8173SOL    HW332465   4.732   2.338   5.583  0.7925  0.6308  0.5490
 8173SOL    MW432466   4.801   2.288   5.600  0.1406 -0.0204 -0.3371
 8174SOL     OW32467   3.601   0.858   0.055 -0.5378 -0.3964  1.0793
 8174SOL    HW232468   3.543   0.865  -0.021  0.8361  0.8389  0.0815
 8174SOL    HW332469   3.607   0.764   0.071 -0.4607 -0.7386 -0.6842
 8174SOL    MW432470   3.594   0.846   0.047 -0.0130  0.1435  0.8642
 8175SOL     OW32471   5.583   4.157   4.608 -0.0150  0.1096  0.2864
 8175SOL    HW232472   5.606   4.132   4.519 -0.1503  1.3505 -0.1162
 8175SOL    HW332473   5.513   4.221   4.598  0.8039  1.1927  1.2256
 8175SOL    MW432474   5.577   4.162   4.595 -0.7334 -0.3009 -0.3367
 8176SOL     OW32475   6.308   5.607   1.459 -0.3695 -0.0267  0.3247
 8176SOL    HW232476   6.322   5.593   1.553 -0.1940  0.6405  0.4062
 8176SOL    HW332477   6.367   5.545   1.417  2.2163  1.9748  0.6688
 8176SOL    MW432478   6.318   5.597   1.466 -0.3897  0.3380  0.6336
 8177SOL     OW32479   0.755   6.178   2.946 -0.6988 -0.6756 -0.7846
 8177SOL    HW232480   0.813   6.229   2.889  0.8607 -0.7611  0.6420
 8177SOL    HW332481   0.697   6.243   2.985  0.4111 -0.1338  0.0207
 8177SOL    MW432482   0.755   6.194   2.943 -0.2294 -0.4145 -0.4653
 8178SOL     OW32483   1.216   2.046   2.364 -0.0409  0.0744 -0.2259
 8178SOL    HW232484   1.204   2.034   2.269 -2.9482  0.2441  0.0290
 8178SOL    HW332485   1.128   2.039   2.400  0.7291  1.9880  2.2707
 8178SOL    MW432486   1.203   2.043   2.356 -0.1700  0.3317  0.2707
 8179SOL     OW32487   6.091   3.257   2.689 -0.0633 -0.3581 -0.5832
 8179SOL    HW232488   6.135   3.184   2.733  0.4294 -0.1656 -0.7478
 8179SOL    HW332489   6.162   3.317   2.666 -0.5951  0.9309  0.9347
 8179SOL    MW432490   6.107   3.255   2.692 -0.3569  0.6844 -0.3133
 8180SOL     OW32491   1.341   2.396   4.210  0.4291 -0.6935  0.2543
 8180SOL    HW232492   1.426   2.436   4.192  0.3448 -1.0290 -0.9607
 8180SOL    HW332493   1.289   2.414   4.132 -1.2378  1.0626  1.6861
 8180SOL    MW432494   1.346   2.404   4.198  0.2924  0.3313  0.0912
 8181SOL     OW32495   1.263   5.838   3.075 -0.2084  0.1327  0.0151
 8181SOL    HW232496   1.284   5.776   3.005  4.0252 -0.9222  1.9378
 8181SOL    HW332497   1.263   5.785   3.155  1.9430  2.2539  1.5432
 8181SOL    MW432498   1.266   5.823   3.076 -0.8797  0.6264 -0.2117
 8182SOL     OW32499   4.818   3.291   5.431  0.0658  0.1602  0.0633
 8182SOL    HW232500   4.897   3.344   5.428 -0.6472  1.3048  0.7309
 8182SOL    HW332501   4.849   3.203   5.455  1.0549  0.7805  1.1616
 8182SOL    MW432502   4.832   3.286   5.434 -0.2717  0.4930 -0.1094
 8183SOL     OW32503   3.085   2.669   5.042 -0.6628  0.3516 -0.1667
 8183SOL    HW232504   3.168   2.690   5.086 -0.1868 -0.4550 -0.6494
 8183SOL    HW332505   3.034   2.750   5.048 -0.7217  0.2278  2.0783
 8183SOL    MW432506   3.089   2.682   5.049  0.0804  0.1931  0.2018
 8184SOL     OW32507   4.801   5.055   1.133 -0.6662  0.2901 -0.0234
 8184SOL    HW232508   4.840   4.972   1.160  2.0360  1.2958 -0.4806
 8184SOL    HW332509   4.726   5.067   1.191 -0.1292 -1.6511  1.1665
 8184SOL    MW432510   4.797   5.045   1.144  0.5871 -0.4092 -0.5226
 8185SOL     OW32511   4.970   5.266   6.224 -0.5679  0.2158 -0.0843
 8185SOL    HW232512   4.894   5.210   6.213 -0.5707  0.4101 -1.2168
 8185SOL    HW332513   4.963   5.331   6.154  0.0014  0.9824  0.5339
 8185SOL    MW432514   4.959   5.267   6.213 -0.0106  0.2999 -0.0450
 8186SOL     OW32515   3.682   0.611   1.722  0.5040 -0.4868 -0.0714
 8186SOL    HW232516   3.603   0.564   1.695  0.2299 -0.6705  0.9773
 8186SOL    HW332517   3.754   0.551   1.702  0.4381 -0.1261 -1.4691
 8186SOL    MW432518   3.681   0.597   1.716 -0.0257  0.3223 -1.0194
 8187SOL     OW32519   1.477   0.007   1.540 -0.2075  0.9028  0.1258
 8187SOL    HW232520   1.423  -0.065   1.508  1.1906  0.4061 -1.2919
 8187SOL    HW332521   1.535  -0.034   1.604  1.5595  0.3508 -1.7026
 8187SOL    MW432522   1.478  -0.008   1.544 -0.2836 -1.0447 -1.0783
 8188SOL     OW32523   0.499   5.306   3.609  0.0172  0.1514  0.0332
 8188SOL    HW232524   0.468   5.282   3.696  0.0144  2.3127  0.6651
 8188SOL    HW332525   0.586   5.343   3.623 -0.0056  0.5796 -0.8616
 8188SOL    MW432526   0.506   5.308   3.622 -0.4077  0.1401 -0.0147
 8189SOL     OW32527   4.429   2.050   3.371  0.3509  0.0236 -0.6981
 8189SOL    HW232528   4.386   2.066   3.455 -0.2849  1.8221 -1.3215
 8189SOL    HW332529   4.359   2.014   3.315  0.1329  1.1252 -1.1493
 8189SOL    MW432530   4.414   2.047   3.375  0.9061 -0.0010 -0.1808
 8190SOL     OW32531   2.658   5.318   4.598  0.3543 -0.9564  0.4640
 8190SOL    HW232532   2.734   5.334   4.543 -0.1113 -1.0364 -0.2160
 8190SOL    HW332533   2.606   5.253   4.550 -1.9614  1.6972 -0.9000
 8190SOL    MW432534   2.661   5.312   4.585 -0.4231  0.0544  0.0753
 8191SOL     OW32535   2.708   1.904   6.387  0.0364  0.4374 -0.3244
 8191SOL    HW232536   2.761   1.864   6.317  0.3620 -1.0901  0.7503
 8191SOL    HW332537   2.621   1.867   6.374 -0.1470  0.9272 -0.5108
 8191SOL    MW432538   2.704   1.894   6.376  0.5916 -0.5750  0.0465
 8192SOL     OW32539   1.197   3.205   5.855  0.3759 -0.7341  0.7445
 8192SOL    HW232540   1.284   3.167   5.870  0.1111 -1.3645  0.6908
 8192SOL    HW332541   1.174   3.246   5.938  1.0251  0.0477  0.5479
 8192SOL    MW432542   1.206   3.206   5.868 -0.0811  0.3644 -0.2679
 8193SOL     OW32543   6.061   0.951   6.235 -0.4080  0.4289 -0.8496
 8193SOL    HW232544   6.060   0.943   6.140  0.7774  0.8596 -0.9208
 8193SOL    HW332545   6.032   1.041   6.252  0.6659  0.8086 -0.9042
 8193SOL    MW432546   6.057   0.962   6.225 -0.0118  0.4775  0.3314
 8194SOL     OW32547   3.239   2.298   1.819  0.3533  0.1240  0.2422
 8194SOL    HW232548   3.159   2.250   1.840  0.2043 -0.5621 -1.7169
 8194SOL    HW332549   3.227   2.384   1.860 -0.6101 -0.5441  1.4187
 8194SOL    MW432550   3.227   2.303   1.827  0.9343 -0.1591 -0.4782
 8195SOL     OW32551   3.049   1.354   3.624  0.4918  0.1135 -0.2454
 8195SOL    HW232552   3.070   1.267   3.592  1.7453  0.2929  0.0313
 8195SOL    HW332553   3.123   1.408   3.598 -0.4964  1.2273 -0.8632
 8195SOL    MW432554   3.061   1.350   3.616 -0.0730  0.3778 -0.1573
 8196SOL     OW32555   4.270   0.954   0.506  0.4506  0.8973 -0.3278
 8196SOL    HW232556   4.262   1.006   0.426  0.0922 -1.0505 -1.6390
 8196SOL    HW332557   4.355   0.911   0.497  0.3690  0.5968  0.3096
 8196SOL    MW432558   4.280   0.955   0.494 -0.0173 -0.0164  0.5250
 8197SOL     OW32559   2.461   6.223   0.769  0.2891  0.0724  0.2934
 8197SOL    HW232560   2.485   6.315   0.752 -0.8153  0.3716  0.2916
 8197SOL    HW332561   2.524   6.194   0.835  2.3171  0.0139 -1.5538
 8197SOL    MW432562   2.473   6.232   0.776  0.1572 -0.6121 -0.3276
 8198SOL     OW32563   5.708   0.798   4.582  0.1851 -0.0555 -0.0013
 8198SOL    HW232564   5.737   0.711   4.610 -1.3174 -0.1759  1.3377
 8198SOL    HW332565   5.694   0.789   4.487  0.7830 -1.0419 -0.0093
 8198SOL    MW432566   5.710   0.785   4.573  0.3647 -0.1675 -0.4693
 8199SOL     OW32567   1.660   5.120   5.229 -0.3819 -0.0348 -0.0289
 8199SOL    HW232568   1.755   5.113   5.231 -0.3607  0.3284  0.5065
 8199SOL    HW332569   1.634   5.123   5.321 -1.1724 -3.1455 -0.0316
 8199SOL    MW432570   1.669   5.119   5.241  0.3689  1.0698  0.3153
 8200SOL     OW32571   1.225   2.772   4.784 -1.1731  0.5323  0.3991
 8200SOL    HW232572   1.279   2.699   4.754 -0.9590  0.3220  1.2619
 8200SOL    HW332573   1.142   2.761   4.738 -0.2813  1.2740 -1.5327
 8200SOL    MW432574   1.221   2.761   4.774 -0.5269 -0.3743 -0.2603
 8201SOL     OW32575   4.849   2.712   2.667 -0.8119  0.5512 -0.5158
 8201SOL    HW232576   4.762   2.742   2.693 -0.1978  0.8531  1.3085
 8201SOL    HW332577   4.835   2.622   2.636 -1.6273  0.2117  0.7708
 8201SOL    MW432578   4.835   2.704   2.666  0.4467 -0.1226  0.1087
 8202SOL     OW32579   6.149   3.975   3.769  0.2328  0.0598  0.2703
 8202SOL    HW232580   6.102   3.911   3.822 -1.4845  0.0469 -1.1708
 8202SOL    HW332581   6.187   3.924   3.698  0.0297  0.4509 -0.1221
 8202SOL    MW432582   6.148   3.960   3.767 -0.4345 -0.0667 -0.8758
 8203SOL     OW32583   2.311   2.700   6.402 -0.2323  1.2529  0.0460
 8203SOL    HW232584   2.373   2.734   6.467 -0.0720 -0.3750  0.7882
 8203SOL    HW332585   2.365   2.682   6.325  0.4980 -1.1968  1.0512
 8203SOL    MW432586   2.327   2.702   6.401  0.1642 -0.7516  0.4155
 8204SOL     OW32587   6.075   0.023   2.779 -0.4206  0.2991  0.3945
 8204SOL    HW232588   6.099   0.049   2.690 -1.6170  0.6162  0.1571
 8204SOL    HW332589   6.119  -0.061   2.792 -1.2355 -0.3695 -0.9619
 8204SOL    MW432590   6.084   0.016   2.769 -0.0252 -0.1996  0.0769
 8205SOL     OW32591   4.533   2.464   4.323 -0.1287  0.2630  0.1817
 8205SOL    HW232592   4.596   2.465   4.251  2.9813  1.7838  2.6770
 8205SOL    HW332593   4.495   2.551   4.323 -0.7687 -0.0074 -0.0798
 8205SOL    MW432594   4.536   2.475   4.314  0.3525 -0.0968  0.4088
 8206SOL     OW32595   6.075   4.739   6.180 -0.3612  0.7524  0.2149
 8206SOL    HW232596   6.024   4.736   6.261  0.7035 -2.0735  0.9109
 8206SOL    HW332597   6.009   4.749   6.111 -1.4924  1.0691  1.3136
 8206SOL    MW432598   6.059   4.740   6.182  0.0359  0.6070  0.3313
 8207SOL     OW32599   4.397   3.448   3.302  0.3537 -0.3557  0.0074
 8207SOL    HW232600   4.316   3.485   3.337  0.1824  0.1668 -0.9055
 8207SOL    HW332601   4.377   3.356   3.286  0.3753 -0.5551  1.0655
 8207SOL    MW432602   4.384   3.441   3.305  0.6750 -0.2737  0.2001
 8208SOL     OW32603   2.120   4.740   6.187 -0.1194  0.2183  0.8219
 8208SOL    HW232604   2.077   4.782   6.262  0.9735  0.2826  1.4194
 8208SOL    HW332605   2.185   4.803   6.158  0.5147 -0.4460  0.7828
 8208SOL    MW432606   2.123   4.754   6.193 -0.2071  0.1771  0.3214
 8209SOL     OW32607   4.961   1.186   5.974  0.0175  0.6136  0.0017
 8209SOL    HW232608   5.021   1.259   5.989 -0.5513  1.6575 -2.2621
 8209SOL    HW332609   5.004   1.132   5.908  0.7210 -1.5492  2.1169
 8209SOL    MW432610   4.974   1.188   5.967 -0.0380  0.1633 -0.1281
 8210SOL     OW32611   1.195   3.945   4.004  0.3958  0.7396  0.8038
 8210SOL    HW232612   1.152   3.882   3.946  1.1750 -0.4476  1.4697
 8210SOL    HW332613   1.127   4.011   4.021 -0.5200 -0.0214  0.2586
 8210SOL    MW432614   1.180   3.945   3.998  0.4196 -0.5415 -0.2537
 8211SOL     OW32615   5.077   2.251   0.593 -0.2049 -0.3642 -0.2640
 8211SOL    HW232616   5.044   2.340   0.580 -0.1569 -0.2613  0.3091
 8211SOL    HW332617   5.164   2.251   0.554 -0.7539 -0.5671 -1.5706
 8211SOL    MW432618   5.084   2.263   0.586  0.4063 -0.1107 -0.1984
 8212SOL     OW32619   0.185   2.837   6.016  0.7306  0.1407  0.0313
 8212SOL    HW232620   0.097   2.831   6.054  0.8952 -0.7679  0.2915
 8212SOL    HW332621   0.228   2.755   6.042  0.8668 -0.4976 -2.0461
 8212SOL    MW432622   0.179   2.825   6.025  0.7302  0.2574 -0.2760
 8213SOL     OW32623   2.412   5.638   3.053 -0.0453  0.0272 -0.5395
 8213SOL    HW232624   2.418   5.655   3.147 -1.5007  0.5268 -0.5077
 8213SOL    HW332625   2.339   5.694   3.023  1.2182  0.8734 -2.2095
 8213SOL    MW432626   2.403   5.648   3.061  0.0043 -0.1991  0.1534
 8214SOL     OW32627   4.973   3.016   6.364  0.2915  0.0943  0.2216
 8214SOL    HW232628   5.053   3.069   6.355  0.4122 -0.3727 -1.6843
 8214SOL    HW332629   4.916   3.069   6.419  1.0765  1.4326 -0.2027
 8214SOL    MW432630   4.976   3.030   6.370  0.5428 -0.7658  0.1027
 8215SOL     OW32631   0.616   2.448   3.098  0.0517 -0.5320  0.5440
 8215SOL    HW232632   0.607   2.385   3.027  1.8147 -0.7023  0.4106
 8215SOL    HW332633   0.689   2.505   3.070 -0.8177  0.9258  1.1247
 8215SOL    MW432634   0.625   2.447   3.085  0.3149  0.1462  0.1371
 8216SOL     OW32635   5.340   5.875   3.673 -0.2766  0.0510 -0.6794
 8216SOL    HW232636   5.266   5.936   3.676 -1.2595 -0.9579 -2.4255
 8216SOL    HW332637   5.321   5.812   3.743  1.1651  2.0678  1.6895
 8216SOL    MW432638   5.328   5.875   3.683  0.2193  0.4515 -0.0068
 8217SOL     OW32639   2.812   4.413   1.586 -0.2215  0.2469  0.1826
 8217SOL    HW232640   2.869   4.438   1.514 -1.0807 -1.1970 -1.0537
 8217SOL    HW332641   2.733   4.466   1.572  0.1565  1.0416  0.9465
 8217SOL    MW432642   2.809   4.424   1.575 -0.3565  0.0006  0.3657
 8218SOL     OW32643   0.137   6.069   6.021  0.3477 -0.0402  0.0262
 8218SOL    HW232644   0.118   6.156   5.985  0.8262 -0.6935 -1.9247
 8218SOL    HW332645   0.062   6.015   5.995 -0.3199 -0.0679  1.8973
 8218SOL    MW432646   0.125   6.074   6.013  0.0979  0.0070 -0.4105
 8219SOL     OW32647   0.950   1.501   5.768  0.5476  0.0285  0.1359
 8219SOL    HW232648   1.006   1.495   5.845 -0.3843  1.5303  0.9730
 8219SOL    HW332649   0.949   1.594   5.747 -0.5455 -0.1567 -0.6904
 8219SOL    MW432650   0.957   1.512   5.775 -0.1582 -0.2025  0.4398
 8220SOL     OW32651   2.824   4.953   5.971 -0.0922  0.0198 -0.1968
 8220SOL    HW232652   2.847   4.876   5.920 -0.6425 -1.1845  1.2834
 8220SOL    HW332653   2.795   5.017   5.907 -1.1360 -1.5656 -1.3690
 8220SOL    MW432654   2.823   4.951   5.956 -0.4634 -0.1767  0.5470
 8221SOL     OW32655   2.792   2.730   2.454 -0.0703  0.2014 -0.5253
 8221SOL    HW232656   2.741   2.808   2.475 -0.6309 -0.0916 -0.7769
 8221SOL    HW332657   2.839   2.709   2.535 -1.6228 -0.4809  0.2443
 8221SOL    MW432658   2.791   2.737   2.467 -0.2874  0.2248  0.2735
 8222SOL     OW32659   0.762   3.849   4.086 -0.6765 -0.0655 -0.1820
 8222SOL    HW232660   0.824   3.828   4.015 -1.8341 -1.2029 -0.8982
 8222SOL    HW332661   0.764   3.944   4.091  1.7079 -0.0674  0.3642
 8222SOL    MW432662   0.771   3.859   4.077  0.1750  0.1010  0.2042
 8223SOL     OW32663   2.603   5.906   0.551 -0.4222  0.4123 -0.1140
 8223SOL    HW232664   2.551   5.859   0.616  0.6816  0.5967  0.9382
 8223SOL    HW332665   2.682   5.933   0.598 -0.2297  1.7895 -1.1548
 8223SOL    MW432666   2.606   5.904   0.566 -0.5487  0.4946  0.0591
 8224SOL     OW32667   3.386   0.184   3.205  0.5240 -0.1261 -0.6304
 8224SOL    HW232668   3.296   0.161   3.229 -0.0737  2.6015  0.0334
 8224SOL    HW332669   3.398   0.273   3.238  2.9244  0.2242 -2.1933
 8224SOL    MW432670   3.376   0.193   3.213 -0.1439 -0.2700 -0.0388
 8225SOL     OW32671   2.981   1.393   0.630  0.5884 -0.2813  0.1937
 8225SOL    HW232672   3.063   1.427   0.665 -0.1202  0.3581  1.2995
 8225SOL    HW332673   2.923   1.387   0.707  0.0901 -2.2314 -0.2823
 8225SOL    MW432674   2.984   1.397   0.645 -0.0922  0.6140 -0.0537
 8226SOL     OW32675   4.097   0.168   4.762 -0.4428  0.1564  0.0489
 8226SOL    HW232676   4.145   0.087   4.741 -2.1026 -0.5928 -1.0483
 8226SOL    HW332677   4.075   0.158   4.855  0.9189  0.2063  0.3927
 8226SOL    MW432678   4.100   0.156   4.772 -0.1310 -0.0197  0.0724
 8227SOL     OW32679   0.201   2.042   1.307 -0.1646  0.2757  0.1116
 8227SOL    HW232680   0.191   1.956   1.350 -2.9251 -0.0474 -0.9539
 8227SOL    HW332681   0.194   2.105   1.379 -1.8208 -0.3317  0.5333
 8227SOL    MW432682   0.199   2.039   1.322 -0.2424 -0.4064  0.0720
 8228SOL     OW32683   1.511   2.030   2.677  0.0813  0.1863  0.0427
 8228SOL    HW232684   1.491   2.083   2.599 -1.8271 -0.9996 -0.3179
 8228SOL    HW332685   1.564   2.089   2.732  0.7549  1.3429 -1.7467
 8228SOL    MW432686   1.516   2.045   2.674 -0.6941 -0.9486 -0.0206
 8229SOL     OW32687   4.906   5.982   6.128 -0.4371  0.4563 -0.1776
 8229SOL    HW232688   4.890   5.899   6.173 -0.5053  0.6905  0.2353
 8229SOL    HW332689   4.895   5.961   6.035  0.0495 -0.1115 -0.1161
 8229SOL    MW432690   4.903   5.968   6.121  0.0291  0.3139  0.0685
 8230SOL     OW32691   6.018   1.923   2.183 -0.1398  0.1975  0.1728
 8230SOL    HW232692   6.037   1.868   2.107 -1.2459 -0.4264  0.3225
 8230SOL    HW332693   5.949   1.982   2.154 -0.0444  0.4637  0.4753
 8230SOL    MW432694   6.012   1.923   2.169  0.9561  0.2313 -0.2043
 8231SOL     OW32695   1.333   1.421   2.151 -0.2340  0.6295 -0.5543
 8231SOL    HW232696   1.280   1.500   2.138 -0.7309  0.4923  0.5457
 8231SOL    HW332697   1.350   1.419   2.246  0.1340 -0.3591 -0.6329
 8231SOL    MW432698   1.328   1.431   2.162  0.3981 -0.0324 -0.1141
 8232SOL     OW32699   5.532   6.266   5.963  0.2982  0.3564  0.9093
 8232SOL    HW232700   5.528   6.295   5.872 -0.6748  1.2529  1.2045
 8232SOL    HW332701   5.607   6.208   5.967  1.0208  1.1668 -0.2242
 8232SOL    MW432702   5.541   6.262   5.951 -0.1937  0.3238 -0.3190
 8233SOL     OW32703   0.966   0.744   5.923 -0.7009  0.3259  0.0096
 8233SOL    HW232704   0.953   0.839   5.920  1.4018  0.6569 -0.0100
 8233SOL    HW332705   1.005   0.721   5.839 -1.5197 -0.6353 -0.1321
 8233SOL    MW432706   0.969   0.753   5.912 -0.7747 -0.1659  0.2644
 8234SOL     OW32707   5.554   6.259   1.832  0.5559  0.5940  0.4637
 8234SOL    HW232708   5.485   6.211   1.878 -0.0934  1.3012  0.2594
 8234SOL    HW332709   5.625   6.196   1.823 -0.2080 -0.2782  0.3311
 8234SOL    MW432710   5.554   6.245   1.837  0.2423  0.1539 -0.3669
 8235SOL     OW32711   1.648   6.375   2.162  0.1900  0.0100  0.5525
 8235SOL    HW232712   1.638   6.293   2.114 -1.1276  0.6522 -0.3318
 8235SOL    HW332713   1.724   6.417   2.120 -1.0064  0.6088 -1.1157
 8235SOL    MW432714   1.657   6.370   2.150 -0.5429  0.0731  0.2408
 8236SOL     OW32715   1.284   2.795   2.800 -0.5335 -0.0838  0.3768
 8236SOL    HW232716   1.283   2.730   2.730 -0.7522 -0.4733  0.7371
 8236SOL    HW332717   1.242   2.873   2.762  2.8492  1.1386 -1.2636
 8236SOL    MW432718   1.278   2.797   2.785  0.1364  0.6249  0.6150
 8237SOL     OW32719   6.399   4.143   0.841 -0.3040 -0.2822 -0.3068
 8237SOL    HW232720   6.367   4.232   0.855  0.0058  0.4203 -3.3570
 8237SOL    HW332721   6.323   4.087   0.856 -0.6129  0.4852  1.2036
 8237SOL    MW432722   6.385   4.147   0.845 -0.1998 -0.6466 -0.1702
 8238SOL     OW32723   2.870   2.435   0.173  0.1632  0.5608 -0.3750
 8238SOL    HW232724   2.898   2.480   0.253  1.2430 -0.5083 -0.1162
 8238SOL    HW332725   2.952   2.417   0.127 -0.3985  0.4568 -1.3408
 8238SOL    MW432726   2.885   2.439   0.178 -0.0148  0.0451 -0.1454
 8239SOL     OW32727   1.636   5.702   1.962  0.0478  0.4871  0.4225
 8239SOL    HW232728   1.644   5.685   1.868 -0.3536 -0.6549  0.5815
 8239SOL    HW332729   1.688   5.782   1.976  2.3100 -0.7361 -0.3365
 8239SOL    MW432730   1.644   5.711   1.952  0.4330 -0.8941  0.1274
 8240SOL     OW32731   5.746   1.337   3.463  0.5122  0.8152 -0.2691
 8240SOL    HW232732   5.768   1.312   3.552  0.6904 -1.4680 -0.8844
 8240SOL    HW332733   5.776   1.263   3.409 -0.3620  1.7371 -2.1194
 8240SOL    MW432734   5.753   1.324   3.467 -0.4179  0.0626 -0.4425
 8241SOL     OW32735   0.108   5.239   4.381 -0.1396 -0.1714 -0.2124
 8241SOL    HW232736   0.013   5.230   4.370 -0.1100 -0.1540 -0.4763
 8241SOL    HW332737   0.118   5.269   4.472 -0.3975  0.0108 -0.2416
 8241SOL    MW432738   0.097   5.242   4.392 -0.0897  0.0197  0.1323
 8242SOL     OW32739   5.217   2.278   0.961  0.0752  0.3759  0.3786
 8242SOL    HW232740   5.235   2.366   0.929  2.4604 -0.4820 -0.8434
 8242SOL    HW332741   5.280   2.222   0.916 -2.7463 -2.3371 -0.5426
 8242SOL    MW432742   5.228   2.282   0.951 -0.0888 -0.1250  0.0280
 8243SOL     OW32743   5.775   6.014   0.224 -0.0258  0.3342 -0.2329
 8243SOL    HW232744   5.832   6.021   0.301  0.0163  0.0293 -0.2334
 8243SOL    HW332745   5.692   6.051   0.252 -0.2048 -0.3368  0.1632
 8243SOL    MW432746   5.772   6.020   0.238 -0.2254 -0.0235  0.0752
 8244SOL     OW32747   0.585   0.048   3.617 -0.7292 -0.5249 -0.0793
 8244SOL    HW232748   0.614   0.000   3.694  1.0937 -1.0384 -1.0435
 8244SOL    HW332749   0.660   0.101   3.591 -1.8100  0.7863 -0.6389
 8244SOL    MW432750   0.598   0.048   3.623 -0.4205 -0.3015 -0.6504
 8245SOL     OW32751   5.480   4.208   0.794  0.5263  0.3375  0.9036
 8245SOL    HW232752   5.549   4.239   0.852  2.5767  2.3082 -2.3154
 8245SOL    HW332753   5.424   4.285   0.780  0.7078  0.2347 -0.5276
 8245SOL    MW432754   5.481   4.222   0.800  0.3960 -0.1011  0.6526
 8246SOL     OW32755   5.844   6.243   2.117 -0.7002 -0.3043 -0.0963
 8246SOL    HW232756   5.874   6.323   2.160  2.3107 -0.4998 -1.5562
 8246SOL    HW332757   5.845   6.263   2.024 -1.4972 -1.5731 -0.4023
 8246SOL    MW432758   5.848   6.256   2.111  0.1687  0.3039 -0.0350
 8247SOL     OW32759   5.869   2.726   2.536  0.0415 -0.1604 -0.2897
 8247SOL    HW232760   5.832   2.639   2.551 -1.2687  0.3341 -0.5006
 8247SOL    HW332761   5.862   2.739   2.441 -1.7472  0.9822 -0.0447
 8247SOL    MW432762   5.863   2.716   2.525  0.5239 -0.4596  0.0442
 8248SOL     OW32763   3.834   6.372   4.911 -0.7047 -0.7381 -0.5662
 8248SOL    HW232764   3.871   6.459   4.930 -0.4193 -0.9150 -0.2971
 8248SOL    HW332765   3.899   6.331   4.853 -0.6844 -0.8924 -0.4342
 8248SOL    MW432766   3.848   6.378   4.906  0.4875  0.3198  0.3050
 8249SOL     OW32767   2.958   6.384   3.182  0.3649 -0.4828 -0.4566
 8249SOL    HW232768   2.929   6.421   3.099  0.4140 -1.2224 -0.8125
 8249SOL    HW332769   2.877   6.360   3.227  0.3021  0.6203  0.0586
 8249SOL    MW432770   2.943   6.386   3.177 -0.4545  0.1226 -0.5608
 8250SOL     OW32771   2.604   3.143   4.377  0.4091  0.1042  0.2374
 8250SOL    HW232772   2.678   3.189   4.417  0.2434 -1.2075  2.1453
 8250SOL    HW332773   2.635   3.053   4.365 -0.4614 -0.1573 -0.1514
 8250SOL    MW432774   2.618   3.138   4.381  0.2646 -0.3229  0.3576
 8251SOL     OW32775   5.714   5.843   0.635  0.5247  0.5691 -0.5847
 8251SOL    HW232776   5.642   5.797   0.593 -0.2047 -0.1832  1.3842
 8251SOL    HW332777   5.673   5.918   0.678  0.8678  0.0591  0.6627
 8251SOL    MW432778   5.699   5.847   0.635 -0.0467  0.2990  0.0202
 8252SOL     OW32779   5.514   4.385   1.600 -0.2686 -0.0464 -0.1553
 8252SOL    HW232780   5.596   4.351   1.636 -0.2402 -0.6476 -0.7886
 8252SOL    HW332781   5.542   4.448   1.534 -0.2796 -1.7423 -1.8308
 8252SOL    MW432782   5.529   4.389   1.596  0.4749 -0.5402 -0.4499
 8253SOL     OW32783   2.541   4.331   4.655  0.2015  0.2194  0.0902
 8253SOL    HW232784   2.551   4.242   4.690 -1.6213  0.6578  1.9583
 8253SOL    HW332785   2.612   4.380   4.696 -0.7358  0.2858  1.7150
 8253SOL    MW432786   2.552   4.326   4.665  0.0357 -0.2938  0.2860
 8254SOL     OW32787   5.553   3.176   4.283 -0.5797 -0.1616 -0.1961
 8254SOL    HW232788   5.600   3.126   4.216 -1.4372  0.0036 -0.9339
 8254SOL    HW332789   5.470   3.198   4.242 -1.3529 -0.5423  1.1222
 8254SOL    MW432790   5.548   3.172   4.269 -0.1889 -0.2940  0.2798
 8255SOL     OW32791   4.959   5.644   4.274  0.0560  0.1897 -0.0926
 8255SOL    HW232792   4.992   5.719   4.224  0.2351  0.5310  0.5261
 8255SOL    HW332793   4.867   5.638   4.250  0.0637  0.5535 -0.2241
 8255SOL    MW432794   4.951   5.653   4.264  0.4020  0.1885  0.5808
 8256SOL     OW32795   1.789   4.981   0.585 -0.4113  0.1261 -0.0630
 8256SOL    HW232796   1.710   5.028   0.610 -0.5145  0.5412 -1.1210
 8256SOL    HW332797   1.765   4.935   0.505 -0.2490 -1.5972  0.8286
 8256SOL    MW432798   1.775   4.981   0.578  0.2689 -0.1439 -0.3498
 8257SOL     OW32799   0.177   4.094   1.662 -0.5151 -0.0627  0.0342
 8257SOL    HW232800   0.157   4.035   1.734 -2.1016 -2.6745 -2.3509
 8257SOL    HW332801   0.248   4.051   1.614  0.3255  1.4742 -0.1787
 8257SOL    MW432802   0.183   4.081   1.665  0.5101  0.0401  0.0866
 8258SOL     OW32803   6.192   5.420   2.200 -0.0534  0.2527 -0.4132
 8258SOL    HW232804   6.195   5.487   2.268  0.3443  0.9601 -1.1109
 8258SOL    HW332805   6.274   5.371   2.211 -0.0571  0.2735 -0.2934
 8258SOL    MW432806   6.203   5.422   2.210 -0.0075  0.0179  0.3303
 8259SOL     OW32807   2.582   2.473   5.527 -0.4607  0.1094 -0.9617
 8259SOL    HW232808   2.586   2.568   5.515 -2.6603  0.2055 -1.3237
 8259SOL    HW332809   2.659   2.440   5.481  0.6778  1.7476 -0.3143
 8259SOL    MW432810   2.592   2.481   5.519  0.0753  0.0387  0.3100
 8260SOL     OW32811   4.735   2.235   3.980  0.4624 -0.4980  0.5430
 8260SOL    HW232812   4.745   2.200   4.069  2.2392  0.8305  0.9079
 8260SOL    HW332813   4.674   2.308   3.990  0.2163 -0.7046  0.5607
 8260SOL    MW432814   4.728   2.240   3.993  0.0111  0.4021 -0.6181
 8261SOL     OW32815   1.286   1.429   2.414 -0.5158 -0.5528 -0.5566
 8261SOL    HW232816   1.356   1.411   2.477 -0.3059 -0.7547 -0.8447
 8261SOL    HW332817   1.208   1.441   2.468 -0.0670  0.7170 -0.1477
 8261SOL    MW432818   1.285   1.429   2.429 -0.1533  0.1952 -0.5009
 8262SOL     OW32819   0.544   3.699   4.249 -0.2871  0.0940 -0.5789
 8262SOL    HW232820   0.629   3.714   4.208  0.7077  1.6017  1.8381
 8262SOL    HW332821   0.517   3.784   4.283 -2.2536 -0.5681 -0.3109
 8262SOL    MW432822   0.551   3.712   4.248  0.3181  0.1152 -0.3199
 8263SOL     OW32823   5.731   0.809   6.139 -0.1579  0.6862  0.3241
 8263SOL    HW232824   5.733   0.893   6.184 -0.7687 -0.5448  2.8333
 8263SOL    HW332825   5.647   0.808   6.092  0.0813  1.6414 -0.1412
 8263SOL    MW432826   5.720   0.820   6.139 -0.7387 -0.3508  0.0291
 8264SOL     OW32827   0.758   4.915   1.034 -0.1367 -0.5520  0.0211
 8264SOL    HW232828   0.682   4.864   1.008  1.5119 -3.0032 -0.3390
 8264SOL    HW332829   0.802   4.938   0.952  1.0272 -1.7300  0.2750
 8264SOL    MW432830   0.754   4.912   1.020  0.0577  0.5525 -0.2496
 8265SOL     OW32831   4.759   6.168   0.038  0.1737  0.7926 -0.2535
 8265SOL    HW232832   4.841   6.208   0.067  1.3920  1.7958 -4.4910
 8265SOL    HW332833   4.744   6.202  -0.050 -1.8685 -3.5656 -1.9140
 8265SOL    MW432834   4.768   6.177   0.030  0.1812 -0.4331  0.1409
 8266SOL     OW32835   3.288   5.622   0.548  0.2061  0.4238 -0.4600
 8266SOL    HW232836   3.239   5.627   0.466 -0.2927 -0.3614 -0.2232
 8266SOL    HW332837   3.285   5.710   0.584  0.3695  0.7598 -1.2497
 8266SOL    MW432838   3.281   5.634   0.542  0.0996  0.3334  0.8134
 8267SOL     OW32839   2.964   4.859   2.248 -0.3179  0.1574 -0.9172
 8267SOL    HW232840   2.887   4.898   2.206 -0.0868  1.0055 -0.5763
 8267SOL    HW332841   3.038   4.894   2.198 -0.1834 -1.5428 -1.9667
 8267SOL    MW432842   2.963   4.869   2.236 -0.1749  0.0149 -0.0846
 8268SOL     OW32843   3.167   0.655   2.783  0.2821  0.5762  0.3683
 8268SOL    HW232844   3.113   0.734   2.777 -2.8030 -1.3296  0.8333
 8268SOL    HW332845   3.186   0.646   2.876 -1.0534 -0.1995  0.5918
 8268SOL    MW432846   3.163   0.664   2.795 -0.3026 -0.0649  0.8376
 8269SOL     OW32847   4.259   6.409   6.400 -0.0400 -0.1416 -0.3948
 8269SOL    HW232848   4.333   6.366   6.443 -1.4857 -0.3036  2.1101
 8269SOL    HW332849   4.260   6.498   6.435 -1.2980 -0.2923  0.0605
 8269SOL    MW432850   4.269   6.415   6.410  0.0361 -0.1049 -0.6892
 8270SOL     OW32851   1.212   3.325   6.162 -0.4945  0.0863  0.2970
 8270SOL    HW232852   1.262   3.407   6.164 -0.5688  0.1331  0.2668
 8270SOL    HW332853   1.121   3.353   6.170 -0.6629  0.1412 -1.5537
 8270SOL    MW432854   1.207   3.340   6.164 -0.3673  0.7537  0.5202
 8271SOL     OW32855   5.945   1.902   5.499 -0.1220  0.5623 -0.0482
 8271SOL    HW232856   5.905   1.985   5.525 -1.0482  0.2602 -0.4588
 8271SOL    HW332857   5.885   1.867   5.432  0.7595  0.0208 -0.5677
 8271SOL    MW432858   5.932   1.908   5.493 -0.0282  0.1860  0.4062
 8272SOL     OW32859   2.927   0.951   0.427 -0.7102 -0.4114  0.8608
 8272SOL    HW232860   2.870   0.951   0.505 -0.1223 -0.4086  1.3001
 8272SOL    HW332861   3.015   0.940   0.463 -0.3108  0.7886  0.2922
 8272SOL    MW432862   2.931   0.950   0.442  0.2225 -0.5335 -0.3078
 8273SOL     OW32863   6.390   5.091   0.623 -0.1531  0.1792  0.2218
 8273SOL    HW232864   6.338   5.020   0.585  0.1014  0.1769 -0.1274
 8273SOL    HW332865   6.326   5.147   0.667 -0.5319  0.5046 -0.7099
 8273SOL    MW432866   6.375   5.089   0.624  0.4959  0.1898  0.4818
 8274SOL     OW32867   2.149   1.227   2.916  0.4085  0.3234  0.4031
 8274SOL    HW232868   2.239   1.258   2.925  0.6996  0.4084 -2.1608
 8274SOL    HW332869   2.155   1.131   2.921  0.6394  0.3283  0.1944
 8274SOL    MW432870   2.162   1.218   2.918  0.1493 -0.1610 -0.0245
 8275SOL     OW32871   2.680   0.846   3.862 -0.1365 -0.6138 -0.0336
 8275SOL    HW232872   2.726   0.921   3.825 -2.2319  0.4638 -0.6094
 8275SOL    HW332873   2.647   0.798   3.787  0.7446 -1.8681  0.3478
 8275SOL    MW432874   2.682   0.850   3.848  0.0416 -0.4347 -0.3088
 8276SOL     OW32875   1.490   1.528   4.205  0.1136 -0.2688  0.1000
 8276SOL    HW232876   1.524   1.444   4.174 -0.7497 -1.3133  1.8823
 8276SOL    HW332877   1.447   1.566   4.128  1.4744 -0.9144 -1.0277
 8276SOL    MW432878   1.489   1.522   4.190 -0.6149  0.3571 -0.4366
 8277SOL     OW32879   3.902   1.819   4.616 -0.0874  0.3061 -0.1598
 8277SOL    HW232880   3.830   1.783   4.563 -0.1006  2.0657 -1.4468
 8277SOL    HW332881   3.971   1.838   4.552  0.2857  1.5772  0.5916
 8277SOL    MW432882   3.901   1.817   4.600  0.2879  0.1311  0.1215
 8278SOL     OW32883   1.473   4.657   4.745  0.0340 -0.1232  0.4885
 8278SOL    HW232884   1.468   4.605   4.664 -0.2656 -2.1279  1.7390
 8278SOL    HW332885   1.430   4.739   4.722 -0.8035 -0.9527 -1.1698
 8278SOL    MW432886   1.467   4.661   4.731 -0.1697 -0.0540  0.0392
 8279SOL     OW32887   1.264   0.835   5.429  0.0573 -0.1678 -0.1178
 8279SOL    HW232888   1.171   0.839   5.407  0.2634  1.9703 -0.7524
 8279SOL    HW332889   1.309   0.837   5.345  0.7019  0.3922  0.2281
 8279SOL    MW432890   1.257   0.835   5.415  0.5459  0.1578 -0.6323
 8280SOL     OW32891   1.871   4.201   3.938 -0.1911 -0.2748 -0.1884
 8280SOL    HW232892   1.912   4.221   4.022 -0.6076 -0.8616  0.1610
 8280SOL    HW332893   1.804   4.136   3.959  0.1179 -0.8863 -1.0631
 8280SOL    MW432894   1.868   4.195   3.952  0.5935 -0.2485  0.2996
 8281SOL     OW32895   2.888   4.444   5.542  0.3415  0.0790 -0.2696
 8281SOL    HW232896   2.832   4.490   5.479 -0.8799 -2.0705 -0.8561
 8281SOL    HW332897   2.977   4.462   5.512 -0.1863 -0.1946 -2.1612
 8281SOL    MW432898   2.892   4.452   5.530 -0.4266  0.0812 -0.4363
 8282SOL     OW32899   1.962   2.823   2.315 -0.4459 -0.2402 -0.2966
 8282SOL    HW232900   1.978   2.898   2.372 -1.1987 -0.1002 -0.2698
 8282SOL    HW332901   1.902   2.855   2.249 -0.5729 -0.7531 -0.4328
 8282SOL    MW432902   1.956   2.837   2.314 -0.1043 -0.2634  0.1027
 8283SOL     OW32903   2.867   0.946   2.245 -0.0985  0.2244  0.3842
 8283SOL    HW232904   2.786   0.900   2.266  1.0024 -2.1556 -0.1487
 8283SOL    HW332905   2.886   0.921   2.155  0.1956  2.4302 -0.2132
 8283SOL    MW432906   2.859   0.936   2.236  0.0374  0.4489 -0.5599
 8284SOL     OW32907   5.536   5.770   5.999 -0.4246 -0.4273 -0.1444
 8284SOL    HW232908   5.515   5.788   6.091  1.5944 -0.6910  0.4137
 8284SOL    HW332909   5.517   5.677   5.987 -1.6561 -0.1662 -0.2964
 8284SOL    MW432910   5.531   5.760   6.009 -0.3135  0.0494  0.1982
 8285SOL     OW32911   3.697   0.728   1.977  0.1208 -0.7951 -0.6329
 8285SOL    HW232912   3.606   0.752   1.997  0.2177 -0.2568 -0.8199
 8285SOL    HW332913   3.695   0.703   1.885  0.0151 -1.5473 -0.4309
 8285SOL    MW432914   3.685   0.728   1.968 -0.2460 -0.2159  0.5781
 8286SOL     OW32915   0.282   0.046   1.670  0.5255 -0.3937  0.2013
 8286SOL    HW232916   0.325  -0.033   1.638  0.9837 -0.2574  0.4660
 8286SOL    HW332917   0.270   0.100   1.591  3.3083  0.7314  0.4515
 8286SOL    MW432918   0.286   0.043   1.655 -0.0682  0.3367  0.0918
 8287SOL     OW32919   1.807   1.051   4.708 -0.1380 -0.5308 -0.0308
 8287SOL    HW232920   1.842   1.104   4.636 -1.7189 -0.9416 -1.1399
 8287SOL    HW332921   1.723   1.092   4.729  1.0083  0.6296  2.8075
 8287SOL    MW432922   1.801   1.064   4.701  0.2970  0.3001  0.0427
 8288SOL     OW32923   4.657   6.235   5.731 -0.0135  0.2227  0.0509
 8288SOL    HW232924   4.574   6.268   5.696  0.6816  1.2892 -0.6438
 8288SOL    HW332925   4.668   6.149   5.690  0.2252  0.9629 -1.5164
 8288SOL    MW432926   4.647   6.228   5.721 -0.6340  0.2063  0.3826
 8289SOL     OW32927   5.842   4.587   2.587 -0.5637  0.1986  0.1968
 8289SOL    HW232928   5.862   4.642   2.663  1.1273 -0.9515  0.6299
 8289SOL    HW332929   5.903   4.617   2.520  0.0485 -0.8055  0.2907
 8289SOL    MW432930   5.853   4.599   2.588  1.0094  0.0345 -0.2587
 8290SOL     OW32931   4.972   5.998   3.040 -0.6411 -0.8279  0.2242
 8290SOL    HW232932   4.929   5.941   2.976 -1.2855 -0.3310  0.2036
 8290SOL    HW332933   4.901   6.048   3.079 -0.0938 -0.0993  0.3017
 8290SOL    MW432934   4.957   5.997   3.037 -0.3006  0.0807 -0.0398
 8291SOL     OW32935   0.483   5.859   1.621 -0.2010  0.2386 -0.5156
 8291SOL    HW232936   0.451   5.909   1.697 -0.6773 -3.4677  1.9704
 8291SOL    HW332937   0.404   5.833   1.574 -0.4877 -2.3446  1.1913
 8291SOL    MW432938   0.468   5.862   1.625 -0.4631 -0.1266  0.4038
 8292SOL     OW32939   4.775   1.762   4.140 -0.1128 -0.2740 -0.3743
 8292SOL    HW232940   4.680   1.765   4.130 -0.2362 -1.4938  0.1812
 8292SOL    HW332941   4.793   1.824   4.211 -0.6993 -1.2262  0.6380
 8292SOL    MW432942   4.765   1.771   4.148  0.8742 -0.4425  0.1918
 8293SOL     OW32943   2.788   5.298   2.336  0.0693 -0.1304  0.1375
 8293SOL    HW232944   2.754   5.249   2.411  0.2568  1.8460  1.5912
 8293SOL    HW332945   2.797   5.233   2.267 -0.8470 -1.8817  1.5872
 8293SOL    MW432946   2.785   5.283   2.337 -0.1972 -0.2659  1.1293
 8294SOL     OW32947   3.312   2.691   5.280  0.1805 -0.0381 -0.1383
 8294SOL    HW232948   3.328   2.658   5.368  1.0030  1.1758  0.1890
 8294SOL    HW332949   3.355   2.627   5.222 -0.0818 -0.6640  0.3486
 8294SOL    MW432950   3.320   2.678   5.284 -0.1844  0.5704  0.0294
 8295SOL     OW32951   1.212   4.835   1.192 -0.0075 -0.0895  0.3114
 8295SOL    HW232952   1.256   4.750   1.192 -0.8420 -0.5448  1.2210
 8295SOL    HW332953   1.210   4.861   1.100  0.5865 -0.8860  0.0642
 8295SOL    MW432954   1.217   4.827   1.180  0.3961 -0.3164 -0.1119
 8296SOL     OW32955   6.029   5.199   3.986  0.3160 -0.3859  0.0002
 8296SOL    HW232956   5.938   5.216   3.960  0.3543  0.8219  0.6353
 8296SOL    HW332957   6.022   5.161   4.074  0.3570 -1.8364 -0.5876
 8296SOL    MW432958   6.016   5.196   3.994  0.1608  0.3559  0.5094
 8297SOL     OW32959   0.272   4.724   2.783 -0.3646  0.7594  0.0505
 8297SOL    HW232960   0.214   4.648   2.779  2.0988 -1.2670 -0.1371
 8297SOL    HW332961   0.285   4.740   2.876  1.8704 -1.5084  0.2615
 8297SOL    MW432962   0.266   4.716   2.795  0.2703 -0.7175 -0.2267
 8298SOL     OW32963   0.230   1.404   2.258  0.1459 -1.0327 -0.4364
 8298SOL    HW232964   0.203   1.316   2.230 -0.0802 -0.2719 -2.8403
 8298SOL    HW332965   0.199   1.462   2.188 -0.2030  1.0618  1.3633
 8298SOL    MW432966   0.222   1.400   2.245  0.4304  0.3371 -0.6416
 8299SOL     OW32967   0.874   4.011   3.041  0.1736 -0.5994 -0.9775
 8299SOL    HW232968   0.941   4.075   3.017  0.3724 -0.5399 -0.2629
 8299SOL    HW332969   0.861   3.959   2.961  0.2987  0.0712 -1.4382
 8299SOL    MW432970   0.881   4.012   3.027 -0.2073  0.1150 -0.2589
 8300SOL     OW32971   3.138   0.030   4.956 -0.6369  0.1015 -0.3054
 8300SOL    HW232972   3.140   0.028   5.052 -0.8840  0.4259 -0.2921
 8300SOL    HW332973   3.112  -0.059   4.932 -1.7961  0.3435 -0.0234
 8300SOL    MW432974   3.135   0.018   4.966 -0.0106  0.5496 -0.6441
 8301SOL     OW32975   2.319   6.017   3.299 -0.3142 -0.1107 -0.6795
 8301SOL    HW232976   2.324   6.017   3.395 -0.4635  1.9320 -0.6402
 8301SOL    HW332977   2.410   6.024   3.270 -0.3432  0.4174 -0.6530
 8301SOL    MW432978   2.332   6.018   3.308  0.3469  0.1425  0.0617
 8302SOL     OW32979   2.920   2.377   3.786 -1.0091  0.1445  0.3282
 8302SOL    HW232980   2.858   2.403   3.717 -0.8903 -1.1953 -0.3110
 8302SOL    HW332981   3.004   2.371   3.741 -0.6249  0.7812  0.9437
 8302SOL    MW432982   2.923   2.380   3.771  0.0751 -0.0626  0.6357
 8303SOL     OW32983   2.064   3.670   3.837 -0.4176  0.0231 -0.6530
 8303SOL    HW232984   2.047   3.630   3.922  2.0032 -0.0336 -0.1097
 8303SOL    HW332985   2.038   3.604   3.773 -1.8096 -0.1269  0.0415
 8303SOL    MW432986   2.058   3.656   3.839  0.1258 -0.1896 -0.5432
 8304SOL     OW32987   3.582   2.400   4.155  0.2687 -0.6289 -0.3816
 8304SOL    HW232988   3.671   2.364   4.154  0.3413 -0.5534  0.8004
 8304SOL    HW332989   3.589   2.476   4.213 -0.6992 -0.9988  0.2407
 8304SOL    MW432990   3.595   2.405   4.163  0.2984 -0.1525  0.2232
 8305SOL     OW32991   1.769   1.689   0.869  1.0131 -0.0120 -0.2496
 8305SOL    HW232992   1.825   1.688   0.946  0.2094 -1.0411  0.3253
 8305SOL    HW332993   1.806   1.622   0.811 -0.1411 -1.3579  0.5255
 8305SOL    MW432994   1.781   1.680   0.871 -0.5505  0.7092  0.9676
 8306SOL     OW32995   3.446   4.294   1.363  0.0151 -0.1594 -0.7522
 8306SOL    HW232996   3.481   4.383   1.367 -0.1812 -0.1154  0.4706
 8306SOL    HW332997   3.353   4.304   1.385  0.4853 -0.9018  1.9015
 8306SOL    MW432998   3.438   4.307   1.366  0.4793  0.6700  0.5561
 8307SOL     OW32999   0.251   3.952   3.753  0.1701 -0.3793  0.4021
 8307SOL    HW233000   0.189   3.878   3.757  0.0418 -0.3658 -0.9684
 8307SOL    HW333001   0.200   4.024   3.717  0.5392  0.1203  0.8787
 8307SOL    MW433002   0.236   3.951   3.749 -0.5892  0.0165  0.2049
 8308SOL     OW33003   1.428   5.105   1.595 -0.0613 -0.1550  0.1589
 8308SOL    HW233004   1.457   5.195   1.613 -0.3120 -0.0620  0.1091
 8308SOL    HW333005   1.470   5.052   1.663 -1.4816  0.2795  1.4374
 8308SOL    MW433006   1.437   5.110   1.607  0.4685 -0.1557  0.6228
 8309SOL     OW33007   4.266   0.371   2.360  0.1140 -0.3047 -0.0571
 8309SOL    HW233008   4.288   0.328   2.277  1.3246  0.1162  0.0209
 8309SOL    HW333009   4.256   0.463   2.337  0.7257 -0.1458  0.3032
 8309SOL    MW433010   4.268   0.377   2.346 -0.4534 -0.2035  0.0517
 8310SOL     OW33011   5.064   4.253   0.272  0.8823 -0.6791  0.0485
 8310SOL    HW233012   5.050   4.165   0.307  1.2321 -0.8308 -0.1894
 8310SOL    HW333013   5.158   4.258   0.255  1.0321  0.0856  0.9810
 8310SOL    MW433014   5.075   4.242   0.275 -0.1651  0.3755 -0.6858
 8311SOL     OW33015   5.532   3.362   6.296 -0.6714 -0.1638  0.6310
 8311SOL    HW233016   5.467   3.359   6.227 -0.5846 -1.1302  0.5899
 8311SOL    HW333017   5.544   3.271   6.323  0.1254  0.0780  1.1362
 8311SOL    MW433018   5.525   3.350   6.291  0.4671  0.0503  0.1538
 8312SOL     OW33019   5.469   4.690   6.300  0.3885  0.4291 -0.0753
 8312SOL    HW233020   5.482   4.780   6.271 -2.2399  0.4205 -1.5499
 8312SOL    HW333021   5.464   4.639   6.219 -1.7333 -0.4571  0.5503
 8312SOL    MW433022   5.470   4.695   6.285 -0.2055  0.1509  0.2697
 8313SOL     OW33023   1.647   3.906   6.030  0.8783 -0.7556 -0.7502
 8313SOL    HW233024   1.709   3.894   6.101 -1.7389 -1.1856  1.6410
 8313SOL    HW333025   1.634   3.819   5.993  1.6714 -0.6573 -1.2798
 8313SOL    MW433026   1.653   3.893   6.034 -0.0692  0.1246  0.2588
 8314SOL     OW33027   3.060   3.067   4.366 -0.1315  0.1289  0.1358
 8314SOL    HW233028   3.070   2.972   4.369 -0.3132  0.1376  1.1594
 8314SOL    HW333029   3.050   3.087   4.273 -0.2692 -0.8699 -0.0718
 8314SOL    MW433030   3.060   3.057   4.354  0.1909 -0.2021 -0.8458
 8315SOL     OW33031   2.609   0.627   3.685 -0.8834 -0.1022  0.0228
 8315SOL    HW233032   2.513   0.631   3.680 -0.8944 -1.2271 -2.3127
 8315SOL    HW333033   2.626   0.553   3.743 -1.4362  0.0622  0.4066
 8315SOL    MW433034   2.598   0.618   3.692  0.0691  0.0616  0.2126
 8316SOL     OW33035   0.132   1.779   5.025 -0.1915  0.1852 -0.1362
 8316SOL    HW233036   0.090   1.752   5.106  0.2000  0.7022  0.2526
 8316SOL    HW333037   0.212   1.825   5.054 -0.9782  2.0289 -0.7295
 8316SOL    MW433038   0.137   1.781   5.040  0.1918 -0.0189 -0.1344
 8317SOL     OW33039   1.970   2.090   6.222 -0.0014 -0.1345  0.3598
 8317SOL    HW233040   1.924   2.122   6.299 -0.4130  0.5921 -0.1716
 8317SOL    HW333041   1.900   2.066   6.161  0.3017  0.4702 -0.2468
 8317SOL    MW433042   1.955   2.091   6.224 -0.0661 -0.4125  0.4888
 8318SOL     OW33043   2.467   5.925   5.966  0.2430  0.4245 -0.1677
 8318SOL    HW233044   2.408   5.999   5.952 -0.1389  0.1240 -0.1538
 8318SOL    HW333045   2.415   5.848   5.944 -0.0122  0.0090  1.7089
 8318SOL    MW433046   2.452   5.925   5.962  0.3524 -0.2618  0.0690
 8319SOL     OW33047   4.440   6.385   1.754  0.1932 -0.5583 -0.2375
 8319SOL    HW233048   4.422   6.311   1.812 -0.2614 -0.1455  0.1656
 8319SOL    HW333049   4.532   6.406   1.770  0.2986 -0.9824 -0.2900
 8319SOL    MW433050   4.450   6.378   1.764 -0.5415 -0.5690  0.0629
 8320SOL     OW33051   2.410   6.066   6.283 -0.0622 -0.1882 -0.6773
 8320SOL    HW233052   2.496   6.105   6.266  0.5229 -1.2845 -0.3395
 8320SOL    HW333053   2.430   5.976   6.311 -1.1059  0.5021  2.7018
 8320SOL    MW433054   2.424   6.059   6.284 -0.1017 -0.1962 -0.2252
 8321SOL     OW33055   3.748   4.605   1.416  0.0252  0.4598  0.6184
 8321SOL    HW233056   3.654   4.620   1.415  0.0317  0.5373  1.0607
 8321SOL    HW333057   3.785   4.676   1.363 -0.3341 -0.8718 -1.5605
 8321SOL    MW433058   3.741   4.616   1.409 -0.0106  0.0235  0.0360
 8322SOL     OW33059   5.632   0.646   3.636 -0.3975 -0.7350  0.3395
 8322SOL    HW233060   5.609   0.700   3.560 -0.8585  0.0633  1.0346
 8322SOL    HW333061   5.590   0.561   3.619 -0.9657 -0.3821 -0.0304
 8322SOL    MW433062   5.623   0.642   3.624 -0.5971 -0.2867  1.2471
 8323SOL     OW33063   6.337   0.752   6.094  0.2464 -0.5190 -0.0884
 8323SOL    HW233064   6.427   0.745   6.061 -0.3833  0.7232 -2.2836
 8323SOL    HW333065   6.282   0.723   6.020 -1.1883 -0.0083  0.7341
 8323SOL    MW433066   6.341   0.747   6.080  0.9039  0.4526  0.7220
 8324SOL     OW33067   2.373   3.013   6.400  0.0647  0.4144  0.8774
 8324SOL    HW233068   2.359   3.103   6.373 -0.9274 -0.5661 -2.4331
 8324SOL    HW333069   2.290   2.986   6.439 -1.7072 -0.4003 -2.9458
 8324SOL    MW433070   2.360   3.021   6.402  0.3531 -0.1731 -0.4252
 8325SOL     OW33071   0.474   4.366   0.150  0.3212  0.3319 -0.4071
 8325SOL    HW233072   0.473   4.292   0.210  2.2438  1.0526  0.5882
 8325SOL    HW333073   0.406   4.425   0.183 -0.6421 -0.5711 -0.7176
 8325SOL    MW433074   0.465   4.364   0.162  0.0423  0.3813 -0.7472
 8326SOL     OW33075   2.782   3.852   3.277  0.1050  0.4722  0.3496
 8326SOL    HW233076   2.722   3.911   3.324  1.1949  1.0967  1.0027
 8326SOL    HW333077   2.816   3.795   3.346  0.1947  0.0661 -0.0329
 8326SOL    MW433078   2.779   3.852   3.293  0.7854  0.2633 -0.0152
 8327SOL     OW33079   5.306   6.148   1.922  0.3230 -0.0056  0.2312
 8327SOL    HW233080   5.307   6.067   1.974  1.0819 -1.2857 -1.6575
 8327SOL    HW333081   5.291   6.118   1.832 -0.6806  2.0964 -0.3702
 8327SOL    MW433082   5.304   6.133   1.917  0.3527  0.3887  0.9346
 8328SOL     OW33083   5.913   3.850   3.946  0.1698  0.7532 -0.2510
 8328SOL    HW233084   5.977   3.881   4.010 -1.5262 -1.0118  2.5030
 8328SOL    HW333085   5.833   3.897   3.968 -0.1287  1.2494 -2.1626
 8328SOL    MW433086   5.911   3.861   3.957  0.0613 -0.5668  0.5424
 8329SOL     OW33087   4.378   2.493   0.726 -0.1905 -0.1395 -0.3801
 8329SOL    HW233088   4.399   2.506   0.633 -2.7234  1.1327 -0.8495
 8329SOL    HW333089   4.310   2.426   0.726  0.2853 -0.6462  0.6554
 8329SOL    MW433090   4.372   2.486   0.713 -0.1339 -0.4090 -0.2915
 8330SOL     OW33091   4.323   4.516   0.951  0.0089 -0.2292  0.6827
 8330SOL    HW233092   4.274   4.571   0.890 -0.9298  0.8883  2.3489
 8330SOL    HW333093   4.398   4.484   0.900 -0.7228  0.6314 -1.0277
 8330SOL    MW433094   4.326   4.519   0.936  0.1057  0.1046 -0.5431
 8331SOL     OW33095   4.294   1.776   5.332 -0.3689  0.0234 -0.1312
 8331SOL    HW233096   4.208   1.738   5.344  0.0105 -0.6048  0.6901
 8331SOL    HW333097   4.354   1.716   5.378  0.5459  0.2488 -0.9788
 8331SOL    MW433098   4.291   1.763   5.340 -0.2994 -0.4130 -0.3445
 8332SOL     OW33099   5.757   2.163   6.138 -0.3174 -0.1343  0.1453
 8332SOL    HW233100   5.778   2.070   6.144  0.2809 -0.0917 -0.9253
 8332SOL    HW333101   5.733   2.189   6.227  3.5116 -0.3679  1.4100
 8332SOL    MW433102   5.756   2.154   6.150 -0.1275  0.0400  0.5463
 8333SOL     OW33103   2.570   4.643   3.974  0.1131 -0.2907 -0.5439
 8333SOL    HW233104   2.575   4.692   3.891 -0.4201 -1.5012 -1.3238
 8333SOL    HW333105   2.476   4.641   3.995  0.2843  0.4222  0.3777
 8333SOL    MW433106   2.558   4.649   3.966  0.0034  0.5477 -0.3657
 8334SOL     OW33107   5.504   4.098   3.141 -0.2590  0.4806  0.4075
 8334SOL    HW233108   5.427   4.083   3.087  0.4666 -3.7063  0.2029
 8334SOL    HW333109   5.470   4.136   3.222 -2.3012  0.2211 -0.2834
 8334SOL    MW433110   5.489   4.101   3.145  0.4118  0.8685  0.2009
 8335SOL     OW33111   3.015   0.891   5.137  0.5974 -0.1483 -0.2262
 8335SOL    HW233112   3.028   0.826   5.206  1.1920  1.0930  0.9083
 8335SOL    HW333113   3.094   0.885   5.084 -0.2923 -1.7817 -1.4347
 8335SOL    MW433114   3.027   0.882   5.139 -0.3249  0.3069  0.2624
 8336SOL     OW33115   2.775   5.048   3.825  0.2506 -0.0504 -0.1264
 8336SOL    HW233116   2.787   5.035   3.919 -1.9265  0.4735  0.2754
 8336SOL    HW333117   2.781   4.960   3.788 -0.7686 -0.5290  0.7769
 8336SOL    MW433118   2.777   5.034   3.833 -0.4538 -0.4308 -0.6049
 8337SOL     OW33119   4.241   2.858   2.409  0.1846  0.2069 -0.2007
 8337SOL    HW233120   4.266   2.917   2.480  1.1396 -0.2661 -0.1281
 8337SOL    HW333121   4.307   2.872   2.341 -1.3239  1.4497 -1.4970
 8337SOL    MW433122   4.253   2.867   2.409 -0.1721  0.3230 -0.3129
 8338SOL     OW33123   3.869   1.094   0.462  0.2838 -0.4066  0.3978
 8338SOL    HW233124   3.869   1.149   0.383  0.5066 -0.6655  0.2162
 8338SOL    HW333125   3.778   1.099   0.494  0.4382  0.5555  0.7342
 8338SOL    MW433126   3.857   1.102   0.456  0.3873 -0.0232  0.1977
 8339SOL     OW33127   3.285   3.972   1.078  0.0130  0.0606 -0.6127
 8339SOL    HW233128   3.355   3.999   1.137 -1.0700  0.5380  0.4902
 8339SOL    HW333129   3.326   3.908   1.020  0.9948 -0.8406  1.0011
 8339SOL    MW433130   3.299   3.967   1.078 -0.5235  0.5472 -0.6908
 8340SOL     OW33131   2.118   1.950   5.339  0.2560 -0.4686 -0.4816
 8340SOL    HW233132   2.062   2.027   5.349  0.0979 -0.8189  1.8267
 8340SOL    HW333133   2.206   1.985   5.329  0.1499  0.0329  0.2636
 8340SOL    MW433134   2.122   1.964   5.339  0.0854 -0.1180  0.1598
 8341SOL     OW33135   0.207   3.369   6.152 -0.5778  0.4418  0.4771
 8341SOL    HW233136   0.184   3.461   6.139 -1.2538  0.0494 -1.6447
 8341SOL    HW333137   0.266   3.349   6.079  0.0736 -0.6652  1.2704
 8341SOL    MW433138   0.212   3.379   6.140 -0.8030 -0.2966 -0.1432
 8342SOL     OW33139   5.518   2.442   2.337 -0.4161  0.2410  0.4421
 8342SOL    HW233140   5.612   2.428   2.337 -0.4529 -0.2145  1.7651
 8342SOL    HW333141   5.507   2.532   2.368 -0.3997  0.5742 -0.5044
 8342SOL    MW433142   5.529   2.452   2.341  0.7100  0.3460 -0.1871
 8343SOL     OW33143   4.591   0.061   3.027  0.3055 -0.3328  0.4615
 8343SOL    HW233144   4.679   0.099   3.025  0.4166  0.0601  4.3714
 8343SOL    HW333145   4.562   0.073   3.117 -1.5981 -5.2853  0.8434
 8343SOL    MW433146   4.599   0.068   3.039 -0.0591 -0.4430 -0.2625
 8344SOL     OW33147   0.295   0.994   5.305 -0.2038 -0.5444 -0.0733
 8344SOL    HW233148   0.348   1.073   5.313 -1.1918 -0.0157  1.7446
 8344SOL    HW333149   0.205   1.025   5.306 -0.7145 -1.7308  2.8538
 8344SOL    MW433150   0.290   1.008   5.306  0.4792 -0.4510 -0.0023
 8345SOL     OW33151   1.184   2.210   5.386 -0.4069  1.0023  0.3980
 8345SOL    HW233152   1.173   2.264   5.308 -1.3722  0.8090  0.3951
 8345SOL    HW333153   1.097   2.202   5.423  0.0531  1.1621  1.5642
 8345SOL    MW433154   1.171   2.216   5.380 -0.5062 -0.3017  0.0585
 8346SOL     OW33155   5.016   5.548   4.837 -0.1325 -0.5145 -0.3705
 8346SOL    HW233156   5.009   5.601   4.917  1.2106 -2.4131  1.1094
 8346SOL    HW333157   4.994   5.459   4.866  1.1852 -1.3913 -1.9247
 8346SOL    MW433158   5.012   5.543   4.852  0.0616  0.6966  0.3045
 8347SOL     OW33159   6.207   6.076   1.832 -0.4022  0.3353  0.0104
 8347SOL    HW233160   6.161   5.993   1.826  0.2108  0.0494 -0.9147
 8347SOL    HW333161   6.166   6.131   1.764 -0.7463  0.7660  0.5559
 8347SOL    MW433162   6.195   6.073   1.822 -0.2306 -0.0921 -0.3003
 8348SOL     OW33163   5.383   3.609   0.225  0.1795 -0.2390 -0.2098
 8348SOL    HW233164   5.357   3.567   0.143  0.7783  1.5155 -1.3476
 8348SOL    HW333165   5.477   3.591   0.232  1.1043  3.0055 -2.1516
 8348SOL    MW433166   5.392   3.601   0.215  0.7281 -0.3276 -0.6517
 8349SOL     OW33167   0.788   3.979   6.177  0.8196 -0.1222 -0.4401
 8349SOL    HW233168   0.714   3.940   6.131  0.4511 -0.0145  0.0614
 8349SOL    HW333169   0.848   3.906   6.193  0.2699 -0.4339  0.2321
 8349SOL    MW433170   0.786   3.964   6.173  0.2798 -0.1956  0.0530
 8350SOL     OW33171   2.777   0.657   2.930 -0.6282 -0.3008  0.1369
 8350SOL    HW233172   2.684   0.678   2.939 -0.5409 -0.2985  1.2930
 8350SOL    HW333173   2.822   0.738   2.953 -0.3395 -0.4392  0.0653
 8350SOL    MW433174   2.770   0.670   2.934 -0.3198 -0.6761  0.1556
 8351SOL     OW33175   1.377   5.928   2.605 -0.6453 -0.5249 -0.4447
 8351SOL    HW233176   1.376   6.023   2.610 -0.2890 -0.5149 -0.5670
 8351SOL    HW333177   1.462   5.906   2.568  0.0585 -0.9733  1.3320
 8351SOL    MW433178   1.388   5.937   2.601  0.5606  0.1022 -0.8150
 8352SOL     OW33179   2.104   0.720   0.922 -0.2964 -0.0148  0.0331
 8352SOL    HW233180   2.028   0.759   0.879 -0.7014 -0.4658  0.3287
 8352SOL    HW333181   2.112   0.633   0.883  0.6609  0.3848 -0.6943
 8352SOL    MW433182   2.095   0.713   0.911 -0.2896 -0.1900 -0.6394
 8353SOL     OW33183   0.741   3.767   1.102 -0.0618  0.5044  0.4291
 8353SOL    HW233184   0.783   3.851   1.083  1.1144  0.0070  0.7560
 8353SOL    HW333185   0.737   3.722   1.018  0.9347  0.1780  0.5436
 8353SOL    MW433186   0.746   3.772   1.089  0.2690  0.0470 -0.1860
 8354SOL     OW33187   5.661   2.301   3.138 -0.6143 -0.0723  0.0461
 8354SOL    HW233188   5.600   2.238   3.176  0.6879 -1.0080  0.6928
 8354SOL    HW333189   5.613   2.384   3.137 -2.2231 -0.9670 -0.4144
 8354SOL    MW433190   5.647   2.304   3.143 -0.0852  0.2061 -0.6188
 8355SOL     OW33191   4.779   1.247   2.704  0.1538  0.6612 -0.0032
 8355SOL    HW233192   4.749   1.201   2.783  1.2527  3.4566  2.2132
 8355SOL    HW333193   4.866   1.210   2.687 -0.0814  0.0560  0.0738
 8355SOL    MW433194   4.787   1.236   2.712  0.2631  0.5145  0.5845
 8356SOL     OW33195   1.866   5.438   0.589 -0.0411  0.2798  0.0697
 8356SOL    HW233196   1.928   5.507   0.567 -0.6111  0.6299 -0.4569
 8356SOL    HW333197   1.798   5.443   0.522  0.4093 -1.4508 -0.5780
 8356SOL    MW433198   1.865   5.447   0.577 -0.5436  0.4637  0.0232
 8357SOL     OW33199   3.854   3.273   0.376  0.7608 -0.6988 -0.3394
 8357SOL    HW233200   3.948   3.288   0.369  0.5987  1.0181  0.6981
 8357SOL    HW333201   3.844   3.216   0.451  0.8995  0.5254  0.6488
 8357SOL    MW433202   3.865   3.268   0.385 -0.0621 -0.5710 -0.1462
 8358SOL     OW33203   4.592   2.747   2.787 -0.2426  0.8799  0.4087
 8358SOL    HW233204   4.516   2.697   2.816  0.0234  0.8413  1.0651
 8358SOL    HW333205   4.581   2.833   2.827 -1.3183  1.7803 -1.6889
 8358SOL    MW433206   4.580   2.751   2.796 -0.1580  0.2403  0.8202
 8359SOL     OW33207   3.626   1.683   1.512 -0.0270  0.0766 -0.4984
 8359SOL    HW233208   3.601   1.773   1.534  0.2803 -0.1952  1.1341
 8359SOL    HW333209   3.658   1.687   1.422  0.1185  1.6262 -0.3964
 8359SOL    MW433210   3.627   1.695   1.503  0.1621  0.2578 -0.1543
 8360SOL     OW33211   5.274   3.640   4.050 -0.4451 -0.1903  0.1936
 8360SOL    HW233212   5.287   3.579   4.122  0.0046 -0.1386  0.1599
 8360SOL    HW333213   5.358   3.639   4.003 -0.6521 -0.0380 -0.1829
 8360SOL    MW433214   5.287   3.631   4.053  0.1439 -0.5074 -0.3008
 8361SOL     OW33215   2.822   1.306   2.874 -0.4921 -0.0916 -0.2077
 8361SOL    HW233216   2.772   1.225   2.866 -0.4214 -0.2084  0.4258
 8361SOL    HW333217   2.903   1.290   2.826 -1.6182  0.5946 -2.4534
 8361SOL    MW433218   2.826   1.293   2.867 -0.3456 -0.1209  0.0182
 8362SOL     OW33219   6.328   3.966   3.506  0.0560 -0.0532  0.0866
 8362SOL    HW233220   6.299   4.017   3.430 -1.4501 -0.4515  0.3684
 8362SOL    HW333221   6.406   4.012   3.537  0.6078  0.2243 -1.5860
 8362SOL    MW433222   6.334   3.979   3.500 -0.3972  0.2499  0.5007
 8363SOL     OW33223   4.486   5.078   0.005 -0.0390 -0.4769  0.6664
 8363SOL    HW233224   4.442   5.094   0.089 -0.5124 -0.8831  0.5028
 8363SOL    HW333225   4.524   5.163  -0.018  0.8119 -0.5608  1.6848
 8363SOL    MW433226   4.485   5.091   0.013 -0.4235 -0.2060  0.6059
 8364SOL     OW33227   5.125   1.444   3.872  0.1543 -0.1194  0.3611
 8364SOL    HW233228   5.171   1.402   3.944  1.3771  0.4570 -0.0577
 8364SOL    HW333229   5.169   1.529   3.861  0.0005 -0.1937 -1.0530
 8364SOL    MW433230   5.137   1.450   3.880 -0.2744  0.4878  0.1516
 8365SOL     OW33231   3.950   4.161   0.918  0.0411  0.1532 -0.2369
 8365SOL    HW233232   3.907   4.211   0.848 -0.2963  1.5035  0.8959
 8365SOL    HW333233   4.027   4.212   0.941  0.5263 -0.6314 -0.0697
 8365SOL    MW433234   3.954   4.174   0.912  0.0606 -0.1895  0.2677
 8366SOL     OW33235   5.807   2.743   1.422  0.6901 -0.2865 -0.1491
 8366SOL    HW233236   5.835   2.668   1.368 -0.1624 -0.4606 -0.3674
 8366SOL    HW333237   5.787   2.811   1.358 -0.5206 -0.5597 -0.0843
 8366SOL    MW433238   5.808   2.742   1.406 -0.1382 -0.2573 -0.0659
 8367SOL     OW33239   4.888   2.255   3.125  0.1563 -0.0713  0.3445
 8367SOL    HW233240   4.891   2.334   3.180 -0.0351 -0.4082  0.8532
 8367SOL    HW333241   4.810   2.266   3.071 -0.1087 -0.0980  0.7141
 8367SOL    MW433242   4.878   2.267   3.125 -1.0443 -0.3811  0.0994
 8368SOL     OW33243   4.016   5.617   5.635 -0.2324 -0.0769 -0.4003
 8368SOL    HW233244   3.993   5.709   5.648  0.7212  0.0231  0.8683
 8368SOL    HW333245   4.048   5.612   5.545 -1.6889  0.5092 -0.9700
 8368SOL    MW433246   4.017   5.628   5.625  0.0430  0.4428  0.3573
 8369SOL     OW33247   5.575   1.002   0.155 -0.5831  0.2349  0.8437
 8369SOL    HW233248   5.581   1.013   0.060  0.0247  0.3001  0.8834
 8369SOL    HW333249   5.553   0.909   0.167 -1.0149  0.3068  0.6325
 8369SOL    MW433250   5.573   0.991   0.144 -0.7891  0.2510 -0.3592
 8370SOL     OW33251   1.185   2.958   1.038  0.1398 -0.2133  0.4956
 8370SOL    HW233252   1.132   2.878   1.045  0.5508 -0.5262  0.1428
 8370SOL    HW333253   1.221   2.971   1.125 -2.0405  1.0966  1.2722
 8370SOL    MW433254   1.183   2.949   1.050 -0.1537 -0.8039  0.0146
 8371SOL     OW33255   2.129   0.840   6.132 -0.0668  0.3770 -0.0420
 8371SOL    HW233256   2.131   0.935   6.130 -1.0695  0.4056 -0.8079
 8371SOL    HW333257   2.216   0.814   6.163  0.0775  1.5354  0.5628
 8371SOL    MW433258   2.141   0.849   6.136  0.3830  0.1727  0.3181
 8372SOL     OW33259   0.760   2.986   3.525 -0.3748  0.1255  0.9592
 8372SOL    HW233260   0.792   2.962   3.437 -1.9241 -1.7622  0.8295
 8372SOL    HW333261   0.694   3.053   3.509 -1.3066 -0.8508  0.5282
 8372SOL    MW433262   0.755   2.992   3.511 -0.4244 -0.4219  0.0166
 8373SOL     OW33263   2.016   5.237   6.049  0.2682 -0.6297 -0.1299
 8373SOL    HW233264   2.010   5.285   6.132  2.3910 -2.1286  0.9665
 8373SOL    HW333265   1.956   5.163   6.059 -0.8989  0.1892 -0.7369
 8373SOL    MW433266   2.007   5.234   6.061  0.4904  0.2317 -0.1988
 8374SOL     OW33267   2.840   2.704   6.403  0.6283  0.8541  1.0221
 8374SOL    HW233268   2.869   2.646   6.332 -1.5371  0.4083  0.4229
 8374SOL    HW333269   2.895   2.681   6.477  1.2544 -0.4705  0.1892
 8374SOL    MW433270   2.851   2.693   6.403  0.3236  0.4333  0.2003
 8375SOL     OW33271   5.047   3.724   5.837 -0.2265 -0.6349  0.2409
 8375SOL    HW233272   5.122   3.666   5.849 -1.1344 -1.6569  1.3059
 8375SOL    HW333273   5.082   3.812   5.854  0.8208 -1.0387  0.2736
 8375SOL    MW433274   5.061   3.728   5.841  0.2987  0.0858 -0.4857
 8376SOL     OW33275   5.824   5.573   0.705 -0.2375 -0.6781 -0.4611
 8376SOL    HW233276   5.821   5.663   0.672  0.1017 -0.4587  0.1033
 8376SOL    HW333277   5.796   5.520   0.631  0.9327 -0.2254 -1.2554
 8376SOL    MW433278   5.820   5.578   0.691  0.3569  0.0278  0.0393
 8377SOL     OW33279   2.029   6.221   5.492  0.1846 -0.1523 -0.1969
 8377SOL    HW233280   2.049   6.155   5.426  1.3478 -0.6041  0.5733
 8377SOL    HW333281   2.064   6.186   5.573  2.1219  1.9675  0.0093
 8377SOL    MW433282   2.036   6.208   5.494  0.1001 -0.1987 -0.3201
 8378SOL     OW33283   4.917   6.397   4.651  0.0385  0.7243 -0.2554
 8378SOL    HW233284   4.972   6.454   4.704  0.1479  1.5995 -1.2805
 8378SOL    HW333285   4.973   6.369   4.578 -0.1334 -0.3824  0.0085
 8378SOL    MW433286   4.931   6.401   4.648  0.5333 -0.0034 -0.2953
 8379SOL     OW33287   4.397   6.006   0.993 -0.0413  0.4147  0.7326
 8379SOL    HW233288   4.459   6.013   1.065  1.5565  1.2955 -0.6460
 8379SOL    HW333289   4.392   5.913   0.973  1.4358  0.3897  0.4123
 8379SOL    MW433290   4.404   5.995   1.000  0.1523  0.1497 -0.2060
 8380SOL     OW33291   4.939   3.512   4.448  0.0922 -0.3151 -0.3850
 8380SOL    HW233292   4.887   3.433   4.463 -1.8161  0.9111 -0.1976
 8380SOL    HW333293   4.928   3.532   4.356 -0.3625  0.3488 -0.1922
 8380SOL    MW433294   4.931   3.504   4.438  0.3991 -0.6196  0.8515
 8381SOL     OW33295   6.124   1.321   2.379 -0.0488 -0.0035 -0.5230
 8381SOL    HW233296   6.059   1.258   2.412  1.5126 -0.0461  2.8554
 8381SOL    HW333297   6.206   1.272   2.376  0.4316  0.8323 -1.8681
 8381SOL    MW433298   6.126   1.306   2.383  0.3059  0.0166  0.0308
 8382SOL     OW33299   0.586   5.247   0.009 -0.2606 -0.3426  0.3406
 8382SOL    HW233300   0.542   5.220  -0.071  1.0784 -3.1144  0.4241
 8382SOL    HW333301   0.661   5.297  -0.020 -0.3767 -0.4047 -0.0675
 8382SOL    MW433302   0.590   5.250  -0.005  1.1667 -0.4875 -1.4083
 8383SOL     OW33303   1.602   5.865   5.396 -0.3709 -0.0872  0.4407
 8383SOL    HW233304   1.511   5.848   5.420 -0.0599 -1.1464  0.9069
 8383SOL    HW333305   1.651   5.849   5.476  0.3852 -0.9281 -0.1789
 8383SOL    MW433306   1.596   5.861   5.410  0.2499 -0.3566 -0.6580
 8384SOL     OW33307   5.178   5.132   3.020  0.0912  0.5585  0.4219
 8384SOL    HW233308   5.185   5.199   2.953 -0.5739  0.3208  0.1068
 8384SOL    HW333309   5.085   5.110   3.023  0.5255 -1.8669 -0.9980
 8384SOL    MW433310   5.166   5.138   3.012 -0.4351  0.0844  0.2307
 8385SOL     OW33311   2.798   2.189   1.967 -0.3526  0.1504  0.3390
 8385SOL    HW233312   2.763   2.102   1.949 -0.7247  0.7622 -2.1665
 8385SOL    HW333313   2.821   2.186   2.060  0.3363 -2.8446  0.1822
 8385SOL    MW433314   2.797   2.177   1.977 -0.0780 -0.0538  0.5250
 8386SOL     OW33315   1.522   6.164   3.048 -0.3223 -0.1017  0.1382
 8386SOL    HW233316   1.489   6.128   3.130  1.4091 -1.5169  0.2894
 8386SOL    HW333317   1.530   6.258   3.064 -0.3756 -0.3078  1.4558
 8386SOL    MW433318   1.519   6.172   3.061  0.4499 -0.0703 -0.2218
 8387SOL     OW33319   3.676   2.995   2.360  0.2351 -0.5749  0.1749
 8387SOL    HW233320   3.607   3.060   2.345 -1.2306 -1.9685  0.5652
 8387SOL    HW333321   3.631   2.921   2.401  1.5351 -2.4324 -1.5443
 8387SOL    MW433322   3.661   2.994   2.364 -0.6318  0.1549  0.2888
 8388SOL     OW33323   3.922   1.873   5.583 -0.3872 -0.3736 -0.2840
 8388SOL    HW233324   3.950   1.938   5.518 -0.0710  0.2529  0.4685
 8388SOL    HW333325   4.000   1.858   5.636 -1.3200  1.1243  1.6233
 8388SOL    MW433326   3.936   1.879   5.581  0.5186 -0.0693 -0.2467
 8389SOL     OW33327   2.780   5.727   5.615 -0.0959  0.1287  0.3182
 8389SOL    HW233328   2.703   5.777   5.644 -0.5013  0.3346 -1.0312
 8389SOL    HW333329   2.834   5.791   5.569  0.0097 -0.3855 -0.2878
 8389SOL    MW433330   2.777   5.742   5.613 -0.1729 -0.7458 -0.2220
 8390SOL     OW33331   1.890   5.158   6.356 -0.0689  0.4119 -0.1405
 8390SOL    HW233332   1.796   5.174   6.364 -0.1672  0.4463 -1.1584
 8390SOL    HW333333   1.927   5.241   6.325  0.3004  0.3985  0.2494
 8390SOL    MW433334   1.883   5.171   6.353 -0.5238 -0.6442 -0.0273
 8391SOL     OW33335   4.553   2.815   4.497 -0.3688  0.0759 -0.3510
 8391SOL    HW233336   4.646   2.819   4.518 -0.2997  0.2473 -0.6936
 8391SOL    HW333337   4.509   2.842   4.578 -0.1936 -1.9695  0.4734
 8391SOL    MW433338   4.559   2.819   4.511 -0.2098 -0.1544 -0.3239
 8392SOL     OW33339   4.613   3.686   3.627 -0.0121 -0.3982 -0.1708
 8392SOL    HW233340   4.607   3.762   3.569 -0.3369 -0.5044 -0.2754
 8392SOL    HW333341   4.703   3.655   3.617 -0.1910 -0.6832 -0.9450
 8392SOL    MW433342   4.624   3.692   3.618 -0.5741  1.2612 -0.1497
 8393SOL     OW33343   4.963   6.081   5.250 -0.1131  0.2383 -0.1957
 8393SOL    HW233344   4.908   6.154   5.219 -1.0390  0.4138  1.7583
 8393SOL    HW333345   4.981   6.101   5.341 -1.9190 -2.8164  1.0006
 8393SOL    MW433346   4.958   6.093   5.258  0.6336  0.0603 -0.0932
 8394SOL     OW33347   1.410   0.341   1.619 -0.3613  0.3982 -0.8984
 8394SOL    HW233348   1.341   0.405   1.602 -2.5049 -0.9661  1.8113
 8394SOL    HW333349   1.476   0.390   1.667 -1.6952  0.8028  0.6328
 8394SOL    MW433350   1.409   0.356   1.623  0.1719  0.0520 -0.0861
 8395SOL     OW33351   4.918   5.232   4.058 -0.2919 -0.1025  0.3665
 8395SOL    HW233352   4.989   5.270   4.109  0.4299 -1.6944  0.6111
 8395SOL    HW333353   4.949   5.145   4.034 -1.6142 -0.3251 -0.7006
 8395SOL    MW433354   4.931   5.225   4.061 -0.2782 -0.2954 -0.5227
 8396SOL     OW33355   4.501   2.597   1.612 -0.4343 -0.1561 -0.0792
 8396SOL    HW233356   4.467   2.669   1.558  0.3919 -0.6643 -1.3088
 8396SOL    HW333357   4.595   2.600   1.600 -0.3405 -1.0705  0.3609
 8396SOL    MW433358   4.509   2.607   1.604 -0.5756 -0.3067  0.4881
 8397SOL     OW33359   0.442   1.440   2.607 -0.1499 -0.0769 -0.4515
 8397SOL    HW233360   0.356   1.417   2.572  0.5596 -1.0995 -1.6179
 8397SOL    HW333361   0.473   1.360   2.649  0.3372  0.1992 -0.2782
 8397SOL    MW433362   0.435   1.427   2.608  0.1186 -0.0529 -0.1047
 8398SOL     OW33363   2.189   0.521   2.663  0.7386 -0.2068  0.1453
 8398SOL    HW233364   2.166   0.442   2.711  1.2769 -0.7415 -0.4485
 8398SOL    HW333365   2.199   0.492   2.572  0.4733  0.6349 -0.1618
 8398SOL    MW433366   2.188   0.507   2.657 -0.0329  0.2332 -0.1298
 8399SOL     OW33367   1.195   0.299   2.379 -0.0845 -0.2694  0.0504
 8399SOL    HW233368   1.165   0.299   2.469  0.5914 -0.1931  0.2819
 8399SOL    HW333369   1.282   0.339   2.383 -0.9775  1.9457 -0.9423
 8399SOL    MW433370   1.202   0.304   2.391 -0.3858  0.0241 -0.6744
 8400SOL     OW33371   0.052   4.241   6.037 -0.3688  0.2855  0.1076
 8400SOL    HW233372  -0.005   4.311   6.068 -0.4372  0.2843 -0.0121
 8400SOL    HW333373   0.138   4.261   6.073  0.1302  1.6436 -1.6776
 8400SOL    MW433374   0.056   4.253   6.046  0.4685 -0.1112  0.2743
 8401SOL     OW33375   2.494   4.771   3.239  0.0253  0.4226 -0.2116
 8401SOL    HW233376   2.588   4.789   3.242 -0.1555  1.5084 -0.7517
 8401SOL    HW333377   2.486   4.692   3.185  0.4745  1.6686 -2.1958
 8401SOL    MW433378   2.505   4.763   3.232  0.1865 -0.2005 -0.1071
 8402SOL     OW33379   3.322   1.548   3.146  0.1979  0.1506  0.2584
 8402SOL    HW233380   3.246   1.582   3.098 -1.6392 -0.4179  2.5380
 8402SOL    HW333381   3.296   1.556   3.238  2.5065 -1.0914  1.0730
 8402SOL    MW433382   3.308   1.554   3.152  0.1701  1.1681  0.2453
 8403SOL     OW33383   6.351   1.769   2.390 -0.3591 -0.5663 -0.4050
 8403SOL    HW233384   6.372   1.712   2.464 -0.6196 -1.0520 -0.7039
 8403SOL    HW333385   6.424   1.832   2.387 -1.1997  0.5441  1.3200
 8403SOL    MW433386   6.364   1.770   2.399  0.3737 -0.8763 -0.1058
 8404SOL     OW33387   4.964   5.273   4.856  0.2852 -0.1847 -0.0316
 8404SOL    HW233388   5.033   5.215   4.886 -1.7908 -1.1227  3.5619
 8404SOL    HW333389   4.935   5.235   4.773  2.1118 -1.4359 -0.1570
 8404SOL    MW433390   4.969   5.260   4.849 -0.0090  0.4818  0.1758
 8405SOL     OW33391   6.004   1.314   6.068  1.3391  0.3104 -0.3738
 8405SOL    HW233392   6.062   1.240   6.051  2.0192  0.8103 -0.2814
 8405SOL    HW333393   6.061   1.391   6.063  0.3859  0.9530 -1.7994
 8405SOL    MW433394   6.019   1.314   6.065  0.3423 -0.0834 -0.5658
 8406SOL     OW33395   0.197   5.733   0.033  0.2339  0.2628  0.2088
 8406SOL    HW233396   0.175   5.810  -0.020 -0.4563  0.1769  0.3587
 8406SOL    HW333397   0.154   5.748   0.117  1.9878  0.7722  1.0695
 8406SOL    MW433398   0.188   5.745   0.037  0.3284  0.3612 -0.1952
 8407SOL     OW33399   3.635   5.169   2.299 -0.4575 -0.1733 -0.4345
 8407SOL    HW233400   3.715   5.218   2.320  0.2291 -1.3406 -0.2449
 8407SOL    HW333401   3.660   5.077   2.309 -2.7067 -0.6045  3.1007
 8407SOL    MW433402   3.649   5.163   2.303 -0.3192 -0.3997  0.4311
 8408SOL     OW33403   5.878   4.388   1.140 -0.5176  0.1952  0.1907
 8408SOL    HW233404   5.958   4.360   1.185 -0.2623  1.6726  0.7108
 8408SOL    HW333405   5.907   4.462   1.085 -1.9849  2.7190  2.5745
 8408SOL    MW433406   5.893   4.394   1.138 -0.0273 -0.2307  0.0534
 8409SOL     OW33407   1.501   1.116   4.213 -0.2457  0.2371 -0.4165
 8409SOL    HW233408   1.552   1.188   4.176  0.3682  0.2465  0.4208
 8409SOL    HW333409   1.447   1.085   4.140 -0.3434  1.3838 -0.8536
 8409SOL    MW433410   1.500   1.122   4.199 -0.1646  0.1629  0.8417
 8410SOL     OW33411   2.245   3.484   4.136 -0.3928  0.1819  0.8630
 8410SOL    HW233412   2.155   3.516   4.140 -0.0180  2.2419 -2.8088
 8410SOL    HW333413   2.239   3.400   4.090 -0.3888  0.7646 -0.2169
 8410SOL    MW433414   2.233   3.477   4.130 -0.0507  0.0644  0.3269
 8411SOL     OW33415   4.242   0.360   6.147 -0.1533 -0.4309  0.1838
 8411SOL    HW233416   4.246   0.268   6.171  0.2429 -0.0331  1.7659
 8411SOL    HW333417   4.225   0.360   6.053  1.2644 -2.1293 -0.1248
 8411SOL    MW433418   4.240   0.348   6.137  0.0226  0.0427  0.6318
 8412SOL     OW33419   4.371   1.647   5.871 -0.5630  0.0287 -0.1311
 8412SOL    HW233420   4.403   1.652   5.961  0.7409  1.8381 -0.6444
 8412SOL    HW333421   4.320   1.728   5.860  0.4662  0.5293 -1.4239
 8412SOL    MW433422   4.368   1.659   5.881 -0.0531  0.3109 -0.1930
 8413SOL     OW33423   3.333   1.412   1.954  0.3874  0.4588  0.0099
 8413SOL    HW233424   3.371   1.485   1.905  1.3545 -0.4987 -0.7123
 8413SOL    HW333425   3.254   1.389   1.906  0.4773  0.5653 -0.1884
 8413SOL    MW433426   3.328   1.418   1.941 -0.1623 -0.1417 -0.1934
 8414SOL     OW33427   0.192   5.524   1.370 -0.1831  0.2982  0.2228
 8414SOL    HW233428   0.205   5.585   1.443  1.3965  0.1502  0.0935
 8414SOL    HW333429   0.213   5.438   1.406 -0.0688  0.1366 -0.2220
 8414SOL    MW433430   0.196   5.521   1.384  1.0126  0.1432  0.4460
 8415SOL     OW33431   5.881   0.425   2.470 -0.5257  0.1621  0.6151
 8415SOL    HW233432   5.828   0.383   2.403 -0.5143 -1.2465  1.4583
 8415SOL    HW333433   5.924   0.498   2.425  0.1052 -1.2092 -1.0894
 8415SOL    MW433434   5.880   0.429   2.455 -0.1001  0.0653  0.6335
 8416SOL     OW33435   3.072   2.788   3.131  0.3683 -0.5672  0.4051
 8416SOL    HW233436   3.032   2.861   3.179  1.6577  1.5040 -1.4267
 8416SOL    HW333437   3.023   2.785   3.049  2.0706  0.1767 -0.7028
 8416SOL    MW433438   3.061   2.797   3.126 -0.3583  0.2636 -0.3888
 8417SOL     OW33439   4.250   5.397   6.367  0.1632  0.0344  0.2686
 8417SOL    HW233440   4.344   5.387   6.379 -0.1212 -1.5626  1.3895
 8417SOL    HW333441   4.213   5.391   6.455 -1.0498  0.0349 -0.2130
 8417SOL    MW433442   4.257   5.395   6.380 -0.1943  0.0747  0.6648
 8418SOL     OW33443   6.014   1.565   0.118  0.0813 -0.2462  0.1710
 8418SOL    HW233444   5.924   1.533   0.112  0.1937 -1.0526  2.1042
 8418SOL    HW333445   6.067   1.489   0.091  0.2115  0.2731 -1.1103
 8418SOL    MW433446   6.009   1.550   0.114 -0.0472 -0.4768 -0.1135
 8419SOL     OW33447   3.113   0.697   3.665 -0.0842  0.1414  0.0546
 8419SOL    HW233448   3.078   0.633   3.727  1.3350 -0.4980  0.2542
 8419SOL    HW333449   3.056   0.691   3.589 -1.2939  0.2536  0.9175
 8419SOL    MW433450   3.101   0.687   3.663 -0.2535  0.0432 -0.1217
 8420SOL     OW33451   2.759   5.901   0.966  0.1629 -0.1537  0.2035
 8420SOL    HW233452   2.786   5.812   0.946  0.2990  0.0800 -0.7193
 8420SOL    HW333453   2.780   5.951   0.887 -2.5411  0.1286 -0.4450
 8420SOL    MW433454   2.765   5.896   0.953  0.1556  0.3414 -0.5870
 8421SOL     OW33455   4.375   3.425   2.844  0.3456  0.3214 -0.0839
 8421SOL    HW233456   4.394   3.510   2.804  1.3573  0.2763  0.2905
 8421SOL    HW333457   4.333   3.375   2.773  0.8197  0.7299 -0.6672
 8421SOL    MW433458   4.372   3.429   2.829 -0.3037 -0.2542 -0.5240
 8422SOL     OW33459   5.712   1.188   1.809 -0.1365  0.1644  0.5407
 8422SOL    HW233460   5.665   1.241   1.873 -2.0620  0.3118 -0.9175
 8422SOL    HW333461   5.722   1.245   1.733 -1.1553 -1.1409 -0.6068
 8422SOL    MW433462   5.707   1.202   1.808 -0.1165  0.3834  0.1032
 8423SOL     OW33463   6.106   5.743   4.580 -1.2173  0.2477  0.5242
 8423SOL    HW233464   6.025   5.696   4.602  0.6325 -3.7568 -0.3477
 8423SOL    HW333465   6.164   5.725   4.654  0.5427 -1.6783 -1.1898
 8423SOL    MW433466   6.103   5.734   4.593 -0.6023  0.3039 -0.0306
 8424SOL     OW33467   5.457   3.580   2.504 -0.1726  0.1556  0.2939
 8424SOL    HW233468   5.522   3.543   2.445  1.5680  1.6978  1.1192
 8424SOL    HW333469   5.387   3.515   2.507  2.4683 -2.9318  1.3892
 8424SOL    MW433470   5.457   3.567   2.497  0.0001  0.0268 -0.0357
 8425SOL     OW33471   1.754   2.500   0.020  0.4718  0.0045 -0.0129
 8425SOL    HW233472   1.823   2.566   0.014  1.2143 -0.7083  0.4334
 8425SOL    HW333473   1.750   2.462  -0.067 -0.8137  1.4525 -0.6201
 8425SOL    MW433474   1.763   2.504   0.008 -0.5979  0.2699 -0.2531
 8426SOL     OW33475   5.436   0.228   1.687 -0.2699 -0.2008 -0.1202
 8426SOL    HW233476   5.456   0.135   1.681  1.4943  0.0151  1.6186
 8426SOL    HW333477   5.520   0.272   1.674 -0.5912  1.0175  1.5720
 8426SOL    MW433478   5.450   0.222   1.684 -0.4820 -0.0133  0.1361
 8427SOL     OW33479   3.084   1.723   3.765  0.1905 -0.4551 -0.6437
 8427SOL    HW233480   3.010   1.682   3.809  2.0199 -2.5150  0.7293
 8427SOL    HW333481   3.051   1.744   3.677 -2.5127  0.4970  0.5037
 8427SOL    MW433482   3.070   1.720   3.759 -0.2034  0.0037  0.0166
 8428SOL     OW33483   0.084   2.786   0.486  0.3752  0.1765  0.2979
 8428SOL    HW233484   0.143   2.839   0.432  0.8897 -0.1234  0.5533
 8428SOL    HW333485   0.128   2.781   0.571 -0.9532  1.6150  1.1322
 8428SOL    MW433486   0.098   2.793   0.490 -0.0152  0.0473 -0.4352
 8429SOL     OW33487   1.781   1.252   5.826  1.0013 -0.8001  0.3593
 8429SOL    HW233488   1.868   1.254   5.866  0.3834 -0.2689  1.7445
 8429SOL    HW333489   1.724   1.293   5.891 -0.3796 -1.5905 -0.3129
 8429SOL    MW433490   1.785   1.258   5.840 -0.2104  0.4724 -0.3270
 8430SOL     OW33491   0.720   3.389   1.909  0.7475 -0.1899  0.0725
 8430SOL    HW233492   0.799   3.432   1.879  0.4730  0.3903  0.1662
 8430SOL    HW333493   0.717   3.407   2.003  0.6376 -0.4276  0.1168
 8430SOL    MW433494   0.730   3.397   1.918  0.3252 -0.1913 -0.5037
 8431SOL     OW33495   5.684   6.043   2.199 -0.5251  0.6598 -0.1045
 8431SOL    HW233496   5.715   5.976   2.138 -1.1814  0.2723 -0.0252
 8431SOL    HW333497   5.749   6.113   2.194 -2.3312  2.3784 -4.0215
 8431SOL    MW433498   5.696   6.043   2.190  0.2207  0.2794 -0.5564
 8432SOL     OW33499   0.428   1.411   5.764  0.0363 -0.1543  0.3971
 8432SOL    HW233500   0.514   1.370   5.760 -0.1595 -0.4751 -1.0538
 8432SOL    HW333501   0.401   1.401   5.856  1.2153 -0.7123  0.6995
 8432SOL    MW433502   0.436   1.404   5.776 -0.4989 -0.1802  0.2137
 8433SOL     OW33503   5.651   0.779   2.511 -0.0255 -0.4115  0.1511
 8433SOL    HW233504   5.658   0.837   2.435 -0.2467 -0.1019  0.3596
 8433SOL    HW333505   5.590   0.711   2.484  0.6994 -0.8950 -0.3060
 8433SOL    MW433506   5.644   0.778   2.497  0.7711  0.4149  0.1053
 8434SOL     OW33507   1.830   1.524   0.036 -0.6486  0.1370  0.4963
 8434SOL    HW233508   1.858   1.472  -0.040 -1.2953  0.5658 -0.0441
 8434SOL    HW333509   1.891   1.499   0.106 -0.9597 -1.3635  0.2612
 8434SOL    MW433510   1.842   1.514   0.035 -0.2288  0.0399 -0.6300
 8435SOL     OW33511   2.058   4.655   1.395 -0.6882  0.2396 -0.0250
 8435SOL    HW233512   2.020   4.621   1.476 -0.3739  2.2021  1.0108
 8435SOL    HW333513   2.005   4.732   1.373 -1.6447 -1.0071 -2.5108
 8435SOL    MW433514   2.046   4.661   1.403  0.1038 -0.0406  0.1853
 8436SOL     OW33515   3.885   1.060   3.509  0.7410 -0.5958 -0.3180
 8436SOL    HW233516   3.898   1.154   3.518  0.2431 -0.6020  0.5398
 8436SOL    HW333517   3.926   1.023   3.587 -1.8998 -0.8221  1.0804
 8436SOL    MW433518   3.892   1.068   3.520 -0.4563  0.2487 -0.0869
 8437SOL     OW33519   1.722   1.646   3.857 -0.1471  0.0382 -0.0005
 8437SOL    HW233520   1.684   1.696   3.930 -0.1173  0.3216 -0.1807
 8437SOL    HW333521   1.663   1.571   3.847 -0.3091  0.1475  0.1300
 8437SOL    MW433522   1.709   1.643   3.865 -0.1847  0.2223 -0.8806
 8438SOL     OW33523   0.094   6.178   4.391  0.5755  0.3572 -0.4102
 8438SOL    HW233524  -0.001   6.186   4.389  0.4217 -1.0619  0.1408
 8438SOL    HW333525   0.120   6.218   4.474  0.0631 -2.3282  1.1580
 8438SOL    MW433526   0.085   6.184   4.402  0.2941  0.1906 -0.0738
 8439SOL     OW33527   2.404   5.906   2.319  0.1449 -0.4031 -0.1075
 8439SOL    HW233528   2.440   5.830   2.364 -0.5997 -1.3585 -1.0896
 8439SOL    HW333529   2.362   5.871   2.241 -0.5142  0.9780 -0.4107
 8439SOL    MW433530   2.403   5.892   2.315 -0.3891 -0.2897  0.5507
 8440SOL     OW33531   3.808   2.948   2.797 -0.4670 -0.2285  0.2089
 8440SOL    HW233532   3.864   3.013   2.840  1.1707 -1.5918  0.2218
 8440SOL    HW333533   3.844   2.940   2.708 -0.5291 -1.2173  0.2598
 8440SOL    MW433534   3.820   2.956   2.791  0.3131  0.3155  0.3963
 8441SOL     OW33535   2.806   4.325   3.158 -0.4445 -0.2738  0.0612
 8441SOL    HW233536   2.895   4.321   3.194 -1.4786 -1.7937  2.7397
 8441SOL    HW333537   2.801   4.253   3.096 -0.0869 -0.8246  0.6616
 8441SOL    MW433538   2.817   4.315   3.155  0.1811  0.7171  0.7644
 8442SOL     OW33539   0.175   1.393   2.533  0.5798 -0.1275 -0.0230
 8442SOL    HW233540   0.206   1.305   2.557 -0.0281 -0.6781 -1.1673
 8442SOL    HW333541   0.191   1.398   2.439  0.2977  0.8760 -0.0209
 8442SOL    MW433542   0.181   1.382   2.524 -0.0173 -0.4549  0.3138
 8443SOL     OW33543   5.922   2.868   4.021 -0.2610  0.4461  0.7234
 8443SOL    HW233544   5.909   2.864   3.927 -0.3424 -1.6539  0.7785
 8443SOL    HW333545   6.013   2.895   4.032 -0.1651  0.4065  0.0430
 8443SOL    MW433546   5.932   2.871   4.010 -0.0444 -0.4406  0.4724
 8444SOL     OW33547   3.159   3.213   3.671  0.0728  0.3501 -0.9357
 8444SOL    HW233548   3.103   3.265   3.730 -0.3463 -0.9096 -0.1857
 8444SOL    HW333549   3.241   3.262   3.666  0.4562  0.0827  1.4409
 8444SOL    MW433550   3.162   3.226   3.678  0.6505  0.1714 -0.2484
 8445SOL     OW33551   5.300   6.179   5.548 -0.5778 -0.0348  0.5279
 8445SOL    HW233552   5.305   6.163   5.454 -0.6608  1.3045  0.2834
 8445SOL    HW333553   5.244   6.108   5.581 -1.0163 -0.1876 -0.5054
 8445SOL    MW433554   5.293   6.167   5.540 -0.5805 -0.3272  0.6224
 8446SOL     OW33555   1.550   5.097   4.818  0.1703 -0.1814 -0.1613
 8446SOL    HW233556   1.606   5.147   4.759  0.1327 -0.0555 -0.0927
 8446SOL    HW333557   1.480   5.064   4.762  1.5512 -2.3443 -0.7312
 8446SOL    MW433558   1.548   5.100   4.803  0.3252 -0.1741  0.4472
 8447SOL     OW33559   3.806   2.604   2.285  0.6801 -0.9239 -0.1857
 8447SOL    HW233560   3.766   2.525   2.321  1.5407 -1.7228 -0.9368
 8447SOL    HW333561   3.867   2.572   2.219  0.5286  0.4013 -1.0083
 8447SOL    MW433562   3.809   2.590   2.281 -0.6104  0.3977 -0.1991
 8448SOL     OW33563   1.900   2.878   1.499 -0.3148 -0.3737  0.5408
 8448SOL    HW233564   1.846   2.872   1.578 -0.6081 -1.1458  0.2837
 8448SOL    HW333565   1.909   2.788   1.468 -0.9368 -0.0074 -0.7946
 8448SOL    MW433566   1.894   2.866   1.505 -0.1305  0.1816  0.0894
 8449SOL     OW33567   0.682   6.100   4.886  0.1416 -0.0090  0.1354
 8449SOL    HW233568   0.730   6.063   4.811  0.9682 -0.2513  0.7795
 8449SOL    HW333569   0.735   6.174   4.915  1.0698 -1.3328  1.9483
 8449SOL    MW433570   0.695   6.105   4.880  0.1478  0.3308  0.0290
 8450SOL     OW33571   0.307   4.997   3.784  0.2364 -0.5803 -0.0044
 8450SOL    HW233572   0.288   5.065   3.849  0.5784 -0.7799  0.3134
 8450SOL    HW333573   0.277   5.034   3.701  3.4855  1.4689 -0.4598
 8450SOL    MW433574   0.301   5.011   3.782 -0.3988 -0.3909  0.3203
 8451SOL     OW33575   4.918   4.811   1.203 -0.1361 -0.6403 -0.1230
 8451SOL    HW233576   4.999   4.862   1.208  1.1750 -2.6810  0.9153
 8451SOL    HW333577   4.903   4.781   1.293 -1.6449 -0.9307 -0.4378
 8451SOL    MW433578   4.927   4.814   1.216 -0.0540 -0.3887  0.0371
 8452SOL     OW33579   5.623   3.692   5.988  0.4086  0.2141 -0.4279
 8452SOL    HW233580   5.600   3.650   6.070  2.5179  1.0179  0.6328
 8452SOL    HW333581   5.552   3.755   5.973  1.5752  2.5597  2.6768
 8452SOL    MW433582   5.610   3.695   5.997 -0.0463 -0.1383 -0.0273
 8453SOL     OW33583   3.235   3.754   0.084 -0.0526 -0.8295 -0.2048
 8453SOL    HW233584   3.309   3.726   0.137  0.6715 -0.5981 -1.0762
 8453SOL    HW333585   3.206   3.836   0.124  0.5290 -0.6242 -0.1938
 8453SOL    MW433586   3.241   3.761   0.096  0.4700 -0.4138  0.3005
 8454SOL     OW33587   1.261   6.344   2.963  0.1256 -0.3522  0.3423
 8454SOL    HW233588   1.239   6.252   2.978  2.0010 -1.1960 -1.6222
 8454SOL    HW333589   1.210   6.369   2.886  0.1823  0.0332  0.4241
 8454SOL    MW433590   1.251   6.335   2.955  0.4295 -0.6437 -0.2800
 8455SOL     OW33591   4.463   5.524   0.727 -0.1668  0.0555 -0.2942
 8455SOL    HW233592   4.543   5.494   0.683 -1.3301 -0.5748 -2.1028
 8455SOL    HW333593   4.492   5.595   0.784  1.8049 -0.7198 -0.2385
 8455SOL    MW433594   4.477   5.529   0.729  0.3898  0.0517 -0.5042
 8456SOL     OW33595   3.978   4.614   2.115  0.3985 -1.1545  0.2619
 8456SOL    HW233596   4.031   4.624   2.194  1.1179  1.5907 -0.4587
 8456SOL    HW333597   3.914   4.685   2.120 -0.5147 -1.8440 -0.9354
 8456SOL    MW433598   3.977   4.625   2.126 -0.0563 -0.4138 -0.4004
 8457SOL     OW33599   2.560   0.922   4.748  0.0546 -0.8860 -0.2371
 8457SOL    HW233600   2.597   0.834   4.749 -1.3608 -1.5065  0.0591
 8457SOL    HW333601   2.519   0.932   4.833 -0.2362 -0.1269 -0.4568
 8457SOL    MW433602   2.560   0.912   4.759 -0.3070  0.1291 -0.2597
 8458SOL     OW33603   4.067   5.781   0.517 -0.5910  0.4268  0.4203
 8458SOL    HW233604   4.054   5.874   0.534 -0.3567  0.0117  3.3993
 8458SOL    HW333605   4.157   5.763   0.546 -0.4497 -0.6555 -0.5839
 8458SOL    MW433606   4.078   5.791   0.523  0.4310 -0.4084 -0.4788
 8459SOL     OW33607   1.792   4.141   0.217 -0.8714 -0.5125  0.2487
 8459SOL    HW233608   1.707   4.116   0.182 -0.4049 -2.1623  0.1827
 8459SOL    HW333609   1.773   4.207   0.284 -2.2559 -1.3399  0.6982
 8459SOL    MW433610   1.779   4.146   0.222 -0.2938 -0.3804 -0.7222
 8460SOL     OW33611   1.223   1.083   1.461  0.1848 -0.0503 -0.0266
 8460SOL    HW233612   1.161   1.156   1.451 -1.0992 -0.9177  1.1572
 8460SOL    HW333613   1.254   1.091   1.551 -0.1665 -1.0887  0.2026
 8460SOL    MW433614   1.219   1.094   1.472  0.4000 -0.3054  0.5239
 8461SOL     OW33615   4.808   5.224   2.013 -0.3569  0.7081  0.3783
 8461SOL    HW233616   4.857   5.211   1.932 -1.2950  2.3912 -0.5299
 8461SOL    HW333617   4.868   5.198   2.082  0.5832 -0.4826 -0.8405
 8461SOL    MW433618   4.822   5.219   2.011  0.1723  0.4281 -0.0921
 8462SOL     OW33619   5.970   5.544   1.704 -0.0653 -0.3691  0.3622
 8462SOL    HW233620   6.046   5.492   1.730  0.0190 -1.4333 -1.8323
 8462SOL    HW333621   5.914   5.545   1.782  2.0953  0.3798  2.0131
 8462SOL    MW433622   5.973   5.537   1.718 -0.4172 -0.3609 -0.0432
 8463SOL     OW33623   4.196   2.246   0.715 -0.8293 -0.1483  0.2284
 8463SOL    HW233624   4.138   2.310   0.675 -1.8121 -1.6187 -0.7932
 8463SOL    HW333625   4.238   2.202   0.641 -0.8572 -1.2850  0.8701
 8463SOL    MW433626   4.194   2.249   0.700  0.0603 -0.5538  0.5039
 8464SOL     OW33627   5.621   0.745   4.285 -0.2305  0.4496  0.6462
 8464SOL    HW233628   5.567   0.669   4.309  1.6505 -0.6265  1.6966
 8464SOL    HW333629   5.687   0.710   4.226  0.6134  1.2649  1.0772
 8464SOL    MW433630   5.623   0.730   4.281 -0.0266  0.0889 -0.4102
 8465SOL     OW33631   0.075   2.697   1.108 -0.4681 -0.4159 -0.0960
 8465SOL    HW233632   0.017   2.763   1.072  0.1331  0.3798  0.3649
 8465SOL    HW333633   0.086   2.632   1.038  1.5839  1.6428 -1.8428
 8465SOL    MW433634   0.069   2.697   1.094 -0.0141  0.0372  0.3745
 8466SOL     OW33635   0.874   3.311   1.465 -0.4964 -0.1723  0.4082
 8466SOL    HW233636   0.783   3.323   1.490 -0.5392  0.2584  0.0638
 8466SOL    HW333637   0.894   3.220   1.487 -1.4663 -0.7388 -0.9503
 8466SOL    MW433638   0.865   3.301   1.471  0.4077 -1.0042 -0.0216
 8467SOL     OW33639   5.451   2.148   4.300 -0.2302  0.4228  0.2343
 8467SOL    HW233640   5.460   2.222   4.241  0.1660  0.1534 -0.0440
 8467SOL    HW333641   5.446   2.187   4.387 -2.6447  0.9501 -0.0672
 8467SOL    MW433642   5.451   2.163   4.304  0.2822  0.5688 -0.6113
 8468SOL     OW33643   1.562   0.241   5.694  0.2483 -0.5542 -0.4068
 8468SOL    HW233644   1.651   0.207   5.706  1.1679  1.1744 -1.8207
 8468SOL    HW333645   1.545   0.293   5.772  1.2521  0.6132 -0.9363
 8468SOL    MW433646   1.572   0.243   5.706 -0.3989  0.5137 -0.4204
 8469SOL     OW33647   5.519   3.117   0.045  0.1040  0.1752 -0.0513
 8469SOL    HW233648   5.557   3.032   0.066  0.2111  0.1099 -0.5052
 8469SOL    HW333649   5.564   3.178   0.104  0.6711  0.0490 -0.3468
 8469SOL    MW433650   5.530   3.114   0.056 -0.0034  0.2284 -0.3801
 8470SOL     OW33651   5.987   4.004   4.498 -0.4677  0.2783 -0.3778
 8470SOL    HW233652   6.060   3.959   4.540 -0.3975  1.1292  0.4596
 8470SOL    HW333653   5.941   4.048   4.570 -0.0018  2.2675 -1.2134
 8470SOL    MW433654   5.991   4.004   4.513 -0.4396  0.1676  0.2803
 8471SOL     OW33655   6.113   1.903   2.460 -0.2470  0.6015 -0.2528
 8471SOL    HW233656   6.196   1.856   2.461 -0.7505 -0.3177  0.9012
 8471SOL    HW333657   6.079   1.890   2.372  0.2865  0.0087 -0.3792
 8471SOL    MW433658   6.120   1.895   2.449 -0.5408 -0.2275 -0.1659
 8472SOL     OW33659   0.773   3.308   5.744 -0.1713  0.1418 -0.1561
 8472SOL    HW233660   0.823   3.290   5.824 -0.7682  0.3912  0.2816
 8472SOL    HW333661   0.813   3.386   5.707  0.5268 -0.3521 -0.4554
 8472SOL    MW433662   0.785   3.316   5.750  0.6563 -0.2991 -0.2306
 8473SOL     OW33663   0.355   5.415   2.753  0.1995 -0.4053  0.1273
 8473SOL    HW233664   0.382   5.415   2.661 -0.9046  2.3395 -0.3039
 8473SOL    HW333665   0.269   5.372   2.752 -0.2173  0.4069 -0.3157
 8473SOL    MW433666   0.347   5.410   2.741  0.0075  0.0941  0.0870
 8474SOL     OW33667   1.364   2.919   0.360  0.2942  0.1563 -0.2029
 8474SOL    HW233668   1.407   2.843   0.400 -0.6183  0.5556  1.6754
 8474SOL    HW333669   1.273   2.891   0.349  0.5477  0.0163 -2.2193
 8474SOL    MW433670   1.357   2.905   0.364  0.0312  0.2022 -0.6404
 8475SOL     OW33671   4.279   0.176   1.189 -0.4778  0.1529  0.7662
 8475SOL    HW233672   4.354   0.225   1.224 -0.4161  0.3760  0.3285
 8475SOL    HW333673   4.319   0.108   1.136 -0.5654 -0.3481  1.3361
 8475SOL    MW433674   4.294   0.174   1.187  0.4608 -0.0813  0.7088
 8476SOL     OW33675   5.808   5.843   1.973  0.3998  0.4036  0.3224
 8476SOL    HW233676   5.879   5.810   1.919  0.0972 -0.4943  0.4680
 8476SOL    HW333677   5.843   5.842   2.063 -0.7612 -3.0349  0.8772
 8476SOL    MW433678   5.822   5.839   1.978 -0.0769  0.0855 -0.2174
 8477SOL     OW33679   0.676   2.045   0.501  0.0629  0.0671  0.6480
 8477SOL    HW233680   0.740   2.086   0.558  1.1149 -0.8805  0.1840
 8477SOL    HW333681   0.680   2.096   0.420 -0.5582  0.6640  0.9821
 8477SOL    MW433682   0.685   2.057   0.498 -0.2938  0.1130 -0.4360
 8478SOL     OW33683   0.530   3.814   0.597 -0.3175 -0.0970  0.5124
 8478SOL    HW233684   0.466   3.839   0.530 -0.2450 -0.6735  0.2161
 8478SOL    HW333685   0.497   3.731   0.632  0.4201 -0.5664  0.1352
 8478SOL    MW433686   0.517   3.806   0.593  0.3195  0.2231  0.0517
 8479SOL     OW33687   3.220   3.476   4.243 -0.0388  0.1240 -0.4031
 8479SOL    HW233688   3.207   3.450   4.152  1.1684  0.7223 -0.7686
 8479SOL    HW333689   3.228   3.393   4.290 -1.1202 -0.1981 -0.7547
 8479SOL    MW433690   3.220   3.462   4.237 -0.1582 -0.0151  0.1199
 8480SOL     OW33691   4.544   5.125   1.227 -0.3187 -0.1117  0.3315
 8480SOL    HW233692   4.486   5.172   1.166  1.1914  2.7426  0.9269
 8480SOL    HW333693   4.484   5.072   1.280 -2.0097  0.0667 -1.2752
 8480SOL    MW433694   4.528   5.124   1.226 -0.4149  0.0120  0.1925
 8481SOL     OW33695   2.083   4.146   3.758  0.6163  0.0020  0.5829
 8481SOL    HW233696   2.019   4.156   3.828 -0.2079 -0.8791 -0.0010
 8481SOL    HW333697   2.158   4.105   3.799 -0.5948 -2.3357  0.6367
 8481SOL    MW433698   2.084   4.142   3.772 -0.3447 -0.0665 -0.0218
 8482SOL     OW33699   2.661   6.209   5.223 -0.3669 -0.0849 -0.0121
 8482SOL    HW233700   2.579   6.216   5.175 -0.2994  0.3739 -0.0595
 8482SOL    HW333701   2.665   6.288   5.276 -0.5339 -0.6732  0.9038
 8482SOL    MW433702   2.651   6.220   5.224 -0.6337  0.1784 -0.2479
 8483SOL     OW33703   1.071   2.305   0.512 -0.1521  0.4002 -0.3821
 8483SOL    HW233704   1.091   2.381   0.458  0.1756 -0.9803 -2.3105
 8483SOL    HW333705   1.089   2.230   0.456 -0.1469 -1.1368  1.5516
 8483SOL    MW433706   1.076   2.305   0.498  0.3191  0.3801  0.0070
 8484SOL     OW33707   2.660   3.027   3.140  0.7133 -0.2100 -0.0574
 8484SOL    HW233708   2.598   2.991   3.203  0.6522  0.3080  0.1836
 8484SOL    HW333709   2.633   2.990   3.056 -0.1111  0.2512 -0.0021
 8484SOL    MW433710   2.648   3.017   3.137  0.0357 -0.5180 -0.3270
 8485SOL     OW33711   2.974   5.731   3.758  0.3474  0.1680 -0.0766
 8485SOL    HW233712   2.996   5.825   3.756 -0.2795  0.3224  0.1624
 8485SOL    HW333713   2.992   5.700   3.670  1.3525  0.3309  0.0573
 8485SOL    MW433714   2.980   5.739   3.746 -0.5672  0.7380 -0.0704
 8486SOL     OW33715   4.136   5.639   0.182  0.0821  0.4214 -0.2313
 8486SOL    HW233716   4.050   5.597   0.195  0.5881 -0.0028  2.2755
 8486SOL    HW333717   4.199   5.571   0.206  1.1094  1.0493 -1.0730
 8486SOL    MW433718   4.133   5.624   0.187  0.1494 -0.2755 -0.8938
 8487SOL     OW33719   0.549   2.327   0.728  1.0286  0.8501  0.0766
 8487SOL    HW233720   0.482   2.378   0.772 -0.3272 -0.9772  0.2443
 8487SOL    HW333721   0.584   2.270   0.796  0.5881 -0.3327 -0.6527
 8487SOL    MW433722   0.545   2.326   0.743 -0.1711  0.1680  0.4691
 8488SOL     OW33723   5.156   0.021   5.567  0.3666  0.5466  1.0729
 8488SOL    HW233724   5.209   0.089   5.524  1.5923 -0.1950  1.3714
 8488SOL    HW333725   5.210  -0.057   5.564 -1.5913 -0.8528 -0.5325
 8488SOL    MW433726   5.170   0.020   5.561 -0.2036 -0.1513 -0.3967
 8489SOL     OW33727   2.341   3.193   2.589  0.8445 -0.2032 -0.1134
 8489SOL    HW233728   2.301   3.274   2.620 -0.3250 -1.0943  0.8313
 8489SOL    HW333729   2.308   3.181   2.500  0.2793 -0.0983  0.0792
 8489SOL    MW433730   2.332   3.202   2.581  0.0794  0.1553 -0.5248
 8490SOL     OW33731   5.739   1.735   4.932 -0.4037 -0.9362 -0.4340
 8490SOL    HW233732   5.656   1.779   4.949  1.0891  1.1395  2.2897
 8490SOL    HW333733   5.796   1.804   4.896  0.3638 -2.1257 -1.5840
 8490SOL    MW433734   5.736   1.750   4.929  0.0145 -0.7508 -0.3672
 8491SOL     OW33735   1.129   0.885   0.156  0.0151  0.2846  0.2972
 8491SOL    HW233736   1.146   0.792   0.138  1.6833  0.3241  1.4660
 8491SOL    HW333737   1.034   0.892   0.154 -0.1099 -0.9220 -2.2612
 8491SOL    MW433738   1.119   0.873   0.154  0.2959  0.2932  0.3466
 8492SOL     OW33739   3.382   4.239   4.199  0.1555  0.0520 -0.0414
 8492SOL    HW233740   3.438   4.270   4.271  1.0739 -0.2493 -0.6103
 8492SOL    HW333741   3.373   4.145   4.215 -0.8212  0.2119  0.4574
 8492SOL    MW433742   3.388   4.231   4.211  0.0109  0.3324  0.0986
 8493SOL     OW33743   5.095   2.430   0.352  0.4499 -0.0606  0.1174
 8493SOL    HW233744   5.188   2.439   0.331  0.6997 -1.9598  0.2378
 8493SOL    HW333745   5.069   2.347   0.312 -1.0636  0.1590  0.5667
 8493SOL    MW433746   5.104   2.420   0.344 -0.5772  0.3151 -0.0927
 8494SOL     OW33747   0.135   5.282   4.653  0.2523  0.0860  0.2314
 8494SOL    HW233748   0.173   5.307   4.737 -1.9997  0.4927  1.1922
 8494SOL    HW333749   0.053   5.239   4.675 -0.4619  0.3080 -1.7739
 8494SOL    MW433750   0.129   5.280   4.667  0.1598 -1.0039  0.4595
 8495SOL     OW33751   5.330   5.869   0.438  0.5501  0.0842 -0.1153
 8495SOL    HW233752   5.404   5.929   0.425  0.0265  0.4463 -1.5801
 8495SOL    HW333753   5.371   5.783   0.450  1.2491  0.4749  0.4147
 8495SOL    MW433754   5.345   5.866   0.438 -0.1249 -0.0210  0.5991
 8496SOL     OW33755   3.484   6.381   5.501  0.0577  0.0374  0.1657
 8496SOL    HW233756   3.462   6.391   5.409 -1.8210 -0.9031  0.4679
 8496SOL    HW333757   3.480   6.287   5.517 -0.7653  0.2646  1.4396
 8496SOL    MW433758   3.480   6.370   5.491 -0.0535  0.0673 -0.1252
 8497SOL     OW33759   1.230   0.370   6.095  0.5086  0.2088  0.7210
 8497SOL    HW233760   1.309   0.389   6.044 -0.4222 -1.1526 -1.3666
 8497SOL    HW333761   1.188   0.456   6.105  0.1935  0.4461 -1.8423
 8497SOL    MW433762   1.235   0.384   6.089 -0.1887  0.7372 -0.4822
 8498SOL     OW33763   5.612   1.787   2.069  0.1835  0.5336  0.3533
 8498SOL    HW233764   5.582   1.716   2.124 -0.5929  0.5330 -0.0646
 8498SOL    HW333765   5.661   1.744   1.999 -0.2387  0.4134  0.1305
 8498SOL    MW433766   5.615   1.772   2.067  0.4614  0.0575 -0.1046
 8499SOL     OW33767   2.942   4.465   2.710  0.0198  0.0449 -0.5157
 8499SOL    HW233768   2.941   4.372   2.733 -1.1157  0.4550  1.2698
 8499SOL    HW333769   3.013   4.501   2.762 -1.4992  0.6837  1.2137
 8499SOL    MW433770   2.951   4.457   2.719 -0.5643 -0.2681  0.6486
 8500SOL     OW33771   2.388   1.736   0.540  0.4809  0.0626 -0.0827
 8500SOL    HW233772   2.373   1.671   0.472  1.3341 -0.8223  0.5386
 8500SOL    HW333773   2.412   1.684   0.617  4.3448  1.1231 -0.3566
 8500SOL    MW433774   2.390   1.720   0.541 -0.1147  0.5718  0.3498
 8501SOL     OW33775   4.966   5.138   2.218 -0.0609 -0.1019  0.2466
 8501SOL    HW233776   4.885   5.089   2.235 -0.0468  0.1268  0.9964
 8501SOL    HW333777   4.981   5.187   2.298 -1.4422  3.0757 -1.2467
 8501SOL    MW433778   4.957   5.138   2.231 -0.4154  0.0799 -0.1337
 8502SOL     OW33779   2.719   5.647   1.237 -0.1000 -0.0829  0.4032
 8502SOL    HW233780   2.801   5.597   1.241 -1.0589 -1.7379  0.5443
 8502SOL    HW333781   2.675   5.628   1.320 -2.4164 -2.5728 -1.2263
 8502SOL    MW433782   2.724   5.638   1.249  0.0267 -0.1779 -0.1757
 8503SOL     OW33783   0.424   1.636   2.286  0.1333 -0.3376  0.0906
 8503SOL    HW233784   0.367   1.707   2.255 -0.1881 -0.3208  0.6998
 8503SOL    HW333785   0.381   1.556   2.256 -0.0819 -0.3159  0.3426
 8503SOL    MW433786   0.411   1.635   2.278 -0.1259 -0.8586  0.4609
 8504SOL     OW33787   5.098   3.944   1.304 -0.8639 -0.1043  0.1364
 8504SOL    HW233788   5.149   3.983   1.233 -0.8656 -0.6119 -0.1461
 8504SOL    HW333789   5.163   3.921   1.370 -0.8141 -0.0358  0.1115
 8504SOL    MW433790   5.113   3.946   1.303 -0.2746 -0.1889 -0.1601
 8505SOL     OW33791   3.491   5.597   2.192 -0.0708  0.1330 -0.6488
 8505SOL    HW233792   3.494   5.542   2.270 -0.4011 -0.4131 -1.0166
 8505SOL    HW333793   3.474   5.537   2.120 -3.0694  0.9590 -0.7762
 8505SOL    MW433794   3.489   5.582   2.193 -0.5304 -0.2947  0.4620
 8506SOL     OW33795   0.768   0.186   6.314 -0.0699  0.1629 -0.1591
 8506SOL    HW233796   0.697   0.222   6.261  0.6483  0.9950 -0.5931
 8506SOL    HW333797   0.725   0.146   6.390 -0.9555  1.4220  0.0314
 8506SOL    MW433798   0.753   0.185   6.317 -0.4503 -0.2337 -0.0282
 8507SOL     OW33799   0.316   1.724   0.811  0.4306  0.0418  0.1598
 8507SOL    HW233800   0.323   1.765   0.725  0.2435  0.0722  0.1579
 8507SOL    HW333801   0.266   1.643   0.795  1.2577 -0.4591  0.0751
 8507SOL    MW433802   0.310   1.719   0.797  0.3484 -0.4068 -0.4899
 8508SOL     OW33803   5.523   0.060   4.452  0.4912  0.1685 -0.1428
 8508SOL    HW233804   5.554   0.054   4.361  2.6070 -1.8520  0.6104
 8508SOL    HW333805   5.524  -0.030   4.484 -2.4998  0.5007  1.2596
 8508SOL    MW433806   5.527   0.048   4.444  0.3677  0.4415  0.0464
 8509SOL     OW33807   1.790   1.429   3.007  0.3033  0.3166 -0.2297
 8509SOL    HW233808   1.745   1.352   2.972 -2.1460  1.3313  0.4370
 8509SOL    HW333809   1.849   1.457   2.937 -0.1895 -1.0212 -1.2217
 8509SOL    MW433810   1.792   1.423   2.993 -0.2237  0.5009 -0.4581
 8510SOL     OW33811   3.021   1.208   2.725 -0.1534  0.0392  0.3490
 8510SOL    HW233812   3.015   1.223   2.631  0.6467  0.8623  0.4142
 8510SOL    HW333813   3.113   1.228   2.746  0.0857 -1.6325  1.0446
 8510SOL    MW433814   3.033   1.212   2.715 -0.2284  0.5663 -0.1126
 8511SOL     OW33815   3.638   3.786   2.247  0.5760 -0.1207  0.5687
 8511SOL    HW233816   3.636   3.822   2.158 -0.2255 -2.0098 -0.2417
 8511SOL    HW333817   3.715   3.730   2.249  3.0407  3.0355  2.4942
 8511SOL    MW433818   3.648   3.783   2.235  0.3373 -0.6240 -0.6522
 8512SOL     OW33819   5.495   4.873   3.919 -0.2883 -0.3102  0.7579
 8512SOL    HW233820   5.450   4.913   3.993 -1.6322 -1.5285  0.6385
 8512SOL    HW333821   5.460   4.784   3.915  0.7319 -0.6808 -0.5419
 8512SOL    MW433822   5.485   4.866   3.928  0.3971  0.1389 -0.6416
 8513SOL     OW33823   6.146   6.331   2.008 -0.0283 -0.4094  0.8302
 8513SOL    HW233824   6.157   6.241   1.977 -1.2592  0.0529 -1.0485
 8513SOL    HW333825   6.222   6.378   1.973 -1.6162  0.2050 -2.0777
 8513SOL    MW433826   6.158   6.325   2.000 -0.6029 -0.6720  0.5460
 8514SOL     OW33827   3.572   5.921   2.006  0.0495 -0.0835 -0.4530
 8514SOL    HW233828   3.502   5.880   2.057  1.1397 -1.1879  0.2344
 8514SOL    HW333829   3.587   5.860   1.934  0.9907 -0.4044 -0.0050
 8514SOL    MW433830   3.565   5.907   2.003 -0.0815 -0.0257 -0.0675
 8515SOL     OW33831   4.334   0.957   5.579 -0.3122 -0.0677  0.5092
 8515SOL    HW233832   4.405   0.922   5.633  0.0735 -0.9122 -0.4877
 8515SOL    HW333833   4.378   0.989   5.500 -1.0694 -1.3212 -0.4704
 8515SOL    MW433834   4.349   0.956   5.576 -0.2127 -0.0900 -0.5313
 8516SOL     OW33835   0.679   4.718   4.017 -0.1129 -0.0905 -0.4512
 8516SOL    HW233836   0.597   4.747   4.056 -1.3086  0.8911 -3.3614
 8516SOL    HW333837   0.747   4.754   4.074 -1.6430 -0.3577  1.6730
 8516SOL    MW433838   0.677   4.726   4.029 -0.4827  0.7949 -0.6977
 8517SOL     OW33839   5.766   1.766   2.356  0.0095 -0.0088  0.2358
 8517SOL    HW233840   5.752   1.673   2.336  0.4696 -0.3412  1.3529
 8517SOL    HW333841   5.684   1.809   2.330 -0.0548 -0.6632 -0.6650
 8517SOL    MW433842   5.753   1.759   2.350  0.1537 -0.1822  0.0488
 8518SOL     OW33843   5.746   3.879   4.837  0.0944  0.0243 -0.0730
 8518SOL    HW233844   5.664   3.895   4.884 -0.5238 -1.6005 -0.5408
 8518SOL    HW333845   5.771   3.790   4.861  1.5423  0.3606 -0.2415
 8518SOL    MW433846   5.738   3.869   4.846  0.4617  0.2845 -0.0483
 8519SOL     OW33847   1.680   3.201   2.586 -0.6179  0.4923 -0.2492
 8519SOL    HW233848   1.664   3.125   2.530  2.1474  0.7074 -1.5272
 8519SOL    HW333849   1.664   3.277   2.530  0.2236  0.7490 -0.1634
 8519SOL    MW433850   1.676   3.201   2.571 -0.4453  0.6206  0.3036
 8520SOL     OW33851   5.782   6.095   1.809 -0.1180  0.0118 -0.6702
 8520SOL    HW233852   5.799   6.011   1.853  1.0519  1.1917  1.2858
 8520SOL    HW333853   5.808   6.080   1.718 -0.5959 -1.9225 -0.5363
 8520SOL    MW433854   5.787   6.082   1.803 -0.3658  0.0784 -0.2352
 8521SOL     OW33855   5.932   3.840   5.223 -0.1860 -0.2595 -0.1654
 8521SOL    HW233856   5.869   3.892   5.273 -0.1001 -0.6393  0.3429
 8521SOL    HW333857   5.881   3.804   5.151 -1.0981 -2.2907  1.3937
 8521SOL    MW433858   5.917   3.842   5.220  0.0365 -0.4261  0.1117
 8522SOL     OW33859   4.415   2.456   0.141  0.5683 -0.2004  0.1492
 8522SOL    HW233860   4.490   2.415   0.185  1.5608  0.1097 -1.1770
 8522SOL    HW333861   4.377   2.386   0.088  1.4337  0.2064 -1.0590
 8522SOL    MW433862   4.420   2.441   0.139  0.3729  0.6390  0.2308
 8523SOL     OW33863   3.569   2.914   4.019 -0.1660  0.5122 -0.1501
 8523SOL    HW233864   3.544   2.981   4.083  0.0370  0.2924  0.1584
 8523SOL    HW333865   3.485   2.885   3.982 -0.3634 -0.0643  0.7262
 8523SOL    MW433866   3.555   2.919   4.023  0.0906  0.5386  0.3580
 8524SOL     OW33867   0.408   4.867   1.584  0.0092 -0.0984 -0.1370
 8524SOL    HW233868   0.324   4.876   1.628 -0.0412 -3.8461  0.8891
 8524SOL    HW333869   0.473   4.879   1.654  0.1061 -1.6574  0.0627
 8524SOL    MW433870   0.405   4.870   1.599 -0.8439  0.0532 -0.1647
 8525SOL     OW33871   3.778   2.768   3.688  0.4445 -0.2417 -0.3811
 8525SOL    HW233872   3.770   2.827   3.763 -0.1589  1.7162 -1.8879
 8525SOL    HW333873   3.700   2.712   3.693 -0.4813  0.9976 -0.4259
 8525SOL    MW433874   3.766   2.768   3.698 -0.1711 -0.3646  0.6301
 8526SOL     OW33875   4.321   3.732   0.661  0.3926  0.1385  0.3070
 8526SOL    HW233876   4.273   3.739   0.743  0.4496 -4.3987  0.9623
 8526SOL    HW333877   4.408   3.766   0.681  0.3028 -0.5980  2.0640
 8526SOL    MW433878   4.326   3.737   0.674  0.1010 -0.1390  0.0523
 8527SOL     OW33879   6.282   4.274   5.731 -0.4225 -0.2591  0.3920
 8527SOL    HW233880   6.286   4.336   5.804 -1.8824 -1.4809  1.5807
 8527SOL    HW333881   6.266   4.189   5.772 -1.3065 -0.9831 -1.3324
 8527SOL    MW433882   6.280   4.271   5.746 -0.1927  0.0821 -0.0097
 8528SOL     OW33883   0.951   5.010   5.475 -0.2392 -0.3371  0.1469
 8528SOL    HW233884   0.962   4.990   5.382  2.7294  0.4305  0.2186
 8528SOL    HW333885   1.013   4.951   5.519 -0.6629  0.1997  1.5025
 8528SOL    MW433886   0.961   4.999   5.468  0.2957 -0.5200  0.0097
 8529SOL     OW33887   2.546   6.259   2.938  0.0013 -0.1311  0.3935
 8529SOL    HW233888   2.574   6.339   2.893  1.9295 -0.9249  0.1106
 8529SOL    HW333889   2.460   6.240   2.901 -0.2626  1.5237  0.0878
 8529SOL    MW433890   2.538   6.267   2.927  0.5426 -0.1166  0.2124
 8530SOL     OW33891   4.298   3.845   3.909 -0.0777  0.0979 -0.0138
 8530SOL    HW233892   4.277   3.824   3.818  0.1356 -2.1431  0.4124
 8530SOL    HW333893   4.392   3.860   3.910 -0.2386  1.1846 -0.3322
 8530SOL    MW433894   4.307   3.844   3.897  0.2609 -0.4655  0.1841
 8531SOL     OW33895   4.126   5.251   2.032  0.3867 -0.2335  0.3755
 8531SOL    HW233896   4.058   5.186   2.011  0.1047 -0.7614  2.6268
 8531SOL    HW333897   4.095   5.332   1.991 -2.8469  0.1061  3.0042
 8531SOL    MW433898   4.113   5.253   2.024  0.1235 -0.2292 -0.0502
 8532SOL     OW33899   1.200   3.885   3.099 -0.0122  0.0415 -0.2729
 8532SOL    HW233900   1.181   3.827   3.172  3.2482 -2.9712 -1.5216
 8532SOL    HW333901   1.184   3.831   3.021  0.0217  1.9663 -1.7048
 8532SOL    MW433902   1.195   3.870   3.098  0.0273  0.0988  0.5368
 8533SOL     OW33903   0.319   3.474   5.674 -0.1146  0.0342 -0.1765
 8533SOL    HW233904   0.239   3.449   5.722 -2.2917  2.5334 -2.2026
 8533SOL    HW333905   0.321   3.415   5.599 -0.1403  0.1151 -0.2391
 8533SOL    MW433906   0.309   3.463   5.671 -0.2865 -0.5643  0.6147
 8534SOL     OW33907   2.544   1.209   0.202 -0.4913 -0.2817  0.2896
 8534SOL    HW233908   2.547   1.125   0.248  1.1937 -0.4421 -0.0580
 8534SOL    HW333909   2.619   1.258   0.236 -1.0106  0.7983 -0.0645
 8534SOL    MW433910   2.554   1.205   0.212 -0.1147 -0.3755  0.3752
 8535SOL     OW33911   5.162   2.796   6.382  0.2209  0.0523  0.3359
 8535SOL    HW233912   5.121   2.749   6.454  0.8841 -0.6966  0.2365
 8535SOL    HW333913   5.131   2.886   6.391  0.0738 -0.0951  1.3859
 8535SOL    MW433914   5.152   2.802   6.392 -0.5439  0.3082  0.4670
 8536SOL     OW33915   5.611   5.761   1.466 -0.2095 -0.4845 -0.5671
 8536SOL    HW233916   5.669   5.826   1.427  0.3499 -0.5284  0.1545
 8536SOL    HW333917   5.669   5.689   1.490 -0.6747 -0.8308 -0.4709
 8536SOL    MW433918   5.626   5.760   1.464  0.3664 -0.3001 -0.8540
 8537SOL     OW33919   6.295   2.673   4.970 -0.0518  0.2027  0.7271
 8537SOL    HW233920   6.365   2.646   4.911 -0.5016  0.2095  0.1758
 8537SOL    HW333921   6.265   2.757   4.935 -0.7133 -0.0743  0.6205
 8537SOL    MW433922   6.300   2.681   4.958  0.1114 -0.0704 -0.6067
 8538SOL     OW33923   5.194   5.351   1.538 -0.0991  0.2551  0.2092
 8538SOL    HW233924   5.154   5.416   1.594  2.1442  0.7788  1.3347
 8538SOL    HW333925   5.272   5.394   1.502  0.3373 -1.1460 -0.6436
 8538SOL    MW433926   5.199   5.365   1.541  0.0363 -0.2531 -0.1091
 8539SOL     OW33927   2.387   4.790   1.142  0.4100  0.3059 -0.2898
 8539SOL    HW233928   2.421   4.777   1.230  0.1179  1.0416 -0.0534
 8539SOL    HW333929   2.462   4.779   1.084 -0.0830 -4.3192 -0.3778
 8539SOL    MW433930   2.401   4.787   1.146  0.4673 -0.0761 -0.0310
 8540SOL     OW33931   0.009   6.383   4.035 -0.0369 -0.4361  0.0784
 8540SOL    HW233932   0.065   6.308   4.053 -0.4403 -0.7461  0.0642
 8540SOL    HW333933   0.004   6.430   4.119  0.4709 -0.2468  0.0053
 8540SOL    MW433934   0.016   6.379   4.048 -0.0477 -0.1449 -0.5047
 8541SOL     OW33935   0.725   2.437   5.618  0.5894  0.0497 -0.3883
 8541SOL    HW233936   0.763   2.367   5.564  1.4733  0.0730  0.1874
 8541SOL    HW333937   0.759   2.518   5.580  0.6308  0.1029 -0.2367
 8541SOL    MW433938   0.734   2.438   5.606 -0.3676  0.1322 -0.0152
 8542SOL     OW33939   1.114   0.296   0.983 -0.1455 -0.3326  0.0907
 8542SOL    HW233940   1.175   0.229   1.014  1.3439  1.1019  0.3499
 8542SOL    HW333941   1.097   0.272   0.892  1.6005 -0.2408 -0.3003
 8542SOL    MW433942   1.120   0.284   0.975 -0.2606 -0.3335 -0.0493
 8543SOL     OW33943   1.134   5.513   5.461  0.9008 -0.1202  0.4250
 8543SOL    HW233944   1.105   5.422   5.454 -2.2353  0.7585  0.2740
 8543SOL    HW333945   1.129   5.548   5.372 -1.3766  1.0214  0.9098
 8543SOL    MW433946   1.130   5.506   5.449 -0.1198 -0.1598  0.1816
 8544SOL     OW33947   6.274   5.138   5.050 -0.0786  0.1000 -0.3419
 8544SOL    HW233948   6.212   5.200   5.087 -0.2816  0.4584 -1.2553
 8544SOL    HW333949   6.360   5.172   5.075 -0.1823  0.8467 -0.9814
 8544SOL    MW433950   6.277   5.151   5.058  0.0608  0.4504 -0.0214
 8545SOL     OW33951   2.597   5.666   2.374  0.1459  0.9639  0.1219
 8545SOL    HW233952   2.583   5.589   2.318 -1.1116  1.2981 -0.0456
 8545SOL    HW333953   2.557   5.641   2.458 -0.7549  1.6218 -0.0991
 8545SOL    MW433954   2.590   5.652   2.378  0.0137  0.7257  0.1131
 8546SOL     OW33955   2.810   5.305   1.750 -0.6043  0.0293  0.3640
 8546SOL    HW233956   2.798   5.400   1.744  2.6483  0.5807  0.6714
 8546SOL    HW333957   2.875   5.294   1.820 -0.8082 -2.4444  0.2421
 8546SOL    MW433958   2.817   5.316   1.759 -0.1671  0.3784 -0.0182
 8547SOL     OW33959   2.709   5.916   1.741  0.4671  0.3081 -0.2964
 8547SOL    HW233960   2.718   5.944   1.832  0.6711  0.9892 -0.5173
 8547SOL    HW333961   2.758   5.982   1.691  0.7373 -0.3119 -0.8615
 8547SOL    MW433962   2.717   5.929   1.746 -0.3960  0.2254  0.4375
 8548SOL     OW33963   0.543   1.281   3.101  0.5805  0.1109 -0.5497
 8548SOL    HW233964   0.487   1.293   3.024  2.4725  1.3116 -1.8234
 8548SOL    HW333965   0.490   1.315   3.174 -0.2376  1.5812 -1.7557
 8548SOL    MW433966   0.529   1.287   3.100 -1.0351 -0.5570  0.2205
 8549SOL     OW33967   5.214   0.210   1.004  0.2540  0.0263  0.1850
 8549SOL    HW233968   5.256   0.287   1.041 -0.9315  1.6091 -1.5240
 8549SOL    HW333969   5.227   0.141   1.069  0.7101  1.8515  2.1382
 8549SOL    MW433970   5.221   0.211   1.017 -0.1513  0.6555  0.3114
 8550SOL     OW33971   4.521   3.267   1.689  0.4671 -0.3138  0.1266
 8550SOL    HW233972   4.579   3.321   1.636 -0.1571 -0.5856 -0.8668
 8550SOL    HW333973   4.473   3.214   1.626 -1.2590  0.2915  0.8470
 8550SOL    MW433974   4.522   3.267   1.674 -0.2696 -0.4781  0.1656
 8551SOL     OW33975   4.573   4.250   3.757  0.8303 -0.1795 -0.1882
 8551SOL    HW233976   4.662   4.267   3.727  0.7333  0.5431 -0.0853
 8551SOL    HW333977   4.531   4.336   3.757  0.2917 -0.4369  0.2828
 8551SOL    MW433978   4.579   4.264   3.753  0.4999 -0.2531  0.3089
 8552SOL     OW33979   6.384   1.218   2.406 -0.0143 -0.1058  0.1902
 8552SOL    HW233980   6.454   1.227   2.471 -0.3369  1.1457  0.4026
 8552SOL    HW333981   6.428   1.219   2.322  0.1892  1.8471  0.2697
 8552SOL    MW433982   6.399   1.219   2.404  1.1762 -0.4690  0.9640
 8553SOL     OW33983   3.507   4.195   1.628 -0.3939  0.0013 -0.0475
 8553SOL    HW233984   3.498   4.266   1.564  0.1324 -0.8999 -1.1830
 8553SOL    HW333985   3.593   4.157   1.608  0.0674  0.1083  1.6542
 8553SOL    MW433986   3.517   4.199   1.617  0.1433 -0.8131  0.9643
 8554SOL     OW33987   2.119   5.522   1.315 -0.4585 -0.1996  0.3034
 8554SOL    HW233988   2.128   5.520   1.220  1.1142 -0.8578  0.4354
 8554SOL    HW333989   2.058   5.451   1.335 -1.6392  0.6283 -0.2725
 8554SOL    MW433990   2.112   5.512   1.305  0.5745 -0.0387  0.6618
 8555SOL     OW33991   2.145   6.105   1.135 -0.0858  0.0516 -0.0115
 8555SOL    HW233992   2.144   6.172   1.067 -0.2315 -0.2267 -0.2846
 8555SOL    HW333993   2.238   6.094   1.158 -0.1204  0.8546  0.5407
 8555SOL    MW433994   2.157   6.112   1.129  0.1644  0.6586 -0.1150
 8556SOL     OW33995   0.831   0.166   3.543  0.0061  0.5724  0.6479
 8556SOL    HW233996   0.884   0.179   3.464 -0.2203 -0.8552  0.2252
 8556SOL    HW333997   0.850   0.241   3.598  1.1845  0.9267 -0.2162
 8556SOL    MW433998   0.840   0.177   3.540 -0.0365 -0.4246  0.6211
 8557SOL     OW33999   6.260   1.366   0.750  0.9651  0.1610  0.4883
 8557SOL    HW234000   6.347   1.397   0.725  1.2067 -1.1883 -0.4556
 8557SOL    HW334001   6.264   1.272   0.735 -0.3455 -0.0558  1.4195
 8557SOL    MW434002   6.272   1.358   0.744 -0.2806  0.3415 -0.3776
 8558SOL     OW34003   3.579   4.310   5.225  0.1800  0.8090 -0.1721
 8558SOL    HW234004   3.605   4.395   5.260 -0.4782  0.6679  0.6865
 8558SOL    HW334005   3.483   4.312   5.224  0.0408 -0.7398  2.0589
 8558SOL    MW434006   3.570   4.321   5.230 -0.2349  0.2564 -0.2628
 8559SOL     OW34007   3.996   2.739   2.459  0.5695 -0.1958  0.5609
 8559SOL    HW234008   3.931   2.693   2.407 -0.7889  2.3140 -0.1226
 8559SOL    HW334009   4.080   2.716   2.420 -0.0741 -1.7118  0.0170
 8559SOL    MW434010   3.999   2.730   2.447  0.0182  0.7889  0.7480
 8560SOL     OW34011   1.576   3.131   6.385 -0.4101 -0.1782 -0.2894
 8560SOL    HW234012   1.597   3.097   6.472  2.1956  0.8247 -0.4602
 8560SOL    HW334013   1.623   3.075   6.324 -1.0446  0.0157 -0.9853
 8560SOL    MW434014   1.585   3.119   6.388  0.2404 -0.0290  0.2225
 8561SOL     OW34015   0.965   4.617   1.737 -0.1919 -0.7786 -0.0441
 8561SOL    HW234016   0.922   4.618   1.652 -1.0334 -0.4247  0.3710
 8561SOL    HW334017   0.905   4.665   1.794  1.9796  2.1749 -0.0273
 8561SOL    MW434018   0.952   4.623   1.733  0.0884  0.3833  0.7128
 8562SOL     OW34019   4.567   2.863   0.622  0.2152 -0.4511 -1.1713
 8562SOL    HW234020   4.626   2.792   0.646  0.2303 -0.0406  0.0369
 8562SOL    HW334021   4.513   2.878   0.699  0.2050  0.8488 -1.4036
 8562SOL    MW434022   4.568   2.856   0.635 -0.3293  0.4496 -0.7104
 8563SOL     OW34023   0.789   2.349   2.038  0.2240  0.2204 -1.1393
 8563SOL    HW234024   0.844   2.373   1.964 -0.0635 -0.1139 -1.4672
 8563SOL    HW334025   0.738   2.274   2.007 -1.5435  1.4500 -1.3916
 8563SOL    MW434026   0.790   2.342   2.024 -0.4379  0.3917  0.3156
 8564SOL     OW34027   5.269   0.447   5.370  0.3926 -0.2035  0.1624
 8564SOL    HW234028   5.287   0.357   5.399  0.7827  0.0736  0.7960
 8564SOL    HW334029   5.340   0.467   5.308 -0.4862 -0.8242 -1.1007
 8564SOL    MW434030   5.280   0.438   5.365 -0.3321 -0.6914 -0.2420
 8565SOL     OW34031   4.972   4.657   2.629 -0.2336 -0.2251  0.8557
 8565SOL    HW234032   5.020   4.583   2.591 -1.3765 -0.7811  0.4354
 8565SOL    HW334033   5.039   4.708   2.675  1.1078  0.1386 -1.3657
 8565SOL    MW434034   4.987   4.654   2.630 -0.1227  0.5294 -0.5425
 8566SOL     OW34035   5.004   0.614   2.284  0.0275  0.6131  0.1865
 8566SOL    HW234036   4.962   0.551   2.224  0.2417 -1.2373  1.8661
 8566SOL    HW334037   4.947   0.691   2.281 -2.2833 -0.9548  0.6462
 8566SOL    MW434038   4.991   0.616   2.275  0.0054 -0.2766 -0.2697
 8567SOL     OW34039   3.381   2.706   6.298 -0.1343 -0.0454 -0.1418
 8567SOL    HW234040   3.302   2.660   6.270 -0.4413  0.2287  0.2625
 8567SOL    HW334041   3.449   2.675   6.238 -0.9222  1.0960 -1.6794
 8567SOL    MW434042   3.380   2.696   6.286 -0.2149  0.2106  0.0782
 8568SOL     OW34043   1.291   5.259   5.354 -0.0412  0.2244  0.1649
 8568SOL    HW234044   1.343   5.336   5.333  0.1526  0.0103 -0.1277
 8568SOL    HW334045   1.354   5.189   5.367 -0.1709  0.2675  1.1125
 8568SOL    MW434046   1.306   5.260   5.353 -0.1500  0.0384  0.0180
 8569SOL     OW34047   1.655   0.994   3.828  0.1279  0.4356  0.3872
 8569SOL    HW234048   1.567   1.022   3.854  0.7543  3.7356 -0.5287
 8569SOL    HW334049   1.652   0.993   3.732  0.9250 -0.0365  0.3605
 8569SOL    MW434050   1.643   0.998   3.819 -0.5641  0.2163  0.1958
 8570SOL     OW34051   0.331   0.676   1.414  0.4344  0.2916 -0.6446
 8570SOL    HW234052   0.298   0.624   1.341 -0.9732  0.6297 -0.2912
 8570SOL    HW334053   0.426   0.675   1.405  0.3093 -0.3908 -1.9710
 8570SOL    MW434054   0.339   0.669   1.404  0.2645  0.5830  0.2954
 8571SOL     OW34055   5.410   3.037   0.495  0.2544 -0.1188  0.4668
 8571SOL    HW234056   5.370   3.120   0.523  2.1622  1.8426 -2.1201
 8571SOL    HW334057   5.502   3.059   0.480  1.2195 -3.1821  1.2787
 8571SOL    MW434058   5.417   3.051   0.497  0.4213 -0.0438 -0.2270
 8572SOL     OW34059   1.863   2.374   4.118 -0.2060  0.2253  0.2454
 8572SOL    HW234060   1.773   2.396   4.096 -0.3585  1.2930  1.7452
 8572SOL    HW334061   1.914   2.450   4.089  0.1143 -0.0801  0.0057
 8572SOL    MW434062   1.858   2.387   4.112  0.0527 -0.4331 -0.3201
 8573SOL     OW34063   5.089   6.406   5.293  0.1057  0.7343 -0.1039
 8573SOL    HW234064   5.091   6.415   5.388  1.0319 -2.3201  0.2537
 8573SOL    HW334065   5.003   6.369   5.273  0.5728 -0.2960 -0.2440
 8573SOL    MW434066   5.078   6.403   5.303 -0.2475  0.2799  0.0878
 8574SOL     OW34067   5.418   0.354   2.087 -0.0168  0.4311  0.0562
 8574SOL    HW234068   5.480   0.391   2.150  0.3849 -0.0160 -0.0714
 8574SOL    HW334069   5.467   0.349   2.005 -1.0578  2.6776 -0.7880
 8574SOL    MW434070   5.432   0.358   2.085 -0.8385  0.2959  0.4246
 8575SOL     OW34071   0.815   2.592   1.262  0.5317  0.1620  0.2928
 8575SOL    HW234072   0.795   2.612   1.353 -0.9602 -0.5461  0.1630
 8575SOL    HW334073   0.910   2.597   1.256  0.5055  3.3000  1.1248
 8575SOL    MW434074   0.825   2.595   1.273 -0.2240 -0.8351 -0.7994
 8576SOL     OW34075   3.697   3.830   2.980  0.6644 -0.0531 -0.4030
 8576SOL    HW234076   3.720   3.738   2.967 -0.0923 -0.4019  0.6509
 8576SOL    HW334077   3.658   3.856   2.896 -1.4269 -1.4351  0.0488
 8576SOL    MW434078   3.695   3.821   2.967  0.5716  0.3637  0.1653
 8577SOL     OW34079   2.085   1.626   3.221 -0.4367 -0.3233  0.3534
 8577SOL    HW234080   2.038   1.597   3.298 -0.9401 -1.2446 -0.2809
 8577SOL    HW334081   2.061   1.718   3.211 -0.9199 -0.3905  0.8830
 8577SOL    MW434082   2.076   1.635   3.230  0.4769 -0.1755 -0.0177
 8578SOL     OW34083   5.742   0.414   0.207 -0.3946  0.1340 -0.1041
 8578SOL    HW234084   5.824   0.410   0.255 -0.3849  0.0667 -0.1268
 8578SOL    HW334085   5.674   0.397   0.272 -0.4362  0.8667  0.0503
 8578SOL    MW434086   5.744   0.411   0.222 -0.7582  0.1545  0.2124
 8579SOL     OW34087   5.496   5.379   3.231 -0.1462  1.0552  0.1576
 8579SOL    HW234088   5.467   5.298   3.273  0.0577  1.0422  0.2714
 8579SOL    HW334089   5.450   5.448   3.280 -0.0693  1.0281  0.2680
 8579SOL    MW434090   5.486   5.377   3.243  0.5458 -0.2778 -0.0082
 8580SOL     OW34091   1.344   3.464   2.975 -0.1475 -0.2538 -0.2433
 8580SOL    HW234092   1.388   3.384   2.943  0.4503 -0.2043  0.4259
 8580SOL    HW334093   1.346   3.456   3.070  0.1228  0.6745 -0.1620
 8580SOL    MW434094   1.350   3.452   2.983  0.2430 -0.5619 -0.1293
 8581SOL     OW34095   1.476   4.261   3.697  0.3628 -0.1348 -0.1918
 8581SOL    HW234096   1.437   4.186   3.742  0.0076  0.3842  0.3847
 8581SOL    HW334097   1.565   4.233   3.676 -0.1756 -1.1726 -1.1369
 8581SOL    MW434098   1.482   4.248   3.700  0.2688  0.5321  0.3646
 8582SOL     OW34099   4.363   1.410   6.375 -0.2127  0.6014  0.0473
 8582SOL    HW234100   4.390   1.406   6.283 -1.5333  0.7912 -0.3738
 8582SOL    HW334101   4.306   1.487   6.380 -0.2412  0.5305  1.0067
 8582SOL    MW434102   4.359   1.420   6.364  0.6533  0.3009  0.2708
 8583SOL     OW34103   3.459   0.869   6.227  0.0087 -0.7107 -0.4903
 8583SOL    HW234104   3.382   0.818   6.254  0.3729 -1.4780 -0.8807
 8583SOL    HW334105   3.427   0.923   6.154 -0.6900  0.5451  0.6838
 8583SOL    MW434106   3.444   0.870   6.221 -0.2400 -0.0214  0.2523
 8584SOL     OW34107   3.859   2.976   4.276 -0.1100 -0.5659 -0.3139
 8584SOL    HW234108   3.779   3.024   4.298 -0.8358 -0.9861 -1.8832
 8584SOL    HW334109   3.903   3.031   4.210  1.8467  0.5174  1.7487
 8584SOL    MW434110   3.854   2.990   4.270 -0.2243  0.0537  0.5820
 8585SOL     OW34111   0.519   4.594   5.501  0.2166 -0.3772  0.0985
 8585SOL    HW234112   0.441   4.620   5.452 -0.1334 -0.7565  0.4507
 8585SOL    HW334113   0.582   4.664   5.484  0.3042 -0.7634 -1.3564
 8585SOL    MW434114   0.517   4.606   5.492  0.2806  0.3142  0.2336
 8586SOL     OW34115   3.690   1.093   5.183 -0.0084 -0.1985 -0.2991
 8586SOL    HW234116   3.728   1.166   5.232  0.3503 -0.2202 -0.5425
 8586SOL    HW334117   3.596   1.103   5.195  0.0920 -0.4613  0.7715
 8586SOL    MW434118   3.683   1.104   5.191 -0.4577  0.2547  0.4742
 8587SOL     OW34119   1.306   2.806   5.066 -0.5664  0.2406  0.7237
 8587SOL    HW234120   1.367   2.878   5.050 -0.2551 -0.0129  0.7572
 8587SOL    HW334121   1.266   2.789   4.981 -0.9514  0.7356  0.8071
 8587SOL    MW434122   1.309   2.813   5.052  0.0947 -0.3586 -0.1089
 8588SOL     OW34123   2.443   0.983   2.984 -0.2072  0.7881  0.8559
 8588SOL    HW234124   2.493   1.030   2.917 -0.6703 -0.5058 -0.4460
 8588SOL    HW334125   2.353   0.986   2.953 -0.3755 -0.1347  1.2408
 8588SOL    MW434126   2.438   0.990   2.972 -0.0618  0.7806 -0.6025
 8589SOL     OW34127   4.248   4.484   3.351  0.5511 -0.2229  0.1961
 8589SOL    HW234128   4.161   4.523   3.354  0.9320  0.6777 -0.0455
 8589SOL    HW334129   4.306   4.553   3.383  1.4124 -0.0329 -1.6034
 8589SOL    MW434130   4.244   4.499   3.355 -0.1548 -0.1058  0.0161
 8590SOL     OW34131   2.401   6.313   5.873  0.2035 -0.3279 -0.4565
 8590SOL    HW234132   2.329   6.375   5.863 -0.4436 -1.0629 -0.5479
 8590SOL    HW334133   2.363   6.242   5.926  1.4763  0.2310  1.3018
 8590SOL    MW434134   2.386   6.312   5.879 -0.1031 -0.0721  0.4016
 8591SOL     OW34135   2.943   5.276   6.368 -1.0274 -0.1874 -0.2733
 8591SOL    HW234136   2.997   5.333   6.313 -0.5516 -0.6925 -0.3402
 8591SOL    HW334137   2.902   5.215   6.307  0.4610 -1.5389  0.0092
 8591SOL    MW434138   2.945   5.276   6.353  0.6411 -0.4789 -0.8595
 8592SOL     OW34139   0.387   0.589   2.161 -0.3293 -0.4337  0.4568
 8592SOL    HW234140   0.473   0.631   2.157 -1.2970  1.6994  0.7857
 8592SOL    HW334141   0.378   0.561   2.252 -1.2929  2.4312  1.3300
 8592SOL    MW434142   0.397   0.590   2.172 -0.1065  0.3714 -0.1439
 8593SOL     OW34143   0.220   2.364   6.198  0.3561  0.5028 -0.4591
 8593SOL    HW234144   0.134   2.324   6.208  0.3597 -0.2896 -2.8613
 8593SOL    HW334145   0.206   2.457   6.215 -0.0040 -0.0951  3.4909
 8593SOL    MW434146   0.207   2.371   6.201 -0.1282  0.1068  0.0214
 8594SOL     OW34147   5.506   0.535   1.478 -0.1931  0.0420 -0.1763
 8594SOL    HW234148   5.466   0.622   1.480  0.5447  0.3763  0.6951
 8594SOL    HW334149   5.432   0.475   1.468 -0.5655  0.8359 -2.9752
 8594SOL    MW434150   5.491   0.538   1.477 -0.2733  0.4681  0.4652
 8595SOL     OW34151   5.054   4.466   4.328 -0.2481 -0.2790  0.6535
 8595SOL    HW234152   5.089   4.538   4.379 -0.4698 -1.5818  2.7494
 8595SOL    HW334153   5.038   4.504   4.241  3.3043  1.1868  0.4434
 8595SOL    MW434154   5.057   4.480   4.323  0.2306 -0.9848 -0.4705
 8596SOL     OW34155   6.359   1.991   0.466  0.1339  0.3316  0.2423
 8596SOL    HW234156   6.309   2.073   0.465  0.7566  0.7340  0.8877
 8596SOL    HW334157   6.296   1.924   0.439 -0.4785  0.9691  0.0536
 8596SOL    MW434158   6.344   1.993   0.462 -0.4454 -0.7260  0.5615
 8597SOL     OW34159   0.401   5.713   4.774  0.4589 -0.1389 -0.2441
 8597SOL    HW234160   0.496   5.708   4.762  0.2950 -2.9652 -1.1111
 8597SOL    HW334161   0.366   5.709   4.686 -0.5124  1.0426  0.0608
 8597SOL    MW434162   0.409   5.712   4.761  0.2482 -0.0754  0.0393
 8598SOL     OW34163   1.211   0.808   1.367  0.4309 -0.1033  0.9203
 8598SOL    HW234164   1.123   0.794   1.334 -0.2753  0.9046  2.2857
 8598SOL    HW334165   1.213   0.899   1.395  1.5147 -0.4226  2.0021
 8598SOL    MW434166   1.200   0.818   1.366  0.1429  0.3626  0.0932
 8599SOL     OW34167   0.532   4.801   3.438  0.1828  0.2159  0.3449
 8599SOL    HW234168   0.504   4.892   3.441 -0.2769  0.0609  2.5912
 8599SOL    HW334169   0.591   4.792   3.512  0.1535 -1.3248  0.2106
 8599SOL    MW434170   0.536   4.812   3.448 -0.2970 -0.3676 -0.5578
 8600SOL     OW34171   4.918   5.968   1.757 -0.5303 -0.6396  0.2314
 8600SOL    HW234172   4.978   5.966   1.682 -0.4710  2.4764  0.0564
 8600SOL    HW334173   4.965   5.922   1.827  0.6224 -1.1689 -0.8468
 8600SOL    MW434174   4.932   5.962   1.756 -0.0944  0.5213 -0.2839
 8601SOL     OW34175   4.500   5.260   1.735  0.1957 -0.4292  0.4415
 8601SOL    HW234176   4.547   5.254   1.652 -0.6640 -1.7736  0.0102
 8601SOL    HW334177   4.519   5.348   1.767  2.1475 -0.5698 -0.1956
 8601SOL    MW434178   4.509   5.271   1.728 -0.3198  0.4266 -0.3340
 8602SOL     OW34179   2.065   0.674   2.084 -0.4046 -0.1566  0.4183
 8602SOL    HW234180   1.970   0.662   2.085 -0.2619 -1.7013 -0.8140
 8602SOL    HW334181   2.080   0.741   2.017 -0.5430 -1.0632 -0.5379
 8602SOL    MW434182   2.054   0.681   2.075 -0.1382 -0.5460 -0.2756
 8603SOL     OW34183   5.597   1.461   4.563  0.5859 -0.8262  0.3804
 8603SOL    HW234184   5.667   1.517   4.596  0.5407 -0.4746 -0.1208
 8603SOL    HW334185   5.593   1.388   4.625  1.0587 -0.5895  0.6862
 8603SOL    MW434186   5.606   1.458   4.575  0.1753 -0.7494  0.0969
 8604SOL     OW34187   3.821   2.558   6.128  0.3107  0.2426  0.1541
 8604SOL    HW234188   3.785   2.509   6.202 -1.1026  2.5601  1.1107
 8604SOL    HW334189   3.859   2.636   6.167  4.0877 -0.7281 -1.1364
 8604SOL    MW434190   3.821   2.562   6.143  0.2034 -0.1826  0.0775
 8605SOL     OW34191   1.615   0.522   0.987 -0.7410  0.4226  0.5649
 8605SOL    HW234192   1.623   0.597   0.927  0.8094 -0.1327  0.0379
 8605SOL    HW334193   1.533   0.480   0.960 -0.6630  0.8459 -0.4022
 8605SOL    MW434194   1.605   0.526   0.975  0.0216  0.1231 -0.7677
 8606SOL     OW34195   0.401   5.984   3.395 -0.5253  0.2073 -0.4454
 8606SOL    HW234196   0.348   6.028   3.329 -0.6317  0.5887 -0.1160
 8606SOL    HW334197   0.338   5.946   3.456 -0.4350 -0.6105 -0.8540
 8606SOL    MW434198   0.386   5.985   3.395  0.1870  0.4341 -0.2462
 8607SOL     OW34199   5.452   4.276   4.019  0.1942 -0.8065 -1.1408
 8607SOL    HW234200   5.515   4.261   3.949  1.7378  1.0505 -0.2455
 8607SOL    HW334201   5.455   4.195   4.071  0.9899 -1.1948 -1.7643
 8607SOL    MW434202   5.461   4.264   4.017 -0.4105 -0.5346  0.1412
 8608SOL     OW34203   0.841   3.697   2.334  0.1314 -0.1374 -0.0935
 8608SOL    HW234204   0.813   3.727   2.247 -1.1720 -0.9080  0.0187
 8608SOL    HW334205   0.911   3.634   2.317 -0.8493 -1.1032 -0.6872
 8608SOL    MW434206   0.846   3.693   2.320 -0.0020 -0.3077  0.1843
 8609SOL     OW34207   0.088   5.639   0.474  0.1903 -0.3197 -0.7597
 8609SOL    HW234208   0.183   5.627   0.477  0.1617 -0.4729 -0.0724
 8609SOL    HW334209   0.053   5.563   0.523 -0.3208 -0.6441 -1.6089
 8609SOL    MW434210   0.096   5.627   0.481 -0.3440  0.7487  0.6910
 8610SOL     OW34211   2.292   0.002   6.233 -0.5042 -0.0885  0.6177
 8610SOL    HW234212   2.362  -0.022   6.172 -2.9112 -1.8523 -1.7150
 8610SOL    HW334213   2.289  -0.070   6.296 -0.7110 -0.4333  0.2207
 8610SOL    MW434214   2.301  -0.011   6.233 -0.6201  1.0285 -0.3444
 8611SOL     OW34215   3.615   2.096   3.044 -0.0140 -0.2523  0.0476
 8611SOL    HW234216   3.525   2.106   3.075  0.0104  1.9252 -0.4503
 8611SOL    HW334217   3.606   2.086   2.949  0.2579 -0.6025  0.0558
 8611SOL    MW434218   3.602   2.096   3.036  0.1449  0.2566 -0.0438
 8612SOL     OW34219   5.708   0.146   3.365  0.2495 -0.5089 -0.3513
 8612SOL    HW234220   5.633   0.189   3.324  1.9014  2.9832 -0.1143
 8612SOL    HW334221   5.673   0.104   3.443 -1.5452  0.5791 -0.5237
 8612SOL    MW434222   5.694   0.146   3.370  0.3370  0.5645 -0.2918
 8613SOL     OW34223   3.743   2.049   3.487 -0.4223  0.1334 -0.0690
 8613SOL    HW234224   3.711   2.138   3.472  0.7865  0.6354  0.1908
 8613SOL    HW334225   3.665   1.994   3.484 -1.0332  1.0196 -1.6533
 8613SOL    MW434226   3.728   2.053   3.485  0.5144 -0.2173  0.3772
 8614SOL     OW34227   4.525   0.859   0.454  0.4551  0.1322 -0.0954
 8614SOL    HW234228   4.524   0.848   0.359 -1.7804  0.5537 -0.1820
 8614SOL    HW334229   4.586   0.931   0.469 -0.5511  1.3273 -1.4159
 8614SOL    MW434230   4.533   0.867   0.443  0.2953 -0.3464 -0.1138
 8615SOL     OW34231   0.326   3.783   2.499  0.5790  0.1730  0.3836
 8615SOL    HW234232   0.357   3.730   2.572  1.2898 -0.3267 -0.2644
 8615SOL    HW334233   0.406   3.809   2.453  0.1332  0.3939 -0.2757
 8615SOL    MW434234   0.340   3.779   2.503 -0.0895 -0.8959 -0.0516
 8616SOL     OW34235   4.222   1.558   0.729  0.1279  0.1242 -0.4054
 8616SOL    HW234236   4.220   1.622   0.658  1.3634  1.6121  0.8401
 8616SOL    HW334237   4.302   1.577   0.777 -0.1835 -1.4621  0.8459
 8616SOL    MW434238   4.232   1.569   0.726  0.0876 -0.2823 -0.7308
 8617SOL     OW34239   6.133   4.322   4.961 -0.6662  0.5425  0.2400
 8617SOL    HW234240   6.097   4.255   5.018  1.2852 -2.0090 -1.3323
 8617SOL    HW334241   6.076   4.323   4.884 -0.2368  0.0634 -0.0920
 8617SOL    MW434242   6.121   4.313   4.958 -0.1595 -0.1080  0.0883
 8618SOL     OW34243   5.554   5.108   2.503  0.2139 -0.3602 -0.3285
 8618SOL    HW234244   5.600   5.043   2.557 -0.1061  0.3874  0.8673
 8618SOL    HW334245   5.586   5.091   2.415  0.1946 -2.1024 -0.0494
 8618SOL    MW434246   5.565   5.097   2.499 -0.5198 -0.2233  0.0552
 8619SOL     OW34247   4.374   5.711   6.180  0.3329 -0.1419  0.0661
 8619SOL    HW234248   4.298   5.703   6.238  1.0694  1.0427  1.2368
 8619SOL    HW334249   4.336   5.731   6.094 -0.6787  0.5297  0.6521
 8619SOL    MW434250   4.359   5.712   6.176  0.5758 -0.3347 -0.2517
 8620SOL     OW34251   2.595   5.820   4.863  0.5572  0.0509  0.0011
 8620SOL    HW234252   2.655   5.831   4.789  0.4818 -0.9333 -0.2266
 8620SOL    HW334253   2.575   5.909   4.892  1.0462  0.4272 -0.7923
 8620SOL    MW434254   2.601   5.833   4.857 -0.0132  0.3437  0.2913
 8621SOL     OW34255   4.220   0.635   1.366 -0.2121  0.1340  0.1700
 8621SOL    HW234256   4.243   0.720   1.403  0.0340  0.3745 -0.5109
 8621SOL    HW334257   4.228   0.574   1.438  2.4096  0.2202  0.0361
 8621SOL    MW434258   4.224   0.638   1.380  0.3755  0.1391  0.4185
 8622SOL     OW34259   3.049   4.433   1.758  0.6729 -0.7848  0.4670
 8622SOL    HW234260   3.071   4.341   1.747  0.3691 -0.8711  0.5974
 8622SOL    HW334261   2.970   4.446   1.706 -0.6441 -1.1443  2.3093
 8622SOL    MW434262   3.042   4.423   1.749 -0.5757  0.1575 -0.2002
 8623SOL     OW34263   2.796   5.725   0.155  0.0782 -0.0021  0.0545
 8623SOL    HW234264   2.798   5.629   0.157  1.4206 -0.0160 -1.0241
 8623SOL    HW334265   2.853   5.749   0.082  0.9923  1.6624  1.2474
 8623SOL    MW434266   2.804   5.715   0.146  0.0903 -0.5165 -0.2680
 8624SOL     OW34267   4.569   0.567   1.583  0.6412 -0.1456 -0.7555
 8624SOL    HW234268   4.643   0.625   1.564  0.1348 -0.1039 -2.8116
 8624SOL    HW334269   4.545   0.529   1.498 -1.6817 -0.1948 -0.1528
 8624SOL    MW434270   4.576   0.570   1.569  0.1440 -0.3689 -0.5505
 8625SOL     OW34271   2.347   2.790   1.263 -0.6786 -0.1537 -0.0285
 8625SOL    HW234272   2.429   2.777   1.216  0.1173 -1.8539  1.6987
 8625SOL    HW334273   2.350   2.727   1.335 -2.8611  0.7398  0.9425
 8625SOL    MW434274   2.358   2.780   1.267 -0.2006 -0.5228 -0.3137
 8626SOL     OW34275   4.913   0.429   1.903 -0.0554  0.2516 -0.3118
 8626SOL    HW234276   4.893   0.402   1.993 -0.4746  2.3699  0.2815
 8626SOL    HW334277   4.974   0.362   1.871 -0.7569 -1.1496  1.1418
 8626SOL    MW434278   4.919   0.417   1.911  0.2631 -0.1342 -0.3312
 8627SOL     OW34279   2.516   5.144   1.062 -0.0621  0.2405  0.4788
 8627SOL    HW234280   2.504   5.236   1.041 -0.6629  0.0474 -0.0685
 8627SOL    HW334281   2.435   5.119   1.108 -0.9565 -0.5727 -1.4259
 8627SOL    MW434282   2.503   5.153   1.065  0.6301 -0.3560 -0.7783
 8628SOL     OW34283   1.507   3.005   5.138 -0.3321 -0.2640  0.3686
 8628SOL    HW234284   1.459   3.087   5.152 -2.1736 -1.3532  0.7785
 8628SOL    HW334285   1.535   2.979   5.225  1.4700  0.5790  0.0859
 8628SOL    MW434286   1.504   3.013   5.151  0.2030 -0.1543 -0.8804
 8629SOL     OW34287   3.433   4.964   5.847 -0.9175  0.3476 -0.2538
 8629SOL    HW234288   3.502   5.030   5.841 -0.0249 -0.3859  1.3186
 8629SOL    HW334289   3.458   4.898   5.782  0.6464 -0.5534  1.1799
 8629SOL    MW434290   3.446   4.964   5.838  0.2173  0.3197 -0.4783
 8630SOL     OW34291   1.100   6.255   5.136  0.3903 -0.3278  0.2803
 8630SOL    HW234292   1.079   6.303   5.217  0.3869  0.5072 -0.2078
 8630SOL    HW334293   1.174   6.303   5.099  0.5969 -0.9018 -0.0540
 8630SOL    MW434294   1.107   6.268   5.142  0.1091 -0.5015  0.4019
 8631SOL     OW34295   1.943  -0.001   1.413 -0.0066 -0.0697  0.5989
 8631SOL    HW234296   1.920   0.003   1.506 -0.7658  0.9943  0.3849
 8631SOL    HW334297   1.871  -0.048   1.372 -0.7510  1.3156  0.2551
 8631SOL    MW434298   1.931  -0.007   1.420 -0.8173 -0.6331 -0.2382
 8632SOL     OW34299   1.025   1.485   2.541 -0.4871 -0.7734 -0.1470
 8632SOL    HW234300   0.961   1.417   2.522  0.6537 -1.4713 -1.7908
 8632SOL    HW334301   1.043   1.477   2.634 -1.1234 -2.0440 -0.1246
 8632SOL    MW434302   1.019   1.475   2.551 -0.5653  0.6027  0.4942
 8633SOL     OW34303   0.473   5.733   2.502  0.2758  0.4376  0.2970
 8633SOL    HW234304   0.395   5.701   2.547 -0.0552  1.2258  0.3052
 8633SOL    HW334305   0.460   5.828   2.496  1.1886  0.5699  0.2157
 8633SOL    MW434306   0.461   5.741   2.507 -0.0441  0.5915 -0.2954
 8634SOL     OW34307   0.574   4.823   5.174  0.1866 -0.1758  0.3747
 8634SOL    HW234308   0.587   4.858   5.262  0.5991  1.1908 -0.1949
 8634SOL    HW334309   0.522   4.890   5.129 -0.2756 -0.9908 -0.3436
 8634SOL    MW434310   0.569   4.836   5.180 -0.1497  0.2392 -0.1524
 8635SOL     OW34311   1.811   4.274   1.261 -0.3445 -0.1534 -0.3644
 8635SOL    HW234312   1.752   4.238   1.328 -1.3586  0.6802 -0.7933
 8635SOL    HW334313   1.783   4.232   1.180  0.0284 -0.1608 -0.4930
 8635SOL    MW434314   1.800   4.263   1.259  0.1520  0.0238 -0.0898
 8636SOL     OW34315   0.334   3.571   2.005  0.0313  0.2981  0.1853
 8636SOL    HW234316   0.387   3.539   1.932 -0.2689 -0.6552  0.3695
 8636SOL    HW334317   0.397   3.613   2.063  0.6238 -0.8775  0.4316
 8636SOL    MW434318   0.349   3.572   2.003  1.0503  0.6282 -0.4972
 8637SOL     OW34319   3.028   2.658   2.366  0.3280  0.1652 -0.0121
 8637SOL    HW234320   2.932   2.667   2.362  0.3170 -0.2013 -0.6230
 8637SOL    HW334321   3.061   2.739   2.327  0.2455 -0.6838 -1.9306
 8637SOL    MW434322   3.020   2.670   2.360  0.4078 -0.5684  0.3648
 8638SOL     OW34323   2.663   3.599   5.833 -0.0148 -0.0644  0.1403
 8638SOL    HW234324   2.685   3.599   5.926 -0.2691 -0.3861  0.2045
 8638SOL    HW334325   2.742   3.631   5.789  0.1024  0.0978  0.4660
 8638SOL    MW434326   2.676   3.603   5.840 -0.3759  0.2312  0.5602
 8639SOL     OW34327   2.296   5.607   4.250  0.5301 -0.6862 -0.7991
 8639SOL    HW234328   2.214   5.575   4.290  0.2909  0.6310 -0.1888
 8639SOL    HW334329   2.270   5.634   4.162  0.2360  0.0022 -0.5067
 8639SOL    MW434330   2.281   5.606   4.244  0.2834  0.3358  0.5510
 8640SOL     OW34331   5.394   4.720   3.403  0.4477  0.1852 -0.3985
 8640SOL    HW234332   5.375   4.806   3.364  0.6006  0.1994 -0.4420
 8640SOL    HW334333   5.457   4.739   3.473  1.2829 -0.0146 -1.0770
 8640SOL    MW434334   5.400   4.734   3.407  0.4401 -0.4627 -0.9167
 8641SOL     OW34335   4.041   4.090   3.472 -0.3745  0.0750  0.3026
 8641SOL    HW234336   4.105   4.097   3.542 -1.6575  2.1809  1.3551
 8641SOL    HW334337   4.082   4.135   3.397 -0.2297  0.5741  0.6777
 8641SOL    MW434338   4.055   4.097   3.471 -0.3868  0.0314 -0.0740
 8642SOL     OW34339   3.938   2.340   2.187  0.3322  0.0820  0.1752
 8642SOL    HW234340   3.882   2.385   2.122 -0.7651 -0.4554  0.7320
 8642SOL    HW334341   4.027   2.368   2.164  0.0292 -0.4494 -1.8610
 8642SOL    MW434342   3.942   2.350   2.175 -0.1815  0.0596 -0.0202
 8643SOL     OW34343   1.845   5.780   3.183  0.5501 -0.1262  0.2381
 8643SOL    HW234344   1.861   5.706   3.124  3.4637  0.5577  0.0152
 8643SOL    HW334345   1.854   5.857   3.128 -4.7298  0.6262 -0.0678
 8643SOL    MW434346   1.848   5.780   3.168  0.5541  0.1268 -0.4132
 8644SOL     OW34347   5.941   0.695   6.336 -0.2754  0.1848  0.5560
 8644SOL    HW234348   5.999   0.768   6.315 -0.8454  0.4581 -0.0988
 8644SOL    HW334349   5.876   0.695   6.266  1.2278 -2.6123 -1.0552
 8644SOL    MW434350   5.940   0.705   6.324 -0.2541  0.2999 -0.0916
 8645SOL     OW34351   5.666   0.321   5.789  0.2671  0.3277 -0.5986
 8645SOL    HW234352   5.691   0.335   5.880  0.9234 -0.9652 -0.5614
 8645SOL    HW334353   5.666   0.409   5.751  0.4476  0.8351  0.5207
 8645SOL    MW434354   5.669   0.335   5.796 -0.3044  0.7861  0.3245
 8646SOL     OW34355   6.168   2.364   3.682 -0.3648 -0.0386  0.1041
 8646SOL    HW234356   6.099   2.323   3.630  0.4645 -0.0376 -1.0235
 8646SOL    HW334357   6.121   2.424   3.740 -1.2290  1.5508 -2.0945
 8646SOL    MW434358   6.152   2.367   3.683 -0.2883  0.1217  0.1933
 8647SOL     OW34359   4.919   1.892   3.655  0.2624 -0.4995 -0.3739
 8647SOL    HW234360   5.006   1.871   3.621 -0.2459  0.4169 -2.4010
 8647SOL    HW334361   4.859   1.860   3.588 -0.9404 -0.3117  0.5713
 8647SOL    MW434362   4.922   1.885   3.642 -0.3132 -0.0918  0.1929
 8648SOL     OW34363   1.377   0.385   4.115  0.1116  0.6620  0.0490
 8648SOL    HW234364   1.418   0.469   4.092  0.8714  0.7798  1.7260
 8648SOL    HW334365   1.322   0.404   4.190 -0.7468 -0.1059 -0.3595
 8648SOL    MW434366   1.375   0.399   4.122  0.6240 -0.3264  0.2693
 8649SOL     OW34367   4.764   4.091   6.281 -0.4181 -0.2321 -0.0019
 8649SOL    HW234368   4.732   4.028   6.346 -2.2551  1.3469  0.7397
 8649SOL    HW334369   4.844   4.126   6.319 -1.1669  0.2583  1.2007
 8649SOL    MW434370   4.770   4.087   6.295 -0.0157 -0.2944  0.3395
 8650SOL     OW34371   5.535   3.067   2.110  0.1348 -0.5146 -0.1092
 8650SOL    HW234372   5.477   3.004   2.067 -0.2771  0.3924 -0.9008
 8650SOL    HW334373   5.482   3.104   2.181  0.8061 -1.9924  1.2242
 8650SOL    MW434374   5.521   3.064   2.114 -0.2144 -0.1596  0.0068
 8651SOL     OW34375   0.353   2.482   2.097  0.0375  0.3486  0.2990
 8651SOL    HW234376   0.443   2.479   2.130 -0.5273 -2.2857  1.8912
 8651SOL    HW334377   0.343   2.401   2.047 -1.3771  0.7469 -0.1248
 8651SOL    MW434378   0.364   2.471   2.095 -0.2760  0.3862  0.5706
 8652SOL     OW34379   0.889   4.648   1.038 -0.2970 -0.3694  0.6114
 8652SOL    HW234380   0.842   4.730   1.049 -1.6006 -0.9279 -0.4787
 8652SOL    HW334381   0.975   4.673   1.005 -0.8259  0.5306 -0.1243
 8652SOL    MW434382   0.894   4.662   1.035 -0.3702  0.0628  0.4838
 8653SOL     OW34383   4.536   4.972   2.900  0.0974  0.2623  0.4308
 8653SOL    HW234384   4.550   5.032   2.973 -0.1220 -0.0974  0.7774
 8653SOL    HW334385   4.545   4.885   2.940  2.5628  0.0170 -0.4481
 8653SOL    MW434386   4.539   4.968   2.915  0.1428 -0.2670  0.6874
 8654SOL     OW34387   3.892   1.564   1.857 -0.4183 -0.0833 -0.6836
 8654SOL    HW234388   3.878   1.618   1.935  0.3551 -0.7849 -0.0383
 8654SOL    HW334389   3.804   1.532   1.835 -0.4161 -1.5705  1.1928
 8654SOL    MW434390   3.878   1.567   1.865 -0.6183  0.0070 -0.8706
 8655SOL     OW34391   0.234   3.120   2.485 -0.2621  0.1960  0.4135
 8655SOL    HW234392   0.244   3.063   2.409 -0.4151  0.5519  0.1191
 8655SOL    HW334393   0.213   3.061   2.557 -2.1171  0.0063 -0.2128
 8655SOL    MW434394   0.232   3.105   2.484 -0.3539  0.9063 -0.6956
 8656SOL     OW34395   5.375   1.859   1.380 -0.7986  0.1204 -0.1080
 8656SOL    HW234396   5.455   1.822   1.344 -0.5685 -0.3802  0.8935
 8656SOL    HW334397   5.307   1.796   1.355 -0.5479 -0.5310  0.8207
 8656SOL    MW434398   5.376   1.846   1.372 -0.2918  0.1589  0.1501
 8657SOL     OW34399   1.077   1.839   3.534  0.0811 -0.2010  0.4214
 8657SOL    HW234400   1.053   1.921   3.577  2.5985 -0.1442  1.8992
 8657SOL    HW334401   1.056   1.854   3.441  0.2299  2.0001  0.6883
 8657SOL    MW434402   1.071   1.852   3.527 -0.1337  0.1279  0.0902
 8658SOL     OW34403   3.023   5.807   4.190  0.4249 -0.7604  0.6919
 8658SOL    HW234404   2.940   5.782   4.150 -0.0607  0.9587  0.5799
 8658SOL    HW334405   3.046   5.732   4.246 -0.3874 -1.9159 -0.4558
 8658SOL    MW434406   3.015   5.794   4.192 -0.3385 -0.0678  0.3804
 8659SOL     OW34407   0.209   2.436   0.545 -0.6645 -1.0326  0.5312
 8659SOL    HW234408   0.165   2.461   0.464  0.2272 -0.5515  0.1814
 8659SOL    HW334409   0.210   2.515   0.598  0.1853 -0.9101  0.3435
 8659SOL    MW434410   0.203   2.449   0.542  0.7106  0.0052  0.6985
 8660SOL     OW34411   1.806   1.734   5.049 -0.4517  0.4921 -0.3181
 8660SOL    HW234412   1.837   1.652   5.088  3.7323  1.0723 -1.8606
 8660SOL    HW334413   1.827   1.801   5.115  1.2465  0.8163 -1.1226
 8660SOL    MW434414   1.813   1.732   5.063  0.0885 -0.6975  0.5692
 8661SOL     OW34415   2.386   5.495   3.763  0.4671  0.2912  0.0456
 8661SOL    HW234416   2.410   5.576   3.718 -0.0792  1.2069  1.3616
 8661SOL    HW334417   2.397   5.515   3.856 -1.6349 -0.4719  0.5039
 8661SOL    MW434418   2.391   5.508   3.769  0.2544  0.4489  0.2065
 8662SOL     OW34419   4.329   5.486   1.041  0.4179  0.3160  0.4528
 8662SOL    HW234420   4.269   5.430   0.990  1.8234 -1.4290  0.6190
 8662SOL    HW334421   4.334   5.567   0.990 -1.6689  0.3449  0.1812
 8662SOL    MW434422   4.322   5.489   1.027 -0.0134  0.1689 -0.1939
 8663SOL     OW34423   4.546   4.420   0.491  0.0334  0.6426 -0.0024
 8663SOL    HW234424   4.596   4.497   0.517  1.7843  0.5032 -2.6478
 8663SOL    HW334425   4.454   4.447   0.501  0.5885  2.1408  1.5254
 8663SOL    MW434426   4.540   4.434   0.496 -0.0029  0.0816  0.0430
 8664SOL     OW34427   2.251   4.650   2.628  0.2850  0.0196 -0.2246
 8664SOL    HW234428   2.336   4.606   2.634  0.6204  0.6623 -0.2054
 8664SOL    HW334429   2.197   4.592   2.575  0.9325 -0.0844 -0.7732
 8664SOL    MW434430   2.255   4.636   2.622  0.0299  0.5471  0.1282
 8665SOL     OW34431   3.445   3.541   4.551  0.6317  0.4425 -0.3727
 8665SOL    HW234432   3.396   3.598   4.610  2.7264  0.8007  1.1679
 8665SOL    HW334433   3.444   3.586   4.467  0.3761  1.6651  0.2638
 8665SOL    MW434434   3.439   3.554   4.548 -0.0319  0.2286  0.0057
 8666SOL     OW34435   2.625   3.491   1.143  0.0188  0.4317  0.2095
 8666SOL    HW234436   2.558   3.433   1.180 -0.5784  0.3661 -0.9242
 8666SOL    HW334437   2.604   3.577   1.179 -1.2074  0.5727 -0.7458
 8666SOL    MW434438   2.613   3.495   1.153 -0.1413  0.1243 -0.1693
 8667SOL     OW34439   2.802   4.810   2.956  0.3196 -0.0618  0.2569
 8667SOL    HW234440   2.801   4.828   3.050 -2.7517  0.5658  0.2299
 8667SOL    HW334441   2.787   4.715   2.950 -1.9536  0.2258  0.4847
 8667SOL    MW434442   2.800   4.800   2.968  0.3629  0.2118  0.1210
 8668SOL     OW34443   0.556   2.475   4.607 -0.6304 -0.3038 -0.2776
 8668SOL    HW234444   0.497   2.482   4.683  0.2766  1.6881  0.2957
 8668SOL    HW334445   0.497   2.471   4.532 -1.5254 -1.0202  0.4334
 8668SOL    MW434446   0.540   2.475   4.607 -0.6834 -0.5024 -0.1465
 8669SOL     OW34447   1.408   0.458   2.286 -0.5354 -0.1226  0.3505
 8669SOL    HW234448   1.379   0.446   2.196  0.4147 -0.9123  0.1242
 8669SOL    HW334449   1.354   0.529   2.320 -1.0984 -0.0051 -0.7504
 8669SOL    MW434450   1.397   0.466   2.279 -0.0701 -0.6198  0.0810
 8670SOL     OW34451   1.754   0.233   2.956 -0.1369 -0.3305  0.3522
 8670SOL    HW234452   1.844   0.236   2.990 -0.2451  3.7509  0.8316
 8670SOL    HW334453   1.764   0.234   2.861  0.3643 -0.0514  0.4028
 8670SOL    MW434454   1.767   0.234   2.948  0.2393  0.8642 -0.0742
 8671SOL     OW34455   2.689   2.966   2.571  0.0300  0.1156 -0.0273
 8671SOL    HW234456   2.599   2.943   2.596  0.2051  0.6384  1.1847
 8671SOL    HW334457   2.681   3.050   2.527 -0.4502 -1.4650 -3.1995
 8671SOL    MW434458   2.676   2.974   2.569  0.0956  0.0984  0.0258
 8672SOL     OW34459   3.883   1.337   3.885 -0.4184 -0.6891 -0.3993
 8672SOL    HW234460   3.963   1.313   3.838 -0.2277 -2.5892  0.7420
 8672SOL    HW334461   3.821   1.363   3.817 -0.0772 -3.0458 -1.7409
 8672SOL    MW434462   3.885   1.337   3.870  0.1065 -0.0948  0.1665
 8673SOL     OW34463   2.924   1.784   3.406 -0.1365 -0.1498  0.0902
 8673SOL    HW234464   2.949   1.870   3.440  0.7088 -0.4804  0.3258
 8673SOL    HW334465   2.919   1.796   3.311  0.6118  0.0036  0.0689
 8673SOL    MW434466   2.926   1.797   3.398 -0.1101 -0.5471 -0.4077
 8674SOL     OW34467   3.907   3.018   2.519 -0.1893 -0.2414  0.8670
 8674SOL    HW234468   3.931   2.927   2.499 -2.4266 -0.9375  1.0469
 8674SOL    HW334469   3.826   3.032   2.470 -0.3894  1.3445  1.6135
 8674SOL    MW434470   3.899   3.008   2.510  0.0593  0.2702  0.0098
 8675SOL     OW34471   1.040   0.947   1.602 -0.5295  0.4659  0.1633
 8675SOL    HW234472   0.950   0.980   1.598 -0.6514  0.0366 -0.9937
 8675SOL    HW334473   1.089   1.005   1.544 -0.6712 -1.0869 -1.5917
 8675SOL    MW434474   1.035   0.959   1.594 -0.0178  0.4137 -0.0366
 8676SOL     OW34475   5.252   4.430   2.002  0.6022  0.1306  0.1468
 8676SOL    HW234476   5.274   4.494   2.069  1.4368 -1.5409  1.5597
 8676SOL    HW334477   5.156   4.432   1.997  0.6157  1.4693  0.1494
 8676SOL    MW434478   5.242   4.439   2.010 -0.0500  0.0628 -0.4093
 8677SOL     OW34479   1.375   4.496   3.511 -0.7201  0.5699 -0.7286
 8677SOL    HW234480   1.361   4.437   3.585 -1.5330  1.0593 -0.4801
 8677SOL    HW334481   1.448   4.457   3.462  0.4431  0.7176  0.8160
 8677SOL    MW434482   1.383   4.483   3.514  0.2121 -0.5506 -0.2323
 8678SOL     OW34483   5.827   6.028   5.145  0.1961 -0.0621 -0.0628
 8678SOL    HW234484   5.876   5.960   5.191 -1.3458 -0.7852  0.5967
 8678SOL    HW334485   5.869   6.109   5.171  1.3945 -0.6835  0.0116
 8678SOL    MW434486   5.839   6.029   5.154  0.4235  0.1704  0.3231
 8679SOL     OW34487   0.596   5.887   1.276  0.2207 -0.2384 -0.0982
 8679SOL    HW234488   0.541   5.814   1.306 -0.6527  0.7490  0.7984
 8679SOL    HW334489   0.685   5.858   1.293 -0.1186 -1.0118  0.4437
 8679SOL    MW434490   0.600   5.873   1.282 -0.1181  0.2348  0.8466
 8680SOL     OW34491   3.001   0.612   2.272 -0.4155 -0.5331 -0.2145
 8680SOL    HW234492   2.935   0.676   2.297  0.1708  0.6314 -1.5635
 8680SOL    HW334493   3.069   0.620   2.339 -0.2222  0.4458 -0.5249
 8680SOL    MW434494   3.001   0.621   2.284 -0.6815  0.1686  0.2294
 8681SOL     OW34495   0.382   5.342   0.157 -0.1013  0.1610  0.0945
 8681SOL    HW234496   0.450   5.296   0.108 -0.4966 -0.9834  0.5943
 8681SOL    HW334497   0.304   5.333   0.102 -0.1247  0.4711  0.0748
 8681SOL    MW434498   0.381   5.335   0.143 -0.2932  0.4669 -0.0211
 8682SOL     OW34499   1.543   3.392   6.094  0.4181  0.3483 -0.0170
 8682SOL    HW234500   1.617   3.392   6.033 -0.4353 -0.7906 -1.1038
 8682SOL    HW334501   1.486   3.321   6.063 -0.2604  0.0151  1.8637
 8682SOL    MW434502   1.545   3.382   6.082 -0.3002 -0.4387  0.1311
 8683SOL     OW34503   6.051   0.805   1.714 -0.2323  0.4259 -0.9871
 8683SOL    HW234504   6.025   0.890   1.679  0.1278  0.9554 -0.0085
 8683SOL    HW334505   5.971   0.753   1.713 -0.5235  0.8704 -1.3149
 8683SOL    MW434506   6.037   0.809   1.710 -0.1369  0.3928 -0.2349
 8684SOL     OW34507   2.583   0.627   6.008  0.2433 -0.0223 -0.1394
 8684SOL    HW234508   2.659   0.615   6.065 -1.5903  0.1957  2.5521
 8684SOL    HW334509   2.575   0.722   6.001  0.4600 -0.0497 -0.8021
 8684SOL    MW434510   2.592   0.638   6.015 -0.3974  0.4825  0.0748
 8685SOL     OW34511   3.056   1.109   5.289 -0.7046 -0.1184 -0.1768
 8685SOL    HW234512   3.145   1.088   5.318 -0.2547  1.3678 -0.3996
 8685SOL    HW334513   3.033   1.038   5.229 -0.2331 -1.2782  0.9797
 8685SOL    MW434514   3.064   1.097   5.285  0.0824 -0.3471  0.8053
 8686SOL     OW34515   5.608   1.583   4.071  0.0938 -0.0770  0.1657
 8686SOL    HW234516   5.651   1.631   4.001  0.2113 -0.5844 -0.1148
 8686SOL    HW334517   5.563   1.511   4.027 -1.8114  0.9421  0.3440
 8686SOL    MW434518   5.608   1.580   4.056  0.1541  0.3985 -0.6451
 8687SOL     OW34519   2.652   3.719   4.233 -0.1031  0.7743 -0.2742
 8687SOL    HW234520   2.728   3.773   4.213 -0.0360 -0.0200 -2.5345
 8687SOL    HW334521   2.577   3.774   4.213 -0.0538  0.5609 -1.0866
 8687SOL    MW434522   2.652   3.733   4.228 -0.1189  0.2317 -0.4483
 8688SOL     OW34523   0.351   0.522   3.214  0.1899  0.1171 -0.3517
 8688SOL    HW234524   0.357   0.471   3.133 -0.8585 -0.5034 -0.0505
 8688SOL    HW334525   0.268   0.569   3.208  1.2501  2.0412 -0.7378
 8688SOL    MW434526   0.341   0.522   3.203  0.0583  0.0873  0.3842
 8689SOL     OW34527   1.989   1.609   3.848 -0.4158 -0.4682 -0.0455
 8689SOL    HW234528   1.995   1.535   3.908 -2.1145 -1.7159 -1.3239
 8689SOL    HW334529   1.896   1.629   3.844 -0.2134  0.2982 -1.4212
 8689SOL    MW434530   1.978   1.602   3.855 -0.3534  0.1425  0.3933
 8690SOL     OW34531   6.385   3.117   1.694  0.0170 -0.3831 -0.1571
 8690SOL    HW234532   6.343   3.160   1.768  0.3451 -1.0144  0.4097
 8690SOL    HW334533   6.329   3.043   1.674 -0.2587 -0.0165 -0.7785
 8690SOL    MW434534   6.372   3.113   1.701  0.3363  0.2736  0.0781
 8691SOL     OW34535   3.570   4.147   0.904 -1.0444 -0.0119  0.1062
 8691SOL    HW234536   3.488   4.181   0.941 -1.1877  0.6559 -0.7790
 8691SOL    HW334537   3.638   4.175   0.965 -1.3607  0.3537  0.2949
 8691SOL    MW434538   3.568   4.155   0.917 -0.5529  0.2915  0.3587
 8692SOL     OW34539   4.157   2.686   1.867  0.2815 -0.0858  0.2890
 8692SOL    HW234540   4.251   2.669   1.876  0.0416 -1.4804  0.2803
 8692SOL    HW334541   4.142   2.763   1.923  1.3566 -0.0594  0.5686
 8692SOL    MW434542   4.167   2.694   1.876 -0.0629 -0.1460  0.0151
 8693SOL     OW34543   6.042   2.529   1.283 -0.7772  0.6982  0.2688
 8693SOL    HW234544   6.083   2.453   1.242  0.1856  1.1187  0.4154
 8693SOL    HW334545   5.953   2.500   1.304 -0.5979 -0.2077 -0.1626
 8693SOL    MW434546   6.036   2.515   1.281  0.7445  0.1761 -0.3783
 8694SOL     OW34547   0.302   3.897   0.468 -0.4770 -0.2111 -0.2084
 8694SOL    HW234548   0.283   3.874   0.378 -0.5425  0.5610 -0.3999
 8694SOL    HW334549   0.235   3.962   0.491 -0.8289 -0.8460  0.5897
 8694SOL    MW434550   0.291   3.903   0.460  0.2131  0.0440  0.0997
 8695SOL     OW34551   2.179   5.739   4.020 -0.0622  0.1848 -0.3251
 8695SOL    HW234552   2.148   5.826   4.045 -0.5569  0.2588 -1.1449
 8695SOL    HW334553   2.105   5.700   3.972  0.9619  0.2492 -2.0612
 8695SOL    MW434554   2.165   5.745   4.017  0.2229 -0.2826 -0.1162
 8696SOL     OW34555   5.932   2.702   2.013 -0.0711  0.0858  0.1124
 8696SOL    HW234556   5.945   2.609   2.032 -1.8481  0.0805  1.5823
 8696SOL    HW334557   5.837   2.711   2.007  0.0396  1.9610  0.8085
 8696SOL    MW434558   5.921   2.691   2.014 -0.4737  0.4009 -0.8911
 8697SOL     OW34559   4.807   3.241   3.774  0.1349 -0.4934  0.0144
 8697SOL    HW234560   4.876   3.307   3.783 -1.9375  1.8602 -0.4166
 8697SOL    HW334561   4.797   3.230   3.679 -0.3969 -0.4856  0.0697
 8697SOL    MW434562   4.815   3.248   3.762  0.0289  0.5901 -0.3987
 8698SOL     OW34563   4.603   4.049   2.462  0.0246  0.1603 -0.7917
 8698SOL    HW234564   4.571   4.029   2.375 -0.8280  0.0814 -0.4644
 8698SOL    HW334565   4.580   4.141   2.476  0.1118  0.1575 -0.6255
 8698SOL    MW434566   4.596   4.058   2.453  0.0968  0.0476  0.0668
 8699SOL     OW34567   1.379   1.200   1.125 -0.1645 -0.2082 -0.6813
 8699SOL    HW234568   1.371   1.236   1.037 -1.0591  1.7357  0.1334
 8699SOL    HW334569   1.289   1.197   1.159  0.2065 -0.5006  0.3251
 8699SOL    MW434570   1.366   1.204   1.118 -0.2035  0.0744 -0.1368
 8700SOL     OW34571   0.253   3.906   0.816  0.0519 -0.3024  0.1024
 8700SOL    HW234572   0.228   3.892   0.724  2.5620  0.2572 -0.7379
 8700SOL    HW334573   0.320   3.840   0.833 -0.3956 -0.4190  1.5855
 8700SOL    MW434574   0.258   3.895   0.806  0.1775 -0.4035 -0.1533
 8701SOL     OW34575   6.415   2.341   3.357 -0.4273 -0.0997  0.0694
 8701SOL    HW234576   6.376   2.273   3.412 -1.0251 -1.3973 -1.8310
 8701SOL    HW334577   6.366   2.420   3.378  0.0454 -0.2933  2.0843
 8701SOL    MW434578   6.404   2.343   3.367 -0.1490  0.7184  0.6804
 8702SOL     OW34579   3.768   2.769   0.125  0.7513  0.1390 -0.0251
 8702SOL    HW234580   3.674   2.762   0.139  0.8056 -0.1203  0.2199
 8702SOL    HW334581   3.780   2.749   0.032  0.5260  0.5787 -0.1550
 8702SOL    MW434582   3.757   2.766   0.114 -1.0386 -0.1318  0.0551
 8703SOL     OW34583   0.968   3.568   4.476  0.0582  0.0516 -0.4447
 8703SOL    HW234584   1.039   3.538   4.420  1.6339  1.2769  0.7874
 8703SOL    HW334585   0.918   3.628   4.421 -0.0318 -0.7994 -1.3207
 8703SOL    MW434586   0.971   3.572   4.462  0.0496  0.2306  0.5396
 8704SOL     OW34587   0.199   0.670   5.541 -0.2006  0.6086  0.0130
 8704SOL    HW234588   0.243   0.753   5.555 -0.6158  0.9510 -0.6853
 8704SOL    HW334589   0.261   0.604   5.572  0.4962  1.1250 -0.2733
 8704SOL    MW434590   0.213   0.672   5.547 -0.3824 -0.2908 -0.1006
 8705SOL     OW34591   0.423   2.000   6.076  0.1156 -0.3409 -0.1933
 8705SOL    HW234592   0.486   1.932   6.101 -0.7526 -0.7865  0.8598
 8705SOL    HW334593   0.373   2.017   6.156  0.6209  1.9099 -0.2917
 8705SOL    MW434594   0.425   1.993   6.090 -0.4422 -0.7337  0.4845
 8706SOL     OW34595   1.003   4.860   4.391 -0.1691  0.3455  0.1192
 8706SOL    HW234596   1.039   4.886   4.306  2.7293  0.0314  1.1385
 8706SOL    HW334597   0.911   4.885   4.387  0.3121  2.0597 -2.4183
 8706SOL    MW434598   0.996   4.867   4.380  0.1774  0.0744  0.0933
 8707SOL     OW34599   0.949   2.732   2.854  0.7994  0.1648 -0.0490
 8707SOL    HW234600   1.004   2.688   2.789  0.0782 -1.3843  0.3447
 8707SOL    HW334601   0.934   2.665   2.921  0.8957  1.4871  1.3493
 8707SOL    MW434602   0.955   2.717   2.855 -0.2140  0.2672  0.1732
 8708SOL     OW34603   5.708   2.064   3.330  0.7177 -0.4199 -0.6000
 8708SOL    HW234604   5.679   1.976   3.355  0.9364 -0.9361 -2.0808
 8708SOL    HW334605   5.788   2.049   3.279  0.5679  0.6178 -1.1499
 8708SOL    MW434606   5.715   2.050   3.326 -0.4150 -0.4404  0.3471
 8709SOL     OW34607   3.747   1.996   2.301 -0.2782  0.3374  0.0650
 8709SOL    HW234608   3.764   1.906   2.329  1.7721  0.6840  0.0697
 8709SOL    HW334609   3.741   2.045   2.383  0.8022  0.5451  0.0311
 8709SOL    MW434610   3.748   1.990   2.316  0.3521 -0.2555  0.7244
 8710SOL     OW34611   3.984   6.229   4.728  0.1731 -0.2527  0.2792
 8710SOL    HW234612   3.951   6.167   4.662  0.7855  0.4217 -0.6938
 8710SOL    HW334613   4.036   6.175   4.787 -1.1422 -1.0203  0.7647
 8710SOL    MW434614   3.986   6.214   4.727 -0.1428 -1.0649  0.1728
 8711SOL     OW34615   2.192   4.807   0.898 -0.0348  0.7097 -0.3871
 8711SOL    HW234616   2.247   4.803   0.976 -1.4602  0.9129  0.6590
 8711SOL    HW334617   2.181   4.901   0.881 -0.2169  0.6722 -0.4835
 8711SOL    MW434618   2.198   4.819   0.906  0.1378  0.2075  0.7433
 8712SOL     OW34619   5.363   0.894   1.118 -0.7061  0.4108  0.4790
 8712SOL    HW234620   5.393   0.910   1.208  3.4208  2.4612 -1.0046
 8712SOL    HW334621   5.361   0.981   1.078  1.5795 -0.7238 -2.4010
 8712SOL    MW434622   5.367   0.907   1.125 -0.6162 -0.4690 -0.2156
 8713SOL     OW34623   0.109   4.836   2.053 -0.0860 -0.0344 -0.1686
 8713SOL    HW234624   0.049   4.905   2.080  0.6207  1.1928 -1.5713
 8713SOL    HW334625   0.102   4.769   2.121 -0.9340  1.3316  1.1329
 8713SOL    MW434626   0.101   4.836   2.066  0.7464  0.1680 -0.0086
 8714SOL     OW34627   0.626   6.162   3.902  0.9184 -0.4861  0.3276
 8714SOL    HW234628   0.553   6.170   3.840 -0.0273 -1.3347  1.2829
 8714SOL    HW334629   0.671   6.082   3.876  0.6828 -0.6955  0.5505
 8714SOL    MW434630   0.622   6.153   3.891 -0.1544  0.0584  0.6631
 8715SOL     OW34631   1.755   6.345   1.181 -0.3355  0.1662 -0.0488
 8715SOL    HW234632   1.698   6.268   1.186 -2.7444  1.2995 -4.3911
 8715SOL    HW334633   1.696   6.419   1.194  1.3293  1.3891  0.9521
 8715SOL    MW434634   1.740   6.345   1.184  0.4390  0.3928  0.0582
 8716SOL     OW34635   1.765   3.298   4.549 -0.0328 -0.0358  0.0424
 8716SOL    HW234636   1.742   3.263   4.463 -0.6993 -0.2435  0.3035
 8716SOL    HW334637   1.688   3.348   4.576  0.5779  0.9181  0.0592
 8716SOL    MW434638   1.752   3.300   4.541 -0.3061  0.6142  0.5051
 8717SOL     OW34639   5.132   2.996   3.734  0.1980 -0.0398 -0.0478
 8717SOL    HW234640   5.060   3.038   3.686 -1.0662 -1.9334  0.1024
 8717SOL    HW334641   5.197   2.976   3.667 -1.1142 -1.7341 -0.8985
 8717SOL    MW434642   5.131   2.999   3.719 -0.1526  0.5317  0.1884
 8718SOL     OW34643   0.643   3.223   4.730 -0.3997 -0.3930 -0.0888
 8718SOL    HW234644   0.575   3.181   4.783 -2.6117  1.3461 -1.4294
 8718SOL    HW334645   0.699   3.150   4.702 -1.4613 -1.8280  1.3345
 8718SOL    MW434646   0.642   3.208   4.734  0.0268  1.0927 -0.0958
 8719SOL     OW34647   1.264   3.682   0.692  0.3377  0.1700 -0.2208
 8719SOL    HW234648   1.281   3.716   0.604  0.6289  1.7784  0.4141
 8719SOL    HW334649   1.346   3.640   0.718 -0.4446 -2.3687 -1.5355
 8719SOL    MW434650   1.277   3.681   0.684  0.1023 -0.0895 -0.0721
 8720SOL     OW34651   0.246   1.954   5.733 -0.3892 -0.1836  0.2005
 8720SOL    HW234652   0.151   1.940   5.726 -0.4151 -0.5986  1.1929
 8720SOL    HW334653   0.280   1.870   5.764  0.3772 -0.1852 -0.6025
 8720SOL    MW434654   0.238   1.941   5.736  0.2158  0.1154 -0.3868
 8721SOL     OW34655   0.595   4.845   2.645 -0.0999 -0.1750 -0.3963
 8721SOL    HW234656   0.620   4.904   2.717 -0.5409 -1.0598  0.5114
 8721SOL    HW334657   0.585   4.902   2.569  1.9276  0.5958 -0.1533
 8721SOL    MW434658   0.597   4.860   2.645 -0.0826 -0.0881 -0.0320
 8722SOL     OW34659   1.980   5.340   3.008 -0.2465  0.6693 -0.7745
 8722SOL    HW234660   1.909   5.288   2.970  0.9181 -0.5168 -1.4180
 8722SOL    HW334661   1.959   5.344   3.102 -0.9506 -0.0266 -0.8927
 8722SOL    MW434662   1.968   5.333   3.016  0.3740  0.3923  0.5960
 8723SOL     OW34663   1.122   5.933   0.005 -0.2089 -0.2368  0.3393
 8723SOL    HW234664   1.074   5.869  -0.047  1.4669 -2.3046  1.1653
 8723SOL    HW334665   1.156   5.996  -0.059 -2.3565  0.2165 -0.4389
 8723SOL    MW434666   1.120   5.933  -0.010  0.0638 -0.4295  0.4142
 8724SOL     OW34667   5.049   1.077   2.694  0.1563 -0.1502 -0.0847
 8724SOL    HW234668   5.061   1.130   2.616 -0.6630  0.4225  0.1640
 8724SOL    HW334669   5.055   1.139   2.767  2.6274 -0.9067  0.4616
 8724SOL    MW434670   5.052   1.092   2.694  0.2113 -0.2882  0.5778
 8725SOL     OW34671   4.693   6.195   2.974  0.7639 -0.0069 -0.2572
 8725SOL    HW234672   4.664   6.145   2.897  0.6206 -0.8477  0.3378
 8725SOL    HW334673   4.651   6.281   2.963  0.9599 -0.0177 -1.2514
 8725SOL    MW434674   4.683   6.200   2.962 -0.8099  0.6203  0.0160
 8726SOL     OW34675   0.753   5.396   5.355  0.2807  0.4737  0.5365
 8726SOL    HW234676   0.768   5.485   5.325  1.8790  0.2804  0.7075
 8726SOL    HW334677   0.838   5.353   5.350 -0.6477 -1.3881 -0.5937
 8726SOL    MW434678   0.766   5.402   5.351  0.2558  0.2031  0.0489
 8727SOL     OW34679   5.084   1.229   5.335 -0.1422  0.1375  0.0574
 8727SOL    HW234680   5.040   1.212   5.252  0.6185  0.4394 -0.4161
 8727SOL    HW334681   5.020   1.279   5.386  0.0513  1.6052 -1.0706
 8727SOL    MW434682   5.070   1.234   5.331 -0.3874 -0.2670  0.0769
 8728SOL     OW34683   3.442   2.684   2.205  0.0697  0.2421 -0.1102
 8728SOL    HW234684   3.520   2.735   2.229  0.3331  0.2939 -1.0559
 8728SOL    HW334685   3.476   2.612   2.152 -0.3303 -0.8085  1.0096
 8728SOL    MW434686   3.457   2.681   2.201 -0.0291  0.3614 -1.1240
 8729SOL     OW34687   3.598   5.463   3.687  0.2512  0.0493 -0.0191
 8729SOL    HW234688   3.570   5.423   3.604  0.6328 -1.8576  0.7345
 8729SOL    HW334689   3.517   5.495   3.727 -0.1104 -0.2825 -0.4802
 8729SOL    MW434690   3.583   5.462   3.681  1.0032 -0.3484  0.1423
 8730SOL     OW34691   5.307   4.866   5.565 -0.6791  0.0272 -0.1542
 8730SOL    HW234692   5.307   4.770   5.565 -0.8513  0.0166 -1.4075
 8730SOL    HW334693   5.394   4.891   5.534 -1.1706  0.2440 -1.4260
 8730SOL    MW434694   5.319   4.857   5.561 -0.6700  0.6460 -0.3289
 8731SOL     OW34695   2.830   3.712   5.273 -0.1131 -0.0398 -0.3456
 8731SOL    HW234696   2.825   3.645   5.205 -0.3893 -2.0112  1.4822
 8731SOL    HW334697   2.898   3.680   5.332  0.4306  1.8293  0.1098
 8731SOL    MW434698   2.838   3.699   5.272  0.0915  0.1451  0.0560
 8732SOL     OW34699   6.028   3.990   0.134  0.5779 -0.1987 -0.1142
 8732SOL    HW234700   6.006   3.915   0.189 -0.4235  0.6528  0.6779
 8732SOL    HW334701   6.117   4.013   0.161  0.0151  0.3596  1.3633
 8732SOL    MW434702   6.037   3.983   0.145 -0.8354  0.0227  0.3159
 8733SOL     OW34703   0.629   5.868   0.671  0.2430  0.6033 -0.2598
 8733SOL    HW234704   0.559   5.868   0.606  0.0069  0.8579 -0.0088
 8733SOL    HW334705   0.585   5.845   0.753  0.6610 -0.4487 -0.3150
 8733SOL    MW434706   0.614   5.865   0.674  0.2887 -0.7196 -0.1287
 8734SOL     OW34707   1.755   1.758   4.157 -0.8296 -0.3673 -0.0003
 8734SOL    HW234708   1.771   1.665   4.173 -0.6120 -0.0743  1.6443
 8734SOL    HW334709   1.691   1.783   4.224  0.5211  1.0725  0.8299
 8734SOL    MW434710   1.749   1.749   4.168  1.0070  0.3119  0.1005
 8735SOL     OW34711   5.139   2.742   0.716  0.1673 -0.0977  0.1440
 8735SOL    HW234712   5.232   2.741   0.693  0.5006  0.2633  1.4009
 8735SOL    HW334713   5.117   2.835   0.720  0.0195 -0.1563  0.8202
 8735SOL    MW434714   5.149   2.754   0.714  0.1878  0.2194 -0.0880
 8736SOL     OW34715   3.416   4.944   6.126  0.1215 -0.1970 -0.3464
 8736SOL    HW234716   3.324   4.965   6.139  0.6458  3.3887 -1.4008
 8736SOL    HW334717   3.429   4.953   6.032  1.6596  0.0588 -0.1332
 8736SOL    MW434718   3.406   4.948   6.115  0.3144 -0.0963  0.1534
 8737SOL     OW34719   0.736   1.464   3.615 -0.6432 -0.5264  0.1569
 8737SOL    HW234720   0.673   1.528   3.649 -1.6185 -1.5778  0.3929
 8737SOL    HW334721   0.757   1.409   3.690  2.1349  0.9768  0.5976
 8737SOL    MW434722   0.730   1.465   3.629 -0.2065 -0.1440 -0.4837
 8738SOL     OW34723   4.466   3.341   0.630 -0.1540  0.4249 -0.1536
 8738SOL    HW234724   4.525   3.344   0.705  1.3936  0.4034 -1.3167
 8738SOL    HW334725   4.466   3.249   0.602 -2.6562 -0.0768  1.2328
 8738SOL    MW434726   4.474   3.329   0.636 -0.0513 -0.0370 -0.0577
 8739SOL     OW34727   5.353   2.652   4.412 -0.1387 -0.3356  0.0004
 8739SOL    HW234728   5.398   2.713   4.353 -0.9712  0.6768  0.3586
 8739SOL    HW334729   5.421   2.592   4.443  0.8245  0.7346  0.0237
 8739SOL    MW434730   5.368   2.652   4.408 -0.8611 -0.2603 -0.5872
 8740SOL     OW34731   4.890   0.301   6.097  0.0234 -0.0163  0.4426
 8740SOL    HW234732   4.943   0.317   6.019 -1.1186 -0.3347 -0.4216
 8740SOL    HW334733   4.845   0.384   6.112  0.3378  0.0850  0.8565
 8740SOL    MW434734   4.891   0.314   6.089 -0.7299  0.2192  0.3123
 8741SOL     OW34735   4.400   3.649   5.041  0.1179  0.3406  0.3231
 8741SOL    HW234736   4.382   3.615   5.128 -2.6298 -1.1552 -0.6827
 8741SOL    HW334737   4.382   3.743   5.047 -0.1375  0.2360  1.3231
 8741SOL    MW434738   4.395   3.657   5.053  0.7629  0.0370 -0.0552
 8742SOL     OW34739   5.476   5.385   5.691  0.4652 -0.6325 -0.3303
 8742SOL    HW234740   5.454   5.463   5.741 -3.4515 -1.1784 -0.8950
 8742SOL    HW334741   5.567   5.399   5.664  1.0974  2.0061  2.5289
 8742SOL    MW434742   5.485   5.397   5.694  0.7610  0.6185  0.2221
 8743SOL     OW34743   4.719   1.046   1.492  0.4927 -0.0726 -0.2029
 8743SOL    HW234744   4.642   1.091   1.528 -0.0623 -0.2382 -1.1416
 8743SOL    HW334745   4.708   0.954   1.517 -0.2645 -0.3176 -1.3641
 8743SOL    MW434746   4.707   1.040   1.500  0.4639  0.7529  0.7191
 8744SOL     OW34747   0.057   1.516   5.939  0.1114  0.1629  0.1788
 8744SOL    HW234748   0.129   1.491   5.997 -0.2067 -0.9528  0.1018
 8744SOL    HW334749   0.054   1.612   5.946 -0.2256  0.0480  2.4017
 8744SOL    MW434750   0.066   1.526   5.948 -0.5594 -0.0191 -0.5756
 8745SOL     OW34751   0.904   2.062   4.185  0.1431  0.2920  0.5025
 8745SOL    HW234752   0.878   1.970   4.183 -0.1100  0.3447  1.1278
 8745SOL    HW334753   0.956   2.071   4.265  0.7165  0.5544  0.1091
 8745SOL    MW434754   0.907   2.051   4.195  0.2898  0.8873  0.3636
 8746SOL     OW34755   6.070   0.103   2.521 -0.0333 -0.0933  0.1744
 8746SOL    HW234756   6.059   0.075   2.430  0.1071  0.3418  0.0217
 8746SOL    HW334757   5.991   0.154   2.540 -0.6068 -1.1479  0.6659
 8746SOL    MW434758   6.058   0.106   2.511  0.0497  0.8677 -0.0524
 8747SOL     OW34759   1.097   2.647   2.334 -0.4518 -0.3403 -0.1341
 8747SOL    HW234760   1.098   2.742   2.323 -1.6715 -0.0186  2.0014
 8747SOL    HW334761   1.012   2.620   2.299  0.9209 -1.1061 -3.2358
 8747SOL    MW434762   1.086   2.656   2.328 -0.1910 -0.0501  0.2635
 8748SOL     OW34763   3.746   2.189   1.468 -0.3120 -0.5126  0.2332
 8748SOL    HW234764   3.804   2.130   1.517  0.3314  0.0979  0.2329
 8748SOL    HW334765   3.793   2.204   1.386 -0.5137 -0.0739  0.1996
 8748SOL    MW434766   3.760   2.183   1.463 -0.2186 -0.7591 -0.5636
 8749SOL     OW34767   5.471   1.599   1.832 -0.2447  0.0538 -0.1806
 8749SOL    HW234768   5.433   1.686   1.836  0.6172  0.5131 -1.3851
 8749SOL    HW334769   5.459   1.571   1.741  1.2345 -0.2487 -0.3103
 8749SOL    MW434770   5.465   1.607   1.820 -0.4401 -0.1703  0.2756
 8750SOL     OW34771   1.812   6.085   0.921 -0.2680 -0.7745  0.6175
 8750SOL    HW234772   1.829   6.037   0.841  2.1339 -0.6323  0.9454
 8750SOL    HW334773   1.852   6.171   0.907 -3.5256  0.8739  0.4386
 8750SOL    MW434774   1.820   6.090   0.909 -0.1041  0.0149  0.2135
 8751SOL     OW34775   1.076   0.749   3.846  0.1251  0.2801 -0.1296
 8751SOL    HW234776   1.113   0.753   3.757 -1.1331 -1.0696 -0.7603
 8751SOL    HW334777   0.984   0.770   3.834 -0.3249 -1.1145  0.6578
 8751SOL    MW434778   1.069   0.752   3.832  0.3432 -0.3549  0.4150
 8752SOL     OW34779   5.225   1.870   6.320 -0.0310 -0.2400 -0.5059
 8752SOL    HW234780   5.241   1.792   6.372 -0.7707 -0.5502 -0.7243
 8752SOL    HW334781   5.130   1.881   6.323 -0.1340 -0.5007 -2.1133
 8752SOL    MW434782   5.214   1.861   6.327  0.4913  0.0744  0.1202
 8753SOL     OW34783   3.791   2.495   1.993 -0.2380 -0.5828  0.4294
 8753SOL    HW234784   3.801   2.429   1.924 -0.2674 -0.4876  0.3336
 8753SOL    HW334785   3.698   2.490   2.018 -0.0816 -1.0937  0.9432
 8753SOL    MW434786   3.780   2.486   1.987  0.0227 -0.0943  0.1684
 8754SOL     OW34787   4.705   2.573   1.129 -0.0901 -0.0468 -0.9987
 8754SOL    HW234788   4.750   2.648   1.089  0.1668 -0.2457 -1.0822
 8754SOL    HW334789   4.614   2.601   1.137 -0.0760  0.1165 -1.4224
 8754SOL    MW434790   4.699   2.587   1.125  0.0058 -0.2857  0.2891
 8755SOL     OW34791   5.368   1.805   5.470  0.1946 -0.4809  0.0324
 8755SOL    HW234792   5.339   1.750   5.543  0.7323 -0.5482  0.1983
 8755SOL    HW334793   5.384   1.891   5.509 -1.5846  0.0738 -0.4054
 8755SOL    MW434794   5.366   1.809   5.485 -0.3901 -0.4597 -0.3613
 8756SOL     OW34795   6.361   5.924   4.888 -0.0521  0.0701 -0.0953
 8756SOL    HW234796   6.277   5.965   4.910 -0.0746 -0.5879  1.1724
 8756SOL    HW334797   6.422   5.959   4.953  0.0649 -1.3740  0.6176
 8756SOL    MW434798   6.358   5.934   4.900  0.3556  0.3011 -0.1595
 8757SOL     OW34799   2.748   5.794   4.632  0.1160  0.3026  0.1007
 8757SOL    HW234800   2.792   5.836   4.559  0.2616  1.0015  0.5799
 8757SOL    HW334801   2.815   5.738   4.672 -0.2616 -0.9646 -0.9478
 8757SOL    MW434802   2.762   5.792   4.628  0.0922 -0.5462 -0.5230
 8758SOL     OW34803   4.562   4.264   6.302  0.5763  0.1933  0.3369
 8758SOL    HW234804   4.633   4.201   6.300 -0.0017 -0.4681 -1.6089
 8758SOL    HW334805   4.534   4.272   6.211 -2.0637  0.1510  1.0609
 8758SOL    MW434806   4.567   4.257   6.290  0.4820  0.7106 -0.4701
 8759SOL     OW34807   5.320   4.397   6.265  0.1251 -0.0705  0.0462
 8759SOL    HW234808   5.253   4.464   6.257 -0.2766 -0.4656  0.0753
 8759SOL    HW334809   5.392   4.429   6.211 -0.3914 -0.0275 -0.6212
 8759SOL    MW434810   5.321   4.410   6.257 -0.3105  0.2120 -0.3968
 8760SOL     OW34811   0.590   5.157   4.174 -0.1326  0.5407  0.0040
 8760SOL    HW234812   0.594   5.174   4.268 -0.5961 -0.0791  0.1451
 8760SOL    HW334813   0.671   5.111   4.154  0.2658  1.2378 -0.0311
 8760SOL    MW434814   0.601   5.153   4.184  0.4311 -0.4007 -0.1693
 8761SOL     OW34815   3.758   1.472   4.934 -0.0188  0.7358  0.2170
 8761SOL    HW234816   3.772   1.402   4.870 -0.3015  1.0994 -0.2473
 8761SOL    HW334817   3.732   1.548   4.882  1.0370  1.4074  0.6509
 8761SOL    MW434818   3.756   1.473   4.919  0.6595  0.1925  0.1326
 8762SOL     OW34819   5.254   3.323   4.663 -0.2658  0.4996  0.0230
 8762SOL    HW234820   5.200   3.250   4.692 -2.4354  1.5964 -1.0168
 8762SOL    HW334821   5.331   3.281   4.623 -2.3965 -1.3797 -2.4266
 8762SOL    MW434822   5.257   3.308   4.661  0.7640 -0.2342 -0.2436
 8763SOL     OW34823   3.902   2.975   5.469  0.1573  0.2085 -0.1021
 8763SOL    HW234824   3.957   2.943   5.540  1.6447 -0.6347 -1.5755
 8763SOL    HW334825   3.815   2.985   5.509  0.8830 -0.4562  1.7517
 8763SOL    MW434826   3.898   2.972   5.484 -0.4602  0.1307  0.6179
 8764SOL     OW34827   2.707   0.354   4.966  0.1932  0.7548  0.6457
 8764SOL    HW234828   2.717   0.449   4.954 -1.4874  1.1498  1.9627
 8764SOL    HW334829   2.779   0.316   4.916  1.2992  2.7500  0.6136
 8764SOL    MW434830   2.718   0.362   4.958  0.0332  0.5031 -0.2818
 8765SOL     OW34831   1.527   3.308   0.355 -0.0180  0.3598  0.0359
 8765SOL    HW234832   1.487   3.245   0.415 -1.3764  1.9232  0.8528
 8765SOL    HW334833   1.601   3.261   0.317  0.0567 -1.1549  1.8888
 8765SOL    MW434834   1.532   3.294   0.358  0.1317 -1.1177  0.6457
 8766SOL     OW34835   1.086   6.096   3.733 -0.3419 -0.1019 -0.0157
 8766SOL    HW234836   1.011   6.073   3.679 -0.7288  1.7601 -0.3427
 8766SOL    HW334837   1.051   6.156   3.799  0.2254 -1.8687  1.9869
 8766SOL    MW434838   1.072   6.101   3.735 -0.9871 -0.5454 -0.4395
 8767SOL     OW34839   4.188   0.506   3.002 -0.8421 -0.4859 -0.0262
 8767SOL    HW234840   4.173   0.488   2.909  0.0888 -0.8812 -0.1066
 8767SOL    HW334841   4.283   0.517   3.010 -0.9530 -0.0455  0.8089
 8767SOL    MW434842   4.199   0.505   2.991  0.2487  0.0744  0.1146
 8768SOL     OW34843   2.069   0.599   3.074 -0.1563 -0.5590  0.2740
 8768SOL    HW234844   2.059   0.628   2.984 -2.0684  2.0253  1.2180
 8768SOL    HW334845   2.160   0.568   3.079  0.1529 -0.3117 -2.3514
 8768SOL    MW434846   2.080   0.599   3.063 -0.3758 -1.0316 -0.1614
 8769SOL     OW34847   3.575   6.230   5.009  0.5692 -0.1810  0.4261
 8769SOL    HW234848   3.602   6.305   4.956  0.9453 -0.2381  0.5394
 8769SOL    HW334849   3.522   6.267   5.079 -0.7548 -0.1872 -0.5273
 8769SOL    MW434850   3.571   6.245   5.011  0.3915 -0.4680 -0.1725
 8770SOL     OW34851   4.904   4.887   4.051  0.2781 -0.2209 -0.2810
 8770SOL    HW234852   4.810   4.884   4.038  0.1652  0.3257  0.3434
 8770SOL    HW334853   4.915   4.914   4.142  1.0288  1.3343 -0.7921
 8770SOL    MW434854   4.893   4.890   4.061  0.3576  0.0808 -0.3186
 8771SOL     OW34855   3.927   4.145   4.664  0.4481 -1.1162  0.0833
 8771SOL    HW234856   3.862   4.128   4.733 -1.1111  1.1690 -0.6797
 8771SOL    HW334857   3.878   4.194   4.598  2.8565  0.2651 -0.7863
 8771SOL    MW434858   3.912   4.149   4.664 -0.5286  0.2142 -0.4269
 8772SOL     OW34859   1.314   4.934   6.309  0.0757 -0.1737 -0.2604
 8772SOL    HW234860   1.305   5.009   6.367  0.5176 -0.0789 -0.3139
 8772SOL    HW334861   1.408   4.924   6.297  0.0559 -1.1731  0.3195
 8772SOL    MW434862   1.325   4.943   6.315 -0.1155 -0.1394  0.2442
 8773SOL     OW34863   5.057   1.461   1.140  0.1351  0.2289 -0.2691
 8773SOL    HW234864   5.121   1.471   1.069  1.6479 -0.6802  0.9271
 8773SOL    HW334865   5.094   1.395   1.198 -3.0992 -2.3675 -0.8437
 8773SOL    MW434866   5.070   1.454   1.138 -0.2025 -0.0262  0.0857
 8774SOL     OW34867   3.339   3.248   1.027  0.5064 -0.1234  0.0038
 8774SOL    HW234868   3.381   3.171   1.065  0.9282 -0.0846 -0.3813
 8774SOL    HW334869   3.358   3.243   0.933 -0.6591 -0.3043 -0.2480
 8774SOL    MW434870   3.347   3.237   1.019  0.4341  0.2214 -0.1436
 8775SOL     OW34871   5.129   1.054   2.205 -0.1414  0.2769 -0.2976
 8775SOL    HW234872   5.197   1.074   2.141  0.8231 -0.1449  0.5828
 8775SOL    HW334873   5.146   1.113   2.278 -1.2152  0.7286 -0.3874
 8775SOL    MW434874   5.140   1.064   2.206  0.1515  0.0042  0.0919
 8776SOL     OW34875   1.917   4.306   6.310 -0.2842 -0.9686  0.2083
 8776SOL    HW234876   1.953   4.218   6.307  0.0722 -0.8587  0.9347
 8776SOL    HW334877   1.979   4.356   6.363 -1.3195 -0.6918  1.2179
 8776SOL    MW434878   1.930   4.301   6.316  0.9386 -0.2806 -0.1715
 8777SOL     OW34879   0.739   3.730   0.817  0.4795  0.6183  1.0363
 8777SOL    HW234880   0.824   3.726   0.773  0.3734  0.2491  0.8608
 8777SOL    HW334881   0.714   3.823   0.814  1.3427  0.8990  1.9820
 8777SOL    MW434882   0.747   3.742   0.811 -0.0865  0.3539  0.7113
 8778SOL     OW34883   0.878   3.790   4.337  0.3796 -0.1213  0.1695
 8778SOL    HW234884   0.832   3.858   4.387  3.3606  1.1618  1.3737
 8778SOL    HW334885   0.855   3.808   4.246 -0.5221  1.2125  0.6346
 8778SOL    MW434886   0.869   3.801   4.331  0.5081 -0.1183  0.2096
 8779SOL     OW34887  -0.003   3.956   3.185 -0.0567  0.5341 -0.1602
 8779SOL    HW234888   0.065   3.905   3.230  0.3377  0.3612 -0.9337
 8779SOL    HW334889  -0.046   3.894   3.127  0.4170  1.0657 -1.1016
 8779SOL    MW434890   0.000   3.941   3.184 -0.0927  0.5166  0.3458
 8780SOL     OW34891   3.618   3.325   0.596  0.0559 -0.0824  0.1588
 8780SOL    HW234892   3.539   3.303   0.646 -0.1220  0.6326  0.2063
 8780SOL    HW334893   3.680   3.357   0.662 -0.3258  1.2649 -0.1003
 8780SOL    MW434894   3.616   3.326   0.611 -0.3887 -0.2778  0.4559
 8781SOL     OW34895   2.328   1.381   0.140 -0.4900 -0.6319 -0.0814
 8781SOL    HW234896   2.402   1.323   0.159  0.5063  0.3126 -0.8923
 8781SOL    HW334897   2.261   1.324   0.102  0.6427 -1.1949 -1.3081
 8781SOL    MW434898   2.329   1.366   0.138  0.5565  0.0161  0.2495
 8782SOL     OW34899   0.427   1.628   3.177 -0.4928  0.2093 -0.2062
 8782SOL    HW234900   0.359   1.696   3.174  0.6911  1.4297 -0.1559
 8782SOL    HW334901   0.420   1.585   3.092  0.2630  1.9583 -1.2076
 8782SOL    MW434902   0.417   1.631   3.165 -0.3874 -0.2100 -0.3323
 8783SOL     OW34903   3.419   2.012   2.453  0.1645 -0.2923 -0.0007
 8783SOL    HW234904   3.331   2.010   2.491 -0.4014 -1.7445 -1.2710
 8783SOL    HW334905   3.457   2.093   2.486 -1.5148  0.2058  0.8605
 8783SOL    MW434906   3.412   2.022   2.463 -0.2873 -0.0561 -0.1749
 8784SOL     OW34907   0.793   4.483   0.824  0.0005 -0.0537 -0.0493
 8784SOL    HW234908   0.714   4.449   0.866  1.3768 -0.9495  1.9800
 8784SOL    HW334909   0.839   4.529   0.894  1.1520  0.7334 -1.2693
 8784SOL    MW434910   0.788   4.485   0.839 -0.0211  0.2170 -0.6040
 8785SOL     OW34911   2.864   2.347   5.937 -0.3746  0.0957  0.1280
 8785SOL    HW234912   2.845   2.382   6.025  0.8268 -0.5642  0.6669
 8785SOL    HW334913   2.959   2.357   5.927 -0.3682 -0.7158 -0.7162
 8785SOL    MW434914   2.874   2.353   5.947 -0.0109  0.0998  0.6587
 8786SOL     OW34915   3.306   3.139   6.086  0.1518  0.3297  0.1550
 8786SOL    HW234916   3.216   3.121   6.113 -0.1876  2.1108  0.2879
 8786SOL    HW334917   3.355   3.148   6.168 -0.1025  1.9278  0.1618
 8786SOL    MW434918   3.301   3.137   6.100 -0.1208  0.3292  0.0310
 8787SOL     OW34919   5.869   4.917   5.403 -0.4996 -0.1173 -0.0057
 8787SOL    HW234920   5.774   4.917   5.414 -0.4739  0.0762  0.2444
 8787SOL    HW334921   5.902   4.886   5.487 -0.3204  0.5669  0.1833
 8787SOL    MW434922   5.861   4.913   5.416 -0.0610 -0.5224  0.0292
 8788SOL     OW34923   3.821   2.022   3.759  0.1278  0.0356 -0.0755
 8788SOL    HW234924   3.792   2.030   3.668 -0.7243 -0.5300  0.1391
 8788SOL    HW334925   3.828   1.928   3.774  0.7842  0.1353  0.2896
 8788SOL    MW434926   3.818   2.011   3.749 -0.1600  0.0551  0.0153
 8789SOL     OW34927   4.682   0.714   5.864  0.1590  0.1779  0.2395
 8789SOL    HW234928   4.609   0.771   5.840  0.0438  0.3869  1.0531
 8789SOL    HW334929   4.760   0.768   5.851  0.0903  0.3264  0.4386
 8789SOL    MW434930   4.682   0.728   5.859 -0.0797 -0.0738 -0.1097
 8790SOL     OW34931   3.375   1.828   1.846  0.4759  0.3588  0.3311
 8790SOL    HW234932   3.381   1.733   1.838  1.0943  0.2277  2.0113
 8790SOL    HW334933   3.347   1.858   1.759  0.6032 -1.3159 -0.3150
 8790SOL    MW434934   3.372   1.820   1.833  0.5878  0.2117  0.1907
 8791SOL     OW34935   3.927   3.365   6.160  0.2387  0.0267 -0.1668
 8791SOL    HW234936   4.002   3.374   6.102 -0.0224  1.3255 -0.3273
 8791SOL    HW334937   3.962   3.382   6.247  0.0335  1.2851 -0.3098
 8791SOL    MW434938   3.942   3.368   6.164  0.5679  0.4320 -0.5521
 8792SOL     OW34939   5.797   3.228   1.355  0.6418 -0.6484 -0.3224
 8792SOL    HW234940   5.867   3.219   1.420 -0.8700 -0.3951  1.4150
 8792SOL    HW334941   5.805   3.318   1.324  1.6305 -0.8927 -0.8295
 8792SOL    MW434942   5.807   3.238   1.360  0.8444  0.4536  0.6853
 8793SOL     OW34943   3.309   4.290   5.184  0.3063 -0.2661 -0.5985
 8793SOL    HW234944   3.229   4.241   5.164  0.1153  0.5404 -2.0256
 8793SOL    HW334945   3.278   4.378   5.207  0.5164 -1.1226  3.6846
 8793SOL    MW434946   3.294   4.295   5.184  0.4957  0.3013  0.0303
 8794SOL     OW34947   6.236   3.004   2.821  0.0896  0.5703 -0.2838
 8794SOL    HW234948   6.313   3.009   2.878 -0.6466 -2.6513  1.3054
 8794SOL    HW334949   6.269   2.974   2.737  0.6650 -0.2661  0.2286
 8794SOL    MW434950   6.250   3.000   2.818 -0.6671 -0.8068 -0.0471
 8795SOL     OW34951   6.410   0.501   1.506 -0.4751 -0.4275 -0.2106
 8795SOL    HW234952   6.381   0.589   1.531  2.5255  0.7520 -0.3919
 8795SOL    HW334953   6.397   0.447   1.584 -0.1613  0.7897  0.7076
 8795SOL    MW434954   6.405   0.506   1.519  0.0016 -0.5004 -0.2899
 8796SOL     OW34955   1.533   2.835   1.097  0.4029 -0.3657  0.2110
 8796SOL    HW234956   1.524   2.771   1.027 -0.0344 -0.2504  0.1560
 8796SOL    HW334957   1.592   2.793   1.160 -0.6550 -1.2629  0.6538
 8796SOL    MW434958   1.539   2.821   1.096 -0.1716 -0.1126 -0.3071
 8797SOL     OW34959   2.228   0.630   4.577  0.0406  0.5968 -0.5651
 8797SOL    HW234960   2.142   0.647   4.615 -0.5891 -1.5847 -0.9107
 8797SOL    HW334961   2.226   0.674   4.492 -0.8098  0.3852 -0.6563
 8797SOL    MW434962   2.216   0.638   4.570  0.9432  0.4824 -0.8426
 8798SOL     OW34963   4.650   0.769   3.897 -0.0872  0.6124 -0.3400
 8798SOL    HW234964   4.628   0.679   3.918 -0.8921  0.7367 -0.6074
 8798SOL    HW334965   4.624   0.820   3.974  0.5755  0.5933 -0.0986
 8798SOL    MW434966   4.644   0.764   3.910 -0.7504  0.2767 -0.0671
 8799SOL     OW34967   1.686   1.568   3.211 -0.7750 -0.4546 -0.0905
 8799SOL    HW234968   1.726   1.502   3.154  0.1232 -0.9853  1.0964
 8799SOL    HW334969   1.740   1.567   3.290 -1.3414  1.0157  0.3556
 8799SOL    MW434970   1.699   1.559   3.214  0.2796 -0.0991  0.2126
 8800SOL     OW34971   3.845   1.796   2.451  0.2665 -0.2980 -0.1327
 8800SOL    HW234972   3.855   1.708   2.414 -0.9135 -0.5939  0.2171
 8800SOL    HW334973   3.754   1.799   2.481  0.3974  0.9250  0.1737
 8800SOL    MW434974   3.834   1.785   2.450 -0.2729  0.4800  0.2082
 8801SOL     OW34975   5.651   5.078   1.375  0.1152  0.3591 -0.6280
 8801SOL    HW234976   5.690   5.052   1.292 -0.4822  0.8364 -1.0659
 8801SOL    HW334977   5.560   5.100   1.353 -0.3405 -0.4785  0.3246
 8801SOL    MW434978   5.644   5.077   1.361  0.3091  0.2725  0.0545
 8802SOL     OW34979   0.164   0.354   3.429 -0.1073  0.4503  0.0572
 8802SOL    HW234980   0.112   0.335   3.508  1.9039  0.0074  1.3301
 8802SOL    HW334981   0.175   0.449   3.430  0.2614  0.4028  0.5390
 8802SOL    MW434982   0.158   0.364   3.439  0.3412 -0.3801 -0.1315
 8803SOL     OW34983   1.474   4.181   3.235 -0.0229  0.5332 -0.1203
 8803SOL    HW234984   1.505   4.095   3.265 -0.8662 -0.2108 -1.3126
 8803SOL    HW334985   1.539   4.242   3.269  1.2732 -0.7065 -0.2622
 8803SOL    MW434986   1.487   4.177   3.243 -0.7951 -0.1412 -0.4643
 8804SOL     OW34987   5.231   3.641   3.667 -0.0620 -0.1131  0.6719
 8804SOL    HW234988   5.308   3.694   3.646 -1.9308  2.0937 -1.2353
 8804SOL    HW334989   5.157   3.701   3.656 -2.4616 -3.2392 -2.5212
 8804SOL    MW434990   5.231   3.656   3.663  0.2149 -0.4823 -0.2726
 8805SOL     OW34991   4.636   2.695   5.127 -0.6514 -0.2456 -0.3983
 8805SOL    HW234992   4.648   2.659   5.215  0.5682  0.5617 -0.2107
 8805SOL    HW334993   4.568   2.760   5.137 -1.1210 -0.7532 -0.2373
 8805SOL    MW434994   4.629   2.699   5.140 -0.4087  0.1503 -0.3083
 8806SOL     OW34995   0.150   4.479   1.113 -0.4486  0.4034  0.0549
 8806SOL    HW234996   0.106   4.533   1.178 -0.0805  1.0437 -0.2160
 8806SOL    HW334997   0.209   4.423   1.164  0.3980  1.4283  0.2450
 8806SOL    MW434998   0.152   4.479   1.128  0.1378 -0.5848  0.8148
 8807SOL     OW34999   6.093   3.399   1.883 -0.3686 -0.5292 -0.5918
 8807SOL    HW235000   6.122   3.479   1.838 -0.4063  0.1441  0.5369
 8807SOL    HW335001   6.167   3.339   1.877  0.2180  0.1337 -0.2011
 8807SOL    MW435002   6.106   3.402   1.876 -0.1796 -0.6857 -0.1133
 8808SOL     OW35003   0.218   5.024   0.524  0.5764  0.0507 -0.2984
 8808SOL    HW235004   0.130   5.032   0.560  0.5810 -1.7162  0.1739
 8808SOL    HW335005   0.258   4.952   0.572  2.2948  0.8029 -0.5215
 8808SOL    MW435006   0.212   5.016   0.535 -0.7069  0.4501 -0.1549
 8809SOL     OW35007   4.910   0.832   2.734 -0.0991  0.5948 -0.5329
 8809SOL    HW235008   4.974   0.899   2.709  1.7480 -0.6318  0.6386
 8809SOL    HW335009   4.962   0.765   2.779 -2.2311 -0.4747  0.4850
 8809SOL    MW435010   4.925   0.832   2.736  0.3348 -0.7947 -0.2646
 8810SOL     OW35011   0.484   1.976   4.181 -0.1002 -0.5392 -0.5501
 8810SOL    HW235012   0.523   1.895   4.216  0.0451  0.1845  1.0402
 8810SOL    HW335013   0.390   1.963   4.190 -0.0603  0.4093  2.1145
 8810SOL    MW435014   0.477   1.964   4.187 -0.1379  0.0901  0.4944
 8811SOL     OW35015   5.600   3.510   1.765  0.3507 -0.0430 -0.1424
 8811SOL    HW235016   5.564   3.439   1.819  0.0481  1.2581  1.4563
 8811SOL    HW335017   5.531   3.576   1.764  0.6070  0.2251 -1.6560
 8811SOL    MW435018   5.586   3.509   1.772  0.0718  0.3941  0.1847
 8812SOL     OW35019   0.000   5.551   0.903 -0.4946 -0.4610 -0.5512
 8812SOL    HW235020  -0.030   5.580   0.989 -0.0495 -0.2775 -0.4511
 8812SOL    HW335021   0.001   5.630   0.850 -2.3844 -0.8398 -1.2350
 8812SOL    MW435022  -0.004   5.565   0.908  0.3389  0.2992 -0.4571
 8813SOL     OW35023   3.502   5.495   5.461  0.3715  0.1463  0.3337
 8813SOL    HW235024   3.506   5.553   5.385  0.1109 -2.5003 -1.8234
 8813SOL    HW335025   3.594   5.487   5.489  0.5194  0.8140  0.0660
 8813SOL    MW435026   3.515   5.502   5.455 -0.7085 -0.2200  0.2184
 8814SOL     OW35027   1.317   3.184   4.560  0.3311 -0.6699  0.0049
 8814SOL    HW235028   1.226   3.212   4.566  0.1513 -1.2421 -0.0040
 8814SOL    HW335029   1.331   3.132   4.640  1.5845  2.0398  1.6735
 8814SOL    MW435030   1.307   3.181   4.571  0.2059  0.3323  0.7733
 8815SOL     OW35031   3.102   6.356   4.298  0.4981  0.1596  0.0304
 8815SOL    HW235032   3.065   6.378   4.212  0.2380  0.7841  0.2994
 8815SOL    HW335033   3.195   6.340   4.280  0.5019  0.5693 -0.3217
 8815SOL    MW435034   3.110   6.357   4.284 -0.1538  0.4661 -0.3430
 8816SOL     OW35035   5.230   0.488   4.234  0.2166 -0.0521  0.2840
 8816SOL    HW235036   5.184   0.566   4.264  0.4572  1.0064 -1.9274
 8816SOL    HW335037   5.166   0.443   4.179  0.2258 -1.2212  1.1901
 8816SOL    MW435038   5.215   0.492   4.230 -0.3750 -0.0432  0.0903
 8817SOL     OW35039   0.351   2.206   0.487 -0.3189  0.4115  0.0639
 8817SOL    HW235040   0.299   2.279   0.520  1.4818  1.4965  0.6703
 8817SOL    HW335041   0.439   2.221   0.524  0.6465 -0.8287 -1.6022
 8817SOL    MW435042   0.356   2.217   0.496 -0.2832 -0.0368 -0.2282
 8818SOL     OW35043   4.443   2.063   4.203  0.1340  0.1239 -0.0156
 8818SOL    HW235044   4.471   1.972   4.205  1.2520  0.4679  1.2091
 8818SOL    HW335045   4.460   2.092   4.113  4.0050  0.3436  0.6349
 8818SOL    MW435046   4.449   2.055   4.191  0.3881 -0.1812 -0.0518
 8819SOL     OW35047   6.085   2.439   0.225 -0.0168  0.2832 -0.1169
 8819SOL    HW235048   6.153   2.492   0.267 -0.0085 -0.7983  1.2861
 8819SOL    HW335049   6.044   2.391   0.297 -1.6058  0.1620 -1.0632
 8819SOL    MW435050   6.089   2.440   0.240 -0.2616 -0.6670 -0.2145
 8820SOL     OW35051   0.372   2.225   1.959  0.4169  0.0652  0.0778
 8820SOL    HW235052   0.390   2.183   1.875 -2.5500 -2.2329  0.4327
 8820SOL    HW335053   0.425   2.176   2.022  2.4972  1.6686 -0.3045
 8820SOL    MW435054   0.382   2.213   1.956  0.1343  0.2659  0.0321
 8821SOL     OW35055   5.197   1.291   4.451  0.6377 -0.0494 -0.2300
 8821SOL    HW235056   5.194   1.319   4.359  1.3037  0.8044 -0.0005
 8821SOL    HW335057   5.222   1.199   4.446 -1.6864 -0.7145 -0.9967
 8821SOL    MW435058   5.200   1.282   4.438 -0.3850  0.1776 -0.4604
 8822SOL     OW35059   3.375   4.548   5.346 -0.3738 -0.0461 -0.0980
 8822SOL    HW235060   3.286   4.565   5.377  0.5348  0.8980  2.2778
 8822SOL    HW335061   3.416   4.634   5.343  1.1534 -0.6477  1.3835
 8822SOL    MW435062   3.368   4.561   5.350  0.1146  0.8980  0.2325
 8823SOL     OW35063   3.595   5.712   1.071  0.5430  0.1340 -0.0261
 8823SOL    HW235064   3.631   5.748   0.990  0.3860  2.9211  1.0443
 8823SOL    HW335065   3.668   5.711   1.132 -0.2578  2.3075  1.0581
 8823SOL    MW435066   3.609   5.717   1.068  0.0789 -0.3312 -0.2565
 8824SOL     OW35067   1.953   4.497   2.939 -0.5304  0.7544 -0.2414
 8824SOL    HW235068   2.041   4.463   2.924 -0.3574  0.0744  1.9511
 8824SOL    HW335069   1.968   4.583   2.979 -0.8820  0.9674 -0.5666
 8824SOL    MW435070   1.967   4.504   2.943  0.1370  0.1187 -0.3500
 8825SOL     OW35071   1.310   1.098   1.730  0.1198  0.4929  0.1621
 8825SOL    HW235072   1.269   1.080   1.814 -1.5590 -1.1650 -0.9047
 8825SOL    HW335073   1.387   1.041   1.728  1.1470  1.7884  1.1959
 8825SOL    MW435074   1.315   1.088   1.741 -0.4474  0.0316 -0.1748
 8826SOL     OW35075   4.212   0.751   2.067 -0.0495  0.0031  0.4127
 8826SOL    HW235076   4.278   0.798   2.118 -0.6365  1.6244 -0.2431
 8826SOL    HW335077   4.260   0.681   2.023  0.7216 -0.4967  2.0021
 8826SOL    MW435078   4.227   0.748   2.068  0.2749 -0.3175  0.3768
 8827SOL     OW35079   1.499   2.873   1.394  0.3395  0.8625 -0.2018
 8827SOL    HW235080   1.408   2.895   1.371  0.4783 -0.1798 -1.8822
 8827SOL    HW335081   1.491   2.821   1.474 -0.5841  0.4152 -0.5712
 8827SOL    MW435082   1.486   2.869   1.402  0.0180  0.0679  0.0489
 8828SOL     OW35083   4.291   4.530   0.473 -0.5933  0.2008 -0.4760
 8828SOL    HW235084   4.269   4.487   0.555 -0.9976  0.1912 -0.5901
 8828SOL    HW335085   4.295   4.623   0.494  1.4004  0.0462  0.0309
 8828SOL    MW435086   4.289   4.536   0.486  0.4564 -0.2735 -0.4693
 8829SOL     OW35087   1.489   1.149   5.369  0.5804  0.5650  0.2695
 8829SOL    HW235088   1.421   1.216   5.361  0.0494 -0.1922 -2.5650
 8829SOL    HW335089   1.561   1.181   5.316 -0.4002 -1.7819 -2.7942
 8829SOL    MW435090   1.489   1.162   5.361  0.3587 -0.0847 -0.5041
 8830SOL     OW35091   0.566   3.185   3.509  0.0675 -0.5839 -0.6238
 8830SOL    HW235092   0.574   3.276   3.538  0.0232 -0.3865 -1.2089
 8830SOL    HW335093   0.477   3.160   3.532 -0.2643 -0.1380 -1.3733
 8830SOL    MW435094   0.556   3.194   3.516 -0.2701 -0.2658  0.1404
 8831SOL     OW35095   6.003   2.978   5.124 -0.3055 -0.3759 -0.4677
 8831SOL    HW235096   5.983   2.903   5.180  0.1305 -0.4948 -0.4689
 8831SOL    HW335097   5.929   3.037   5.136 -1.1765 -1.2813 -1.2978
 8831SOL    MW435098   5.991   2.976   5.133 -0.1561  0.1945  0.4018
 8832SOL     OW35099   0.084   2.259   2.009  0.5111 -0.2567 -0.9669
 8832SOL    HW235100   0.069   2.332   2.069  0.6350 -0.0873 -1.1434
 8832SOL    HW335101   0.164   2.282   1.962 -0.9021  0.8012 -2.9789
 8832SOL    MW435102   0.093   2.272   2.011  0.3047 -0.1039  0.5841
 8833SOL     OW35103   3.678   1.543   5.199 -0.4637  0.0174  0.1323
 8833SOL    HW235104   3.667   1.501   5.113 -0.3652 -0.4756  0.3566
 8833SOL    HW335105   3.597   1.524   5.245 -0.3629 -0.0379  0.2852
 8833SOL    MW435106   3.666   1.535   5.194  0.1260  0.4163 -0.5789
 8834SOL     OW35107   1.317   2.913   5.706 -0.2817  0.1526 -0.5848
 8834SOL    HW235108   1.401   2.892   5.749 -0.3228 -2.9121 -1.7615
 8834SOL    HW335109   1.251   2.886   5.770 -0.3311 -0.7541 -0.9997
 8834SOL    MW435110   1.320   2.906   5.720 -0.1280 -0.6448  0.5110
 8835SOL     OW35111   2.617   4.785   0.178 -0.1103 -0.1830 -0.3839
 8835SOL    HW235112   2.585   4.749   0.261  3.2403 -1.2296  0.5877
 8835SOL    HW335113   2.537   4.805   0.129 -2.2397 -0.1575  2.7759
 8835SOL    MW435114   2.602   4.783   0.183  0.3636 -1.0998 -0.2684
 8836SOL     OW35115   2.356   0.208   4.671 -0.8755  0.1161  0.2251
 8836SOL    HW235116   2.380   0.283   4.726  0.5026 -0.5994  0.6371
 8836SOL    HW335117   2.306   0.246   4.599  1.6900  1.7680 -0.8204
 8836SOL    MW435118   2.353   0.223   4.669  0.7376  0.1131  0.0856
 8837SOL     OW35119   5.531   0.362   0.406  0.3410  0.2616 -0.7164
 8837SOL    HW235120   5.535   0.448   0.448 -0.5781  0.2950 -0.6853
 8837SOL    HW335121   5.440   0.353   0.377 -0.1211 -1.5572  1.0872
 8837SOL    MW435122   5.520   0.372   0.408 -0.5271  0.5089 -0.8406
 8838SOL     OW35123   4.248   2.993   5.614 -0.1996 -0.6336 -0.3861
 8838SOL    HW235124   4.322   2.935   5.632 -0.5402 -0.1886  3.1498
 8838SOL    HW335125   4.171   2.935   5.617 -0.3402 -0.4050  0.6692
 8838SOL    MW435126   4.248   2.977   5.616 -0.0340 -0.1204 -0.4567
 8839SOL     OW35127   1.879   0.859   0.811  0.3775 -0.2107  0.9562
 8839SOL    HW235128   1.848   0.924   0.874 -0.5242 -0.2376  0.5498
 8839SOL    HW335129   1.950   0.904   0.764  1.3730 -0.3484  2.2817
 8839SOL    MW435130   1.884   0.874   0.813 -0.2864 -0.4350 -0.3117
 8840SOL     OW35131   2.123   5.564   2.154  0.3008 -0.2395  0.2937
 8840SOL    HW235132   2.155   5.527   2.072  0.4537  0.5928 -0.0317
 8840SOL    HW335133   2.035   5.595   2.133 -0.1182 -1.0624  0.7600
 8840SOL    MW435134   2.115   5.563   2.140  0.2640 -0.3705  0.1611
 8841SOL     OW35135   3.526   5.613   5.857  0.4333 -0.1706  0.3337
 8841SOL    HW235136   3.546   5.693   5.906  2.6315  1.1138 -2.3642
 8841SOL    HW335137   3.601   5.556   5.873 -0.5522 -1.2645  1.2633
 8841SOL    MW435138   3.539   5.616   5.866  0.2394  0.1784  0.1433
 8842SOL     OW35139   1.052   0.024   4.505  0.5905 -0.7189  0.0410
 8842SOL    HW235140   1.028   0.113   4.478 -0.5809 -0.3215  2.2319
 8842SOL    HW335141   1.146   0.019   4.487  0.5881  0.7823 -0.5513
 8842SOL    MW435142   1.062   0.035   4.499 -0.0304  0.1456 -0.0602
 8843SOL     OW35143   4.318   3.725   2.282 -0.5717  0.2007  0.4480
 8843SOL    HW235144   4.347   3.644   2.242 -1.3894  0.8440 -1.5366
 8843SOL    HW335145   4.240   3.701   2.332 -0.9289 -0.2067 -0.2946
 8843SOL    MW435146   4.312   3.711   2.284  0.4786  0.0495  0.2373
 8844SOL     OW35147   4.095   2.814   1.095  0.6381 -0.0787 -0.5514
 8844SOL    HW235148   4.003   2.817   1.071  0.9219 -0.1809 -1.7492
 8844SOL    HW335149   4.135   2.885   1.044  1.1567  0.2519  0.2830
 8844SOL    MW435150   4.088   2.824   1.085  0.0122  0.3620  0.2610
 8845SOL     OW35151   4.408   3.650   0.233 -0.1247  0.1522  0.3206
 8845SOL    HW235152   4.455   3.568   0.243 -0.1003 -0.3614 -3.0679
 8845SOL    HW335153   4.316   3.625   0.223 -0.0374  0.4395 -1.3943
 8845SOL    MW435154   4.402   3.636   0.233  0.0404 -0.3364  0.0462
 8846SOL     OW35155   4.729   1.796   1.709  0.4664  0.0175  0.0414
 8846SOL    HW235156   4.813   1.768   1.746  1.2640  2.9304  0.7043
 8846SOL    HW335157   4.745   1.804   1.615  0.5566 -0.5307  0.0032
 8846SOL    MW435158   4.742   1.793   1.702 -0.1747  0.1404  0.3941
 8847SOL     OW35159   2.501   1.163   2.087 -0.1374  0.0786 -0.2063
 8847SOL    HW235160   2.588   1.159   2.049  1.3263  0.0160  2.8454
 8847SOL    HW335161   2.502   1.241   2.142 -2.4038  0.6457 -0.8439
 8847SOL    MW435162   2.512   1.172   2.089 -0.0226  0.0894  0.2677
 8848SOL     OW35163   2.761   4.234   4.813 -0.1545  0.9042  0.4056
 8848SOL    HW235164   2.805   4.212   4.731 -1.2860  1.6603 -0.4464
 8848SOL    HW335165   2.821   4.294   4.857  0.4065  0.6003  0.0692
 8848SOL    MW435166   2.774   4.239   4.808 -0.4409 -0.2911 -0.5595
 8849SOL     OW35167   4.504   1.289   0.395  0.1487  0.0436 -0.6515
 8849SOL    HW235168   4.418   1.295   0.438  0.3154 -1.9379  0.0289
 8849SOL    HW335169   4.560   1.245   0.458  1.5744  0.9125 -1.2667
 8849SOL    MW435170   4.500   1.284   0.409 -0.6698  0.1106 -0.1444
 8850SOL     OW35171   4.645   1.791   0.059 -0.1434 -0.0697 -0.2224
 8850SOL    HW235172   4.585   1.844   0.111  0.0780  0.2076 -0.2500
 8850SOL    HW335173   4.657   1.711   0.110  0.0480  0.1894  0.1359
 8850SOL    MW435174   4.638   1.787   0.072 -0.4601 -0.4279  0.4957
 8851SOL     OW35175   2.723   3.979   4.896  0.5052 -0.3853  0.1665
 8851SOL    HW235176   2.698   3.995   4.987 -2.4243  1.5130 -0.7981
 8851SOL    HW335177   2.749   4.065   4.863  0.7424 -0.8817 -0.9823
 8851SOL    MW435178   2.723   3.992   4.903  1.1220 -0.2397 -0.8340
 8852SOL     OW35179   2.930   2.886   5.091 -0.0810  0.0133  0.3010
 8852SOL    HW235180   2.897   2.975   5.097  3.8651  1.7094  0.2745
 8852SOL    HW335181   2.940   2.857   5.182 -0.3152  0.0624  0.3410
 8852SOL    MW435182   2.927   2.894   5.104  0.1734 -0.0755 -0.0519
 8853SOL     OW35183   5.422   4.112   5.255 -0.5212 -0.7290 -0.0196
 8853SOL    HW235184   5.334   4.095   5.220 -0.4246 -1.6381  0.1624
 8853SOL    HW335185   5.435   4.206   5.242 -1.1516 -0.7526 -0.8935
 8853SOL    MW435186   5.412   4.122   5.248  0.3852  0.1234  0.2655
 8854SOL     OW35187   5.468   6.121   0.025  0.0980 -0.1731  0.3895
 8854SOL    HW235188   5.495   6.213   0.019  1.4690 -0.5997 -0.1782
 8854SOL    HW335189   5.373   6.124   0.011  0.2172  1.0823 -0.3711
 8854SOL    MW435190   5.459   6.134   0.023 -0.4699  0.1669 -0.1577
 8855SOL     OW35191   5.844   2.102   1.120 -0.2095 -0.2057  0.0285
 8855SOL    HW235192   5.810   2.035   1.060 -0.3851 -0.2255  0.1476
 8855SOL    HW335193   5.890   2.164   1.063 -2.1032  0.8821 -0.3947
 8855SOL    MW435194   5.845   2.101   1.104 -0.4507 -0.1037  0.2751
 8856SOL     OW35195   0.556   1.592   0.868  0.4300 -0.3818  0.7786
 8856SOL    HW235196   0.486   1.657   0.861  0.1706 -0.6928  0.3852
 8856SOL    HW335197   0.594   1.588   0.780  1.8788  0.7905  1.3164
 8856SOL    MW435198   0.552   1.600   0.855 -0.0026  0.3208  0.4880
 8857SOL     OW35199   4.784   1.422   6.259 -0.3113  0.3805  0.6527
 8857SOL    HW235200   4.787   1.326   6.268 -1.4007  0.3682  1.0071
 8857SOL    HW335201   4.756   1.437   6.169 -1.6600  0.3337  1.0498
 8857SOL    MW435202   4.781   1.411   6.248  0.3749 -0.3413 -0.6772
 8858SOL     OW35203   2.880   4.158   5.560 -0.0662  0.3366 -0.9510
 8858SOL    HW235204   2.886   4.145   5.655 -0.9275 -1.2929 -1.1010
 8858SOL    HW335205   2.868   4.253   5.550 -0.1637  0.5071  0.5666
 8858SOL    MW435206   2.879   4.169   5.572  0.3034 -0.2323 -0.5205
 8859SOL     OW35207   4.792   6.410   5.547 -0.0830  0.4272 -0.1199
 8859SOL    HW235208   4.772   6.498   5.578  0.7097  1.0843 -1.3753
 8859SOL    HW335209   4.758   6.352   5.615  0.6319  1.7425  1.4439
 8859SOL    MW435210   4.785   6.414   5.560  0.2411  0.1570  0.4932
 8860SOL     OW35211   2.655   4.974   1.236 -0.7210  0.8295  0.2234
 8860SOL    HW235212   2.745   4.970   1.206 -0.1136 -0.2997  2.0228
 8860SOL    HW335213   2.608   5.019   1.166  1.0345  0.5614 -1.1934
 8860SOL    MW435214   2.660   4.980   1.223  0.8780  0.2509 -0.6628
 8861SOL     OW35215   4.204   2.109   5.210  0.0128  0.0717 -0.0656
 8861SOL    HW235216   4.198   2.038   5.147  1.4750 -0.3069  0.1730
 8861SOL    HW335217   4.152   2.180   5.172  1.0689 -0.0570 -1.8540
 8861SOL    MW435218   4.197   2.109   5.197  0.0935 -0.5710 -0.1961
 8862SOL     OW35219   1.092   4.169   3.029 -0.1521  0.5378 -0.3792
 8862SOL    HW235220   1.162   4.105   3.040 -0.5402  0.0327 -0.8025
 8862SOL    HW335221   1.126   4.231   2.965 -0.4585 -0.2583 -1.3332
 8862SOL    MW435222   1.106   4.169   3.022  0.0388  0.1378 -0.3002
 8863SOL     OW35223   1.987   0.515   4.226  0.0701 -0.3673 -0.1887
 8863SOL    HW235224   1.999   0.541   4.135  0.1935 -2.0966 -0.7092
 8863SOL    HW335225   2.017   0.590   4.277  2.5655 -0.3653 -1.5417
 8863SOL    MW435226   1.992   0.528   4.221  0.3380 -0.0881  0.2598
 8864SOL     OW35227   4.342   4.250   0.242 -0.0025 -0.0435 -0.4001
 8864SOL    HW235228   4.410   4.318   0.234  0.8163 -0.7834  0.1023
 8864SOL    HW335229   4.349   4.222   0.334 -0.1461 -0.9940 -0.6792
 8864SOL    MW435230   4.352   4.256   0.253 -0.3456 -0.1954  0.2458
 8865SOL     OW35231   1.304   5.322   3.624  0.1285  0.3414 -0.5020
 8865SOL    HW235232   1.324   5.410   3.657  1.3845  0.3551 -1.2409
 8865SOL    HW335233   1.265   5.278   3.699  2.0883  0.6553  0.7903
 8865SOL    MW435234   1.301   5.328   3.639 -0.1456  0.1111 -0.6809
 8866SOL     OW35235   6.015   2.773   0.874  0.2411  0.3163  0.5223
 8866SOL    HW235236   5.931   2.815   0.891 -2.1127 -3.4282 -0.4656
 8866SOL    HW335237   6.040   2.733   0.958 -0.6927 -1.1880  0.1164
 8866SOL    MW435238   6.007   2.773   0.887  0.1175  0.3924 -0.8894
 8867SOL     OW35239   5.238   5.103   6.410 -0.1580 -0.1495  0.0070
 8867SOL    HW235240   5.175   5.054   6.464  0.7829 -0.7093  0.6275
 8867SOL    HW335241   5.306   5.039   6.389  0.5538  0.6177 -0.0686
 8867SOL    MW435242   5.239   5.088   6.414 -0.2935  0.2395 -0.6150
 8868SOL     OW35243   0.671   1.789   2.913  0.2856 -0.3958 -0.2942
 8868SOL    HW235244   0.742   1.851   2.898 -1.0759  1.2345 -0.3132
 8868SOL    HW335245   0.663   1.785   3.009  0.7694 -1.0388 -0.2745
 8868SOL    MW435246   0.679   1.796   2.924  0.0598  0.0670 -0.4279
 8869SOL     OW35247   0.386   3.550   4.782  0.1719 -0.5703 -0.5854
 8869SOL    HW235248   0.306   3.504   4.758  0.0634 -0.1486 -1.0681
 8869SOL    HW335249   0.456   3.501   4.737 -0.0739  0.4600 -2.1703
 8869SOL    MW435250   0.385   3.537   4.773 -0.2653  0.0940  0.5728
 8870SOL     OW35251   2.654   2.033   3.330  0.2187  0.0340 -0.8111
 8870SOL    HW235252   2.589   2.046   3.261  0.2957 -0.4300 -0.9728
 8870SOL    HW335253   2.610   2.063   3.410 -0.8934 -1.9939 -0.6011
 8870SOL    MW435254   2.640   2.039   3.332  0.3674  0.2491  0.3281
 8871SOL     OW35255   1.299   4.888   2.262  0.3028  0.1616  0.2203
 8871SOL    HW235256   1.302   4.925   2.174  1.7681  0.6568  0.4558
 8871SOL    HW335257   1.383   4.843   2.272 -0.7125 -1.7921  0.5774
 8871SOL    MW435258   1.310   4.887   2.252 -0.0725  0.1607  0.3444
 8872SOL     OW35259   5.046   1.047   1.408 -0.1763  0.1698 -0.4446
 8872SOL    HW235260   4.987   1.074   1.479  0.2193  0.5019 -0.2427
 8872SOL    HW335261   5.132   1.043   1.448  0.0184  0.1585 -0.8606
 8872SOL    MW435262   5.049   1.050   1.423  0.0579  0.0319 -0.3758
 8873SOL     OW35263   3.139   1.316   4.469  0.2370 -0.8940 -0.2929
 8873SOL    HW235264   3.221   1.333   4.515 -0.0137  1.3944 -0.5678
 8873SOL    HW335265   3.166   1.288   4.382  0.8011  1.6104 -0.9840
 8873SOL    MW435266   3.154   1.314   4.464  0.0638  0.3362  0.7122
 8874SOL     OW35267   5.431   4.128   5.568  0.0211  0.1463  0.2543
 8874SOL    HW235268   5.494   4.159   5.503 -0.9718  1.7594 -0.0044
 8874SOL    HW335269   5.429   4.033   5.556  0.1684  0.3453 -1.8100
 8874SOL    MW435270   5.439   4.120   5.558 -0.3110  0.4223 -0.5521
 8875SOL     OW35271   3.825   0.262   4.302 -0.0377 -0.6685 -0.1465
 8875SOL    HW235272   3.858   0.349   4.280  0.3203 -0.6882  0.2890
 8875SOL    HW335273   3.878   0.202   4.248 -0.4663 -0.5992 -0.6420
 8875SOL    MW435274   3.837   0.265   4.292  0.3641 -0.3279  0.4344
 8876SOL     OW35275   3.612   6.231   1.298  0.6519  0.5437 -0.1748
 8876SOL    HW235276   3.576   6.153   1.256  1.0337  1.1115 -1.6116
 8876SOL    HW335277   3.684   6.258   1.241  1.4353  1.1383  1.0596
 8876SOL    MW435278   3.617   6.224   1.285  0.0238  0.1398  0.2401
 8877SOL     OW35279   3.337   5.767   2.567 -0.2011 -0.1084 -0.2217
 8877SOL    HW235280   3.301   5.820   2.495  1.4244 -1.5180 -2.1650
 8877SOL    HW335281   3.297   5.681   2.556 -0.4249 -0.1848  1.0065
 8877SOL    MW435282   3.327   5.763   2.556  0.2558 -0.3523  0.2959
 8878SOL     OW35283   0.026   5.534   4.606  0.1570  0.7446  0.1690
 8878SOL    HW235284   0.061   5.447   4.625 -0.8978  0.5797  1.5230
 8878SOL    HW335285  -0.019   5.525   4.522  0.9272  0.2549 -0.1963
 8878SOL    MW435286   0.025   5.522   4.597 -0.0131 -0.0207 -0.1673
 8879SOL     OW35287   6.148   5.589   0.376  0.3767 -0.7333 -0.0322
 8879SOL    HW235288   6.184   5.643   0.446  1.2312 -1.5996  0.2159
 8879SOL    HW335289   6.149   5.646   0.299  0.2468 -0.0556  0.4548
 8879SOL    MW435290   6.153   5.604   0.375 -0.2880  0.3956 -0.0608
 8880SOL     OW35291   0.030   3.033   3.009  0.0546 -0.3279  0.0634
 8880SOL    HW235292   0.044   2.955   3.062  0.1276 -1.6698 -1.7997
 8880SOL    HW335293   0.113   3.079   3.011 -0.6582  1.0295  3.0728
 8880SOL    MW435294   0.042   3.029   3.016 -0.2025  0.1615 -0.1506
 8881NA      NA35295   1.488   0.234   1.415  0.3012  0.3503 -0.2146
 8882NA      NA35296   2.859   5.203   1.545  0.2958 -0.4843  0.5747
 8883NA      NA35297   1.479   5.225   3.477  0.1908  0.1938 -0.2755
 8884NA      NA35298   3.901   0.680   4.290 -0.1425  0.1859 -0.0256
 8885NA      NA35299   3.473   2.998   3.002 -0.3010  0.0880  0.0879
 8886NA      NA35300   2.854   3.842   6.211  0.0839 -0.0238  0.3979
 8887NA      NA35301   6.128   0.555   3.036  0.2338 -0.2749 -0.1259
   6.42840   6.42840   6.42840
