A-SYNC WITH LIG-47 in water
35301
  121NASP     N    1   2.237   1.105   2.607 -0.5718 -0.0555 -0.3396
  121NASP    H1    2   2.195   1.022   2.566  0.2895 -1.1986  1.0204
  121NASP    H2    3   2.242   1.115   2.707 -1.0752  2.3024 -0.4970
  121NASP    H3    4   2.333   1.104   2.575 -0.4269  0.1287  0.0914
  121NASP    CA    5   2.177   1.232   2.578  0.7721  0.2547  0.3249
  121NASP    HA    6   2.244   1.310   2.616  0.2283  0.1423  1.5544
  121NASP    CB    7   2.146   1.251   2.424  0.0801  0.4632 -0.7379
  121NASP   HB1    8   2.235   1.285   2.372 -0.1535  0.5216 -1.1008
  121NASP   HB2    9   2.082   1.339   2.421 -1.7732 -0.6135  2.6235
  121NASP    CG   10   2.111   1.128   2.343  0.3525  0.3903  0.3213
  121NASP   OD1   11   2.086   1.147   2.223  0.2118 -0.0871 -0.0141
  121NASP   OD2   12   2.086   1.017   2.399  0.0502 -0.4936  0.3066
  121NASP     C   13   2.052   1.253   2.657  0.2964  0.3060 -0.2879
  121NASP     O   14   2.051   1.324   2.756  0.1762  0.0400  0.0172
  122ASN      N   15   1.953   1.179   2.617 -0.1407 -0.1916  0.0983
  122ASN      H   16   1.958   1.120   2.535  0.7559  2.8200 -2.1805
  122ASN     CA   17   1.828   1.192   2.685 -0.1440  0.0700 -0.7105
  122ASN     HA   18   1.796   1.295   2.698 -0.2611  0.2135 -2.0324
  122ASN     CB   19   1.714   1.135   2.597 -0.8654  0.5637  0.1126
  122ASN    HB1   20   1.616   1.156   2.641 -1.1268  1.1594 -0.7216
  122ASN    HB2   21   1.724   1.027   2.581 -0.0625  1.0270 -3.2681
  122ASN     CG   22   1.711   1.201   2.458  0.2568 -0.2778  0.0277
  122ASN    OD1   23   1.727   1.323   2.440  0.5360 -0.2384 -0.6623
  122ASN    ND2   24   1.722   1.122   2.359  0.0048  0.1854 -0.0553
  122ASN   HD21   25   1.723   1.159   2.265  1.2274  1.3326  0.3694
  122ASN   HD22   26   1.715   1.024   2.381 -1.5006  0.2030 -0.3844
  122ASN      C   27   1.833   1.119   2.821  0.1917 -0.3814 -0.0211
  122ASN      O   28   1.869   1.002   2.834  0.1067 -0.5444  0.6090
  123GLU      N   29   1.798   1.203   2.921 -0.5615 -0.3761  0.5754
  123GLU      H   30   1.768   1.293   2.887  3.2351  0.5529 -0.8891
  123GLU     CA   31   1.810   1.173   3.066 -0.0282  0.9484  0.0709
  123GLU     HA   32   1.805   1.065   3.078 -1.1321  1.0581  0.7301
  123GLU     CB   33   1.942   1.223   3.122  0.4525 -0.3141 -0.6643
  123GLU    HB1   34   2.011   1.158   3.069 -0.1719 -0.7947 -0.8888
  123GLU    HB2   35   1.948   1.210   3.230  1.2815 -0.9654 -0.7790
  123GLU     CG   36   1.961   1.372   3.092 -0.3083 -0.1277 -0.0814
  123GLU    HG1   37   1.898   1.419   3.167 -0.6610 -0.4343 -0.1821
  123GLU    HG2   38   1.926   1.403   2.993 -1.8160  1.5211  0.9077
  123GLU     CD   39   2.114   1.417   3.109  0.5263 -0.1018 -0.7520
  123GLU    OE1   40   2.142   1.512   3.184 -0.3613 -0.3294  0.0747
  123GLU    OE2   41   2.202   1.334   3.074 -0.3361 -0.5834  0.1530
  123GLU      C   42   1.695   1.227   3.155  0.0946  0.7271  0.1558
  123GLU      O   43   1.700   1.231   3.280  0.1607  0.3661 -0.2637
  124ALA      N   44   1.587   1.262   3.091 -0.1914  0.0037  0.0588
  124ALA      H   45   1.589   1.262   2.990 -1.1885 -1.4752  0.0036
  124ALA     CA   46   1.460   1.307   3.145 -0.8428 -0.2963 -0.0620
  124ALA     HA   47   1.457   1.287   3.252 -1.7759  1.6596  0.3147
  124ALA     CB   48   1.467   1.459   3.117  0.8841 -0.1713  0.3797
  124ALA    HB1   49   1.381   1.501   3.168  0.7133  0.0606 -0.0973
  124ALA    HB2   50   1.461   1.476   3.009 -0.0007 -1.3464  0.2212
  124ALA    HB3   51   1.563   1.492   3.157 -0.0280  1.2277  1.4737
  124ALA      C   52   1.338   1.245   3.080 -0.3396 -0.3593 -0.4539
  124ALA      O   53   1.347   1.212   2.962 -0.2381  0.0354 -0.2457
  125TYR      N   54   1.215   1.253   3.146  0.0897  0.2830  0.3097
  125TYR      H   55   1.204   1.281   3.242 -1.2298  1.3516 -0.1163
  125TYR     CA   56   1.092   1.230   3.068  0.3465  0.4142  0.4979
  125TYR     HA   57   1.097   1.131   3.023  0.8222  0.2246  0.9495
  125TYR     CB   58   0.964   1.226   3.162 -0.6060  0.6027  1.0395
  125TYR    HB1   59   0.957   1.316   3.224  1.1792  0.1929  1.9015
  125TYR    HB2   60   0.975   1.141   3.230  0.6163 -1.6783 -1.7986
  125TYR     CG   61   0.828   1.213   3.097  0.3008 -0.0991 -0.2540
  125TYR    CD1   62   0.798   1.103   3.017  0.2024  0.1222 -0.5703
  125TYR    HD1   63   0.875   1.036   2.981 -0.6458 -0.7910 -0.7321
  125TYR    CE1   64   0.672   1.065   2.977  0.3343 -0.7072 -0.1365
  125TYR    HE1   65   0.653   0.973   2.923  1.1245 -1.3029  0.5781
  125TYR     CZ   66   0.566   1.141   3.019  0.4748 -0.5710 -0.0388
  125TYR     OH   67   0.446   1.115   2.973 -0.8849 -0.9578  0.4334
  125TYR     HH   68   0.441   1.032   2.925 -2.0519 -0.7119  0.0831
  125TYR    CE2   69   0.593   1.262   3.093 -0.2655  0.0406  0.7503
  125TYR    HE2   70   0.509   1.325   3.119  0.2010  1.5912 -1.2780
  125TYR    CD2   71   0.721   1.300   3.133 -0.0568 -0.6574  0.0803
  125TYR    HD2   72   0.735   1.396   3.180 -0.3983  0.4004 -1.8881
  125TYR      C   73   1.063   1.327   2.949 -0.2816 -0.0681  0.1684
  125TYR      O   74   1.103   1.440   2.966 -0.4841 -0.3307 -0.0773
  126GLU      N   75   0.990   1.285   2.842  0.0168  0.0910  0.0743
  126GLU      H   76   0.966   1.187   2.846  0.0904  0.1155  1.6690
  126GLU     CA   77   0.966   1.357   2.715 -0.0334 -1.5259 -0.1854
  126GLU     HA   78   1.062   1.400   2.685  0.8972 -2.9469  0.6841
  126GLU     CB   79   0.942   1.260   2.602  0.1395 -0.1272  0.0133
  126GLU    HB1   80   1.004   1.172   2.622 -0.2295 -0.4122 -0.0794
  126GLU    HB2   81   0.963   1.311   2.508  2.0492  1.1874  1.0848
  126GLU     CG   82   0.801   1.204   2.601 -0.2657 -0.7733  0.0757
  126GLU    HG1   83   0.731   1.285   2.578 -1.4003 -1.8009 -0.2032
  126GLU    HG2   84   0.788   1.160   2.700 -1.0047 -0.8045 -0.0267
  126GLU     CD   85   0.777   1.098   2.497 -0.0366  0.2727 -0.6380
  126GLU    OE1   86   0.687   1.017   2.506  0.4714  0.2103  0.4769
  126GLU    OE2   87   0.847   1.093   2.398  0.7216 -0.2671 -0.1125
  126GLU      C   88   0.875   1.481   2.717 -0.0868  0.4607  0.6966
  126GLU      O   89   0.895   1.575   2.636 -0.3123 -0.1096 -1.1542
  127MET      N   90   0.781   1.475   2.808  0.1951 -1.1328  0.1752
  127MET      H   91   0.780   1.394   2.867 -0.5980 -1.2816 -0.0319
  127MET     CA   92   0.684   1.581   2.842  0.3718  0.6326 -0.2908
  127MET     HA   93   0.693   1.658   2.765 -1.3697 -0.5721 -1.7756
  127MET     CB   94   0.540   1.521   2.823  0.4915  0.1603  0.5723
  127MET    HB1   95   0.462   1.573   2.878 -1.0021 -1.5176  0.1198
  127MET    HB2   96   0.533   1.418   2.857 -0.4682 -0.0312 -0.1595
  127MET     CG   97   0.506   1.534   2.673 -0.2104 -0.0367 -0.4241
  127MET    HG1   98   0.589   1.510   2.607  0.0142 -0.9151  0.1542
  127MET    HG2   99   0.498   1.642   2.665  0.3104  0.4175  3.3385
  127MET     SD  100   0.346   1.481   2.606  0.1829 -0.2186  0.2299
  127MET     CE  101   0.323   1.314   2.671 -0.4468  0.0753 -0.4735
  127MET    HE1  102   0.421   1.277   2.703 -0.4629  1.1698  0.9393
  127MET    HE2  103   0.273   1.242   2.606 -1.7496  0.8169 -0.3290
  127MET    HE3  104   0.267   1.319   2.764  0.9716  0.1336  0.4128
  127MET      C  105   0.707   1.642   2.978 -0.3329 -0.5566 -0.0272
  127MET      O  106   0.811   1.605   3.043  0.1896 -0.0693  0.4097
  128PRO      N  107   0.629   1.741   3.024 -0.6163  0.8707 -0.5513
  128PRO     CD  108   0.530   1.818   2.949 -0.3805 -0.0401  0.6720
  128PRO    HD1  109   0.441   1.768   2.910 -0.0802 -0.7856  0.9236
  128PRO    HD2  110   0.578   1.873   2.867 -0.1311 -1.8128 -0.4266
  128PRO     CG  111   0.478   1.915   3.059  0.3965 -0.3835  0.0413
  128PRO    HG1  112   0.392   1.870   3.109  0.4524 -0.2677  0.2403
  128PRO    HG2  113   0.442   2.005   3.010 -2.0919  0.0423  2.4326
  128PRO     CB  114   0.599   1.937   3.149  0.0506 -0.4822 -0.4722
  128PRO    HB1  115   0.655   2.017   3.100  2.0900 -0.4084  1.8256
  128PRO    HB2  116   0.568   1.966   3.249  2.3993  1.3971 -0.2008
  128PRO     CA  117   0.662   1.802   3.149 -0.7701 -0.3498  0.0926
  128PRO     HA  118   0.767   1.831   3.156 -0.8843  0.5311 -1.3554
  128PRO      C  119   0.626   1.715   3.271  0.2225  0.2606 -0.1403
  128PRO      O  120   0.542   1.627   3.261  0.1212  0.7444  0.4920
  129SER      N  121   0.685   1.741   3.389  0.2608  0.3296  0.0506
  129SER      H  122   0.749   1.818   3.397  3.5351 -2.2094  0.8322
  129SER     CA  123   0.674   1.660   3.515  0.3237  0.4176  0.1694
  129SER     HA  124   0.671   1.553   3.493  2.1234 -0.0753  2.0981
  129SER     CB  125   0.797   1.674   3.597 -0.6573 -0.0844  0.2979
  129SER    HB1  126   0.883   1.632   3.545 -0.5892  1.3182 -0.7821
  129SER    HB2  127   0.793   1.628   3.695 -1.0302 -0.7900 -0.0424
  129SER     OG  128   0.836   1.804   3.620  0.8031  0.2683 -0.0195
  129SER    HG1  129   0.874   1.802   3.708 -1.7837 -2.5896  1.2542
  129SER      C  130   0.550   1.693   3.601  0.3715 -0.5821  0.2527
  129SER      O  131   0.519   1.624   3.702  0.0222  0.8034  0.5749
  130GLU      N  132   0.474   1.803   3.570 -0.8394  0.2825 -0.6013
  130GLU      H  133   0.501   1.856   3.489  0.2032 -0.4105 -0.7215
  130GLU     CA  134   0.337   1.812   3.627 -0.2980  0.2237  0.2043
  130GLU     HA  135   0.341   1.805   3.736 -1.3385  0.7980  0.2898
  130GLU     CB  136   0.277   1.946   3.584 -0.4154  0.2563 -0.0825
  130GLU    HB1  137   0.291   1.954   3.476  1.2314 -3.0652 -0.2619
  130GLU    HB2  138   0.329   2.029   3.631 -0.5322  1.0903 -1.3821
  130GLU     CG  139   0.129   1.958   3.615  0.1218 -0.2391  0.2608
  130GLU    HG1  140   0.111   1.954   3.722  0.5294 -0.0928  0.3379
  130GLU    HG2  141   0.075   1.876   3.567 -1.2893  1.4037 -1.1114
  130GLU     CD  142   0.073   2.086   3.557 -0.3828 -0.5128 -0.3342
  130GLU    OE1  143   0.143   2.189   3.552 -0.3595  0.2781  0.1042
  130GLU    OE2  144  -0.055   2.093   3.534 -0.4518 -0.0104  0.6234
  130GLU      C  145   0.256   1.689   3.582 -0.5409 -0.0365  0.3499
  130GLU      O  146   0.251   1.660   3.459 -0.5902  0.1017 -0.4926
  131GLU      N  147   0.192   1.616   3.676 -0.4012 -0.2969  0.3268
  131GLU      H  148   0.167   1.653   3.767 -0.8559 -1.5434  0.7230
  131GLU     CA  149   0.142   1.478   3.653  0.5739 -0.0917  0.8772
  131GLU     HA  150   0.207   1.412   3.595  0.3631  1.7375 -1.6150
  131GLU     CB  151   0.111   1.404   3.790  0.8051 -0.5051  1.2417
  131GLU    HB1  152   0.046   1.321   3.763  0.1003  0.1254  0.9495
  131GLU    HB2  153   0.041   1.465   3.847 -2.2073 -2.4080 -0.1766
  131GLU     CG  154   0.234   1.350   3.868  0.1734  0.4836 -0.0672
  131GLU    HG1  155   0.301   1.434   3.888  0.7497 -0.2573  1.2127
  131GLU    HG2  156   0.282   1.287   3.794 -0.2897  2.2833 -2.0238
  131GLU     CD  157   0.193   1.277   3.998  0.1106  0.0357  0.3941
  131GLU    OE1  158   0.269   1.191   4.044  0.4948  0.1270  0.7450
  131GLU    OE2  159   0.092   1.304   4.063 -0.6698 -0.4755 -0.4514
  131GLU      C  160   0.019   1.481   3.569 -0.5366  0.1492 -0.6721
  131GLU      O  161  -0.002   1.384   3.499 -0.0822 -0.1219 -0.1525
  132GLY      N  162  -0.052   1.598   3.566 -0.1068 -0.6373 -0.2851
  132GLY      H  163  -0.033   1.659   3.644  0.3016 -2.8668  1.4710
  132GLY     CA  164  -0.163   1.616   3.469  0.5364 -0.0246 -0.2681
  132GLY    HA1  165  -0.184   1.722   3.460 -0.5563 -0.3463 -1.8174
  132GLY    HA2  166  -0.254   1.565   3.499  0.2262  0.8158  0.2519
  132GLY      C  167  -0.128   1.571   3.330 -0.1952 -0.3294  0.2218
  132GLY      O  168  -0.207   1.514   3.258 -0.1788 -0.2281 -0.0441
  133TYR      N  169  -0.002   1.595   3.289  0.0026  0.0580  0.1238
  133TYR      H  170   0.065   1.618   3.361  1.4705  0.6001 -1.3492
  133TYR     CA  171   0.048   1.581   3.144  0.8688  0.2346  0.4417
  133TYR     HA  172  -0.041   1.613   3.089  1.6989  0.7365 -0.6663
  133TYR     CB  173   0.157   1.682   3.115 -0.9824  0.7546 -0.3950
  133TYR    HB1  174   0.250   1.627   3.101  0.0718  0.4425  5.2185
  133TYR    HB2  175   0.175   1.742   3.204  1.0005 -1.4267  0.7990
  133TYR     CG  176   0.132   1.779   3.000  0.3880  0.4937  0.6728
  133TYR    CD1  177   0.102   1.914   3.017  0.1827  0.4506 -0.4104
  133TYR    HD1  178   0.106   1.956   3.117  1.7932  0.0129 -0.2550
  133TYR    CE1  179   0.080   1.999   2.915  0.7377  0.1842  0.3153
  133TYR    HE1  180   0.044   2.098   2.938 -0.5998  0.5370 -2.8167
  133TYR     CZ  181   0.096   1.952   2.781  0.3582  0.0719  0.3167
  133TYR     OH  182   0.082   2.034   2.673 -0.5374  0.3918 -0.2187
  133TYR     HH  183   0.063   2.127   2.689  1.4129  0.7477  0.2699
  133TYR    CE2  184   0.141   1.814   2.758 -1.8568 -0.0787  0.4649
  133TYR    HE2  185   0.165   1.779   2.658 -0.2900  0.3874  0.6473
  133TYR    CD2  186   0.151   1.730   2.869  0.8641  0.2397 -0.4525
  133TYR    HD2  187   0.187   1.628   2.861 -0.1030 -0.2235  0.7049
  133TYR      C  188   0.077   1.440   3.091  0.1075 -0.1359  0.1651
  133TYR      O  189   0.073   1.425   2.973  0.0491  0.1954 -0.1166
  134GLN      N  190   0.100   1.351   3.182 -0.1844 -0.0757 -0.8004
  134GLN      H  191   0.085   1.370   3.280  1.3648 -0.9627 -0.3428
  134GLN     CA  192   0.163   1.223   3.155  0.3434 -0.0004  0.1017
  134GLN     HA  193   0.255   1.251   3.104  0.6148 -1.3231 -0.1863
  134GLN     CB  194   0.200   1.147   3.285 -0.0178 -0.6006  0.3573
  134GLN    HB1  195   0.105   1.097   3.302 -0.6161  0.0978 -0.7995
  134GLN    HB2  196   0.214   1.222   3.363 -1.4168 -0.7103  0.7313
  134GLN     CG  197   0.325   1.055   3.277  0.5775 -0.5980 -0.0941
  134GLN    HG1  198   0.411   1.121   3.286 -0.6680  0.9365  1.1824
  134GLN    HG2  199   0.327   1.015   3.176 -2.5869 -0.0903 -0.4572
  134GLN     CD  200   0.344   0.935   3.371 -0.4676  0.1006  0.4414
  134GLN    OE1  201   0.419   0.936   3.463 -0.1175  0.0611 -0.6036
  134GLN    NE2  202   0.270   0.830   3.348  0.3744  0.8986  0.3438
  134GLN   HE21  203   0.275   0.755   3.415 -0.0224  1.0779  0.5789
  134GLN   HE22  204   0.218   0.819   3.261  0.8226 -2.0107  0.3354
  134GLN      C  205   0.080   1.140   3.051  0.7110  0.0971 -0.1328
  134GLN      O  206  -0.044   1.146   3.049  0.5795 -0.4680 -0.3293
  135ASP      N  207   0.145   1.056   2.968  0.1194  0.3553  0.0830
  135ASP      H  208   0.246   1.053   2.976 -0.0298 -0.8715  1.9539
  135ASP     CA  209   0.087   0.940   2.903  0.0348  0.5208  1.0735
  135ASP     HA  210  -0.011   0.969   2.864  0.4080 -0.1512 -0.4235
  135ASP     CB  211   0.178   0.891   2.793 -0.4893  0.6933  0.2793
  135ASP    HB1  212   0.197   0.966   2.717  2.1221 -0.7057 -0.5702
  135ASP    HB2  213   0.118   0.811   2.750 -0.1483  1.0629 -0.9273
  135ASP     CG  214   0.327   0.854   2.823  0.5464  0.5217 -1.3262
  135ASP    OD1  215   0.376   0.860   2.940  0.7991 -0.5193 -0.1606
  135ASP    OD2  216   0.391   0.815   2.725 -0.5361 -0.1052 -0.5234
  135ASP      C  217   0.071   0.830   3.006  0.0131  0.6070  0.4446
  135ASP      O  218   0.143   0.815   3.103 -0.1133 -0.0701  0.0563
  136TYR      N  219  -0.014   0.724   2.969  0.2777 -0.1659 -0.0221
  136TYR      H  220  -0.073   0.740   2.889 -2.2469  1.6878  2.0328
  136TYR     CA  221  -0.033   0.592   3.031 -0.1150 -0.4190 -0.2558
  136TYR     HA  222  -0.131   0.559   2.997 -0.9110 -0.4973  1.9538
  136TYR     CB  223   0.055   0.481   2.977  0.1410 -0.3879 -0.0586
  136TYR    HB1  224   0.036   0.386   3.025  1.3995 -0.1632  0.9435
  136TYR    HB2  225   0.158   0.508   3.000  0.6217 -0.5100 -1.9165
  136TYR     CG  226   0.044   0.460   2.830 -0.1376 -0.7797 -0.3311
  136TYR    CD1  227  -0.053   0.373   2.778  0.2125  0.4530  0.4344
  136TYR    HD1  228  -0.105   0.314   2.852  1.3066  0.7900  1.4901
  136TYR    CE1  229  -0.066   0.346   2.640 -0.2358 -0.5150  0.4498
  136TYR    HE1  230  -0.140   0.275   2.607 -1.5758  1.2673 -0.6240
  136TYR     CZ  231   0.013   0.426   2.550  0.3457 -0.0554 -0.2436
  136TYR     OH  232   0.000   0.415   2.415 -0.6893 -0.1737 -0.3821
  136TYR     HH  233  -0.071   0.352   2.398 -0.1730 -0.6377 -0.9065
  136TYR    CE2  234   0.106   0.518   2.604  0.3264  0.7139 -0.4472
  136TYR    HE2  235   0.162   0.580   2.537  1.1528  1.0844  0.5678
  136TYR    CD2  236   0.122   0.537   2.744 -0.5098 -0.0459  0.1905
  136TYR    HD2  237   0.190   0.611   2.783 -0.4898  1.2241 -2.1144
  136TYR      C  238  -0.044   0.591   3.183  0.5731  0.0711 -0.5385
  136TYR      O  239   0.028   0.526   3.256 -0.1444 -0.4452  0.2614
  137GLU      N  240  -0.119   0.685   3.235 -0.2634  0.4514  1.0495
  137GLU      H  241  -0.167   0.738   3.165  2.7721  0.0270 -1.5843
  137GLU     CA  242  -0.164   0.725   3.366 -0.0227 -0.8405  0.0937
  137GLU     HA  243  -0.184   0.831   3.349  1.5809 -0.5209  0.0143
  137GLU     CB  244  -0.291   0.657   3.404  0.5147  0.3341  0.0604
  137GLU    HB1  245  -0.329   0.687   3.501 -0.2500 -1.3051  0.2961
  137GLU    HB2  246  -0.264   0.552   3.417  1.4032  0.5987  0.4216
  137GLU     CG  247  -0.400   0.683   3.290  0.1445 -0.1830 -0.1769
  137GLU    HG1  248  -0.362   0.648   3.194  1.5485 -0.1407  0.3363
  137GLU    HG2  249  -0.407   0.790   3.269  1.4008 -0.0077  0.1937
  137GLU     CD  250  -0.540   0.629   3.330  0.5487  0.0502  0.4628
  137GLU    OE1  251  -0.548   0.555   3.431 -0.0162 -0.6193  0.5202
  137GLU    OE2  252  -0.635   0.657   3.254  0.3310  0.2794 -0.4924
  137GLU      C  253  -0.056   0.724   3.484 -0.1908 -0.2597  0.0719
  137GLU      O  254  -0.012   0.617   3.525  0.1663 -0.5923 -0.5188
  138PRO      N  255  -0.041   0.844   3.545  0.3985  0.4851 -0.3396
  138PRO     CD  256  -0.103   0.970   3.526  0.1200 -0.0322 -0.1232
  138PRO    HD1  257  -0.211   0.971   3.545  0.0125 -0.1753 -0.6982
  138PRO    HD2  258  -0.073   1.015   3.432 -2.1228  0.0654 -0.8676
  138PRO     CG  259  -0.056   1.050   3.644 -0.3428  0.1333 -0.4300
  138PRO    HG1  260  -0.117   1.043   3.734 -1.1906  2.4734 -0.7755
  138PRO    HG2  261  -0.047   1.156   3.620  2.9366  0.4719  1.5833
  138PRO     CB  262   0.086   1.004   3.659  0.0052 -0.0413  0.3325
  138PRO    HB1  263   0.156   1.040   3.584  1.4912 -0.8497  1.2752
  138PRO    HB2  264   0.124   1.036   3.756  0.4028  0.2216  0.0963
  138PRO     CA  265   0.063   0.856   3.649  0.0781 -0.2028 -0.2018
  138PRO     HA  266   0.146   0.796   3.613 -1.9480 -3.0305 -0.5571
  138PRO      C  267   0.022   0.795   3.786 -0.0537 -0.2909  0.9591
  138PRO      O  268  -0.102   0.784   3.811 -0.4475 -1.1614  0.4510
  139GLU      N  269   0.119   0.757   3.868 -0.1736 -0.2002  0.6083
  139GLU      H  270   0.211   0.794   3.851  0.0719  0.1067  2.3733
  139GLU     CA  271   0.100   0.658   3.970  0.1245 -0.3156  0.3649
  139GLU     HA  272   0.031   0.581   3.934 -1.2354  0.6333  0.8537
  139GLU     CB  273   0.232   0.590   4.005 -0.0344  0.2556 -0.4196
  139GLU    HB1  274   0.213   0.518   4.084 -0.9589 -0.8863 -1.6331
  139GLU    HB2  275   0.300   0.667   4.041  0.3953 -1.3076  2.3915
  139GLU     CG  276   0.289   0.506   3.894 -0.5798 -0.1389 -0.4881
  139GLU    HG1  277   0.309   0.561   3.803 -1.0344  2.2388  0.7764
  139GLU    HG2  278   0.232   0.415   3.877  0.0973 -0.4591 -1.1303
  139GLU     CD  279   0.430   0.460   3.938 -0.4048 -0.5642  0.2719
  139GLU    OE1  280   0.517   0.548   3.972  0.2727  0.1473 -0.5548
  139GLU    OE2  281   0.461   0.340   3.936 -0.2526  0.7121 -0.0641
  139GLU      C  282   0.024   0.719   4.089  0.3062 -0.4681  0.3508
  139GLU      O  283   0.043   0.824   4.140  0.4995 -0.4545  0.1956
  140CALA     N  284  -0.088   0.658   4.122  0.0458  0.2127  0.6176
  140CALA     H  285  -0.099   0.572   4.071  0.8769 -0.5244  1.6452
  140CALA    CA  286  -0.188   0.699   4.222 -0.1379  0.5978 -0.3796
  140CALA    HA  287  -0.202   0.807   4.217 -2.2081  0.3316 -1.5124
  140CALA    CB  288  -0.313   0.620   4.199  0.0728  0.0071  0.3064
  140CALA   HB1  289  -0.377   0.635   4.285  1.0601 -1.2440  1.2966
  140CALA   HB2  290  -0.288   0.516   4.176  0.0512  0.4725 -2.1746
  140CALA   HB3  291  -0.365   0.654   4.109 -0.1443 -0.5679  0.2108
  140CALA     C  292  -0.138   0.677   4.370  1.0477  0.1207 -0.4251
  140CALA   OC1  293  -0.115   0.774   4.446  0.1094 -0.0234 -0.1746
  140CALA   OC2  294  -0.132   0.560   4.421 -0.2158  0.4049 -0.3817
  141L47      C  295   0.153   1.110   1.042  0.3776  0.2665  0.0261
  141L47      H  296   0.108   1.137   0.946  1.1368 -1.4446 -0.8458
  141L47     H1  297   0.069   1.120   1.112 -0.6076 -2.2952 -0.6957
  141L47     H2  298   0.190   1.007   1.040  0.8153  0.4384 -1.3474
  141L47     C1  299   0.261   1.209   1.087  0.3575 -0.0887 -0.7776
  141L47      O  300   0.288   1.292   1.006  0.1132  0.0703  0.0993
  141L47      N  301   0.310   1.200   1.217 -0.1945 -0.3479  0.1938
  141L47     C2  302   0.309   1.077   1.294  0.0543 -0.2367 -0.0899
  141L47     H3  303   0.358   0.998   1.236  1.1627  2.0179 -2.3860
  141L47     H4  304   0.208   1.039   1.313 -0.2762  0.6037 -0.1378
  141L47     C3  305   0.381   1.100   1.431 -0.5876 -0.2029 -0.4757
  141L47     H5  306   0.455   1.019   1.439  1.1743  1.4431  1.0037
  141L47     H6  307   0.315   1.106   1.518 -1.0912  0.9544 -0.9130
  141L47     C4  308   0.458   1.225   1.401  1.1721  0.2574  0.0549
  141L47     C5  309   0.404   1.286   1.285  0.0699  0.1905 -0.0826
  141L47     C6  310   0.462   1.402   1.236  0.3499 -0.5619 -0.5875
  141L47     H7  311   0.411   1.446   1.151 -1.8692 -2.5436 -0.3838
  141L47     C7  312   0.564   1.468   1.310 -0.7359 -0.3516  0.4437
  141L47     H8  313   0.608   1.557   1.268 -0.6060 -0.8407 -0.5103
  141L47     C8  314   0.612   1.406   1.427 -0.0251 -0.0683  0.9259
  141L47     C9  315   0.553   1.287   1.477  0.0461 -0.5678  0.1324
  141L47     H9  316   0.583   1.253   1.576  1.3544  0.3766  0.0787
  141L47      S  317   0.746   1.476   1.517  0.2809  0.0861 -0.6187
  141L47     O1  318   0.773   1.399   1.641  0.0152 -0.0832  0.2816
  141L47     O2  319   0.733   1.621   1.507 -0.7059  0.6733  0.4383
  141L47     N1  320   0.879   1.452   1.428  0.1166 -0.1760  0.1663
  141L47    C10  321   1.009   1.471   1.502 -0.3841  0.3479  0.1457
  141L47    H10  322   1.066   1.378   1.512  1.1079  1.3148  1.0111
  141L47    H11  323   1.005   1.534   1.591  0.1414  2.3369 -1.1881
  141L47    C11  324   1.098   1.558   1.416  0.0614 -0.0929  0.2698
  141L47    H12  325   1.177   1.613   1.469  1.3263 -1.2915 -0.3158
  141L47    H13  326   1.038   1.640   1.374  0.3922 -0.3486 -0.7355
  141L47    C12  327   1.160   1.496   1.290 -0.3873 -0.3101 -0.2601
  141L47    H14  328   1.241   1.425   1.305  1.3451  1.0060 -2.6948
  141L47    H15  329   1.206   1.567   1.222  0.0394 -1.0130 -0.7155
  141L47     N2  330   1.057   1.437   1.195  0.1958 -0.3876  0.2256
  141L47    H16  331   0.979   1.499   1.167  1.1521  0.0563 -1.6558
  141L47    H17  332   1.098   1.421   1.102 -0.8174 -0.2317 -0.2614
  141L47    C13  333   0.993   1.308   1.252 -0.6088  0.0539  0.3013
  141L47    H18  334   1.073   1.262   1.309  0.3454  1.6809  0.3291
  141L47    H19  335   0.956   1.246   1.170 -1.4709 -0.4266  1.0368
  141L47    C14  336   0.878   1.333   1.340 -0.0359 -0.1533 -0.3940
  141L47    H20  337   0.798   1.341   1.265  0.9885 -0.1664 -1.5165
  141L47    H21  338   0.859   1.250   1.410  1.3823 -1.4099 -1.4224
  142SOL     OW  339   3.295   0.158   4.661  0.5244 -0.1616 -0.0586
  142SOL    HW2  340   3.233   0.086   4.671  2.2109 -1.8875 -1.2541
  142SOL    HW3  341   3.340   0.163   4.745 -1.4110  1.4165  0.9891
  142SOL    MW4  342   3.293   0.149   4.673  0.3259  0.3853 -0.4111
  143SOL     OW  343   3.589   2.445   0.480 -0.6890 -0.2075  0.0053
  143SOL    HW2  344   3.655   2.507   0.510 -1.9625  0.2476  2.0637
  143SOL    HW3  345   3.527   2.498   0.430 -0.8181 -0.1667  0.2091
  143SOL    MW4  346   3.590   2.460   0.477 -0.0934  0.3145  0.2530
  144SOL     OW  347   5.696   3.550   0.664 -0.3037 -0.1020 -0.7671
  144SOL    HW2  348   5.674   3.548   0.758 -0.8218 -0.6033 -0.8933
  144SOL    HW3  349   5.704   3.458   0.640  2.3495  0.0464 -0.6557
  144SOL    MW4  350   5.694   3.538   0.673  0.8726  0.0714 -0.2484
  145SOL     OW  351   1.269   0.835   5.396 -0.1719 -0.0874  0.3033
  145SOL    HW2  352   1.294   0.743   5.392 -1.1741 -0.4154  1.0186
  145SOL    HW3  353   1.343   0.883   5.359  1.1283 -1.0429  1.5947
  145SOL    MW4  354   1.282   0.830   5.391 -0.5679  0.3178 -0.0248
  146SOL     OW  355   5.481   5.586   0.273  0.5662  0.5739  0.0785
  146SOL    HW2  356   5.519   5.611   0.357  0.2427 -0.0739  0.4189
  146SOL    HW3  357   5.410   5.526   0.295  1.0123 -0.2674 -0.6940
  146SOL    MW4  358   5.477   5.581   0.287  0.0160 -0.0478  0.5389
  147SOL     OW  359   3.244   4.722   1.762 -0.2203 -0.3269 -0.0520
  147SOL    HW2  360   3.204   4.703   1.847 -1.2134 -0.0229 -0.4282
  147SOL    HW3  361   3.304   4.794   1.780  0.4726 -1.0416  0.6019
  147SOL    MW4  362   3.246   4.729   1.776  0.2875 -0.2144 -0.5279
  148SOL     OW  363   0.590   2.733   1.755 -0.0572 -0.6057  0.3492
  148SOL    HW2  364   0.505   2.741   1.711  0.9576  2.4343 -1.2808
  148SOL    HW3  365   0.628   2.653   1.718 -0.9522 -0.3277 -1.2809
  148SOL    MW4  366   0.584   2.723   1.744  0.2748 -0.3843 -0.9978
  149SOL     OW  367   5.199   4.232   5.700  0.7484  0.4457  0.6175
  149SOL    HW2  368   5.151   4.230   5.783 -2.0188  2.4043 -0.8196
  149SOL    HW3  369   5.291   4.220   5.726 -0.0697  0.3124  3.8655
  149SOL    MW4  370   5.205   4.230   5.715  0.4217 -0.6536 -0.1743
  150SOL     OW  371   1.643   1.042   5.617  0.0705 -0.0571 -0.1231
  150SOL    HW2  372   1.554   1.043   5.581  0.5715  0.3657 -1.4386
  150SOL    HW3  373   1.637   1.093   5.697 -0.9025 -0.1491 -0.1204
  150SOL    MW4  374   1.630   1.049   5.623 -0.3875 -0.2417 -0.2989
  151SOL     OW  375   0.069   2.345   1.425 -0.1879  0.0761 -0.3802
  151SOL    HW2  376   0.011   2.416   1.451  2.7488  2.1517  1.1026
  151SOL    HW3  377   0.099   2.307   1.507 -0.4494 -1.8295 -1.1331
  151SOL    MW4  378   0.065   2.350   1.439 -0.1432 -0.0873  0.3483
  152SOL     OW  379   3.769   4.617   3.949  0.0751  0.1586  0.3318
  152SOL    HW2  380   3.777   4.609   4.044  1.2873 -0.2212  0.2150
  152SOL    HW3  381   3.803   4.534   3.915  0.5286  0.6567 -0.4568
  152SOL    MW4  382   3.775   4.605   3.957  0.5119  0.0213  0.2087
  153SOL     OW  383   4.837   4.092   1.115  0.0716 -0.1769 -0.9050
  153SOL    HW2  384   4.771   4.142   1.067 -1.7217 -3.0754 -1.7138
  153SOL    HW3  385   4.865   4.024   1.054  2.1193 -0.4479  0.2518
  153SOL    MW4  386   4.832   4.089   1.101  0.0891  0.3606  0.0569
  154SOL     OW  387   5.686   3.110   1.343  0.4123 -0.5376  0.4272
  154SOL    HW2  388   5.734   3.034   1.379  1.6684  0.8085  1.7519
  154SOL    HW3  389   5.701   3.180   1.407  1.2383  1.5024 -1.8412
  154SOL    MW4  390   5.695   3.109   1.357  0.6384 -0.1710 -0.3875
  155SOL     OW  391   2.749   3.611   3.420 -0.3754 -0.3262  0.2511
  155SOL    HW2  392   2.752   3.599   3.325  0.4712 -1.8109  0.4301
  155SOL    HW3  393   2.837   3.588   3.450 -0.2494  1.3418  1.2900
  155SOL    MW4  394   2.761   3.606   3.411 -0.8425 -0.1038  0.1614
  156SOL     OW  395   6.214   0.639   2.727  0.2179  0.9577  0.6255
  156SOL    HW2  396   6.234   0.714   2.671  1.4257  0.4846  0.3958
  156SOL    HW3  397   6.295   0.590   2.731 -0.4727 -0.1892  1.0262
  156SOL    MW4  398   6.227   0.643   2.720  0.9875  0.1228  0.6526
  157SOL     OW  399   2.293   1.587   1.333 -0.3845 -0.2263 -0.2213
  157SOL    HW2  400   2.343   1.529   1.390  2.1154  2.6155  0.7534
  157SOL    HW3  401   2.211   1.602   1.380  0.2042 -0.6284  0.9779
  157SOL    MW4  402   2.288   1.582   1.347 -0.1609  0.4100 -0.4287
  158SOL     OW  403   4.847   4.127   0.729 -0.5908  0.1744 -0.1415
  158SOL    HW2  404   4.859   4.143   0.636  0.9857  1.0750  0.1768
  158SOL    HW3  405   4.922   4.169   0.770 -2.3556  1.6698  1.7283
  158SOL    MW4  406   4.858   4.134   0.722  0.1011  0.0988  0.0696
  159SOL     OW  407   6.198   4.201   4.343 -0.3670  0.0955 -0.1451
  159SOL    HW2  408   6.254   4.275   4.367 -0.1329 -0.0236 -0.3175
  159SOL    HW3  409   6.131   4.199   4.410 -0.0074  0.0715  0.2176
  159SOL    MW4  410   6.197   4.211   4.355  0.2698  0.1095  0.1196
  160SOL     OW  411   3.898   1.339   1.891 -0.1683  0.2062 -0.8022
  160SOL    HW2  412   3.827   1.401   1.872  0.4990  1.2389 -0.0241
  160SOL    HW3  413   3.963   1.391   1.938 -0.7301 -1.6766  2.2896
  160SOL    MW4  414   3.898   1.354   1.895  0.0076  0.6786  0.2369
  161SOL     OW  415   1.143  -0.003   0.473  0.0572  0.1428 -0.3582
  161SOL    HW2  416   1.129  -0.026   0.565  1.3929 -0.2380 -0.2362
  161SOL    HW3  417   1.099   0.081   0.463  2.4056  1.6893  1.4151
  161SOL    MW4  418   1.135   0.005   0.484 -0.8926  0.0370 -0.2659
  162SOL     OW  419   4.149   5.883   3.359  0.4364 -0.1578  0.1717
  162SOL    HW2  420   4.238   5.909   3.339  0.4047  0.5741  0.9378
  162SOL    HW3  421   4.094   5.945   3.311  0.3480  0.0244  0.5072
  162SOL    MW4  422   4.153   5.894   3.350  0.0509  0.0020 -0.5746
  163SOL     OW  423   1.023   0.611   0.864  0.5202 -0.3571 -0.1491
  163SOL    HW2  424   1.090   0.543   0.867  1.3686  0.4215 -0.8330
  163SOL    HW3  425   1.070   0.690   0.838 -0.4938  0.4364  0.3503
  163SOL    MW4  426   1.038   0.612   0.861 -0.4118  0.2937 -0.4757
  164SOL     OW  427   1.112   5.053   0.258  0.6413 -0.3494 -0.1892
  164SOL    HW2  428   1.147   5.080   0.343 -1.6162 -1.0826  1.0724
  164SOL    HW3  429   1.136   4.961   0.250  1.2238 -0.1685 -0.5639
  164SOL    MW4  430   1.120   5.045   0.269  0.3247 -0.6529 -0.2480
  165SOL     OW  431   5.621   0.919   1.038 -0.3204  0.2127 -0.1104
  165SOL    HW2  432   5.560   0.928   1.111  0.2048  0.1150  0.3397
  165SOL    HW3  433   5.679   0.995   1.044 -0.0665  0.0321 -0.2272
  165SOL    MW4  434   5.621   0.930   1.048  0.2198  0.2926  0.0606
  166SOL     OW  435   1.076   3.271   0.452 -0.1040 -0.3229 -0.5363
  166SOL    HW2  436   1.006   3.262   0.387  1.1792  0.2338 -2.0543
  166SOL    HW3  437   1.157   3.266   0.401  0.9471  0.8279  0.9332
  166SOL    MW4  438   1.077   3.269   0.436 -0.1035  0.3444 -0.1347
  167SOL     OW  439   2.033   3.458   2.067 -0.2644 -0.3992 -0.2807
  167SOL    HW2  440   2.045   3.459   1.973  1.9667  1.5625 -0.0639
  167SOL    HW3  441   2.029   3.365   2.090 -0.6271 -0.9028 -2.2468
  167SOL    MW4  442   2.034   3.446   2.058 -0.3363 -0.1759 -0.1734
  168SOL     OW  443   0.175   0.763   1.957 -0.2516  0.5172 -0.7645
  168SOL    HW2  444   0.090   0.783   1.995 -0.0659  0.6974 -0.4374
  168SOL    HW3  445   0.178   0.668   1.952  0.3542  0.3954  1.1619
  168SOL    MW4  446   0.164   0.753   1.961  0.0275  0.5217  0.3507
  169SOL     OW  447   1.695   5.063   4.897 -0.3989 -0.2983  0.1168
  169SOL    HW2  448   1.678   4.975   4.931 -1.1721 -0.0003  0.5082
  169SOL    HW3  449   1.722   5.114   4.973 -2.0076  0.3348  0.2835
  169SOL    MW4  450   1.696   5.058   4.911  0.4546  0.1062 -0.0299
  170SOL     OW  451   0.682   2.010   5.120  0.0768 -0.0390  0.2372
  170SOL    HW2  452   0.740   2.068   5.071 -0.0245 -0.0916  0.0568
  170SOL    HW3  453   0.618   1.980   5.056  0.7407 -1.1749  0.0688
  170SOL    MW4  454   0.681   2.014   5.105 -0.1357  0.5074 -0.4692
  171SOL     OW  455   3.679   6.076   3.768 -0.0261  0.0405 -0.5228
  171SOL    HW2  456   3.771   6.096   3.748  0.1719 -1.6168 -1.4103
  171SOL    HW3  457   3.664   5.990   3.729 -1.8794  0.1379 -0.1055
  171SOL    MW4  458   3.690   6.068   3.760  0.5927  0.5891 -0.2056
  172SOL     OW  459   1.745   5.995   1.450 -0.1846  0.3452 -0.0880
  172SOL    HW2  460   1.838   5.984   1.431  0.2981  0.8909  1.7776
  172SOL    HW3  461   1.732   6.090   1.454 -0.6958  0.2620  0.2803
  172SOL    MW4  462   1.756   6.006   1.448 -0.2064 -0.4597 -0.3410
  173SOL     OW  463   1.858   4.229   0.171 -0.4802 -0.0372 -0.3274
  173SOL    HW2  464   1.873   4.291   0.099 -1.5788  1.1629  0.4292
  173SOL    HW3  465   1.865   4.282   0.250  0.1125 -1.2228  0.4467
  173SOL    MW4  466   1.861   4.244   0.172 -0.5987 -0.3090 -0.2296
  174SOL     OW  467   5.206   0.754   0.390  0.1026 -0.1649 -0.0727
  174SOL    HW2  468   5.229   0.722   0.478 -0.3823 -2.6227 -0.7666
  174SOL    HW3  469   5.111   0.748   0.387  0.1327 -0.3017 -0.8232
  174SOL    MW4  470   5.197   0.749   0.401  0.3415  0.5778 -0.0058
  175SOL     OW  471   2.789   4.754   5.441  0.4289 -0.4641  0.0308
  175SOL    HW2  472   2.835   4.705   5.373 -1.1487 -0.8588 -0.7736
  175SOL    HW3  473   2.697   4.735   5.428  0.0856 -1.2996  2.8745
  175SOL    MW4  474   2.783   4.745   5.431  0.1159 -0.2977 -0.3180
  176SOL     OW  475   2.060   5.003   3.757 -0.0837 -0.1078  0.0283
  176SOL    HW2  476   2.132   5.066   3.749  0.4247 -0.7550 -0.7004
  176SOL    HW3  477   1.981   5.056   3.747  0.3489  0.1949 -2.7538
  176SOL    MW4  478   2.059   5.018   3.754 -0.1021  0.0825  0.0993
  177SOL     OW  479   4.433   3.275   6.352  0.1687 -0.1451  0.4227
  177SOL    HW2  480   4.412   3.331   6.427  0.4867  0.2129  0.2471
  177SOL    HW3  481   4.390   3.316   6.278 -0.7027 -0.8668  0.5138
  177SOL    MW4  482   4.425   3.287   6.352 -0.2182 -0.3816  0.7022
  178SOL     OW  483   3.495   4.691   3.013  0.2843  0.1620 -0.7491
  178SOL    HW2  484   3.522   4.603   3.037  0.1972  0.1272 -0.7778
  178SOL    HW3  485   3.428   4.714   3.078  2.1492  1.2410  0.9232
  178SOL    MW4  486   3.489   4.683   3.025 -0.4042  0.0708 -0.3811
  179SOL     OW  487   3.321   3.919   4.289  0.0862 -0.2968  0.3496
  179SOL    HW2  488   3.345   3.828   4.309 -0.9654 -0.8340 -0.7121
  179SOL    HW3  489   3.351   3.933   4.199  0.3169  0.4517  0.5334
  179SOL    MW4  490   3.328   3.909   4.280  0.0405 -0.1856  0.0140
  180SOL     OW  491   1.436   4.982   0.860 -0.0054  0.8432 -0.2824
  180SOL    HW2  492   1.387   5.065   0.858 -1.1869  0.2754  1.7771
  180SOL    HW3  493   1.501   4.994   0.929  0.3872  0.3282 -0.5521
  180SOL    MW4  494   1.438   4.995   0.869 -0.4458 -0.1018  0.0107
  181SOL     OW  495   6.367   1.224   5.318  0.0418  0.2897 -0.4719
  181SOL    HW2  496   6.337   1.134   5.309  1.4612 -0.0596 -2.6449
  181SOL    HW3  497   6.346   1.249   5.408 -2.9214 -1.2224 -0.6494
  181SOL    MW4  498   6.361   1.216   5.329  0.2382  0.7925 -0.5018
  182SOL     OW  499   0.511   4.633   2.984  0.1631  0.4110  0.0939
  182SOL    HW2  500   0.513   4.622   3.079  1.1225 -0.4348  0.0069
  182SOL    HW3  501   0.485   4.723   2.970 -0.9405  0.2703  1.1355
  182SOL    MW4  502   0.508   4.643   2.995 -0.1399 -0.3075  0.2613
  183SOL     OW  503   3.515   0.604   5.183 -0.4907  0.8578 -0.2644
  183SOL    HW2  504   3.542   0.679   5.129  2.1711  0.2251  0.0228
  183SOL    HW3  505   3.504   0.641   5.271 -1.7227  1.3372 -0.6084
  183SOL    MW4  506   3.517   0.619   5.187  0.1987  0.2902 -0.4645
  184SOL     OW  507   1.957   4.082   2.054  0.1391  0.3340 -0.0472
  184SOL    HW2  508   1.958   4.151   1.988  0.4903  1.1252  0.7628
  184SOL    HW3  509   1.884   4.104   2.112  1.1534  0.8926  1.0797
  184SOL    MW4  510   1.948   4.094   2.053 -0.4520 -0.2063  0.2560
  185SOL     OW  511   5.490   3.847   2.307  0.5569 -0.2130  0.1177
  185SOL    HW2  512   5.574   3.811   2.333  0.3435  0.3986  1.7669
  185SOL    HW3  513   5.429   3.817   2.374 -0.3034  0.3123 -0.4143
  185SOL    MW4  514   5.493   3.838   2.319 -0.0050  0.5648 -0.0503
  186SOL     OW  515   0.323   2.680   1.601  1.1840 -0.2297  0.2536
  186SOL    HW2  516   0.282   2.764   1.622  0.2051 -1.0061  1.5829
  186SOL    HW3  517   0.304   2.624   1.676  1.0098 -1.9322 -0.9966
  186SOL    MW4  518   0.315   2.684   1.614  0.4781  0.0749 -0.2094
  187SOL     OW  519   1.940   1.952   5.944  0.8185  0.6075  0.7921
  187SOL    HW2  520   1.852   1.945   5.979  0.5069  1.0980  0.1367
  187SOL    HW3  521   1.987   1.878   5.981 -0.7845 -1.7487 -1.4840
  187SOL    MW4  522   1.935   1.941   5.953 -0.9565  0.3627  0.4075
  188SOL     OW  523   4.920   6.353   1.472 -0.1416  0.4476 -0.6212
  188SOL    HW2  524   4.984   6.286   1.498 -2.4810 -1.0328  1.7546
  188SOL    HW3  525   4.941   6.428   1.527 -0.2928  0.0545 -0.0231
  188SOL    MW4  526   4.932   6.354   1.483 -0.1061 -0.1298 -0.4553
  189SOL     OW  527   2.405   4.143   1.936 -0.0211  0.1503 -0.4119
  189SOL    HW2  528   2.337   4.168   1.999 -1.7196 -0.2950 -1.9761
  189SOL    HW3  529   2.479   4.117   1.990 -0.9979  0.8917  1.3717
  189SOL    MW4  530   2.406   4.143   1.952 -0.1953  0.4200 -0.2564
  190SOL     OW  531   4.964   0.713   2.445 -0.0260  0.0333 -0.1107
  190SOL    HW2  532   4.944   0.792   2.495  0.4699  0.1384 -0.0674
  190SOL    HW3  533   4.899   0.711   2.375 -0.4416  0.1324  0.2682
  190SOL    MW4  534   4.953   0.723   2.442 -0.7041  0.0924  0.0495
  191SOL     OW  535   0.601   0.440   5.948  0.2469 -0.1728 -0.1019
  191SOL    HW2  536   0.583   0.516   6.003 -0.3852 -0.2209 -0.2350
  191SOL    HW3  537   0.543   0.371   5.981  0.1325 -0.3147 -0.5858
  191SOL    MW4  538   0.591   0.441   5.960  0.0643 -0.3638  0.1773
  192SOL     OW  539   0.823   4.537   5.045 -0.1985 -0.2330  0.3004
  192SOL    HW2  540   0.762   4.596   5.089  0.4802 -0.1038  1.1023
  192SOL    HW3  541   0.909   4.562   5.078  0.3089 -0.3307 -0.9103
  192SOL    MW4  542   0.826   4.548   5.055  0.4199  0.0603 -0.1086
  193SOL     OW  543   4.871   2.683   2.626  0.0879 -0.6901  0.2902
  193SOL    HW2  544   4.890   2.730   2.708  2.8129 -0.0003 -0.6180
  193SOL    HW3  545   4.957   2.657   2.594 -1.0291 -2.1346 -1.7054
  193SOL    MW4  546   4.885   2.686   2.633 -0.2867  0.4794  0.5678
  194SOL     OW  547   4.103   2.154   5.997  0.1282 -0.1965 -0.1915
  194SOL    HW2  548   4.154   2.158   6.078 -0.8938  1.4178  0.4230
  194SOL    HW3  549   4.156   2.100   5.938  1.2116 -0.8635  1.3160
  194SOL    MW4  550   4.117   2.147   6.000  0.0142  0.7952  0.3988
  195SOL     OW  551   5.834   2.393   4.267 -0.2298  0.0671  0.9847
  195SOL    HW2  552   5.835   2.320   4.204 -0.2071  1.9130 -1.2894
  195SOL    HW3  553   5.786   2.358   4.343 -1.2840 -1.9349 -0.4922
  195SOL    MW4  554   5.828   2.378   4.269 -0.5397 -0.1205 -0.0513
  196SOL     OW  555   3.883   0.390   0.363 -0.0403  0.5120 -0.0550
  196SOL    HW2  556   3.858   0.320   0.424 -0.0016  0.2653 -0.3199
  196SOL    HW3  557   3.837   0.369   0.282  0.9646  0.0856 -0.5300
  196SOL    MW4  558   3.874   0.378   0.360 -0.3443  0.0915  0.0507
  197SOL     OW  559   1.092   1.188   3.775 -0.6529 -0.5376  0.6663
  197SOL    HW2  560   1.021   1.249   3.792  0.7996  1.3528  0.2801
  197SOL    HW3  561   1.083   1.166   3.682 -0.3541  0.2367  0.4458
  197SOL    MW4  562   1.081   1.193   3.765 -0.3476 -0.0500  0.0731
  198SOL     OW  563   3.434   5.902   3.670 -0.4355  0.4352  0.0153
  198SOL    HW2  564   3.483   5.823   3.647  0.5357  0.8922  0.4245
  198SOL    HW3  565   3.424   5.897   3.765 -0.2828  0.8433  0.0568
  198SOL    MW4  566   3.439   5.891   3.680  0.1460 -0.4701  0.1733
  199SOL     OW  567   2.367   0.888   0.056 -0.1369 -0.3665  0.3722
  199SOL    HW2  568   2.448   0.915   0.013 -0.2160 -0.9229 -0.1342
  199SOL    HW3  569   2.337   0.813   0.006  0.2404 -1.6036  1.9311
  199SOL    MW4  570   2.374   0.882   0.044 -0.2751 -0.4651  0.3380
  200SOL     OW  571   0.565   0.414   1.415  0.0110 -0.2267 -0.1875
  200SOL    HW2  572   0.475   0.380   1.421  0.0758 -0.7716 -1.8676
  200SOL    HW3  573   0.618   0.351   1.463 -0.2621 -0.9384 -0.8147
  200SOL    MW4  574   0.560   0.401   1.423  0.6088 -0.7248  0.1730
  201SOL     OW  575   3.295   1.732   1.048 -0.3857 -0.5053 -0.1674
  201SOL    HW2  576   3.208   1.741   1.008  0.3555  1.4183 -1.5508
  201SOL    HW3  577   3.341   1.811   1.021  1.7780 -1.4230  0.6256
  201SOL    MW4  578   3.289   1.744   1.039  0.1399 -0.1154 -0.2422
  202SOL     OW  579   2.443   5.946   5.702 -0.2691  0.2967 -0.5621
  202SOL    HW2  580   2.468   5.869   5.753  0.8452  1.0055 -0.0065
  202SOL    HW3  581   2.526   5.987   5.677 -0.7374  3.2195  2.0789
  202SOL    MW4  582   2.457   5.942   5.705  0.1183 -0.4601 -0.3534
  203SOL     OW  583   4.128   4.467   1.498 -0.0039  0.3939 -0.3927
  203SOL    HW2  584   4.099   4.378   1.476  0.5302  0.4869 -1.5799
  203SOL    HW3  585   4.222   4.457   1.514 -0.1421  0.5703  0.6065
  203SOL    MW4  586   4.137   4.454   1.497 -0.3219  0.0673  0.4116
  204SOL     OW  587   4.599   0.615   3.947  0.3226  0.2263  0.0731
  204SOL    HW2  588   4.647   0.691   3.914  1.0444  0.2434  1.1189
  204SOL    HW3  589   4.550   0.649   4.021  1.1838 -0.4561  0.9803
  204SOL    MW4  590   4.599   0.629   3.952 -0.0173 -0.1874 -0.4237
  205SOL     OW  591   3.209   5.120   6.028  0.1354 -0.1845 -0.0807
  205SOL    HW2  592   3.265   5.121   5.950  1.1230 -0.0167  0.6084
  205SOL    HW3  593   3.188   5.212   6.043 -1.1536 -0.3287 -0.9009
  205SOL    MW4  594   3.214   5.132   6.020 -0.0807 -0.5943 -0.1200
  206SOL     OW  595   2.851   2.135   1.472  0.3155 -0.3003 -0.0719
  206SOL    HW2  596   2.867   2.210   1.530 -0.5387  0.4196 -0.7542
  206SOL    HW3  597   2.912   2.068   1.503  0.6340  0.4460  0.9676
  206SOL    MW4  598   2.861   2.136   1.484  0.2038  0.4821 -0.1472
  207SOL     OW  599   6.255   5.803   4.608 -0.0875 -0.0373  0.4748
  207SOL    HW2  600   6.251   5.897   4.626  0.4551 -0.4288  3.0294
  207SOL    HW3  601   6.331   5.792   4.551  0.2142  0.9882  0.6583
  207SOL    MW4  602   6.264   5.814   4.603 -0.2328  0.0830 -0.1836
  208SOL     OW  603   2.928   0.742   2.696  0.3505 -0.1888  0.1379
  208SOL    HW2  604   3.015   0.782   2.690  0.3815 -0.0737  1.1787
  208SOL    HW3  605   2.892   0.776   2.778 -0.8918  0.1819 -0.5396
  208SOL    MW4  606   2.935   0.752   2.706 -0.1469 -0.4631 -0.0880
  209SOL     OW  607   5.130   4.122   3.710  0.3386 -0.0071  0.0192
  209SOL    HW2  608   5.179   4.049   3.749  2.0416 -0.5332 -2.8051
  209SOL    HW3  609   5.183   4.199   3.729  0.1415  0.0429  0.3776
  209SOL    MW4  610   5.143   4.122   3.717 -0.6554 -0.0933  0.3675
  210SOL     OW  611   2.564   0.583   6.173 -1.0831  0.0513 -0.1414
  210SOL    HW2  612   2.609   0.530   6.239 -0.5521 -1.2609 -1.5020
  210SOL    HW3  613   2.490   0.622   6.220 -2.4848 -3.2021  0.6297
  210SOL    MW4  614   2.560   0.581   6.188 -1.0457  0.2759  0.3905
  211SOL     OW  615   4.389   6.106   5.583 -0.3534  0.4719  0.0063
  211SOL    HW2  616   4.362   6.052   5.508 -2.0989  1.2428  0.0306
  211SOL    HW3  617   4.472   6.068   5.611 -1.6558 -2.4886  0.2598
  211SOL    MW4  618   4.396   6.094   5.577 -0.8360 -0.5156 -0.1832
  212SOL     OW  619   6.387   5.969   3.433 -0.4954  0.8551  0.3394
  212SOL    HW2  620   6.403   6.055   3.472  0.0253  1.8897 -1.9720
  212SOL    HW3  621   6.473   5.926   3.434  0.0535  1.7992 -1.6225
  212SOL    MW4  622   6.401   5.974   3.438  0.4737 -0.0814 -0.0957
  213SOL     OW  623   4.371   1.268   1.269 -0.2969  0.3507 -0.2226
  213SOL    HW2  624   4.379   1.354   1.310 -1.2117 -0.4425  1.7576
  213SOL    HW3  625   4.343   1.286   1.179 -0.3795  2.1054  0.1290
  213SOL    MW4  626   4.369   1.282   1.263  0.2723 -0.4116 -0.1995
  214SOL     OW  627   5.761   1.697   4.146  0.0100 -0.2248 -0.2100
  214SOL    HW2  628   5.742   1.707   4.053  1.5056  0.7796 -0.4380
  214SOL    HW3  629   5.805   1.612   4.153 -2.7684 -1.7546  0.0797
  214SOL    MW4  630   5.765   1.687   4.135 -0.1550 -0.3182 -0.2477
  215SOL     OW  631   6.271   0.795   1.887 -0.0040  0.2243 -0.2965
  215SOL    HW2  632   6.348   0.763   1.841  1.1555 -0.0182  1.6952
  215SOL    HW3  633   6.200   0.738   1.858  0.5105  0.4896 -2.2038
  215SOL    MW4  634   6.272   0.784   1.877  0.3587  0.5518  0.0428
  216SOL     OW  635   5.243   0.359   0.827  0.5215  0.4715  0.1963
  216SOL    HW2  636   5.171   0.312   0.870  0.9058 -0.3067  0.0073
  216SOL    HW3  637   5.208   0.445   0.808  0.1954  0.6947  1.6914
  216SOL    MW4  638   5.229   0.364   0.830 -0.1423  0.1944 -0.1205
  217SOL     OW  639   3.887   2.857   6.422  0.1917 -0.4787 -0.5233
  217SOL    HW2  640   3.981   2.860   6.410 -0.0718 -0.4245 -3.0125
  217SOL    HW3  641   3.854   2.930   6.369 -1.2351 -0.1305  0.7650
  217SOL    MW4  642   3.895   2.867   6.414 -0.0424  0.0849 -0.3105
  218SOL     OW  643   5.373   3.873   3.187  0.1241 -0.1145 -0.6134
  218SOL    HW2  644   5.337   3.854   3.274 -1.2984 -0.8638 -1.3262
  218SOL    HW3  645   5.461   3.837   3.189 -0.2028 -0.9108  0.2468
  218SOL    MW4  646   5.380   3.866   3.198 -0.1545  0.3104 -0.8151
  219SOL     OW  647   3.347   4.366   0.634 -0.2318 -0.1696 -0.3477
  219SOL    HW2  648   3.279   4.434   0.632 -1.2032 -1.1103 -0.3807
  219SOL    HW3  649   3.377   4.365   0.725 -0.0217  0.4741 -0.4031
  219SOL    MW4  650   3.342   4.375   0.645  0.0856 -0.1725  0.5582
  220SOL     OW  651   5.935   2.822   4.131 -0.0378 -0.1805 -0.1027
  220SOL    HW2  652   5.898   2.763   4.066 -0.5707 -0.3534  0.3445
  220SOL    HW3  653   6.027   2.797   4.136  0.5643  1.2961 -2.3577
  220SOL    MW4  654   5.942   2.811   4.123 -0.2066  0.2417  0.2435
  221SOL     OW  655   2.321   5.638   3.634 -0.2281 -0.0619 -1.0379
  221SOL    HW2  656   2.326   5.702   3.563 -1.0326  0.0719 -0.9847
  221SOL    HW3  657   2.228   5.635   3.656  0.0492  0.1628  0.2476
  221SOL    MW4  658   2.309   5.646   3.628 -0.8484 -0.2918 -0.2818
  222SOL     OW  659   1.901   1.887   5.359  0.1841  0.3978 -0.3794
  222SOL    HW2  660   1.856   1.818   5.311 -0.0715  0.9143 -0.8956
  222SOL    HW3  661   1.837   1.917   5.423  0.5097 -0.2606  0.2717
  222SOL    MW4  662   1.887   1.882   5.361 -0.5725  0.2577 -0.0114
  223SOL     OW  663   1.383   3.602   1.379 -0.1456  0.6492  0.0187
  223SOL    HW2  664   1.320   3.585   1.449  0.2009 -0.1399  0.1513
  223SOL    HW3  665   1.431   3.680   1.408 -0.3886  0.6654  0.3814
  223SOL    MW4  666   1.381   3.610   1.392  0.1970 -0.1881  0.3661
  224SOL     OW  667   3.022   5.220   2.626 -0.0554  0.2025  0.2420
  224SOL    HW2  668   3.012   5.311   2.599  1.1247  0.9977  2.2497
  224SOL    HW3  669   2.967   5.213   2.705 -2.4329 -1.6771 -1.4186
  224SOL    MW4  670   3.013   5.231   2.633 -0.2217  0.3802  0.6004
  225SOL     OW  671   6.287   2.988   0.695 -0.2121  0.0763 -0.2583
  225SOL    HW2  672   6.359   2.960   0.639 -1.0375 -0.5907 -1.0157
  225SOL    HW3  673   6.210   2.943   0.660 -1.0178  0.8342  0.4764
  225SOL    MW4  674   6.287   2.978   0.683 -0.1384  0.3478  0.4176
  226SOL     OW  675   0.869   6.005   1.981 -0.8294  0.3597  0.2431
  226SOL    HW2  676   0.896   5.917   2.008 -1.3570 -0.6332 -2.2132
  226SOL    HW3  677   0.939   6.036   1.924 -1.6168  0.6443 -0.5907
  226SOL    MW4  678   0.882   5.997   1.977 -0.1706  0.2560 -0.1174
  227SOL     OW  679   2.645   0.786   4.711 -0.0794 -0.0053 -0.1385
  227SOL    HW2  680   2.616   0.718   4.650 -0.1429 -0.5551  0.4966
  227SOL    HW3  681   2.665   0.862   4.655  2.4111 -1.2998 -1.1506
  227SOL    MW4  682   2.644   0.787   4.696 -0.0594  0.1364  0.6408
  228SOL     OW  683   2.838   5.766   4.982  0.7371 -0.0952  0.3980
  228SOL    HW2  684   2.837   5.678   4.945  0.7022 -0.8533  2.1392
  228SOL    HW3  685   2.858   5.823   4.907  0.7307 -1.5589 -0.7563
  228SOL    MW4  686   2.841   5.762   4.967  0.0813  0.4379  0.0730
  229SOL     OW  687   4.443   1.927   1.045  0.0260  0.5322  0.6663
  229SOL    HW2  688   4.377   1.988   1.010 -0.5049  0.7182  1.9510
  229SOL    HW3  689   4.427   1.845   0.998 -2.0132  0.1818  1.8727
  229SOL    MW4  690   4.432   1.925   1.034 -0.2393  0.0595  0.0129
  230SOL     OW  691   6.155   6.381   0.015  0.6488  0.0900  0.2852
  230SOL    HW2  692   6.205   6.417  -0.058  0.7397 -2.3424 -0.9471
  230SOL    HW3  693   6.068   6.366  -0.022  0.2221  0.3494  1.1741
  230SOL    MW4  694   6.150   6.384  -0.000  0.1929 -0.4186 -0.5133
  231SOL     OW  695   5.868   3.694   4.242 -0.3466  0.2889  0.0572
  231SOL    HW2  696   5.785   3.717   4.202  0.0926  0.6563 -0.6640
  231SOL    HW3  697   5.923   3.664   4.169  0.9202  2.2817  0.1153
  231SOL    MW4  698   5.865   3.693   4.227 -1.0918  0.0825 -0.0695
  232SOL     OW  699   5.701   0.949   5.119 -0.0768 -0.6969 -0.1429
  232SOL    HW2  700   5.675   0.975   5.208 -0.4103 -2.3209  0.2710
  232SOL    HW3  701   5.618   0.929   5.075  0.1371 -0.6063 -0.5885
  232SOL    MW4  702   5.686   0.949   5.125 -0.3093 -0.8669  0.1979
  233SOL     OW  703   4.800   3.914   3.398  0.2870 -0.4639  0.5795
  233SOL    HW2  704   4.856   3.864   3.340 -0.9725 -2.1629  0.7764
  233SOL    HW3  705   4.730   3.948   3.342  0.2872 -0.2354  0.7146
  233SOL    MW4  706   4.798   3.912   3.383  0.3224  0.4454  0.3650
  234SOL     OW  707   1.539   4.532   3.599 -0.2421  0.1907  0.2132
  234SOL    HW2  708   1.461   4.586   3.586 -1.2883 -1.3019 -0.0667
  234SOL    HW3  709   1.567   4.551   3.689 -1.0899  0.5427  0.4100
  234SOL    MW4  710   1.532   4.542   3.609  0.0937 -0.5182 -0.3380
  235SOL     OW  711   0.072   6.025   5.225  0.3058  0.7645  0.2503
  235SOL    HW2  712   0.037   5.953   5.277 -0.1817  0.0514 -1.0239
  235SOL    HW3  713   0.070   5.994   5.135  1.3660  1.8681 -0.2009
  235SOL    MW4  714   0.067   6.012   5.220 -0.0768  0.4086  0.0950
  236SOL     OW  715   5.133   1.823   0.290 -0.4016  0.2861  0.1129
  236SOL    HW2  716   5.043   1.855   0.294 -1.2808 -1.4167 -2.9627
  236SOL    HW3  717   5.185   1.901   0.269 -1.4152  0.9311 -0.0876
  236SOL    MW4  718   5.128   1.838   0.288  0.1024  0.1335 -0.2557
  237SOL     OW  719   4.437   2.342   4.006 -0.2741  0.4695  0.7057
  237SOL    HW2  720   4.475   2.270   3.956 -0.6578  0.2940  0.6613
  237SOL    HW3  721   4.444   2.314   4.097 -0.9524  0.1114  0.6537
  237SOL    MW4  722   4.443   2.329   4.012 -0.5024 -0.4608 -0.8302
  238SOL     OW  723   2.611   4.834   1.531 -0.5958 -0.0591  0.0633
  238SOL    HW2  724   2.631   4.926   1.519 -1.1105  0.0762  0.1855
  238SOL    HW3  725   2.521   4.825   1.500 -0.6325 -0.4683  0.2774
  238SOL    MW4  726   2.601   4.845   1.525 -0.2032 -0.2387  0.3894
  239SOL     OW  727   5.762   1.114   4.248  0.2721  0.3735  0.2839
  239SOL    HW2  728   5.775   1.134   4.155  0.1174 -0.2185  0.1306
  239SOL    HW3  729   5.688   1.053   4.249 -0.0007  0.7095  0.8342
  239SOL    MW4  730   5.754   1.109   4.236  0.4439 -0.0330 -0.7145
  240SOL     OW  731   1.140   4.290   0.914  0.0766  0.1968  0.1202
  240SOL    HW2  732   1.192   4.281   0.834 -0.1929  2.4408 -0.3919
  240SOL    HW3  733   1.050   4.303   0.884 -0.1465  0.3126  0.8087
  240SOL    MW4  734   1.135   4.291   0.900 -0.5243  0.2709  0.1433
  241SOL     OW  735   0.254   3.872   3.233  0.1786 -0.3450 -0.1269
  241SOL    HW2  736   0.258   3.930   3.157 -1.8550 -0.7622 -0.5951
  241SOL    HW3  737   0.251   3.932   3.308  1.2047  0.0774 -0.4032
  241SOL    MW4  738   0.254   3.888   3.233  0.5702  0.2978 -0.0581
  242SOL     OW  739   4.919   1.285   4.020 -0.3338 -0.6188 -0.6055
  242SOL    HW2  740   5.012   1.262   4.016 -0.3748 -0.7116 -1.1811
  242SOL    HW3  741   4.910   1.357   3.958 -0.3616  0.4373  0.5850
  242SOL    MW4  742   4.930   1.291   4.011  0.0342  0.0995  0.1280
  243SOL     OW  743   5.792   3.899   4.797 -0.7274 -0.0840 -0.3404
  243SOL    HW2  744   5.856   3.843   4.752 -0.5744  0.4493 -0.7943
  243SOL    HW3  745   5.844   3.945   4.863 -1.0675 -1.3405  0.8359
  243SOL    MW4  746   5.807   3.898   4.800 -0.5385 -0.2056  0.2616
  244SOL     OW  747   3.971   6.069   4.315 -0.5235  0.4162  0.1868
  244SOL    HW2  748   4.006   6.158   4.312 -2.3883  1.2295  0.9127
  244SOL    HW3  749   3.899   6.070   4.252 -1.2139 -0.2513  0.9482
  244SOL    MW4  750   3.966   6.081   4.306 -0.7406  0.0683  0.1865
  245SOL     OW  751   1.627   4.107   3.691 -0.1620  0.6450 -0.2422
  245SOL    HW2  752   1.604   4.024   3.734  0.9120 -0.0331 -0.9467
  245SOL    HW3  753   1.551   4.126   3.635 -0.2839 -0.0175 -0.3102
  245SOL    MW4  754   1.614   4.098   3.690  0.4587  0.2622  0.3820
  246SOL     OW  755   5.146   0.833   1.078 -0.1344 -0.1023  0.7028
  246SOL    HW2  756   5.164   0.739   1.088  1.0498 -0.1131 -1.1702
  246SOL    HW3  757   5.197   0.875   1.147 -1.3962 -0.8502  2.1600
  246SOL    MW4  758   5.155   0.826   1.088 -0.0474 -0.0335  0.1972
  247SOL     OW  759   2.277   3.865   4.094  0.2129 -0.0382  0.4828
  247SOL    HW2  760   2.303   3.921   4.167 -1.5506  1.9241 -0.2747
  247SOL    HW3  761   2.182   3.879   4.087  0.0545 -1.5963 -1.0492
  247SOL    MW4  762   2.268   3.874   4.103 -0.5346 -0.4484  0.2683
  248SOL     OW  763   2.978   6.131   2.976 -0.1879  0.5309 -0.1432
  248SOL    HW2  764   3.040   6.154   3.045 -0.4208  1.4796 -0.2275
  248SOL    HW3  765   2.892   6.150   3.014 -0.2787  1.9367 -0.9811
  248SOL    MW4  766   2.975   6.137   2.990  0.3672  0.0311  0.2277
  249SOL     OW  767   6.395   0.060   4.031  0.0124 -0.0624 -0.2447
  249SOL    HW2  768   6.488   0.044   4.049  0.6630  2.3988 -1.0416
  249SOL    HW3  769   6.383   0.032   3.941  1.0327  3.0329 -1.4793
  249SOL    MW4  770   6.406   0.054   4.022  0.0176  0.5170  0.2199
  250SOL     OW  771   5.411   5.223   1.559 -0.1690 -0.1807 -0.2605
  250SOL    HW2  772   5.379   5.226   1.649 -0.1549 -1.7490 -0.1710
  250SOL    HW3  773   5.333   5.203   1.507 -0.1893  0.7828 -0.6226
  250SOL    MW4  774   5.396   5.220   1.564  0.0215  0.0963  0.1513
  251SOL     OW  775   3.159   5.755   5.379  0.1680  0.2622  0.6171
  251SOL    HW2  776   3.131   5.715   5.461  1.6861 -1.4490  0.3497
  251SOL    HW3  777   3.156   5.849   5.396 -0.6705 -0.0303  2.2308
  251SOL    MW4  778   3.155   5.762   5.392 -0.2539 -0.3766 -0.3053
  252SOL     OW  779   4.068   3.634   1.367 -0.3207  0.4793 -1.1073
  252SOL    HW2  780   4.102   3.710   1.413 -0.4316 -0.0619 -0.1112
  252SOL    HW3  781   4.020   3.585   1.433  0.7091 -1.0605 -1.4456
  252SOL    MW4  782   4.066   3.637   1.382 -0.3343 -0.3999  0.0538
  253SOL     OW  783   5.405   1.079   2.470  0.1480 -0.4157 -0.5566
  253SOL    HW2  784   5.416   1.174   2.470 -1.0427 -0.2419  1.0945
  253SOL    HW3  785   5.328   1.063   2.416  0.2009 -0.4283 -0.6293
  253SOL    MW4  786   5.397   1.089   2.462  0.0128 -0.0819  0.0397
  254SOL     OW  787   2.329   4.539   3.399  0.1283  0.5428  0.4622
  254SOL    HW2  788   2.394   4.505   3.460  2.4967  3.1304 -0.4181
  254SOL    HW3  789   2.298   4.620   3.440 -0.9438  0.4777 -0.1670
  254SOL    MW4  790   2.333   4.546   3.412 -0.4443  0.3413 -0.3575
  255SOL     OW  791   4.628   6.160   5.331  0.1369  0.3269  0.3787
  255SOL    HW2  792   4.640   6.241   5.381 -1.8152  0.4068  0.8154
  255SOL    HW3  793   4.533   6.157   5.314  0.4641 -0.7346 -1.5693
  255SOL    MW4  794   4.617   6.170   5.335 -0.1323 -0.5990  0.1502
  256SOL     OW  795   2.008   6.053   1.297  0.1361  0.0370  0.4664
  256SOL    HW2  796   2.068   6.105   1.350  0.5017  0.8665 -0.7215
  256SOL    HW3  797   2.066   5.998   1.244 -0.1157  0.9548 -0.8039
  256SOL    MW4  798   2.024   6.052   1.297  0.3033  0.2298  0.0289
  257SOL     OW  799   0.571   5.028   5.627 -0.6454  0.2256  0.4666
  257SOL    HW2  800   0.537   5.052   5.713 -1.6417  0.4601  0.0263
  257SOL    HW3  801   0.527   4.945   5.606 -1.3459  0.7826 -0.3249
  257SOL    MW4  802   0.560   5.020   5.635  0.3865  0.6363  0.0719
  258SOL     OW  803   1.201   5.466   4.043 -0.5077 -0.1522  0.0614
  258SOL    HW2  804   1.240   5.516   3.972  0.4778  0.6949  1.1433
  258SOL    HW3  805   1.118   5.510   4.061 -1.6975 -1.5108 -1.7569
  258SOL    MW4  806   1.195   5.478   4.036  0.3408 -0.6452  0.2698
  259SOL     OW  807   4.332   2.383   0.740  0.0109 -0.2469  0.0659
  259SOL    HW2  808   4.349   2.475   0.723  1.1195 -0.6201 -1.0445
  259SOL    HW3  809   4.247   2.381   0.783 -1.2569  1.1253 -2.2304
  259SOL    MW4  810   4.323   2.395   0.743  0.1545  0.1843 -0.2757
  260SOL     OW  811   4.405   0.358   3.376  0.2568 -0.1591 -0.0122
  260SOL    HW2  812   4.474   0.374   3.312  0.9114 -1.8130  0.2223
  260SOL    HW3  813   4.451   0.349   3.459 -0.3093 -0.6165  0.2593
  260SOL    MW4  814   4.420   0.359   3.379  0.0722 -0.2260 -0.1364
  261SOL     OW  815   1.926   4.107   1.596 -0.4174  0.2555  0.3016
  261SOL    HW2  816   1.888   4.045   1.533  2.7078 -2.0472  0.4481
  261SOL    HW3  817   1.981   4.164   1.543  1.7249 -1.2877  0.7302
  261SOL    MW4  818   1.928   4.106   1.581  0.3277 -0.1448 -0.4278
  262SOL     OW  819   2.237   4.308   3.288  0.0070 -0.0835 -0.3981
  262SOL    HW2  820   2.269   4.388   3.329  0.6591  0.4788 -1.9251
  262SOL    HW3  821   2.217   4.249   3.361 -0.0693  1.3032  0.7317
  262SOL    MW4  822   2.238   4.311   3.303 -0.7764 -0.7813  0.9855
  263SOL     OW  823   5.817   3.917   5.607 -0.0559 -0.0974  0.0370
  263SOL    HW2  824   5.832   3.823   5.623  2.7984 -0.0091 -1.4260
  263SOL    HW3  825   5.777   3.949   5.688  0.3061 -2.3043  1.1772
  263SOL    MW4  826   5.814   3.908   5.620  0.2499  0.5437 -0.0586
  264SOL     OW  827   4.510   4.579   0.102 -0.2209  0.2033  0.2309
  264SOL    HW2  828   4.436   4.599   0.044  0.4258  0.9344 -0.3642
  264SOL    HW3  829   4.531   4.663   0.143  1.4115  0.4096 -0.9553
  264SOL    MW4  830   4.503   4.593   0.100  0.4133 -0.5372  0.2000
  265SOL     OW  831   0.133   0.212   3.715 -0.2257 -0.5806 -0.3489
  265SOL    HW2  832   0.188   0.231   3.638  2.0467 -0.2177  1.2712
  265SOL    HW3  833   0.072   0.286   3.718  0.5356  0.1116 -1.0678
  265SOL    MW4  834   0.133   0.224   3.705 -0.4579  0.8271 -0.1853
  266SOL     OW  835   0.268   5.663   4.040  0.0070 -0.0384  0.3532
  266SOL    HW2  836   0.328   5.660   3.965  0.4416  0.9998  0.6394
  266SOL    HW3  837   0.184   5.634   4.005  0.4452 -0.5491 -0.2960
  266SOL    MW4  838   0.265   5.659   4.026  0.3786  0.2460  0.1181
  267SOL     OW  839   1.215   1.805   2.729 -0.6784 -0.0768 -0.0897
  267SOL    HW2  840   1.120   1.810   2.714 -0.4290  0.5983 -1.6150
  267SOL    HW3  841   1.224   1.747   2.805 -2.3189  0.0154  0.2140
  267SOL    MW4  842   1.203   1.798   2.738  0.2192 -0.2087  0.7088
  268SOL     OW  843   6.397   5.006   0.047 -0.0139 -0.0744 -0.2709
  268SOL    HW2  844   6.487   5.037   0.056  0.3723 -0.7684 -1.4509
  268SOL    HW3  845   6.403   4.911   0.054 -0.9496 -0.0448  1.5961
  268SOL    MW4  846   6.410   4.998   0.049  0.2303  0.7947 -0.1115
  269SOL     OW  847   5.132   4.348   3.080  0.2855 -0.1412 -0.1436
  269SOL    HW2  848   5.188   4.424   3.064 -0.5666  0.0604 -2.4636
  269SOL    HW3  849   5.184   4.292   3.138  2.0597  0.9194 -0.6341
  269SOL    MW4  850   5.146   4.351   3.086  0.3999 -0.0712 -0.1531
  270SOL     OW  851   5.677   2.847   2.199  0.2682  0.3426  0.1002
  270SOL    HW2  852   5.708   2.758   2.215  1.7845  0.6212 -1.1548
  270SOL    HW3  853   5.634   2.843   2.114 -1.0105  0.5083  0.7123
  270SOL    MW4  854   5.675   2.835   2.190 -0.2710  0.0348  0.0319
  271SOL     OW  855   2.767   0.741   6.049  0.1892  0.2933  0.2622
  271SOL    HW2  856   2.788   0.706   5.963  1.8902  0.1916  0.6716
  271SOL    HW3  857   2.690   0.691   6.077 -0.1420  0.0562 -1.0198
  271SOL    MW4  858   2.759   0.730   6.042  0.3341  0.2383 -0.3434
  272SOL     OW  859   5.054   1.788   3.106  0.8736  0.4036 -0.1296
  272SOL    HW2  860   5.102   1.716   3.149  1.2728  0.5318 -0.3622
  272SOL    HW3  861   4.999   1.744   3.041  2.3487  0.4257 -1.4414
  272SOL    MW4  862   5.053   1.772   3.103 -0.1455 -0.2745  0.4169
  273SOL     OW  863   4.913   4.087   3.988 -0.6864  0.4692 -0.6755
  273SOL    HW2  864   4.979   4.150   4.018 -2.1526  0.7642  2.3239
  273SOL    HW3  865   4.963   4.009   3.965  0.9396  1.7904 -1.8934
  273SOL    MW4  866   4.928   4.085   3.989 -0.4900 -0.1662 -0.2379
  274SOL     OW  867   5.825   4.434   1.315 -0.1153 -0.3727 -0.1019
  274SOL    HW2  868   5.823   4.439   1.220 -0.6523 -0.6983 -0.1093
  274SOL    HW3  869   5.898   4.491   1.340 -0.4712  0.3474 -0.6613
  274SOL    MW4  870   5.834   4.442   1.306 -0.4029  0.4304  0.0082
  275SOL     OW  871   1.243   4.437   1.713 -0.5011 -0.6724  0.2130
  275SOL    HW2  872   1.205   4.513   1.670 -0.6926 -0.1284  1.2968
  275SOL    HW3  873   1.202   4.435   1.800 -3.2380 -4.1045 -0.9223
  275SOL    MW4  874   1.233   4.447   1.719 -0.3734 -0.6104 -0.3518
  276SOL     OW  875   6.268   2.341   3.676  0.4166  0.0364 -0.3931
  276SOL    HW2  876   6.295   2.255   3.644  1.0285 -0.0904  0.4477
  276SOL    HW3  877   6.238   2.387   3.598 -0.3592 -1.0927 -0.7964
  276SOL    MW4  878   6.267   2.336   3.662  0.1093 -0.0320 -0.6079
  277SOL     OW  879   3.924   3.797   3.280 -0.4208  0.5187 -0.3862
  277SOL    HW2  880   3.917   3.854   3.203 -1.5997  1.5959  0.4878
  277SOL    HW3  881   3.971   3.720   3.248  0.4024  1.5708 -1.8301
  277SOL    MW4  882   3.929   3.794   3.266  0.0621 -0.0173 -0.4227
  278SOL     OW  883   2.500   4.190   4.764 -0.5084 -0.1103  0.5786
  278SOL    HW2  884   2.532   4.146   4.686 -0.8553 -0.7244  0.7788
  278SOL    HW3  885   2.510   4.126   4.835  0.8594  0.8154  1.2802
  278SOL    MW4  886   2.506   4.176   4.763 -0.7210 -0.0164 -0.4450
  279SOL     OW  887   3.345   3.425   0.908  0.0648  0.2158 -0.0054
  279SOL    HW2  888   3.301   3.392   0.987  0.2940 -0.6397 -0.2292
  279SOL    HW3  889   3.363   3.347   0.856 -0.8662  0.8317 -1.3242
  279SOL    MW4  890   3.341   3.410   0.912  0.3146  0.3805  0.0351
  280SOL     OW  891   4.960   3.130   3.001  0.3371  0.2303 -0.2005
  280SOL    HW2  892   4.917   3.175   2.929  0.9752  1.6405  0.2598
  280SOL    HW3  893   4.889   3.088   3.050 -0.4468  1.7563  0.0333
  280SOL    MW4  894   4.945   3.130   2.998  0.7700 -0.4043 -0.0889
  281SOL     OW  895   4.556   5.409   3.943  0.1858  0.1141 -0.1404
  281SOL    HW2  896   4.581   5.318   3.953  0.1557  0.3338  2.7620
  281SOL    HW3  897   4.466   5.406   3.910  0.4933 -0.8530 -0.9357
  281SOL    MW4  898   4.547   5.397   3.940 -0.6013 -0.8366 -0.0149
  282SOL     OW  899   1.035   4.005   0.909  0.1162 -0.0946 -0.3646
  282SOL    HW2  900   1.097   3.943   0.871 -0.3021  0.0867 -1.3894
  282SOL    HW3  901   1.077   4.090   0.900  0.1249 -0.0801 -0.1867
  282SOL    MW4  902   1.048   4.008   0.903 -0.2389  0.0068 -0.6741
  283SOL     OW  903   6.247   4.445   1.640  0.1887  0.2190  0.2617
  283SOL    HW2  904   6.213   4.411   1.558  0.1024 -0.4101  0.5578
  283SOL    HW3  905   6.340   4.421   1.639  0.2045  0.2763  0.3214
  283SOL    MW4  906   6.255   4.438   1.629 -0.0127 -0.8860 -0.2628
  284SOL     OW  907   0.190   0.834   0.145 -0.2125  0.4711  0.1114
  284SOL    HW2  908   0.134   0.819   0.069  0.1305 -1.2896  0.1739
  284SOL    HW3  909   0.138   0.804   0.219  0.1813  0.3586  0.3464
  284SOL    MW4  910   0.176   0.828   0.145  0.3529 -0.1133 -0.5337
  285SOL     OW  911   1.906   4.435   5.571  0.2368 -0.7396 -0.1377
  285SOL    HW2  912   1.974   4.488   5.612 -1.0093  1.3437 -0.6363
  285SOL    HW3  913   1.865   4.387   5.644 -1.0544  1.8671  0.9778
  285SOL    MW4  914   1.909   4.436   5.586 -0.7803 -0.1529 -0.6028
  286SOL     OW  915   2.849   1.360   1.805  0.2962 -0.7361  0.5599
  286SOL    HW2  916   2.881   1.281   1.763 -0.1973 -0.4089 -0.4697
  286SOL    HW3  917   2.827   1.333   1.894  0.0768 -1.7659  0.2037
  286SOL    MW4  918   2.850   1.346   1.811  0.5489  0.1097 -0.2085
  287SOL     OW  919   3.421   3.038   4.559  0.4242  0.5719  0.0465
  287SOL    HW2  920   3.486   2.970   4.542 -1.1934 -1.0980  0.1276
  287SOL    HW3  921   3.411   3.083   4.475  1.4436  0.6522 -0.0412
  287SOL    MW4  922   3.428   3.035   4.545 -0.0377 -0.2149  0.2107
  288SOL     OW  923   1.352   0.061   6.414  0.1365 -0.5267  0.0778
  288SOL    HW2  924   1.344   0.132   6.477  1.6998 -0.7416  0.5569
  288SOL    HW3  925   1.446   0.040   6.413  0.1524 -0.6300 -2.2042
  288SOL    MW4  926   1.364   0.068   6.422  0.1639 -0.1015  0.4988
  289SOL     OW  927   3.448   0.445   1.365  0.2305  0.0895  0.4568
  289SOL    HW2  928   3.387   0.390   1.317 -1.1736  1.6118  0.4424
  289SOL    HW3  929   3.502   0.487   1.298  0.8237 -0.6720  0.4371
  289SOL    MW4  930   3.447   0.443   1.350  0.4879 -0.1660  0.1124
  290SOL     OW  931   0.244   3.090   3.229  1.2308 -0.2960  0.0413
  290SOL    HW2  932   0.191   3.168   3.243  0.8841 -0.6028  0.4631
  290SOL    HW3  933   0.235   3.040   3.310 -0.0733 -1.6662 -0.8958
  290SOL    MW4  934   0.236   3.094   3.241  0.1686 -0.4245  0.2033
  291SOL     OW  935   5.053   1.203   0.789 -0.3798 -0.4059 -0.2831
  291SOL    HW2  936   5.110   1.227   0.716  0.6508 -3.6315 -0.6717
  291SOL    HW3  937   5.109   1.154   0.848 -2.1088 -1.1926  0.7845
  291SOL    MW4  938   5.068   1.200   0.787 -0.3878 -0.3064  0.3733
  292SOL     OW  939   5.987   4.912   1.799 -0.6784  0.0400  0.2080
  292SOL    HW2  940   5.937   4.907   1.880 -0.2401  0.9613  0.5526
  292SOL    HW3  941   6.023   4.824   1.787 -0.3320  0.0212  1.2925
  292SOL    MW4  942   5.985   4.899   1.808  0.0270  0.2077  0.5431
  293SOL     OW  943   0.458   0.744   0.464  0.3787  0.3327 -0.4798
  293SOL    HW2  944   0.375   0.696   0.454 -1.3448  2.4266  2.3494
  293SOL    HW3  945   0.432   0.836   0.469  2.5824  0.9524  2.5628
  293SOL    MW4  946   0.443   0.750   0.463 -0.2179 -0.2772 -0.3251
  294SOL     OW  947   5.711   4.049   0.695 -0.4492 -0.1499  0.5337
  294SOL    HW2  948   5.648   3.990   0.653  1.2702 -0.8263 -1.2451
  294SOL    HW3  949   5.709   4.129   0.643 -0.7109  0.3031  1.2230
  294SOL    MW4  950   5.702   4.051   0.683  0.1695  0.7034 -0.3755
  295SOL     OW  951   2.826   3.822   3.660  0.0337 -0.0068  0.4059
  295SOL    HW2  952   2.823   3.734   3.696 -1.6374  0.2892  1.1131
  295SOL    HW3  953   2.787   3.877   3.729  1.8283  1.4351  0.3492
  295SOL    MW4  954   2.820   3.818   3.674  0.3560  0.1146  0.2985
  296SOL     OW  955   1.131   5.100   1.407  0.1035  0.3829  0.0629
  296SOL    HW2  956   1.207   5.075   1.459 -0.0407 -2.9830 -1.1174
  296SOL    HW3  957   1.140   5.195   1.396  2.7702  0.4713  1.9637
  296SOL    MW4  958   1.142   5.110   1.413 -0.1620 -0.3838  0.1931
  297SOL     OW  959   0.045   1.094   4.480  0.2568  0.1332  0.1425
  297SOL    HW2  960   0.110   1.094   4.410  2.1561  0.5563  1.8169
  297SOL    HW3  961  -0.030   1.048   4.442  0.9049  0.9840 -2.3893
  297SOL    MW4  962   0.044   1.088   4.465 -0.3227  0.1264  0.3930
  298SOL     OW  963   5.573   1.233   3.010  0.1250  0.4688  0.5024
  298SOL    HW2  964   5.544   1.162   3.068 -0.1698  0.1414 -0.0404
  298SOL    HW3  965   5.579   1.192   2.924  2.5802  0.4131  0.6311
  298SOL    MW4  966   5.570   1.218   3.006  0.1770  0.6530 -0.5237
  299SOL     OW  967   6.210   0.169   1.584 -0.4748  0.1922 -0.5123
  299SOL    HW2  968   6.141   0.166   1.517 -1.1746 -2.0842  0.2100
  299SOL    HW3  969   6.229   0.077   1.602  1.3032  0.7712  0.8167
  299SOL    MW4  970   6.203   0.157   1.577 -0.6178  0.2083 -0.1178
  300SOL     OW  971   5.419   3.166   3.821  0.3569  0.1567 -0.3021
  300SOL    HW2  972   5.424   3.072   3.806 -0.6104  0.0587 -0.0607
  300SOL    HW3  973   5.410   3.204   3.734 -1.7613 -0.1684 -0.2772
  300SOL    MW4  974   5.419   3.159   3.808  0.0142  0.1426  0.7554
  301SOL     OW  975   4.980   3.736   0.077 -0.1616 -0.5485 -0.2763
  301SOL    HW2  976   4.923   3.721   0.152  0.0693  1.2471  0.3028
  301SOL    HW3  977   4.926   3.785   0.015  0.0711 -0.8313 -0.7110
  301SOL    MW4  978   4.965   3.740   0.079 -0.7104  0.4782 -0.2909
  302SOL     OW  979   2.521   6.143   2.928  0.1019  0.2305  0.4800
  302SOL    HW2  980   2.591   6.171   2.987 -0.0479  0.9877  0.3029
  302SOL    HW3  981   2.486   6.224   2.891 -1.3709 -0.0669  1.1332
  302SOL    MW4  982   2.525   6.157   2.931 -0.0451  0.0716 -0.2911
  303SOL     OW  983   2.197   2.692   5.393 -0.4256  0.1377 -0.0689
  303SOL    HW2  984   2.241   2.771   5.423 -2.6663  0.2662  3.4937
  303SOL    HW3  985   2.127   2.724   5.335 -0.9721  0.7864  0.9121
  303SOL    MW4  986   2.193   2.706   5.389 -0.2337  0.8064 -0.5642
  304SOL     OW  987   5.232   3.857   1.517 -0.6268  0.6956 -0.5187
  304SOL    HW2  988   5.217   3.853   1.423 -1.5522  1.4053 -0.4087
  304SOL    HW3  989   5.255   3.949   1.534 -0.4745  0.5750 -0.0497
  304SOL    MW4  990   5.233   3.869   1.507 -0.1989 -0.2568 -0.0121
  305SOL     OW  991   3.415   5.108   5.826 -0.4501 -0.1724  0.4137
  305SOL    HW2  992   3.392   5.030   5.776 -1.9790  0.9083 -0.6482
  305SOL    HW3  993   3.443   5.172   5.761 -1.8992  1.0710  0.9452
  305SOL    MW4  994   3.416   5.107   5.811 -0.5327  0.3717  0.0683
  306SOL     OW  995   6.190   0.930   3.096 -0.1739  0.0383 -0.4319
  306SOL    HW2  996   6.113   0.974   3.134 -0.4672 -0.1464 -0.8090
  306SOL    HW3  997   6.259   0.996   3.103 -0.3671  0.2161 -0.1064
  306SOL    MW4  998   6.189   0.945   3.102 -0.0708  0.3623  0.1070
  307SOL     OW  999   3.077   1.176   2.930  0.1760  0.2481  0.3372
  307SOL    HW2 1000   2.985   1.183   2.955 -0.2291  0.5913 -1.1481
  307SOL    HW3 1001   3.102   1.086   2.952 -1.0088 -0.3742 -0.7506
  307SOL    MW4 1002   3.068   1.165   2.936  0.2829  0.4580 -0.1922
  308SOL     OW 1003   4.096   1.180   1.381 -0.1312  0.1528  0.3177
  308SOL    HW2 1004   4.180   1.214   1.351  1.0200 -2.5298  0.1911
  308SOL    HW3 1005   4.052   1.149   1.301 -0.4889  0.0383  0.5548
  308SOL    MW4 1006   4.101   1.180   1.366  0.1347  0.0282  0.0839
  309SOL     OW 1007   2.842   3.244   1.091 -0.2059  0.3725 -0.0172
  309SOL    HW2 1008   2.832   3.263   0.998 -1.1267  0.3454  0.0667
  309SOL    HW3 1009   2.755   3.261   1.129  0.4099  1.4103  1.0133
  309SOL    MW4 1010   2.829   3.249   1.084  0.1306  0.1428  0.3086
  310SOL     OW 1011   2.809   1.439   2.327  0.5441  0.6037 -0.5555
  310SOL    HW2 1012   2.806   1.368   2.391  0.7497  1.0273 -0.0701
  310SOL    HW3 1013   2.721   1.478   2.329  0.4983  0.5074 -0.6606
  310SOL    MW4 1014   2.797   1.435   2.336  0.2930  0.0960  0.0058
  311SOL     OW 1015   3.073   3.148   6.258 -0.1834  0.7575 -0.0867
  311SOL    HW2 1016   3.119   3.089   6.199 -1.3102  0.4924 -0.7365
  311SOL    HW3 1017   3.142   3.190   6.309  0.8527  1.2363 -1.8152
  311SOL    MW4 1018   3.088   3.146   6.257 -0.6055  0.2496  0.3493
  312SOL     OW 1019   2.125   0.237   5.856  0.1320 -0.8856 -0.1393
  312SOL    HW2 1020   2.034   0.208   5.861 -0.1129  0.0426  1.0151
  312SOL    HW3 1021   2.138   0.256   5.763 -1.4031  0.6320 -0.1035
  312SOL    MW4 1022   2.115   0.236   5.844  0.0697 -0.0647  0.3393
  313SOL     OW 1023   4.378   2.646   0.663  0.3529 -0.4388  0.6227
  313SOL    HW2 1024   4.471   2.667   0.656  0.1595 -0.0350 -1.3156
  313SOL    HW3 1025   4.340   2.721   0.707  0.5948  0.6094 -0.8733
  313SOL    MW4 1026   4.385   2.659   0.668 -0.0201  0.1485 -0.1384
  314SOL     OW 1027   2.498   4.049   5.285 -0.0149 -0.3334  0.2918
  314SOL    HW2 1028   2.481   3.991   5.359 -0.6250  0.0884  0.4933
  314SOL    HW3 1029   2.416   4.047   5.234 -0.3719  1.0308  0.7789
  314SOL    MW4 1030   2.485   4.041   5.288 -0.2512  0.1483  0.5418
  315SOL     OW 1031   1.561   5.835   5.404  0.4684  0.2874 -0.0015
  315SOL    HW2 1032   1.562   5.838   5.500  1.4311 -0.0404  0.0149
  315SOL    HW3 1033   1.506   5.760   5.382 -1.4720  1.5828  0.2278
  315SOL    MW4 1034   1.554   5.826   5.414 -0.3533 -0.3564 -0.1377
  316SOL     OW 1035   5.977   4.675   1.456 -0.0109 -0.7623 -0.1347
  316SOL    HW2 1036   5.927   4.746   1.417  0.2260 -1.2653 -1.4034
  316SOL    HW3 1037   6.068   4.704   1.452  0.1728 -1.4587 -1.4181
  316SOL    MW4 1038   5.982   4.688   1.451  0.4329 -0.0911 -0.2412
  317SOL     OW 1039   4.841   5.339   1.097  0.2647 -0.0609 -0.5589
  317SOL    HW2 1040   4.770   5.280   1.118  0.8215  0.0483  1.8619
  317SOL    HW3 1041   4.829   5.414   1.155  1.0626  1.0184 -1.7280
  317SOL    MW4 1042   4.830   5.341   1.107 -0.3946 -0.0741  0.2899
  318SOL     OW 1043   2.421   0.033   2.876 -0.1496 -0.1509 -0.0820
  318SOL    HW2 1044   2.502   0.083   2.886 -0.4480 -0.0480  2.5512
  318SOL    HW3 1045   2.374   0.076   2.805  0.8197  1.6166  0.2963
  318SOL    MW4 1046   2.425   0.045   2.868  0.0902 -0.3464  0.1976
  319SOL     OW 1047   5.580   5.702   2.247  0.2040  0.2740 -0.2734
  319SOL    HW2 1048   5.566   5.627   2.189 -0.5188 -0.2514  0.5481
  319SOL    HW3 1049   5.658   5.746   2.212 -0.0292 -0.2046 -1.4412
  319SOL    MW4 1050   5.588   5.698   2.235 -0.1199  0.2403 -0.4782
  320SOL     OW 1051   2.172   0.158   3.565  0.2075 -0.0151  0.1885
  320SOL    HW2 1052   2.132   0.244   3.554  1.0205  0.3777  0.2379
  320SOL    HW3 1053   2.157   0.135   3.656 -0.9354 -0.4130 -0.0769
  320SOL    MW4 1054   2.164   0.166   3.575 -0.0035  0.1744  0.3844
  321SOL     OW 1055   3.789   2.178   1.102 -0.3879 -0.3886  0.7835
  321SOL    HW2 1056   3.791   2.266   1.140 -2.4356 -1.2347  3.1806
  321SOL    HW3 1057   3.868   2.136   1.137 -1.1266 -0.4747  2.4352
  321SOL    MW4 1058   3.800   2.184   1.112 -0.4378 -0.0540 -0.0839
  322SOL     OW 1059   4.317   0.915   1.352  0.0815  0.8101 -0.7713
  322SOL    HW2 1060   4.373   0.988   1.379 -1.4872  1.1101  2.1850
  322SOL    HW3 1061   4.231   0.938   1.387 -0.5411 -2.3236  0.0423
  322SOL    MW4 1062   4.313   0.928   1.360 -0.1416 -0.1944  0.1910
  323SOL     OW 1063   3.043   1.629   2.911 -0.5074  0.5966  0.7561
  323SOL    HW2 1064   3.047   1.709   2.858  1.0820 -0.4408 -0.8355
  323SOL    HW3 1065   2.965   1.583   2.879 -0.6947  0.9115  0.7557
  323SOL    MW4 1066   3.033   1.633   2.900  0.1790  0.2357 -0.3133
  324SOL     OW 1067   3.723   1.209   4.638  0.6500  0.2969 -0.5431
  324SOL    HW2 1068   3.778   1.171   4.571 -0.9727 -4.5930  0.4666
  324SOL    HW3 1069   3.769   1.193   4.720 -0.4751 -0.3401 -0.0018
  324SOL    MW4 1070   3.736   1.202   4.640 -0.3121  0.3228 -0.0871
  325SOL     OW 1071   4.099   0.588   5.528  0.6573 -0.2666 -0.1294
  325SOL    HW2 1072   4.022   0.642   5.511  1.5533  0.8758 -0.7109
  325SOL    HW3 1073   4.080   0.544   5.611  0.3669  1.8503  0.9822
  325SOL    MW4 1074   4.086   0.589   5.537 -0.2190  0.3845  0.4060
  326SOL     OW 1075   4.236   5.395   4.995  0.2869  0.1331 -0.4310
  326SOL    HW2 1076   4.149   5.432   4.981 -0.1797  0.3229  2.3657
  326SOL    HW3 1077   4.287   5.466   5.034  1.1799 -0.4874 -0.4271
  326SOL    MW4 1078   4.231   5.409   4.998 -0.0266 -0.2262 -0.7683
  327SOL     OW 1079   1.540   5.308   4.767 -0.4363  0.5735  0.4757
  327SOL    HW2 1080   1.538   5.214   4.748  0.1334  0.3224  1.5721
  327SOL    HW3 1081   1.514   5.314   4.859  2.2338  1.1930  1.2775
  327SOL    MW4 1082   1.536   5.296   4.777  0.5247  0.1082  0.7338
  328SOL     OW 1083   1.044   1.312   4.231 -0.1273  0.4185 -0.2736
  328SOL    HW2 1084   0.999   1.385   4.274 -1.6817 -1.0014  0.6489
  328SOL    HW3 1085   0.984   1.286   4.161  1.1784  1.0232 -1.6743
  328SOL    MW4 1086   1.030   1.319   4.227 -0.2093 -0.2459 -0.4577
  329SOL     OW 1087   0.601   1.184   0.993  0.2258 -0.1092 -0.1415
  329SOL    HW2 1088   0.625   1.209   0.904 -0.8928 -0.7655 -0.6426
  329SOL    HW3 1089   0.571   1.265   1.034  0.4238  0.1281 -0.4595
  329SOL    MW4 1090   0.600   1.198   0.987  0.1576 -0.0158 -0.4360
  330SOL     OW 1091   2.506   3.887   4.546  0.8254 -0.2432 -0.2295
  330SOL    HW2 1092   2.569   3.959   4.536 -0.0906  1.2373  3.1953
  330SOL    HW3 1093   2.561   3.809   4.557  2.2475  0.9703  2.5155
  330SOL    MW4 1094   2.522   3.887   4.546  0.2527  0.0185 -0.5723
  331SOL     OW 1095   5.537   0.931   6.302 -0.2616 -0.1242 -0.4537
  331SOL    HW2 1096   5.516   0.913   6.211 -1.6111  2.1529 -0.6714
  331SOL    HW3 1097   5.633   0.921   6.307  0.0142  0.9688 -2.4498
  331SOL    MW4 1098   5.547   0.927   6.291  0.6931 -0.2969 -0.1976
  332SOL     OW 1099   2.454   2.443   3.395  0.3167 -0.2351  0.2534
  332SOL    HW2 1100   2.368   2.485   3.395  0.4668  0.1557  2.5327
  332SOL    HW3 1101   2.503   2.488   3.326 -1.1756 -0.2496 -0.8601
  332SOL    MW4 1102   2.449   2.454   3.386  0.4972  0.0148 -0.3224
  333SOL     OW 1103   5.309   2.372   2.600 -0.4295  0.2401 -0.3795
  333SOL    HW2 1104   5.249   2.300   2.577 -0.1390  0.1386 -0.8300
  333SOL    HW3 1105   5.358   2.389   2.520  0.6053 -0.1126  0.1599
  333SOL    MW4 1106   5.307   2.364   2.587 -0.2023 -0.1302  0.6425
  334SOL     OW 1107   0.855   5.066   5.631 -0.2440  0.5093 -0.3202
  334SOL    HW2 1108   0.759   5.062   5.628 -0.1928 -2.0870 -1.6047
  334SOL    HW3 1109   0.881   5.075   5.539  0.7160 -2.4351 -0.4428
  334SOL    MW4 1110   0.846   5.066   5.618  0.4336  0.5027 -0.5471
  335SOL     OW 1111   0.037   2.684   3.580 -0.1163 -0.1088  0.3147
  335SOL    HW2 1112   0.012   2.642   3.663  0.5212  0.9700  1.0755
  335SOL    HW3 1113   0.058   2.612   3.522  2.1556 -0.8919  1.9616
  335SOL    MW4 1114   0.036   2.669   3.583 -0.1472  0.1826 -0.2115
  336SOL     OW 1115   1.908   0.627   4.526  0.0915 -0.1364  0.1727
  336SOL    HW2 1116   1.902   0.697   4.461  3.5731 -0.1139 -0.3570
  336SOL    HW3 1117   1.868   0.551   4.485  1.6768  0.0359 -1.8612
  336SOL    MW4 1118   1.902   0.626   4.512 -0.0592 -0.5170  0.1711
  337SOL     OW 1119   2.351   0.721   1.843 -0.0560  0.0628 -0.2920
  337SOL    HW2 1120   2.283   0.788   1.841  0.0242  0.1313 -1.3990
  337SOL    HW3 1121   2.367   0.701   1.751 -0.0854 -1.5014  0.0235
  337SOL    MW4 1122   2.344   0.727   1.831  0.7657 -0.0488 -0.2912
  338SOL     OW 1123   1.382   4.295   4.688  0.2993 -0.4110 -1.0569
  338SOL    HW2 1124   1.290   4.284   4.712 -0.1029  2.7453 -0.7507
  338SOL    HW3 1125   1.381   4.297   4.592  0.1260 -0.8221 -1.0672
  338SOL    MW4 1126   1.369   4.294   4.678 -0.7175 -0.4475 -0.4065
  339SOL     OW 1127   2.175   5.767   2.086  0.2668 -0.3438  0.3993
  339SOL    HW2 1128   2.218   5.689   2.121  0.8775 -0.5127 -0.6905
  339SOL    HW3 1129   2.194   5.836   2.150  0.2934 -0.9177  1.0255
  339SOL    MW4 1130   2.183   5.766   2.099  0.3652  0.2521  0.1702
  340SOL     OW 1131   3.562   0.373   0.216 -0.4764  0.6082  0.4846
  340SOL    HW2 1132   3.472   0.405   0.204 -0.2440  0.8022 -0.8875
  340SOL    HW3 1133   3.606   0.444   0.263 -1.1403  0.3148  1.5937
  340SOL    MW4 1134   3.556   0.387   0.220  0.2039  0.1877  0.6019
  341SOL     OW 1135   3.906   0.020   0.679  0.5369 -0.1640  0.3319
  341SOL    HW2 1136   3.978   0.082   0.692  0.0543  0.6521 -0.7775
  341SOL    HW3 1137   3.827   0.072   0.697 -0.0528  0.3934 -3.1789
  341SOL    MW4 1138   3.905   0.035   0.683 -0.2231  0.3271  0.2364
  342SOL     OW 1139   1.164   0.025   2.454  0.0863 -0.3682  0.1675
  342SOL    HW2 1140   1.077  -0.009   2.431  0.3166 -2.5495  2.1142
  342SOL    HW3 1141   1.214  -0.053   2.479  2.8242  0.7476 -1.3703
  342SOL    MW4 1142   1.159   0.010   2.454 -0.3444 -0.1558  0.0777
  343SOL     OW 1143   0.888   2.781   6.196  0.6387  0.3092 -0.1229
  343SOL    HW2 1144   0.825   2.746   6.260 -0.6982  1.1502 -0.9351
  343SOL    HW3 1145   0.901   2.709   6.134 -0.1959  0.3833 -0.4072
  343SOL    MW4 1146   0.881   2.767   6.196 -0.1787 -0.2076  1.0507
  344SOL     OW 1147   6.001   0.466   2.590 -0.3126  0.0149 -0.3767
  344SOL    HW2 1148   6.035   0.416   2.516 -0.1232  0.8667 -0.8752
  344SOL    HW3 1149   6.072   0.524   2.614  0.0020 -0.9368  1.1382
  344SOL    MW4 1150   6.015   0.467   2.583  0.0181 -0.3832 -0.3999
  345SOL     OW 1151   4.612   1.843   3.778 -0.5395  0.5416 -0.2809
  345SOL    HW2 1152   4.637   1.757   3.744  0.6626  1.3747 -1.6116
  345SOL    HW3 1153   4.520   1.853   3.753 -0.2733  0.2394 -1.4188
  345SOL    MW4 1154   4.603   1.833   3.770 -0.2563 -0.3805 -0.0487
  346SOL     OW 1155   0.409   0.349   2.507  0.1011 -0.1816 -0.5155
  346SOL    HW2 1156   0.373   0.434   2.534  0.9768 -0.2892  1.0857
  346SOL    HW3 1157   0.335   0.289   2.511  0.1507 -0.1516  1.5606
  346SOL    MW4 1158   0.395   0.353   2.511  0.5288 -0.4344 -0.7307
  347SOL     OW 1159   5.185   3.295   3.065 -0.1584 -0.8803 -0.2599
  347SOL    HW2 1160   5.106   3.243   3.055 -0.9056 -0.0832  1.1601
  347SOL    HW3 1161   5.159   3.384   3.040 -0.0852 -0.3680  1.3130
  347SOL    MW4 1162   5.171   3.300   3.061 -0.0591  0.2376 -0.3163
  348SOL     OW 1163   1.966   5.386   3.882  0.0765 -0.2237  0.0445
  348SOL    HW2 1164   2.057   5.378   3.911  0.2817  1.7808  0.0592
  348SOL    HW3 1165   1.917   5.409   3.960 -0.5569 -1.7083  0.1227
  348SOL    MW4 1166   1.972   5.388   3.896 -0.2994  0.3683  0.3169
  349SOL     OW 1167   2.951   1.227   0.559  0.2705 -0.2770 -0.1416
  349SOL    HW2 1168   3.038   1.245   0.595  0.4755 -1.3064 -0.0931
  349SOL    HW3 1169   2.963   1.150   0.504 -0.6208 -0.4598 -0.0976
  349SOL    MW4 1170   2.964   1.219   0.556  0.0828 -0.5841  0.3169
  350SOL     OW 1171   0.143   3.047   1.080  0.1543  0.6035  1.3057
  350SOL    HW2 1172   0.167   3.089   0.997  1.0229  0.2230  1.3523
  350SOL    HW3 1173   0.177   2.958   1.072 -1.4152 -0.0327  1.3187
  350SOL    MW4 1174   0.151   3.041   1.068  0.2061  0.0530 -0.1710
  351SOL     OW 1175   2.199   4.970   1.697 -0.3059  0.0839 -0.7650
  351SOL    HW2 1176   2.126   4.914   1.669  0.0647 -0.3247 -0.9336
  351SOL    HW3 1177   2.173   5.002   1.783 -0.4370 -0.5361 -0.5656
  351SOL    MW4 1178   2.186   4.967   1.705 -0.3876  0.5983  0.5419
  352SOL     OW 1179   3.938   6.114   1.481 -0.3948 -0.2409 -0.1449
  352SOL    HW2 1180   3.851   6.150   1.463 -0.3034  0.5947  0.9713
  352SOL    HW3 1181   3.943   6.110   1.577  0.4471 -1.1649 -0.2106
  352SOL    MW4 1182   3.927   6.118   1.491 -0.0591  0.1843 -0.3295
  353SOL     OW 1183   1.142   3.051   0.094  0.2574 -0.5153  0.4518
  353SOL    HW2 1184   1.230   3.014   0.091  0.3112 -0.4165  0.7289
  353SOL    HW3 1185   1.113   3.035   0.184  1.1970  2.1673  1.3381
  353SOL    MW4 1186   1.150   3.044   0.106  0.0537  0.2043  0.4580
  354SOL     OW 1187   5.525   1.250   4.506  0.0626  0.3056  0.2902
  354SOL    HW2 1188   5.618   1.240   4.524 -0.0602  0.3959  0.9926
  354SOL    HW3 1189   5.513   1.344   4.490  0.1088  0.2775  0.0855
  354SOL    MW4 1190   5.535   1.261   4.506  0.6447  0.1208 -0.1353
  355SOL     OW 1191   5.607   1.883   2.482  0.7270 -0.3503 -0.5326
  355SOL    HW2 1192   5.609   1.818   2.552 -0.2803 -0.0664 -0.2202
  355SOL    HW3 1193   5.677   1.857   2.423  2.2317 -0.0498  1.0541
  355SOL    MW4 1194   5.616   1.871   2.483  0.1843  0.3551  0.1202
  356SOL     OW 1195   5.364   0.579   5.249  0.0779 -0.6938 -0.0205
  356SOL    HW2 1196   5.330   0.542   5.167  2.4591 -2.4202 -0.3279
  356SOL    HW3 1197   5.448   0.617   5.225 -1.1591  2.9251  0.8119
  356SOL    MW4 1198   5.371   0.579   5.235  0.4422  0.1093  0.1022
  357SOL     OW 1199   1.498   5.764   4.735  0.7206  0.0219 -0.2156
  357SOL    HW2 1200   1.490   5.859   4.743 -0.2837 -0.1949  2.6012
  357SOL    HW3 1201   1.429   5.738   4.675  0.5928  1.0066 -0.5031
  357SOL    MW4 1202   1.488   5.773   4.728  0.5646  0.2117 -0.2168
  358SOL     OW 1203   5.170   5.306   4.553  0.1329  0.3933 -0.1733
  358SOL    HW2 1204   5.196   5.323   4.463  1.0137  2.7567  0.4527
  358SOL    HW3 1205   5.074   5.299   4.549  0.3083 -2.3590 -1.6276
  358SOL    MW4 1206   5.161   5.307   4.541 -0.1956  0.1107 -0.1450
  359SOL     OW 1207   5.211   1.023   2.254 -0.4451  0.1567 -0.2937
  359SOL    HW2 1208   5.144   0.958   2.229  0.1247 -0.4738 -0.2237
  359SOL    HW3 1209   5.173   1.107   2.230 -1.5742 -0.1273  0.4145
  359SOL    MW4 1210   5.197   1.025   2.247 -0.7950 -0.5478  0.6566
  360SOL     OW 1211   2.250   0.605   2.140  0.5257 -0.2672  0.0850
  360SOL    HW2 1212   2.238   0.575   2.050 -1.9701  0.2273  0.1861
  360SOL    HW3 1213   2.307   0.682   2.132 -0.2461  0.2126 -1.1778
  360SOL    MW4 1214   2.256   0.611   2.127 -0.4317  0.1480  0.3569
  361SOL     OW 1215   3.345   5.617   1.299 -0.0257 -0.5627  0.4173
  361SOL    HW2 1216   3.359   5.533   1.256  0.8703 -0.6187  0.7810
  361SOL    HW3 1217   3.433   5.645   1.326 -0.2687  0.6279  0.0447
  361SOL    MW4 1218   3.359   5.610   1.297  0.2005  0.3235  0.1783
  362SOL     OW 1219   3.315   1.212   0.909  0.1338  0.1950 -0.2384
  362SOL    HW2 1220   3.309   1.294   0.957  1.4059  0.0528  0.2008
  362SOL    HW3 1221   3.279   1.146   0.969 -0.7094  0.3788 -0.5185
  362SOL    MW4 1222   3.309   1.214   0.923  0.2158 -0.1303  0.6343
  363SOL     OW 1223   2.949   3.285   2.101 -0.0256 -0.5476  0.2624
  363SOL    HW2 1224   2.876   3.346   2.116  1.6095  1.2959  1.1094
  363SOL    HW3 1225   2.947   3.269   2.007 -0.8261  0.3915  0.0966
  363SOL    MW4 1226   2.939   3.291   2.091 -0.2313  0.3823  0.1166
  364SOL     OW 1227   4.617   1.767   4.963  0.3969 -0.4452 -0.4049
  364SOL    HW2 1228   4.645   1.684   4.924 -0.8785 -1.0126 -0.1508
  364SOL    HW3 1229   4.525   1.776   4.938  0.9827  1.8502 -2.0321
  364SOL    MW4 1230   4.609   1.757   4.955  0.8760  0.2712 -0.0183
  365SOL     OW 1231   5.110   2.800   5.281  0.5133 -0.6856 -0.2504
  365SOL    HW2 1232   5.162   2.736   5.232 -0.2064 -1.1440 -0.4313
  365SOL    HW3 1233   5.035   2.750   5.313  0.7022 -0.2615  0.8789
  365SOL    MW4 1234   5.107   2.785   5.279  0.3495  0.1217 -0.2732
  366SOL     OW 1235   2.645   4.481   5.013  0.6365  0.0046 -0.6801
  366SOL    HW2 1236   2.713   4.425   5.052  0.8363  0.2224 -0.7114
  366SOL    HW3 1237   2.678   4.570   5.025  0.2979  0.1188 -0.5886
  366SOL    MW4 1238   2.658   4.486   5.020  0.1649  0.0455 -0.1190
  367SOL     OW 1239   1.559   5.501   5.603  0.2058 -0.2494  0.1277
  367SOL    HW2 1240   1.468   5.481   5.625 -0.4337 -0.1820 -2.2455
  367SOL    HW3 1241   1.609   5.429   5.641 -0.8541 -0.4417  1.2163
  367SOL    MW4 1242   1.554   5.489   5.611 -0.4889  0.1743 -0.4278
  368SOL     OW 1243   4.770   0.832   3.867  0.0231 -0.2836  0.0604
  368SOL    HW2 1244   4.762   0.861   3.776 -0.4492 -0.6571 -0.0225
  368SOL    HW3 1245   4.835   0.891   3.905  0.2456 -0.1411 -0.5243
  368SOL    MW4 1246   4.777   0.843   3.860  0.3140 -0.1738 -0.3241
  369SOL     OW 1247   5.321   4.315   5.025  0.5542 -0.3801 -0.3413
  369SOL    HW2 1248   5.401   4.367   5.015 -0.3530  0.9450 -1.1065
  369SOL    HW3 1249   5.315   4.298   5.119  0.9125  0.8808 -0.0741
  369SOL    MW4 1250   5.331   4.320   5.036  0.4712  0.3056 -0.0190
  370SOL     OW 1251   6.261   3.452   5.763  0.7633  0.2262 -0.2244
  370SOL    HW2 1252   6.227   3.530   5.720  0.5639  1.6924  2.3916
  370SOL    HW3 1253   6.239   3.380   5.704 -0.8932  1.8952 -1.7575
  370SOL    MW4 1254   6.254   3.452   5.750  0.4134  0.1516  0.2483
  371SOL     OW 1255   1.125   1.610   4.818  0.5312 -0.6712  0.1218
  371SOL    HW2 1256   1.100   1.532   4.768 -0.1414  0.3858 -1.2617
  371SOL    HW3 1257   1.043   1.658   4.830  0.6528 -0.9144  2.3642
  371SOL    MW4 1258   1.111   1.606   4.813 -0.0193  0.5970 -0.8029
  372SOL     OW 1259   5.073   4.965   4.818  0.9618  0.1597  0.3286
  372SOL    HW2 1260   5.048   5.039   4.873  0.8354 -0.0800  0.5935
  372SOL    HW3 1261   5.022   4.977   4.738  0.8420  0.2864  0.4228
  372SOL    MW4 1262   5.063   4.976   4.815  0.4053  0.1327  0.2435
  373SOL     OW 1263   2.211   3.068   1.206 -0.2709  0.0679  0.2747
  373SOL    HW2 1264   2.163   3.056   1.124  2.2243  0.7046 -1.3856
  373SOL    HW3 1265   2.283   3.004   1.202  1.2339  1.6450  0.8550
  373SOL    MW4 1266   2.214   3.058   1.195 -0.3572  0.3693  0.5906
  374SOL     OW 1267   6.183   1.425   2.936  0.4228  0.4084 -0.1543
  374SOL    HW2 1268   6.124   1.374   2.993 -1.2821  2.4938  0.0619
  374SOL    HW3 1269   6.270   1.391   2.957 -0.4722 -1.3397  1.0896
  374SOL    MW4 1270   6.187   1.414   2.946  0.6199  0.2897  0.2433
  375SOL     OW 1271   1.347   2.376   0.090  0.1611 -0.0736 -0.0835
  375SOL    HW2 1272   1.377   2.436   0.158 -0.1762  0.2030 -0.1772
  375SOL    HW3 1273   1.320   2.433   0.018  2.9306 -0.3874 -1.4922
  375SOL    MW4 1274   1.347   2.391   0.089  0.3026  0.3302  0.5007
  376SOL     OW 1275   5.791   2.079   4.286 -1.0902 -0.0834  0.1561
  376SOL    HW2 1276   5.735   2.082   4.364 -2.7342  0.4550 -0.9991
  376SOL    HW3 1277   5.739   2.031   4.221 -1.3516  2.6039 -1.7773
  376SOL    MW4 1278   5.777   2.073   4.288 -0.1152 -0.2771 -0.1746
  377SOL     OW 1279   2.449   6.351   5.917 -0.4206  0.1529  0.4126
  377SOL    HW2 1280   2.469   6.327   5.826  1.5358  0.8379  0.6289
  377SOL    HW3 1281   2.470   6.444   5.923  0.2398 -0.0561  1.7621
  377SOL    MW4 1282   2.454   6.360   5.906  0.4114 -0.2116  0.0062
  378SOL     OW 1283   5.519   1.411   1.344 -0.4443 -0.2310  0.4558
  378SOL    HW2 1284   5.467   1.425   1.265 -0.2558 -1.4199  0.1095
  378SOL    HW3 1285   5.528   1.316   1.351 -0.3439 -0.1380  1.8381
  378SOL    MW4 1286   5.514   1.401   1.335 -0.1681 -0.3025 -0.2267
  379SOL     OW 1287   3.910   6.154   0.153 -0.0380  0.0086 -0.2547
  379SOL    HW2 1288   3.961   6.128   0.076  0.0343  0.7371 -0.4616
  379SOL    HW3 1289   3.907   6.250   0.149  0.0187  0.0618  0.6838
  379SOL    MW4 1290   3.916   6.164   0.142 -0.1720 -0.1547  0.1300
  380SOL     OW 1291   4.739   4.779   2.288  0.1601 -0.4460 -0.3272
  380SOL    HW2 1292   4.735   4.685   2.304 -0.3557 -0.5003 -0.7706
  380SOL    HW3 1293   4.659   4.814   2.326  0.3584 -0.1795 -0.1482
  380SOL    MW4 1294   4.728   4.771   2.295  0.0213  0.0373  0.2341
  381SOL     OW 1295   4.712   4.788   1.599 -0.3602  0.6932 -0.2514
  381SOL    HW2 1296   4.626   4.803   1.561 -0.3880 -0.6285 -0.7501
  381SOL    HW3 1297   4.732   4.869   1.647 -1.8394  1.0356 -0.1857
  381SOL    MW4 1298   4.704   4.801   1.601 -0.2854  0.4974  0.0917
  382SOL     OW 1299   3.211   3.031   0.212  0.5119  0.7927  0.3538
  382SOL    HW2 1300   3.134   3.076   0.177  1.3193  1.0217 -1.2146
  382SOL    HW3 1301   3.256   3.098   0.265 -0.5635  0.5300  1.6498
  382SOL    MW4 1302   3.207   3.046   0.214 -0.3003  0.8082  1.0925
  383SOL     OW 1303   3.901   2.043   5.657  0.0781  0.4323  0.1747
  383SOL    HW2 1304   3.918   2.135   5.677  2.4992  0.0693  0.0661
  383SOL    HW3 1305   3.844   2.045   5.581  0.1481  1.8346  0.1377
  383SOL    MW4 1306   3.896   2.055   5.650 -0.2463 -0.3810 -0.1537
  384SOL     OW 1307   1.607   3.316   5.845  0.3189  0.5732  0.7351
  384SOL    HW2 1308   1.700   3.304   5.863  0.1477  1.4008  2.3470
  384SOL    HW3 1309   1.593   3.275   5.759  1.8951 -0.6932  1.0431
  384SOL    MW4 1310   1.617   3.309   5.836 -0.3887  0.2469  0.1104
  385SOL     OW 1311   0.736   1.554   5.800 -0.2798 -0.1397  0.3287
  385SOL    HW2 1312   0.768   1.504   5.726  0.0657  0.3046  0.1755
  385SOL    HW3 1313   0.805   1.618   5.818 -0.5442  0.0304  0.7644
  385SOL    MW4 1314   0.749   1.556   5.793  0.5559  0.1497  0.3510
  386SOL     OW 1315   5.952   5.859   5.351  0.0320 -0.0373  0.5214
  386SOL    HW2 1316   5.859   5.855   5.371 -0.2234 -0.4359 -0.6598
  386SOL    HW3 1317   5.957   5.905   5.267  1.0538  1.6304  1.4333
  386SOL    MW4 1318   5.940   5.865   5.342  0.0787 -0.5459 -0.2055
  387SOL     OW 1319   0.939   0.254   3.012 -0.0960  0.3066 -0.0734
  387SOL    HW2 1320   0.981   0.312   2.948  0.5813  2.6485  2.2651
  387SOL    HW3 1321   1.012   0.203   3.048 -0.4212 -0.7466 -0.8580
  387SOL    MW4 1322   0.954   0.255   3.008 -0.1376  0.2052 -0.7988
  388SOL     OW 1323   5.727   4.901   4.589  0.3205  0.3131  0.3149
  388SOL    HW2 1324   5.638   4.872   4.610  0.5594  0.8527  2.3063
  388SOL    HW3 1325   5.782   4.824   4.606  0.2801  0.0172 -0.7959
  388SOL    MW4 1326   5.723   4.887   4.594  0.1359 -0.4635  0.1570
  389SOL     OW 1327   3.406   0.465   3.232 -0.8428  0.3556  0.2304
  389SOL    HW2 1328   3.427   0.474   3.325  0.2907 -3.9442  0.5818
  389SOL    HW3 1329   3.491   0.464   3.188 -1.1962 -0.4855 -0.4680
  389SOL    MW4 1330   3.420   0.466   3.238  0.5524  0.2274  0.3728
  390SOL     OW 1331   5.170   2.336   1.655 -0.0020 -0.0403  0.6722
  390SOL    HW2 1332   5.183   2.241   1.663  1.5641  0.1310  0.4470
  390SOL    HW3 1333   5.223   2.374   1.725 -0.2153  0.6851  0.4484
  390SOL    MW4 1334   5.179   2.328   1.665  0.4172  0.4834  0.3410
  391SOL     OW 1335   4.500   5.224   2.269 -0.0235  0.4360 -0.6530
  391SOL    HW2 1336   4.455   5.192   2.191 -1.0857 -0.6209  0.3585
  391SOL    HW3 1337   4.593   5.213   2.248 -0.2572  0.8113 -2.0151
  391SOL    MW4 1338   4.506   5.218   2.256  0.7670 -0.1745  0.9570
  392SOL     OW 1339   2.923   0.552   4.545  0.1758  0.1821  0.0803
  392SOL    HW2 1340   2.922   0.592   4.632  2.7399  0.3405  0.0891
  392SOL    HW3 1341   2.859   0.603   4.495  0.5898  1.8090  1.1314
  392SOL    MW4 1342   2.914   0.564   4.550 -0.1332  0.0060 -0.3210
  393SOL     OW 1343   5.867   2.358   4.756  0.2603  0.8385 -0.2225
  393SOL    HW2 1344   5.834   2.284   4.706  0.6295  1.0019 -0.7223
  393SOL    HW3 1345   5.847   2.337   4.847 -2.8685  1.7693 -0.6002
  393SOL    MW4 1346   5.860   2.346   4.761 -0.3931  0.1809  0.2888
  394SOL     OW 1347   3.080   0.434   2.970  0.4651 -0.3545 -0.2078
  394SOL    HW2 1348   3.043   0.429   2.882  0.0200 -2.0526  0.0284
  394SOL    HW3 1349   3.160   0.383   2.966  1.4251  1.0742 -0.0406
  394SOL    MW4 1350   3.086   0.427   2.958  0.0661 -0.3091  0.5608
  395SOL     OW 1351   3.692   5.407   0.509 -0.5438 -0.1593 -0.3223
  395SOL    HW2 1352   3.746   5.354   0.451  0.8219 -0.8966  1.5033
  395SOL    HW3 1353   3.608   5.415   0.464  0.8131  0.3982 -2.9269
  395SOL    MW4 1354   3.688   5.401   0.496 -0.4245 -0.2875  0.1190
  396SOL     OW 1355   3.087   3.459   6.096 -0.3179 -0.3509 -0.1838
  396SOL    HW2 1356   3.031   3.478   6.172 -0.0929 -0.4203 -0.0009
  396SOL    HW3 1357   3.027   3.463   6.022 -0.2969  1.0480 -0.1537
  396SOL    MW4 1358   3.072   3.462   6.097 -0.3135 -0.3784  0.3190
  397SOL     OW 1359   3.853   3.503   3.469 -0.3817 -0.0950  0.1180
  397SOL    HW2 1360   3.789   3.570   3.444  0.7675  0.7479 -0.6249
  397SOL    HW3 1361   3.921   3.551   3.516 -0.3209 -0.9941  0.9631
  397SOL    MW4 1362   3.853   3.518   3.472 -0.4109  0.0697  0.7031
  398SOL     OW 1363   1.398   5.196   5.772 -0.2292 -0.2770 -0.1499
  398SOL    HW2 1364   1.343   5.266   5.739  0.9379  0.0679 -1.4947
  398SOL    HW3 1365   1.485   5.236   5.780 -0.0064 -0.9699  1.2936
  398SOL    MW4 1366   1.403   5.210   5.769 -0.1271 -0.2716  0.0721
  399SOL     OW 1367   4.532   1.787   2.612 -0.0214  0.3183 -0.4764
  399SOL    HW2 1368   4.454   1.835   2.583  0.1553  1.1476  0.3507
  399SOL    HW3 1369   4.589   1.855   2.648  1.8583 -0.0092 -2.6010
  399SOL    MW4 1370   4.529   1.803   2.613  0.4330  0.2503  0.0574
  400SOL     OW 1371   4.133   3.073   5.044  0.6157  0.6584  0.4182
  400SOL    HW2 1372   4.126   3.151   5.099 -1.0126  0.7100  0.2141
  400SOL    HW3 1373   4.116   3.104   4.956  0.5003  0.1608  0.2604
  400SOL    MW4 1374   4.130   3.087   5.040  0.1619  0.4697  0.3409
  401SOL     OW 1375   4.406   3.107   1.002  0.0486  0.0928 -0.4810
  401SOL    HW2 1376   4.329   3.058   1.032 -1.0656  2.2184  0.3584
  401SOL    HW3 1377   4.420   3.173   1.069  2.0974  0.3428 -1.0850
  401SOL    MW4 1378   4.398   3.109   1.015  0.1244  0.0039  0.0400
  402SOL     OW 1379   5.795   4.099   1.687 -0.3450  0.2036  0.0002
  402SOL    HW2 1380   5.725   4.037   1.665  1.3804 -1.9901  0.3641
  402SOL    HW3 1381   5.833   4.066   1.768  0.2007  2.1975  0.6303
  402SOL    MW4 1382   5.791   4.087   1.694  0.4018  0.2165 -0.4919
  403SOL     OW 1383   6.008   0.927   0.363 -0.1612 -0.0590  0.0781
  403SOL    HW2 1384   5.990   1.019   0.384  3.4875  0.9898 -0.6327
  403SOL    HW3 1385   5.974   0.916   0.275  0.5718  1.1139 -0.3835
  403SOL    MW4 1386   6.001   0.938   0.354 -0.1265 -0.4403 -0.8014
  404SOL     OW 1387   6.435   3.282   3.252  0.2540  0.6154  0.2596
  404SOL    HW2 1388   6.435   3.295   3.347 -0.6119  0.5452  0.2800
  404SOL    HW3 1389   6.449   3.369   3.216  2.1063  0.4344  0.4471
  404SOL    MW4 1390   6.436   3.295   3.260  0.0925  0.4990 -0.2699
  405SOL     OW 1391   4.865   2.813   2.066  0.9235  0.3333 -0.2335
  405SOL    HW2 1392   4.890   2.724   2.094 -0.8572 -0.2272 -0.3195
  405SOL    HW3 1393   4.771   2.807   2.049  1.0461  1.8832 -1.6883
  405SOL    MW4 1394   4.856   2.800   2.067 -0.1197 -0.0258  0.0128
  406SOL     OW 1395   6.289   0.307   1.219 -0.3158 -0.4217  0.4795
  406SOL    HW2 1396   6.297   0.275   1.129 -1.2048  0.1695  0.1816
  406SOL    HW3 1397   6.351   0.253   1.269  1.5800  0.4754 -0.7897
  406SOL    MW4 1398   6.299   0.295   1.214 -0.1238  0.1357 -0.2210
  407SOL     OW 1399   4.713   0.087   0.598  0.4782 -0.1986 -0.0727
  407SOL    HW2 1400   4.803   0.114   0.580  0.0674  1.2086 -0.1165
  407SOL    HW3 1401   4.701   0.105   0.692  0.3846 -0.8239  0.0383
  407SOL    MW4 1402   4.724   0.093   0.608 -0.1570  0.4781 -0.2277
  408SOL     OW 1403   3.013   3.782   0.152  0.2039  0.1377  0.0168
  408SOL    HW2 1404   3.036   3.873   0.135  1.3338 -0.2946 -0.9148
  408SOL    HW3 1405   3.026   3.738   0.068 -0.5207 -0.8501  0.4021
  408SOL    MW4 1406   3.018   3.788   0.139 -0.1719  0.9634  0.0216
  409SOL     OW 1407   2.492   4.957   5.574 -0.1694 -0.0470 -0.3650
  409SOL    HW2 1408   2.573   4.988   5.614  1.7277 -0.9938 -3.1729
  409SOL    HW3 1409   2.465   5.028   5.517 -1.4125  0.2821  0.5895
  409SOL    MW4 1410   2.499   4.970   5.572  0.0304 -0.3565 -0.6223
  410SOL     OW 1411   3.777   6.030   4.035  0.1552 -0.4885  0.4198
  410SOL    HW2 1412   3.871   6.012   4.027 -0.1664 -1.7235 -1.4219
  410SOL    HW3 1413   3.748   6.046   3.945 -1.6683 -1.8063  0.6986
  410SOL    MW4 1414   3.785   6.030   4.022  0.4469  0.0156  0.8124
  411SOL     OW 1415   5.695   2.303   0.139  0.2524  0.1758 -0.3143
  411SOL    HW2 1416   5.674   2.376   0.197  0.7662  1.1600 -1.3209
  411SOL    HW3 1417   5.642   2.230   0.171  0.1387  0.8250  1.0516
  411SOL    MW4 1418   5.686   2.303   0.151  0.1391  0.2740 -0.1118
  412SOL     OW 1419   3.316   3.256   4.950 -0.1652 -0.2437  0.3071
  412SOL    HW2 1420   3.250   3.298   4.894 -0.0446 -0.2215  0.1832
  412SOL    HW3 1421   3.388   3.235   4.890  1.1051  2.0986  0.8655
  412SOL    MW4 1422   3.316   3.259   4.934  0.0121  0.1298  0.6754
  413SOL     OW 1423   3.915   3.912   0.396 -0.1326  0.0933 -0.1160
  413SOL    HW2 1424   3.888   3.925   0.487  0.1321 -1.1582  0.1550
  413SOL    HW3 1425   3.933   3.818   0.389  1.2074  0.3914 -1.0948
  413SOL    MW4 1426   3.914   3.901   0.407 -0.4495 -0.0227  0.2079
  414SOL     OW 1427   2.285   6.163   5.565  0.0548  0.0961 -0.1155
  414SOL    HW2 1428   2.298   6.160   5.470 -1.1220 -0.1644 -0.2846
  414SOL    HW3 1429   2.324   6.082   5.597 -1.2365 -0.7470 -0.6184
  414SOL    MW4 1430   2.292   6.152   5.556  0.1909  0.1564  0.3471
  415SOL     OW 1431   2.858   1.499   0.527 -0.5752 -0.6313  0.0773
  415SOL    HW2 1432   2.770   1.505   0.564 -0.9688 -0.3233 -0.8582
  415SOL    HW3 1433   2.885   1.408   0.543  0.7266  0.2611  4.1672
  415SOL    MW4 1434   2.850   1.488   0.534 -0.7297 -0.2480  0.0530
  416SOL     OW 1435   5.167   0.309   5.621  0.4642 -0.5015  0.0885
  416SOL    HW2 1436   5.184   0.225   5.664  0.9190  0.6986  2.4281
  416SOL    HW3 1437   5.250   0.357   5.629  0.3094  0.0927 -1.4809
  416SOL    MW4 1438   5.180   0.304   5.628  0.9297 -0.0023  0.1151
  417SOL     OW 1439   1.331   0.798   6.402  0.1898  0.2490 -0.8500
  417SOL    HW2 1440   1.357   0.705   6.405 -1.9198 -0.4511 -2.3394
  417SOL    HW3 1441   1.346   0.824   6.311 -2.6680  0.2380 -1.3972
  417SOL    MW4 1442   1.337   0.789   6.391  0.0044  0.0848  0.5752
  418SOL     OW 1443   5.008   2.406   5.128  0.4410  0.1057 -0.2593
  418SOL    HW2 1444   5.051   2.399   5.043 -0.2416  1.6826 -0.7640
  418SOL    HW3 1445   4.917   2.382   5.111 -0.3101  2.8865 -0.5764
  418SOL    MW4 1446   5.002   2.402   5.115  0.0909 -0.1308  0.3919
  419SOL     OW 1447   5.813   0.807   1.359 -0.4039  0.7609 -0.3510
  419SOL    HW2 1448   5.762   0.775   1.285  1.1841 -1.7184 -0.4549
  419SOL    HW3 1449   5.767   0.773   1.436  0.3560 -0.4234 -0.4004
  419SOL    MW4 1450   5.800   0.798   1.359  1.1991 -0.0403  0.1001
  420SOL     OW 1451   0.963   3.957   1.913  0.0722 -0.5768 -0.0632
  420SOL    HW2 1452   0.912   3.879   1.891 -2.1131  0.4059  1.2198
  420SOL    HW3 1453   0.975   3.951   2.008  1.8355 -0.4427 -0.2460
  420SOL    MW4 1454   0.958   3.946   1.923 -0.2859 -0.7148 -0.3679
  421SOL     OW 1455   2.579   5.189   0.957  0.0344 -0.1668 -0.0358
  421SOL    HW2 1456   2.623   5.193   0.872  1.3557 -1.5558  0.5231
  421SOL    HW3 1457   2.516   5.260   0.955  1.1346  0.8310 -1.5627
  421SOL    MW4 1458   2.577   5.199   0.945  0.6288  0.0016  0.3583
  422SOL     OW 1459   1.320   4.181   1.118  0.5317 -0.0665  0.4948
  422SOL    HW2 1460   1.387   4.169   1.050 -1.3203 -1.9895 -1.1355
  422SOL    HW3 1461   1.245   4.216   1.071 -0.7350 -1.2523  1.5461
  422SOL    MW4 1462   1.319   4.184   1.102  0.2152 -0.1580 -0.1326
  423SOL     OW 1463   4.277   0.337   5.971  0.5763 -0.4122  0.2517
  423SOL    HW2 1464   4.344   0.364   6.034  0.3723 -0.0671  0.3246
  423SOL    HW3 1465   4.208   0.297   6.024 -0.3514  1.3339  0.4621
  423SOL    MW4 1466   4.277   0.336   5.986  0.1823 -0.2920  0.2623
  424SOL     OW 1467   4.267   1.731   3.205 -0.1758  0.0699  0.2854
  424SOL    HW2 1468   4.282   1.806   3.262 -0.1717 -0.0442  0.4333
  424SOL    HW3 1469   4.195   1.683   3.246  0.2017 -0.3164  0.4985
  424SOL    MW4 1470   4.260   1.735   3.218  0.1889 -0.7017  0.5486
  425SOL     OW 1471   2.615   3.996   6.117  0.7227 -0.6602 -0.3135
  425SOL    HW2 1472   2.695   4.031   6.155  0.1299  0.7495 -0.3092
  425SOL    HW3 1473   2.643   3.918   6.068  1.8284 -1.1653  1.0649
  425SOL    MW4 1474   2.629   3.990   6.115  0.7186  0.1257 -0.0359
  426SOL     OW 1475   4.379   2.923   3.599  0.0823  0.7971 -0.3941
  426SOL    HW2 1476   4.410   2.991   3.659  0.6386  0.7758 -0.6524
  426SOL    HW3 1477   4.458   2.893   3.554 -0.0362 -0.5895  0.2911
  426SOL    MW4 1478   4.394   2.928   3.601  0.3356 -0.3521  0.0588
  427SOL     OW 1479   4.751   3.891   5.394  0.0188 -0.1064 -0.1118
  427SOL    HW2 1480   4.819   3.916   5.456  0.5320  1.1887 -1.1547
  427SOL    HW3 1481   4.670   3.920   5.434  0.2686  0.0402  0.2898
  427SOL    MW4 1482   4.749   3.898   5.407  0.6991  0.7663 -0.4780
  428SOL     OW 1483   3.312   4.345   2.511 -0.4780  0.2488 -0.2160
  428SOL    HW2 1484   3.266   4.427   2.530 -0.8724  0.0323 -0.2351
  428SOL    HW3 1485   3.272   4.281   2.570 -0.1434  0.0770 -0.1725
  428SOL    MW4 1486   3.300   4.348   2.522 -0.0560 -0.3782  1.0847
  429SOL     OW 1487   4.162   2.091   5.328 -0.2979 -0.7149  0.3016
  429SOL    HW2 1488   4.091   2.035   5.296 -1.3257  1.1756 -0.8799
  429SOL    HW3 1489   4.225   2.092   5.257 -2.0402  2.5410 -1.4113
  429SOL    MW4 1490   4.161   2.084   5.315  0.1824 -0.5433 -0.4200
  430SOL     OW 1491   6.028   2.626   6.203 -0.4177  0.2866 -0.9720
  430SOL    HW2 1492   6.022   2.531   6.211  0.5303  0.3241  0.6251
  430SOL    HW3 1493   5.945   2.658   6.239 -0.7265  0.0810 -1.4874
  430SOL    MW4 1494   6.016   2.618   6.209 -0.3037  0.0840  0.6591
  431SOL     OW 1495   5.500   3.953   3.588  0.6206  0.2277  0.4318
  431SOL    HW2 1496   5.424   3.959   3.530  0.0689  2.7979  1.2775
  431SOL    HW3 1497   5.553   4.030   3.565  0.8626  0.7899  2.6353
  431SOL    MW4 1498   5.497   3.964   3.577  0.3767 -0.2197 -0.0582
  432SOL     OW 1499   6.324   2.974   0.976  0.1589  0.5607 -0.7002
  432SOL    HW2 1500   6.327   2.981   0.881  1.5065  0.0696 -0.7170
  432SOL    HW3 1501   6.407   3.012   1.006  0.5333 -0.8535  0.1588
  432SOL    MW4 1502   6.335   2.980   0.968 -0.5539  0.4652  1.3473
  433SOL     OW 1503   5.480   4.347   0.421  0.5775 -0.5741 -0.1383
  433SOL    HW2 1504   5.423   4.405   0.471 -0.8319 -1.3131 -0.8038
  433SOL    HW3 1505   5.444   4.259   0.437  1.8030 -1.1157 -0.2446
  433SOL    MW4 1506   5.468   4.343   0.430 -0.1064 -0.1463  0.0520
  434SOL     OW 1507   5.600   2.616   4.104  0.2311 -0.2270 -0.5372
  434SOL    HW2 1508   5.597   2.668   4.184  0.6722  0.0809 -0.7162
  434SOL    HW3 1509   5.562   2.532   4.129 -0.0496  0.0189 -0.1227
  434SOL    MW4 1510   5.595   2.612   4.118  0.6270 -0.4921  0.2971
  435SOL     OW 1511   6.196   1.944   2.887  0.4925 -0.1656  0.0162
  435SOL    HW2 1512   6.274   1.901   2.920  1.1500  1.2069  0.2965
  435SOL    HW3 1513   6.199   1.929   2.792 -1.3338 -3.9987  0.3635
  435SOL    MW4 1514   6.206   1.936   2.878 -0.3268  0.0349  0.7595
  436SOL     OW 1515   5.332   0.121   1.186 -0.4356 -0.0131 -0.3919
  436SOL    HW2 1516   5.418   0.089   1.214  1.1170  1.1726 -3.4015
  436SOL    HW3 1517   5.273   0.047   1.199  1.2250 -1.1706  0.8631
  436SOL    MW4 1518   5.335   0.107   1.192  0.4165  0.1619 -0.6011
  437SOL     OW 1519   0.726   6.087   5.119 -0.4616 -0.9376 -0.0931
  437SOL    HW2 1520   0.638   6.102   5.153 -0.3518  0.5630 -0.3956
  437SOL    HW3 1521   0.724   5.998   5.084 -1.6124 -1.2110  0.6257
  437SOL    MW4 1522   0.714   6.077   5.119 -0.5419 -0.0797  0.1829
  438SOL     OW 1523   3.391   0.913   1.872  0.1210  0.4840 -0.7265
  438SOL    HW2 1524   3.463   0.853   1.856  1.4097  2.2714 -2.0568
  438SOL    HW3 1525   3.413   0.955   1.956  1.1885  1.6875 -1.5662
  438SOL    MW4 1526   3.403   0.911   1.881  0.9266 -0.2594  0.3713
  439SOL     OW 1527   2.146   3.131   3.587 -0.0724 -0.6083  0.4562
  439SOL    HW2 1528   2.125   3.224   3.583 -0.0542 -0.5351  1.5681
  439SOL    HW3 1529   2.104   3.093   3.510 -2.4257 -0.1098  1.4073
  439SOL    MW4 1530   2.137   3.138   3.576 -0.4899  0.4067 -0.4911
  440SOL     OW 1531   4.475   3.416   1.041 -0.1318  0.2233 -0.3406
  440SOL    HW2 1532   4.524   3.433   1.122  0.9129 -1.2218 -0.6303
  440SOL    HW3 1533   4.524   3.461   0.973  0.2738 -0.4353 -0.4910
  440SOL    MW4 1534   4.488   3.424   1.043 -0.0967  0.3514 -0.2277
  441SOL     OW 1535   2.308   5.191   0.184 -0.6253  0.6125 -0.1495
  441SOL    HW2 1536   2.338   5.113   0.137 -1.2040 -0.5266  1.3060
  441SOL    HW3 1537   2.375   5.205   0.251 -0.9635  0.8469  0.1413
  441SOL    MW4 1538   2.321   5.183   0.187 -0.6049 -0.2154 -0.1926
  442SOL     OW 1539   1.445   3.231   4.164  0.8521  0.5222 -0.2774
  442SOL    HW2 1540   1.425   3.162   4.100 -2.2124 -0.7580  1.8101
  442SOL    HW3 1541   1.377   3.297   4.150  0.3409  0.3862  1.3074
  442SOL    MW4 1542   1.433   3.230   4.154  0.3131  0.3483 -0.3855
  443SOL     OW 1543   1.401   3.908   5.231  0.3512 -0.5509 -0.1568
  443SOL    HW2 1544   1.372   3.992   5.265  0.0099 -0.9945  0.7017
  443SOL    HW3 1545   1.343   3.844   5.273  1.8842 -1.3819  0.8143
  443SOL    MW4 1546   1.389   3.910   5.241  0.3182 -0.0470 -0.2055
  444SOL     OW 1547   3.974   0.996   3.693  0.2103  0.5975 -0.4243
  444SOL    HW2 1548   4.043   1.033   3.748  1.3603  0.8374 -1.9362
  444SOL    HW3 1549   3.969   1.055   3.618 -0.5153 -0.2893 -1.1047
  444SOL    MW4 1550   3.983   1.008   3.690  0.4175 -0.3024  0.0128
  445SOL     OW 1551   0.155   0.784   4.388  0.4241 -0.5100  0.3941
  445SOL    HW2 1552   0.066   0.787   4.423  0.2800 -0.0601  0.0048
  445SOL    HW3 1553   0.146   0.814   4.297  0.9264 -0.7604  0.2575
  445SOL    MW4 1554   0.142   0.788   4.381 -0.0502  0.4623  0.1253
  446SOL     OW 1555   2.679   1.265   5.774 -0.6767  0.2738  0.2717
  446SOL    HW2 1556   2.644   1.186   5.815 -0.5785  1.2766  2.4076
  446SOL    HW3 1557   2.741   1.233   5.709 -0.8985 -1.4030  0.8466
  446SOL    MW4 1558   2.682   1.251   5.771  0.3313  0.0642 -0.6641
  447SOL     OW 1559   3.763   2.413   2.615 -0.0058  0.5614 -0.0222
  447SOL    HW2 1560   3.778   2.493   2.667 -2.1762  0.6038  0.6767
  447SOL    HW3 1561   3.723   2.445   2.534  2.8502  0.4436 -1.5802
  447SOL    MW4 1562   3.759   2.428   2.611 -0.0078  0.6887  0.3282
  448SOL     OW 1563   5.379   0.943   1.216 -0.1763 -0.5059 -0.0209
  448SOL    HW2 1564   5.391   0.871   1.278 -1.2463 -1.0599 -0.4374
  448SOL    HW3 1565   5.421   1.018   1.259  0.6832 -1.2881  0.5534
  448SOL    MW4 1566   5.386   0.943   1.230  0.2944  0.1940  0.1844
  449SOL     OW 1567   5.499   4.173   5.500 -0.4433  0.5290  0.7401
  449SOL    HW2 1568   5.590   4.190   5.475  0.0520 -0.7591  1.5706
  449SOL    HW3 1569   5.491   4.211   5.588 -0.1402 -0.9431  1.4364
  449SOL    MW4 1570   5.510   4.181   5.508 -0.3266 -0.2014  0.2122
  450SOL     OW 1571   3.474   2.046   0.491  0.1405  0.0929 -0.5968
  450SOL    HW2 1572   3.525   2.112   0.444 -1.8007  1.5445 -0.7732
  450SOL    HW3 1573   3.517   2.039   0.576  1.0419  0.7406 -0.9819
  450SOL    MW4 1574   3.487   2.054   0.496 -0.4552 -0.0278  0.4119
  451SOL     OW 1575   1.980   2.610   5.757  0.1535  0.2030  0.3936
  451SOL    HW2 1576   1.950   2.597   5.666  2.5462 -0.5475 -0.3454
  451SOL    HW3 1577   2.028   2.693   5.755  1.4346 -0.5075  0.6067
  451SOL    MW4 1578   1.982   2.619   5.744  0.3288  0.4360  0.0300
  452SOL     OW 1579   0.460   2.535   4.104  0.5079 -0.2321  0.8453
  452SOL    HW2 1580   0.380   2.538   4.052 -0.4692 -1.6552  2.2216
  452SOL    HW3 1581   0.447   2.600   4.173  0.4618 -0.5943  1.1796
  452SOL    MW4 1582   0.448   2.544   4.106 -0.6016 -0.0453 -0.0823
  453SOL     OW 1583   4.402   0.242   4.444  0.0217 -0.4913 -0.0612
  453SOL    HW2 1584   4.481   0.225   4.495  0.9575 -0.7595 -1.5576
  453SOL    HW3 1585   4.409   0.334   4.419 -0.8119 -0.1520  0.8953
  453SOL    MW4 1586   4.413   0.252   4.448 -0.0146 -0.1904  0.3958
  454SOL     OW 1587   5.514   4.336   1.615 -0.2183 -0.1308 -0.1487
  454SOL    HW2 1588   5.534   4.426   1.590  0.6070 -0.4041 -0.5044
  454SOL    HW3 1589   5.526   4.335   1.710 -3.0174  0.8206  0.3048
  454SOL    MW4 1590   5.518   4.348   1.624  0.5970  0.3882 -0.2462
  455SOL     OW 1591   5.634   6.087   3.821 -0.1151 -0.6589 -0.3259
  455SOL    HW2 1592   5.659   6.171   3.859  0.8421 -0.6642 -0.9150
  455SOL    HW3 1593   5.544   6.101   3.790 -0.2430 -0.0993  0.2654
  455SOL    MW4 1594   5.625   6.100   3.822  0.3252 -0.0639  0.5531
  456SOL     OW 1595   5.910   2.409   2.473  0.3964 -0.0279 -0.3862
  456SOL    HW2 1596   5.962   2.364   2.540 -2.8069 -2.8469  0.5405
  456SOL    HW3 1597   5.889   2.494   2.511  1.4150 -0.2344  0.6908
  456SOL    MW4 1598   5.914   2.414   2.487 -0.0619  0.2057  0.3184
  457SOL     OW 1599   0.172   6.160   3.797 -0.6966  0.2009 -0.0159
  457SOL    HW2 1600   0.213   6.081   3.833 -1.3886  0.3273  1.1034
  457SOL    HW3 1601   0.210   6.232   3.847 -0.7737  0.4989 -0.3788
  457SOL    MW4 1602   0.182   6.159   3.808  0.1259  0.1058 -0.5792
  458SOL     OW 1603   3.898   0.701   1.825 -0.0278  0.0963 -0.1539
  458SOL    HW2 1604   3.956   0.654   1.765  1.6043  0.4458  1.0730
  458SOL    HW3 1605   3.885   0.640   1.898 -0.8334  0.2075 -0.1949
  458SOL    MW4 1606   3.904   0.686   1.826  0.2521 -0.4023 -0.2025
  459SOL     OW 1607   1.584   1.397   2.800  0.8973  0.5279 -0.3375
  459SOL    HW2 1608   1.534   1.435   2.873  0.6564 -2.4986  1.2444
  459SOL    HW3 1609   1.521   1.395   2.727  0.2380  1.0598  0.1952
  459SOL    MW4 1610   1.569   1.402   2.800 -0.1684  0.0635 -0.0625
  460SOL     OW 1611   2.680   2.958   6.103 -0.9154 -0.6452 -0.1051
  460SOL    HW2 1612   2.744   3.023   6.076 -0.3971 -0.6157  1.1202
  460SOL    HW3 1613   2.606   3.008   6.136 -1.8698 -0.6687 -2.0476
  460SOL    MW4 1614   2.678   2.973   6.104  0.3395 -0.3303 -0.0133
  461SOL     OW 1615   3.144   4.748   6.225 -0.5943  0.2734  0.7793
  461SOL    HW2 1616   3.089   4.670   6.237  1.4425 -1.9859 -2.7823
  461SOL    HW3 1617   3.090   4.807   6.172 -0.3372 -1.2017 -1.2480
  461SOL    MW4 1618   3.130   4.745   6.220  0.2083  0.1681 -0.1817
  462SOL     OW 1619   3.477   5.365   2.820 -0.0053  0.0498 -0.2878
  462SOL    HW2 1620   3.546   5.380   2.756 -1.8919  1.4377 -2.1302
  462SOL    HW3 1621   3.406   5.326   2.770 -0.8426 -0.6923  1.3981
  462SOL    MW4 1622   3.477   5.362   2.805  0.0805 -0.2575  0.0249
  463SOL     OW 1623   1.545   0.919   0.126  0.4753 -0.3151 -0.0212
  463SOL    HW2 1624   1.606   0.895   0.056 -0.0724 -0.7307 -0.3633
  463SOL    HW3 1625   1.459   0.894   0.092  0.0314  0.9228  0.1564
  463SOL    MW4 1626   1.542   0.913   0.112  0.0289 -0.2947  0.1771
  464SOL     OW 1627   5.996   3.034   6.231  0.4699 -0.4450 -0.2478
  464SOL    HW2 1628   6.082   3.073   6.247  0.3061  0.6615 -1.8221
  464SOL    HW3 1629   5.935   3.092   6.277  0.5650 -1.4355  1.1751
  464SOL    MW4 1630   5.999   3.047   6.239 -0.6890 -0.1902  0.5482
  465SOL     OW 1631   3.084   0.126   2.021  0.0253  0.0983  0.3754
  465SOL    HW2 1632   3.062   0.219   2.020 -0.3021  0.0293  0.7401
  465SOL    HW3 1633   3.087   0.103   2.113 -2.7814 -0.9008  0.3235
  465SOL    MW4 1634   3.081   0.135   2.033 -0.2555 -0.0747 -0.2645
  466SOL     OW 1635   2.036   6.265   5.930  0.8264 -0.0310  0.1026
  466SOL    HW2 1636   2.122   6.226   5.921  0.5432 -0.4804 -0.7113
  466SOL    HW3 1637   1.982   6.223   5.863  0.0837  0.5487  0.3111
  466SOL    MW4 1638   2.040   6.255   5.920  0.3655  0.1566 -0.1725
  467SOL     OW 1639   2.450   4.309   1.222 -0.1947  0.2859 -0.3907
  467SOL    HW2 1640   2.443   4.289   1.128  2.9051  0.3253 -0.7386
  467SOL    HW3 1641   2.475   4.401   1.226 -0.6970  0.3945  0.5028
  467SOL    MW4 1642   2.453   4.318   1.210 -0.2136 -0.5146  0.6095
  468SOL     OW 1643   0.950   2.604   3.213 -0.2643  0.2436 -0.1836
  468SOL    HW2 1644   0.953   2.538   3.282  0.9115 -0.2118 -0.6420
  468SOL    HW3 1645   0.919   2.683   3.256  0.7060  0.0451  0.9237
  468SOL    MW4 1646   0.946   2.606   3.228  0.3714  0.1118  0.1848
  469SOL     OW 1647   2.029   1.742   3.260  0.2374 -0.5425 -0.2126
  469SOL    HW2 1648   2.065   1.748   3.349  0.7338 -0.1460 -0.4277
  469SOL    HW3 1649   2.073   1.667   3.222  0.3485 -0.4558 -0.2581
  469SOL    MW4 1650   2.040   1.733   3.267  0.0140 -0.5947 -0.7848
  470SOL     OW 1651   4.449   0.365   1.063  0.0904  0.2309 -0.7828
  470SOL    HW2 1652   4.370   0.336   1.108  1.6124  2.3742  3.9571
  470SOL    HW3 1653   4.425   0.448   1.022 -0.7786 -0.6611 -2.1723
  470SOL    MW4 1654   4.436   0.372   1.063  0.0225 -0.3693  0.7929
  471SOL     OW 1655   6.239   4.984   1.282 -0.1254 -0.5519  0.1395
  471SOL    HW2 1656   6.245   4.901   1.330  0.5695 -0.5119  0.1346
  471SOL    HW3 1657   6.179   4.965   1.209  0.9916 -1.4213 -0.5919
  471SOL    MW4 1658   6.232   4.971   1.279 -0.9902  0.3521 -0.0682
  472SOL     OW 1659   3.195   4.672   2.038  0.3308 -0.2239 -0.6016
  472SOL    HW2 1660   3.146   4.709   2.111  1.2958  0.0715 -0.0773
  472SOL    HW3 1661   3.195   4.578   2.055  0.9438 -0.1166  0.0483
  472SOL    MW4 1662   3.189   4.665   2.050  0.1508 -0.1220  0.2631
  473SOL     OW 1663   4.326   3.067   2.242 -0.2121 -0.6098  0.0547
  473SOL    HW2 1664   4.383   3.136   2.275  0.3829 -1.0238 -0.0931
  473SOL    HW3 1665   4.372   2.986   2.263 -0.5634 -0.9356 -0.4071
  473SOL    MW4 1666   4.340   3.065   2.249 -0.2531  0.4712  0.2893
  474SOL     OW 1667   1.934   5.294   4.581 -0.2485 -0.3249 -0.1835
  474SOL    HW2 1668   1.959   5.297   4.489 -0.1923 -1.8086 -0.2391
  474SOL    HW3 1669   2.005   5.247   4.624 -0.8550 -0.7294  0.3999
  474SOL    MW4 1670   1.946   5.288   4.575  0.0585 -0.0466  0.1906
  475SOL     OW 1671   0.373   2.946   0.627  0.2391  0.1217  0.3235
  475SOL    HW2 1672   0.458   2.977   0.659 -0.1825  0.1090  1.4911
  475SOL    HW3 1673   0.392   2.907   0.542  1.2348  1.0518  0.1059
  475SOL    MW4 1674   0.387   2.945   0.620  0.3719 -0.1266 -0.7624
  476SOL     OW 1675   3.362   3.600   4.026  0.5146  0.9416 -0.4940
  476SOL    HW2 1676   3.348   3.695   4.025  0.3862  0.9238 -0.4307
  476SOL    HW3 1677   3.450   3.588   3.990  1.2008  1.1980  1.0185
  476SOL    MW4 1678   3.372   3.611   4.022  0.5596 -0.4850 -0.2194
  477SOL     OW 1679   5.208   2.624   5.994  0.0690  0.0828 -0.0695
  477SOL    HW2 1680   5.142   2.634   6.062  0.3795 -0.9857  0.4195
  477SOL    HW3 1681   5.160   2.635   5.912 -0.7495 -0.7878  0.2753
  477SOL    MW4 1682   5.193   2.627   5.992  0.8279 -0.5239 -0.7752
  478SOL     OW 1683   0.241   6.321   5.585 -0.1540  0.5924 -0.0707
  478SOL    HW2 1684   0.181   6.390   5.559 -1.4105 -0.1641  0.7173
  478SOL    HW3 1685   0.303   6.364   5.644 -0.1335  1.3036 -0.5955
  478SOL    MW4 1686   0.241   6.336   5.589  0.3537  0.1239 -0.0243
  479SOL     OW 1687   2.305   4.981   4.487 -0.1418  0.2926  0.2903
  479SOL    HW2 1688   2.292   4.890   4.513 -0.7704  0.0918 -0.6772
  479SOL    HW3 1689   2.306   4.979   4.392  2.6752  0.9282  0.2307
  479SOL    MW4 1690   2.303   4.969   4.478 -0.2035  0.2875  0.1046
  480SOL     OW 1691   2.942   5.573   5.805 -0.1939  0.0739  0.4574
  480SOL    HW2 1692   2.927   5.609   5.892  0.6904  1.9581 -0.1155
  480SOL    HW3 1693   2.858   5.584   5.760  0.3096  2.5345 -0.0282
  480SOL    MW4 1694   2.929   5.579   5.811 -0.6907  0.1099 -0.3459
  481SOL     OW 1695   2.595   2.537   0.802  0.2672  0.1957  0.6218
  481SOL    HW2 1696   2.584   2.480   0.727 -2.7186 -0.2891  1.3274
  481SOL    HW3 1697   2.646   2.486   0.865  1.2930 -0.0292 -0.3723
  481SOL    MW4 1698   2.600   2.523   0.801  0.4119  0.1527  0.5910
  482SOL     OW 1699   3.034   2.418   0.508 -0.1836  0.5864 -0.2935
  482SOL    HW2 1700   3.054   2.486   0.444  0.4146  0.6083 -0.0850
  482SOL    HW3 1701   3.119   2.391   0.542 -0.5358  1.1493  1.0952
  482SOL    MW4 1702   3.048   2.423   0.504 -0.1003  0.3352 -0.6291
  483SOL     OW 1703   6.389   1.745   3.840 -0.2512  0.1323 -0.0850
  483SOL    HW2 1704   6.337   1.805   3.786 -0.5214 -1.1500 -1.2958
  483SOL    HW3 1705   6.327   1.676   3.864  0.4662 -0.5288 -0.1161
  483SOL    MW4 1706   6.374   1.744   3.836 -0.0928 -0.4355  0.6562
  484SOL     OW 1707   4.674   3.505   6.209  0.0864 -0.7860 -0.3091
  484SOL    HW2 1708   4.747   3.445   6.218 -0.3693 -1.2459  0.4214
  484SOL    HW3 1709   4.714   3.592   6.210  0.5831 -1.0201  0.4735
  484SOL    MW4 1710   4.689   3.509   6.210  0.0346 -0.0346  0.3903
  485SOL     OW 1711   4.994   2.420   4.050 -0.0702  0.4090  0.1706
  485SOL    HW2 1712   4.998   2.508   4.089 -1.8813  0.7085 -0.2485
  485SOL    HW3 1713   4.976   2.435   3.957  0.2609 -0.3930 -0.0319
  485SOL    MW4 1714   4.992   2.434   4.043 -0.6351  0.0208 -0.0485
  486SOL     OW 1715   6.010   4.914   5.364  0.0479 -0.2285 -0.0215
  486SOL    HW2 1716   5.954   4.953   5.296  0.2267 -0.0015 -0.0390
  486SOL    HW3 1717   5.950   4.861   5.416  0.0186 -0.9305 -0.7424
  486SOL    MW4 1718   5.994   4.913   5.362 -0.3284 -0.5278 -0.6013
  487SOL     OW 1719   2.036   1.308   4.786  0.5168  0.2975 -0.3338
  487SOL    HW2 1720   1.963   1.266   4.831 -0.1111  0.4809 -1.1610
  487SOL    HW3 1721   2.002   1.394   4.760  1.1222  0.5016 -0.4586
  487SOL    MW4 1722   2.022   1.314   4.788 -0.2709  0.6782 -0.4039
  488SOL     OW 1723   4.927   1.785   4.024 -0.1882  0.2339  0.3211
  488SOL    HW2 1724   4.874   1.716   3.987 -0.0581  0.3684 -0.1258
  488SOL    HW3 1725   5.013   1.745   4.037 -0.8092 -0.4805  2.6188
  488SOL    MW4 1726   4.932   1.771   4.021  0.5646 -0.1164 -0.0220
  489SOL     OW 1727   4.960   5.748   0.608  0.4482  0.2689 -0.0525
  489SOL    HW2 1728   4.897   5.769   0.677  0.0230 -0.0819 -0.3343
  489SOL    HW3 1729   4.917   5.682   0.554  0.4394  1.1309 -1.1422
  489SOL    MW4 1730   4.946   5.742   0.610  0.3761  0.7524  0.5101
  490SOL     OW 1731   2.075   2.546   4.826 -0.0653  0.0392 -0.1159
  490SOL    HW2 1732   2.036   2.588   4.750  1.7826 -1.7789 -2.2027
  490SOL    HW3 1733   2.072   2.453   4.806  1.1630 -0.4524  1.7200
  490SOL    MW4 1734   2.069   2.539   4.814  0.0291  0.9635  0.5703
  491SOL     OW 1735   3.333   4.718   0.391  1.2206 -0.1204  0.5871
  491SOL    HW2 1736   3.388   4.765   0.328  1.5788  0.8250  1.5642
  491SOL    HW3 1737   3.395   4.664   0.441  0.9861 -0.5939  0.3705
  491SOL    MW4 1738   3.348   4.717   0.389  0.0521 -0.1970  0.2401
  492SOL     OW 1739   2.462   4.075   2.523  0.0320 -0.2652  0.1067
  492SOL    HW2 1740   2.504   4.138   2.581  2.3944  0.5232 -2.2469
  492SOL    HW3 1741   2.520   3.999   2.525 -0.2630 -0.5157 -0.6424
  492SOL    MW4 1742   2.475   4.073   2.531 -0.4528 -0.2502 -0.1791
  493SOL     OW 1743   1.495   6.276   3.906  0.0574  0.3994 -0.2010
  493SOL    HW2 1744   1.443   6.300   3.829 -1.3095  1.7460  1.0642
  493SOL    HW3 1745   1.431   6.268   3.977  1.4528  1.0863  1.2034
  493SOL    MW4 1746   1.480   6.278   3.905 -0.2073 -0.1683 -0.1482
  494SOL     OW 1747   4.662   4.319   5.482 -0.1653 -0.1822  0.2183
  494SOL    HW2 1748   4.611   4.385   5.530  1.1518  0.8385  0.2860
  494SOL    HW3 1749   4.734   4.297   5.542 -0.6283 -1.7758  0.2281
  494SOL    MW4 1750   4.665   4.325   5.496 -0.2184 -0.2970 -0.4156
  495SOL     OW 1751   0.711   4.074   0.232 -0.1193  0.0210 -0.3989
  495SOL    HW2 1752   0.730   4.001   0.291 -2.7785 -1.2194 -0.9216
  495SOL    HW3 1753   0.696   4.148   0.290  0.6972 -0.2980  0.2478
  495SOL    MW4 1754   0.712   4.074   0.247  0.7276 -0.0265  0.4415
  496SOL     OW 1755   3.947   3.999   1.019  0.0613  0.6438 -0.4753
  496SOL    HW2 1756   3.973   3.941   0.947  2.0225  0.0141  0.6614
  496SOL    HW3 1757   3.943   3.941   1.096  0.6246  1.7499  0.4191
  496SOL    MW4 1758   3.950   3.983   1.020 -0.0407  0.0402 -0.3873
  497SOL     OW 1759   6.312   1.367   5.558  0.0405  0.2440 -0.3432
  497SOL    HW2 1760   6.265   1.380   5.640  1.8887 -0.2483  0.8419
  497SOL    HW3 1761   6.297   1.447   5.508 -0.8409  0.6851  0.6094
  497SOL    MW4 1762   6.304   1.379   5.562 -0.3221 -0.1171  0.8257
  498SOL     OW 1763   3.157   0.872   5.931  0.1982  0.3110 -0.0268
  498SOL    HW2 1764   3.213   0.799   5.905 -0.0299  0.5631 -1.2843
  498SOL    HW3 1765   3.154   0.867   6.027  0.6159 -1.0042 -0.0612
  498SOL    MW4 1766   3.164   0.862   5.940  0.4728 -0.3054 -0.0387
  499SOL     OW 1767   0.647   4.751   2.666 -0.9016  0.3035 -0.1456
  499SOL    HW2 1768   0.646   4.658   2.641 -1.2302 -0.1865  1.5297
  499SOL    HW3 1769   0.556   4.780   2.653 -1.4204 -0.3418  1.6909
  499SOL    MW4 1770   0.635   4.742   2.661  0.2079 -0.0251  0.3871
  500SOL     OW 1771   1.330   2.681   1.033 -0.0750  0.0325  0.3737
  500SOL    HW2 1772   1.298   2.752   1.088 -1.2047  1.6037 -2.1187
  500SOL    HW3 1773   1.251   2.632   1.009  0.3345 -0.3792 -0.1529
  500SOL    MW4 1774   1.315   2.684   1.037  0.3238  0.3354  0.1363
  501SOL     OW 1775   3.003   0.927   5.712  0.0499 -0.0040 -0.2501
  501SOL    HW2 1776   3.052   0.927   5.794 -1.7860  0.5502  0.9241
  501SOL    HW3 1777   3.067   0.951   5.645  1.0748  2.1971  1.3935
  501SOL    MW4 1778   3.018   0.930   5.714  0.8688  0.3891 -0.1286
  502SOL     OW 1779   1.457   2.452   1.574 -0.6863  0.5810 -0.4472
  502SOL    HW2 1780   1.536   2.409   1.609 -0.9683 -0.9215 -1.5544
  502SOL    HW3 1781   1.440   2.524   1.635  1.1348  0.5091  0.2021
  502SOL    MW4 1782   1.465   2.455   1.587  0.2955 -0.0701  0.1180
  503SOL     OW 1783   4.065   1.349   0.986  0.1863 -0.4362 -0.3547
  503SOL    HW2 1784   4.019   1.351   0.902  2.9984  0.3989 -2.0097
  503SOL    HW3 1785   4.054   1.438   1.021 -2.7211 -1.3245  1.3131
  503SOL    MW4 1786   4.057   1.361   0.979  0.2114  0.2059  0.4500
  504SOL     OW 1787   4.012   1.847   5.810  0.5839 -0.0656  0.0923
  504SOL    HW2 1788   3.977   1.935   5.805  0.4286  0.0063  1.7069
  504SOL    HW3 1789   4.036   1.836   5.903 -0.5317 -2.1299  0.2023
  504SOL    MW4 1790   4.011   1.857   5.822 -0.0487  0.3146  0.0841
  505SOL     OW 1791   5.949   3.287   0.898 -0.0676 -0.0777 -0.1242
  505SOL    HW2 1792   5.870   3.334   0.922 -0.7530 -0.1302 -2.0943
  505SOL    HW3 1793   6.015   3.355   0.884  0.1895 -0.0190  1.2632
  505SOL    MW4 1794   5.947   3.302   0.899  0.5177 -0.1400 -0.2808
  506SOL     OW 1795   0.423   1.006   2.546 -0.0651  0.1833  0.1158
  506SOL    HW2 1796   0.519   1.009   2.539 -0.1192  0.7093 -0.5573
  506SOL    HW3 1797   0.405   0.928   2.598  0.7862  1.0041  1.7250
  506SOL    MW4 1798   0.433   0.996   2.552 -0.4911  0.0819  0.1212
  507SOL     OW 1799   5.196   3.935   0.178 -0.2467 -0.3457 -0.2406
  507SOL    HW2 1800   5.155   3.855   0.209  1.4832 -1.2261 -0.1163
  507SOL    HW3 1801   5.215   3.918   0.086  0.1399 -0.0822 -0.2104
  507SOL    MW4 1802   5.193   3.923   0.170 -0.3849  0.1519 -0.3557
  508SOL     OW 1803   5.514   1.563   0.110  0.3230 -0.2643  0.4690
  508SOL    HW2 1804   5.601   1.575   0.148  0.3237  1.5920 -0.0334
  508SOL    HW3 1805   5.497   1.645   0.063 -1.4858 -0.7989  0.1336
  508SOL    MW4 1806   5.523   1.575   0.109 -0.3284 -0.6256 -0.3463
  509SOL     OW 1807   4.244   3.511   4.437  0.3297 -0.1328 -0.1470
  509SOL    HW2 1808   4.247   3.593   4.388 -0.2420 -0.8383 -1.4149
  509SOL    HW3 1809   4.166   3.520   4.492 -0.7826 -0.5044 -1.5968
  509SOL    MW4 1810   4.234   3.523   4.438 -0.2783  0.3571  0.2645
  510SOL     OW 1811   3.126   5.296   5.723 -0.6752  0.0904  0.2489
  510SOL    HW2 1812   3.042   5.292   5.770 -0.1073 -2.7452  1.2057
  510SOL    HW3 1813   3.135   5.210   5.684  2.4325 -0.2051  1.3637
  510SOL    MW4 1814   3.116   5.284   5.724 -0.3131  0.4108 -0.0755
  511SOL     OW 1815   3.627   5.646   1.388  0.4601  0.7902  0.0006
  511SOL    HW2 1816   3.645   5.723   1.442 -0.1636  0.8584  0.1117
  511SOL    HW3 1817   3.635   5.572   1.448  2.7055  0.6035 -0.4459
  511SOL    MW4 1818   3.630   5.646   1.403  0.0440  0.1753 -0.0345
  512SOL     OW 1819   0.274   6.068   6.183 -0.4717 -0.4825 -0.0476
  512SOL    HW2 1820   0.309   6.003   6.244 -0.1723 -1.2580 -1.0169
  512SOL    HW3 1821   0.247   6.017   6.107  0.2641  0.5974 -1.0565
  512SOL    MW4 1822   0.275   6.053   6.181 -0.0908 -0.0990  0.1664
  513SOL     OW 1823   3.637   2.102   0.696 -0.1568 -0.2234 -0.0428
  513SOL    HW2 1824   3.634   2.197   0.702  0.4861 -0.2776  1.7246
  513SOL    HW3 1825   3.643   2.072   0.787 -1.8738 -2.0250 -0.4489
  513SOL    MW4 1826   3.637   2.111   0.709  0.0379  0.7999 -0.3838
  514SOL     OW 1827   4.225   3.351   2.402 -0.2430  0.5254 -0.3674
  514SOL    HW2 1828   4.205   3.264   2.436 -1.7761  1.4869  1.3881
  514SOL    HW3 1829   4.219   3.409   2.478  2.1917  2.0110 -1.1829
  514SOL    MW4 1830   4.221   3.347   2.416  0.1440  0.2668  0.0983
  515SOL     OW 1831   0.619   2.145   5.907 -0.0138  0.0278 -0.5649
  515SOL    HW2 1832   0.534   2.146   5.862 -0.0456 -0.0614 -0.5064
  515SOL    HW3 1833   0.599   2.119   5.997  0.0537  0.1794 -0.5061
  515SOL    MW4 1834   0.605   2.142   5.913  0.1912  0.2318 -0.0420
  516SOL     OW 1835   3.803   2.068   3.903 -0.3461  0.0304  0.7229
  516SOL    HW2 1836   3.825   2.024   3.986  1.1628  0.0468  0.3660
  516SOL    HW3 1837   3.855   2.021   3.837  0.0349  1.2868  0.0973
  516SOL    MW4 1838   3.813   2.056   3.905 -0.3042 -0.8150  0.1363
  517SOL     OW 1839   4.516   4.789   3.919  0.6467  0.7090 -0.3778
  517SOL    HW2 1840   4.467   4.715   3.954  0.1785  1.2436  0.0940
  517SOL    HW3 1841   4.539   4.842   3.995  0.5833  1.2917 -0.7580
  517SOL    MW4 1842   4.513   4.786   3.933 -0.1096 -0.0844 -0.4274
  518SOL     OW 1843   1.063   5.712   3.138 -0.3672 -0.1045  0.1572
  518SOL    HW2 1844   1.102   5.654   3.072 -0.1092  0.3173 -0.0585
  518SOL    HW3 1845   1.072   5.800   3.102 -1.1682  0.0395  0.2757
  518SOL    MW4 1846   1.069   5.716   3.124 -0.1459  1.0368  0.0196
  519SOL     OW 1847   1.743   3.452   2.896  0.3403  0.3421 -0.2446
  519SOL    HW2 1848   1.820   3.453   2.953  0.7561 -1.2041 -0.7174
  519SOL    HW3 1849   1.697   3.372   2.920  0.3701 -0.1860 -1.8268
  519SOL    MW4 1850   1.747   3.442   2.907  0.4496 -0.1036 -0.1763
  520SOL     OW 1851   1.490   5.816   1.555  0.0309 -0.0141  0.2244
  520SOL    HW2 1852   1.481   5.881   1.485 -0.0927 -0.8502 -0.5561
  520SOL    HW3 1853   1.503   5.868   1.635  0.3505  0.9532 -0.4395
  520SOL    MW4 1854   1.491   5.831   1.556  0.2728  0.1224 -0.2302
  521SOL     OW 1855   1.890   1.146   1.777  0.2125 -0.0448 -0.1811
  521SOL    HW2 1856   1.954   1.207   1.739  0.9752  1.3386  2.9641
  521SOL    HW3 1857   1.923   1.059   1.753  1.4477  0.7021 -1.3348
  521SOL    MW4 1858   1.903   1.142   1.769  0.4144 -0.5057  0.1970
  522SOL     OW 1859   0.854   1.221   4.053  0.0435 -0.2447  0.5315
  522SOL    HW2 1860   0.787   1.283   4.023 -0.0140  0.1300  1.4007
  522SOL    HW3 1861   0.804   1.148   4.090  0.1115 -0.4967  0.1219
  522SOL    MW4 1862   0.838   1.220   4.054  0.3946  0.2314  0.0689
  523SOL     OW 1863   2.456   5.447   5.691  0.1700  0.0245 -0.2125
  523SOL    HW2 1864   2.441   5.384   5.621 -0.1773 -0.4251  0.2605
  523SOL    HW3 1865   2.370   5.482   5.711  0.2135 -0.1008  0.2178
  523SOL    MW4 1866   2.443   5.443   5.685  0.1130 -0.3520  0.9910
  524SOL     OW 1867   5.024   3.154   4.868  0.3036 -0.2576 -0.0604
  524SOL    HW2 1868   4.962   3.190   4.805  0.3495 -1.6014 -0.9052
  524SOL    HW3 1869   5.097   3.216   4.869 -0.8804  1.1929  0.7299
  524SOL    MW4 1870   5.025   3.167   4.860 -0.1831 -0.4923  0.1401
  525SOL     OW 1871   1.600   4.807   2.268  0.4952 -0.1055  0.7144
  525SOL    HW2 1872   1.536   4.736   2.261  1.9206 -1.5845  1.8886
  525SOL    HW3 1873   1.556   4.883   2.229 -0.8074 -1.7944 -1.3301
  525SOL    MW4 1874   1.586   4.807   2.262  0.3621  0.5375 -0.1192
  526SOL     OW 1875   2.625   6.023   5.380 -0.0687  0.0929  0.0013
  526SOL    HW2 1876   2.654   5.990   5.466  0.9421  0.8992 -0.0076
  526SOL    HW3 1877   2.600   5.944   5.332 -0.6013 -0.3768  1.0209
  526SOL    MW4 1878   2.626   6.008   5.385 -0.2103 -0.2063  0.3901
  527SOL     OW 1879   1.304   0.526   1.663 -0.0071 -0.2105  0.4640
  527SOL    HW2 1880   1.238   0.463   1.691 -0.8639  0.4901  0.0538
  527SOL    HW3 1881   1.254   0.598   1.626  1.0330 -0.5142 -1.6899
  527SOL    MW4 1882   1.289   0.527   1.662 -0.2267  0.7176 -0.1839
  528SOL     OW 1883   5.958   6.298   6.057  0.0360 -0.2490 -0.1959
  528SOL    HW2 1884   6.050   6.272   6.051  0.1249  0.2396 -0.9449
  528SOL    HW3 1885   5.941   6.301   6.151  1.0260  0.5025 -0.0289
  528SOL    MW4 1886   5.968   6.295   6.069 -0.0053  0.3360  0.0200
  529SOL     OW 1887   2.663   3.151   5.289  0.1851  0.5756  0.3008
  529SOL    HW2 1888   2.582   3.197   5.264 -0.9808 -2.0804 -1.2227
  529SOL    HW3 1889   2.683   3.095   5.215  1.6018 -1.2540  1.9529
  529SOL    MW4 1890   2.655   3.150   5.276  0.3130 -0.2969  0.6692
  530SOL     OW 1891   3.560   5.653   3.772 -0.3003 -0.6643  0.1164
  530SOL    HW2 1892   3.474   5.614   3.788 -0.6233  0.6473  1.7212
  530SOL    HW3 1893   3.612   5.632   3.850  0.1991  0.2754  0.0508
  530SOL    MW4 1894   3.556   5.645   3.784 -0.0618 -0.2427  0.3663
  531SOL     OW 1895   5.889   5.651   1.076  0.8055  0.2594 -0.5214
  531SOL    HW2 1896   5.914   5.715   1.143  0.6339  0.1646 -0.3658
  531SOL    HW3 1897   5.972   5.618   1.042  0.8940  0.4510 -0.4930
  531SOL    MW4 1898   5.903   5.655   1.081 -0.2327 -0.0001  0.5589
  532SOL     OW 1899   2.713   3.660   0.934 -0.3687 -0.0639  0.3676
  532SOL    HW2 1900   2.723   3.681   1.027 -1.0832 -2.2759  0.9958
  532SOL    HW3 1901   2.801   3.633   0.906 -0.4966 -1.0207  0.8579
  532SOL    MW4 1902   2.726   3.659   0.943  0.3132  0.3180 -0.3315
  533SOL     OW 1903   4.993   0.191   0.889  0.5027 -0.0783  0.4537
  533SOL    HW2 1904   4.980   0.160   0.979  2.1048  0.4998  0.9102
  533SOL    HW3 1905   4.904   0.202   0.856 -0.1524 -2.7513  1.0638
  533SOL    MW4 1906   4.979   0.189   0.897 -0.8406  0.0225 -0.2660
  534SOL     OW 1907   3.372   3.659   6.267 -0.6229  0.0034 -0.1972
  534SOL    HW2 1908   3.305   3.673   6.200  0.7776 -1.3202 -1.9817
  534SOL    HW3 1909   3.332   3.599   6.330 -1.0298 -1.0581 -1.4341
  534SOL    MW4 1910   3.358   3.653   6.266  0.0328 -1.0944 -0.2055
  535SOL     OW 1911   5.806   3.731   1.670  0.0962  0.1795  0.0416
  535SOL    HW2 1912   5.872   3.663   1.681 -1.2307 -1.0909  0.4270
  535SOL    HW3 1913   5.729   3.685   1.636 -1.4542  1.1030  2.0467
  535SOL    MW4 1914   5.805   3.716   1.667 -0.3617 -0.3560 -0.0733
  536SOL     OW 1915   5.551   0.205   6.156  0.0999  0.2759 -0.2258
  536SOL    HW2 1916   5.564   0.277   6.217  0.2886  0.3538 -0.3546
  536SOL    HW3 1917   5.602   0.132   6.192  1.1494  0.6659 -0.8766
  536SOL    MW4 1918   5.559   0.205   6.169 -0.2701  0.4701 -0.1402
  537SOL     OW 1919   3.892   0.484   1.071 -0.1153  0.0142 -0.7091
  537SOL    HW2 1920   3.850   0.409   1.029 -1.2715 -0.2771  0.8525
  537SOL    HW3 1921   3.920   0.451   1.156  1.7118  0.7089 -1.0115
  537SOL    MW4 1922   3.890   0.470   1.076  0.3002 -0.0333  0.2686
  538SOL     OW 1923   2.332   3.830   0.777  0.3936  0.3312  0.5607
  538SOL    HW2 1924   2.296   3.767   0.839  0.5522 -1.8344 -1.4396
  538SOL    HW3 1925   2.414   3.790   0.747  0.7322  1.7024 -0.4446
  538SOL    MW4 1926   2.338   3.817   0.781  0.1366  0.1430 -0.1544
  539SOL     OW 1927   5.483   2.130   3.722  0.2908  0.0844  0.0448
  539SOL    HW2 1928   5.575   2.154   3.737  1.4716 -1.7046 -3.2102
  539SOL    HW3 1929   5.465   2.157   3.632 -2.0045 -0.7059  0.1973
  539SOL    MW4 1930   5.493   2.136   3.712  0.4932 -0.3046  0.3822
  540SOL     OW 1931   2.830   5.853   2.964 -0.5497  0.0465  0.0389
  540SOL    HW2 1932   2.897   5.881   3.027 -1.5758 -0.4302  1.3930
  540SOL    HW3 1933   2.813   5.931   2.911  0.1312  0.5498  0.5492
  540SOL    MW4 1934   2.836   5.867   2.965  0.1454  0.0411 -0.1841
  541SOL     OW 1935   1.958   3.271   4.890 -0.4389  0.2041 -0.0571
  541SOL    HW2 1936   1.973   3.352   4.841  2.0368  0.6994  1.3727
  541SOL    HW3 1937   2.010   3.280   4.969 -2.5483 -1.5194  1.6599
  541SOL    MW4 1938   1.967   3.283   4.894  0.3390 -0.6123 -0.2614
  542SOL     OW 1939   0.710   1.937   0.299  0.2390 -0.3444  0.0985
  542SOL    HW2 1940   0.705   2.031   0.282 -1.1439 -0.6510 -1.4384
  542SOL    HW3 1941   0.776   1.929   0.368  2.7753  1.4939 -1.9005
  542SOL    MW4 1942   0.718   1.948   0.306 -0.4549 -0.1999 -0.0120
  543SOL     OW 1943   0.305   4.358   6.194  0.2257  0.4901 -0.4016
  543SOL    HW2 1944   0.369   4.295   6.160 -1.0796 -0.7393 -0.6417
  543SOL    HW3 1945   0.273   4.319   6.275  0.0314  1.2628 -0.1001
  543SOL    MW4 1946   0.310   4.345   6.200  0.5978  0.3960 -0.1445
  544SOL     OW 1947   5.661   0.634   5.252  0.4437 -0.3569 -0.4873
  544SOL    HW2 1948   5.660   0.723   5.285  0.7104 -0.7502  0.6179
  544SOL    HW3 1949   5.674   0.643   5.157 -2.0832  0.8606 -0.7994
  544SOL    MW4 1950   5.662   0.647   5.244 -0.4928 -0.2629  0.1972
  545SOL     OW 1951   4.101   0.980   2.177  0.6999 -0.2299 -0.0980
  545SOL    HW2 1952   4.073   0.942   2.260  1.0042  0.0922  0.1549
  545SOL    HW3 1953   4.021   1.018   2.140  0.8138  0.8340  0.7008
  545SOL    MW4 1954   4.087   0.980   2.183  0.0496 -0.6301  0.4910
  546SOL     OW 1955   2.445   3.473   4.504 -0.4386 -0.7598  0.4220
  546SOL    HW2 1956   2.531   3.445   4.473  0.2627  2.0381 -0.4496
  546SOL    HW3 1957   2.464   3.547   4.562 -2.2260 -0.4963  0.7087
  546SOL    MW4 1958   2.459   3.479   4.508 -0.3728  0.2468 -0.3734
  547SOL     OW 1959   3.035   1.690   3.866 -0.2286  0.3998  0.1447
  547SOL    HW2 1960   2.963   1.672   3.927 -0.4814 -0.4443 -0.3928
  547SOL    HW3 1961   2.999   1.672   3.780  0.1095  1.6572 -0.2896
  547SOL    MW4 1962   3.020   1.685   3.863  0.1082 -0.1772  0.2143
  548SOL     OW 1963   4.478   5.367   1.823 -0.0402 -0.0766  0.1545
  548SOL    HW2 1964   4.554   5.349   1.879 -0.3207 -1.7923  0.0455
  548SOL    HW3 1965   4.428   5.286   1.824 -1.7324  0.9292 -0.0294
  548SOL    MW4 1966   4.482   5.354   1.830 -0.4714 -0.1711  0.0501
  549SOL     OW 1967   0.523   2.743   1.324 -0.7508  0.0765  0.0503
  549SOL    HW2 1968   0.614   2.771   1.312 -0.6582 -0.7085 -1.2189
  549SOL    HW3 1969   0.506   2.756   1.418  0.6783  0.1838  0.3111
  549SOL    MW4 1970   0.533   2.748   1.335  0.0359  0.2925  0.1319
  550SOL     OW 1971   2.544   1.607   0.294  0.3506 -0.2766  0.2921
  550SOL    HW2 1972   2.558   1.569   0.381 -0.8972 -2.1889 -0.2668
  550SOL    HW3 1973   2.620   1.579   0.244  1.1780  1.0103  0.8002
  550SOL    MW4 1974   2.556   1.598   0.299  0.0324 -0.4891 -0.0731
  551SOL     OW 1975   6.233   1.474   1.745  0.1103  0.0440 -0.0810
  551SOL    HW2 1976   6.152   1.443   1.786  0.2344  0.1535  0.2574
  551SOL    HW3 1977   6.258   1.405   1.684  0.6418 -0.7726  1.0088
  551SOL    MW4 1978   6.226   1.461   1.743  0.3127  0.5537 -0.5323
  552SOL     OW 1979   2.019   0.526   2.286  0.6962 -0.0994 -0.1940
  552SOL    HW2 1980   2.077   0.578   2.230 -1.1399  2.2836 -0.0743
  552SOL    HW3 1981   2.008   0.580   2.365  0.6338 -1.8622  1.0603
  552SOL    MW4 1982   2.025   0.540   2.289 -0.2262 -0.3931  0.4473
  553SOL     OW 1983   4.430   6.133   0.647  0.0376  0.0649 -0.2169
  553SOL    HW2 1984   4.455   6.104   0.735 -0.5378 -1.7821 -0.6217
  553SOL    HW3 1985   4.335   6.124   0.645  0.1135 -0.5631 -1.2530
  553SOL    MW4 1986   4.421   6.128   0.658 -0.6513 -0.2854 -0.2392
  554SOL     OW 1987   3.981   4.626   2.521 -0.3340  0.0734  0.2384
  554SOL    HW2 1988   3.892   4.589   2.521 -0.4331  0.2957 -0.2866
  554SOL    HW3 1989   4.026   4.582   2.593 -1.4431  1.3452  1.8117
  554SOL    MW4 1990   3.975   4.616   2.531 -0.2111  0.1427 -0.5990
  555SOL     OW 1991   1.765   2.868   2.693 -0.6818 -0.6130 -0.0955
  555SOL    HW2 1992   1.859   2.860   2.711 -0.9420 -1.7965  0.8856
  555SOL    HW3 1993   1.748   2.801   2.626 -1.0880 -1.5630  0.9141
  555SOL    MW4 1994   1.775   2.858   2.687  0.3786  0.0682 -0.3324
  556SOL     OW 1995   2.409   4.060   0.044 -0.2065 -0.6371  0.2168
  556SOL    HW2 1996   2.383   4.087   0.132 -0.7404 -0.0678 -0.1008
  556SOL    HW3 1997   2.359   3.980   0.027 -1.2128  0.0412 -0.1040
  556SOL    MW4 1998   2.399   4.053   0.053 -0.4968 -0.2882  0.4247
  557SOL     OW 1999   2.526   4.702   0.288  0.0324  0.0772 -0.1985
  557SOL    HW2 2000   2.511   4.735   0.377 -1.5379  1.1721 -0.8177
  557SOL    HW3 2001   2.553   4.779   0.238  1.5769 -0.6612 -0.5561
  557SOL    MW4 2002   2.528   4.717   0.294  0.4392  0.1709  0.2226
  558SOL     OW 2003   0.561   5.750   3.337  0.9088  0.0325 -0.0579
  558SOL    HW2 2004   0.538   5.658   3.344 -1.7949  0.5835 -0.7979
  558SOL    HW3 2005   0.478   5.797   3.344  1.9896  2.3253 -1.4489
  558SOL    MW4 2006   0.547   5.744   3.339  0.1279  0.5132  0.0082
  559SOL     OW 2007   3.016   0.357   5.939  0.9692  0.0653  0.0575
  559SOL    HW2 2008   3.106   0.349   5.909  0.3184 -0.5627 -1.8916
  559SOL    HW3 2009   2.994   0.271   5.973  0.6754 -0.2325 -0.8469
  559SOL    MW4 2010   3.025   0.345   5.939  0.4459  0.4023  0.4648
  560SOL     OW 2011   0.513   3.063   3.957  0.2548 -0.0912 -0.7754
  560SOL    HW2 2012   0.576   3.131   3.934  0.7470 -0.7031 -1.2697
  560SOL    HW3 2013   0.428   3.101   3.935  0.5870  0.0299 -1.8843
  560SOL    MW4 2014   0.510   3.077   3.951 -0.1020  0.2013  0.0625
  561SOL     OW 2015   5.292   2.559   1.857  0.5487 -0.1689  0.3206
  561SOL    HW2 2016   5.265   2.648   1.836  1.3156  0.1436  0.6251
  561SOL    HW3 2017   5.361   2.539   1.794 -0.6400 -1.1203 -0.7296
  561SOL    MW4 2018   5.297   2.568   1.846 -0.0632  0.0854 -0.3044
  562SOL     OW 2019   3.726   4.543   3.337 -0.2804 -0.1739  0.1346
  562SOL    HW2 2020   3.752   4.473   3.277  0.4024  0.4991 -0.3822
  562SOL    HW3 2021   3.630   4.541   3.336 -0.2870 -0.1549 -1.0254
  562SOL    MW4 2022   3.717   4.534   3.329  0.0440  0.0193  0.3540
  563SOL     OW 2023   3.990   5.868   1.373  0.0715 -0.1388 -0.4117
  563SOL    HW2 2024   3.995   5.957   1.409  0.4518 -0.3901  0.1669
  563SOL    HW3 2025   4.079   5.849   1.345  0.0866 -0.5099 -0.1146
  563SOL    MW4 2026   4.003   5.877   1.374 -0.7747 -0.2468 -0.1198
  564SOL     OW 2027   3.640   1.908   0.090 -0.0574  0.2647  0.6860
  564SOL    HW2 2028   3.585   1.872   0.160 -2.4283  1.6047 -0.3794
  564SOL    HW3 2029   3.697   1.836   0.065 -4.1774 -2.7792 -0.9917
  564SOL    MW4 2030   3.641   1.894   0.096  0.3404 -0.6492 -0.4667
  565SOL     OW 2031   3.150   5.890   2.036 -0.2124 -0.0611  0.1059
  565SOL    HW2 2032   3.140   5.929   1.950  3.5078  1.6211  0.2101
  565SOL    HW3 2033   3.180   5.962   2.092 -1.4735 -1.3189  2.5834
  565SOL    MW4 2034   3.153   5.904   2.032 -0.4135  0.3573 -0.7049
  566SOL     OW 2035   3.639   0.074   2.511  0.3001  0.3065 -0.2454
  566SOL    HW2 2036   3.591   0.013   2.455 -0.3508 -0.1831  0.8296
  566SOL    HW3 2037   3.650   0.028   2.594 -0.6711  1.8385  0.7737
  566SOL    MW4 2038   3.634   0.060   2.514  0.6245 -0.3728 -0.3960
  567SOL     OW 2039   1.464   1.503   3.448  0.1815  0.1362 -0.1728
  567SOL    HW2 2040   1.548   1.536   3.418  0.2570  0.2758  0.1820
  567SOL    HW3 2041   1.402   1.574   3.429  0.4967  0.8783  1.4044
  567SOL    MW4 2042   1.467   1.517   3.442 -0.1126 -0.3072  0.0655
  568SOL     OW 2043   5.611   4.378   5.078  0.3797  0.6343  0.4216
  568SOL    HW2 2044   5.638   4.444   5.141 -0.4856  1.0374  0.3901
  568SOL    HW3 2045   5.638   4.295   5.117 -1.5828  0.7308  2.1646
  568SOL    MW4 2046   5.618   4.375   5.091 -0.1314  0.0465  0.4989
  569SOL     OW 2047   5.978   5.941   3.541 -0.2603 -0.3348  0.0654
  569SOL    HW2 2048   5.919   6.013   3.565  0.8757  1.1908 -1.3877
  569SOL    HW3 2049   6.007   5.963   3.452  0.3231 -2.5089 -0.3412
  569SOL    MW4 2050   5.974   5.954   3.532  0.3811 -0.8065  0.0053
  570SOL     OW 2051   4.917   0.391   1.760  0.2467  0.3460  0.0274
  570SOL    HW2 2052   4.822   0.401   1.759  0.0685 -1.1880 -0.5456
  570SOL    HW3 2053   4.934   0.328   1.830  0.8171  0.3345 -0.1140
  570SOL    MW4 2054   4.907   0.384   1.769  0.0187 -0.1656 -0.2569
  571SOL     OW 2055   1.874   0.866   5.013  0.0102  0.0517  0.4544
  571SOL    HW2 2056   1.814   0.915   4.956 -0.7166 -0.4918  0.7312
  571SOL    HW3 2057   1.956   0.914   5.009  0.3569 -0.6036 -2.0114
  571SOL    MW4 2058   1.877   0.878   5.005 -0.1369  0.2996  0.9908
  572SOL     OW 2059   2.992   1.516   3.368  0.6356 -0.5423  0.2710
  572SOL    HW2 2060   3.039   1.583   3.318 -0.3927 -0.5614 -0.7879
  572SOL    HW3 2061   2.908   1.507   3.322 -0.4819 -0.3884  2.1673
  572SOL    MW4 2062   2.987   1.523   3.355 -0.2521 -0.1114  0.2412
  573SOL     OW 2063   2.028   0.334   2.801 -0.1559  0.3650  0.1158
  573SOL    HW2 2064   2.087   0.291   2.739 -0.6208  0.6402 -0.5266
  573SOL    HW3 2065   2.067   0.316   2.887 -0.3155 -1.2969 -0.1239
  573SOL    MW4 2066   2.041   0.326   2.804 -0.4763  0.7965 -0.7154
  574SOL     OW 2067   3.691   6.309   1.497  0.3228  0.1547  0.0275
  574SOL    HW2 2068   3.607   6.332   1.456 -0.0454 -0.4507  0.4288
  574SOL    HW3 2069   3.667   6.271   1.581  1.0626  1.0504  0.6609
  574SOL    MW4 2070   3.677   6.307   1.503  0.4272 -0.3072 -0.7240
  575SOL     OW 2071   2.682   3.927   2.838  0.2509  0.0835  0.3045
  575SOL    HW2 2072   2.729   3.855   2.880  3.2024  1.6678 -0.0077
  575SOL    HW3 2073   2.664   3.896   2.749  0.0886 -0.8011  0.6392
  575SOL    MW4 2074   2.686   3.914   2.832  0.1225  0.3372 -0.0938
  576SOL     OW 2075   4.359   1.541   6.412 -0.1569  0.0363 -0.4248
  576SOL    HW2 2076   4.421   1.614   6.420 -0.2986  0.2980 -1.5351
  576SOL    HW3 2077   4.362   1.517   6.319 -2.3551  0.6304 -0.7114
  576SOL    MW4 2078   4.368   1.548   6.401 -1.1470  0.4074  0.7169
  577SOL     OW 2079   3.373   3.175   3.704 -0.0592  0.0483 -0.2224
  577SOL    HW2 2080   3.429   3.241   3.742  1.0272 -1.2310  0.4904
  577SOL    HW3 2081   3.342   3.213   3.621  2.2887  0.6078 -0.9001
  577SOL    MW4 2082   3.376   3.188   3.698  0.4154 -0.3440  0.1107
  578SOL     OW 2083   5.781   0.622   0.166 -0.0967  0.1334  0.3138
  578SOL    HW2 2084   5.827   0.611   0.249 -0.8446  0.4327  0.7748
  578SOL    HW3 2085   5.709   0.682   0.186 -0.8440 -0.5326 -0.3396
  578SOL    MW4 2086   5.778   0.629   0.179 -0.1300 -0.3088 -0.5242
  579SOL     OW 2087   3.090   5.455   1.327 -0.3599 -0.3060  0.1378
  579SOL    HW2 2088   3.180   5.487   1.318  0.0555 -1.4315  0.0932
  579SOL    HW3 2089   3.071   5.414   1.244 -1.6211  1.5221 -0.5380
  579SOL    MW4 2090   3.100   5.454   1.315 -0.1804  0.2974 -0.6848
  580SOL     OW 2091   4.120   1.417   2.081 -0.1954  0.1946 -0.1652
  580SOL    HW2 2092   4.132   1.359   2.157 -1.4069 -0.4512 -0.4311
  580SOL    HW3 2093   4.199   1.405   2.028  0.6918  0.6944  1.0022
  580SOL    MW4 2094   4.132   1.408   2.084 -0.3766  0.2768 -0.2697
  581SOL     OW 2095   6.191   2.125   2.149  0.2224  0.4124 -0.1822
  581SOL    HW2 2096   6.184   2.165   2.235  1.3598  1.0602 -0.3737
  581SOL    HW3 2097   6.275   2.155   2.115  0.6520 -1.3638 -0.7517
  581SOL    MW4 2098   6.201   2.134   2.156 -0.0742  0.3559  0.0243
  582SOL     OW 2099   0.089   3.894   2.684 -0.0070  0.7814  0.1522
  582SOL    HW2 2100  -0.002   3.916   2.665 -0.0707 -0.3587 -1.0378
  582SOL    HW3 2101   0.088   3.861   2.774 -1.7785 -3.8560 -1.2582
  582SOL    MW4 2102   0.077   3.893   2.693  0.2501  0.2615 -0.1456
  583SOL     OW 2103   3.701   4.823   0.330  0.4284 -0.0254  0.1259
  583SOL    HW2 2104   3.698   4.728   0.334  0.7560 -0.0106  0.6986
  583SOL    HW3 2105   3.626   4.847   0.275  0.2967 -0.6057  0.0518
  583SOL    MW4 2106   3.691   4.814   0.323  1.1026  0.7228  0.2093
  584SOL     OW 2107   0.053   6.276   1.457  0.0486 -0.8570  0.0930
  584SOL    HW2 2108   0.048   6.370   1.476 -1.5131 -1.4834  3.4495
  584SOL    HW3 2109   0.000   6.266   1.378  1.4542  1.1988 -1.2250
  584SOL    MW4 2110   0.045   6.287   1.449  0.2022 -0.0102  0.2251
  585SOL     OW 2111   3.538   3.965   6.089  0.1454  0.0534 -0.3979
  585SOL    HW2 2112   3.461   3.998   6.134  1.0553  0.0716  1.2420
  585SOL    HW3 2113   3.612   3.998   6.141  1.1822 -1.7358 -0.6370
  585SOL    MW4 2114   3.538   3.974   6.102  0.7553  0.2730 -0.1688
  586SOL     OW 2115   0.546   5.494   6.010 -0.1585  0.6781  0.4764
  586SOL    HW2 2116   0.521   5.407   5.978  1.1301  0.7848 -0.9694
  586SOL    HW3 2117   0.597   5.532   5.939  0.3508  2.1449  1.5622
  586SOL    MW4 2118   0.550   5.487   5.997 -0.0519 -0.2885  0.1331
  587SOL     OW 2119   1.707   0.973   3.858  0.4034  0.3075  0.8512
  587SOL    HW2 2120   1.756   1.034   3.912  2.1788 -0.7234  0.5005
  587SOL    HW3 2121   1.691   0.898   3.916  0.7155 -0.0474  0.4812
  587SOL    MW4 2122   1.711   0.971   3.873  0.2026  0.8189 -0.3141
  588SOL     OW 2123   0.583   1.783   6.235  0.4427  0.1268 -0.2811
  588SOL    HW2 2124   0.621   1.834   6.307  0.8540 -0.6505  0.0549
  588SOL    HW3 2125   0.609   1.693   6.252  0.8684 -0.0273 -1.6108
  588SOL    MW4 2126   0.591   1.778   6.246  0.3020 -0.2344 -0.2054
  589SOL     OW 2127   2.896   0.943   3.233  0.2433  0.6611 -0.2584
  589SOL    HW2 2128   2.887   0.999   3.156  0.6738  1.6213  0.3801
  589SOL    HW3 2129   2.820   0.963   3.287 -0.5253 -0.6370 -0.7865
  589SOL    MW4 2130   2.885   0.953   3.230 -0.3919  0.2024  0.2673
  590SOL     OW 2131   2.796   5.019   3.251  0.1624 -0.2793 -0.0301
  590SOL    HW2 2132   2.807   4.952   3.183  0.5602 -0.2343 -0.0169
  590SOL    HW3 2133   2.865   4.999   3.314  1.0567  0.8584 -0.6147
  590SOL    MW4 2134   2.807   5.007   3.250 -0.5995  0.2995 -0.0067
  591SOL     OW 2135   4.879   0.740   2.861  0.3462  0.0621  0.0591
  591SOL    HW2 2136   4.808   0.804   2.854 -0.7039 -1.0221  0.3537
  591SOL    HW3 2137   4.956   0.792   2.882 -0.6341  1.1661  1.1310
  591SOL    MW4 2138   4.880   0.755   2.863  0.3928 -0.5464 -0.1906
  592SOL     OW 2139   4.004   4.318   0.276 -0.5921 -0.4232 -0.1789
  592SOL    HW2 2140   4.064   4.244   0.283 -0.7140 -0.5767 -0.7100
  592SOL    HW3 2141   3.953   4.315   0.357 -0.3728 -0.7254 -0.0518
  592SOL    MW4 2142   4.005   4.308   0.287  0.2497  0.4212 -0.1957
  593SOL     OW 2143   0.669   1.954   0.010 -0.1702  0.3186  0.4671
  593SOL    HW2 2144   0.667   1.908   0.094  0.4228  1.0039  0.8644
  593SOL    HW3 2145   0.762   1.970  -0.006  0.2034 -3.1867 -2.1960
  593SOL    MW4 2146   0.681   1.950   0.019  0.9005 -0.3685 -0.0879
  594SOL     OW 2147   3.387   2.920   4.824 -0.2521  0.6653 -0.0981
  594SOL    HW2 2148   3.405   2.912   4.731  0.3200 -0.4493  0.0956
  594SOL    HW3 2149   3.303   2.967   4.828 -0.9109 -0.3654 -1.2087
  594SOL    MW4 2150   3.378   2.925   4.813  0.2587  0.4455 -0.7231
  595SOL     OW 2151   5.278   3.808   2.130 -0.1844  1.0761 -0.8623
  595SOL    HW2 2152   5.236   3.894   2.128  2.5370  2.7238  2.4406
  595SOL    HW3 2153   5.359   3.822   2.179  0.2332 -3.5018  0.1979
  595SOL    MW4 2154   5.284   3.821   2.136  0.1317  0.4059  0.0046
  596SOL     OW 2155   1.692   4.801   4.391  0.2986  0.0084  0.1407
  596SOL    HW2 2156   1.784   4.825   4.383  1.2097 -3.1748 -0.1380
  596SOL    HW3 2157   1.680   4.782   4.484  0.0359  0.0177  0.1098
  596SOL    MW4 2158   1.703   4.801   4.402  0.6435 -0.0150  0.3592
  597SOL     OW 2159   3.106   6.339   5.932 -0.4617 -0.1517 -0.5206
  597SOL    HW2 2160   3.195   6.366   5.910 -0.0729  0.6292  1.7552
  597SOL    HW3 2161   3.117   6.265   5.991 -1.4337 -1.7729 -2.2678
  597SOL    MW4 2162   3.119   6.333   5.937  0.2058  0.6301 -0.0489
  598SOL     OW 2163   5.913   2.582   5.568  0.8553  0.5378  0.4829
  598SOL    HW2 2164   5.979   2.590   5.499  1.9409 -2.1421  1.1011
  598SOL    HW3 2165   5.905   2.488   5.584 -1.5315  0.8917  1.9945
  598SOL    MW4 2166   5.920   2.571   5.561 -0.2529  0.1209 -0.0803
  599SOL     OW 2167   5.205   1.003   3.691 -0.2476  0.2657  0.0793
  599SOL    HW2 2168   5.152   0.925   3.686  2.2420 -1.8385  2.7660
  599SOL    HW3 2169   5.293   0.975   3.665  0.7382  2.1126  1.1279
  599SOL    MW4 2170   5.210   0.989   3.687  0.2715 -0.4551 -0.7097
  600SOL     OW 2171   0.202   4.292   4.871 -0.2316  0.3226  0.0852
  600SOL    HW2 2172   0.221   4.374   4.917  3.5196 -1.9609  3.3035
  600SOL    HW3 2173   0.269   4.286   4.803 -0.0885 -0.3084  0.2755
  600SOL    MW4 2174   0.213   4.302   4.868  0.2179 -0.2395  0.6208
  601SOL     OW 2175   3.532   6.131   6.248  0.7483  0.0308 -1.0303
  601SOL    HW2 2176   3.567   6.151   6.335 -0.5185 -1.2173 -0.1782
  601SOL    HW3 2177   3.606   6.142   6.189  2.2032 -1.1533  0.4794
  601SOL    MW4 2178   3.546   6.135   6.252 -0.2936  0.3790  0.3980
  602SOL     OW 2179   5.269   0.391   3.798 -0.2989 -0.4982 -0.5506
  602SOL    HW2 2180   5.352   0.370   3.756 -0.6366  0.5966 -1.8341
  602SOL    HW3 2181   5.243   0.475   3.760 -2.2340 -1.0516 -0.5754
  602SOL    MW4 2182   5.276   0.399   3.788  0.0769  0.2246  0.3619
  603SOL     OW 2183   2.448   5.855   2.067  0.1832  0.2199 -0.3234
  603SOL    HW2 2184   2.481   5.805   2.142  1.5170  1.9577  0.3038
  603SOL    HW3 2185   2.451   5.793   1.994 -1.7270 -1.7010  1.0967
  603SOL    MW4 2186   2.453   5.840   2.067 -0.2042  0.5546 -0.3297
  604SOL     OW 2187   4.943   6.175   5.527 -0.0655  0.1085 -0.2538
  604SOL    HW2 2188   4.999   6.122   5.585  1.5337  1.2813 -0.6578
  604SOL    HW3 2189   4.895   6.233   5.586  1.0098  0.7905 -0.0251
  604SOL    MW4 2190   4.944   6.176   5.542  0.2270 -0.7997  0.0485
  605SOL     OW 2191   0.228   3.187   5.688 -0.2469 -0.1152 -0.2414
  605SOL    HW2 2192   0.194   3.228   5.608  1.1941  0.9119 -0.3650
  605SOL    HW3 2193   0.269   3.259   5.735 -1.9426 -0.4889  1.9646
  605SOL    MW4 2194   0.229   3.202   5.683 -0.4363  0.3238  0.1834
  606SOL     OW 2195   3.827   2.089   1.770  0.7274 -0.3846  0.4135
  606SOL    HW2 2196   3.740   2.092   1.731  1.3939 -1.7167 -1.3483
  606SOL    HW3 2197   3.812   2.092   1.864 -1.2668 -1.3339  0.1709
  606SOL    MW4 2198   3.814   2.090   1.777 -0.5324  0.8436  0.1617
  607SOL     OW 2199   1.930   5.408   2.747  0.6913 -0.3711  0.2305
  607SOL    HW2 2200   1.901   5.389   2.836 -3.4471  0.9238 -0.6004
  607SOL    HW3 2201   1.867   5.473   2.715  2.7851  0.2041 -3.2298
  607SOL    MW4 2202   1.918   5.414   2.754  0.2341  0.2293  0.5442
  608SOL     OW 2203   5.508   4.033   1.913  0.2664  0.5461 -0.5896
  608SOL    HW2 2204   5.421   4.060   1.941  0.6568  1.7012 -0.4579
  608SOL    HW3 2205   5.498   4.016   1.819  0.0165  1.1652 -0.6767
  608SOL    MW4 2206   5.495   4.034   1.904 -0.0175 -0.0213 -0.2595
  609SOL     OW 2207   0.180   4.581   3.404 -0.2026  0.1671  0.3466
  609SOL    HW2 2208   0.230   4.661   3.420 -1.6158  1.0358  0.6299
  609SOL    HW3 2209   0.129   4.568   3.484 -1.0793 -0.1783 -0.2475
  609SOL    MW4 2210   0.180   4.590   3.417 -0.2870 -0.0299  0.3862
  610SOL     OW 2211   2.062   0.052   0.166  0.0065  0.4736 -0.0967
  610SOL    HW2 2212   2.066   0.105   0.087 -1.0957 -0.4498 -0.8053
  610SOL    HW3 2213   2.061  -0.038   0.134  1.7061 -0.0117  1.0638
  610SOL    MW4 2214   2.062   0.047   0.151  0.3282 -0.1861 -0.3502
  611SOL     OW 2215   1.738   5.043   6.050  0.4775  0.1141 -0.2423
  611SOL    HW2 2216   1.829   5.058   6.025  1.1600 -0.8003  1.5340
  611SOL    HW3 2217   1.705   5.130   6.072  1.8343  0.1601  1.8691
  611SOL    MW4 2218   1.745   5.056   6.049 -0.3605 -0.0828  0.6379
  612SOL     OW 2219   4.631   6.203   3.473  0.1688  0.0794 -1.0540
  612SOL    HW2 2220   4.660   6.281   3.520 -0.7543  0.1322 -0.5473
  612SOL    HW3 2221   4.537   6.201   3.487  0.0663 -0.6505 -1.7971
  612SOL    MW4 2222   4.623   6.213   3.481 -0.1746 -0.3027  0.1291
  613SOL     OW 2223   3.687   2.979   5.673 -0.1399 -0.3314  0.1278
  613SOL    HW2 2224   3.685   2.930   5.755  2.7658  0.8995  1.0988
  613SOL    HW3 2225   3.696   2.912   5.605 -0.2884 -1.2821  1.0180
  613SOL    MW4 2226   3.688   2.964   5.675  0.1974 -0.0239  0.5722
  614SOL     OW 2227   1.330   2.186   1.194  0.0122 -0.1674  0.0161
  614SOL    HW2 2228   1.261   2.183   1.127 -0.5223  0.1770  0.5438
  614SOL    HW3 2229   1.322   2.273   1.233  2.0495  0.6645 -1.2522
  614SOL    MW4 2230   1.319   2.197   1.190  0.4193 -0.6126  0.2032
  615SOL     OW 2231   0.573   4.012   1.285  0.2027  0.1726  0.3605
  615SOL    HW2 2232   0.530   4.094   1.311  1.3522  0.6911  0.6714
  615SOL    HW3 2233   0.554   4.005   1.191  0.5148  1.0591  0.2199
  615SOL    MW4 2234   0.565   4.022   1.276 -0.1867  0.3237  0.5156
  616SOL     OW 2235   4.630   0.740   1.282 -0.1987  0.1808  0.0177
  616SOL    HW2 2236   4.638   0.760   1.375 -0.8516 -3.6207  1.0755
  616SOL    HW3 2237   4.714   0.699   1.259 -0.6772 -0.5129 -0.5460
  616SOL    MW4 2238   4.642   0.737   1.291 -0.0216 -1.4507  0.0074
  617SOL     OW 2239   3.479   1.559   5.446  0.0129 -0.0003  0.3423
  617SOL    HW2 2240   3.485   1.552   5.542  1.1464  0.6274  0.3360
  617SOL    HW3 2241   3.391   1.530   5.426  0.6447 -2.9408  1.3161
  617SOL    MW4 2242   3.468   1.554   5.456  0.1182  0.1627  0.3447
  618SOL     OW 2243   2.049   0.963   0.746  0.3004 -0.0606  0.1432
  618SOL    HW2 2244   1.992   0.906   0.798  0.6555  0.5720  1.2619
  618SOL    HW3 2245   2.042   1.048   0.789  1.4019  0.2277 -0.2383
  618SOL    MW4 2246   2.041   0.966   0.759  0.1395 -0.0348  0.5660
  619SOL     OW 2247   4.411   2.681   3.718  0.0327 -0.6757  0.0128
  619SOL    HW2 2248   4.401   2.766   3.674  0.7882 -0.2833  0.5711
  619SOL    HW3 2249   4.431   2.620   3.647 -2.1705 -0.7359 -0.6128
  619SOL    MW4 2250   4.412   2.684   3.702 -0.4693 -0.2845  0.0950
  620SOL     OW 2251   5.873   4.841   2.035 -0.2483  0.4707 -0.5905
  620SOL    HW2 2252   5.921   4.917   2.069 -1.3139  1.5816 -1.4999
  620SOL    HW3 2253   5.831   4.803   2.111  1.0645  0.1909  0.0317
  620SOL    MW4 2254   5.874   4.846   2.049  0.0367  0.3294  0.2404
  621SOL     OW 2255   5.584   5.981   1.507  0.0081  0.7213  0.6937
  621SOL    HW2 2256   5.670   5.973   1.550  1.3836  0.9556 -1.8153
  621SOL    HW3 2257   5.577   5.901   1.454 -0.6105  1.4093 -0.2968
  621SOL    MW4 2258   5.595   5.969   1.506 -0.1290  0.3961 -0.1455
  622SOL     OW 2259   5.487   0.017   2.205 -0.7955 -1.0992  0.5201
  622SOL    HW2 2260   5.511   0.107   2.180 -1.0670 -1.2564 -0.3338
  622SOL    HW3 2261   5.402   0.003   2.164 -0.9828 -1.5769  1.0748
  622SOL    MW4 2262   5.479   0.027   2.196 -0.2746  0.0871 -0.2560
  623SOL     OW 2263   5.261   5.424   0.356  0.7747  0.5214  0.3418
  623SOL    HW2 2264   5.235   5.509   0.390 -0.4946 -0.0694  0.9388
  623SOL    HW3 2265   5.309   5.383   0.428 -0.3668 -0.0261  0.8335
  623SOL    MW4 2266   5.264   5.430   0.370 -0.3355  0.1323 -0.0355
  624SOL     OW 2267   1.452   3.080   3.185 -0.3697 -0.0702 -0.1318
  624SOL    HW2 2268   1.429   3.016   3.119 -0.7736 -1.3249  1.1808
  624SOL    HW3 2269   1.526   3.128   3.147  1.5763 -2.9071 -0.2490
  624SOL    MW4 2270   1.459   3.078   3.171  0.1680 -0.6804 -0.7933
  625SOL     OW 2271   5.222   4.230   2.363 -0.0392 -0.1622  0.1700
  625SOL    HW2 2272   5.278   4.190   2.430 -1.9914 -1.0693  1.3486
  625SOL    HW3 2273   5.266   4.211   2.280  1.0210 -1.4620  0.9915
  625SOL    MW4 2274   5.236   4.223   2.361  0.8423 -0.2391 -0.4375
  626SOL     OW 2275   5.395   1.496   6.000  0.1724  0.1603  0.4314
  626SOL    HW2 2276   5.433   1.550   5.931 -1.1266 -0.7718 -1.0926
  626SOL    HW3 2277   5.450   1.418   6.003 -1.9476 -1.6307 -2.4422
  626SOL    MW4 2278   5.407   1.493   5.992 -0.1620 -0.1001  0.0341
  627SOL     OW 2279   5.560   0.115   0.146 -0.3676  0.9104  0.0018
  627SOL    HW2 2280   5.616   0.131   0.221 -0.3707 -0.3534  0.3018
  627SOL    HW3 2281   5.519   0.030   0.164 -3.1600  2.2149  0.2585
  627SOL    MW4 2282   5.562   0.106   0.158  0.1894 -0.0391 -0.4694
  628SOL     OW 2283   5.143   6.319   1.272  0.4191 -0.2132 -0.3171
  628SOL    HW2 2284   5.141   6.320   1.368  1.3634  1.0993 -0.2759
  628SOL    HW3 2285   5.055   6.347   1.246 -0.5773 -2.7474  0.0924
  628SOL    MW4 2286   5.131   6.323   1.281  0.2976 -0.2048 -0.3360
  629SOL     OW 2287   5.818   3.030   2.379 -0.0934 -0.5508 -0.3354
  629SOL    HW2 2288   5.867   3.083   2.316 -0.5581  0.9707  0.5307
  629SOL    HW3 2289   5.789   2.953   2.329 -0.7372  0.7628 -2.0868
  629SOL    MW4 2290   5.820   3.027   2.364  0.0632 -0.2176 -0.8146
  630SOL     OW 2291   0.152   4.979   2.849 -0.0905  0.2288  0.2824
  630SOL    HW2 2292   0.143   5.054   2.906 -0.0548  0.6287 -0.2314
  630SOL    HW3 2293   0.244   4.977   2.824 -0.2199  0.4130 -0.2311
  630SOL    MW4 2294   0.163   4.988   2.853 -0.4681 -0.2997 -0.2506
  631SOL     OW 2295   5.891   2.028   3.852  0.4404  0.3359 -0.2957
  631SOL    HW2 2296   5.985   2.032   3.870  0.4251 -1.2317  0.2661
  631SOL    HW3 2297   5.882   2.067   3.765  1.5781  0.6960 -0.2651
  631SOL    MW4 2298   5.902   2.034   3.843 -0.4798 -0.5372 -0.1292
  632SOL     OW 2299   0.231   2.700   0.277  0.5077 -0.2672  0.2653
  632SOL    HW2 2300   0.136   2.688   0.272  0.5794 -0.8290  0.2634
  632SOL    HW3 2301   0.264   2.664   0.195  0.9078 -1.9779  1.1375
  632SOL    MW4 2302   0.223   2.694   0.266 -0.0411  0.4130  0.1172
  633SOL     OW 2303   6.203   5.659   4.168 -0.0926 -0.4932 -0.1724
  633SOL    HW2 2304   6.219   5.609   4.248  1.4275 -0.5935 -0.5198
  633SOL    HW3 2305   6.128   5.615   4.127 -0.8813 -0.4408  1.1751
  633SOL    MW4 2306   6.195   5.647   4.173  0.3365  0.2202  0.7001
  634SOL     OW 2307   2.428   2.272   0.143 -0.6704  0.5787 -0.3220
  634SOL    HW2 2308   2.398   2.344   0.198  0.8422 -0.2954  1.7947
  634SOL    HW3 2309   2.485   2.314   0.078 -1.2890  1.4665 -0.3128
  634SOL    MW4 2310   2.432   2.287   0.141 -0.6708  0.1103  0.7047
  635SOL     OW 2311   6.222   6.045   4.351  0.6866  0.1134  0.1953
  635SOL    HW2 2312   6.261   6.128   4.323  0.4663 -0.5730 -2.4129
  635SOL    HW3 2313   6.146   6.034   4.294  0.8193 -1.9573  0.3514
  635SOL    MW4 2314   6.217   6.055   4.340  0.9893  0.3899  0.3470
  636SOL     OW 2315   0.193   4.288   3.188  0.0272  0.0959 -0.8234
  636SOL    HW2 2316   0.107   4.326   3.205  0.3339  1.4107 -2.1016
  636SOL    HW3 2317   0.237   4.292   3.273 -0.1393  2.1237 -0.7949
  636SOL    MW4 2318   0.187   4.293   3.202 -0.8371 -0.0844  0.1117
  637SOL     OW 2319   5.371   3.613   3.045 -0.2870 -0.2087  0.2287
  637SOL    HW2 2320   5.385   3.686   3.106  3.2252 -0.7955  0.3382
  637SOL    HW3 2321   5.382   3.535   3.099  0.9331 -0.7325 -0.7239
  637SOL    MW4 2322   5.375   3.612   3.061 -0.0438  0.7009 -0.0634
  638SOL     OW 2323   4.245   3.409   5.370  0.8512  0.1662 -0.7129
  638SOL    HW2 2324   4.310   3.388   5.304 -0.6489 -2.4592 -1.4759
  638SOL    HW3 2325   4.174   3.347   5.356 -0.5109  0.9146  2.0111
  638SOL    MW4 2326   4.244   3.398   5.359 -0.5127 -0.0196 -0.4142
  639SOL     OW 2327   5.623   4.772   3.695 -0.2297 -0.0695  0.0874
  639SOL    HW2 2328   5.680   4.696   3.696  1.3770  1.0853  0.4210
  639SOL    HW3 2329   5.590   4.779   3.784  1.1070  0.6539  0.5545
  639SOL    MW4 2330   5.626   4.763   3.707 -0.1289  0.3169 -0.0599
  640SOL     OW 2331   2.313   3.492   1.756 -0.5730  0.2040 -0.5828
  640SOL    HW2 2332   2.221   3.468   1.769 -0.1595 -1.5441 -0.5836
  640SOL    HW3 2333   2.319   3.583   1.785 -2.2271  0.2386 -0.2587
  640SOL    MW4 2334   2.301   3.501   1.761 -0.2467  0.0679  0.2405
  641SOL     OW 2335   5.411   2.854   1.532  0.1033  0.5265  0.2869
  641SOL    HW2 2336   5.342   2.836   1.596  0.7768  0.1856  0.9319
  641SOL    HW3 2337   5.381   2.932   1.486 -1.9718 -1.0339 -1.2334
  641SOL    MW4 2338   5.398   2.862   1.534 -0.4664  0.5004  0.0678
  642SOL     OW 2339   5.325   4.750   2.523  0.6728 -0.4969  0.1801
  642SOL    HW2 2340   5.248   4.801   2.549  1.2939  2.0119 -2.3322
  642SOL    HW3 2341   5.290   4.667   2.492 -0.8494 -0.0859  0.7055
  642SOL    MW4 2342   5.311   4.746   2.522  0.0624  0.2965  0.0522
  643SOL     OW 2343   6.250   5.852   0.671 -0.5235  0.2200  0.9782
  643SOL    HW2 2344   6.194   5.775   0.664  0.4347 -0.7080  2.7747
  643SOL    HW3 2345   6.302   5.852   0.591 -1.1772 -0.4740  0.5446
  643SOL    MW4 2346   6.250   5.842   0.660 -0.7489 -0.1589  0.0474
  644SOL     OW 2347   0.760   0.423   3.119  0.0738 -0.0352  0.6303
  644SOL    HW2 2348   0.745   0.454   3.030  0.9126  1.4108  0.9482
  644SOL    HW3 2349   0.834   0.363   3.112  0.4386  0.4362  0.4063
  644SOL    MW4 2350   0.768   0.420   3.106  0.0775  0.3834 -0.7221
  645SOL     OW 2351   2.099   0.253   5.580 -0.0961  0.1094 -0.6371
  645SOL    HW2 2352   2.132   0.336   5.544 -0.0498  0.5380  0.3417
  645SOL    HW3 2353   2.011   0.244   5.542 -0.2626  0.8235 -0.4560
  645SOL    MW4 2354   2.092   0.263   5.570 -0.1097  0.0587 -0.0062
  646SOL     OW 2355   4.551   1.754   6.420 -0.1090 -0.8100 -0.1161
  646SOL    HW2 2356   4.642   1.777   6.398 -0.5444  1.5512  0.2583
  646SOL    HW3 2357   4.500   1.782   6.344 -0.6680 -0.9840  0.1896
  646SOL    MW4 2358   4.556   1.761   6.407  0.0562  0.1726  0.4989
  647SOL     OW 2359   4.212   1.835   1.210  0.1721  0.1736 -0.3277
  647SOL    HW2 2360   4.237   1.806   1.298  0.0252 -0.3885 -0.4681
  647SOL    HW3 2361   4.294   1.864   1.170  0.2662  0.2786 -0.0609
  647SOL    MW4 2362   4.226   1.835   1.216 -0.1206 -0.2998  0.0752
  648SOL     OW 2363   6.197   2.371   5.579 -0.1711  0.2554  0.6272
  648SOL    HW2 2364   6.230   2.329   5.659 -2.8701  0.0591  1.7515
  648SOL    HW3 2365   6.204   2.465   5.596 -0.8845  0.2155  1.2135
  648SOL    MW4 2366   6.202   2.378   5.592 -0.1695  0.4716 -0.2449
  649SOL     OW 2367   6.266   1.654   4.959  0.1874  0.1596  0.4535
  649SOL    HW2 2368   6.268   1.750   4.968  0.1254 -0.0218  3.5515
  649SOL    HW3 2369   6.343   1.625   5.008 -0.0378 -1.4052 -0.0846
  649SOL    MW4 2370   6.277   1.663   4.967 -0.0528  0.5133  0.2272
  650SOL     OW 2371   5.439   0.839   2.640 -0.1145  0.1560  0.3399
  650SOL    HW2 2372   5.522   0.855   2.686  0.2345 -0.0134 -0.2213
  650SOL    HW3 2373   5.425   0.917   2.587 -0.6020  0.4219  0.8507
  650SOL    MW4 2374   5.448   0.851   2.639  0.4613 -0.2020 -0.0378
  651SOL     OW 2375   4.389   5.478   6.060 -0.2226  0.3341  0.2945
  651SOL    HW2 2376   4.467   5.433   6.093 -0.0533  0.5449  0.1838
  651SOL    HW3 2377   4.420   5.530   5.987 -0.7653 -0.8798 -0.8398
  651SOL    MW4 2378   4.403   5.479   6.055 -0.7038 -0.0155 -0.0674
  652SOL     OW 2379   2.530   1.584   2.790  0.0297  0.0606  0.4102
  652SOL    HW2 2380   2.487   1.515   2.840  0.1255 -0.3061 -0.0007
  652SOL    HW3 2381   2.480   1.588   2.708 -0.5265  1.0955  0.7865
  652SOL    MW4 2382   2.517   1.575   2.786  0.4439 -0.1280 -0.3225
  653SOL     OW 2383   3.603   0.173   1.391 -0.3029 -0.5385  0.2056
  653SOL    HW2 2384   3.516   0.211   1.377  0.3267  1.2125  0.7785
  653SOL    HW3 2385   3.632   0.147   1.304 -0.8808  0.0613 -0.1774
  653SOL    MW4 2386   3.595   0.175   1.378  0.7643 -0.1195  0.2080
  654SOL     OW 2387   5.665   1.814   3.904 -0.0414  0.0576  0.5036
  654SOL    HW2 2388   5.601   1.824   3.833  0.0282 -0.3312  0.3806
  654SOL    HW3 2389   5.746   1.788   3.860 -0.3461 -1.5384  0.8174
  654SOL    MW4 2390   5.667   1.812   3.888 -0.1282 -0.0046 -0.0336
  655SOL     OW 2391   0.213   5.067   1.057  0.1356 -0.0908 -0.0118
  655SOL    HW2 2392   0.235   5.046   1.148  1.4937  0.2722 -0.2283
  655SOL    HW3 2393   0.286   5.120   1.027 -0.5412  0.2137 -1.1741
  655SOL    MW4 2394   0.226   5.071   1.065  0.0714  1.0811  0.0028
  656SOL     OW 2395   4.446   2.669   5.510 -0.5761 -0.0325 -0.4098
  656SOL    HW2 2396   4.417   2.614   5.437 -2.4270  0.7593 -0.3350
  656SOL    HW3 2397   4.528   2.707   5.481 -0.0238 -1.6423 -1.0688
  656SOL    MW4 2398   4.453   2.667   5.497  0.1290 -0.0998  0.0558
  657SOL     OW 2399   2.500   4.588   2.524  0.0905  0.1731  0.2675
  657SOL    HW2 2400   2.480   4.680   2.505 -2.2998 -0.3935 -0.2659
  657SOL    HW3 2401   2.457   4.539   2.453 -0.4257 -1.4615  1.6450
  657SOL    MW4 2402   2.492   4.594   2.512 -0.6067 -0.2273 -0.0385
  658SOL     OW 2403   5.101   6.266   5.796  0.3212  0.7818  0.0263
  658SOL    HW2 2404   5.133   6.354   5.775 -0.4684  0.8320 -1.0827
  658SOL    HW3 2405   5.010   6.266   5.765  0.9527 -1.1072 -2.0953
  658SOL    MW4 2406   5.093   6.278   5.789 -0.4651 -0.1773 -0.2667
  659SOL     OW 2407   0.537   4.219   4.979  0.4629  0.0090  0.1018
  659SOL    HW2 2408   0.621   4.182   4.952  0.4167 -0.3759  0.4626
  659SOL    HW3 2409   0.528   4.300   4.928  1.3108  0.3455  0.4764
  659SOL    MW4 2410   0.547   4.225   4.969 -0.2148  0.1826 -0.0314
  660SOL     OW 2411   6.020   0.900   6.172 -0.5046  0.5740 -0.4754
  660SOL    HW2 2412   5.950   0.835   6.178  0.3762 -0.3578  0.1051
  660SOL    HW3 2413   5.975   0.983   6.154 -1.5914 -0.3078 -2.0536
  660SOL    MW4 2414   6.005   0.902   6.170  0.3596 -0.6236 -0.5668
  661SOL     OW 2415   3.443   5.724   1.714  0.1234 -0.0422  0.7489
  661SOL    HW2 2416   3.378   5.758   1.653  0.2682 -0.1825  0.5157
  661SOL    HW3 2417   3.464   5.637   1.681  1.1263  0.3595  0.2791
  661SOL    MW4 2418   3.437   5.717   1.702 -0.4697 -0.3038  0.0541
  662SOL     OW 2419   1.979   0.386   0.281 -0.2738  0.1204  0.0115
  662SOL    HW2 2420   2.027   0.465   0.305 -0.3367  0.4178 -0.8309
  662SOL    HW3 2421   2.039   0.337   0.226  0.3828 -1.2173  1.7992
  662SOL    MW4 2422   1.993   0.390   0.277  0.1956 -0.1070 -0.3558
  663SOL     OW 2423   3.337   1.744   1.640  0.9381 -0.4178  0.1272
  663SOL    HW2 2424   3.271   1.748   1.570  2.2419  1.2544 -1.0837
  663SOL    HW3 2425   3.292   1.701   1.713 -1.3174  0.1975 -0.8190
  663SOL    MW4 2426   3.322   1.739   1.640  0.7992 -0.5937 -0.0054
  664SOL     OW 2427   1.681   3.008   4.014 -0.3245 -0.5961 -0.3585
  664SOL    HW2 2428   1.721   2.975   3.934  1.7577  1.1643 -0.1440
  664SOL    HW3 2429   1.752   3.008   4.078 -1.0471  1.2354  0.5021
  664SOL    MW4 2430   1.695   3.004   4.012  0.2394  0.0659  0.1103
  665SOL     OW 2431   4.191   4.907   0.628  0.2986  0.4498  0.3241
  665SOL    HW2 2432   4.234   4.848   0.566 -0.1235  0.3502  0.1211
  665SOL    HW3 2433   4.251   4.981   0.637 -0.4434  1.3636 -1.6508
  665SOL    MW4 2434   4.204   4.909   0.621  0.0504  0.0130  1.0021
  666SOL     OW 2435   3.524   5.483   2.339  0.6348 -0.1750  0.2039
  666SOL    HW2 2436   3.618   5.489   2.321  0.1859  2.1274 -1.9536
  666SOL    HW3 2437   3.489   5.432   2.266  0.2166 -1.3495  1.1953
  666SOL    MW4 2438   3.531   5.477   2.327 -0.3084 -0.3773 -0.5650
  667SOL     OW 2439   2.830   4.317   5.464 -0.0194 -0.4654  0.0571
  667SOL    HW2 2440   2.742   4.280   5.457 -0.3371  0.5668 -2.4835
  667SOL    HW3 2441   2.879   4.251   5.514 -1.8902 -1.6575  0.4342
  667SOL    MW4 2442   2.825   4.303   5.470 -0.1845  0.0672  0.0965
  668SOL     OW 2443   3.460   3.886   5.114 -0.3288 -0.0862 -0.3542
  668SOL    HW2 2444   3.441   3.973   5.081 -2.6314 -0.4597 -0.1735
  668SOL    HW3 2445   3.454   3.894   5.210 -1.1448 -0.5480 -0.3589
  668SOL    MW4 2446   3.457   3.898   5.123 -0.4691 -0.0067 -0.1207
  669SOL     OW 2447   0.393   1.438   3.369  0.0169  0.6034  0.5959
  669SOL    HW2 2448   0.333   1.503   3.405 -1.3189  1.0535 -2.1656
  669SOL    HW3 2449   0.461   1.488   3.325  0.4778  0.1032  0.7202
  669SOL    MW4 2450   0.394   1.453   3.368  0.4431  0.6427 -0.1433
  670SOL     OW 2451   4.833   0.523   6.191 -0.3024 -0.0263 -0.3874
  670SOL    HW2 2452   4.785   0.440   6.198 -0.1198 -0.1464 -0.5297
  670SOL    HW3 2453   4.774   0.588   6.229 -0.6652 -0.1365 -0.7455
  670SOL    MW4 2454   4.819   0.520   6.197  0.9685 -0.2936 -0.2322
  671SOL     OW 2455   2.369   4.747   4.707 -0.1358  0.1865  0.6384
  671SOL    HW2 2456   2.387   4.691   4.782 -0.7230 -0.1005  0.5769
  671SOL    HW3 2457   2.393   4.694   4.631  0.1745  0.3630  0.6138
  671SOL    MW4 2458   2.374   4.733   4.707  0.4332 -0.3028  0.3705
  672SOL     OW 2459   3.801   5.529   5.889  0.4120 -0.3903 -0.3678
  672SOL    HW2 2460   3.774   5.567   5.805  0.3629 -1.9960 -1.1153
  672SOL    HW3 2461   3.720   5.520   5.939  0.5050  1.0303  0.0769
  672SOL    MW4 2462   3.787   5.533   5.884 -0.1597  0.4418 -0.0109
  673SOL     OW 2463   6.225   1.545   3.955  0.4834 -0.1756 -0.0547
  673SOL    HW2 2464   6.269   1.516   4.035 -0.0786 -0.9941 -0.0314
  673SOL    HW3 2465   6.187   1.465   3.918 -3.3979  0.8262  1.3783
  673SOL    MW4 2466   6.226   1.531   3.960  0.1228 -0.0786  0.5928
  674SOL     OW 2467   0.752   0.502   0.821 -0.6318  0.3886  0.4622
  674SOL    HW2 2468   0.831   0.549   0.848  0.5295 -1.6739  0.9065
  674SOL    HW3 2469   0.774   0.409   0.833 -2.5298 -0.3295 -1.0741
  674SOL    MW4 2470   0.765   0.496   0.826 -0.3241  0.4952 -0.8182
  675SOL     OW 2471   5.135   1.401   2.022 -0.1980 -0.5374  0.1200
  675SOL    HW2 2472   5.134   1.364   2.111 -1.9616 -1.7106 -0.3334
  675SOL    HW3 2473   5.113   1.327   1.966 -3.2721  0.9910 -0.8984
  675SOL    MW4 2474   5.132   1.387   2.027 -0.1507 -0.9508  0.3676
  676SOL     OW 2475   0.759   6.353   1.894  0.1795 -0.0843  0.2800
  676SOL    HW2 2476   0.812   6.339   1.973  1.4475  0.7726 -0.3886
  676SOL    HW3 2477   0.674   6.313   1.915  0.5519 -0.0542  1.9942
  676SOL    MW4 2478   0.754   6.346   1.907 -0.2143 -0.2135  0.2273
  677SOL     OW 2479   2.254   5.349   3.995  0.2948  0.1588  0.6362
  677SOL    HW2 2480   2.258   5.444   4.006 -0.1967  0.1638  0.7721
  677SOL    HW3 2481   2.274   5.314   4.082  1.9762  0.1001  0.2678
  677SOL    MW4 2482   2.257   5.357   4.008  0.0074  0.2359  0.3183
  678SOL     OW 2483   5.582   3.520   6.253 -0.4148 -0.0494  0.2095
  678SOL    HW2 2484   5.645   3.548   6.319 -1.1831  0.9305  0.5628
  678SOL    HW3 2485   5.509   3.484   6.303 -0.9645  0.6146 -0.0815
  678SOL    MW4 2486   5.581   3.519   6.268  0.3071  0.5739 -0.1054
  679SOL     OW 2487   4.926   2.891   2.341 -0.3116  0.0053  0.5974
  679SOL    HW2 2488   4.854   2.876   2.402 -0.4959 -0.7447  0.2077
  679SOL    HW3 2489   4.897   2.850   2.259 -0.0062  0.8716  0.0477
  679SOL    MW4 2490   4.913   2.883   2.338  0.2915 -0.1699 -0.0815
  680SOL     OW 2491   4.196   1.731   1.948 -0.5867  0.6287  0.5962
  680SOL    HW2 2492   4.128   1.701   1.888 -1.3211  0.1565  1.6328
  680SOL    HW3 2493   4.160   1.811   1.987  0.2592  1.4395 -0.2152
  680SOL    MW4 2494   4.182   1.738   1.945  0.1563 -0.0855 -0.3459
  681SOL     OW 2495   3.770   0.008   4.138 -0.3384 -0.3528 -0.2835
  681SOL    HW2 2496   3.830  -0.019   4.208  0.4920  1.0119 -0.4318
  681SOL    HW3 2497   3.726  -0.073   4.112 -0.6070 -0.9306  1.7339
  681SOL    MW4 2498   3.772  -0.006   4.144 -0.5653 -0.2005 -0.5313
  682SOL     OW 2499   0.977   2.403   0.554  0.0317 -0.2076 -0.0385
  682SOL    HW2 2500   0.982   2.498   0.566 -1.1183 -0.0102 -0.9384
  682SOL    HW3 2501   0.929   2.371   0.630 -0.3928  0.0503 -0.1965
  682SOL    MW4 2502   0.971   2.411   0.565  0.1435  0.5457 -0.2892
  683SOL     OW 2503   6.414   2.854   1.424  0.1161  0.5734  0.1582
  683SOL    HW2 2504   6.413   2.829   1.332  0.0808 -2.5227  0.8677
  683SOL    HW3 2505   6.466   2.934   1.428 -1.7031  2.0450 -2.7599
  683SOL    MW4 2506   6.421   2.861   1.413 -0.2671  0.2024  0.6413
  684SOL     OW 2507   2.407   4.041   3.804  0.1795  0.2549 -0.2547
  684SOL    HW2 2508   2.397   3.947   3.786  0.4472  0.0786  0.4962
  684SOL    HW3 2509   2.450   4.076   3.726  3.7563 -0.9534  0.9824
  684SOL    MW4 2510   2.411   4.033   3.791  0.1449  0.0270  0.6923
  685SOL     OW 2511   3.163   1.261   6.253 -0.3004  0.2460 -0.5131
  685SOL    HW2 2512   3.236   1.254   6.314 -1.5352  0.3797  1.0634
  685SOL    HW3 2513   3.200   1.304   6.176  1.2803  0.2618  0.2146
  685SOL    MW4 2514   3.177   1.266   6.251  0.0652  0.1249 -0.3244
  686SOL     OW 2515   4.300   0.004   0.797  0.3051  0.1967  0.0615
  686SOL    HW2 2516   4.319   0.098   0.794 -0.5975  0.4380  1.2545
  686SOL    HW3 2517   4.279  -0.019   0.706  0.9619  1.0452 -0.3184
  686SOL    MW4 2518   4.299   0.013   0.784 -0.1382  0.3273  0.0365
  687SOL     OW 2519   5.984   5.529   4.052  0.1017 -0.7347 -0.2080
  687SOL    HW2 2520   5.979   5.531   3.956  0.0698  1.0311 -0.1913
  687SOL    HW3 2521   5.893   5.533   4.081  0.1768  0.7450 -0.1133
  687SOL    MW4 2522   5.972   5.529   4.043 -0.3098  0.0759  0.0471
  688SOL     OW 2523   2.106   2.066   6.275 -0.1768 -0.7122 -0.3366
  688SOL    HW2 2524   2.061   1.990   6.236  1.8821 -1.6044 -1.1497
  688SOL    HW3 2525   2.154   2.104   6.202  0.6013  0.0305  0.5494
  688SOL    MW4 2526   2.106   2.061   6.260  0.4320 -0.1156  0.1940
  689SOL     OW 2527   1.487   1.920   2.234  0.2163  0.3884  0.0466
  689SOL    HW2 2528   1.452   1.841   2.277 -0.5981  0.8754  0.2911
  689SOL    HW3 2529   1.430   1.934   2.159 -0.2451  1.2891  0.5462
  689SOL    MW4 2530   1.475   1.911   2.230 -0.0495  0.2780 -0.5748
  690SOL     OW 2531   5.369   2.637   4.763  0.2783  0.1349  0.2059
  690SOL    HW2 2532   5.438   2.604   4.821 -0.2021 -0.9862  0.1533
  690SOL    HW3 2533   5.333   2.559   4.721  0.6161  0.9068 -1.6283
  690SOL    MW4 2534   5.373   2.623   4.765 -0.5836 -0.0436 -0.1558
  691SOL     OW 2535   5.579   6.227   5.082  0.2665 -0.3270  0.4806
  691SOL    HW2 2536   5.510   6.189   5.027  1.3060 -0.1574 -1.0020
  691SOL    HW3 2537   5.545   6.314   5.104 -0.2210 -0.4433  0.2176
  691SOL    MW4 2538   5.565   6.234   5.078  0.3919 -0.2477  0.6413
  692SOL     OW 2539   3.687   3.896   0.081 -0.1430 -0.3820  0.4919
  692SOL    HW2 2540   3.736   3.835   0.027 -2.1908  0.3689 -2.4934
  692SOL    HW3 2541   3.740   3.975   0.082  0.0295 -0.4695 -0.3794
  692SOL    MW4 2542   3.700   3.899   0.074 -0.4094 -0.0205  0.2649
  693SOL     OW 2543   0.330   3.698   4.779 -0.0906  0.0728  0.2631
  693SOL    HW2 2544   0.300   3.661   4.862  1.6990  0.4227  1.0909
  693SOL    HW3 2545   0.266   3.766   4.759 -2.7025 -2.4156 -0.6111
  693SOL    MW4 2546   0.317   3.702   4.787 -0.2596 -0.0585  0.4978
  694SOL     OW 2547   0.802   0.979   0.364 -0.1731 -0.2844 -0.1074
  694SOL    HW2 2548   0.878   1.017   0.319  0.1881 -0.9437 -0.0753
  694SOL    HW3 2549   0.838   0.942   0.445 -0.6369 -0.0686  0.2058
  694SOL    MW4 2550   0.817   0.979   0.369 -0.2901  0.1476 -0.3844
  695SOL     OW 2551   5.384   4.516   3.049 -0.1772  0.1310  0.0457
  695SOL    HW2 2552   5.450   4.509   3.118 -1.7388 -0.8778  1.4914
  695SOL    HW3 2553   5.392   4.434   3.000 -0.8863 -0.3660  0.7400
  695SOL    MW4 2554   5.394   4.504   3.051  0.4715 -0.7924 -0.1296
  696SOL     OW 2555   1.206   0.728   3.511  0.1711  0.0140  0.0024
  696SOL    HW2 2556   1.181   0.793   3.445 -1.3412 -0.1247  0.4124
  696SOL    HW3 2557   1.125   0.707   3.557  0.2745 -3.3212 -1.1136
  696SOL    MW4 2558   1.192   0.734   3.509  0.5506  0.0143  0.0817
  697SOL     OW 2559   2.243   4.113   2.913 -0.0587 -0.3224  0.1222
  697SOL    HW2 2560   2.192   4.051   2.964  1.5845 -2.6544 -0.8915
  697SOL    HW3 2561   2.331   4.109   2.950  0.6970 -0.5993 -1.5770
  697SOL    MW4 2562   2.248   4.104   2.925 -0.6466 -0.2265  0.4965
  698SOL     OW 2563   3.920   0.046   1.374  0.1096  0.3510 -0.6737
  698SOL    HW2 2564   3.964   0.080   1.452 -1.8857 -0.5645  0.9529
  698SOL    HW3 2565   3.832   0.023   1.404 -0.1037 -1.9505 -2.7215
  698SOL    MW4 2566   3.914   0.047   1.388  0.0734  0.1329  0.1146
  699SOL     OW 2567   2.855   3.325   0.838 -0.0840  0.3988  0.5143
  699SOL    HW2 2568   2.877   3.414   0.814  0.2797 -0.1378 -1.3125
  699SOL    HW3 2569   2.929   3.272   0.807 -0.5142 -0.5967  1.1143
  699SOL    MW4 2570   2.867   3.329   0.831  0.1645 -0.2396 -0.1695
  700SOL     OW 2571   0.724   3.939   5.380 -0.3069 -0.0999  0.0203
  700SOL    HW2 2572   0.811   3.956   5.415 -0.6972  0.7580  0.5938
  700SOL    HW3 2573   0.664   3.978   5.443 -1.0984 -0.3828 -0.5387
  700SOL    MW4 2574   0.728   3.946   5.393 -0.5027 -0.7786 -0.0161
  701SOL     OW 2575   3.151   0.420   4.692 -0.0115  0.4687  0.3471
  701SOL    HW2 2576   3.183   0.329   4.686  0.0073  0.4554  0.6623
  701SOL    HW3 2577   3.066   0.418   4.648  0.0819  0.3436  0.1690
  701SOL    MW4 2578   3.144   0.407   4.685  0.4804  0.4741  0.0127
  702SOL     OW 2579   5.112   4.611   1.426 -0.2029  0.6894  0.3149
  702SOL    HW2 2580   5.092   4.698   1.461 -2.4494  1.1995 -1.9077
  702SOL    HW3 2581   5.035   4.558   1.447  0.4977 -0.3459  0.3454
  702SOL    MW4 2582   5.099   4.616   1.433 -0.0888  0.5176  0.2470
  703SOL     OW 2583   2.344   1.206   5.929 -0.1697  0.4970  0.1998
  703SOL    HW2 2584   2.268   1.225   5.874 -0.1528 -0.5019 -0.1889
  703SOL    HW3 2585   2.380   1.292   5.951  1.2632  0.9645 -3.3788
  703SOL    MW4 2586   2.339   1.220   5.925 -0.1637 -0.0833 -0.5826
  704SOL     OW 2587   4.789   1.657   5.384  0.8345  0.4871  0.3656
  704SOL    HW2 2588   4.850   1.603   5.335  1.0858  0.7188  0.4240
  704SOL    HW3 2589   4.844   1.718   5.433  0.6076 -0.0806  1.3458
  704SOL    MW4 2590   4.804   1.658   5.384 -0.5499  0.4532  0.0174
  705SOL     OW 2591   3.837   0.724   5.488  0.7153 -0.3898 -0.5559
  705SOL    HW2 2592   3.848   0.810   5.530 -0.8858  0.0376 -0.9342
  705SOL    HW3 2593   3.850   0.741   5.395  0.0532 -0.4887 -0.6668
  705SOL    MW4 2594   3.840   0.738   5.481  0.2062 -0.1605 -0.0295
  706SOL     OW 2595   4.160   0.907   5.627 -0.0412  0.0551 -0.4616
  706SOL    HW2 2596   4.197   0.979   5.679 -0.0336  0.0271 -0.4270
  706SOL    HW3 2597   4.234   0.847   5.615 -0.9552 -2.1608  3.3007
  706SOL    MW4 2598   4.175   0.908   5.633  0.1703  0.5586  1.2702
  707SOL     OW 2599   4.494   0.191   0.198 -0.3538 -0.1433  0.1048
  707SOL    HW2 2600   4.462   0.280   0.189 -0.6707 -0.0273  1.9745
  707SOL    HW3 2601   4.550   0.177   0.121 -0.5375  1.5388 -0.3636
  707SOL    MW4 2602   4.497   0.201   0.186 -0.3932  0.1197  0.2139
  708SOL     OW 2603   1.136   1.319   0.937  0.4005 -0.5298  0.0419
  708SOL    HW2 2604   1.078   1.315   0.862 -0.1853 -2.6918  0.5355
  708SOL    HW3 2605   1.224   1.312   0.901  0.4638  2.6545 -0.7019
  708SOL    MW4 2606   1.140   1.318   0.923 -0.4493 -0.1772 -0.2515
  709SOL     OW 2607   2.218   6.027   5.900 -0.1634 -0.1532 -0.2278
  709SOL    HW2 2608   2.255   6.002   5.985 -1.8216  0.5044  0.7343
  709SOL    HW3 2609   2.295   6.039   5.844  1.0884  0.8117  1.5591
  709SOL    MW4 2610   2.233   6.025   5.904 -0.2135 -0.2040 -0.1656
  710SOL     OW 2611   4.486   3.084   3.814 -0.1079 -0.7602 -0.1273
  710SOL    HW2 2612   4.411   3.141   3.831  0.8192 -0.1182  2.0932
  710SOL    HW3 2613   4.503   3.040   3.897  1.6610 -1.2840 -0.7194
  710SOL    MW4 2614   4.479   3.086   3.827  0.4085 -0.6056 -0.5260
  711SOL     OW 2615   1.566   0.789   2.704  0.3194  0.5322  0.3106
  711SOL    HW2 2616   1.550   0.838   2.784 -1.3568  0.2566  0.1618
  711SOL    HW3 2617   1.548   0.852   2.634  0.3693  0.3535  0.1357
  711SOL    MW4 2618   1.562   0.804   2.705 -0.9037  0.3453 -0.1272
  712SOL     OW 2619   3.636   2.758   0.317 -0.1894 -0.4879 -0.4931
  712SOL    HW2 2620   3.617   2.848   0.291 -0.6099 -0.1029  1.0058
  712SOL    HW3 2621   3.700   2.727   0.253  1.0067  1.3511 -0.2697
  712SOL    MW4 2622   3.642   2.766   0.305 -0.0467 -0.6718  0.4369
  713SOL     OW 2623   6.049   2.085   6.087  0.4396 -0.1513  0.2565
  713SOL    HW2 2624   6.085   2.158   6.138  0.7945 -0.3524  0.2997
  713SOL    HW3 2625   5.959   2.076   6.118  1.3888 -1.9748  2.8058
  713SOL    MW4 2626   6.042   2.093   6.098  0.2660  0.4996  0.5956
  714SOL     OW 2627   4.866   3.352   5.946  0.5047 -0.0326  0.4909
  714SOL    HW2 2628   4.918   3.299   5.886  0.3440  0.4112 -0.0421
  714SOL    HW3 2629   4.882   3.442   5.919 -2.5308  0.0861 -1.4087
  714SOL    MW4 2630   4.875   3.357   5.935  0.1236  0.0313 -0.0911
  715SOL     OW 2631   6.281   0.590   0.292  0.5171  0.5363 -0.1813
  715SOL    HW2 2632   6.337   0.664   0.316 -1.5131  1.5338  1.8262
  715SOL    HW3 2633   6.214   0.628   0.235  0.5514 -0.1666 -0.6968
  715SOL    MW4 2634   6.280   0.605   0.288 -0.1302  0.0517 -0.0447
  716SOL     OW 2635   1.124   2.731   4.002  0.1318 -0.6271  0.0971
  716SOL    HW2 2636   1.167   2.673   4.065  0.5810  0.5478  0.9228
  716SOL    HW3 2637   1.031   2.725   4.024 -0.0302 -2.2195 -0.8708
  716SOL    MW4 2638   1.118   2.723   4.013 -0.3686 -0.4373 -0.1071
  717SOL     OW 2639   1.777   6.199   2.564  0.4002 -0.1913  0.3318
  717SOL    HW2 2640   1.717   6.273   2.576 -0.3300 -0.5695 -0.8535
  717SOL    HW3 2641   1.862   6.240   2.550 -0.0003  0.4436 -0.3442
  717SOL    MW4 2642   1.780   6.214   2.564  0.0750  0.4789 -0.3610
  718SOL     OW 2643   4.411   3.700   1.233 -0.1665 -0.3673  1.1489
  718SOL    HW2 2644   4.346   3.751   1.186 -0.7760 -1.0780  1.2115
  718SOL    HW3 2645   4.446   3.640   1.168 -0.7012 -1.0550  1.4877
  718SOL    MW4 2646   4.407   3.699   1.218  0.6125 -0.5045  0.4262
  719SOL     OW 2647   5.830   5.481   0.560  0.5182  0.7385  0.1509
  719SOL    HW2 2648   5.875   5.404   0.527  1.1963  1.3358 -0.3476
  719SOL    HW3 2649   5.892   5.520   0.622  0.5455  1.3609 -0.2604
  719SOL    MW4 2650   5.844   5.476   0.564  1.5349  0.1251  0.5429
  720SOL     OW 2651   0.149   2.892   3.025 -0.0851  0.1158  0.4288
  720SOL    HW2 2652   0.064   2.930   3.001 -0.4132  0.4033  1.9357
  720SOL    HW3 2653   0.193   2.960   3.076  0.4928 -0.5031  0.7821
  720SOL    MW4 2654   0.143   2.906   3.029 -0.3112  0.2676  0.3235
  721SOL     OW 2655   1.565   0.131   2.357  0.2768  0.0834  0.3264
  721SOL    HW2 2656   1.477   0.145   2.320 -0.2374 -0.2109  1.3985
  721SOL    HW3 2657   1.618   0.104   2.282 -0.4238  0.7629 -0.4338
  721SOL    MW4 2658   1.560   0.129   2.342  0.2850  0.4700  0.1283
  722SOL     OW 2659   4.060   1.298   4.175  0.0770 -0.1963 -0.2028
  722SOL    HW2 2660   4.148   1.334   4.167 -0.2810  0.7844  0.0794
  722SOL    HW3 2661   4.048   1.284   4.269 -0.1662 -0.0598 -0.2120
  722SOL    MW4 2662   4.070   1.301   4.187  0.0426 -0.5257  0.3373
  723SOL     OW 2663   0.273   2.673   3.368  0.1620  0.5664  0.6597
  723SOL    HW2 2664   0.270   2.674   3.272  0.6462  0.5070  0.6418
  723SOL    HW3 2665   0.225   2.593   3.392 -0.0087  0.6106  0.4704
  723SOL    MW4 2666   0.266   2.663   3.359 -0.2357  0.3020 -0.8083
  724SOL     OW 2667   6.002   1.367   2.736  0.3845 -0.4908 -1.2013
  724SOL    HW2 2668   6.081   1.387   2.787 -0.6720 -1.7277  1.0850
  724SOL    HW3 2669   5.980   1.450   2.693  2.2385  0.1963 -0.9467
  724SOL    MW4 2670   6.009   1.381   2.737 -0.1724  0.3342 -0.4260
  725SOL     OW 2671   0.936   2.682   4.770  0.2548  0.0650 -0.2684
  725SOL    HW2 2672   0.950   2.763   4.818  0.5349  0.9079 -1.7107
  725SOL    HW3 2673   0.867   2.636   4.818  0.9070  0.5984  1.2232
  725SOL    MW4 2674   0.929   2.686   4.783  0.1292  1.0506 -0.5193
  726SOL     OW 2675   4.133   2.410   0.377 -0.5163  0.3761 -0.4447
  726SOL    HW2 2676   4.098   2.432   0.291 -1.4385  0.2957 -0.1002
  726SOL    HW3 2677   4.096   2.324   0.397  0.5607 -0.0967 -0.4285
  726SOL    MW4 2678   4.123   2.401   0.369  0.4142  0.6908  0.3347
  727SOL     OW 2679   5.105   5.348   2.638  0.2796 -0.5393 -0.2784
  727SOL    HW2 2680   5.080   5.374   2.549  1.0892  1.2346 -0.0143
  727SOL    HW3 2681   5.052   5.270   2.655 -1.1242  0.0520 -1.6851
  727SOL    MW4 2682   5.095   5.341   2.628 -0.1524  0.5382 -0.3014
  728SOL     OW 2683   3.675   2.679   4.772 -0.1644 -0.0746  0.4210
  728SOL    HW2 2684   3.669   2.587   4.799 -0.8106  0.0555  0.7309
  728SOL    HW3 2685   3.634   2.727   4.844 -0.1467  0.4300  0.0929
  728SOL    MW4 2686   3.669   2.673   4.785 -0.1361 -0.3615 -0.0541
  729SOL     OW 2687   6.252   5.373   0.548 -0.3237  0.5678 -0.6102
  729SOL    HW2 2688   6.266   5.278   0.545 -1.7323  0.3190 -0.0078
  729SOL    HW3 2689   6.277   5.403   0.460 -0.2607 -0.4150 -0.9445
  729SOL    MW4 2690   6.257   5.364   0.536 -0.1631  0.0360 -0.4690
  730SOL     OW 2691   4.094   3.259   5.861  0.0802  0.8447  0.6046
  730SOL    HW2 2692   4.056   3.282   5.945 -1.2786  0.3252  0.1619
  730SOL    HW3 2693   4.048   3.179   5.835  0.7306  0.7959 -0.4692
  730SOL    MW4 2694   4.083   3.251   5.868  0.7487 -0.4383  0.6169
  731SOL     OW 2695   1.550   2.713   2.060 -0.3492 -0.1190 -0.5584
  731SOL    HW2 2696   1.484   2.679   2.121  0.0427 -1.0747 -0.6493
  731SOL    HW3 2697   1.630   2.665   2.083 -0.1144 -0.2364 -1.5908
  731SOL    MW4 2698   1.552   2.702   2.071 -0.0526 -0.8001  0.1325
  732SOL     OW 2699   3.888   3.336   3.214  0.0192  0.3355 -0.4569
  732SOL    HW2 2700   3.915   3.407   3.155 -1.2402  0.8325 -0.4626
  732SOL    HW3 2701   3.872   3.379   3.297 -0.4876  0.0116 -0.3852
  732SOL    MW4 2702   3.889   3.351   3.217 -0.3336  0.2677 -0.0536
  733SOL     OW 2703   6.277   3.607   2.660 -0.3022 -0.7805 -0.4610
  733SOL    HW2 2704   6.186   3.635   2.667 -0.0504 -0.0470 -0.0152
  733SOL    HW3 2705   6.326   3.674   2.707  0.3791 -1.6815  0.1491
  733SOL    MW4 2706   6.271   3.619   2.667  0.3559 -0.1227 -0.2544
  734SOL     OW 2707   5.459   1.302   0.980  0.6420  0.0126 -0.2361
  734SOL    HW2 2708   5.469   1.344   0.894 -2.2369  1.8915  0.2124
  734SOL    HW3 2709   5.383   1.245   0.970  1.7555 -1.6621  0.4621
  734SOL    MW4 2710   5.451   1.300   0.967  0.4025 -0.8851 -0.2184
  735SOL     OW 2711   5.959   3.227   1.257  0.1878 -0.1447 -0.0277
  735SOL    HW2 2712   5.864   3.214   1.261  0.1383  0.1101 -0.3741
  735SOL    HW3 2713   5.994   3.169   1.325 -0.0514 -1.8493 -1.3156
  735SOL    MW4 2714   5.951   3.218   1.267  0.1475 -0.1503 -0.2169
  736SOL     OW 2715   3.558   0.198   0.431 -0.2651 -0.3075  0.1124
  736SOL    HW2 2716   3.547   0.233   0.342  0.2489 -1.5906 -0.4888
  736SOL    HW3 2717   3.473   0.212   0.473 -0.0926  1.5945 -0.0832
  736SOL    MW4 2718   3.546   0.205   0.424  0.2172  0.9000  0.3135
  737SOL     OW 2719   3.486   5.778   0.859 -0.2158 -0.6723 -0.4210
  737SOL    HW2 2720   3.465   5.848   0.920 -0.5701 -1.2560  0.1372
  737SOL    HW3 2721   3.427   5.792   0.785  0.1552 -0.0151 -0.6009
  737SOL    MW4 2722   3.475   5.789   0.857  0.6823  0.4568  0.0882
  738SOL     OW 2723   2.071   0.328   5.246  0.0404 -0.0175  0.1114
  738SOL    HW2 2724   2.064   0.236   5.271  1.4039 -0.3109 -0.5329
  738SOL    HW3 2725   2.165   0.344   5.238 -0.1939  1.3626 -0.0498
  738SOL    MW4 2726   2.082   0.318   5.248 -0.2186 -0.5793  0.2110
  739SOL     OW 2727   5.705   2.633   1.846  0.6222 -0.0535 -0.2135
  739SOL    HW2 2728   5.627   2.592   1.883  1.1596  0.1168  1.1400
  739SOL    HW3 2729   5.674   2.718   1.814 -0.1979 -0.8877 -1.7630
  739SOL    MW4 2730   5.691   2.639   1.847 -0.4550  0.2866  0.9443
  740SOL     OW 2731   4.565   0.213   5.033  0.3630  0.1944 -0.1923
  740SOL    HW2 2732   4.480   0.218   4.991  0.5022  0.1814 -0.4782
  740SOL    HW3 2733   4.563   0.130   5.082 -0.7152  1.3558  1.8621
  740SOL    MW4 2734   4.554   0.203   5.034  0.3206 -0.3945 -0.0530
  741SOL     OW 2735   5.383   3.952   1.256 -0.4326  0.4664  0.1638
  741SOL    HW2 2736   5.448   4.002   1.306  0.8394  0.7815 -1.7234
  741SOL    HW3 2737   5.403   3.861   1.276 -0.4610  0.6009  0.8381
  741SOL    MW4 2738   5.394   3.947   1.265  0.3012  0.0604 -0.4620
  742SOL     OW 2739   5.407   2.419   0.309 -0.3675 -0.7232 -0.2524
  742SOL    HW2 2740   5.390   2.390   0.220  0.0509  0.9805 -0.9349
  742SOL    HW3 2741   5.327   2.463   0.336 -0.3678 -0.9212  0.0675
  742SOL    MW4 2742   5.394   2.421   0.301 -0.0501 -0.0702 -0.0304
  743SOL     OW 2743   0.835   0.232   2.382 -0.3923  0.7429  0.0995
  743SOL    HW2 2744   0.855   0.205   2.292  1.2630 -1.9307  1.1224
  743SOL    HW3 2745   0.742   0.254   2.381 -0.8707 -1.0515 -1.9150
  743SOL    MW4 2746   0.825   0.231   2.370  0.8175 -0.0569  0.1348
  744SOL     OW 2747   3.691   3.518   1.739  0.4191  0.2721  0.0080
  744SOL    HW2 2748   3.613   3.570   1.719 -0.3602 -0.8638 -0.0328
  744SOL    HW3 2749   3.658   3.428   1.747  1.6375 -0.1473  0.5796
  744SOL    MW4 2750   3.676   3.513   1.738  0.4735 -0.6089 -0.0528
  745SOL     OW 2751   4.883   0.409   2.329  0.2357  0.3357 -0.5249
  745SOL    HW2 2752   4.824   0.444   2.395  0.2238  0.5754 -0.6581
  745SOL    HW3 2753   4.936   0.344   2.375 -0.4983 -0.2666 -0.5355
  745SOL    MW4 2754   4.882   0.405   2.343 -0.4518  0.2638 -0.7400
  746SOL     OW 2755   4.087   1.493   5.543  0.3017  0.0875  0.2122
  746SOL    HW2 2756   4.078   1.403   5.512 -1.5416  0.3849 -0.2046
  746SOL    HW3 2757   4.115   1.485   5.634  0.1064 -0.9035  0.1911
  746SOL    MW4 2758   4.090   1.480   5.551 -0.5280 -0.4181  0.2086
  747SOL     OW 2759   0.549   5.551   2.821 -0.8397 -0.1969 -0.4792
  747SOL    HW2 2760   0.563   5.627   2.877 -0.5646 -1.2573  0.9605
  747SOL    HW3 2761   0.632   5.503   2.826 -1.0448 -0.6436 -1.2764
  747SOL    MW4 2762   0.562   5.554   2.829  0.5337 -0.5981 -0.2172
  748SOL     OW 2763   2.332   5.713   2.736 -0.6531  0.5266 -0.8642
  748SOL    HW2 2764   2.427   5.698   2.740 -0.5532  1.3607  0.5310
  748SOL    HW3 2765   2.296   5.630   2.706  0.3724 -0.4568  0.5163
  748SOL    MW4 2766   2.340   5.700   2.732 -0.1303  0.7234 -0.3975
  749SOL     OW 2767   0.556   1.339   4.334  0.2604 -0.1823  0.0896
  749SOL    HW2 2768   0.471   1.340   4.378 -0.2230 -1.1244 -0.7861
  749SOL    HW3 2769   0.535   1.340   4.240  1.2704  2.3239 -0.1911
  749SOL    MW4 2770   0.542   1.339   4.327 -0.3756  0.2567  0.4902
  750SOL     OW 2771   4.647   1.476   3.930  0.4061  0.0117  0.5949
  750SOL    HW2 2772   4.600   1.458   3.849  2.5733 -0.1561 -0.7105
  750SOL    HW3 2773   4.621   1.565   3.954 -0.3116  0.0425 -0.2502
  750SOL    MW4 2774   4.637   1.485   3.922  0.0133 -0.7881  0.3675
  751SOL     OW 2775   5.724   4.647   6.209 -0.5683  0.5354 -0.1118
  751SOL    HW2 2776   5.663   4.721   6.204 -1.9497 -0.6520 -1.6383
  751SOL    HW3 2777   5.739   4.635   6.303 -0.1467  2.8418  0.1901
  751SOL    MW4 2778   5.718   4.655   6.221 -0.1452 -0.4702  0.0678
  752SOL     OW 2779   4.252   0.744   2.480 -0.4072  0.0911 -0.1613
  752SOL    HW2 2780   4.283   0.664   2.438  0.8330  0.7837 -0.6317
  752SOL    HW3 2781   4.172   0.718   2.526 -1.3711 -0.9129 -2.2378
  752SOL    MW4 2782   4.245   0.730   2.480  0.1676  0.3669  0.0076
  753SOL     OW 2783   6.011   4.953   0.104  0.2340 -0.3296 -0.3492
  753SOL    HW2 2784   5.946   4.886   0.081  0.5251 -0.6866 -0.1357
  753SOL    HW3 2785   6.032   4.995   0.020 -0.3775 -0.1108 -0.3995
  753SOL    MW4 2786   6.005   4.950   0.090 -0.5296  0.2275 -0.2507
  754SOL     OW 2787   2.224   4.106   3.502  0.2665  0.2183  0.1800
  754SOL    HW2 2788   2.207   4.018   3.469  1.0112  0.2595 -0.3399
  754SOL    HW3 2789   2.162   4.117   3.574 -1.5003  0.2014 -1.2927
  754SOL    MW4 2790   2.214   4.096   3.507  0.1630  0.1563  0.0574
  755SOL     OW 2791   0.661   4.427   4.354  0.7354  0.3449 -0.2521
  755SOL    HW2 2792   0.752   4.411   4.378  1.0788 -0.6349 -2.0083
  755SOL    HW3 2793   0.661   4.515   4.315  0.7066  0.7897  0.7407
  755SOL    MW4 2794   0.673   4.436   4.352  0.4777 -0.2630 -0.7584
  756SOL     OW 2795   3.984   5.729   3.560 -0.0070  0.5804 -0.2057
  756SOL    HW2 2796   4.030   5.708   3.641 -0.1822 -3.3543 -0.9603
  756SOL    HW3 2797   4.051   5.765   3.502  0.8309  0.2609  0.5564
  756SOL    MW4 2798   3.999   5.731   3.563 -0.3193  0.3153  0.1268
  757SOL     OW 2799   4.477   2.122   6.276 -0.0888  0.2124  0.3287
  757SOL    HW2 2800   4.531   2.141   6.352  2.4638 -0.1414 -1.2697
  757SOL    HW3 2801   4.538   2.120   6.203 -1.9451 -2.4427 -1.3266
  757SOL    MW4 2802   4.492   2.124   6.276  0.3744 -0.1804  0.4613
  758SOL     OW 2803   4.326   3.409   2.154 -0.5049 -0.0258  0.0705
  758SOL    HW2 2804   4.295   3.389   2.242 -0.4239 -0.3232  0.0335
  758SOL    HW3 2805   4.352   3.501   2.157 -2.0649  0.4545 -0.0771
  758SOL    MW4 2806   4.325   3.418   2.166  0.5014 -0.5002 -0.5865
  759SOL     OW 2807   4.960   4.479   3.920 -0.3387 -0.2838 -0.0328
  759SOL    HW2 2808   4.985   4.569   3.939 -0.3974 -0.7225  2.4942
  759SOL    HW3 2809   4.872   4.487   3.881  0.0030  0.7665 -0.6378
  759SOL    MW4 2810   4.951   4.492   3.918  0.2752  0.0686 -0.4166
  760SOL     OW 2811   6.216   1.124   2.814  0.5592  0.0627  0.0170
  760SOL    HW2 2812   6.127   1.129   2.847  0.0538 -0.1806 -1.2517
  760SOL    HW3 2813   6.271   1.132   2.892 -0.5698 -0.7330  0.9306
  760SOL    MW4 2814   6.212   1.126   2.829 -0.0622  0.3605  0.0437
  761SOL     OW 2815   4.559   4.970   2.408  0.1107  0.1907  0.0417
  761SOL    HW2 2816   4.636   5.001   2.455 -0.5020 -0.3706  1.4637
  761SOL    HW3 2817   4.511   5.050   2.385  0.8293  0.5105 -0.3592
  761SOL    MW4 2818   4.563   4.985   2.411 -0.4640 -0.1050 -0.7676
  762SOL     OW 2819   5.616   2.146   2.213 -0.3907 -0.3226  0.1931
  762SOL    HW2 2820   5.552   2.080   2.240  1.0843 -1.6629  0.5012
  762SOL    HW3 2821   5.642   2.189   2.295  0.5917 -1.1810  0.3511
  762SOL    MW4 2822   5.611   2.143   2.227 -0.0892  0.0783  0.3028
  763SOL     OW 2823   1.288   2.051   2.605 -0.7266 -0.3694 -0.1760
  763SOL    HW2 2824   1.262   1.966   2.642  1.2956 -0.1719  1.9447
  763SOL    HW3 2825   1.211   2.106   2.615 -1.4195 -1.4029  0.3483
  763SOL    MW4 2826   1.274   2.047   2.611  0.2710  0.0024 -0.2885
  764SOL     OW 2827   4.507   4.705   4.647 -0.1645  0.4668 -0.1224
  764SOL    HW2 2828   4.457   4.714   4.566  0.1437  1.3107 -0.2297
  764SOL    HW3 2829   4.480   4.779   4.701  0.3246  0.4434  0.1654
  764SOL    MW4 2830   4.497   4.716   4.644 -1.2613  0.4883 -0.6420
  765SOL     OW 2831   4.676   5.678   1.493 -0.0229 -0.5690  0.7251
  765SOL    HW2 2832   4.736   5.639   1.430 -0.3996 -2.3173  1.4001
  765SOL    HW3 2833   4.719   5.759   1.520  1.5322 -1.2602  0.4274
  765SOL    MW4 2834   4.689   5.683   1.488 -0.0638  0.2699 -0.1403
  766SOL     OW 2835   2.699   3.986   3.866 -0.3179  0.6251  0.2254
  766SOL    HW2 2836   2.690   3.920   3.935 -0.1500  2.5914  2.2332
  766SOL    HW3 2837   2.609   4.011   3.844 -0.4060 -0.5741 -0.9332
  766SOL    MW4 2838   2.686   3.980   3.872  0.4767  0.6120  0.0481
  767SOL     OW 2839   2.624   0.347   2.419  0.3852  0.1413 -0.0790
  767SOL    HW2 2840   2.606   0.262   2.459  0.6215  0.3392  0.4558
  767SOL    HW3 2841   2.541   0.373   2.380  1.3085 -2.5237 -4.5684
  767SOL    MW4 2842   2.611   0.339   2.419  0.3271  0.4238  0.1672
  768SOL     OW 2843   0.994   0.956   4.702  0.0665  0.0903  0.4710
  768SOL    HW2 2844   0.937   0.963   4.778  1.4290  0.4536  1.4871
  768SOL    HW3 2845   0.935   0.932   4.630 -1.1463 -0.9673  1.7662
  768SOL    MW4 2846   0.979   0.954   4.703 -0.1171 -0.3947  0.0143
  769SOL     OW 2847   2.455   2.842   2.142 -0.3519 -0.3438 -1.0089
  769SOL    HW2 2848   2.549   2.846   2.162 -0.3528  1.3767 -1.1852
  769SOL    HW3 2849   2.422   2.770   2.195  1.0689 -0.9688 -0.9346
  769SOL    MW4 2850   2.463   2.833   2.152 -0.0040  0.0928  0.0353
  770SOL     OW 2851   1.827   1.067   6.174 -0.5648  0.2221 -0.1825
  770SOL    HW2 2852   1.743   1.080   6.129 -1.5819 -2.9920  0.5578
  770SOL    HW3 2853   1.883   1.026   6.108 -0.4813 -0.1214  0.1014
  770SOL    MW4 2854   1.823   1.063   6.159 -0.2537 -0.2331 -0.4422
  771SOL     OW 2855   0.559   2.941   0.108  0.6041 -0.1542 -0.1258
  771SOL    HW2 2856   0.634   2.995   0.133  1.0520 -1.7223  2.2518
  771SOL    HW3 2857   0.594   2.852   0.106 -1.0257 -0.8254  0.2811
  771SOL    MW4 2858   0.574   2.936   0.111 -0.0429  0.4216 -0.2247
  772SOL     OW 2859   1.812   1.725   2.996  0.5686  0.4881  0.3647
  772SOL    HW2 2860   1.836   1.816   2.981  0.5856  0.6364  1.2450
  772SOL    HW3 2861   1.801   1.718   3.091  1.8689 -0.7383  0.4599
  772SOL    MW4 2862   1.814   1.736   3.007 -0.5994 -0.0702  0.0641
  773SOL     OW 2863   1.490   4.870   0.585 -0.1441 -0.1599 -0.2877
  773SOL    HW2 2864   1.473   4.906   0.671  2.2788  0.7151 -0.1198
  773SOL    HW3 2865   1.462   4.778   0.592  0.0981 -0.1338  1.4571
  773SOL    MW4 2866   1.484   4.862   0.597  0.6574  0.3786 -0.3302
  774SOL     OW 2867   2.800   5.111   1.944 -0.2866 -0.0936  0.0477
  774SOL    HW2 2868   2.756   5.040   1.896 -1.4509  1.3488 -1.1123
  774SOL    HW3 2869   2.876   5.132   1.890  0.0523 -0.4436  0.3862
  774SOL    MW4 2870   2.804   5.104   1.930 -0.0119  0.0067  0.4173
  775SOL     OW 2871   5.435   2.407   4.238  0.2313 -0.0976 -0.0850
  775SOL    HW2 2872   5.386   2.479   4.278  0.5717  0.0025  0.1505
  775SOL    HW3 2873   5.376   2.373   4.170  0.3300  0.8425 -0.6639
  775SOL    MW4 2874   5.421   2.412   4.234 -0.2398 -0.0922  0.6680
  776SOL     OW 2875   4.210   3.398   3.332 -0.0634  0.5361  0.3195
  776SOL    HW2 2876   4.241   3.408   3.421 -1.1349  0.9572  0.6626
  776SOL    HW3 2877   4.125   3.355   3.341  0.6241 -1.1305 -0.6158
  776SOL    MW4 2878   4.203   3.393   3.345 -0.2339 -0.0178  0.3995
  777SOL     OW 2879   1.890   3.266   5.346  0.6234 -0.0322  0.2372
  777SOL    HW2 2880   1.853   3.293   5.261 -0.3022 -0.5779  0.4522
  777SOL    HW3 2881   1.977   3.305   5.347  1.0944 -0.9211 -1.4532
  777SOL    MW4 2882   1.896   3.275   5.335  0.7998  0.0656  0.2916
  778SOL     OW 2883   4.930   5.978   3.041 -0.2934  0.3278  0.9234
  778SOL    HW2 2884   4.916   5.981   2.946  2.0813 -0.6657  0.4623
  778SOL    HW3 2885   4.928   6.069   3.069  0.9035  0.8035 -0.4362
  778SOL    MW4 2886   4.928   5.990   3.032 -0.5197 -0.2014  0.3575
  779SOL     OW 2887   4.149   4.774   3.592 -0.5509  0.0125  0.0543
  779SOL    HW2 2888   4.078   4.769   3.655  0.2340 -1.0835  0.8910
  779SOL    HW3 2889   4.108   4.758   3.508 -1.3566 -0.1659  0.4700
  779SOL    MW4 2890   4.135   4.771   3.590  0.3795 -0.4123 -0.3278
  780SOL     OW 2891   6.015   3.116   5.273 -0.4350 -0.2622 -0.1121
  780SOL    HW2 2892   6.017   3.205   5.307 -2.6823 -0.3412  0.3808
  780SOL    HW3 2893   6.090   3.073   5.314 -0.0633  1.0597  0.6575
  780SOL    MW4 2894   6.025   3.122   5.283  0.6725  0.2039  0.9851
  781SOL     OW 2895   1.486   5.776   1.035  0.5296 -0.3361 -0.6741
  781SOL    HW2 2896   1.551   5.809   1.098  1.0593 -0.9668 -0.8842
  781SOL    HW3 2897   1.406   5.765   1.087  0.9218 -0.7040 -0.1436
  781SOL    MW4 2898   1.484   5.779   1.051 -0.3984  0.2299 -0.1483
  782SOL     OW 2899   3.403   5.411   6.390 -0.1127 -0.6747  0.9157
  782SOL    HW2 2900   3.428   5.326   6.426  2.0416 -0.6843 -0.4504
  782SOL    HW3 2901   3.486   5.455   6.373 -1.1473  0.8971 -0.2817
  782SOL    MW4 2902   3.417   5.405   6.393 -0.1632  0.5117  0.7653
  783SOL     OW 2903   4.921   1.841   5.929  0.1745 -0.1492 -0.1354
  783SOL    HW2 2904   5.004   1.834   5.977 -0.4264  0.3926  1.0252
  783SOL    HW3 2905   4.922   1.768   5.868  0.4787 -1.5673  1.4965
  783SOL    MW4 2906   4.932   1.831   5.927 -0.0408  0.2356  0.5964
  784SOL     OW 2907   4.736   2.983   2.760  0.1342  0.1580  0.1179
  784SOL    HW2 2908   4.791   2.920   2.807 -0.0261 -0.9630 -1.1097
  784SOL    HW3 2909   4.791   3.060   2.750  0.7496 -0.1948  0.7059
  784SOL    MW4 2910   4.751   2.985   2.765  0.6054  0.1885  0.1037
  785SOL     OW 2911   5.582   0.342   4.530 -0.1308  0.0201 -0.4988
  785SOL    HW2 2912   5.507   0.314   4.583  0.8028 -2.6537 -0.4245
  785SOL    HW3 2913   5.647   0.371   4.595  0.1729 -1.0946 -0.2719
  785SOL    MW4 2914   5.581   0.342   4.546 -0.2479  0.5712  0.1511
  786SOL     OW 2915   2.538   5.177   0.661 -0.3735  0.0190  0.4953
  786SOL    HW2 2916   2.573   5.264   0.679 -0.7511  0.6083 -1.3495
  786SOL    HW3 2917   2.616   5.121   0.660  0.3639  0.9524 -1.5006
  786SOL    MW4 2918   2.553   5.181   0.663  0.2763 -0.7751 -0.0300
  787SOL     OW 2919   5.947   3.153   0.649  0.4082  0.2536  0.3979
  787SOL    HW2 2920   5.970   3.163   0.742  1.7146 -1.7615  0.3494
  787SOL    HW3 2921   6.020   3.194   0.602  1.2735 -1.3546  0.2786
  787SOL    MW4 2922   5.960   3.160   0.655 -0.2384  0.2185 -0.1640
  788SOL     OW 2923   3.652   4.094   3.001  0.3187 -0.5534 -0.5884
  788SOL    HW2 2924   3.572   4.057   3.038  1.1533 -0.1066  1.8602
  788SOL    HW3 2925   3.660   4.053   2.915 -2.2687 -0.9425 -0.7198
  788SOL    MW4 2926   3.643   4.084   2.994 -0.2194  0.3487 -0.3228
  789SOL     OW 2927   6.386   3.647   0.089  0.0820 -0.2104  0.7295
  789SOL    HW2 2928   6.379   3.664   0.183 -1.1522 -0.8000  0.7614
  789SOL    HW3 2929   6.384   3.552   0.081  3.0241 -0.3183  0.2786
  789SOL    MW4 2930   6.385   3.637   0.100  1.0334 -0.0792 -0.1207
  790SOL     OW 2931   3.412   1.609   4.610 -0.0809  0.3413 -0.1746
  790SOL    HW2 2932   3.381   1.698   4.598  0.0761  0.7841  2.1766
  790SOL    HW3 2933   3.406   1.594   4.704  1.8702 -1.3922 -0.2399
  790SOL    MW4 2934   3.407   1.618   4.621  0.4381 -0.0220 -0.2154
  791SOL     OW 2935   1.545   2.180   4.752 -0.0460 -0.5456  0.6976
  791SOL    HW2 2936   1.503   2.098   4.725 -0.8394 -0.7301  2.3396
  791SOL    HW3 2937   1.475   2.245   4.748 -0.0716 -0.4814  1.7376
  791SOL    MW4 2938   1.530   2.177   4.748  0.0600  0.3980 -0.1270
  792SOL     OW 2939   3.586   6.039   2.114 -0.2815  0.6889  0.2658
  792SOL    HW2 2940   3.557   5.978   2.047 -1.7475  2.9804 -1.3219
  792SOL    HW3 2941   3.556   6.000   2.196 -0.3617 -1.1132 -0.5664
  792SOL    MW4 2942   3.579   6.026   2.116 -0.8430  0.0305  0.0298
  793SOL     OW 2943   4.398   5.644   5.013  0.7126 -0.3990 -0.5194
  793SOL    HW2 2944   4.481   5.646   5.061 -0.5321  1.0786  1.7526
  793SOL    HW3 2945   4.406   5.716   4.950  0.5918  0.8364  0.8202
  793SOL    MW4 2946   4.410   5.654   5.011 -0.2402  0.3821 -0.0374
  794SOL     OW 2947   3.526   5.516   4.397  0.6657 -0.1924  0.2371
  794SOL    HW2 2948   3.556   5.601   4.430  1.4734 -1.4754  3.0707
  794SOL    HW3 2949   3.576   5.452   4.447 -0.4658 -2.3921 -1.2870
  794SOL    MW4 2950   3.537   5.519   4.408 -0.0115 -0.3621 -0.4446
  795SOL     OW 2951   3.533   5.388   3.619 -0.0395 -0.1070  0.0712
  795SOL    HW2 2952   3.510   5.322   3.554 -1.3855  1.2085 -0.8457
  795SOL    HW3 2953   3.627   5.401   3.609  0.1044 -1.2957 -0.2691
  795SOL    MW4 2954   3.542   5.381   3.609  0.3278  0.7785  0.7181
  796SOL     OW 2955   2.126   0.916   0.480  0.2445 -0.3209 -0.0865
  796SOL    HW2 2956   2.102   0.930   0.572  0.4840  0.8641 -0.1852
  796SOL    HW3 2957   2.179   0.992   0.458  0.5155 -0.7942 -1.1013
  796SOL    MW4 2958   2.130   0.928   0.490  0.1292 -0.2649 -0.2242
  797SOL     OW 2959   1.103   4.222   3.282  0.0378 -0.3864  0.1357
  797SOL    HW2 2960   1.185   4.244   3.237 -0.4716  2.4694  0.4417
  797SOL    HW3 2961   1.131   4.177   3.362  1.4649  1.6996  0.8867
  797SOL    MW4 2962   1.118   4.219   3.286  0.9389 -0.0416  0.5339
  798SOL     OW 2963   2.795   5.975   1.979  0.0156  0.2286  0.3017
  798SOL    HW2 2964   2.782   5.962   2.073  0.8184 -0.0349  0.3815
  798SOL    HW3 2965   2.873   6.030   1.972  0.9035 -1.0515 -0.2389
  798SOL    MW4 2966   2.804   5.981   1.990 -0.3188  0.2081 -0.0983
  799SOL     OW 2967   1.287   2.247   1.591  0.2129 -0.3988 -0.2455
  799SOL    HW2 2968   1.259   2.240   1.683  0.8921  1.0453  0.1100
  799SOL    HW3 2969   1.340   2.327   1.589  1.2461 -1.0802 -1.6499
  799SOL    MW4 2970   1.290   2.257   1.603 -0.7872 -0.2835  0.0613
  800SOL     OW 2971   2.500   6.150   4.025 -0.2385  0.1515  0.3485
  800SOL    HW2 2972   2.458   6.127   3.943  0.0610  1.0884 -0.0767
  800SOL    HW3 2973   2.431   6.189   4.078 -0.0480  1.1611 -0.1314
  800SOL    MW4 2974   2.486   6.152   4.021 -0.2920  0.1649  0.1671
  801SOL     OW 2975   3.805   0.759   2.203 -0.2935  0.3082 -0.1120
  801SOL    HW2 2976   3.845   0.787   2.285  0.6758 -1.1542 -0.0321
  801SOL    HW3 2977   3.855   0.680   2.178 -0.8710  0.4424 -1.8488
  801SOL    MW4 2978   3.817   0.752   2.210  0.0509 -0.0477  0.2509
  802SOL     OW 2979   3.906   1.074   3.001  0.4835 -0.3483 -0.4361
  802SOL    HW2 2980   3.858   1.073   3.083  0.8268  1.9656 -0.1219
  802SOL    HW3 2981   3.855   1.132   2.944 -0.0140 -2.2977 -2.0829
  802SOL    MW4 2982   3.893   1.082   3.004 -0.6259  0.0590 -0.2117
  803SOL     OW 2983   1.132   5.956   0.617 -0.3027  1.0184  0.2762
  803SOL    HW2 2984   1.210   5.970   0.669  0.2312 -1.4704  0.2754
  803SOL    HW3 2985   1.131   6.029   0.554  1.4388  1.6312  0.9181
  803SOL    MW4 2986   1.142   5.968   0.615 -0.4960 -0.9248 -0.1498
  804SOL     OW 2987   3.195   4.359   4.213 -0.1817  0.4078  0.7923
  804SOL    HW2 2988   3.261   4.396   4.154 -0.4535 -0.2070  0.0738
  804SOL    HW3 2989   3.176   4.428   4.276  0.2782  1.0045  0.2806
  804SOL    MW4 2990   3.201   4.373   4.213 -0.1909 -0.4997  0.0744
  805SOL     OW 2991   2.694   0.022   5.485  0.0809  0.7416 -0.0847
  805SOL    HW2 2992   2.781   0.020   5.525  0.9928  2.3503 -1.8242
  805SOL    HW3 2993   2.684   0.112   5.453 -2.3906  0.7096  0.3670
  805SOL    MW4 2994   2.704   0.033   5.486 -0.6706  0.0726  0.3877
  806SOL     OW 2995   1.028   0.683   5.592 -0.6481  0.4987 -0.2932
  806SOL    HW2 2996   1.002   0.633   5.515 -2.0479  0.6855  0.0261
  806SOL    HW3 2997   0.945   0.707   5.634  0.0573  1.2800  0.7055
  806SOL    MW4 2998   1.014   0.680   5.587 -0.0532  0.4976  0.4156
  807SOL     OW 2999   1.258   2.107   5.011  0.1498 -0.5408  0.3419
  807SOL    HW2 3000   1.244   2.202   5.005 -3.3576 -1.0022 -1.3388
  807SOL    HW3 3001   1.241   2.086   5.103  1.2403  0.4341  0.7939
  807SOL    MW4 3002   1.254   2.117   5.022 -0.5740  0.3000  0.0347
  808SOL     OW 3003   0.970   2.166   2.371  0.8698  1.0053  0.2653
  808SOL    HW2 3004   0.934   2.247   2.336  1.1175  0.6639 -0.7988
  808SOL    HW3 3005   0.893   2.114   2.395  0.6791  0.9762 -0.3925
  808SOL    MW4 3006   0.955   2.170   2.370 -0.2301 -0.0596 -0.1169
  809SOL     OW 3007   6.114   6.337   3.206 -0.2934 -0.2782 -0.0412
  809SOL    HW2 3008   6.193   6.390   3.195  0.1678 -0.9264  0.1417
  809SOL    HW3 3009   6.043   6.394   3.176  0.5361 -0.8346 -3.3751
  809SOL    MW4 3010   6.115   6.352   3.201 -0.1188  0.3395 -0.1633
  810SOL     OW 3011   1.639   4.384   5.887 -0.2340  0.5869  0.8082
  810SOL    HW2 3012   1.667   4.346   5.804 -1.3323  2.1138 -0.3020
  810SOL    HW3 3013   1.686   4.333   5.953 -0.9323 -2.0911 -0.6142
  810SOL    MW4 3014   1.649   4.372   5.885  0.0562 -0.0491  0.4976
  811SOL     OW 3015   4.284   5.476   5.547 -0.0302  0.4990 -0.0706
  811SOL    HW2 3016   4.315   5.450   5.460  1.8825  1.0012  0.3993
  811SOL    HW3 3017   4.302   5.399   5.602 -0.7495  0.3708 -0.0103
  811SOL    MW4 3018   4.291   5.462   5.542 -0.1866  0.1092  0.0693
  812SOL     OW 3019   2.626   3.553   0.560  0.4365 -0.0125  0.0043
  812SOL    HW2 3020   2.613   3.462   0.587 -1.7360  0.1996 -0.1352
  812SOL    HW3 3021   2.624   3.550   0.464  0.2087  0.2004  0.0020
  812SOL    MW4 3022   2.624   3.540   0.551 -0.1175 -0.0219 -0.1859
  813SOL     OW 3023   5.741   6.329   2.724 -0.2055 -0.3980  0.1137
  813SOL    HW2 3024   5.749   6.317   2.629 -0.0898 -1.8995  0.2967
  813SOL    HW3 3025   5.725   6.241   2.758  0.8936 -0.0613  1.5994
  813SOL    MW4 3026   5.740   6.316   2.716  0.0336  0.0773 -0.5780
  814SOL     OW 3027   0.028   1.300   2.090 -0.3623  0.3549 -0.5321
  814SOL    HW2 3028   0.041   1.349   2.008 -0.7035  1.5146  0.0784
  814SOL    HW3 3029  -0.009   1.365   2.151 -0.5581 -0.6042  0.4029
  814SOL    MW4 3030   0.025   1.315   2.087 -0.5392  0.4535 -0.5535
  815SOL     OW 3031   5.538   0.924   5.763 -0.1146 -0.4233  0.2480
  815SOL    HW2 3032   5.583   1.007   5.750  0.2334 -0.7382 -0.6826
  815SOL    HW3 3033   5.533   0.913   5.858  0.3774  0.3647  0.3681
  815SOL    MW4 3034   5.543   0.933   5.774  0.1689  0.3111  0.2850
  816SOL     OW 3035   1.671   4.400   0.811  0.1218 -0.0361 -0.7868
  816SOL    HW2 3036   1.641   4.490   0.806 -1.7154 -0.5421 -0.0181
  816SOL    HW3 3037   1.747   4.403   0.869 -0.0436  0.9917 -0.6038
  816SOL    MW4 3038   1.677   4.412   0.818 -0.2718 -0.2098  0.4431
  817SOL     OW 3039   1.185   2.484   6.254 -0.4237  0.2784 -0.2163
  817SOL    HW2 3040   1.194   2.578   6.271 -1.5219  0.4411 -0.4766
  817SOL    HW3 3041   1.118   2.455   6.316  1.9233 -0.9586  1.9243
  817SOL    MW4 3042   1.177   2.493   6.265  0.3946  0.6229  0.1373
  818SOL     OW 3043   4.261   0.705   4.470 -0.3246 -0.5765  0.2503
  818SOL    HW2 3044   4.317   0.698   4.548 -0.7173  1.7065  0.8200
  818SOL    HW3 3045   4.172   0.693   4.503 -0.4025 -0.8702 -0.0658
  818SOL    MW4 3046   4.257   0.703   4.485 -0.1129  0.8703 -0.3005
  819SOL     OW 3047   3.658   2.937   1.351  0.0597 -0.4503  0.0461
  819SOL    HW2 3048   3.640   3.029   1.334 -0.7636 -0.9089 -1.9587
  819SOL    HW3 3049   3.746   2.922   1.316  0.3524 -0.3573  0.7277
  819SOL    MW4 3050   3.667   2.947   1.344 -0.6690  0.3814  0.3601
  820SOL     OW 3051   0.271   1.731   4.523  0.6464 -0.0305  0.5529
  820SOL    HW2 3052   0.190   1.680   4.521 -0.4976  1.6882  0.9067
  820SOL    HW3 3053   0.310   1.717   4.437 -1.3323  1.0635 -0.6065
  820SOL    MW4 3054   0.265   1.723   4.511  0.1497 -0.1958 -0.1078
  821SOL     OW 3055   3.934   4.915   6.187 -0.4337  0.3039  0.6223
  821SOL    HW2 3056   3.893   4.978   6.128 -0.2117  0.6219  0.8053
  821SOL    HW3 3057   3.891   4.930   6.271  1.0657  1.6777  1.2052
  821SOL    MW4 3058   3.923   4.925   6.191 -0.4306 -0.4386  0.1365
  822SOL     OW 3059   3.078   2.677   1.624  0.3638 -0.3415 -0.2807
  822SOL    HW2 3060   3.041   2.675   1.536 -1.0309 -0.6008  0.2932
  822SOL    HW3 3061   3.103   2.586   1.642 -2.8597 -1.1447  0.9667
  822SOL    MW4 3062   3.076   2.665   1.615 -0.1083 -0.1026  0.1460
  823SOL     OW 3063   2.439   3.978   1.043 -0.2051  0.3658  0.0529
  823SOL    HW2 3064   2.508   3.989   1.109  1.1786  0.6942 -1.3865
  823SOL    HW3 3065   2.483   3.993   0.960 -1.6539 -1.0957 -1.0386
  823SOL    MW4 3066   2.454   3.981   1.041  0.4862  0.7360 -0.2054
  824SOL     OW 3067   1.323   0.851   3.127 -0.3197 -0.3042 -0.3552
  824SOL    HW2 3068   1.314   0.762   3.094 -0.7789  0.3732 -2.1332
  824SOL    HW3 3069   1.394   0.845   3.192  0.5644 -1.7120 -1.4001
  824SOL    MW4 3070   1.331   0.838   3.131  0.1134  0.0685 -0.1004
  825SOL     OW 3071   4.815   5.502   1.339  0.1130  0.6241 -0.4774
  825SOL    HW2 3072   4.910   5.514   1.335  0.0148  1.3747 -0.6818
  825SOL    HW3 3073   4.804   5.415   1.377  0.8956 -0.0424 -1.6944
  825SOL    MW4 3074   4.826   5.492   1.343  0.2198 -0.4418 -0.1677
  826SOL     OW 3075   0.366   2.359   0.776 -0.5121 -0.2767 -0.1270
  826SOL    HW2 3076   0.368   2.265   0.793  2.0553  0.2837  3.9270
  826SOL    HW3 3077   0.334   2.398   0.857 -2.5212  2.4648 -2.0063
  826SOL    MW4 3078   0.362   2.352   0.789  0.2249 -0.0193 -0.1184
  827SOL     OW 3079   3.390   0.155   3.318  0.2602  0.4481  0.4007
  827SOL    HW2 3080   3.332   0.143   3.393 -0.0638 -1.2350 -0.0590
  827SOL    HW3 3081   3.382   0.247   3.296 -0.4293  0.7525  1.8011
  827SOL    MW4 3082   3.381   0.165   3.325  0.0826 -0.4669 -0.1275
  828SOL     OW 3083   0.211   3.414   2.641 -0.5309 -0.1653  0.1317
  828SOL    HW2 3084   0.148   3.386   2.707 -1.2108 -0.7226 -0.7354
  828SOL    HW3 3085   0.271   3.471   2.689 -0.3435 -1.4184  1.4929
  828SOL    MW4 3086   0.211   3.418   2.656 -0.1740 -0.2069  0.9018
  829SOL     OW 3087   6.333   0.319   6.392  0.3391 -0.6892 -0.2157
  829SOL    HW2 3088   6.342   0.327   6.487  1.0215 -0.5735 -0.2800
  829SOL    HW3 3089   6.395   0.383   6.357  0.1014 -0.7424 -0.7381
  829SOL    MW4 3090   6.343   0.329   6.400 -0.3061  0.9084  0.2028
  830SOL     OW 3091   3.458   1.193   4.564  0.2097 -0.1457  0.3970
  830SOL    HW2 3092   3.554   1.199   4.562  0.1752  0.8520  1.1255
  830SOL    HW3 3093   3.430   1.238   4.484  0.3149  0.7711  0.8624
  830SOL    MW4 3094   3.467   1.200   4.553 -0.1422  0.9926 -0.0607
  831SOL     OW 3095   1.909   4.904   5.480 -0.3551 -0.6338 -0.2130
  831SOL    HW2 3096   1.893   4.847   5.556  2.3805  0.6543  1.4859
  831SOL    HW3 3097   1.909   4.993   5.517  2.3363 -0.0458 -1.4171
  831SOL    MW4 3098   1.907   4.909   5.495 -0.4493  0.1582  0.1631
  832SOL     OW 3099   4.139   3.991   2.712 -0.1681  0.4105  0.5088
  832SOL    HW2 3100   4.055   4.031   2.693 -1.7674 -3.2046 -0.9195
  832SOL    HW3 3101   4.188   3.996   2.630 -0.3611 -0.4308  0.3323
  832SOL    MW4 3102   4.135   3.997   2.699  0.9540 -0.1913  0.2819
  833SOL     OW 3103   1.707   3.778   6.176  0.1103 -0.5969  0.3598
  833SOL    HW2 3104   1.681   3.847   6.237  1.3174  0.3475 -0.1579
  833SOL    HW3 3105   1.772   3.727   6.223  0.7366 -0.1181  0.0287
  833SOL    MW4 3106   1.712   3.780   6.190 -0.3230 -0.0716  0.2544
  834SOL     OW 3107   5.672   2.331   3.069  0.1966  0.4892 -0.1899
  834SOL    HW2 3108   5.589   2.378   3.065  0.2085  0.3957 -1.9015
  834SOL    HW3 3109   5.653   2.244   3.036  0.5032 -0.3024  1.5820
  834SOL    MW4 3110   5.659   2.326   3.064  0.2951 -0.4356 -0.2528
  835SOL     OW 3111   0.910   0.120   3.335  0.3495 -0.0028  0.3266
  835SOL    HW2 3112   0.972   0.107   3.263 -0.4691  1.4207 -0.6906
  835SOL    HW3 3113   0.824   0.118   3.292 -0.1138  1.7533  1.1191
  835SOL    MW4 3114   0.907   0.118   3.320 -0.0070  0.1460  0.3791
  836SOL     OW 3115   6.181   1.865   3.225 -0.1193 -0.6276  0.3438
  836SOL    HW2 3116   6.214   1.784   3.186  1.9721 -0.0095  0.7027
  836SOL    HW3 3117   6.106   1.890   3.171 -0.6164 -2.6241  0.0536
  836SOL    MW4 3118   6.175   1.858   3.213  0.0020  0.3851 -0.1300
  837SOL     OW 3119   2.293   3.579   1.480  0.0841 -0.3021 -0.2476
  837SOL    HW2 3120   2.293   3.509   1.414  1.6682  0.4237 -1.0762
  837SOL    HW3 3121   2.296   3.532   1.564  0.8421 -1.2425 -0.7725
  837SOL    MW4 3122   2.293   3.563   1.483  0.3707  0.1879  0.5961
  838SOL     OW 3123   0.547   1.593   4.067 -0.1967 -0.5929  0.2115
  838SOL    HW2 3124   0.517   1.528   4.004 -0.8845  0.5161 -0.6463
  838SOL    HW3 3125   0.573   1.668   4.014 -0.4910  0.2518  1.2272
  838SOL    MW4 3126   0.546   1.595   4.052  0.1077 -0.4855 -0.0704
  839SOL     OW 3127   3.746   5.989   4.483  0.0539  0.0105  0.0738
  839SOL    HW2 3128   3.837   5.967   4.461 -0.8145 -1.8614 -2.1066
  839SOL    HW3 3129   3.724   6.060   4.423 -0.2835 -0.4097 -0.3070
  839SOL    MW4 3130   3.755   5.996   4.472 -0.7598  0.6853 -0.4076
  840SOL     OW 3131   4.173   6.235   5.320  0.1932 -0.0392 -0.4031
  840SOL    HW2 3132   4.207   6.319   5.290 -1.0415  1.1445  1.3722
  840SOL    HW3 3133   4.110   6.257   5.388 -1.2275 -2.3384 -0.8666
  840SOL    MW4 3134   4.169   6.249   5.325  0.0738  0.0246  0.1625
  841SOL     OW 3135   5.111   1.301   4.919 -0.5030  0.1484  0.0854
  841SOL    HW2 3136   5.068   1.215   4.921  0.6011 -0.4252  0.0366
  841SOL    HW3 3137   5.091   1.339   5.005  0.1965 -0.7870  0.6885
  841SOL    MW4 3138   5.103   1.294   4.931 -0.2153  0.3045  0.2693
  842SOL     OW 3139   1.882   3.618   2.225  0.0869  0.4867 -0.1592
  842SOL    HW2 3140   1.912   3.558   2.157  0.9910  0.3157  0.3725
  842SOL    HW3 3141   1.942   3.692   2.220  1.4484 -0.3822  1.6948
  842SOL    MW4 3142   1.894   3.620   2.216  0.7023 -0.3043 -0.4039
  843SOL     OW 3143   5.499   1.757   5.437  0.3123 -0.1316 -0.4358
  843SOL    HW2 3144   5.537   1.824   5.379  0.3005 -0.6821 -1.0890
  843SOL    HW3 3145   5.558   1.682   5.428 -0.0600 -0.4490 -0.2403
  843SOL    MW4 3146   5.512   1.756   5.428  0.4133  0.2251 -0.2749
  844SOL     OW 3147   4.463   4.674   2.082  0.2324 -0.0639 -0.1679
  844SOL    HW2 3148   4.474   4.586   2.119 -0.2586  0.0352  0.2237
  844SOL    HW3 3149   4.413   4.721   2.149  0.7480  0.5997 -0.2448
  844SOL    MW4 3150   4.458   4.669   2.096 -0.2899 -0.1818 -0.1737
  845SOL     OW 3151   1.009   1.833   3.143 -0.5593 -0.3227  0.0793
  845SOL    HW2 3152   1.091   1.813   3.098 -0.0889  1.9412 -0.2200
  845SOL    HW3 3153   0.999   1.764   3.208  0.3748 -1.9309 -1.3972
  845SOL    MW4 3154   1.018   1.821   3.146 -0.0922  0.1466 -0.2612
  846SOL     OW 3155   0.951   6.302   2.762 -0.3293  0.3719  0.0705
  846SOL    HW2 3156   0.880   6.271   2.705 -0.9538  2.0247 -0.0981
  846SOL    HW3 3157   1.011   6.228   2.768 -1.5330 -0.6974 -0.6652
  846SOL    MW4 3158   0.949   6.288   2.755  0.0033 -0.6767  0.2966
  847SOL     OW 3159   5.679   0.025   3.700  0.4803  0.1831 -0.0209
  847SOL    HW2 3160   5.674   0.006   3.606 -0.7857  0.6375 -0.0677
  847SOL    HW3 3161   5.762   0.070   3.711 -0.0423  1.5255 -1.2059
  847SOL    MW4 3162   5.689   0.028   3.689 -0.2115  0.2107 -0.1255
  848SOL     OW 3163   3.632   5.196   1.266 -0.3449 -0.4006 -0.0337
  848SOL    HW2 3164   3.687   5.245   1.205  1.3066 -0.6318  1.2065
  848SOL    HW3 3165   3.658   5.104   1.254 -0.1033 -0.4636  0.8785
  848SOL    MW4 3166   3.643   5.190   1.256 -0.2758  0.3443  0.2414
  849SOL     OW 3167   4.126   0.261   6.299 -0.1712  0.1294  0.4532
  849SOL    HW2 3168   4.154   0.202   6.230  0.7585 -0.3192  1.1919
  849SOL    HW3 3169   4.040   0.292   6.271  0.9212  1.3611 -1.7612
  849SOL    MW4 3170   4.118   0.257   6.286 -0.1234  0.1719 -0.0244
  850SOL     OW 3171   3.719   2.453   3.406  0.0718 -0.2357  0.4401
  850SOL    HW2 3172   3.625   2.465   3.394  0.1708  0.7451  0.5106
  850SOL    HW3 3173   3.759   2.519   3.349  0.7337 -0.9256  0.0853
  850SOL    MW4 3174   3.712   2.463   3.397 -0.3196 -0.6980  0.6804
  851SOL     OW 3175   2.721   2.944   2.452 -0.2177  0.3746  1.1966
  851SOL    HW2 3176   2.640   2.959   2.502 -1.0209 -1.1819  0.4590
  851SOL    HW3 3177   2.695   2.883   2.383  2.0558 -2.1713  2.3715
  851SOL    MW4 3178   2.707   2.938   2.450  0.1929  0.2079 -0.2206
  852SOL     OW 3179   5.440   1.668   4.096  0.5905  0.0819  0.1790
  852SOL    HW2 3180   5.481   1.622   4.023  0.9687  0.6522  0.0163
  852SOL    HW3 3181   5.401   1.600   4.150 -0.2479 -0.3075 -0.8901
  852SOL    MW4 3182   5.441   1.653   4.094 -0.1784 -0.0559  0.4400
  853SOL     OW 3183   4.296   0.289   2.577  0.4512 -0.5148 -0.3192
  853SOL    HW2 3184   4.305   0.350   2.504  0.9258 -0.3867 -0.1622
  853SOL    HW3 3185   4.370   0.230   2.568  1.6072  0.6249  1.0890
  853SOL    MW4 3186   4.307   0.289   2.566  0.3440  0.3856 -0.5736
  854SOL     OW 3187   5.760   6.236   5.864 -0.2453  0.1445 -0.3048
  854SOL    HW2 3188   5.822   6.247   5.936  0.1076 -1.0404 -0.4031
  854SOL    HW3 3189   5.760   6.320   5.819 -0.0416  0.7216  0.7302
  854SOL    MW4 3190   5.768   6.249   5.868 -0.0122  0.6013 -0.2846
  855SOL     OW 3191   0.565   5.895   2.593  0.7366  0.3586  0.3169
  855SOL    HW2 3192   0.536   5.805   2.609  0.6049  0.7803  2.8409
  855SOL    HW3 3193   0.634   5.911   2.657  0.2864  2.2748  0.4040
  855SOL    MW4 3194   0.570   5.886   2.603  0.1061 -0.0759  0.1276
  856SOL     OW 3195   3.755   0.827   3.265  0.5702  0.3477  0.1782
  856SOL    HW2 3196   3.722   0.764   3.330  0.2812  1.0704  0.7555
  856SOL    HW3 3197   3.698   0.816   3.190 -1.1400  1.6676  1.2092
  856SOL    MW4 3198   3.743   0.817   3.264 -0.2236  0.0086 -0.2523
  857SOL     OW 3199   4.753   5.192   4.875  1.0727 -0.2422  0.0740
  857SOL    HW2 3200   4.806   5.146   4.940 -1.5236 -0.6963  2.0663
  857SOL    HW3 3201   4.699   5.252   4.927 -1.5087 -1.0110 -1.5164
  857SOL    MW4 3202   4.753   5.194   4.891  0.2293  0.0748 -0.4380
  858SOL     OW 3203   2.475   6.021   4.791  0.2508 -0.0723  0.1729
  858SOL    HW2 3204   2.546   6.053   4.845 -0.3668  0.6888  0.5495
  858SOL    HW3 3205   2.403   6.082   4.807 -0.0672 -0.0555 -1.2040
  858SOL    MW4 3206   2.474   6.033   4.800  0.0204 -0.1693 -0.0142
  859SOL     OW 3207   3.657   2.568   1.919 -0.6163 -0.2481  0.2279
  859SOL    HW2 3208   3.707   2.584   1.839  0.5695 -1.9984  0.5692
  859SOL    HW3 3209   3.604   2.491   1.899 -1.4014  0.1651  0.6685
  859SOL    MW4 3210   3.656   2.560   1.906  0.1508  0.0791 -0.2552
  860SOL     OW 3211   1.343   2.078   3.139 -0.1159 -0.5188  0.5049
  860SOL    HW2 3212   1.420   2.052   3.190 -0.1496 -1.6304  0.0363
  860SOL    HW3 3213   1.370   2.064   3.048 -0.6302 -0.2184  0.3031
  860SOL    MW4 3214   1.357   2.072   3.134 -0.2950  0.1003 -0.4147
  861SOL     OW 3215   3.351   3.742   2.095  0.2959  0.7312  0.0638
  861SOL    HW2 3216   3.338   3.659   2.049 -0.6591 -0.8576  2.9848
  861SOL    HW3 3217   3.263   3.781   2.100  0.0208 -0.0716  2.1397
  861SOL    MW4 3218   3.337   3.736   2.089  0.0801  0.4329  1.1506
  862SOL     OW 3219   2.168   4.656   1.971  0.2670 -0.1377  0.1448
  862SOL    HW2 3220   2.133   4.619   1.890 -0.8981 -1.8128  1.3621
  862SOL    HW3 3221   2.113   4.732   1.988  0.0740 -0.1842 -0.2623
  862SOL    MW4 3222   2.156   4.661   1.962 -0.0730  0.7872  0.0766
  863SOL     OW 3223   0.878   1.052   4.932 -1.1778  0.4102  0.4142
  863SOL    HW2 3224   0.792   1.094   4.931 -0.5819  1.6955  0.9452
  863SOL    HW3 3225   0.891   1.026   5.023 -1.3231 -0.5107  0.1853
  863SOL    MW4 3226   0.868   1.054   4.944  0.3202 -1.0576  0.2253
  864SOL     OW 3227   0.536   2.948   3.368  0.2266  0.3911 -0.3329
  864SOL    HW2 3228   0.538   2.861   3.327 -2.5313 -0.7642  1.6360
  864SOL    HW3 3229   0.547   3.009   3.295  0.5721 -1.5917 -2.0330
  864SOL    MW4 3230   0.538   2.944   3.353  0.0529  0.0751 -0.0681
  865SOL     OW 3231   5.743   4.096   0.114 -0.0860 -0.0181 -0.5577
  865SOL    HW2 3232   5.757   4.012   0.158  1.2433  1.2074  1.4964
  865SOL    HW3 3233   5.694   4.073   0.035 -0.7917 -2.5802  0.5173
  865SOL    MW4 3234   5.738   4.082   0.109  0.3387 -0.0624 -0.2903
  866SOL     OW 3235   0.320   1.450   5.384 -0.1833 -0.3898  0.3083
  866SOL    HW2 3236   0.409   1.433   5.414 -0.2547 -0.8925  0.2513
  866SOL    HW3 3237   0.268   1.457   5.464 -0.3069 -1.3505  0.3274
  866SOL    MW4 3238   0.325   1.448   5.399 -0.2466 -1.0032 -1.1313
  867SOL     OW 3239   2.760   3.739   5.584  0.0296 -0.1925  0.2911
  867SOL    HW2 3240   2.734   3.812   5.640 -1.6580 -0.5231 -0.0181
  867SOL    HW3 3241   2.766   3.777   5.496  0.3118 -0.1786  0.3160
  867SOL    MW4 3242   2.758   3.753   5.580  0.2094  0.1341  0.0682
  868SOL     OW 3243   3.765   2.736   6.160  0.5063  0.3332  0.5475
  868SOL    HW2 3244   3.694   2.759   6.220 -0.3112  0.0926 -0.2912
  868SOL    HW3 3245   3.775   2.641   6.169 -1.1054 -0.0737 -1.1908
  868SOL    MW4 3246   3.757   2.727   6.169 -0.0762 -0.3285  0.0823
  869SOL     OW 3247   3.976   6.150   5.865 -0.5484  0.3636  0.3138
  869SOL    HW2 3248   3.993   6.243   5.853 -0.1279  0.4274  1.3119
  869SOL    HW3 3249   4.009   6.109   5.785  1.5635  0.8184  0.8805
  869SOL    MW4 3250   3.983   6.157   5.853  0.3201  0.3974 -0.0371
  870SOL     OW 3251   6.293   3.786   1.053 -0.9136 -0.0939  0.2382
  870SOL    HW2 3252   6.320   3.878   1.052  1.8751 -0.8347 -0.7091
  870SOL    HW3 3253   6.287   3.764   1.146  2.6503  0.0076  0.6286
  870SOL    MW4 3254   6.296   3.796   1.065 -0.2338  0.4237  0.4294
  871SOL     OW 3255   1.194   5.755   0.428  0.0618  0.0111  0.0405
  871SOL    HW2 3256   1.273   5.780   0.380  1.0204  1.9196  2.3684
  871SOL    HW3 3257   1.177   5.830   0.485 -3.9889  0.0302 -0.9340
  871SOL    MW4 3258   1.202   5.768   0.429  0.1105 -0.1329 -0.3868
  872SOL     OW 3259   3.959   3.532   2.994 -0.5616  0.2770 -0.4725
  872SOL    HW2 3260   3.869   3.545   2.965 -1.0343  0.1486  0.8727
  872SOL    HW3 3261   3.999   3.619   2.987 -0.0091 -0.0953 -3.4095
  872SOL    MW4 3262   3.952   3.545   2.989  0.2089  0.3812 -0.2707
  873SOL     OW 3263   2.078   2.396   3.472  0.4256  0.1478 -0.1491
  873SOL    HW2 3264   2.048   2.404   3.382  1.1808  0.2532 -0.3955
  873SOL    HW3 3265   2.152   2.455   3.479  1.9946 -1.7151 -0.1819
  873SOL    MW4 3266   2.083   2.404   3.461 -0.0215  0.1854  0.5305
  874SOL     OW 3267   1.295   0.203   3.292  0.7682 -0.4889 -0.3271
  874SOL    HW2 3268   1.351   0.153   3.350  1.1658 -1.4722 -1.5278
  874SOL    HW3 3269   1.272   0.282   3.342  2.5098 -0.4740  0.4943
  874SOL    MW4 3270   1.299   0.207   3.306 -0.3117 -0.6895 -0.4506
  875SOL     OW 3271   1.114   4.255   5.765 -0.7392 -0.2671  0.5273
  875SOL    HW2 3272   1.165   4.289   5.692 -0.5140  1.2075  1.3100
  875SOL    HW3 3273   1.023   4.265   5.737 -0.6386 -0.6725  0.0529
  875SOL    MW4 3274   1.108   4.261   5.752 -0.4786 -0.0979  0.2476
  876SOL     OW 3275   3.328   3.833   2.344  0.0280 -0.0449 -0.6252
  876SOL    HW2 3276   3.395   3.897   2.368  0.7031 -0.5459 -1.1414
  876SOL    HW3 3277   3.351   3.806   2.255 -0.6244 -0.5323 -0.6547
  876SOL    MW4 3278   3.340   3.838   2.335 -0.4381  0.0945 -0.1781
  877SOL     OW 3279   3.135   5.768   2.436 -0.2785 -0.2885  0.0701
  877SOL    HW2 3280   3.187   5.705   2.485  0.0718 -0.8358 -0.9802
  877SOL    HW3 3281   3.143   5.850   2.485  0.2141 -0.7772  0.8088
  877SOL    MW4 3282   3.143   5.771   2.449  0.4439  0.1488 -0.0505
  878SOL     OW 3283   4.556   5.112   4.567  0.1500  0.5516 -0.4885
  878SOL    HW2 3284   4.564   5.043   4.633  0.5258  1.0425 -0.0158
  878SOL    HW3 3285   4.462   5.122   4.553  0.1064 -0.8571 -1.4106
  878SOL    MW4 3286   4.545   5.104   4.574 -0.7483 -0.1745  0.3382
  879SOL     OW 3287   4.266   3.899   3.057  0.6226 -0.7179  0.5510
  879SOL    HW2 3288   4.312   3.932   2.980 -0.1427 -0.3777  0.2271
  879SOL    HW3 3289   4.207   3.832   3.023  0.0898 -0.3780  0.7990
  879SOL    MW4 3290   4.264   3.895   3.042  0.4019 -0.3806 -0.5096
  880SOL     OW 3291   5.008   3.986   1.950  0.6620 -0.5339  0.3172
  880SOL    HW2 3292   4.968   4.045   1.886  2.0351 -0.5203 -0.5721
  880SOL    HW3 3293   4.958   3.905   1.942  1.3583 -0.8458 -1.4747
  880SOL    MW4 3294   4.996   3.983   1.940 -0.5278  0.3933 -0.0597
  881SOL     OW 3295   1.300   5.076   4.239  0.7766 -0.2769 -0.1069
  881SOL    HW2 3296   1.229   5.139   4.248 -0.7468 -2.0150  0.5174
  881SOL    HW3 3297   1.344   5.101   4.158  1.6176  2.8811  1.1750
  881SOL    MW4 3298   1.297   5.088   4.229 -0.0086 -0.0559 -0.3257
  882SOL     OW 3299   4.148   0.728   0.150 -0.7071 -0.0816  0.1653
  882SOL    HW2 3300   4.148   0.663   0.220 -0.1444  0.9208  1.1419
  882SOL    HW3 3301   4.056   0.737   0.126 -1.0366  0.1660  1.4083
  882SOL    MW4 3302   4.136   0.721   0.156 -0.0549  0.0357 -0.7938
  883SOL     OW 3303   4.514   3.902   2.659 -0.7708  0.0146 -0.0951
  883SOL    HW2 3304   4.446   3.887   2.593 -1.6853  1.6539  0.4148
  883SOL    HW3 3305   4.566   3.975   2.623 -3.1545  3.1293  2.2070
  883SOL    MW4 3306   4.512   3.910   2.645 -0.6834  0.1261 -0.1395
  884SOL     OW 3307   5.632   6.380   1.039 -0.1410  0.3688 -0.4354
  884SOL    HW2 3308   5.671   6.369   0.952  1.0530  0.0511  0.1254
  884SOL    HW3 3309   5.657   6.468   1.066  1.8461 -0.4992  0.7082
  884SOL    MW4 3310   5.640   6.390   1.031  0.3956 -0.3171 -0.1269
  885SOL     OW 3311   6.287   3.923   6.042  0.2283 -0.0790 -0.1371
  885SOL    HW2 3312   6.307   3.978   5.966 -0.7949 -0.4548 -0.6961
  885SOL    HW3 3313   6.207   3.878   6.018  0.4042 -0.9174  0.8045
  885SOL    MW4 3314   6.279   3.925   6.029  0.2440 -0.7207 -0.5493
  886SOL     OW 3315   3.237   5.751   3.571  0.0367 -0.8556 -0.1903
  886SOL    HW2 3316   3.286   5.824   3.607  1.2737 -1.2806 -0.9331
  886SOL    HW3 3317   3.149   5.760   3.607 -0.1541  1.6193 -1.1172
  886SOL    MW4 3318   3.232   5.762   3.580 -0.0435 -0.3893  0.5242
  887SOL     OW 3319   4.006   3.575   2.188 -0.0078 -0.7532 -0.1474
  887SOL    HW2 3320   4.076   3.607   2.132  0.0609 -2.1087 -0.8907
  887SOL    HW3 3321   3.936   3.640   2.179  0.2684 -0.5865 -1.2699
  887SOL    MW4 3322   4.006   3.588   2.180 -0.1306 -0.6694  0.1507
  888SOL     OW 3323   5.630   1.316   5.545 -0.1382  0.1977  0.0897
  888SOL    HW2 3324   5.638   1.298   5.639 -0.2965 -0.9012 -0.0945
  888SOL    HW3 3325   5.632   1.230   5.504  0.8009  0.7225 -0.9965
  888SOL    MW4 3326   5.631   1.302   5.552 -0.2401  0.0349 -0.4105
  889SOL     OW 3327   2.345   6.115   1.963  0.2279 -0.0508  0.1623
  889SOL    HW2 3328   2.364   6.126   1.870 -0.1132  1.9051  0.2849
  889SOL    HW3 3329   2.374   6.026   1.983  0.8866 -0.2857 -1.6649
  889SOL    MW4 3330   2.351   6.105   1.953  0.3107 -0.7579  0.0343
  890SOL     OW 3331   0.031   2.356   2.422  0.1137 -0.7127 -0.4060
  890SOL    HW2 3332  -0.046   2.357   2.366 -0.0263 -0.6303 -0.2136
  890SOL    HW3 3333   0.001   2.393   2.505  0.6786  0.5246 -0.7364
  890SOL    MW4 3334   0.017   2.361   2.426 -0.4296 -0.0801  0.2635
  891SOL     OW 3335   6.179   3.921   4.854 -0.3908  0.0346  0.5152
  891SOL    HW2 3336   6.252   3.861   4.869  0.2110  0.7663  0.5744
  891SOL    HW3 3337   6.152   3.904   4.764  0.8041  0.7455  0.0016
  891SOL    MW4 3338   6.185   3.911   4.844 -0.5542 -0.1696  0.2802
  892SOL     OW 3339   1.691   1.418   4.173  0.9964 -0.6254 -0.4122
  892SOL    HW2 3340   1.613   1.432   4.119  2.6099  2.1800 -2.2404
  892SOL    HW3 3341   1.674   1.334   4.217 -2.8888 -0.2854 -0.8824
  892SOL    MW4 3342   1.678   1.409   4.172  0.0822 -0.8201  0.6536
  893SOL     OW 3343   4.353   6.019   6.327  0.2996  0.0584  0.1176
  893SOL    HW2 3344   4.429   6.075   6.312  1.1609 -1.4242 -1.3843
  893SOL    HW3 3345   4.357   5.997   6.419  0.3904  1.7882  0.5660
  893SOL    MW4 3346   4.363   6.024   6.337 -0.2316 -0.2606 -0.4427
  894SOL     OW 3347   4.282   3.460   2.645  0.0616 -0.3485  0.1687
  894SOL    HW2 3348   4.319   3.393   2.702  1.1396 -0.0538 -0.1662
  894SOL    HW3 3349   4.197   3.480   2.684  0.6406 -0.3842  1.4867
  894SOL    MW4 3350   4.276   3.454   2.658  0.2078 -0.4890 -0.1560
  895SOL     OW 3351   6.065   3.268   2.744  0.2803  0.3103  0.2882
  895SOL    HW2 3352   6.129   3.319   2.695 -0.4172  1.7855  0.8413
  895SOL    HW3 3353   6.070   3.303   2.833 -0.6413 -0.2008  0.5509
  895SOL    MW4 3354   6.074   3.279   2.750 -0.1689 -0.2680  0.4259
  896SOL     OW 3355   0.540   3.183   4.615  0.3713 -0.0065  0.6168
  896SOL    HW2 3356   0.459   3.141   4.645  0.7950 -2.5486 -1.4262
  896SOL    HW3 3357   0.610   3.125   4.647  1.3532  1.5848  1.4593
  896SOL    MW4 3358   0.538   3.170   4.623 -0.2693  0.2087  0.6857
  897SOL     OW 3359   4.675   4.176   2.075  0.4245 -0.5415  0.7013
  897SOL    HW2 3360   4.666   4.084   2.100  0.9555 -0.4153  1.4044
  897SOL    HW3 3361   4.755   4.205   2.120  0.6071  0.0987 -0.0085
  897SOL    MW4 3362   4.685   4.167   2.084 -0.3444 -0.0553  0.0859
  898SOL     OW 3363   5.077   4.294   0.952 -0.1343 -0.0849 -0.2452
  898SOL    HW2 3364   5.081   4.311   1.046  0.8697 -1.9077  0.1049
  898SOL    HW3 3365   5.073   4.380   0.912  0.0298  0.7550  1.4439
  898SOL    MW4 3366   5.077   4.307   0.959 -0.3722 -0.1222 -0.1302
  899SOL     OW 3367   6.218   2.147   3.302  0.1047 -0.2229  0.1932
  899SOL    HW2 3368   6.216   2.056   3.272 -1.0348 -0.1963  0.1373
  899SOL    HW3 3369   6.278   2.146   3.377  1.8119 -0.5805 -1.1281
  899SOL    MW4 3370   6.225   2.135   3.308 -0.1576  0.0022 -0.2887
  900SOL     OW 3371   3.122   5.692   4.527 -0.1483 -0.0600  0.4971
  900SOL    HW2 3372   3.163   5.678   4.442 -1.5465  0.4159 -0.2895
  900SOL    HW3 3373   3.122   5.605   4.568  1.6516 -0.0556  0.5624
  900SOL    MW4 3374   3.127   5.679   4.521 -0.5719  0.1425 -0.2320
  901SOL     OW 3375   0.048   4.139   2.970  0.1351 -0.4867 -0.7602
  901SOL    HW2 3376   0.051   4.189   3.052 -1.7673 -1.0214 -0.3060
  901SOL    HW3 3377   0.134   4.096   2.965 -0.3423 -2.0298  2.0320
  901SOL    MW4 3378   0.060   4.140   2.980  0.1344 -0.0918 -0.2986
  902SOL     OW 3379   4.892   0.565   3.950 -0.3403  0.3254 -0.2734
  902SOL    HW2 3380   4.800   0.589   3.951 -0.6693 -0.8526 -0.3787
  902SOL    HW3 3381   4.892   0.469   3.942  0.8751  0.2215  0.5942
  902SOL    MW4 3382   4.880   0.555   3.949  0.2505 -0.0834  0.1668
  903SOL     OW 3383   0.741   3.932   2.143 -0.0281  0.3822  0.6487
  903SOL    HW2 3384   0.833   3.943   2.169 -0.4802  2.1607  1.6524
  903SOL    HW3 3385   0.739   3.953   2.050  0.7219 -0.6208  0.3892
  903SOL    MW4 3386   0.753   3.936   2.134 -1.1520  0.1748 -0.1827
  904SOL     OW 3387   1.587   3.321   1.718 -0.2009  0.1211  0.1476
  904SOL    HW2 3388   1.654   3.254   1.729 -0.7620 -0.2778  1.2846
  904SOL    HW3 3389   1.636   3.403   1.709  0.4450 -0.1070  1.4281
  904SOL    MW4 3390   1.602   3.323   1.719 -0.1191  0.0076 -0.2326
  905SOL     OW 3391   4.853   0.292   0.202 -0.2249 -0.2703  0.7196
  905SOL    HW2 3392   4.875   0.385   0.196 -0.5417 -0.2092  0.4133
  905SOL    HW3 3393   4.937   0.248   0.210  0.0488 -0.0620 -0.7050
  905SOL    MW4 3394   4.867   0.299   0.202 -0.0381 -0.4183  0.1032
  906SOL     OW 3395   1.255   6.176   1.529  0.5000  0.4740  0.0930
  906SOL    HW2 3396   1.236   6.097   1.579 -1.2758  0.0249 -1.1834
  906SOL    HW3 3397   1.195   6.171   1.454  1.4836  2.2330 -0.8576
  906SOL    MW4 3398   1.245   6.165   1.526  0.2021 -0.1347  0.3717
  907SOL     OW 3399   2.345   6.160   0.164 -0.0749  0.2190  0.0799
  907SOL    HW2 3400   2.365   6.197   0.250  0.8360  0.3725 -0.1777
  907SOL    HW3 3401   2.366   6.067   0.173 -0.6586  0.1012  0.2237
  907SOL    MW4 3402   2.351   6.153   0.177 -0.8365  0.4271  0.5967
  908SOL     OW 3403   4.969   5.866   3.823 -0.4957 -0.7665  0.5107
  908SOL    HW2 3404   5.058   5.883   3.792 -0.8946  0.1581 -0.1590
  908SOL    HW3 3405   4.968   5.898   3.913 -0.5245  0.5372  0.0709
  908SOL    MW4 3406   4.980   5.872   3.831  0.0423 -0.3960  0.1315
  909SOL     OW 3407   1.198   5.122   2.737 -0.6377 -0.3780 -0.0258
  909SOL    HW2 3408   1.216   5.205   2.693  3.7665 -0.9628  0.2019
  909SOL    HW3 3409   1.145   5.073   2.675 -1.1925  1.6456 -1.2449
  909SOL    MW4 3410   1.193   5.127   2.723  0.2573 -0.7328  0.2364
  910SOL     OW 3411   3.987   3.030   5.788  0.3719  0.3910 -0.5236
  910SOL    HW2 3412   3.919   2.977   5.830 -0.5249 -0.2033 -2.6068
  910SOL    HW3 3413   4.041   2.967   5.740  1.8716  0.9632  0.3472
  910SOL    MW4 3414   3.985   3.015   5.787 -0.1687  0.1563  0.8157
  911SOL     OW 3415   4.839   2.318   5.603  0.1645  0.0947 -0.0154
  911SOL    HW2 3416   4.757   2.364   5.618  0.0602 -0.3687  0.8691
  911SOL    HW3 3417   4.855   2.269   5.684  1.4866  0.4480 -0.0364
  911SOL    MW4 3418   4.830   2.318   5.616  0.6275  0.0175  0.6391
  912SOL     OW 3419   2.450   6.085   6.324 -0.1803 -0.2510 -0.1512
  912SOL    HW2 3420   2.457   6.170   6.282 -1.5538 -0.0745 -0.0620
  912SOL    HW3 3421   2.395   6.100   6.401  0.7141 -0.9518  0.6494
  912SOL    MW4 3422   2.444   6.098   6.329  0.2108 -0.4309 -0.7271
  913SOL     OW 3423   4.217   0.946   5.311  0.1857  0.1140  0.1905
  913SOL    HW2 3424   4.141   1.003   5.295  0.1449  0.2877  0.9795
  913SOL    HW3 3425   4.223   0.940   5.406  1.8995  1.0913  0.1823
  913SOL    MW4 3426   4.208   0.953   5.322  0.2921  0.2948 -0.0515
  914SOL     OW 3427   1.031   2.972   4.479 -0.5824 -0.1051 -0.1991
  914SOL    HW2 3428   1.060   2.944   4.393  0.1308  1.3226 -0.4532
  914SOL    HW3 3429   1.085   3.049   4.499  0.6905 -1.5475  2.3893
  914SOL    MW4 3430   1.042   2.979   4.471 -0.6956 -0.0606 -0.5256
  915SOL     OW 3431   3.359   2.778   4.187 -0.6049  0.2182 -0.3207
  915SOL    HW2 3432   3.346   2.761   4.093  2.0276 -1.2183 -0.5226
  915SOL    HW3 3433   3.439   2.830   4.191 -1.1457  0.9838  1.1233
  915SOL    MW4 3434   3.368   2.782   4.175  0.3418 -0.2576 -0.1973
  916SOL     OW 3435   0.427   4.266   4.680  0.0659 -0.4504 -0.2361
  916SOL    HW2 3436   0.397   4.281   4.591  0.0469 -1.4459 -0.4073
  916SOL    HW3 3437   0.502   4.323   4.690  0.8916 -1.2978 -1.3541
  916SOL    MW4 3438   0.433   4.275   4.670  0.3005  0.4909 -0.3196
  917SOL     OW 3439   3.778   4.603   4.231  0.4562  0.4766  0.6184
  917SOL    HW2 3440   3.836   4.533   4.263  1.8181  2.1273  1.9428
  917SOL    HW3 3441   3.799   4.679   4.285 -1.1938  1.8652 -0.5629
  917SOL    MW4 3442   3.789   4.603   4.242  0.1302  0.0035 -0.3530
  918SOL     OW 3443   2.430   4.837   2.423  0.0792 -0.1705  0.3759
  918SOL    HW2 3444   2.386   4.822   2.339  0.6330 -2.0651  0.3970
  918SOL    HW3 3445   2.396   4.922   2.452 -1.1783 -0.1257 -1.0823
  918SOL    MW4 3446   2.420   4.846   2.416  0.3827  0.0602 -0.0920
  919SOL     OW 3447   5.800   5.260   1.279 -0.3426  0.0489 -0.0208
  919SOL    HW2 3448   5.754   5.342   1.259  0.8887  0.1114 -3.0750
  919SOL    HW3 3449   5.811   5.217   1.194  2.2276 -1.5858  1.0278
  919SOL    MW4 3450   5.795   5.265   1.265  0.0637  0.3027  0.1017
  920SOL     OW 3451   1.583   1.619   4.419  0.1397 -0.3227 -0.2404
  920SOL    HW2 3452   1.588   1.621   4.515 -2.4218 -2.9094  0.0979
  920SOL    HW3 3453   1.641   1.548   4.393  0.3421 -0.0444 -0.5573
  920SOL    MW4 3454   1.591   1.610   4.428  0.6161 -0.4622 -0.3680
  921SOL     OW 3455   4.224   6.006   4.597  0.6104 -0.3228  0.3714
  921SOL    HW2 3456   4.133   6.023   4.621  0.8667  0.2638  0.9585
  921SOL    HW3 3457   4.222   5.990   4.503  0.2641  2.5729 -0.1955
  921SOL    MW4 3458   4.212   6.006   4.588  0.6908  0.3167  0.4608
  922SOL     OW 3459   6.409   2.097   4.040 -0.1666 -0.1942  0.0652
  922SOL    HW2 3460   6.440   2.007   4.044  0.3806 -0.0096  0.0649
  922SOL    HW3 3461   6.486   2.148   4.013  0.2312  0.6170  2.4631
  922SOL    MW4 3462   6.423   2.092   4.037 -0.1274  0.3737  0.2096
  923SOL     OW 3463   6.009   4.695   0.748  0.5723 -0.4964 -0.0716
  923SOL    HW2 3464   5.919   4.727   0.756  0.3011 -1.3667  0.5631
  923SOL    HW3 3465   6.062   4.774   0.735  0.0152  0.3127  2.1338
  923SOL    MW4 3466   6.004   4.709   0.747  0.6620  0.6368 -0.1308
  924SOL     OW 3467   3.910   0.027   0.167  0.2487 -0.0275 -0.2310
  924SOL    HW2 3468   3.876   0.072   0.244 -1.4035 -0.7297 -0.5087
  924SOL    HW3 3469   3.998   0.061   0.156  1.0798 -0.9493  2.7931
  924SOL    MW4 3470   3.917   0.038   0.175 -0.5771  0.0420  0.5664
  925SOL     OW 3471   4.587   0.706   5.678  0.3989  0.2114 -0.8436
  925SOL    HW2 3472   4.550   0.794   5.672  0.0135 -0.0407 -2.3292
  925SOL    HW3 3473   4.682   0.722   5.687  0.1571  0.8031  1.3115
  925SOL    MW4 3474   4.595   0.720   5.679 -0.4708 -0.1317 -0.0282
  926SOL     OW 3475   0.798   3.979   1.127 -0.5392 -0.1124  0.1371
  926SOL    HW2 3476   0.716   3.991   1.174 -0.4214 -0.9004  0.5648
  926SOL    HW3 3477   0.855   4.049   1.158 -0.5479 -0.4733  0.9893
  926SOL    MW4 3478   0.795   3.990   1.137 -0.4276 -0.0209  0.3726
  927SOL     OW 3479   4.960   3.236   4.394 -0.3074  0.7177  0.0589
  927SOL    HW2 3480   5.019   3.244   4.319 -1.4560 -0.7685 -1.0677
  927SOL    HW3 3481   4.915   3.320   4.399  1.3931  1.6581  0.5549
  927SOL    MW4 3482   4.962   3.248   4.385 -0.2730  0.3548 -0.0377
  928SOL     OW 3483   1.269   0.077   5.252  0.1233  0.2797 -0.7819
  928SOL    HW2 3484   1.299   0.031   5.331  2.2340 -1.4815 -2.4777
  928SOL    HW3 3485   1.185   0.115   5.277 -0.0687 -1.5708  1.8332
  928SOL    MW4 3486   1.262   0.076   5.266  0.4265 -0.1582  0.1992
  929SOL     OW 3487   2.668   1.704   1.577  0.3131 -0.1067 -0.1201
  929SOL    HW2 3488   2.674   1.609   1.589 -0.1913 -0.0695  0.4729
  929SOL    HW3 3489   2.757   1.736   1.591  0.7093 -0.5976 -1.3874
  929SOL    MW4 3490   2.681   1.696   1.581  0.5847  0.6107 -0.8889
  930SOL     OW 3491   1.976   1.450   0.756  0.5943  0.0085 -0.2960
  930SOL    HW2 3492   1.939   1.508   0.689  0.0140 -0.1663 -0.1330
  930SOL    HW3 3493   2.070   1.452   0.740  0.5054  0.3578 -0.8066
  930SOL    MW4 3494   1.983   1.458   0.745  0.3102 -0.2632 -0.3596
  931SOL     OW 3495   2.164   0.784   1.445  0.4226  0.1884 -0.1426
  931SOL    HW2 3496   2.133   0.874   1.446  0.7033  0.2904 -0.4989
  931SOL    HW3 3497   2.088   0.732   1.474 -0.7098  0.2487 -2.7235
  931SOL    MW4 3498   2.150   0.789   1.449 -0.2667 -0.6779 -0.1307
  932SOL     OW 3499   3.739   3.694   1.959  0.7717 -0.1911  0.3493
  932SOL    HW2 3500   3.675   3.761   1.933 -1.7954 -1.6853  2.2934
  932SOL    HW3 3501   3.743   3.635   1.884  0.2017  0.1932  0.0064
  932SOL    MW4 3502   3.731   3.695   1.946 -0.3608 -0.4352  0.4848
  933SOL     OW 3503   2.136   0.182   1.951 -0.5155 -0.3074 -0.1824
  933SOL    HW2 3504   2.197   0.152   2.018 -1.8929  0.1993  1.3623
  933SOL    HW3 3505   2.172   0.266   1.921 -0.6236  0.1797  0.9960
  933SOL    MW4 3506   2.149   0.189   1.956  0.4719  0.0322  0.2744
  934SOL     OW 3507   4.617   1.734   4.023  0.1295 -0.0020  0.3481
  934SOL    HW2 3508   4.521   1.732   4.015  0.1435 -0.7924  0.3234
  934SOL    HW3 3509   4.647   1.777   3.943 -0.1223 -1.3492 -0.4997
  934SOL    MW4 3510   4.608   1.739   4.011 -0.7411  0.4232 -0.6354
  935SOL     OW 3511   5.257   2.989   6.207  0.0146 -0.2217 -0.4338
  935SOL    HW2 3512   5.233   2.963   6.119  0.2559 -0.2146 -0.5011
  935SOL    HW3 3513   5.303   3.072   6.196 -1.8201  0.9068 -0.1276
  935SOL    MW4 3514   5.260   2.997   6.194  0.3367 -0.0437 -0.0649
  936SOL     OW 3515   3.037   3.317   3.417  0.5273  0.2048 -0.0845
  936SOL    HW2 3516   3.121   3.274   3.434 -0.5523 -1.7536  0.5109
  936SOL    HW3 3517   2.978   3.282   3.483 -0.7090  1.8145 -0.2735
  936SOL    MW4 3518   3.040   3.307   3.428  0.3457 -0.0393 -0.4217
  937SOL     OW 3519   3.014   3.986   2.989 -0.6558 -0.2591  0.4028
  937SOL    HW2 3520   3.035   4.079   2.979 -1.1579 -0.2321 -0.6017
  937SOL    HW3 3521   2.994   3.957   2.900 -0.6624 -1.2925  0.7335
  937SOL    MW4 3522   3.014   3.995   2.976  0.4896 -0.2496 -0.0394
  938SOL     OW 3523   0.249   2.856   4.270 -0.1085 -0.5025 -0.2563
  938SOL    HW2 3524   0.283   2.853   4.359 -1.4947 -0.7042  0.2834
  938SOL    HW3 3525   0.327   2.854   4.215  0.8024  0.2335  0.9497
  938SOL    MW4 3526   0.264   2.856   4.274  0.3546  0.1810 -0.3020
  939SOL     OW 3527   5.372   0.202   3.436 -0.5466  0.1767  0.4029
  939SOL    HW2 3528   5.370   0.177   3.344 -0.0109 -1.5156  0.8145
  939SOL    HW3 3529   5.459   0.240   3.449  0.0677 -1.2450  0.5886
  939SOL    MW4 3530   5.383   0.204   3.426 -0.3201 -0.3522  0.1156
  940SOL     OW 3531   0.312   5.081   5.940 -0.2912  0.4420 -0.1519
  940SOL    HW2 3532   0.355   5.143   5.882  0.2401 -0.2822 -0.5476
  940SOL    HW3 3533   0.259   5.136   5.999  0.9548  1.3372  0.1760
  940SOL    MW4 3534   0.311   5.097   5.940  0.3959  0.0218 -0.1569
  941SOL     OW 3535   4.354   4.867   5.069  0.5688  0.1052  0.4419
  941SOL    HW2 3536   4.279   4.825   5.111  1.8214  1.3635  4.4316
  941SOL    HW3 3537   4.428   4.808   5.086  1.2195  0.9171  0.5321
  941SOL    MW4 3538   4.354   4.853   5.077 -0.1549 -0.5911  0.1365
  942SOL     OW 3539   4.847   0.798   5.659  0.2992  0.4265 -0.4631
  942SOL    HW2 3540   4.813   0.786   5.570  0.1049  3.2784 -0.8415
  942SOL    HW3 3541   4.829   0.889   5.680  1.3361  0.1179  2.1180
  942SOL    MW4 3542   4.840   0.808   5.650  0.4390 -0.2339  0.4186
  943SOL     OW 3543   4.123   2.283   2.868 -0.1471  0.3215  0.0155
  943SOL    HW2 3544   4.183   2.357   2.859  0.6334 -0.0995  1.4083
  943SOL    HW3 3545   4.091   2.267   2.779  0.6463  1.5172 -0.5117
  943SOL    MW4 3546   4.127   2.291   2.855 -0.4655 -0.0077 -0.4286
  944SOL     OW 3547   3.728   4.963   3.711  0.1298  0.5723 -0.4928
  944SOL    HW2 3548   3.697   5.003   3.792 -0.4249  1.0615 -0.9360
  944SOL    HW3 3549   3.657   4.906   3.683  0.5072  0.0555 -0.3959
  944SOL    MW4 3550   3.715   4.961   3.718 -0.3143  0.0389  0.0226
  945SOL     OW 3551   1.585   2.673   3.147 -0.2091 -0.4527 -0.2357
  945SOL    HW2 3552   1.538   2.744   3.103 -0.3512 -0.7973 -0.6517
  945SOL    HW3 3553   1.672   2.675   3.109 -0.3196 -0.7247 -0.5094
  945SOL    MW4 3554   1.590   2.683   3.136 -0.5262 -0.3682 -0.2789
  946SOL     OW 3555   2.038   4.036   2.701  0.6471 -0.8348  0.7966
  946SOL    HW2 3556   2.119   4.081   2.725  1.0048 -1.6885  1.2130
  946SOL    HW3 3557   2.006   4.084   2.624  1.7813 -0.7710  0.3492
  946SOL    MW4 3558   2.044   4.048   2.694 -0.0746  0.5280 -0.2097
  947SOL     OW 3559   4.842   6.270   4.018 -0.0259  0.0616  0.2030
  947SOL    HW2 3560   4.791   6.221   4.082 -0.7044  0.3168 -0.1236
  947SOL    HW3 3561   4.827   6.362   4.040  0.3678  0.1415  0.1522
  947SOL    MW4 3562   4.833   6.275   4.029 -0.7747 -0.0831 -0.0524
  948SOL     OW 3563   4.595   2.279   1.771  0.0865 -0.1930 -0.0179
  948SOL    HW2 3564   4.680   2.242   1.793  0.5712 -0.5709 -2.2373
  948SOL    HW3 3565   4.549   2.208   1.727 -0.4570  0.6732 -0.8989
  948SOL    MW4 3566   4.600   2.265   1.768  0.8510 -0.0865 -0.2923
  949SOL     OW 3567   6.104   6.376   3.492  0.7740  0.5355  0.1700
  949SOL    HW2 3568   6.110   6.471   3.486 -0.0499  0.5350 -0.8872
  949SOL    HW3 3569   6.096   6.346   3.402  0.2032 -0.4790  0.5395
  949SOL    MW4 3570   6.104   6.384   3.480  0.0966 -0.0551 -0.8217
  950SOL     OW 3571   1.073   6.189   3.518  0.3451 -0.0145 -0.1382
  950SOL    HW2 3572   1.131   6.224   3.451 -1.0586  0.2082 -1.2822
  950SOL    HW3 3573   1.077   6.094   3.508  0.7368 -0.0118 -0.0113
  950SOL    MW4 3574   1.081   6.181   3.508 -0.3667  0.4002  0.2533
  951SOL     OW 3575   4.390   2.635   1.638 -0.1694  0.2037 -0.0019
  951SOL    HW2 3576   4.312   2.597   1.598 -0.9895  0.4736  1.3047
  951SOL    HW3 3577   4.405   2.716   1.588 -2.3888  1.6094  1.4094
  951SOL    MW4 3578   4.382   2.641   1.626  0.3534 -0.2319 -0.5259
  952SOL     OW 3579   2.178   2.012   2.402  0.5010 -0.2295  0.1896
  952SOL    HW2 3580   2.176   1.926   2.359  0.1841  0.1457 -0.5777
  952SOL    HW3 3581   2.090   2.025   2.435  0.5590 -0.2165  0.3393
  952SOL    MW4 3582   2.166   2.003   2.400 -0.0508  0.0920  0.2868
  953SOL     OW 3583   4.285   0.503   4.878  0.2685 -0.1813  0.0548
  953SOL    HW2 3584   4.250   0.499   4.789  0.6330  0.4228 -0.1182
  953SOL    HW3 3585   4.215   0.466   4.933  0.3056 -1.1896 -0.5493
  953SOL    MW4 3586   4.271   0.497   4.874 -0.8160  0.1476  0.3508
  954SOL     OW 3587   5.151   1.555   3.269  0.4020 -0.0311 -0.7886
  954SOL    HW2 3588   5.153   1.461   3.284 -1.3957 -0.0539 -0.5550
  954SOL    HW3 3589   5.129   1.593   3.354  0.7581  0.5839 -0.9629
  954SOL    MW4 3590   5.148   1.548   3.282  0.8575  0.4348 -0.1497
  955SOL     OW 3591   2.884   3.748   1.546 -0.0531  0.3915 -0.1439
  955SOL    HW2 3592   2.868   3.799   1.467  2.4286  0.5675 -0.6062
  955SOL    HW3 3593   2.838   3.666   1.532 -2.4336  1.6700 -0.2658
  955SOL    MW4 3594   2.876   3.744   1.534  0.3926  0.2443 -0.0239
  956SOL     OW 3595   1.111   0.467   5.746  0.0906 -0.1464  0.2526
  956SOL    HW2 3596   1.089   0.546   5.697  0.1286 -0.9193 -1.0612
  956SOL    HW3 3597   1.032   0.447   5.797 -1.0543 -0.9002 -1.6918
  956SOL    MW4 3598   1.098   0.474   5.746  0.0696 -0.2040 -0.3950
  957SOL     OW 3599   3.407   4.942   1.310 -0.2590 -0.1378  0.0574
  957SOL    HW2 3600   3.349   5.012   1.280 -0.4980  0.1372  1.1259
  957SOL    HW3 3601   3.349   4.870   1.332 -0.0965 -0.2950 -0.0244
  957SOL    MW4 3602   3.392   4.942   1.309 -0.4965 -0.3398  0.3620
  958SOL     OW 3603   1.088   6.076   2.381 -0.3272 -0.2691  0.0559
  958SOL    HW2 3604   1.111   5.983   2.383  0.6372 -0.1359 -1.9941
  958SOL    HW3 3605   1.169   6.120   2.407 -0.7627  0.0360  0.9504
  958SOL    MW4 3606   1.102   6.069   2.385  0.0895 -0.5807 -0.2117
  959SOL     OW 3607   0.587   2.670   5.553 -0.3102 -0.1102 -0.1012
  959SOL    HW2 3608   0.625   2.622   5.480 -1.7500 -0.4519 -0.6442
  959SOL    HW3 3609   0.500   2.632   5.565 -1.3616  2.0720 -0.3222
  959SOL    MW4 3610   0.581   2.659   5.545 -0.0800 -0.1882 -0.7941
  960SOL     OW 3611   0.436   1.194   2.301  0.2715 -0.3415 -0.1723
  960SOL    HW2 3612   0.531   1.199   2.288  0.2024 -0.7970 -0.9247
  960SOL    HW3 3613   0.425   1.174   2.394  0.9193 -0.4158 -0.1074
  960SOL    MW4 3614   0.447   1.192   2.311  0.2039  0.1799  0.1063
  961SOL     OW 3615   3.748   1.713   6.261 -0.2462  0.1788 -0.2703
  961SOL    HW2 3616   3.725   1.628   6.222  2.2738 -0.0784 -1.4072
  961SOL    HW3 3617   3.735   1.776   6.189  0.2226  0.3745 -0.1849
  961SOL    MW4 3618   3.743   1.710   6.246  0.7511 -0.1382 -0.4337
  962SOL     OW 3619   1.050   3.381   5.184 -0.1295 -0.5561  0.0144
  962SOL    HW2 3620   1.048   3.476   5.175  0.0727 -0.6397 -0.9870
  962SOL    HW3 3621   0.969   3.359   5.229 -0.2172  0.0809  0.1694
  962SOL    MW4 3622   1.039   3.391   5.189 -0.1625 -0.3962  0.3211
  963SOL     OW 3623   4.013   1.101   6.352 -0.2083 -0.0252 -0.0913
  963SOL    HW2 3624   4.100   1.136   6.331 -0.6876  0.5880 -1.1132
  963SOL    HW3 3625   4.008   1.107   6.448  0.8713 -0.0828 -0.0088
  963SOL    MW4 3626   4.024   1.107   6.362  0.0112  0.7819 -0.0911
  964SOL     OW 3627   1.933   4.640   4.844 -0.4112 -0.0315 -0.9688
  964SOL    HW2 3628   1.993   4.713   4.830 -0.1921 -0.2431 -1.1515
  964SOL    HW3 3629   1.937   4.623   4.939 -0.4374  0.1701 -0.9323
  964SOL    MW4 3630   1.941   4.647   4.855  0.1837  0.1636 -0.1251
  965SOL     OW 3631   2.564   0.283   4.594 -0.1332 -0.1795 -0.1718
  965SOL    HW2 3632   2.651   0.264   4.557  0.5482  1.2257  0.6365
  965SOL    HW3 3633   2.575   0.269   4.688 -0.9527 -0.5404 -0.1214
  965SOL    MW4 3634   2.577   0.279   4.601  0.0431  0.1401 -0.5560
  966SOL     OW 3635   2.098   5.161   0.574  0.3360 -0.2091  0.6130
  966SOL    HW2 3636   2.146   5.227   0.524 -0.9727 -0.2803 -0.8111
  966SOL    HW3 3637   2.008   5.194   0.575  0.0269 -1.0547  1.5080
  966SOL    MW4 3638   2.092   5.174   0.567  0.1861 -0.0414  0.3181
  967SOL     OW 3639   4.176   2.015   0.118  0.2861 -0.4128  0.4538
  967SOL    HW2 3640   4.268   2.003   0.143  0.6663  1.1334 -0.0607
  967SOL    HW3 3641   4.148   1.929   0.087  1.6058 -0.8906  0.5078
  967SOL    MW4 3642   4.185   2.002   0.117 -0.1573 -1.3899 -0.4302
  968SOL     OW 3643   2.790   0.166   4.465  0.0556  0.4483  0.5952
  968SOL    HW2 3644   2.847   0.216   4.407  0.5971  1.4629  1.9529
  968SOL    HW3 3645   2.844   0.093   4.496  0.9285  1.7975  2.4323
  968SOL    MW4 3646   2.805   0.163   4.462  0.2720 -0.0702  0.3935
  969SOL     OW 3647   1.150   2.719   0.174  0.9231  0.1564  0.3032
  969SOL    HW2 3648   1.086   2.782   0.206  2.3543  2.5767 -1.2907
  969SOL    HW3 3649   1.161   2.740   0.082  3.0188 -1.0382  0.2191
  969SOL    MW4 3650   1.143   2.730   0.166 -0.3458  0.2314 -0.1848
  970SOL     OW 3651   4.264   4.404   3.820 -0.2870 -0.2227  0.2934
  970SOL    HW2 3652   4.336   4.430   3.763 -1.0084  1.7337  0.2261
  970SOL    HW3 3653   4.274   4.459   3.898 -0.0504 -1.9742  1.5767
  970SOL    MW4 3654   4.275   4.414   3.823  0.3472  0.0748  0.4521
  971SOL     OW 3655   3.910   3.793   4.624  0.7384  0.4556 -0.3994
  971SOL    HW2 3656   3.922   3.698   4.616 -0.7564  0.2584 -0.6217
  971SOL    HW3 3657   3.959   3.817   4.702  0.1063 -0.7276  0.3921
  971SOL    MW4 3658   3.918   3.783   4.633 -0.1663  0.5594 -0.3571
  972SOL     OW 3659   6.400   4.044   1.510  0.4686 -0.3329 -0.0448
  972SOL    HW2 3660   6.422   4.136   1.525  0.0687 -0.0514 -1.1140
  972SOL    HW3 3661   6.321   4.046   1.457 -0.3442 -1.3200  1.0723
  972SOL    MW4 3662   6.393   4.056   1.505  0.3465 -0.2476 -0.0687
  973SOL     OW 3663   6.053   6.373   1.866 -0.5255 -0.1234  0.1063
  973SOL    HW2 3664   6.067   6.399   1.957 -1.2464 -1.2250  0.5554
  973SOL    HW3 3665   6.004   6.445   1.827 -0.4085  0.2585  0.6590
  973SOL    MW4 3666   6.048   6.386   1.872 -0.2534  0.0980 -0.2072
  974SOL     OW 3667   0.658   6.128   2.998  0.4647 -0.4354 -0.5351
  974SOL    HW2 3668   0.653   6.043   3.040  0.7666 -1.0546 -1.7179
  974SOL    HW3 3669   0.735   6.170   3.038 -0.5752 -0.0529  1.1691
  974SOL    MW4 3670   0.668   6.123   3.009  0.0225 -0.1178 -0.2848
  975SOL     OW 3671   0.553   2.049   5.390 -0.1532 -0.3830  0.3189
  975SOL    HW2 3672   0.471   2.097   5.380 -0.2011 -0.7313 -1.0469
  975SOL    HW3 3673   0.583   2.033   5.301  0.9858 -0.9880  0.7892
  975SOL    MW4 3674   0.546   2.053   5.377 -0.3981 -0.1478  0.1389
  976SOL     OW 3675   1.786   4.537   5.318  0.5659 -0.2418  0.0700
  976SOL    HW2 3676   1.853   4.508   5.256 -0.2826 -3.7760  0.5929
  976SOL    HW3 3677   1.811   4.497   5.401 -1.3890 -0.4682  0.6112
  976SOL    MW4 3678   1.798   4.528   5.321 -0.0511 -0.5712 -0.7867
  977SOL     OW 3679   0.594   4.535   3.914 -0.0499 -0.1884  1.0309
  977SOL    HW2 3680   0.646   4.598   3.965 -1.1771  0.9367  0.8431
  977SOL    HW3 3681   0.510   4.532   3.958 -1.0118  0.7299 -0.6385
  977SOL    MW4 3682   0.590   4.543   3.926 -0.7449 -0.1080 -0.2402
  978SOL     OW 3683   0.972   6.368   0.016 -0.1959  0.3081 -0.5354
  978SOL    HW2 3684   1.060   6.379   0.052 -0.8098  0.4835  0.9575
  978SOL    HW3 3685   0.974   6.282  -0.026  0.1641 -0.5187  1.1058
  978SOL    MW4 3686   0.984   6.358   0.015  0.3426  0.2803  0.5227
  979SOL     OW 3687   5.641   5.270   0.863 -0.0050  0.2264  0.2853
  979SOL    HW2 3688   5.558   5.255   0.819 -0.3551 -0.0164  1.0118
  979SOL    HW3 3689   5.648   5.365   0.869  0.4233  0.2895 -0.9763
  979SOL    MW4 3690   5.631   5.281   0.858  0.6240 -0.7675 -0.4710
  980SOL     OW 3691   1.391   2.870   3.018  0.1423 -0.1354  0.5939
  980SOL    HW2 3692   1.421   2.924   2.946  0.9914 -0.6653  0.5450
  980SOL    HW3 3693   1.345   2.797   2.977  1.0488 -0.6949  0.5634
  980SOL    MW4 3694   1.389   2.867   3.003  0.6290  0.5003  0.1482
  981SOL     OW 3695   5.209   5.023   5.260 -0.0135  0.5821  0.0210
  981SOL    HW2 3696   5.268   5.096   5.240  1.7078 -0.7731 -0.0882
  981SOL    HW3 3697   5.267   4.953   5.289 -1.7355 -0.3136  1.4775
  981SOL    MW4 3698   5.224   5.023   5.261 -0.0687  0.6739 -0.2095
  982SOL     OW 3699   0.018   3.350   0.975  0.4815 -0.2221 -0.3574
  982SOL    HW2 3700   0.002   3.265   1.017 -0.2103 -0.0005 -0.1645
  982SOL    HW3 3701   0.028   3.411   1.049  1.7119 -0.2542 -0.4777
  982SOL    MW4 3702   0.017   3.347   0.990 -0.3853 -0.0458 -0.2161
  983SOL     OW 3703   4.175   5.479   4.632 -0.0664  0.7049 -0.3304
  983SOL    HW2 3704   4.101   5.488   4.572  0.9644  1.9466 -1.4845
  983SOL    HW3 3705   4.190   5.568   4.665  1.7504  0.7716 -1.1963
  983SOL    MW4 3706   4.167   5.492   4.629  0.5461 -0.0077  0.9392
  984SOL     OW 3707   2.462   2.997   2.569 -0.5513  0.3727 -0.7185
  984SOL    HW2 3708   2.416   2.961   2.493  0.3083 -0.4297 -0.8795
  984SOL    HW3 3709   2.429   2.948   2.643 -0.8539  0.6530 -0.6648
  984SOL    MW4 3710   2.452   2.986   2.569 -0.0892 -0.5121  0.4357
  985SOL     OW 3711   0.557   3.802   4.688 -0.2939 -0.2850 -0.1037
  985SOL    HW2 3712   0.542   3.891   4.656  1.1502  0.0675  0.1204
  985SOL    HW3 3713   0.473   3.775   4.725 -0.6143  1.1986  0.3170
  985SOL    MW4 3714   0.544   3.810   4.688  0.2374  0.2914  0.2501
  986SOL     OW 3715   5.949   0.152   6.108 -0.3589 -0.0516  0.7553
  986SOL    HW2 3716   5.945   0.168   6.203 -1.6942 -1.0496  0.8905
  986SOL    HW3 3717   5.969   0.059   6.100  1.3305  0.3344  0.0101
  986SOL    MW4 3718   5.951   0.142   6.120  0.2111  0.0330 -0.2668
  987SOL     OW 3719   4.250   2.943   1.675 -0.1654 -0.0630 -0.7875
  987SOL    HW2 3720   4.194   3.018   1.697  1.3425  0.8157  0.2334
  987SOL    HW3 3721   4.326   2.981   1.632  1.7030 -0.6479  1.7253
  987SOL    MW4 3722   4.252   2.958   1.672  0.3442  0.7807  0.0794
  988SOL     OW 3723   1.014   3.637   4.510 -0.6912  0.4740  0.3332
  988SOL    HW2 3724   0.924   3.622   4.538 -0.8192 -0.8488 -0.6749
  988SOL    HW3 3725   1.061   3.557   4.533  0.4655  1.4921  1.6616
  988SOL    MW4 3726   1.008   3.625   4.516 -0.0700 -0.1855  0.2049
  989SOL     OW 3727   1.044   3.838   3.625  0.0238  0.3018 -0.0062
  989SOL    HW2 3728   0.981   3.861   3.694  0.5954 -0.9440  0.9784
  989SOL    HW3 3729   1.110   3.784   3.670  1.6860  1.3821 -1.0410
  989SOL    MW4 3730   1.045   3.834   3.640  0.2453  0.0314 -0.5530
  990SOL     OW 3731   5.239   2.294   5.545 -0.7706  0.1306 -0.1315
  990SOL    HW2 3732   5.180   2.264   5.476 -2.0253  1.8743  0.1152
  990SOL    HW3 3733   5.215   2.242   5.621 -0.0822 -1.0794 -0.7040
  990SOL    MW4 3734   5.228   2.283   5.546  0.2213 -0.2469  0.1107
  991SOL     OW 3735   5.553   1.139   1.329  0.0344  0.0781  0.3543
  991SOL    HW2 3736   5.526   1.095   1.410  2.4987  0.7524  1.6567
  991SOL    HW3 3737   5.648   1.129   1.328  0.2007  1.4726 -1.6547
  991SOL    MW4 3738   5.562   1.132   1.340 -0.1140  0.1152 -0.4408
  992SOL     OW 3739   1.872   0.771   0.417 -0.9046  0.3333  0.7569
  992SOL    HW2 3740   1.934   0.844   0.418 -1.8925  1.2427 -0.9523
  992SOL    HW3 3741   1.791   0.808   0.453 -1.6657  0.3743 -0.9014
  992SOL    MW4 3742   1.869   0.786   0.422 -0.1613 -0.0236 -0.4364
  993SOL     OW 3743   2.156   3.088   5.045 -0.0056 -0.2858  0.0974
  993SOL    HW2 3744   2.195   3.165   5.088  1.2278 -0.9579  0.2251
  993SOL    HW3 3745   2.158   3.020   5.112  1.1873 -1.1130 -0.7326
  993SOL    MW4 3746   2.162   3.089   5.059  0.1715 -0.2835  0.0970
  994SOL     OW 3747   6.267   5.419   0.256  0.1731 -0.0797 -0.3311
  994SOL    HW2 3748   6.178   5.407   0.225  0.9214 -0.0067 -2.7646
  994SOL    HW3 3749   6.303   5.330   0.260 -0.1286 -0.1533  1.1403
  994SOL    MW4 3750   6.260   5.406   0.253 -0.4360  0.9913  0.3132
  995SOL     OW 3751   5.721   0.707   5.745 -0.1697  0.3423 -0.2381
  995SOL    HW2 3752   5.803   0.739   5.781 -0.4712  0.6930  0.1420
  995SOL    HW3 3753   5.664   0.784   5.740 -0.0977  0.3321 -1.5883
  995SOL    MW4 3754   5.724   0.721   5.749  0.0960  0.5656 -0.5716
  996SOL     OW 3755   2.482   0.917   2.677 -0.1038  0.0946 -0.4065
  996SOL    HW2 3756   2.410   0.859   2.653  0.6043 -0.6160 -0.8337
  996SOL    HW3 3757   2.517   0.880   2.758  0.1376  0.1236 -0.4991
  996SOL    MW4 3758   2.477   0.905   2.684  0.7596  0.1662 -0.3728
  997SOL     OW 3759   1.642   4.099   1.299  0.0116 -0.6661 -1.0021
  997SOL    HW2 3760   1.660   4.181   1.254 -0.4959 -0.6249 -1.1294
  997SOL    HW3 3761   1.718   4.087   1.357 -0.2853  0.2987 -0.3864
  997SOL    MW4 3762   1.654   4.108   1.301  0.2944 -0.8739  0.2218
  998SOL     OW 3763   1.136   2.949   3.511  0.1081  0.2479 -1.0146
  998SOL    HW2 3764   1.172   3.036   3.492  3.0683 -0.7815 -0.6052
  998SOL    HW3 3765   1.151   2.937   3.605  1.5311 -1.4027 -1.4044
  998SOL    MW4 3766   1.143   2.959   3.521  0.1137 -0.2290  0.1448
  999SOL     OW 3767   0.782   2.529   1.326 -0.3287  0.5899  0.0501
  999SOL    HW2 3768   0.778   2.624   1.314 -0.7124  0.9072  2.3257
  999SOL    HW3 3769   0.819   2.517   1.413  0.4995 -1.3992 -0.5157
  999SOL    MW4 3770   0.786   2.540   1.336 -0.2657  0.0375 -0.1682
 1000SOL     OW 3771   1.602   1.234   0.092  0.2548  0.3057 -0.4318
 1000SOL    HW2 3772   1.580   1.141   0.088  1.6267 -0.0330 -0.8557
 1000SOL    HW3 3773   1.527   1.275   0.135 -0.0743 -1.0883  0.3939
 1000SOL    MW4 3774   1.589   1.227   0.097  0.4301  0.0405 -0.4794
 1001SOL     OW 3775   4.062   0.768   3.549 -0.7069 -0.1860  0.4779
 1001SOL    HW2 3776   4.055   0.813   3.465 -2.8146  0.2334  0.8122
 1001SOL    HW3 3777   4.049   0.837   3.614 -1.8425 -0.9128  1.0519
 1001SOL    MW4 3778   4.060   0.783   3.546  0.1746  0.0320 -0.8401
 1002SOL     OW 3779   4.346   5.821   5.741  0.1782 -0.0547  0.3458
 1002SOL    HW2 3780   4.253   5.831   5.758 -0.3757 -2.5831 -0.7358
 1002SOL    HW3 3781   4.368   5.734   5.774  1.7146 -0.2665 -1.0740
 1002SOL    MW4 3782   4.337   5.811   5.748  0.3677  0.6106 -0.5749
 1003SOL     OW 3783   1.137   5.459   2.175  0.2187  0.0994 -0.2727
 1003SOL    HW2 3784   1.128   5.363   2.175  0.5173  0.0696 -0.4001
 1003SOL    HW3 3785   1.128   5.484   2.267  1.5450 -0.1967 -0.0362
 1003SOL    MW4 3786   1.135   5.449   2.187  0.0152 -0.3695 -0.1887
 1004SOL     OW 3787   6.389   1.373   0.060 -0.1732 -0.0611 -0.3517
 1004SOL    HW2 3788   6.336   1.391   0.138 -0.6530  0.8987 -0.8771
 1004SOL    HW3 3789   6.377   1.279   0.044  0.9915 -0.5783  1.4692
 1004SOL    MW4 3790   6.380   1.363   0.068  0.1781  0.2343  0.5919
 1005SOL     OW 3791   6.146   5.653   2.539 -0.0637  0.3986 -0.3201
 1005SOL    HW2 3792   6.145   5.570   2.587 -1.7571  0.2701 -0.5100
 1005SOL    HW3 3793   6.094   5.713   2.593  0.9173  1.2737 -0.3193
 1005SOL    MW4 3794   6.139   5.650   2.553  0.1333 -0.6793  0.0960
 1006SOL     OW 3795   6.434   5.423   2.066  0.2090 -0.0425  0.2107
 1006SOL    HW2 3796   6.497   5.363   2.026 -0.7977 -0.3651 -0.9341
 1006SOL    HW3 3797   6.455   5.509   2.029 -0.4700 -0.2749 -0.7600
 1006SOL    MW4 3798   6.445   5.426   2.056  0.5725 -0.2064 -0.0363
 1007SOL     OW 3799   5.556   4.093   1.418  0.5366  0.4871  0.5228
 1007SOL    HW2 3800   5.635   4.125   1.374 -1.7053  3.4702 -1.8234
 1007SOL    HW3 3801   5.518   4.172   1.458 -2.8495 -0.0159 -1.3150
 1007SOL    MW4 3802   5.561   4.108   1.418  0.6554 -0.3839  0.2032
 1008SOL     OW 3803   1.101   5.166   6.350 -0.3671  0.0692 -0.7784
 1008SOL    HW2 3804   1.117   5.073   6.365 -0.6049  0.0434 -0.6906
 1008SOL    HW3 3805   1.172   5.193   6.291  0.2912  0.0641 -0.0115
 1008SOL    MW4 3806   1.113   5.157   6.344  0.4839 -0.0275  0.0891
 1009SOL     OW 3807   3.046   4.895   4.316 -0.1825  0.0091 -0.3230
 1009SOL    HW2 3808   3.104   4.969   4.335  0.3253  0.1469 -2.2291
 1009SOL    HW3 3809   3.025   4.904   4.223 -2.8263 -0.3818  0.1773
 1009SOL    MW4 3810   3.051   4.906   4.306 -0.1805 -0.2656  0.0968
 1010SOL     OW 3811   3.893   2.699   5.562  0.4199  0.9754  0.0455
 1010SOL    HW2 3812   3.953   2.772   5.548  0.9699  0.1275 -2.5303
 1010SOL    HW3 3813   3.951   2.623   5.575 -0.0979  0.5043 -0.3501
 1010SOL    MW4 3814   3.909   2.699   5.562 -0.1465 -0.0253  0.1141
 1011SOL     OW 3815   3.800   5.471   2.252 -0.0436  0.1491 -0.5224
 1011SOL    HW2 3816   3.803   5.421   2.170  0.1951 -2.2730  0.8524
 1011SOL    HW3 3817   3.878   5.442   2.300  0.6892  2.7101 -0.0430
 1011SOL    MW4 3818   3.811   5.460   2.248  0.2630 -0.1782 -0.6178
 1012SOL     OW 3819   0.534   2.750   3.167 -0.4371 -0.4984 -0.3192
 1012SOL    HW2 3820   0.571   2.669   3.201  0.2377  0.2932  0.8946
 1012SOL    HW3 3821   0.452   2.723   3.124  0.0598 -1.8777 -0.4378
 1012SOL    MW4 3822   0.528   2.736   3.166  0.2656  0.4728 -0.3303
 1013SOL     OW 3823   0.487   1.620   5.004 -0.0323  0.0826  0.0224
 1013SOL    HW2 3824   0.401   1.602   5.040  0.1738  0.7951  0.9123
 1013SOL    HW3 3825   0.548   1.571   5.059  0.1808  0.0780 -0.2118
 1013SOL    MW4 3826   0.484   1.611   5.016  0.0998 -0.1525  0.4904
 1014SOL     OW 3827   0.487   6.247   3.529 -0.5315 -0.5133 -0.5744
 1014SOL    HW2 3828   0.407   6.195   3.523 -0.8952  0.0117 -0.3080
 1014SOL    HW3 3829   0.501   6.258   3.623 -0.0263 -0.7793 -0.6135
 1014SOL    MW4 3830   0.479   6.241   3.541 -0.1599 -0.5964  0.0710
 1015SOL     OW 3831   0.620   2.416   5.962  0.5379 -0.0731  0.5282
 1015SOL    HW2 3832   0.624   2.320   5.959 -0.7552 -0.1174 -0.6021
 1015SOL    HW3 3833   0.712   2.443   5.964  0.9198 -1.3370  1.1425
 1015SOL    MW4 3834   0.633   2.407   5.962  0.4253 -0.0299  0.7091
 1016SOL     OW 3835   4.153   0.198   4.609 -0.1332  0.2074 -0.0810
 1016SOL    HW2 3836   4.211   0.192   4.533 -2.7066 -0.2116 -2.1276
 1016SOL    HW3 3837   4.119   0.287   4.606 -0.3989  0.1255  0.4617
 1016SOL    MW4 3838   4.156   0.209   4.598 -0.9258  0.1063  0.5061
 1017SOL     OW 3839   1.946   0.321   4.626 -0.4104 -0.1995  0.2832
 1017SOL    HW2 3840   1.900   0.365   4.697  1.3100  0.8122  0.8339
 1017SOL    HW3 3841   1.888   0.329   4.550 -1.8667 -0.4863  1.3267
 1017SOL    MW4 3842   1.933   0.328   4.625 -0.7378  0.2287 -0.3820
 1018SOL     OW 3843   3.433   1.032   1.611  0.0695  0.3406  0.6167
 1018SOL    HW2 3844   3.351   1.060   1.572 -0.0244  0.0057  0.5706
 1018SOL    HW3 3845   3.407   0.985   1.690  0.1176 -1.1720 -0.2250
 1018SOL    MW4 3846   3.419   1.029   1.616  0.6819  0.3258 -0.1473
 1019SOL     OW 3847   1.132   5.573   2.435  0.1794 -0.1104  0.4300
 1019SOL    HW2 3848   1.052   5.592   2.483  0.3862  0.5935  0.5136
 1019SOL    HW3 3849   1.202   5.610   2.490  0.6710 -1.5769  0.8533
 1019SOL    MW4 3850   1.131   5.581   2.449 -0.5601 -0.5329 -0.1597
 1020SOL     OW 3851   3.180   2.932   6.063 -0.4343  0.5877  0.6119
 1020SOL    HW2 3852   3.276   2.926   6.062 -0.4316  0.6314  0.1800
 1020SOL    HW3 3853   3.157   2.945   5.971 -1.0292 -2.1421  0.2946
 1020SOL    MW4 3854   3.190   2.933   6.051  0.1848 -0.2563  0.5557
 1021SOL     OW 3855   0.910   5.420   2.973  0.0759  0.1330  0.3986
 1021SOL    HW2 3856   0.959   5.349   2.933 -2.4119 -0.2917 -2.2414
 1021SOL    HW3 3857   0.929   5.496   2.919 -1.1184  0.2674  0.1448
 1021SOL    MW4 3858   0.919   5.421   2.961  0.1563 -0.1721  0.1780
 1022SOL     OW 3859   4.555   3.392   2.000  0.1366  0.3343 -0.4846
 1022SOL    HW2 3860   4.466   3.390   2.036  0.4823 -0.6610  0.3655
 1022SOL    HW3 3861   4.555   3.327   1.930  0.8848 -1.7455  1.3253
 1022SOL    MW4 3862   4.543   3.384   1.996 -0.1505  0.1162 -0.3139
 1023SOL     OW 3863   2.647   1.827   6.004 -0.1574  0.0328 -0.6044
 1023SOL    HW2 3864   2.552   1.836   6.017 -0.2519  0.2542 -1.3709
 1023SOL    HW3 3865   2.655   1.800   5.912  0.6033  1.6515 -1.0484
 1023SOL    MW4 3866   2.635   1.824   5.993  0.2076 -0.1906 -0.0950
 1024SOL     OW 3867   3.711   3.114   2.804  0.3178 -0.3064 -0.3606
 1024SOL    HW2 3868   3.727   3.076   2.890 -0.8311  0.0822  0.0506
 1024SOL    HW3 3869   3.788   3.168   2.787 -0.3582  1.3575  1.4347
 1024SOL    MW4 3870   3.723   3.116   2.813 -0.2486 -0.6249 -1.1336
 1025SOL     OW 3871   5.695   1.860   6.344  0.1518 -0.0926  0.1855
 1025SOL    HW2 3872   5.789   1.853   6.358  0.1880  1.1603  0.6869
 1025SOL    HW3 3873   5.684   1.937   6.288 -0.5729 -0.1301  0.2626
 1025SOL    MW4 3874   5.706   1.869   6.339  0.4321 -0.4738  0.1458
 1026SOL     OW 3875   0.047   5.755   3.773 -0.3768 -0.2986 -0.0492
 1026SOL    HW2 3876   0.032   5.849   3.785 -0.8255 -0.4688  0.7839
 1026SOL    HW3 3877   0.112   5.750   3.703 -0.3799  0.6308 -0.1309
 1026SOL    MW4 3878   0.054   5.767   3.765 -0.2504 -0.0449  0.3145
 1027SOL     OW 3879   1.735   2.358   3.588 -0.5976  0.0577 -0.0045
 1027SOL    HW2 3880   1.738   2.438   3.536 -0.5480  1.3851  1.9042
 1027SOL    HW3 3881   1.806   2.369   3.652 -1.0228 -1.1961  0.7091
 1027SOL    MW4 3882   1.745   2.370   3.590  0.1355  0.5190 -0.1816
 1028SOL     OW 3883   3.539   2.119   3.676 -0.0894 -0.1362 -0.3403
 1028SOL    HW2 3884   3.496   2.177   3.614 -0.4626  0.8320  0.7880
 1028SOL    HW3 3885   3.573   2.178   3.745 -0.2577 -1.2205  0.7040
 1028SOL    MW4 3886   3.538   2.135   3.677  0.3421  0.1416  0.3082
 1029SOL     OW 3887   4.676   3.516   1.233  0.3484  0.1811  0.0324
 1029SOL    HW2 3888   4.691   3.427   1.265  1.2034 -0.0852 -1.0597
 1029SOL    HW3 3889   4.716   3.572   1.300 -1.0135 -0.1783  1.1988
 1029SOL    MW4 3890   4.683   3.512   1.246  0.1307  0.2071  0.2523
 1030SOL     OW 3891   5.930   1.612   2.635  0.2672 -0.5377  0.1007
 1030SOL    HW2 3892   6.017   1.645   2.658  1.1056 -0.7772 -2.3860
 1030SOL    HW3 3893   5.939   1.585   2.544 -1.4450 -3.9630  0.7803
 1030SOL    MW4 3894   5.943   1.613   2.626 -0.7840 -0.1479 -0.1321
 1031SOL     OW 3895   3.550   0.870   2.125 -0.0627  0.0397  0.0139
 1031SOL    HW2 3896   3.642   0.843   2.135  0.3974  1.7681  1.0166
 1031SOL    HW3 3897   3.539   0.940   2.190 -1.9227  0.3004 -0.5282
 1031SOL    MW4 3898   3.561   0.876   2.135 -0.0346 -0.4390 -0.0991
 1032SOL     OW 3899   4.128   4.756   5.169 -0.1212  0.4019 -0.5550
 1032SOL    HW2 3900   4.167   4.669   5.154 -0.2008  0.0866  0.8899
 1032SOL    HW3 3901   4.045   4.753   5.122 -0.6936 -0.7856  0.4563
 1032SOL    MW4 3902   4.122   4.744   5.161 -0.6101 -0.4405  0.0424
 1033SOL     OW 3903   5.821   1.684   5.254 -0.0047 -0.7216  0.1240
 1033SOL    HW2 3904   5.752   1.706   5.191 -0.4845 -0.6622  0.6610
 1033SOL    HW3 3905   5.784   1.612   5.305  0.7280 -1.3712 -0.2413
 1033SOL    MW4 3906   5.807   1.677   5.252 -0.3619  0.5334  0.1348
 1034SOL     OW 3907   5.047   5.851   1.704 -0.5391  0.3882  0.6998
 1034SOL    HW2 3908   5.062   5.757   1.698  1.8672  0.8197 -1.7567
 1034SOL    HW3 3909   5.078   5.875   1.791  2.7244 -0.6043 -0.0537
 1034SOL    MW4 3910   5.053   5.842   1.715 -0.1362 -0.5335  0.0217
 1035SOL     OW 3911   4.079   0.289   0.641  0.0060  0.6628 -0.1576
 1035SOL    HW2 3912   4.122   0.293   0.556 -0.8935 -0.1269 -0.6661
 1035SOL    HW3 3913   4.149   0.267   0.702  0.6921  1.4125 -0.6533
 1035SOL    MW4 3914   4.094   0.287   0.638  0.2437  0.2447  0.2558
 1036SOL     OW 3915   0.091   5.062   2.398 -0.0258 -0.2176  0.0050
 1036SOL    HW2 3916   0.058   5.014   2.475 -2.1639  0.2435 -0.5382
 1036SOL    HW3 3917   0.031   5.037   2.328  0.9039  0.6260 -1.1193
 1036SOL    MW4 3918   0.078   5.052   2.399 -0.2108 -0.7839 -0.3800
 1037SOL     OW 3919   1.373   1.211   0.825  0.0595 -0.2808 -0.2629
 1037SOL    HW2 3920   1.357   1.117   0.830  1.4518 -0.6996 -2.2816
 1037SOL    HW3 3921   1.457   1.223   0.868 -1.4034  0.5541  2.5642
 1037SOL    MW4 3922   1.382   1.200   0.831  0.0402  0.4936 -0.6758
 1038SOL     OW 3923   1.163   5.423   3.305  0.2450  0.2177 -0.3146
 1038SOL    HW2 3924   1.228   5.437   3.237 -1.5721  0.8441 -2.0013
 1038SOL    HW3 3925   1.166   5.503   3.358  1.5964 -0.2380  0.3437
 1038SOL    MW4 3926   1.172   5.436   3.303  0.6354  0.1770  0.0993
 1039SOL     OW 3927   2.485   0.122   1.786 -0.0375 -0.2703 -0.1163
 1039SOL    HW2 3928   2.423   0.071   1.734  1.3727 -2.3832  0.1793
 1039SOL    HW3 3929   2.561   0.135   1.728  0.3265 -0.0095  0.4069
 1039SOL    MW4 3930   2.487   0.117   1.772  0.5336  0.2167 -0.3847
 1040SOL     OW 3931   1.713   1.736   1.167  0.1742  0.1573  0.3856
 1040SOL    HW2 3932   1.798   1.692   1.159 -0.6404 -1.4070 -0.1202
 1040SOL    HW3 3933   1.732   1.828   1.148  1.7541 -0.1472  0.3257
 1040SOL    MW4 3934   1.727   1.742   1.163  0.0665 -0.1496 -0.0197
 1041SOL     OW 3935   4.684   1.989   2.782  0.0667  0.0139  0.0136
 1041SOL    HW2 3936   4.694   2.056   2.714 -0.0026 -0.3389 -0.3469
 1041SOL    HW3 3937   4.660   2.038   2.861 -0.7632  0.3366 -0.4314
 1041SOL    MW4 3938   4.682   2.004   2.783  0.0136  0.0937 -0.1078
 1042SOL     OW 3939   4.447   1.694   2.065  0.4913 -0.2274  0.0664
 1042SOL    HW2 3940   4.361   1.675   2.027 -0.1048  1.4060  0.4869
 1042SOL    HW3 3941   4.497   1.734   1.994  0.4662 -0.0248  0.1625
 1042SOL    MW4 3942   4.442   1.697   2.051 -0.0194  0.0617 -0.1943
 1043SOL     OW 3943   5.080   3.014   0.369  0.0674  0.2323 -0.7463
 1043SOL    HW2 3944   5.010   2.978   0.314  1.1349 -0.2760 -1.8077
 1043SOL    HW3 3945   5.161   2.994   0.322  0.9948  0.2128  0.7814
 1043SOL    MW4 3946   5.081   3.007   0.356 -0.1353 -0.2436  0.6355
 1044SOL     OW 3947   4.976   2.708   4.100 -0.2051  0.1623 -0.4582
 1044SOL    HW2 3948   5.017   2.736   4.018  1.6379  1.0756  0.7122
 1044SOL    HW3 3949   4.916   2.779   4.122 -2.1752 -0.9566 -1.9303
 1044SOL    MW4 3950   4.974   2.721   4.092 -0.0930 -0.1712 -0.5436
 1045SOL     OW 3951   1.065   4.395   2.612 -0.3335  0.1039 -0.4762
 1045SOL    HW2 3952   0.998   4.416   2.548  1.2651  2.1871 -1.5963
 1045SOL    HW3 3953   1.018   4.384   2.694 -2.0815  0.9252 -1.3180
 1045SOL    MW4 3954   1.050   4.396   2.614  0.2293  0.0808 -0.6144
 1046SOL     OW 3955   5.527   5.708   5.801 -0.3976 -0.2359 -0.7449
 1046SOL    HW2 3956   5.565   5.761   5.871 -0.0269 -1.1498 -0.2361
 1046SOL    HW3 3957   5.596   5.702   5.735 -1.4284  2.3389 -2.1981
 1046SOL    MW4 3958   5.541   5.714   5.801 -0.2451 -0.0018 -0.2604
 1047SOL     OW 3959   2.911   2.287   4.672 -0.1216 -0.0164  0.4263
 1047SOL    HW2 3960   2.861   2.367   4.655 -0.2975 -0.1876  0.1311
 1047SOL    HW3 3961   2.885   2.261   4.760 -0.8076 -0.2882  0.1474
 1047SOL    MW4 3962   2.901   2.294   4.682 -0.3083  0.2620 -0.1267
 1048SOL     OW 3963   5.378   3.242   6.175 -0.3575  0.3009 -0.3259
 1048SOL    HW2 3964   5.466   3.233   6.138 -0.2391 -0.1521  0.0548
 1048SOL    HW3 3965   5.338   3.312   6.124  0.3267  0.7145 -0.3150
 1048SOL    MW4 3966   5.385   3.250   6.163 -0.1838 -0.3043  0.1500
 1049SOL     OW 3967   5.684   5.173   6.336 -0.3590  0.7901  0.1858
 1049SOL    HW2 3968   5.681   5.143   6.427  1.7304  3.7769  1.3637
 1049SOL    HW3 3969   5.605   5.225   6.325 -0.4024  0.7683  0.3956
 1049SOL    MW4 3970   5.673   5.176   6.346  0.1617  0.2905 -0.0460
 1050SOL     OW 3971   5.490   0.366   1.933 -0.2953  0.1062 -0.2205
 1050SOL    HW2 3972   5.396   0.371   1.920 -0.4119  3.0979  0.9127
 1050SOL    HW3 3973   5.501   0.349   2.027  0.2417  1.2760 -0.0520
 1050SOL    MW4 3974   5.479   0.364   1.944 -0.0765 -0.8746  0.3031
 1051SOL     OW 3975   5.732   3.121   4.985  0.6876 -0.2471  0.2728
 1051SOL    HW2 3976   5.692   3.048   4.937  1.1109 -0.2009 -0.1538
 1051SOL    HW3 3977   5.825   3.115   4.965  0.5758  1.1147 -0.7268
 1051SOL    MW4 3978   5.739   3.110   4.976  0.5324 -0.3841  0.3638
 1052SOL     OW 3979   3.731   0.471   5.060  0.2775  0.0031  0.0172
 1052SOL    HW2 3980   3.654   0.493   5.111  0.2794  0.2398 -0.0805
 1052SOL    HW3 3981   3.706   0.491   4.969  0.5463  0.3462  0.0158
 1052SOL    MW4 3982   3.717   0.476   5.054  0.1638  0.1421  0.2556
 1053SOL     OW 3983   5.289   0.922   6.405  0.2154 -0.0840 -0.1650
 1053SOL    HW2 3984   5.375   0.912   6.364  0.4396  0.0346  0.2759
 1053SOL    HW3 3985   5.281   0.846   6.462 -0.8551 -1.2327 -1.7541
 1053SOL    MW4 3986   5.299   0.911   6.407  0.1565  0.1370 -0.0069
 1054SOL     OW 3987   2.935   2.840   2.592  0.0580 -0.2272 -0.6970
 1054SOL    HW2 3988   2.912   2.754   2.629  0.4873 -0.0328  0.0522
 1054SOL    HW3 3989   2.861   2.863   2.536  0.3990 -1.5527 -1.7333
 1054SOL    MW4 3990   2.922   2.832   2.590 -0.3633  0.0868 -0.2402
 1055SOL     OW 3991   1.400   1.499   0.774  0.5230  0.5020  0.1278
 1055SOL    HW2 3992   1.383   1.544   0.692 -1.2625  0.5973  0.4868
 1055SOL    HW3 3993   1.379   1.407   0.756  0.8912  0.3857  0.2783
 1055SOL    MW4 3994   1.395   1.493   0.761  0.1394  0.2016 -0.0158
 1056SOL     OW 3995   5.927   1.943   0.667  0.1897  0.1585 -0.3937
 1056SOL    HW2 3996   5.908   2.013   0.731  0.0905  0.2414 -0.5142
 1056SOL    HW3 3997   5.969   1.989   0.594 -0.5101  0.1944 -0.7775
 1056SOL    MW4 3998   5.930   1.958   0.666  0.9088  0.3650  0.3481
 1057SOL     OW 3999   1.397   4.207   0.286 -0.0043 -0.1554 -0.2889
 1057SOL    HW2 4000   1.359   4.167   0.364 -2.6384  0.2834 -1.2526
 1057SOL    HW3 4001   1.329   4.198   0.219  0.7999  2.4870 -1.6004
 1057SOL    MW4 4002   1.383   4.200   0.288  0.3056  0.3057  0.2075
 1058SOL     OW 4003   1.222   1.763   4.418 -0.0644 -0.0577  0.1167
 1058SOL    HW2 4004   1.195   1.800   4.502  2.3199  0.7169  0.6207
 1058SOL    HW3 4005   1.238   1.670   4.436  1.2559  0.2683  0.8022
 1058SOL    MW4 4006   1.221   1.755   4.431  0.5513  0.3773  0.1443
 1059SOL     OW 4007   1.473   5.876   1.999 -0.4571 -0.3424 -0.6866
 1059SOL    HW2 4008   1.543   5.856   2.060 -1.2331  1.4861  0.8879
 1059SOL    HW3 4009   1.511   5.861   1.912  1.3481 -0.8899  0.1630
 1059SOL    MW4 4010   1.487   5.871   1.995 -0.0048 -0.5861 -0.4196
 1060SOL     OW 4011   6.130   3.572   4.762 -0.1752  0.2907 -0.2293
 1060SOL    HW2 4012   6.108   3.524   4.841 -0.0221  0.5040 -0.0570
 1060SOL    HW3 4013   6.209   3.622   4.784 -0.6825  1.1051 -0.2081
 1060SOL    MW4 4014   6.138   3.572   4.775  0.2322 -0.2065 -0.1178
 1061SOL     OW 4015   3.142   2.717   0.533 -0.3182  0.3776 -0.1043
 1061SOL    HW2 4016   3.052   2.717   0.500 -0.4431  2.2171  0.1506
 1061SOL    HW3 4017   3.134   2.681   0.622 -0.4196 -1.6964 -0.9083
 1061SOL    MW4 4018   3.129   2.712   0.541  0.6948  0.3054  0.6183
 1062SOL     OW 4019   5.097   0.972   6.192 -0.3336 -0.4888 -0.1812
 1062SOL    HW2 4020   5.173   0.966   6.249 -0.1459  0.2891 -0.3333
 1062SOL    HW3 4021   5.111   1.053   6.142 -0.7769 -0.8531 -0.9102
 1062SOL    MW4 4022   5.108   0.982   6.193 -0.1092 -0.5207 -0.2989
 1063SOL     OW 4023   5.247   2.777   4.971  0.0625 -0.1312 -0.2021
 1063SOL    HW2 4024   5.267   2.869   4.953 -0.2405 -0.2755 -1.3528
 1063SOL    HW3 4025   5.281   2.730   4.894 -0.9343 -0.8375 -0.2278
 1063SOL    MW4 4026   5.254   2.783   4.958  0.3584  0.1388  0.0629
 1064SOL     OW 4027   0.020   2.314   2.769 -0.6369 -0.2023 -0.0194
 1064SOL    HW2 4028  -0.024   2.263   2.838  1.7101 -2.8193 -0.2621
 1064SOL    HW3 4029  -0.051   2.357   2.722 -3.0656 -4.1075 -0.3777
 1064SOL    MW4 4030   0.005   2.313   2.772 -0.3636 -0.3531  0.1930
 1065SOL     OW 4031   3.457   2.737   2.132 -0.3649 -0.1107  0.3475
 1065SOL    HW2 4032   3.518   2.718   2.061 -1.5974  0.9550 -1.0429
 1065SOL    HW3 4033   3.455   2.656   2.183  1.1759 -0.6159 -0.3341
 1065SOL    MW4 4034   3.465   2.724   2.129  0.1653 -0.1191  0.4122
 1066SOL     OW 4035   3.684   2.299   4.249 -0.6861 -0.0050  0.3060
 1066SOL    HW2 4036   3.654   2.239   4.180 -0.4015  1.1857 -0.8791
 1066SOL    HW3 4037   3.607   2.350   4.271 -0.0613  1.7916 -1.4310
 1066SOL    MW4 4038   3.670   2.298   4.242 -0.1922  0.4204  0.1978
 1067SOL     OW 4039   3.814   3.357   3.698 -0.4412  0.7321  0.3089
 1067SOL    HW2 4040   3.859   3.419   3.755  0.6278  0.0346  0.2499
 1067SOL    HW3 4041   3.802   3.404   3.615 -0.4660  1.1669  0.5593
 1067SOL    MW4 4042   3.818   3.371   3.694 -0.1160  0.7462  0.4875
 1068SOL     OW 4043   4.729   4.752   3.751  0.7139 -0.3484 -0.2973
 1068SOL    HW2 4044   4.719   4.834   3.702  1.0454  1.3047  2.2400
 1068SOL    HW3 4045   4.649   4.745   3.803  0.7939 -1.5412 -0.3079
 1068SOL    MW4 4046   4.717   4.762   3.751 -0.6710  0.5712 -0.1781
 1069SOL     OW 4047   5.232   4.725   3.362 -0.6506  0.1306 -0.2881
 1069SOL    HW2 4048   5.267   4.644   3.399  0.8034  1.9409  2.7927
 1069SOL    HW3 4049   5.300   4.790   3.380 -1.6011  2.0283 -2.9576
 1069SOL    MW4 4050   5.245   4.723   3.370 -0.3508  0.5256  0.8881
 1070SOL     OW 4051   3.991   6.120   4.681 -0.1628  0.2147 -0.0631
 1070SOL    HW2 4052   3.973   6.206   4.643 -0.4886 -0.4735 -1.5325
 1070SOL    HW3 4053   3.904   6.087   4.706  0.0628  0.7337  1.5111
 1070SOL    MW4 4054   3.977   6.127   4.679  0.3325 -0.1472  0.4418
 1071SOL     OW 4055   5.109   0.819   1.691  0.0987 -0.4135 -0.6575
 1071SOL    HW2 4056   5.192   0.810   1.738 -0.1667 -0.4974 -0.1959
 1071SOL    HW3 4057   5.049   0.762   1.739 -0.1506 -0.5798 -1.1687
 1071SOL    MW4 4058   5.112   0.810   1.704  0.2026  0.2510 -0.4122
 1072SOL     OW 4059   4.996   0.405   5.175 -0.1450  0.1809  0.7072
 1072SOL    HW2 4060   5.065   0.362   5.226  0.2933 -0.0299 -0.0434
 1072SOL    HW3 4061   4.999   0.497   5.203 -1.6203 -0.3705  2.9132
 1072SOL    MW4 4062   5.006   0.411   5.185 -0.1145 -0.3085 -0.9228
 1073SOL     OW 4063   5.185   3.678   6.009 -0.6600 -0.2229  0.0729
 1073SOL    HW2 4064   5.159   3.586   6.020 -0.1007 -0.4029 -0.0510
 1073SOL    HW3 4065   5.279   3.678   6.028 -0.0976 -0.1533 -2.3133
 1073SOL    MW4 4066   5.194   3.666   6.013  0.2923 -0.3201  0.2142
 1074SOL     OW 4067   1.647   1.941   5.971 -0.1197  0.4522  0.0372
 1074SOL    HW2 4068   1.589   1.987   6.032 -0.0578  1.4667 -0.6525
 1074SOL    HW3 4069   1.645   1.994   5.892  1.8189  0.5708  0.0210
 1074SOL    MW4 4070   1.639   1.954   5.969 -0.0482 -0.5809  0.0158
 1075SOL     OW 4071   6.075   3.131   5.864 -0.2747 -0.1742 -0.0155
 1075SOL    HW2 4072   6.063   3.042   5.830  1.2598  0.0124 -1.1684
 1075SOL    HW3 4073   6.136   3.120   5.937 -1.6687 -0.2812  1.1688
 1075SOL    MW4 4074   6.082   3.118   5.869 -0.6209 -0.0960 -0.7492
 1076SOL     OW 4075   1.474   0.806   1.596  0.5195  0.5510 -0.1541
 1076SOL    HW2 4076   1.389   0.817   1.639 -0.2785 -0.8962 -1.2464
 1076SOL    HW3 4077   1.503   0.895   1.577 -0.4139  1.0980  0.8476
 1076SOL    MW4 4078   1.467   0.819   1.599 -0.1070 -0.0171  0.4951
 1077SOL     OW 4079   0.450   3.374   1.391 -0.4144  0.3280  0.1397
 1077SOL    HW2 4080   0.380   3.319   1.355  1.5700 -1.6306 -0.9648
 1077SOL    HW3 4081   0.451   3.353   1.484  0.6484 -2.0417 -0.3383
 1077SOL    MW4 4082   0.441   3.364   1.398  0.4475 -0.0356  0.1738
 1078SOL     OW 4083   5.953   3.190   2.175  0.3401  0.1774  0.0608
 1078SOL    HW2 4084   6.012   3.115   2.172  1.3740  0.8148  2.2363
 1078SOL    HW3 4085   5.997   3.257   2.122  1.5408  0.5779  1.4934
 1078SOL    MW4 4086   5.967   3.189   2.168  0.4575  0.3275 -0.5051
 1079SOL     OW 4087   1.919   3.164   0.698  0.1129 -0.0374  0.3831
 1079SOL    HW2 4088   1.829   3.138   0.716 -0.5235  1.1821 -0.8452
 1079SOL    HW3 4089   1.943   3.114   0.620  0.9888 -1.3124  1.4131
 1079SOL    MW4 4090   1.911   3.154   0.690 -0.1666  0.0282 -0.3903
 1080SOL     OW 4091   6.290   1.015   5.784  0.8011 -0.1385  0.0419
 1080SOL    HW2 4092   6.202   1.048   5.766  0.7568 -0.0883  0.3478
 1080SOL    HW3 4093   6.278   0.921   5.798  0.8141 -0.1538 -0.0545
 1080SOL    MW4 4094   6.277   1.007   5.784 -0.0712 -0.2427  1.2673
 1081SOL     OW 4095   3.140   1.634   5.602 -0.1494  0.1780 -0.8136
 1081SOL    HW2 4096   3.221   1.683   5.612 -0.1557  0.1673 -0.7135
 1081SOL    HW3 4097   3.071   1.700   5.602 -0.4295  0.0046  2.2608
 1081SOL    MW4 4098   3.142   1.649   5.603 -0.3156  0.7470 -0.3484
 1082SOL     OW 4099   2.388   1.906   1.100 -0.2815  0.2172  0.1470
 1082SOL    HW2 4100   2.318   1.873   1.044 -1.0775  2.6666 -0.4482
 1082SOL    HW3 4101   2.434   1.828   1.131 -0.4251 -1.2790 -3.0729
 1082SOL    MW4 4102   2.384   1.891   1.097  0.4517 -0.8738  0.2909
 1083SOL     OW 4103   3.106   5.345   4.081  0.7875 -0.2139  0.0993
 1083SOL    HW2 4104   3.180   5.285   4.075  1.0190 -0.1423  1.6248
 1083SOL    HW3 4105   3.044   5.300   4.139 -0.1720 -0.0731 -0.7959
 1083SOL    MW4 4106   3.108   5.331   4.088  0.0625 -0.0052 -0.5801
 1084SOL     OW 4107   2.054   1.181   5.265  0.2920  0.0924 -0.3474
 1084SOL    HW2 4108   1.982   1.160   5.325  1.0109 -2.5034 -0.2669
 1084SOL    HW3 4109   2.011   1.222   5.190 -0.9731  0.6596  0.6368
 1084SOL    MW4 4110   2.039   1.184   5.263  0.5813 -0.2054  0.3939
 1085SOL     OW 4111   4.479   1.557   2.310  0.1920 -0.7020  1.3499
 1085SOL    HW2 4112   4.573   1.575   2.315  0.0585  0.2341  0.8261
 1085SOL    HW3 4113   4.451   1.602   2.230 -0.3723 -2.5466  0.4491
 1085SOL    MW4 4114   4.488   1.565   2.300  0.4380 -0.5017  0.1207
 1086SOL     OW 4115   2.029   3.213   6.305  0.1201  0.3130 -0.4129
 1086SOL    HW2 4116   1.935   3.224   6.320  0.4982  1.7237  1.4788
 1086SOL    HW3 4117   2.054   3.290   6.254  0.4218  0.5475  0.0829
 1086SOL    MW4 4118   2.020   3.225   6.301  0.0365 -0.1213 -0.4658
 1087SOL     OW 4119   5.277   1.871   2.982 -0.3269 -0.4214 -0.4371
 1087SOL    HW2 4120   5.329   1.896   3.059 -1.8720 -2.2825  1.3341
 1087SOL    HW3 4121   5.188   1.861   3.016 -1.3092 -0.1410 -2.7565
 1087SOL    MW4 4122   5.272   1.873   2.997 -0.6972  0.2489 -0.2062
 1088SOL     OW 4123   2.871   3.508   1.769  0.4427  0.3114  0.7541
 1088SOL    HW2 4124   2.964   3.493   1.751  0.9822  1.6497  2.2059
 1088SOL    HW3 4125   2.835   3.420   1.785  1.2803 -0.2841 -0.5202
 1088SOL    MW4 4126   2.878   3.494   1.769 -0.6345  0.1485  0.6340
 1089SOL     OW 4127   1.627   4.393   1.975 -0.4544  0.0085  0.4543
 1089SOL    HW2 4128   1.676   4.332   1.920  0.1757  1.6602 -0.9455
 1089SOL    HW3 4129   1.693   4.439   2.026 -0.4426  2.0005 -1.1840
 1089SOL    MW4 4130   1.642   4.391   1.974 -0.4712  0.1932  0.4954
 1090SOL     OW 4131   1.938   2.533   5.086  0.2228 -0.0744 -0.4719
 1090SOL    HW2 4132   2.001   2.485   5.140 -0.7426 -0.2682  0.5219
 1090SOL    HW3 4133   1.976   2.532   4.998  2.3669  1.1354  0.3437
 1090SOL    MW4 4134   1.951   2.527   5.082  0.3494 -0.6345 -0.0173
 1091SOL     OW 4135   4.922   4.070   4.812 -0.6288 -0.3547 -0.5191
 1091SOL    HW2 4136   4.986   4.040   4.878 -0.8494 -0.5302 -0.3838
 1091SOL    HW3 4137   4.896   3.990   4.767 -0.9373 -0.3153 -0.4103
 1091SOL    MW4 4138   4.927   4.055   4.815 -0.0648  0.0129  0.1913
 1092SOL     OW 4139   0.507   1.619   4.652 -0.4856  0.6166 -0.5145
 1092SOL    HW2 4140   0.429   1.667   4.625 -0.9800 -0.1288 -0.4463
 1092SOL    HW3 4141   0.476   1.559   4.720  0.1313  0.2719 -0.5274
 1092SOL    MW4 4142   0.493   1.617   4.657 -0.0863 -0.2123 -0.2403
 1093SOL     OW 4143   4.036   3.934   4.419 -0.3149  0.6016  0.5623
 1093SOL    HW2 4144   3.982   3.880   4.476 -0.2205  0.4810  0.5365
 1093SOL    HW3 4145   4.033   4.021   4.459 -0.2357  0.5148  0.7602
 1093SOL    MW4 4146   4.028   3.939   4.432  0.0425  0.4720 -0.2049
 1094SOL     OW 4147   2.204   1.798   0.199 -0.2813  0.0517  0.5792
 1094SOL    HW2 4148   2.197   1.740   0.123 -2.5392  0.7523  0.1782
 1094SOL    HW3 4149   2.218   1.885   0.161 -0.5573  0.2803  0.9988
 1094SOL    MW4 4150   2.205   1.802   0.184  0.3138 -0.1183  0.2813
 1095SOL     OW 4151   4.412   5.779   1.547 -0.3759  0.2224  0.5036
 1095SOL    HW2 4152   4.364   5.757   1.467  0.0188 -0.8987  0.5516
 1095SOL    HW3 4153   4.499   5.739   1.535 -0.6948 -1.0295  1.9666
 1095SOL    MW4 4154   4.417   5.771   1.535  0.1345 -0.0939 -0.1472
 1096SOL     OW 4155   2.984  -0.012   1.339 -0.2307 -0.0710 -0.2838
 1096SOL    HW2 4156   3.024   0.073   1.360  2.3836 -1.6273  1.8376
 1096SOL    HW3 4157   2.933  -0.034   1.417 -2.9615  0.5333 -1.7933
 1096SOL    MW4 4158   2.983  -0.004   1.352 -0.1635 -0.1812  0.1840
 1097SOL     OW 4159   6.013   5.419   3.056  0.4013  0.3748  0.1447
 1097SOL    HW2 4160   6.011   5.497   3.000  0.8367  0.2678 -0.0220
 1097SOL    HW3 4161   6.102   5.386   3.049 -0.7416 -2.7312 -3.4403
 1097SOL    MW4 4162   6.024   5.425   3.047 -0.6138 -0.2064 -0.2022
 1098SOL     OW 4163   5.578   1.984   5.301  0.4517 -0.3032 -0.7675
 1098SOL    HW2 4164   5.590   2.022   5.214  3.2324 -0.9370 -0.7807
 1098SOL    HW3 4165   5.555   2.058   5.357 -1.5717  0.0863 -2.0041
 1098SOL    MW4 4166   5.577   1.999   5.296 -0.3239 -0.0829 -0.3351
 1099SOL     OW 4167   0.620   2.846   4.945 -0.4760 -0.2649  0.8675
 1099SOL    HW2 4168   0.677   2.922   4.935 -1.6891  0.4943 -0.7880
 1099SOL    HW3 4169   0.572   2.862   5.026 -0.3349  0.4939  0.8068
 1099SOL    MW4 4170   0.621   2.858   4.954  0.2390 -0.2271  0.2005
 1100SOL     OW 4171   2.001   6.308   1.833  0.2608 -0.2298 -0.5159
 1100SOL    HW2 4172   2.069   6.303   1.767  1.1897  1.6493  0.1953
 1100SOL    HW3 4173   2.048   6.326   1.915 -1.0775  2.1623 -0.1664
 1100SOL    MW4 4174   2.016   6.310   1.835 -0.3872 -0.2532  0.4878
 1101SOL     OW 4175   4.277   0.466   5.320  0.1457  0.2833 -0.2837
 1101SOL    HW2 4176   4.364   0.495   5.348  0.0119  0.6418 -0.2347
 1101SOL    HW3 4177   4.226   0.461   5.400 -0.0329  0.6089 -0.3746
 1101SOL    MW4 4178   4.281   0.470   5.334  0.0586  0.2968 -0.4173
 1102SOL     OW 4179   4.241   5.409   2.232 -0.1256  0.8936  0.4073
 1102SOL    HW2 4180   4.334   5.399   2.210 -0.0249  1.2396  0.6643
 1102SOL    HW3 4181   4.224   5.502   2.225 -0.2151  0.9568  1.2649
 1102SOL    MW4 4182   4.251   5.420   2.228 -0.1906  0.2103  0.0880
 1103SOL     OW 4183   4.627   0.434   1.697 -0.0598  0.0496 -0.0552
 1103SOL    HW2 4184   4.670   0.451   1.614 -0.7554 -0.9430 -0.6284
 1103SOL    HW3 4185   4.534   0.430   1.676 -0.2116 -0.6519  0.6891
 1103SOL    MW4 4186   4.620   0.436   1.683  0.1184 -0.5988 -0.2188
 1104SOL     OW 4187   0.826   2.295   0.758 -0.0816  0.2371 -0.3614
 1104SOL    HW2 4188   0.829   2.365   0.824 -0.8146  1.9565 -2.0534
 1104SOL    HW3 4189   0.750   2.317   0.703  0.3401 -1.2728 -1.6169
 1104SOL    MW4 4190   0.816   2.307   0.759 -0.4840 -0.0347 -0.2978
 1105SOL     OW 4191   5.952   6.030   1.416 -0.4979  0.7200 -0.1502
 1105SOL    HW2 4192   6.031   6.075   1.446 -0.1234 -0.3722  0.5619
 1105SOL    HW3 4193   5.907   6.004   1.496 -1.1768  0.6350 -0.5506
 1105SOL    MW4 4194   5.956   6.033   1.431  0.5278 -0.5388  0.2522
 1106SOL     OW 4195   4.263   1.092   5.817 -0.1905  0.3871 -0.5566
 1106SOL    HW2 4196   4.284   1.184   5.802 -0.2908  0.5640  0.3547
 1106SOL    HW3 4197   4.333   1.044   5.773  0.7787  0.9333  0.3506
 1106SOL    MW4 4198   4.275   1.098   5.809  0.0960  0.1587 -0.4774
 1107SOL     OW 4199   3.450   2.257   2.478 -0.2599 -0.5979 -0.2884
 1107SOL    HW2 4200   3.524   2.197   2.477 -0.3025 -0.6554 -1.3731
 1107SOL    HW3 4201   3.489   2.343   2.493 -0.2532 -0.9351  1.8064
 1107SOL    MW4 4202   3.465   2.261   2.479  0.1258 -0.1642 -0.1315
 1108SOL     OW 4203   1.000   1.293   6.256 -0.4329 -0.1292 -0.0590
 1108SOL    HW2 4204   1.000   1.307   6.162  1.7506  1.2687  0.0985
 1108SOL    HW3 4205   1.051   1.213   6.269  1.8082  1.2309  0.0384
 1108SOL    MW4 4206   1.006   1.284   6.246 -0.4818  0.4106 -0.5041
 1109SOL     OW 4207   2.678   4.701   2.102 -0.3968  0.0302  0.1748
 1109SOL    HW2 4208   2.691   4.751   2.182 -0.2320  0.1321  0.0863
 1109SOL    HW3 4209   2.662   4.611   2.131  1.4747 -0.3182  0.2792
 1109SOL    MW4 4210   2.678   4.696   2.116  0.2491  0.1341  0.3097
 1110SOL     OW 4211   3.267   4.770   4.412  0.1549  0.0731  0.0936
 1110SOL    HW2 4212   3.204   4.827   4.366 -0.2469 -1.4146 -1.2822
 1110SOL    HW3 4213   3.218   4.690   4.431  1.1805 -0.4843  0.4841
 1110SOL    MW4 4214   3.252   4.767   4.409 -0.0245 -0.0236  0.3600
 1111SOL     OW 4215   5.516   4.120   0.873  0.0029 -0.3584  0.1715
 1111SOL    HW2 4216   5.595   4.113   0.818  0.4256 -0.6506  0.8124
 1111SOL    HW3 4217   5.526   4.052   0.939 -1.4831 -1.3521 -0.5757
 1111SOL    MW4 4218   5.528   4.110   0.874 -0.4695  0.1790 -0.4638
 1112SOL     OW 4219   1.759   6.357   6.273 -0.5519  0.7301  0.4697
 1112SOL    HW2 4220   1.852   6.377   6.286 -0.4720  2.1857 -1.7515
 1112SOL    HW3 4221   1.713   6.422   6.326 -0.2486  1.6385 -0.3283
 1112SOL    MW4 4222   1.765   6.369   6.281  0.4620 -0.1363 -0.0543
 1113SOL     OW 4223   6.178   5.313   3.490 -0.8110 -0.5049 -0.8797
 1113SOL    HW2 4224   6.228   5.247   3.441  0.2189  0.1259 -0.7032
 1113SOL    HW3 4225   6.244   5.376   3.520 -1.2241 -1.3434  2.1650
 1113SOL    MW4 4226   6.194   5.313   3.488  0.3735 -0.2173 -0.5225
 1114SOL     OW 4227   5.500   0.260   5.897 -0.4470  0.0348  0.2029
 1114SOL    HW2 4228   5.523   0.351   5.878  0.5439 -0.4406 -1.0547
 1114SOL    HW3 4229   5.525   0.247   5.989  4.0523 -0.2349 -0.8246
 1114SOL    MW4 4230   5.506   0.270   5.907  0.0176  0.5863  0.0518
 1115SOL     OW 4231   4.467   0.094   2.433 -0.0267 -0.6113  0.2823
 1115SOL    HW2 4232   4.446   0.007   2.467  0.9867 -1.1476 -0.4033
 1115SOL    HW3 4233   4.390   0.120   2.383 -0.3459 -1.1000  0.5167
 1115SOL    MW4 4234   4.454   0.086   2.431  0.1655  0.2437 -0.0679
 1116SOL     OW 4235   4.746   5.943   3.511  0.1538 -0.4302 -0.1940
 1116SOL    HW2 4236   4.700   6.012   3.463  0.8425  0.6962  0.7118
 1116SOL    HW3 4237   4.838   5.967   3.505  0.2621 -0.2064  1.7029
 1116SOL    MW4 4238   4.752   5.955   3.504  0.3983 -0.3717 -0.4045
 1117SOL     OW 4239   3.671   6.184   4.275 -0.2243  0.0804 -0.1280
 1117SOL    HW2 4240   3.636   6.130   4.205 -2.1523 -1.2699  1.7276
 1117SOL    HW3 4241   3.599   6.243   4.298  0.5559  0.8627  0.3803
 1117SOL    MW4 4242   3.657   6.185   4.269 -0.5902 -0.6354 -0.2289
 1118SOL     OW 4243   0.231   5.694   5.306  0.0999  0.3383 -0.3940
 1118SOL    HW2 4244   0.311   5.700   5.254  0.8643 -1.4452  0.4879
 1118SOL    HW3 4245   0.161   5.686   5.242  0.3334  3.6135 -1.2451
 1118SOL    MW4 4246   0.232   5.694   5.291  0.5285  0.1273 -0.1546
 1119SOL     OW 4247   4.349   2.840   4.676 -0.2276 -0.3097  0.3619
 1119SOL    HW2 4248   4.324   2.838   4.584  3.1191  0.5384 -0.7285
 1119SOL    HW3 4249   4.445   2.840   4.674  0.0028 -1.8802  3.9255
 1119SOL    MW4 4250   4.358   2.839   4.664  0.2363  0.3427  0.3962
 1120SOL     OW 4251   2.925   4.748   5.922 -0.1516  0.5253  0.3269
 1120SOL    HW2 4252   2.832   4.752   5.940 -0.0584 -0.9915  1.3280
 1120SOL    HW3 4253   2.964   4.816   5.976 -0.5071 -0.0900  1.3827
 1120SOL    MW4 4254   2.918   4.757   5.932 -0.6360  0.0457 -0.1102
 1121SOL     OW 4255   2.802   2.730   0.737  0.4073 -0.1638 -0.4568
 1121SOL    HW2 4256   2.877   2.687   0.778 -0.9162  0.0006  2.3280
 1121SOL    HW3 4257   2.727   2.674   0.756 -1.0322  2.2420  1.5694
 1121SOL    MW4 4258   2.802   2.717   0.745  0.2023  0.1704  0.4088
 1122SOL     OW 4259   6.252   0.766   6.085  0.2080  0.5591  0.1564
 1122SOL    HW2 4260   6.167   0.792   6.122 -0.7324 -0.0193 -1.4849
 1122SOL    HW3 4261   6.233   0.750   5.992  2.5747  2.5682 -0.7634
 1122SOL    MW4 4262   6.238   0.767   6.078 -0.0361 -0.3265 -0.0991
 1123SOL     OW 4263   0.175   1.387   0.463  0.6606  0.1490  0.4068
 1123SOL    HW2 4264   0.150   1.479   0.467 -0.1417 -0.0168 -0.5785
 1123SOL    HW3 4265   0.259   1.387   0.417  0.4657  0.3496  0.0529
 1123SOL    MW4 4266   0.183   1.399   0.458 -0.2024  0.3013  0.1360
 1124SOL     OW 4267   0.579   5.075   2.128  0.7527 -0.2275  0.1545
 1124SOL    HW2 4268   0.514   5.131   2.171  1.0319  1.0019 -0.9698
 1124SOL    HW3 4269   0.555   4.986   2.155 -0.2282  0.3508  1.2845
 1124SOL    MW4 4270   0.567   5.071   2.137 -0.2027 -0.1128 -0.3197
 1125SOL     OW 4271   0.119   5.218   3.996  0.0380 -0.3644  0.2132
 1125SOL    HW2 4272   0.076   5.133   4.005  0.3957 -0.4419  1.4149
 1125SOL    HW3 4273   0.211   5.200   4.011  0.6494 -0.2834 -2.8195
 1125SOL    MW4 4274   0.125   5.205   3.999  0.0170  0.4684 -0.2933
 1126SOL     OW 4275   1.688   5.590   6.304  0.5232  0.3448 -0.5539
 1126SOL    HW2 4276   1.686   5.616   6.212 -0.3935  0.7818 -0.4231
 1126SOL    HW3 4277   1.666   5.670   6.352 -1.2515 -0.3895 -0.0872
 1126SOL    MW4 4278   1.685   5.604   6.298 -0.1426 -0.1689 -0.5880
 1127SOL     OW 4279   2.897   5.977   4.789 -0.5212 -0.0143 -0.0219
 1127SOL    HW2 4280   2.843   5.936   4.721  0.4130  1.3690 -1.6807
 1127SOL    HW3 4281   2.835   6.024   4.844 -1.2738 -0.9740 -0.0228
 1127SOL    MW4 4282   2.882   5.978   4.787  0.1773  1.1558  0.1842
 1128SOL     OW 4283   0.389   2.808   2.810  0.4210 -0.4380 -0.0295
 1128SOL    HW2 4284   0.301   2.825   2.844  0.5508 -1.1414  0.6977
 1128SOL    HW3 4285   0.436   2.891   2.819 -0.3565  0.1378 -1.0616
 1128SOL    MW4 4286   0.384   2.821   2.816  0.2452 -0.0149 -0.2519
 1129SOL     OW 4287   2.342   4.758   5.162  0.5644  0.1690  0.5301
 1129SOL    HW2 4288   2.252   4.781   5.183  0.0780 -1.1400 -0.0586
 1129SOL    HW3 4289   2.383   4.744   5.248 -0.3785 -1.3048  0.7856
 1129SOL    MW4 4290   2.336   4.759   5.176  0.9695 -0.2027  0.2844
 1130SOL     OW 4291   0.309   1.816   6.208 -0.0539 -0.3574  0.2753
 1130SOL    HW2 4292   0.291   1.850   6.121  1.5367 -0.9263 -0.3078
 1130SOL    HW3 4293   0.405   1.815   6.215 -0.1054 -1.7633  1.4243
 1130SOL    MW4 4294   0.319   1.820   6.198 -0.0402  0.0418  0.0969
 1131SOL     OW 4295   3.230   1.429   4.517  0.1141 -0.0057  0.1164
 1131SOL    HW2 4296   3.295   1.489   4.553  0.6473 -0.3859 -0.2011
 1131SOL    HW3 4297   3.150   1.481   4.511  0.5603  0.6686 -0.1151
 1131SOL    MW4 4298   3.228   1.444   4.521 -0.1128  0.8066  0.2749
 1132SOL     OW 4299   4.537   0.880   2.272  0.6693  0.7970 -0.1414
 1132SOL    HW2 4300   4.460   0.844   2.229  2.7265 -0.5758 -3.0060
 1132SOL    HW3 4301   4.510   0.893   2.363 -2.7366 -0.0288 -0.8962
 1132SOL    MW4 4302   4.523   0.877   2.278 -0.4187  0.2298  0.5757
 1133SOL     OW 4303   5.535   3.148   5.707  0.2949 -0.4749  0.1537
 1133SOL    HW2 4304   5.567   3.237   5.722  0.6495 -0.6072  0.1913
 1133SOL    HW3 4305   5.583   3.117   5.630 -0.0759 -0.5134 -0.0667
 1133SOL    MW4 4306   5.545   3.156   5.699 -0.3585 -0.0832 -0.6835
 1134SOL     OW 4307   2.994   4.258   4.869 -0.3085 -0.6974  0.0056
 1134SOL    HW2 4308   3.002   4.336   4.924 -2.2212 -0.5673  0.1741
 1134SOL    HW3 4309   3.082   4.221   4.867  0.5252  1.1453  0.3754
 1134SOL    MW4 4310   3.007   4.263   4.876  0.1818  0.1130 -0.0037
 1135SOL     OW 4311   3.660   0.141   3.881 -0.3021 -0.5018 -0.2844
 1135SOL    HW2 4312   3.657   0.053   3.919 -0.3875 -0.9544 -1.3123
 1135SOL    HW3 4313   3.582   0.184   3.916 -0.7699 -1.1503 -0.4912
 1135SOL    MW4 4314   3.649   0.135   3.891 -0.3929 -0.2144 -0.1079
 1136SOL     OW 4315   0.831   3.438   1.185 -0.0438  0.1296 -0.0486
 1136SOL    HW2 4316   0.804   3.528   1.205  2.2874  1.3726 -1.9715
 1136SOL    HW3 4317   0.804   3.425   1.094  0.8722 -0.5773 -0.2292
 1136SOL    MW4 4318   0.824   3.449   1.176 -0.5694 -0.0530 -0.2576
 1137SOL     OW 4319   2.291   1.671   2.617  0.5540  0.0656 -0.1762
 1137SOL    HW2 4320   2.275   1.705   2.705 -0.5688  0.5594 -0.5568
 1137SOL    HW3 4321   2.325   1.745   2.568 -0.9825  0.4398 -0.7457
 1137SOL    MW4 4322   2.293   1.685   2.622 -0.6305 -0.1899 -0.0512
 1138SOL     OW 4323   4.620   3.247   3.393 -0.2662 -0.3871 -0.1964
 1138SOL    HW2 4324   4.541   3.263   3.342  0.2417 -1.2516 -1.3232
 1138SOL    HW3 4325   4.606   3.293   3.476 -1.5826  0.1570 -0.6967
 1138SOL    MW4 4326   4.608   3.255   3.397  0.3076  0.0050  0.2316
 1139SOL     OW 4327   4.899   1.981   1.251  0.3515 -0.4903  0.1041
 1139SOL    HW2 4328   4.982   1.939   1.229  0.5326  0.5148 -1.3094
 1139SOL    HW3 4329   4.846   1.912   1.290  2.3301 -0.8253  2.4199
 1139SOL    MW4 4330   4.903   1.967   1.253  0.3495  0.6854 -0.0180
 1140SOL     OW 4331   4.054   2.242   3.272  0.2398  0.1229  0.5095
 1140SOL    HW2 4332   4.059   2.334   3.247 -1.5071  0.4335  1.1239
 1140SOL    HW3 4333   3.961   2.220   3.262  0.3473 -1.1096  1.9035
 1140SOL    MW4 4334   4.042   2.251   3.267 -0.1643  0.2845  0.2056
 1141SOL     OW 4335   4.275   5.226   0.518 -0.1895 -0.4220 -0.6439
 1141SOL    HW2 4336   4.204   5.246   0.579  0.4555  0.2707 -0.1107
 1141SOL    HW3 4337   4.335   5.300   0.525  0.3754 -0.7919 -1.4139
 1141SOL    MW4 4338   4.273   5.238   0.527  0.0893 -0.5289  0.3667
 1142SOL     OW 4339   3.541   5.370   5.031  0.2851 -0.3907 -0.2399
 1142SOL    HW2 4340   3.595   5.305   5.076  0.1377  0.5161  1.3447
 1142SOL    HW3 4341   3.463   5.322   5.005  0.4305 -0.9910  0.3884
 1142SOL    MW4 4342   3.538   5.355   5.034 -0.0819 -0.2357  0.3513
 1143SOL     OW 4343   1.025   2.630   2.150 -0.7199 -0.0985  0.1585
 1143SOL    HW2 4344   1.006   2.723   2.142 -0.4160 -0.0301  0.2346
 1143SOL    HW3 4345   1.018   2.611   2.243 -0.8839 -0.1753  0.1317
 1143SOL    MW4 4346   1.021   2.640   2.161 -0.2883 -0.1359  0.3157
 1144SOL     OW 4347   2.486   2.208   1.091 -0.0265 -0.0894 -0.1531
 1144SOL    HW2 4348   2.459   2.118   1.111  0.0227 -0.6693 -2.4451
 1144SOL    HW3 4349   2.519   2.241   1.174 -0.6369 -1.9635  0.9180
 1144SOL    MW4 4350   2.487   2.200   1.105 -0.0137 -0.0091 -0.0797
 1145SOL     OW 4351   2.361   3.318   2.833  0.5050  0.3432  0.1723
 1145SOL    HW2 4352   2.337   3.229   2.857 -3.7431  1.1176 -0.3742
 1145SOL    HW3 4353   2.366   3.366   2.916  0.1813  0.1329  0.3122
 1145SOL    MW4 4354   2.359   3.313   2.847  0.1943 -0.4589 -0.4607
 1146SOL     OW 4355   6.424   1.637   4.584 -0.1040 -0.5651 -0.3442
 1146SOL    HW2 4356   6.338   1.600   4.601 -0.2683  0.1263  0.4341
 1146SOL    HW3 4357   6.447   1.608   4.496 -1.5637  0.0365 -0.9458
 1146SOL    MW4 4358   6.416   1.629   4.575 -0.1603  0.0944 -0.0556
 1147SOL     OW 4359   2.609   4.654   1.326  0.2741  0.2232  0.4446
 1147SOL    HW2 4360   2.631   4.733   1.375  1.5831 -0.4221  0.9534
 1147SOL    HW3 4361   2.619   4.583   1.389 -0.4308 -0.4043 -0.1227
 1147SOL    MW4 4362   2.613   4.655   1.341  1.0363 -0.1251 -0.4665
 1148SOL     OW 4363   3.143   0.579   0.530  0.6012 -0.6195  0.4793
 1148SOL    HW2 4364   3.132   0.660   0.480  1.0488 -0.5951  0.4172
 1148SOL    HW3 4365   3.096   0.513   0.478  0.1754 -0.3908  0.5666
 1148SOL    MW4 4366   3.135   0.581   0.517 -0.3103  0.8268  0.1183
 1149SOL     OW 4367   4.381   1.587   1.715 -0.5498 -0.1849  0.3620
 1149SOL    HW2 4368   4.445   1.654   1.693  0.6159 -1.3623 -0.0210
 1149SOL    HW3 4369   4.303   1.635   1.743  1.1612  1.3346  2.9378
 1149SOL    MW4 4370   4.379   1.602   1.716  0.0333  0.7493  0.7773
 1150SOL     OW 4371   1.538   5.493   0.560 -0.1003 -0.2475 -0.0265
 1150SOL    HW2 4372   1.506   5.544   0.486  0.1482  1.1160  0.7728
 1150SOL    HW3 4373   1.512   5.543   0.637  0.4341 -1.1772  0.7876
 1150SOL    MW4 4374   1.530   5.506   0.561 -0.2624 -0.2969  0.2928
 1151SOL     OW 4375   0.283   4.621   1.120 -0.1033 -0.4048  0.1814
 1151SOL    HW2 4376   0.316   4.532   1.130  1.1795  0.1078  0.6631
 1151SOL    HW3 4377   0.302   4.664   1.203  3.1749  1.5113 -1.3306
 1151SOL    MW4 4378   0.290   4.615   1.132  0.5415 -0.3911  0.0403
 1152SOL     OW 4379   1.443   6.047   4.735  0.0144  0.2483  0.3616
 1152SOL    HW2 4380   1.478   6.065   4.647 -0.5058 -2.0414 -0.4029
 1152SOL    HW3 4381   1.512   6.075   4.795  1.6656 -0.8248 -0.9418
 1152SOL    MW4 4382   1.456   6.053   4.731 -0.0923 -0.6828 -0.0769
 1153SOL     OW 4383   5.606   5.057   5.277 -0.5937  0.5459  0.7768
 1153SOL    HW2 4384   5.595   5.003   5.356  1.3096 -0.5774  0.3223
 1153SOL    HW3 4385   5.576   5.144   5.304 -2.0567 -0.2847  2.0583
 1153SOL    MW4 4386   5.600   5.061   5.291 -0.3184  0.3597  0.3183
 1154SOL     OW 4387   0.216   6.106   3.536  0.4299 -0.3034  0.4529
 1154SOL    HW2 4388   0.188   6.128   3.625  0.3390 -0.6774  0.5156
 1154SOL    HW3 4389   0.184   6.179   3.483 -1.5501 -1.1870  0.3582
 1154SOL    MW4 4390   0.208   6.119   3.541  0.6299 -0.0515 -0.3118
 1155SOL     OW 4391   0.215   6.214   4.144  0.0664  0.0238  0.7191
 1155SOL    HW2 4392   0.147   6.210   4.076 -0.0961 -0.0157  0.8841
 1155SOL    HW3 4393   0.212   6.128   4.185  0.2047  0.0289  0.7392
 1155SOL    MW4 4394   0.206   6.202   4.140 -0.2817 -0.0447 -0.1256
 1156SOL     OW 4395   0.116   4.397   4.614  0.3557 -0.3966 -0.4537
 1156SOL    HW2 4396   0.112   4.354   4.699  0.1658  1.6656  0.6463
 1156SOL    HW3 4397   0.186   4.462   4.624  1.0044 -0.7741 -2.2221
 1156SOL    MW4 4398   0.125   4.400   4.627 -0.2234  0.2738 -0.0334
 1157SOL     OW 4399   4.126   2.198   4.535 -0.8002  0.1830  0.2494
 1157SOL    HW2 4400   4.155   2.121   4.486  0.1562  1.5391 -1.4237
 1157SOL    HW3 4401   4.134   2.171   4.627  2.2577 -0.8312 -0.1795
 1157SOL    MW4 4402   4.131   2.184   4.540  0.2093  0.7184 -0.3785
 1158SOL     OW 4403   0.380   4.939   3.966  0.0683  0.3677 -0.3897
 1158SOL    HW2 4404   0.450   4.959   3.904 -0.1353  0.2125 -0.6683
 1158SOL    HW3 4405   0.301   4.930   3.912 -0.2639  1.0172 -0.0355
 1158SOL    MW4 4406   0.379   4.941   3.951 -1.0853 -0.1566 -0.0112
 1159SOL     OW 4407   5.375   4.810   5.334  0.4539 -0.5789  0.1116
 1159SOL    HW2 4408   5.370   4.760   5.253  1.2853  1.4169 -1.2433
 1159SOL    HW3 4409   5.467   4.805   5.360  0.2596 -0.9225  0.7585
 1159SOL    MW4 4410   5.387   4.803   5.327  0.2835  0.6020 -0.5137
 1160SOL     OW 4411   0.079   5.762   4.463 -0.2214 -0.1770 -0.4693
 1160SOL    HW2 4412   0.127   5.742   4.544 -0.3187  0.0327 -0.3585
 1160SOL    HW3 4413   0.104   5.692   4.402 -0.6397 -0.6902 -0.0574
 1160SOL    MW4 4414   0.089   5.750   4.466 -0.3380 -0.7823  0.0185
 1161SOL     OW 4415   3.137   5.675   6.113 -0.0210 -0.4790  0.0379
 1161SOL    HW2 4416   3.166   5.592   6.073 -1.0084 -0.6307 -0.4081
 1161SOL    HW3 4417   3.169   5.742   6.053  1.0859 -0.5069  0.5852
 1161SOL    MW4 4418   3.145   5.673   6.100 -0.5450 -0.1944  0.2092
 1162SOL     OW 4419   1.015   4.085   2.730  0.8428 -0.3324  0.7281
 1162SOL    HW2 4420   0.939   4.133   2.763  1.0368  0.1694  0.4610
 1162SOL    HW3 4421   1.014   4.002   2.778  0.3068 -0.2030  0.9497
 1162SOL    MW4 4422   1.005   4.080   2.740 -0.1917  0.2011  0.5296
 1163SOL     OW 4423   2.129   2.922   6.253  0.0929 -0.1968 -0.3739
 1163SOL    HW2 4424   2.077   3.002   6.258  1.0424  0.4015  0.3594
 1163SOL    HW3 4425   2.124   2.883   6.340  0.3006 -0.5031 -0.4944
 1163SOL    MW4 4426   2.122   2.927   6.265 -0.5904  0.4952  0.0731
 1164SOL     OW 4427   4.307   1.988   2.503 -0.1069  0.3255 -0.1228
 1164SOL    HW2 4428   4.352   1.958   2.423 -0.4462  2.0109 -0.9907
 1164SOL    HW3 4429   4.362   2.060   2.535 -1.1953  1.1993 -0.1688
 1164SOL    MW4 4430   4.320   1.994   2.497 -0.0339  0.4069  0.5694
 1165SOL     OW 4431   5.416   1.614   3.157  0.0985 -0.5479 -0.2309
 1165SOL    HW2 4432   5.468   1.538   3.184  0.8140  0.7748  2.5578
 1165SOL    HW3 4433   5.328   1.597   3.191  0.1688 -0.3173  0.0745
 1165SOL    MW4 4434   5.411   1.602   3.165 -0.6275 -0.2976 -0.1770
 1166SOL     OW 4435   4.239   3.921   0.144  0.1403  0.0510 -0.1549
 1166SOL    HW2 4436   4.203   3.890   0.061 -0.3538  0.1711  0.0141
 1166SOL    HW3 4437   4.326   3.954   0.122  0.2294 -0.4336 -0.5283
 1166SOL    MW4 4438   4.246   3.921   0.131 -0.6658  0.1646  0.1879
 1167SOL     OW 4439   3.768   4.530   1.031 -0.4629 -0.3512  0.3682
 1167SOL    HW2 4440   3.699   4.533   1.098 -1.5642 -1.3731 -0.6699
 1167SOL    HW3 4441   3.754   4.446   0.987 -1.0111  1.0830 -2.3995
 1167SOL    MW4 4442   3.757   4.519   1.034 -0.4796 -0.0899 -0.1119
 1168SOL     OW 4443   6.021   2.599   4.974 -0.6853 -0.1811 -0.1440
 1168SOL    HW2 4444   6.091   2.577   4.912 -0.7395  0.2192 -0.3485
 1168SOL    HW3 4445   6.005   2.517   5.021  0.6438 -0.0287  0.6432
 1168SOL    MW4 4446   6.028   2.585   4.972 -0.1058  0.0515  0.0727
 1169SOL     OW 4447   3.076   3.822   4.169  0.3955 -0.5204 -0.1797
 1169SOL    HW2 4448   3.155   3.856   4.212  0.2858 -0.7440  0.1966
 1169SOL    HW3 4449   3.005   3.879   4.200  0.2574 -0.9144  0.2273
 1169SOL    MW4 4450   3.077   3.834   4.179  0.0802  0.0880 -0.3006
 1170SOL     OW 4451   3.222   0.950   2.977  0.1550  0.1167  0.0962
 1170SOL    HW2 4452   3.196   0.859   2.989 -2.5023  0.7649 -0.0229
 1170SOL    HW3 4453   3.243   0.981   3.065  2.6068 -0.9313 -0.0362
 1170SOL    MW4 4454   3.221   0.942   2.990 -0.5145  0.5317 -0.1663
 1171SOL     OW 4455   6.102   6.397   5.282 -0.1886 -0.1413 -0.0506
 1171SOL    HW2 4456   6.110   6.304   5.306  1.5767 -1.5670 -4.8275
 1171SOL    HW3 4457   6.193   6.428   5.278 -0.4232  0.4414 -2.4367
 1171SOL    MW4 4458   6.115   6.389   5.285 -0.5166 -0.4200 -0.3128
 1172SOL     OW 4459   4.287   3.931   2.485  0.5216  0.2844  0.7429
 1172SOL    HW2 4460   4.218   3.865   2.472  0.6330  0.1441  0.8583
 1172SOL    HW3 4461   4.303   3.967   2.397  0.8275 -0.2117  0.5911
 1172SOL    MW4 4462   4.280   3.927   2.471 -0.3135 -0.1752  0.1225
 1173SOL     OW 4463   2.162   3.779   0.564 -0.5285  0.1107  0.3196
 1173SOL    HW2 4464   2.206   3.710   0.513  0.4361  1.7908 -1.2599
 1173SOL    HW3 4465   2.223   3.799   0.635 -0.9628 -0.8475  0.9874
 1173SOL    MW4 4466   2.176   3.773   0.566 -0.5206  0.6811 -0.0864
 1174SOL     OW 4467   3.496   0.166   5.153  0.0246 -0.3490  0.2797
 1174SOL    HW2 4468   3.421   0.111   5.177 -0.0150  0.5607  2.4879
 1174SOL    HW3 4469   3.505   0.155   5.058 -1.5786 -2.1083  0.2750
 1174SOL    MW4 4470   3.488   0.157   5.144  0.2045  0.0550 -0.4915
 1175SOL     OW 4471   3.248   5.233   5.369 -0.2827  0.1021 -0.7460
 1175SOL    HW2 4472   3.269   5.165   5.304 -0.7198 -0.8034  0.0297
 1175SOL    HW3 4473   3.204   5.185   5.439 -0.7466  1.2340 -0.2544
 1175SOL    MW4 4474   3.245   5.218   5.370  0.1307  0.0012  0.2133
 1176SOL     OW 4475   4.265   4.647   2.702  0.3206  0.5361 -0.2573
 1176SOL    HW2 4476   4.289   4.740   2.701  2.7581 -0.0131 -0.4446
 1176SOL    HW3 4477   4.325   4.608   2.766 -1.2201 -0.8121  0.4289
 1176SOL    MW4 4478   4.276   4.654   2.710 -0.0552  0.1849  0.5777
 1177SOL     OW 4479   4.765   1.059   5.683  0.3716 -0.3059 -0.0216
 1177SOL    HW2 4480   4.768   1.121   5.756 -0.3579 -0.0941 -0.1589
 1177SOL    HW3 4481   4.793   1.110   5.607  0.8468 -0.4464  0.0595
 1177SOL    MW4 4482   4.769   1.074   5.683  0.1383 -0.1025  0.5499
 1178SOL     OW 4483   5.571   5.580   5.019 -0.0789  0.7897 -0.3533
 1178SOL    HW2 4484   5.558   5.674   5.036 -0.4335  0.8000 -0.6697
 1178SOL    HW3 4485   5.666   5.567   5.026 -0.2200  0.7088  2.0432
 1178SOL    MW4 4486   5.582   5.591   5.022 -0.1212 -0.1453 -0.3860
 1179SOL     OW 4487   0.046   4.919   5.283 -0.3264  0.0043  0.3100
 1179SOL    HW2 4488   0.082   4.959   5.204  0.4641  2.1496  1.6802
 1179SOL    HW3 4489   0.118   4.867   5.318 -0.7111 -1.0359 -0.3983
 1179SOL    MW4 4490   0.060   4.917   5.277  0.4020  0.0392  0.3898
 1180SOL     OW 4491   5.164   1.679   1.972  0.3698 -0.1927  0.3764
 1180SOL    HW2 4492   5.153   1.709   2.062 -2.4917 -1.3316  0.5213
 1180SOL    HW3 4493   5.139   1.587   1.975 -0.2285 -0.1359 -1.6415
 1180SOL    MW4 4494   5.159   1.671   1.984  0.4510 -0.1232 -1.0910
 1181SOL     OW 4495   0.956   3.253   3.754  0.3686  0.1127  0.0729
 1181SOL    HW2 4496   1.048   3.277   3.741  0.2671  1.5818  1.7685
 1181SOL    HW3 4497   0.915   3.269   3.669  1.8375 -1.5971 -1.0368
 1181SOL    MW4 4498   0.963   3.258   3.741 -0.3905  0.5351  0.0281
 1182SOL     OW 4499   2.047   5.022   1.285  0.1715 -0.5368  0.8267
 1182SOL    HW2 4500   2.118   5.050   1.227 -2.1001  0.0635 -1.9236
 1182SOL    HW3 4501   1.980   4.988   1.225 -2.3989  0.1876  3.0997
 1182SOL    MW4 4502   2.047   5.021   1.269  0.0563  0.1149  0.3243
 1183SOL     OW 4503   6.436   1.383   5.072 -0.2031  0.1635 -0.2462
 1183SOL    HW2 4504   6.412   1.346   5.157  1.2518 -1.1784 -0.3601
 1183SOL    HW3 4505   6.392   1.328   5.008 -0.7358  0.7400 -0.3825
 1183SOL    MW4 4506   6.427   1.371   5.075  0.1683 -0.1512 -0.0933
 1184SOL     OW 4507   6.205   5.703   3.574 -0.6837  0.1106 -0.5362
 1184SOL    HW2 4508   6.239   5.787   3.603 -1.9747  0.2027  0.8892
 1184SOL    HW3 4509   6.200   5.709   3.479  1.9121  0.5514 -0.7212
 1184SOL    MW4 4510   6.209   5.715   3.565  0.5843 -0.1146 -0.0923
 1185SOL     OW 4511   0.173   2.586   2.837 -0.0692 -0.0365 -0.4901
 1185SOL    HW2 4512   0.136   2.501   2.814  0.7954 -0.2595 -1.1113
 1185SOL    HW3 4513   0.110   2.624   2.899 -1.7051 -0.0973 -2.0283
 1185SOL    MW4 4514   0.160   2.580   2.842 -0.6223 -0.1747 -0.0990
 1186SOL     OW 4515   2.831   0.990   0.829  0.5400 -0.0351  0.1772
 1186SOL    HW2 4516   2.818   0.899   0.857  2.0955  0.3632  2.4986
 1186SOL    HW3 4517   2.917   0.989   0.786 -0.1485  0.1059 -1.2968
 1186SOL    MW4 4518   2.841   0.978   0.827 -0.0304 -0.1892  0.4644
 1187SOL     OW 4519   4.032   1.473   3.548 -0.6342 -0.6325 -0.0065
 1187SOL    HW2 4520   4.064   1.560   3.569 -2.0831 -0.2878  0.9214
 1187SOL    HW3 4521   3.962   1.457   3.611  0.1674 -2.8339  0.4084
 1187SOL    MW4 4522   4.027   1.482   3.559 -0.8751  0.0492  0.5964
 1188SOL     OW 4523   0.188   1.596   0.166  0.0883  0.3802  0.0840
 1188SOL    HW2 4524   0.230   1.682   0.152  0.4677  0.0561 -0.8555
 1188SOL    HW3 4525   0.261   1.537   0.185 -0.1111  0.1422  0.1077
 1188SOL    MW4 4526   0.203   1.600   0.166  0.2734  0.1425  0.6429
 1189SOL     OW 4527   5.379   1.788   4.849 -0.1345  0.7849  0.2885
 1189SOL    HW2 4528   5.417   1.703   4.828 -1.0698 -0.1009  2.0227
 1189SOL    HW3 4529   5.379   1.835   4.766 -0.3671 -1.2139 -0.9052
 1189SOL    MW4 4530   5.384   1.783   4.835 -0.7126 -0.6675 -0.3060
 1190SOL     OW 4531   3.120   1.184   4.420 -0.0329  0.8004 -0.4448
 1190SOL    HW2 4532   3.153   1.240   4.490 -1.6939 -0.0699  1.1242
 1190SOL    HW3 4533   3.116   1.240   4.343  3.2064  1.4328 -0.2992
 1190SOL    MW4 4534   3.124   1.199   4.419  0.0042 -0.3208  0.4618
 1191SOL     OW 4535   4.775   1.002   6.116  0.0228  0.1233 -0.6799
 1191SOL    HW2 4536   4.861   0.960   6.126 -0.3922 -0.5377  0.3218
 1191SOL    HW3 4537   4.755   1.036   6.204 -0.7895  0.1700 -0.8775
 1191SOL    MW4 4538   4.784   1.001   6.129  0.3579 -0.3108 -0.5166
 1192SOL     OW 4539   5.939   1.151   3.452  0.2779 -0.1954 -0.0295
 1192SOL    HW2 4540   6.025   1.184   3.478  1.5923 -2.4688 -1.1763
 1192SOL    HW3 4541   5.934   1.064   3.491 -0.6744 -0.8533 -1.5111
 1192SOL    MW4 4542   5.949   1.144   3.460  0.0951  0.3236  0.0634
 1193SOL     OW 4543   0.675   6.019   0.053  0.4029  0.2062  0.1966
 1193SOL    HW2 4544   0.653   5.929   0.077 -0.4242  0.2508 -0.3609
 1193SOL    HW3 4545   0.731   6.010  -0.024 -0.5726  0.1923 -0.5224
 1193SOL    MW4 4546   0.680   6.006   0.046 -0.4135 -0.2907 -0.2474
 1194SOL     OW 4547   4.396   5.574   4.231  0.2280  0.0266 -0.1570
 1194SOL    HW2 4548   4.401   5.616   4.145  0.4605 -2.9245 -1.7126
 1194SOL    HW3 4549   4.470   5.611   4.280  0.2661  1.5542 -1.2697
 1194SOL    MW4 4550   4.406   5.585   4.226  0.1043 -0.5232  0.7802
 1195SOL     OW 4551   5.052   2.654   0.156 -0.9811 -0.6451 -0.6779
 1195SOL    HW2 4552   5.059   2.741   0.116 -1.1245 -1.1771 -1.9164
 1195SOL    HW3 4553   5.038   2.671   0.249  2.3834  0.6401 -0.2794
 1195SOL    MW4 4554   5.051   2.668   0.163 -0.3539 -0.5305  0.2386
 1196SOL     OW 4555   1.616   6.349   0.672  0.0404 -0.0938 -0.2987
 1196SOL    HW2 4556   1.620   6.270   0.618 -0.0559 -1.0062  0.9800
 1196SOL    HW3 4557   1.699   6.393   0.656  0.5776 -1.0375 -0.1935
 1196SOL    MW4 4558   1.627   6.344   0.663  0.1593 -0.2237  0.4128
 1197SOL     OW 4559   0.755   3.342   1.976 -0.5311  0.6011 -0.0126
 1197SOL    HW2 4560   0.680   3.337   2.035 -0.4528 -0.0156  0.0489
 1197SOL    HW3 4561   0.775   3.250   1.956 -0.4075  0.7920 -0.8087
 1197SOL    MW4 4562   0.748   3.329   1.981  0.1100  0.0977  0.4085
 1198SOL     OW 4563   0.887   3.651   4.874  0.4698 -0.3461 -0.5181
 1198SOL    HW2 4564   0.814   3.704   4.905  0.2392 -1.7068  1.4624
 1198SOL    HW3 4565   0.864   3.627   4.785 -2.2595 -1.9577  0.5226
 1198SOL    MW4 4566   0.875   3.655   4.867 -0.5129  0.6958  0.5868
 1199SOL     OW 4567   4.364   1.846   3.697 -0.5677 -0.2841  0.3477
 1199SOL    HW2 4568   4.388   1.822   3.607 -3.3231  0.0971 -0.5759
 1199SOL    HW3 4569   4.373   1.941   3.700 -2.5222 -0.0536 -0.2399
 1199SOL    MW4 4570   4.368   1.855   3.686 -0.3790  0.0982  0.0500
 1200SOL     OW 4571   5.143   5.143   5.884  0.0181 -0.2921 -0.3729
 1200SOL    HW2 4572   5.235   5.162   5.905 -0.1752  1.2867 -0.7641
 1200SOL    HW3 4573   5.135   5.165   5.792 -0.2950 -2.4199 -0.8905
 1200SOL    MW4 4574   5.154   5.149   5.875  0.0217  0.5009  0.0175
 1201SOL     OW 4575   4.333   4.673   1.098 -0.0759 -0.1408  0.1371
 1201SOL    HW2 4576   4.314   4.705   1.010 -0.2565  0.8516  0.5302
 1201SOL    HW3 4577   4.256   4.620   1.121 -0.4312  0.3297  0.0432
 1201SOL    MW4 4578   4.320   4.670   1.089  0.2360 -0.2354  0.3611
 1202SOL     OW 4579   5.700   4.788   3.291 -0.0381  0.5017  0.0607
 1202SOL    HW2 4580   5.630   4.818   3.348  1.2372  1.6281  1.1206
 1202SOL    HW3 4581   5.701   4.851   3.219  1.9465  2.6019  1.7427
 1202SOL    MW4 4582   5.691   4.800   3.289 -0.0431 -0.4862 -0.1018
 1203SOL     OW 4583   3.784   5.544   3.636  0.1501  0.2260  0.5308
 1203SOL    HW2 4584   3.710   5.584   3.681 -0.6309  0.0203 -0.5397
 1203SOL    HW3 4585   3.832   5.617   3.598 -0.3152  0.2634  0.0143
 1203SOL    MW4 4586   3.781   5.559   3.637  0.5159  0.2511 -0.2612
 1204SOL     OW 4587   3.407   3.545   3.374  0.2578 -0.6447  0.6453
 1204SOL    HW2 4588   3.438   3.558   3.463 -0.9324 -0.1533  1.0169
 1204SOL    HW3 4589   3.468   3.595   3.319 -1.0550  2.1455  1.5466
 1204SOL    MW4 4590   3.419   3.553   3.378 -0.2312 -0.3292 -0.0304
 1205SOL     OW 4591   4.872   3.660   5.831 -0.0798  0.7770 -0.1696
 1205SOL    HW2 4592   4.942   3.721   5.854 -0.3439  0.6990  0.9207
 1205SOL    HW3 4593   4.892   3.631   5.742  0.4362  1.9067 -0.4295
 1205SOL    MW4 4594   4.884   3.664   5.822 -0.0723  0.0385  0.3728
 1206SOL     OW 4595   4.136   3.062   0.813  0.0840 -0.0680 -0.6999
 1206SOL    HW2 4596   4.152   3.050   0.906  0.9939  1.2574 -0.6635
 1206SOL    HW3 4597   4.062   3.005   0.794 -0.5093  0.0948  0.9597
 1206SOL    MW4 4598   4.128   3.053   0.823  0.2838  0.1285 -0.0823
 1207SOL     OW 4599   1.052   0.365   1.701 -0.2907 -0.3722  0.3897
 1207SOL    HW2 4600   1.104   0.289   1.727  0.6573  0.0567 -0.2060
 1207SOL    HW3 4601   1.001   0.386   1.779 -2.5757 -3.1650 -0.1752
 1207SOL    MW4 4602   1.052   0.358   1.715  0.1542  0.6021 -0.0871
 1208SOL     OW 4603   0.296   5.441   4.533  0.0388 -0.1157 -0.2569
 1208SOL    HW2 4604   0.270   5.438   4.441  1.5565  2.5923 -0.8926
 1208SOL    HW3 4605   0.280   5.531   4.560  0.9331 -0.4720  1.7261
 1208SOL    MW4 4606   0.291   5.452   4.525  0.5429 -0.2173 -0.2644
 1209SOL     OW 4607   0.531   5.989   0.979 -0.1209  0.5374 -0.1206
 1209SOL    HW2 4608   0.493   6.069   1.016 -0.1640  0.5589 -0.2105
 1209SOL    HW3 4609   0.457   5.930   0.968 -0.3574  1.0534 -1.5446
 1209SOL    MW4 4610   0.516   5.992   0.983 -0.6528  0.5460  0.0059
 1210SOL     OW 4611   0.637   6.257   4.227  0.0110  0.4549 -0.1261
 1210SOL    HW2 4612   0.575   6.198   4.185  0.5768  0.5811 -1.1852
 1210SOL    HW3 4613   0.694   6.286   4.156  0.3870  1.4638  0.5622
 1210SOL    MW4 4614   0.636   6.253   4.212 -0.4633  0.5574 -0.3623
 1211SOL     OW 4615   6.238   5.549   6.103  0.1728  0.3708 -0.3697
 1211SOL    HW2 4616   6.308   5.602   6.139  0.6889  0.3585 -1.3316
 1211SOL    HW3 4617   6.160   5.604   6.108  0.6911  1.2191 -1.3122
 1211SOL    MW4 4618   6.237   5.563   6.108 -0.3682 -0.2347 -0.3093
 1212SOL     OW 4619   4.427   5.580   6.319  0.6436 -0.0686 -0.6021
 1212SOL    HW2 4620   4.427   5.604   6.227  1.9291  0.8049 -0.3963
 1212SOL    HW3 4621   4.340   5.605   6.350  0.3442  0.0018 -1.4719
 1212SOL    MW4 4622   4.415   5.586   6.311  0.0128  0.0686 -0.0419
 1213SOL     OW 4623   1.638   1.737   1.475 -0.5119  0.0939  0.0783
 1213SOL    HW2 4624   1.699   1.787   1.422 -1.0925 -0.4185 -1.1054
 1213SOL    HW3 4625   1.608   1.798   1.542  0.6896  0.5729  0.2078
 1213SOL    MW4 4626   1.642   1.751   1.477  0.0889  0.0184 -0.2162
 1214SOL     OW 4627   3.343   1.207   0.028 -0.1430  0.0187 -0.7548
 1214SOL    HW2 4628   3.272   1.188   0.090  0.4918 -1.9340 -0.5597
 1214SOL    HW3 4629   3.411   1.143   0.049  0.9531  0.6836 -2.1181
 1214SOL    MW4 4630   3.342   1.196   0.039 -0.2118 -0.1695 -0.2468
 1215SOL     OW 4631   1.382   4.246   3.595 -0.0701  0.4887  0.1865
 1215SOL    HW2 4632   1.434   4.315   3.554  1.5388 -1.5498 -1.4184
 1215SOL    HW3 4633   1.380   4.269   3.688  1.1274  2.2249 -0.1700
 1215SOL    MW4 4634   1.388   4.258   3.602  0.3874  0.5147 -0.6298
 1216SOL     OW 4635   2.908  -0.006   0.607  0.3323 -0.2671 -0.8572
 1216SOL    HW2 4636   2.921  -0.095   0.638 -0.2707  0.1457  0.6699
 1216SOL    HW3 4637   2.958  -0.001   0.526 -0.9763 -2.4716 -1.8769
 1216SOL    MW4 4638   2.917  -0.017   0.601  0.1134  0.7827 -0.1950
 1217SOL     OW 4639   2.037   0.915   3.669 -0.1734 -0.4178  0.3960
 1217SOL    HW2 4640   1.941   0.909   3.670 -0.5026  0.7557 -3.5246
 1217SOL    HW3 4641   2.055   0.990   3.611  3.1386 -0.6488  0.9384
 1217SOL    MW4 4642   2.026   0.924   3.661 -0.5190  0.4273 -0.3809
 1218SOL     OW 4643   4.398   1.893   2.265 -0.0257  0.3585 -0.1554
 1218SOL    HW2 4644   4.338   1.962   2.236 -1.8658 -1.4818 -0.9489
 1218SOL    HW3 4645   4.394   1.827   2.196 -0.0378 -1.5360  1.5588
 1218SOL    MW4 4646   4.390   1.894   2.252 -0.3772  0.4703 -0.2828
 1219SOL     OW 4647   1.308   6.218   2.539 -0.0111  0.3925  0.0731
 1219SOL    HW2 4648   1.381   6.262   2.583 -0.9294 -0.3038  2.4645
 1219SOL    HW3 4649   1.344   6.191   2.455  2.4413  0.2699  1.0605
 1219SOL    MW4 4650   1.322   6.220   2.534 -0.4135  0.0259  0.0623
 1220SOL     OW 4651   2.472   0.784   2.335 -0.2868 -0.2055 -0.2342
 1220SOL    HW2 4652   2.549   0.757   2.386  0.3110  1.6642 -0.0806
 1220SOL    HW3 4653   2.400   0.784   2.399  0.1038  0.4610  0.2134
 1220SOL    MW4 4654   2.473   0.780   2.350  0.3503 -0.7395 -0.4432
 1221SOL     OW 4655   5.152   0.421   4.925 -0.3699  0.0817 -0.4658
 1221SOL    HW2 4656   5.103   0.389   5.001  0.4252  0.2706  0.1465
 1221SOL    HW3 4657   5.244   0.403   4.947 -0.0937  0.6038 -1.1665
 1221SOL    MW4 4658   5.158   0.414   4.938  0.0109  0.1658  0.7078
 1222SOL     OW 4659   1.522   5.570   2.255 -0.6448  0.3792  0.0228
 1222SOL    HW2 4660   1.585   5.640   2.238 -0.6259  0.5859  0.8645
 1222SOL    HW3 4661   1.463   5.572   2.179 -2.0221  2.8687  1.0152
 1222SOL    MW4 4662   1.522   5.580   2.243 -0.3203 -0.8554 -0.3827
 1223SOL     OW 4663   1.133   4.175   2.323  0.2731  0.1406 -0.1796
 1223SOL    HW2 4664   1.191   4.240   2.363 -0.8135  0.4381  0.9953
 1223SOL    HW3 4665   1.044   4.206   2.344 -0.4126  0.5206 -3.1801
 1223SOL    MW4 4666   1.129   4.188   2.331  0.2996 -0.3719 -0.0428
 1224SOL     OW 4667   5.127   0.220   0.342 -0.1928 -0.2140 -0.1824
 1224SOL    HW2 4668   5.217   0.237   0.371 -0.2601 -0.3121  0.0826
 1224SOL    HW3 4669   5.137   0.150   0.277  0.2191  1.5758 -2.1724
 1224SOL    MW4 4670   5.141   0.213   0.337 -0.2267 -0.3750  0.2244
 1225SOL     OW 4671   4.523   3.158   4.626  0.1927  0.1099  0.2892
 1225SOL    HW2 4672   4.480   3.137   4.709 -2.0420  1.2758 -0.4918
 1225SOL    HW3 4673   4.499   3.248   4.609  0.9676  0.0267 -1.4480
 1225SOL    MW4 4674   4.514   3.167   4.635 -0.2282 -0.8019 -0.3923
 1226SOL     OW 4675   2.819   1.669   4.080  0.3285  0.0698  0.2185
 1226SOL    HW2 4676   2.899   1.666   4.134  0.1298  0.2755  0.5288
 1226SOL    HW3 4677   2.750   1.693   4.142 -0.2562 -1.6114  0.2815
 1226SOL    MW4 4678   2.821   1.671   4.096  0.5635  0.0913 -0.2010
 1227SOL     OW 4679   2.334   1.949   5.083 -0.5695 -0.2436 -0.0757
 1227SOL    HW2 4680   2.339   1.948   5.178  0.1090  0.8973 -0.0741
 1227SOL    HW3 4681   2.404   2.010   5.056 -1.3362  0.1530 -1.2548
 1227SOL    MW4 4682   2.344   1.957   5.092  0.4169 -0.2456  0.2528
 1228SOL     OW 4683   5.081   6.395   1.837 -0.1131  0.1223  0.3719
 1228SOL    HW2 4684   5.046   6.307   1.852 -1.0801  0.6180  1.1518
 1228SOL    HW3 4685   5.019   6.436   1.776  0.9473 -0.0925 -0.8986
 1228SOL    MW4 4686   5.068   6.389   1.831  0.4640  0.0958 -0.2127
 1229SOL     OW 4687   4.748   3.052   5.864  0.3390  0.4390  0.7063
 1229SOL    HW2 4688   4.820   3.072   5.805  1.7544 -1.1137  1.8195
 1229SOL    HW3 4689   4.701   2.980   5.821 -0.1628  0.9795  0.3217
 1229SOL    MW4 4690   4.751   3.045   5.850  0.5810  0.1497 -0.1125
 1230SOL     OW 4691   0.159   3.570   6.089 -0.1206  0.1126  0.0535
 1230SOL    HW2 4692   0.192   3.533   6.171 -0.2892 -0.6404 -0.2102
 1230SOL    HW3 4693   0.098   3.504   6.056  0.3321  0.1728 -0.9340
 1230SOL    MW4 4694   0.155   3.556   6.096 -0.1588 -0.0831  0.4908
 1231SOL     OW 4695   3.998   5.366   3.295  0.3603 -0.2681 -0.1436
 1231SOL    HW2 4696   4.079   5.388   3.341  0.6782  4.1579 -2.2381
 1231SOL    HW3 4697   3.942   5.326   3.362  3.1988 -0.8203  2.0919
 1231SOL    MW4 4698   4.001   5.364   3.310  0.3558 -0.0723 -0.5509
 1232SOL     OW 4699   4.115   5.050   4.888 -0.3854 -0.2262 -0.2309
 1232SOL    HW2 4700   4.187   4.997   4.923  1.5374  0.5158 -2.6886
 1232SOL    HW3 4701   4.098   5.115   4.956  1.0379 -0.6554  0.5951
 1232SOL    MW4 4702   4.122   5.051   4.901 -0.1453  0.1725 -0.3021
 1233SOL     OW 4703   0.124   3.240   5.446  0.1135 -0.0820 -0.0400
 1233SOL    HW2 4704   0.136   3.335   5.438  0.6505 -0.1242  0.1829
 1233SOL    HW3 4705   0.035   3.224   5.415  0.6084  0.2704 -1.7738
 1233SOL    MW4 4706   0.114   3.251   5.441  0.3660 -0.6362 -0.0189
 1234SOL     OW 4707   6.396   2.388   0.198 -0.4292  0.1270 -0.2882
 1234SOL    HW2 4708   6.381   2.321   0.132 -2.8518  0.7320 -0.4373
 1234SOL    HW3 4709   6.327   2.453   0.183 -0.9491  0.4156  2.6775
 1234SOL    MW4 4710   6.385   2.388   0.188 -0.1408 -0.0212  0.9008
 1235SOL     OW 4711   2.594   5.651   2.728 -0.2396  0.3888 -0.1481
 1235SOL    HW2 4712   2.579   5.558   2.717  0.2209  0.1801  0.8464
 1235SOL    HW3 4713   2.669   5.671   2.672  0.9631 -0.2776  1.1593
 1235SOL    MW4 4714   2.602   5.642   2.719  0.1918  0.7734  0.0186
 1236SOL     OW 4715   4.104   5.738   0.548  0.7345  0.5880  0.4907
 1236SOL    HW2 4716   4.078   5.788   0.471  1.9355  0.0231 -0.3135
 1236SOL    HW3 4717   4.073   5.649   0.531 -0.0606  0.7082  1.2263
 1236SOL    MW4 4718   4.096   5.733   0.536 -0.0568  0.2593 -0.3382
 1237SOL     OW 4719   1.433   2.767   4.316 -0.1671 -0.0301 -0.6739
 1237SOL    HW2 4720   1.457   2.733   4.229  1.3033  0.0942 -0.3422
 1237SOL    HW3 4721   1.475   2.707   4.377 -0.4658  0.3901 -0.0539
 1237SOL    MW4 4722   1.442   2.754   4.312  0.1072 -0.2456  0.5600
 1238SOL     OW 4723   2.663   6.391   4.031 -0.3954 -0.0269  0.3320
 1238SOL    HW2 4724   2.631   6.301   4.025  1.8218 -0.7855 -1.4476
 1238SOL    HW3 4725   2.648   6.416   4.122 -0.7940 -2.3037  0.9554
 1238SOL    MW4 4726   2.657   6.382   4.042  0.8467  0.4589 -0.1191
 1239SOL     OW 4727   1.547   4.829   4.920  0.1500  0.1677 -0.3229
 1239SOL    HW2 4728   1.606   4.802   4.849 -1.4016 -0.2001 -1.5394
 1239SOL    HW3 4729   1.576   4.778   4.995 -0.3834 -2.2503 -1.6419
 1239SOL    MW4 4730   1.558   4.818   4.920 -0.3275 -0.2598 -0.4271
 1240SOL     OW 4731   3.073   3.152   4.638  0.0635  0.3065 -0.2269
 1240SOL    HW2 4732   3.109   3.159   4.550 -0.2338  0.6226 -0.3282
 1240SOL    HW3 4733   3.077   3.241   4.672  0.6516  0.0952  0.2730
 1240SOL    MW4 4734   3.078   3.165   4.631 -0.0605 -0.1886 -0.6721
 1241SOL     OW 4735   2.446   2.408   2.199  0.4632  0.2594 -0.4120
 1241SOL    HW2 4736   2.413   2.325   2.234  1.9541 -1.1565 -2.1197
 1241SOL    HW3 4737   2.531   2.420   2.241  0.1503  1.0596  0.0026
 1241SOL    MW4 4738   2.453   2.399   2.209  0.0061 -0.1546 -0.1587
 1242SOL     OW 4739   3.488   5.923   0.424  0.0433 -0.0727  0.2236
 1242SOL    HW2 4740   3.583   5.912   0.430  0.9968  2.5383 -4.5737
 1242SOL    HW3 4741   3.465   5.885   0.339 -2.8974  0.8925  0.4853
 1242SOL    MW4 4742   3.497   5.917   0.413 -0.2071 -0.4788  0.2204
 1243SOL     OW 4743   3.824   4.982   3.030  0.0833  0.0938  0.4929
 1243SOL    HW2 4744   3.757   4.992   3.098 -0.2225 -0.6251  0.2979
 1243SOL    HW3 4745   3.796   5.040   2.960 -0.5623 -0.5148  0.2393
 1243SOL    MW4 4746   3.812   4.991   3.030  0.1425 -0.4747  0.1978
 1244SOL     OW 4747   4.318   5.625   3.107  0.1806 -0.3288  0.5780
 1244SOL    HW2 4748   4.399   5.632   3.056  1.0667 -0.3743  1.9149
 1244SOL    HW3 4749   4.308   5.531   3.123  0.0283 -0.2970  0.6694
 1244SOL    MW4 4750   4.328   5.614   3.102  0.0763 -0.2431  0.0626
 1245SOL     OW 4751   4.077   3.876   3.504  0.0987  0.3424  0.1874
 1245SOL    HW2 4752   4.032   3.845   3.425 -0.3055  1.6604 -0.1211
 1245SOL    HW3 4753   4.018   3.942   3.540  0.0067 -0.6266  1.9311
 1245SOL    MW4 4754   4.063   3.880   3.499  0.1389  0.0235 -0.5377
 1246SOL     OW 4755   0.450   2.554   3.571  0.6069 -0.2981 -0.2733
 1246SOL    HW2 4756   0.436   2.603   3.490 -0.6533  1.7364  1.0663
 1246SOL    HW3 4757   0.467   2.464   3.543 -2.1690 -0.2027 -2.7298
 1246SOL    MW4 4758   0.451   2.549   3.557  0.7627  0.1831  0.6914
 1247SOL     OW 4759   1.868   4.980   0.239 -0.1980 -0.0812  1.1689
 1247SOL    HW2 4760   1.909   4.957   0.323  0.9598 -1.2602  0.3067
 1247SOL    HW3 4761   1.918   5.057   0.209 -3.0076  2.8483  3.2537
 1247SOL    MW4 4762   1.880   4.987   0.247  0.2282  0.4189 -0.3983
 1248SOL     OW 4763   0.259   4.969   1.985 -0.0750  0.1936  0.2117
 1248SOL    HW2 4764   0.230   5.055   1.953  0.4379 -0.2141 -1.4485
 1248SOL    HW3 4765   0.279   4.983   2.078  0.7430  2.0688 -0.2061
 1248SOL    MW4 4766   0.258   4.982   1.993  0.7136 -0.1632  0.4007
 1249SOL     OW 4767   6.033   4.630   0.173 -0.3847  0.4541  0.1261
 1249SOL    HW2 4768   6.088   4.697   0.214 -0.8227  0.0484  1.4198
 1249SOL    HW3 4769   6.039   4.554   0.231 -1.0675 -0.1407 -0.5438
 1249SOL    MW4 4770   6.041   4.628   0.186  0.1623 -0.1022 -0.1043
 1250SOL     OW 4771   0.457   5.360   1.620  0.2061 -0.1870  0.1559
 1250SOL    HW2 4772   0.454   5.270   1.588  3.3381 -0.2199 -0.2845
 1250SOL    HW3 4773   0.381   5.402   1.579 -0.7798 -2.3517 -0.3888
 1250SOL    MW4 4774   0.446   5.354   1.610 -0.2665  0.1861 -0.5634
 1251SOL     OW 4775   5.689   6.193   0.358  0.0657 -0.1216 -0.0151
 1251SOL    HW2 4776   5.666   6.134   0.429  0.1270 -2.7157 -1.9804
 1251SOL    HW3 4777   5.607   6.237   0.335 -0.0789  0.2717  1.2258
 1251SOL    MW4 4778   5.675   6.191   0.364  0.3045  0.3723  0.0791
 1252SOL     OW 4779   0.729   3.146   4.282 -0.2800  0.1052  0.3185
 1252SOL    HW2 4780   0.779   3.107   4.211 -1.5640 -0.8044 -0.1287
 1252SOL    HW3 4781   0.640   3.150   4.249 -0.5617  1.4571  1.1769
 1252SOL    MW4 4782   0.724   3.141   4.268  0.2011  0.3149  1.0918
 1253SOL     OW 4783   3.436   1.983   1.051 -0.0629 -0.5018  0.3887
 1253SOL    HW2 4784   3.443   2.012   1.142 -2.0809  2.9093 -0.3685
 1253SOL    HW3 4785   3.520   2.006   1.013 -1.3502  4.9319 -0.0648
 1253SOL    MW4 4786   3.448   1.990   1.058 -0.3078 -0.0142  0.3308
 1254SOL     OW 4787   3.699   2.572   3.685  0.3410 -0.0179 -0.8396
 1254SOL    HW2 4788   3.737   2.514   3.620 -0.2204 -0.0508 -1.1466
 1254SOL    HW3 4789   3.604   2.566   3.670  0.2617  0.7845 -0.7171
 1254SOL    MW4 4790   3.691   2.564   3.674  0.4494 -0.2693 -0.6487
 1255SOL     OW 4791   0.967   4.014   5.502  0.7003  0.1099  0.1122
 1255SOL    HW2 4792   1.051   3.971   5.514  1.0908  0.6623 -0.5232
 1255SOL    HW3 4793   0.915   3.989   5.578  1.6726  0.3074  0.8577
 1255SOL    MW4 4794   0.971   4.005   5.513 -0.0529 -0.3550  0.0963
 1256SOL     OW 4795   5.172   0.513   2.753 -0.6491  0.5964  0.4505
 1256SOL    HW2 4796   5.206   0.426   2.775 -0.6622  0.7423  1.0634
 1256SOL    HW3 4797   5.198   0.527   2.662 -0.8234 -0.1324  0.2870
 1256SOL    MW4 4798   5.180   0.504   2.744  0.1289 -0.1680  0.1888
 1257SOL     OW 4799   5.836   1.526   1.539 -0.1957  0.2826  0.4129
 1257SOL    HW2 4800   5.803   1.563   1.457 -0.8786  0.4331  0.7491
 1257SOL    HW3 4801   5.882   1.598   1.582 -0.7638  0.5046  0.6573
 1257SOL    MW4 4802   5.838   1.540   1.533 -0.0200 -0.3068 -0.2135
 1258SOL     OW 4803   0.510   3.706   1.315 -0.3675 -0.0078 -0.0091
 1258SOL    HW2 4804   0.505   3.613   1.338  0.9420 -0.2955 -0.7740
 1258SOL    HW3 4805   0.454   3.750   1.380 -0.3471 -1.2301  0.8774
 1258SOL    MW4 4806   0.502   3.699   1.327  0.2415  0.0757  0.5331
 1259SOL     OW 4807   1.755   0.128   4.816 -0.7628  0.2763  0.7325
 1259SOL    HW2 4808   1.737   0.219   4.792 -1.3799 -0.3374 -1.3337
 1259SOL    HW3 4809   1.720   0.076   4.743  1.7176 -1.4988  0.6612
 1259SOL    MW4 4810   1.748   0.133   4.803 -0.8002 -0.3871 -0.4279
 1260SOL     OW 4811   0.031   4.739   0.053  0.5246  0.4367 -0.2951
 1260SOL    HW2 4812  -0.020   4.658   0.057  2.1390 -0.5694  1.6126
 1260SOL    HW3 4813   0.082   4.732  -0.027 -1.8217  1.2318 -1.9780
 1260SOL    MW4 4814   0.031   4.727   0.043  0.1704  0.0691 -0.7027
 1261SOL     OW 4815   1.679   1.880   4.097 -0.0373  0.5667 -0.1682
 1261SOL    HW2 4816   1.771   1.904   4.089  0.1742  0.1187  0.7898
 1261SOL    HW3 4817   1.663   1.877   4.192 -0.4021 -1.6735 -0.2368
 1261SOL    MW4 4818   1.689   1.883   4.109 -0.3167  0.1719  0.6267
 1262SOL     OW 4819   0.017   4.856   0.695  0.0882 -0.0526  0.0855
 1262SOL    HW2 4820  -0.025   4.773   0.669 -0.6376  0.6048 -0.9186
 1262SOL    HW3 4821   0.001   4.861   0.789  1.1816 -1.6198  0.3957
 1262SOL    MW4 4822   0.009   4.845   0.704 -0.0254 -0.4076  0.3305
 1263SOL     OW 4823   4.281   4.213   6.255  0.2932 -0.3756  0.0883
 1263SOL    HW2 4824   4.309   4.165   6.332 -0.0158 -0.6537  0.0307
 1263SOL    HW3 4825   4.187   4.225   6.267  0.1914 -0.6750 -0.3796
 1263SOL    MW4 4826   4.272   4.208   6.267 -0.3166  0.1655  0.2041
 1264SOL     OW 4827   0.410   3.684   3.807 -0.2013  0.3948 -0.3089
 1264SOL    HW2 4828   0.423   3.760   3.863 -0.4019 -0.3413  0.7658
 1264SOL    HW3 4829   0.449   3.611   3.856  0.1080 -0.1754 -1.3717
 1264SOL    MW4 4830   0.417   3.684   3.821 -0.1729 -0.4397 -0.0715
 1265SOL     OW 4831   1.369   0.332   2.988  0.3830 -0.1217  0.2912
 1265SOL    HW2 4832   1.433   0.319   3.058 -0.2275  3.1536  1.6518
 1265SOL    HW3 4833   1.415   0.384   2.922 -0.0399 -0.2880 -0.1471
 1265SOL    MW4 4834   1.384   0.337   2.988 -0.2152 -0.7339  0.5019
 1266SOL     OW 4835   2.788   1.509   2.843 -0.4467 -0.0279 -0.2320
 1266SOL    HW2 4836   2.833   1.481   2.763 -0.4629 -1.8110  0.3400
 1266SOL    HW3 4837   2.702   1.537   2.814  0.0262  0.6840 -0.9950
 1266SOL    MW4 4838   2.783   1.509   2.828 -0.4183  0.7228 -0.4162
 1267SOL     OW 4839   0.492   0.496   1.012 -0.5966 -0.2394 -0.1714
 1267SOL    HW2 4840   0.530   0.440   1.080  0.5274 -0.5093 -0.9910
 1267SOL    HW3 4841   0.548   0.482   0.936 -1.3400  0.6926 -0.9105
 1267SOL    MW4 4842   0.504   0.487   1.011  0.2503 -0.1787 -0.4068
 1268SOL     OW 4843   6.220   5.269   6.030  0.3296  0.0350  0.4956
 1268SOL    HW2 4844   6.216   5.343   6.090  0.0332 -0.4061  1.0223
 1268SOL    HW3 4845   6.248   5.195   6.083 -0.3558 -0.4587  0.1960
 1268SOL    MW4 4846   6.223   5.269   6.045 -0.2098  0.1484 -1.0282
 1269SOL     OW 4847   4.724   2.398   4.780  0.1833 -0.0747 -0.8517
 1269SOL    HW2 4848   4.684   2.338   4.716 -1.3912  0.5907 -0.5436
 1269SOL    HW3 4849   4.810   2.419   4.744 -0.4460 -0.1682 -2.4617
 1269SOL    MW4 4850   4.730   2.393   4.767 -0.5218  0.2968  0.1913
 1270SOL     OW 4851   6.156   4.265   6.025  0.2502 -0.2320  0.2971
 1270SOL    HW2 4852   6.247   4.233   6.025  0.0979 -0.7573 -0.9582
 1270SOL    HW3 4853   6.164   4.360   6.018  0.7142 -0.2938 -0.0852
 1270SOL    MW4 4854   6.169   4.273   6.024  0.3062 -0.4177 -0.7427
 1271SOL     OW 4855   2.936   4.220   2.500  0.4017  0.0257 -0.2850
 1271SOL    HW2 4856   2.855   4.182   2.468 -0.2634  1.3756 -0.2472
 1271SOL    HW3 4857   2.961   4.165   2.575 -0.8851  0.0607  0.1859
 1271SOL    MW4 4858   2.929   4.207   2.506  0.5158 -0.3322 -0.7127
 1272SOL     OW 4859   1.335   2.864   5.553  0.2504 -0.3146  0.4469
 1272SOL    HW2 4860   1.359   2.949   5.590  1.0682  0.3066 -1.4095
 1272SOL    HW3 4861   1.394   2.802   5.597  2.0352  0.5642 -0.5859
 1272SOL    MW4 4862   1.346   2.867   5.564  0.4043 -0.0910 -0.6782
 1273SOL     OW 4863   1.845   2.659   3.926 -0.0807  0.7993 -0.1737
 1273SOL    HW2 4864   1.829   2.654   4.020  1.1332  2.5131  0.1669
 1273SOL    HW3 4865   1.844   2.568   3.896 -1.0245  0.2685  1.3797
 1273SOL    MW4 4866   1.843   2.646   3.934 -0.2239  0.1643  0.4345
 1274SOL     OW 4867   2.843   3.761   3.027 -0.2580  0.1040  0.0203
 1274SOL    HW2 4868   2.896   3.838   3.047  1.0682 -0.9991  0.9422
 1274SOL    HW3 4869   2.897   3.711   2.966 -0.2260 -1.0033  0.9192
 1274SOL    MW4 4870   2.857   3.764   3.022  0.4125  0.1791 -0.3452
 1275SOL     OW 4871   2.036   6.317   6.298  0.1027  0.6109  0.1843
 1275SOL    HW2 4872   2.032   6.260   6.375  1.4779  1.1740  0.7050
 1275SOL    HW3 4873   2.112   6.286   6.249 -1.3637 -0.4296 -1.5658
 1275SOL    MW4 4874   2.045   6.305   6.302  0.4288 -0.6424 -0.5896
 1276SOL     OW 4875   5.187   3.404   6.065 -0.4255  0.6195  0.3516
 1276SOL    HW2 4876   5.184   3.403   5.969  1.6082 -0.9296  0.2202
 1276SOL    HW3 4877   5.110   3.354   6.093 -0.3897  0.0554 -0.5322
 1276SOL    MW4 4878   5.177   3.397   6.056 -0.4148  0.4079  0.3107
 1277SOL     OW 4879   4.773   4.817   6.266  0.1567 -0.1594  0.0539
 1277SOL    HW2 4880   4.803   4.848   6.180  1.4005  0.6694  0.7464
 1277SOL    HW3 4881   4.763   4.723   6.256  0.5598 -0.1098 -0.9158
 1277SOL    MW4 4882   4.775   4.809   6.253  0.0617  0.2723  0.1060
 1278SOL     OW 4883   3.664   4.871   1.199  0.1071  0.3438  0.0222
 1278SOL    HW2 4884   3.666   4.886   1.105  1.9740 -0.5512 -0.1181
 1278SOL    HW3 4885   3.575   4.894   1.225 -0.0062  2.0775 -1.6904
 1278SOL    MW4 4886   3.652   4.876   1.190 -0.6140  0.0183 -0.3877
 1279SOL     OW 4887   2.853   2.771   5.499 -0.7948  0.1349 -0.2708
 1279SOL    HW2 4888   2.903   2.850   5.479 -1.4819  0.5590 -0.3331
 1279SOL    HW3 4889   2.919   2.701   5.501 -0.1547  0.7356 -0.0112
 1279SOL    MW4 4890   2.868   2.772   5.496  0.2530 -0.1016  0.2800
 1280SOL     OW 4891   3.501   4.545   1.148  0.0471  0.2321 -0.9324
 1280SOL    HW2 4892   3.469   4.608   1.213  0.8079  0.4990 -0.8025
 1280SOL    HW3 4893   3.431   4.539   1.083 -1.2953 -0.9756  0.5172
 1280SOL    MW4 4894   3.487   4.552   1.148  0.1965  0.3458  0.2944
 1281SOL     OW 4895   4.378   1.205   4.383 -0.5694  0.2968  0.2208
 1281SOL    HW2 4896   4.448   1.141   4.389  0.0184  0.8248 -0.7808
 1281SOL    HW3 4897   4.298   1.153   4.385 -0.1155 -0.4131  0.0607
 1281SOL    MW4 4898   4.376   1.190   4.384  0.1564  0.0095  0.5069
 1282SOL     OW 4899   6.402   1.470   2.696 -0.6789 -0.0936  0.3984
 1282SOL    HW2 4900   6.377   1.380   2.678 -1.5425  0.0851  0.6563
 1282SOL    HW3 4901   6.433   1.469   2.787 -1.5034  0.0115  0.6963
 1282SOL    MW4 4902   6.403   1.458   2.706 -0.3475 -0.0465 -0.0452
 1283SOL     OW 4903   2.651   2.689   0.146 -0.1643  0.3186  0.1950
 1283SOL    HW2 4904   2.725   2.642   0.108  0.8145 -0.6452  3.0121
 1283SOL    HW3 4905   2.688   2.771   0.180 -0.9311  1.0136 -0.5796
 1283SOL    MW4 4906   2.665   2.694   0.146  0.1274 -0.0484  0.1782
 1284SOL     OW 4907   0.457   0.920   0.074 -0.1711  0.1899 -0.3980
 1284SOL    HW2 4908   0.451   0.988   0.006 -0.5419  0.7510  0.1790
 1284SOL    HW3 4909   0.365   0.900   0.095 -0.1753 -2.6070 -2.6015
 1284SOL    MW4 4910   0.444   0.926   0.068 -0.0514 -0.1019 -0.1077
 1285SOL     OW 4911   1.534   1.637   0.279  0.1519  0.2431  0.0833
 1285SOL    HW2 4912   1.484   1.564   0.243 -0.0687  0.4850 -0.1013
 1285SOL    HW3 4913   1.583   1.598   0.351 -0.9006  0.1541  0.7787
 1285SOL    MW4 4914   1.534   1.622   0.284  0.0740 -0.1969 -0.4453
 1286SOL     OW 4915   5.076   3.313   1.760 -0.1819 -0.1687 -0.6035
 1286SOL    HW2 4916   5.016   3.385   1.781 -0.5606 -1.2612  2.6662
 1286SOL    HW3 4917   5.163   3.346   1.780 -0.3648 -0.5811  0.9917
 1286SOL    MW4 4918   5.079   3.327   1.766  0.0583  0.3073  0.1076
 1287SOL     OW 4919   1.228   4.124   0.051  0.0222 -0.6620 -0.4675
 1287SOL    HW2 4920   1.227   4.031   0.074 -0.7709 -0.9647 -1.6365
 1287SOL    HW3 4921   1.144   4.157   0.082  0.2873 -0.3404 -0.0898
 1287SOL    MW4 4922   1.217   4.116   0.058 -0.4179  0.0618  0.0248
 1288SOL     OW 4923   6.076   0.627   5.501  0.4013 -0.2364  0.3171
 1288SOL    HW2 4924   6.051   0.702   5.447  0.7881  1.2533  2.1186
 1288SOL    HW3 4925   5.994   0.584   5.522  0.1577 -0.2265 -0.5662
 1288SOL    MW4 4926   6.062   0.631   5.497  0.1087  0.5980  0.0366
 1289SOL     OW 4927   4.361   5.287   4.264  0.9486  0.3954  0.2656
 1289SOL    HW2 4928   4.383   5.378   4.279  0.7378  0.2560  1.5364
 1289SOL    HW3 4929   4.444   5.240   4.272  1.5072  0.6951 -2.8111
 1289SOL    MW4 4930   4.375   5.293   4.267  0.5414  0.1671 -0.6897
 1290SOL     OW 4931   0.844   1.370   5.627 -1.1186  0.6072 -0.0814
 1290SOL    HW2 4932   0.836   1.356   5.533  1.0370  0.9649 -0.3844
 1290SOL    HW3 4933   0.817   1.287   5.666  2.0118 -1.1761 -1.3067
 1290SOL    MW4 4934   0.840   1.357   5.620  0.1744 -0.1738 -0.0256
 1291SOL     OW 4935   1.744   3.292   5.114 -0.1288  0.3993 -0.1751
 1291SOL    HW2 4936   1.753   3.374   5.066  2.2479 -0.1586 -0.8220
 1291SOL    HW3 4937   1.785   3.227   5.058  0.3323 -0.7730  1.4464
 1291SOL    MW4 4938   1.751   3.294   5.100 -0.0355  0.2679  0.1470
 1292SOL     OW 4939   3.731   6.145   3.484  0.4641 -0.1089  0.0174
 1292SOL    HW2 4940   3.699   6.218   3.431 -1.1914 -1.6407 -1.2318
 1292SOL    HW3 4941   3.701   6.164   3.573  1.9612  1.7465  0.2008
 1292SOL    MW4 4942   3.723   6.157   3.489  0.3759  0.1468  0.0137
 1293SOL     OW 4943   4.862   5.715   3.149  0.5844  0.2942  0.9080
 1293SOL    HW2 4944   4.953   5.725   3.178  0.2180  1.7995  1.6095
 1293SOL    HW3 4945   4.856   5.770   3.070  0.3305  0.0478  0.7549
 1293SOL    MW4 4946   4.874   5.724   3.142  0.2402  0.6157 -0.3015
 1294SOL     OW 4947   1.831   3.197   4.590  0.2270 -0.2397  0.3262
 1294SOL    HW2 4948   1.854   3.206   4.498 -2.0643  1.4745 -0.1346
 1294SOL    HW3 4949   1.833   3.286   4.625  0.3612 -0.7826  1.7824
 1294SOL    MW4 4950   1.834   3.210   4.583 -0.3358 -0.3772 -0.3776
 1295SOL     OW 4951   6.375   6.013   1.596 -0.2628  0.1633  0.0192
 1295SOL    HW2 4952   6.368   6.094   1.547 -0.9674  0.3073  0.3453
 1295SOL    HW3 4953   6.381   5.945   1.529 -1.1540  0.3630 -0.2805
 1295SOL    MW4 4954   6.375   6.014   1.581 -0.0905  0.3914 -0.3574
 1296SOL     OW 4955   0.576   5.590   1.967  0.0273 -0.5728 -0.2355
 1296SOL    HW2 4956   0.661   5.564   2.003 -0.4947  0.0065  1.5234
 1296SOL    HW3 4957   0.594   5.667   1.915  0.6043 -0.4941  0.0729
 1296SOL    MW4 4958   0.590   5.597   1.965  0.0477 -0.1270 -0.3360
 1297SOL     OW 4959   2.054   5.588   3.687 -1.3088 -0.1329 -0.0336
 1297SOL    HW2 4960   2.075   5.532   3.612  0.3429  1.8444 -1.1527
 1297SOL    HW3 4961   2.030   5.527   3.756 -0.0036 -2.2157 -1.2996
 1297SOL    MW4 4962   2.054   5.572   3.686 -0.0023 -0.2114  0.1359
 1298SOL     OW 4963   1.037   2.023   4.864  0.0333 -0.2897 -0.9401
 1298SOL    HW2 4964   1.115   2.043   4.915 -0.6229  0.5185 -0.2264
 1298SOL    HW3 4965   0.976   2.094   4.883 -1.0291 -1.0958 -1.1849
 1298SOL    MW4 4966   1.039   2.035   4.873 -0.1180  0.5677 -0.5742
 1299SOL     OW 4967   0.625   4.836   6.303 -0.0140 -0.2163 -0.2348
 1299SOL    HW2 4968   0.617   4.919   6.350 -0.3384 -0.9692  1.0831
 1299SOL    HW3 4969   0.713   4.804   6.324  0.6414  0.4068 -1.8402
 1299SOL    MW4 4970   0.635   4.843   6.312 -0.2439 -0.1712 -0.1965
 1300SOL     OW 4971   0.259   4.419   2.042  0.3269 -0.4131  0.0343
 1300SOL    HW2 4972   0.318   4.389   2.111  0.6466 -0.5451 -0.2896
 1300SOL    HW3 4973   0.286   4.509   2.025  0.2825 -0.3977  0.0457
 1300SOL    MW4 4974   0.270   4.427   2.049  0.0355  0.8501  0.4253
 1301SOL     OW 4975   1.810   1.154   4.034  0.2831  0.3444 -0.0076
 1301SOL    HW2 4976   1.784   1.231   3.983  1.7491  0.8742  0.0073
 1301SOL    HW3 4977   1.872   1.188   4.099 -0.0421 -0.6481  0.8430
 1301SOL    MW4 4978   1.815   1.169   4.036 -0.5003 -0.2468 -0.4355
 1302SOL     OW 4979   0.396   0.903   2.199  0.2412 -0.6008  0.2193
 1302SOL    HW2 4980   0.373   0.989   2.233  3.5781  0.0881  1.0875
 1302SOL    HW3 4981   0.402   0.915   2.104 -0.9152 -0.3295  0.1751
 1302SOL    MW4 4982   0.394   0.916   2.191  0.3275 -0.5178  0.0744
 1303SOL     OW 4983   3.995   0.099   2.300  0.4058 -0.1994 -0.4850
 1303SOL    HW2 4984   4.086   0.127   2.289  0.1774  0.4083 -0.8823
 1303SOL    HW3 4985   3.946   0.180   2.314 -0.5013 -0.1604 -3.2594
 1303SOL    MW4 4986   4.001   0.114   2.300 -0.2936  0.2840 -0.0090
 1304SOL     OW 4987   2.074   0.551   4.927  0.5399  0.2937 -0.0215
 1304SOL    HW2 4988   2.134   0.492   4.881 -1.1477 -0.9539 -0.7169
 1304SOL    HW3 4989   2.050   0.616   4.861 -2.4267 -1.8930 -1.3195
 1304SOL    MW4 4990   2.079   0.552   4.912 -0.2335  0.0504 -0.0567
 1305SOL     OW 4991   3.628   1.284   4.309 -0.0613 -0.1834  0.3758
 1305SOL    HW2 4992   3.596   1.266   4.221 -1.5309 -1.9575  1.2093
 1305SOL    HW3 4993   3.604   1.376   4.325  3.6027  1.5048 -2.3474
 1305SOL    MW4 4994   3.620   1.294   4.300 -0.6238 -0.5285  0.2749
 1306SOL     OW 4995   2.768   4.967   1.317  0.3624 -0.3473 -0.4391
 1306SOL    HW2 4996   2.776   5.059   1.342 -1.3520 -0.4960  0.8226
 1306SOL    HW3 4997   2.744   4.970   1.224  0.4072  0.4595 -0.4353
 1306SOL    MW4 4998   2.766   4.979   1.308 -0.0779  0.3925  0.2378
 1307SOL     OW 4999   4.993   0.284   2.563 -0.4555 -0.2024  0.3220
 1307SOL    HW2 5000   4.943   0.234   2.629 -1.0719 -0.0231 -0.0022
 1307SOL    HW3 5001   4.996   0.373   2.598 -2.3766  0.3392 -0.7138
 1307SOL    MW4 5002   4.987   0.289   2.577 -1.4744  0.3594  0.5107
 1308SOL     OW 5003   3.622   4.518   1.625 -0.1836  0.2097  0.2643
 1308SOL    HW2 5004   3.642   4.427   1.645  0.1384  0.2077 -0.0473
 1308SOL    HW3 5005   3.704   4.553   1.590 -0.4573  0.4706 -0.1233
 1308SOL    MW4 5006   3.635   4.511   1.623 -0.1665  0.3110  0.5440
 1309SOL     OW 5007   1.711   3.964   0.756 -0.5874  0.1876 -0.1615
 1309SOL    HW2 5008   1.677   3.982   0.668 -1.3551  1.8570  0.4389
 1309SOL    HW3 5009   1.769   4.037   0.775  1.7642 -1.5279 -0.2912
 1309SOL    MW4 5010   1.714   3.976   0.747  0.2537  0.9569 -0.2256
 1310SOL     OW 5011   2.977   0.419   6.224 -0.0075 -0.3372 -0.1736
 1310SOL    HW2 5012   2.886   0.401   6.244 -0.1468  1.5333  1.1158
 1310SOL    HW3 5013   2.981   0.421   6.128 -1.1197 -1.1835 -0.2559
 1310SOL    MW4 5014   2.966   0.417   6.214 -0.4882  0.2638 -0.3746
 1311SOL     OW 5015   0.640   5.606   6.247  0.4006  0.8778 -0.8766
 1311SOL    HW2 5016   0.587   5.577   6.173 -0.0181  0.1010 -0.2910
 1311SOL    HW3 5017   0.593   5.681   6.283 -0.2239  0.3032 -0.4700
 1311SOL    MW4 5018   0.627   5.612   6.242 -0.3931 -0.3048  0.7340
 1312SOL     OW 5019   0.972   4.124   0.199 -0.0063  0.1779 -1.1365
 1312SOL    HW2 5020   0.877   4.115   0.207 -0.0021 -0.2095 -1.4710
 1312SOL    HW3 5021   1.003   4.036   0.177  0.2438  0.6131 -2.7000
 1312SOL    MW4 5022   0.964   4.112   0.197  0.0159  0.2727 -0.1840
 1313SOL     OW 5023   2.053   1.280   3.845 -0.2778 -0.3885 -0.8653
 1313SOL    HW2 5024   2.026   1.359   3.891 -2.1658 -0.2125 -2.1251
 1313SOL    HW3 5025   2.098   1.227   3.911 -3.9168 -0.7428  1.6498
 1313SOL    MW4 5026   2.055   1.283   3.859  0.7480 -0.4788  0.4285
 1314SOL     OW 5027   0.815   3.844   0.838  0.0137 -0.7951 -0.0724
 1314SOL    HW2 5028   0.876   3.903   0.882 -0.0046 -0.3095 -0.6840
 1314SOL    HW3 5029   0.753   3.818   0.907 -1.3743  1.7198 -0.2284
 1314SOL    MW4 5030   0.815   3.848   0.853  0.1472 -0.4138  0.5705
 1315SOL     OW 5031   5.187   2.096   0.237 -0.2671  0.4500  0.4164
 1315SOL    HW2 5032   5.175   2.084   0.143 -1.7771 -0.7994  0.7170
 1315SOL    HW3 5033   5.138   2.175   0.258 -0.8381  0.1342  0.2977
 1315SOL    MW4 5034   5.179   2.104   0.228 -0.1047  0.1748 -0.5134
 1316SOL     OW 5035   1.046   4.911   3.277 -0.0324  0.4142  0.6931
 1316SOL    HW2 5036   0.977   4.882   3.216  0.8155 -1.1750  0.4300
 1316SOL    HW3 5037   1.099   4.972   3.226  1.0124 -1.3336 -0.4435
 1316SOL    MW4 5038   1.044   4.915   3.262 -0.4376 -0.3475  0.5410
 1317SOL     OW 5039   3.966   5.445   4.915  0.3350 -0.3543  0.2489
 1317SOL    HW2 5040   3.911   5.368   4.897  0.1839 -0.6175  1.6729
 1317SOL    HW3 5041   3.951   5.503   4.841 -2.5458 -0.0353  0.9715
 1317SOL    MW4 5042   3.956   5.442   4.903  0.5131  0.1173 -0.0977
 1318SOL     OW 5043   2.018   2.332   6.355 -0.5462  0.0134 -0.9339
 1318SOL    HW2 5044   1.935   2.364   6.320  0.2049  1.0709 -1.7726
 1318SOL    HW3 5045   2.042   2.259   6.297 -0.8538 -0.2696 -0.7125
 1318SOL    MW4 5046   2.010   2.326   6.343  0.0727  0.0456 -0.1445
 1319SOL     OW 5047   3.288   4.197   2.264  0.1810  0.1772  0.1605
 1319SOL    HW2 5048   3.205   4.150   2.261 -0.4678  1.3119 -1.1894
 1319SOL    HW3 5049   3.283   4.251   2.343  0.3449 -0.9319  0.9524
 1319SOL    MW4 5050   3.277   4.198   2.274  0.1117 -0.0945  0.1984
 1320SOL     OW 5051   3.418   0.010   0.750 -0.5003 -0.1655  0.6637
 1320SOL    HW2 5052   3.333   0.053   0.739 -0.1308  0.6154  0.7958
 1320SOL    HW3 5053   3.481   0.074   0.716  0.0938 -0.4336  1.2474
 1320SOL    MW4 5054   3.415   0.024   0.744 -0.5297  0.6553  0.0340
 1321SOL     OW 5055   5.731   4.505   5.283 -0.9071  0.5610 -0.0147
 1321SOL    HW2 5056   5.819   4.513   5.247 -0.4014 -0.1215  1.0210
 1321SOL    HW3 5057   5.731   4.421   5.329 -2.1816  0.4303 -0.2001
 1321SOL    MW4 5058   5.743   4.495   5.284 -0.0680 -0.1553 -0.2626
 1322SOL     OW 5059   1.158   0.175   4.619 -0.0696  0.1859  0.1428
 1322SOL    HW2 5060   1.203   0.245   4.571 -0.1129  0.1746  0.0860
 1322SOL    HW3 5061   1.074   0.213   4.644  0.3467  0.5264  1.0632
 1322SOL    MW4 5062   1.153   0.189   4.616  0.4916  0.4055 -0.1817
 1323SOL     OW 5063   3.114   4.358   1.572  0.0503  0.4927  0.2239
 1323SOL    HW2 5064   3.041   4.397   1.524  0.4561  0.2059 -0.6530
 1323SOL    HW3 5065   3.185   4.421   1.563 -0.3379  1.2141  1.8729
 1323SOL    MW4 5066   3.114   4.371   1.564 -0.1472 -0.2172 -0.2068
 1324SOL     OW 5067   4.777   5.594   0.462 -0.3608  0.3022 -0.0356
 1324SOL    HW2 5068   4.739   5.681   0.451 -0.7179  0.0730 -0.7303
 1324SOL    HW3 5069   4.803   5.568   0.373  0.5303  0.0502  0.2909
 1324SOL    MW4 5070   4.775   5.602   0.449 -0.4381 -0.0804  0.7007
 1325SOL     OW 5071   5.394   2.025   2.784 -0.1640 -0.5091 -0.0131
 1325SOL    HW2 5072   5.416   2.108   2.827  1.9099 -0.9390 -0.1566
 1325SOL    HW3 5073   5.348   1.975   2.852 -1.3683  0.6956  0.0966
 1325SOL    MW4 5074   5.391   2.029   2.799  0.0492  0.2336 -0.4477
 1326SOL     OW 5075   5.316   1.661   1.570 -0.3369 -0.2286 -0.2197
 1326SOL    HW2 5076   5.327   1.568   1.554  0.0398 -0.2642  0.2220
 1326SOL    HW3 5077   5.399   1.700   1.541  0.5345 -0.3421  1.9429
 1326SOL    MW4 5078   5.328   1.654   1.564  0.3714  0.0565  0.0424
 1327SOL     OW 5079   2.472   0.308   5.550  0.3664  0.2221  0.2863
 1327SOL    HW2 5080   2.551   0.297   5.497  0.5724 -0.3783  0.7067
 1327SOL    HW3 5081   2.401   0.315   5.486  0.9668  2.9874 -0.1907
 1327SOL    MW4 5082   2.473   0.307   5.535  0.7291  1.2284 -0.3548
 1328SOL     OW 5083   3.653   2.898   1.787 -0.0089 -0.2529  0.1467
 1328SOL    HW2 5084   3.704   2.963   1.739  0.8495 -0.5750  0.6038
 1328SOL    HW3 5085   3.654   2.928   1.878 -1.4184  0.2219  0.0258
 1328SOL    MW4 5086   3.660   2.910   1.793  0.4242  0.3903 -0.0524
 1329SOL     OW 5087   5.807   3.183   4.661 -0.1784  0.2594 -0.2176
 1329SOL    HW2 5088   5.745   3.224   4.721 -1.3891  0.8961 -1.8237
 1329SOL    HW3 5089   5.770   3.097   4.643  0.7618 -0.3738  0.7679
 1329SOL    MW4 5090   5.794   3.177   4.667  0.0533 -0.4243  0.0729
 1330SOL     OW 5091   3.757   4.215   2.091  0.4260 -0.6159  0.1902
 1330SOL    HW2 5092   3.684   4.260   2.047  1.3584 -1.5620 -2.5766
 1330SOL    HW3 5093   3.791   4.279   2.153 -2.4880 -0.0199  1.3447
 1330SOL    MW4 5094   3.752   4.229   2.093  0.6674  0.1350 -0.3309
 1331SOL     OW 5095   3.507   2.430   6.121  0.3871  0.4113  0.1196
 1331SOL    HW2 5096   3.576   2.386   6.071  1.0764  1.4147  0.1710
 1331SOL    HW3 5097   3.548   2.450   6.205  0.2284  1.5574 -0.0682
 1331SOL    MW4 5098   3.521   2.427   6.126 -0.6045  0.4827 -0.2178
 1332SOL     OW 5099   4.480   4.763   6.187  0.4653 -0.9713  0.1498
 1332SOL    HW2 5100   4.476   4.693   6.122  0.8384  1.4825 -2.7062
 1332SOL    HW3 5101   4.572   4.765   6.215  1.1165  0.0928 -1.8892
 1332SOL    MW4 5102   4.492   4.754   6.182  0.2634  0.0168 -0.2359
 1333SOL     OW 5103   1.611   2.614   6.157 -0.5808  0.0154  0.0618
 1333SOL    HW2 5104   1.677   2.638   6.092  1.3375  1.6105  2.4000
 1333SOL    HW3 5105   1.656   2.553   6.215 -2.3796 -1.7260 -0.2735
 1333SOL    MW4 5106   1.626   2.609   6.156 -0.7198  0.7218 -0.0940
 1334SOL     OW 5107   2.795   5.914   5.949  0.9687 -0.7237 -0.2421
 1334SOL    HW2 5108   2.772   5.908   5.856 -1.7508 -1.2186  0.3837
 1334SOL    HW3 5109   2.789   6.008   5.969  0.3540 -0.7502 -0.2981
 1334SOL    MW4 5110   2.791   5.926   5.939 -0.2981  0.6008 -0.7048
 1335SOL     OW 5111   6.208   0.942   0.583  0.0244 -0.3292  0.4023
 1335SOL    HW2 5112   6.159   0.937   0.501 -0.9603  0.3635  0.9286
 1335SOL    HW3 5113   6.223   1.036   0.596 -0.4679 -0.3737  1.3744
 1335SOL    MW4 5114   6.204   0.954   0.574 -0.3644  0.0860 -0.0856
 1336SOL     OW 5115   1.145   1.760   0.559  0.4758 -0.2582 -0.1069
 1336SOL    HW2 5116   1.114   1.819   0.490 -0.6012  0.7400  1.1884
 1336SOL    HW3 5117   1.078   1.692   0.564  0.2519 -0.0069  0.3421
 1336SOL    MW4 5118   1.132   1.759   0.551 -0.1042 -0.3068 -0.7463
 1337SOL     OW 5119   3.051   1.490   1.677  0.1992  0.2473 -0.4287
 1337SOL    HW2 5120   3.116   1.431   1.640  0.1801  0.0162 -0.1022
 1337SOL    HW3 5121   2.997   1.434   1.733 -0.0621  0.5021 -0.4224
 1337SOL    MW4 5122   3.052   1.475   1.680  0.0248 -0.5017 -0.0234
 1338SOL     OW 5123   0.128   4.316   2.491  0.1427  0.2839 -0.2526
 1338SOL    HW2 5124   0.089   4.379   2.430  1.3038  2.2499  0.8957
 1338SOL    HW3 5125   0.214   4.297   2.454  0.3551  0.5204  0.1034
 1338SOL    MW4 5126   0.134   4.322   2.478  0.4804  0.0794  0.0973
 1339SOL     OW 5127   5.014   2.033   4.930  0.3437  0.0774 -0.1284
 1339SOL    HW2 5128   5.042   2.096   4.864 -0.3167 -0.4485 -0.9382
 1339SOL    HW3 5129   4.925   2.009   4.904  0.3362 -0.6809  0.5411
 1339SOL    MW4 5130   5.006   2.038   4.918  0.1944  0.2184  0.3856
 1340SOL     OW 5131   1.345   4.720   2.501  0.0892  0.3882 -0.5670
 1340SOL    HW2 5132   1.266   4.690   2.546  0.3502 -0.0045 -0.3657
 1340SOL    HW3 5133   1.352   4.663   2.425 -0.1992  0.8718 -0.9583
 1340SOL    MW4 5134   1.335   4.708   2.497  0.1908  0.9944 -0.1830
 1341SOL     OW 5135   0.813   1.299   5.357 -0.3386  0.2015 -0.3318
 1341SOL    HW2 5136   0.762   1.337   5.285  1.0493 -0.2924 -1.6292
 1341SOL    HW3 5137   0.899   1.281   5.318  0.1098 -1.0855  1.1675
 1341SOL    MW4 5138   0.817   1.302   5.342 -0.6299  1.2555 -0.3488
 1342SOL     OW 5139   1.487   2.310   2.840 -0.2067 -0.5458 -0.2646
 1342SOL    HW2 5140   1.466   2.217   2.854 -0.5154 -0.7024 -1.6404
 1342SOL    HW3 5141   1.501   2.317   2.746  2.5964  0.2625  0.1331
 1342SOL    MW4 5142   1.486   2.299   2.829 -0.2175 -0.3651  0.2213
 1343SOL     OW 5143   1.342   4.943   2.097  0.8242  0.0417  0.1120
 1343SOL    HW2 5144   1.291   5.012   2.054  1.6091  0.7937  0.3573
 1343SOL    HW3 5145   1.376   4.985   2.176 -0.1245 -1.1468  1.1940
 1343SOL    MW4 5146   1.340   4.958   2.102  0.2095  0.3050 -0.4115
 1344SOL     OW 5147   1.190   1.600   3.521  0.0134 -0.4334 -0.2097
 1344SOL    HW2 5148   1.157   1.601   3.432 -1.3013 -2.1308  0.1970
 1344SOL    HW3 5149   1.195   1.692   3.546 -0.8745  0.0131 -1.5789
 1344SOL    MW4 5150   1.186   1.612   3.513 -0.8306  0.0704 -0.3717
 1345SOL     OW 5151   4.461   3.150   1.592 -0.5115 -0.0279 -0.5767
 1345SOL    HW2 5152   4.471   3.203   1.513 -1.0787  0.1521 -0.5357
 1345SOL    HW3 5153   4.468   3.213   1.664  0.2350 -0.2250 -0.4690
 1345SOL    MW4 5154   4.463   3.165   1.591 -0.0590  0.3206  0.2055
 1346SOL     OW 5155   0.265   0.233   0.053 -0.5211 -0.0927  0.4586
 1346SOL    HW2 5156   0.242   0.145   0.080  1.2184 -1.4407 -2.0430
 1346SOL    HW3 5157   0.359   0.231   0.039 -0.1926  2.5818  1.5352
 1346SOL    MW4 5158   0.274   0.221   0.055 -0.6391 -0.2479  0.1219
 1347SOL     OW 5159   1.114   0.792   5.109 -0.1775 -0.2585 -0.3507
 1347SOL    HW2 5160   1.086   0.723   5.048  0.3720  0.7592 -1.8009
 1347SOL    HW3 5161   1.141   0.745   5.188 -3.4880 -1.4849  0.2336
 1347SOL    MW4 5162   1.114   0.777   5.111  0.1530 -0.3999  0.3853
 1348SOL     OW 5163   3.318   5.445   3.282 -0.3384 -0.1163 -0.3259
 1348SOL    HW2 5164   3.231   5.408   3.266 -0.4782 -0.0318  0.2220
 1348SOL    HW3 5165   3.370   5.372   3.314 -0.8820  0.3333  1.7098
 1348SOL    MW4 5166   3.313   5.431   3.284 -0.4195 -0.2139  0.3315
 1349SOL     OW 5167   3.969   5.348   1.394 -0.6633  0.7280 -0.3495
 1349SOL    HW2 5168   4.032   5.304   1.337 -2.1563 -2.5246  0.2286
 1349SOL    HW3 5169   3.884   5.335   1.351 -1.3581  1.6521  0.6934
 1349SOL    MW4 5170   3.966   5.340   1.381 -0.1803  0.0283  0.0188
 1350SOL     OW 5171   3.869   5.602   3.189 -0.5922  0.0077  0.3486
 1350SOL    HW2 5172   3.905   5.651   3.115 -0.0710 -2.4851 -1.1731
 1350SOL    HW3 5173   3.937   5.539   3.212 -2.0201 -1.4908  0.6908
 1350SOL    MW4 5174   3.882   5.600   3.182 -0.5021  0.3046  0.8003
 1351SOL     OW 5175   4.626   1.137   1.633 -0.0462  0.5277  0.4612
 1351SOL    HW2 5176   4.711   1.093   1.636  0.5312  1.2405 -2.5937
 1351SOL    HW3 5177   4.577   1.091   1.565 -2.0118  0.4042  1.8592
 1351SOL    MW4 5178   4.630   1.125   1.624  0.2392 -0.4024  0.4001
 1352SOL     OW 5179   1.989   4.286   3.884  0.0460 -0.3258 -0.2158
 1352SOL    HW2 5180   1.968   4.302   3.976 -0.6826 -1.2327 -0.2082
 1352SOL    HW3 5181   1.905   4.294   3.839  0.3166 -0.3589 -0.7268
 1352SOL    MW4 5182   1.975   4.289   3.890 -0.7006 -0.0338 -0.1558
 1353SOL     OW 5183   4.438   1.460   4.905  0.9152  0.0256  0.5532
 1353SOL    HW2 5184   4.379   1.488   4.835 -1.7488 -1.0244  2.1929
 1353SOL    HW3 5185   4.410   1.511   4.981  1.6364 -1.0389  1.5659
 1353SOL    MW4 5186   4.427   1.470   4.906  0.8694 -0.0941  0.0588
 1354SOL     OW 5187   4.364   1.597   2.722  0.1497 -0.4558  0.0382
 1354SOL    HW2 5188   4.317   1.653   2.784  0.8820 -0.9235  1.0456
 1354SOL    HW3 5189   4.451   1.637   2.715  0.0092 -0.2877 -0.8655
 1354SOL    MW4 5190   4.370   1.610   2.729 -0.3021 -0.1439 -0.2753
 1355SOL     OW 5191   2.764   1.914   2.432 -0.3258 -0.4825  0.1223
 1355SOL    HW2 5192   2.763   1.933   2.338  0.2419 -0.0979  0.1890
 1355SOL    HW3 5193   2.819   1.836   2.440 -0.1179 -0.3316  0.1666
 1355SOL    MW4 5194   2.771   1.906   2.421  0.3292 -0.4154 -0.5430
 1356SOL     OW 5195   4.489   5.549   2.170  0.0560  0.3635  0.2366
 1356SOL    HW2 5196   4.471   5.605   2.094  0.8441  0.5162  0.1505
 1356SOL    HW3 5197   4.566   5.588   2.210  0.5806 -0.6224  0.2158
 1356SOL    MW4 5198   4.497   5.561   2.165 -0.1140  0.0645 -0.2113
 1357SOL     OW 5199   4.347   4.025   6.013  0.2013 -0.4762 -0.0097
 1357SOL    HW2 5200   4.270   3.983   5.975 -0.3965  1.7677 -1.5114
 1357SOL    HW3 5201   4.312   4.100   6.062  1.3359 -0.3238  0.6111
 1357SOL    MW4 5202   4.332   4.029   6.015  0.1590 -0.1435 -0.6154
 1358SOL     OW 5203   3.796   4.632   1.358 -0.0973  0.4601 -0.2453
 1358SOL    HW2 5204   3.744   4.705   1.325  1.1158  1.0853 -0.8346
 1358SOL    HW3 5205   3.875   4.632   1.304 -0.1195 -1.3783 -0.3474
 1358SOL    MW4 5206   3.799   4.642   1.347  0.3114 -0.1219  0.1273
 1359SOL     OW 5207   2.284   0.190   2.222  0.4997  0.0109 -0.9005
 1359SOL    HW2 5208   2.324   0.138   2.292  0.9909 -0.6180 -1.6270
 1359SOL    HW3 5209   2.295   0.281   2.250  3.5075 -0.0598 -1.5908
 1359SOL    MW4 5210   2.290   0.195   2.235  0.3142  0.8150  0.4098
 1360SOL     OW 5211   3.160   5.870   5.892  0.2243 -0.9016 -0.2270
 1360SOL    HW2 5212   3.239   5.918   5.865  0.1801 -0.2903  0.6899
 1360SOL    HW3 5213   3.096   5.888   5.823 -0.0540  1.0613  0.4659
 1360SOL    MW4 5214   3.162   5.879   5.880 -0.5676  0.1761 -0.6115
 1361SOL     OW 5215   1.550   0.370   5.565  0.1543  0.1864 -0.0931
 1361SOL    HW2 5216   1.536   0.289   5.516 -0.8123  0.3424 -0.0991
 1361SOL    HW3 5217   1.543   0.439   5.499 -1.5057  0.4212  0.2805
 1361SOL    MW4 5218   1.547   0.369   5.550 -0.3168 -0.0529  0.1793
 1362SOL     OW 5219   4.788   2.112   1.928  0.1121  0.3913  0.1095
 1362SOL    HW2 5220   4.848   2.044   1.897 -0.2612  0.5020 -0.8844
 1362SOL    HW3 5221   4.744   2.073   2.003  0.1452 -0.3433 -0.2440
 1362SOL    MW4 5222   4.790   2.098   1.933  0.9341  0.6131 -0.0377
 1363SOL     OW 5223   1.448   1.204   1.989 -0.3539  0.5802 -0.2537
 1363SOL    HW2 5224   1.486   1.150   1.919  0.7164  1.4949 -0.3978
 1363SOL    HW3 5225   1.424   1.141   2.057 -3.8797 -0.7004 -2.3891
 1363SOL    MW4 5226   1.450   1.188   1.989 -0.8596 -0.0796  0.2607
 1364SOL     OW 5227   0.713   5.652   0.525  0.2402  0.0042  0.2541
 1364SOL    HW2 5228   0.756   5.655   0.610  1.4303  0.2856 -0.3393
 1364SOL    HW3 5229   0.625   5.621   0.544 -0.7786  3.5244  2.0745
 1364SOL    MW4 5230   0.707   5.648   0.539  0.2002 -0.2433 -0.0224
 1365SOL     OW 5231   0.068   5.451   5.908  0.6937  0.1359  0.0514
 1365SOL    HW2 5232  -0.023   5.472   5.929  0.7997 -0.3192  1.0021
 1365SOL    HW3 5233   0.115   5.532   5.924  0.3521  0.6138 -1.2326
 1365SOL    MW4 5234   0.062   5.464   5.913  0.2217  0.2143  0.5297
 1366SOL     OW 5235   6.255   0.850   1.454  0.1339  0.0495 -0.3284
 1366SOL    HW2 5236   6.265   0.906   1.377  0.5591  1.9659  1.0351
 1366SOL    HW3 5237   6.173   0.879   1.495 -0.0459 -0.8749 -0.0055
 1366SOL    MW4 5238   6.246   0.861   1.450  0.1273  0.0752 -0.2540
 1367SOL     OW 5239   3.044   0.405   1.995  0.1199  0.0761 -0.0442
 1367SOL    HW2 5240   3.124   0.446   1.960  2.6888 -1.6976  3.1209
 1367SOL    HW3 5241   2.996   0.478   2.034  1.2471  0.9624 -0.2218
 1367SOL    MW4 5242   3.048   0.420   1.996 -0.0701  0.2804  0.0723
 1368SOL     OW 5243   0.536   3.341   3.171  0.3565  0.8501 -0.4932
 1368SOL    HW2 5244   0.525   3.249   3.147  0.0082  1.0023 -0.9237
 1368SOL    HW3 5245   0.534   3.341   3.267 -1.7746  0.6431 -0.4862
 1368SOL    MW4 5246   0.535   3.329   3.180  0.6708  0.4439  0.3058
 1369SOL     OW 5247   2.995   3.013   5.466  0.0206 -0.1087 -0.1986
 1369SOL    HW2 5248   3.069   3.064   5.433  0.2672 -0.3204  0.0269
 1369SOL    HW3 5249   2.932   3.079   5.496  1.2692  0.0843  2.2035
 1369SOL    MW4 5250   2.997   3.029   5.465  0.1959  0.0634 -0.0896
 1370SOL     OW 5251   5.697   1.698   4.596  0.1467  0.1299  0.4670
 1370SOL    HW2 5252   5.627   1.682   4.660 -1.3419  0.8032 -0.9449
 1370SOL    HW3 5253   5.772   1.649   4.631 -0.5538  0.5717  2.7906
 1370SOL    MW4 5254   5.698   1.690   4.609  0.4800 -0.1577 -0.0171
 1371SOL     OW 5255   5.628   0.239   1.530 -0.9425 -0.4603  0.4026
 1371SOL    HW2 5256   5.718   0.269   1.547  0.1799 -2.3848 -1.4785
 1371SOL    HW3 5257   5.577   0.319   1.519  0.7393  0.6991  0.6599
 1371SOL    MW4 5258   5.633   0.253   1.531 -0.1143  0.9321 -0.1752
 1372SOL     OW 5259   4.976   0.944   4.290 -0.0521  0.0102 -0.1661
 1372SOL    HW2 5260   4.928   0.868   4.257 -1.3075  0.9461 -0.5843
 1372SOL    HW3 5261   4.987   0.928   4.383  0.6681 -1.1656 -0.4254
 1372SOL    MW4 5262   4.971   0.932   4.298 -0.3187 -0.0288  0.4903
 1373SOL     OW 5263   0.540   5.683   4.815 -0.0942  0.1599  0.0966
 1373SOL    HW2 5264   0.540   5.588   4.812  0.7265  0.0873  1.4719
 1373SOL    HW3 5265   0.452   5.707   4.843  0.2233 -0.3119  1.6095
 1373SOL    MW4 5266   0.529   5.674   4.818  0.1375  0.1206  0.0328
 1374SOL     OW 5267   6.292   3.111   4.142 -0.1126  0.2031  0.3789
 1374SOL    HW2 5268   6.254   3.083   4.225 -1.4263 -0.1513 -0.3165
 1374SOL    HW3 5269   6.301   3.206   4.150  1.3481 -0.0061  1.5425
 1374SOL    MW4 5270   6.288   3.120   4.154  0.0623  0.5378  0.6982
 1375SOL     OW 5271   6.277   4.022   3.181 -0.4275 -0.1559 -0.3342
 1375SOL    HW2 5272   6.214   4.089   3.154 -1.4080 -0.6004  0.7166
 1375SOL    HW3 5273   6.312   4.055   3.264 -0.0544 -0.4025 -0.3930
 1375SOL    MW4 5274   6.273   4.036   3.189  0.2795  0.0771 -0.2159
 1376SOL     OW 5275   3.239   4.987   3.109 -0.0100  0.3161  0.1593
 1376SOL    HW2 5276   3.325   5.026   3.092 -0.0777  0.5036  0.2457
 1376SOL    HW3 5277   3.183   5.061   3.132  0.0507  0.0848  1.0898
 1376SOL    MW4 5278   3.243   5.002   3.110 -0.2436  0.7851 -0.3330
 1377SOL     OW 5279   4.390   4.919   5.822  0.1457 -0.2161  0.3750
 1377SOL    HW2 5280   4.331   4.917   5.897  0.5303  1.9892  0.8069
 1377SOL    HW3 5281   4.402   5.012   5.804  2.4985 -0.6257 -0.4853
 1377SOL    MW4 5282   4.384   4.931   5.830  0.2867  0.7945  0.2055
 1378SOL     OW 5283   0.802   6.231   4.688 -0.2559  0.0023 -0.3758
 1378SOL    HW2 5284   0.825   6.150   4.732  0.3024  0.8019  0.8645
 1378SOL    HW3 5285   0.713   6.217   4.656  0.4904 -1.7450 -1.8363
 1378SOL    MW4 5286   0.793   6.219   4.690  0.7961  0.1419 -0.2438
 1379SOL     OW 5287   1.628   4.696   0.802 -0.0331 -0.2049  0.5270
 1379SOL    HW2 5288   1.558   4.664   0.745 -0.8572  1.5530  0.4906
 1379SOL    HW3 5289   1.672   4.764   0.750  0.5325 -0.0220  1.2327
 1379SOL    MW4 5290   1.625   4.701   0.787  0.7613 -0.3813  0.4957
 1380SOL     OW 5291   2.129   4.658   6.110  0.6979 -0.1470  0.3944
 1380SOL    HW2 5292   2.129   4.600   6.034  0.1554 -0.0360  0.3043
 1380SOL    HW3 5293   2.037   4.660   6.139  0.1225  2.7388 -1.2008
 1380SOL    MW4 5294   2.117   4.651   6.104  0.6222 -0.5865 -0.1656
 1381SOL     OW 5295   4.157   1.146   3.301  0.1917  0.4061 -0.1200
 1381SOL    HW2 5296   4.120   1.059   3.285  1.8306 -0.1637 -1.0255
 1381SOL    HW3 5297   4.220   1.132   3.372 -1.2943  1.3829  1.4680
 1381SOL    MW4 5298   4.160   1.132   3.308  0.3731 -0.0517  0.2683
 1382SOL     OW 5299   5.845   4.267   2.902  0.0023 -1.0698  0.5806
 1382SOL    HW2 5300   5.817   4.244   2.814 -0.9412 -2.6485  1.2440
 1382SOL    HW3 5301   5.927   4.314   2.890  0.0301 -1.4913 -1.1147
 1382SOL    MW4 5302   5.852   4.270   2.889  0.7355 -0.6745  0.0427
 1383SOL     OW 5303   2.096   1.070   0.153 -0.2109  0.5702  0.0003
 1383SOL    HW2 5304   2.170   1.048   0.210 -1.6559 -1.6852  1.1465
 1383SOL    HW3 5305   2.135   1.078   0.066  1.2548 -2.2600  0.2490
 1383SOL    MW4 5306   2.111   1.068   0.149  0.3275 -0.4603  0.5476
 1384SOL     OW 5307   1.237   3.448   0.967 -0.1675  0.1800  0.4629
 1384SOL    HW2 5308   1.283   3.462   0.884 -0.5449  0.0750  0.2361
 1384SOL    HW3 5309   1.235   3.535   1.007 -0.7700  0.4121 -0.0476
 1384SOL    MW4 5310   1.243   3.462   0.961 -0.1552  0.0337  0.6940
 1385SOL     OW 5311   5.190   3.218   4.238  0.4678 -0.0786  0.0190
 1385SOL    HW2 5312   5.252   3.253   4.173 -0.3050  0.4779 -0.4292
 1385SOL    HW3 5313   5.202   3.123   4.233  1.5920  0.0299  0.2534
 1385SOL    MW4 5314   5.200   3.210   4.229  0.2765  0.4532  0.3102
 1386SOL     OW 5315   2.642   1.711   0.895  0.2377  0.3194 -0.2194
 1386SOL    HW2 5316   2.559   1.713   0.848 -0.2949  2.1896  0.6926
 1386SOL    HW3 5317   2.622   1.669   0.979  0.9394 -2.0046 -1.1526
 1386SOL    MW4 5318   2.628   1.706   0.900  0.0276  0.0323 -0.2594
 1387SOL     OW 5319   1.067   2.252   1.026 -0.1748  0.3518 -0.0978
 1387SOL    HW2 5320   1.090   2.337   0.990  0.7474  1.1800  2.2461
 1387SOL    HW3 5321   1.036   2.271   1.114  0.3117 -1.7456  0.5846
 1387SOL    MW4 5322   1.066   2.266   1.033  0.1677 -0.2208  0.0437
 1388SOL     OW 5323   1.200   1.378   2.230 -0.7452  0.0933 -0.2572
 1388SOL    HW2 5324   1.130   1.425   2.275 -0.7796  0.9248 -1.1248
 1388SOL    HW3 5325   1.234   1.442   2.168  0.5874 -0.3998 -0.0558
 1388SOL    MW4 5326   1.195   1.393   2.228  0.3796  0.2257 -0.5707
 1389SOL     OW 5327   5.860   5.397   3.628 -0.3085  0.5077  0.2796
 1389SOL    HW2 5328   5.794   5.391   3.697 -1.2221 -2.5277 -0.7051
 1389SOL    HW3 5329   5.935   5.348   3.663 -0.5407 -0.4922 -0.5974
 1389SOL    MW4 5330   5.861   5.390   3.642 -0.0289 -0.3058 -0.7138
 1390SOL     OW 5331   4.304   0.067   5.291 -0.6334  0.3573 -0.1035
 1390SOL    HW2 5332   4.383   0.118   5.311  0.0461 -0.1687 -1.3686
 1390SOL    HW3 5333   4.232   0.128   5.307  0.0613  1.1096  0.2448
 1390SOL    MW4 5334   4.305   0.082   5.296 -0.2541 -0.4674  0.2326
 1391SOL     OW 5335   3.038   4.540   1.131 -0.1479  0.0781 -0.5654
 1391SOL    HW2 5336   3.000   4.487   1.201 -0.7902 -1.3738 -1.9593
 1391SOL    HW3 5337   2.967   4.597   1.102 -0.3331 -0.3667 -1.0064
 1391SOL    MW4 5338   3.024   4.540   1.137  0.4654 -0.4555 -0.3127
 1392SOL     OW 5339   0.162   1.370   5.619  0.2590 -0.3592 -1.0516
 1392SOL    HW2 5340   0.069   1.350   5.610  0.2367 -0.4634 -0.5965
 1392SOL    HW3 5341   0.181   1.357   5.712  0.5812  0.2916 -1.0203
 1392SOL    MW4 5342   0.152   1.366   5.630  0.3120 -0.7209 -0.4162
 1393SOL     OW 5343   1.224   1.702   2.971 -0.4318  0.1356  0.6164
 1393SOL    HW2 5344   1.301   1.702   3.028  0.5611 -0.4314 -0.6736
 1393SOL    HW3 5345   1.193   1.612   2.973  2.1390 -1.0812 -2.8818
 1393SOL    MW4 5346   1.230   1.690   2.979  0.1425  1.0259  0.2591
 1394SOL     OW 5347   5.654   5.141   3.853 -0.0624 -0.2139 -0.8452
 1394SOL    HW2 5348   5.690   5.098   3.930  2.0817  0.0140 -1.6729
 1394SOL    HW3 5349   5.559   5.131   3.863  0.2378 -2.0177  0.7359
 1394SOL    MW4 5350   5.646   5.134   3.865  0.1788  0.0711  0.2220
 1395SOL     OW 5351   4.933   2.341   1.978 -0.6769 -0.4213 -0.0160
 1395SOL    HW2 5352   4.872   2.269   1.962 -1.6330  0.5633 -0.9893
 1395SOL    HW3 5353   5.018   2.299   1.986 -1.3755 -1.7717  0.7114
 1395SOL    MW4 5354   4.936   2.326   1.977  0.0234 -0.0906  0.6052
 1396SOL     OW 5355   4.363   3.008   0.400 -0.0521  0.1969 -0.0384
 1396SOL    HW2 5356   4.350   3.095   0.438  0.3767  0.0481  0.4558
 1396SOL    HW3 5357   4.275   2.970   0.394  0.0167 -0.5090  2.5348
 1396SOL    MW4 5358   4.350   3.015   0.404  0.0846 -0.4751  0.0694
 1397SOL     OW 5359   1.347   1.996   4.039 -0.2497 -0.0892 -0.3350
 1397SOL    HW2 5360   1.351   1.977   4.133 -0.1835  0.8869 -0.1355
 1397SOL    HW3 5361   1.262   2.037   4.026 -0.4379 -0.6020 -0.7869
 1397SOL    MW4 5362   1.337   1.999   4.049  0.0269 -0.2062 -0.0749
 1398SOL     OW 5363   4.818   0.179   5.210 -0.4194 -0.1118 -0.1986
 1398SOL    HW2 5364   4.882   0.246   5.233 -1.5368  1.3612 -1.1791
 1398SOL    HW3 5365   4.754   0.181   5.280  0.4305 -1.4258  0.6646
 1398SOL    MW4 5366   4.818   0.188   5.222 -0.9467  0.4000  0.4894
 1399SOL     OW 5367   0.689   4.734   1.629 -0.2340  0.1823  0.7019
 1399SOL    HW2 5368   0.729   4.660   1.584 -0.7454 -0.9469  2.0087
 1399SOL    HW3 5369   0.698   4.807   1.569  0.3360 -0.9302 -0.6144
 1399SOL    MW4 5370   0.696   4.734   1.615 -1.1192 -0.0403 -0.1760
 1400SOL     OW 5371   1.435   0.649   1.020  0.8817  0.1827  0.4696
 1400SOL    HW2 5372   1.350   0.635   1.061  0.9316 -0.1480  0.4687
 1400SOL    HW3 5373   1.466   0.732   1.055  0.2128  0.6899 -0.1351
 1400SOL    MW4 5374   1.428   0.658   1.030 -0.1461 -0.7364 -0.4246
 1401SOL     OW 5375   3.417   4.462   6.016 -0.0549 -0.0545  0.8273
 1401SOL    HW2 5376   3.433   4.531   5.951 -2.2043 -0.2159  0.0491
 1401SOL    HW3 5377   3.437   4.381   5.969 -2.5959 -0.2446 -0.0901
 1401SOL    MW4 5378   3.422   4.461   6.001  0.5356  0.2119  0.1394
 1402SOL     OW 5379   3.193   4.829   2.395 -0.3213  0.0320  0.2715
 1402SOL    HW2 5380   3.264   4.892   2.389  1.7020 -2.2038 -0.8190
 1402SOL    HW3 5381   3.140   4.844   2.316 -0.2541  0.7638  0.3608
 1402SOL    MW4 5382   3.195   4.839   2.384 -0.0546  0.4779  0.0221
 1403SOL     OW 5383   5.034   5.683   6.419 -0.2438 -0.1849  0.6410
 1403SOL    HW2 5384   5.023   5.589   6.426 -1.2565 -0.0963  0.3085
 1403SOL    HW3 5385   5.128   5.697   6.435  0.0826 -1.3256 -0.1136
 1403SOL    MW4 5386   5.045   5.673   6.422 -0.6380  0.2602 -0.3139
 1404SOL     OW 5387   6.363   4.358   3.312  0.0162 -0.4149 -0.5105
 1404SOL    HW2 5388   6.286   4.346   3.255  1.4708 -3.0401 -2.1702
 1404SOL    HW3 5389   6.374   4.273   3.354  0.1530  0.9106  2.3098
 1404SOL    MW4 5390   6.354   4.345   3.310 -0.0015 -0.0253 -0.1045
 1405SOL     OW 5391   1.098   4.670   2.620 -0.3439 -0.4472  0.3105
 1405SOL    HW2 5392   1.087   4.575   2.629  1.0762 -0.6567  0.1408
 1405SOL    HW3 5393   1.044   4.693   2.545 -1.4359 -0.9567  0.9210
 1405SOL    MW4 5394   1.090   4.660   2.611 -0.4041 -0.4680  0.0388
 1406SOL     OW 5395   0.399   5.149   0.688  0.4399  0.3239  0.6648
 1406SOL    HW2 5396   0.361   5.065   0.662  0.6766  0.2007  0.7183
 1406SOL    HW3 5397   0.468   5.165   0.624  1.6753 -0.4499  1.7727
 1406SOL    MW4 5398   0.403   5.140   0.676  0.5068  0.5357 -0.0506
 1407SOL     OW 5399   0.902   3.437   5.535 -0.2877  0.8022  0.3033
 1407SOL    HW2 5400   0.846   3.513   5.521  0.0559  0.9606 -0.2395
 1407SOL    HW3 5401   0.859   3.366   5.486 -0.1354  0.8683  0.0724
 1407SOL    MW4 5402   0.889   3.437   5.526  0.3765 -0.5296 -0.0646
 1408SOL     OW 5403   4.669   6.390   5.474  0.0835 -0.5751 -0.1093
 1408SOL    HW2 5404   4.628   6.476   5.465 -0.0361 -0.6932 -0.7523
 1408SOL    HW3 5405   4.721   6.396   5.554  2.1864  0.9495 -1.5154
 1408SOL    MW4 5406   4.670   6.402   5.483  0.2497  0.5993 -0.0848
 1409SOL     OW 5407   0.609   0.245   3.715  0.1590  0.0044 -0.0056
 1409SOL    HW2 5408   0.622   0.332   3.678 -1.0025  0.3819  0.4333
 1409SOL    HW3 5409   0.554   0.259   3.792 -1.3449 -1.2721 -0.8019
 1409SOL    MW4 5410   0.604   0.258   3.720 -0.5471 -0.4823 -0.0089
 1410SOL     OW 5411   4.731   0.736   1.538  0.7128  0.3063  0.5159
 1410SOL    HW2 5412   4.650   0.751   1.587  0.1246  1.9615 -0.8834
 1410SOL    HW3 5413   4.782   0.817   1.551  0.7104  0.6209 -1.2465
 1410SOL    MW4 5414   4.727   0.749   1.546  0.7144  0.1386 -0.0579
 1411SOL     OW 5415   4.628   1.352   0.236  0.2569 -0.0604 -0.6729
 1411SOL    HW2 5416   4.538   1.380   0.218  0.3717  1.8094  1.2868
 1411SOL    HW3 5417   4.623   1.309   0.321  1.5767  2.7770  0.9907
 1411SOL    MW4 5418   4.616   1.350   0.245  0.2617  0.3403  0.5871
 1412SOL     OW 5419   4.231   5.340   1.687  0.1978 -0.7460  0.1535
 1412SOL    HW2 5420   4.274   5.345   1.602  1.3457  1.9622  0.7871
 1412SOL    HW3 5421   4.266   5.414   1.737 -1.3412 -1.5045  2.5732
 1412SOL    MW4 5422   4.241   5.350   1.683 -0.3696 -0.3192 -0.1950
 1413SOL     OW 5423   1.871   5.488   0.438  0.3807 -0.5958  0.6092
 1413SOL    HW2 5424   1.803   5.457   0.377  0.9439 -0.6435 -0.0152
 1413SOL    HW3 5425   1.936   5.530   0.381  0.3789  0.3711  1.2961
 1413SOL    MW4 5426   1.871   5.490   0.422  0.2443 -0.2943 -0.4755
 1414SOL     OW 5427   6.092   2.833   0.515 -0.4604 -0.1811 -0.4362
 1414SOL    HW2 5428   6.000   2.852   0.530 -0.3868 -0.1242 -0.0455
 1414SOL    HW3 5429   6.120   2.896   0.449 -0.1892  1.1632  0.9212
 1414SOL    MW4 5430   6.084   2.844   0.509 -0.3134  0.3894 -0.2012
 1415SOL     OW 5431   2.995   1.943   3.788  0.1906 -0.1925  0.6704
 1415SOL    HW2 5432   3.007   1.855   3.824  2.0676 -0.0218  0.5517
 1415SOL    HW3 5433   3.074   1.991   3.815  0.4110  0.7026 -1.4160
 1415SOL    MW4 5434   3.007   1.938   3.797 -1.1580 -0.5757  0.1980
 1416SOL     OW 5435   2.636   3.688   4.927  0.5189  0.3128  0.1581
 1416SOL    HW2 5436   2.668   3.607   4.965 -0.4837 -1.0222 -1.6424
 1416SOL    HW3 5437   2.541   3.676   4.922 -0.0236  2.7755  2.3514
 1416SOL    MW4 5438   2.627   3.676   4.931 -0.5166 -0.4054  0.5892
 1417SOL     OW 5439   3.459   0.816   0.196 -0.0493 -0.2978  0.1085
 1417SOL    HW2 5440   3.365   0.836   0.187 -0.0025  1.5514  2.6906
 1417SOL    HW3 5441   3.502   0.879   0.139 -0.3166 -0.5002 -0.3268
 1417SOL    MW4 5442   3.452   0.827   0.187  0.2780 -0.3132 -0.1338
 1418SOL     OW 5443   4.343   0.267   0.789  0.2651  0.1852  0.0495
 1418SOL    HW2 5444   4.371   0.286   0.879  0.9135 -0.7784  0.0638
 1418SOL    HW3 5445   4.408   0.311   0.734  0.1201  0.4058  0.0533
 1418SOL    MW4 5446   4.355   0.276   0.793  0.1306 -0.3543 -0.5024
 1419SOL     OW 5447   3.103   0.431   3.718  0.6265  0.0750  0.5305
 1419SOL    HW2 5448   3.195   0.457   3.725  1.1193 -0.8815 -1.6862
 1419SOL    HW3 5449   3.092   0.407   3.626 -1.6771 -0.4990  0.9094
 1419SOL    MW4 5450   3.114   0.432   3.707 -0.1933  0.2147  0.2335
 1420SOL     OW 5451   1.933   4.540   0.621  0.7334 -0.2606  0.4523
 1420SOL    HW2 5452   1.993   4.492   0.564  0.9615  0.5680 -0.0132
 1420SOL    HW3 5453   1.876   4.472   0.657  0.4242 -0.7928 -0.9449
 1420SOL    MW4 5454   1.933   4.525   0.618  0.0771  0.0547  0.4405
 1421SOL     OW 5455   3.042   0.089   3.137 -0.1081  0.2916  0.8395
 1421SOL    HW2 5456   3.129   0.067   3.104 -0.2466  1.8357 -0.6641
 1421SOL    HW3 5457   3.055   0.170   3.187 -0.4695 -0.2433  1.8346
 1421SOL    MW4 5458   3.055   0.097   3.139 -0.4272 -0.1986  0.2188
 1422SOL     OW 5459   1.751   1.460   3.414 -0.3232 -0.9395 -0.2737
 1422SOL    HW2 5460   1.838   1.445   3.451 -0.5631 -0.6775  0.4138
 1422SOL    HW3 5461   1.728   1.377   3.373  0.3455 -0.9396 -0.6587
 1422SOL    MW4 5462   1.759   1.447   3.413  0.2822 -0.3967 -0.2630
 1423SOL     OW 5463   6.084   4.732   4.351  0.3518 -0.1039  0.3653
 1423SOL    HW2 5464   6.069   4.658   4.410  0.0295  0.2481  0.7240
 1423SOL    HW3 5465   6.119   4.692   4.271  0.1636 -0.6449  0.5528
 1423SOL    MW4 5466   6.087   4.717   4.348 -0.0738 -0.6015  0.5642
 1424SOL     OW 5467   3.891   3.552   3.886 -0.2845 -0.4209  0.3327
 1424SOL    HW2 5468   3.946   3.628   3.869 -0.7491  0.1068  1.1399
 1424SOL    HW3 5469   3.934   3.507   3.958 -1.9700  1.1585  2.4594
 1424SOL    MW4 5470   3.904   3.556   3.893 -0.2005  0.7909  0.2327
 1425SOL     OW 5471   0.034   1.470   6.221 -0.2580  0.2066 -0.2514
 1425SOL    HW2 5472  -0.009   1.444   6.303 -0.6280  2.2702  0.2569
 1425SOL    HW3 5473   0.091   1.396   6.200 -0.1701 -0.3992  1.8443
 1425SOL    MW4 5474   0.036   1.457   6.229  0.3682  0.3600 -0.9373
 1426SOL     OW 5475   6.295   1.855   2.321 -0.1491 -0.1207  0.3836
 1426SOL    HW2 5476   6.362   1.923   2.322 -0.2223 -0.0293 -0.5616
 1426SOL    HW3 5477   6.343   1.775   2.343  0.2726 -0.0466 -0.2369
 1426SOL    MW4 5478   6.310   1.853   2.324  0.2905 -0.0436  0.6832
 1427SOL     OW 5479   5.793   2.536   0.337 -0.1006  0.0836  0.2143
 1427SOL    HW2 5480   5.713   2.588   0.334 -0.9433 -1.2316 -0.8108
 1427SOL    HW3 5481   5.801   2.510   0.429  0.1492  1.6687  0.6777
 1427SOL    MW4 5482   5.784   2.539   0.349  0.0077  0.2791 -0.5632
 1428SOL     OW 5483   0.047   1.911   5.103 -0.0188 -0.5694 -0.0328
 1428SOL    HW2 5484   0.108   1.938   5.034  0.8378 -0.4043  0.7707
 1428SOL    HW3 5485   0.081   1.827   5.133 -1.9641 -2.0358 -1.6620
 1428SOL    MW4 5486   0.060   1.904   5.098  0.1215 -0.3438  0.4706
 1429SOL     OW 5487   0.770   2.966   5.396  0.1823 -0.2308  0.1341
 1429SOL    HW2 5488   0.804   2.908   5.464 -2.4536 -0.8616  1.0589
 1429SOL    HW3 5489   0.713   2.910   5.343 -1.3511  1.1902  0.2030
 1429SOL    MW4 5490   0.767   2.951   5.398 -0.0268  0.2008 -0.2457
 1430SOL     OW 5491   4.293   3.557   5.636  0.5872  0.0006 -0.0371
 1430SOL    HW2 5492   4.378   3.536   5.674 -0.6708 -1.9542  1.9927
 1430SOL    HW3 5493   4.292   3.513   5.551  1.4128 -0.4393  0.1710
 1430SOL    MW4 5494   4.304   3.548   5.630  0.1643  0.0968  0.2220
 1431SOL     OW 5495   2.967   4.119   2.190 -0.2081  0.0599  0.1239
 1431SOL    HW2 5496   2.933   4.202   2.156  1.5910  0.4993 -0.7024
 1431SOL    HW3 5497   2.944   4.120   2.283 -0.3786  1.3900  0.0921
 1431SOL    MW4 5498   2.959   4.130   2.197 -0.1920  0.3560  0.2483
 1432SOL     OW 5499   5.847   2.017   2.145  0.9501  0.1080 -0.3484
 1432SOL    HW2 5500   5.890   2.075   2.081  1.0560 -0.4426 -0.7861
 1432SOL    HW3 5501   5.763   2.059   2.162 -0.3407 -1.1416 -3.0339
 1432SOL    MW4 5502   5.842   2.030   2.139 -0.7159  0.6197  0.2990
 1433SOL     OW 5503   5.499   2.862   6.155 -0.3431 -0.0803 -0.2071
 1433SOL    HW2 5504   5.530   2.929   6.094  0.5373 -0.5828 -0.3253
 1433SOL    HW3 5505   5.420   2.900   6.194  0.5183  1.3246  0.2583
 1433SOL    MW4 5506   5.493   2.876   6.152  0.0338  0.0302 -0.1504
 1434SOL     OW 5507   6.303   0.921   5.333  0.1456  0.0126  0.1128
 1434SOL    HW2 5508   6.350   0.861   5.275  1.2804  1.3268 -0.3692
 1434SOL    HW3 5509   6.362   0.935   5.407 -0.7638 -0.6570  0.9948
 1434SOL    MW4 5510   6.317   0.915   5.335  0.0594  0.1744  0.4795
 1435SOL     OW 5511   4.319   1.708   5.052 -0.5873  0.0156 -0.0265
 1435SOL    HW2 5512   4.254   1.684   4.986  0.7429  1.2358 -1.8739
 1435SOL    HW3 5513   4.288   1.666   5.132 -1.8438 -2.1967 -1.5706
 1435SOL    MW4 5514   4.306   1.700   5.054  0.2975 -0.5313  0.6478
 1436SOL     OW 5515   0.949   0.254   1.459 -0.1300  0.2527  0.1729
 1436SOL    HW2 5516   0.910   0.334   1.422  0.9432  1.0662  0.7573
 1436SOL    HW3 5517   0.975   0.279   1.547 -1.3924 -1.2688  1.0302
 1436SOL    MW4 5518   0.947   0.268   1.466 -0.3638 -0.7962 -0.0669
 1437SOL     OW 5519   3.243   4.395   2.059 -0.0319  0.6214 -0.1022
 1437SOL    HW2 5520   3.177   4.350   2.007  0.3099  1.4219 -1.2837
 1437SOL    HW3 5521   3.263   4.336   2.131 -0.8444 -0.3295 -0.6444
 1437SOL    MW4 5522   3.237   4.382   2.061  0.1647 -0.2167  0.5646
 1438SOL     OW 5523   0.129   0.441   2.148 -0.1302  0.1053  0.2999
 1438SOL    HW2 5524   0.100   0.363   2.197  1.4634 -0.8573 -0.2245
 1438SOL    HW3 5525   0.193   0.483   2.205 -0.0850  0.3636  0.0618
 1438SOL    MW4 5526   0.133   0.436   2.162  0.0338 -0.2838  0.3787
 1439SOL     OW 5527   4.909   1.847   2.845 -0.2475 -0.1435 -0.0259
 1439SOL    HW2 5528   4.947   1.928   2.879 -1.7356  0.1487  1.0395
 1439SOL    HW3 5529   4.820   1.870   2.820 -1.3877 -1.7828  2.1245
 1439SOL    MW4 5530   4.903   1.861   2.846 -0.1632 -0.3880 -0.0826
 1440SOL     OW 5531   5.568   4.909   6.183  0.2187  0.1429  0.1696
 1440SOL    HW2 5532   5.616   4.974   6.131  0.0790 -0.8466 -1.2550
 1440SOL    HW3 5533   5.511   4.865   6.119 -1.1754 -0.0257  1.4658
 1440SOL    MW4 5534   5.566   4.912   6.167 -0.5945  0.5605 -0.5238
 1441SOL     OW 5535   4.638   5.880   3.082 -0.2299  0.0409 -0.0346
 1441SOL    HW2 5536   4.642   5.958   3.026 -0.7979  0.7839  0.9206
 1441SOL    HW3 5537   4.721   5.882   3.130 -0.2618  0.0733  0.0182
 1441SOL    MW4 5538   4.650   5.891   3.081  0.4300  0.4967  0.5609
 1442SOL     OW 5539   4.572   4.673   5.166  0.2048  0.3614  0.2639
 1442SOL    HW2 5540   4.650   4.677   5.110 -1.1296  1.2480 -1.6424
 1442SOL    HW3 5541   4.544   4.581   5.161  0.6551  0.2237  0.2743
 1442SOL    MW4 5542   4.578   4.661   5.158  0.3810  0.5806 -0.3464
 1443SOL     OW 5543   1.339   4.343   1.356 -0.0046 -0.3629  0.2267
 1443SOL    HW2 5544   1.354   4.281   1.285  1.4224  0.0435  0.1486
 1443SOL    HW3 5545   1.374   4.300   1.434  0.5011  0.1085  0.2665
 1443SOL    MW4 5546   1.345   4.329   1.357  0.0630 -0.7275  0.1624
 1444SOL     OW 5547   5.962   5.971   4.145 -0.0712  0.8637  0.1436
 1444SOL    HW2 5548   5.874   5.992   4.176 -0.6784 -0.4186 -0.6463
 1444SOL    HW3 5549   5.949   5.905   4.077  1.4189  1.4899 -0.8095
 1444SOL    MW4 5550   5.949   5.965   4.140  0.3748  0.4633  0.1675
 1445SOL     OW 5551   0.906   1.135   5.869  0.5742 -0.1846  0.0242
 1445SOL    HW2 5552   0.892   1.222   5.907  0.8637 -0.3687  0.5640
 1445SOL    HW3 5553   0.872   1.075   5.935 -0.2425 -0.4649 -0.6347
 1445SOL    MW4 5554   0.900   1.139   5.883 -0.0064  0.1102  0.1393
 1446SOL     OW 5555   0.507   5.844   6.016  0.1425 -0.2360  0.1099
 1446SOL    HW2 5556   0.508   5.827   6.110  2.5022  2.4070  0.7408
 1446SOL    HW3 5557   0.582   5.795   5.982 -0.4037 -0.7898 -0.2987
 1446SOL    MW4 5558   0.517   5.835   6.024 -0.0157  0.3935 -0.1327
 1447SOL     OW 5559   5.705   2.614   4.527 -0.5687 -0.2340 -0.3825
 1447SOL    HW2 5560   5.798   2.624   4.506 -0.3824 -1.9203 -0.4524
 1447SOL    HW3 5561   5.694   2.664   4.608  0.3259  0.2245 -0.5240
 1447SOL    MW4 5562   5.716   2.622   4.535 -0.3324  0.9176  0.0965
 1448SOL     OW 5563   6.417   4.893   0.967  0.0828 -0.5552 -0.3581
 1448SOL    HW2 5564   6.399   4.824   1.031 -0.0627 -0.7377 -0.5960
 1448SOL    HW3 5565   6.498   4.934   0.999 -0.3486 -0.2064  0.3134
 1448SOL    MW4 5566   6.425   4.889   0.980 -0.4194 -0.5972  0.2073
 1449SOL     OW 5567   3.156   1.980   5.775 -0.1738  0.0325 -0.2111
 1449SOL    HW2 5568   3.224   2.045   5.794 -1.2669  1.1891 -0.1207
 1449SOL    HW3 5569   3.190   1.899   5.811  0.7696  0.7726  0.6287
 1449SOL    MW4 5570   3.169   1.978   5.782 -0.0758 -0.4838  0.4805
 1450SOL     OW 5571   6.361   5.003   4.065  0.2030  0.0980  0.0545
 1450SOL    HW2 5572   6.388   5.030   4.153  2.9028  2.7551 -1.4034
 1450SOL    HW3 5573   6.270   5.033   4.058 -0.4603 -1.1507  2.2048
 1450SOL    MW4 5574   6.353   5.011   4.076 -0.0926 -0.0514  0.1827
 1451SOL     OW 5575   0.660   5.569   4.181 -0.3733  0.2913 -0.1804
 1451SOL    HW2 5576   0.619   5.487   4.207 -1.2168  0.5254 -0.7319
 1451SOL    HW3 5577   0.596   5.637   4.205 -0.3029  0.6635 -1.0189
 1451SOL    MW4 5578   0.646   5.568   4.188 -0.3359 -0.5387 -0.0659
 1452SOL     OW 5579   2.202   0.478   0.085  0.3683 -0.0619  0.6430
 1452SOL    HW2 5580   2.180   0.391   0.051  1.3864 -0.2504  0.4462
 1452SOL    HW3 5581   2.258   0.461   0.161  1.7628  0.4337 -0.2463
 1452SOL    MW4 5582   2.207   0.464   0.091 -0.3832 -0.2641 -0.1554
 1453SOL     OW 5583   0.161   5.042   5.013  0.0344  0.2485 -0.3066
 1453SOL    HW2 5584   0.094   5.032   4.946  2.2445  1.7454 -2.9606
 1453SOL    HW3 5585   0.237   5.076   4.966  2.7370 -1.4002  2.4518
 1453SOL    MW4 5586   0.162   5.045   4.998  0.2501 -0.8281 -0.1401
 1454SOL     OW 5587   2.380   1.659   0.775  0.1090 -0.3913  0.2429
 1454SOL    HW2 5588   2.337   1.694   0.853 -1.1788 -3.3763  0.9955
 1454SOL    HW3 5589   2.322   1.589   0.745 -0.2529  1.4818 -4.3575
 1454SOL    MW4 5590   2.366   1.654   0.781 -0.1823 -0.4973 -0.0687
 1455SOL     OW 5591   2.010   3.591   0.744 -0.0233  0.3891  0.2851
 1455SOL    HW2 5592   1.941   3.646   0.781 -0.3035  0.5426 -0.4628
 1455SOL    HW3 5593   2.055   3.647   0.681  0.3469  0.0728  0.2640
 1455SOL    MW4 5594   2.007   3.605   0.741 -0.3228 -0.0902 -0.5659
 1456SOL     OW 5595   5.365   3.330   4.052 -0.5608 -0.3500  0.0298
 1456SOL    HW2 5596   5.395   3.259   3.995  0.2419  0.8667 -1.1229
 1456SOL    HW3 5597   5.293   3.371   4.005  0.7904  1.3365 -0.7042
 1456SOL    MW4 5598   5.360   3.326   4.038 -0.3487 -0.1333 -0.3934
 1457SOL     OW 5599   6.199   3.779   6.362 -0.1464 -0.6799  0.3381
 1457SOL    HW2 5600   6.234   3.853   6.311 -0.3031 -1.0659 -0.3435
 1457SOL    HW3 5601   6.272   3.750   6.416 -0.0485 -0.1036  0.5258
 1457SOL    MW4 5602   6.213   3.785   6.362  0.2812  0.3946 -0.8273
 1458SOL     OW 5603   0.994   4.341   1.592 -0.0893 -0.3096 -0.1055
 1458SOL    HW2 5604   1.044   4.290   1.656  1.5341 -0.0256 -1.0942
 1458SOL    HW3 5605   1.012   4.299   1.508 -0.9143  0.2839 -0.6039
 1458SOL    MW4 5606   1.003   4.328   1.590  0.1082 -0.3483 -0.3086
 1459SOL     OW 5607   0.613   6.353   0.054  0.2246 -0.2514 -0.1736
 1459SOL    HW2 5608   0.676   6.335  -0.016  0.4167 -0.1528 -0.0266
 1459SOL    HW3 5609   0.658   6.325   0.134  0.7908  1.4777  0.1529
 1459SOL    MW4 5610   0.627   6.347   0.056  0.6614  0.2318  0.0048
 1460SOL     OW 5611   0.023   3.526   1.207 -0.7401 -0.4717 -0.1670
 1460SOL    HW2 5612  -0.043   3.591   1.232 -1.6214 -0.9087 -1.2622
 1460SOL    HW3 5613   0.101   3.577   1.188  0.1761 -0.1030  3.7121
 1460SOL    MW4 5614   0.024   3.542   1.208  0.3025 -0.2294  0.4174
 1461SOL     OW 5615   3.002   1.923   3.093  0.2046  0.0878  0.0076
 1461SOL    HW2 5616   2.928   1.865   3.110  0.0967  0.7770  2.2570
 1461SOL    HW3 5617   3.034   1.898   3.007 -0.3090 -2.7529  0.5677
 1461SOL    MW4 5618   2.996   1.912   3.084 -0.0348  0.2745 -0.1762
 1462SOL     OW 5619   4.936   2.909   1.437  0.8597  0.0041  1.1308
 1462SOL    HW2 5620   4.876   2.895   1.511  0.8765 -2.2693  0.7983
 1462SOL    HW3 5621   4.996   2.834   1.442  1.7306  0.5828 -0.3655
 1462SOL    MW4 5622   4.936   2.897   1.448 -0.3228 -0.2198  0.0540
 1463SOL     OW 5623   3.190   1.014   3.819  0.4282  0.4869 -0.3416
 1463SOL    HW2 5624   3.253   0.995   3.749  1.2569  2.2228 -0.1338
 1463SOL    HW3 5625   3.240   1.005   3.900 -0.4622 -1.2656  0.0479
 1463SOL    MW4 5626   3.205   1.011   3.820  0.6226  0.0747 -0.1144
 1464SOL     OW 5627   3.565   4.666   0.855 -0.1925  0.0579 -0.3969
 1464SOL    HW2 5628   3.624   4.632   0.922 -0.3232  1.1321  0.2970
 1464SOL    HW3 5629   3.533   4.588   0.809  0.6816 -0.6285  0.1178
 1464SOL    MW4 5630   3.569   4.651   0.858 -0.2724  0.1348 -1.1251
 1465SOL     OW 5631   4.971   1.733   2.443 -0.3678  0.2271 -0.2377
 1465SOL    HW2 5632   4.976   1.692   2.529  0.6541 -0.6007 -0.6786
 1465SOL    HW3 5633   4.877   1.751   2.431 -0.3999  1.4732  1.5304
 1465SOL    MW4 5634   4.959   1.730   2.452 -0.2904 -0.4411 -0.1950
 1466SOL     OW 5635   5.299   5.416   5.475 -0.4737 -0.6896 -0.0886
 1466SOL    HW2 5636   5.301   5.499   5.523  0.8819 -0.0999 -1.1115
 1466SOL    HW3 5637   5.251   5.436   5.394 -0.4733 -0.9997 -0.1666
 1466SOL    MW4 5638   5.293   5.429   5.471 -0.4012 -0.8579 -0.3502
 1467SOL     OW 5639   2.999   6.340   0.974  0.3632 -0.4021 -0.1172
 1467SOL    HW2 5640   3.025   6.277   0.908  0.3790 -0.1852 -0.3184
 1467SOL    HW3 5641   3.036   6.423   0.945 -0.7515 -0.0362 -0.5445
 1467SOL    MW4 5642   3.007   6.343   0.962  0.3200  0.1651  0.4119
 1468SOL     OW 5643   4.372   3.782   6.258 -0.0017  0.0268  0.0481
 1468SOL    HW2 5644   4.404   3.870   6.242  0.2390 -0.0761 -0.0528
 1468SOL    HW3 5645   4.439   3.742   6.315 -0.7326  0.3135  1.1318
 1468SOL    MW4 5646   4.385   3.788   6.264  0.1744  0.5596 -0.1521
 1469SOL     OW 5647   6.323   3.774   2.889  0.3258  0.3931 -0.1126
 1469SOL    HW2 5648   6.411   3.761   2.925  0.3364 -2.2551 -0.8872
 1469SOL    HW3 5649   6.264   3.752   2.961  0.3394 -0.7500 -0.4312
 1469SOL    MW4 5650   6.327   3.769   2.903  0.3782 -0.2887 -0.3771
 1470SOL     OW 5651   5.230   5.703   0.413  0.1010 -0.4667 -0.0143
 1470SOL    HW2 5652   5.154   5.746   0.375  0.7876 -0.9609 -2.1063
 1470SOL    HW3 5653   5.304   5.734   0.360  1.2966 -0.4800  1.5580
 1470SOL    MW4 5654   5.230   5.713   0.401  0.0249  0.0197 -0.2325
 1471SOL     OW 5655   4.235   6.395   1.718  0.7193  0.1848  0.0608
 1471SOL    HW2 5656   4.322   6.356   1.712  1.3716  1.7549 -1.7107
 1471SOL    HW3 5657   4.184   6.333   1.771  3.1907 -0.1821  2.1782
 1471SOL    MW4 5658   4.240   6.382   1.724  0.0136 -0.3819 -0.3873
 1472SOL     OW 5659   2.343   5.933   5.069 -0.0888  0.0610  0.0121
 1472SOL    HW2 5660   2.352   5.947   4.974 -1.6829 -1.9237 -0.5209
 1472SOL    HW3 5661   2.266   5.984   5.093  0.5795  0.9292  0.3691
 1472SOL    MW4 5662   2.334   5.942   5.059  0.0245  0.1512  0.3094
 1473SOL     OW 5663   0.468   3.918   5.892  0.2613  0.4026  0.1527
 1473SOL    HW2 5664   0.549   3.946   5.936  1.5718 -0.4185 -1.5921
 1473SOL    HW3 5665   0.476   3.954   5.803 -0.3402 -1.2999 -0.6352
 1473SOL    MW4 5666   0.480   3.927   5.886 -0.4944 -0.1475 -0.2423
 1474SOL     OW 5667   3.735   6.165   6.052  0.0035  0.9781  0.1731
 1474SOL    HW2 5668   3.791   6.104   6.005  0.8519  1.6927  0.2198
 1474SOL    HW3 5669   3.668   6.190   5.989  0.1442  0.6372 -0.1117
 1474SOL    MW4 5670   3.734   6.161   6.038 -0.5873 -0.2604  0.2189
 1475SOL     OW 5671   0.704   5.247   2.756 -0.1591 -0.4245  0.0144
 1475SOL    HW2 5672   0.787   5.254   2.707 -0.2000 -0.4043 -0.0527
 1475SOL    HW3 5673   0.637   5.264   2.690 -0.2030 -0.0757  0.1448
 1475SOL    MW4 5674   0.706   5.250   2.741 -0.3653  0.0452 -0.3727
 1476SOL     OW 5675   4.459   2.060   1.332  0.2613  0.8489  0.1419
 1476SOL    HW2 5676   4.428   2.114   1.259 -0.2085  0.3750 -0.0130
 1476SOL    HW3 5677   4.508   1.989   1.291 -0.5603  0.2115  0.2390
 1476SOL    MW4 5678   4.461   2.058   1.317  0.1729  0.5547  0.6297
 1477SOL     OW 5679   2.077   6.198   2.545  0.0099 -0.2293  0.2689
 1477SOL    HW2 5680   2.165   6.179   2.578  0.4874  1.4651  0.0990
 1477SOL    HW3 5681   2.060   6.287   2.575 -0.1209  0.8873 -2.7456
 1477SOL    MW4 5682   2.087   6.207   2.553 -0.6909  0.4285  0.5314
 1478SOL     OW 5683   1.414   1.042   2.212 -0.4624 -0.1569  0.3600
 1478SOL    HW2 5684   1.319   1.042   2.218 -0.5398  0.0239 -0.6515
 1478SOL    HW3 5685   1.442   0.963   2.258 -1.0064  0.3797  1.6897
 1478SOL    MW4 5686   1.405   1.032   2.219 -0.3071  0.2165 -0.1557
 1479SOL     OW 5687   1.287   4.527   0.918  0.4078  0.2106 -0.2245
 1479SOL    HW2 5688   1.215   4.470   0.946  1.0226 -1.5024 -1.8912
 1479SOL    HW3 5689   1.357   4.510   0.980 -0.8357  2.6651  2.0540
 1479SOL    MW4 5690   1.287   4.517   0.930  0.2571  0.2511 -0.0823
 1480SOL     OW 5691   3.007   0.732   3.549  0.0570 -0.1293 -0.2288
 1480SOL    HW2 5692   3.052   0.808   3.513 -3.0357  0.9338 -2.2560
 1480SOL    HW3 5693   3.014   0.742   3.644  1.6384  1.4087 -0.4664
 1480SOL    MW4 5694   3.013   0.743   3.557 -0.0002  0.1140 -0.2618
 1481SOL     OW 5695   2.322   4.181   4.028 -0.0306  0.0634 -0.3022
 1481SOL    HW2 5696   2.238   4.144   4.057  0.7163 -0.4001  1.3844
 1481SOL    HW3 5697   2.346   4.128   3.952 -0.3649 -1.0559  0.3484
 1481SOL    MW4 5698   2.314   4.169   4.022  0.1530 -0.5757 -0.0196
 1482SOL     OW 5699   1.925   1.689   5.142  0.7865  0.2652  0.2788
 1482SOL    HW2 5700   1.974   1.754   5.090  1.5491 -1.0366 -0.6926
 1482SOL    HW3 5701   1.889   1.629   5.077 -0.8354  0.2974  1.0922
 1482SOL    MW4 5702   1.927   1.690   5.126  0.3054 -0.4279  0.0385
 1483SOL     OW 5703   3.668   3.568   0.536 -0.1101 -0.2228 -0.0386
 1483SOL    HW2 5704   3.635   3.633   0.597  0.2604  0.6405 -0.7274
 1483SOL    HW3 5705   3.755   3.545   0.569 -0.6982 -1.2631  0.8530
 1483SOL    MW4 5706   3.675   3.574   0.548 -0.4249 -0.3370 -0.3071
 1484SOL     OW 5707   4.211   4.882   4.509 -0.5431  0.1982  0.3892
 1484SOL    HW2 5708   4.283   4.846   4.457 -1.0307  0.0544 -0.2089
 1484SOL    HW3 5709   4.204   4.973   4.480 -0.3184  0.3401  0.7717
 1484SOL    MW4 5710   4.220   4.889   4.498 -0.0578  0.0625 -0.0123
 1485SOL     OW 5711   2.193   2.482   3.876  0.0513 -0.1471  0.3134
 1485SOL    HW2 5712   2.259   2.540   3.838 -0.4238  1.3248  1.6360
 1485SOL    HW3 5713   2.217   2.395   3.844  2.2248  0.4306  0.1790
 1485SOL    MW4 5714   2.205   2.478   3.867 -0.5807 -0.1419  0.1639
 1486SOL     OW 5715   5.968   0.083   1.124  0.0899 -0.7197 -0.3157
 1486SOL    HW2 5716   5.893   0.025   1.136 -0.1506 -0.4845 -0.6339
 1486SOL    HW3 5717   5.980   0.087   1.029 -0.0480 -0.0680 -0.3131
 1486SOL    MW4 5718   5.960   0.076   1.113  0.3912 -0.2805  0.2594
 1487SOL     OW 5719   0.843   6.080   2.253 -0.3511  0.0246 -0.1294
 1487SOL    HW2 5720   0.857   6.062   2.160  1.4349  1.0544 -0.0969
 1487SOL    HW3 5721   0.929   6.104   2.286 -1.1758  0.8057  1.5475
 1487SOL    MW4 5722   0.856   6.081   2.245 -0.0015 -0.4228 -0.0530
 1488SOL     OW 5723   0.893   1.388   5.994 -0.0896  0.3365  0.1844
 1488SOL    HW2 5724   0.973   1.417   5.950 -0.5225  1.2063 -0.0460
 1488SOL    HW3 5725   0.825   1.444   5.959 -0.7569 -0.1964  0.6117
 1488SOL    MW4 5726   0.895   1.399   5.984  0.2057 -0.7401  0.5622
 1489SOL     OW 5727   2.525   2.145   5.045  0.2121 -0.2952 -0.2038
 1489SOL    HW2 5728   2.604   2.129   5.096  1.2845 -0.0390 -1.7135
 1489SOL    HW3 5729   2.498   2.233   5.069  0.1867 -0.5073  0.5668
 1489SOL    MW4 5730   2.532   2.155   5.055 -0.2667 -0.7029  0.2332
 1490SOL     OW 5731   0.915   3.257   2.375 -0.4970  0.1611  0.9465
 1490SOL    HW2 5732   1.008   3.244   2.397  0.2045  1.2210 -1.0507
 1490SOL    HW3 5733   0.890   3.178   2.328  0.4193  1.1014 -1.3023
 1490SOL    MW4 5734   0.924   3.245   2.372 -0.0435 -0.3190 -0.0766
 1491SOL     OW 5735   2.651   2.768   3.477  0.5322  0.0600  0.2108
 1491SOL    HW2 5736   2.735   2.728   3.498  0.4892  0.2840  0.8368
 1491SOL    HW3 5737   2.645   2.764   3.382  0.1793 -2.1082  0.2875
 1491SOL    MW4 5738   2.661   2.762   3.467 -0.5749  0.4398 -0.2961
 1492SOL     OW 5739   2.748   2.553   1.169  0.3338  0.3474  0.5849
 1492SOL    HW2 5740   2.788   2.504   1.098  0.9595  0.9851  0.4884
 1492SOL    HW3 5741   2.665   2.508   1.186 -0.1252  0.5593 -0.9722
 1492SOL    MW4 5742   2.742   2.541   1.162  0.2466 -0.1229  0.4039
 1493SOL     OW 5743   3.923   2.420   2.272 -0.7195 -0.5583 -0.0260
 1493SOL    HW2 5744   3.870   2.341   2.259 -2.3849  0.6611 -1.1101
 1493SOL    HW3 5745   3.899   2.477   2.199 -1.2447  1.8153  1.8575
 1493SOL    MW4 5746   3.913   2.417   2.261  0.1920  0.1625  0.2951
 1494SOL     OW 5747   5.287   0.952   3.940  0.5402  0.3881 -0.2315
 1494SOL    HW2 5748   5.261   0.975   3.850  0.5678 -0.8210 -0.5713
 1494SOL    HW3 5749   5.324   1.033   3.976 -2.9572  2.0357  0.0350
 1494SOL    MW4 5750   5.289   0.966   3.933  0.0152  0.2160 -0.1029
 1495SOL     OW 5751   5.480   2.857   2.817  0.5664  0.4552  0.1647
 1495SOL    HW2 5752   5.405   2.863   2.876  1.5716  1.1813  1.3917
 1495SOL    HW3 5753   5.513   2.946   2.810  1.9194 -0.0060  0.4394
 1495SOL    MW4 5754   5.474   2.869   2.823 -0.5035 -0.0441  0.3909
 1496SOL     OW 5755   5.870   4.854   5.833 -0.0276  0.0427 -0.6337
 1496SOL    HW2 5756   5.856   4.765   5.864  5.3795 -1.4027 -1.3721
 1496SOL    HW3 5757   5.830   4.909   5.901  1.3982 -2.9787  3.0106
 1496SOL    MW4 5758   5.863   4.850   5.846  0.1372 -0.3388 -0.5599
 1497SOL     OW 5759   4.151   2.548   4.626 -0.3671 -0.0161  0.0984
 1497SOL    HW2 5760   4.178   2.598   4.704 -1.2210  0.5959  0.0141
 1497SOL    HW3 5761   4.061   2.521   4.645 -0.1131 -1.0461 -0.1075
 1497SOL    MW4 5762   4.143   2.551   4.639  0.0163 -0.2391 -0.0803
 1498SOL     OW 5763   1.944   4.457   2.808  0.1129  0.0907 -0.2486
 1498SOL    HW2 5764   1.997   4.426   2.734 -0.2334  0.4083 -0.6345
 1498SOL    HW3 5765   1.950   4.386   2.872 -0.2990 -0.5880 -0.9399
 1498SOL    MW4 5766   1.952   4.443   2.807 -0.3305 -0.2320  0.4873
 1499SOL     OW 5767   0.349   3.686   0.687 -0.1293 -0.1803  0.2071
 1499SOL    HW2 5768   0.343   3.593   0.667 -1.3110  0.0832 -0.7693
 1499SOL    HW3 5769   0.262   3.708   0.723  0.3467  0.4164  1.0343
 1499SOL    MW4 5770   0.337   3.677   0.689  0.3491  0.4957 -0.4160
 1500SOL     OW 5771   5.189   2.747   3.288  0.2411  0.6820 -0.1242
 1500SOL    HW2 5772   5.152   2.761   3.375 -1.5993  0.5918 -0.8477
 1500SOL    HW3 5773   5.173   2.655   3.269  1.3623  0.5042 -0.2447
 1500SOL    MW4 5774   5.182   2.737   3.297 -0.1583  0.7337 -0.0777
 1501SOL     OW 5775   5.230   5.082   0.599 -0.2720  0.2663 -0.2266
 1501SOL    HW2 5776   5.167   5.016   0.572 -0.3636  0.3155 -0.1361
 1501SOL    HW3 5777   5.180   5.164   0.599 -0.1773  0.3241 -0.2695
 1501SOL    MW4 5778   5.215   5.084   0.596 -0.1959 -0.3236 -0.3533
 1502SOL     OW 5779   4.445   2.905   4.065  0.4445  0.2289  0.2731
 1502SOL    HW2 5780   4.448   2.975   4.130  1.4866 -0.1557  0.6590
 1502SOL    HW3 5781   4.353   2.880   4.060  0.3246  0.3816  1.4869
 1502SOL    MW4 5782   4.433   2.911   4.073  0.1728  0.2846 -0.3741
 1503SOL     OW 5783   0.285   5.470   1.411  0.0354  0.6318 -0.3640
 1503SOL    HW2 5784   0.192   5.457   1.392 -0.3897  0.4961  1.5538
 1503SOL    HW3 5785   0.300   5.563   1.395 -0.3712  0.6127 -0.8687
 1503SOL    MW4 5786   0.275   5.481   1.407 -0.9955  0.1583 -0.5225
 1504SOL     OW 5787   6.375   3.514   5.379 -0.7851  0.2154 -0.2460
 1504SOL    HW2 5788   6.316   3.568   5.431 -1.2077  0.1888 -0.6940
 1504SOL    HW3 5789   6.324   3.435   5.360 -0.1884 -0.3416  0.3792
 1504SOL    MW4 5790   6.360   3.510   5.384 -0.0635  0.1845 -0.2382
 1505SOL     OW 5791   2.533   5.395   2.673 -0.2278  0.0475 -0.7223
 1505SOL    HW2 5792   2.579   5.322   2.632  1.4130  1.4945 -1.5283
 1505SOL    HW3 5793   2.474   5.428   2.605  0.9066  1.0604 -1.2531
 1505SOL    MW4 5794   2.531   5.390   2.659 -0.6153 -0.1433  0.1452
 1506SOL     OW 5795   2.700   1.805   1.308 -1.3723 -0.0534 -0.2514
 1506SOL    HW2 5796   2.693   1.775   1.398 -0.4296 -0.4473 -0.2943
 1506SOL    HW3 5797   2.779   1.762   1.275 -0.3068  1.9791 -0.5101
 1506SOL    MW4 5798   2.709   1.795   1.315 -0.2798  0.8952 -0.1794
 1507SOL     OW 5799   4.825   2.996   1.206  0.4957 -0.0117  0.0405
 1507SOL    HW2 5800   4.894   3.019   1.143  0.5224  0.4465  0.2352
 1507SOL    HW3 5801   4.872   2.963   1.282  0.5162  0.5681  0.2833
 1507SOL    MW4 5802   4.840   2.995   1.207 -0.5573 -0.0206 -0.3204
 1508SOL     OW 5803   0.588   5.582   1.102 -0.4534 -0.1400  0.0171
 1508SOL    HW2 5804   0.520   5.576   1.035  0.5206  0.2660 -1.0387
 1508SOL    HW3 5805   0.668   5.556   1.058  0.2243  0.1622  1.0222
 1508SOL    MW4 5806   0.589   5.578   1.088  0.0990  0.2471 -0.0008
 1509SOL     OW 5807   4.403   2.296   0.305  0.3535  0.0125  0.4318
 1509SOL    HW2 5808   4.472   2.329   0.363  0.1258 -0.8349  1.2143
 1509SOL    HW3 5809   4.324   2.340   0.335  0.6508  1.6431 -1.0207
 1509SOL    MW4 5810   4.402   2.306   0.317 -0.4639  0.5282 -0.1315
 1510SOL     OW 5811   1.447   2.063   6.118  0.3217 -0.0482 -0.3496
 1510SOL    HW2 5812   1.460   2.149   6.158  1.2416  1.0117 -2.7482
 1510SOL    HW3 5813   1.361   2.069   6.076 -0.2110 -0.7994  0.6077
 1510SOL    MW4 5814   1.437   2.076   6.118 -0.4446 -0.1770 -0.2778
 1511SOL     OW 5815   1.748   3.795   1.807  0.1961 -0.0822 -0.0492
 1511SOL    HW2 5816   1.844   3.794   1.814  0.1517 -1.8856  0.9492
 1511SOL    HW3 5817   1.717   3.760   1.891 -1.3718  0.9529 -0.1544
 1511SOL    MW4 5818   1.757   3.790   1.819 -0.1152 -0.2790 -0.4001
 1512SOL     OW 5819   3.379   0.187   5.612  0.4446  0.0355  0.0201
 1512SOL    HW2 5820   3.400   0.280   5.621  0.2564 -0.0516  1.6128
 1512SOL    HW3 5821   3.459   0.148   5.577  1.3174  0.4682  1.4622
 1512SOL    MW4 5822   3.392   0.194   5.609 -0.5698  0.5578  0.2427
 1513SOL     OW 5823   5.694   5.963   0.549  0.0052  0.6030  0.4265
 1513SOL    HW2 5824   5.759   5.987   0.615 -0.0641 -0.0789  0.7491
 1513SOL    HW3 5825   5.610   5.971   0.594  0.0812 -3.3766  1.6594
 1513SOL    MW4 5826   5.691   5.967   0.564 -0.6498  0.1274  0.9156
 1514SOL     OW 5827   4.345   5.378   0.808 -0.5034  0.6000 -0.3994
 1514SOL    HW2 5828   4.435   5.396   0.782 -0.5552  1.8948  0.2461
 1514SOL    HW3 5829   4.302   5.463   0.810 -1.5188  0.1026  0.1126
 1514SOL    MW4 5830   4.351   5.391   0.805  0.1295  0.1306  0.1064
 1515SOL     OW 5831   5.708   3.367   1.997  0.2676  0.1177  0.1685
 1515SOL    HW2 5832   5.662   3.283   1.991 -1.1363  0.8721 -0.2374
 1515SOL    HW3 5833   5.640   3.429   2.025  0.4613  1.6986 -2.5560
 1515SOL    MW4 5834   5.693   3.364   2.000 -0.3930  0.9084  0.1940
 1516SOL     OW 5835   2.524   1.848   3.144  0.2454  0.2511  0.8495
 1516SOL    HW2 5836   2.619   1.845   3.136  0.1506  0.0794 -0.5223
 1516SOL    HW3 5837   2.496   1.757   3.135 -0.1552  0.5086 -0.9998
 1516SOL    MW4 5838   2.533   1.836   3.142  0.3509 -0.7336  0.4560
 1517SOL     OW 5839   5.132   5.974   0.053 -0.4234 -0.5066  0.4884
 1517SOL    HW2 5840   5.196   5.907   0.078  0.4421 -0.2545 -0.9816
 1517SOL    HW3 5841   5.185   6.049   0.026 -1.3619  0.1066  0.3021
 1517SOL    MW4 5842   5.148   5.975   0.053  0.5545  0.1121  0.0758
 1518SOL     OW 5843   5.675   4.114   5.149 -0.0352 -0.2186 -0.0940
 1518SOL    HW2 5844   5.616   4.043   5.124  1.6750 -1.9231  0.4713
 1518SOL    HW3 5845   5.709   4.088   5.234  1.5241  0.6955 -0.3948
 1518SOL    MW4 5846   5.671   4.101   5.157 -0.4716  0.6171  0.0561
 1519SOL     OW 5847   6.064   1.655   1.362 -0.0879 -0.5396  0.4925
 1519SOL    HW2 5848   6.073   1.742   1.323 -0.3216 -0.5006  0.5246
 1519SOL    HW3 5849   6.087   1.668   1.454 -2.7280  0.0799  1.1793
 1519SOL    MW4 5850   6.068   1.668   1.369  0.6924 -0.3327  0.2926
 1520SOL     OW 5851   1.766   1.521   0.953 -0.1158 -0.2126 -0.4034
 1520SOL    HW2 5852   1.722   1.595   0.911  0.3219 -0.4910 -1.3859
 1520SOL    HW3 5853   1.857   1.529   0.926  0.0810 -0.6945  0.0962
 1520SOL    MW4 5854   1.772   1.532   0.944  0.9402 -0.0702 -0.7302
 1521SOL     OW 5855   2.389   1.525   4.162 -0.1403 -0.4461  0.1238
 1521SOL    HW2 5856   2.361   1.545   4.072  2.2817  2.6671 -0.1100
 1521SOL    HW3 5857   2.449   1.451   4.152  0.6193  0.2819 -0.9779
 1521SOL    MW4 5858   2.393   1.518   4.149 -0.4942  0.0253  0.7111
 1522SOL     OW 5859   2.490   2.161   5.479 -0.0743  1.0555  0.0256
 1522SOL    HW2 5860   2.550   2.107   5.531  0.7532  0.7625 -1.1998
 1522SOL    HW3 5861   2.510   2.251   5.506  1.2446  0.9923 -0.6840
 1522SOL    MW4 5862   2.500   2.166   5.490 -0.0568  0.4757 -0.3147
 1523SOL     OW 5863   3.745   1.258   2.304  0.3060  0.2378  0.8611
 1523SOL    HW2 5864   3.653   1.273   2.282  0.3431  1.3510  1.4001
 1523SOL    HW3 5865   3.772   1.188   2.245  0.0549  2.1819 -1.7552
 1523SOL    MW4 5866   3.736   1.251   2.293  0.0240 -0.2540  0.4669
 1524SOL     OW 5867   4.144   2.330   3.699 -0.4196 -0.2295 -0.1987
 1524SOL    HW2 5868   4.052   2.306   3.691 -0.5401  0.2231 -0.1878
 1524SOL    HW3 5869   4.148   2.387   3.776  0.2217 -1.9851  1.1268
 1524SOL    MW4 5870   4.133   2.335   3.708  0.6301  0.0746  0.2882
 1525SOL     OW 5871   2.565   1.810   5.723 -0.0178 -0.6386 -0.2629
 1525SOL    HW2 5872   2.503   1.864   5.772 -2.3759 -1.5487 -2.0952
 1525SOL    HW3 5873   2.533   1.721   5.734  1.9639 -1.3691  0.0501
 1525SOL    MW4 5874   2.553   1.806   5.731 -0.1417 -0.0234  0.1263
 1526SOL     OW 5875   2.715   4.781   0.714 -0.0853  0.1846 -0.4213
 1526SOL    HW2 5876   2.762   4.748   0.637 -0.8548  0.6340 -1.1104
 1526SOL    HW3 5877   2.704   4.705   0.770 -0.6053 -0.4480 -1.3454
 1526SOL    MW4 5878   2.719   4.767   0.711  0.0919  0.1614 -0.0151
 1527SOL     OW 5879   4.085   1.797   6.367  0.0031  0.1838 -0.1273
 1527SOL    HW2 5880   4.043   1.867   6.317  0.7258  1.0246  0.4135
 1527SOL    HW3 5881   4.012   1.745   6.402 -0.5225  0.3294 -0.9982
 1527SOL    MW4 5882   4.070   1.799   6.365 -0.5224  0.3163 -0.2660
 1528SOL     OW 5883   4.014   4.962   0.134  0.4693  0.0860 -0.2649
 1528SOL    HW2 5884   4.017   4.874   0.095 -0.1569 -0.7830  1.5553
 1528SOL    HW3 5885   4.033   4.948   0.226 -0.2154  1.7983  0.1645
 1528SOL    MW4 5886   4.017   4.948   0.141  0.4027  0.0134  0.1444
 1529SOL     OW 5887   5.200   4.432   4.247 -0.1452  0.2439  0.2377
 1529SOL    HW2 5888   5.192   4.421   4.342 -0.4257 -0.9780  0.0881
 1529SOL    HW3 5889   5.192   4.526   4.234  0.8176  0.5388  1.5015
 1529SOL    MW4 5890   5.198   4.443   4.258 -0.1593 -0.3950  0.1996
 1530SOL     OW 5891   3.178   0.897   0.128  0.3357  0.1583  0.2025
 1530SOL    HW2 5892   3.142   0.978   0.164 -2.1831 -0.2153 -1.2603
 1530SOL    HW3 5893   3.179   0.911   0.034  0.1705 -1.3759 -0.0483
 1530SOL    MW4 5894   3.173   0.910   0.120 -0.6525 -0.2213 -0.7283
 1531SOL     OW 5895   0.525   4.183   6.204  0.4260 -1.0975  0.2422
 1531SOL    HW2 5896   0.574   4.232   6.270  0.1670 -0.0730 -0.3138
 1531SOL    HW3 5897   0.512   4.097   6.244  1.5543 -0.9805  0.9234
 1531SOL    MW4 5898   0.530   4.178   6.218  0.4458  0.5572 -0.0604
 1532SOL     OW 5899   2.816   3.754   4.349 -0.6002  0.0232  0.2910
 1532SOL    HW2 5900   2.851   3.842   4.360  1.6794 -0.7229 -0.4413
 1532SOL    HW3 5901   2.861   3.702   4.416  1.1635 -1.3200 -1.8110
 1532SOL    MW4 5902   2.827   3.759   4.360 -0.1277 -0.4640  0.0815
 1533SOL     OW 5903   2.623   4.005   1.234  0.1514 -0.2019 -0.0808
 1533SOL    HW2 5904   2.648   3.914   1.250  1.7652  0.4232  1.2843
 1533SOL    HW3 5905   2.556   4.023   1.300  0.1785 -0.2771 -0.0326
 1533SOL    MW4 5906   2.618   3.996   1.245  0.2086  0.1182  0.5136
 1534SOL     OW 5907   4.001   6.223   4.940  0.1952 -0.1087  0.0868
 1534SOL    HW2 5908   4.082   6.273   4.950  0.7394 -0.9372 -0.0854
 1534SOL    HW3 5909   3.997   6.203   4.846  0.4651 -1.1590  0.2821
 1534SOL    MW4 5910   4.011   6.227   4.929  0.2708  0.2442  0.0021
 1535SOL     OW 5911   5.470   5.377   4.120 -0.3730 -0.3430  0.3163
 1535SOL    HW2 5912   5.455   5.464   4.082  2.8261 -0.6887 -2.1581
 1535SOL    HW3 5913   5.539   5.391   4.184  0.7337 -1.0911 -0.6654
 1535SOL    MW4 5914   5.477   5.391   4.123  0.2197 -0.4130  0.1704
 1536SOL     OW 5915   4.701   5.024   0.859 -0.5539  0.6000 -0.3128
 1536SOL    HW2 5916   4.760   4.996   0.929 -1.7820 -1.0770  0.1039
 1536SOL    HW3 5917   4.750   5.008   0.778 -0.0435  0.2500  0.0652
 1536SOL    MW4 5918   4.715   5.018   0.857  0.4519 -0.4059  0.1301
 1537SOL     OW 5919   2.064   2.586   1.675  0.2962 -0.3836 -0.3754
 1537SOL    HW2 5920   2.141   2.622   1.719  0.2000 -0.6923  0.0439
 1537SOL    HW3 5921   2.012   2.547   1.745 -0.9685  1.1094 -0.4434
 1537SOL    MW4 5922   2.068   2.586   1.690 -0.4279  0.6035 -0.0475
 1538SOL     OW 5923   6.214   0.886   6.385  0.5147 -0.0063  0.2520
 1538SOL    HW2 5924   6.166   0.831   6.447  1.4837  1.0468  2.0155
 1538SOL    HW3 5925   6.147   0.918   6.325 -0.9711  0.9802  2.3014
 1538SOL    MW4 5926   6.199   0.883   6.386 -0.5020  0.4125  0.6431
 1539SOL     OW 5927   3.572   1.180   3.110  0.4581  0.1091  0.1288
 1539SOL    HW2 5928   3.572   1.270   3.078 -0.8630 -0.1343 -0.6073
 1539SOL    HW3 5929   3.488   1.171   3.155 -0.5709 -1.4610 -1.9443
 1539SOL    MW4 5930   3.561   1.191   3.112 -0.0431 -0.2687  0.0455
 1540SOL     OW 5931   2.034   1.557   1.482 -0.4801 -0.4567  0.5089
 1540SOL    HW2 5932   2.044   1.652   1.483  0.1371 -0.4728 -1.2404
 1540SOL    HW3 5933   1.940   1.543   1.498 -1.4864  0.7180 -3.2061
 1540SOL    MW4 5934   2.023   1.567   1.484  0.1563 -0.4958  0.0953
 1541SOL     OW 5935   5.149   4.680   4.949 -0.3190 -0.3417 -0.4167
 1541SOL    HW2 5936   5.100   4.754   4.983  2.0231  0.1291  2.2823
 1541SOL    HW3 5937   5.104   4.603   4.984  1.5270  0.1125  3.4203
 1541SOL    MW4 5938   5.136   4.680   4.958  0.1520 -0.0167  0.1154
 1542SOL     OW 5939   1.490   0.785   2.083 -0.3041  0.5738  0.4015
 1542SOL    HW2 5940   1.396   0.771   2.072  0.0338  0.3988 -3.3143
 1542SOL    HW3 5941   1.523   0.704   2.122 -1.4705  0.0767  0.3817
 1542SOL    MW4 5942   1.482   0.773   2.087 -0.5219  0.6942 -0.1251
 1543SOL     OW 5943   5.049   3.367   0.331 -0.0382 -0.7059 -1.2161
 1543SOL    HW2 5944   5.136   3.363   0.371 -0.3912 -1.7509 -0.5033
 1543SOL    HW3 5945   5.057   3.316   0.251 -0.9400 -4.3695  0.8286
 1543SOL    MW4 5946   5.062   3.360   0.325 -0.1675  0.1249 -0.2930
 1544SOL     OW 5947   5.004   1.669   0.536 -0.9913  0.3541 -0.0567
 1544SOL    HW2 5948   4.925   1.683   0.484 -2.0520  0.3307  1.4817
 1544SOL    HW3 5949   5.020   1.753   0.579 -0.4310  0.2317 -0.0124
 1544SOL    MW4 5950   4.996   1.682   0.535 -0.1512  0.6501 -0.1380
 1545SOL     OW 5951   5.114   2.693   1.156  0.4602  0.0817 -0.4332
 1545SOL    HW2 5952   5.207   2.709   1.137  1.0393 -2.0456  0.3443
 1545SOL    HW3 5953   5.110   2.691   1.251 -0.8031  2.0782 -0.3906
 1545SOL    MW4 5954   5.126   2.695   1.166  0.3856 -0.3567  0.1551
 1546SOL     OW 5955   0.887   1.628   0.643  0.4034 -0.1219 -0.1715
 1546SOL    HW2 5956   0.911   1.667   0.727 -0.5012 -0.9400  0.4870
 1546SOL    HW3 5957   0.804   1.584   0.660 -0.9734  1.6021 -2.0717
 1546SOL    MW4 5958   0.879   1.627   0.657  0.3264  0.0633 -0.1952
 1547SOL     OW 5959   0.863   0.540   2.232  0.2830  0.0725  0.6102
 1547SOL    HW2 5960   0.771   0.566   2.234  0.0633 -0.6816  0.4207
 1547SOL    HW3 5961   0.883   0.514   2.322  0.5149  0.9202  0.8095
 1547SOL    MW4 5962   0.853   0.540   2.244 -0.5291  0.1358  0.2497
 1548SOL     OW 5963   2.196   4.244   2.085 -0.0501  0.4777 -0.1956
 1548SOL    HW2 5964   2.145   4.183   2.138  0.5597  2.0702  2.3782
 1548SOL    HW3 5965   2.150   4.247   2.001 -1.4980 -1.5966  0.4523
 1548SOL    MW4 5966   2.183   4.236   2.081  0.1514 -0.0664 -0.2100
 1549SOL     OW 5967   6.172   3.229   5.617  0.4561 -0.0151  0.4862
 1549SOL    HW2 5968   6.138   3.193   5.699 -0.8102 -0.3409 -0.1489
 1549SOL    HW3 5969   6.195   3.151   5.565  0.5920  0.1674  0.2719
 1549SOL    MW4 5970   6.171   3.214   5.621 -0.6713  0.0037  0.0980
 1550SOL     OW 5971   1.477   5.883   6.188 -0.3288 -0.0789  0.6001
 1550SOL    HW2 5972   1.523   5.937   6.124 -2.1003  0.1649 -0.5344
 1550SOL    HW3 5973   1.441   5.946   6.251 -0.5496 -0.1217  0.5171
 1550SOL    MW4 5974   1.478   5.899   6.188 -0.2916  0.2460  0.1850
 1551SOL     OW 5975   2.818   4.708   1.650  0.1246 -0.4686 -0.5143
 1551SOL    HW2 5976   2.885   4.774   1.665 -0.9254  0.3116  1.0810
 1551SOL    HW3 5977   2.742   4.758   1.619 -0.2810 -1.0939 -0.5446
 1551SOL    MW4 5978   2.817   4.723   1.648  0.4890  0.3698 -0.6204
 1552SOL     OW 5979   1.584   1.512   5.762  0.1402  0.7147 -0.4203
 1552SOL    HW2 5980   1.511   1.508   5.701 -0.6545  0.8065  0.5068
 1552SOL    HW3 5981   1.551   1.563   5.836  0.0339 -1.9090  1.4807
 1552SOL    MW4 5982   1.570   1.519   5.763  0.1908  0.2177 -0.7189
 1553SOL     OW 5983   0.942   0.383   3.441 -0.4268  0.2765 -0.3718
 1553SOL    HW2 5984   0.934   0.291   3.414 -0.2559 -0.2817  1.3655
 1553SOL    HW3 5985   0.869   0.427   3.398 -0.6117 -0.6861 -1.0876
 1553SOL    MW4 5986   0.932   0.376   3.431  0.3598  0.3625  0.5411
 1554SOL     OW 5987   4.919   4.007   5.583  0.4654 -0.4466  0.4193
 1554SOL    HW2 5988   4.887   4.088   5.622  0.9473  0.0882 -0.2729
 1554SOL    HW3 5989   5.008   4.028   5.554  1.1411 -1.6439  1.5252
 1554SOL    MW4 5990   4.927   4.020   5.585 -0.2515 -0.0685 -0.2438
 1555SOL     OW 5991   3.030   0.662   0.187 -0.8204  0.5904 -0.4999
 1555SOL    HW2 5992   3.014   0.639   0.095  2.7628  0.3653 -1.2261
 1555SOL    HW3 5993   3.072   0.748   0.183 -0.0547  0.3026  0.8677
 1555SOL    MW4 5994   3.033   0.670   0.174 -0.6222  0.0413  0.4621
 1556SOL     OW 5995   2.846   1.120   3.557 -0.2207  0.1033  0.4245
 1556SOL    HW2 5996   2.774   1.080   3.506 -0.5441  0.5247  0.5493
 1556SOL    HW3 5997   2.825   1.213   3.559  0.7611  0.3509 -0.2345
 1556SOL    MW4 5998   2.834   1.127   3.550 -0.0656  0.5568 -0.2807
 1557SOL     OW 5999   4.524   2.290   2.072 -0.0151 -0.2170 -0.0162
 1557SOL    HW2 6000   4.565   2.374   2.094 -1.4037  0.3274  0.5611
 1557SOL    HW3 6001   4.535   2.282   1.977  0.3615  0.4840 -0.0387
 1557SOL    MW4 6002   4.531   2.300   2.062  0.0578 -0.1646 -0.2146
 1558SOL     OW 6003   5.130   5.590   3.450  0.1410 -0.2965  0.0893
 1558SOL    HW2 6004   5.223   5.564   3.453  0.1225 -0.3154  1.0499
 1558SOL    HW3 6005   5.083   5.507   3.458  0.0626 -0.1950  0.7838
 1558SOL    MW4 6006   5.136   5.576   3.452  0.1823  0.1216  0.9748
 1559SOL     OW 6007   4.977   4.519   6.298 -0.1560  0.0965  0.4012
 1559SOL    HW2 6008   5.023   4.497   6.379 -0.8877 -1.3950  0.4368
 1559SOL    HW3 6009   4.885   4.523   6.322 -0.2918  0.6239 -0.1697
 1559SOL    MW4 6010   4.971   4.516   6.312  0.1025  0.3454 -0.4751
 1560SOL     OW 6011   5.438   1.200   5.245 -0.0558 -0.2519 -0.3731
 1560SOL    HW2 6012   5.460   1.277   5.192 -2.6152  0.6243 -0.2720
 1560SOL    HW3 6013   5.521   1.176   5.287  1.4117  0.7821 -2.4780
 1560SOL    MW4 6014   5.452   1.207   5.243  0.4440  0.1545 -0.1868
 1561SOL     OW 6015   5.686   0.958   1.786 -0.1981 -0.5829 -0.0001
 1561SOL    HW2 6016   5.773   0.945   1.824 -0.3398 -0.6235  0.3155
 1561SOL    HW3 6017   5.685   0.902   1.709  0.2437 -0.1753 -0.3077
 1561SOL    MW4 6018   5.697   0.949   1.781  0.2317  0.0278  0.3868
 1562SOL     OW 6019   4.714   5.468   1.689  0.4467 -0.1021 -0.6557
 1562SOL    HW2 6020   4.695   5.524   1.613 -0.5633 -0.2931 -0.5512
 1562SOL    HW3 6021   4.629   5.445   1.724  0.8809 -0.8656 -0.0698
 1562SOL    MW4 6022   4.701   5.472   1.683  0.2283  0.8576 -0.3641
 1563SOL     OW 6023   5.802   2.215   1.779 -0.4589  0.4549 -0.4433
 1563SOL    HW2 6024   5.876   2.211   1.840 -0.0869 -0.6415 -0.9292
 1563SOL    HW3 6025   5.795   2.126   1.744 -1.8128  0.6191 -0.6496
 1563SOL    MW4 6026   5.811   2.202   1.782  0.3951  0.0441 -0.3844
 1564SOL     OW 6027   5.145   3.878   0.606  0.5537  0.6324  1.0969
 1564SOL    HW2 6028   5.212   3.946   0.617  2.1465 -0.4638 -1.1123
 1564SOL    HW3 6029   5.184   3.801   0.647  0.0037  0.3243  1.0396
 1564SOL    MW4 6030   5.159   3.877   0.613  0.2149  0.1748 -0.1238
 1565SOL     OW 6031   5.347   0.527   3.172 -0.0807 -0.0097 -0.5754
 1565SOL    HW2 6032   5.306   0.447   3.141  0.5808 -0.2045 -0.9651
 1565SOL    HW3 6033   5.422   0.497   3.224 -0.2628  0.3460 -0.0927
 1565SOL    MW4 6034   5.351   0.513   3.175  0.5910  0.0459  0.2729
 1566SOL     OW 6035   1.537   5.502   1.074 -0.3077 -0.0803 -0.5069
 1566SOL    HW2 6036   1.533   5.595   1.049  0.4221 -0.0440 -0.4949
 1566SOL    HW3 6037   1.591   5.501   1.152  0.3823 -0.6107 -0.9832
 1566SOL    MW4 6038   1.543   5.514   1.081 -0.2048  0.2915  0.2778
 1567SOL     OW 6039   3.934   3.486   5.141 -0.4569 -0.1055 -0.6145
 1567SOL    HW2 6040   3.986   3.544   5.085  0.3013 -0.1999 -0.0315
 1567SOL    HW3 6041   3.849   3.481   5.098  0.2131 -0.4701 -1.9539
 1567SOL    MW4 6042   3.929   3.493   5.128  0.3183  0.1087 -0.2848
 1568SOL     OW 6043   4.288   2.309   1.580 -0.0700  0.0356 -0.0387
 1568SOL    HW2 6044   4.377   2.290   1.610  0.6639  1.5147 -1.1869
 1568SOL    HW3 6045   4.288   2.283   1.488 -1.4188 -1.6786  0.3931
 1568SOL    MW4 6046   4.300   2.303   1.572  0.4669 -0.4482 -0.1460
 1569SOL     OW 6047   1.643   3.995   4.985 -0.3652  0.2273 -0.0095
 1569SOL    HW2 6048   1.637   3.900   4.978  1.2390 -0.0845  1.9478
 1569SOL    HW3 6049   1.619   4.027   4.898  3.1966 -2.1929 -2.1412
 1569SOL    MW4 6050   1.639   3.987   4.973  0.0850  0.2181  0.3506
 1570SOL     OW 6051   4.006   2.264   1.588  0.2869  0.0277  0.6472
 1570SOL    HW2 6052   4.100   2.276   1.596  0.3602 -0.6432  0.8402
 1570SOL    HW3 6053   3.983   2.206   1.660 -0.5092  1.3420  1.5087
 1570SOL    MW4 6054   4.015   2.258   1.599  0.4503  0.3325  0.1467
 1571SOL     OW 6055   5.569   2.872   5.288 -0.0561  0.3299  0.1965
 1571SOL    HW2 6056   5.648   2.882   5.235 -0.0401 -0.7554 -0.0148
 1571SOL    HW3 6057   5.595   2.812   5.358 -0.6727  0.0109  0.1587
 1571SOL    MW4 6058   5.583   2.865   5.290 -0.5281 -0.1447  0.0863
 1572SOL     OW 6059   2.327   2.676   4.975 -0.3734 -0.8538  0.1241
 1572SOL    HW2 6060   2.350   2.602   5.031 -1.3018 -0.1206  1.5404
 1572SOL    HW3 6061   2.241   2.653   4.939 -0.3975 -0.7135  0.0923
 1572SOL    MW4 6062   2.318   2.663   4.977 -0.0147 -0.4041  0.4199
 1573SOL     OW 6063   2.505   4.308   2.712  0.0528 -0.5862  0.2044
 1573SOL    HW2 6064   2.588   4.337   2.675 -1.1241  0.3481 -1.9193
 1573SOL    HW3 6065   2.466   4.387   2.749 -1.2979 -0.2031 -1.8315
 1573SOL    MW4 6066   2.511   4.322   2.712  0.0148  0.2197 -0.3287
 1574SOL     OW 6067   2.593   6.307   0.799 -0.0074 -0.7429  0.0530
 1574SOL    HW2 6068   2.521   6.303   0.862  0.0840 -1.2595  0.1224
 1574SOL    HW3 6069   2.646   6.381   0.829 -0.7174 -0.1004 -0.2304
 1574SOL    MW4 6070   2.591   6.316   0.811 -0.3792  0.3604  0.9404
 1575SOL     OW 6071   1.456   5.382   1.838  1.1582  0.4424 -0.2182
 1575SOL    HW2 6072   1.530   5.367   1.897  1.1672  0.8100 -0.1309
 1575SOL    HW3 6073   1.401   5.445   1.885  1.0305  0.5324 -0.4883
 1575SOL    MW4 6074   1.458   5.389   1.852 -0.0969 -0.2355 -0.2174
 1576SOL     OW 6075   6.074   5.205   4.447 -0.8128 -0.3905 -0.5171
 1576SOL    HW2 6076   6.068   5.226   4.353 -0.1394 -0.0612 -0.4927
 1576SOL    HW3 6077   6.074   5.110   4.450  1.3675 -0.4780 -1.0484
 1576SOL    MW4 6078   6.074   5.196   4.435 -0.3407  0.1476  0.1522
 1577SOL     OW 6079   4.901   1.519   1.691  0.0682  0.3946  0.1768
 1577SOL    HW2 6080   4.918   1.602   1.647  0.5749  0.1862 -0.0390
 1577SOL    HW3 6081   4.861   1.464   1.623  2.0725 -0.3750 -0.4748
 1577SOL    MW4 6082   4.898   1.523   1.676 -0.5376 -0.4048  0.4419
 1578SOL     OW 6083   0.732   0.077   5.210  0.6082  0.6132  0.2695
 1578SOL    HW2 6084   0.719   0.026   5.290  0.3686  2.2289  1.3042
 1578SOL    HW3 6085   0.646   0.079   5.168  0.4889  0.6187  0.5126
 1578SOL    MW4 6086   0.719   0.071   5.215 -0.2945 -0.3383  0.3852
 1579SOL     OW 6087   3.403   5.085   0.953  0.3869  0.4255  0.1562
 1579SOL    HW2 6088   3.485   5.035   0.953 -1.0595 -2.1945  1.1457
 1579SOL    HW3 6089   3.339   5.025   0.915 -1.3407  1.8859  0.6175
 1579SOL    MW4 6090   3.406   5.070   0.948 -0.1926 -0.4780 -0.2882
 1580SOL     OW 6091   2.419   1.905   1.607  0.1203 -0.2103 -0.2746
 1580SOL    HW2 6092   2.402   1.811   1.604  1.8432 -0.5330 -1.0500
 1580SOL    HW3 6093   2.497   1.913   1.661 -0.2965  0.8489  0.2062
 1580SOL    MW4 6094   2.427   1.893   1.614  0.2101  0.6259 -0.3882
 1581SOL     OW 6095   1.588   1.686   2.581 -0.2607  0.0566  0.2601
 1581SOL    HW2 6096   1.501   1.722   2.565  0.0729  0.5606 -0.4203
 1581SOL    HW3 6097   1.614   1.647   2.498  0.6964  1.0322  0.0926
 1581SOL    MW4 6098   1.580   1.685   2.568  0.2647  0.3435 -0.0460
 1582SOL     OW 6099   1.290   3.650   5.385  0.5437  0.2085  0.1276
 1582SOL    HW2 6100   1.332   3.588   5.325  0.6585  0.8135 -0.4264
 1582SOL    HW3 6101   1.339   3.641   5.467  1.6001  0.7236 -0.4310
 1582SOL    MW4 6102   1.302   3.640   5.388  0.4044  0.0306  0.6726
 1583SOL     OW 6103   4.372   2.948   5.116 -0.3270  0.1553  0.2556
 1583SOL    HW2 6104   4.287   2.981   5.085 -1.7082 -2.1617  1.2762
 1583SOL    HW3 6105   4.352   2.907   5.201  1.9934  0.2262  0.9136
 1583SOL    MW4 6106   4.358   2.947   5.123  0.2038 -0.1274  0.1792
 1584SOL     OW 6107   3.110   0.179   0.924  0.3392 -0.2354 -0.5325
 1584SOL    HW2 6108   3.199   0.213   0.925  0.4620 -0.5553  0.5423
 1584SOL    HW3 6109   3.072   0.213   0.843  0.6436  1.9544  0.1874
 1584SOL    MW4 6110   3.116   0.188   0.914  0.7660 -0.2391 -0.5160
 1585SOL     OW 6111   5.164   6.026   5.073 -1.0075  0.9188  0.1750
 1585SOL    HW2 6112   5.114   6.093   5.120  0.3765  2.8500 -1.0096
 1585SOL    HW3 6113   5.122   6.020   4.987 -1.1891  0.1426  0.3021
 1585SOL    MW4 6114   5.152   6.034   5.068 -0.2229  0.4947 -0.6565
 1586SOL     OW 6115   4.896   1.266   6.391 -0.2176 -0.0480 -0.0901
 1586SOL    HW2 6116   4.933   1.278   6.478 -0.8048  0.1766  0.1298
 1586SOL    HW3 6117   4.902   1.353   6.350 -0.1752 -0.0939 -0.1815
 1586SOL    MW4 6118   4.902   1.279   6.397  0.0798 -0.2892 -0.0957
 1587SOL     OW 6119   5.774   0.373   4.186  0.0465 -0.3434  0.5315
 1587SOL    HW2 6120   5.715   0.424   4.242 -1.1371 -1.3547  0.2479
 1587SOL    HW3 6121   5.861   0.404   4.210 -0.5402  0.6865  1.4852
 1587SOL    MW4 6122   5.778   0.384   4.197  0.2796  0.2724  0.2439
 1588SOL     OW 6123   0.904   6.299   5.139  0.1793  0.1426  0.2609
 1588SOL    HW2 6124   0.853   6.219   5.148  1.0567 -0.3809  0.7083
 1588SOL    HW3 6125   0.839   6.369   5.138 -0.6870 -0.6308 -1.3224
 1588SOL    MW4 6126   0.889   6.298   5.140  0.7858 -0.0911  0.2084
 1589SOL     OW 6127   6.106   4.062   2.152  0.5412 -0.0011 -0.1553
 1589SOL    HW2 6128   6.049   4.077   2.077  1.0806  0.2957 -0.5122
 1589SOL    HW3 6129   6.052   4.085   2.228  0.3041  0.6613 -0.5119
 1589SOL    MW4 6130   6.092   4.067   2.152  0.1671 -0.0476 -0.0084
 1590SOL     OW 6131   5.817   0.147   5.859 -0.0578 -0.4242  0.2626
 1590SOL    HW2 6132   5.755   0.219   5.851 -0.1569 -0.4986  0.3684
 1590SOL    HW3 6133   5.840   0.144   5.952 -0.7964 -1.1480  0.4325
 1590SOL    MW4 6134   5.812   0.156   5.870  0.0840  0.0164  0.0366
 1591SOL     OW 6135   4.742   5.009   1.768 -0.1318 -0.0230 -0.2593
 1591SOL    HW2 6136   4.671   5.042   1.823 -1.0070  0.6733 -1.7414
 1591SOL    HW3 6137   4.775   5.087   1.723  1.2774 -0.4103  0.0525
 1591SOL    MW4 6138   4.737   5.024   1.769  0.0739 -0.6493 -0.8630
 1592SOL     OW 6139   5.816   0.785   2.586  0.0723 -0.6120  0.2692
 1592SOL    HW2 6140   5.784   0.697   2.609  0.5270 -0.4812  1.4693
 1592SOL    HW3 6141   5.900   0.769   2.543 -0.2737 -0.8067 -0.3457
 1592SOL    MW4 6142   5.823   0.771   2.584 -0.2374 -0.3927 -0.3660
 1593SOL     OW 6143   5.876   0.029   4.727 -0.0529  0.1396 -0.4535
 1593SOL    HW2 6144   5.819   0.048   4.653 -1.1581 -0.3183  0.2694
 1593SOL    HW3 6145   5.818  -0.001   4.797  1.0222  0.0111  0.4274
 1593SOL    MW4 6146   5.861   0.028   4.727 -0.2414  0.2733 -0.3873
 1594SOL     OW 6147   4.442   4.122   5.753  0.2167  0.6535  0.5531
 1594SOL    HW2 6148   4.415   4.068   5.828  0.7186 -0.0641  0.2207
 1594SOL    HW3 6149   4.365   4.177   5.736 -1.1586 -1.4333 -0.4464
 1594SOL    MW4 6150   4.428   4.122   5.761 -0.1489 -0.2943  0.1740
 1595SOL     OW 6151   0.697   4.251   6.418 -0.0643  0.3003 -0.2349
 1595SOL    HW2 6152   0.727   4.163   6.441 -0.3354  0.4483  0.7256
 1595SOL    HW3 6153   0.775   4.306   6.427  0.3110  0.0548 -1.6294
 1595SOL    MW4 6154   0.711   4.247   6.422 -0.1225 -0.6459 -0.6327
 1596SOL     OW 6155   2.385   1.223   4.898 -0.6492  0.0523  0.1092
 1596SOL    HW2 6156   2.413   1.136   4.867 -0.8557  0.2007 -0.4974
 1596SOL    HW3 6157   2.467   1.270   4.912 -0.4664 -0.6603  1.7346
 1596SOL    MW4 6158   2.400   1.217   4.896 -0.7987  0.1615 -0.2434
 1597SOL     OW 6159   6.075   2.506   4.143  0.1805  0.7047  0.0407
 1597SOL    HW2 6160   6.090   2.445   4.070 -1.0719  1.6219 -1.0291
 1597SOL    HW3 6161   5.989   2.481   4.177  0.0975  1.2384  0.2233
 1597SOL    MW4 6162   6.066   2.495   4.138  0.2051 -0.5244 -0.1043
 1598SOL     OW 6163   2.070   2.818   1.986 -0.0566 -0.3837 -0.2022
 1598SOL    HW2 6164   1.976   2.825   1.965 -0.4009  0.0529  1.3449
 1598SOL    HW3 6165   2.075   2.842   2.079  1.5057 -1.1028 -0.0799
 1598SOL    MW4 6166   2.058   2.822   1.996  0.0967  0.0935  0.3494
 1599SOL     OW 6167   3.007   1.581   4.527 -0.4365 -0.4703 -0.2641
 1599SOL    HW2 6168   2.920   1.547   4.546 -1.1696 -0.0973 -2.6062
 1599SOL    HW3 6169   3.012   1.664   4.575 -0.8501 -1.1129  0.9177
 1599SOL    MW4 6170   2.996   1.588   4.536 -0.2336  0.2019  0.6992
 1600SOL     OW 6171   5.563   0.639   1.875 -0.0062  0.3084  0.1272
 1600SOL    HW2 6172   5.565   0.545   1.896  0.7117 -0.6815 -3.6070
 1600SOL    HW3 6173   5.650   0.671   1.899 -0.6816  0.4648  2.6826
 1600SOL    MW4 6174   5.575   0.631   1.881  0.6882  0.3832 -0.0692
 1601SOL     OW 6175   3.058   2.559   5.820 -0.6327 -0.2711 -0.4007
 1601SOL    HW2 6176   3.050   2.499   5.894  1.0550  0.4099  0.3998
 1601SOL    HW3 6177   2.988   2.623   5.833 -0.1230  0.0545  0.8430
 1601SOL    MW4 6178   3.048   2.560   5.831 -0.0261  0.2787 -0.3084
 1602SOL     OW 6179   1.306   3.268   0.291 -0.7010  0.5650  0.2473
 1602SOL    HW2 6180   1.308   3.259   0.196  0.2796 -0.3964  0.3375
 1602SOL    HW3 6181   1.348   3.352   0.308  1.4104 -0.3475 -0.0960
 1602SOL    MW4 6182   1.312   3.278   0.281 -0.0593  0.0198 -0.1973
 1603SOL     OW 6183   2.714   0.782   2.534 -0.1829 -0.3190 -0.3773
 1603SOL    HW2 6184   2.659   0.847   2.578  0.1151 -0.1137 -0.3036
 1603SOL    HW3 6185   2.789   0.771   2.592  0.8793  0.9504 -1.4539
 1603SOL    MW4 6186   2.717   0.789   2.548 -0.2075 -0.4281  0.1764
 1604SOL     OW 6187   1.296   4.203   5.033 -0.7220  0.4559 -0.0297
 1604SOL    HW2 6188   1.286   4.152   4.953 -1.3264  2.4380 -1.2954
 1604SOL    HW3 6189   1.389   4.196   5.054 -0.6182 -0.3471 -0.7056
 1604SOL    MW4 6190   1.307   4.195   5.025  0.0834  0.0622  0.4632
 1605SOL     OW 6191   1.518   2.293   6.245  0.8259  0.3959 -0.2209
 1605SOL    HW2 6192   1.461   2.305   6.322  0.9626 -0.4898  0.0270
 1605SOL    HW3 6193   1.496   2.367   6.188 -1.6785 -0.7011 -0.8238
 1605SOL    MW4 6194   1.508   2.305   6.248 -0.0408  0.3063  0.4894
 1606SOL     OW 6195   2.814   2.980   4.578 -0.7345 -0.2092 -0.1094
 1606SOL    HW2 6196   2.847   2.939   4.498  0.1382 -0.6109  0.4398
 1606SOL    HW3 6197   2.886   3.037   4.607 -0.3477 -1.3607  1.2974
 1606SOL    MW4 6198   2.828   2.982   4.572 -0.0689  0.4706 -0.4410
 1607SOL     OW 6199   5.846   5.125   3.193 -0.1637  0.0809  0.4754
 1607SOL    HW2 6200   5.797   5.163   3.266  1.8751 -0.4011  2.1909
 1607SOL    HW3 6201   5.934   5.109   3.229  0.7840 -0.6085 -1.9657
 1607SOL    MW4 6202   5.851   5.128   3.208  0.0065 -0.0952 -0.4923
 1608SOL     OW 6203   4.505   2.785   6.421 -0.4570  0.3548 -0.1722
 1608SOL    HW2 6204   4.445   2.726   6.467  0.0495 -0.0816 -0.0498
 1608SOL    HW3 6205   4.478   2.872   6.448 -0.4027  0.1202  0.6769
 1608SOL    MW4 6206   4.494   2.789   6.431  0.2124 -0.1116  0.0126
 1609SOL     OW 6207   2.369   0.421   3.249 -0.1165 -0.0138 -1.0900
 1609SOL    HW2 6208   2.384   0.331   3.279 -0.3926  0.2804 -0.0216
 1609SOL    HW3 6209   2.415   0.426   3.166  1.2017 -0.6980 -0.4351
 1609SOL    MW4 6210   2.377   0.409   3.242 -0.6818  0.1836  0.1522
 1610SOL     OW 6211   1.176   1.641   5.785  0.3787  0.1916  0.3852
 1610SOL    HW2 6212   1.238   1.592   5.839 -0.2190 -0.5165  0.4308
 1610SOL    HW3 6213   1.205   1.732   5.794  1.4282 -0.1231  0.3810
 1610SOL    MW4 6214   1.188   1.647   5.793 -0.3678 -0.2000 -0.2552
 1611SOL     OW 6215   2.090   5.597   6.147 -0.3640 -0.0140 -1.1123
 1611SOL    HW2 6216   2.053   5.555   6.224  0.3094  1.7695  0.2490
 1611SOL    HW3 6217   2.185   5.592   6.160 -0.2388  0.2202 -1.8790
 1611SOL    MW4 6218   2.098   5.590   6.159  0.4101  0.8051 -0.3845
 1612SOL     OW 6219   1.879   1.466   6.058 -0.3564  0.1276 -0.4724
 1612SOL    HW2 6220   1.917   1.421   6.133 -1.6316 -1.0527 -0.4912
 1612SOL    HW3 6221   1.868   1.397   5.992 -1.1569  0.7130 -0.9759
 1612SOL    MW4 6222   1.882   1.451   6.059 -0.2702 -0.2592 -0.0846
 1613SOL     OW 6223   2.853   5.176   0.322 -0.1403 -0.8801 -0.3090
 1613SOL    HW2 6224   2.760   5.161   0.335 -0.3826  0.4290 -0.4049
 1613SOL    HW3 6225   2.877   5.239   0.389  0.9102 -1.9396  0.3473
 1613SOL    MW4 6226   2.844   5.182   0.332  0.3152 -0.3726  0.3576
 1614SOL     OW 6227   2.472   3.477   0.064  0.2044  0.0366  0.0927
 1614SOL    HW2 6228   2.377   3.491   0.065  0.2293  0.2068  0.1675
 1614SOL    HW3 6229   2.503   3.527  -0.011  0.2601  0.1520  0.1920
 1614SOL    MW4 6230   2.464   3.486   0.054 -0.4879 -0.0434 -0.3130
 1615SOL     OW 6231   2.727   2.071   1.236  0.2362 -0.5461  0.3694
 1615SOL    HW2 6232   2.721   1.977   1.252  1.5077 -0.5015  1.2111
 1615SOL    HW3 6233   2.802   2.100   1.288  1.2887  0.5573 -1.6490
 1615SOL    MW4 6234   2.736   2.063   1.245  0.0299  0.0694 -0.0500
 1616SOL     OW 6235   3.489   3.327   5.772 -0.3351  0.3769 -0.4595
 1616SOL    HW2 6236   3.476   3.409   5.724  0.3802  0.4531 -0.5365
 1616SOL    HW3 6237   3.576   3.297   5.745 -0.8858 -0.8021 -1.0211
 1616SOL    MW4 6238   3.499   3.334   5.762  0.1508  0.1942  0.0096
 1617SOL     OW 6239   5.313   3.636   1.664 -0.4664  0.1791 -0.4154
 1617SOL    HW2 6240   5.286   3.638   1.756 -0.4140 -0.1100 -0.3941
 1617SOL    HW3 6241   5.269   3.712   1.625 -1.4288 -0.3574 -0.4144
 1617SOL    MW4 6242   5.303   3.646   1.671 -0.4241  0.0006 -0.1255
 1618SOL     OW 6243   5.503   5.498   2.461  0.0680  0.3557  0.5443
 1618SOL    HW2 6244   5.555   5.524   2.385 -0.8196 -0.9637 -0.5672
 1618SOL    HW3 6245   5.441   5.570   2.473  0.3568  0.6770  0.1545
 1618SOL    MW4 6246   5.502   5.511   2.452 -0.1597  0.4078  0.0243
 1619SOL     OW 6247   6.025   2.307   1.175 -0.3787 -0.6630  0.6748
 1619SOL    HW2 6248   6.116   2.316   1.202 -0.4231  0.5631  0.4667
 1619SOL    HW3 6249   5.975   2.347   1.245 -0.5421  1.6724 -0.6479
 1619SOL    MW4 6250   6.031   2.313   1.188 -0.8321 -0.0985  0.2501
 1620SOL     OW 6251   3.342   1.935   5.587  0.0704 -0.0335  0.3898
 1620SOL    HW2 6252   3.265   1.951   5.642  0.3795 -2.4245  1.6558
 1620SOL    HW3 6253   3.415   1.970   5.638 -0.0813  2.1520 -0.7714
 1620SOL    MW4 6254   3.341   1.942   5.601 -0.1628 -0.7902  0.1829
 1621SOL     OW 6255   5.376   3.421   3.227  0.0758 -0.0524  0.2657
 1621SOL    HW2 6256   5.329   3.439   3.308  1.4256  0.2839  0.9918
 1621SOL    HW3 6257   5.327   3.349   3.187  0.1659 -1.1705  2.0655
 1621SOL    MW4 6258   5.364   3.414   3.232  0.0817  0.0680  0.0155
 1622SOL     OW 6259   0.806   0.042   0.533  0.0479 -0.0851  0.2705
 1622SOL    HW2 6260   0.722   0.031   0.489 -0.6201 -0.9383  1.6872
 1622SOL    HW3 6261   0.818  -0.039   0.581  1.2782  0.3748  0.7661
 1622SOL    MW4 6262   0.796   0.030   0.533 -0.5481 -0.2090 -0.2118
 1623SOL     OW 6263   0.530   4.616   3.274 -0.0007 -0.3205  0.4616
 1623SOL    HW2 6264   0.608   4.671   3.271  0.1052 -0.5078 -0.5876
 1623SOL    HW3 6265   0.461   4.674   3.307 -0.5229  1.2985 -3.0184
 1623SOL    MW4 6266   0.531   4.631   3.278 -0.0681  0.5214  0.5766
 1624SOL     OW 6267   4.295   1.207   2.618 -0.1298 -0.2771  0.7120
 1624SOL    HW2 6268   4.276   1.210   2.712  1.3718  0.0841  1.0268
 1624SOL    HW3 6269   4.281   1.297   2.588  1.0417  0.0024  0.9556
 1624SOL    MW4 6270   4.290   1.219   2.626 -0.1023  0.0978  0.1152
 1625SOL     OW 6271   4.474   4.020   0.010  0.2435 -0.1230 -0.3684
 1625SOL    HW2 6272   4.546   3.972   0.051  0.0034 -0.9687 -0.9248
 1625SOL    HW3 6273   4.493   4.112   0.031  0.7000 -0.4404  0.7191
 1625SOL    MW4 6274   4.486   4.026   0.018  0.0651  0.6784  0.3470
 1626SOL     OW 6275   4.526   4.809   0.830  0.7453  0.7733 -0.3677
 1626SOL    HW2 6276   4.444   4.850   0.803  0.2818 -0.3692 -0.7320
 1626SOL    HW3 6277   4.586   4.883   0.845 -0.8282  1.7607  1.6721
 1626SOL    MW4 6278   4.523   4.824   0.829 -0.1224  1.0989  0.0164
 1627SOL     OW 6279   2.671   0.117   0.247 -0.1733 -0.1302  0.6534
 1627SOL    HW2 6280   2.676   0.204   0.209  1.1514  0.1890  1.4787
 1627SOL    HW3 6281   2.600   0.073   0.199 -1.8543  1.8506  1.2172
 1627SOL    MW4 6282   2.663   0.122   0.236 -0.0109  0.2143 -0.1842
 1628SOL     OW 6283   4.778   6.253   0.570  0.0457 -0.5538 -0.7171
 1628SOL    HW2 6284   4.770   6.347   0.583  1.1367 -0.4673 -0.5652
 1628SOL    HW3 6285   4.742   6.238   0.482 -1.8069 -0.2766 -0.0422
 1628SOL    MW4 6286   4.773   6.263   0.560 -0.4273  0.2921 -0.6491
 1629SOL     OW 6287   3.676   0.177   0.720  0.2818 -0.4240 -0.1508
 1629SOL    HW2 6288   3.685   0.216   0.806  1.1334  0.3190 -0.5545
 1629SOL    HW3 6289   3.643   0.247   0.664  0.7003 -0.6049 -0.6396
 1629SOL    MW4 6290   3.673   0.191   0.724 -0.1432  0.1708 -0.0960
 1630SOL     OW 6291   2.981   5.141   3.075 -0.4095  0.1617  0.1242
 1630SOL    HW2 6292   2.907   5.104   3.123 -0.2959 -1.1049 -0.6443
 1630SOL    HW3 6293   2.946   5.159   2.988  0.1470 -0.3238 -0.2039
 1630SOL    MW4 6294   2.966   5.139   3.070  0.0000 -0.0215  0.3031
 1631SOL     OW 6295   3.882   1.274   5.706 -0.7205 -0.4278 -0.3709
 1631SOL    HW2 6296   3.974   1.280   5.681 -0.0195 -3.3855  1.0307
 1631SOL    HW3 6297   3.874   1.328   5.785 -0.7621  1.4709 -1.6026
 1631SOL    MW4 6298   3.893   1.282   5.713 -0.9949  0.1121  0.1432
 1632SOL     OW 6299   6.179   4.575   0.458 -0.5573  0.2158  0.0214
 1632SOL    HW2 6300   6.212   4.485   0.458 -2.4332 -0.5272 -0.0471
 1632SOL    HW3 6301   6.252   4.627   0.426  0.3373 -1.3896 -0.7079
 1632SOL    MW4 6302   6.193   4.570   0.454  0.4018  0.5575  0.3333
 1633SOL     OW 6303   5.620   6.410   3.430 -0.4015 -0.0934 -0.1128
 1633SOL    HW2 6304   5.534   6.375   3.450 -0.6386  1.1444  1.1974
 1633SOL    HW3 6305   5.609   6.505   3.431  0.5809  0.0830 -1.8356
 1633SOL    MW4 6306   5.607   6.418   3.433 -0.1772 -1.1231 -0.0031
 1634SOL     OW 6307   5.707   3.432   1.251 -0.0647  0.2996 -0.0998
 1634SOL    HW2 6308   5.795   3.469   1.249  0.3704 -0.6003  0.8502
 1634SOL    HW3 6309   5.702   3.388   1.336 -1.7136  0.9779  0.1913
 1634SOL    MW4 6310   5.718   3.431   1.262  0.6451 -0.4135  0.0500
 1635SOL     OW 6311   0.468   0.464   6.222  0.5137 -0.3829 -0.1700
 1635SOL    HW2 6312   0.416   0.544   6.226  0.0695 -0.5906 -1.4596
 1635SOL    HW3 6313   0.558   0.494   6.218  0.3494  0.0606 -0.6478
 1635SOL    MW4 6314   0.473   0.479   6.222 -0.4886  0.4224 -0.1025
 1636SOL     OW 6315   1.723   1.528   1.809  0.1868  0.1515  0.3583
 1636SOL    HW2 6316   1.629   1.543   1.820  0.1727  0.4661 -0.1636
 1636SOL    HW3 6317   1.756   1.517   1.898 -0.4059 -0.3416  0.5241
 1636SOL    MW4 6318   1.715   1.529   1.822 -0.2268  0.1648  0.0703
 1637SOL     OW 6319   0.696   2.511   5.333  0.3196 -0.1058  0.1806
 1637SOL    HW2 6320   0.685   2.435   5.390  1.0528 -0.4639 -0.1458
 1637SOL    HW3 6321   0.774   2.492   5.282  0.2449  0.6629 -0.2375
 1637SOL    MW4 6322   0.704   2.499   5.334 -0.0950  0.2615  0.2104
 1638SOL     OW 6323   4.228   2.061   0.917 -0.1667 -0.3119  0.0451
 1638SOL    HW2 6324   4.189   2.144   0.945  0.2400  0.9388 -2.7312
 1638SOL    HW3 6325   4.248   2.075   0.824  1.7331 -2.8584 -0.0159
 1638SOL    MW4 6326   4.226   2.074   0.908  0.3252  0.0338 -0.3416
 1639SOL     OW 6327   3.194   6.017   0.779  0.0233 -0.0342  0.2303
 1639SOL    HW2 6328   3.245   5.999   0.858 -1.0552 -1.3783  0.6800
 1639SOL    HW3 6329   3.256   6.056   0.718  1.2492 -0.3763  1.2148
 1639SOL    MW4 6330   3.209   6.019   0.781  0.1618  0.2987 -0.3390
 1640SOL     OW 6331   3.939   6.331   5.523 -0.1647 -0.0449 -0.1408
 1640SOL    HW2 6332   3.848   6.306   5.507 -0.4025  0.5487  0.2489
 1640SOL    HW3 6333   3.945   6.338   5.618  0.8973 -2.2887  0.0328
 1640SOL    MW4 6334   3.928   6.328   5.533 -0.0194 -0.1619  0.1316
 1641SOL     OW 6335   4.512   5.685   2.510 -0.3701  0.4051 -0.0398
 1641SOL    HW2 6336   4.531   5.688   2.604  0.2970 -0.2431 -0.1501
 1641SOL    HW3 6337   4.419   5.660   2.506 -1.0174  2.4906  0.4665
 1641SOL    MW4 6338   4.502   5.682   2.522  0.1569  0.0558 -0.1873
 1642SOL     OW 6339   3.366   5.651   2.051  0.7674 -0.1777  0.4384
 1642SOL    HW2 6340   3.410   5.722   2.005 -0.7387 -0.4089 -1.4734
 1642SOL    HW3 6341   3.273   5.668   2.039  0.3356 -1.3212  1.8024
 1642SOL    MW4 6342   3.360   5.662   2.044 -0.5869 -0.0881 -0.0196
 1643SOL     OW 6343   3.759   2.210   3.257 -0.3697  0.5507 -0.0616
 1643SOL    HW2 6344   3.732   2.297   3.287  0.2454  0.7691 -0.1228
 1643SOL    HW3 6345   3.778   2.222   3.163  3.7836  1.4097  0.7033
 1643SOL    MW4 6346   3.758   2.223   3.248 -0.0877 -0.0370  1.0150
 1644SOL     OW 6347   2.840   3.201   5.923  0.2531 -0.1714  0.3309
 1644SOL    HW2 6348   2.928   3.236   5.937  0.2851 -0.8186  1.9913
 1644SOL    HW3 6349   2.783   3.256   5.978 -0.3890  0.2445 -0.7290
 1644SOL    MW4 6350   2.844   3.213   5.932 -0.3076 -0.2251 -0.3085
 1645SOL     OW 6351   2.541   1.508   5.754 -0.1724 -0.5895 -0.6372
 1645SOL    HW2 6352   2.515   1.445   5.687 -1.8995 -2.8388  1.9366
 1645SOL    HW3 6353   2.606   1.461   5.806 -0.4803  0.2546  0.5307
 1645SOL    MW4 6354   2.546   1.493   5.752 -0.0260 -0.4751  0.0247
 1646SOL     OW 6355   2.912   6.273   3.349  0.2171 -0.8231  0.3958
 1646SOL    HW2 6356   2.922   6.366   3.371  1.0517 -0.8566  0.2058
 1646SOL    HW3 6357   2.901   6.272   3.254 -0.9568 -0.8455  0.5224
 1646SOL    MW4 6358   2.912   6.285   3.339 -0.4183 -0.3247  0.0150
 1647SOL     OW 6359   0.340   3.097   4.782  0.1889 -0.6975  0.4655
 1647SOL    HW2 6360   0.249   3.125   4.782 -0.7970 -3.5559  0.5008
 1647SOL    HW3 6361   0.373   3.119   4.869 -0.1366  1.1233  0.1755
 1647SOL    MW4 6362   0.333   3.104   4.793  0.0985 -0.2211 -0.2916
 1648SOL     OW 6363   0.880   2.336   1.772  0.0351  0.3906  0.2151
 1648SOL    HW2 6364   0.909   2.374   1.855  1.5419  0.4996 -0.3420
 1648SOL    HW3 6365   0.859   2.245   1.795 -0.5151  0.6806  0.9067
 1648SOL    MW4 6366   0.881   2.329   1.786  0.1849 -0.1347 -0.2037
 1649SOL     OW 6367   3.753   0.267   5.977  0.7733 -0.0848 -0.8856
 1649SOL    HW2 6368   3.818   0.268   5.906  1.3750 -0.7270 -0.3613
 1649SOL    HW3 6369   3.806   0.262   6.057  0.1068  0.7225 -0.3858
 1649SOL    MW4 6370   3.769   0.266   5.978 -0.0277  0.0362 -0.4543
 1650SOL     OW 6371   5.800   2.107   0.861  0.3399  0.0733  0.4072
 1650SOL    HW2 6372   5.723   2.051   0.854  0.4455 -0.1100  0.6916
 1650SOL    HW3 6373   5.842   2.081   0.943  1.1327 -0.3740 -0.1172
 1650SOL    MW4 6374   5.796   2.096   0.871  0.0090  0.1376 -0.4499
 1651SOL     OW 6375   5.698   0.531   3.649 -0.3111 -0.7258 -0.0454
 1651SOL    HW2 6376   5.748   0.570   3.720 -0.6791 -0.6377  0.1696
 1651SOL    HW3 6377   5.738   0.565   3.569 -1.6870  1.5080  0.1239
 1651SOL    MW4 6378   5.710   0.540   3.648 -0.4230 -0.2356 -0.3920
 1652SOL     OW 6379   2.155   2.217   0.516  0.1356  0.1440 -0.4917
 1652SOL    HW2 6380   2.241   2.199   0.480  0.4712 -2.1016  1.1901
 1652SOL    HW3 6381   2.094   2.203   0.444  1.0484  0.0007 -1.2400
 1652SOL    MW4 6382   2.158   2.213   0.502 -0.0199 -0.2212 -0.2089
 1653SOL     OW 6383   6.135   1.635   4.721  0.0775 -0.4828  0.5710
 1653SOL    HW2 6384   6.129   1.725   4.690  0.5122 -0.4392  0.6029
 1653SOL    HW3 6385   6.194   1.641   4.797  0.2591 -0.8197  0.4559
 1653SOL    MW4 6386   6.142   1.648   4.727  0.2384 -0.4264 -0.1600
 1654SOL     OW 6387   3.895   5.742   2.688 -0.2000  0.2405  0.4883
 1654SOL    HW2 6388   3.918   5.650   2.700 -0.9698  0.2060  1.8242
 1654SOL    HW3 6389   3.857   5.769   2.772 -3.1593  0.8518 -0.9225
 1654SOL    MW4 6390   3.893   5.734   2.701 -0.1304 -0.3904 -0.1263
 1655SOL     OW 6391   3.014   4.976   5.106  0.3663 -0.9361  0.7729
 1655SOL    HW2 6392   2.945   4.978   5.040  0.9889 -1.2572  0.1054
 1655SOL    HW3 6393   3.061   4.894   5.089  1.1986 -0.4979  0.9223
 1655SOL    MW4 6394   3.011   4.965   5.095  0.3737 -1.0157 -0.7157
 1656SOL     OW 6395   3.547   1.952   4.751 -0.2683 -0.0312 -0.1810
 1656SOL    HW2 6396   3.460   1.936   4.714  0.4092 -1.3141 -1.3196
 1656SOL    HW3 6397   3.575   2.034   4.710 -1.2006  0.7934  0.7600
 1656SOL    MW4 6398   3.539   1.961   4.740 -0.0031 -0.0273  0.2596
 1657SOL     OW 6399   0.600   2.659   3.883 -0.1591 -0.0286 -0.0117
 1657SOL    HW2 6400   0.547   2.718   3.831 -1.6735 -2.0527 -0.9180
 1657SOL    HW3 6401   0.540   2.625   3.949  1.0310  0.4286  1.3603
 1657SOL    MW4 6402   0.585   2.662   3.885  0.1259  0.4762  0.0972
 1658SOL     OW 6403   3.421   4.467   5.608 -0.1794  0.2262 -0.1651
 1658SOL    HW2 6404   3.330   4.495   5.598 -0.2455  0.2670  0.4710
 1658SOL    HW3 6405   3.417   4.372   5.603  0.1044  0.3000 -2.7786
 1658SOL    MW4 6406   3.408   4.459   5.606  0.1451  0.3842 -0.6732
 1659SOL     OW 6407   4.903   2.021   5.496 -0.6625  0.3256  0.2824
 1659SOL    HW2 6408   4.840   2.091   5.478 -0.3782  0.8645  1.3119
 1659SOL    HW3 6409   4.882   1.991   5.584  0.2316  0.2097  0.4730
 1659SOL    MW4 6410   4.892   2.027   5.505 -0.1023  0.3610 -0.7265
 1660SOL     OW 6411   2.850   2.200   4.928  0.0977 -0.4860  0.0353
 1660SOL    HW2 6412   2.826   2.290   4.951 -0.3439 -0.3115 -1.0703
 1660SOL    HW3 6413   2.807   2.147   4.995 -1.4906 -0.0192 -0.5571
 1660SOL    MW4 6414   2.841   2.205   4.940  0.0261 -0.1632 -0.1603
 1661SOL     OW 6415   1.009   0.745   2.147 -0.2475  0.7243 -0.4583
 1661SOL    HW2 6416   0.966   0.669   2.186 -0.9512  0.8906 -0.8948
 1661SOL    HW3 6417   1.031   0.800   2.222  2.5443 -0.9849  0.1361
 1661SOL    MW4 6418   1.006   0.742   2.162  0.1825  0.8682 -0.3910
 1662SOL     OW 6419   4.108   0.886   4.112 -0.3434  0.4672  1.5413
 1662SOL    HW2 6420   4.160   0.908   4.189  2.0919 -0.5736  0.3192
 1662SOL    HW3 6421   4.167   0.835   4.057 -1.2034  2.9522 -2.0557
 1662SOL    MW4 6422   4.122   0.882   4.115  0.0659  0.1674 -0.5060
 1663SOL     OW 6423   5.583   0.881   3.886  0.1154  0.0557 -0.1669
 1663SOL    HW2 6424   5.499   0.911   3.921 -0.6308 -0.9122 -1.0535
 1663SOL    HW3 6425   5.644   0.952   3.906 -0.1734 -0.4515  3.2580
 1663SOL    MW4 6426   5.580   0.894   3.893 -0.4004 -0.0531 -0.1182
 1664SOL     OW 6427   4.719   6.233   0.303 -0.0749 -0.2121 -0.1845
 1664SOL    HW2 6428   4.805   6.200   0.277  0.5449  1.7321 -0.7620
 1664SOL    HW3 6429   4.709   6.316   0.255 -1.8593  0.0769  0.6015
 1664SOL    MW4 6430   4.729   6.240   0.293 -0.0104 -0.2068  0.5841
 1665SOL     OW 6431   1.846   4.241   4.817  0.7808 -0.0040 -0.2541
 1665SOL    HW2 6432   1.915   4.268   4.878 -1.0247  0.3281  1.8003
 1665SOL    HW3 6433   1.819   4.155   4.847 -0.0633  0.1038 -0.6607
 1665SOL    MW4 6434   1.851   4.233   4.829 -0.2375  0.1771 -0.0589
 1666SOL     OW 6435   4.240   4.040   3.338  0.2778  1.0637  0.3216
 1666SOL    HW2 6436   4.174   4.009   3.400  0.8329  0.3606  0.5715
 1666SOL    HW3 6437   4.260   4.129   3.367 -0.8056  1.4182  0.0298
 1666SOL    MW4 6438   4.234   4.048   3.350 -0.7012  0.5325  0.1477
 1667SOL     OW 6439   6.421   2.696   4.540 -0.3532  0.0476  0.0120
 1667SOL    HW2 6440   6.488   2.684   4.472 -0.2485 -1.9828  0.3991
 1667SOL    HW3 6441   6.454   2.767   4.594  0.9234 -0.1417 -0.4788
 1667SOL    MW4 6442   6.434   2.703   4.538  0.5288 -0.7315  0.1126
 1668SOL     OW 6443   2.656   2.116   3.361 -0.3649 -0.4164 -0.6117
 1668SOL    HW2 6444   2.565   2.146   3.353 -0.5045  0.0749  2.0447
 1668SOL    HW3 6445   2.649   2.031   3.405  0.4794  0.2747  0.9265
 1668SOL    MW4 6446   2.643   2.109   3.366  0.2175  0.3069  0.2438
 1669SOL     OW 6447   1.454   6.341   4.434 -0.4699  0.2994 -0.0526
 1669SOL    HW2 6448   1.365   6.327   4.467 -0.3736 -0.4530 -0.1178
 1669SOL    HW3 6449   1.502   6.262   4.457  0.0611  0.4939 -0.4619
 1669SOL    MW4 6450   1.449   6.329   4.442 -0.1233  0.1635  0.4064
 1670SOL     OW 6451   3.336   0.761   1.500  0.0747  0.0801 -0.4884
 1670SOL    HW2 6452   3.421   0.740   1.539 -0.8780  1.0174  2.3807
 1670SOL    HW3 6453   3.301   0.677   1.471  0.9729 -0.6705  0.5324
 1670SOL    MW4 6454   3.343   0.747   1.501  0.3557 -0.8536 -0.5785
 1671SOL     OW 6455   3.530   3.921   5.436 -0.0986  0.7014 -0.0833
 1671SOL    HW2 6456   3.462   3.875   5.486 -0.3152  0.8012 -0.2848
 1671SOL    HW3 6457   3.565   3.986   5.498  0.5877 -0.0865  0.3798
 1671SOL    MW4 6458   3.526   3.924   5.451  0.0972 -0.3261 -0.5511
 1672SOL     OW 6459   2.384   2.633   0.522 -0.0926  0.3642 -0.1008
 1672SOL    HW2 6460   2.321   2.590   0.580  1.2484 -1.8273 -0.1918
 1672SOL    HW3 6461   2.332   2.701   0.478 -2.4002 -1.2758 -0.1187
 1672SOL    MW4 6462   2.369   2.636   0.524  0.5007 -0.0751  0.0287
 1673SOL     OW 6463   3.207   0.856   0.479 -0.0792  0.0555  0.4464
 1673SOL    HW2 6464   3.301   0.835   0.474 -0.6502 -3.1416  0.8364
 1673SOL    HW3 6465   3.186   0.850   0.572 -0.4135  2.3774  0.5642
 1673SOL    MW4 6466   3.217   0.852   0.491  0.8573 -0.2263 -0.1287
 1674SOL     OW 6467   2.705   4.829   2.349  0.5747  0.2802 -0.2871
 1674SOL    HW2 6468   2.618   4.847   2.385  0.5489  0.2562 -0.3379
 1674SOL    HW3 6469   2.759   4.809   2.426  0.4359 -0.1078 -0.2927
 1674SOL    MW4 6470   2.701   4.829   2.364 -0.2975 -0.2518 -0.2493
 1675SOL     OW 6471   3.630   2.808   0.708  0.5467  0.2629  0.2549
 1675SOL    HW2 6472   3.574   2.782   0.781  1.2089 -1.3847  0.2290
 1675SOL    HW3 6473   3.582   2.877   0.663 -1.3448 -0.9119  0.3819
 1675SOL    MW4 6474   3.616   2.813   0.712  0.0772 -0.3006 -0.4056
 1676SOL     OW 6475   0.991   2.835   2.367 -0.6720  0.1047 -0.1479
 1676SOL    HW2 6476   1.004   2.840   2.462 -1.3926 -2.2712  0.1550
 1676SOL    HW3 6477   0.904   2.874   2.352  0.2345  2.2468 -0.1491
 1676SOL    MW4 6478   0.981   2.841   2.378 -0.0997  0.0315 -0.4439
 1677SOL     OW 6479   1.347   3.782   3.953 -0.0602 -0.1135  0.8020
 1677SOL    HW2 6480   1.422   3.814   3.904  0.6375 -1.9554  0.6012
 1677SOL    HW3 6481   1.292   3.739   3.887  0.5671 -2.0297  1.4725
 1677SOL    MW4 6482   1.350   3.781   3.938  0.2362 -0.1930 -0.4653
 1678SOL     OW 6483   5.763   3.428   0.165 -0.2666 -0.2022  0.3361
 1678SOL    HW2 6484   5.760   3.511   0.118  0.4735  0.0339  0.7013
 1678SOL    HW3 6485   5.843   3.431   0.217 -0.8904 -0.5959  1.3691
 1678SOL    MW4 6486   5.773   3.439   0.165  0.2269 -0.1066  0.2191
 1679SOL     OW 6487   1.356   5.582   4.933 -0.6752  0.0661 -0.3348
 1679SOL    HW2 6488   1.317   5.525   4.868 -1.5309  1.5820 -1.2257
 1679SOL    HW3 6489   1.421   5.634   4.884 -0.5776  0.4953  0.2322
 1679SOL    MW4 6490   1.359   5.582   4.918 -0.5810  0.1893  0.1693
 1680SOL     OW 6491   3.033   1.625   5.100  0.2246  0.2828 -0.3905
 1680SOL    HW2 6492   3.020   1.683   5.174 -1.9292  0.3458 -0.7342
 1680SOL    HW3 6493   3.002   1.539   5.131 -0.1259  0.1769 -1.0131
 1680SOL    MW4 6494   3.027   1.621   5.114 -0.2629  0.3043  0.0511
 1681SOL     OW 6495   5.311   2.079   0.470 -0.3943  0.0108  0.2608
 1681SOL    HW2 6496   5.314   1.988   0.501  1.0209 -0.3350 -0.7590
 1681SOL    HW3 6497   5.282   2.072   0.379  1.3370  0.3745 -0.3600
 1681SOL    MW4 6498   5.308   2.066   0.462  0.2072  0.4417 -0.0714
 1682SOL     OW 6499   4.183  -0.002   0.511  0.1876  0.2397 -0.7306
 1682SOL    HW2 6500   4.180   0.087   0.476  1.1437  1.1510  1.3104
 1682SOL    HW3 6501   4.275  -0.027   0.503 -0.3198 -1.2147 -2.6572
 1682SOL    MW4 6502   4.195   0.007   0.505  0.0693 -0.0845 -0.1263
 1683SOL     OW 6503   0.425   0.636   2.520 -0.2385 -0.1494  0.1913
 1683SOL    HW2 6504   0.426   0.695   2.596  0.4979 -1.5885  1.3573
 1683SOL    HW3 6505   0.515   0.636   2.488 -0.5032  0.2888 -0.5644
 1683SOL    MW4 6506   0.437   0.644   2.526  0.0999  0.4942 -0.2460
 1684SOL     OW 6507   3.552   4.007   3.518  0.4455  0.0052 -0.5576
 1684SOL    HW2 6508   3.565   4.096   3.486  0.4999  0.2170  0.0524
 1684SOL    HW3 6509   3.465   3.983   3.487 -0.8119  1.3404  1.7450
 1684SOL    MW4 6510   3.542   4.016   3.509 -0.1660  0.0189 -0.0181
 1685SOL     OW 6511   3.243   6.199   6.236 -0.1976  0.2162 -0.3052
 1685SOL    HW2 6512   3.334   6.175   6.221 -0.0125  0.8175 -0.1894
 1685SOL    HW3 6513   3.193   6.151   6.170  0.2491  0.2278 -0.6493
 1685SOL    MW4 6514   3.248   6.190   6.225  0.5115  0.0744  0.1838
 1686SOL     OW 6515   2.664   1.133   0.593 -0.2572  0.2580 -0.0186
 1686SOL    HW2 6516   2.751   1.110   0.623  0.0737 -2.2251 -2.4235
 1686SOL    HW3 6517   2.673   1.146   0.499 -2.2737  1.2985 -0.1424
 1686SOL    MW4 6518   2.676   1.132   0.585  0.7019  0.3432  0.4251
 1687SOL     OW 6519   1.963   2.089   5.151  0.1785  0.6469 -0.0916
 1687SOL    HW2 6520   1.946   2.054   5.238  2.7409  0.6191  0.4630
 1687SOL    HW3 6521   1.882   2.133   5.127 -1.4464 -1.4169  1.2506
 1687SOL    MW4 6522   1.950   2.091   5.159  0.4815  0.0049  0.3251
 1688SOL     OW 6523   1.093   1.307   5.261  0.0586  0.4135  0.3561
 1688SOL    HW2 6524   1.108   1.293   5.354 -1.3314  0.3073  0.5793
 1688SOL    HW3 6525   1.084   1.219   5.224 -1.4507  0.4832  0.5012
 1688SOL    MW4 6526   1.094   1.294   5.268 -0.1786 -0.5095 -0.8525
 1689SOL     OW 6527   2.344   4.038   6.093 -0.3926  0.2481  0.2329
 1689SOL    HW2 6528   2.322   4.130   6.110 -0.8232  0.3330 -0.7151
 1689SOL    HW3 6529   2.438   4.032   6.108 -0.4229  0.7616  0.6579
 1689SOL    MW4 6530   2.353   4.049   6.097 -0.1788  0.0675 -0.1994
 1690SOL     OW 6531   3.246   1.735   5.902  0.9042  0.1332 -0.0878
 1690SOL    HW2 6532   3.181   1.665   5.905 -1.6275  2.3296  0.0401
 1690SOL    HW3 6533   3.299   1.721   5.981  0.3060 -1.4716  0.0697
 1690SOL    MW4 6534   3.245   1.724   5.913  0.3245  0.0689  0.0063
 1691SOL     OW 6535   6.379   1.096   6.422 -0.5196 -0.0982  0.2643
 1691SOL    HW2 6536   6.324   1.024   6.390  0.2534 -0.2478 -0.7416
 1691SOL    HW3 6537   6.455   1.096   6.365 -0.1557  1.0543  0.7237
 1691SOL    MW4 6538   6.382   1.087   6.411 -0.3569  0.1183 -0.3995
 1692SOL     OW 6539   2.324   4.999   0.699 -0.1455  0.1098  0.3258
 1692SOL    HW2 6540   2.399   5.058   0.694  0.3201 -0.3865  1.2607
 1692SOL    HW3 6541   2.253   5.047   0.654  0.3674  1.1318  0.5682
 1692SOL    MW4 6542   2.324   5.013   0.692  0.2171  0.3484 -0.2827
 1693SOL     OW 6543   4.069   1.273   5.016  0.0560  0.2538  1.8413
 1693SOL    HW2 6544   4.144   1.301   5.070  0.5989 -2.0364  2.3661
 1693SOL    HW3 6545   4.050   1.350   4.962  2.2283  1.2170  2.2993
 1693SOL    MW4 6546   4.077   1.287   5.016 -0.0659  0.1746  0.0999
 1694SOL     OW 6547   5.290   5.632   5.668 -0.3266 -0.0027  0.2901
 1694SOL    HW2 6548   5.356   5.633   5.737 -0.3427 -0.5744  0.3174
 1694SOL    HW3 6549   5.223   5.693   5.698  0.6208  1.3074 -0.1703
 1694SOL    MW4 6550   5.290   5.640   5.681  0.5033 -0.1481  0.6520
 1695SOL     OW 6551   4.249   6.345   4.970  0.1202  0.2508  0.7453
 1695SOL    HW2 6552   4.306   6.300   5.032  1.3490 -0.3470 -0.7589
 1695SOL    HW3 6553   4.307   6.404   4.922 -0.1644 -1.4157 -1.8299
 1695SOL    MW4 6554   4.264   6.347   4.971  0.5236 -0.1000 -0.0478
 1696SOL     OW 6555   2.191   0.016   0.816  0.3414 -0.3445 -0.7392
 1696SOL    HW2 6556   2.134  -0.048   0.774  1.3036 -0.6480 -1.6068
 1696SOL    HW3 6557   2.213   0.078   0.747 -0.3190  0.7734  0.0124
 1696SOL    MW4 6558   2.186   0.016   0.801 -0.4711  0.0706 -0.4830
 1697SOL     OW 6559   3.876   1.468   4.587 -0.3129  0.4885  0.7338
 1697SOL    HW2 6560   3.818   1.393   4.601 -0.7195  0.0488 -2.5177
 1697SOL    HW3 6561   3.939   1.438   4.522  2.2017  1.7206  2.4369
 1697SOL    MW4 6562   3.877   1.454   4.580 -0.8077 -0.0910  0.6383
 1698SOL     OW 6563   0.507   5.254   5.853 -0.1098  0.1188  0.1526
 1698SOL    HW2 6564   0.595   5.221   5.870 -0.4447 -1.2159 -0.5771
 1698SOL    HW3 6565   0.519   5.323   5.788  0.2686 -1.3039 -1.3655
 1698SOL    MW4 6566   0.520   5.259   5.847  0.3399 -0.0252 -0.1482
 1699SOL     OW 6567   3.550   3.154   1.184 -0.0176 -0.0505  0.1496
 1699SOL    HW2 6568   3.614   3.139   1.114  0.2162 -1.2353  0.6109
 1699SOL    HW3 6569   3.478   3.095   1.163 -0.4761  0.4730  0.2482
 1699SOL    MW4 6570   3.549   3.144   1.172 -1.2032  0.0255  0.0693
 1700SOL     OW 6571   2.612   0.742   2.873 -0.1528  0.1366 -0.6577
 1700SOL    HW2 6572   2.554   0.728   2.948 -0.9061  1.1224 -1.0463
 1700SOL    HW3 6573   2.619   0.655   2.833 -0.1591 -0.2950  0.2479
 1700SOL    MW4 6574   2.605   0.728   2.877  0.7054  0.0155 -0.2519
 1701SOL     OW 6575   2.004   1.609   2.798 -0.6641  0.2550  0.1488
 1701SOL    HW2 6576   1.940   1.619   2.869 -1.2650 -0.9091 -0.1994
 1701SOL    HW3 6577   2.019   1.514   2.793  1.5346  0.5363  0.5820
 1701SOL    MW4 6578   1.997   1.598   2.807 -0.3862 -0.0136  0.8227
 1702SOL     OW 6579   2.205   4.454   3.710  0.2016 -0.1821  0.0684
 1702SOL    HW2 6580   2.179   4.421   3.797 -0.8415  1.5335  0.4637
 1702SOL    HW3 6581   2.128   4.439   3.655 -0.3064  1.4886  0.2622
 1702SOL    MW4 6582   2.191   4.447   3.714 -0.0517  0.6818  0.1213
 1703SOL     OW 6583   1.249   3.946   1.237 -0.4812 -0.6163  0.5736
 1703SOL    HW2 6584   1.282   4.029   1.202 -0.6303 -0.6554  0.3373
 1703SOL    HW3 6585   1.245   3.888   1.162  2.0991 -1.6835  1.1625
 1703SOL    MW4 6586   1.253   3.950   1.223 -0.2099 -0.0023  0.9409
 1704SOL     OW 6587   3.894   5.844   6.034  0.0050 -0.4983 -0.3099
 1704SOL    HW2 6588   3.802   5.821   6.045  0.3654 -1.9033 -0.0883
 1704SOL    HW3 6589   3.912   5.904   6.107 -0.7135 -0.2450 -0.3298
 1704SOL    MW4 6590   3.884   5.849   6.045  0.5348 -0.2335  0.0382
 1705SOL     OW 6591   4.774   2.102   1.465 -0.2707 -0.3565  0.2658
 1705SOL    HW2 6592   4.825   2.068   1.391 -1.4308  0.2747 -0.8716
 1705SOL    HW3 6593   4.690   2.125   1.426 -0.8643  0.1062  1.7878
 1705SOL    MW4 6594   4.770   2.100   1.450  0.1132  0.7116 -0.3960
 1706SOL     OW 6595   2.198   4.105   0.796 -0.4426 -0.8742 -0.3179
 1706SOL    HW2 6596   2.224   4.017   0.823 -0.3892 -0.6817  0.2686
 1706SOL    HW3 6597   2.224   4.110   0.704  1.6872 -0.6685  0.2427
 1706SOL    MW4 6598   2.205   4.094   0.787 -0.0014 -0.1198 -0.2027
 1707SOL     OW 6599   4.136   3.030   1.075  0.0958  0.6059  0.2182
 1707SOL    HW2 6600   4.080   2.953   1.077  0.6620  0.1815  2.3279
 1707SOL    HW3 6601   4.079   3.102   1.100  0.1151  0.4309  0.7895
 1707SOL    MW4 6602   4.121   3.029   1.078  0.7077 -0.4200  0.0246
 1708SOL     OW 6603   1.029   3.896   4.116 -0.1231  0.1151  0.5018
 1708SOL    HW2 6604   0.987   3.887   4.030 -0.2803  0.7529  0.5120
 1708SOL    HW3 6605   1.110   3.944   4.098  0.5035 -0.9005  0.5174
 1708SOL    MW4 6606   1.034   3.901   4.102 -0.4500 -0.3306  0.4195
 1709SOL     OW 6607   5.982   2.404   3.679 -0.3802 -0.0033 -0.0641
 1709SOL    HW2 6608   6.011   2.436   3.765 -0.5428  0.7814 -0.2948
 1709SOL    HW3 6609   6.054   2.426   3.620  0.6402 -2.3510  0.1954
 1709SOL    MW4 6610   5.995   2.411   3.683 -0.3257 -0.4793 -0.0857
 1710SOL     OW 6611   5.518   2.244   4.868  0.3125  0.5114  0.8561
 1710SOL    HW2 6612   5.493   2.178   4.932  0.8870 -0.2964  0.2819
 1710SOL    HW3 6613   5.609   2.223   4.846  0.9040  2.2090  1.5070
 1710SOL    MW4 6614   5.527   2.232   4.873  0.4731  0.8481  0.3010
 1711SOL     OW 6615   5.162   5.550   5.268 -0.7410 -0.3989 -0.5376
 1711SOL    HW2 6616   5.210   5.601   5.202 -0.8137  1.4887  0.8113
 1711SOL    HW3 6617   5.094   5.609   5.299 -0.2989 -0.9823  1.6879
 1711SOL    MW4 6618   5.160   5.565   5.263  0.0223 -0.4013 -0.2436
 1712SOL     OW 6619   4.074   5.820   5.825 -0.1194  0.3134  0.3110
 1712SOL    HW2 6620   4.027   5.827   5.908 -0.0663  1.6472  0.2526
 1712SOL    HW3 6621   4.020   5.763   5.771 -1.6441  1.7165  0.2777
 1712SOL    MW4 6622   4.061   5.813   5.829 -0.0495  0.2241 -0.6036
 1713SOL     OW 6623   1.316   4.706   1.510  0.0802  0.0082  0.4038
 1713SOL    HW2 6624   1.394   4.657   1.538  0.6650  1.6504  1.8010
 1713SOL    HW3 6625   1.342   4.798   1.518 -1.0928  0.5989 -1.8254
 1713SOL    MW4 6626   1.330   4.712   1.515 -0.3423 -0.2791  0.4265
 1714SOL     OW 6627   5.975   3.906   4.383  0.3412 -0.1520 -0.1400
 1714SOL    HW2 6628   5.948   3.823   4.344  0.9731 -1.4885  2.0925
 1714SOL    HW3 6629   5.921   3.914   4.462  3.6697 -1.1193  2.4887
 1714SOL    MW4 6630   5.965   3.896   4.388  0.3388 -0.0178 -0.4914
 1715SOL     OW 6631   2.914   3.393   3.960 -0.0296  0.4686  0.3943
 1715SOL    HW2 6632   2.877   3.466   3.910  3.0101  2.2847  0.5448
 1715SOL    HW3 6633   2.962   3.435   4.032  0.6631 -1.7823  1.3391
 1715SOL    MW4 6634   2.916   3.408   3.963 -0.1271 -0.3896  0.3360
 1716SOL     OW 6635   4.638   2.685   0.631 -0.2955  0.0758  0.1377
 1716SOL    HW2 6636   4.687   2.764   0.609  0.6048 -0.5592 -0.2563
 1716SOL    HW3 6637   4.689   2.644   0.701 -0.2128 -0.6372 -0.3266
 1716SOL    MW4 6638   4.651   2.690   0.637 -0.1061 -0.0263 -0.3924
 1717SOL     OW 6639   5.503   2.216   5.454  0.1000 -0.4014 -0.1680
 1717SOL    HW2 6640   5.544   2.251   5.533  0.1147  0.2923 -0.4739
 1717SOL    HW3 6641   5.409   2.230   5.468  0.0801 -0.5749 -0.1316
 1717SOL    MW4 6642   5.496   2.223   5.467 -0.5930 -0.2774  0.8703
 1718SOL     OW 6643   1.893   0.873   1.632  0.0561  0.0959  0.8751
 1718SOL    HW2 6644   1.857   0.798   1.679  1.0247 -0.5445  0.6341
 1718SOL    HW3 6645   1.980   0.885   1.670  0.5360  0.0676 -0.1823
 1718SOL    MW4 6646   1.900   0.865   1.643 -0.0427  0.6809 -0.1925
 1719SOL     OW 6647   2.803   0.174   2.047 -0.7056 -0.0861  0.0398
 1719SOL    HW2 6648   2.887   0.132   2.027  0.6415  2.2213  0.3929
 1719SOL    HW3 6649   2.760   0.181   1.962  0.3740  0.4463 -0.4898
 1719SOL    MW4 6650   2.808   0.170   2.033 -0.1832  0.3136 -0.0633
 1720SOL     OW 6651   4.132   5.627   4.269 -0.2159 -0.2949  0.0795
 1720SOL    HW2 6652   4.095   5.574   4.198  0.0040 -0.0015 -0.2548
 1720SOL    HW3 6653   4.226   5.612   4.263 -0.1484  0.1494 -0.0326
 1720SOL    MW4 6654   4.139   5.618   4.258  0.6224  0.1504  0.2100
 1721SOL     OW 6655   3.125   5.056   5.564 -0.6890 -0.9544  0.5377
 1721SOL    HW2 6656   3.051   4.997   5.578 -0.9860 -0.6092  0.4417
 1721SOL    HW3 6657   3.190   5.003   5.518 -2.2310 -0.3527 -2.5980
 1721SOL    MW4 6658   3.124   5.041   5.560  0.2831  0.1826  0.1343
 1722SOL     OW 6659   3.678   1.080   1.490  0.3877 -1.0535  0.7218
 1722SOL    HW2 6660   3.605   1.082   1.553 -0.0571 -0.2843  0.1917
 1722SOL    HW3 6661   3.709   1.171   1.488 -0.0269 -0.9276 -0.6482
 1722SOL    MW4 6662   3.672   1.092   1.498  0.7446 -0.4369 -0.2109
 1723SOL     OW 6663   4.550   5.753   4.439 -0.3411  0.5805  0.0168
 1723SOL    HW2 6664   4.497   5.833   4.437 -0.8795  0.2238 -0.2207
 1723SOL    HW3 6665   4.625   5.775   4.495 -1.6988  0.5017  1.9844
 1723SOL    MW4 6666   4.553   5.766   4.446  0.3944 -0.1736 -0.2479
 1724SOL     OW 6667   0.770   5.973   4.022  0.4791 -0.9697 -0.0639
 1724SOL    HW2 6668   0.816   6.011   3.947 -1.3452  1.3280 -0.1436
 1724SOL    HW3 6669   0.741   5.887   3.991 -1.2517  0.3728 -2.5190
 1724SOL    MW4 6670   0.772   5.967   4.008 -0.0341 -0.3787  0.1327
 1725SOL     OW 6671   5.581   3.710   3.480  0.2422  0.1167  0.3955
 1725SOL    HW2 6672   5.555   3.790   3.525 -0.3123 -0.4590  1.1344
 1725SOL    HW3 6673   5.542   3.639   3.532  0.8414 -0.6428 -0.1505
 1725SOL    MW4 6674   5.573   3.711   3.493 -0.7615 -0.4261 -0.0231
 1726SOL     OW 6675   5.064   0.188   2.162 -0.1730  0.1669  0.4086
 1726SOL    HW2 6676   5.095   0.097   2.159 -0.2770  0.1025  1.1839
 1726SOL    HW3 6677   5.115   0.228   2.233 -0.5356  0.5642  0.4458
 1726SOL    MW4 6678   5.075   0.181   2.171  0.0200 -0.8209  0.4006
 1727SOL     OW 6679   3.133   2.972   5.798  0.0256 -0.0756 -0.1415
 1727SOL    HW2 6680   3.040   2.952   5.800  0.1397 -0.6837  1.8111
 1727SOL    HW3 6681   3.168   2.919   5.727 -1.0013 -0.3834 -0.4287
 1727SOL    MW4 6682   3.126   2.962   5.789 -1.0667  0.3037  0.2896
 1728SOL     OW 6683   5.831   2.904   0.960  0.0090 -0.0296 -0.1606
 1728SOL    HW2 6684   5.823   2.825   1.014 -0.9672  0.0259 -0.2031
 1728SOL    HW3 6685   5.915   2.943   0.987  0.5453 -1.1131 -0.2063
 1728SOL    MW4 6686   5.841   2.898   0.971  0.1187 -0.1255  0.0646
 1729SOL     OW 6687   4.612   1.045   4.419  0.4955  0.1234 -0.2234
 1729SOL    HW2 6688   4.673   1.073   4.351  0.5838 -0.4593 -0.3954
 1729SOL    HW3 6689   4.662   1.049   4.500  1.5776 -2.6487 -0.6451
 1729SOL    MW4 6690   4.627   1.049   4.421 -0.3852 -0.3641  0.1941
 1730SOL     OW 6691   5.319   2.064   0.870  0.6660 -0.2237 -0.3489
 1730SOL    HW2 6692   5.272   2.090   0.791  0.0319 -0.2946 -0.0030
 1730SOL    HW3 6693   5.264   1.995   0.908  0.9732 -0.1971  0.1453
 1730SOL    MW4 6694   5.306   2.058   0.865  0.4614  0.0746 -0.2345
 1731SOL     OW 6695   1.507   2.926   3.628  0.0092 -0.0319  0.3842
 1731SOL    HW2 6696   1.526   2.850   3.572  1.0056  1.0971 -0.8666
 1731SOL    HW3 6697   1.578   2.926   3.692  0.6365  0.4671 -0.3001
 1731SOL    MW4 6698   1.519   2.916   3.629 -0.4603  0.5063 -0.4077
 1732SOL     OW 6699   1.567   5.176   4.393 -0.2677 -0.0734 -0.1471
 1732SOL    HW2 6700   1.630   5.150   4.461  0.4748  0.8565 -0.4552
 1732SOL    HW3 6701   1.501   5.226   4.440 -1.0575 -1.4580  0.2547
 1732SOL    MW4 6702   1.567   5.179   4.408 -0.5216  0.2792  0.4080
 1733SOL     OW 6703   2.742   3.607   3.826 -0.1667 -1.2066  0.7446
 1733SOL    HW2 6704   2.734   3.652   3.910 -0.9546  1.6538 -0.7313
 1733SOL    HW3 6705   2.653   3.578   3.806 -0.3765 -0.1711  0.0826
 1733SOL    MW4 6706   2.729   3.609   3.834  0.5268  0.3919  0.1487
 1734SOL     OW 6707   4.957   1.252   1.458  0.3259  1.0106  0.3756
 1734SOL    HW2 6708   4.993   1.232   1.372  0.3288 -2.0253  0.9468
 1734SOL    HW3 6709   5.025   1.303   1.502  1.7457 -0.1978 -0.3347
 1734SOL    MW4 6710   4.970   1.256   1.453 -0.2304  0.7403  0.1150
 1735SOL     OW 6711   1.433   3.622   4.320 -0.6493 -0.3160 -0.4572
 1735SOL    HW2 6712   1.344   3.658   4.326 -1.0494 -1.1921 -0.8678
 1735SOL    HW3 6713   1.439   3.590   4.230  0.2708  0.1877 -0.5813
 1735SOL    MW4 6714   1.422   3.622   4.309  0.0677  0.6695 -0.4292
 1736SOL     OW 6715   5.330   5.991   4.278 -0.7333  0.1728  0.1846
 1736SOL    HW2 6716   5.314   5.897   4.268  1.7136 -0.3781  0.9227
 1736SOL    HW3 6717   5.377   6.016   4.199 -0.0492  0.4267  0.6612
 1736SOL    MW4 6718   5.334   5.982   4.266  0.3489  0.1877  0.3641
 1737SOL     OW 6719   0.446   4.378   2.231 -0.2513  0.2000  0.2264
 1737SOL    HW2 6720   0.428   4.320   2.305 -0.2326  1.1415  0.9921
 1737SOL    HW3 6721   0.529   4.348   2.197 -0.6638 -0.7823  0.0485
 1737SOL    MW4 6722   0.454   4.367   2.237  0.0058 -0.4627 -0.4161
 1738SOL     OW 6723   5.159   3.594   0.686  0.4746 -0.9488  0.6181
 1738SOL    HW2 6724   5.224   3.617   0.752  0.7232  1.8067 -0.4811
 1738SOL    HW3 6725   5.211   3.568   0.609  0.2151 -1.3579  0.5738
 1738SOL    MW4 6726   5.175   3.593   0.684 -0.3881 -0.3079  0.1858
 1739SOL     OW 6727   4.188   5.999   5.022 -0.1339 -0.1480 -0.2899
 1739SOL    HW2 6728   4.151   5.913   5.003  0.0061 -0.0612 -0.9564
 1739SOL    HW3 6729   4.114   6.059   5.015 -0.3556 -0.2808  0.7561
 1739SOL    MW4 6730   4.173   5.996   5.019 -0.3870  0.4397 -0.0106
 1740SOL     OW 6731   4.331   3.438   0.139 -0.5552  0.7963 -0.0275
 1740SOL    HW2 6732   4.362   3.497   0.208  1.0104  0.3898 -0.3455
 1740SOL    HW3 6733   4.299   3.497   0.070  2.0032  1.3720 -0.8110
 1740SOL    MW4 6734   4.330   3.454   0.139  0.0445  0.0040 -1.0122
 1741SOL     OW 6735   0.911   1.632   5.288 -0.1646 -0.5846 -0.3529
 1741SOL    HW2 6736   1.001   1.637   5.321  0.1136 -0.4272 -1.1223
 1741SOL    HW3 6737   0.916   1.571   5.215 -0.8563 -1.2508  0.1378
 1741SOL    MW4 6738   0.924   1.625   5.283  0.6714 -0.4441  0.1297
 1742SOL     OW 6739   6.426   2.662   6.003  0.6865 -0.0896 -0.0072
 1742SOL    HW2 6740   6.393   2.740   6.047  2.2225  0.4941  0.1590
 1742SOL    HW3 6741   6.357   2.639   5.940 -0.6854  0.1752  1.3434
 1742SOL    MW4 6742   6.413   2.669   6.000 -0.3468 -0.0730 -0.2701
 1743SOL     OW 6743   1.064   3.680   1.371 -0.1840  0.6136  0.1179
 1743SOL    HW2 6744   0.976   3.716   1.359  0.1335  1.8568  1.3419
 1743SOL    HW3 6745   1.107   3.739   1.432  1.8588  0.6107 -1.2028
 1743SOL    MW4 6746   1.058   3.692   1.377  0.1789 -0.3902 -0.3463
 1744SOL     OW 6747   3.856   1.708   0.088 -0.0575  0.2834 -0.0473
 1744SOL    HW2 6748   3.906   1.629   0.104 -1.4884 -0.9826 -1.4408
 1744SOL    HW3 6749   3.819   1.696  -0.000 -2.6138  1.1871  0.8130
 1744SOL    MW4 6750   3.857   1.696   0.078  0.1291 -0.4944  0.0114
 1745SOL     OW 6751   2.319   3.993   5.088 -0.2035 -0.0065  0.2576
 1745SOL    HW2 6752   2.325   3.974   4.995 -0.6411  0.2647  0.1725
 1745SOL    HW3 6753   2.226   4.007   5.104 -0.3078 -1.4107  1.0068
 1745SOL    MW4 6754   2.307   3.993   5.078 -0.4981 -0.8601  0.3399
 1746SOL     OW 6755   5.353   1.790   1.060 -0.0611 -0.0277  0.4178
 1746SOL    HW2 6756   5.275   1.824   1.104  0.6241  0.4508  1.2878
 1746SOL    HW3 6757   5.427   1.831   1.106  0.7145 -0.6048 -0.2761
 1746SOL    MW4 6758   5.353   1.800   1.072 -0.8189 -0.4062 -0.0344
 1747SOL     OW 6759   4.597   1.451   0.644 -0.5600  0.2924 -0.2887
 1747SOL    HW2 6760   4.687   1.435   0.617 -0.3308 -1.2559  1.2251
 1747SOL    HW3 6761   4.564   1.365   0.672 -2.1134  1.0333  0.2860
 1747SOL    MW4 6762   4.604   1.438   0.644 -0.5128 -0.3637 -0.4114
 1748SOL     OW 6763   3.445   1.656   3.753 -0.2215  0.3358  0.0330
 1748SOL    HW2 6764   3.391   1.655   3.674  0.2439 -1.2582 -0.3008
 1748SOL    HW3 6765   3.387   1.690   3.821 -1.2136 -0.0296 -0.6112
 1748SOL    MW4 6766   3.430   1.660   3.752 -0.0928  0.2646 -0.1120
 1749SOL     OW 6767   0.631   3.703   1.006  0.1055 -0.3115  0.3821
 1749SOL    HW2 6768   0.675   3.680   1.088  0.0626  0.0982  0.5254
 1749SOL    HW3 6769   0.591   3.622   0.976 -0.2259 -0.3757  0.9820
 1749SOL    MW4 6770   0.632   3.690   1.013 -0.6797 -0.5876 -0.6145
 1750SOL     OW 6771   4.791   3.883   2.384 -0.1164 -0.1360  0.5854
 1750SOL    HW2 6772   4.767   3.800   2.342  0.0919 -0.0533  0.2960
 1750SOL    HW3 6773   4.725   3.945   2.356  1.6125  0.6650 -2.0845
 1750SOL    MW4 6774   4.779   3.880   2.375  0.3120 -0.9455 -0.2206
 1751SOL     OW 6775   2.605   1.565   5.159  0.3948 -0.0367 -0.1763
 1751SOL    HW2 6776   2.627   1.626   5.229 -2.3928  0.1370  0.6910
 1751SOL    HW3 6777   2.522   1.598   5.123  1.0757 -0.8344 -2.7399
 1751SOL    MW4 6778   2.597   1.577   5.163 -0.1178  0.1788  0.2118
 1752SOL     OW 6779   6.082   5.604   0.662  0.2243 -0.3140 -0.1174
 1752SOL    HW2 6780   6.137   5.538   0.619 -2.8725 -3.6588  0.5674
 1752SOL    HW3 6781   6.103   5.596   0.754 -0.4229 -0.6816  0.0074
 1752SOL    MW4 6782   6.092   5.594   0.668  0.1354  0.2187 -0.1009
 1753SOL     OW 6783   1.765   0.402   2.924  0.3044  0.1691 -0.3943
 1753SOL    HW2 6784   1.758   0.470   2.858  0.1101 -1.5011 -2.1839
 1753SOL    HW3 6785   1.859   0.392   2.939  0.3066  1.3833  0.5363
 1753SOL    MW4 6786   1.777   0.410   2.918  0.6074  0.1400 -0.2166
 1754SOL     OW 6787   5.218   3.372   4.870 -0.4950 -0.0658 -0.0931
 1754SOL    HW2 6788   5.298   3.351   4.822 -1.2492 -1.0990 -0.9538
 1754SOL    HW3 6789   5.247   3.391   4.959  0.5898 -1.7347 -0.0529
 1754SOL    MW4 6790   5.232   3.372   4.876 -0.6295  0.3894  0.2082
 1755SOL     OW 6791   5.406   1.586   2.203  0.2288 -0.0637 -0.1837
 1755SOL    HW2 6792   5.409   1.531   2.125  1.7757 -2.2694  1.3072
 1755SOL    HW3 6793   5.406   1.524   2.276  0.1061  1.9198  1.5916
 1755SOL    MW4 6794   5.406   1.570   2.202 -0.4961 -0.7244 -0.0998
 1756SOL     OW 6795   4.936   4.626   1.781  0.6611 -0.1443  0.1572
 1756SOL    HW2 6796   4.943   4.721   1.767 -0.5439 -0.0113  0.3775
 1756SOL    HW3 6797   4.928   4.589   1.693  1.1990 -0.0565  0.0664
 1756SOL    MW4 6798   4.936   4.634   1.768 -0.1799 -0.1312 -0.6146
 1757SOL     OW 6799   3.263   1.013   5.211 -0.3882  0.0017 -0.2085
 1757SOL    HW2 6800   3.226   0.980   5.292 -0.6762  1.3790  0.2537
 1757SOL    HW3 6801   3.188   1.051   5.164  0.0968  1.0192 -0.1837
 1757SOL    MW4 6802   3.248   1.014   5.215 -0.5961  0.1409  0.4128
 1758SOL     OW 6803   2.690   3.253   3.024  0.0285  0.5641 -0.1816
 1758SOL    HW2 6804   2.691   3.348   3.034  0.4310  0.4252  1.3998
 1758SOL    HW3 6805   2.764   3.235   2.965  0.2943  1.1943 -0.0537
 1758SOL    MW4 6806   2.700   3.263   3.017  0.2328 -0.0797 -0.0552
 1759SOL     OW 6807   4.443   4.232   4.984 -0.2153 -0.1443 -0.3314
 1759SOL    HW2 6808   4.520   4.178   4.966  0.6519  1.2441 -0.9724
 1759SOL    HW3 6809   4.368   4.174   4.971  0.6121 -0.7748 -2.6719
 1759SOL    MW4 6810   4.443   4.218   4.980  0.1313  0.9033  0.7164
 1760SOL     OW 6811   2.118   6.055   0.520 -0.4429 -0.1333 -0.0927
 1760SOL    HW2 6812   2.197   6.096   0.484  0.5319 -2.2327 -0.5131
 1760SOL    HW3 6813   2.085   6.117   0.584  0.4311  1.6633 -1.3076
 1760SOL    MW4 6814   2.124   6.069   0.524  0.2891  0.1458  0.0516
 1761SOL     OW 6815   1.038   0.929   2.354  0.4710 -0.5496 -0.3216
 1761SOL    HW2 6816   1.064   0.984   2.280 -0.0616 -1.5473 -1.2752
 1761SOL    HW3 6817   0.958   0.970   2.387  0.7850 -0.0223 -0.1988
 1761SOL    MW4 6818   1.031   0.941   2.349  0.5883  0.4527  0.0525
 1762SOL     OW 6819   1.750   0.723   3.963  0.0912 -0.2347 -0.4615
 1762SOL    HW2 6820   1.825   0.770   4.001 -1.3021  1.1589  0.6846
 1762SOL    HW3 6821   1.716   0.670   4.035  0.3366 -1.3643 -1.1574
 1762SOL    MW4 6822   1.756   0.722   3.977  1.4324  0.3210 -0.3438
 1763SOL     OW 6823   0.590   5.713   4.541 -0.1646 -0.6621 -0.2524
 1763SOL    HW2 6824   0.538   5.787   4.510  0.2924 -0.5068 -0.6476
 1763SOL    HW3 6825   0.573   5.710   4.636 -0.0736  0.0261 -0.2137
 1763SOL    MW4 6826   0.581   5.722   4.550 -0.4311 -0.5973  0.3470
 1764SOL     OW 6827   6.053   6.052   3.302  0.1094  0.2281 -0.1170
 1764SOL    HW2 6828   6.122   6.106   3.265  1.6909 -2.3508 -1.2277
 1764SOL    HW3 6829   6.026   5.994   3.231 -0.8172 -1.0714  1.2166
 1764SOL    MW4 6830   6.059   6.051   3.288 -0.2586 -0.2493 -0.5251
 1765SOL     OW 6831   3.856   3.634   5.364  0.0191 -0.1447 -0.4121
 1765SOL    HW2 6832   3.887   3.572   5.299  1.1080  0.7379 -0.7644
 1765SOL    HW3 6833   3.844   3.716   5.316  1.8895  0.8245  0.6446
 1765SOL    MW4 6834   3.858   3.637   5.349 -0.0083 -0.0873  0.0106
 1766SOL     OW 6835   1.115   0.312   4.224  0.0083  0.0301 -0.8855
 1766SOL    HW2 6836   1.071   0.243   4.274  0.8534 -0.6412 -1.0304
 1766SOL    HW3 6837   1.059   0.388   4.233 -0.9754 -0.6879 -0.7437
 1766SOL    MW4 6838   1.102   0.313   4.231 -0.1493 -0.2426  0.3718
 1767SOL     OW 6839   5.798   6.117   4.550 -0.0296 -0.8034  0.1634
 1767SOL    HW2 6840   5.733   6.186   4.563 -0.8649 -0.4942 -4.1899
 1767SOL    HW3 6841   5.753   6.037   4.575 -1.3927 -0.3575 -0.7596
 1767SOL    MW4 6842   5.783   6.116   4.555  0.1531 -0.6360  0.2030
 1768SOL     OW 6843   0.486   0.971   4.347  0.0247 -0.1974  0.2297
 1768SOL    HW2 6844   0.559   1.023   4.380  0.5721 -1.1156  0.4870
 1768SOL    HW3 6845   0.445   0.935   4.426 -1.1709  0.8985  0.1387
 1768SOL    MW4 6846   0.490   0.973   4.362 -1.3874  0.1044  0.0111
 1769SOL     OW 6847   3.612   1.061   0.030  0.1647  0.6772 -0.3582
 1769SOL    HW2 6848   3.670   1.011   0.086 -0.8264 -1.1770 -0.8787
 1769SOL    HW3 6849   3.636   1.153   0.044  0.0737  0.3150  2.9256
 1769SOL    MW4 6850   3.623   1.067   0.039 -0.2855 -1.0157  0.4811
 1770SOL     OW 6851   1.550   3.103   0.439  0.0263 -0.1289  0.3433
 1770SOL    HW2 6852   1.458   3.128   0.432 -0.4559 -1.3512  1.7976
 1770SOL    HW3 6853   1.591   3.177   0.484  0.4997  1.8634 -3.0394
 1770SOL    MW4 6854   1.544   3.116   0.444  0.3186  0.0428 -0.4791
 1771SOL     OW 6855   4.292   0.910   1.769 -0.1511  0.1145  0.3370
 1771SOL    HW2 6856   4.335   0.995   1.777 -1.4116  0.7100  1.2152
 1771SOL    HW3 6857   4.225   0.924   1.702 -1.4875  0.3431  1.6654
 1771SOL    MW4 6858   4.288   0.923   1.761 -0.0908  0.5499 -0.0463
 1772SOL     OW 6859   3.069   0.990   3.439 -0.8878 -0.1830  0.1453
 1772SOL    HW2 6860   3.009   1.043   3.492 -0.5706  0.7907 -0.4495
 1772SOL    HW3 6861   3.018   0.967   3.361 -1.0970 -0.9562  0.5006
 1772SOL    MW4 6862   3.054   0.994   3.436  0.1092 -0.4191 -0.1823
 1773SOL     OW 6863   4.124   0.458   5.778  0.1251  0.3962 -0.1308
 1773SOL    HW2 6864   4.065   0.383   5.782 -0.5938  0.9877  2.7784
 1773SOL    HW3 6865   4.200   0.431   5.829 -0.2797  1.6937  1.2318
 1773SOL    MW4 6866   4.126   0.445   5.785  0.5434  0.8361 -0.6016
 1774SOL     OW 6867   4.880   6.360   6.198  0.2475 -0.1789 -0.2613
 1774SOL    HW2 6868   4.959   6.371   6.145 -0.7444  0.4341 -1.6965
 1774SOL    HW3 6869   4.811   6.403   6.146 -0.6598  1.0758  1.8531
 1774SOL    MW4 6870   4.881   6.367   6.184  0.3741 -0.1871 -0.1093
 1775SOL     OW 6871   4.190   3.088   6.090  0.2068  0.7406 -0.4784
 1775SOL    HW2 6872   4.245   3.166   6.101  4.4013 -1.8834 -0.3594
 1775SOL    HW3 6873   4.158   3.093   6.000  2.3036  1.5662 -1.2397
 1775SOL    MW4 6874   4.193   3.099   6.080 -0.2519  0.2654  0.7893
 1776SOL     OW 6875   4.007   4.183   6.343 -0.0000 -0.1858 -0.4797
 1776SOL    HW2 6876   3.926   4.181   6.293 -0.5667 -0.0360  0.4272
 1776SOL    HW3 6877   3.984   4.146   6.428  0.4477  1.5001  0.4095
 1776SOL    MW4 6878   3.994   4.178   6.348  0.3066  0.0657 -0.0776
 1777SOL     OW 6879   3.574   1.336   2.016 -0.4347 -0.5625 -0.1595
 1777SOL    HW2 6880   3.487   1.374   2.014 -0.2449 -0.0960  0.4263
 1777SOL    HW3 6881   3.572   1.269   1.947 -0.6157  0.8441 -1.5868
 1777SOL    MW4 6882   3.563   1.332   2.006 -0.4507  0.1188 -0.6315
 1778SOL     OW 6883   3.454   4.779   2.117  0.2175  0.1821 -0.2936
 1778SOL    HW2 6884   3.372   4.731   2.103  0.5880 -0.5232 -0.1293
 1778SOL    HW3 6885   3.430   4.871   2.109 -0.8754  0.0565  1.1189
 1778SOL    MW4 6886   3.440   4.785   2.114 -0.1991  0.0861  0.6778
 1779SOL     OW 6887   2.152   3.082   4.664 -0.0816 -0.2855 -0.4863
 1779SOL    HW2 6888   2.147   3.152   4.598 -2.0770  0.2606  0.1583
 1779SOL    HW3 6889   2.230   3.103   4.715  0.6040  0.1928 -1.6753
 1779SOL    MW4 6890   2.161   3.094   4.662 -0.3325 -0.1158 -0.2055
 1780SOL     OW 6891   0.127   0.970   4.730  0.0623  0.3329 -0.0617
 1780SOL    HW2 6892   0.102   0.880   4.708 -1.9907  0.8906 -0.1913
 1780SOL    HW3 6893   0.105   1.021   4.652  0.9670  1.0116  0.1041
 1780SOL    MW4 6894   0.121   0.965   4.717  0.0532 -0.3582  0.4684
 1781SOL     OW 6895   2.538   4.826   4.254 -0.1836 -0.0871  1.0421
 1781SOL    HW2 6896   2.446   4.846   4.238 -0.4376  0.3905  2.8530
 1781SOL    HW3 6897   2.554   4.745   4.206 -1.5449 -0.1857  0.7162
 1781SOL    MW4 6898   2.528   4.818   4.245 -0.8494  0.1962  0.2423
 1782SOL     OW 6899   2.456   0.213   1.494 -0.2455 -0.4892 -0.0742
 1782SOL    HW2 6900   2.524   0.277   1.517 -0.8404  0.3386 -0.5743
 1782SOL    HW3 6901   2.384   0.233   1.554 -0.6208 -0.3697 -0.5651
 1782SOL    MW4 6902   2.455   0.224   1.505 -0.0339  0.5135  0.3949
 1783SOL     OW 6903   2.381   1.492   2.438  1.1710  0.6202 -0.1356
 1783SOL    HW2 6904   2.333   1.547   2.500 -0.0269 -0.8368  0.2729
 1783SOL    HW3 6905   2.363   1.530   2.352 -0.7952  0.0864  0.0067
 1783SOL    MW4 6906   2.373   1.504   2.435  0.1273  0.2859  0.6217
 1784SOL     OW 6907   2.562   1.923   6.419 -0.8945 -0.1395 -0.4936
 1784SOL    HW2 6908   2.506   1.903   6.493  0.8398 -1.0473  0.6407
 1784SOL    HW3 6909   2.614   1.999   6.448 -0.7213 -0.0269 -1.0731
 1784SOL    MW4 6910   2.562   1.931   6.433  0.3922 -0.5459  0.5631
 1785SOL     OW 6911   0.316   1.217   1.771  0.3817  0.4289 -0.3464
 1785SOL    HW2 6912   0.403   1.177   1.782 -0.3562 -0.7615  1.6727
 1785SOL    HW3 6913   0.312   1.285   1.838 -0.3094  0.3354 -0.2828
 1785SOL    MW4 6914   0.327   1.221   1.781 -0.5429  0.1442 -0.1583
 1786SOL     OW 6915   5.567   1.968   1.119 -0.5365 -0.2790  0.2301
 1786SOL    HW2 6916   5.637   2.030   1.140 -0.6287 -0.1227  0.0823
 1786SOL    HW3 6917   5.564   1.965   1.024  0.0190 -1.1543  0.2358
 1786SOL    MW4 6918   5.576   1.976   1.110  0.3843 -0.3729 -0.3680
 1787SOL     OW 6919   0.379   5.751   1.175  0.0819  0.2373  0.1615
 1787SOL    HW2 6920   0.461   5.703   1.168  0.7607  1.4526 -0.6503
 1787SOL    HW3 6921   0.347   5.757   1.085  1.1743  3.1543 -0.1482
 1787SOL    MW4 6922   0.385   5.746   1.163 -0.1163  0.3988  0.1068
 1788SOL     OW 6923   5.452   3.721   6.129  0.3386  0.0542  0.2102
 1788SOL    HW2 6924   5.395   3.770   6.189  0.0587 -1.1211  0.9396
 1788SOL    HW3 6925   5.497   3.658   6.186  0.1185 -1.0423 -0.8104
 1788SOL    MW4 6926   5.450   3.719   6.145 -0.0732  0.1008 -0.0842
 1789SOL     OW 6927   0.341   4.012   4.903  0.3237  0.2332 -0.1507
 1789SOL    HW2 6928   0.358   4.104   4.883 -0.2649  0.3521 -0.1175
 1789SOL    HW3 6929   0.257   3.993   4.863  0.9125 -0.5852 -1.0553
 1789SOL    MW4 6930   0.333   4.021   4.895  0.4252  0.0523  0.3040
 1790SOL     OW 6931   6.314   6.012   2.517 -0.2753  0.4642 -0.1443
 1790SOL    HW2 6932   6.286   5.924   2.493 -1.3346  0.2532  1.6767
 1790SOL    HW3 6933   6.283   6.068   2.446 -3.1769 -0.1122  0.5532
 1790SOL    MW4 6934   6.306   6.008   2.505  0.4496  0.5584 -0.4242
 1791SOL     OW 6935   1.711   0.617   3.722  0.1482  0.3913 -0.5777
 1791SOL    HW2 6936   1.736   0.651   3.808  0.3736  0.4069 -0.6489
 1791SOL    HW3 6937   1.633   0.667   3.699 -0.1487  0.1064 -0.2049
 1791SOL    MW4 6938   1.704   0.628   3.731  0.0574 -0.1064 -0.0960
 1792SOL     OW 6939   5.088   4.804   6.250  0.1216  0.9026 -0.3360
 1792SOL    HW2 6940   5.027   4.877   6.264 -0.8766  0.0452 -0.1161
 1792SOL    HW3 6941   5.049   4.731   6.297  1.8543  0.5864  0.6876
 1792SOL    MW4 6942   5.075   4.804   6.258  0.1552  0.3741 -0.3798
 1793SOL     OW 6943   1.012   1.569   0.383 -0.3563  0.1248  0.0201
 1793SOL    HW2 6944   1.041   1.523   0.304  0.0184 -0.2215  0.3533
 1793SOL    HW3 6945   0.921   1.544   0.394 -0.2090 -0.3843  0.0894
 1793SOL    MW4 6946   1.004   1.560   0.374  0.1605  0.4095  0.4905
 1794SOL     OW 6947   0.323   6.337   5.998 -0.6411 -0.0840 -0.5663
 1794SOL    HW2 6948   0.240   6.292   5.987 -1.1168  0.4951  0.4419
 1794SOL    HW3 6949   0.327   6.357   6.092  0.2053  0.7057 -0.7478
 1794SOL    MW4 6950   0.313   6.334   6.009  0.5250 -0.6029  0.2705
 1795SOL     OW 6951   2.466   6.342   2.153 -0.6281  0.2897 -0.4122
 1795SOL    HW2 6952   2.441   6.305   2.237 -1.2643  2.6011  0.4806
 1795SOL    HW3 6953   2.385   6.345   2.102 -0.1784 -1.4688 -1.3323
 1795SOL    MW4 6954   2.452   6.338   2.157 -0.0430 -0.3740  0.1737
 1796SOL     OW 6955   1.111   3.420   1.738 -0.0021 -0.8924 -0.6947
 1796SOL    HW2 6956   1.179   3.419   1.805 -0.1549  1.8566 -0.3683
 1796SOL    HW3 6957   1.029   3.427   1.787 -0.1897 -0.0394 -1.1049
 1796SOL    MW4 6958   1.109   3.421   1.753 -0.0920  0.2380 -0.3666
 1797SOL     OW 6959   0.455   2.779   2.521  0.0912  0.3975 -0.0306
 1797SOL    HW2 6960   0.499   2.695   2.505 -2.4019 -1.2045  0.9846
 1797SOL    HW3 6961   0.426   2.774   2.612 -2.0281  1.4041 -0.5898
 1797SOL    MW4 6962   0.457   2.767   2.531  0.1030  0.0008 -0.2407
 1798SOL     OW 6963   0.138   5.805   2.717  0.1748  0.0197 -0.0129
 1798SOL    HW2 6964   0.211   5.768   2.667  1.5942 -0.8953  2.5643
 1798SOL    HW3 6965   0.077   5.733   2.727  0.4291 -0.1259  0.5114
 1798SOL    MW4 6966   0.140   5.791   2.711 -0.4467 -0.3175  0.2271
 1799SOL     OW 6967   1.532   0.875   2.442  0.5560  0.0451  0.4806
 1799SOL    HW2 6968   1.585   0.803   2.407  1.0853  0.9647 -0.6526
 1799SOL    HW3 6969   1.443   0.839   2.446  0.6965 -0.4623 -0.7168
 1799SOL    MW4 6970   1.527   0.860   2.438  0.0156  0.1976  0.1654
 1800SOL     OW 6971   5.407   4.591   0.978  0.0029 -0.5966 -0.8156
 1800SOL    HW2 6972   5.424   4.537   1.055 -0.4639  1.2635  0.6791
 1800SOL    HW3 6973   5.476   4.567   0.916  1.4374 -0.9869  0.8356
 1800SOL    MW4 6974   5.419   4.581   0.980  0.3247  0.2095 -0.0228
 1801SOL     OW 6975   4.090   2.632   4.088 -0.4412 -0.1397 -0.1416
 1801SOL    HW2 6976   4.137   2.599   4.165 -1.6228 -0.3062  0.5257
 1801SOL    HW3 6977   4.134   2.590   4.014  0.7056  0.0048  0.4293
 1801SOL    MW4 6978   4.102   2.622   4.089  0.2748 -0.1756 -0.6920
 1802SOL     OW 6979   5.866   3.955   3.197  0.4972  0.3834 -0.4600
 1802SOL    HW2 6980   5.922   3.961   3.274  1.4259 -1.7919 -0.8911
 1802SOL    HW3 6981   5.923   3.978   3.124  0.5721 -0.7864 -0.7949
 1802SOL    MW4 6982   5.881   3.959   3.198 -0.0645  0.2234 -0.4828
 1803SOL     OW 6983   4.965   4.107   2.416 -0.4984  0.4473 -0.1730
 1803SOL    HW2 6984   4.976   4.013   2.399  0.3828  0.0836  2.0762
 1803SOL    HW3 6985   5.054   4.141   2.421 -0.7968  1.1817  0.1706
 1803SOL    MW4 6986   4.978   4.099   2.414 -0.6311  0.0825 -0.8167
 1804SOL     OW 6987   5.567   3.462   0.348  0.2120  0.2265  0.1423
 1804SOL    HW2 6988   5.629   3.432   0.282 -0.6243  0.5824 -0.8301
 1804SOL    HW3 6989   5.594   3.552   0.366  2.3790 -0.7991  2.6557
 1804SOL    MW4 6990   5.579   3.470   0.342  0.5252  0.4119 -0.4060
 1805SOL     OW 6991   3.438   2.476   3.288 -0.0509 -0.0725 -0.1604
 1805SOL    HW2 6992   3.371   2.544   3.277 -1.5023 -1.3618  0.3518
 1805SOL    HW3 6993   3.477   2.467   3.201 -0.8538  0.4089 -0.5842
 1805SOL    MW4 6994   3.434   2.484   3.275  0.7071  0.4549 -0.1877
 1806SOL     OW 6995   5.984   2.821   0.011 -0.4501 -0.1035  0.3718
 1806SOL    HW2 6996   5.957   2.882  -0.058  0.2852 -2.3983 -2.1091
 1806SOL    HW3 6997   6.080   2.817   0.002 -0.2860 -0.0451  1.9271
 1806SOL    MW4 6998   5.993   2.829   0.001  0.0008 -0.1281  0.7547
 1807SOL     OW 6999   3.563   5.260   6.157 -0.3486 -0.0874 -0.1282
 1807SOL    HW2 7000   3.629   5.321   6.189 -1.1192  1.1157 -0.7719
 1807SOL    HW3 7001   3.613   5.188   6.118  0.5659  0.2371  0.4245
 1807SOL    MW4 7002   3.578   5.258   6.156 -0.2148 -0.4259  0.1300
 1808SOL     OW 7003   1.527   5.272   6.105 -0.3071 -0.0943 -0.2276
 1808SOL    HW2 7004   1.528   5.317   6.189 -0.7859 -1.0822  0.3275
 1808SOL    HW3 7005   1.526   5.342   6.040 -2.0812  0.7226  0.6058
 1808SOL    MW4 7006   1.527   5.287   6.108 -0.8034  0.6690  0.8179
 1809SOL     OW 7007   0.041   0.715   4.696  0.2577  0.1966  0.3747
 1809SOL    HW2 7008   0.093   0.642   4.661  1.6620  0.9916  0.7418
 1809SOL    HW3 7009  -0.033   0.722   4.636 -0.3222 -1.9791  0.7233
 1809SOL    MW4 7010   0.039   0.706   4.684 -0.4320 -0.2038 -0.1775
 1810SOL     OW 7011   1.381   3.407   4.950 -0.2916  0.1545 -0.1903
 1810SOL    HW2 7012   1.361   3.492   4.911  1.2429  0.1107 -1.1612
 1810SOL    HW3 7013   1.300   3.357   4.942 -0.6265  0.8525 -1.4747
 1810SOL    MW4 7014   1.368   3.412   4.944  0.0773  0.0215  0.2260
 1811SOL     OW 7015   1.007   5.730   5.803  0.1830 -0.0278  0.0549
 1811SOL    HW2 7016   1.031   5.792   5.872 -0.8621  0.5709 -0.1085
 1811SOL    HW3 7017   1.047   5.766   5.724  0.7111 -0.2944  0.1926
 1811SOL    MW4 7018   1.016   5.743   5.802  0.0618 -0.0236 -0.4414
 1812SOL     OW 7019   5.664   2.273   2.462 -0.5921  0.5179  0.1255
 1812SOL    HW2 7020   5.740   2.331   2.465 -0.4485  0.2917  1.6648
 1812SOL    HW3 7021   5.679   2.210   2.533 -0.4091 -1.8647 -1.8771
 1812SOL    MW4 7022   5.676   2.272   2.472  0.5288 -0.1038  0.2160
 1813SOL     OW 7023   1.879   4.238   5.765 -0.3166 -0.5129 -0.2754
 1813SOL    HW2 7024   1.906   4.223   5.856 -2.4794  1.4280  0.7884
 1813SOL    HW3 7025   1.836   4.157   5.739  0.4431 -1.1358  0.3706
 1813SOL    MW4 7026   1.877   4.226   5.774 -0.2340 -0.2057  0.4922
 1814SOL     OW 7027   1.375   0.328   0.413  0.5051 -0.3969 -0.0700
 1814SOL    HW2 7028   1.375   0.273   0.492 -0.0338 -0.2171  0.0566
 1814SOL    HW3 7029   1.351   0.415   0.444 -0.8946 -0.5682 -0.5908
 1814SOL    MW4 7030   1.372   0.332   0.427 -0.9255  0.2874 -0.1843
 1815SOL     OW 7031   3.677   1.276   6.072  0.2256  0.3499  0.0134
 1815SOL    HW2 7032   3.660   1.346   6.136 -0.8787  0.5983 -0.5293
 1815SOL    HW3 7033   3.700   1.200   6.126 -1.7077  0.2627  0.8040
 1815SOL    MW4 7034   3.678   1.275   6.088  0.0605 -0.1814  0.0924
 1816SOL     OW 7035   0.217   6.240   5.154  0.1711  0.2942  0.3828
 1816SOL    HW2 7036   0.175   6.308   5.102  0.5535  0.0178 -0.2960
 1816SOL    HW3 7037   0.156   6.166   5.150  0.1242  0.3284  0.4641
 1816SOL    MW4 7038   0.203   6.239   5.146  0.1623 -0.0996  0.2860
 1817SOL     OW 7039   2.434   4.843   3.821  0.0680 -0.0410 -0.1148
 1817SOL    HW2 7040   2.452   4.749   3.818 -0.3356 -0.2013  1.6817
 1817SOL    HW3 7041   2.420   4.867   3.729  1.7666 -1.3983 -0.7983
 1817SOL    MW4 7042   2.435   4.834   3.808 -0.1466 -0.2271 -0.1210
 1818SOL     OW 7043   3.824   3.972   5.689  0.0493  0.1076  0.3891
 1818SOL    HW2 7044   3.826   3.881   5.716 -1.7903 -0.2459 -0.5326
 1818SOL    HW3 7045   3.875   3.974   5.608 -0.7012 -0.3128 -0.1047
 1818SOL    MW4 7046   3.831   3.961   5.681  0.3247  0.0143  0.4806
 1819SOL     OW 7047   3.607   6.334   3.293 -0.0487 -0.2480 -0.1216
 1819SOL    HW2 7048   3.676   6.401   3.291 -0.8236  0.5911 -2.2381
 1819SOL    HW3 7049   3.540   6.369   3.351  0.3315 -0.0289  0.1878
 1819SOL    MW4 7050   3.608   6.347   3.300 -0.1446  0.3140  0.1613
 1820SOL     OW 7051   1.689   0.934   1.432 -0.4681  0.5325 -0.0929
 1820SOL    HW2 7052   1.745   0.919   1.509  1.0931 -0.2083 -1.3101
 1820SOL    HW3 7053   1.665   1.026   1.438  1.6689  1.1368  0.0295
 1820SOL    MW4 7054   1.693   0.944   1.443 -0.0843  0.3640  0.1822
 1821SOL     OW 7055   0.376   3.545   3.108  0.6448 -0.6457  0.2378
 1821SOL    HW2 7056   0.405   3.458   3.134 -0.2324 -0.8040  0.7245
 1821SOL    HW3 7057   0.434   3.605   3.155  1.3641 -0.9570 -0.2316
 1821SOL    MW4 7058   0.387   3.541   3.117  0.4300 -0.4060 -0.8341
 1822SOL     OW 7059   2.653   3.670   6.368 -0.2300  0.3792 -0.5987
 1822SOL    HW2 7060   2.630   3.677   6.275  2.5013 -0.6210 -1.4205
 1822SOL    HW3 7061   2.664   3.761   6.396 -1.0223  0.6874 -1.2246
 1822SOL    MW4 7062   2.651   3.683   6.359 -0.0810  0.1844  0.4471
 1823SOL     OW 7063   4.621   2.193   0.575 -0.2640  0.2049 -0.3255
 1823SOL    HW2 7064   4.598   2.286   0.572 -0.1936  0.2125 -2.0824
 1823SOL    HW3 7065   4.600   2.165   0.664 -2.0198  1.4828 -0.2852
 1823SOL    MW4 7066   4.615   2.201   0.586 -0.1047  0.1096  0.2166
 1824SOL     OW 7067   4.474   4.411   5.197 -0.1910 -0.2184  0.2219
 1824SOL    HW2 7068   4.404   4.385   5.257  0.1716 -1.2733  0.2141
 1824SOL    HW3 7069   4.480   4.338   5.134  2.0244 -0.9807  1.2196
 1824SOL    MW4 7070   4.466   4.398   5.196  0.3686 -0.5185 -0.2457
 1825SOL     OW 7071   5.974   1.965   3.056  0.1857 -0.8293  0.5643
 1825SOL    HW2 7072   5.901   1.923   3.011 -0.5626  0.0267  0.9582
 1825SOL    HW3 7073   6.049   1.950   2.998 -0.5248 -0.7513 -0.4049
 1825SOL    MW4 7074   5.975   1.958   3.042 -0.5233 -0.2808 -0.8779
 1826SOL     OW 7075   5.946   1.922   5.323  0.4648  0.1213 -0.2716
 1826SOL    HW2 7076   5.892   1.847   5.297  0.1218  0.2775 -0.0206
 1826SOL    HW3 7077   6.025   1.883   5.359  0.6696 -0.1055 -0.9607
 1826SOL    MW4 7078   5.949   1.907   5.324  0.6315 -0.6234  0.0208
 1827SOL     OW 7079   1.169   3.121   2.526 -0.1584  0.1004 -0.2297
 1827SOL    HW2 7080   1.241   3.157   2.579 -0.6218 -1.4002  1.5628
 1827SOL    HW3 7081   1.163   3.029   2.555 -2.5038  0.0652 -0.6434
 1827SOL    MW4 7082   1.178   3.113   2.537 -0.3481 -0.0023  0.3480
 1828SOL     OW 7083   5.415   4.704   6.389 -0.1236  0.2496  0.0081
 1828SOL    HW2 7084   5.409   4.639   6.319 -2.4263  0.7697 -0.3648
 1828SOL    HW3 7085   5.349   4.770   6.367 -0.1724  0.9931  2.1039
 1828SOL    MW4 7086   5.405   4.704   6.377 -0.2042 -0.0180  0.3451
 1829SOL     OW 7087   4.097   5.192   5.419 -0.7865 -0.3398  0.2863
 1829SOL    HW2 7088   4.036   5.252   5.462 -0.2688 -0.8270  1.7712
 1829SOL    HW3 7089   4.063   5.105   5.438 -0.2324 -0.5824  0.1892
 1829SOL    MW4 7090   4.084   5.189   5.427  0.0518 -0.0916 -1.0692
 1830SOL     OW 7091   5.721   2.420   6.279  0.0102 -0.0197 -0.1339
 1830SOL    HW2 7092   5.713   2.396   6.372 -1.9906 -0.9451 -0.4895
 1830SOL    HW3 7093   5.723   2.516   6.279  0.0454 -0.0070  0.8525
 1830SOL    MW4 7094   5.720   2.430   6.291 -0.4713  0.5535  0.2607
 1831SOL     OW 7095   5.186   2.981   4.512  0.4733  0.0404  0.8310
 1831SOL    HW2 7096   5.173   2.918   4.441  0.0444  2.5409 -1.5060
 1831SOL    HW3 7097   5.098   2.997   4.546  0.4040  0.2765  0.5500
 1831SOL    MW4 7098   5.173   2.975   4.507 -0.2573 -0.1382  0.5325
 1832SOL     OW 7099   3.328   0.401   5.094  0.3471  0.3087  0.2781
 1832SOL    HW2 7100   3.390   0.472   5.111  0.3478 -0.0696  1.9812
 1832SOL    HW3 7101   3.375   0.322   5.117 -0.5031 -0.0490  0.8080
 1832SOL    MW4 7102   3.342   0.400   5.099 -0.0700  0.6144 -0.1553
 1833SOL     OW 7103   3.495   4.563   0.510 -0.3362 -0.2670 -0.3065
 1833SOL    HW2 7104   3.456   4.483   0.545 -1.4544  0.0394 -0.8106
 1833SOL    HW3 7105   3.547   4.533   0.435 -1.2210 -0.4679 -0.8507
 1833SOL    MW4 7106   3.497   4.548   0.505  0.1398 -0.5147 -0.2279
 1834SOL     OW 7107   3.276   5.049   5.167  0.1324 -0.3949 -0.2375
 1834SOL    HW2 7108   3.285   5.101   5.087 -1.5840  0.8620  0.3390
 1834SOL    HW3 7109   3.187   5.015   5.165  0.4235 -1.2662  0.6182
 1834SOL    MW4 7110   3.266   5.051   5.156  0.1789 -0.6195  0.1006
 1835SOL     OW 7111   4.296   5.736   5.261 -0.1657  0.5750 -0.0427
 1835SOL    HW2 7112   4.364   5.710   5.323 -1.8500  0.3460  1.7898
 1835SOL    HW3 7113   4.336   5.721   5.175  1.8704 -0.1115  0.9501
 1835SOL    MW4 7114   4.310   5.730   5.258  0.1844  0.1534 -0.2428
 1836SOL     OW 7115   3.527   5.835   1.927 -0.0394 -0.0084  0.1820
 1836SOL    HW2 7116   3.482   5.801   1.850 -1.3620  1.9362  0.0411
 1836SOL    HW3 7117   3.615   5.798   1.921 -0.6789 -1.4195 -1.2120
 1836SOL    MW4 7118   3.533   5.826   1.916 -0.6158 -0.1477  0.0551
 1837SOL     OW 7119   6.049   4.880   1.093  0.1270  0.1212 -0.6598
 1837SOL    HW2 7120   6.059   4.954   1.033  0.8863  1.5576  1.1192
 1837SOL    HW3 7121   5.954   4.867   1.100  0.0191  0.2580 -1.7571
 1837SOL    MW4 7122   6.038   4.888   1.086  0.5323 -0.2841  0.2947
 1838SOL     OW 7123   2.327   5.051   2.242 -0.3693 -0.2285  0.2206
 1838SOL    HW2 7124   2.407   5.076   2.289 -0.9469 -0.0199  1.1157
 1838SOL    HW3 7125   2.350   5.060   2.150  0.5356  0.1678  0.4690
 1838SOL    MW4 7126   2.341   5.055   2.236  0.6043 -0.0494  0.2864
 1839SOL     OW 7127   0.649   0.101   3.233  0.0542 -0.2335 -0.7594
 1839SOL    HW2 7128   0.595   0.124   3.309 -0.4289 -1.2041 -0.7937
 1839SOL    HW3 7129   0.614   0.155   3.162 -1.1961 -1.1828 -0.8916
 1839SOL    MW4 7130   0.637   0.111   3.234 -0.2638 -0.0416  0.2733
 1840SOL     OW 7131   3.744   0.798   5.798  0.0085  0.2671  0.0958
 1840SOL    HW2 7132   3.794   0.812   5.878  0.2009  0.9255 -0.1312
 1840SOL    HW3 7133   3.782   0.860   5.735 -1.5363  1.3040  0.1096
 1840SOL    MW4 7134   3.756   0.808   5.800 -0.3495 -0.1116  0.0988
 1841SOL     OW 7135   1.298   4.305   4.423 -0.1144  0.1553 -0.1653
 1841SOL    HW2 7136   1.352   4.238   4.382  0.3089  2.0825 -3.0053
 1841SOL    HW3 7137   1.219   4.259   4.451  0.8148 -1.7678 -0.5483
 1841SOL    MW4 7138   1.295   4.290   4.421  0.2083  0.2387  0.3311
 1842SOL     OW 7139   4.977   5.756   4.996  0.1064 -0.4346 -0.9681
 1842SOL    HW2 7140   4.944   5.795   5.077 -1.1007 -0.0018 -1.6392
 1842SOL    HW3 7141   4.960   5.822   4.929  1.1551 -0.7592 -1.5722
 1842SOL    MW4 7142   4.970   5.770   4.998 -0.3310  0.3933  0.4045
 1843SOL     OW 7143   0.203   4.509   5.270 -0.1077  0.8525  0.2382
 1843SOL    HW2 7144   0.164   4.423   5.286  0.1862  0.6597 -0.0496
 1843SOL    HW3 7145   0.176   4.531   5.181  1.4511  0.1448 -0.4499
 1843SOL    MW4 7146   0.195   4.500   5.260 -0.1507 -0.0413 -0.0560
 1844SOL     OW 7147   4.513   5.172   1.570 -0.0975  0.8463  0.1235
 1844SOL    HW2 7148   4.450   5.226   1.522 -1.3276 -0.3891  0.2963
 1844SOL    HW3 7149   4.504   5.085   1.533  1.9588  0.7250 -0.2377
 1844SOL    MW4 7150   4.504   5.168   1.559 -0.6312  0.5883  0.9126
 1845SOL     OW 7151   3.482   4.279   4.418  0.0879  0.2323 -0.3125
 1845SOL    HW2 7152   3.397   4.252   4.454  0.0033  1.4435  0.4531
 1845SOL    HW3 7153   3.469   4.275   4.323 -1.0603  1.0242 -0.2161
 1845SOL    MW4 7154   3.469   4.275   4.410  0.1419  0.1914  0.5675
 1846SOL     OW 7155   0.112   5.557   1.152 -0.0724  0.3998  0.3207
 1846SOL    HW2 7156   0.053   5.611   1.098 -1.6642 -1.0823  0.5208
 1846SOL    HW3 7157   0.198   5.570   1.112  0.0725  4.6099  1.5056
 1846SOL    MW4 7158   0.116   5.566   1.140  0.1730 -0.3416  0.0853
 1847SOL     OW 7159   0.910   2.638   2.622 -0.5261 -0.3153  0.5674
 1847SOL    HW2 7160   0.897   2.580   2.697 -0.1517  0.3724  1.1675
 1847SOL    HW3 7161   0.971   2.704   2.653 -0.4510  0.0358 -0.3147
 1847SOL    MW4 7162   0.916   2.639   2.636 -0.2913  0.3138  0.0104
 1848SOL     OW 7163   5.661   3.329   4.457 -0.2124 -0.1071 -0.2969
 1848SOL    HW2 7164   5.712   3.269   4.511 -1.3315  0.3469  1.3330
 1848SOL    HW3 7165   5.696   3.415   4.478 -0.2888  0.0227 -0.7028
 1848SOL    MW4 7166   5.672   3.332   4.467  0.2900 -0.3630  0.3476
 1849SOL     OW 7167   1.715   1.070   0.729 -0.1394  0.2648 -0.2800
 1849SOL    HW2 7168   1.803   1.049   0.697 -1.0348 -1.9110 -1.5088
 1849SOL    HW3 7169   1.681   1.130   0.662  0.5654  1.5887  0.5026
 1849SOL    MW4 7170   1.722   1.075   0.716  0.1041 -0.5201 -0.7796
 1850SOL     OW 7171   4.144   6.012   3.593  0.1604 -0.6286  0.7817
 1850SOL    HW2 7172   4.135   5.964   3.511  1.1492 -2.4687  1.6859
 1850SOL    HW3 7173   4.055   6.040   3.615 -0.0402  0.4545 -1.1846
 1850SOL    MW4 7174   4.131   6.009   3.585 -0.8544  0.1560  0.0273
 1851SOL     OW 7175   1.138   1.457   0.101 -0.5759 -0.0072 -0.3782
 1851SOL    HW2 7176   1.105   1.372   0.132 -1.6500  1.0133  1.4469
 1851SOL    HW3 7177   1.166   1.440   0.011  0.9994 -2.7362  0.5044
 1851SOL    MW4 7178   1.137   1.444   0.093 -0.7282  0.3531 -0.7381
 1852SOL     OW 7179   4.606   0.126   5.736 -0.1605  0.1101 -0.4345
 1852SOL    HW2 7180   4.563   0.075   5.805  1.3505  3.0856  3.0445
 1852SOL    HW3 7181   4.562   0.212   5.739  1.6540  1.1323 -1.4135
 1852SOL    MW4 7182   4.594   0.131   5.745 -0.8355  0.1634  0.1512
 1853SOL     OW 7183   4.502   1.789   0.642  0.8931  0.1505 -0.6117
 1853SOL    HW2 7184   4.444   1.852   0.598 -1.0743 -0.2595  1.2409
 1853SOL    HW3 7185   4.483   1.706   0.599 -1.1123 -0.2725  0.9659
 1853SOL    MW4 7186   4.492   1.786   0.630 -0.1846  0.3031 -0.0886
 1854SOL     OW 7187   4.628   2.857   5.731 -0.2173  0.0837 -0.0437
 1854SOL    HW2 7188   4.537   2.868   5.760  0.3767  1.2081  1.5552
 1854SOL    HW3 7189   4.652   2.770   5.763 -0.1868  0.5253  1.2116
 1854SOL    MW4 7190   4.619   2.847   5.739  0.2962  0.7314 -0.3853
 1855SOL     OW 7191   4.164   3.654   1.969 -0.0917 -0.5103  0.3250
 1855SOL    HW2 7192   4.121   3.726   1.924 -0.9485 -0.1870  1.6020
 1855SOL    HW3 7193   4.123   3.575   1.934  1.2391 -0.4505 -1.4825
 1855SOL    MW4 7194   4.153   3.653   1.959 -0.4840  0.7003 -0.4666
 1856SOL     OW 7195   1.147   5.337   4.272 -0.5151  0.1223 -0.3322
 1856SOL    HW2 7196   1.185   5.387   4.200  1.6709  2.3566  2.1821
 1856SOL    HW3 7197   1.069   5.387   4.297  1.4817  2.2763  1.9592
 1856SOL    MW4 7198   1.141   5.350   4.266  0.1367 -0.1177  0.0936
 1857SOL     OW 7199   0.510   0.492   4.740 -0.6109  0.4515 -0.4476
 1857SOL    HW2 7200   0.565   0.415   4.757 -0.9712  0.3232  0.1854
 1857SOL    HW3 7201   0.564   0.548   4.684  1.0926  1.3202  1.8657
 1857SOL    MW4 7202   0.525   0.489   4.735 -0.6268  0.0350 -0.0685
 1858SOL     OW 7203   5.672   6.328   3.956  0.3547 -0.1938  0.0198
 1858SOL    HW2 7204   5.666   6.372   3.871 -0.2262  0.7845  0.5522
 1858SOL    HW3 7205   5.726   6.387   4.009 -1.3352  0.4644  1.0844
 1858SOL    MW4 7206   5.679   6.341   3.952  0.2976  0.2070 -0.3170
 1859SOL     OW 7207   1.489   4.975   5.218 -0.2666 -0.6830 -0.0130
 1859SOL    HW2 7208   1.449   4.918   5.283  0.3394 -2.8378 -1.4371
 1859SOL    HW3 7209   1.433   4.968   5.141 -0.5151  1.1624 -0.0521
 1859SOL    MW4 7210   1.477   4.967   5.216  0.5866 -0.3348 -0.1686
 1860SOL     OW 7211   2.318   2.672   5.963 -0.0771 -0.0047  0.1548
 1860SOL    HW2 7212   2.331   2.683   6.057  2.0699 -0.3361 -0.0698
 1860SOL    HW3 7213   2.387   2.725   5.922 -1.5311  0.8917 -1.2836
 1860SOL    MW4 7214   2.328   2.681   5.970 -0.2536 -0.3385  0.6493
 1861SOL     OW 7215   2.230   5.582   5.804 -0.0506  0.2716  0.6370
 1861SOL    HW2 7216   2.178   5.653   5.767 -0.1149  0.3841  0.9444
 1861SOL    HW3 7217   2.262   5.616   5.887  2.2666  0.9891 -0.4797
 1861SOL    MW4 7218   2.227   5.595   5.810 -0.5460  0.3423  0.5421
 1862SOL     OW 7219   2.935   1.612   3.614  0.3164 -0.2984 -0.1458
 1862SOL    HW2 7220   2.940   1.587   3.522 -0.5144  0.2142 -0.3447
 1862SOL    HW3 7221   2.860   1.563   3.648 -1.7329  2.2139 -0.6923
 1862SOL    MW4 7222   2.925   1.602   3.606 -0.1018 -0.3583 -0.1980
 1863SOL     OW 7223   1.876   1.108   5.472 -0.4682  0.2949 -0.8765
 1863SOL    HW2 7224   1.941   1.053   5.515  0.1219 -1.1619 -3.4166
 1863SOL    HW3 7225   1.792   1.076   5.504 -0.0923  1.7305  1.8945
 1863SOL    MW4 7226   1.873   1.097   5.482  0.2087 -0.2648  0.1670
 1864SOL     OW 7227   5.993   3.662   2.654  0.4967 -0.3098  0.0483
 1864SOL    HW2 7228   5.920   3.614   2.616  0.7242 -1.7969  1.3549
 1864SOL    HW3 7229   5.957   3.700   2.734  0.9649 -0.4840  0.3489
 1864SOL    MW4 7230   5.979   3.660   2.660  0.2777  0.0868  0.1287
 1865SOL     OW 7231   0.339   1.692   4.236 -0.5766  0.4241  1.1479
 1865SOL    HW2 7232   0.383   1.646   4.165 -0.0757  0.8072  1.2027
 1865SOL    HW3 7233   0.329   1.782   4.204 -1.5364  0.2865  1.0431
 1865SOL    MW4 7234   0.344   1.698   4.223 -0.1108 -0.2359 -0.0467
 1866SOL     OW 7235   5.613   5.326   5.910  0.3255 -0.3658 -0.1155
 1866SOL    HW2 7236   5.572   5.247   5.943  1.7751 -0.8319  0.6827
 1866SOL    HW3 7237   5.611   5.316   5.814  2.8880 -2.7545 -0.0595
 1866SOL    MW4 7238   5.607   5.314   5.901  0.5055  0.1267 -0.5962
 1867SOL     OW 7239   3.651   6.212   3.036 -0.0305 -0.4353  0.3429
 1867SOL    HW2 7240   3.726   6.266   3.012 -1.7349  0.4092 -3.9137
 1867SOL    HW3 7241   3.612   6.257   3.111  2.4635  0.2097  1.3534
 1867SOL    MW4 7242   3.655   6.225   3.043 -0.6800 -0.5897  0.2770
 1868SOL     OW 7243   3.238   4.975   0.486  0.0267  0.1503 -0.4169
 1868SOL    HW2 7244   3.311   5.005   0.541  0.7776 -2.7643  0.3711
 1868SOL    HW3 7245   3.260   4.884   0.465 -2.1183  0.0076 -2.4236
 1868SOL    MW4 7246   3.251   4.967   0.490  0.0724 -0.0056 -0.1589
 1869SOL     OW 7247   2.944   3.592   0.791 -0.4190  0.5374 -0.0014
 1869SOL    HW2 7248   3.032   3.627   0.800  0.3154 -0.5738 -2.2328
 1869SOL    HW3 7249   2.909   3.634   0.713 -0.2446 -2.0335 -1.5927
 1869SOL    MW4 7250   2.951   3.602   0.782  0.2416  0.2203  0.6848
 1870SOL     OW 7251   4.668   5.190   0.489  0.5201  0.0359 -0.5968
 1870SOL    HW2 7252   4.745   5.225   0.443  0.7869 -1.3097 -1.2077
 1870SOL    HW3 7253   4.699   5.110   0.530 -0.6500 -0.7435 -1.1926
 1870SOL    MW4 7254   4.682   5.184   0.488 -0.6983  0.0844 -0.3540
 1871SOL     OW 7255   5.434   1.446   0.708 -0.6390  0.1437  0.4032
 1871SOL    HW2 7256   5.373   1.519   0.724 -0.3959  0.0775  1.6880
 1871SOL    HW3 7257   5.377   1.374   0.678 -0.9968  0.5479  0.0898
 1871SOL    MW4 7258   5.418   1.446   0.706  0.4253 -0.2401  0.2843
 1872SOL     OW 7259   5.710   5.524   1.248 -0.5196  0.3368 -0.5428
 1872SOL    HW2 7260   5.628   5.514   1.199  0.0005 -2.6429 -0.9763
 1872SOL    HW3 7261   5.775   5.546   1.180 -0.5782  0.5858 -0.5192
 1872SOL    MW4 7262   5.708   5.526   1.232 -0.3271 -0.5575  0.1079
 1873SOL     OW 7263   3.778   2.626   0.142 -0.0500 -0.5661 -0.3800
 1873SOL    HW2 7264   3.805   2.709   0.103  0.1093 -0.4002  0.0736
 1873SOL    HW3 7265   3.710   2.593   0.083 -0.7663  0.3242 -0.0790
 1873SOL    MW4 7266   3.772   2.633   0.129 -0.4909  0.0233  0.8174
 1874SOL     OW 7267   3.214   1.000   1.043 -0.2338 -0.5945  0.2215
 1874SOL    HW2 7268   3.279   0.951   1.094  1.3619  1.8538  0.7239
 1874SOL    HW3 7269   3.209   0.953   0.960  1.8401 -1.1870  0.3765
 1874SOL    MW4 7270   3.222   0.987   1.038  0.3490 -0.5618 -0.1578
 1875SOL     OW 7271   2.490   3.609   6.139  0.2297  0.0661 -0.0033
 1875SOL    HW2 7272   2.552   3.651   6.080 -0.4274  0.6307 -0.3170
 1875SOL    HW3 7273   2.423   3.571   6.081 -0.1703  0.2181  0.3497
 1875SOL    MW4 7274   2.489   3.610   6.124  0.4717  0.4660  0.0083
 1876SOL     OW 7275   0.673   2.738   2.171 -0.2980 -0.6126  0.3028
 1876SOL    HW2 7276   0.602   2.749   2.108  1.1039 -1.5668 -1.5422
 1876SOL    HW3 7277   0.689   2.643   2.172  1.1438 -0.3833  0.4384
 1876SOL    MW4 7278   0.665   2.727   2.163  0.3337 -0.1263  0.5460
 1877SOL     OW 7279   2.973   5.953   6.263  0.0045 -0.2402 -0.3561
 1877SOL    HW2 7280   2.980   5.878   6.322 -0.0760  0.9806  1.2715
 1877SOL    HW3 7281   2.880   5.976   6.264 -0.1751 -0.7957 -1.7715
 1877SOL    MW4 7282   2.962   5.946   6.271  0.0764 -0.4560 -0.1411
 1878SOL     OW 7283   4.548   5.545   2.973 -0.3558  0.4800  0.5251
 1878SOL    HW2 7284   4.502   5.467   2.940  1.5403  0.2746 -1.9404
 1878SOL    HW3 7285   4.619   5.509   3.026 -0.2721  0.5983  0.4920
 1878SOL    MW4 7286   4.551   5.530   2.976 -0.7010 -0.4159  0.4005
 1879SOL     OW 7287   0.700   1.121   4.449 -0.3175  0.2944  0.2891
 1879SOL    HW2 7288   0.785   1.107   4.408  0.2527  1.2023  1.0889
 1879SOL    HW3 7289   0.685   1.215   4.439 -0.7014  0.3288  1.0981
 1879SOL    MW4 7290   0.710   1.132   4.442 -0.3959  0.6318  0.1297
 1880SOL     OW 7291   3.546   6.181   4.906 -0.4030 -0.5851 -0.1489
 1880SOL    HW2 7292   3.592   6.264   4.917 -1.1311 -0.3221  1.1127
 1880SOL    HW3 7293   3.604   6.129   4.850  0.3881  0.5099 -0.3844
 1880SOL    MW4 7294   3.560   6.185   4.900  0.1924 -0.1378 -0.2804
 1881SOL     OW 7295   5.055   3.719   5.453  0.3768 -0.3003 -0.0912
 1881SOL    HW2 7296   5.064   3.734   5.359  1.2062 -0.8739 -0.1172
 1881SOL    HW3 7297   5.120   3.777   5.493 -0.4647  0.4671  0.1803
 1881SOL    MW4 7298   5.065   3.728   5.446 -0.8212 -0.1989 -0.3452
 1882SOL     OW 7299   1.932   4.055   1.143  0.5687 -0.2004 -0.3041
 1882SOL    HW2 7300   2.024   4.083   1.143  0.3347  0.6086  0.8042
 1882SOL    HW3 7301   1.900   4.081   1.056  1.3269 -0.3335 -0.6383
 1882SOL    MW4 7302   1.940   4.062   1.131 -0.1941  0.9159 -0.0966
 1883SOL     OW 7303   3.343   6.151   5.795 -0.4906 -0.0021  0.4119
 1883SOL    HW2 7304   3.309   6.188   5.713  0.7517 -3.4749 -1.9352
 1883SOL    HW3 7305   3.409   6.214   5.824 -1.7752  1.8999 -0.5300
 1883SOL    MW4 7306   3.347   6.164   5.788 -0.1988 -0.2622  0.9706
 1884SOL     OW 7307   5.019   5.138   1.146 -0.5602  0.3616  0.5785
 1884SOL    HW2 7308   5.086   5.144   1.078 -0.2076 -0.4740  0.8340
 1884SOL    HW3 7309   4.957   5.209   1.126 -1.0006 -0.4590 -1.1979
 1884SOL    MW4 7310   5.019   5.148   1.134  0.0339 -0.5268 -0.0276
 1885SOL     OW 7311   4.356   3.826   5.692  0.3854 -0.0140 -0.2551
 1885SOL    HW2 7312   4.441   3.854   5.726 -0.0419 -0.0681  0.8682
 1885SOL    HW3 7313   4.360   3.730   5.694 -0.1254 -0.0286  0.9233
 1885SOL    MW4 7314   4.368   3.817   5.697  0.1258  0.5625 -0.4204
 1886SOL     OW 7315   4.955   1.153   0.443 -0.2300 -0.1178  0.9021
 1886SOL    HW2 7316   5.034   1.101   0.459 -1.0170 -1.7479 -0.2625
 1886SOL    HW3 7317   4.975   1.202   0.363 -0.0704  0.1672  1.1154
 1886SOL    MW4 7318   4.968   1.152   0.435 -0.0724  0.2297  0.0466
 1887SOL     OW 7319   1.440   3.421   1.160  0.0833 -0.1980 -0.0093
 1887SOL    HW2 7320   1.440   3.486   1.230  1.6275  0.5813 -0.6835
 1887SOL    HW3 7321   1.362   3.442   1.108  0.9295  1.6517 -0.6347
 1887SOL    MW4 7322   1.430   3.433   1.162 -0.2488  0.3059  0.0871
 1888SOL     OW 7323   4.674   1.588   6.098 -0.7468  0.3166  0.1096
 1888SOL    HW2 7324   4.630   1.562   6.180 -1.3396 -0.8175 -0.5428
 1888SOL    HW3 7325   4.688   1.682   6.108  0.4822 -0.0144  2.1181
 1888SOL    MW4 7326   4.670   1.597   6.110 -0.4081 -0.5520  0.4394
 1889SOL     OW 7327   1.162   6.115   2.763 -0.0732  0.1527 -0.3066
 1889SOL    HW2 7328   1.244   6.147   2.801  0.2886 -0.5513 -0.4720
 1889SOL    HW3 7329   1.175   6.122   2.668 -0.3841  0.4718 -0.3280
 1889SOL    MW4 7330   1.175   6.120   2.755 -0.3446 -0.2316 -0.5867
 1890SOL     OW 7331   3.451   5.159   0.598  0.1884 -0.1294 -0.9844
 1890SOL    HW2 7332   3.439   5.222   0.669 -2.8763  0.8658 -2.2094
 1890SOL    HW3 7333   3.490   5.210   0.527  1.8477 -0.7738 -0.5988
 1890SOL    MW4 7334   3.455   5.174   0.598  1.2936 -0.1323  0.3052
 1891SOL     OW 7335   2.469   0.614   4.961 -0.0975  0.0132  0.5543
 1891SOL    HW2 7336   2.408   0.657   5.021 -0.2127 -0.2052  0.5934
 1891SOL    HW3 7337   2.545   0.594   5.016 -0.7863 -1.5276  1.0035
 1891SOL    MW4 7338   2.471   0.617   4.977  0.4150 -0.1498  0.3435
 1892SOL     OW 7339   4.898   2.410   3.778 -1.1842  0.3384 -0.7574
 1892SOL    HW2 7340   4.921   2.318   3.767  0.1852  0.3246  1.5642
 1892SOL    HW3 7341   4.922   2.451   3.695 -0.0079 -1.0778 -1.1533
 1892SOL    MW4 7342   4.904   2.403   3.766  0.2542 -0.2555 -0.0788
 1893SOL     OW 7343   1.878   0.219   1.792 -0.1215 -0.7901  0.6137
 1893SOL    HW2 7344   1.784   0.200   1.788  0.1092 -2.2331  1.2769
 1893SOL    HW3 7345   1.914   0.148   1.845  0.9799  1.1429  2.6208
 1893SOL    MW4 7346   1.871   0.207   1.798  0.4064 -0.6014  1.3163
 1894SOL     OW 7347   0.937   4.217   3.846  0.1814  0.2942 -0.2490
 1894SOL    HW2 7348   0.996   4.236   3.919  0.4937  0.5847 -0.5717
 1894SOL    HW3 7349   0.849   4.222   3.884  0.3789 -1.8629  0.6380
 1894SOL    MW4 7350   0.933   4.220   3.861 -0.2773 -0.1581 -0.3194
 1895SOL     OW 7351   2.578   0.606   5.790  0.8532 -0.0264 -0.0666
 1895SOL    HW2 7352   2.559   0.646   5.875  0.6751 -1.7029  0.7325
 1895SOL    HW3 7353   2.673   0.591   5.792  0.8448 -0.0875 -0.1624
 1895SOL    MW4 7354   2.588   0.609   5.801  0.1588 -0.1613  0.4553
 1896SOL     OW 7355   3.083   2.215   5.089  0.3381 -0.1585 -0.6957
 1896SOL    HW2 7356   3.132   2.202   5.007 -1.7980 -0.1570 -2.0472
 1896SOL    HW3 7357   2.991   2.209   5.063 -0.4570  1.5433  1.4279
 1896SOL    MW4 7358   3.078   2.212   5.075 -0.2098  0.3328 -0.7393
 1897SOL     OW 7359   4.288   6.335   5.714 -0.1829  0.0289 -0.2529
 1897SOL    HW2 7360   4.357   6.324   5.780 -0.6446  0.2598  0.2798
 1897SOL    HW3 7361   4.305   6.266   5.649  0.3876 -0.0827  0.0096
 1897SOL    MW4 7362   4.299   6.325   5.714 -0.6714  0.3911  0.1566
 1898SOL     OW 7363   3.989   3.393   4.105 -0.2202 -1.1959  0.0006
 1898SOL    HW2 7364   4.066   3.362   4.152  0.5348 -1.4569 -1.3665
 1898SOL    HW3 7365   3.950   3.314   4.067 -0.2731 -0.8873 -0.5986
 1898SOL    MW4 7366   3.994   3.379   4.106 -0.1928  0.8149  0.1852
 1899SOL     OW 7367   1.771   1.985   0.218 -0.0940 -0.1507  0.0312
 1899SOL    HW2 7368   1.742   1.974   0.128  0.1522  1.3642 -0.2548
 1899SOL    HW3 7369   1.802   1.898   0.244 -0.5019 -0.6915 -1.2093
 1899SOL    MW4 7370   1.771   1.972   0.210 -0.0699 -0.3719 -0.1544
 1900SOL     OW 7371   2.479   2.579   2.578  0.2634 -0.2491 -0.0954
 1900SOL    HW2 7372   2.470   2.595   2.484  1.4194  0.6380 -0.0897
 1900SOL    HW3 7373   2.424   2.503   2.596 -1.3806  0.6330 -1.1579
 1900SOL    MW4 7374   2.471   2.571   2.568 -0.7768 -0.5482  0.6245
 1901SOL     OW 7375   3.832   4.826   0.682  0.0011 -0.3693  0.7274
 1901SOL    HW2 7376   3.737   4.827   0.676 -0.1744 -0.5262  2.8808
 1901SOL    HW3 7377   3.856   4.918   0.698  0.2681 -0.2638 -0.2084
 1901SOL    MW4 7378   3.823   4.838   0.683  0.5932 -0.0702 -0.1014
 1902SOL     OW 7379   4.271   0.103   4.235  0.0481  0.7855  0.1832
 1902SOL    HW2 7380   4.316   0.140   4.310  0.3214  1.2854 -0.2176
 1902SOL    HW3 7381   4.325   0.028   4.208 -0.0467  0.6114  0.4785
 1902SOL    MW4 7382   4.284   0.098   4.241 -0.2248 -0.1323  0.1517
 1903SOL     OW 7383   2.305   0.401   4.839  0.6956  0.3470  0.2332
 1903SOL    HW2 7384   2.381   0.429   4.889  0.3261  1.1931  0.3478
 1903SOL    HW3 7385   2.262   0.336   4.895  1.1477  0.1159  0.3137
 1903SOL    MW4 7386   2.309   0.396   4.853  0.0488  0.1372 -0.3059
 1904SOL     OW 7387   6.402   5.831   5.626  0.5089  0.5503 -0.1529
 1904SOL    HW2 7388   6.427   5.744   5.658 -0.7238 -0.8925 -2.7176
 1904SOL    HW3 7389   6.479   5.863   5.579  0.0625 -0.5667 -1.7394
 1904SOL    MW4 7390   6.415   5.823   5.624 -0.3803 -0.4815 -0.6153
 1905SOL     OW 7391   0.104   6.367   1.829 -0.2193 -0.3870 -0.0284
 1905SOL    HW2 7392   0.159   6.351   1.906  1.3198  2.3113 -0.4353
 1905SOL    HW3 7393   0.057   6.448   1.850  3.0127  2.6282 -3.1314
 1905SOL    MW4 7394   0.105   6.376   1.842 -0.6391  0.6031 -0.2548
 1906SOL     OW 7395   2.449   3.276   1.629 -0.3665  0.1876 -0.3115
 1906SOL    HW2 7396   2.533   3.256   1.671 -0.4935  1.0756  0.4054
 1906SOL    HW3 7397   2.410   3.343   1.685 -1.8855 -0.7151 -0.2399
 1906SOL    MW4 7398   2.455   3.282   1.642  0.3498  0.1587 -0.0608
 1907SOL     OW 7399   4.488   0.947   4.770 -0.1636  0.6318 -0.7301
 1907SOL    HW2 7400   4.485   0.870   4.715 -0.3636 -0.3443  0.5917
 1907SOL    HW3 7401   4.426   0.928   4.841  2.3368  0.4484  1.5495
 1907SOL    MW4 7402   4.479   0.935   4.772 -0.4642  0.6473 -0.3228
 1908SOL     OW 7403   4.528   5.448   0.509  0.4685 -0.0317  0.6598
 1908SOL    HW2 7404   4.599   5.512   0.516  1.8095 -1.4689  0.6103
 1908SOL    HW3 7405   4.556   5.389   0.439 -0.9671 -0.4193  0.3804
 1908SOL    MW4 7406   4.541   5.449   0.501  0.5193  0.1584  0.0697
 1909SOL     OW 7407   5.440   5.967   0.627 -0.4569  0.3106 -0.3132
 1909SOL    HW2 7408   5.448   6.009   0.712  0.7611  0.9511 -0.7210
 1909SOL    HW3 7409   5.385   5.890   0.644  0.0885  0.1978  1.1379
 1909SOL    MW4 7410   5.434   5.962   0.640 -0.2442  0.3217 -0.1998
 1910SOL     OW 7411   4.051   1.083   0.204  0.0147 -1.4448  0.4686
 1910SOL    HW2 7412   4.074   1.163   0.251 -0.6978 -1.0801  0.2173
 1910SOL    HW3 7413   4.124   1.024   0.220  1.5288 -0.0920 -0.9554
 1910SOL    MW4 7414   4.063   1.086   0.212  0.3425 -0.1148  0.3601
 1911SOL     OW 7415   1.232   2.850   1.235  0.4521  0.2866 -0.0474
 1911SOL    HW2 7416   1.271   2.904   1.304  0.7772  0.1938 -0.1566
 1911SOL    HW3 7417   1.196   2.774   1.281 -1.0307  1.1372  0.2534
 1911SOL    MW4 7418   1.232   2.847   1.250  0.4145  1.4019  0.1210
 1912SOL     OW 7419   0.282   3.720   4.158 -0.4825  0.5454 -0.4409
 1912SOL    HW2 7420   0.300   3.771   4.236  0.5848 -1.1106  0.4619
 1912SOL    HW3 7421   0.366   3.713   4.113  0.0977 -2.4999  0.8370
 1912SOL    MW4 7422   0.295   3.726   4.162 -0.0590  0.3949 -0.2434
 1913SOL     OW 7423   0.824   1.030   1.628  0.5905  0.2242 -0.0617
 1913SOL    HW2 7424   0.733   1.014   1.655  0.6911 -0.0504  0.1204
 1913SOL    HW3 7425   0.821   1.025   1.532  0.0762  2.0544 -0.1668
 1913SOL    MW4 7426   0.811   1.027   1.619 -0.2427 -0.2182  0.1462
 1914SOL     OW 7427   5.639   2.123   0.507  0.1260 -0.4944 -0.0433
 1914SOL    HW2 7428   5.625   2.032   0.532 -1.9632 -0.2993 -0.3443
 1914SOL    HW3 7429   5.591   2.134   0.425  0.9216  0.7219 -0.3823
 1914SOL    MW4 7430   5.631   2.113   0.500  0.4355  0.0726  0.0209
 1915SOL     OW 7431   2.912   2.647   3.463  0.5397  0.6915 -0.0468
 1915SOL    HW2 7432   2.924   2.562   3.506  1.2752  0.5737 -0.4636
 1915SOL    HW3 7433   2.968   2.707   3.513  1.7033  0.4755 -1.0418
 1915SOL    MW4 7434   2.921   2.644   3.476 -0.8246  0.1145 -0.2785
 1916SOL     OW 7435   5.067   4.601   2.173  0.4558 -0.0454  0.0977
 1916SOL    HW2 7436   5.154   4.587   2.137  0.6280 -0.5852  0.7112
 1916SOL    HW3 7437   5.034   4.678   2.128  1.4353  0.4368  0.2028
 1916SOL    MW4 7438   5.074   4.609   2.162 -0.0656 -0.0793 -0.2785
 1917SOL     OW 7439   1.858   2.388   0.890  0.6242  0.2106  0.4573
 1917SOL    HW2 7440   1.765   2.375   0.873  0.7895 -0.1383 -0.2555
 1917SOL    HW3 7441   1.901   2.322   0.835  1.2908  0.4115  0.7323
 1917SOL    MW4 7442   1.851   2.377   0.880 -0.1082 -0.2455  0.3987
 1918SOL     OW 7443   1.317   5.644   4.533  0.5556 -0.4349 -0.1280
 1918SOL    HW2 7444   1.224   5.661   4.546  0.5364 -0.8992  0.3747
 1918SOL    HW3 7445   1.329   5.647   4.438  0.2455  0.7225 -0.1502
 1918SOL    MW4 7446   1.307   5.647   4.522  0.2029  0.1664 -0.0808
 1919SOL     OW 7447   2.816   0.926   5.363  0.6095 -0.2047  0.0359
 1919SOL    HW2 7448   2.794   0.992   5.297  0.8058 -2.0132 -1.9473
 1919SOL    HW3 7449   2.758   0.852   5.343 -0.7697 -0.1480  3.2140
 1919SOL    MW4 7450   2.805   0.925   5.351  0.0563 -0.5009  0.4082
 1920SOL     OW 7451   6.190   4.811   5.966  0.1232  0.1564  0.0024
 1920SOL    HW2 7452   6.103   4.800   6.006  0.4670 -2.9177  0.0970
 1920SOL    HW3 7453   6.171   4.842   5.877 -0.9866  0.5368  0.3455
 1920SOL    MW4 7454   6.176   4.814   5.960  0.9049 -0.5383 -0.0441
 1921SOL     OW 7455   5.480   2.463   1.657 -0.0161  0.4780 -0.1951
 1921SOL    HW2 7456   5.486   2.378   1.612  3.2393 -0.8664  2.3734
 1921SOL    HW3 7457   5.552   2.515   1.620 -0.6922  1.3565 -0.2975
 1921SOL    MW4 7458   5.490   2.458   1.646 -0.5671 -0.3185 -0.9541
 1922SOL     OW 7459   5.210   4.710   3.860 -0.1560 -0.2491  0.1601
 1922SOL    HW2 7460   5.260   4.781   3.820  0.5723 -0.6067  0.4262
 1922SOL    HW3 7461   5.129   4.705   3.808  1.7667 -2.3939 -3.0260
 1922SOL    MW4 7462   5.206   4.719   3.848  0.1349  0.7441 -0.0523
 1923SOL     OW 7463   4.796   0.784   1.945 -0.3438 -0.1241  0.0387
 1923SOL    HW2 7464   4.868   0.725   1.920 -0.0201  0.2359  0.1045
 1923SOL    HW3 7465   4.720   0.750   1.898 -0.0468 -0.2923 -0.3316
 1923SOL    MW4 7466   4.796   0.772   1.935 -0.0058 -0.3076 -0.2431
 1924SOL     OW 7467   0.609   5.052   3.826  0.1193 -0.3793 -0.3304
 1924SOL    HW2 7468   0.679   5.023   3.768  0.4563 -0.0164 -0.1107
 1924SOL    HW3 7469   0.655   5.093   3.900 -0.2671 -1.4706  0.5407
 1924SOL    MW4 7470   0.625   5.054   3.828  0.4254  0.4585 -0.0894
 1925SOL     OW 7471   2.710   3.546   1.531  0.4542 -0.1732  0.4808
 1925SOL    HW2 7472   2.700   3.462   1.486  1.4711  0.0644 -0.2357
 1925SOL    HW3 7473   2.719   3.523   1.623 -0.0934 -0.7899  0.3859
 1925SOL    MW4 7474   2.710   3.532   1.537  0.0921  0.1149  0.2500
 1926SOL     OW 7475   4.261   5.629   1.768 -0.3206 -0.4326  0.1808
 1926SOL    HW2 7476   4.289   5.650   1.679 -1.5336  1.2376  0.1353
 1926SOL    HW3 7477   4.332   5.660   1.824 -0.2346 -0.0604 -0.1310
 1926SOL    MW4 7478   4.274   5.636   1.764 -0.0215  0.0803 -0.4245
 1927SOL     OW 7479   4.303   3.274   0.477 -0.3887  0.4491 -1.0387
 1927SOL    HW2 7480   4.378   3.319   0.440 -0.1359 -1.0364 -2.4303
 1927SOL    HW3 7481   4.317   3.278   0.572  0.1459  2.2935 -1.1582
 1927SOL    MW4 7482   4.314   3.280   0.485 -0.2398 -0.0073  0.1728
 1928SOL     OW 7483   3.213   1.407   2.957 -0.0424 -0.1201 -0.1678
 1928SOL    HW2 7484   3.153   1.476   2.928 -0.5339 -0.4182  0.1277
 1928SOL    HW3 7485   3.166   1.325   2.940  0.0816 -0.3388  0.5106
 1928SOL    MW4 7486   3.199   1.405   2.951 -0.0292  0.0664  0.3032
 1929SOL     OW 7487   5.261   3.849   3.437  0.2706 -0.4466 -0.2775
 1929SOL    HW2 7488   5.242   3.775   3.494  1.0902 -0.3550  0.1377
 1929SOL    HW3 7489   5.190   3.911   3.453 -1.0006 -1.5565 -1.4066
 1929SOL    MW4 7490   5.249   3.847   3.447 -0.0236  0.1345  0.6305
 1930SOL     OW 7491   2.594   4.169   5.737  0.1039 -0.2844 -0.2622
 1930SOL    HW2 7492   2.658   4.102   5.763 -1.3541 -0.7150  2.5779
 1930SOL    HW3 7493   2.624   4.249   5.779 -0.5906 -0.2415  0.1747
 1930SOL    MW4 7494   2.606   4.170   5.746 -0.4461  0.2516 -0.6822
 1931SOL     OW 7495   2.067   3.729   1.453  0.1077  0.3574  0.6736
 1931SOL    HW2 7496   2.121   3.806   1.433  1.1581  0.1066  2.4082
 1931SOL    HW3 7497   2.129   3.656   1.454 -0.6623 -0.3142  0.4159
 1931SOL    MW4 7498   2.082   3.730   1.450  0.2005  0.1530 -0.3048
 1932SOL     OW 7499   1.170   0.924   3.322  0.3474  0.4734 -0.0869
 1932SOL    HW2 7500   1.217   0.897   3.243  0.5538  0.3385  0.0809
 1932SOL    HW3 7501   1.077   0.911   3.301  0.4108  0.2916 -0.2520
 1932SOL    MW4 7502   1.164   0.919   3.309 -0.3412  0.2640  0.2877
 1933SOL     OW 7503   6.401   3.742   4.356 -0.2485  0.2457  0.3010
 1933SOL    HW2 7504   6.363   3.822   4.321 -1.6818  0.6140  2.4547
 1933SOL    HW3 7505   6.333   3.675   4.341  0.2698 -0.2051 -0.0590
 1933SOL    MW4 7506   6.387   3.744   4.350  0.1026  0.7897  0.1047
 1934SOL     OW 7507   2.738   3.043   1.926  0.1516 -0.2606 -0.3968
 1934SOL    HW2 7508   2.721   3.067   2.017  2.0882  3.7548 -0.8707
 1934SOL    HW3 7509   2.826   3.005   1.927 -0.1596 -1.0112 -0.5403
 1934SOL    MW4 7510   2.747   3.041   1.938  0.6028  0.4306 -0.1646
 1935SOL     OW 7511   0.196   3.944   5.930  0.1811 -0.3066 -0.0482
 1935SOL    HW2 7512   0.290   3.926   5.923  0.4758  0.2586  1.7137
 1935SOL    HW3 7513   0.174   3.920   6.020 -0.7803  1.9334  0.3936
 1935SOL    MW4 7514   0.205   3.939   5.941 -0.0629  0.2632  0.1644
 1936SOL     OW 7515   4.163   5.121   3.523 -0.1160  0.0284 -0.3210
 1936SOL    HW2 7516   4.183   5.092   3.612  0.3128  0.6658 -0.1981
 1936SOL    HW3 7517   4.159   5.040   3.472  0.7083 -0.2833  0.0748
 1936SOL    MW4 7518   4.165   5.106   3.528 -0.4550  0.1270  0.2864
 1937SOL     OW 7519   1.930   4.687   3.643 -0.6646 -0.0568 -0.3268
 1937SOL    HW2 7520   1.891   4.772   3.624  1.1175  0.8356 -0.1853
 1937SOL    HW3 7521   1.913   4.672   3.736  0.4817  0.9968  0.0856
 1937SOL    MW4 7522   1.923   4.696   3.653 -0.0329 -0.2521 -0.2802
 1938SOL     OW 7523   1.560   1.061   4.244  0.0161 -0.1926 -0.6038
 1938SOL    HW2 7524   1.518   0.977   4.227  0.4837  0.0627 -3.5027
 1938SOL    HW3 7525   1.526   1.119   4.176  0.0435  1.8847  1.0473
 1938SOL    MW4 7526   1.550   1.058   4.233 -0.1897  0.2845  0.2817
 1939SOL     OW 7527   3.814   1.499   3.758  0.0428 -0.7114 -0.5623
 1939SOL    HW2 7528   3.781   1.588   3.745  1.2709  0.0785  1.2871
 1939SOL    HW3 7529   3.736   1.444   3.760 -0.9397  0.6626  0.5149
 1939SOL    MW4 7530   3.800   1.504   3.756 -0.1799 -0.1643  0.3216
 1940SOL     OW 7531   5.312   1.301   3.620 -0.1809  0.8375  0.0410
 1940SOL    HW2 7532   5.335   1.225   3.567 -1.3878  0.8351 -0.5009
 1940SOL    HW3 7533   5.377   1.367   3.596  1.1276 -0.1040  0.8058
 1940SOL    MW4 7534   5.324   1.300   3.610 -0.3552 -0.5715 -0.4980
 1941SOL     OW 7535   1.006   2.904   2.915 -0.2959  0.5201 -0.0631
 1941SOL    HW2 7536   0.910   2.900   2.913 -0.2709  0.1659 -2.0599
 1941SOL    HW3 7537   1.033   2.816   2.941 -0.4875  0.6839  0.7368
 1941SOL    MW4 7538   0.997   2.892   2.918 -0.6127 -0.4733 -0.4752
 1942SOL     OW 7539   1.219   0.469   3.374 -0.3732 -0.2302 -0.6169
 1942SOL    HW2 7540   1.233   0.552   3.419  1.1082 -1.4859  1.4402
 1942SOL    HW3 7541   1.138   0.435   3.411 -0.0652 -0.4837 -0.1756
 1942SOL    MW4 7542   1.210   0.475   3.385  0.3349 -0.0918  0.5157
 1943SOL     OW 7543   3.617   5.596   6.316  0.1133  0.4214  0.0346
 1943SOL    HW2 7544   3.566   5.675   6.297  1.6788  1.3804 -0.3874
 1943SOL    HW3 7545   3.697   5.607   6.265  0.4165 -1.4071  0.0629
 1943SOL    MW4 7546   3.621   5.608   6.307  0.3405  0.2866 -0.0815
 1944SOL     OW 7547   0.519   0.132   3.483 -0.3779 -0.6696 -0.6295
 1944SOL    HW2 7548   0.566   0.143   3.565 -2.9897 -0.8901  1.0061
 1944SOL    HW3 7549   0.485   0.042   3.486 -2.5657  0.0799 -0.7180
 1944SOL    MW4 7550   0.521   0.122   3.494 -0.0725  0.4048 -0.1046
 1945SOL     OW 7551   5.055   6.202   2.452  0.1318 -0.4606  0.6993
 1945SOL    HW2 7552   4.997   6.225   2.525 -0.2143  1.1613 -0.0336
 1945SOL    HW3 7553   5.021   6.119   2.419 -0.1716 -0.8227  1.9072
 1945SOL    MW4 7554   5.043   6.194   2.457  0.6739  0.3446 -0.1878
 1946SOL     OW 7555   2.937   3.006   5.099  0.7257 -0.4424 -0.6696
 1946SOL    HW2 7556   2.844   2.984   5.093 -0.0586  2.3475 -0.3248
 1946SOL    HW3 7557   2.981   2.922   5.111 -1.9502 -1.6873  1.4636
 1946SOL    MW4 7558   2.931   2.992   5.100 -0.0836 -0.4030 -0.0702
 1947SOL     OW 7559   2.570   5.488   4.632  0.3535  0.0279 -0.4482
 1947SOL    HW2 7560   2.552   5.420   4.698  0.5937 -1.1854 -1.5981
 1947SOL    HW3 7561   2.522   5.565   4.664 -0.6864 -0.9393  0.4207
 1947SOL    MW4 7562   2.561   5.489   4.645 -0.2931 -0.4475 -0.2495
 1948SOL     OW 7563   1.111   1.136   1.735  0.4767 -0.3287 -0.3173
 1948SOL    HW2 7564   1.040   1.112   1.795 -1.5808  4.3148 -0.4961
 1948SOL    HW3 7565   1.085   1.098   1.651 -2.2870  1.6892 -0.5177
 1948SOL    MW4 7566   1.098   1.128   1.732  0.0739 -0.2726  0.2179
 1949SOL     OW 7567   5.212   1.901   4.242  0.1873  0.3957 -0.1825
 1949SOL    HW2 7568   5.204   1.920   4.148 -0.7816 -1.5801 -0.5374
 1949SOL    HW3 7569   5.130   1.859   4.265  0.8338 -0.1016  1.3194
 1949SOL    MW4 7570   5.200   1.898   4.232  0.1497  0.1666  0.5132
 1950SOL     OW 7571   0.554   0.588   2.171  0.3995  0.2007  0.1505
 1950SOL    HW2 7572   0.466   0.608   2.204  0.8539  2.9593 -0.0886
 1950SOL    HW3 7573   0.540   0.555   2.083 -0.4570 -1.1574  0.7581
 1950SOL    MW4 7574   0.540   0.586   2.164  0.0101 -0.1137  0.2267
 1951SOL     OW 7575   5.329   4.936   1.272  0.3829  0.2363  0.2976
 1951SOL    HW2 7576   5.273   4.869   1.235  0.4596 -0.6060  1.6526
 1951SOL    HW3 7577   5.412   4.892   1.289  1.0769  1.1588 -0.5315
 1951SOL    MW4 7578   5.333   4.922   1.270  0.0430 -0.4520  0.0763
 1952SOL     OW 7579   5.875   4.118   4.961 -0.1703 -1.1002 -0.1474
 1952SOL    HW2 7580   5.953   4.090   5.009 -0.1701 -0.8578  0.0001
 1952SOL    HW3 7581   5.808   4.127   5.029  0.5581  2.0458  0.3427
 1952SOL    MW4 7582   5.877   4.116   4.977 -0.2895  0.6871  0.1636
 1953SOL     OW 7583   6.389   5.155   3.387 -0.3206 -0.6441  0.6271
 1953SOL    HW2 7584   6.472   5.149   3.435  0.6167 -1.8464 -1.0312
 1953SOL    HW3 7585   6.392   5.081   3.325 -0.5582  1.7983 -2.5833
 1953SOL    MW4 7586   6.400   5.144   3.385  0.0447  0.4122  0.1645
 1954SOL     OW 7587   4.086   0.499   4.682 -0.7617 -0.0395  0.4563
 1954SOL    HW2 7588   4.024   0.531   4.616 -1.4162  1.1231  1.6114
 1954SOL    HW3 7589   4.038   0.501   4.764  0.6874  0.4996  1.3282
 1954SOL    MW4 7590   4.072   0.503   4.684 -0.0639  0.4187 -0.2747
 1955SOL     OW 7591   3.220   1.829   0.727 -0.2886  0.2418  0.6891
 1955SOL    HW2 7592   3.166   1.861   0.799 -3.1442 -0.1098 -1.1241
 1955SOL    HW3 7593   3.193   1.881   0.651 -0.2507 -1.9314 -0.9370
 1955SOL    MW4 7594   3.209   1.840   0.726  0.2788 -0.7681 -0.3139
 1956SOL     OW 7595   2.306   2.223   4.841  0.2898  0.7865  0.1298
 1956SOL    HW2 7596   2.378   2.185   4.891  0.0161  0.7165  0.4757
 1956SOL    HW3 7597   2.298   2.169   4.763 -0.4901 -0.2425  0.9016
 1956SOL    MW4 7598   2.315   2.211   4.837 -0.0600 -0.3014 -0.1965
 1957SOL     OW 7599   6.325   0.070   6.277 -0.1296 -0.0776  0.8955
 1957SOL    HW2 7600   6.335   0.153   6.324 -1.4744 -0.1307  1.3191
 1957SOL    HW3 7601   6.334   0.093   6.185 -1.8688  0.7995  0.9114
 1957SOL    MW4 7602   6.327   0.084   6.271  0.2660 -0.1359 -0.3545
 1958SOL     OW 7603   3.540   4.784   3.627  0.3655 -0.0763 -0.1682
 1958SOL    HW2 7604   3.544   4.703   3.576 -0.1632 -1.4815  1.8981
 1958SOL    HW3 7605   3.547   4.756   3.718  3.0792  2.4346  0.5921
 1958SOL    MW4 7606   3.542   4.770   3.632 -0.0526 -0.0397  0.3841
 1959SOL     OW 7607   1.950   3.432   3.131  0.4652  0.1434  0.0128
 1959SOL    HW2 7608   2.010   3.358   3.139  1.3956  0.7933 -0.8478
 1959SOL    HW3 7609   1.958   3.477   3.215  2.9132  1.4874 -0.8517
 1959SOL    MW4 7610   1.959   3.428   3.143  0.4075 -0.3534  0.0019
 1960SOL     OW 7611   0.665   1.829   3.964 -0.0823 -0.3559 -0.2336
 1960SOL    HW2 7612   0.627   1.883   3.895 -1.2480  0.3003  0.8829
 1960SOL    HW3 7613   0.754   1.810   3.934 -0.2898  0.6032 -1.5183
 1960SOL    MW4 7614   0.672   1.833   3.951  0.4298 -0.5369  0.0821
 1961SOL     OW 7615   3.935   0.531   0.707 -0.5318 -0.0099 -0.0681
 1961SOL    HW2 7616   3.987   0.533   0.787  0.4263  0.8940 -0.6770
 1961SOL    HW3 7617   3.956   0.446   0.667 -0.3826 -0.1206  0.2403
 1961SOL    MW4 7618   3.945   0.520   0.712 -0.3967 -0.4681 -0.1849
 1962SOL     OW 7619   2.706   3.183   3.960  0.2688 -0.0502 -0.7250
 1962SOL    HW2 7620   2.727   3.108   3.904  1.2382  0.4189 -1.0203
 1962SOL    HW3 7621   2.767   3.251   3.932  0.3867  0.3835  0.5210
 1962SOL    MW4 7622   2.717   3.182   3.949 -0.4887  0.2524 -0.2676
 1963SOL     OW 7623   3.888   1.673   1.277  0.0490 -0.1686 -0.2666
 1963SOL    HW2 7624   3.932   1.600   1.321  2.4898  0.0967 -2.0418
 1963SOL    HW3 7625   3.830   1.710   1.343 -1.7732 -3.9788  0.5778
 1963SOL    MW4 7626   3.886   1.668   1.291 -0.4725  0.2464 -0.1676
 1964SOL     OW 7627   2.465   2.121   2.298 -0.1750 -0.4578 -0.1458
 1964SOL    HW2 7628   2.413   2.042   2.318 -1.7428  0.1657 -1.4500
 1964SOL    HW3 7629   2.519   2.095   2.223  0.2136 -0.6460  0.1992
 1964SOL    MW4 7630   2.465   2.107   2.291  0.0046 -0.2153 -0.1973
 1965SOL     OW 7631   1.106   5.156   2.194 -0.3427  0.1208 -0.1479
 1965SOL    HW2 7632   1.117   5.120   2.107  1.2899  2.1815 -0.8861
 1965SOL    HW3 7633   1.013   5.144   2.214 -0.8315 -0.1068 -2.3105
 1965SOL    MW4 7634   1.095   5.150   2.185 -0.1328 -0.1866 -0.3545
 1966SOL     OW 7635   2.174   0.569   0.390  0.2406  0.0130  0.0555
 1966SOL    HW2 7636   2.242   0.636   0.384 -1.7119  2.0628 -0.6547
 1966SOL    HW3 7637   2.127   0.589   0.470 -0.5893 -0.2950 -0.3390
 1966SOL    MW4 7638   2.177   0.580   0.399 -0.0376 -0.1365 -0.1651
 1967SOL     OW 7639   2.066   4.948   6.362  0.6929  0.9702  0.2917
 1967SOL    HW2 7640   1.976   4.915   6.353  0.8928  0.7915 -1.3792
 1967SOL    HW3 7641   2.059   5.018   6.426 -0.3099 -0.1875  1.5271
 1967SOL    MW4 7642   2.053   4.953   6.369 -0.5044  0.4719  0.4097
 1968SOL     OW 7643   4.260   5.824   3.780  0.3304  0.1308 -0.1966
 1968SOL    HW2 7644   4.240   5.897   3.722 -0.1925  0.5304  0.4670
 1968SOL    HW3 7645   4.300   5.758   3.723  0.9647  0.9921 -0.7759
 1968SOL    MW4 7646   4.263   5.825   3.765  0.1874  0.5838 -0.1916
 1969SOL     OW 7647   2.929   3.338   4.351  0.2723  0.4175 -0.4312
 1969SOL    HW2 7648   2.874   3.295   4.286 -0.9042  1.3864 -0.1238
 1969SOL    HW3 7649   2.950   3.423   4.313  1.5533  0.0740 -0.5239
 1969SOL    MW4 7650   2.924   3.344   4.338 -0.1582 -0.1463 -0.2740
 1970SOL     OW 7651   2.715   1.993   0.787 -0.3011  0.2394  0.0704
 1970SOL    HW2 7652   2.709   1.973   0.693  0.9365  1.5524 -0.3292
 1970SOL    HW3 7653   2.693   1.910   0.830 -0.3207 -0.5567 -1.3841
 1970SOL    MW4 7654   2.712   1.979   0.780 -0.2149  0.6187  0.0500
 1971SOL     OW 7655   1.316   0.371   3.614  0.1260 -0.6916 -0.1648
 1971SOL    HW2 7656   1.230   0.359   3.654 -0.0988 -3.0089 -1.1660
 1971SOL    HW3 7657   1.305   0.446   3.555 -1.3907 -1.2867 -0.6777
 1971SOL    MW4 7658   1.303   0.380   3.611  0.3555  0.0337 -0.3626
 1972SOL     OW 7659   4.981   1.005   1.942 -0.4663 -0.3048  0.3146
 1972SOL    HW2 7660   4.948   1.087   1.905 -0.7652 -0.4033  0.3564
 1972SOL    HW3 7661   4.920   0.939   1.910 -0.8784 -0.3578  1.1774
 1972SOL    MW4 7662   4.968   1.007   1.933  0.2604 -0.0768  0.1151
 1973SOL     OW 7663   5.730   4.952   4.033 -0.1978 -0.0802  0.7612
 1973SOL    HW2 7664   5.752   4.990   4.119 -0.8588 -3.1063  2.3972
 1973SOL    HW3 7665   5.813   4.919   3.999  0.0746  1.1723  0.1586
 1973SOL    MW4 7666   5.744   4.953   4.040  0.3759  0.2386  0.6357
 1974SOL     OW 7667   2.656   3.146   2.186  0.4574  0.2391 -0.5418
 1974SOL    HW2 7668   2.604   3.163   2.265  1.5498  0.0729  0.2359
 1974SOL    HW3 7669   2.746   3.145   2.217  0.9442  0.6687 -1.8925
 1974SOL    MW4 7670   2.661   3.148   2.201 -0.4114 -0.0794 -0.0633
 1975SOL     OW 7671   5.128   0.368   6.357  0.2461  0.5470  0.2759
 1975SOL    HW2 7672   5.118   0.413   6.273  0.0976  0.3884  0.2089
 1975SOL    HW3 7673   5.153   0.278   6.333 -0.7329  0.2434  0.3783
 1975SOL    MW4 7674   5.130   0.362   6.343 -0.0273  0.0612 -0.0744
 1976SOL     OW 7675   5.960   3.739   4.634  0.4492  0.3334  0.0694
 1976SOL    HW2 7676   5.874   3.700   4.615  1.3457 -0.6615 -2.4454
 1976SOL    HW3 7677   6.009   3.668   4.677  0.4486  0.4502  0.2640
 1976SOL    MW4 7678   5.955   3.724   4.637 -0.0522 -0.3414  0.2308
 1977SOL     OW 7679   1.330   5.715   6.041  0.5646 -0.0593  0.4360
 1977SOL    HW2 7680   1.389   5.774   6.088 -0.1629  0.9707  0.0654
 1977SOL    HW3 7681   1.270   5.772   5.993  0.5693 -1.0782 -0.8673
 1977SOL    MW4 7682   1.330   5.730   6.041 -0.7501 -0.6164  0.2411
 1978SOL     OW 7683   4.516   2.499   2.492  0.0650  0.1431  0.0953
 1978SOL    HW2 7684   4.422   2.519   2.495 -0.1055 -0.3384 -1.2480
 1978SOL    HW3 7685   4.543   2.527   2.404  1.1872  0.2682  0.4694
 1978SOL    MW4 7686   4.507   2.506   2.481  0.2590  0.7665  0.1441
 1979SOL     OW 7687   3.191   6.300   4.584  0.5479 -0.5973 -0.5589
 1979SOL    HW2 7688   3.232   6.267   4.664  0.4877 -0.0735 -0.3053
 1979SOL    HW3 7689   3.180   6.222   4.528  1.8073 -0.7520 -0.6066
 1979SOL    MW4 7690   3.195   6.285   4.587 -0.6246  0.5075  0.3551
 1980SOL     OW 7691   0.884   2.736   4.488  0.2564  0.0844 -0.6053
 1980SOL    HW2 7692   0.870   2.709   4.579 -1.7945  0.9796 -0.5816
 1980SOL    HW3 7693   0.935   2.817   4.494 -1.3813  1.1377 -0.0731
 1980SOL    MW4 7694   0.889   2.743   4.501  0.4467 -0.0857  0.2971
 1981SOL     OW 7695   4.405   5.845   3.261  0.3214  0.6519  0.1959
 1981SOL    HW2 7696   4.464   5.878   3.192  1.8799 -1.5737  0.3368
 1981SOL    HW3 7697   4.376   5.760   3.228  1.0997 -0.4652  2.2257
 1981SOL    MW4 7698   4.409   5.839   3.247 -0.5474 -0.2114 -0.1286
 1982SOL     OW 7699   1.415   0.579   2.782 -0.5076  0.1342 -0.3469
 1982SOL    HW2 7700   1.467   0.651   2.745 -1.0921  1.6574  1.5559
 1982SOL    HW3 7701   1.326   0.614   2.786 -0.6958 -0.4274  1.1772
 1982SOL    MW4 7702   1.410   0.593   2.778 -0.3163 -0.9825 -0.6808
 1983SOL     OW 7703   1.073   4.278   1.341 -0.3593 -0.1474 -0.4813
 1983SOL    HW2 7704   1.165   4.304   1.342 -0.1656 -0.8108 -0.7509
 1983SOL    HW3 7705   1.027   4.353   1.304 -0.0860  0.6783  0.8135
 1983SOL    MW4 7706   1.079   4.291   1.336  0.1982  0.1884  0.0707
 1984SOL     OW 7707   2.603   5.286   2.050  0.5825  0.3741 -0.8866
 1984SOL    HW2 7708   2.670   5.241   1.999  1.2032  1.8822 -1.4504
 1984SOL    HW3 7709   2.603   5.376   2.017 -0.7152  0.7762  0.1005
 1984SOL    MW4 7710   2.612   5.292   2.039 -0.4059 -0.6565 -0.4710
 1985SOL     OW 7711   1.771   6.101   4.800  0.4487 -0.4296  0.0305
 1985SOL    HW2 7712   1.779   6.139   4.888  0.6753 -0.4178  0.0043
 1985SOL    HW3 7713   1.796   6.172   4.741  1.2131 -0.7238 -0.0050
 1985SOL    MW4 7714   1.775   6.116   4.804  0.1318  0.0626 -0.2507
 1986SOL     OW 7715   0.347   3.468   1.889 -0.4094 -0.0510  0.0752
 1986SOL    HW2 7716   0.385   3.477   1.977  2.3323 -1.3660 -0.8580
 1986SOL    HW3 7717   0.274   3.407   1.901 -0.9308  0.7997  1.5961
 1986SOL    MW4 7718   0.342   3.461   1.902 -0.1945  0.2906 -0.4209
 1987SOL     OW 7719   2.184   1.764   0.959 -0.2624  0.1748  0.3233
 1987SOL    HW2 7720   2.166   1.677   0.995  0.8989 -1.1765 -2.1141
 1987SOL    HW3 7721   2.107   1.785   0.907 -1.1869  1.3391  2.0813
 1987SOL    MW4 7722   2.171   1.755   0.957 -0.4647 -0.2189 -0.2111
 1988SOL     OW 7723   1.803   3.127   2.568  0.4063 -0.0765 -0.4826
 1988SOL    HW2 7724   1.829   3.050   2.619  2.1977  0.2749 -0.7899
 1988SOL    HW3 7725   1.858   3.198   2.601  0.9452  0.3799 -2.2228
 1988SOL    MW4 7726   1.814   3.126   2.579 -0.5012 -0.2742  0.1182
 1989SOL     OW 7727   3.541   6.287   2.357 -0.0299  0.1215  0.0624
 1989SOL    HW2 7728   3.458   6.250   2.387  0.8634 -0.1329  2.4285
 1989SOL    HW3 7729   3.607   6.224   2.386  1.0146  0.2103 -1.9633
 1989SOL    MW4 7730   3.538   6.274   2.365 -0.5566  0.1060 -0.5717
 1990SOL     OW 7731   2.572   1.582   0.567  0.4253 -0.0285  0.0641
 1990SOL    HW2 7732   2.551   1.494   0.600  0.7811 -0.2296 -0.2315
 1990SOL    HW3 7733   2.514   1.640   0.616  0.3689 -0.4023  0.4531
 1990SOL    MW4 7734   2.562   1.578   0.578  0.5303  0.1636 -0.1715
 1991SOL     OW 7735   2.755   1.959   3.639  0.1118  0.1224 -0.6434
 1991SOL    HW2 7736   2.750   1.871   3.601 -0.8765  0.6103 -1.7005
 1991SOL    HW3 7737   2.829   1.955   3.700 -1.7322 -2.3464  1.6721
 1991SOL    MW4 7738   2.764   1.947   3.642  0.3199 -0.2343 -0.1929
 1992SOL     OW 7739   1.221   5.971   4.378  0.2280 -0.4003 -0.4188
 1992SOL    HW2 7740   1.168   6.041   4.341  2.5352  0.1834 -2.8938
 1992SOL    HW3 7741   1.186   5.891   4.340 -0.2813 -0.2627 -0.2442
 1992SOL    MW4 7742   1.209   5.969   4.368 -0.3069  0.0610  0.3196
 1993SOL     OW 7743   4.296   5.201   5.627 -0.3352  0.1424  0.1107
 1993SOL    HW2 7744   4.254   5.211   5.712 -0.8095 -1.0105  0.0282
 1993SOL    HW3 7745   4.223   5.192   5.565  0.0040  0.8342 -0.4138
 1993SOL    MW4 7746   4.281   5.202   5.630 -0.2277  0.1070  0.2492
 1994SOL     OW 7747   1.967   4.221   0.531  0.4836  0.7887 -0.0520
 1994SOL    HW2 7748   1.877   4.234   0.503  1.1179  0.1120 -2.7636
 1994SOL    HW3 7749   1.979   4.126   0.531  1.1340  0.8575  0.5086
 1994SOL    MW4 7750   1.957   4.210   0.527 -0.0146  0.2283 -0.7177
 1995SOL     OW 7751   4.056   3.075   4.272  0.4081  0.1623  0.4289
 1995SOL    HW2 7752   4.086   3.008   4.210 -0.6890 -1.2212  1.3140
 1995SOL    HW3 7753   4.126   3.139   4.274  0.8484 -0.1848 -1.5838
 1995SOL    MW4 7754   4.069   3.075   4.264  0.4199  0.5935 -0.1432
 1996SOL     OW 7755   3.991   5.875   6.311 -0.1813  0.2055  0.0519
 1996SOL    HW2 7756   4.068   5.820   6.325 -0.3103 -0.2374 -0.8887
 1996SOL    HW3 7757   4.021   5.964   6.330  0.2239 -0.0972  0.8834
 1996SOL    MW4 7758   4.005   5.880   6.315 -0.0594  0.1070  0.2466
 1997SOL     OW 7759   0.908   4.626   3.396  0.1626 -0.2667 -0.5020
 1997SOL    HW2 7760   0.999   4.650   3.379  0.6187 -0.7068  1.1213
 1997SOL    HW3 7761   0.887   4.561   3.329  0.5876  0.7668 -1.6927
 1997SOL    MW4 7762   0.917   4.621   3.385  0.2233 -0.2500 -0.5373
 1998SOL     OW 7763   4.006   0.214   0.993  0.7352 -0.0963  0.0817
 1998SOL    HW2 7764   4.031   0.124   0.971  1.5159  0.6279 -2.3401
 1998SOL    HW3 7765   4.064   0.239   1.065 -0.7693 -2.0834  2.0990
 1998SOL    MW4 7766   4.017   0.206   0.999  0.3491  0.1717  0.1867
 1999SOL     OW 7767   4.007   5.383   2.414 -0.0338 -0.3060  0.2579
 1999SOL    HW2 7768   3.960   5.301   2.396  0.0570 -0.3934  0.4244
 1999SOL    HW3 7769   4.071   5.389   2.343 -1.3909  0.6595 -0.9699
 1999SOL    MW4 7770   4.009   5.373   2.402  0.1615 -0.1289  0.0375
 2000SOL     OW 7771   6.313   3.130   3.704  0.3655 -0.0381 -0.5904
 2000SOL    HW2 7772   6.382   3.128   3.770 -0.3541  1.1889  0.2358
 2000SOL    HW3 7773   6.338   3.063   3.641  1.4771 -0.7021  0.5214
 2000SOL    MW4 7774   6.325   3.121   3.704  0.0189  0.1191  0.5720
 2001SOL     OW 7775   3.356   3.405   1.508 -0.2406  0.4101 -0.3705
 2001SOL    HW2 7776   3.418   3.391   1.436 -2.4194  0.9102 -2.5185
 2001SOL    HW3 7777   3.386   3.486   1.550 -0.2594  1.5215 -2.3659
 2001SOL    MW4 7778   3.368   3.414   1.504  0.3525  0.5223 -0.0184
 2002SOL     OW 7779   2.933   3.739   0.523 -0.1922 -0.4100  0.2958
 2002SOL    HW2 7780   2.942   3.649   0.491  0.9924 -0.3867  0.5339
 2002SOL    HW3 7781   2.854   3.771   0.480 -0.5900 -1.5343  0.1440
 2002SOL    MW4 7782   2.924   3.731   0.513 -0.3230 -0.6350 -0.1281
 2003SOL     OW 7783   1.892   1.959   2.861 -0.0140 -0.1892 -0.4006
 2003SOL    HW2 7784   1.978   1.999   2.844 -0.4147  0.9250  0.0614
 2003SOL    HW3 7785   1.860   1.933   2.774 -0.0193  1.1470 -0.8317
 2003SOL    MW4 7786   1.899   1.961   2.847 -0.3023 -0.0917 -0.3291
 2004SOL     OW 7787   3.773   1.221   4.971 -0.6559 -0.2915  0.0626
 2004SOL    HW2 7788   3.690   1.259   4.999 -1.4382 -1.5610 -0.4622
 2004SOL    HW3 7789   3.840   1.282   5.004 -1.8214  1.3695 -0.4986
 2004SOL    MW4 7790   3.771   1.234   4.979  0.2394  0.3749  0.0586
 2005SOL     OW 7791   1.443   4.096   4.267 -0.0070 -0.4677 -0.4646
 2005SOL    HW2 7792   1.537   4.076   4.260  0.1554  0.6789 -1.9923
 2005SOL    HW3 7793   1.409   4.029   4.326  1.6311 -1.3908 -0.5073
 2005SOL    MW4 7794   1.451   4.085   4.274 -0.1163 -0.1656 -0.1046
 2006SOL     OW 7795   2.691   3.374   4.493  0.6293  0.5242 -0.5353
 2006SOL    HW2 7796   2.657   3.285   4.482  0.7756  0.0276  2.2599
 2006SOL    HW3 7797   2.771   3.377   4.442  0.2185 -0.7032 -1.2714
 2006SOL    MW4 7798   2.697   3.363   4.485  0.3289 -0.4281 -0.3824
 2007SOL     OW 7799   3.544   4.296   6.399  0.2594  0.6894 -0.4777
 2007SOL    HW2 7800   3.570   4.369   6.342 -1.0606  1.6806  0.1368
 2007SOL    HW3 7801   3.478   4.249   6.349 -0.2596  1.0428 -0.1368
 2007SOL    MW4 7802   3.539   4.300   6.385  0.3963  0.0642  0.2931
 2008SOL     OW 7803   3.016   0.699   3.066 -0.1943  0.4831  0.9282
 2008SOL    HW2 7804   3.048   0.719   3.154 -0.5381 -0.7989  1.3612
 2008SOL    HW3 7805   3.051   0.612   3.046  0.4962  1.0507 -0.5158
 2008SOL    MW4 7806   3.025   0.690   3.075 -0.3314  0.5758  0.5817
 2009SOL     OW 7807   4.754   4.058   2.940  0.3361  0.2012 -0.5049
 2009SOL    HW2 7808   4.700   3.988   2.976  2.8857 -2.2810 -1.2143
 2009SOL    HW3 7809   4.776   4.112   3.016 -2.8140  1.2339 -0.1608
 2009SOL    MW4 7810   4.749   4.056   2.955  0.3448  0.2857  0.2758
 2010SOL     OW 7811   0.732   4.836   3.346  0.0361  0.5718  0.6141
 2010SOL    HW2 7812   0.815   4.789   3.346 -0.4626 -0.3256  0.1349
 2010SOL    HW3 7813   0.744   4.905   3.281  0.9631  1.5082  1.7201
 2010SOL    MW4 7814   0.744   4.839   3.338  0.1705  0.4383 -0.1912
 2011SOL     OW 7815   3.828   1.900   4.365  0.3533 -0.3671  0.0349
 2011SOL    HW2 7816   3.781   1.842   4.424  0.9067 -1.0272 -0.1524
 2011SOL    HW3 7817   3.822   1.987   4.405  1.4533 -0.9441  1.4992
 2011SOL    MW4 7818   3.821   1.904   4.378  0.3460 -0.5185 -0.2746
 2012SOL     OW 7819   1.219   3.410   4.057  0.0132  0.3323  0.2654
 2012SOL    HW2 7820   1.146   3.466   4.031 -0.4237 -0.2904  0.1280
 2012SOL    HW3 7821   1.177   3.333   4.097  0.4989 -0.9762 -1.6279
 2012SOL    MW4 7822   1.204   3.407   4.059  0.3591  0.0861  0.8444
 2013SOL     OW 7823   0.219   1.042   0.697 -0.0654 -0.4054 -0.6769
 2013SOL    HW2 7824   0.285   1.026   0.765 -0.5200 -0.8087 -0.3275
 2013SOL    HW3 7825   0.159   0.968   0.703 -0.0384 -0.5207 -1.6159
 2013SOL    MW4 7826   0.220   1.031   0.706 -0.0742  0.1117 -0.0082
 2014SOL     OW 7827   5.156   3.958   4.960 -0.1538  0.1611  0.6151
 2014SOL    HW2 7828   5.136   3.924   5.047  0.5132  1.3837  1.2733
 2014SOL    HW3 7829   5.249   3.980   4.963 -0.6895  2.7233  0.5001
 2014SOL    MW4 7830   5.166   3.956   4.972  0.1768 -0.3082  0.1574
 2015SOL     OW 7831   3.642   3.648   3.937 -0.4153  0.0876 -0.1662
 2015SOL    HW2 7832   3.608   3.696   3.862  1.5234  0.8861 -0.5953
 2015SOL    HW3 7833   3.730   3.621   3.911  0.0398 -0.2364  1.5539
 2015SOL    MW4 7834   3.650   3.651   3.924 -0.2209 -0.1102  0.5195
 2016SOL     OW 7835   2.861   5.565   3.126  0.4041 -0.4932 -0.4189
 2016SOL    HW2 7836   2.827   5.642   3.172 -0.0168 -0.4399 -0.8047
 2016SOL    HW3 7837   2.948   5.552   3.162 -0.4549 -1.3740  1.4856
 2016SOL    MW4 7838   2.868   5.574   3.136 -0.2815 -0.6986 -0.3955
 2017SOL     OW 7839   6.069   0.190   0.188  0.0012  0.4545  0.7424
 2017SOL    HW2 7840   6.155   0.225   0.211 -0.2069  0.9474  0.7917
 2017SOL    HW3 7841   6.087   0.104   0.150  0.7279  1.4623 -1.3741
 2017SOL    MW4 7842   6.082   0.183   0.186 -0.7253 -0.1709  0.6568
 2018SOL     OW 7843   0.274   0.691   5.928 -0.0853  0.0560  0.9054
 2018SOL    HW2 7844   0.189   0.668   5.964  0.0968  0.8017  1.8726
 2018SOL    HW3 7845   0.269   0.786   5.912  0.7045  0.1974  1.4211
 2018SOL    MW4 7846   0.262   0.701   5.931 -0.3553  0.2747 -0.3686
 2019SOL     OW 7847   0.141   4.184   0.676 -0.3022 -0.1281 -0.4855
 2019SOL    HW2 7848   0.131   4.274   0.708 -1.8616 -0.5428  0.3126
 2019SOL    HW3 7849   0.117   4.189   0.583 -2.4847 -0.0118  0.0153
 2019SOL    MW4 7850   0.136   4.197   0.668 -0.6078 -0.0583 -1.0684
 2020SOL     OW 7851   2.211   5.277   6.116 -0.0728  0.5517 -0.0994
 2020SOL    HW2 7852   2.201   5.315   6.029  0.0282  1.0835  0.1117
 2020SOL    HW3 7853   2.123   5.282   6.154 -0.6384 -1.7714 -0.9741
 2020SOL    MW4 7854   2.198   5.283   6.110 -0.2614  0.0999  0.6332
 2021SOL     OW 7855   1.953   5.511   6.389 -0.1820  0.1728 -0.0075
 2021SOL    HW2 7856   1.863   5.539   6.371 -0.2109  0.1791  0.1447
 2021SOL    HW3 7857   1.995   5.589   6.427 -0.2820 -0.0051  0.4818
 2021SOL    MW4 7858   1.947   5.525   6.392  0.1438 -0.2979  0.0194
 2022SOL     OW 7859   3.829   5.895   0.915 -0.0227  0.4926  0.0263
 2022SOL    HW2 7860   3.809   5.909   1.008 -0.6014  1.3832 -0.2264
 2022SOL    HW3 7861   3.766   5.949   0.868 -1.4770 -1.9443 -0.9963
 2022SOL    MW4 7862   3.818   5.904   0.921  0.3279 -0.7093 -0.3651
 2023SOL     OW 7863   3.188   2.646   6.330  0.2970  0.8122 -0.3342
 2023SOL    HW2 7864   3.116   2.710   6.331  0.3413  0.9971 -2.8435
 2023SOL    HW3 7865   3.208   2.634   6.237  2.7999 -0.0557  0.2397
 2023SOL    MW4 7866   3.181   2.653   6.318 -0.2914 -0.4414  0.6707
 2024SOL     OW 7867   6.005   5.111   5.932 -0.1528  0.3164  0.0000
 2024SOL    HW2 7868   6.063   5.176   5.971  0.0571 -0.8679  1.7496
 2024SOL    HW3 7869   6.062   5.056   5.879 -0.1184  0.7319 -0.4004
 2024SOL    MW4 7870   6.020   5.112   5.930  0.0325  0.1510 -0.2944
 2025SOL     OW 7871   1.558   1.917   3.298  0.1778  0.9860 -0.3020
 2025SOL    HW2 7872   1.605   2.000   3.294  2.1900 -0.0021  1.1019
 2025SOL    HW3 7873   1.625   1.850   3.284 -1.0293 -0.4703  0.4736
 2025SOL    MW4 7874   1.573   1.919   3.296 -0.0042 -0.7593 -0.4268
 2026SOL     OW 7875   6.202   5.895   1.091 -0.6042 -0.4201  0.1522
 2026SOL    HW2 7876   6.231   5.961   1.154  0.0549 -0.8099  0.2687
 2026SOL    HW3 7877   6.128   5.852   1.134 -1.5497  0.7483 -0.2527
 2026SOL    MW4 7878   6.196   5.898   1.105 -0.1634 -0.2270  0.1263
 2027SOL     OW 7879   5.218   5.093   4.302  0.0026 -0.4992 -0.0122
 2027SOL    HW2 7880   5.279   5.041   4.250 -0.5933 -0.8887 -0.3332
 2027SOL    HW3 7881   5.258   5.180   4.305  1.2598 -1.0722  0.9471
 2027SOL    MW4 7882   5.232   5.098   4.295  0.0118 -0.2630 -0.5424
 2028SOL     OW 7883   2.112   5.715   0.787 -0.3836 -0.2891  0.1022
 2028SOL    HW2 7884   2.036   5.675   0.746 -0.2772  0.8772 -1.3114
 2028SOL    HW3 7885   2.185   5.659   0.762 -0.4038  0.0933 -0.8699
 2028SOL    MW4 7886   2.112   5.702   0.778 -0.4484  0.1394  0.2351
 2029SOL     OW 7887   4.035  -0.000   4.000  0.3249  0.0284 -0.2776
 2029SOL    HW2 7888   4.064   0.016   4.090  3.3422 -2.2596 -0.6706
 2029SOL    HW3 7889   3.940   0.003   4.005  0.3757  3.4226  2.2143
 2029SOL    MW4 7890   4.027   0.003   4.012  0.6540  0.2893 -0.3470
 2030SOL     OW 7891   4.007   0.846   1.062  0.4295 -0.6101  0.0133
 2030SOL    HW2 7892   4.004   0.880   1.152 -1.2324  1.7000 -0.7997
 2030SOL    HW3 7893   3.921   0.806   1.048  0.5337 -0.6258 -0.6380
 2030SOL    MW4 7894   3.995   0.845   1.072  0.1073 -0.2201 -0.0158
 2031SOL     OW 7895   3.343   0.489   4.110 -0.2411 -0.2725 -0.7944
 2031SOL    HW2 7896   3.347   0.579   4.075  0.5533  0.1762  0.3957
 2031SOL    HW3 7897   3.313   0.500   4.200  0.4929 -1.1349 -0.4335
 2031SOL    MW4 7898   3.340   0.502   4.117  0.0653 -0.2033 -0.4219
 2032SOL     OW 7899   3.859   0.993   5.623  0.1163 -0.4736 -0.0868
 2032SOL    HW2 7900   3.861   1.072   5.677  0.3372 -1.7961  1.9299
 2032SOL    HW3 7901   3.951   0.975   5.602  0.0845 -0.3403 -0.3493
 2032SOL    MW4 7902   3.872   1.001   5.627 -0.2444  0.0992  0.0667
 2033SOL     OW 7903   0.992   3.250   2.701  0.8680  0.1879 -0.1199
 2033SOL    HW2 7904   0.924   3.183   2.712  0.4192  0.4993 -0.9353
 2033SOL    HW3 7905   1.053   3.212   2.638  1.3769 -0.0161  0.4771
 2033SOL    MW4 7906   0.991   3.236   2.694  0.3114  0.5634  0.6719
 2034SOL     OW 7907   5.962   1.479   5.472 -0.1994  0.2635 -0.5923
 2034SOL    HW2 7908   6.021   1.550   5.496 -0.9212  0.1087  1.9362
 2034SOL    HW3 7909   5.876   1.507   5.504 -1.0320 -0.5762 -1.9914
 2034SOL    MW4 7910   5.958   1.492   5.480 -0.2946 -0.3208 -0.3697
 2035SOL     OW 7911   4.656   1.349   3.495 -0.9568  0.1102 -0.2052
 2035SOL    HW2 7912   4.743   1.343   3.456  0.4778 -0.1423  2.7419
 2035SOL    HW3 7913   4.621   1.260   3.490 -1.0462  0.2004 -1.3614
 2035SOL    MW4 7914   4.663   1.336   3.489  0.2218  0.2362  0.2605
 2036SOL     OW 7915   1.586   3.161   2.408 -0.6017 -0.6823 -0.0536
 2036SOL    HW2 7916   1.659   3.150   2.469 -1.0855 -0.8327  0.5058
 2036SOL    HW3 7917   1.556   3.072   2.389 -0.0496 -0.6767 -1.0202
 2036SOL    MW4 7918   1.592   3.147   2.413 -0.2881 -0.4822  0.2399
 2037SOL     OW 7919   5.092   3.029   3.913 -0.5066 -0.0248  0.3066
 2037SOL    HW2 7920   5.139   3.006   3.993  0.1852 -0.2525 -0.1593
 2037SOL    HW3 7921   5.098   2.951   3.858  0.5211  0.7035 -0.6699
 2037SOL    MW4 7922   5.099   3.016   3.916 -0.0360  0.6350 -0.1315
 2038SOL     OW 7923   5.018   5.213   2.372 -0.2469 -0.1800  0.5712
 2038SOL    HW2 7924   4.957   5.181   2.306  0.2954  0.3838 -0.2144
 2038SOL    HW3 7925   5.071   5.136   2.394  0.6916  0.0026 -0.9133
 2038SOL    MW4 7926   5.017   5.198   2.366 -0.3284 -0.3866  0.1278
 2039SOL     OW 7927   3.131   5.380   0.627  0.2126  0.6223  0.0215
 2039SOL    HW2 7928   3.149   5.428   0.707  2.0380  1.9068 -1.0802
 2039SOL    HW3 7929   3.085   5.442   0.571 -1.2146 -0.3185  0.1090
 2039SOL    MW4 7930   3.127   5.394   0.630  0.3852 -0.7121  0.2462
 2040SOL     OW 7931   0.198   5.275   0.548  0.4541  0.0307 -0.0692
 2040SOL    HW2 7932   0.171   5.364   0.570  2.1675  0.8124 -0.9211
 2040SOL    HW3 7933   0.267   5.254   0.610  0.6128 -0.3967 -0.3798
 2040SOL    MW4 7934   0.203   5.284   0.559  0.1370 -0.0808  0.2099
 2041SOL     OW 7935   5.114   2.139   4.361  0.0627  0.2862 -0.4505
 2041SOL    HW2 7936   5.170   2.082   4.308 -0.2903  1.0760 -1.7479
 2041SOL    HW3 7937   5.044   2.166   4.300 -1.1765  0.1161  0.8386
 2041SOL    MW4 7938   5.112   2.135   4.346 -0.6323  0.4977 -0.2771
 2042SOL     OW 7939   0.434   5.924   4.423 -0.1076 -0.0587  0.6217
 2042SOL    HW2 7940   0.469   6.013   4.422  1.1979 -0.5126  2.0449
 2042SOL    HW3 7941   0.340   5.936   4.410  0.1996  1.4165 -0.4844
 2042SOL    MW4 7942   0.426   5.938   4.421 -0.2583  0.0732  0.2776
 2043SOL     OW 7943   0.561   1.127   3.730  0.1938 -0.1585  0.0121
 2043SOL    HW2 7944   0.589   1.193   3.794  0.7072  1.3254 -1.6401
 2043SOL    HW3 7945   0.634   1.065   3.727  0.0929 -0.3370  0.9697
 2043SOL    MW4 7946   0.574   1.128   3.738 -0.2046  0.4004 -0.1378
 2044SOL     OW 7947   3.854   4.286   0.507  0.3821  0.0056  0.3109
 2044SOL    HW2 7948   3.761   4.272   0.520  0.2578  0.5630  0.0739
 2044SOL    HW3 7949   3.876   4.358   0.567  0.7149 -0.2944  0.5568
 2044SOL    MW4 7950   3.845   4.294   0.517 -0.5599  0.2493  0.1257
 2045SOL     OW 7951   0.070   5.289   4.696  0.4801  0.3453  0.3843
 2045SOL    HW2 7952   0.134   5.281   4.625 -1.4265  0.1539 -1.3967
 2045SOL    HW3 7953  -0.007   5.330   4.655 -1.2444 -1.1374  1.9525
 2045SOL    MW4 7954   0.068   5.294   4.681 -0.1750 -0.2632  0.2379
 2046SOL     OW 7955   0.919   2.073   6.410  0.0516  0.0551  0.2546
 2046SOL    HW2 7956   0.886   2.147   6.358 -0.6947 -0.5402 -0.1399
 2046SOL    HW3 7957   0.956   2.013   6.345 -3.0246 -1.8334  0.0239
 2046SOL    MW4 7958   0.919   2.075   6.395 -0.2463 -0.2412  0.5721
 2047SOL     OW 7959   4.193   6.267   2.900  0.0033  0.6649 -0.6747
 2047SOL    HW2 7960   4.148   6.327   2.840 -1.6198 -0.7296 -0.9232
 2047SOL    HW3 7961   4.286   6.279   2.880 -0.4150  1.3205 -2.4283
 2047SOL    MW4 7962   4.199   6.276   2.889 -0.2388  0.3352 -0.5290
 2048SOL     OW 7963   5.111   1.683   4.844 -0.3186 -0.5977  0.2598
 2048SOL    HW2 7964   5.094   1.705   4.936  0.6399 -1.8576  0.7714
 2048SOL    HW3 7965   5.202   1.710   4.829 -0.3480 -0.7464 -0.1998
 2048SOL    MW4 7966   5.121   1.689   4.854 -0.2281  0.4061  0.9512
 2049SOL     OW 7967   0.386   3.533   2.162 -0.2704  0.3322 -0.0216
 2049SOL    HW2 7968   0.453   3.467   2.179  0.0494  0.1889 -1.6689
 2049SOL    HW3 7969   0.432   3.616   2.171  0.3173  0.2286 -1.6543
 2049SOL    MW4 7970   0.401   3.535   2.165 -0.2350 -0.2953  0.1034
 2050SOL     OW 7971   4.555   6.122   1.374 -0.7055 -0.3597 -0.2260
 2050SOL    HW2 7972   4.611   6.142   1.449  0.3795  1.9996 -1.5656
 2050SOL    HW3 7973   4.615   6.090   1.307 -1.3421 -0.4139 -0.7816
 2050SOL    MW4 7974   4.571   6.120   1.375 -0.2126  0.4632 -0.3792
 2051SOL     OW 7975   4.062   4.218   1.289  0.4512 -0.4027 -0.2748
 2051SOL    HW2 7976   4.073   4.290   1.225  2.1688 -0.1682  0.2369
 2051SOL    HW3 7977   4.145   4.170   1.284  1.4401  0.7154  3.0621
 2051SOL    MW4 7978   4.075   4.221   1.280  0.2214  0.1586  0.1360
 2052SOL     OW 7979   3.825   0.119   0.429 -0.0843 -0.0525  0.0326
 2052SOL    HW2 7980   3.849   0.103   0.521  0.1409  0.0621 -0.0051
 2052SOL    HW3 7981   3.739   0.160   0.434 -0.0249  0.0546  0.1991
 2052SOL    MW4 7982   3.817   0.122   0.442  0.2208  0.2297 -0.2725
 2053SOL     OW 7983   2.514   0.851   3.134  0.0591 -0.5121  0.5663
 2053SOL    HW2 7984   2.582   0.808   3.185  1.1927 -1.6197 -1.7416
 2053SOL    HW3 7985   2.432   0.814   3.167  0.7975 -1.6877  1.1381
 2053SOL    MW4 7986   2.512   0.841   3.145  0.1317 -0.2036 -0.0697
 2054SOL     OW 7987   3.634   2.375   0.736 -0.0741 -0.7566 -0.2670
 2054SOL    HW2 7988   3.547   2.398   0.770 -0.3649 -1.1134 -0.7572
 2054SOL    HW3 7989   3.626   2.387   0.641  0.9597  1.0108 -0.1689
 2054SOL    MW4 7990   3.621   2.380   0.728 -0.6202 -0.4453 -0.2478
 2055SOL     OW 7991   1.879   5.702   4.270  0.1772  0.5829 -0.2280
 2055SOL    HW2 7992   1.903   5.767   4.336  0.7976 -0.3501  0.4876
 2055SOL    HW3 7993   1.795   5.669   4.298  0.2155  0.5286 -0.1795
 2055SOL    MW4 7994   1.871   5.707   4.282 -0.4851  0.1262  0.2163
 2056SOL     OW 7995   4.491   4.915   1.485  0.3262 -0.3627 -0.3913
 2056SOL    HW2 7996   4.409   4.882   1.522  1.1377 -1.5897  0.3664
 2056SOL    HW3 7997   4.473   4.922   1.391 -1.1797  1.0613 -0.0467
 2056SOL    MW4 7998   4.478   4.911   1.477 -0.2554  0.2844 -0.8639
 2057SOL     OW 7999   1.611   1.726   3.843  0.2376  0.0910  0.1455
 2057SOL    HW2 8000   1.610   1.798   3.906  1.1898  0.3090 -0.0750
 2057SOL    HW3 8001   1.589   1.767   3.759  2.3705  0.4602 -0.2854
 2057SOL    MW4 8002   1.608   1.741   3.840 -0.4219  0.3530 -0.5453
 2058SOL     OW 8003   3.457   5.311   0.349  0.0374 -0.2937  0.1685
 2058SOL    HW2 8004   3.412   5.364   0.415  0.2321  0.2987 -0.1643
 2058SOL    HW3 8005   3.393   5.244   0.325 -1.4054  1.5613 -1.5821
 2058SOL    MW4 8006   3.442   5.309   0.354 -0.4989  0.0827  0.2946
 2059SOL     OW 8007   0.053   1.821   5.906  0.2432  0.2781  0.1259
 2059SOL    HW2 8008   0.014   1.797   5.822  0.1525  0.1969  0.1912
 2059SOL    HW3 8009  -0.005   1.783   5.972  0.4403  0.1445  0.2237
 2059SOL    MW4 8010   0.041   1.813   5.904  0.2907  0.1673  0.9102
 2060SOL     OW 8011   3.598   0.770   3.016  0.5840 -0.4550 -0.6545
 2060SOL    HW2 8012   3.663   0.734   2.955 -0.6347 -2.4168 -0.8836
 2060SOL    HW3 8013   3.571   0.852   2.975  1.1488 -0.8158 -1.8040
 2060SOL    MW4 8014   3.603   0.776   3.002 -0.7194 -0.1014 -0.1847
 2061SOL     OW 8015   2.170   4.553   4.206  0.4184 -0.0712  0.2303
 2061SOL    HW2 8016   2.092   4.537   4.153 -0.6922  0.1489  1.7621
 2061SOL    HW3 8017   2.241   4.561   4.141 -0.7663 -0.4971 -1.1718
 2061SOL    MW4 8018   2.169   4.552   4.190  0.0100  0.1390  0.5175
 2062SOL     OW 8019   5.984   5.308   5.272  0.6657 -1.0750 -0.2979
 2062SOL    HW2 8020   5.972   5.403   5.264  1.8268 -1.0345 -2.1105
 2062SOL    HW3 8021   6.047   5.298   5.343 -0.2138 -0.5827  0.5856
 2062SOL    MW4 8022   5.990   5.319   5.280  0.0349 -0.0768 -0.1407
 2063SOL     OW 8023   1.802   4.955   3.535  0.0710  0.0026 -0.2240
 2063SOL    HW2 8024   1.711   4.949   3.506  0.0497 -0.4861 -0.0641
 2063SOL    HW3 8025   1.803   5.031   3.594 -0.6052 -0.9886  1.1072
 2063SOL    MW4 8026   1.790   4.965   3.539  0.0625  0.7036  0.2473
 2064SOL     OW 8027   2.479   3.481   5.348 -0.0065 -0.6039 -0.6078
 2064SOL    HW2 8028   2.502   3.457   5.258 -0.8969  1.5404 -1.4645
 2064SOL    HW3 8029   2.425   3.559   5.339  0.5522  0.1443  1.8497
 2064SOL    MW4 8030   2.475   3.488   5.335 -0.3499  0.3751  0.4244
 2065SOL     OW 8031   3.355   4.144   5.069 -0.5116 -0.1627 -0.0143
 2065SOL    HW2 8032   3.369   4.184   5.155 -0.7106  0.2292 -0.1597
 2065SOL    HW3 8033   3.395   4.205   5.008 -1.8737  0.4372 -0.3395
 2065SOL    MW4 8034   3.362   4.157   5.073 -0.3784 -0.4767 -0.2069
 2066SOL     OW 8035   3.103   5.798   3.077  0.6168  0.2122  0.1328
 2066SOL    HW2 8036   3.159   5.758   3.144  0.0445  1.4722  1.4104
 2066SOL    HW3 8037   3.119   5.746   2.999  1.3228 -1.3120  1.2358
 2066SOL    MW4 8038   3.113   5.786   3.076 -0.0775  0.3716 -0.4084
 2067SOL     OW 8039   2.000   5.636   1.670 -0.0921 -0.3849  0.4325
 2067SOL    HW2 8040   2.027   5.723   1.700 -0.2309 -0.2762  0.2397
 2067SOL    HW3 8041   1.905   5.642   1.661 -0.2169 -0.8448  1.3605
 2067SOL    MW4 8042   1.991   5.648   1.673 -0.0118 -0.0602 -0.0845
 2068SOL     OW 8043   3.999   4.904   2.599  0.0113 -0.8522 -0.1901
 2068SOL    HW2 8044   4.028   4.828   2.548  0.3482 -0.9168  0.0970
 2068SOL    HW3 8045   4.069   4.968   2.588 -0.2433 -0.6043 -0.3786
 2068SOL    MW4 8046   4.012   4.902   2.591 -0.2115  0.8473  0.3284
 2069SOL     OW 8047   1.688   5.186   5.421 -0.5127 -0.4759 -0.2549
 2069SOL    HW2 8048   1.760   5.249   5.422 -1.2476  0.3750 -0.1385
 2069SOL    HW3 8049   1.614   5.234   5.384 -0.9891 -1.3787 -0.4972
 2069SOL    MW4 8050   1.688   5.200   5.416  0.0659 -0.1545  0.1283
 2070SOL     OW 8051   2.213   6.187   4.509  0.4144 -0.0353  0.1686
 2070SOL    HW2 8052   2.253   6.262   4.465 -0.0293  0.5816  0.7930
 2070SOL    HW3 8053   2.163   6.143   4.441 -0.8903  1.3409  0.1947
 2070SOL    MW4 8054   2.212   6.191   4.495  0.2073 -0.3142 -0.3645
 2071SOL     OW 8055   2.074   5.775   0.073 -0.3704  0.5368 -0.0420
 2071SOL    HW2 8056   2.065   5.820  -0.010 -0.8147  0.3699 -0.0884
 2071SOL    HW3 8057   2.156   5.808   0.110 -0.3209  0.8286 -0.4086
 2071SOL    MW4 8058   2.084   5.785   0.067  0.4344  0.0461 -0.1658
 2072SOL     OW 8059   1.131   0.666   2.777 -0.2325 -0.8981  0.0991
 2072SOL    HW2 8060   1.079   0.681   2.856 -0.1598 -2.3626  0.4485
 2072SOL    HW3 8061   1.098   0.730   2.714 -0.3947  0.1906  1.2552
 2072SOL    MW4 8062   1.120   0.676   2.779  0.0160 -0.6835  0.7347
 2073SOL     OW 8063   6.036   3.949   3.836 -0.0183 -0.6740  0.3422
 2073SOL    HW2 8064   5.992   4.021   3.791 -0.7314 -0.5430  1.2307
 2073SOL    HW3 8065   5.969   3.881   3.842  0.3387 -1.0204  0.4457
 2073SOL    MW4 8066   6.021   3.949   3.831  0.3173 -0.0510 -0.3191
 2074SOL     OW 8067   5.035   1.619   1.041 -0.0183  0.0021 -0.1120
 2074SOL    HW2 8068   5.044   1.556   1.113 -1.2732 -0.6634 -0.5247
 2074SOL    HW3 8069   5.040   1.566   0.962  1.7539  0.7804 -0.5621
 2074SOL    MW4 8070   5.037   1.604   1.040 -0.5073  0.2176 -0.1529
 2075SOL     OW 8071   5.996   4.153   3.641  0.4051 -0.5588 -0.2333
 2075SOL    HW2 8072   5.906   4.185   3.630  0.6412  0.5309  0.7347
 2075SOL    HW3 8073   6.009   4.092   3.569 -1.5338 -1.7096  0.3124
 2075SOL    MW4 8074   5.986   4.149   3.630 -0.1195 -0.3309 -0.2043
 2076SOL     OW 8075   4.791   4.657   4.577 -0.0462 -0.8282 -0.4993
 2076SOL    HW2 8076   4.730   4.691   4.642 -0.0758 -1.8935  0.0519
 2076SOL    HW3 8077   4.877   4.671   4.615 -0.0677 -1.5393 -0.1781
 2076SOL    MW4 8078   4.794   4.663   4.590 -0.1367  0.1559 -0.6475
 2077SOL     OW 8079   2.562   2.584   4.286 -0.0682 -0.9133 -0.1711
 2077SOL    HW2 8080   2.631   2.529   4.321  0.0762  0.0283  1.1289
 2077SOL    HW3 8081   2.484   2.558   4.335 -0.1412 -0.4459 -0.0342
 2077SOL    MW4 8082   2.561   2.574   4.297  0.1640  0.8332 -0.3031
 2078SOL     OW 8083   5.146   0.011   5.113  0.8056  0.0354  0.5033
 2078SOL    HW2 8084   5.153   0.074   5.184 -1.3035  2.4331 -1.2069
 2078SOL    HW3 8085   5.054  -0.016   5.114  0.5983  0.4906 -1.4922
 2078SOL    MW4 8086   5.135   0.016   5.122 -0.3001 -0.0308 -0.0483
 2079SOL     OW 8087   3.057   5.718   0.291  0.6908 -0.0925 -0.1533
 2079SOL    HW2 8088   3.063   5.666   0.211  2.0316 -0.4430  0.1479
 2079SOL    HW3 8089   3.148   5.738   0.314  0.3274  0.1205  1.2012
 2079SOL    MW4 8090   3.070   5.714   0.284  0.1147 -0.1206  0.1255
 2080SOL     OW 8091   4.367   4.045   2.854 -0.0905 -0.3152 -0.2818
 2080SOL    HW2 8092   4.287   4.036   2.803 -0.4687 -1.8382  0.5165
 2080SOL    HW3 8093   4.432   3.992   2.807  0.3880  0.6633 -0.7569
 2080SOL    MW4 8094   4.365   4.037   2.841 -0.4256 -0.2862  0.6025
 2081SOL     OW 8095   3.317   0.458   1.929  1.1473  0.4062 -0.3270
 2081SOL    HW2 8096   3.327   0.426   1.839  1.1692  0.9081 -0.5084
 2081SOL    HW3 8097   3.406   0.475   1.959  1.3775 -2.2300  0.7371
 2081SOL    MW4 8098   3.330   0.456   1.921  0.3780 -0.2278  0.4220
 2082SOL     OW 8099   2.733   3.008   0.746 -0.1240 -0.1354 -0.1186
 2082SOL    HW2 8100   2.760   3.013   0.838  1.9664 -0.2974 -0.6814
 2082SOL    HW3 8101   2.751   2.917   0.721 -0.7085 -0.0984 -0.6998
 2082SOL    MW4 8102   2.739   2.996   0.755 -0.0988 -0.1955 -0.1120
 2083SOL     OW 8103   2.718   5.864   1.737  0.7685 -0.2480 -0.3330
 2083SOL    HW2 8104   2.753   5.892   1.822 -1.6787 -0.6148  0.8867
 2083SOL    HW3 8105   2.722   5.943   1.683  1.0393  0.3896  0.5925
 2083SOL    MW4 8106   2.723   5.878   1.741  0.6770 -0.2882 -0.6130
 2084SOL     OW 8107   4.410   4.079   1.944  0.1689 -0.1343 -0.2020
 2084SOL    HW2 8108   4.493   4.126   1.950 -0.9678  1.8564  1.0201
 2084SOL    HW3 8109   4.349   4.142   1.907 -1.4789 -0.4920  1.7291
 2084SOL    MW4 8110   4.413   4.094   1.940  0.2836 -0.1090 -0.3178
 2085SOL     OW 8111   0.861   4.714   6.384  0.2804  0.4225 -0.5752
 2085SOL    HW2 8112   0.928   4.778   6.358  0.5066  0.1248 -0.7241
 2085SOL    HW3 8113   0.855   4.723   6.479  0.6882  0.2998 -0.5354
 2085SOL    MW4 8114   0.869   4.724   6.393  0.6295  0.5434 -0.1446
 2086SOL     OW 8115   3.162   0.938   5.466  0.2711  0.1948 -0.0260
 2086SOL    HW2 8116   3.246   0.900   5.492 -0.0382  0.0763  0.8130
 2086SOL    HW3 8117   3.112   0.864   5.431  0.1530  0.0764  0.3917
 2086SOL    MW4 8118   3.166   0.924   5.465 -0.0182 -0.3374 -0.2284
 2087SOL     OW 8119   5.983   1.921   0.017  0.2160  0.0906  0.1989
 2087SOL    HW2 8120   5.945   1.995   0.063  0.2682 -0.2059  0.7296
 2087SOL    HW3 8121   6.076   1.923   0.040  0.6824  1.1937 -1.6025
 2087SOL    MW4 8122   5.991   1.931   0.026  0.1044 -0.0579  0.0363
 2088SOL     OW 8123   4.642   4.262   3.172  0.2086 -0.4324  0.2071
 2088SOL    HW2 8124   4.687   4.299   3.097  0.4608 -0.9606  0.0876
 2088SOL    HW3 8125   4.676   4.312   3.247  1.4389 -1.1817  0.1853
 2088SOL    MW4 8126   4.653   4.273   3.172 -0.4566 -0.3184 -0.0728
 2089SOL     OW 8127   3.325   2.377   4.670  0.7539 -0.3381  0.2164
 2089SOL    HW2 8128   3.270   2.455   4.659  0.2206 -0.6702  0.5051
 2089SOL    HW3 8129   3.411   2.404   4.638  0.0384 -0.3164 -1.8407
 2089SOL    MW4 8130   3.329   2.391   4.665  0.5017  0.4897 -0.5064
 2090SOL     OW 8131   3.696   6.100   0.826  0.2082 -0.7653 -0.2652
 2090SOL    HW2 8132   3.630   6.136   0.767  0.1740 -1.3148 -0.5719
 2090SOL    HW3 8133   3.776   6.098   0.774  0.0682 -1.7122 -0.4753
 2090SOL    MW4 8134   3.697   6.104   0.811  0.3682  0.3573  0.5037
 2091SOL     OW 8135   4.471   6.150   3.811 -0.3380 -0.3638 -0.2477
 2091SOL    HW2 8136   4.444   6.155   3.719  0.4977  0.0616 -0.4774
 2091SOL    HW3 8137   4.549   6.095   3.811 -0.1686 -0.1345  0.1630
 2091SOL    MW4 8138   4.478   6.144   3.799 -0.1446 -0.0271  0.6937
 2092SOL     OW 8139   3.595   5.905   5.533  0.2821 -0.3345 -0.3930
 2092SOL    HW2 8140   3.563   5.928   5.620  0.0160  0.5399 -0.7125
 2092SOL    HW3 8141   3.542   5.829   5.508 -0.2497 -0.0526 -0.1517
 2092SOL    MW4 8142   3.584   5.898   5.541  0.2457  0.1619  0.4914
 2093SOL     OW 8143   4.366   2.860   3.023 -0.1187 -0.5719  0.1753
 2093SOL    HW2 8144   4.398   2.787   2.971  1.1517  0.9868 -1.3472
 2093SOL    HW3 8145   4.273   2.868   2.999 -0.5607 -2.2625  1.1473
 2093SOL    MW4 8146   4.358   2.852   3.013 -0.0857  0.0036 -0.2758
 2094SOL     OW 8147   5.293   2.257   3.200  0.0899  0.4621  0.5812
 2094SOL    HW2 8148   5.364   2.273   3.263  0.0978 -0.0216  0.7012
 2094SOL    HW3 8149   5.258   2.171   3.225  0.1336  0.2384 -0.1097
 2094SOL    MW4 8150   5.298   2.247   3.212 -0.2598  0.0613 -0.1035
 2095SOL     OW 8151   0.580   4.025   5.656  0.0612  0.7257  0.2707
 2095SOL    HW2 8152   0.661   4.020   5.706  0.2020 -0.5604 -0.0458
 2095SOL    HW3 8153   0.576   4.115   5.624  2.0029  0.4900 -0.7775
 2095SOL    MW4 8154   0.590   4.036   5.659 -0.1518  0.2864  0.0754
 2096SOL     OW 8155   4.378   4.094   1.011  0.1586 -0.6906  0.0241
 2096SOL    HW2 8156   4.341   4.037   1.079 -0.3141  0.5449  0.8416
 2096SOL    HW3 8157   4.313   4.091   0.940  0.9395 -2.4607 -0.6835
 2096SOL    MW4 8158   4.365   4.086   1.010 -0.1425  0.4249 -0.5893
 2097SOL     OW 8159   0.014   0.527   1.270 -0.1489 -0.1564  0.2835
 2097SOL    HW2 8160   0.080   0.541   1.202 -1.2095  1.1790 -0.5228
 2097SOL    HW3 8161  -0.019   0.439   1.253  1.2412 -0.7643  0.5719
 2097SOL    MW4 8162   0.019   0.517   1.259  0.9006 -0.3968  0.4662
 2098SOL     OW 8163   5.964   4.858   3.911  0.1285 -0.5756 -0.0178
 2098SOL    HW2 8164   5.951   4.825   3.823  1.5171 -0.0831 -0.4365
 2098SOL    HW3 8165   6.030   4.801   3.949  0.0428 -0.3669  0.4582
 2098SOL    MW4 8166   5.971   4.846   3.905 -0.3606 -0.1258 -0.2948
 2099SOL     OW 8167   5.687   0.353   2.408 -0.0314 -0.4669  0.4316
 2099SOL    HW2 8168   5.631   0.344   2.485  1.0793  0.0009  1.3191
 2099SOL    HW3 8169   5.758   0.290   2.422  0.5741  0.1452  0.1630
 2099SOL    MW4 8170   5.689   0.344   2.420 -0.2067  0.2340  0.4494
 2100SOL     OW 8171   2.913   2.528   3.861 -0.0055  0.1877 -0.3464
 2100SOL    HW2 8172   2.981   2.499   3.922  0.1684 -3.0587 -1.8716
 2100SOL    HW3 8173   2.832   2.525   3.913  0.3919 -0.5165  0.2529
 2100SOL    MW4 8174   2.911   2.524   3.876  0.0335  0.0008 -0.4075
 2101SOL     OW 8175   1.881   5.137   5.656  0.2393  0.3586 -0.0102
 2101SOL    HW2 8176   1.892   5.105   5.745  0.8281  0.0212 -0.2037
 2101SOL    HW3 8177   1.795   5.104   5.628  0.4981 -0.3829  0.0707
 2101SOL    MW4 8178   1.871   5.129   5.664 -0.5109  0.6943 -0.0359
 2102SOL     OW 8179   3.649   2.254   2.818  0.3259 -0.8432  0.7116
 2102SOL    HW2 8180   3.725   2.220   2.865  0.4208 -2.0659 -0.2762
 2102SOL    HW3 8181   3.686   2.300   2.742  0.1459  0.5077  1.4130
 2102SOL    MW4 8182   3.664   2.256   2.814 -0.5316 -0.1160 -0.0802
 2103SOL     OW 8183   2.847   2.866   6.366  0.1488 -0.9863 -0.1635
 2103SOL    HW2 8184   2.815   2.952   6.340  2.3181 -0.7745 -2.6144
 2103SOL    HW3 8185   2.782   2.805   6.331 -0.6159 -0.4148  0.2327
 2103SOL    MW4 8186   2.834   2.869   6.358 -0.3715  0.0192 -0.2109
 2104SOL     OW 8187   0.570   1.460   2.301 -0.1514 -0.4344  0.3124
 2104SOL    HW2 8188   0.488   1.411   2.304  0.5976 -1.7548 -0.1302
 2104SOL    HW3 8189   0.634   1.398   2.266  0.7641  0.9647 -0.5925
 2104SOL    MW4 8190   0.567   1.446   2.297 -0.2347  0.6473  0.2723
 2105SOL     OW 8191   5.927   1.662   3.185  0.2899  0.2638 -0.2038
 2105SOL    HW2 8192   6.016   1.663   3.151  0.0079 -1.9210 -1.1244
 2105SOL    HW3 8193   5.876   1.614   3.120 -1.7952  2.1716 -0.1467
 2105SOL    MW4 8194   5.932   1.656   3.172  1.0780 -0.4231  0.3091
 2106SOL     OW 8195   3.912   4.030   0.642 -0.2262  0.0373  0.0029
 2106SOL    HW2 8196   3.873   4.112   0.611  0.5285 -0.4973 -2.5580
 2106SOL    HW3 8197   4.004   4.050   0.656  0.0756 -0.4857 -1.1650
 2106SOL    MW4 8198   3.919   4.043   0.640 -0.0559 -0.6839 -0.1094
 2107SOL     OW 8199   3.865   1.627   0.727  0.3856 -0.4218  0.2870
 2107SOL    HW2 8200   3.923   1.697   0.696  0.0967 -0.2033  0.2252
 2107SOL    HW3 8201   3.830   1.661   0.810 -0.0741 -0.3088  0.0523
 2107SOL    MW4 8202   3.868   1.641   0.734 -0.0973 -0.0479 -0.2526
 2108SOL     OW 8203   6.201   4.689   2.565  0.4054  0.2038 -0.2909
 2108SOL    HW2 8204   6.288   4.696   2.604  1.2364 -1.7354 -1.6209
 2108SOL    HW3 8205   6.211   4.726   2.477  0.1272 -0.7760 -0.7466
 2108SOL    MW4 8206   6.214   4.695   2.559 -0.2365 -0.1200  0.3045
 2109SOL     OW 8207   5.869   1.671   1.084  0.3283  0.3722  0.0695
 2109SOL    HW2 8208   5.917   1.655   1.165  0.8563  0.5765 -0.2004
 2109SOL    HW3 8209   5.883   1.593   1.031  2.4688  1.4400 -1.0319
 2109SOL    MW4 8210   5.877   1.659   1.088 -0.1412 -0.5372  0.0603
 2110SOL     OW 8211   1.366   6.049   6.399  0.0577  0.2200  0.1991
 2110SOL    HW2 8212   1.380   5.962   6.439 -1.5423  0.4889  1.4543
 2110SOL    HW3 8213   1.446   6.097   6.418  0.2976 -0.4637  0.9961
 2110SOL    MW4 8214   1.378   6.044   6.407  0.6375 -0.9266 -0.2818
 2111SOL     OW 8215   3.635   2.987   2.051 -0.3460  0.0258 -0.4492
 2111SOL    HW2 8216   3.605   2.913   2.104 -0.1561  0.5521  0.4101
 2111SOL    HW3 8217   3.585   3.061   2.082  0.5251  0.5527 -0.2622
 2111SOL    MW4 8218   3.625   2.987   2.062 -0.0597  0.1736  0.4245
 2112SOL     OW 8219   3.094   3.188   0.760 -0.0041 -0.2552 -1.0270
 2112SOL    HW2 8220   3.069   3.104   0.722  0.1087 -0.4754 -0.6187
 2112SOL    HW3 8221   3.144   3.232   0.691  1.0426 -1.0558 -0.8110
 2112SOL    MW4 8222   3.097   3.183   0.746 -0.1757  0.0510  0.0566
 2113SOL     OW 8223   5.497   5.555   0.641 -0.1288 -0.0356  0.5631
 2113SOL    HW2 8224   5.422   5.612   0.658  1.5299  1.6082  2.8807
 2113SOL    HW3 8225   5.561   5.611   0.598 -0.1766 -1.4502 -1.4921
 2113SOL    MW4 8226   5.495   5.570   0.638 -0.5407  0.1624  0.1573
 2114SOL     OW 8227   1.577   6.145   2.092 -0.3807  0.2336 -0.0298
 2114SOL    HW2 8228   1.620   6.224   2.123 -1.0975  0.0080  1.6481
 2114SOL    HW3 8229   1.563   6.160   1.999 -0.2513  1.9536  0.2007
 2114SOL    MW4 8230   1.581   6.157   2.084 -0.5518 -0.3227  0.4081
 2115SOL     OW 8231   0.415   5.271   3.738 -0.4549 -0.0527  0.3814
 2115SOL    HW2 8232   0.473   5.198   3.719  0.5853  1.3496 -2.3617
 2115SOL    HW3 8233   0.415   5.278   3.834  1.1403 -2.2175  0.6085
 2115SOL    MW4 8234   0.423   5.262   3.749 -0.4432 -0.0815  0.6575
 2116SOL     OW 8235   3.670   0.393   4.776  0.3357  0.0774  0.3453
 2116SOL    HW2 8236   3.736   0.325   4.781 -0.0875 -0.3661 -0.0262
 2116SOL    HW3 8237   3.680   0.430   4.688  0.3325  0.2497  0.4175
 2116SOL    MW4 8238   3.680   0.389   4.765 -0.1899  0.2205  0.2334
 2117SOL     OW 8239   0.369   4.771   0.890 -0.3890  0.3907  0.0123
 2117SOL    HW2 8240   0.332   4.746   0.975 -1.4603  1.6553 -0.0401
 2117SOL    HW3 8241   0.440   4.832   0.912 -0.6309  0.6757  0.0120
 2117SOL    MW4 8242   0.373   4.776   0.904  0.1892 -0.0467  0.0283
 2118SOL     OW 8243   5.448   6.284   0.227 -0.4059 -0.5863  0.1102
 2118SOL    HW2 8244   5.399   6.243   0.298  0.5423  0.2253  1.2817
 2118SOL    HW3 8245   5.414   6.244   0.148 -1.9687 -1.0399  0.9724
 2118SOL    MW4 8246   5.437   6.274   0.226  0.0683 -0.1814  0.5759
 2119SOL     OW 8247   2.840   1.283   2.096 -0.5712 -0.0309  0.3098
 2119SOL    HW2 8248   2.834   1.342   2.171 -0.3395 -0.6477  0.8216
 2119SOL    HW3 8249   2.763   1.227   2.103  0.2199 -1.0849  0.9677
 2119SOL    MW4 8250   2.829   1.284   2.107  0.8464  0.2476  0.3243
 2120SOL     OW 8251   3.261   3.309   4.073  0.2614 -0.6648 -0.0311
 2120SOL    HW2 8252   3.323   3.377   4.098 -1.2501  0.8551 -0.2073
 2120SOL    HW3 8253   3.267   3.304   3.978 -0.2737 -0.0916 -0.1032
 2120SOL    MW4 8254   3.270   3.318   4.064  0.0503 -0.5112  0.8580
 2121SOL     OW 8255   4.589   1.071   3.463  0.4134  0.7543 -0.4650
 2121SOL    HW2 8256   4.658   1.011   3.492 -0.2855 -0.5974 -1.5132
 2121SOL    HW3 8257   4.592   1.066   3.368 -0.1943  1.8066 -0.5534
 2121SOL    MW4 8258   4.599   1.063   3.454 -0.2866  0.0704 -0.5595
 2122SOL     OW 8259   2.687   3.734   1.227  0.0335  0.5880 -0.0408
 2122SOL    HW2 8260   2.734   3.650   1.237  0.6781  0.8204 -1.0088
 2122SOL    HW3 8261   2.615   3.728   1.289  0.6309 -0.2983  0.6000
 2122SOL    MW4 8262   2.684   3.722   1.237 -0.1265 -0.0128  0.5966
 2123SOL     OW 8263   3.245   3.476   6.423 -0.3982  0.1168  0.3045
 2123SOL    HW2 8264   3.260   3.403   6.363  0.4910  1.2919 -0.9398
 2123SOL    HW3 8265   3.166   3.451   6.471 -1.3985 -0.6908 -1.6374
 2123SOL    MW4 8266   3.237   3.463   6.421 -0.2714  0.2306  0.0576
 2124SOL     OW 8267   2.776   2.876   2.857  0.2722 -0.3330  0.5548
 2124SOL    HW2 8268   2.839   2.917   2.797 -0.2031 -1.3461 -0.7090
 2124SOL    HW3 8269   2.827   2.810   2.904  0.2300 -1.0401 -0.3493
 2124SOL    MW4 8270   2.791   2.873   2.855  0.6913  0.0278  0.7645
 2125SOL     OW 8271   4.761   2.595   0.859 -0.0761 -0.1743  0.0299
 2125SOL    HW2 8272   4.839   2.650   0.862  0.2749 -0.6975  0.6578
 2125SOL    HW3 8273   4.794   2.509   0.835 -0.6576 -0.0642 -1.2638
 2125SOL    MW4 8274   4.775   2.591   0.856  0.6738  0.0563 -0.0284
 2126SOL     OW 8275   0.072   2.712   2.241 -0.1181  0.0948 -0.6420
 2126SOL    HW2 8276   0.168   2.712   2.247 -0.1636 -0.3817  0.1881
 2126SOL    HW3 8277   0.051   2.633   2.191 -0.0616  0.4598 -1.2530
 2126SOL    MW4 8278   0.082   2.701   2.235  0.3921 -0.6943 -0.1010
 2127SOL     OW 8279   1.574   6.359   5.208  0.3494  0.1114 -0.8421
 2127SOL    HW2 8280   1.515   6.332   5.278  0.8805 -0.3624 -0.5721
 2127SOL    HW3 8281   1.652   6.392   5.253  0.8110 -0.4642 -1.2109
 2127SOL    MW4 8282   1.576   6.360   5.223  0.0250 -0.3123 -0.1577
 2128SOL     OW 8283   2.769   1.490   4.664 -0.2563 -0.3657  0.0794
 2128SOL    HW2 8284   2.782   1.518   4.755  0.7147 -1.0999  0.1806
 2128SOL    HW3 8285   2.783   1.395   4.666 -0.6660 -0.4574 -0.7679
 2128SOL    MW4 8286   2.772   1.481   4.677 -0.0545  0.5117 -0.6391
 2129SOL     OW 8287   2.526   0.981   3.902 -0.0426 -0.1823  0.6883
 2129SOL    HW2 8288   2.441   0.979   3.859 -0.3743  0.1677  1.3262
 2129SOL    HW3 8289   2.586   0.944   3.837 -0.8150 -1.2237  0.5473
 2129SOL    MW4 8290   2.523   0.976   3.888  0.0709 -0.2591  0.1060
 2130SOL     OW 8291   3.205   5.828   1.635 -0.4770  0.7121 -0.5571
 2130SOL    HW2 8292   3.177   5.747   1.678  2.3112 -0.7988 -1.3344
 2130SOL    HW3 8293   3.168   5.822   1.547  0.7229 -0.3884 -1.0140
 2130SOL    MW4 8294   3.196   5.816   1.629  0.4459  0.1262  0.4567
 2131SOL     OW 8295   3.199   4.736   4.748  0.0089  0.7834 -0.6784
 2131SOL    HW2 8296   3.244   4.654   4.728 -0.1772  0.5249 -0.0935
 2131SOL    HW3 8297   3.243   4.802   4.696  0.4580  0.3817 -0.8106
 2131SOL    MW4 8298   3.210   4.734   4.739 -0.1067  0.1028  0.5112
 2132SOL     OW 8299   2.879   6.403   4.866  0.4682 -0.4517  0.1875
 2132SOL    HW2 8300   2.787   6.394   4.892  0.5075  1.5229  1.2322
 2132SOL    HW3 8301   2.883   6.367   4.777 -1.0904 -1.4418  0.4786
 2132SOL    MW4 8302   2.867   6.397   4.858 -0.8943  0.0609  0.1118
 2133SOL     OW 8303   1.696   6.150   4.231 -0.1094  0.1154 -0.0762
 2133SOL    HW2 8304   1.659   6.078   4.180  0.3864 -1.0462  1.1370
 2133SOL    HW3 8305   1.716   6.218   4.167 -2.4076 -0.0120 -1.0299
 2133SOL    MW4 8306   1.693   6.150   4.216  0.5440 -0.7331 -0.4861
 2134SOL     OW 8307   5.772   4.592   0.083 -0.0446  0.2948  0.1642
 2134SOL    HW2 8308   5.732   4.516   0.126  0.7287 -0.3115 -0.1732
 2134SOL    HW3 8309   5.858   4.600   0.123  0.0261  0.7583 -0.0752
 2134SOL    MW4 8310   5.778   4.583   0.094 -0.3478 -0.5162  0.2887
 2135SOL     OW 8311   4.408   2.703   0.380  0.0704 -0.3410 -0.4220
 2135SOL    HW2 8312   4.364   2.681   0.462  1.5320 -0.1670  0.4562
 2135SOL    HW3 8313   4.422   2.798   0.385  0.9927 -0.4622 -0.4128
 2135SOL    MW4 8314   4.404   2.713   0.392  0.0585 -0.0918 -0.3558
 2136SOL     OW 8315   1.800   3.389   0.936  0.8301  0.4079  0.2803
 2136SOL    HW2 8316   1.804   3.331   1.012  0.8114  0.3467  0.2351
 2136SOL    HW3 8317   1.843   3.339   0.866  0.0102  0.0708  0.0025
 2136SOL    MW4 8318   1.806   3.375   0.937  0.0781 -0.0592  0.7980
 2137SOL     OW 8319   1.537   1.864   3.613  0.0309 -0.2006 -0.0428
 2137SOL    HW2 8320   1.572   1.946   3.645  0.0604 -0.3804  0.3995
 2137SOL    HW3 8321   1.560   1.861   3.520 -0.5283  0.5815 -0.2104
 2137SOL    MW4 8322   1.545   1.874   3.605 -0.1035 -0.9490  0.2000
 2138SOL     OW 8323   6.231   0.955   2.225  0.3428  0.2938 -0.3231
 2138SOL    HW2 8324   6.319   0.935   2.191 -0.2808  0.6601 -2.3105
 2138SOL    HW3 8325   6.245   1.031   2.282  1.4465 -0.3028  0.2431
 2138SOL    MW4 8326   6.245   0.962   2.228 -0.2391  0.3786  0.2092
 2139SOL     OW 8327   3.390   3.714   5.857 -0.6006  0.2623 -0.2119
 2139SOL    HW2 8328   3.449   3.683   5.926  1.2584 -0.4463 -2.0214
 2139SOL    HW3 8329   3.327   3.643   5.845 -0.8352  0.3204  0.6039
 2139SOL    MW4 8330   3.389   3.701   5.865  0.1645  0.2011  0.0574
 2140SOL     OW 8331   3.782   4.286   1.733 -0.1392 -0.0585  0.2671
 2140SOL    HW2 8332   3.815   4.249   1.651  0.0862  0.3924  0.1452
 2140SOL    HW3 8333   3.848   4.351   1.758  0.2001 -0.7518  1.2402
 2140SOL    MW4 8334   3.795   4.290   1.725 -0.0180 -0.4583  0.2671
 2141SOL     OW 8335   1.760   4.433   3.210 -0.5066 -0.0460  0.0237
 2141SOL    HW2 8336   1.851   4.420   3.185  0.1049  2.7111  0.5096
 2141SOL    HW3 8337   1.717   4.464   3.130 -0.6903 -0.0243  0.1297
 2141SOL    MW4 8338   1.766   4.435   3.196 -0.5371  0.2364  0.2641
 2142SOL     OW 8339   0.652   2.895   4.371  0.2899  0.2954  0.1367
 2142SOL    HW2 8340   0.694   2.978   4.350  0.8667 -0.1196 -0.3586
 2142SOL    HW3 8341   0.724   2.837   4.396  0.0301 -0.4211 -0.7179
 2142SOL    MW4 8342   0.667   2.899   4.372 -0.4058  0.3439 -0.0071
 2143SOL     OW 8343   1.066   2.795   5.941  0.1676  0.2258  0.0427
 2143SOL    HW2 8344   1.030   2.861   5.882  1.8104  0.4028 -0.8049
 2143SOL    HW3 8345   1.045   2.827   6.029  0.1026  1.3723 -0.3803
 2143SOL    MW4 8346   1.059   2.808   5.945 -0.2841 -0.1245  0.0985
 2144SOL     OW 8347   3.083   6.080   6.048 -0.0505 -0.5177  0.4840
 2144SOL    HW2 8348   3.112   6.006   5.995  3.0803 -0.3796  1.7854
 2144SOL    HW3 8349   3.035   6.040   6.120  0.0735 -1.1295  0.2337
 2144SOL    MW4 8350   3.080   6.065   6.050  0.7757  0.3353  0.2029
 2145SOL     OW 8351   1.456   0.910   0.609 -0.2129  1.1289  0.1604
 2145SOL    HW2 8352   1.472   0.923   0.516  1.8072  0.2063  0.3309
 2145SOL    HW3 8353   1.540   0.926   0.651 -0.6456 -0.1643  1.6511
 2145SOL    MW4 8354   1.469   0.914   0.603 -0.9548 -0.2528 -0.0852
 2146SOL     OW 8355   3.978   5.874   5.317 -0.4751 -0.4767  0.3604
 2146SOL    HW2 8356   3.925   5.932   5.262 -0.1387  0.6264  1.1575
 2146SOL    HW3 8357   3.998   5.926   5.394  2.7712 -0.3912 -0.3812
 2146SOL    MW4 8358   3.974   5.889   5.320 -0.0126 -0.4605  0.2111
 2147SOL     OW 8359   4.780   2.347   6.265  0.8222 -0.1131  0.5433
 2147SOL    HW2 8360   4.751   2.433   6.233 -3.4748 -1.2363  0.8102
 2147SOL    HW3 8361   4.762   2.287   6.192  2.6556 -1.0345  0.7824
 2147SOL    MW4 8362   4.774   2.350   6.251 -0.7057 -0.2202 -0.0704
 2148SOL     OW 8363   1.122   2.522   0.944 -0.0723  0.1170 -0.7365
 2148SOL    HW2 8364   1.104   2.561   0.858  0.7317 -0.3896 -1.1501
 2148SOL    HW3 8365   1.056   2.560   1.002 -1.7454 -0.8153 -1.9403
 2148SOL    MW4 8366   1.111   2.532   0.940  0.2538 -0.0344 -0.1255
 2149SOL     OW 8367   6.101   6.140   3.926  0.0086  0.3132  0.8235
 2149SOL    HW2 8368   6.050   6.090   3.990 -0.4690  1.6175  1.5181
 2149SOL    HW3 8369   6.037   6.166   3.859  0.5180 -1.0889 -0.2388
 2149SOL    MW4 8370   6.086   6.137   3.926  0.8744 -0.3766  0.1208
 2150SOL     OW 8371   2.477   5.727   1.815  0.3257  1.3023  0.6367
 2150SOL    HW2 8372   2.440   5.664   1.753 -1.2723  1.0798  1.7308
 2150SOL    HW3 8373   2.549   5.768   1.769  1.8144 -1.7192  0.0391
 2150SOL    MW4 8374   2.482   5.724   1.801  0.5918 -0.3115  0.7970
 2151SOL     OW 8375   2.073   3.094   0.961 -0.1902 -0.4277  0.1061
 2151SOL    HW2 8376   2.071   3.172   0.906  1.5980  0.5839  1.3633
 2151SOL    HW3 8377   2.006   3.109   1.027 -0.3233 -0.2827 -0.0630
 2151SOL    MW4 8378   2.064   3.106   0.962  0.1428  0.2110  0.7999
 2152SOL     OW 8379   3.293   5.532   3.979  0.6626  0.5875  0.5282
 2152SOL    HW2 8380   3.229   5.484   4.032  1.4767  0.9524  1.8641
 2152SOL    HW3 8381   3.281   5.496   3.891 -0.4529 -0.3024  1.0079
 2152SOL    MW4 8382   3.283   5.521   3.974 -0.3591  0.6503  0.1654
 2153SOL     OW 8383   4.044   0.125   5.035 -0.0707 -0.2233  0.5087
 2153SOL    HW2 8384   3.985   0.077   5.093  0.0218 -0.5548  0.3314
 2153SOL    HW3 8385   4.123   0.070   5.031 -0.7703 -1.1430 -1.4046
 2153SOL    MW4 8386   4.047   0.111   5.042 -0.0778  0.0756 -0.2115
 2154SOL     OW 8387   2.775   2.268   0.309  0.1667 -0.1850  0.3525
 2154SOL    HW2 8388   2.720   2.345   0.320  0.9638  0.4430  0.0739
 2154SOL    HW3 8389   2.806   2.248   0.397 -2.1719 -1.8632  0.8894
 2154SOL    MW4 8390   2.772   2.276   0.322  0.3687  0.2755 -0.0183
 2155SOL     OW 8391   4.677   2.135   0.929 -0.0263  0.7307 -0.1769
 2155SOL    HW2 8392   4.638   2.099   1.009 -1.3793  0.7209 -0.8145
 2155SOL    HW3 8393   4.699   2.058   0.876  2.8194  0.6093  0.9775
 2155SOL    MW4 8394   4.675   2.120   0.932 -0.3645  0.2163  0.0465
 2156SOL     OW 8395   1.171   2.900   4.233  0.4806  0.2125 -0.0613
 2156SOL    HW2 8396   1.240   2.836   4.254 -1.6283 -1.8641  1.0270
 2156SOL    HW3 8397   1.137   2.871   4.148  0.3373  0.6699 -0.1600
 2156SOL    MW4 8398   1.176   2.888   4.224  0.2495  0.0540  0.1733
 2157SOL     OW 8399   4.108   5.188   5.152 -0.7761 -0.4743  0.3803
 2157SOL    HW2 8400   4.114   5.195   5.247  0.6954 -1.4615  0.3978
 2157SOL    HW3 8401   4.184   5.236   5.119 -0.3444 -1.5011 -0.1887
 2157SOL    MW4 8402   4.119   5.195   5.160 -0.3377 -0.4719  0.2753
 2158SOL     OW 8403   3.695   1.756   3.781 -0.4658 -0.0211  0.4410
 2158SOL    HW2 8404   3.609   1.713   3.779 -0.1742 -0.6299  0.6182
 2158SOL    HW3 8405   3.711   1.773   3.874  1.0755 -3.0103  0.8473
 2158SOL    MW4 8406   3.686   1.752   3.793  0.1382  0.3208 -0.3474
 2159SOL     OW 8407   5.159   2.896   2.078  0.3301 -0.1930  0.4088
 2159SOL    HW2 8408   5.065   2.901   2.061  0.5542  1.2524 -0.6038
 2159SOL    HW3 8409   5.168   2.826   2.143 -1.3607 -0.8537 -0.0053
 2159SOL    MW4 8410   5.148   2.887   2.084 -0.2477  0.1440 -0.0179
 2160SOL     OW 8411   0.360   5.159   4.838 -0.8879  0.4743  0.2038
 2160SOL    HW2 8412   0.377   5.076   4.795 -0.5987  0.4723  0.3156
 2160SOL    HW3 8413   0.436   5.172   4.896 -1.5020  0.2265  1.0891
 2160SOL    MW4 8414   0.372   5.150   4.840 -0.4591 -0.4622 -0.6580
 2161SOL     OW 8415   3.451   3.073   2.467  0.4948 -0.4529 -0.0344
 2161SOL    HW2 8416   3.398   3.044   2.393  0.6969 -2.3369  0.5035
 2161SOL    HW3 8417   3.450   3.169   2.461 -1.0685 -0.4992 -1.3434
 2161SOL    MW4 8418   3.444   3.082   2.456  0.5036 -0.5601 -0.1572
 2162SOL     OW 8419   1.576   4.246   2.584  0.0775  0.1842 -0.0950
 2162SOL    HW2 8420   1.602   4.330   2.622 -1.0322  0.1031  0.8766
 2162SOL    HW3 8421   1.559   4.190   2.659 -0.2059 -0.5964 -0.7327
 2162SOL    MW4 8422   1.577   4.250   2.599  0.1601 -0.1115 -0.1804
 2163SOL     OW 8423   5.717   0.902   4.529  0.3651 -0.0975  0.3197
 2163SOL    HW2 8424   5.790   0.842   4.511  0.5796  0.2713 -0.0458
 2163SOL    HW3 8425   5.640   0.853   4.502  0.4680 -0.5201  0.7794
 2163SOL    MW4 8426   5.717   0.888   4.523  0.2352  0.5517 -0.2081
 2164SOL     OW 8427   3.659   0.423   3.080 -0.4503  0.6631 -0.1355
 2164SOL    HW2 8428   3.635   0.445   2.990  0.4582 -0.3993 -0.6626
 2164SOL    HW3 8429   3.753   0.442   3.085 -0.1243 -0.8631  0.0596
 2164SOL    MW4 8430   3.669   0.429   3.069  0.0480  0.8126 -0.0162
 2165SOL     OW 8431   4.830   6.332   2.633  0.5630  1.2568  0.3034
 2165SOL    HW2 8432   4.805   6.240   2.626  0.7757  1.3045 -1.5424
 2165SOL    HW3 8433   4.884   6.337   2.712 -2.6520  0.5953  2.7558
 2165SOL    MW4 8434   4.834   6.321   2.642 -0.0913  0.3356  0.1591
 2166SOL     OW 8435   2.361   4.699   1.535  0.9066 -0.2539  0.2463
 2166SOL    HW2 8436   2.395   4.692   1.624 -0.2714 -1.6767  0.6238
 2166SOL    HW3 8437   2.369   4.610   1.499  0.5603  0.1062 -0.7690
 2166SOL    MW4 8438   2.367   4.686   1.542 -0.1072  0.1007 -0.3502
 2167SOL     OW 8439   1.797   1.956   1.377  0.6109 -0.0444 -0.5727
 2167SOL    HW2 8440   1.779   1.993   1.291  1.5612  1.7604 -0.0328
 2167SOL    HW3 8441   1.745   2.008   1.438  0.8775 -0.5212  0.0800
 2167SOL    MW4 8442   1.788   1.968   1.374 -0.6585 -0.0470 -0.1068
 2168SOL     OW 8443   0.633   5.158   0.541  0.2467  0.1242  0.2243
 2168SOL    HW2 8444   0.677   5.182   0.460 -0.4180  0.7696  0.0458
 2168SOL    HW3 8445   0.654   5.228   0.603  0.4725 -0.1912  0.5076
 2168SOL    MW4 8446   0.641   5.170   0.539 -0.1432  0.1198 -0.1927
 2169SOL     OW 8447   5.575   6.272   4.620  0.2559 -0.5140  0.2022
 2169SOL    HW2 8448   5.548   6.302   4.707  0.0876 -1.1809  0.3843
 2169SOL    HW3 8449   5.565   6.349   4.564 -0.4734 -0.3128  0.5985
 2169SOL    MW4 8450   5.570   6.286   4.624  0.4091 -0.0443 -0.2663
 2170SOL     OW 8451   6.065   0.291   4.076  0.1698 -0.0107  0.4900
 2170SOL    HW2 8452   6.039   0.232   4.146 -0.4508  0.2675  0.5009
 2170SOL    HW3 8453   6.066   0.235   3.998  0.6916 -0.2810  0.6826
 2170SOL    MW4 8454   6.062   0.275   4.075 -0.2218  0.0878  0.0360
 2171SOL     OW 8455   3.111   5.541   5.587  0.3063  0.2881  0.7961
 2171SOL    HW2 8456   3.037   5.562   5.643 -1.8260 -0.2082 -1.6453
 2171SOL    HW3 8457   3.130   5.450   5.606  0.6295  0.5424  1.7591
 2171SOL    MW4 8458   3.104   5.532   5.597 -0.1373  0.7639  0.4371
 2172SOL     OW 8459   4.540   3.200   2.415  0.9543  0.0981  0.3470
 2172SOL    HW2 8460   4.590   3.270   2.456  1.8874 -1.6788  2.4665
 2172SOL    HW3 8461   4.606   3.149   2.367  0.4636  0.0829 -0.3168
 2172SOL    MW4 8462   4.556   3.202   2.414  0.0265  0.2627 -0.1014
 2173SOL     OW 8463   1.600   6.111   4.501  0.3037  0.1841 -0.0689
 2173SOL    HW2 8464   1.674   6.158   4.539  0.6991 -0.8300  0.4365
 2173SOL    HW3 8465   1.616   6.116   4.406  0.7811  0.3580  0.0154
 2173SOL    MW4 8466   1.612   6.118   4.493  0.2289  0.1165 -0.2696
 2174SOL     OW 8467   4.175   5.684   6.385  0.2126 -0.0306 -0.1678
 2174SOL    HW2 8468   4.198   5.739   6.460 -1.8114  0.2745  0.2858
 2174SOL    HW3 8469   4.118   5.616   6.421 -2.2101  1.1054 -1.5919
 2174SOL    MW4 8470   4.171   5.683   6.399 -0.0939 -0.5707 -0.2795
 2175SOL     OW 8471   6.260   5.824   0.041  0.5621  0.3056  0.4639
 2175SOL    HW2 8472   6.247   5.918   0.056 -0.0162 -0.1600  3.4881
 2175SOL    HW3 8473   6.174   5.792   0.013  0.3316  0.4235  1.0307
 2175SOL    MW4 8474   6.247   5.832   0.039 -0.2568 -0.2896  0.7359
 2176SOL     OW 8475   2.222   0.131   2.700  0.7642 -0.3254 -0.2409
 2176SOL    HW2 8476   2.250   0.109   2.612 -0.8945 -0.6047 -0.7411
 2176SOL    HW3 8477   2.156   0.065   2.722  1.3015 -0.3931  1.3018
 2176SOL    MW4 8478   2.217   0.120   2.691 -0.7946  0.8394  0.2043
 2177SOL     OW 8479   3.424   2.733   5.871  0.1972 -0.4722 -0.2395
 2177SOL    HW2 8480   3.369   2.763   5.798  0.2754  1.2650  0.3519
 2177SOL    HW3 8481   3.505   2.703   5.829  0.1494  0.2703 -0.8968
 2177SOL    MW4 8482   3.427   2.733   5.856 -0.3563  0.1846 -0.9640
 2178SOL     OW 8483   5.133   3.075   1.021  0.6050 -0.2290  0.0602
 2178SOL    HW2 8484   5.096   3.035   0.942  1.9217 -0.0704 -0.6642
 2178SOL    HW3 8485   5.201   3.014   1.049  1.3746  0.5956  0.0201
 2178SOL    MW4 8486   5.137   3.062   1.015  0.4278 -0.1659 -0.2227
 2179SOL     OW 8487   3.813   2.897   2.654  0.0077 -0.7562 -0.2236
 2179SOL    HW2 8488   3.779   2.971   2.704  2.2885  0.0766  0.2029
 2179SOL    HW3 8489   3.761   2.896   2.574 -0.8665  0.5516  0.3032
 2179SOL    MW4 8490   3.802   2.906   2.650 -0.0080 -0.6817 -0.1311
 2180SOL     OW 8491   4.166   4.865   6.020  0.6717  0.5290 -0.1760
 2180SOL    HW2 8492   4.242   4.829   6.066 -0.0528 -0.6555  0.1441
 2180SOL    HW3 8493   4.110   4.899   6.090  0.5429  0.6705 -0.3464
 2180SOL    MW4 8494   4.169   4.865   6.035 -0.1384 -0.5217  0.6063
 2181SOL     OW 8495   4.427   5.194   4.839  0.1548  0.4577  0.3037
 2181SOL    HW2 8496   4.371   5.118   4.824  1.8883 -0.8323 -0.0276
 2181SOL    HW3 8497   4.377   5.249   4.899 -1.5580 -0.4655 -0.1965
 2181SOL    MW4 8498   4.413   5.191   4.845  0.0728  0.5934  0.3237
 2182SOL     OW 8499   1.968   0.299   0.551 -0.4315 -0.8968 -0.2421
 2182SOL    HW2 8500   1.957   0.305   0.456  1.4434  0.5485 -0.4305
 2182SOL    HW3 8501   1.960   0.389   0.582  0.6896 -1.1110  0.7478
 2182SOL    MW4 8502   1.966   0.312   0.543 -0.5692 -0.5308  0.0645
 2183SOL     OW 8503   4.681   3.645   2.244 -0.7459 -0.4440 -0.8985
 2183SOL    HW2 8504   4.588   3.647   2.266 -0.3783 -0.9567  0.8094
 2183SOL    HW3 8505   4.698   3.553   2.220 -0.2127 -0.9019  1.0887
 2183SOL    MW4 8506   4.671   3.633   2.244  0.1812  0.1879  0.4257
 2184SOL     OW 8507   3.599   4.176   0.583 -1.0860  0.2801  0.0184
 2184SOL    HW2 8508   3.531   4.198   0.519  0.1567  2.0677 -0.7924
 2184SOL    HW3 8509   3.590   4.243   0.651 -0.5429  0.1604  0.2131
 2184SOL    MW4 8510   3.589   4.188   0.584  0.1268 -0.7927 -0.2083
 2185SOL     OW 8511   0.524   3.674   1.773 -0.4503 -0.3245 -0.4402
 2185SOL    HW2 8512   0.567   3.672   1.687  1.0666 -0.2323  0.2903
 2185SOL    HW3 8513   0.464   3.600   1.772 -0.4681 -0.3155 -1.5810
 2185SOL    MW4 8514   0.522   3.664   1.761 -0.0611  0.2606  0.4886
 2186SOL     OW 8515   1.710   6.017   0.776 -0.5164  0.3911 -0.4305
 2186SOL    HW2 8516   1.794   6.050   0.742  1.9262 -3.1253  1.5327
 2186SOL    HW3 8517   1.697   6.064   0.858  1.0333 -0.8089  0.5639
 2186SOL    MW4 8518   1.719   6.028   0.782 -0.4437 -0.1572  0.0350
 2187SOL     OW 8519   4.660   5.941   5.500  0.1546 -0.3895 -0.0325
 2187SOL    HW2 8520   4.649   6.003   5.427 -0.9337  0.3673  0.7513
 2187SOL    HW3 8521   4.745   5.965   5.538  1.4899 -1.7813 -1.9310
 2187SOL    MW4 8522   4.670   5.953   5.495 -0.1346 -0.2781  0.6593
 2188SOL     OW 8523   5.111   6.157   6.128  0.5731  0.5610 -0.6248
 2188SOL    HW2 8524   5.191   6.139   6.078  0.9396 -0.7972  0.3771
 2188SOL    HW3 8525   5.063   6.074   6.127  0.1512  0.7667  0.4678
 2188SOL    MW4 8526   5.115   6.143   6.122 -0.3432 -0.6646  0.1361
 2189SOL     OW 8527   1.824   3.860   0.037 -0.1746 -0.1971  0.1258
 2189SOL    HW2 8528   1.755   3.917   0.003  0.2272  1.5515  2.0391
 2189SOL    HW3 8529   1.777   3.783   0.070 -1.1595  0.6137  0.6969
 2189SOL    MW4 8530   1.809   3.857   0.037  0.0055 -0.2742  0.0608
 2190SOL     OW 8531   4.856   0.524   2.665  0.7777  0.8042  0.6673
 2190SOL    HW2 8532   4.882   0.581   2.738  0.1883  2.1867 -0.1603
 2190SOL    HW3 8533   4.859   0.581   2.588 -2.7750  0.6195  0.2066
 2190SOL    MW4 8534   4.860   0.539   2.665  0.0162 -0.4858 -0.1945
 2191SOL     OW 8535   5.691   2.886   5.838  0.0483  0.1261 -0.2991
 2191SOL    HW2 8536   5.658   2.956   5.896  3.8524  0.9312  1.1503
 2191SOL    HW3 8537   5.747   2.932   5.775  1.4911 -1.4675 -0.2234
 2191SOL    MW4 8538   5.694   2.902   5.837 -0.5481  0.0075  0.2390
 2192SOL     OW 8539   1.845   0.029   0.605  0.1519  0.1599 -0.2128
 2192SOL    HW2 8540   1.851   0.124   0.615  2.2266  0.1041 -0.6884
 2192SOL    HW3 8541   1.841   0.014   0.511  1.1743 -0.2774 -0.1955
 2192SOL    MW4 8542   1.845   0.040   0.594 -0.3413 -0.5603  0.3986
 2193SOL     OW 8543   1.625   5.630   4.362 -0.4465 -0.0423 -0.1296
 2193SOL    HW2 8544   1.590   5.718   4.377 -0.2806  0.3424 -1.8220
 2193SOL    HW3 8545   1.636   5.593   4.450  0.2270  1.9085  0.6475
 2193SOL    MW4 8546   1.622   5.636   4.376 -0.5155  0.6158  0.0927
 2194SOL     OW 8547   2.469   3.256   2.370 -0.1066  0.0249  0.0306
 2194SOL    HW2 8548   2.503   3.338   2.333 -1.1567  0.0662 -0.9089
 2194SOL    HW3 8549   2.520   3.243   2.450  1.8927  0.2282 -1.1177
 2194SOL    MW4 8550   2.480   3.266   2.375  0.0290  0.4671 -0.1039
 2195SOL     OW 8551   1.858   6.153   5.740 -0.0143 -0.4228  0.4224
 2195SOL    HW2 8552   1.780   6.183   5.786  0.9281  1.7785  0.7143
 2195SOL    HW3 8553   1.825   6.090   5.676 -1.8022 -0.7604  1.5866
 2195SOL    MW4 8554   1.844   6.148   5.738 -0.5647  0.0777  0.4273
 2196SOL     OW 8555   5.163   0.269   5.973 -0.1921 -0.7472 -0.0609
 2196SOL    HW2 8556   5.187   0.201   6.035 -0.0330 -0.5713  0.0707
 2196SOL    HW3 8557   5.094   0.229   5.919  0.5504 -1.3387 -0.5956
 2196SOL    MW4 8558   5.157   0.255   5.974  0.4030  0.3447 -0.1599
 2197SOL     OW 8559   3.618   3.332   6.275  0.0865 -0.7360 -0.0843
 2197SOL    HW2 8560   3.610   3.343   6.369 -2.0495  0.2770 -0.3318
 2197SOL    HW3 8561   3.660   3.412   6.244  0.0126 -0.7052 -0.1030
 2197SOL    MW4 8562   3.623   3.344   6.283 -0.0765 -0.1975 -0.0495
 2198SOL     OW 8563   2.957   1.710   6.322 -0.1301  0.4826  0.4631
 2198SOL    HW2 8564   3.038   1.682   6.365  0.3408  2.8228  1.2094
 2198SOL    HW3 8565   2.889   1.700   6.389 -0.7213 -2.3162 -0.4225
 2198SOL    MW4 8566   2.959   1.705   6.336  0.4629 -0.2430  0.3869
 2199SOL     OW 8567   0.916   1.494   4.401 -0.1344  0.1716  0.0011
 2199SOL    HW2 8568   0.955   1.466   4.484 -2.1683 -2.4374  0.1791
 2199SOL    HW3 8569   0.839   1.545   4.427 -1.5959 -1.8457 -0.1767
 2199SOL    MW4 8570   0.911   1.497   4.415  0.1503 -0.2204 -0.7744
 2200SOL     OW 8571   1.517   0.789   4.347 -0.2280  0.5020  0.0398
 2200SOL    HW2 8572   1.427   0.759   4.342  0.1812 -0.6065 -1.0100
 2200SOL    HW3 8573   1.569   0.719   4.308  1.1161  1.0452  0.7526
 2200SOL    MW4 8574   1.512   0.776   4.341  0.1701 -0.4169  1.1486
 2201SOL     OW 8575   5.291   3.096   1.673 -0.3526  0.3668  0.5477
 2201SOL    HW2 8576   5.209   3.143   1.660 -0.7462 -0.1724  0.9898
 2201SOL    HW3 8577   5.265   3.004   1.681  0.2200  0.2570  1.3373
 2201SOL    MW4 8578   5.277   3.090   1.672 -0.2619  0.4403  0.6914
 2202SOL     OW 8579   0.019   2.762   1.697  0.4117  0.3930  0.5295
 2202SOL    HW2 8580   0.031   2.815   1.618 -0.3477  2.4965  1.7651
 2202SOL    HW3 8581  -0.024   2.820   1.759 -2.2444 -2.2188  1.3734
 2202SOL    MW4 8582   0.015   2.776   1.695 -0.0488 -0.0260 -0.1574
 2203SOL     OW 8583   4.421   2.258   1.114 -0.3693 -0.4476  0.1760
 2203SOL    HW2 8584   4.471   2.337   1.135 -2.9326  1.8083 -1.4849
 2203SOL    HW3 8585   4.438   2.243   1.021 -1.7893 -0.2895 -0.1372
 2203SOL    MW4 8586   4.430   2.267   1.105 -0.4440  0.6904 -0.4914
 2204SOL     OW 8587   3.980   6.344   2.538 -0.4686 -0.3569 -0.5848
 2204SOL    HW2 8588   4.033   6.266   2.525 -0.9543 -0.8294  0.1887
 2204SOL    HW3 8589   3.999   6.399   2.462  0.5879 -0.8144 -0.6686
 2204SOL    MW4 8590   3.989   6.341   2.526 -0.2860  0.1593  0.5061
 2205SOL     OW 8591   2.761   0.442   1.739 -0.5494  0.4498  0.4341
 2205SOL    HW2 8592   2.757   0.521   1.792  1.9874  1.3247 -0.5256
 2205SOL    HW3 8593   2.712   0.463   1.659  0.6854  1.3684 -0.1139
 2205SOL    MW4 8594   2.754   0.455   1.735 -0.5358 -0.3447  0.1503
 2206SOL     OW 8595   0.042   2.797   2.674 -0.6247  0.0912 -0.2519
 2206SOL    HW2 8596   0.097   2.730   2.713 -0.6069 -0.1434 -0.6778
 2206SOL    HW3 8597  -0.001   2.839   2.749  0.9390  0.9998  0.1813
 2206SOL    MW4 8598   0.044   2.794   2.689  0.3625  0.2109  0.0157
 2207SOL     OW 8599   2.833   1.122   3.022  0.0360  0.8220  0.3628
 2207SOL    HW2 8600   2.747   1.146   3.057  0.0373  0.7078  0.4453
 2207SOL    HW3 8601   2.817   1.040   2.974  0.0266  0.9975  0.0654
 2207SOL    MW4 8602   2.819   1.114   3.021 -0.2782  0.2256  0.0572
 2208SOL     OW 8603   1.822   5.075   0.627 -0.1830 -0.0290  0.1918
 2208SOL    HW2 8604   1.796   4.992   0.589 -0.3197  0.5216 -0.9553
 2208SOL    HW3 8605   1.740   5.118   0.651 -0.3879  1.2603 -2.4743
 2208SOL    MW4 8606   1.808   5.070   0.625 -0.1546 -0.8969  0.4670
 2209SOL     OW 8607   3.953   4.678   0.889 -0.0623  0.8399 -0.3453
 2209SOL    HW2 8608   3.903   4.629   0.954  1.2448  0.4146  0.3756
 2209SOL    HW3 8609   3.888   4.711   0.828 -1.2117  0.3106  0.5673
 2209SOL    MW4 8610   3.938   4.676   0.890  0.4835 -0.0379  0.2470
 2210SOL     OW 8611   1.256   2.272   0.549 -0.1656 -0.5844 -0.4959
 2210SOL    HW2 8612   1.182   2.333   0.552  0.4951  0.2026  0.9343
 2210SOL    HW3 8613   1.279   2.266   0.456 -2.2564 -1.1757 -1.0117
 2210SOL    MW4 8614   1.249   2.279   0.537 -0.3728  0.0841  0.0167
 2211SOL     OW 8615   0.636   4.270   3.967  0.0078 -0.1862  0.7344
 2211SOL    HW2 8616   0.626   4.361   3.942 -1.0021  0.1347  2.2017
 2211SOL    HW3 8617   0.549   4.232   3.958 -0.0511 -0.4471  2.1279
 2211SOL    MW4 8618   0.623   4.277   3.962  0.0646  0.1146  0.3685
 2212SOL     OW 8619   3.515   0.787   0.573  0.1349  0.3541 -0.0143
 2212SOL    HW2 8620   3.600   0.755   0.542  0.3511  0.3928  0.5304
 2212SOL    HW3 8621   3.510   0.877   0.540  0.0290  0.1493 -0.5739
 2212SOL    MW4 8622   3.525   0.794   0.565  0.5123  0.0407  0.3608
 2213SOL     OW 8623   6.230   3.826   3.986  0.1898  0.1917  0.0177
 2213SOL    HW2 8624   6.219   3.863   4.074 -0.7869  0.6993 -0.3049
 2213SOL    HW3 8625   6.176   3.881   3.930  1.5245  0.4386 -1.0737
 2213SOL    MW4 8626   6.222   3.838   3.990  1.4090 -0.1902 -0.5239
 2214SOL     OW 8627   2.035   3.432   1.783  0.0188 -0.0228 -0.2158
 2214SOL    HW2 8628   1.967   3.488   1.745  0.1151 -0.0240 -0.3911
 2214SOL    HW3 8629   2.003   3.343   1.772  0.7340 -0.1289 -1.6940
 2214SOL    MW4 8630   2.022   3.428   1.777 -0.1681  0.1085 -0.4896
 2215SOL     OW 8631   2.257   3.315   4.138  0.0380 -0.5351 -0.0196
 2215SOL    HW2 8632   2.301   3.297   4.054 -2.9811 -2.8012 -1.3010
 2215SOL    HW3 8633   2.285   3.244   4.195 -1.6440 -1.8772 -0.7801
 2215SOL    MW4 8634   2.267   3.304   4.134  0.3597  0.0167 -0.0977
 2216SOL     OW 8635   2.583   1.312   5.322  0.3002  0.4198 -0.0818
 2216SOL    HW2 8636   2.575   1.374   5.249  0.0961  0.9803  0.4069
 2216SOL    HW3 8637   2.656   1.345   5.374 -0.4831  0.8773  0.7648
 2216SOL    MW4 8638   2.591   1.324   5.319 -0.3090  0.1371 -0.7116
 2217SOL     OW 8639   1.727   4.125   4.527 -0.5387  0.2757 -0.4178
 2217SOL    HW2 8640   1.785   4.084   4.590 -1.6532 -0.3483  0.2296
 2217SOL    HW3 8641   1.764   4.212   4.514  1.6562 -0.7469 -1.5419
 2217SOL    MW4 8642   1.739   4.131   4.533 -0.4221  0.1368  0.1964
 2218SOL     OW 8643   0.220   2.613   3.939  0.4232 -0.0417 -0.3002
 2218SOL    HW2 8644   0.256   2.684   3.886  2.4459 -0.4492  0.4342
 2218SOL    HW3 8645   0.196   2.546   3.875 -1.2919  1.1659 -0.9838
 2218SOL    MW4 8646   0.222   2.613   3.923  0.2587 -0.3030  0.2570
 2219SOL     OW 8647   5.604   2.899   1.741  0.4178  0.3146  0.4861
 2219SOL    HW2 8648   5.583   2.983   1.781  0.5514  0.6582 -0.1652
 2219SOL    HW3 8649   5.548   2.895   1.663  2.0842  0.8502 -0.8007
 2219SOL    MW4 8650   5.593   2.909   1.736 -0.1964 -0.1510 -0.2356
 2220SOL     OW 8651   3.583   2.017   5.701 -0.0962  0.3565  0.3407
 2220SOL    HW2 8652   3.642   1.952   5.739 -2.2241 -0.9769  1.6057
 2220SOL    HW3 8653   3.604   2.098   5.748 -0.2129 -0.4290  1.8176
 2220SOL    MW4 8654   3.593   2.019   5.712 -0.3561 -0.1279  0.4430
 2221SOL     OW 8655   1.167   3.908   6.121  0.3664  0.4998  0.2486
 2221SOL    HW2 8656   1.236   3.963   6.159  0.6434  0.7614 -0.6023
 2221SOL    HW3 8657   1.086   3.940   6.160  0.4412  2.0372 -0.7937
 2221SOL    MW4 8658   1.166   3.919   6.131 -0.0495 -0.2165 -0.3167
 2222SOL     OW 8659   1.297   1.041   2.697  0.1081 -0.0538  0.3848
 2222SOL    HW2 8660   1.367   1.011   2.754 -0.6419 -0.8946  0.8993
 2222SOL    HW3 8661   1.217   1.021   2.746 -0.5532 -0.8496 -0.9698
 2222SOL    MW4 8662   1.296   1.034   2.711 -0.2550 -0.2306  0.1152
 2223SOL     OW 8663   4.814   1.127   2.345 -0.0159  0.6163  0.2090
 2223SOL    HW2 8664   4.908   1.133   2.328 -0.1149  0.6008 -0.3902
 2223SOL    HW3 8665   4.776   1.100   2.261 -0.7377  2.2915 -0.0503
 2223SOL    MW4 8666   4.821   1.125   2.331 -0.2291  0.2283  0.0212
 2224SOL     OW 8667   1.569   0.304   1.289 -0.0040  0.4662  0.6782
 2224SOL    HW2 8668   1.490   0.357   1.294  0.7317  1.6029  0.6540
 2224SOL    HW3 8669   1.628   0.353   1.231  0.1793 -1.1005 -0.5600
 2224SOL    MW4 8670   1.566   0.317   1.282 -0.7273  0.0879 -0.4355
 2225SOL     OW 8671   2.594   5.955   0.506 -0.0793 -0.6439  0.3201
 2225SOL    HW2 8672   2.648   5.893   0.457  0.8102  1.0708 -0.9848
 2225SOL    HW3 8673   2.642   5.972   0.587 -0.6075 -2.0435  0.9517
 2225SOL    MW4 8674   2.607   5.949   0.510 -0.1218 -0.3104 -0.4836
 2226SOL     OW 8675   0.819   1.503   4.130  0.6334 -0.9492  0.1631
 2226SOL    HW2 8676   0.819   1.504   4.226 -0.4075  0.6636  0.1880
 2226SOL    HW3 8677   0.729   1.527   4.106  1.2722  0.2622 -1.1841
 2226SOL    MW4 8678   0.807   1.507   4.140 -0.4016 -0.1490  0.7402
 2227SOL     OW 8679   0.439   6.344   3.164 -0.3060  0.0580  0.3180
 2227SOL    HW2 8680   0.456   6.358   3.071 -0.1151 -0.1655  0.3170
 2227SOL    HW3 8681   0.520   6.370   3.207 -0.9666  1.8042  0.5839
 2227SOL    MW4 8682   0.452   6.349   3.157 -0.0159 -0.8200 -0.3115
 2228SOL     OW 8683   5.986   4.810   6.167  0.0328  0.3356  0.4221
 2228SOL    HW2 8684   5.904   4.776   6.131 -0.3531  0.4183  1.1807
 2228SOL    HW3 8685   6.018   4.739   6.223 -0.1740  0.7644  1.1008
 2228SOL    MW4 8686   5.979   4.796   6.170  0.6952  0.2960  0.2749
 2229SOL     OW 8687   2.524   3.709   4.317 -0.2801  0.8431  0.5952
 2229SOL    HW2 8688   2.529   3.625   4.271 -0.5978  0.4842  1.2086
 2229SOL    HW3 8689   2.615   3.727   4.341 -0.2625  0.4766  0.8129
 2229SOL    MW4 8690   2.537   3.700   4.314 -0.8841  0.3212  0.1404
 2230SOL     OW 8691   3.570   2.111   6.347 -0.0459 -0.2085  0.4398
 2230SOL    HW2 8692   3.483   2.082   6.318  0.3907 -0.1120 -1.0752
 2230SOL    HW3 8693   3.597   2.044   6.410 -1.3282 -0.0788  1.1603
 2230SOL    MW4 8694   3.562   2.098   6.351 -0.1486 -0.0309  0.0952
 2231SOL     OW 8695   6.212   1.495   4.410 -0.3379  0.0584 -0.1486
 2231SOL    HW2 8696   6.252   1.444   4.339 -0.9112  0.7400 -0.9940
 2231SOL    HW3 8697   6.250   1.459   4.490  1.0244 -0.1307 -0.8418
 2231SOL    MW4 8698   6.222   1.484   4.411  0.4973  0.0662 -1.1644
 2232SOL     OW 8699   2.463   1.358   1.450  0.0227 -0.1066 -0.2696
 2232SOL    HW2 8700   2.528   1.384   1.516 -0.0854  1.2129 -0.6544
 2232SOL    HW3 8701   2.485   1.267   1.430  0.7463 -0.1897  0.7781
 2232SOL    MW4 8702   2.475   1.350   1.456  0.1491 -0.4747  0.5218
 2233SOL     OW 8703   3.615   1.026   2.563 -0.2657  0.2383 -0.0987
 2233SOL    HW2 8704   3.622   1.065   2.475  0.0578  1.5334  0.4713
 2233SOL    HW3 8705   3.546   1.077   2.606  0.8296  0.8726  0.9900
 2233SOL    MW4 8706   3.607   1.038   2.557  0.6272  0.4943  0.1293
 2234SOL     OW 8707   6.392   6.383   2.577  0.0032  0.4954  0.1858
 2234SOL    HW2 8708   6.338   6.368   2.655 -1.5215 -1.0280 -1.0734
 2234SOL    HW3 8709   6.448   6.305   2.571  1.0673  1.2220  0.4667
 2234SOL    MW4 8710   6.392   6.370   2.586  0.2940 -0.1561 -0.1969
 2235SOL     OW 8711   3.377   1.975   1.810  0.3640  0.5040  0.0672
 2235SOL    HW2 8712   3.446   2.015   1.757  0.2787  2.1223  1.1078
 2235SOL    HW3 8713   3.355   1.894   1.764 -0.5109  2.3368 -3.0119
 2235SOL    MW4 8714   3.383   1.970   1.797  0.3063  0.0168  0.1080
 2236SOL     OW 8715   0.066   5.345   1.711  0.1250  0.0750 -0.0043
 2236SOL    HW2 8716   0.080   5.426   1.663  0.7307  0.4220  0.7317
 2236SOL    HW3 8717  -0.024   5.350   1.743  0.0724  0.3337 -0.1973
 2236SOL    MW4 8718   0.056   5.356   1.709  0.3878  0.0481 -0.1806
 2237SOL     OW 8719   0.055   0.789   6.349 -0.0242  0.3555 -0.0872
 2237SOL    HW2 8720   0.066   0.838   6.268  0.0584 -0.7514 -0.7632
 2237SOL    HW3 8721  -0.032   0.814   6.381  0.5217  1.9256  0.2928
 2237SOL    MW4 8722   0.045   0.799   6.343 -0.7509  0.0529  0.2730
 2238SOL     OW 8723   0.889   3.654   3.331 -0.0247 -0.3306  0.7492
 2238SOL    HW2 8724   0.969   3.636   3.382 -0.0807 -2.8244  0.1079
 2238SOL    HW3 8725   0.911   3.625   3.242 -1.3430 -0.1474  0.3474
 2238SOL    MW4 8726   0.903   3.647   3.326 -0.2643  0.1746  0.1769
 2239SOL     OW 8727   4.223   1.609   5.776 -0.3367 -0.1547  0.9745
 2239SOL    HW2 8728   4.279   1.661   5.835  1.4954 -0.5846 -0.2979
 2239SOL    HW3 8729   4.144   1.662   5.765 -0.2186  0.5030  2.8091
 2239SOL    MW4 8730   4.220   1.623   5.783  0.4509 -0.1735 -0.1491
 2240SOL     OW 8731   5.634   5.108   1.452  0.3358 -0.6276  0.1158
 2240SOL    HW2 8732   5.551   5.150   1.475  0.8734  1.0902 -0.8972
 2240SOL    HW3 8733   5.667   5.160   1.379  1.9855 -1.6916  0.0666
 2240SOL    MW4 8734   5.627   5.121   1.446  0.2095  0.2798 -0.2862
 2241SOL     OW 8735   3.328   4.142   6.257 -0.3341 -0.0571  0.4816
 2241SOL    HW2 8736   3.235   4.157   6.276 -0.5481 -1.0378  0.2688
 2241SOL    HW3 8737   3.349   4.062   6.306  0.0908 -0.4984 -0.4050
 2241SOL    MW4 8738   3.318   4.133   6.266  0.2578 -0.2897 -0.2923
 2242SOL     OW 8739   3.932   1.910   3.170  0.0480 -0.0596 -0.4992
 2242SOL    HW2 8740   3.900   1.983   3.222 -1.1836 -0.0596 -1.2095
 2242SOL    HW3 8741   4.025   1.904   3.191 -0.3886 -0.0237  1.6338
 2242SOL    MW4 8742   3.940   1.919   3.180  0.6837  0.0406 -0.1324
 2243SOL     OW 8743   2.821   4.827   2.625  0.2820  0.1490 -0.0604
 2243SOL    HW2 8744   2.910   4.861   2.635 -0.2365  1.1943  1.2861
 2243SOL    HW3 8745   2.815   4.756   2.688 -0.1702  0.8210  0.6750
 2243SOL    MW4 8746   2.832   4.823   2.634 -0.8521  0.4333 -0.2079
 2244SOL     OW 8747   2.136   4.531   1.692  0.1347  0.0025  0.2921
 2244SOL    HW2 8748   2.097   4.614   1.664 -0.0729 -0.4852 -0.9520
 2244SOL    HW3 8749   2.147   4.482   1.611  0.7107 -0.9974  0.9575
 2244SOL    MW4 8750   2.132   4.536   1.678 -0.2529 -0.0647  0.1801
 2245SOL     OW 8751   4.789   0.344   4.980  0.1931  0.4014 -0.0113
 2245SOL    HW2 8752   4.713   0.294   5.009 -0.4242  2.2499  1.7991
 2245SOL    HW3 8753   4.847   0.347   5.057  0.0524  2.6702  0.0825
 2245SOL    MW4 8754   4.787   0.338   4.994 -1.1487 -0.4812  0.5059
 2246SOL     OW 8755   0.784   0.121   5.888 -0.0711 -0.0756 -0.3807
 2246SOL    HW2 8756   0.815   0.201   5.931  2.4026 -2.0364  1.8010
 2246SOL    HW3 8757   0.728   0.079   5.954  0.7235 -1.3191 -0.4728
 2246SOL    MW4 8758   0.781   0.126   5.903 -0.2490 -0.2144  0.2788
 2247SOL     OW 8759   2.516   0.839   0.675  0.1402  0.4498 -0.0723
 2247SOL    HW2 8760   2.610   0.827   0.684  0.0730 -1.2218 -1.2448
 2247SOL    HW3 8761   2.503   0.934   0.677  1.7470  0.6806  0.8289
 2247SOL    MW4 8762   2.526   0.850   0.677 -0.6798  0.2135  1.0712
 2248SOL     OW 8763   4.789   4.300   3.405 -0.3876 -0.2403 -0.6308
 2248SOL    HW2 8764   4.733   4.376   3.418 -0.6150 -0.6019  0.7367
 2248SOL    HW3 8765   4.731   4.225   3.422  0.0806 -0.6769 -0.9318
 2248SOL    MW4 8766   4.774   4.300   3.409  0.0211 -0.0644 -0.2071
 2249SOL     OW 8767   2.261   0.890   1.073 -0.3138  0.3977  0.7619
 2249SOL    HW2 8768   2.245   0.968   1.126  1.4087  1.4952 -0.2361
 2249SOL    HW3 8769   2.258   0.922   0.982  0.1492 -0.7421  0.3264
 2249SOL    MW4 8770   2.259   0.905   1.068 -0.1284  0.0382  0.1339
 2250SOL     OW 8771   6.399   0.140   6.017 -0.4264  0.3257 -0.6319
 2250SOL    HW2 8772   6.472   0.176   6.067 -0.2981  1.5782 -1.6672
 2250SOL    HW3 8773   6.364   0.214   5.968  0.1635 -1.0278 -3.2895
 2250SOL    MW4 8774   6.404   0.154   6.017  0.4546  0.1395  0.0861
 2251SOL     OW 8775   0.618   2.265   4.121  0.1569  0.0402 -0.1648
 2251SOL    HW2 8776   0.696   2.298   4.075 -1.3551  0.4310 -2.6558
 2251SOL    HW3 8777   0.569   2.344   4.145 -1.0184 -0.1918 -1.6102
 2251SOL    MW4 8778   0.622   2.280   4.118 -0.3396  0.4570  0.0732
 2252SOL     OW 8779   5.695   4.164   3.580  0.3327 -0.8660 -0.0125
 2252SOL    HW2 8780   5.690   4.252   3.544  0.7293 -0.9120 -0.1835
 2252SOL    HW3 8781   5.646   4.169   3.662 -2.2041 -1.1995 -1.3831
 2252SOL    MW4 8782   5.688   4.176   3.586 -0.3350 -0.4721 -0.0855
 2253SOL     OW 8783   0.120   4.107   0.391  0.3204  0.1048  0.1532
 2253SOL    HW2 8784   0.043   4.099   0.335  0.2882 -2.0403  0.4396
 2253SOL    HW3 8785   0.190   4.131   0.330 -0.3842  1.3383 -0.2178
 2253SOL    MW4 8786   0.119   4.109   0.375  0.1897 -0.5021 -0.0820
 2254SOL     OW 8787   0.713   1.175   0.702  0.1104  0.1521 -0.4373
 2254SOL    HW2 8788   0.645   1.234   0.669  0.2034  0.0356 -0.8412
 2254SOL    HW3 8789   0.789   1.231   0.714  0.4926 -0.0484 -1.7474
 2254SOL    MW4 8790   0.714   1.190   0.699  0.5545 -0.2596 -0.2611
 2255SOL     OW 8791   2.145   1.363   5.813  0.0678  1.1400 -0.1392
 2255SOL    HW2 8792   2.161   1.402   5.728 -4.7438  1.1932 -1.2544
 2255SOL    HW3 8793   2.161   1.433   5.876  0.5811  2.0520 -1.2690
 2255SOL    MW4 8794   2.149   1.377   5.810 -0.3367  0.2940 -0.2278
 2256SOL     OW 8795   1.807   1.973   1.759  0.4982  0.5619 -0.8896
 2256SOL    HW2 8796   1.833   2.031   1.688 -1.9442  1.8521 -0.8314
 2256SOL    HW3 8797   1.818   2.026   1.838  1.0926 -0.1156 -0.4999
 2256SOL    MW4 8798   1.812   1.988   1.760  0.0735  0.4169 -0.1256
 2257SOL     OW 8799   4.505   1.828   3.054  0.2310  0.7127 -0.2476
 2257SOL    HW2 8800   4.439   1.781   3.104  0.9813  1.3562  1.4156
 2257SOL    HW3 8801   4.554   1.759   3.008 -0.7307  0.1494 -0.4481
 2257SOL    MW4 8802   4.503   1.813   3.054 -0.4902 -0.2914 -0.1276
 2258SOL     OW 8803   5.570   1.949   0.838 -0.2383 -0.3939  0.1913
 2258SOL    HW2 8804   5.487   1.995   0.822 -0.6388 -0.6446  1.4318
 2258SOL    HW3 8805   5.586   1.901   0.757  0.1844  1.8491 -1.1675
 2258SOL    MW4 8806   5.561   1.949   0.825  0.0649  0.8739  0.2274
 2259SOL     OW 8807   6.269   1.465   2.273 -0.3995  0.7270 -0.2444
 2259SOL    HW2 8808   6.318   1.519   2.335  0.4898  0.8530 -1.0398
 2259SOL    HW3 8809   6.242   1.526   2.204 -1.3202  0.5730 -0.0313
 2259SOL    MW4 8810   6.272   1.480   2.272 -0.3364  0.6376  0.1091
 2260SOL     OW 8811   5.452   3.258   4.762  0.5252  0.6360  0.1875
 2260SOL    HW2 8812   5.393   3.207   4.816  0.8140  0.3903  0.2726
 2260SOL    HW3 8813   5.457   3.210   4.679  0.1456  0.9694 -0.0365
 2260SOL    MW4 8814   5.445   3.245   4.758 -0.1003  0.1279 -0.1396
 2261SOL     OW 8815   1.914   3.525   3.389 -0.4204 -0.0549 -0.7711
 2261SOL    HW2 8816   1.888   3.617   3.387 -0.9002 -0.1546  0.1995
 2261SOL    HW3 8817   1.841   3.481   3.432  1.0768 -0.4412  1.5118
 2261SOL    MW4 8818   1.901   3.531   3.394 -0.1047  0.1536  0.0022
 2262SOL     OW 8819   0.864   1.982   2.937  0.8351  0.0423  0.5773
 2262SOL    HW2 8820   0.900   1.930   3.009  1.2629  0.1628  0.4543
 2262SOL    HW3 8821   0.884   1.932   2.858  3.0347  1.3022  0.2591
 2262SOL    MW4 8822   0.871   1.969   2.936  0.6515 -0.1975  0.9708
 2263SOL     OW 8823   0.843   2.238   4.929 -0.1580 -0.5403  0.1228
 2263SOL    HW2 8824   0.862   2.278   4.845 -0.1305 -1.0446 -0.1157
 2263SOL    HW3 8825   0.916   2.266   4.986  0.7692 -1.6078 -0.5003
 2263SOL    MW4 8826   0.855   2.247   4.926  0.2740  0.0159 -0.1538
 2264SOL     OW 8827   2.213   1.900   3.913 -0.1037  0.2652  0.1081
 2264SOL    HW2 8828   2.229   1.973   3.853  0.9519  1.0374  1.2731
 2264SOL    HW3 8829   2.289   1.901   3.972  0.2761 -2.1999 -0.2547
 2264SOL    MW4 8830   2.225   1.910   3.913 -0.5131  0.6428 -0.2754
 2265SOL     OW 8831   5.761   5.041   6.044  0.2664  0.3862 -0.2058
 2265SOL    HW2 8832   5.841   5.078   6.007  0.8893 -1.2435 -0.5714
 2265SOL    HW3 8833   5.761   5.069   6.135  2.0371 -0.7273  0.1946
 2265SOL    MW4 8834   5.771   5.049   6.051 -0.3862  0.3392 -0.3060
 2266SOL     OW 8835   2.056   6.197   0.150  0.0937 -0.1713 -0.4268
 2266SOL    HW2 8836   2.144   6.164   0.168  0.0711  0.0015  0.0223
 2266SOL    HW3 8837   2.011   6.191   0.234 -0.6031 -1.1018 -0.8529
 2266SOL    MW4 8838   2.062   6.192   0.164 -0.1109  0.4139 -0.3901
 2267SOL     OW 8839   5.128   0.152   3.753  0.6255  0.3561  1.0273
 2267SOL    HW2 8840   5.172   0.236   3.761 -0.4822  0.8183  2.9535
 2267SOL    HW3 8841   5.192   0.088   3.784  0.5187  0.8448  2.3153
 2267SOL    MW4 8842   5.142   0.154   3.758 -0.0710 -0.0668 -1.1315
 2268SOL     OW 8843   5.321   2.999   5.191  0.5542  0.8875  0.8522
 2268SOL    HW2 8844   5.395   2.946   5.219 -0.5241 -1.1206  0.1407
 2268SOL    HW3 8845   5.245   2.941   5.202 -0.9223  2.8441  1.5230
 2268SOL    MW4 8846   5.321   2.984   5.197 -0.8962  0.7508  0.0610
 2269SOL     OW 8847   1.007   3.840   2.873  0.3265 -0.2818 -0.7433
 2269SOL    HW2 8848   0.922   3.803   2.896 -0.1215 -0.0933 -2.0143
 2269SOL    HW3 8849   1.051   3.770   2.824  1.3650 -0.7770  0.8509
 2269SOL    MW4 8850   1.001   3.826   2.869 -0.6704 -0.1855  0.2015
 2270SOL     OW 8851   1.624   6.088   0.442  0.2338 -0.1518 -0.0788
 2270SOL    HW2 8852   1.542   6.038   0.447  0.8938 -1.3228 -0.4031
 2270SOL    HW3 8853   1.685   6.038   0.496  1.0837 -0.0424 -0.9055
 2270SOL    MW4 8854   1.621   6.075   0.449 -0.4612 -0.0878  0.7359
 2271SOL     OW 8855   3.804   0.726   3.953  0.2625 -0.0222  0.4609
 2271SOL    HW2 8856   3.729   0.666   3.949  0.6793 -0.6463  1.4708
 2271SOL    HW3 8857   3.841   0.712   4.040  0.6078  1.4413  0.5810
 2271SOL    MW4 8858   3.799   0.716   3.964 -0.0571  0.2088 -0.1481
 2272SOL     OW 8859   1.092   3.278   1.528  0.4595 -0.3123  0.1457
 2272SOL    HW2 8860   1.044   3.341   1.475  2.1584  1.0448  0.1538
 2272SOL    HW3 8861   1.093   3.316   1.616 -0.6665 -1.6074  0.7559
 2272SOL    MW4 8862   1.086   3.291   1.533 -0.3538  0.3152  0.0731
 2273SOL     OW 8863   4.340   3.364   4.938 -0.0041  0.2217  0.1238
 2273SOL    HW2 8864   4.424   3.398   4.907  0.3765  0.3000  1.2267
 2273SOL    HW3 8865   4.344   3.372   5.033 -1.8153  1.5400  0.1383
 2273SOL    MW4 8866   4.352   3.369   4.946 -0.0698  0.0673  0.3773
 2274SOL     OW 8867   5.432   5.347   4.921  0.5159  0.0633 -0.2248
 2274SOL    HW2 8868   5.474   5.424   4.958 -0.9673  0.8254 -0.0697
 2274SOL    HW3 8869   5.492   5.275   4.939  0.9789  0.8394  1.4338
 2274SOL    MW4 8870   5.445   5.348   4.928  0.1308 -0.1569  0.4592
 2275SOL     OW 8871   2.572   3.143   1.176  0.2145  0.2398 -0.2729
 2275SOL    HW2 8872   2.509   3.124   1.106 -1.0953  0.6846  0.7508
 2275SOL    HW3 8873   2.546   3.086   1.248 -0.3957  1.9341  0.9225
 2275SOL    MW4 8874   2.560   3.133   1.176  0.0124  0.3402 -0.5640
 2276SOL     OW 8875   1.440   0.459   2.546 -0.5179 -0.5832 -0.2488
 2276SOL    HW2 8876   1.423   0.497   2.633 -0.0917 -0.1650 -0.3417
 2276SOL    HW3 8877   1.459   0.367   2.563  0.1586 -0.3734  0.1708
 2276SOL    MW4 8878   1.440   0.452   2.560 -0.1202 -0.3233  0.2467
 2277SOL     OW 8879   0.032   0.034   4.650 -0.1268  0.3257  0.4324
 2277SOL    HW2 8880  -0.049   0.031   4.702 -0.0634  3.2654  0.8391
 2277SOL    HW3 8881   0.002   0.033   4.559 -0.4729 -0.7405  0.5472
 2277SOL    MW4 8882   0.017   0.033   4.645 -0.3325  0.8806 -0.0207
 2278SOL     OW 8883   6.087   5.036   6.271  0.3445 -0.5508  0.5675
 2278SOL    HW2 8884   6.053   4.954   6.233  0.1036 -0.1380 -0.1326
 2278SOL    HW3 8885   6.178   5.038   6.244 -0.1151  0.3156 -1.0468
 2278SOL    MW4 8886   6.094   5.025   6.262  0.6001 -0.3146  0.0998
 2279SOL     OW 8887   4.638   2.235   0.053  0.6516 -0.0886 -0.2734
 2279SOL    HW2 8888   4.699   2.168   0.084  2.7170  1.4246 -0.7895
 2279SOL    HW3 8889   4.677   2.267  -0.028 -1.0338  0.7465 -0.7960
 2279SOL    MW4 8890   4.651   2.231   0.046  0.2146  0.4103  0.1965
 2280SOL     OW 8891   5.842   5.111   4.228  0.1904  0.2955 -0.6343
 2280SOL    HW2 8892   5.913   5.174   4.215 -0.5919  0.9890 -1.7756
 2280SOL    HW3 8893   5.874   5.051   4.295  0.9372  1.9565  0.5528
 2280SOL    MW4 8894   5.855   5.111   4.235  0.0828 -0.5918  0.5125
 2281SOL     OW 8895   3.126   2.882   3.121  0.1141  0.3696 -0.4442
 2281SOL    HW2 8896   3.070   2.908   3.194 -2.6650  0.3593 -2.3996
 2281SOL    HW3 8897   3.192   2.951   3.114  0.2320  0.5302  1.7800
 2281SOL    MW4 8898   3.127   2.894   3.130  0.3471 -0.1106 -0.0952
 2282SOL     OW 8899   5.463   3.320   1.641  0.0369 -0.4149 -0.6903
 2282SOL    HW2 8900   5.416   3.239   1.658 -0.6530  0.2442  0.7327
 2282SOL    HW3 8901   5.430   3.381   1.707  2.1311  0.3956 -0.3138
 2282SOL    MW4 8902   5.452   3.318   1.652  0.1511  0.3661 -0.1310
 2283SOL     OW 8903   3.186   3.302   4.444 -0.0496 -0.3116 -0.0979
 2283SOL    HW2 8904   3.101   3.291   4.403  0.1103  0.1894 -0.5720
 2283SOL    HW3 8905   3.249   3.275   4.378  0.1255 -2.3102  0.8150
 2283SOL    MW4 8906   3.184   3.297   4.430 -0.5178 -0.1516 -0.5592
 2284SOL     OW 8907   0.081   1.925   0.458  0.0933  0.1586  0.1705
 2284SOL    HW2 8908   0.005   1.961   0.504 -1.4564 -0.6776 -1.6100
 2284SOL    HW3 8909   0.080   1.832   0.478  0.0160 -0.0334 -0.6646
 2284SOL    MW4 8910   0.070   1.917   0.466 -0.1708 -0.1192  0.4994
 2285SOL     OW 8911   5.992   1.221   2.482  0.0006 -0.3506  0.0698
 2285SOL    HW2 8912   5.995   1.310   2.445  1.3717 -0.1587  0.6063
 2285SOL    HW3 8913   6.003   1.233   2.576 -0.2155 -1.0756  0.1966
 2285SOL    MW4 8914   5.994   1.234   2.489  0.0346 -0.3369 -0.3045
 2286SOL     OW 8915   2.750   1.918   2.128 -0.1446  0.7621 -0.0408
 2286SOL    HW2 8916   2.777   1.846   2.072 -0.0532  0.0047  0.9619
 2286SOL    HW3 8917   2.688   1.968   2.075 -0.6594 -0.3855 -0.5307
 2286SOL    MW4 8918   2.746   1.915   2.114  0.6621 -0.6906 -0.0028
 2287SOL     OW 8919   2.949   5.301   0.069 -0.1526  0.1453  0.0509
 2287SOL    HW2 8920   2.917   5.236   0.132 -1.8306 -0.1939 -1.0863
 2287SOL    HW3 8921   3.017   5.349   0.117 -0.7648 -0.6560  1.8185
 2287SOL    MW4 8922   2.954   5.298   0.084  0.2231 -0.1148 -0.1187
 2288SOL     OW 8923   5.091   2.564   2.502  0.2557 -0.2104  0.1303
 2288SOL    HW2 8924   5.167   2.529   2.548  1.6500 -0.0632 -1.9396
 2288SOL    HW3 8925   5.041   2.487   2.474  1.4521 -0.4834 -1.3695
 2288SOL    MW4 8926   5.094   2.549   2.504 -0.2998  0.0500  0.5217
 2289SOL     OW 8927   3.569   3.690   6.071  0.0836  0.2034 -0.2233
 2289SOL    HW2 8928   3.505   3.667   6.138  1.3898 -0.7818  0.7328
 2289SOL    HW3 8929   3.572   3.785   6.072 -2.6155  0.3773 -1.5271
 2289SOL    MW4 8930   3.561   3.699   6.080  0.0131 -0.5088  0.1628
 2290SOL     OW 8931   4.905   3.238   0.763 -0.2352 -0.1507 -0.4102
 2290SOL    HW2 8932   4.902   3.246   0.668 -0.2115  1.9496 -0.2790
 2290SOL    HW3 8933   4.978   3.294   0.790 -2.5538  2.4465  1.0529
 2290SOL    MW4 8934   4.914   3.246   0.754  0.2098  0.8173  1.0238
 2291SOL     OW 8935   2.809   1.146   1.203 -0.3769  0.5980 -0.6961
 2291SOL    HW2 8936   2.843   1.058   1.217 -0.0958  0.3747 -2.4670
 2291SOL    HW3 8937   2.886   1.198   1.181 -0.5431  1.2940  0.3280
 2291SOL    MW4 8938   2.824   1.141   1.202 -0.2726  0.0520  0.2936
 2292SOL     OW 8939   4.099   2.331   0.938 -0.4337 -0.6328 -1.2265
 2292SOL    HW2 8940   4.038   2.329   1.011  0.3086  0.6001 -0.5538
 2292SOL    HW3 8941   4.083   2.415   0.895  1.2102  0.0029 -0.6547
 2292SOL    MW4 8942   4.089   2.342   0.942 -0.4173  0.0578  0.6822
 2293SOL     OW 8943   0.274   4.811   5.901 -0.3981  0.5073 -0.2973
 2293SOL    HW2 8944   0.320   4.771   5.975  2.1965  0.4411 -1.8396
 2293SOL    HW3 8945   0.293   4.904   5.908 -1.8706  0.8083  0.1972
 2293SOL    MW4 8946   0.282   4.818   5.912 -0.5943 -0.1624 -0.4917
 2294SOL     OW 8947   1.711   3.183   0.217  0.6981  0.4006 -0.0091
 2294SOL    HW2 8948   1.668   3.206   0.134  0.7005  2.1702  0.4301
 2294SOL    HW3 8949   1.640   3.146   0.271  0.0812  1.6608  0.0854
 2294SOL    MW4 8950   1.696   3.181   0.214  0.2769 -0.0682 -0.2436
 2295SOL     OW 8951   4.926   5.515   6.009 -0.0837 -0.1456 -0.5028
 2295SOL    HW2 8952   4.883   5.589   5.965 -0.4600 -0.2361 -0.2921
 2295SOL    HW3 8953   5.001   5.494   5.953 -0.2795  0.0551 -0.8452
 2295SOL    MW4 8954   4.930   5.522   5.996 -0.4408  0.3200  0.2685
 2296SOL     OW 8955   1.132   0.971   3.936  0.0105 -0.4866 -0.3201
 2296SOL    HW2 8956   1.116   1.053   3.890  0.5291 -0.1437  0.1050
 2296SOL    HW3 8957   1.201   0.928   3.886 -1.0667 -1.2351 -1.2356
 2296SOL    MW4 8958   1.139   0.976   3.923  0.5654  0.1595  0.3714
 2297SOL     OW 8959   4.083   5.834   1.817  0.4022  0.8107  0.3638
 2297SOL    HW2 8960   4.140   5.880   1.756  1.1534 -0.6795 -0.0900
 2297SOL    HW3 8961   4.106   5.742   1.807 -0.0416  0.4509  2.2920
 2297SOL    MW4 8962   4.094   5.828   1.808  0.0506 -0.4590  0.0484
 2298SOL     OW 8963   4.118   2.893   5.574 -0.4063  0.2059 -0.4733
 2298SOL    HW2 8964   4.167   2.891   5.492  1.8156 -0.4211  0.7765
 2298SOL    HW3 8965   4.168   2.836   5.633 -0.5270  2.5041  2.0347
 2298SOL    MW4 8966   4.131   2.885   5.571 -0.1425 -0.2422  0.0108
 2299SOL     OW 8967   1.563   1.109   6.054  0.3490  0.1213  0.0743
 2299SOL    HW2 8968   1.541   1.165   6.128 -0.7901  0.9912 -0.8843
 2299SOL    HW3 8969   1.566   1.169   5.979  0.1732 -0.9340 -0.7968
 2299SOL    MW4 8970   1.561   1.124   6.054  0.0193  1.0235  0.0974
 2300SOL     OW 8971   0.141   3.211   6.254 -0.0936  0.0086  0.3483
 2300SOL    HW2 8972   0.104   3.136   6.208 -0.7578  0.9602 -0.7466
 2300SOL    HW3 8973   0.203   3.173   6.316  2.2699 -1.3596 -2.5434
 2300SOL    MW4 8974   0.144   3.196   6.256  0.3084  0.4947 -0.0038
 2301SOL     OW 8975   5.285   2.429   2.209  0.1211  0.3547 -0.2700
 2301SOL    HW2 8976   5.260   2.521   2.208  1.9837  0.9182 -1.9121
 2301SOL    HW3 8977   5.373   2.428   2.245 -1.1497 -1.2827  3.2198
 2301SOL    MW4 8978   5.293   2.441   2.213 -0.1862 -0.1504 -0.4826
 2302SOL     OW 8979   5.147   4.905   1.514  0.2004  0.1815 -0.2515
 2302SOL    HW2 8980   5.235   4.932   1.485  0.4668 -0.3774  0.0290
 2302SOL    HW3 8981   5.088   4.949   1.452  0.6489  0.9200 -0.1799
 2302SOL    MW4 8982   5.151   4.915   1.502  0.0857  0.5191 -0.1925
 2303SOL     OW 8983   1.397   0.535   0.054  0.2506  0.5642 -0.2019
 2303SOL    HW2 8984   1.409   0.569   0.142  0.5073  2.0654 -0.7913
 2303SOL    HW3 8985   1.486   0.531   0.017  0.6428 -3.3412  0.6826
 2303SOL    MW4 8986   1.411   0.539   0.060 -0.5374 -0.3052 -0.3623
 2304SOL     OW 8987   2.451   4.010   1.451 -0.1102 -0.1651  0.4223
 2304SOL    HW2 8988   2.463   4.024   1.545 -2.9464 -0.6568  0.9658
 2304SOL    HW3 8989   2.471   3.917   1.438 -0.0910 -0.1858  0.6046
 2304SOL    MW4 8990   2.455   3.999   1.461 -0.1531 -0.4851 -0.8268
 2305SOL     OW 8991   3.601   3.817   1.472  0.0435 -0.7026 -0.1899
 2305SOL    HW2 8992   3.694   3.826   1.496 -0.2751  2.8017  0.3920
 2305SOL    HW3 8993   3.601   3.817   1.377  0.6726 -0.0152 -0.2052
 2305SOL    MW4 8994   3.613   3.818   1.463  0.4092  0.2794 -0.3252
 2306SOL     OW 8995   4.687   0.139   2.600  0.7850  0.2291 -0.3735
 2306SOL    HW2 8996   4.743   0.061   2.595 -0.4548 -0.8965  1.6516
 2306SOL    HW3 8997   4.623   0.126   2.530  0.3265 -0.8539  0.2120
 2306SOL    MW4 8998   4.686   0.127   2.590 -0.6177  0.2005 -0.2267
 2307SOL     OW 8999   2.688   1.064   5.145  0.4250  0.0180  0.1794
 2307SOL    HW2 9000   2.624   1.095   5.209  0.5150  1.4777 -0.3889
 2307SOL    HW3 9001   2.672   1.120   5.068  3.4466  1.6101  0.5660
 2307SOL    MW4 9002   2.677   1.076   5.143  0.0456 -0.0705  0.0378
 2308SOL     OW 9003   1.402   4.530   5.127  0.2106 -0.3758  0.2855
 2308SOL    HW2 9004   1.442   4.469   5.066 -1.4255 -2.6939  1.3767
 2308SOL    HW3 9005   1.470   4.595   5.145  1.4559 -0.8585 -2.2528
 2308SOL    MW4 9006   1.416   4.531   5.122 -0.2833  0.7566  0.2166
 2309SOL     OW 9007   6.252   3.287   2.465  0.3732  0.3589 -0.4364
 2309SOL    HW2 9008   6.289   3.227   2.529  0.8627 -0.3303 -1.3465
 2309SOL    HW3 9009   6.308   3.364   2.469  0.6064  0.1825 -0.2744
 2309SOL    MW4 9010   6.264   3.289   2.474 -0.1394  0.4265  0.0311
 2310SOL     OW 9011   0.185   2.349   4.232  0.0056  0.1505  0.0215
 2310SOL    HW2 9012   0.278   2.336   4.250  0.1227  1.2980  0.3348
 2310SOL    HW3 9013   0.174   2.321   4.141  0.7686  0.4708 -0.1768
 2310SOL    MW4 9014   0.195   2.344   4.222 -0.1631  0.0536  0.5819
 2311SOL     OW 9015   1.087   1.254   0.457 -0.0543  0.2422  0.7537
 2311SOL    HW2 9016   1.134   1.176   0.488  1.9325  0.5701 -1.1540
 2311SOL    HW3 9017   1.082   1.243   0.362 -0.8155  1.8906  0.5645
 2311SOL    MW4 9018   1.093   1.242   0.449 -0.3944  0.1715 -0.2097
 2312SOL     OW 9019   0.744   2.053   0.875 -0.4617  0.3311 -0.2511
 2312SOL    HW2 9020   0.749   2.143   0.845 -0.9537  0.4841  0.1152
 2312SOL    HW3 9021   0.785   2.055   0.962  0.6280 -0.0375 -0.7388
 2312SOL    MW4 9022   0.750   2.065   0.883  0.0582 -0.5221  0.1490
 2313SOL     OW 9023   0.419   4.481   0.536 -0.5536 -0.2116  0.2013
 2313SOL    HW2 9024   0.462   4.396   0.531  1.4355  0.7048  0.8853
 2313SOL    HW3 9025   0.376   4.482   0.622  1.1000  0.2114  1.0460
 2313SOL    MW4 9026   0.419   4.470   0.546  0.8885 -0.2890  0.1237
 2314SOL     OW 9027   2.965   2.650   4.872 -0.4418  0.0993  0.3846
 2314SOL    HW2 9028   2.914   2.572   4.893  1.0072 -0.9336  0.1707
 2314SOL    HW3 9029   2.899   2.719   4.860 -1.7845 -1.2071 -0.0217
 2314SOL    MW4 9030   2.950   2.649   4.873 -0.3670  0.5568 -0.0299
 2315SOL     OW 9031   2.703   6.093   2.486  0.0608 -0.0905  0.8363
 2315SOL    HW2 9032   2.737   6.181   2.496  1.9860 -0.6429 -0.3867
 2315SOL    HW3 9033   2.743   6.060   2.406 -2.4881 -1.2553 -0.0543
 2315SOL    MW4 9034   2.713   6.100   2.477 -0.3456  0.2861 -0.6241
 2316SOL     OW 9035   5.931   3.324   6.002 -0.0839 -0.2596 -0.3140
 2316SOL    HW2 9036   5.977   3.332   6.086  0.5031  3.5135 -0.8315
 2316SOL    HW3 9037   5.996   3.284   5.944  0.6183  0.0003  0.2669
 2316SOL    MW4 9038   5.946   3.320   6.006 -0.1134  0.6304 -0.0608
 2317SOL     OW 9039   3.004   3.747   5.754 -0.1147  0.1255 -0.6079
 2317SOL    HW2 9040   3.076   3.697   5.715  0.0655 -0.1245  0.0314
 2317SOL    HW3 9041   2.932   3.738   5.691  0.8799  1.7061 -2.0565
 2317SOL    MW4 9042   3.004   3.739   5.740 -0.2149  0.4487 -0.1641
 2318SOL     OW 9043   4.995   0.487   0.402  0.2025 -0.3611  0.5217
 2318SOL    HW2 9044   5.062   0.426   0.370  0.7217 -0.2903  1.4309
 2318SOL    HW3 9045   4.955   0.442   0.476 -1.0776 -0.5777 -0.2750
 2318SOL    MW4 9046   4.999   0.473   0.407 -0.7014  0.2146 -0.8006
 2319SOL     OW 9047   6.366   4.122   2.440 -0.0540  0.5400  0.1577
 2319SOL    HW2 9048   6.450   4.159   2.468 -0.2585  0.8543  0.3542
 2319SOL    HW3 9049   6.358   4.150   2.348 -0.0625  0.7176  0.2131
 2319SOL    MW4 9050   6.376   4.131   2.431  0.2534  0.3338 -0.6308
 2320SOL     OW 9051   4.597   5.179   4.308 -0.0790 -0.7042  0.1317
 2320SOL    HW2 9052   4.582   5.160   4.401  2.1110 -1.0020  0.4936
 2320SOL    HW3 9053   4.668   5.243   4.308  0.5693 -1.3688 -1.3536
 2320SOL    MW4 9054   4.605   5.185   4.320  0.2866 -0.1364 -0.4001
 2321SOL     OW 9055   6.319   3.234   5.271  0.1650  0.4761 -0.1907
 2321SOL    HW2 9056   6.317   3.289   5.193  0.6510  1.2537  0.3337
 2321SOL    HW3 9057   6.354   3.151   5.240 -2.2027 -0.1819 -1.3576
 2321SOL    MW4 9058   6.323   3.230   5.256  0.0591 -0.0225  0.5268
 2322SOL     OW 9059   2.334   2.888   5.554 -0.3389  0.1560 -0.4986
 2322SOL    HW2 9060   2.411   2.844   5.589 -0.3985  1.9487  2.1751
 2322SOL    HW3 9061   2.368   2.945   5.485  0.9282  1.4606  1.1177
 2322SOL    MW4 9062   2.348   2.890   5.549  0.0207  0.0191  0.0497
 2323SOL     OW 9063   4.683   1.152   5.003 -0.2382  0.1645 -0.1789
 2323SOL    HW2 9064   4.626   1.133   4.928  0.2006  0.5697 -0.6225
 2323SOL    HW3 9065   4.770   1.124   4.974 -0.1141  0.0607  0.2872
 2323SOL    MW4 9066   4.687   1.145   4.989  0.1300 -0.2074  0.1982
 2324SOL     OW 9067   0.261   2.405   2.258 -0.0631  0.6582  0.9727
 2324SOL    HW2 9068   0.289   2.496   2.271 -0.2246  1.0732 -1.1909
 2324SOL    HW3 9069   0.175   2.400   2.299  0.7186  0.9463  2.7158
 2324SOL    MW4 9070   0.254   2.417   2.265  0.1300  0.0440  0.7030
 2325SOL     OW 9071   2.719   0.710   3.483  0.3548  0.1606  0.2589
 2325SOL    HW2 9072   2.711   0.700   3.388  1.3922 -0.5724  0.2430
 2325SOL    HW3 9073   2.811   0.728   3.498  0.8952 -2.9599  1.3860
 2325SOL    MW4 9074   2.730   0.711   3.472 -0.0676 -0.0389 -0.2571
 2326SOL     OW 9075   4.561   0.714   0.753  0.0587 -0.1941 -0.1997
 2326SOL    HW2 9076   4.503   0.703   0.828  0.3484  3.4609  0.7244
 2326SOL    HW3 9077   4.646   0.733   0.791  0.4753  0.5578 -1.4407
 2326SOL    MW4 9078   4.564   0.715   0.768 -0.0711  0.2552  0.1133
 2327SOL     OW 9079   2.036   3.763   6.055  0.0301  0.1470  0.2403
 2327SOL    HW2 9080   2.115   3.771   6.109 -0.3002  0.2042  0.7130
 2327SOL    HW3 9081   1.984   3.840   6.078 -0.2694 -0.0112  0.0887
 2327SOL    MW4 9082   2.040   3.775   6.065  0.4743 -0.4173 -0.1588
 2328SOL     OW 9083   5.368   4.115   0.491 -0.0666  0.1893 -0.2626
 2328SOL    HW2 9084   5.278   4.147   0.496  0.3866  1.7180 -1.3191
 2328SOL    HW3 9085   5.363   4.039   0.434 -0.9805 -1.0672  1.3806
 2328SOL    MW4 9086   5.355   4.109   0.484  0.2729 -0.1770 -0.1002
 2329SOL     OW 9087   0.549   5.520   5.109 -0.2071  0.5762  0.2446
 2329SOL    HW2 9088   0.570   5.529   5.202 -0.6602 -0.2842  0.4482
 2329SOL    HW3 9089   0.524   5.608   5.080  1.0367  1.0733  0.6502
 2329SOL    MW4 9090   0.548   5.533   5.117 -0.2922  0.8178 -0.2016
 2330SOL     OW 9091   1.231   1.459   3.741 -0.0590  0.4120  0.3796
 2330SOL    HW2 9092   1.193   1.372   3.733  1.6670 -0.3402  0.0127
 2330SOL    HW3 9093   1.226   1.496   3.653  1.4474 -0.3211 -0.0473
 2330SOL    MW4 9094   1.225   1.453   3.728  0.1503  0.2607  0.6117
 2331SOL     OW 9095   1.377   2.156   2.342 -0.3089  0.6344 -0.2296
 2331SOL    HW2 9096   1.348   2.127   2.429  0.4729  0.1497 -0.1234
 2331SOL    HW3 9097   1.405   2.076   2.298  0.0417  0.9769 -0.6436
 2331SOL    MW4 9098   1.377   2.142   2.348  0.1685  0.3842 -0.0437
 2332SOL     OW 9099   3.457   2.413   5.075  0.0649 -0.0197  0.6325
 2332SOL    HW2 9100   3.516   2.384   5.006 -2.7001 -1.1361 -1.4680
 2332SOL    HW3 9101   3.398   2.475   5.031 -1.6906 -0.6576  1.9822
 2332SOL    MW4 9102   3.457   2.417   5.060  0.1364 -0.3795  0.1904
 2333SOL     OW 9103   0.385   2.196   2.411  0.0257 -0.5578 -0.1037
 2333SOL    HW2 9104   0.336   2.274   2.386 -2.9288 -3.1377 -3.6238
 2333SOL    HW3 9105   0.448   2.183   2.340  0.0284 -1.6656  0.0734
 2333SOL    MW4 9106   0.386   2.204   2.398 -0.5490 -0.5845  0.1874
 2334SOL     OW 9107   5.371   4.793   2.107  0.6203  0.6928 -0.3233
 2334SOL    HW2 9108   5.306   4.861   2.086  1.1044  1.5629  0.8620
 2334SOL    HW3 9109   5.413   4.824   2.187 -0.0062 -1.6459  0.9970
 2334SOL    MW4 9110   5.368   4.806   2.114  0.2197 -0.0460  0.0372
 2335SOL     OW 9111   1.729   0.164   2.764 -0.0803  0.6992 -0.6849
 2335SOL    HW2 9112   1.758   0.232   2.824 -0.0088 -0.1324  0.2407
 2335SOL    HW3 9113   1.702   0.091   2.820  2.2751 -1.0361 -1.6266
 2335SOL    MW4 9114   1.729   0.163   2.779 -0.9933  0.5148  0.2603
 2336SOL     OW 9115   5.304   5.137   5.595 -0.3406  0.0892 -0.0715
 2336SOL    HW2 9116   5.301   5.216   5.541 -0.3253 -1.0794 -1.8368
 2336SOL    HW3 9117   5.225   5.089   5.573 -0.3921 -0.3806  1.0540
 2336SOL    MW4 9118   5.293   5.141   5.585 -0.0657 -0.1573  0.6822
 2337SOL     OW 9119   1.623   5.761   5.701 -0.2008  0.8171  0.3830
 2337SOL    HW2 9120   1.599   5.670   5.686  1.4279  0.5211 -0.6980
 2337SOL    HW3 9121   1.539   5.807   5.711 -1.0383 -1.0217  2.6998
 2337SOL    MW4 9122   1.609   5.755   5.700 -0.3142  0.1417 -0.6019
 2338SOL     OW 9123   5.893   3.715   3.839 -0.3819  0.0896  0.0602
 2338SOL    HW2 9124   5.872   3.631   3.880 -2.7963  0.8917  0.6502
 2338SOL    HW3 9125   5.903   3.695   3.746 -0.1925 -0.9549  0.2943
 2338SOL    MW4 9126   5.892   3.702   3.832  0.6901 -0.2719 -0.0588
 2339SOL     OW 9127   1.504   5.484   0.218 -0.0197  0.5008  0.6419
 2339SOL    HW2 9128   1.420   5.446   0.244  0.4190 -0.2515  0.9777
 2339SOL    HW3 9129   1.566   5.411   0.224  0.5472  0.9016 -0.1839
 2339SOL    MW4 9130   1.501   5.469   0.222  0.6757  0.3663  0.0670
 2340SOL     OW 9131   2.896   2.574   1.411  0.2587  0.0116  0.0275
 2340SOL    HW2 9132   2.864   2.544   1.326  1.6419  0.8432 -0.8418
 2340SOL    HW3 9133   2.829   2.635   1.442 -0.2372 -0.2643 -0.4888
 2340SOL    MW4 9134   2.883   2.578   1.404 -0.3658 -0.6050 -0.2645
 2341SOL     OW 9135   5.175   1.720   5.713 -0.2409 -0.0899 -0.2784
 2341SOL    HW2 9136   5.087   1.721   5.676 -0.1012 -1.4461 -0.6973
 2341SOL    HW3 9137   5.202   1.812   5.713 -1.2897  0.2362 -1.0107
 2341SOL    MW4 9138   5.167   1.732   5.708 -0.0058  0.3211  0.1188
 2342SOL     OW 9139   6.145   1.682   3.011  0.0301  0.0136  0.2589
 2342SOL    HW2 9140   6.172   1.590   3.010  2.0898  0.5613 -0.6499
 2342SOL    HW3 9141   6.163   1.713   2.922 -2.5624  0.8123 -0.0546
 2342SOL    MW4 9142   6.151   1.674   2.999  0.0815  0.5331 -0.4046
 2343SOL     OW 9143   2.000   2.378   2.746 -0.2991 -0.1442  0.2583
 2343SOL    HW2 9144   1.976   2.338   2.662  0.2203  0.4113 -0.1648
 2343SOL    HW3 9145   1.920   2.418   2.778 -0.5138 -0.4086  0.0585
 2343SOL    MW4 9146   1.986   2.378   2.739  0.0939 -0.2289  0.1525
 2344SOL     OW 9147   3.014   5.015   3.442 -0.4597  0.0229 -0.1267
 2344SOL    HW2 9148   3.065   4.940   3.473  2.1271  0.9621 -1.7433
 2344SOL    HW3 9149   3.038   5.087   3.501 -0.2753  0.3524 -0.5928
 2344SOL    MW4 9150   3.024   5.015   3.454  0.2945 -0.2096 -0.0466
 2345SOL     OW 9151   5.913   0.046   0.829 -0.3047  0.5139 -0.3754
 2345SOL    HW2 9152   5.907   0.115   0.763 -0.5100 -0.4898 -1.4315
 2345SOL    HW3 9153   5.834  -0.006   0.817  0.9632 -1.3361 -1.2581
 2345SOL    MW4 9154   5.902   0.048   0.819 -0.7041 -0.0939  0.2820
 2346SOL     OW 9155   2.275   4.301   5.429 -0.2081 -0.0482  0.6082
 2346SOL    HW2 9156   2.368   4.278   5.435  0.1095  1.0998  0.2717
 2346SOL    HW3 9157   2.244   4.299   5.519 -0.6790 -3.5448  0.5045
 2346SOL    MW4 9158   2.283   4.298   5.442  0.2931 -0.4838 -0.0205
 2347SOL     OW 9159   3.546   3.289   1.785  0.1094  0.0489 -0.5988
 2347SOL    HW2 9160   3.626   3.240   1.768  0.3176  0.3366 -0.4620
 2347SOL    HW3 9161   3.476   3.233   1.752  0.3367 -0.3686 -0.3805
 2347SOL    MW4 9162   3.547   3.275   1.778  0.5585 -0.4326  0.5631
 2348SOL     OW 9163   2.710   5.946   0.097  0.5069 -0.2647 -0.5456
 2348SOL    HW2 9164   2.704   5.920   0.005  0.9586 -1.1443 -0.3398
 2348SOL    HW3 9165   2.774   6.018   0.097  0.3955 -0.1628 -0.9369
 2348SOL    MW4 9166   2.718   5.952   0.085  0.4406  0.1508 -0.6152
 2349SOL     OW 9167   3.297   5.127   4.044 -0.0697 -0.4042  0.2331
 2349SOL    HW2 9168   3.344   5.140   3.962 -0.3846 -1.2779 -0.0963
 2349SOL    HW3 9169   3.253   5.043   4.034 -2.7353  0.9107  0.0518
 2349SOL    MW4 9170   3.298   5.118   4.032 -0.4021  0.4954  0.1076
 2350SOL     OW 9171   0.664   4.626   1.003  0.2209  0.0262 -0.2500
 2350SOL    HW2 9172   0.759   4.624   1.006  0.1752 -0.8031  2.0336
 2350SOL    HW3 9173   0.644   4.706   0.953  2.1274  1.9778  1.8731
 2350SOL    MW4 9174   0.673   4.636   0.997 -0.3630  0.8255 -0.3487
 2351SOL     OW 9175   2.001   1.824   6.163 -0.0476  0.1771 -0.0294
 2351SOL    HW2 9176   1.918   1.792   6.198  0.2433  0.5159  1.0175
 2351SOL    HW3 9177   2.068   1.782   6.217  0.3857  1.4926  0.4945
 2351SOL    MW4 9178   1.999   1.814   6.175 -0.1062 -0.6255 -0.3263
 2352SOL     OW 9179   1.650   4.333   1.613 -0.1684 -0.3913 -0.0080
 2352SOL    HW2 9180   1.698   4.279   1.675  0.5302  0.2399  0.0047
 2352SOL    HW3 9181   1.696   4.322   1.530 -1.0420 -1.1576 -0.4161
 2352SOL    MW4 9182   1.662   4.324   1.610  0.0933 -0.3800  0.2879
 2353SOL     OW 9183   5.215   3.877   4.135 -0.2505 -0.0584  0.6339
 2353SOL    HW2 9184   5.268   3.944   4.092 -0.6808 -0.2495 -0.2150
 2353SOL    HW3 9185   5.156   3.846   4.067 -0.5995 -0.7393  1.2340
 2353SOL    MW4 9186   5.214   3.882   4.121  0.4601  0.1901 -0.3342
 2354SOL     OW 9187   1.339   3.426   3.434 -0.2922 -0.4495  0.0671
 2354SOL    HW2 9188   1.271   3.493   3.428 -0.5061 -0.7042 -0.4092
 2354SOL    HW3 9189   1.300   3.349   3.394  0.6289 -0.3196 -1.1478
 2354SOL    MW4 9190   1.325   3.425   3.428 -0.8961 -0.0930  0.2535
 2355SOL     OW 9191   4.778   3.459   4.687  0.2229 -0.4583  0.4962
 2355SOL    HW2 9192   4.858   3.512   4.691 -0.5894  0.7327  2.0856
 2355SOL    HW3 9193   4.809   3.369   4.680  1.6518  0.1134 -1.5985
 2355SOL    MW4 9194   4.793   3.454   4.686  0.0550  0.0983 -0.0072
 2356SOL     OW 9195   0.552   0.144   0.204  0.1848 -0.7259  0.0491
 2356SOL    HW2 9196   0.598   0.226   0.189 -1.8871  0.7174  1.0919
 2356SOL    HW3 9197   0.583   0.086   0.135  2.6440  0.4830  0.0242
 2356SOL    MW4 9198   0.563   0.147   0.193  0.1145  0.2503  0.3043
 2357SOL     OW 9199   2.864   2.612   1.910 -0.0004 -0.8263  0.0289
 2357SOL    HW2 9200   2.789   2.560   1.939 -0.5081 -1.4960 -2.2167
 2357SOL    HW3 9201   2.927   2.546   1.880  0.6136 -0.2213 -0.0113
 2357SOL    MW4 9202   2.862   2.596   1.910 -0.0050  0.6989  0.4196
 2358SOL     OW 9203   4.250   5.229   6.400  0.1607  0.0871  0.2588
 2358SOL    HW2 9204   4.306   5.263   6.469 -1.6276  0.2732  1.6787
 2358SOL    HW3 9205   4.231   5.306   6.345 -1.1062  0.7177  1.5141
 2358SOL    MW4 9206   4.255   5.244   6.402 -0.1672 -0.0821  0.3283
 2359SOL     OW 9207   2.088   0.861   2.750 -0.4405  0.7880 -0.1380
 2359SOL    HW2 9208   2.004   0.896   2.779 -1.0775 -1.1479  0.5667
 2359SOL    HW3 9209   2.065   0.785   2.696  0.8336 -0.1983  0.6333
 2359SOL    MW4 9210   2.074   0.855   2.747 -0.8493 -0.8954 -0.3970
 2360SOL     OW 9211   2.716   6.069   1.547  0.2508 -0.1832 -0.2281
 2360SOL    HW2 9212   2.772   6.022   1.485 -1.0794 -0.9753 -0.8693
 2360SOL    HW3 9213   2.736   6.161   1.531  2.9084 -0.4432  1.0549
 2360SOL    MW4 9214   2.726   6.075   1.537  0.1508  0.2567 -0.0781
 2361SOL     OW 9215   2.046   0.735   3.326 -0.0460  0.2758 -0.2760
 2361SOL    HW2 9216   1.986   0.742   3.400  0.3729  0.3865  0.0554
 2361SOL    HW3 9217   2.012   0.662   3.274 -2.0124  1.9481 -1.5062
 2361SOL    MW4 9218   2.034   0.726   3.329 -0.0273  1.0435  0.0068
 2362SOL     OW 9219   5.538   5.447   2.147  0.1499 -0.8827  0.2626
 2362SOL    HW2 9220   5.463   5.395   2.177 -1.9607  1.2626 -1.0248
 2362SOL    HW3 9221   5.530   5.447   2.051  0.1673  1.5769  0.2062
 2362SOL    MW4 9222   5.527   5.440   2.138 -0.2913  0.6015 -0.1453
 2363SOL     OW 9223   4.563   1.446   3.222  0.2187  0.5445 -0.1298
 2363SOL    HW2 9224   4.468   1.435   3.222  0.0355  2.0073  0.2409
 2363SOL    HW3 9225   4.592   1.402   3.302 -0.2399  0.8305  0.1983
 2363SOL    MW4 9226   4.554   1.438   3.233 -0.3228 -0.4795  0.2692
 2364SOL     OW 9227   4.521   5.720   0.710  0.0260 -0.0040 -0.7703
 2364SOL    HW2 9228   4.432   5.690   0.725 -0.1400  0.7987 -0.1064
 2364SOL    HW3 9229   4.573   5.676   0.776  0.0387 -0.0462 -0.8080
 2364SOL    MW4 9230   4.516   5.711   0.720 -0.7269  0.0970  0.0201
 2365SOL     OW 9231   4.121   1.325   0.614  0.6592  0.2110  0.0972
 2365SOL    HW2 9232   4.165   1.405   0.644  1.5194 -0.7674  1.5517
 2365SOL    HW3 9233   4.033   1.330   0.653  0.6171  0.5606 -0.0374
 2365SOL    MW4 9234   4.115   1.336   0.623  0.4328  0.0101 -0.1055
 2366SOL     OW 9235   5.343   3.048   0.527  0.2358 -0.1627  0.1934
 2366SOL    HW2 9236   5.311   3.130   0.563  1.6358  0.1208  0.8844
 2366SOL    HW3 9237   5.355   2.991   0.604  1.2299 -0.2887 -0.0358
 2366SOL    MW4 9238   5.341   3.051   0.542 -0.2257 -0.8346  0.2501
 2367SOL     OW 9239   4.543   1.069   1.377  0.3092 -0.1401  0.6443
 2367SOL    HW2 9240   4.505   1.144   1.331 -0.1445  0.2927  1.6790
 2367SOL    HW3 9241   4.632   1.063   1.345  0.5885  1.3152  1.0705
 2367SOL    MW4 9242   4.550   1.078   1.367 -0.7762  0.5245  0.0329
 2368SOL     OW 9243   6.243   5.293   3.071  0.7038  0.0876 -0.1117
 2368SOL    HW2 9244   6.217   5.247   3.151  1.8768 -0.0838  0.1909
 2368SOL    HW3 9245   6.217   5.235   3.000 -1.1395  0.6228  0.0781
 2368SOL    MW4 9246   6.236   5.279   3.072 -0.1302 -0.1584 -0.3591
 2369SOL     OW 9247   4.952   5.938   6.053  0.2602 -0.2964 -0.4959
 2369SOL    HW2 9248   4.974   5.855   6.094 -0.8257 -0.6729 -0.6464
 2369SOL    HW3 9249   4.978   5.928   5.961  2.2348  0.3703 -0.0525
 2369SOL    MW4 9250   4.958   5.926   6.046  0.3456  0.4228  0.2275
 2370SOL     OW 9251   2.987   4.291   3.789 -0.0914 -0.5239  0.3849
 2370SOL    HW2 9252   2.994   4.379   3.825  1.1025 -0.8087  0.8789
 2370SOL    HW3 9253   2.982   4.304   3.694  1.8987  0.0132  0.3221
 2370SOL    MW4 9254   2.987   4.304   3.781 -0.0864  0.1126  0.3932
 2371SOL     OW 9255   4.211   3.862   2.147  0.4642 -0.3338 -0.5266
 2371SOL    HW2 9256   4.219   3.795   2.079 -1.7119 -0.0872 -1.0906
 2371SOL    HW3 9257   4.123   3.897   2.136  0.7767  1.1121  1.1650
 2371SOL    MW4 9258   4.201   3.857   2.136 -0.2640  0.1716 -0.0142
 2372SOL     OW 9259   4.358   6.174   4.766 -0.2718 -0.0205  0.5740
 2372SOL    HW2 9260   4.298   6.220   4.824 -0.0385  0.4688  0.4338
 2372SOL    HW3 9261   4.302   6.133   4.701 -0.4911 -0.0452  0.7756
 2372SOL    MW4 9262   4.343   6.175   4.765 -0.0331 -0.6428 -0.1336
 2373SOL     OW 9263   3.376   5.978   3.018  0.0103  0.2911  0.5751
 2373SOL    HW2 9264   3.292   5.974   2.971  0.3999  1.0389 -0.2281
 2373SOL    HW3 9265   3.429   6.039   2.966  0.3850  1.3608  2.1392
 2373SOL    MW4 9266   3.372   5.986   3.005  0.5738  0.4425  0.4980
 2374SOL     OW 9267   5.200   6.069   2.735  0.1910 -0.3667 -0.1357
 2374SOL    HW2 9268   5.221   5.999   2.796 -0.1442 -0.8223 -0.5368
 2374SOL    HW3 9269   5.241   6.042   2.652 -0.3972 -0.3641 -0.4340
 2374SOL    MW4 9270   5.208   6.056   2.732  0.3036  0.1757  0.0826
 2375SOL     OW 9271   1.423   2.022   2.868  0.0481 -0.1366 -0.0904
 2375SOL    HW2 9272   1.470   1.939   2.871  2.1360  0.9037 -1.4052
 2375SOL    HW3 9273   1.379   2.023   2.783  0.8564  0.4847 -0.5174
 2375SOL    MW4 9274   1.424   2.011   2.857  0.0163 -0.1189 -0.5117
 2376SOL     OW 9275   1.546   4.377   2.982 -0.4227 -0.2841  0.3032
 2376SOL    HW2 9276   1.582   4.292   3.009 -1.8153 -0.7211  0.8904
 2376SOL    HW3 9277   1.600   4.403   2.907  1.3550 -0.6798  1.3762
 2376SOL    MW4 9278   1.558   4.369   2.975  0.3969  0.7970 -0.4102
 2377SOL     OW 9279   1.359   4.494   0.167 -0.1546 -0.0915 -0.1366
 2377SOL    HW2 9280   1.405   4.428   0.116  1.5131 -0.7300  2.0470
 2377SOL    HW3 9281   1.428   4.555   0.195 -1.3133  1.3078 -0.2048
 2377SOL    MW4 9282   1.374   4.493   0.164 -0.0848 -0.1819 -0.1723
 2378SOL     OW 9283   5.992   1.786   5.832 -0.2642 -0.2342  0.7339
 2378SOL    HW2 9284   6.083   1.806   5.810 -0.5161  0.3408  0.1606
 2378SOL    HW3 9285   5.951   1.872   5.847 -1.0020 -0.3809 -0.2586
 2378SOL    MW4 9286   5.998   1.800   5.831  0.6419 -0.0291 -0.3193
 2379SOL     OW 9287   0.092   1.669   5.254  0.8418 -0.3415  0.4017
 2379SOL    HW2 9288   0.020   1.613   5.282  0.4091 -0.6157 -1.1888
 2379SOL    HW3 9289   0.161   1.609   5.226  0.4218 -0.1109 -1.1962
 2379SOL    MW4 9290   0.092   1.654   5.254 -0.3203  0.2808 -0.1067
 2380SOL     OW 9291   1.999   5.459   1.886 -0.4309 -0.4679 -0.4080
 2380SOL    HW2 9292   2.076   5.402   1.894  0.4643  0.8546  0.8264
 2380SOL    HW3 9293   2.026   5.527   1.824  0.0978  1.0112  1.3613
 2380SOL    MW4 9294   2.013   5.460   1.879 -0.6644  0.0042 -0.4485
 2381SOL     OW 9295   0.098   3.828   5.433  0.6342  0.5976  0.6725
 2381SOL    HW2 9296   0.069   3.800   5.520  0.6491  1.8429  1.0895
 2381SOL    HW3 9297   0.175   3.882   5.449  1.3032 -0.0687 -0.2076
 2381SOL    MW4 9298   0.104   3.831   5.446  0.0960 -0.1595  0.1163
 2382SOL     OW 9299   0.431   5.089   1.594  0.3008 -0.1253 -0.3745
 2382SOL    HW2 9300   0.519   5.051   1.593 -0.0956 -1.1162 -2.3099
 2382SOL    HW3 9301   0.375   5.020   1.628  0.1241  0.1700 -0.0549
 2382SOL    MW4 9302   0.436   5.075   1.598  0.0118 -0.0719  0.3144
 2383SOL     OW 9303   2.897   5.502   4.897 -0.2044  0.4874  0.4595
 2383SOL    HW2 9304   2.894   5.495   4.801 -3.0868  1.6175  0.3831
 2383SOL    HW3 9305   2.839   5.432   4.927 -2.6099  2.6617  1.1309
 2383SOL    MW4 9306   2.889   5.492   4.888  0.3924 -0.0355 -0.7490
 2384SOL     OW 9307   4.238   3.784   0.532 -0.2820 -0.6786  0.1835
 2384SOL    HW2 9308   4.238   3.753   0.623  0.2141 -0.2528  0.3306
 2384SOL    HW3 9309   4.280   3.870   0.536 -1.5900  0.0077 -0.2307
 2384SOL    MW4 9310   4.243   3.791   0.544  0.1216  0.5071 -0.2924
 2385SOL     OW 9311   1.491   3.706   2.483 -0.4640  0.3374  0.2019
 2385SOL    HW2 9312   1.582   3.677   2.492 -0.9374 -1.4854 -0.5342
 2385SOL    HW3 9313   1.481   3.774   2.550  1.8248  1.6299 -0.6703
 2385SOL    MW4 9314   1.502   3.711   2.493 -0.5482  0.8445 -0.4937
 2386SOL     OW 9315   4.257   1.490   2.463 -0.0258 -0.4412 -0.2920
 2386SOL    HW2 9316   4.271   1.535   2.546  0.4303 -2.5346  0.8493
 2386SOL    HW3 9317   4.337   1.506   2.413  0.3925 -0.4863  0.3469
 2386SOL    MW4 9318   4.269   1.498   2.467  0.5502 -0.2250  0.3708
 2387SOL     OW 9319   4.423   0.496   3.783  0.7762  0.0908 -0.0853
 2387SOL    HW2 9320   4.463   0.432   3.724  2.3674 -1.4615  2.4937
 2387SOL    HW3 9321   4.498   0.543   3.821 -0.0504 -0.1480  1.9266
 2387SOL    MW4 9322   4.439   0.494   3.780 -0.5598 -0.2442 -0.2422
 2388SOL     OW 9323   4.109   3.253   2.975  0.3311  0.3914  0.1043
 2388SOL    HW2 9324   4.020   3.264   3.006  0.5228  1.0030  0.4541
 2388SOL    HW3 9325   4.149   3.340   2.983  0.9614  0.1258 -0.0303
 2388SOL    MW4 9326   4.103   3.266   2.980  0.0945 -0.4595  0.2958
 2389SOL     OW 9327   3.149   3.658   1.513 -0.1886  0.3268 -0.3479
 2389SOL    HW2 9328   3.057   3.684   1.521 -0.1861  0.1357  0.3852
 2389SOL    HW3 9329   3.194   3.712   1.578 -0.1628 -1.3736  1.1275
 2389SOL    MW4 9330   3.143   3.668   1.523  0.1634  0.5603  0.2845
 2390SOL     OW 9331   0.999   4.006   1.383  0.2736 -0.4756 -0.1583
 2390SOL    HW2 9332   1.020   4.099   1.373 -1.1152 -0.2808 -1.8856
 2390SOL    HW3 9333   1.062   3.961   1.328  0.6356 -0.5086  0.2850
 2390SOL    MW4 9334   1.010   4.013   1.375  0.1597  0.2864 -0.4907
 2391SOL     OW 9335   1.759   4.176   1.827 -0.1133  0.4631 -0.6192
 2391SOL    HW2 9336   1.697   4.103   1.829  0.7197 -0.3438 -2.1877
 2391SOL    HW3 9337   1.835   4.141   1.780  2.0738  0.9994  2.2071
 2391SOL    MW4 9338   1.761   4.161   1.821 -0.3631 -0.1773  0.3568
 2392SOL     OW 9339   1.333   5.840   2.844 -0.7712  0.0136  0.6662
 2392SOL    HW2 9340   1.331   5.901   2.918 -1.2498  1.4286 -0.4792
 2392SOL    HW3 9341   1.286   5.763   2.876 -1.5387  0.8492  1.6372
 2392SOL    MW4 9342   1.326   5.838   2.858 -0.8786  0.1980 -0.1184
 2393SOL     OW 9343   1.403   4.568   0.668  0.0706  0.5227 -0.0169
 2393SOL    HW2 9344   1.334   4.561   0.734 -1.8775  1.4541 -1.7853
 2393SOL    HW3 9345   1.372   4.513   0.596  2.6578 -1.3399  0.1891
 2393SOL    MW4 9346   1.390   4.560   0.667  0.0439  0.0504 -0.0013
 2394SOL     OW 9347   4.452   5.919   4.203 -0.3810 -0.1603 -0.7039
 2394SOL    HW2 9348   4.481   5.846   4.149  0.8046 -1.9767  2.1195
 2394SOL    HW3 9349   4.364   5.894   4.232  0.5355 -1.2628  1.3453
 2394SOL    MW4 9350   4.444   5.906   4.200  0.3582  0.3962  0.4584
 2395SOL     OW 9351   0.780   0.847   2.025  0.3633 -0.3087 -0.1218
 2395SOL    HW2 9352   0.733   0.856   2.108 -2.3504 -2.2214 -1.3414
 2395SOL    HW3 9353   0.859   0.798   2.048 -0.0386 -0.2904  1.4149
 2395SOL    MW4 9354   0.785   0.842   2.039  0.2186  0.2056  0.7640
 2396SOL     OW 9355   5.697   1.542   0.292  0.7952 -0.6474  0.3303
 2396SOL    HW2 9356   5.779   1.591   0.285 -0.9136  2.2866 -2.4258
 2396SOL    HW3 9357   5.652   1.582   0.367 -1.0671  3.3636 -2.5354
 2396SOL    MW4 9358   5.702   1.554   0.301  0.0745 -0.5796 -0.5620
 2397SOL     OW 9359   1.919   0.164   3.215 -0.1186 -0.6656  0.3814
 2397SOL    HW2 9360   1.826   0.188   3.209 -0.2058 -1.0557  0.1302
 2397SOL    HW3 9361   1.930   0.096   3.149  0.5072 -0.1425 -0.0579
 2397SOL    MW4 9362   1.908   0.158   3.206  0.7883 -0.5393  0.9004
 2398SOL     OW 9363   0.725   2.913   2.970 -0.3622  0.4842 -0.1166
 2398SOL    HW2 9364   0.676   2.837   3.001  1.6485 -0.5992  0.5731
 2398SOL    HW3 9365   0.731   2.971   3.046  0.5608 -0.0342  0.2320
 2398SOL    MW4 9366   0.720   2.911   2.984 -0.0643  0.0310 -0.3360
 2399SOL     OW 9367   4.189   2.724   5.806  0.2399  0.0946  0.1114
 2399SOL    HW2 9368   4.241   2.802   5.825 -1.3672  0.9272  1.3676
 2399SOL    HW3 9369   4.119   2.726   5.871  0.1175 -2.3990  0.1270
 2399SOL    MW4 9370   4.186   2.735   5.817 -0.1865 -0.1558  0.0313
 2400SOL     OW 9371   6.356   6.111   1.255 -0.4339 -0.0863 -0.3527
 2400SOL    HW2 9372   6.440   6.100   1.209 -0.7829 -0.4390 -0.9322
 2400SOL    HW3 9373   6.307   6.172   1.200 -1.2837 -1.3793 -1.0754
 2400SOL    MW4 9374   6.361   6.117   1.241 -0.4764 -0.2497 -0.1546
 2401SOL     OW 9375   4.849   4.078   0.436  0.1154 -0.6144  0.7040
 2401SOL    HW2 9376   4.881   4.086   0.346 -0.9472 -0.9431  0.2921
 2401SOL    HW3 9377   4.860   3.986   0.458 -1.2013 -0.8771  0.3043
 2401SOL    MW4 9378   4.855   4.067   0.427  0.1587 -1.0851  0.4240
 2402SOL     OW 9379   4.205   2.294   5.706 -1.0592  0.0543  0.1003
 2402SOL    HW2 9380   4.246   2.212   5.678 -1.0626  0.2224 -0.4175
 2402SOL    HW3 9381   4.112   2.273   5.713 -1.3202  0.4279 -1.7255
 2402SOL    MW4 9382   4.198   2.280   5.703  0.2760 -0.0816 -0.6232
 2403SOL     OW 9383   0.297   5.852   3.361 -0.1303  0.5639 -0.2642
 2403SOL    HW2 9384   0.248   5.867   3.281  0.0656  1.1042 -0.2859
 2403SOL    HW3 9385   0.272   5.764   3.389 -0.7397  0.6531 -0.5294
 2403SOL    MW4 9386   0.287   5.842   3.354  0.2594 -0.2205  0.6355
 2404SOL     OW 9387   6.418   4.592   2.734  0.3885 -0.1429 -0.3694
 2404SOL    HW2 9388   6.497   4.626   2.775  0.3956  0.7333 -1.0856
 2404SOL    HW3 9389   6.436   4.498   2.722  0.9440 -0.1287  0.3144
 2404SOL    MW4 9390   6.431   4.584   2.738  0.1143 -0.3684 -0.0917
 2405SOL     OW 9391   0.142   1.412   1.642 -0.0477 -0.3456  0.1675
 2405SOL    HW2 9392   0.203   1.340   1.656  0.0607 -0.4733 -0.8963
 2405SOL    HW3 9393   0.083   1.381   1.573 -0.8228  0.0855  0.6089
 2405SOL    MW4 9394   0.142   1.398   1.635  0.2533  0.3846 -0.2273
 2406SOL     OW 9395   5.411   1.315   4.761  0.1997  0.2244 -0.6501
 2406SOL    HW2 9396   5.319   1.341   4.764  0.4191  0.9739 -0.0387
 2406SOL    HW3 9397   5.426   1.289   4.670 -1.0214 -1.5099 -0.4138
 2406SOL    MW4 9398   5.401   1.315   4.749  0.1722  0.2986  0.0259
 2407SOL     OW 9399   4.512   0.226   5.418  0.1844  0.0562  0.1109
 2407SOL    HW2 9400   4.528   0.320   5.402 -1.4766  0.2034 -0.9518
 2407SOL    HW3 9401   4.432   0.224   5.470 -0.4233 -0.7730 -0.8182
 2407SOL    MW4 9402   4.503   0.238   5.423 -0.1981 -0.2647 -0.4373
 2408SOL     OW 9403   2.070   4.640   0.188  0.0354 -0.2454  0.5481
 2408SOL    HW2 9404   2.128   4.651   0.263  0.9528 -1.1628 -0.0079
 2408SOL    HW3 9405   2.123   4.596   0.122 -0.2282  2.0472 -1.3139
 2408SOL    MW4 9406   2.084   4.635   0.189  0.0942  0.1884  0.3389
 2409SOL     OW 9407   3.875   2.220   2.982 -0.1940  0.3631  0.6911
 2409SOL    HW2 9408   3.877   2.134   2.939 -0.7800  0.5366  0.3123
 2409SOL    HW3 9409   3.965   2.253   2.972 -0.5439  0.8392 -1.3341
 2409SOL    MW4 9410   3.887   2.213   2.975  0.6536 -0.4113  0.1669
 2410SOL     OW 9411   1.904   1.796   4.437 -0.7960  0.4127 -0.2182
 2410SOL    HW2 9412   1.820   1.831   4.407 -0.6298  0.1130 -1.0659
 2410SOL    HW3 9413   1.894   1.787   4.532 -0.7170  3.0770  0.1326
 2410SOL    MW4 9414   1.891   1.799   4.446 -0.3928 -0.2322 -0.1185
 2411SOL     OW 9415   3.192   3.396   2.190  0.1921 -0.0499 -0.0955
 2411SOL    HW2 9416   3.116   3.358   2.147 -0.3938  0.1988  0.6918
 2411SOL    HW3 9417   3.157   3.468   2.242  1.1330  0.8629 -0.6752
 2411SOL    MW4 9418   3.178   3.400   2.191 -0.4660  0.2199 -0.1465
 2412SOL     OW 9419   1.675   5.764   3.494 -0.2814  0.2946  0.9051
 2412SOL    HW2 9420   1.707   5.683   3.454 -0.4630  0.1613  1.0306
 2412SOL    HW3 9421   1.737   5.782   3.565  3.2697  3.3361 -2.5119
 2412SOL    MW4 9422   1.687   5.756   3.498  0.0412 -0.2370 -0.5326
 2413SOL     OW 9423   2.402   5.792   3.431 -0.5880 -0.1927  0.3599
 2413SOL    HW2 9424   2.486   5.760   3.463 -0.4604  0.8166  1.0995
 2413SOL    HW3 9425   2.380   5.735   3.357  0.8577 -0.3192  0.0112
 2413SOL    MW4 9426   2.410   5.781   3.426  0.4755 -0.3897 -0.1350
 2414SOL     OW 9427   3.306   5.641   5.017  0.5045  0.6496 -0.1986
 2414SOL    HW2 9428   3.231   5.699   5.028  1.3326  1.8391 -0.6657
 2414SOL    HW3 9429   3.277   5.557   5.054 -1.9259  0.3397 -2.4495
 2414SOL    MW4 9430   3.292   5.637   5.023 -1.1235  0.2877  0.5310
 2415SOL     OW 9431   3.156   6.060   0.250  0.0547 -0.5871  0.3229
 2415SOL    HW2 9432   3.202   6.143   0.242 -2.4176  0.7138 -2.7320
 2415SOL    HW3 9433   3.208   5.998   0.199  1.0202 -0.4956  1.1802
 2415SOL    MW4 9434   3.169   6.063   0.242 -0.1412 -0.7918  0.2069
 2416SOL     OW 9435   0.072   0.987   2.122  0.3030 -0.1874 -0.2324
 2416SOL    HW2 9436   0.150   0.954   2.166  0.7325 -0.7896 -1.3981
 2416SOL    HW3 9437   0.061   1.076   2.157  0.6326 -0.6235  1.0344
 2416SOL    MW4 9438   0.081   0.994   2.132 -0.1484 -0.7901 -0.5057
 2417SOL     OW 9439   0.834   3.244   5.331 -0.0607 -0.0786 -0.0576
 2417SOL    HW2 9440   0.841   3.154   5.362 -0.5655 -0.2100 -0.3062
 2417SOL    HW3 9441   0.745   3.250   5.296  0.7115 -0.2005 -2.2277
 2417SOL    MW4 9442   0.823   3.233   5.330  0.0979  0.3687  0.3473
 2418SOL     OW 9443   0.991   1.042   5.200  0.5431  0.0581 -0.2610
 2418SOL    HW2 9444   1.037   0.971   5.154 -1.4597  0.1131 -2.5443
 2418SOL    HW3 9445   0.986   1.013   5.291  1.7780 -1.6428 -0.6952
 2418SOL    MW4 9446   0.996   1.029   5.206  0.8475 -0.2636 -0.1094
 2419SOL     OW 9447   4.890   2.660   5.394  0.5753 -0.1764  0.6381
 2419SOL    HW2 9448   4.821   2.725   5.381 -0.7699 -1.5558  0.5973
 2419SOL    HW3 9449   4.912   2.666   5.487  0.3106  0.1942  0.6780
 2419SOL    MW4 9450   4.884   2.669   5.404  0.0434  0.0408 -0.2065
 2420SOL     OW 9451   3.493   5.203   3.836  0.4956 -0.9656 -0.6041
 2420SOL    HW2 9452   3.556   5.159   3.893 -0.4719 -1.1759  0.3361
 2420SOL    HW3 9453   3.547   5.255   3.776  1.5484  0.3844  1.3880
 2420SOL    MW4 9454   3.508   5.204   3.835  0.0713 -0.1334  0.0234
 2421SOL     OW 9455   2.907   2.285   2.194  0.1802 -0.5902  0.2121
 2421SOL    HW2 9456   2.948   2.255   2.113 -0.3111 -1.6181  0.3314
 2421SOL    HW3 9457   2.938   2.224   2.261 -0.4853 -0.5725  0.5447
 2421SOL    MW4 9458   2.917   2.273   2.192 -0.5685  0.5242 -0.3655
 2422SOL     OW 9459   4.758   3.742   4.370  0.5074 -0.8517  0.1559
 2422SOL    HW2 9460   4.669   3.762   4.399 -0.1349 -0.4225 -1.9492
 2422SOL    HW3 9461   4.814   3.789   4.431 -0.7482  0.1646  0.5802
 2422SOL    MW4 9462   4.753   3.751   4.382 -0.3930  0.1982 -0.1080
 2423SOL     OW 9463   5.239   3.592   4.213 -0.0375 -0.6138 -0.2514
 2423SOL    HW2 9464   5.294   3.569   4.288  0.8803  1.6064 -0.1707
 2423SOL    HW3 9465   5.229   3.687   4.219  1.0665 -0.1563 -3.6138
 2423SOL    MW4 9466   5.245   3.601   4.224 -0.2809  0.1459  0.3177
 2424SOL     OW 9467   5.854   1.162   3.740 -0.3496 -0.3332 -0.3035
 2424SOL    HW2 9468   5.859   1.101   3.666 -0.1785 -0.8345  0.1187
 2424SOL    HW3 9469   5.818   1.243   3.702  0.2033 -0.4235 -1.0390
 2424SOL    MW4 9470   5.850   1.165   3.725 -0.2849 -0.3763 -0.1108
 2425SOL     OW 9471   0.472   0.652   1.532 -0.5574  0.2035 -0.1166
 2425SOL    HW2 9472   0.504   0.566   1.505 -1.0590 -0.0062 -0.0633
 2425SOL    HW3 9473   0.377   0.641   1.540 -0.3736 -0.0085  2.6575
 2425SOL    MW4 9474   0.463   0.639   1.530  1.0024 -0.5417 -0.5427
 2426SOL     OW 9475   4.538   2.601   4.840  0.2433  0.4700  0.1534
 2426SOL    HW2 9476   4.596   2.525   4.836 -1.0358 -0.6362  1.4783
 2426SOL    HW3 9477   4.581   2.667   4.784  1.5760 -1.0660 -0.7243
 2426SOL    MW4 9478   4.552   2.600   4.832 -0.4211 -0.5001  0.0829
 2427SOL     OW 9479   0.191   4.649   3.874  0.3000 -0.3386  0.7752
 2427SOL    HW2 9480   0.159   4.612   3.792  0.3368 -1.0158  1.0561
 2427SOL    HW3 9481   0.287   4.642   3.867  0.2811 -0.9590  1.1287
 2427SOL    MW4 9482   0.200   4.643   3.862  0.2085  0.0944  0.3864
 2428SOL     OW 9483   4.318   5.386   3.790  0.0736 -0.1135 -0.2352
 2428SOL    HW2 9484   4.352   5.448   3.726  0.4361 -0.6749 -0.6004
 2428SOL    HW3 9485   4.235   5.356   3.754 -1.5628  2.2370  1.2718
 2428SOL    MW4 9486   4.311   5.390   3.777 -0.7933  0.4319 -0.0116
 2429SOL     OW 9487   6.029   0.516   5.882  0.0430  0.1010  0.0414
 2429SOL    HW2 9488   5.990   0.482   5.802 -0.4946 -0.5845  0.5776
 2429SOL    HW3 9489   6.100   0.455   5.902  1.3809  1.2949 -0.8813
 2429SOL    MW4 9490   6.033   0.503   5.874  0.3088 -0.4394 -0.0126
 2430SOL     OW 9491   5.597   4.406   3.417  0.1113  0.0203 -0.8281
 2430SOL    HW2 9492   5.581   4.458   3.338  0.2898  2.3221  0.5575
 2430SOL    HW3 9493   5.512   4.400   3.460  0.2585 -0.0923 -0.5466
 2430SOL    MW4 9494   5.584   4.412   3.413  0.1357  0.2746 -0.0133
 2431SOL     OW 9495   4.958   2.469   4.575 -0.2831 -0.2800  0.4957
 2431SOL    HW2 9496   4.927   2.559   4.567  0.7609  0.0796  0.4038
 2431SOL    HW3 9497   4.905   2.420   4.512  0.8510  0.7068 -1.2883
 2431SOL    MW4 9498   4.947   2.474   4.566 -0.1999 -0.1152 -0.0634
 2432SOL     OW 9499   2.006   0.246   2.436 -0.8864 -0.1714  0.2102
 2432SOL    HW2 9500   2.013   0.200   2.352 -0.9558  0.4711 -0.1554
 2432SOL    HW3 9501   1.934   0.308   2.424 -0.6539  0.1851  0.6113
 2432SOL    MW4 9502   1.998   0.248   2.423  0.1536 -0.0701  0.4223
 2433SOL     OW 9503   2.984   3.048   2.297  0.4356  0.0238 -0.2526
 2433SOL    HW2 9504   2.989   3.082   2.207 -0.4284 -0.2423 -0.4162
 2433SOL    HW3 9505   2.972   2.954   2.286 -3.9399  0.3413 -0.0803
 2433SOL    MW4 9506   2.983   3.040   2.284 -0.6980 -0.3505  0.1468
 2434SOL     OW 9507   2.944   1.670   2.388 -0.0711  0.0423  0.0035
 2434SOL    HW2 9508   2.900   1.586   2.376 -0.1473  0.1615 -0.5564
 2434SOL    HW3 9509   3.001   1.656   2.464 -2.1598  0.3095  1.7460
 2434SOL    MW4 9510   2.945   1.657   2.397  0.1245  0.1506  0.2058
 2435SOL     OW 9511   2.374   0.410   0.564 -1.1696  0.6914 -0.8588
 2435SOL    HW2 9512   2.304   0.465   0.599 -0.0589  1.1619  0.7443
 2435SOL    HW3 9513   2.345   0.321   0.580 -0.5335  0.8881  1.7844
 2435SOL    MW4 9514   2.361   0.406   0.571 -0.1280  0.1746  0.1353
 2436SOL     OW 9515   5.971   4.346   0.324 -0.1691 -0.0298 -0.0732
 2436SOL    HW2 9516   5.995   4.258   0.352  1.3579  0.5631  0.5824
 2436SOL    HW3 9517   5.882   4.337   0.289 -0.1456 -1.7614  0.2416
 2436SOL    MW4 9518   5.962   4.333   0.323  0.9897 -0.4684 -0.3289
 2437SOL     OW 9519   2.997   5.342   5.297 -0.3248 -0.2456 -0.3210
 2437SOL    HW2 9520   3.078   5.313   5.340 -0.2699  0.7586  0.2827
 2437SOL    HW3 9521   2.930   5.284   5.332  0.2455 -1.6631 -1.4792
 2437SOL    MW4 9522   2.999   5.331   5.307 -0.2584  0.0668 -0.0111
 2438SOL     OW 9523   6.291   1.660   6.042  0.3309 -0.8448  0.3726
 2438SOL    HW2 9524   6.328   1.594   6.100  0.8199 -0.8061  0.1096
 2438SOL    HW3 9525   6.233   1.711   6.098  0.8013 -0.8054  0.8354
 2438SOL    MW4 9526   6.289   1.658   6.057  0.4494 -0.7383 -0.0749
 2439SOL     OW 9527   1.965   3.345   1.310  0.0618  0.2725 -0.0749
 2439SOL    HW2 9528   2.034   3.330   1.375 -0.0267  0.4520  0.0571
 2439SOL    HW3 9529   2.002   3.411   1.251 -0.4234  1.1849  0.6238
 2439SOL    MW4 9530   1.979   3.351   1.311  0.1291 -0.0294  0.5060
 2440SOL     OW 9531   2.848   0.305   5.017  0.1008  0.1410  0.7616
 2440SOL    HW2 9532   2.878   0.248   5.088 -0.5561 -0.4553  0.5689
 2440SOL    HW3 9533   2.927   0.349   4.986  0.1309  2.4660  3.6098
 2440SOL    MW4 9534   2.862   0.303   5.023 -0.4433  0.0037  0.8261
 2441SOL     OW 9535   4.716   0.153   0.004  0.3897 -0.0389 -0.0306
 2441SOL    HW2 9536   4.746   0.209   0.076  1.1314  0.0783 -0.4236
 2441SOL    HW3 9537   4.777   0.079   0.005  0.6697  0.1760 -0.8110
 2441SOL    MW4 9538   4.728   0.150   0.014  0.1106  0.1700 -0.3366
 2442SOL     OW 9539   0.922   4.279   6.211 -0.2500 -0.4174 -0.7778
 2442SOL    HW2 9540   0.934   4.335   6.288 -0.1232 -1.4247 -0.0313
 2442SOL    HW3 9541   1.004   4.287   6.162 -0.2553  0.0813 -0.7091
 2442SOL    MW4 9542   0.934   4.287   6.215 -0.2288 -0.4644  0.1758
 2443SOL     OW 9543   3.080   3.071   2.653 -0.3047 -0.6741  0.7663
 2443SOL    HW2 9544   3.119   3.145   2.607 -0.5135 -0.9578  0.1196
 2443SOL    HW3 9545   3.064   3.006   2.585 -3.8331  0.1880  0.5709
 2443SOL    MW4 9546   3.083   3.072   2.638  0.1972  0.3193  0.2767
 2444SOL     OW 9547   1.461   1.009   4.859  0.2223 -0.1108  0.1409
 2444SOL    HW2 9548   1.412   1.086   4.888 -0.2817 -0.8949  1.4429
 2444SOL    HW3 9549   1.461   0.950   4.934  0.2369 -1.5795 -0.9563
 2444SOL    MW4 9550   1.455   1.011   4.873  0.4291 -0.1171 -0.1099
 2445SOL     OW 9551   5.376   1.397   1.576  0.1751  0.2985 -0.9624
 2445SOL    HW2 9552   5.433   1.408   1.500  1.2853  0.3006 -0.1473
 2445SOL    HW3 9553   5.430   1.353   1.641 -0.4474  1.1937  0.1901
 2445SOL    MW4 9554   5.390   1.393   1.575 -0.1939 -0.3613 -0.0663
 2446SOL     OW 9555   4.869   5.224   1.682 -0.4886  0.7288  0.6044
 2446SOL    HW2 9556   4.918   5.242   1.602 -1.1706 -1.2567 -0.3379
 2446SOL    HW3 9557   4.818   5.303   1.698  2.2069  2.4974  1.0843
 2446SOL    MW4 9558   4.868   5.237   1.673 -0.1612 -0.8153  0.1766
 2447SOL     OW 9559   6.029   5.790   1.276  0.3014  0.2464  0.2313
 2447SOL    HW2 9560   5.987   5.868   1.312  1.3661  1.2368 -0.6488
 2447SOL    HW3 9561   6.057   5.741   1.354 -1.7241 -0.0806  0.8395
 2447SOL    MW4 9562   6.027   5.794   1.291 -0.2471 -0.5084  0.4797
 2448SOL     OW 9563   1.181   4.024   3.057  0.0871  0.3795  0.0527
 2448SOL    HW2 9564   1.212   4.087   2.992  1.0641  0.5649  0.6844
 2448SOL    HW3 9565   1.117   3.971   3.009  0.0260  1.1697 -0.7738
 2448SOL    MW4 9566   1.176   4.025   3.042 -0.0265  0.3206 -0.5500
 2449SOL     OW 9567   0.517   6.069   4.027 -0.0453 -0.0942 -0.2537
 2449SOL    HW2 9568   0.500   6.146   3.972  0.3892 -0.5747 -1.0884
 2449SOL    HW3 9569   0.604   6.040   4.001 -0.2656 -0.9613 -0.0602
 2449SOL    MW4 9570   0.526   6.075   4.016 -0.5300  0.4932 -0.3424
 2450SOL     OW 9571   4.125   1.834   6.069  0.2762  0.6151 -0.0441
 2450SOL    HW2 9572   4.103   1.752   6.113 -0.7582  0.9073  0.0193
 2450SOL    HW3 9573   4.217   1.849   6.090  0.6716 -0.8583 -0.6102
 2450SOL    MW4 9574   4.134   1.826   6.078 -0.4191 -0.6257  0.2988
 2451SOL     OW 9575   0.941   0.691   3.635 -0.1329 -0.5331 -0.6662
 2451SOL    HW2 9576   0.891   0.636   3.575 -1.4450  0.4579 -0.5351
 2451SOL    HW3 9577   0.914   0.781   3.612  0.1800 -0.0870  0.6623
 2451SOL    MW4 9578   0.931   0.696   3.624  0.2578  0.2522  0.3155
 2452SOL     OW 9579   3.292   3.667   2.686  0.5003  0.1198  0.0240
 2452SOL    HW2 9580   3.379   3.705   2.694  0.1976  0.6318  1.0367
 2452SOL    HW3 9581   3.284   3.645   2.593  0.9958  1.8123 -0.4561
 2452SOL    MW4 9582   3.302   3.669   2.675  0.0649 -0.2535 -0.3206
 2453SOL     OW 9583   6.105   0.012   2.172 -0.6375 -0.4087 -0.6694
 2453SOL    HW2 9584   6.181  -0.011   2.226 -1.8665  1.1152  1.9297
 2453SOL    HW3 9585   6.043  -0.060   2.186 -1.4927  0.6337  1.1835
 2453SOL    MW4 9586   6.107  -0.001   2.181 -0.7335 -0.4811  0.4572
 2454SOL     OW 9587   5.518   3.585   5.481 -0.9851 -0.2166  0.7154
 2454SOL    HW2 9588   5.461   3.585   5.558  2.0114  0.1302  3.1418
 2454SOL    HW3 9589   5.541   3.677   5.468 -1.3305 -0.2865 -0.5571
 2454SOL    MW4 9590   5.514   3.597   5.489  0.1298 -0.1066  0.3719
 2455SOL     OW 9591   0.848   5.962   6.261 -0.1498  0.3827 -0.4814
 2455SOL    HW2 9592   0.819   6.003   6.179  0.3419  0.2514 -0.7230
 2455SOL    HW3 9593   0.881   5.876   6.234 -0.0549  0.3111 -0.1331
 2455SOL    MW4 9594   0.849   5.956   6.246  0.5746 -0.0902 -0.3019
 2456SOL     OW 9595   3.565   4.768   5.501 -0.3018 -0.2096  0.0341
 2456SOL    HW2 9596   3.602   4.680   5.495  0.3749  0.1117 -0.8147
 2456SOL    HW3 9597   3.612   4.808   5.574  0.7624  0.0432 -0.7484
 2456SOL    MW4 9598   3.576   4.762   5.510 -0.0353 -0.0053  0.6082
 2457SOL     OW 9599   0.232   5.654   0.168 -0.5842  0.2452 -0.2202
 2457SOL    HW2 9600   0.145   5.653   0.208 -0.1045  1.1246  0.8874
 2457SOL    HW3 9601   0.248   5.562   0.145 -0.7855 -0.3598  1.8272
 2457SOL    MW4 9602   0.222   5.641   0.170  0.0912  0.8490 -0.6543
 2458SOL     OW 9603   6.304   2.561   1.456 -0.7561  0.0555  0.0944
 2458SOL    HW2 9604   6.260   2.530   1.536 -2.2003  0.0266 -0.6640
 2458SOL    HW3 9605   6.344   2.644   1.482 -1.0498 -0.0425  0.9055
 2458SOL    MW4 9606   6.303   2.568   1.470  0.0416  0.1293  0.1025
 2459SOL     OW 9607   3.073   5.805   0.615 -0.2314 -0.1622  0.4912
 2459SOL    HW2 9608   3.112   5.865   0.679 -0.8331 -0.2940  0.9963
 2459SOL    HW3 9609   3.028   5.862   0.553 -0.1081 -0.0588  0.4952
 2459SOL    MW4 9610   3.072   5.820   0.616  0.3756 -0.0896  0.3119
 2460SOL     OW 9611   6.410   1.179   2.607  0.2233 -0.4902  0.0217
 2460SOL    HW2 9612   6.344   1.164   2.675  0.2010  2.0349  0.6555
 2460SOL    HW3 9613   6.359   1.190   2.527 -0.1042  0.7786  0.3882
 2460SOL    MW4 9614   6.394   1.178   2.606  0.1097  0.1401  0.1057
 2461SOL     OW 9615   3.000   3.420   0.175  0.2704 -0.1917  0.3115
 2461SOL    HW2 9616   2.979   3.328   0.159 -2.3838  0.3925 -0.1808
 2461SOL    HW3 9617   2.998   3.429   0.270 -0.4041 -0.4942  0.3362
 2461SOL    MW4 9618   2.997   3.409   0.185 -0.4455  0.0814 -0.3510
 2462SOL     OW 9619   4.011   1.795   4.956 -0.7495  0.2187  0.0354
 2462SOL    HW2 9620   3.945   1.839   4.902  0.0974  0.2972 -0.9690
 2462SOL    HW3 9621   4.093   1.836   4.931 -0.2102 -0.4572  0.6678
 2462SOL    MW4 9622   4.013   1.806   4.946  0.1064 -0.4820 -0.0938
 2463SOL     OW 9623   4.072   2.731   2.378  0.3257 -0.2016  0.1992
 2463SOL    HW2 9624   4.062   2.826   2.387  2.3344 -0.0854  2.4105
 2463SOL    HW3 9625   3.983   2.696   2.384 -0.5387  1.5422 -1.5897
 2463SOL    MW4 9626   4.059   2.739   2.380 -0.1978  0.0106  0.7685
 2464SOL     OW 9627   4.467   5.481   4.554  0.5986 -0.3791 -0.2902
 2464SOL    HW2 9628   4.482   5.569   4.519 -0.4621 -1.2946 -3.3810
 2464SOL    HW3 9629   4.378   5.482   4.587  0.7798 -0.1424  0.1899
 2464SOL    MW4 9630   4.458   5.492   4.553  0.0456  0.1348  0.1985
 2465SOL     OW 9631   2.978   5.636   4.207 -0.2297 -0.4097  0.3934
 2465SOL    HW2 9632   2.904   5.577   4.224  0.6405 -1.3043  1.1931
 2465SOL    HW3 9633   2.975   5.651   4.112 -0.2341 -2.0898  0.0948
 2465SOL    MW4 9634   2.968   5.630   4.197 -0.0349 -0.7431 -0.5310
 2466SOL     OW 9635   2.416   2.020   4.672  0.2868  0.6679  0.1184
 2466SOL    HW2 9636   2.364   2.017   4.592  0.7001  2.3483 -0.2555
 2466SOL    HW3 9637   2.499   2.061   4.646  1.3866 -0.8875  0.9396
 2466SOL    MW4 9638   2.420   2.025   4.658  0.3861 -0.6100  0.0234
 2467SOL     OW 9639   0.211   3.055   2.610  0.1509 -0.1299 -0.0722
 2467SOL    HW2 9640   0.257   3.084   2.531 -0.4681 -0.1479 -0.4435
 2467SOL    HW3 9641   0.165   2.976   2.584 -0.7511  0.3362  0.0703
 2467SOL    MW4 9642   0.211   3.048   2.597 -0.1347  0.2091  0.1072
 2468SOL     OW 9643   2.213   5.724   2.984 -0.0226  0.3881 -0.1983
 2468SOL    HW2 9644   2.260   5.743   2.903 -1.6964  0.4160 -1.2085
 2468SOL    HW3 9645   2.222   5.803   3.037  3.6516 -0.6797  1.0209
 2468SOL    MW4 9646   2.220   5.737   2.981 -0.7433  0.0324 -0.1638
 2469SOL     OW 9647   3.286   0.236   0.574  0.1684 -0.0816 -0.1154
 2469SOL    HW2 9648   3.317   0.317   0.615 -0.2052  0.2638 -0.5051
 2469SOL    HW3 9649   3.228   0.266   0.504 -2.5863 -0.7262  1.7578
 2469SOL    MW4 9650   3.282   0.251   0.570  0.3332  0.2121  0.3932
 2470SOL     OW 9651   3.992   2.821   1.885 -0.5056 -0.2544 -0.2616
 2470SOL    HW2 9652   4.072   2.768   1.883 -0.3891 -0.0728 -0.7948
 2470SOL    HW3 9653   3.933   2.775   1.944 -0.6956 -1.4021 -1.3092
 2470SOL    MW4 9654   3.995   2.808   1.892  0.1052 -0.2489 -0.1991
 2471SOL     OW 9655   4.738   5.355   6.128 -0.0766  0.1432  0.2989
 2471SOL    HW2 9656   4.798   5.414   6.082 -0.1783  0.0410  0.0334
 2471SOL    HW3 9657   4.705   5.296   6.059  0.1140 -0.2975  0.5790
 2471SOL    MW4 9658   4.742   5.355   6.113 -0.3273 -0.0828 -0.5280
 2472SOL     OW 9659   1.436   6.035   1.386  0.2335 -0.3284 -0.3174
 2472SOL    HW2 9660   1.370   6.075   1.441 -0.2422 -1.8853  0.2876
 2472SOL    HW3 9661   1.387   5.976   1.328  0.9248 -0.2083 -1.0486
 2472SOL    MW4 9662   1.421   6.032   1.385  0.8591  0.1387  0.3357
 2473SOL     OW 9663   6.044   4.438   2.562 -0.8305  0.9547 -0.3963
 2473SOL    HW2 9664   6.114   4.379   2.589 -1.5818  0.2679  0.1240
 2473SOL    HW3 9665   6.086   4.523   2.551 -0.0510  0.7200  0.6272
 2473SOL    MW4 9666   6.058   4.441   2.565 -0.2178 -0.1708  0.1206
 2474SOL     OW 9667   5.444   0.074   4.408 -0.3507  0.2928 -0.2290
 2474SOL    HW2 9668   5.480   0.099   4.323 -1.2188  0.7998 -0.4618
 2474SOL    HW3 9669   5.364   0.126   4.416  0.6136  1.6126  1.6851
 2474SOL    MW4 9670   5.439   0.084   4.398 -0.3653 -0.1325  0.7397
 2475SOL     OW 9671   2.641   6.373   4.978 -0.0798 -0.5219 -0.2866
 2475SOL    HW2 9672   2.650   6.378   5.073  0.8482  1.2783 -0.4326
 2475SOL    HW3 9673   2.552   6.404   4.961 -0.5998 -1.7607  0.0164
 2475SOL    MW4 9674   2.630   6.378   4.989 -0.5792  0.1372  0.1967
 2476SOL     OW 9675   1.641   2.438   0.531 -0.3794  0.0260  0.3273
 2476SOL    HW2 9676   1.716   2.490   0.561 -0.9551  0.4525  1.0851
 2476SOL    HW3 9677   1.676   2.350   0.517  0.0335 -0.0789  1.8340
 2476SOL    MW4 9678   1.655   2.434   0.533 -0.0149 -0.4788 -0.0574
 2477SOL     OW 9679   2.711   1.696   0.036 -0.3478 -0.1307  0.6920
 2477SOL    HW2 9680   2.739   1.722   0.124  0.8081  0.9627  0.0407
 2477SOL    HW3 9681   2.662   1.770   0.002  0.2106 -0.0553  0.0008
 2477SOL    MW4 9682   2.708   1.709   0.043  0.3991  0.6743 -0.1580
 2478SOL     OW 9683   6.062   0.198   1.360  0.1833 -0.0006 -0.2260
 2478SOL    HW2 9684   5.997   0.176   1.293  2.3559 -1.4423 -2.0071
 2478SOL    HW3 9685   6.129   0.247   1.314  2.1820 -1.7857  0.6079
 2478SOL    MW4 9686   6.062   0.201   1.345 -0.2070  0.0353  0.1773
 2479SOL     OW 9687   6.323   0.109   2.359 -0.1580 -0.1382  0.4941
 2479SOL    HW2 9688   6.393   0.100   2.294 -0.3745 -1.4253  0.4107
 2479SOL    HW3 9689   6.355   0.061   2.436 -0.1761  0.8326  1.1306
 2479SOL    MW4 9690   6.337   0.102   2.361  0.6536 -0.5822 -0.0802
 2480SOL     OW 9691   4.917   3.334   3.323  0.8662  0.6544 -0.0138
 2480SOL    HW2 9692   4.984   3.271   3.349  0.6712  0.5885  0.3326
 2480SOL    HW3 9693   4.840   3.311   3.377  0.3243  0.2554 -0.9237
 2480SOL    MW4 9694   4.915   3.323   3.334  0.4702  0.1573  0.0303
 2481SOL     OW 9695   2.436   5.530   0.309 -0.5147 -0.1351  0.6310
 2481SOL    HW2 9696   2.503   5.514   0.376  0.4891  0.6759 -0.1530
 2481SOL    HW3 9697   2.408   5.620   0.324 -0.0537  0.1586 -0.2339
 2481SOL    MW4 9698   2.441   5.540   0.320 -0.2101  0.3216  0.0369
 2482SOL     OW 9699   1.719   1.361   4.469  0.3779  0.7402  0.2109
 2482SOL    HW2 9700   1.751   1.273   4.448  0.6197  0.7603  0.4982
 2482SOL    HW3 9701   1.711   1.362   4.564 -1.7739  0.2905  0.0695
 2482SOL    MW4 9702   1.722   1.350   4.479  0.5345  0.7193 -0.2165
 2483SOL     OW 9703   6.009   4.898   2.378 -0.7562 -0.3627  0.3648
 2483SOL    HW2 9704   5.931   4.844   2.366 -0.2794 -0.5658 -2.3796
 2483SOL    HW3 9705   5.985   4.983   2.339  0.3950 -0.4809 -0.6672
 2483SOL    MW4 9706   5.996   4.902   2.371 -0.1594 -0.3090 -0.3202
 2484SOL     OW 9707   2.219   1.678   6.354 -0.2698  0.2865 -0.0439
 2484SOL    HW2 9708   2.285   1.740   6.324 -0.6420 -0.4053 -2.5425
 2484SOL    HW3 9709   2.254   1.592   6.329 -2.2824 -0.0589 -1.9783
 2484SOL    MW4 9710   2.232   1.674   6.347 -0.5253 -0.7022 -0.1813
 2485SOL     OW 9711   2.344   5.371   3.586 -0.3910 -0.3964  0.6138
 2485SOL    HW2 9712   2.370   5.460   3.610 -0.3672 -0.2086 -0.0685
 2485SOL    HW3 9713   2.426   5.322   3.587  0.1398  0.2567 -1.7992
 2485SOL    MW4 9714   2.359   5.377   3.589  0.3215  0.0449  0.8075
 2486SOL     OW 9715   2.591   2.690   2.926 -0.4963  0.4256 -0.2296
 2486SOL    HW2 9716   2.503   2.719   2.902 -0.8336 -1.0878 -0.9689
 2486SOL    HW3 9717   2.649   2.750   2.880 -1.1599  0.2817 -1.2954
 2486SOL    MW4 9718   2.587   2.701   2.917 -0.6480 -0.3772 -0.3369
 2487SOL     OW 9719   3.226   1.769   4.993 -0.5060 -0.0802  0.7526
 2487SOL    HW2 9720   3.150   1.720   5.024 -1.7418  2.3953  1.8966
 2487SOL    HW3 9721   3.276   1.789   5.072  0.6345 -0.4659  0.1646
 2487SOL    MW4 9722   3.223   1.765   5.007 -0.0385 -0.5453 -0.8788
 2488SOL     OW 9723   1.679   4.550   0.426 -0.3026 -0.0004 -0.1258
 2488SOL    HW2 9724   1.623   4.586   0.357  0.9898 -0.8178 -1.6861
 2488SOL    HW3 9725   1.657   4.457   0.430  0.0975 -0.0917  0.0816
 2488SOL    MW4 9726   1.669   4.543   0.417 -0.3964  0.8239  0.6312
 2489SOL     OW 9727   3.774   3.538   6.155  0.3309 -0.2417 -0.4014
 2489SOL    HW2 9728   3.782   3.590   6.235  1.2459 -0.6774 -0.2074
 2489SOL    HW3 9729   3.708   3.585   6.104 -0.1778  0.1153  0.5462
 2489SOL    MW4 9730   3.766   3.551   6.159 -0.1782  0.4445  0.2587
 2490SOL     OW 9731   0.582   1.119   0.243 -0.3722  0.1577  0.3038
 2490SOL    HW2 9732   0.636   1.074   0.308  0.1264 -1.2770 -1.0230
 2490SOL    HW3 9733   0.535   1.049   0.198 -3.2538  1.3351  1.2364
 2490SOL    MW4 9734   0.583   1.104   0.246  0.3096  0.4531  0.0440
 2491SOL     OW 9735   5.962   1.164   6.100  0.0275  0.0710  0.4959
 2491SOL    HW2 9736   5.906   1.207   6.165 -1.8483 -2.2443  0.5271
 2491SOL    HW3 9737   6.050   1.171   6.137 -0.7550  0.3891  2.4208
 2491SOL    MW4 9738   5.966   1.171   6.114  0.6885 -0.3394  0.0552
 2492SOL     OW 9739   1.670   4.459   2.747 -0.0602  0.4178 -0.3889
 2492SOL    HW2 9740   1.639   4.543   2.714  1.2607  0.6182 -1.2076
 2492SOL    HW3 9741   1.764   4.472   2.761  0.0603 -0.7533  0.0322
 2492SOL    MW4 9742   1.679   4.472   2.744  0.0588  0.0168 -0.0892
 2493SOL     OW 9743   4.201   5.029   4.213  0.3153  0.0834  0.2533
 2493SOL    HW2 9744   4.143   5.036   4.137 -0.5126  0.7184  0.9098
 2493SOL    HW3 9745   4.232   5.118   4.228  0.9720 -0.1480  0.2852
 2493SOL    MW4 9746   4.197   5.041   4.205 -0.4785 -0.5019  0.2966
 2494SOL     OW 9747   1.059   5.439   5.845 -0.0513  0.1017  0.2746
 2494SOL    HW2 9748   1.038   5.531   5.831  1.6138  0.6343  1.0493
 2494SOL    HW3 9749   0.992   5.391   5.796  0.0347  1.7327 -1.5278
 2494SOL    MW4 9750   1.048   5.445   5.837  0.2091 -0.0624  0.2089
 2495SOL     OW 9751   2.229   0.355   1.611 -0.0555 -0.0182 -0.6861
 2495SOL    HW2 9752   2.256   0.419   1.545  1.2476 -0.2719 -0.4195
 2495SOL    HW3 9753   2.229   0.405   1.693 -0.1043 -0.0905 -0.6424
 2495SOL    MW4 9754   2.233   0.370   1.613 -0.1782 -0.1839 -0.0555
 2496SOL     OW 9755   4.328   0.811   4.960  0.5804  0.2921 -0.3466
 2496SOL    HW2 9756   4.382   0.845   5.032  1.1241 -1.7623  0.3006
 2496SOL    HW3 9757   4.313   0.719   4.984  0.0139 -0.2008 -2.4223
 2496SOL    MW4 9758   4.333   0.803   4.973 -0.4284  0.1161 -0.4012
 2497SOL     OW 9759   2.278   2.912   1.568  0.1433 -0.1122 -0.3663
 2497SOL    HW2 9760   2.262   2.934   1.660  1.6194  1.2612 -0.3891
 2497SOL    HW3 9761   2.199   2.938   1.522  0.3096  1.4967  0.1999
 2497SOL    MW4 9762   2.266   2.918   1.574  0.5222 -0.4008 -0.0661
 2498SOL     OW 9763   4.773   0.521   3.448 -0.2283 -0.3092 -0.1080
 2498SOL    HW2 9764   4.730   0.597   3.488  0.0416 -0.4476  0.4425
 2498SOL    HW3 9765   4.786   0.459   3.520 -1.3068 -1.2872 -0.7171
 2498SOL    MW4 9766   4.769   0.523   3.463  0.2066  0.2374 -0.0401
 2499SOL     OW 9767   5.603   0.457   3.263 -0.2118  0.8094 -0.3072
 2499SOL    HW2 9768   5.614   0.397   3.190 -2.6264  1.2500 -1.1325
 2499SOL    HW3 9769   5.659   0.532   3.243  1.2405 -0.2404 -0.2879
 2499SOL    MW4 9770   5.612   0.459   3.251 -0.6473  0.1092  0.2170
 2500SOL     OW 9771   3.774   3.749   5.868 -0.2430  0.5619  0.1484
 2500SOL    HW2 9772   3.802   3.670   5.822  1.0137  1.9580 -1.6538
 2500SOL    HW3 9773   3.689   3.727   5.904  0.0662 -1.5967 -0.2939
 2500SOL    MW4 9774   3.767   3.736   5.867  1.0124  0.4100 -0.0678
 2501SOL     OW 9775   0.862   2.074   1.876  0.0077  0.0162  0.5260
 2501SOL    HW2 9776   0.951   2.068   1.910 -0.4071  0.3324  1.7225
 2501SOL    HW3 9777   0.866   2.030   1.791  1.0915 -0.7741  0.9596
 2501SOL    MW4 9778   0.874   2.068   1.869  0.0424 -0.2093  0.4839
 2502SOL     OW 9779   1.170   5.053   4.769  0.2144  0.2032 -0.3405
 2502SOL    HW2 9780   1.131   4.990   4.709  0.9322 -2.2768  1.6151
 2502SOL    HW3 9781   1.265   5.039   4.760  0.3697  0.6352  0.5004
 2502SOL    MW4 9782   1.178   5.043   4.760  0.2142 -0.3527 -0.2290
 2503SOL     OW 9783   2.755   3.907   5.319  0.2332 -0.0405  0.0920
 2503SOL    HW2 9784   2.686   3.952   5.270  1.4412  2.4706  0.5269
 2503SOL    HW3 9785   2.795   3.848   5.255  0.6157  1.8386 -1.4719
 2503SOL    MW4 9786   2.751   3.905   5.304  0.2825  0.1238  0.0025
 2504SOL     OW 9787   0.084   2.914   0.539 -0.2227  0.6900 -0.1880
 2504SOL    HW2 9788   0.175   2.928   0.565  0.1994 -0.0280 -1.2473
 2504SOL    HW3 9789   0.085   2.915   0.444 -1.1277 -0.4599 -0.2346
 2504SOL    MW4 9790   0.096   2.916   0.530 -0.3176 -0.3090 -0.2078
 2505SOL     OW 9791   3.419   3.494   0.226  0.5035 -0.1205 -0.6523
 2505SOL    HW2 9792   3.446   3.584   0.245  1.7557 -0.8404  1.2498
 2505SOL    HW3 9793   3.364   3.502   0.148 -3.0389  2.8858  1.8084
 2505SOL    MW4 9794   3.415   3.507   0.218 -0.3207  0.6163 -0.2108
 2506SOL     OW 9795   2.702   0.389   6.305 -0.5292 -0.4157  0.4353
 2506SOL    HW2 9796   2.671   0.303   6.278 -1.2503 -0.5227  1.5248
 2506SOL    HW3 9797   2.697   0.388   6.401  0.4888  0.4612  0.5234
 2506SOL    MW4 9798   2.697   0.378   6.314 -0.1021 -0.1425  0.1768
 2507SOL     OW 9799   3.631   1.733   2.692 -0.4674  0.0365 -0.0734
 2507SOL    HW2 9800   3.608   1.705   2.781  0.7727 -0.7789  0.0226
 2507SOL    HW3 9801   3.564   1.798   2.669 -1.2074 -0.2421  1.1855
 2507SOL    MW4 9802   3.620   1.738   2.701  0.3531  0.6311 -0.5699
 2508SOL     OW 9803   4.464   3.695   1.658 -0.4923 -0.7393  0.7703
 2508SOL    HW2 9804   4.457   3.677   1.752  0.4141 -1.3729  0.7315
 2508SOL    HW3 9805   4.550   3.736   1.647 -0.7996 -0.2130  0.2830
 2508SOL    MW4 9806   4.474   3.698   1.669 -0.0442 -0.5885 -0.3034
 2509SOL     OW 9807   5.084   1.121   1.224 -0.0336 -0.3225  0.6991
 2509SOL    HW2 9808   5.141   1.114   1.301 -1.8170 -0.2484  2.0988
 2509SOL    HW3 9809   5.023   1.048   1.234 -0.0426 -0.5829 -0.9315
 2509SOL    MW4 9810   5.084   1.110   1.235 -0.1394 -0.0895  0.3070
 2510SOL     OW 9811   2.680   3.536   0.269  0.1628 -0.3798  0.5855
 2510SOL    HW2 9812   2.714   3.623   0.251 -1.0948  0.4793  2.1302
 2510SOL    HW3 9813   2.637   3.510   0.188  2.2372 -0.4679 -0.5662
 2510SOL    MW4 9814   2.679   3.544   0.256  0.3293 -0.3115 -0.7127
 2511SOL     OW 9815   5.014   3.348   5.257 -0.1333 -0.6396 -0.4841
 2511SOL    HW2 9816   4.958   3.272   5.241 -0.2901 -0.4356 -0.9193
 2511SOL    HW3 9817   4.955   3.423   5.246 -0.3928 -0.4764  1.5253
 2511SOL    MW4 9818   4.999   3.348   5.254  0.2061  0.4338 -0.7164
 2512SOL     OW 9819   0.262   4.983   3.144  0.2653 -0.1952 -0.6643
 2512SOL    HW2 9820   0.174   4.983   3.181  0.4315  0.7199 -0.2523
 2512SOL    HW3 9821   0.300   5.066   3.172  1.6685 -1.0654  0.1153
 2512SOL    MW4 9822   0.255   4.994   3.152  0.1228 -0.3133  0.5195
 2513SOL     OW 9823   0.409   3.096   2.805 -0.0910 -0.0373 -0.1015
 2513SOL    HW2 9824   0.456   3.178   2.790  0.0454 -0.1333 -0.2010
 2513SOL    HW3 9825   0.342   3.095   2.737 -0.1374  0.0258 -0.0565
 2513SOL    MW4 9826   0.406   3.107   2.794 -0.3804  0.0488 -0.3413
 2514SOL     OW 9827   5.271   1.949   5.453  0.0078 -0.1844 -0.2917
 2514SOL    HW2 9828   5.191   1.904   5.427 -0.2419 -0.0472  0.2254
 2514SOL    HW3 9829   5.339   1.882   5.447 -0.4606 -0.8271  1.0766
 2514SOL    MW4 9830   5.269   1.934   5.449  0.0079 -0.8845 -0.1029
 2515SOL     OW 9831   5.763   0.442   0.531  0.1063 -0.1252  0.9754
 2515SOL    HW2 9832   5.673   0.469   0.516  0.1283 -0.5608 -0.0100
 2515SOL    HW3 9833   5.815   0.509   0.486  0.3653  1.0006  2.8276
 2515SOL    MW4 9834   5.758   0.454   0.523  0.8839 -0.1983  0.1707
 2516SOL     OW 9835   0.879   4.090   3.199 -0.4206  0.3881  0.1342
 2516SOL    HW2 9836   0.955   4.148   3.210  0.7643 -0.8594 -1.1021
 2516SOL    HW3 9837   0.885   4.028   3.272  0.0469 -0.0188 -0.2471
 2516SOL    MW4 9838   0.890   4.090   3.210  0.3477  0.1001 -0.0471
 2517SOL     OW 9839   4.411   0.932   2.854  0.2309  0.5431  0.2195
 2517SOL    HW2 9840   4.324   0.972   2.857 -1.3568 -2.4867 -1.6228
 2517SOL    HW3 9841   4.428   0.905   2.944 -0.7079  1.1345  0.5920
 2517SOL    MW4 9842   4.402   0.934   2.866 -0.6673  0.3665  0.1735
 2518SOL     OW 9843   5.189   2.695   2.272  0.2797 -0.1280 -0.2908
 2518SOL    HW2 9844   5.254   2.750   2.316 -1.8325  1.6949  0.7709
 2518SOL    HW3 9845   5.144   2.650   2.344  1.7485 -3.2199 -1.1127
 2518SOL    MW4 9846   5.192   2.696   2.287 -0.0168  0.2917 -0.4469
 2519SOL     OW 9847   3.560   3.397   1.327  0.0323 -0.4023  0.4619
 2519SOL    HW2 9848   3.541   3.322   1.271  0.2318  0.1638 -0.3914
 2519SOL    HW3 9849   3.538   3.473   1.273  1.6729  0.1968  0.5621
 2519SOL    MW4 9850   3.555   3.397   1.313 -0.5268 -0.1348 -0.4779
 2520SOL     OW 9851   5.116   1.827   1.476  0.1920  0.5202 -0.6405
 2520SOL    HW2 9852   5.134   1.895   1.541  1.3107 -0.4754  0.1418
 2520SOL    HW3 9853   5.175   1.756   1.499  1.2685  0.4287 -3.2587
 2520SOL    MW4 9854   5.126   1.827   1.488 -0.1094  0.0496  0.5993
 2521SOL     OW 9855   0.520   2.725   4.692  0.3393 -0.2055 -0.5210
 2521SOL    HW2 9856   0.547   2.779   4.767 -3.0437  0.8610  0.1153
 2521SOL    HW3 9857   0.580   2.651   4.693  2.2877  1.2554  1.3956
 2521SOL    MW4 9858   0.532   2.723   4.702  0.0569 -0.0087  0.3500
 2522SOL     OW 9859   3.826   2.636   2.790 -0.3715  0.2162  0.0110
 2522SOL    HW2 9860   3.811   2.730   2.799 -1.6949 -0.1434  2.6284
 2522SOL    HW3 9861   3.914   2.623   2.826  1.1439  0.7070 -3.1489
 2522SOL    MW4 9862   3.836   2.647   2.796 -0.5224 -0.1555  0.4193
 2523SOL     OW 9863   4.958   3.968   1.573 -0.6871  0.8562 -0.0807
 2523SOL    HW2 9864   5.021   3.897   1.565 -0.9222  0.5335  0.7558
 2523SOL    HW3 9865   4.922   3.979   1.485 -0.7628 -0.1820 -0.1981
 2523SOL    MW4 9866   4.961   3.960   1.560 -0.1170  0.3155  0.2311
 2524SOL     OW 9867   1.586   1.899   5.163  0.4187  0.4803  0.3339
 2524SOL    HW2 9868   1.622   1.832   5.222 -0.7141 -2.2250 -1.8216
 2524SOL    HW3 9869   1.491   1.892   5.174  0.2399  0.8121 -0.8702
 2524SOL    MW4 9870   1.578   1.889   5.172  0.5813 -0.2077 -0.0533
 2525SOL     OW 9871   1.763   1.492   1.542 -0.0394  0.4821  0.2657
 2525SOL    HW2 9872   1.745   1.500   1.636  0.1427  2.0741  0.1919
 2525SOL    HW3 9873   1.738   1.577   1.506  0.8931  0.2560 -0.9585
 2525SOL    MW4 9874   1.757   1.505   1.550  0.0354  0.3492 -0.1458
 2526SOL     OW 9875   5.778   4.755   2.559 -0.1841 -0.2195  0.0113
 2526SOL    HW2 9876   5.770   4.661   2.570  1.3484 -0.1543  2.2284
 2526SOL    HW3 9877   5.714   4.793   2.619  1.1728  0.1029  1.3365
 2526SOL    MW4 9878   5.769   4.748   2.568 -0.2392 -0.5865  0.3541
 2527SOL     OW 9879   5.435   2.293   3.436  0.0170  0.5367 -0.1750
 2527SOL    HW2 9880   5.359   2.322   3.487 -0.0653 -1.0481  0.6591
 2527SOL    HW3 9881   5.487   2.373   3.423 -0.6633  1.2437  1.1857
 2527SOL    MW4 9882   5.432   2.308   3.441  0.0019  0.0804  0.6247
 2528SOL     OW 9883   0.824   3.910   4.303  0.3411 -0.7617  0.0979
 2528SOL    HW2 9884   0.807   4.002   4.320  1.7100 -0.2315 -1.1385
 2528SOL    HW3 9885   0.890   3.910   4.233 -0.5601 -2.6764 -0.8481
 2528SOL    MW4 9886   0.831   3.922   4.296  0.6207  0.3374 -0.1559
 2529SOL     OW 9887   5.675   3.430   4.822 -0.1175 -0.0479  0.1984
 2529SOL    HW2 9888   5.646   3.499   4.882 -1.1217 -0.9304  0.7451
 2529SOL    HW3 9889   5.597   3.378   4.805  0.9412 -2.0626  1.1363
 2529SOL    MW4 9890   5.661   3.432   4.827 -0.6663  0.2423 -0.1092
 2530SOL     OW 9891   5.043   1.802   5.120 -0.2774  0.0846 -0.4755
 2530SOL    HW2 9892   5.006   1.881   5.081  1.2618  1.3383  0.5127
 2530SOL    HW3 9893   4.967   1.745   5.134 -1.4512  1.4489 -1.0024
 2530SOL    MW4 9894   5.028   1.805   5.116  0.3144  0.2286 -0.4244
 2531SOL     OW 9895   5.121   3.813   4.717  0.9129 -0.1490  0.7944
 2531SOL    HW2 9896   5.145   3.844   4.804 -0.3327  0.9442  0.7871
 2531SOL    HW3 9897   5.103   3.720   4.728 -0.5627  0.2424  2.0292
 2531SOL    MW4 9898   5.122   3.805   4.730 -0.6052 -0.3712  0.0767
 2532SOL     OW 9899   0.584   3.944   3.460  0.2338  0.3441 -0.2830
 2532SOL    HW2 9900   0.579   4.019   3.519 -0.2674 -0.2071  0.4056
 2532SOL    HW3 9901   0.666   3.955   3.413  0.5006  0.9617  0.3084
 2532SOL    MW4 9902   0.594   3.955   3.462 -0.7227  0.1598 -0.1398
 2533SOL     OW 9903   5.081   0.479   1.373 -0.3708  0.1669 -0.2690
 2533SOL    HW2 9904   4.987   0.474   1.388 -0.5571  3.4970  0.5100
 2533SOL    HW3 9905   5.120   0.435   1.449 -1.2547 -1.4784 -0.7374
 2533SOL    MW4 9906   5.074   0.473   1.385  0.0944 -0.1347 -0.1743
 2534SOL     OW 9907   6.038   3.360   5.413  0.0440  0.1657  0.0928
 2534SOL    HW2 9908   5.955   3.379   5.456  0.4949  0.8601  0.6945
 2534SOL    HW3 9909   6.089   3.314   5.479  0.6225  0.9547  0.2169
 2534SOL    MW4 9910   6.034   3.357   5.427  0.1022 -0.1765  0.4039
 2535SOL     OW 9911   1.395   1.427   1.555  0.4350  0.4603 -0.1118
 2535SOL    HW2 9912   1.455   1.473   1.496  1.8719  1.3501  1.9030
 2535SOL    HW3 9913   1.452   1.391   1.623 -0.8518 -2.8450 -0.6204
 2535SOL    MW4 9914   1.411   1.428   1.556  0.3651  0.2189  0.0904
 2536SOL     OW 9915   4.961   0.304   4.234  0.0101  0.1078 -0.9017
 2536SOL    HW2 9916   4.869   0.317   4.255 -0.0781  1.8383 -2.1478
 2536SOL    HW3 9917   5.001   0.391   4.243  1.6785 -0.7000  0.1879
 2536SOL    MW4 9918   4.954   0.317   4.238  0.2345 -0.1639 -0.5906
 2537SOL     OW 9919   0.014   4.745   4.071  0.8074 -0.1723 -0.5126
 2537SOL    HW2 9920   0.070   4.715   4.000 -0.4804 -0.0304 -1.6169
 2537SOL    HW3 9921  -0.007   4.836   4.050  0.7945  0.0271  0.3035
 2537SOL    MW4 9922   0.018   4.753   4.059 -0.0658 -0.0051 -0.7415
 2538SOL     OW 9923   2.999   0.164   3.756 -0.3201  0.0273  0.2990
 2538SOL    HW2 9924   3.012   0.258   3.740  1.6133 -0.5641 -2.3646
 2538SOL    HW3 9925   2.907   0.149   3.734 -0.4587  1.1877 -0.0252
 2538SOL    MW4 9926   2.989   0.175   3.751  0.0213  0.0221  0.5464
 2539SOL     OW 9927   1.271   1.928   0.762 -0.0771 -0.1050  0.1823
 2539SOL    HW2 9928   1.253   1.861   0.695 -0.9481 -1.3889  1.6474
 2539SOL    HW3 9929   1.186   1.969   0.778 -0.3255 -1.1802  1.8862
 2539SOL    MW4 9930   1.257   1.925   0.755 -0.1934  0.2377  0.2648
 2540SOL     OW 9931   1.696   0.219   1.516 -0.2939  0.2089  0.1129
 2540SOL    HW2 9932   1.633   0.245   1.449 -1.9838 -3.5045  0.0141
 2540SOL    HW3 9933   1.645   0.171   1.581  1.8252  0.7086  2.3118
 2540SOL    MW4 9934   1.681   0.216   1.516  0.3779  0.1767 -0.0380
 2541SOL     OW 9935   5.254   5.629   2.520 -1.0759  0.1215 -0.2356
 2541SOL    HW2 9936   5.255   5.589   2.606 -1.1118  0.5115 -0.0504
 2541SOL    HW3 9937   5.196   5.705   2.529  0.0123  0.9828 -0.2216
 2541SOL    MW4 9938   5.246   5.634   2.532 -0.1585 -0.3520  0.0502
 2542SOL     OW 9939   0.876   2.313   4.660  0.5037  0.4869  0.0443
 2542SOL    HW2 9940   0.946   2.333   4.597  1.1053  1.6017  1.0271
 2542SOL    HW3 9941   0.837   2.231   4.628  1.8790  0.1521 -0.8415
 2542SOL    MW4 9942   0.880   2.305   4.647 -0.4676  0.3092 -0.3829
 2543SOL     OW 9943   1.345   5.465   3.073 -0.3949 -0.5321 -0.3784
 2543SOL    HW2 9944   1.418   5.434   3.019 -0.9424 -0.1235 -1.3793
 2543SOL    HW3 9945   1.375   5.548   3.110 -0.9652  0.5584 -2.2260
 2543SOL    MW4 9946   1.358   5.472   3.070 -0.7256 -0.4060  0.9053
 2544SOL     OW 9947   1.131   2.917   0.765  0.0226 -0.4714 -0.1117
 2544SOL    HW2 9948   1.213   2.924   0.813 -0.2468 -2.1076  0.6545
 2544SOL    HW3 9949   1.066   2.959   0.822  0.1391 -0.0888 -0.2553
 2544SOL    MW4 9950   1.133   2.924   0.779 -0.0916  0.0893  0.8891
 2545SOL     OW 9951   0.774   4.422   1.955  0.0804 -0.1281  0.0966
 2545SOL    HW2 9952   0.727   4.503   1.974 -0.8625  0.0877 -2.6543
 2545SOL    HW3 9953   0.737   4.392   1.872  1.9502 -2.2191 -0.0807
 2545SOL    MW4 9954   0.763   4.429   1.946  0.1682 -0.2874 -0.0931
 2546SOL     OW 9955   2.158   2.473   0.604 -0.2407 -0.0859  0.2386
 2546SOL    HW2 9956   2.157   2.444   0.696 -0.8173 -2.4861 -0.4678
 2546SOL    HW3 9957   2.156   2.392   0.553 -2.0383  1.2015 -1.9139
 2546SOL    MW4 9958   2.158   2.458   0.610  0.0487 -0.2799 -0.2301
 2547SOL     OW 9959   5.940   0.905   0.699 -0.1236 -0.4391 -0.2641
 2547SOL    HW2 9960   6.018   0.927   0.648 -1.4221 -1.5336 -2.8748
 2547SOL    HW3 9961   5.890   0.986   0.703 -0.9967 -0.7914 -2.6778
 2547SOL    MW4 9962   5.944   0.919   0.693 -0.3751  0.0984 -0.2194
 2548SOL     OW 9963   6.314   0.359   5.273 -0.3311  0.1828  0.6773
 2548SOL    HW2 9964   6.364   0.435   5.301  0.4160  0.4417 -1.2029
 2548SOL    HW3 9965   6.234   0.395   5.234  0.3227  0.1055 -0.8230
 2548SOL    MW4 9966   6.310   0.374   5.272 -0.1190 -0.6650  0.1513
 2549SOL     OW 9967   6.273   5.364   3.884 -0.3710 -0.3837 -0.1991
 2549SOL    HW2 9968   6.348   5.307   3.869  0.0812  0.5064 -1.5064
 2549SOL    HW3 9969   6.311   5.446   3.915 -0.7288  0.2908 -1.4900
 2549SOL    MW4 9970   6.288   5.367   3.886 -0.5706  0.2589 -0.4412
 2550SOL     OW 9971   5.922   1.445   0.932  1.1425  0.5459  0.5854
 2550SOL    HW2 9972   5.919   1.368   0.875  2.2177  1.4413 -0.7390
 2550SOL    HW3 9973   5.979   1.419   1.004  2.2244  0.3816 -0.3146
 2550SOL    MW4 9974   5.929   1.431   0.934  0.2917 -0.2149 -0.1222
 2551SOL     OW 9975   3.872   0.870   6.042 -0.1193 -0.2188  0.1964
 2551SOL    HW2 9976   3.851   0.949   6.092 -2.2392 -1.1773  0.9360
 2551SOL    HW3 9977   3.958   0.844   6.074 -0.5004  0.3885  1.7978
 2551SOL    MW4 9978   3.881   0.877   6.053  0.3250  0.4378 -0.5366
 2552SOL     OW 9979   3.566   4.878   0.616 -0.3885 -0.3268 -0.4113
 2552SOL    HW2 9980   3.547   4.970   0.594 -0.1388 -0.3609 -0.7900
 2552SOL    HW3 9981   3.590   4.838   0.532  0.3693 -0.5183 -0.1150
 2552SOL    MW4 9982   3.567   4.885   0.602 -0.3033  0.5570 -1.0080
 2553SOL     OW 9983   2.351   0.318   1.171  0.4417 -0.2735 -0.0023
 2553SOL    HW2 9984   2.418   0.254   1.146  1.0001  0.6310 -0.8491
 2553SOL    HW3 9985   2.362   0.327   1.266  1.0783 -0.6216 -0.0358
 2553SOL    MW4 9986   2.362   0.310   1.181 -0.2586  0.3400 -0.2200
 2554SOL     OW 9987   3.193   0.119   1.577 -0.1340  0.1129  0.7218
 2554SOL    HW2 9988   3.109   0.110   1.622  0.4500  0.3215  1.8863
 2554SOL    HW3 9989   3.224   0.206   1.601 -0.8043  1.1959 -1.9043
 2554SOL    MW4 9990   3.186   0.129   1.586 -0.1611 -0.4282 -0.8163
 2555SOL     OW 9991   5.204   4.444   1.633 -0.1611 -0.1023 -0.2857
 2555SOL    HW2 9992   5.191   4.508   1.563 -0.7835  1.1352  0.9112
 2555SOL    HW3 9993   5.130   4.384   1.625 -0.0017 -0.2156 -0.9395
 2555SOL    MW4 9994   5.193   4.445   1.623  0.1435 -0.1217 -0.0278
 2556SOL     OW 9995   0.199   4.899   3.775 -0.2709 -0.3882 -0.3022
 2556SOL    HW2 9996   0.280   4.906   3.725  1.4039  0.8498  2.3317
 2556SOL    HW3 9997   0.190   4.806   3.793  1.0280 -0.4872 -0.0324
 2556SOL    MW4 9998   0.209   4.888   3.771 -0.0903  0.0766  0.2256
 2557SOL     OW 9999   4.075   0.987   1.582 -0.0337  0.0135 -0.1859
 2557SOL    HW210000   4.077   1.061   1.521  0.1157  0.0436 -0.1470
 2557SOL    HW310001   4.005   0.931   1.550 -0.0807  0.1220 -0.2761
 2557SOL    MW410002   4.066   0.989   1.570  0.7305  0.3331  0.5163
 2558SOL     OW10003   6.384   5.616   2.867  0.1959 -0.3830  0.0104
 2558SOL    HW210004   6.431   5.611   2.951 -1.5309 -1.7195  0.9692
 2558SOL    HW310005   6.310   5.673   2.884 -1.1504 -2.0301 -0.0310
 2558SOL    MW410006   6.381   5.623   2.881  0.4566  0.1501 -0.1589
 2559SOL     OW10007   0.683   2.199   0.205 -0.1385 -0.1917  0.4135
 2559SOL    HW210008   0.588   2.197   0.193 -0.2207 -2.1435  1.0929
 2559SOL    HW310009   0.718   2.174   0.119 -0.2889 -0.7884  0.5226
 2559SOL    MW410010   0.675   2.195   0.192  0.1445 -0.0127 -0.4311
 2560SOL     OW10011   1.032   1.516   3.954 -0.0511  0.2625  0.0653
 2560SOL    HW210012   0.961   1.509   4.019  1.7085  1.6446  2.3044
 2560SOL    HW310013   1.007   1.455   3.885 -1.1852 -2.7343  2.8564
 2560SOL    MW410014   1.019   1.507   3.953 -0.7602  0.0728 -0.5747
 2561SOL     OW10015   4.927   5.979   2.764  1.0480  0.3367 -0.3740
 2561SOL    HW210016   5.017   6.008   2.746  1.4875 -0.6911  0.0655
 2561SOL    HW310017   4.882   5.986   2.680  2.4491 -2.2664 -1.4601
 2561SOL    MW410018   4.933   5.984   2.750 -0.5080  0.2867  0.8685
 2562SOL     OW10019   5.682   5.690   0.447  0.2630  0.3435  0.7772
 2562SOL    HW210020   5.704   5.775   0.485  0.4432  0.1918  1.0181
 2562SOL    HW310021   5.750   5.631   0.481  0.0498  0.0743  0.7344
 2562SOL    MW410022   5.694   5.694   0.457  0.1168  0.3952  0.5798
 2563SOL     OW10023   6.097   3.009   3.047  0.1221  0.0188  0.6218
 2563SOL    HW210024   6.167   2.986   2.986  0.0682 -0.0685  0.5919
 2563SOL    HW310025   6.128   3.088   3.092  0.0951  0.1678  0.3749
 2563SOL    MW410026   6.110   3.016   3.045 -0.7695  0.3294 -0.6832
 2564SOL     OW10027   5.808   5.617   4.720 -0.1590 -0.0409  0.3554
 2564SOL    HW210028   5.822   5.537   4.668  2.5687  0.6433 -0.1151
 2564SOL    HW310029   5.803   5.687   4.655 -0.0952  0.4502  0.8775
 2564SOL    MW410030   5.809   5.615   4.704 -0.1181 -0.1340 -0.0040
 2565SOL     OW10031   3.176   2.763   1.876 -0.3762 -0.0709 -0.2118
 2565SOL    HW210032   3.252   2.810   1.840  0.2223 -0.5207  0.4400
 2565SOL    HW310033   3.126   2.737   1.799  0.8110 -0.8800 -0.7374
 2565SOL    MW410034   3.180   2.766   1.861  0.1219 -0.2018  0.4989
 2566SOL     OW10035   6.139   4.682   5.039 -0.4387  0.1872  0.5508
 2566SOL    HW210036   6.218   4.679   4.984 -0.5279  2.2870  0.2077
 2566SOL    HW310037   6.170   4.716   5.123 -0.7765 -0.2094  0.8354
 2566SOL    MW410038   6.153   4.686   5.043  0.2642  0.3164  0.6229
 2567SOL     OW10039   1.779   1.625   0.121  0.3439 -0.3442 -0.0638
 2567SOL    HW210040   1.801   1.532   0.129 -0.1552 -0.4233  0.5615
 2567SOL    HW310041   1.712   1.639   0.188  0.4511  0.4815 -0.1166
 2567SOL    MW410042   1.773   1.614   0.131  0.3650 -0.1067 -0.0015
 2568SOL     OW10043   2.875   5.309   5.843  0.0422 -0.0169  0.0477
 2568SOL    HW210044   2.899   5.401   5.830  1.8472 -0.0877  2.1311
 2568SOL    HW310045   2.844   5.305   5.934  0.9593 -1.6040  0.3326
 2568SOL    MW410046   2.874   5.321   5.853  0.3781  0.8183  0.5568
 2569SOL     OW10047   3.096   1.301   2.016 -0.4086  0.1163 -0.4121
 2569SOL    HW210048   3.121   1.214   1.984 -0.0422  0.3947 -0.8876
 2569SOL    HW310049   3.004   1.292   2.041 -0.3415 -0.4403 -0.3444
 2569SOL    MW410050   3.088   1.288   2.015 -0.4709  0.3517  0.5097
 2570SOL     OW10051   4.649   3.114   1.847  0.0659 -0.6147 -0.3873
 2570SOL    HW210052   4.616   3.024   1.849  0.8664 -0.9067 -0.0570
 2570SOL    HW310053   4.708   3.117   1.772  0.5754 -0.5636  0.0090
 2570SOL    MW410054   4.652   3.102   1.837 -0.0639  0.1672 -0.3323
 2571SOL     OW10055   2.247   5.653   1.051  0.0833 -0.1572  0.2511
 2571SOL    HW210056   2.233   5.736   1.097 -0.7350 -1.0508  1.6735
 2571SOL    HW310057   2.180   5.651   0.983 -2.1646 -1.1144  2.3642
 2571SOL    MW410058   2.236   5.664   1.048  0.4972 -0.2757 -0.3042
 2572SOL     OW10059   0.902   2.142   3.823 -1.1348 -0.2585 -0.7917
 2572SOL    HW210060   0.811   2.112   3.828 -0.7880 -1.1426  2.5694
 2572SOL    HW310061   0.900   2.230   3.860 -0.4265 -1.0616  1.3108
 2572SOL    MW410062   0.890   2.150   3.829  0.7864 -0.3570  0.6127
 2573SOL     OW10063   1.328   3.387   1.923  0.1146 -0.4992  0.3272
 2573SOL    HW210064   1.256   3.367   1.983  1.8731  0.0586  2.7986
 2573SOL    HW310065   1.407   3.380   1.977  1.7923  0.6516 -1.7967
 2573SOL    MW410066   1.329   3.384   1.938  0.5969 -0.3831 -0.3712
 2574SOL     OW10067   2.422   1.844   2.442 -0.1143  0.2617 -0.1398
 2574SOL    HW210068   2.472   1.808   2.369 -1.0374  0.3146 -0.8089
 2574SOL    HW310069   2.487   1.893   2.494  0.7915 -0.8110 -0.2247
 2574SOL    MW410070   2.437   1.846   2.439 -0.0930  0.1810 -0.5207
 2575SOL     OW10071   1.681   5.291   5.775 -0.1329  0.3273  0.5794
 2575SOL    HW210072   1.714   5.314   5.862  2.4209 -2.4915  0.5078
 2575SOL    HW310073   1.760   5.283   5.721 -1.6196  1.5027 -1.9505
 2575SOL    MW410074   1.696   5.293   5.780  0.4377  0.3575  0.3416
 2576SOL     OW10075   5.610   1.323   4.206  0.5092 -1.0187  0.3251
 2576SOL    HW210076   5.584   1.385   4.273  0.2651  0.4311 -1.0638
 2576SOL    HW310077   5.651   1.251   4.254  0.6801  0.1443  1.9813
 2576SOL    MW410078   5.612   1.321   4.221  0.0159 -0.2847  0.0730
 2577SOL     OW10079   0.565   4.824   2.203  0.0181  0.1500 -0.3951
 2577SOL    HW210080   0.488   4.776   2.233 -1.0323  1.7129 -0.4724
 2577SOL    HW310081   0.600   4.772   2.131 -0.0588 -1.3445  0.5952
 2577SOL    MW410082   0.560   4.811   2.198 -0.3823  0.3506 -0.7333
 2578SOL     OW10083   4.261   5.860   0.956  0.3701 -0.4534 -0.3212
 2578SOL    HW210084   4.181   5.913   0.959  0.4719 -0.3223  0.0857
 2578SOL    HW310085   4.326   5.911   1.004  0.0310 -1.6793  1.5438
 2578SOL    MW410086   4.259   5.873   0.963 -0.4440  0.2704 -0.1067
 2579SOL     OW10087   1.144   4.837   2.298 -0.1622 -0.5798  0.0755
 2579SOL    HW210088   1.191   4.855   2.217 -0.4906  0.4993  0.1160
 2579SOL    HW310089   1.211   4.810   2.360  0.4036  0.7477  0.0745
 2579SOL    MW410090   1.159   4.836   2.296  0.0048  0.1965  0.5369
 2580SOL     OW10091   3.524   5.431   4.127 -0.0254  0.1569  0.2990
 2580SOL    HW210092   3.443   5.452   4.082 -0.2680 -1.0981  0.1275
 2580SOL    HW310093   3.513   5.467   4.215 -1.2315 -0.9464  0.6294
 2580SOL    MW410094   3.512   5.438   4.132  0.3904  0.4128  0.0894
 2581SOL     OW10095   0.209   3.846   0.461  0.0146 -0.0858  0.1526
 2581SOL    HW210096   0.185   3.824   0.551 -1.9190 -1.8621 -0.7213
 2581SOL    HW310097   0.195   3.941   0.456  0.1236  0.0457  1.6981
 2581SOL    MW410098   0.204   3.856   0.472  0.6582  0.6884  0.0572
 2582SOL     OW10099   6.081   0.745   2.178 -0.0036 -0.5461  0.3874
 2582SOL    HW210100   6.146   0.812   2.197  2.7563 -3.3586  1.7097
 2582SOL    HW310101   6.021   0.747   2.253  0.8527 -0.4512  1.0751
 2582SOL    MW410102   6.081   0.754   2.191 -0.0217  0.3681 -0.3159
 2583SOL     OW10103   5.780   5.644   2.018 -0.2227  0.1552 -0.2176
 2583SOL    HW210104   5.762   5.712   1.953  0.4460  0.7057  0.1611
 2583SOL    HW310105   5.736   5.566   1.984 -0.9948  0.7694 -0.6664
 2583SOL    MW410106   5.772   5.643   2.005 -0.1920  0.7515 -0.2139
 2584SOL     OW10107   5.240   4.119   0.806 -0.1058 -0.0379 -0.1670
 2584SOL    HW210108   5.187   4.186   0.850  1.5560  2.5053 -1.7785
 2584SOL    HW310109   5.330   4.136   0.835  0.5194 -0.8127 -1.5436
 2584SOL    MW410110   5.245   4.130   0.816  0.0566  0.4098  0.5527
 2585SOL     OW10111   5.469   1.884   2.180 -0.0784 -0.0329  0.0650
 2585SOL    HW210112   5.462   1.789   2.172  1.7105 -0.1383 -0.7812
 2585SOL    HW310113   5.379   1.914   2.188 -0.6812 -1.7930  0.2578
 2585SOL    MW410114   5.456   1.876   2.180 -0.3854  0.2520 -0.0560
 2586SOL     OW10115   0.674   3.715   5.760 -0.7386 -0.3923  0.8056
 2586SOL    HW210116   0.708   3.630   5.731 -0.5830 -0.4224  1.0740
 2586SOL    HW310117   0.596   3.728   5.707 -0.7838 -0.7199  0.7865
 2586SOL    MW410118   0.669   3.705   5.749 -0.1036 -0.7279  0.2162
 2587SOL     OW10119   0.599   4.283   5.270  0.1251 -0.0472  0.7838
 2587SOL    HW210120   0.694   4.270   5.265 -0.0365 -0.9987 -0.0427
 2587SOL    HW310121   0.564   4.237   5.194 -1.1426 -1.1718  2.0011
 2587SOL    MW410122   0.607   4.275   5.259  0.5950  0.9605 -0.2915
 2588SOL     OW10123   6.263   2.462   2.609 -0.4331  0.1254 -0.2631
 2588SOL    HW210124   6.278   2.544   2.562 -1.9365  0.8529  0.4982
 2588SOL    HW310125   6.232   2.488   2.695  1.3036 -1.2175  0.8530
 2588SOL    MW410126   6.261   2.476   2.614 -0.5004 -0.5006  0.0205
 2589SOL     OW10127   3.034   2.719   5.131 -0.1717 -0.1589 -0.0704
 2589SOL    HW210128   3.007   2.682   5.047 -3.0653  2.0749 -0.3030
 2589SOL    HW310129   3.128   2.736   5.121 -0.6791  1.5153 -3.5821
 2589SOL    MW410130   3.043   2.716   5.118  0.0138 -0.3316  0.0647
 2590SOL     OW10131   3.286   6.382   3.081  0.2188 -0.6198 -0.5044
 2590SOL    HW210132   3.334   6.440   3.140  1.3993  0.2388 -2.2137
 2590SOL    HW310133   3.275   6.301   3.131 -0.1632  0.5406  1.4097
 2590SOL    MW410134   3.291   6.379   3.095 -0.2763  0.2251 -1.0295
 2591SOL     OW10135   0.495   2.556   2.820 -0.0392 -0.1646 -0.3974
 2591SOL    HW210136   0.452   2.641   2.807  0.1959 -0.0494 -0.4164
 2591SOL    HW310137   0.575   2.576   2.868 -0.2568 -0.4438  0.0805
 2591SOL    MW410138   0.500   2.570   2.825  0.0024  0.3789  0.3064
 2592SOL     OW10139   1.315   4.403   0.461  0.1681  0.0761 -0.0028
 2592SOL    HW210140   1.221   4.402   0.445 -0.0103 -1.3429  0.9311
 2592SOL    HW310141   1.355   4.400   0.374 -0.6740 -0.8967 -0.3723
 2592SOL    MW410142   1.308   4.402   0.448 -0.1547  0.0744  0.1538
 2593SOL     OW10143   2.993   0.658   5.641  0.1702  0.0975  0.1842
 2593SOL    HW210144   3.084   0.630   5.629  0.2867  1.1304 -1.6661
 2593SOL    HW310145   3.000   0.750   5.667 -0.3572  0.3930 -0.6966
 2593SOL    MW410146   3.006   0.667   5.643 -0.2094  0.6080  0.2001
 2594SOL     OW10147   2.900   4.700   4.745 -0.6196  0.1320  0.7188
 2594SOL    HW210148   2.871   4.641   4.676  1.0733 -0.7864  0.7226
 2594SOL    HW310149   2.995   4.707   4.732 -0.2933  0.1527  2.7768
 2594SOL    MW410150   2.909   4.693   4.734  0.1915  0.1088  0.3224
 2595SOL     OW10151   5.987   3.456   4.431 -0.7243  0.0422  1.0549
 2595SOL    HW210152   5.931   3.522   4.473  0.3010  1.4954  0.2464
 2595SOL    HW310153   5.934   3.422   4.359 -0.2527  2.2393 -0.4293
 2595SOL    MW410154   5.973   3.460   4.427  0.5558  0.2779 -0.0985
 2596SOL     OW10155   3.845   5.569   4.674  0.2713 -0.5243  0.0995
 2596SOL    HW210156   3.773   5.510   4.695  0.9434 -1.1048  0.8345
 2596SOL    HW310157   3.883   5.534   4.593 -0.1458 -0.3232 -0.1868
 2596SOL    MW410158   3.841   5.557   4.666  0.1804  0.3075  0.2792
 2597SOL     OW10159   1.674   1.366   4.781 -0.4230 -0.3854  0.0795
 2597SOL    HW210160   1.585   1.352   4.747 -1.4562 -1.2136  2.8331
 2597SOL    HW310161   1.702   1.280   4.810  0.8107  0.0879  0.3254
 2597SOL    MW410162   1.666   1.353   4.780  0.0740  0.7797  0.6409
 2598SOL     OW10163   2.581   0.103   4.275 -0.0735 -0.0563 -0.4051
 2598SOL    HW210164   2.647   0.115   4.343  1.2096 -1.3918 -1.3656
 2598SOL    HW310165   2.546   0.191   4.261  1.4412  0.6870  0.2015
 2598SOL    MW410166   2.585   0.116   4.282 -0.3983  0.0598  0.4054
 2599SOL     OW10167   4.091   4.653   4.590  0.1257  0.5893 -0.2239
 2599SOL    HW210168   4.154   4.594   4.548  0.9432  0.1705  1.5047
 2599SOL    HW310169   4.103   4.736   4.545  0.3274 -0.0488 -1.4047
 2599SOL    MW410170   4.101   4.656   4.578 -0.1855 -0.0900 -0.0075
 2600SOL     OW10171   3.338   5.654   0.298  0.5300 -0.7176 -0.2907
 2600SOL    HW210172   3.280   5.583   0.272  0.0466 -0.6287  0.5013
 2600SOL    HW310173   3.424   5.628   0.267  0.1764 -1.1343 -0.9542
 2600SOL    MW410174   3.341   5.641   0.291 -0.8104 -0.0833  0.2710
 2601SOL     OW10175   2.683   5.615   5.662 -0.1718 -0.0710 -0.1278
 2601SOL    HW210176   2.735   5.604   5.582  0.6048 -1.9669  0.5737
 2601SOL    HW310177   2.615   5.548   5.655 -1.8574  1.5826 -0.4597
 2601SOL    MW410178   2.681   5.604   5.650 -0.9248 -0.1860  0.1776
 2602SOL     OW10179   6.034   4.139   1.137  0.2895  0.0366 -1.0671
 2602SOL    HW210180   6.025   4.052   1.098  1.3155  0.2293 -1.7702
 2602SOL    HW310181   6.065   4.194   1.065  1.2902  0.6154 -0.2154
 2602SOL    MW410182   6.037   4.135   1.122 -0.2317 -0.4802 -0.0734
 2603SOL     OW10183   5.260   4.591   5.484 -0.3052  0.3811 -0.1879
 2603SOL    HW210184   5.266   4.668   5.428  0.7462  0.5567  0.1333
 2603SOL    HW310185   5.323   4.529   5.447  0.5085  0.5521  0.8398
 2603SOL    MW410186   5.269   4.593   5.472 -0.3503 -0.1728 -0.1258
 2604SOL     OW10187   4.374   1.342   5.739  0.0823  0.1638  0.5707
 2604SOL    HW210188   4.464   1.355   5.770 -0.1650  1.6024  0.7583
 2604SOL    HW310189   4.335   1.430   5.741 -0.8576 -0.1840 -0.9874
 2604SOL    MW410190   4.381   1.355   5.744  0.0912 -0.0332  0.1853
 2605SOL     OW10191   0.968   5.771   0.272 -0.3244 -0.2913  0.5922
 2605SOL    HW210192   0.945   5.696   0.215  1.1705 -1.2820  1.2332
 2605SOL    HW310193   1.046   5.742   0.319 -1.2993  0.6249  2.9273
 2605SOL    MW410194   0.975   5.757   0.270  0.0650 -0.0589  0.5338
 2606SOL     OW10195   4.290   6.006   1.689 -0.0985 -0.0221 -0.1549
 2606SOL    HW210196   4.252   6.056   1.616 -0.0654  0.0022 -0.1562
 2606SOL    HW310197   4.334   5.932   1.647  1.3306  0.8757 -0.3137
 2606SOL    MW410198   4.291   6.003   1.674  0.0389  0.4053  0.1896
 2607SOL     OW10199   1.017   2.232   1.521 -0.2961  0.1337 -0.4289
 2607SOL    HW210200   0.977   2.277   1.595  0.6966  0.5189 -0.1126
 2607SOL    HW310201   1.106   2.266   1.518 -0.3809  0.2633 -1.9282
 2607SOL    MW410202   1.024   2.242   1.531  0.4932 -0.5309 -0.1397
 2608SOL     OW10203   4.026   6.269   3.113  0.3247 -0.7980  0.1107
 2608SOL    HW210204   4.066   6.289   3.028  0.9396 -1.9400  0.1159
 2608SOL    HW310205   3.963   6.339   3.126  1.1913  0.1617 -0.6507
 2608SOL    MW410206   4.023   6.281   3.103 -0.0609 -0.7504  0.3253
 2609SOL     OW10207   4.971   0.805   6.400 -0.2410 -0.7347  0.2275
 2609SOL    HW210208   5.010   0.853   6.474 -0.1433 -2.2812  1.2274
 2609SOL    HW310209   4.992   0.858   6.323 -0.3096  0.9141  1.2930
 2609SOL    MW410210   4.979   0.818   6.400 -0.0935  0.4869 -0.2258
 2610SOL     OW10211   1.546   0.406   4.556 -0.0380 -0.4638 -0.3091
 2610SOL    HW210212   1.578   0.315   4.559 -0.1688 -0.4919  0.3804
 2610SOL    HW310213   1.456   0.399   4.525 -0.1202 -0.5899 -0.0432
 2610SOL    MW410214   1.539   0.393   4.552  0.2942  0.5311  0.5098
 2611SOL     OW10215   1.206   3.012   5.061  0.2757  0.1841 -0.3473
 2611SOL    HW210216   1.225   3.023   5.154 -0.8729  0.1606 -0.0934
 2611SOL    HW310217   1.112   2.995   5.058  0.4666 -0.7635 -1.4404
 2611SOL    MW410218   1.196   3.011   5.073 -0.2482  0.2076 -0.6856
 2612SOL     OW10219   3.301   2.427   0.560 -0.3674 -0.8738 -0.5273
 2612SOL    HW210220   3.331   2.337   0.548  1.2392 -0.3962 -0.3262
 2612SOL    HW310221   3.311   2.444   0.654  1.1212  0.0770 -0.8217
 2612SOL    MW410222   3.306   2.418   0.571 -0.3223  0.2323  0.0934
 2613SOL     OW10223   5.616   0.770   1.604  0.0494  0.3145  0.3277
 2613SOL    HW210224   5.567   0.691   1.628 -0.9849  0.1976 -1.8956
 2613SOL    HW310225   5.548   0.834   1.582  0.8887  0.9320 -0.5072
 2613SOL    MW410226   5.600   0.768   1.604 -0.0514 -0.4943 -0.5007
 2614SOL     OW10227   5.026   2.705   0.884  0.2156  0.6620 -0.7965
 2614SOL    HW210228   4.986   2.791   0.871  0.7363  1.0005 -0.1754
 2614SOL    HW310229   5.034   2.695   0.979  0.4844  0.0775 -0.8730
 2614SOL    MW410230   5.021   2.715   0.895 -0.4839  0.0584 -0.1356
 2615SOL     OW10231   6.333   2.384   3.197 -0.5571 -0.2956 -0.4196
 2615SOL    HW210232   6.415   2.337   3.183 -0.3775 -0.6710  1.6453
 2615SOL    HW310233   6.270   2.315   3.217 -1.0368  0.1167 -0.4978
 2615SOL    MW410234   6.335   2.368   3.198  0.1162 -0.1504  0.1400
 2616SOL     OW10235   1.178   2.997   5.351  0.0842 -1.0313 -0.2880
 2616SOL    HW210236   1.112   2.930   5.371  0.0211 -0.9561 -0.2433
 2616SOL    HW310237   1.257   2.967   5.396 -0.4007 -0.2051  1.1625
 2616SOL    MW410238   1.179   2.984   5.359 -0.4540 -0.6400 -0.1730
 2617SOL     OW10239   1.228   6.298   4.554 -0.2627 -0.1515  0.0961
 2617SOL    HW210240   1.200   6.385   4.582 -0.0848  0.9089 -2.6877
 2617SOL    HW310241   1.148   6.257   4.521  0.0108 -0.1844 -0.5489
 2617SOL    MW410242   1.214   6.304   4.553 -0.4547 -0.1944  0.4057
 2618SOL     OW10243   2.140   3.678   3.193 -0.0860  0.0852 -0.0264
 2618SOL    HW210244   2.086   3.631   3.130 -1.7902  0.5897  0.9859
 2618SOL    HW310245   2.154   3.764   3.154 -1.2076  0.4252  0.2914
 2618SOL    MW410246   2.135   3.683   3.180  0.2774  0.5297 -0.0172
 2619SOL     OW10247   4.775   6.070   2.557  0.0770  0.5139 -0.2913
 2619SOL    HW210248   4.773   6.100   2.466  2.6389 -0.7471 -0.8684
 2619SOL    HW310249   4.683   6.068   2.584 -0.6226  2.6819 -2.2103
 2619SOL    MW410250   4.763   6.073   2.548  0.2039 -0.0322  0.1868
 2620SOL     OW10251   4.621   6.134   5.886 -0.4052  0.5340  0.0357
 2620SOL    HW210252   4.685   6.135   5.957 -2.2598  0.3993  1.7877
 2620SOL    HW310253   4.543   6.094   5.924 -0.6847 -2.0397 -2.8533
 2620SOL    MW410254   4.619   6.129   5.900 -0.4326  0.3695 -0.1234
 2621SOL     OW10255   5.700   4.358   0.232  0.3522 -0.2816  0.8190
 2621SOL    HW210256   5.634   4.366   0.301  1.2162 -0.4700  1.6909
 2621SOL    HW310257   5.714   4.263   0.223  1.2102 -0.2244  1.3621
 2621SOL    MW410258   5.693   4.346   0.240 -0.6479 -0.0773  0.5060
 2622SOL     OW10259   4.948   5.482   2.079  0.0399  0.0712 -0.1758
 2622SOL    HW210260   4.911   5.570   2.071 -1.1856 -0.3799  0.3177
 2622SOL    HW310261   4.977   5.476   2.170  0.4120  0.0589 -0.2907
 2622SOL    MW410262   4.947   5.493   2.090 -0.0393 -0.3962 -0.1784
 2623SOL     OW10263   1.919   5.684   3.037  0.4777  0.2188  0.1817
 2623SOL    HW210264   1.966   5.601   3.038  0.9526  0.4746  1.6285
 2623SOL    HW310265   1.950   5.730   3.115 -0.4065  1.4064 -0.1350
 2623SOL    MW410266   1.930   5.679   3.047 -0.3846  0.4103  0.4348
 2624SOL     OW10267   5.034   1.273   0.200  0.1136  0.7377 -0.2248
 2624SOL    HW210268   5.109   1.224   0.167  0.6220  1.4630 -0.1650
 2624SOL    HW310269   5.072   1.350   0.241 -0.6674  1.1176 -0.2031
 2624SOL    MW410270   5.049   1.277   0.201 -0.6005 -0.1758  0.1652
 2625SOL     OW10271   2.853   0.597   2.362 -0.0464  0.1876 -0.1827
 2625SOL    HW210272   2.938   0.635   2.339  3.0421 -3.4968  3.4828
 2625SOL    HW310273   2.830   0.638   2.445  0.2217 -1.4188  0.7346
 2625SOL    MW410274   2.862   0.607   2.370  0.3830  0.2976 -0.4239
 2626SOL     OW10275   1.506   2.135   1.466  0.3003  0.0037  0.3874
 2626SOL    HW210276   1.428   2.168   1.512 -0.1160 -1.0768  0.4665
 2626SOL    HW310277   1.472   2.095   1.387  0.8074 -0.2377  0.2876
 2626SOL    MW410278   1.491   2.134   1.462  0.6137 -0.5920 -0.0560
 2627SOL     OW10279   3.114   3.986   1.818  0.0261 -0.0689  0.3237
 2627SOL    HW210280   3.154   3.944   1.742 -0.4878  0.5482 -0.2922
 2627SOL    HW310281   3.109   3.916   1.883 -0.0737 -0.7606 -0.4055
 2627SOL    MW410282   3.119   3.971   1.817 -0.0303  0.3782  0.5542
 2628SOL     OW10283   5.696   2.378   0.936  0.4602 -0.0951  0.4539
 2628SOL    HW210284   5.779   2.427   0.940  0.2135  0.4067 -0.2113
 2628SOL    HW310285   5.719   2.296   0.894  0.9599 -0.7536  1.9604
 2628SOL    MW410286   5.710   2.374   0.931 -0.1632  0.6871 -0.4850
 2629SOL     OW10287   2.391   4.923   3.552  0.0202 -0.2614 -0.1135
 2629SOL    HW210288   2.310   4.896   3.509  0.2227 -0.3409 -0.4450
 2629SOL    HW310289   2.444   4.963   3.482  0.5480 -0.8279 -0.0471
 2629SOL    MW410290   2.387   4.925   3.537 -0.0910  0.0039 -0.1085
 2630SOL     OW10291   2.880   2.086   0.999  0.3317 -0.1579  0.1118
 2630SOL    HW210292   2.816   2.072   1.069 -1.0556  1.7681 -0.7092
 2630SOL    HW310293   2.844   2.039   0.924  0.4379  0.0195 -0.0500
 2630SOL    MW410294   2.867   2.078   0.998  0.0494 -0.4219 -0.2590
 2631SOL     OW10295   6.407   5.202   1.239  0.5865  0.2750 -0.3663
 2631SOL    HW210296   6.355   5.123   1.251  1.3405  0.0657  2.1389
 2631SOL    HW310297   6.473   5.178   1.174 -0.9363 -0.1872 -1.8101
 2631SOL    MW410298   6.409   5.189   1.232 -0.5989 -0.9033 -0.8312
 2632SOL     OW10299   3.608   1.795   5.358  0.0775 -0.1394 -0.2669
 2632SOL    HW210300   3.566   1.710   5.374  0.0986 -0.0386  0.3383
 2632SOL    HW310301   3.573   1.852   5.426  1.2220 -0.0544  0.2605
 2632SOL    MW410302   3.598   1.791   5.369  0.1303 -0.1255 -0.3590
 2633SOL     OW10303   1.770   5.169   1.573  0.1944  0.0895  0.0685
 2633SOL    HW210304   1.722   5.250   1.589  1.9976  1.3263 -0.3626
 2633SOL    HW310305   1.862   5.193   1.586  0.8058 -1.8495 -0.2875
 2633SOL    MW410306   1.776   5.183   1.577 -0.1473 -0.5179  0.1926
 2634SOL     OW10307   5.042   4.788   0.197  0.2662 -0.5236  0.3549
 2634SOL    HW210308   4.980   4.822   0.132 -0.0683  0.3467  1.1058
 2634SOL    HW310309   5.108   4.742   0.145  0.7369  1.2662 -0.7337
 2634SOL    MW410310   5.043   4.786   0.181 -0.2651 -0.1645  0.4192
 2635SOL     OW10311   2.802   3.175   6.275 -0.1748 -0.7127  0.4443
 2635SOL    HW210312   2.767   3.247   6.223 -0.3539 -0.1240  1.3459
 2635SOL    HW310313   2.894   3.171   6.251  0.2626  0.9950  1.6362
 2635SOL    MW410314   2.810   3.184   6.265 -0.4482  0.6376 -0.2300
 2636SOL     OW10315   3.234   4.106   0.589 -0.0874  0.1379  0.2229
 2636SOL    HW210316   3.279   4.186   0.617  0.3670 -0.6463  1.8428
 2636SOL    HW310317   3.303   4.049   0.556 -0.2012 -0.1585  0.4902
 2636SOL    MW410318   3.249   4.109   0.589  0.0121  0.1266  0.3191
 2637SOL     OW10319   6.418   2.974   0.280  0.6555  0.2387  0.4911
 2637SOL    HW210320   6.410   2.886   0.245  2.1223  0.3993 -0.3213
 2637SOL    HW310321   6.328   3.002   0.297  0.1020 -0.9453 -0.4079
 2637SOL    MW410322   6.405   2.966   0.277 -0.2138  0.4232  0.1030
 2638SOL     OW10323   5.869   0.550   2.961  0.4230  0.3600  0.5231
 2638SOL    HW210324   5.919   0.631   2.965 -2.2389  2.2677 -1.4565
 2638SOL    HW310325   5.808   0.556   3.035  0.3790  0.0763  0.5103
 2638SOL    MW410326   5.867   0.561   2.971 -0.6739 -0.6683 -0.4042
 2639SOL     OW10327   4.751   5.747   5.953  0.2322  0.5904  0.1130
 2639SOL    HW210328   4.741   5.752   6.048  1.2348 -0.3670  0.2871
 2639SOL    HW310329   4.687   5.681   5.925 -1.2552  2.0449 -0.1269
 2639SOL    MW410330   4.741   5.739   5.962  0.0600 -0.2314 -0.1562
 2640SOL     OW10331   2.267   3.985   2.258 -0.6051 -0.2052 -0.3326
 2640SOL    HW210332   2.284   4.077   2.279 -0.5769 -0.5377  1.2673
 2640SOL    HW310333   2.338   3.960   2.199 -0.1054  0.5586 -0.0610
 2640SOL    MW410334   2.279   3.994   2.253 -0.4189 -0.3420  0.0152
 2641SOL     OW10335   5.772   1.309   0.006  0.3995 -0.1156  1.1327
 2641SOL    HW210336   5.755   1.399  -0.021 -1.5635 -0.8247 -0.2396
 2641SOL    HW310337   5.694   1.284   0.056  1.6269 -0.5797  2.9102
 2641SOL    MW410338   5.760   1.318   0.009 -0.0588  0.0610  0.0994
 2642SOL     OW10339   3.303   5.861   4.674 -0.2365  0.1635  0.9830
 2642SOL    HW210340   3.270   5.911   4.748 -0.7218  2.6951 -0.7978
 2642SOL    HW310341   3.237   5.794   4.658 -1.4809  1.2863  1.2311
 2642SOL    MW410342   3.290   5.859   4.681  0.7066  0.2089  0.0656
 2643SOL     OW10343   1.709   3.995   4.294 -0.3575 -0.1780 -0.4906
 2643SOL    HW210344   1.717   4.051   4.371 -0.0708  0.2605 -0.8358
 2643SOL    HW310345   1.721   3.906   4.327  1.3530  0.1113 -0.2741
 2643SOL    MW410346   1.711   3.991   4.309  0.4348  0.0379  0.1817
 2644SOL     OW10347   2.361   1.809   4.439 -0.7163 -0.1929  0.5813
 2644SOL    HW210348   2.313   1.727   4.436  2.0974 -1.9983 -3.6833
 2644SOL    HW310349   2.449   1.785   4.468  0.1178  1.2781 -0.5547
 2644SOL    MW410350   2.367   1.795   4.443 -0.2348  0.2188  0.2096
 2645SOL     OW10351   2.998   1.368   2.693 -0.4781 -0.1555 -0.1717
 2645SOL    HW210352   3.068   1.418   2.650  0.2213 -1.3327 -0.4392
 2645SOL    HW310353   2.952   1.325   2.621 -0.6139 -0.4887  0.1146
 2645SOL    MW410354   3.001   1.369   2.678 -0.2256 -0.4635 -0.0330
 2646SOL     OW10355   5.137   5.716   3.197 -0.1316 -0.7334  0.1773
 2646SOL    HW210356   5.130   5.673   3.282 -1.0478 -2.0212 -0.5258
 2646SOL    HW310357   5.150   5.808   3.218 -2.1322 -0.7363  1.7263
 2646SOL    MW410358   5.138   5.722   3.211  1.2919 -0.1489  0.1149
 2647SOL     OW10359   1.147   2.668   5.602 -0.1224 -0.2909  0.2309
 2647SOL    HW210360   1.148   2.602   5.533  0.3446  0.2197 -0.2574
 2647SOL    HW310361   1.214   2.731   5.577 -1.4506  1.0810 -0.0043
 2647SOL    MW410362   1.156   2.667   5.590 -0.3269 -0.0915 -0.4510
 2648SOL     OW10363   2.135   5.432   4.805 -0.3335  0.2684 -0.4847
 2648SOL    HW210364   2.112   5.471   4.721  0.3483  0.7982 -0.4355
 2648SOL    HW310365   2.181   5.351   4.782  0.2339  0.6255 -0.6443
 2648SOL    MW410366   2.138   5.426   4.791  0.1995 -0.2657  0.2246
 2649SOL     OW10367   2.425   0.650   3.725  0.1436  0.4864 -1.0071
 2649SOL    HW210368   2.455   0.581   3.667  0.0315 -0.5357  0.1261
 2649SOL    HW310369   2.336   0.670   3.695 -1.1491 -2.2381  0.6918
 2649SOL    MW410370   2.417   0.644   3.714 -0.5260  0.3981 -0.3646
 2650SOL     OW10371   3.918   4.269   0.947  0.1869  0.0319 -0.1306
 2650SOL    HW210372   3.931   4.180   0.979  1.1046  0.1929 -0.0380
 2650SOL    HW310373   3.978   4.277   0.873  2.1819  1.4458  1.5419
 2650SOL    MW410374   3.928   4.259   0.941  0.4964 -0.5598  0.2248
 2651SOL     OW10375   2.917   6.150   0.749  0.2453  0.3154 -0.1454
 2651SOL    HW210376   2.836   6.104   0.726  0.5880  0.6073 -2.0699
 2651SOL    HW310377   2.987   6.090   0.725  0.6549  1.1982 -1.2095
 2651SOL    MW410378   2.915   6.136   0.743  0.4118 -0.2398 -0.0669
 2652SOL     OW10379   1.665   4.341   1.151 -0.1676  0.5782 -0.0527
 2652SOL    HW210380   1.594   4.404   1.159  0.2105  1.1272 -0.8560
 2652SOL    HW310381   1.636   4.279   1.084 -2.0483 -2.2428  3.0754
 2652SOL    MW410382   1.652   4.341   1.143  0.0182  0.0522  0.0570
 2653SOL     OW10383   2.149   0.144   4.208  0.1145  0.1727 -0.1375
 2653SOL    HW210384   2.071   0.090   4.224 -0.4026  0.9630  0.0399
 2653SOL    HW310385   2.183   0.164   4.296  0.6415 -0.3245 -0.2163
 2653SOL    MW410386   2.143   0.139   4.222  0.3404  0.1479 -0.0540
 2654SOL     OW10387   3.918   5.270   0.044 -0.2600 -0.2382  0.5943
 2654SOL    HW210388   4.003   5.227   0.030 -1.0985 -1.7681 -0.0131
 2654SOL    HW310389   3.886   5.288  -0.045 -1.0880 -0.7581  0.7793
 2654SOL    MW410390   3.925   5.267   0.030  0.0977  0.0644  0.1229
 2655SOL     OW10391   1.546   4.187   0.946 -0.0837 -0.4420 -0.7360
 2655SOL    HW210392   1.575   4.266   0.901 -1.0210  0.5250  0.2950
 2655SOL    HW310393   1.563   4.116   0.883 -0.2344  0.6959 -2.1159
 2655SOL    MW410394   1.552   4.188   0.932 -0.2819  0.6146 -0.4464
 2656SOL     OW10395   3.297   1.758   3.956  0.2355 -0.1006 -0.0131
 2656SOL    HW210396   3.202   1.763   3.946  0.0159  2.0489  2.2116
 2656SOL    HW310397   3.314   1.788   4.045  3.0912  1.0490 -0.8095
 2656SOL    MW410398   3.287   1.763   3.966 -0.3486 -0.2371  0.5550
 2657SOL     OW10399   4.321   1.360   2.897 -0.2339 -0.5750  0.3064
 2657SOL    HW210400   4.293   1.400   2.979  0.5556 -0.2138  0.4153
 2657SOL    HW310401   4.330   1.433   2.836  2.4447 -0.3294  0.8531
 2657SOL    MW410402   4.319   1.375   2.900  0.6099  0.2316 -0.4287
 2658SOL     OW10403   2.862   4.400   6.085  0.2532 -0.7148 -0.4427
 2658SOL    HW210404   2.957   4.411   6.077  0.2801 -0.3627  0.3392
 2658SOL    HW310405   2.842   4.422   6.175 -0.6070 -0.6095 -0.6485
 2658SOL    MW410406   2.872   4.404   6.096 -0.0970  0.3452  0.4269
 2659SOL     OW10407   2.642   2.236   4.054  0.0231 -0.0193 -0.0939
 2659SOL    HW210408   2.547   2.224   4.046  0.0765 -0.1806 -0.4954
 2659SOL    HW310409   2.658   2.324   4.020 -0.0242  0.1359  0.2858
 2659SOL    MW410410   2.631   2.246   4.049  0.5226 -0.2118 -0.1213
 2660SOL     OW10411   0.761   3.318   3.538 -0.8163  0.1967 -0.1472
 2660SOL    HW210412   0.737   3.226   3.548  1.9970 -0.4858  1.4765
 2660SOL    HW310413   0.804   3.323   3.453 -0.9922  0.0240 -0.2474
 2660SOL    MW410414   0.763   3.307   3.528 -0.2658  0.1560  0.2298
 2661SOL     OW10415   4.634   1.579   2.945  0.2185  0.3042  0.4725
 2661SOL    HW210416   4.594   1.554   3.028  0.1190  0.0435  0.3448
 2661SOL    HW310417   4.728   1.573   2.961  0.2094 -1.2084  0.1359
 2661SOL    MW410418   4.641   1.575   2.958 -0.0274  0.3352  0.2192
 2662SOL     OW10419   2.206   5.196   1.115  0.2290  0.1264 -0.2049
 2662SOL    HW210420   2.164   5.214   1.030  0.7802  1.6914 -0.1576
 2662SOL    HW310421   2.236   5.281   1.146  1.6115 -0.6734  0.7489
 2662SOL    MW410422   2.204   5.209   1.108 -0.1112 -0.3174  0.6143
 2663SOL     OW10423   3.211   2.303   3.703  0.1717 -0.1971  0.0074
 2663SOL    HW210424   3.251   2.261   3.627  0.9167 -0.7474  0.6798
 2663SOL    HW310425   3.181   2.230   3.757 -1.6057  0.2016 -0.3883
 2663SOL    MW410426   3.212   2.288   3.700  0.0987 -0.0476 -0.3902
 2664SOL     OW10427   1.557   3.030   4.378 -0.2641  0.1624 -0.4174
 2664SOL    HW210428   1.527   3.082   4.304 -0.6542  0.7169  0.1203
 2664SOL    HW310429   1.513   2.945   4.368 -1.7764  0.8397  0.1706
 2664SOL    MW410430   1.547   3.025   4.367  0.0768 -0.2973  0.2131
 2665SOL     OW10431   2.247   5.434   1.254  0.2410 -0.1897 -0.0928
 2665SOL    HW210432   2.245   5.506   1.317  0.6276  1.2420 -1.6405
 2665SOL    HW310433   2.281   5.473   1.173 -1.6703 -1.5647 -1.6668
 2665SOL    MW410434   2.251   5.448   1.252  0.4035 -0.2689 -0.1233
 2666SOL     OW10435   5.535   5.874   3.021  0.2182  0.2840 -0.1640
 2666SOL    HW210436   5.596   5.861   2.949  1.3863  0.8934  0.6802
 2666SOL    HW310437   5.544   5.967   3.044  1.3032 -0.2912  1.9777
 2666SOL    MW410438   5.544   5.885   3.015  0.0399  1.3321 -0.6631
 2667SOL     OW10439   5.603   3.949   1.081  0.2787 -0.0269  0.0376
 2667SOL    HW210440   5.602   3.865   1.035 -1.9569  1.9106 -3.9073
 2667SOL    HW310441   5.525   3.948   1.135  1.6251 -1.3488  2.1178
 2667SOL    MW410442   5.593   3.938   1.082 -0.1538 -0.0962  0.0638
 2668SOL     OW10443   2.611   1.069   1.003  0.0458  0.2454  0.4423
 2668SOL    HW210444   2.679   1.057   0.937 -0.5542 -1.6890  0.0877
 2668SOL    HW310445   2.652   1.123   1.071  2.5367 -2.0874  1.0059
 2668SOL    MW410446   2.625   1.074   1.003 -0.3200 -0.4791 -0.2554
 2669SOL     OW10447   4.456   5.831   6.148 -0.0333  0.2570  0.0958
 2669SOL    HW210448   4.544   5.802   6.172 -1.2092 -3.5017  0.5558
 2669SOL    HW310449   4.415   5.857   6.231  0.2744  0.9795  0.0296
 2669SOL    MW410450   4.462   5.831   6.162  0.3516 -0.0975  0.7787
 2670SOL     OW10451   4.655   1.117   3.909  0.1481 -0.5274  0.1701
 2670SOL    HW210452   4.629   1.177   3.979  1.1829 -1.1463  1.1203
 2670SOL    HW310453   4.664   1.032   3.953  0.8227 -0.9256 -0.7208
 2670SOL    MW410454   4.652   1.114   3.924 -0.4363  0.6817 -0.2743
 2671SOL     OW10455   2.637   0.258   3.376  0.1319  0.1725 -0.2505
 2671SOL    HW210456   2.561   0.215   3.416  0.3023  0.3164  0.2291
 2671SOL    HW310457   2.649   0.338   3.426  1.0224 -0.1828  0.1239
 2671SOL    MW410458   2.628   0.263   3.388  0.4193  0.0814  0.1099
 2672SOL     OW10459   2.667   3.806   2.168  0.1851  0.1233 -0.1383
 2672SOL    HW210460   2.575   3.797   2.145 -0.0849  2.4519 -0.1600
 2672SOL    HW310461   2.714   3.776   2.090 -0.6115  0.9167 -0.9469
 2672SOL    MW410462   2.661   3.801   2.155  0.0416 -0.1539  0.0439
 2673SOL     OW10463   2.379   5.123   5.842 -0.0867 -0.2327  0.0493
 2673SOL    HW210464   2.374   5.096   5.750  1.1713  1.1515 -0.4688
 2673SOL    HW310465   2.321   5.200   5.847  0.9589  0.5763  0.0343
 2673SOL    MW410466   2.371   5.130   5.830  0.0825 -0.7660  0.1821
 2674SOL     OW10467   6.399   5.000   5.746 -0.1973  0.0499 -0.0630
 2674SOL    HW210468   6.409   4.988   5.841  1.9541 -0.3166 -0.2912
 2674SOL    HW310469   6.308   4.975   5.729 -0.2403 -1.2492  1.7051
 2674SOL    MW410470   6.388   4.995   5.756 -0.2108  0.4002 -0.3255
 2675SOL     OW10471   0.823   3.422   0.684 -0.3916  0.1683 -0.3381
 2675SOL    HW210472   0.835   3.515   0.666  2.0892 -0.2767 -1.4513
 2675SOL    HW310473   0.873   3.407   0.764 -0.5287 -0.2628 -0.3317
 2675SOL    MW410474   0.832   3.432   0.692  0.2138 -0.7969  0.3946
 2676SOL     OW10475   3.830   3.710   6.376  0.0758 -0.1340 -0.1773
 2676SOL    HW210476   3.856   3.642   6.439 -0.4362 -1.6680 -1.5378
 2676SOL    HW310477   3.909   3.762   6.362  1.3421 -2.1808 -1.1493
 2676SOL    MW410478   3.844   3.708   6.382  0.0458 -0.3152 -0.5751
 2677SOL     OW10479   2.848   2.969   5.768  0.8963 -0.6981 -0.3450
 2677SOL    HW210480   2.830   3.050   5.816 -0.6893 -1.6939  0.8554
 2677SOL    HW310481   2.808   2.982   5.682 -2.3111 -1.2896  0.8851
 2677SOL    MW410482   2.840   2.982   5.763  0.3726 -0.3050  0.4645
 2678SOL     OW10483   1.453   1.931   4.698 -0.4998  0.4971 -0.1418
 2678SOL    HW210484   1.364   1.909   4.670 -1.2781 -0.5294  2.7411
 2678SOL    HW310485   1.481   1.855   4.749  1.8244  1.0706 -0.4410
 2678SOL    MW410486   1.445   1.918   4.701  0.0881 -0.4919  0.3694
 2679SOL     OW10487   0.966   1.063   4.333  0.3457  0.2419  0.0307
 2679SOL    HW210488   1.034   1.001   4.307  0.7417  1.2271 -1.4005
 2679SOL    HW310489   0.998   1.148   4.302 -0.7244  1.0028  0.9103
 2679SOL    MW410490   0.979   1.066   4.326  0.2828  0.3044 -0.8178
 2680SOL     OW10491   0.024   5.534   2.344  0.4908 -0.1118  0.1902
 2680SOL    HW210492   0.033   5.509   2.252  2.3673 -0.3732  0.4203
 2680SOL    HW310493   0.081   5.473   2.391 -1.1347 -0.5891  1.6601
 2680SOL    MW410494   0.032   5.522   2.338 -0.3430 -0.6535 -0.2944
 2681SOL     OW10495   2.703   1.024   4.531  0.4356 -0.2796 -0.2553
 2681SOL    HW210496   2.665   1.102   4.489 -1.3293 -1.2744 -0.5922
 2681SOL    HW310497   2.791   1.018   4.494  0.4182  1.2520 -0.6152
 2681SOL    MW410498   2.709   1.034   4.520  0.3353  0.3916  0.0322
 2682SOL     OW10499   1.426   6.361   0.404 -0.0510 -0.4397  0.2055
 2682SOL    HW210500   1.418   6.330   0.314  0.4419 -2.3288  0.7639
 2682SOL    HW310501   1.337   6.382   0.431 -0.2550 -0.2741 -0.5844
 2682SOL    MW410502   1.413   6.360   0.396  0.4441 -0.6539 -0.0849
 2683SOL     OW10503   4.800   4.396   5.978  0.0839 -0.1858 -0.0472
 2683SOL    HW210504   4.892   4.421   5.980 -0.1377  0.7036 -0.5122
 2683SOL    HW310505   4.787   4.342   6.056  0.5703  1.1863  1.0062
 2683SOL    MW410506   4.810   4.392   5.988 -0.0375  0.1964  0.7730
 2684SOL     OW10507   6.363   3.867   3.709 -0.0420  0.3211  0.2472
 2684SOL    HW210508   6.435   3.826   3.661 -1.2153  0.5958 -1.8350
 2684SOL    HW310509   6.374   3.835   3.799  0.7620 -2.2663 -0.6729
 2684SOL    MW410510   6.374   3.858   3.715 -0.3920 -0.0759  0.3548
 2685SOL     OW10511   3.410   1.127   4.848 -0.3843  0.0738  0.0572
 2685SOL    HW210512   3.467   1.121   4.772 -0.0388 -0.2091  0.3369
 2685SOL    HW310513   3.337   1.181   4.819 -0.1505  0.1403 -0.4107
 2685SOL    MW410514   3.408   1.133   4.834  0.1754 -0.1352  0.4395
 2686SOL     OW10515   3.708   4.385   5.781  0.3097 -0.2161 -0.8543
 2686SOL    HW210516   3.789   4.433   5.798 -0.8930  1.7045 -0.2320
 2686SOL    HW310517   3.684   4.409   5.691 -0.2733  0.3538 -0.5560
 2686SOL    MW410518   3.716   4.394   5.771 -0.0775  0.2976  0.2841
 2687SOL     OW10519   2.581   0.248   0.752  0.4848 -0.6099 -0.3096
 2687SOL    HW210520   2.617   0.236   0.663 -0.1938  0.8272 -0.8059
 2687SOL    HW310521   2.552   0.339   0.754 -1.1324 -1.1060  0.8064
 2687SOL    MW410522   2.582   0.258   0.740 -0.2514  0.5583 -0.1513
 2688SOL     OW10523   4.395   1.751   5.584  0.8110  0.3660 -0.2631
 2688SOL    HW210524   4.315   1.698   5.593  0.7096  0.5469 -0.0866
 2688SOL    HW310525   4.384   1.796   5.501  0.8407  0.2067 -0.3550
 2688SOL    MW410526   4.383   1.750   5.574 -0.1428 -0.2602 -0.1537
 2689SOL     OW10527   4.326   1.995   5.851  0.4649  0.8224  0.4289
 2689SOL    HW210528   4.341   1.917   5.904  0.4366  0.7833  0.3791
 2689SOL    HW310529   4.298   1.962   5.766  0.2814  0.8909  0.4620
 2689SOL    MW410530   4.324   1.981   5.847  0.6351 -0.0612 -0.2301
 2690SOL     OW10531   5.122   1.839   1.192 -0.0460 -0.7063 -0.1073
 2690SOL    HW210532   5.090   1.764   1.142 -0.2711  0.0372 -1.1240
 2690SOL    HW310533   5.092   1.823   1.281  1.5977 -2.7795  0.1313
 2690SOL    MW410534   5.113   1.827   1.197  0.0280 -0.0740 -0.5229
 2691SOL     OW10535   2.503   3.917   5.533  0.5172 -0.7070  0.2071
 2691SOL    HW210536   2.568   3.847   5.526 -0.9881 -2.2642  1.0387
 2691SOL    HW310537   2.476   3.915   5.625 -1.1528 -0.5476 -0.2475
 2691SOL    MW410538   2.508   3.907   5.544  0.0861 -0.6035 -0.0681
 2692SOL     OW10539   5.938   0.862   5.864 -0.1900  0.1878  0.6448
 2692SOL    HW210540   5.984   0.936   5.823  0.2528 -0.7949 -0.7185
 2692SOL    HW310541   5.943   0.880   5.958 -0.6172  2.1810  0.3366
 2692SOL    MW410542   5.945   0.874   5.871 -0.8195 -0.9612  0.2862
 2693SOL     OW10543   4.330   1.745   4.295  0.1156  0.2646 -0.2197
 2693SOL    HW210544   4.424   1.733   4.307 -0.1165 -2.6417 -0.4659
 2693SOL    HW310545   4.316   1.733   4.201 -0.5297  0.1391 -0.1129
 2693SOL    MW410546   4.340   1.742   4.284 -0.2818 -0.2969  0.2488
 2694SOL     OW10547   3.219   4.146   4.397 -0.0405 -0.7194 -0.0336
 2694SOL    HW210548   3.226   4.207   4.323  0.3244  0.2987  0.8051
 2694SOL    HW310549   3.252   4.063   4.363 -3.5997 -1.4302 -2.2278
 2694SOL    MW410550   3.224   4.143   4.383  0.1436  0.5036  0.1067
 2695SOL     OW10551   3.604   5.044   2.334  0.5210 -0.0905 -0.0059
 2695SOL    HW210552   3.612   4.951   2.355  3.2980  0.1486  0.3889
 2695SOL    HW310553   3.648   5.053   2.249  3.7177  1.3211  1.6331
 2695SOL    MW410554   3.611   5.033   2.325 -0.4594 -0.1347  0.1783
 2696SOL     OW10555   5.643   1.530   5.378  1.0388  0.2769 -0.6613
 2696SOL    HW210556   5.628   1.458   5.439  0.4874  0.9126 -0.0219
 2696SOL    HW310557   5.583   1.514   5.306  1.8166 -0.5741 -1.1397
 2696SOL    MW410558   5.633   1.518   5.377 -0.2528  0.1899  0.4890
 2697SOL     OW10559   1.940   0.901   4.070  0.6346  0.1094 -0.0706
 2697SOL    HW210560   2.031   0.914   4.043  1.3177  0.8289  2.3405
 2697SOL    HW310561   1.901   0.988   4.065  0.3315 -0.0343 -0.2073
 2697SOL    MW410562   1.947   0.914   4.066 -0.1872  0.5085  0.4693
 2698SOL     OW10563   2.370   1.037   4.254  0.5088 -0.1437  0.0258
 2698SOL    HW210564   2.460   1.013   4.230  0.4799 -0.3979  0.1765
 2698SOL    HW310565   2.338   0.964   4.306  0.1629 -0.1143 -0.1427
 2698SOL    MW410566   2.378   1.024   4.258  0.5660  0.0552  0.2524
 2699SOL     OW10567   4.498   2.219   5.894  0.4542  0.7634  0.4125
 2699SOL    HW210568   4.444   2.145   5.869  1.5953  0.4586 -1.3106
 2699SOL    HW310569   4.477   2.288   5.831  1.6988  0.7872 -0.0175
 2699SOL    MW410570   4.488   2.218   5.883 -0.8437  0.5700  0.0954
 2700SOL     OW10571   1.964   0.557   1.495 -0.0547 -0.0915  0.1846
 2700SOL    HW210572   1.910   0.569   1.573 -1.1458  1.8358 -0.8037
 2700SOL    HW310573   1.904   0.523   1.429  0.1016  1.1721 -0.6537
 2700SOL    MW410574   1.949   0.554   1.497  0.3658  0.0727 -0.2031
 2701SOL     OW10575   2.444   3.206   3.427 -0.4402  0.0574  0.1543
 2701SOL    HW210576   2.388   3.281   3.404 -1.9458 -1.0319  0.1271
 2701SOL    HW310577   2.385   3.146   3.472  0.6330 -1.3519 -0.2722
 2701SOL    MW410578   2.429   3.208   3.430 -0.0649 -0.3085 -0.3624
 2702SOL     OW10579   4.793   4.255   1.840 -0.2471  0.3324 -0.0382
 2702SOL    HW210580   4.778   4.347   1.860  0.5181  0.2848  0.8080
 2702SOL    HW310581   4.789   4.210   1.924  2.3820  0.0280  0.0163
 2702SOL    MW410582   4.791   4.261   1.854 -0.1050  0.0253  0.1972
 2703SOL     OW10583   4.361   1.394   0.222  0.3617 -0.1914 -0.0738
 2703SOL    HW210584   4.380   1.449   0.298  1.2770 -0.6242  0.0236
 2703SOL    HW310585   4.343   1.456   0.152  0.3937  0.2264  0.2794
 2703SOL    MW410586   4.361   1.409   0.223  0.1377  0.4030 -0.0254
 2704SOL     OW10587   3.825   2.470   1.481 -0.3650 -0.2606  0.0803
 2704SOL    HW210588   3.885   2.404   1.514 -0.4968 -0.2338  0.3812
 2704SOL    HW310589   3.820   2.535   1.551  1.3701  1.1438 -1.0352
 2704SOL    MW410590   3.832   2.470   1.494 -0.0073  0.4023 -0.0139
 2705SOL     OW10591   4.042   3.367   0.522 -0.0874  0.1423 -0.1125
 2705SOL    HW210592   4.126   3.327   0.500 -0.7170 -2.2705  1.5144
 2705SOL    HW310593   4.041   3.371   0.617 -2.2552 -1.0451 -0.0056
 2705SOL    MW410594   4.053   3.362   0.531 -0.6237 -0.1086 -0.0717
 2706SOL     OW10595   4.806   0.633   4.589  0.8384 -0.7461  0.1869
 2706SOL    HW210596   4.788   0.682   4.509  1.0662  0.4981  0.8627
 2706SOL    HW310597   4.812   0.542   4.561  0.2000 -0.4228 -1.0885
 2706SOL    MW410598   4.804   0.628   4.575 -0.0108 -0.0759  0.4707
 2707SOL     OW10599   3.023   4.885   1.711 -0.2864 -0.3367  0.2302
 2707SOL    HW210600   3.030   4.943   1.635 -1.5001  0.7032  0.8743
 2707SOL    HW310601   3.097   4.824   1.702  0.0137  0.2221 -1.3793
 2707SOL    MW410602   3.034   4.884   1.700  0.5792  0.4280 -0.1704
 2708SOL     OW10603   0.718   4.056   6.034  0.1044  0.2102 -0.3349
 2708SOL    HW210604   0.667   4.112   6.092  1.4143  0.1087  0.9574
 2708SOL    HW310605   0.785   4.018   6.090  0.5427 -0.9997 -1.6387
 2708SOL    MW410606   0.720   4.059   6.049  0.1973 -0.0979  0.3628
 2709SOL     OW10607   1.497   2.705   5.353  0.2116  0.6011  0.6142
 2709SOL    HW210608   1.561   2.636   5.368  0.2580 -0.3620 -2.9395
 2709SOL    HW310609   1.544   2.769   5.299 -0.5900  2.1206  1.6527
 2709SOL    MW410610   1.512   2.704   5.348 -0.3145  0.4640 -0.3728
 2710SOL     OW10611   6.251   5.432   4.667  0.1210  0.3219 -0.0859
 2710SOL    HW210612   6.231   5.449   4.576  1.0504 -0.5971 -0.4870
 2710SOL    HW310613   6.243   5.517   4.710  2.3219  1.3588 -1.5541
 2710SOL    MW410614   6.248   5.445   4.661  0.5725 -0.0248  0.5355
 2711SOL     OW10615   2.279   3.804   6.220  0.0872  0.1723  0.3820
 2711SOL    HW210616   2.359   3.756   6.200 -0.6135 -0.5475 -0.7962
 2711SOL    HW310617   2.295   3.892   6.187  0.0303 -0.2389 -0.8031
 2711SOL    MW410618   2.292   3.809   6.213  0.0292  0.3163  0.1005
 2712SOL     OW10619   3.203   2.187   0.936  0.0612  0.0242 -0.2935
 2712SOL    HW210620   3.142   2.167   0.865 -1.8506 -1.4391  1.6144
 2712SOL    HW310621   3.263   2.112   0.938  0.8462  0.6140 -1.0436
 2712SOL    MW410622   3.203   2.175   0.927  0.0864  0.2122  0.9631
 2713SOL     OW10623   1.991   2.159   0.751 -0.3895  0.0296  0.2689
 2713SOL    HW210624   2.014   2.079   0.797 -2.7538 -0.4891  0.6816
 2713SOL    HW310625   2.059   2.168   0.684 -1.0006 -3.3832 -1.0398
 2713SOL    MW410626   2.003   2.149   0.748 -0.5060 -0.7420 -0.2975
 2714SOL     OW10627   3.775   1.067   6.224 -0.1429  0.3164  0.0600
 2714SOL    HW210628   3.724   1.033   6.298 -0.8655  1.6885  0.2352
 2714SOL    HW310629   3.865   1.067   6.255 -0.3525  0.2159  0.6998
 2714SOL    MW410630   3.780   1.063   6.238 -0.1375 -0.0230  0.5120
 2715SOL     OW10631   6.007   5.611   2.862 -0.1377  0.0768 -0.3962
 2715SOL    HW210632   5.997   5.567   2.778  0.3515 -1.1081  0.1483
 2715SOL    HW310633   6.048   5.695   2.840 -0.0836 -0.1863 -1.3482
 2715SOL    MW410634   6.011   5.616   2.848 -0.1171  0.4456 -0.1021
 2716SOL     OW10635   1.783   2.548   2.143 -0.3435  0.2667  0.3307
 2716SOL    HW210636   1.737   2.479   2.190 -1.7871  0.4590 -0.7419
 2716SOL    HW310637   1.838   2.590   2.210 -1.3610 -0.2816  1.5477
 2716SOL    MW410638   1.784   2.544   2.158 -0.1645 -0.2986  0.3683
 2717SOL     OW10639   0.783   6.084   6.013 -0.2822  0.0473 -0.4911
 2717SOL    HW210640   0.841   6.159   6.028  2.9227 -2.3044  0.0469
 2717SOL    HW310641   0.797   6.059   5.922 -0.0382 -0.8073 -0.2375
 2717SOL    MW410642   0.793   6.090   6.003 -1.1863  0.1416 -0.2572
 2718SOL     OW10643   3.449   1.399   2.819 -0.0797  0.5477  0.6382
 2718SOL    HW210644   3.443   1.312   2.778 -0.2681  1.6023 -1.7602
 2718SOL    HW310645   3.361   1.417   2.851 -0.0426 -0.1239  1.1428
 2718SOL    MW410646   3.437   1.390   2.818  0.1084 -0.1373  0.5375
 2719SOL     OW10647   5.375   2.768   3.993  0.4678  0.3500 -0.0023
 2719SOL    HW210648   5.395   2.804   3.907 -1.0224 -0.6394 -0.8118
 2719SOL    HW310649   5.456   2.724   4.019  0.5258 -0.5771 -1.5801
 2719SOL    MW410650   5.388   2.767   3.985 -0.3319 -0.1764 -0.3744
 2720SOL     OW10651   5.997   5.614   3.754  0.0007 -0.0786  0.4257
 2720SOL    HW210652   6.078   5.640   3.710  0.3001 -0.8698  0.5028
 2720SOL    HW310653   5.947   5.566   3.687 -0.5007  0.5825  0.3169
 2720SOL    MW410654   6.001   5.611   3.739  0.1419  0.4377  0.1268
 2721SOL     OW10655   3.874   4.384   5.161  0.2818 -0.4520 -0.1551
 2721SOL    HW210656   3.848   4.435   5.085  0.8404  1.8126  1.0845
 2721SOL    HW310657   3.957   4.343   5.135  1.4628  1.8288 -0.2101
 2721SOL    MW410658   3.882   4.385   5.148 -0.0424  0.5625 -0.0414
 2722SOL     OW10659   1.742   5.204   6.400  0.5575 -0.1908  0.3728
 2722SOL    HW210660   1.657   5.249   6.394  1.3084  1.3682  0.9145
 2722SOL    HW310661   1.796   5.247   6.334  1.1532 -0.6313  0.5724
 2722SOL    MW410662   1.738   5.216   6.390 -0.1850  0.5827 -0.3057
 2723SOL     OW10663   2.210   0.422   4.583 -0.0230  0.1647  0.5139
 2723SOL    HW210664   2.243   0.406   4.671 -1.8186 -3.2376  0.7081
 2723SOL    HW310665   2.115   0.413   4.590 -0.1523 -1.2239 -1.8858
 2723SOL    MW410666   2.202   0.419   4.595  0.3952 -0.0533 -0.0353
 2724SOL     OW10667   5.887   5.434   2.440  0.0482  0.0029 -0.6391
 2724SOL    HW210668   5.825   5.471   2.504 -1.1046  1.3584 -2.4584
 2724SOL    HW310669   5.904   5.345   2.473 -1.1732  0.3528  1.0780
 2724SOL    MW410670   5.881   5.427   2.453 -0.2356  0.0380 -0.5200
 2725SOL     OW10671   3.191   0.438   2.318 -0.0878 -0.1177  0.0437
 2725SOL    HW210672   3.260   0.493   2.280  1.9217 -2.2234  0.3999
 2725SOL    HW310673   3.137   0.414   2.243 -0.1488  1.1427 -0.3429
 2725SOL    MW410674   3.193   0.442   2.303  0.5523  0.3939  0.0917
 2726SOL     OW10675   0.199   1.684   1.171 -0.4122 -0.1820 -0.7455
 2726SOL    HW210676   0.114   1.641   1.169 -0.1564 -0.7588  0.1463
 2726SOL    HW310677   0.243   1.654   1.091 -0.4310 -1.1932 -0.3915
 2726SOL    MW410678   0.193   1.674   1.160  0.3119 -0.4044  0.3087
 2727SOL     OW10679   3.680   4.041   4.923 -0.3262  0.7454  0.2231
 2727SOL    HW210680   3.674   4.059   5.017  0.4785  0.2438  0.3822
 2727SOL    HW310681   3.690   3.946   4.917  1.0761  0.9049 -0.2801
 2727SOL    MW410682   3.681   4.031   4.935 -0.3415 -0.5310  0.1112
 2728SOL     OW10683   5.220   4.384   3.751 -0.1928  0.2698 -0.2890
 2728SOL    HW210684   5.258   4.446   3.814  0.7927 -0.7288  0.1440
 2728SOL    HW310685   5.150   4.433   3.708 -0.6550  1.1001  1.3307
 2728SOL    MW410686   5.216   4.398   3.754  0.0122  0.1477  0.1165
 2729SOL     OW10687   4.153   5.433   6.219  0.0796  0.0829 -0.1877
 2729SOL    HW210688   4.105   5.515   6.210  0.3172  0.4359  1.4331
 2729SOL    HW310689   4.228   5.443   6.161 -0.2571  0.7073 -0.5369
 2729SOL    MW410690   4.156   5.445   6.210 -0.0076  0.0343 -0.0813
 2730SOL     OW10691   1.785   5.957   5.566 -0.6817  0.0693  0.4087
 2730SOL    HW210692   1.850   5.922   5.506 -0.3967  1.8077 -0.3557
 2730SOL    HW310693   1.758   5.882   5.619  2.0649 -0.6989  0.8878
 2730SOL    MW410694   1.790   5.942   5.565  0.4015 -0.2219 -0.4707
 2731SOL     OW10695   6.300   6.095   4.614  0.2795  0.0164  0.0379
 2731SOL    HW210696   6.254   6.094   4.530 -0.4450  0.1801  0.4189
 2731SOL    HW310697   6.393   6.094   4.591  0.1012  0.9381 -0.7805
 2731SOL    MW410698   6.306   6.095   4.600  0.8064 -0.0455  0.4260
 2732SOL     OW10699   3.456   5.153   3.024  0.1384  0.2862 -0.1492
 2732SOL    HW210700   3.480   5.190   2.939 -1.4092 -0.4645 -0.9543
 2732SOL    HW310701   3.471   5.224   3.086 -0.3080  1.4214 -1.2874
 2732SOL    MW410702   3.461   5.167   3.021  0.4738  0.2474  0.4357
 2733SOL     OW10703   4.552   1.278   4.099  0.1601  0.1597 -0.1484
 2733SOL    HW210704   4.599   1.349   4.055  2.7814 -1.2415  0.1457
 2733SOL    HW310705   4.576   1.287   4.191 -0.4942 -0.3663  0.0803
 2733SOL    MW410706   4.561   1.289   4.105  0.3723  0.5013 -0.5940
 2734SOL     OW10707   3.039   1.983   6.238 -0.7242 -0.0526 -0.1595
 2734SOL    HW210708   3.006   1.894   6.253 -0.7348 -0.2360 -1.1996
 2734SOL    HW310709   3.028   1.997   6.144 -1.5911  1.4108  0.1302
 2734SOL    MW410710   3.033   1.973   6.228 -0.1945 -0.0323 -0.4802
 2735SOL     OW10711   4.638   2.798   4.655  0.2747 -0.3364  0.4766
 2735SOL    HW210712   4.719   2.783   4.607  0.6657 -1.7587  1.4904
 2735SOL    HW310713   4.658   2.870   4.714  1.1675 -1.2951  1.4022
 2735SOL    MW410714   4.651   2.805   4.657 -0.1889  0.3531  0.0061
 2736SOL     OW10715   3.742   3.141   1.667  0.3180 -0.0619 -0.0672
 2736SOL    HW210716   3.738   3.165   1.574  1.3406 -1.8723 -0.6291
 2736SOL    HW310717   3.835   3.130   1.685  0.1143 -0.0550  1.1093
 2736SOL    MW410718   3.754   3.143   1.657 -0.4327  0.0456  0.3137
 2737SOL     OW10719   0.883   6.021   4.265  0.1431 -0.2202 -0.4954
 2737SOL    HW210720   0.821   6.018   4.193  0.2099  0.8298 -0.6113
 2737SOL    HW310721   0.965   5.989   4.228  0.0264 -0.2715 -0.7094
 2737SOL    MW410722   0.886   6.016   4.251  0.0793  0.6398 -0.4207
 2738SOL     OW10723   4.645   5.655   3.853 -0.5141  0.5502 -0.1172
 2738SOL    HW210724   4.706   5.656   3.779 -1.5787  1.9453 -1.0395
 2738SOL    HW310725   4.625   5.562   3.866  0.7969  0.1678 -0.6281
 2738SOL    MW410726   4.651   5.643   3.845 -0.2685 -0.1153  0.1407
 2739SOL     OW10727   0.100   3.886   4.015  0.2607 -0.1660 -0.3849
 2739SOL    HW210728   0.017   3.839   4.020  0.4680 -1.1581 -3.7347
 2739SOL    HW310729   0.162   3.832   4.064 -0.8707  0.3093  1.6832
 2739SOL    MW410730   0.098   3.873   4.022  0.0261  0.3695 -0.0533
 2740SOL     OW10731   1.147   5.832   5.554  0.0670 -0.0639  0.2429
 2740SOL    HW210732   1.126   5.908   5.501 -0.2041  0.4689  1.0992
 2740SOL    HW310733   1.170   5.764   5.490  0.4367  0.7602 -0.5266
 2740SOL    MW410734   1.147   5.833   5.539 -0.3237 -0.2497 -0.6615
 2741SOL     OW10735   0.314   5.530   5.543  0.5396 -0.5875 -0.4390
 2741SOL    HW210736   0.278   5.444   5.520 -0.7010  0.1770 -1.5004
 2741SOL    HW310737   0.310   5.579   5.461 -0.8958  1.2021  0.6326
 2741SOL    MW410738   0.309   5.525   5.529  0.0453 -0.0117  0.2505
 2742SOL     OW10739   1.061   0.022   1.078  0.4929 -0.3027 -0.5049
 2742SOL    HW210740   1.117   0.098   1.094 -0.4119  0.6731 -1.7689
 2742SOL    HW310741   0.982   0.040   1.130  0.2106 -0.2961 -0.9319
 2742SOL    MW410742   1.058   0.035   1.087 -0.0937  0.1103  0.3669
 2743SOL     OW10743   5.518   4.362   2.272 -0.8250  0.0248  0.2625
 2743SOL    HW210744   5.497   4.276   2.234  0.0255 -0.7538  1.4677
 2743SOL    HW310745   5.542   4.342   2.362  2.0000  1.1967 -0.1430
 2743SOL    MW410746   5.518   4.348   2.279  0.0595  0.0575  0.4251
 2744SOL     OW10747   5.994   6.290   2.962  0.4139  0.0032 -0.1250
 2744SOL    HW210748   5.924   6.355   2.964 -0.6991 -1.1568 -0.3898
 2744SOL    HW310749   6.037   6.299   3.048 -1.8959 -1.1946  1.2456
 2744SOL    MW410750   5.991   6.300   2.974  0.8070 -0.0124 -0.0625
 2745SOL     OW10751   0.789   3.125   0.037  0.2354  0.3195 -0.3444
 2745SOL    HW210752   0.792   3.067  -0.039 -0.9290 -0.2831  0.0590
 2745SOL    HW310753   0.760   3.209   0.002 -2.4589 -0.5125 -0.2747
 2745SOL    MW410754   0.786   3.129   0.022 -0.6675  0.1510  0.1853
 2746SOL     OW10755   0.615   3.543   6.019 -0.0453  0.1502 -0.0973
 2746SOL    HW210756   0.586   3.452   6.017 -0.2258  0.1789  0.8007
 2746SOL    HW310757   0.638   3.563   5.928  0.2347 -0.8586 -0.2564
 2746SOL    MW410758   0.614   3.534   6.007 -0.2072 -0.0183  0.1599
 2747SOL     OW10759   4.204   5.083   2.588  0.7389 -0.3724  0.5706
 2747SOL    HW210760   4.187   5.156   2.648  1.0901 -0.4231  0.7339
 2747SOL    HW310761   4.270   5.030   2.633 -1.1933 -2.0840  1.5535
 2747SOL    MW410762   4.210   5.085   2.602  0.2181  0.1554  0.2441
 2748SOL     OW10763   1.439   2.438   3.442 -0.1727 -0.0982 -0.4035
 2748SOL    HW210764   1.383   2.441   3.364 -2.4664  3.2463  1.1189
 2748SOL    HW310765   1.398   2.371   3.498  0.6046 -1.4395 -1.3836
 2748SOL    MW410766   1.426   2.429   3.439 -0.1435  0.2691 -0.4617
 2749SOL     OW10767   4.093   4.721   4.855  0.1913  0.5786 -0.6038
 2749SOL    HW210768   4.098   4.706   4.760  0.0404  0.2731 -0.5652
 2749SOL    HW310769   4.044   4.802   4.864 -0.6238  0.1177 -0.7597
 2749SOL    MW410770   4.087   4.730   4.843  0.3495 -0.6039  0.0450
 2750SOL     OW10771   3.564   4.134   1.817  0.1452  0.2302 -0.3874
 2750SOL    HW210772   3.659   4.149   1.813  0.3006 -0.6488 -0.2502
 2750SOL    HW310773   3.531   4.207   1.870  0.9007 -0.0829  0.5434
 2750SOL    MW410774   3.572   4.146   1.823 -0.2295  0.0166 -0.5298
 2751SOL     OW10775   2.357   3.031   3.762  0.1177 -0.3540 -0.0821
 2751SOL    HW210776   2.430   3.008   3.705 -0.2615  1.4463 -1.3615
 2751SOL    HW310777   2.285   3.050   3.703 -0.6586  0.3418  1.0489
 2751SOL    MW410778   2.357   3.030   3.747  0.2343  0.0426  0.2223
 2752SOL     OW10779   6.419   1.685   5.667  0.2519  0.1145 -0.3312
 2752SOL    HW210780   6.477   1.726   5.603  0.2474  0.1485 -0.3130
 2752SOL    HW310781   6.475   1.623   5.714 -0.2539 -1.7102 -1.9839
 2752SOL    MW410782   6.434   1.682   5.664 -0.3923 -0.3057  0.2174
 2753SOL     OW10783   3.741   0.238   5.274  0.3473 -0.7863  0.1326
 2753SOL    HW210784   3.781   0.309   5.225  1.9684 -2.0986 -0.5394
 2753SOL    HW310785   3.657   0.223   5.229 -0.0656  0.7352  0.3568
 2753SOL    MW410786   3.735   0.245   5.261 -0.5084  0.7407 -0.3585
 2754SOL     OW10787   4.956   0.540   0.092  0.0705  0.0818  0.4094
 2754SOL    HW210788   4.970   0.613   0.032  1.7192  0.2865  0.9854
 2754SOL    HW310789   4.994   0.464   0.047 -2.8733 -0.7923 -0.8039
 2754SOL    MW410790   4.963   0.539   0.078 -0.2743  0.2052  0.0169
 2755SOL     OW10791   6.328   6.281   4.257  0.3706  0.2797 -0.0634
 2755SOL    HW210792   6.353   6.305   4.168 -2.0016  2.7335 -0.2140
 2755SOL    HW310793   6.361   6.352   4.311  2.3637 -1.5008  1.2453
 2755SOL    MW410794   6.336   6.293   4.252 -0.0982 -0.4910  0.2638
 2756SOL     OW10795   5.556   5.469   4.712 -0.5629  0.2792 -0.0568
 2756SOL    HW210796   5.504   5.423   4.778 -0.8514  1.1077  0.3072
 2756SOL    HW310797   5.622   5.517   4.763 -0.9366  1.1141 -0.3568
 2756SOL    MW410798   5.558   5.469   4.728  0.6059  0.5052  0.3930
 2757SOL     OW10799   3.368   2.180   5.854  0.0167 -0.4234  0.3359
 2757SOL    HW210800   3.349   2.187   5.947  0.3202 -0.5148  0.4050
 2757SOL    HW310801   3.461   2.201   5.846 -0.3870  1.4230 -0.1606
 2757SOL    MW410802   3.377   2.184   5.865 -0.0518  0.5237 -0.5160
 2758SOL     OW10803   0.035   0.025   2.950  0.4694  0.5888  0.3536
 2758SOL    HW210804  -0.045   0.009   2.900  0.7437  1.4489 -0.3739
 2758SOL    HW310805   0.106   0.018   2.887  0.6759  3.9019  0.0341
 2758SOL    MW410806   0.033   0.022   2.935 -0.0615  1.0742 -0.1716
 2759SOL     OW10807   1.309   5.214   0.118  0.1930  0.5225 -0.2012
 2759SOL    HW210808   1.227   5.233   0.072 -0.8492  2.8602  2.2692
 2759SOL    HW310809   1.292   5.133   0.165 -0.0903  0.1206 -0.9833
 2759SOL    MW410810   1.296   5.206   0.118 -0.1684 -0.3744  0.3883
 2760SOL     OW10811   0.268   6.125   1.383 -0.4028  0.0724 -0.3172
 2760SOL    HW210812   0.227   6.041   1.361  0.2886 -0.6016  0.8265
 2760SOL    HW310813   0.196   6.182   1.409 -0.7097 -0.9065  1.1094
 2760SOL    MW410814   0.253   6.121   1.384 -0.2225  0.0637 -0.1758
 2761SOL     OW10815   6.220   5.079   1.813  0.0427  0.1036  0.2910
 2761SOL    HW210816   6.150   5.021   1.843  0.0235  0.1758  0.3890
 2761SOL    HW310817   6.207   5.086   1.719  0.8575 -1.1302  0.0654
 2761SOL    MW410818   6.209   5.072   1.805 -0.1120 -0.0925  0.1502
 2762SOL     OW10819   2.555   2.956   0.523  0.1850 -0.2866  0.7136
 2762SOL    HW210820   2.561   2.986   0.614  0.3019  2.2363 -0.0573
 2762SOL    HW310821   2.473   2.995   0.491 -0.2071 -1.7144 -0.0968
 2762SOL    MW410822   2.545   2.965   0.531 -0.9862  0.0317 -0.2935
 2763SOL     OW10823   0.090   4.554   3.116  0.1670  0.2364 -0.1618
 2763SOL    HW210824   0.074   4.576   3.207  1.4008  0.6007 -0.0030
 2763SOL    HW310825   0.154   4.483   3.119 -0.5085 -0.4115 -0.7387
 2763SOL    MW410826   0.097   4.548   3.128  0.6482  0.5346  0.2384
 2764SOL     OW10827   5.561   2.508   3.276 -0.8152  0.2939 -0.8763
 2764SOL    HW210828   5.619   2.582   3.291  0.7402 -1.3542  2.0387
 2764SOL    HW310829   5.515   2.530   3.195  1.7177  3.0387 -1.7410
 2764SOL    MW410830   5.562   2.520   3.267  0.3861 -0.2422 -0.1796
 2765SOL     OW10831   4.423   3.358   3.170  0.2298 -0.8635  0.2636
 2765SOL    HW210832   4.465   3.443   3.185 -1.2678  0.3575 -1.8940
 2765SOL    HW310833   4.347   3.358   3.228  0.9634 -1.3487  1.2502
 2765SOL    MW410834   4.418   3.369   3.180  0.1815  0.2712 -0.4057
 2766SOL     OW10835   2.031   5.657   1.396  0.4364 -0.0012  0.2341
 2766SOL    HW210836   2.121   5.689   1.390  1.8700 -3.7323 -1.1341
 2766SOL    HW310837   2.028   5.608   1.478 -0.4639  0.3004  0.3915
 2766SOL    MW410838   2.043   5.655   1.406 -0.3687  0.1916  0.6508
 2767SOL     OW10839   0.272   3.385   0.676 -0.4648  0.5629 -0.1053
 2767SOL    HW210840   0.336   3.361   0.609 -0.1081  0.3798  0.2964
 2767SOL    HW310841   0.194   3.413   0.627 -0.2853  0.2157 -0.5888
 2767SOL    MW410842   0.270   3.386   0.661  0.1979  0.4053  0.0073
 2768SOL     OW10843   2.949   1.321   5.457 -0.3040  0.7940  0.0659
 2768SOL    HW210844   3.044   1.306   5.463 -0.2925  0.0385 -1.4940
 2768SOL    HW310845   2.910   1.255   5.514  0.1083  1.4397  1.1249
 2768SOL    MW410846   2.957   1.311   5.465  0.5493 -0.0906  0.1395
 2769SOL     OW10847   0.103   3.557   3.701 -0.3115 -0.1191  0.0245
 2769SOL    HW210848   0.093   3.622   3.632 -0.7927  0.4028  0.5685
 2769SOL    HW310849   0.196   3.535   3.700  0.3341  2.2168  1.2562
 2769SOL    MW410850   0.114   3.563   3.692 -0.2374  0.5459 -0.7011
 2770SOL     OW10851   5.692   5.770   0.188  0.1354 -0.0587 -0.1773
 2770SOL    HW210852   5.777   5.815   0.193 -0.5832  1.2503  1.2079
 2770SOL    HW310853   5.689   5.716   0.267  0.3432 -1.4080 -1.0613
 2770SOL    MW410854   5.703   5.769   0.199  1.2367 -0.2184 -0.0273
 2771SOL     OW10855   1.841   3.578   6.317  0.0390  0.1546  0.5620
 2771SOL    HW210856   1.837   3.562   6.411  2.0426 -0.7949  0.5511
 2771SOL    HW310857   1.934   3.565   6.295 -0.1963  1.3857 -1.3669
 2771SOL    MW410858   1.853   3.574   6.326  0.4476 -0.0891  0.0266
 2772SOL     OW10859   6.293   2.301   0.443 -0.1549 -0.1216 -1.0159
 2772SOL    HW210860   6.328   2.312   0.355 -2.0419 -0.7311 -1.8812
 2772SOL    HW310861   6.282   2.207   0.454 -0.9196  0.0138 -0.5376
 2772SOL    MW410862   6.296   2.290   0.433 -0.7073  0.0216 -0.3073
 2773SOL     OW10863   5.758   3.825   1.294  0.7711  1.0789  0.2369
 2773SOL    HW210864   5.746   3.889   1.224  0.0125  0.6482 -0.0381
 2773SOL    HW310865   5.824   3.864   1.351  2.4303  0.7971 -1.4348
 2773SOL    MW410866   5.765   3.839   1.292  0.6895  0.4479  0.2814
 2774SOL     OW10867   3.427   0.275   3.993 -0.1494 -0.0767 -0.5893
 2774SOL    HW210868   3.402   0.357   4.036  1.3272  0.9150 -1.5122
 2774SOL    HW310869   3.347   0.244   3.951 -1.0986  0.0641  1.0426
 2774SOL    MW410870   3.413   0.281   3.993  0.3887 -0.0252  0.0908
 2775SOL     OW10871   3.105   3.996   4.581 -0.3236 -0.2084  0.6497
 2775SOL    HW210872   3.146   4.051   4.515  0.5335 -0.4366  0.9752
 2775SOL    HW310873   3.149   4.021   4.663 -1.0881 -0.2114  1.0673
 2775SOL    MW410874   3.116   4.007   4.583 -0.3198  0.4864 -0.6145
 2776SOL     OW10875   3.017   0.716   5.292  0.2579  0.4127  0.2129
 2776SOL    HW210876   2.970   0.799   5.304  0.6206  0.7303 -0.4652
 2776SOL    HW310877   3.038   0.715   5.198 -1.7992 -1.5410 -0.3282
 2776SOL    MW410878   3.013   0.727   5.281 -0.6447  0.0676  0.2001
 2777SOL     OW10879   1.563   0.127   4.585 -0.4060 -1.0089 -0.0532
 2777SOL    HW210880   1.495   0.136   4.653  1.2367 -0.2228  1.5740
 2777SOL    HW310881   1.543   0.043   4.543 -0.3985 -2.5310  2.7398
 2777SOL    MW410882   1.551   0.117   4.589  0.0780 -0.1402  0.7333
 2778SOL     OW10883   6.131   5.959   1.695  0.2191 -0.0874 -0.0260
 2778SOL    HW210884   6.163   5.878   1.736 -0.5053  0.0397  0.8146
 2778SOL    HW310885   6.209   5.997   1.653  0.5283 -1.3256 -0.6354
 2778SOL    MW410886   6.146   5.953   1.695 -0.3720  0.2765  0.3037
 2779SOL     OW10887   1.732   2.355   5.631 -0.1937 -0.4535  0.4398
 2779SOL    HW210888   1.726   2.429   5.693 -0.2161  0.2935 -0.4314
 2779SOL    HW310889   1.669   2.291   5.665 -1.5629  0.7084  0.1893
 2779SOL    MW410890   1.723   2.357   5.644 -0.0248 -0.0769 -0.1631
 2780SOL     OW10891   0.110   3.683   1.755  0.0150  0.1877  0.6916
 2780SOL    HW210892   0.081   3.772   1.774 -1.7708 -0.3765  0.8718
 2780SOL    HW310893   0.104   3.637   1.839  1.3200 -0.0259  0.6914
 2780SOL    MW410894   0.105   3.688   1.769 -0.2235  0.2611 -0.3951
 2781SOL     OW10895   4.327   1.383   1.898 -0.4890 -0.0807  0.2681
 2781SOL    HW210896   4.356   1.296   1.873  0.0193  0.3109 -0.5564
 2781SOL    HW310897   4.345   1.438   1.821 -0.3656  0.8404  0.9318
 2781SOL    MW410898   4.333   1.379   1.885 -0.1760  0.1182  0.4023
 2782SOL     OW10899   0.330   0.249   0.392 -0.3675 -0.0551 -0.2202
 2782SOL    HW210900   0.353   0.170   0.343 -2.4095 -0.3849 -0.7131
 2782SOL    HW310901   0.345   0.321   0.331 -0.0091 -0.1778 -0.2825
 2782SOL    MW410902   0.335   0.248   0.378  0.1308 -0.3676  0.2040
 2783SOL     OW10903   5.193   3.219   2.113  0.1983  0.5803 -0.0709
 2783SOL    HW210904   5.119   3.186   2.062 -0.0649  1.3415 -0.2001
 2783SOL    HW310905   5.191   3.168   2.194  0.1800 -0.1357 -0.5122
 2783SOL    MW410906   5.183   3.208   2.117  0.1893  0.4300  0.0307
 2784SOL     OW10907   2.897   3.282   2.445 -0.2222  0.1683 -0.8133
 2784SOL    HW210908   2.904   3.193   2.411  2.4826  0.4429 -1.2009
 2784SOL    HW310909   2.983   3.301   2.481 -0.5600  2.7914 -1.1487
 2784SOL    MW410910   2.909   3.273   2.445  0.5777 -0.0436  0.2591
 2785SOL     OW10911   1.609   4.016   6.325 -0.2919  0.1283  0.1533
 2785SOL    HW210912   1.557   4.022   6.406  0.4028  0.4212  0.5841
 2785SOL    HW310913   1.657   4.098   6.321 -0.9737  0.4958 -1.0277
 2785SOL    MW410914   1.608   4.027   6.335 -0.0487 -0.0671 -0.2410
 2786SOL     OW10915   5.893   2.462   2.088 -0.4176 -0.2114  0.6783
 2786SOL    HW210916   5.853   2.502   2.010 -1.4284 -0.5041  1.0285
 2786SOL    HW310917   5.835   2.488   2.160 -0.5423 -1.4698  1.0619
 2786SOL    MW410918   5.880   2.471   2.087 -0.1044 -0.4347 -0.0348
 2787SOL     OW10919   4.698   0.230   0.892  0.0568  0.1427  0.1189
 2787SOL    HW210920   4.658   0.308   0.853  0.1068 -0.0221 -0.2613
 2787SOL    HW310921   4.672   0.234   0.984  0.1548  0.6713  0.1293
 2787SOL    MW410922   4.689   0.241   0.899 -0.0163  0.1008 -0.4086
 2788SOL     OW10923   4.551   0.432   4.809  0.4841 -0.6070 -0.6458
 2788SOL    HW210924   4.470   0.458   4.854  0.1131 -0.5184 -1.3467
 2788SOL    HW310925   4.621   0.455   4.870  0.0029 -0.3156 -0.1933
 2788SOL    MW410926   4.549   0.438   4.823 -0.3207 -0.9109  0.2718
 2789SOL     OW10927   3.296   2.934   2.253 -0.0472  0.4025 -0.0917
 2789SOL    HW210928   3.259   2.989   2.185 -2.7684 -0.4323  0.5904
 2789SOL    HW310929   3.361   2.880   2.208  0.0475  1.6090 -1.4728
 2789SOL    MW410930   3.299   2.934   2.238  0.7461 -0.1568 -0.0406
 2790SOL     OW10931   2.348   3.159   4.332  0.2563 -0.0311 -0.1010
 2790SOL    HW210932   2.305   3.078   4.304 -0.0192  0.0758  0.0149
 2790SOL    HW310933   2.442   3.139   4.326  0.4211  1.0858 -4.5262
 2790SOL    MW410934   2.355   3.146   4.327  0.0032  0.5229 -0.3675
 2791SOL     OW10935   4.467   0.756   4.144 -0.1848  0.7476  0.2857
 2791SOL    HW210936   4.461   0.844   4.105 -0.1416  0.4744 -0.3546
 2791SOL    HW310937   4.379   0.720   4.134 -0.1544  0.6478  0.3790
 2791SOL    MW410938   4.454   0.763   4.137 -0.1584 -0.1504 -0.4568
 2792SOL     OW10939   5.072   3.546   3.009 -0.2206  0.2659 -0.4082
 2792SOL    HW210940   5.033   3.596   2.938  2.3929 -0.2398 -2.3328
 2792SOL    HW310941   5.151   3.595   3.033  0.5403 -1.1159  0.0463
 2792SOL    MW410942   5.077   3.559   3.003 -0.2582  0.6254  0.2275
 2793SOL     OW10943   1.414   6.262   2.834  0.2659 -0.6067  0.2231
 2793SOL    HW210944   1.493   6.249   2.781  0.6083 -0.3124  0.6488
 2793SOL    HW310945   1.403   6.357   2.836  1.3666 -0.4647  2.2300
 2793SOL    MW410946   1.423   6.273   2.827  0.2472 -0.4364  0.0834
 2794SOL     OW10947   0.361   4.300   1.782 -0.1304 -0.0760  0.2644
 2794SOL    HW210948   0.347   4.321   1.874 -0.9218  1.8052 -0.2380
 2794SOL    HW310949   0.415   4.371   1.748 -0.8853 -0.0582 -0.9948
 2794SOL    MW410950   0.366   4.312   1.789  0.8343 -0.5679 -0.1710
 2795SOL     OW10951   4.051   2.299   2.573 -0.0358  0.0829 -0.0230
 2795SOL    HW210952   3.963   2.336   2.585  0.4583  1.3781 -0.1981
 2795SOL    HW310953   4.036   2.218   2.525 -1.1289  0.3605 -0.1856
 2795SOL    MW410954   4.037   2.293   2.568  0.2035 -0.6082 -0.1960
 2796SOL     OW10955   3.653   2.895   3.774 -0.1622 -0.0308  0.0573
 2796SOL    HW210956   3.578   2.915   3.829  0.1511  0.7640  0.2064
 2796SOL    HW310957   3.640   2.804   3.747 -0.2286 -0.4997  1.5908
 2796SOL    MW410958   3.642   2.886   3.777  0.2720 -0.4523 -0.1168
 2797SOL     OW10959   4.247   2.659   0.988 -0.0329  0.2503 -0.1160
 2797SOL    HW210960   4.244   2.615   1.073  0.6390 -0.5901 -0.5144
 2797SOL    HW310961   4.340   2.675   0.972 -0.2802  2.3691  0.2742
 2797SOL    MW410962   4.259   2.656   0.997 -0.5611  0.0643 -0.3976
 2798SOL     OW10963   4.867   5.406   3.642 -0.0773  0.2252  0.6926
 2798SOL    HW210964   4.890   5.366   3.558 -1.3718 -0.2334  0.5425
 2798SOL    HW310965   4.861   5.500   3.623 -0.6798  0.0905  0.1903
 2798SOL    MW410966   4.869   5.413   3.629 -0.1346 -0.0748  0.6560
 2799SOL     OW10967   0.656   1.884   5.572  0.2084  0.4983  0.4036
 2799SOL    HW210968   0.607   1.935   5.508 -3.4843  0.0051  2.5772
 2799SOL    HW310969   0.676   1.802   5.527 -3.2523 -0.2831  0.0421
 2799SOL    MW410970   0.652   1.880   5.558 -0.0267  0.0170  0.5587
 2800SOL     OW10971   0.073   0.187   0.798 -0.4227  0.8044  0.0958
 2800SOL    HW210972   0.095   0.203   0.706  0.2110  1.4678  0.3528
 2800SOL    HW310973  -0.015   0.148   0.795  1.3994 -3.9269 -1.1068
 2800SOL    MW410974   0.064   0.184   0.786 -0.6080  0.6522 -0.0451
 2801SOL     OW10975   4.974   2.504   3.482 -0.7140  0.2319 -0.1090
 2801SOL    HW210976   4.950   2.487   3.390  1.2457 -1.3115 -0.3920
 2801SOL    HW310977   5.059   2.462   3.493 -0.4541  1.2106  2.1877
 2801SOL    MW410978   4.982   2.496   3.471  0.2202  0.1420 -0.1045
 2802SOL     OW10979   1.019   2.050   0.844  0.1820 -0.6035  0.4458
 2802SOL    HW210980   0.940   2.069   0.792  0.3609 -0.4156  0.2430
 2802SOL    HW310981   1.037   2.131   0.891  0.2582 -0.6462  0.4895
 2802SOL    MW410982   1.011   2.063   0.843 -0.3536 -0.2262 -0.4587
 2803SOL     OW10983   2.326   5.665   1.407 -0.1000 -0.4223 -0.3326
 2803SOL    HW210984   2.340   5.643   1.499  0.0194  1.3869  0.1123
 2803SOL    HW310985   2.412   5.690   1.374 -0.2822 -0.2726 -0.7051
 2803SOL    MW410986   2.339   5.665   1.415  0.2249 -0.5140  0.3783
 2804SOL     OW10987   4.951   1.516   3.861  0.1017  0.6433  0.3755
 2804SOL    HW210988   5.032   1.555   3.895  0.8324  0.8225 -1.4681
 2804SOL    HW310989   4.978   1.470   3.781 -1.6833  1.0704 -0.5220
 2804SOL    MW410990   4.965   1.515   3.855  0.5957 -0.3444  0.0742
 2805SOL     OW10991   5.302   3.992   5.295  0.3349  0.0186  0.0791
 2805SOL    HW210992   5.248   3.923   5.256  1.5782 -0.1345 -1.4391
 2805SOL    HW310993   5.352   4.027   5.222  1.5022  0.8919  1.2706
 2805SOL    MW410994   5.301   3.987   5.281  0.0681 -0.2276 -0.3430
 2806SOL     OW10995   6.213   6.101   0.091  0.2405  0.0366  0.1962
 2806SOL    HW210996   6.304   6.128   0.101 -0.0846  0.6837  1.4946
 2806SOL    HW310997   6.169   6.176   0.052  0.0026  0.2153  0.7954
 2806SOL    MW410998   6.219   6.114   0.087  0.1901 -0.1264 -0.4338
 2807SOL     OW10999   0.685   3.446   5.692 -0.5269 -0.0138 -0.5017
 2807SOL    HW211000   0.632   3.467   5.615  0.1275  0.3124 -0.8709
 2807SOL    HW311001   0.772   3.429   5.657 -0.0285  0.8969  0.2358
 2807SOL    MW411002   0.689   3.447   5.677  0.6601 -0.4844  0.5664
 2808SOL     OW11003   0.155   6.291   3.158 -0.3455  0.6733  0.2013
 2808SOL    HW211004   0.246   6.313   3.175  0.2059 -0.3183 -1.2501
 2808SOL    HW311005   0.120   6.366   3.109  0.1316  0.4318 -0.5268
 2808SOL    MW411006   0.162   6.304   3.153 -0.8228 -1.3966 -0.1127
 2809SOL     OW11007   2.194   0.016   1.671 -0.3214 -0.0165  0.7128
 2809SOL    HW211008   2.152   0.069   1.604  0.2665 -1.2054 -0.6677
 2809SOL    HW311009   2.168   0.055   1.754 -1.0044  1.5543 -0.2132
 2809SOL    MW411010   2.185   0.028   1.673 -0.0706 -0.4006  0.0461
 2810SOL     OW11011   1.388   0.878   5.086  0.1451 -0.0255 -0.3274
 2810SOL    HW211012   1.426   0.792   5.107  1.1735 -0.2047 -2.6714
 2810SOL    HW311013   1.294   0.862   5.086  0.3271 -1.2622 -1.0269
 2810SOL    MW411014   1.381   0.865   5.089  0.3742  0.2779  0.1977
 2811SOL     OW11015   2.280   1.942   0.642 -0.2708 -0.0676 -0.2987
 2811SOL    HW211016   2.336   1.992   0.702 -1.6032  0.4159  0.5999
 2811SOL    HW311017   2.262   2.001   0.570 -2.3182  1.0725  1.0389
 2811SOL    MW411018   2.285   1.956   0.641  0.0790 -0.0388  0.2422
 2812SOL     OW11019   4.594   4.065   2.357  0.4710 -0.6405  0.2800
 2812SOL    HW211020   4.567   4.137   2.415  2.3684  1.8074 -1.5990
 2812SOL    HW311021   4.528   4.065   2.287  0.5529 -0.6334  0.2034
 2812SOL    MW411022   4.582   4.075   2.356  0.0093 -0.3500 -0.4368
 2813SOL     OW11023   2.786   0.331   3.146 -0.0284  0.2263  0.1611
 2813SOL    HW211024   2.716   0.312   3.208  0.7003  0.3699  1.0494
 2813SOL    HW311025   2.866   0.320   3.197  0.7162 -2.0268 -1.3399
 2813SOL    MW411026   2.787   0.327   3.161 -0.0082  0.1561  0.6425
 2814SOL     OW11027   5.019   4.224   1.678  0.2179  0.0844  0.5254
 2814SOL    HW211028   4.931   4.258   1.694  0.2602  0.7579 -0.5798
 2814SOL    HW311029   5.005   4.136   1.642  0.0516 -0.3346  1.5832
 2814SOL    MW411030   5.006   4.217   1.675 -0.5055  1.0013  0.2485
 2815SOL     OW11031   0.316   1.921   5.930  0.1022  0.2705  0.7168
 2815SOL    HW211032   0.335   2.002   5.882  1.8004 -0.6970 -0.3311
 2815SOL    HW311033   0.223   1.905   5.914  0.3227  0.6693 -1.2157
 2815SOL    MW411034   0.306   1.930   5.922 -0.9099 -0.1340  0.0650
 2816SOL     OW11035   4.745   2.698   0.087  0.3101  0.2527 -0.6854
 2816SOL    HW211036   4.774   2.666   0.001  0.4933 -0.1106 -0.4886
 2816SOL    HW311037   4.667   2.749   0.068  1.2459  1.5211 -1.2781
 2816SOL    MW411038   4.739   2.701   0.073  0.0579  0.2369 -0.5424
 2817SOL     OW11039   5.834   0.089   2.891  0.0216 -0.3280 -0.8451
 2817SOL    HW211040   5.895   0.148   2.846 -2.7777  2.2146 -1.6536
 2817SOL    HW311041   5.815   0.021   2.827  1.2888 -0.6769 -0.8810
 2817SOL    MW411042   5.840   0.088   2.877  0.1296 -0.4919  0.1139
 2818SOL     OW11043   4.744   6.065   1.147 -0.6241  0.1931 -0.1384
 2818SOL    HW211044   4.833   6.054   1.116 -0.5904 -0.9708  0.3325
 2818SOL    HW311045   4.715   6.148   1.109  0.6599  0.5945 -0.2724
 2818SOL    MW411046   4.752   6.075   1.138  0.7292  0.2399  0.1251
 2819SOL     OW11047   4.160   2.552   2.594  0.1528 -0.1661  0.2881
 2819SOL    HW211048   4.112   2.471   2.579  0.4171 -0.4149  0.7753
 2819SOL    HW311049   4.126   2.612   2.528 -0.7258 -0.3809  0.5284
 2819SOL    MW411050   4.149   2.549   2.583 -0.0233 -0.5585 -0.2720
 2820SOL     OW11051   2.679   2.121   4.584  0.5459  0.5042  0.1995
 2820SOL    HW211052   2.695   2.154   4.496 -1.6203  1.4576  0.1031
 2820SOL    HW311053   2.754   2.150   4.635  1.0895  1.2658 -0.9944
 2820SOL    MW411054   2.691   2.129   4.579  0.3235  0.3772  0.0777
 2821SOL     OW11055   1.929   3.484   4.692  0.5921  0.5087  0.2246
 2821SOL    HW211056   1.844   3.528   4.694  1.0610  1.4676 -0.0345
 2821SOL    HW311057   1.960   3.498   4.603  1.3474  0.8279  0.5310
 2821SOL    MW411058   1.922   3.492   4.681  0.0073 -0.0729 -0.0900
 2822SOL     OW11059   6.365   1.099   4.151 -0.0537 -0.1332  0.1694
 2822SOL    HW211060   6.427   1.165   4.119  0.4024  0.9634  2.9914
 2822SOL    HW311061   6.397   1.017   4.115  0.0733  0.9751 -2.4857
 2822SOL    MW411062   6.377   1.097   4.142 -0.4945  0.1203 -0.1577
 2823SOL     OW11063   2.261   3.305   0.578 -0.3514 -0.0410  0.6485
 2823SOL    HW211064   2.261   3.392   0.540 -0.0797  0.4008  1.6271
 2823SOL    HW311065   2.347   3.296   0.619 -0.1769 -0.9707  0.1100
 2823SOL    MW411066   2.272   3.315   0.579 -0.2382  0.2693 -0.2624
 2824SOL     OW11067   3.614   0.695   1.227  0.1446  0.1966 -0.2086
 2824SOL    HW211068   3.529   0.738   1.215 -0.5568 -1.4575 -1.4722
 2824SOL    HW311069   3.649   0.734   1.308 -1.5969  1.2372  0.0953
 2824SOL    MW411070   3.608   0.706   1.236  0.4408  0.6066 -0.4065
 2825SOL     OW11071   3.570   2.916   6.286  0.0387 -0.1810  0.6609
 2825SOL    HW211072   3.629   2.980   6.325 -0.7999 -0.2906  2.1557
 2825SOL    HW311073   3.499   2.906   6.350 -2.0480  0.5329 -1.3792
 2825SOL    MW411074   3.568   2.923   6.299 -0.2853 -0.3369 -0.3505
 2826SOL     OW11075   3.949   4.638   0.510  0.1050  0.1712 -0.2716
 2826SOL    HW211076   3.959   4.588   0.591  1.3867  0.8476  0.0147
 2826SOL    HW311077   3.913   4.722   0.539 -1.7958 -0.4522 -0.7184
 2826SOL    MW411078   3.946   4.643   0.525  0.2729  0.0698  0.7355
 2827SOL     OW11079   2.074   1.898   4.975  0.0160  0.3016  0.1156
 2827SOL    HW211080   2.168   1.916   4.984 -0.1105  1.7818 -1.1753
 2827SOL    HW311081   2.031   1.972   5.019 -0.6098 -0.9752  1.7954
 2827SOL    MW411082   2.081   1.910   4.982 -0.4314 -0.7227  0.6120
 2828SOL     OW11083   4.934   1.027   4.940  0.1361  0.4766 -0.0581
 2828SOL    HW211084   4.928   0.945   4.892 -1.9814 -0.2569  1.2789
 2828SOL    HW311085   5.004   1.012   5.004  1.0233  0.4246 -1.0189
 2828SOL    MW411086   4.942   1.014   4.942 -0.5910 -0.1906  0.1499
 2829SOL     OW11087   5.888   0.225   3.794  0.0501  0.0367 -0.5986
 2829SOL    HW211088   5.947   0.159   3.830 -0.7749  0.0165  0.7846
 2829SOL    HW311089   5.943   0.276   3.734  1.3014 -0.3605  0.1770
 2829SOL    MW411090   5.903   0.223   3.790 -0.3028 -0.4525 -0.2195
 2830SOL     OW11091   3.988   3.635   0.435 -0.6350 -0.2399 -0.8664
 2830SOL    HW211092   4.057   3.684   0.480 -2.1111  0.5942  0.5852
 2830SOL    HW311093   3.992   3.548   0.473 -1.8899  0.4675  1.0209
 2830SOL    MW411094   3.998   3.630   0.446 -0.6483 -0.1146 -0.3012
 2831SOL     OW11095   1.315   2.261   3.624 -0.3879 -0.2567  0.0877
 2831SOL    HW211096   1.289   2.325   3.691  0.5605  1.4652 -1.0993
 2831SOL    HW311097   1.389   2.215   3.663 -0.6668 -0.1774  0.7205
 2831SOL    MW411098   1.322   2.263   3.638  0.1410  0.0144 -0.2028
 2832SOL     OW11099   4.251   5.374   3.413  0.0630  0.1004 -0.6650
 2832SOL    HW211100   4.241   5.284   3.442 -1.3642  0.7372  0.9836
 2832SOL    HW311101   4.297   5.367   3.329 -0.9450 -2.2068 -1.1005
 2832SOL    MW411102   4.256   5.361   3.406 -0.2180 -0.5324  0.3462
 2833SOL     OW11103   2.016   4.856   2.085 -0.7880 -0.1429 -0.2761
 2833SOL    HW211104   2.056   4.931   2.041  1.6403 -0.5782  1.0210
 2833SOL    HW311105   2.058   4.854   2.171 -2.7243 -1.4642  0.7040
 2833SOL    MW411106   2.027   4.866   2.090 -0.5669 -0.1025  0.5114
 2834SOL     OW11107   4.025   4.533   3.186  0.0133  0.2787 -0.1912
 2834SOL    HW211108   4.000   4.516   3.095  0.0775 -1.8423  0.1458
 2834SOL    HW311109   3.998   4.455   3.233  0.8748  0.9382  1.4615
 2834SOL    MW411110   4.018   4.521   3.180  0.0046 -0.1900 -0.3380
 2835SOL     OW11111   2.271   0.778   0.816 -0.2430 -0.1200 -0.0478
 2835SOL    HW211112   2.211   0.844   0.782  0.1139  0.5763  0.6495
 2835SOL    HW311113   2.357   0.803   0.781  0.1203  0.5733  1.2637
 2835SOL    MW411114   2.275   0.790   0.807 -0.4931  0.6091  0.8346
 2836SOL     OW11115   2.441   0.786   5.972 -0.3757  0.3530 -0.3215
 2836SOL    HW211116   2.365   0.760   5.919 -0.3055  1.0344 -0.7668
 2836SOL    HW311117   2.472   0.866   5.931 -0.6229  1.1950  1.0738
 2836SOL    MW411118   2.435   0.793   5.959 -0.5853  0.0604  0.0233
 2837SOL     OW11119   5.089   4.985   3.958 -0.0789  0.0083 -0.1356
 2837SOL    HW211120   5.048   4.898   3.960  0.5329 -0.2949 -0.5412
 2837SOL    HW311121   5.167   4.974   3.903  0.0317  0.8035 -0.1547
 2837SOL    MW411122   5.094   4.972   3.951 -0.9236  0.2073 -0.0649
 2838SOL     OW11123   2.781   4.605   2.820 -0.1614  0.4364 -0.4293
 2838SOL    HW211124   2.866   4.619   2.862 -0.9292 -1.6030  2.0448
 2838SOL    HW311125   2.717   4.638   2.883 -1.2986  1.8996 -2.2307
 2838SOL    MW411126   2.784   4.611   2.834  0.0870 -0.1699 -0.0246
 2839SOL     OW11127   4.898   5.170   3.209 -0.0291  0.8258 -0.1246
 2839SOL    HW211128   4.883   5.087   3.255  2.8101 -0.8259 -1.8902
 2839SOL    HW311129   4.810   5.203   3.191 -1.3567 -2.5038 -0.5031
 2839SOL    MW411130   4.885   5.163   3.213 -0.0495  0.4153  0.0219
 2840SOL     OW11131   0.711   2.210   3.390  0.0714  0.0668  0.1097
 2840SOL    HW211132   0.738   2.118   3.397  1.6238  0.5720  1.2483
 2840SOL    HW311133   0.665   2.215   3.306 -2.4902 -2.3380  1.1996
 2840SOL    MW411134   0.708   2.198   3.380  0.0972  0.1149 -0.1273
 2841SOL     OW11135   0.908   5.189   1.826 -0.4217 -0.0808  0.2353
 2841SOL    HW211136   0.982   5.149   1.871 -0.5775 -1.0887 -0.3807
 2841SOL    HW311137   0.835   5.129   1.840 -0.5484 -0.2774 -1.0797
 2841SOL    MW411138   0.909   5.176   1.834  0.1457 -0.1843  0.2607
 2842SOL     OW11139   3.190   5.166   4.695  0.2326 -0.2337 -0.1700
 2842SOL    HW211140   3.265   5.111   4.673  0.0026 -1.2341  1.4046
 2842SOL    HW311141   3.113   5.111   4.678 -0.1198  0.4362 -0.8178
 2842SOL    MW411142   3.190   5.151   4.690 -0.2704  0.1640  0.1399
 2843SOL     OW11143   5.873   5.850   1.635 -0.6594  0.1694 -0.4415
 2843SOL    HW211144   5.860   5.755   1.642  0.3431  0.1394  3.0393
 2843SOL    HW311145   5.967   5.862   1.647 -0.8269  1.6199 -0.4554
 2843SOL    MW411146   5.884   5.839   1.638  0.3493 -0.2106  0.2357
 2844SOL     OW11147   5.690   4.529   2.877  0.4475  0.7840 -0.0185
 2844SOL    HW211148   5.768   4.585   2.882  1.2376  0.0558 -2.7219
 2844SOL    HW311149   5.726   4.440   2.878 -0.6852  0.2690  2.6393
 2844SOL    MW411150   5.705   4.525   2.878 -0.0334  0.1075 -0.3198
 2845SOL     OW11151   5.356   0.832   1.833  0.6826  0.4320  0.6589
 2845SOL    HW211152   5.381   0.910   1.883 -0.4882  0.1741  1.6819
 2845SOL    HW311153   5.432   0.774   1.840  1.5457  1.4258 -0.0635
 2845SOL    MW411154   5.370   0.835   1.841  0.1796  0.1565 -0.1589
 2846SOL     OW11155   4.101   2.617   2.865  0.4141 -0.4675  0.5055
 2846SOL    HW211156   4.135   2.604   2.777  1.6891  0.2161  0.8806
 2846SOL    HW311157   4.112   2.711   2.881  0.2522 -0.5997  1.4114
 2846SOL    MW411158   4.107   2.628   2.855 -0.1070  0.2724  0.1813
 2847SOL     OW11159   2.320   4.827   5.913 -0.8702  0.3493  0.0017
 2847SOL    HW211160   2.327   4.912   5.957 -0.3019 -0.2110  1.0468
 2847SOL    HW311161   2.278   4.771   5.978 -0.0226 -0.4998 -0.1604
 2847SOL    MW411162   2.316   4.831   5.928 -0.2438  0.4126 -0.2380
 2848SOL     OW11163   3.072   3.759   3.310  0.2670 -0.2285 -0.1324
 2848SOL    HW211164   3.144   3.716   3.265  0.2208  0.8595 -1.3346
 2848SOL    HW311165   3.052   3.703   3.384  2.5495 -0.3908  0.4243
 2848SOL    MW411166   3.079   3.746   3.314 -0.1343 -0.0824 -0.4231
 2849SOL     OW11167   1.688   3.078   4.906 -0.0047 -0.3825  0.2517
 2849SOL    HW211168   1.675   3.163   4.863 -0.5364  1.1761  3.2500
 2849SOL    HW311169   1.601   3.040   4.912  0.1538 -0.8978 -0.5433
 2849SOL    MW411170   1.675   3.085   4.901  0.4461  0.3448  0.0728
 2850SOL     OW11171   0.650   5.441   4.517  0.0304 -0.4407 -0.3309
 2850SOL    HW211172   0.661   5.416   4.609 -0.0867  2.9219  0.7322
 2850SOL    HW311173   0.612   5.529   4.521  1.3870  0.4228 -3.5942
 2850SOL    MW411174   0.646   5.449   4.530  0.2598 -0.1883  0.2816
 2851SOL     OW11175   4.599   2.196   2.963 -0.8857 -0.4362 -0.2722
 2851SOL    HW211176   4.645   2.279   2.975  0.1937 -1.0541 -0.0103
 2851SOL    HW311177   4.566   2.175   3.050 -0.0603 -0.8993 -0.0617
 2851SOL    MW411178   4.600   2.204   2.976 -0.0844  0.1336 -0.6314
 2852SOL     OW11179   5.918   2.700   3.852  0.1328 -0.2291 -0.2238
 2852SOL    HW211180   5.864   2.622   3.856 -0.9010  0.4740  0.0267
 2852SOL    HW311181   5.862   2.766   3.811  2.1341 -0.5351 -3.8961
 2852SOL    MW411182   5.903   2.699   3.847  0.5959 -0.4451  0.3444
 2853SOL     OW11183   6.265   1.079   1.298 -0.3722 -0.7378 -0.2611
 2853SOL    HW211184   6.253   1.139   1.371  0.6518  1.2825 -1.6425
 2853SOL    HW311185   6.181   1.033   1.290 -2.0664  2.1473 -0.4961
 2853SOL    MW411186   6.252   1.081   1.306 -0.2749 -0.3651  0.4167
 2854SOL     OW11187   0.142   6.162   5.838  0.0789  0.3390  0.0836
 2854SOL    HW211188   0.065   6.217   5.852 -0.1573  0.0689 -0.1346
 2854SOL    HW311189   0.175   6.189   5.753  0.3463  0.5954  0.2665
 2854SOL    MW411190   0.136   6.173   5.829  0.0363 -0.1857  0.2321
 2855SOL     OW11191   5.236   0.061   5.675 -0.0531 -0.4528  0.3733
 2855SOL    HW211192   5.306   0.024   5.729 -0.0609 -0.2369  0.5301
 2855SOL    HW311193   5.243   0.013   5.592  0.9839  0.3122 -0.0169
 2855SOL    MW411194   5.246   0.050   5.671 -0.1075 -0.1956  0.1070
 2856SOL     OW11195   6.311   4.317   0.422  0.0968  0.0512 -0.6870
 2856SOL    HW211196   6.383   4.353   0.370 -0.0112 -0.8009 -1.4764
 2856SOL    HW311197   6.295   4.231   0.382  0.9295 -1.2663  1.6292
 2856SOL    MW411198   6.319   4.310   0.410  0.8201 -0.3299  0.6113
 2857SOL     OW11199   2.857   0.316   4.069  0.4999 -0.2569  0.3716
 2857SOL    HW211200   2.896   0.343   4.151  0.1395 -0.5054  0.6294
 2857SOL    HW311201   2.878   0.223   4.061 -2.4995 -1.2131  2.0045
 2857SOL    MW411202   2.865   0.307   4.079  0.3542 -0.7474 -0.2780
 2858SOL     OW11203   6.103   3.806   0.194 -0.0298 -0.2538  0.0973
 2858SOL    HW211204   6.183   3.803   0.247  0.4363 -0.5859 -0.6112
 2858SOL    HW311205   6.134   3.807   0.103 -0.8205  0.0957 -0.1792
 2858SOL    MW411206   6.118   3.806   0.189  0.4930  0.1076  0.1750
 2859SOL     OW11207   1.998   2.890   4.905 -0.3100 -0.5354  0.2109
 2859SOL    HW211208   1.941   2.862   4.977 -0.2426 -3.8100 -0.8267
 2859SOL    HW311209   2.080   2.913   4.948 -1.0224 -0.0235  1.3608
 2859SOL    MW411210   2.001   2.889   4.920 -0.9319  0.3802 -0.2832
 2860SOL     OW11211   5.357   4.063   2.540  0.0761  0.8008  0.0308
 2860SOL    HW211212   5.322   4.081   2.628  1.7513 -0.0924  0.9323
 2860SOL    HW311213   5.314   3.982   2.513  0.5538  0.3447  0.6219
 2860SOL    MW411214   5.347   4.055   2.548  0.0172 -0.3592  0.0955
 2861SOL     OW11215   5.418   0.616   3.626  0.4859  0.2843 -0.0635
 2861SOL    HW211216   5.436   0.686   3.564  1.5255 -0.6429 -0.8382
 2861SOL    HW311217   5.502   0.573   3.640 -0.4717 -2.2966 -1.4732
 2861SOL    MW411218   5.431   0.619   3.620  0.0599 -0.4934  0.1865
 2862SOL     OW11219   0.944   5.879   4.815 -0.0867 -0.4871  0.1038
 2862SOL    HW211220   0.902   5.878   4.728  1.3992  1.1113 -0.7054
 2862SOL    HW311221   1.036   5.896   4.796 -0.0044  1.7240  2.0470
 2862SOL    MW411222   0.950   5.881   4.801 -0.7074  0.2813  0.0370
 2863SOL     OW11223   4.936   2.863   5.954 -0.2826  0.2869  0.1011
 2863SOL    HW211224   4.856   2.913   5.939 -0.2869  1.2830  2.8999
 2863SOL    HW311225   4.946   2.860   6.049  2.4973 -0.6522 -0.1112
 2863SOL    MW411226   4.927   2.869   5.964  0.4547  0.3591 -0.4962
 2864SOL     OW11227   6.180   4.945   3.509  0.0483 -0.6408  0.6436
 2864SOL    HW211228   6.104   4.907   3.553  0.5113 -0.6424  1.4530
 2864SOL    HW311229   6.235   4.978   3.580 -0.3501  1.6136 -0.0159
 2864SOL    MW411230   6.177   4.945   3.524  0.0279 -0.3935  0.5291
 2865SOL     OW11231   3.779   1.671   0.994 -0.5966  0.3011  0.6914
 2865SOL    HW211232   3.740   1.584   0.996 -0.2812  0.1183 -0.5921
 2865SOL    HW311233   3.825   1.679   1.078  1.8265 -1.9061 -0.3259
 2865SOL    MW411234   3.780   1.661   1.005 -0.0779 -0.6175  0.2112
 2866SOL     OW11235   5.116   1.785   6.305 -0.0149  0.0101 -0.5275
 2866SOL    HW211236   5.141   1.694   6.323 -2.9057 -0.8451 -0.3364
 2866SOL    HW311237   5.128   1.795   6.210  3.0668  0.4612 -0.2073
 2866SOL    MW411238   5.121   1.774   6.295 -0.6579  0.4498 -0.2691
 2867SOL     OW11239   0.507  -0.004   1.275  0.2502 -0.1850  0.3483
 2867SOL    HW211240   0.468   0.079   1.248 -1.7502 -1.1096  0.2649
 2867SOL    HW311241   0.478  -0.016   1.366  0.0856 -1.0220  0.1963
 2867SOL    MW411242   0.498   0.005   1.284 -0.4299  0.0993 -0.6679
 2868SOL     OW11243   1.716   4.763   6.051  0.3245 -0.2630  0.0164
 2868SOL    HW211244   1.719   4.857   6.035 -1.5041 -0.6086 -3.2400
 2868SOL    HW311245   1.762   4.725   5.977 -2.1157 -1.9858 -0.7296
 2868SOL    MW411246   1.723   4.770   6.039 -0.6058  0.4450 -0.0554
 2869SOL     OW11247   0.881   5.374   3.887  0.0274 -0.3011 -0.2543
 2869SOL    HW211248   0.965   5.330   3.893 -0.7953 -1.9808 -0.3985
 2869SOL    HW311249   0.847   5.349   3.801 -0.9652 -0.3112  0.1287
 2869SOL    MW411250   0.887   5.365   3.876  0.1555  0.4300  0.0690
 2870SOL     OW11251   0.282   1.975   4.203  0.1643  0.1058 -0.2171
 2870SOL    HW211252   0.192   1.946   4.184  0.1619  1.2598 -2.1576
 2870SOL    HW311253   0.281   1.993   4.297 -2.0397  1.3742 -0.4145
 2870SOL    MW411254   0.270   1.973   4.213 -0.3650 -0.3368 -0.1438
 2871SOL     OW11255   5.526   3.830   0.037  0.0418 -0.0936 -0.7469
 2871SOL    HW211256   5.602   3.772   0.040  1.4172  1.6189 -0.8923
 2871SOL    HW311257   5.507   3.849   0.129  1.2050  1.1877 -0.7422
 2871SOL    MW411258   5.534   3.825   0.050 -0.5450 -0.0311  0.1575
 2872SOL     OW11259   3.337   4.675   1.324 -0.0365 -0.2598 -0.7564
 2872SOL    HW211260   3.342   4.625   1.406  0.4990  1.2048  0.1674
 2872SOL    HW311261   3.252   4.655   1.288 -1.3264  0.8430  1.4247
 2872SOL    MW411262   3.327   4.666   1.330 -0.7149 -0.0478  0.1699
 2873SOL     OW11263   4.479   2.868   6.137  0.2906  0.1808 -0.1313
 2873SOL    HW211264   4.481   2.811   6.214 -2.1663  0.0696 -0.0538
 2873SOL    HW311265   4.531   2.944   6.162  3.0895 -1.6380  0.0030
 2873SOL    MW411266   4.486   2.871   6.151 -0.7481  0.7561 -0.6122
 2874SOL     OW11267   6.380   2.207   4.783  0.2988 -0.1930  0.7917
 2874SOL    HW211268   6.285   2.203   4.788  0.0698  1.8695 -0.4760
 2874SOL    HW311269   6.397   2.254   4.701  2.3910 -0.0104  1.2769
 2874SOL    MW411270   6.370   2.213   4.773 -0.2270  0.2865  0.3476
 2875SOL     OW11271   3.126   2.455   2.603 -0.6673  0.1812  0.7503
 2875SOL    HW211272   3.039   2.489   2.626 -0.7261  1.6249 -1.2511
 2875SOL    HW311273   3.187   2.519   2.640 -0.6686  1.2106 -0.9186
 2875SOL    MW411274   3.122   2.468   2.611 -0.1895  0.3838 -0.4897
 2876SOL     OW11275   3.703   3.051   4.927 -0.2482 -0.0047 -0.0899
 2876SOL    HW211276   3.707   3.090   5.014  1.0014 -1.0047  0.3208
 2876SOL    HW311277   3.681   2.959   4.943 -0.5134 -0.0871 -0.8729
 2876SOL    MW411278   3.700   3.044   4.940  0.3580 -0.1522  0.0808
 2877SOL     OW11279   4.112   0.408   4.160  0.2813  0.2486  0.0879
 2877SOL    HW211280   4.175   0.349   4.119 -0.5606 -0.8619  0.3460
 2877SOL    HW311281   4.026   0.369   4.141 -0.3296  1.6346 -0.1212
 2877SOL    MW411282   4.109   0.395   4.152  0.1474  0.9659 -0.1451
 2878SOL     OW11283   1.540   2.625   3.793  0.0203  0.5086  0.0384
 2878SOL    HW211284   1.459   2.622   3.741  0.3595 -1.2975 -0.4354
 2878SOL    HW311285   1.592   2.693   3.752 -1.6345  2.4698  0.9822
 2878SOL    MW411286   1.536   2.633   3.781  0.3731  0.4920 -0.5203
 2879SOL     OW11287   5.699   3.091   5.470  0.2850  0.0016 -0.1776
 2879SOL    HW211288   5.791   3.078   5.491 -0.2400 -2.4696  0.9888
 2879SOL    HW311289   5.679   3.022   5.407 -0.7078  0.7249 -0.6769
 2879SOL    MW411290   5.708   3.080   5.465 -0.2277  0.4991 -0.3113
 2880SOL     OW11291   3.010   1.839   4.620 -0.7398 -0.0104  0.2153
 2880SOL    HW211292   2.917   1.856   4.605 -0.5128  1.6053  0.4335
 2880SOL    HW311293   3.032   1.891   4.697 -0.2063 -2.3817  1.7415
 2880SOL    MW411294   3.001   1.848   4.628 -1.0077  0.3546  0.5066
 2881SOL     OW11295   2.177   4.855   5.670 -0.4194 -0.1170  0.0989
 2881SOL    HW211296   2.237   4.849   5.745 -0.0913 -1.7263 -0.2704
 2881SOL    HW311297   2.189   4.945   5.638 -0.3289  0.5060  1.7561
 2881SOL    MW411298   2.187   4.866   5.676 -0.1507  0.2830  0.5131
 2882SOL     OW11299   3.323   3.053   3.036 -0.0100  0.3939  0.1472
 2882SOL    HW211300   3.349   3.032   2.946  1.3256  2.2057  0.0555
 2882SOL    HW311301   3.404   3.084   3.078 -0.6912 -0.0421  1.8662
 2882SOL    MW411302   3.337   3.054   3.030  0.4786  0.5837 -0.4369
 2883SOL     OW11303   3.172   0.986   6.184 -0.4135  0.1782  0.2554
 2883SOL    HW211304   3.164   1.081   6.174  0.1316  0.1080 -0.8786
 2883SOL    HW311305   3.090   0.961   6.227 -0.1870  1.2602  1.4027
 2883SOL    MW411306   3.160   0.995   6.189  0.5317  0.1191 -0.4134
 2884SOL     OW11307   4.163   4.153   3.728 -0.0190  0.5456  0.7421
 2884SOL    HW211308   4.218   4.208   3.784  0.2477  0.5260  0.5013
 2884SOL    HW311309   4.224   4.116   3.664 -0.5673  1.8039 -0.5478
 2884SOL    MW411310   4.179   4.155   3.727  0.4297  0.1368 -0.4559
 2885SOL     OW11311   5.779   5.676   2.991  0.2967 -0.1115  0.1534
 2885SOL    HW211312   5.860   5.644   2.952 -0.2682 -1.0437 -0.2945
 2885SOL    HW311313   5.711   5.650   2.929 -0.4649 -0.3800  1.0756
 2885SOL    MW411314   5.781   5.668   2.978  0.1545  0.2167 -0.3563
 2886SOL     OW11315   2.785   0.570   5.459  0.3746  0.3094  0.1669
 2886SOL    HW211316   2.779   0.474   5.460 -0.5944  0.3333 -1.2512
 2886SOL    HW311317   2.873   0.588   5.494  1.2932 -1.1895 -1.1952
 2886SOL    MW411318   2.796   0.560   5.464 -0.2262  0.4466 -0.3782
 2887SOL     OW11319   5.389   4.249   2.893 -0.1106  0.4488  0.3649
 2887SOL    HW211320   5.306   4.213   2.861  1.6091 -2.4007 -1.2859
 2887SOL    HW311321   5.391   4.225   2.986 -2.0347  2.5955  1.0619
 2887SOL    MW411322   5.378   4.241   2.901 -0.3054  0.0178  0.0299
 2888SOL     OW11323   1.008   1.545   2.390 -0.0571 -0.2880 -0.4044
 2888SOL    HW211324   1.076   1.557   2.457  0.1473  1.9342 -0.9546
 2888SOL    HW311325   0.925   1.558   2.438  0.0114 -0.3970 -0.2549
 2888SOL    MW411326   1.006   1.548   2.405  0.3708 -0.0564  0.7441
 2889SOL     OW11327   5.777   4.257   5.402  0.5235 -0.5416 -0.0534
 2889SOL    HW211328   5.843   4.195   5.371  1.4696  0.3170  0.1767
 2889SOL    HW311329   5.800   4.272   5.494  0.6602  0.5734 -0.2571
 2889SOL    MW411330   5.789   4.251   5.410  0.5472  0.7953  0.0416
 2890SOL     OW11331   6.294   2.931   2.849 -0.3336 -0.1488  0.1155
 2890SOL    HW211332   6.327   3.011   2.807 -0.5053  0.3512  0.9202
 2890SOL    HW311333   6.220   2.904   2.794 -0.2705  0.2383 -0.1671
 2890SOL    MW411334   6.289   2.938   2.836 -0.7144  0.0465  0.5870
 2891SOL     OW11335   2.238   0.612   4.114  0.1233 -0.2986  0.3705
 2891SOL    HW211336   2.324   0.639   4.083 -0.0856  1.0214  0.8894
 2891SOL    HW311337   2.248   0.606   4.209 -0.1269 -1.0341  0.3587
 2891SOL    MW411338   2.251   0.614   4.123  0.8253  0.2201 -0.6099
 2892SOL     OW11339   4.430   0.453   2.894  0.4688 -0.1809  0.2439
 2892SOL    HW211340   4.379   0.515   2.843  1.2216 -0.1122 -0.4493
 2892SOL    HW311341   4.486   0.409   2.830  0.4475 -1.0850  0.8188
 2892SOL    MW411342   4.431   0.455   2.879 -0.0999 -0.7913  0.3837
 2893SOL     OW11343   0.398   1.969   1.359  0.2391  0.3326 -0.3915
 2893SOL    HW211344   0.417   1.912   1.433  2.9514  2.5159  0.7608
 2893SOL    HW311345   0.416   1.915   1.282  1.3773 -0.7719  0.6065
 2893SOL    MW411346   0.403   1.954   1.359 -0.6649  0.3742 -0.6201
 2894SOL     OW11347   0.233   2.137   6.189 -0.1895 -0.1711  0.0135
 2894SOL    HW211348   0.165   2.079   6.224 -0.9929  0.9784  0.4226
 2894SOL    HW311349   0.314   2.089   6.203 -0.8482 -1.2786  0.1683
 2894SOL    MW411350   0.235   2.123   6.196 -0.2003  0.2555  0.4461
 2895SOL     OW11351   1.833   3.918   3.128 -0.3182  0.1516 -0.1936
 2895SOL    HW211352   1.748   3.876   3.143  0.9267 -2.3021  0.4108
 2895SOL    HW311353   1.864   3.881   3.046  0.8343 -0.1887  0.3776
 2895SOL    MW411354   1.826   3.908   3.119  0.4214  0.3079  0.4489
 2896SOL     OW11355   6.426   0.090   5.544 -0.4391  0.1416  0.1875
 2896SOL    HW211356   6.496   0.131   5.494 -0.8629  0.3945 -0.2051
 2896SOL    HW311357   6.363   0.161   5.561  0.5271  0.5253  2.6446
 2896SOL    MW411358   6.427   0.105   5.540 -0.0574 -0.3912 -0.0147
 2897SOL     OW11359   1.029   1.967   5.518 -0.4472 -0.3933 -0.2685
 2897SOL    HW211360   1.103   1.979   5.458  0.5825 -2.5974  0.4485
 2897SOL    HW311361   0.953   1.958   5.461  0.0213  0.6832 -1.0866
 2897SOL    MW411362   1.029   1.967   5.503  0.1384  0.2939 -0.1227
 2898SOL     OW11363   5.647   3.058   3.486 -0.2363  0.0287 -0.2345
 2898SOL    HW211364   5.728   3.092   3.447 -1.4302  1.8925 -1.2350
 2898SOL    HW311365   5.625   2.982   3.431 -0.3025  0.8327 -1.3531
 2898SOL    MW411366   5.655   3.052   3.473 -0.1448 -0.1333  0.5725
 2899SOL     OW11367   4.629   1.407   4.356 -0.0990 -0.5428 -0.5240
 2899SOL    HW211368   4.708   1.368   4.395  0.5711  1.4045  0.1760
 2899SOL    HW311369   4.567   1.412   4.429 -0.6254 -1.3608 -0.8964
 2899SOL    MW411370   4.632   1.402   4.371  0.1920  0.0301 -0.0279
 2900SOL     OW11371   4.069   3.850   6.307  0.0851 -0.0854 -0.4667
 2900SOL    HW211372   4.065   3.946   6.310  0.1497 -0.0944  1.4889
 2900SOL    HW311373   4.067   3.828   6.214 -0.4353  1.7931 -0.9343
 2900SOL    MW411374   4.068   3.860   6.295  0.4600 -0.1900 -0.8977
 2901SOL     OW11375   3.290   3.874   1.638 -0.1485 -0.0887 -0.1057
 2901SOL    HW211376   3.345   3.895   1.713 -1.0916 -1.5048  1.0425
 2901SOL    HW311377   3.295   3.952   1.582 -1.2376  2.0133  2.4975
 2901SOL    MW411378   3.298   3.887   1.640 -0.1325  0.2732 -0.1622
 2902SOL     OW11379   4.791   0.479   2.080 -0.8076  0.1256  0.3366
 2902SOL    HW211380   4.759   0.568   2.065  0.8076  0.9892  1.7074
 2902SOL    HW311381   4.765   0.459   2.169  2.0347  0.7577  1.4081
 2902SOL    MW411382   4.783   0.488   2.090  0.1494  0.1970 -0.1351
 2903SOL     OW11383   2.526   4.527   4.194 -0.3971  0.3036  0.2142
 2903SOL    HW211384   2.472   4.485   4.127 -0.5712  0.4902  0.2376
 2903SOL    HW311385   2.478   4.514   4.275 -1.7530  2.7121 -0.0965
 2903SOL    MW411386   2.513   4.520   4.196  0.2424  0.6379  0.2908
 2904SOL     OW11387   3.104   2.298   0.102  0.2777 -0.4506 -0.0739
 2904SOL    HW211388   3.080   2.381   0.144  0.7020 -0.0485 -0.6166
 2904SOL    HW311389   3.197   2.307   0.084  0.5308 -1.4121  0.6735
 2904SOL    MW411390   3.113   2.310   0.105 -0.6961 -0.2459  0.0441
 2905SOL     OW11391   5.381   5.244   0.131 -0.2000 -0.0038 -1.1376
 2905SOL    HW211392   5.456   5.220   0.186 -0.9265  1.4429  0.5758
 2905SOL    HW311393   5.413   5.315   0.076 -0.3590  0.8449 -0.1679
 2905SOL    MW411394   5.395   5.250   0.131  0.1254 -0.3027 -0.5485
 2906SOL     OW11395   5.826   5.541   5.070  0.2541  0.5101  0.3772
 2906SOL    HW211396   5.852   5.454   5.042 -2.1491 -0.0473 -0.2860
 2906SOL    HW311397   5.893   5.599   5.033 -0.0223 -0.6974 -2.2158
 2906SOL    MW411398   5.838   5.537   5.062  0.2973  0.5591  0.1596
 2907SOL     OW11399   0.254   6.398   2.778  0.5478  0.6394 -0.4000
 2907SOL    HW211400   0.254   6.304   2.764  0.5368  0.3448  1.4221
 2907SOL    HW311401   0.343   6.418   2.809 -0.3411  0.6817  2.3306
 2907SOL    MW411402   0.266   6.388   2.780 -0.2272 -0.0911 -0.0186
 2908SOL     OW11403   0.982   6.293   5.399  0.2286 -0.1994 -0.3626
 2908SOL    HW211404   0.961   6.284   5.306  0.7961 -0.9110 -0.4310
 2908SOL    HW311405   0.897   6.294   5.443 -0.0283 -0.3771 -0.8495
 2908SOL    MW411406   0.968   6.292   5.393  0.2243 -0.0684 -0.5406
 2909SOL     OW11407   5.610   6.293   1.834  0.2362 -0.1156  0.2003
 2909SOL    HW211408   5.597   6.386   1.816  0.4477 -0.2743 -0.8049
 2909SOL    HW311409   5.688   6.269   1.784  0.6265 -0.6745  1.0362
 2909SOL    MW411410   5.619   6.302   1.825  0.4075 -0.6970 -0.1130
 2910SOL     OW11411   0.669   5.514   2.484 -0.3125 -0.1840  1.0525
 2910SOL    HW211412   0.749   5.562   2.510 -0.6314  1.5535 -0.9162
 2910SOL    HW311413   0.701   5.429   2.455  0.5600 -0.3489  2.3941
 2910SOL    MW411414   0.684   5.509   2.484 -0.7388  0.2258 -0.0046
 2911SOL     OW11415   2.942   3.645   4.571  0.2401  0.0505 -0.5056
 2911SOL    HW211416   3.022   3.593   4.559 -1.0068 -2.1487  0.2359
 2911SOL    HW311417   2.955   3.689   4.655  0.3832 -0.8727 -0.0336
 2911SOL    MW411418   2.954   3.644   4.581 -0.2759  0.2106  0.3113
 2912SOL     OW11419   5.509   5.495   3.690 -0.4514 -0.7342 -0.1941
 2912SOL    HW211420   5.439   5.431   3.702 -0.9293 -0.3299 -0.7408
 2912SOL    HW311421   5.576   5.470   3.753 -2.0095  0.2064  1.9675
 2912SOL    MW411422   5.509   5.483   3.700  0.0463  0.4947 -0.1547
 2913SOL     OW11423   5.488   4.905   2.355 -0.0961  0.0163  0.0224
 2913SOL    HW211424   5.447   4.848   2.421  1.8824  1.7876  3.0149
 2913SOL    HW311425   5.456   4.993   2.376  2.6852  1.0169  0.5065
 2913SOL    MW411426   5.478   4.909   2.366  0.2436 -0.1523 -0.0852
 2914SOL     OW11427   6.222   2.817   4.079 -0.2081 -0.1064  0.0094
 2914SOL    HW211428   6.247   2.783   3.993  2.5322 -0.9257  1.0125
 2914SOL    HW311429   6.234   2.912   4.072  1.1579 -0.2726 -0.2207
 2914SOL    MW411430   6.227   2.825   4.067  0.3226 -0.0414  0.1055
 2915SOL     OW11431   0.102   2.580   5.717  0.1663  0.7378  0.5366
 2915SOL    HW211432   0.126   2.561   5.808  1.2390 -1.4457 -0.1361
 2915SOL    HW311433   0.185   2.577   5.669 -0.6379 -0.3966 -0.8465
 2915SOL    MW411434   0.116   2.577   5.723 -1.0727 -0.2398 -0.3030
 2916SOL     OW11435   3.760   3.108   3.573 -0.1367  0.0456 -0.0306
 2916SOL    HW211436   3.765   3.194   3.614 -0.1971 -0.8421  1.9755
 2916SOL    HW311437   3.721   3.052   3.640  1.7168 -1.9702 -0.5167
 2916SOL    MW411438   3.756   3.112   3.588 -0.3829  0.1755  0.1893
 2917SOL     OW11439   0.702   5.353   0.723  0.1968  0.2196  0.3540
 2917SOL    HW211440   0.786   5.360   0.677 -0.7091  0.1682 -1.3751
 2917SOL    HW311441   0.657   5.436   0.704  0.4515  0.9514  2.6126
 2917SOL    MW411442   0.707   5.365   0.714 -0.1417 -0.0328  0.3171
 2918SOL     OW11443   4.986   2.291   0.303 -0.1521 -0.0491 -0.4521
 2918SOL    HW211444   5.053   2.353   0.333 -2.0693  1.9511 -0.0578
 2918SOL    HW311445   4.918   2.346   0.265 -0.4036 -2.1592 -3.4513
 2918SOL    MW411446   4.986   2.306   0.302  0.3192  0.1602  0.2144
 2919SOL     OW11447   4.048   3.712   5.580 -0.0984  0.2990 -0.1570
 2919SOL    HW211448   4.143   3.695   5.579 -0.1273  0.0550  0.4091
 2919SOL    HW311449   4.019   3.693   5.491  0.3350  0.0336 -0.2460
 2919SOL    MW411450   4.057   3.707   5.568 -0.2656 -0.1654  0.0645
 2920SOL     OW11451   4.879   0.530   3.032  0.1866  0.5042 -0.2174
 2920SOL    HW211452   4.915   0.592   2.969 -1.8075  3.1013  1.0308
 2920SOL    HW311453   4.919   0.555   3.115 -1.1132  0.5432  0.4087
 2920SOL    MW411454   4.889   0.541   3.034  0.4052 -0.3517  0.2880
 2921SOL     OW11455   4.119   1.309   0.345  0.4648  0.0807 -0.3699
 2921SOL    HW211456   4.120   1.310   0.441  0.5940 -3.6069 -0.1807
 2921SOL    HW311457   4.195   1.360   0.319  1.1797  0.0650  1.5521
 2921SOL    MW411458   4.129   1.316   0.354  0.0135  0.0224 -0.4359
 2922SOL     OW11459   0.815   1.173   0.093  0.4458  0.8108 -0.1073
 2922SOL    HW211460   0.803   1.257   0.050 -0.7218  0.4389 -0.5540
 2922SOL    HW311461   0.736   1.162   0.146  0.3201 -0.2459 -0.4890
 2922SOL    MW411462   0.803   1.183   0.095 -0.0204  0.5256  0.6346
 2923SOL     OW11463   2.315   3.762   1.825  0.2224  0.3975  0.0780
 2923SOL    HW211464   2.222   3.777   1.808  0.3110 -0.2380 -1.0738
 2923SOL    HW311465   2.359   3.837   1.786  0.2726  0.0022 -0.6565
 2923SOL    MW411466   2.308   3.774   1.817 -0.1527  0.4845  0.4865
 2924SOL     OW11467   4.349   4.570   4.022  0.3119 -0.0984  0.1665
 2924SOL    HW211468   4.409   4.519   4.076 -0.2430 -0.9039  0.0434
 2924SOL    HW311469   4.289   4.611   4.084  0.2076 -0.3233  0.2143
 2924SOL    MW411470   4.349   4.569   4.037 -0.0750 -0.3912 -0.3607
 2925SOL     OW11471   5.580   4.159   3.842 -0.2091  0.4025 -0.3393
 2925SOL    HW211472   5.603   4.241   3.887 -1.2656  0.2602  0.4809
 2925SOL    HW311473   5.624   4.091   3.894 -0.4235  0.3367 -0.2463
 2925SOL    MW411474   5.589   4.161   3.855  0.0703 -0.2635  0.1417
 2926SOL     OW11475   1.526   2.649   4.074 -0.2584  0.1111  0.8502
 2926SOL    HW211476   1.533   2.663   3.980 -2.5590  0.0742  0.6105
 2926SOL    HW311477   1.511   2.555   4.083  0.1868  0.0779  1.2952
 2926SOL    MW411478   1.525   2.639   4.063  0.0403  0.0614  0.8103
 2927SOL     OW11479   5.414   2.869   5.734 -0.1528  0.5928 -0.3931
 2927SOL    HW211480   5.355   2.893   5.806  0.9177  3.0297 -0.2174
 2927SOL    HW311481   5.501   2.878   5.772  0.4653 -3.1876 -0.5729
 2927SOL    MW411482   5.417   2.873   5.749 -0.4943  0.2681  0.0273
 2928SOL     OW11483   6.343   3.275   0.731  1.3024  0.6826 -0.2074
 2928SOL    HW211484   6.381   3.293   0.817 -0.2804  2.1196  0.2653
 2928SOL    HW311485   6.317   3.183   0.735  1.7918  0.5690  0.6287
 2928SOL    MW411486   6.344   3.265   0.743  0.1486  0.4649  0.5852
 2929SOL     OW11487   3.511   0.929   4.463  0.0273  0.5929 -0.4781
 2929SOL    HW211488   3.457   1.004   4.489  0.3370  0.6962 -0.1072
 2929SOL    HW311489   3.456   0.853   4.479  0.3984  0.6094  1.0739
 2929SOL    MW411490   3.497   0.929   4.469 -0.6519  0.3389 -0.2020
 2930SOL     OW11491   5.189   4.513   0.808 -0.1281 -0.6615 -0.3692
 2930SOL    HW211492   5.135   4.589   0.789 -0.6148 -1.3143 -1.6574
 2930SOL    HW311493   5.256   4.546   0.868  1.4557  1.5045 -3.1302
 2930SOL    MW411494   5.191   4.527   0.814 -0.0348  0.2684  0.1702
 2931SOL     OW11495   3.977   5.887   0.337  0.2378  0.1548  0.7088
 2931SOL    HW211496   4.018   5.969   0.309  2.5217 -0.6722  1.3351
 2931SOL    HW311497   3.935   5.853   0.258 -1.2358  2.1341  0.5746
 2931SOL    MW411498   3.977   5.893   0.323 -0.1268  0.2425  0.7875
 2932SOL     OW11499   2.671   4.377   3.308 -0.3052  0.3009  0.3665
 2932SOL    HW211500   2.715   4.314   3.365  0.6542 -1.1055 -1.7466
 2932SOL    HW311501   2.609   4.325   3.258 -1.6176  1.6017  0.5875
 2932SOL    MW411502   2.669   4.362   3.309 -0.3546 -0.4640  0.0539
 2933SOL     OW11503   2.252   5.773   4.516 -0.5609 -0.5758  0.4114
 2933SOL    HW211504   2.310   5.762   4.591 -1.8569 -1.7196  1.3195
 2933SOL    HW311505   2.299   5.734   4.442  0.1335 -0.7668  0.9544
 2933SOL    MW411506   2.266   5.766   4.516 -0.0193 -0.1372 -0.0133
 2934SOL     OW11507   4.195   2.627   4.351 -0.5883 -0.6252 -0.1220
 2934SOL    HW211508   4.161   2.618   4.440 -1.0777  0.6704 -0.1614
 2934SOL    HW311509   4.290   2.616   4.361 -0.5459  0.3342  0.6927
 2934SOL    MW411510   4.203   2.624   4.364 -0.1358  0.1313 -0.0657
 2935SOL     OW11511   3.955   5.476   1.054  0.4068  0.3207 -0.6189
 2935SOL    HW211512   3.942   5.509   0.965 -1.0197  0.3535 -0.4110
 2935SOL    HW311513   3.873   5.493   1.099  0.3680 -1.5849  0.1150
 2935SOL    MW411514   3.943   5.483   1.048 -0.2085  0.3166  0.2021
 2936SOL     OW11515   3.487   0.444   3.504  0.1032  0.3698 -0.1876
 2936SOL    HW211516   3.558   0.388   3.473 -0.7631 -0.3906 -0.8464
 2936SOL    HW311517   3.531   0.526   3.529  1.0763  0.3513 -1.6799
 2936SOL    MW411518   3.502   0.448   3.503  0.3936 -0.0537  0.4013
 2937SOL     OW11519   0.233   0.595   0.419  0.3343  0.2359  0.4280
 2937SOL    HW211520   0.231   0.533   0.492 -0.6552  0.3740  0.5421
 2937SOL    HW311521   0.242   0.541   0.341  2.4906  0.1442  0.6761
 2937SOL    MW411522   0.234   0.580   0.418  0.3990  0.4959  0.1533
 2938SOL     OW11523   5.717   2.102   4.713 -0.0131 -0.5771 -0.5077
 2938SOL    HW211524   5.748   2.027   4.764 -2.5462 -2.0150 -0.8776
 2938SOL    HW311525   5.691   2.064   4.629  1.3016  1.2548 -1.8140
 2938SOL    MW411526   5.718   2.087   4.708  0.1631  0.2400 -0.2659
 2939SOL     OW11527   5.628   3.756   3.188  0.2024  0.4730  0.3554
 2939SOL    HW211528   5.622   3.733   3.281  0.0600 -0.3489  0.1525
 2939SOL    HW311529   5.700   3.819   3.184  0.7220 -0.0618  0.9293
 2939SOL    MW411530   5.637   3.761   3.199 -0.3408 -0.5798  0.2892
 2940SOL     OW11531   5.941   4.941   4.417  0.1227  0.1278 -0.2612
 2940SOL    HW211532   5.860   4.915   4.461  1.0883  0.4743  1.8579
 2940SOL    HW311533   5.973   4.860   4.378  0.0479 -0.6042  1.1211
 2940SOL    MW411534   5.934   4.927   4.418  0.2538 -0.6525 -0.0221
 2941SOL     OW11535   5.960   3.368   3.040 -0.2297 -0.2958  0.3636
 2941SOL    HW211536   6.033   3.332   3.090  0.4493  0.7471  0.1376
 2941SOL    HW311537   5.903   3.292   3.023  0.2882 -0.9305  1.3949
 2941SOL    MW411538   5.962   3.353   3.044 -0.4746 -0.3262 -0.3796
 2942SOL     OW11539   5.193   6.288   5.414 -0.4899  0.3512 -0.1548
 2942SOL    HW211540   5.112   6.244   5.438 -0.0428 -0.5589 -0.2622
 2942SOL    HW311541   5.185   6.304   5.320 -0.3629 -0.1755 -0.2642
 2942SOL    MW411542   5.182   6.284   5.405  0.7191  0.1448  0.3060
 2943SOL     OW11543   4.235   1.278   3.636 -0.5264  0.4054  0.0719
 2943SOL    HW211544   4.216   1.231   3.717 -1.6675 -1.0828 -0.9835
 2943SOL    HW311545   4.180   1.356   3.639 -0.5963  0.3348  0.6990
 2943SOL    MW411546   4.225   1.282   3.647 -0.1080  0.1802 -0.5643
 2944SOL     OW11547   0.867   5.123   1.557  0.0055 -0.3258 -0.2147
 2944SOL    HW211548   0.890   5.136   1.649 -0.9730  3.5846 -0.3571
 2944SOL    HW311549   0.949   5.135   1.509  0.1223 -0.1779  0.0239
 2944SOL    MW411550   0.881   5.126   1.563  0.3278 -0.1951  0.2205
 2945SOL     OW11551   6.350   1.413   0.916 -0.0900 -0.3105  0.2927
 2945SOL    HW211552   6.421   1.374   0.865  1.0760  0.8871  0.8949
 2945SOL    HW311553   6.313   1.480   0.858 -0.1214 -0.3305  0.2900
 2945SOL    MW411554   6.355   1.417   0.902 -0.3359 -0.3558 -0.0714
 2946SOL     OW11555   5.211   4.487   2.813 -0.2557  0.3937  0.0412
 2946SOL    HW211556   5.222   4.555   2.879 -1.8072  1.3211 -0.6044
 2946SOL    HW311557   5.296   4.482   2.769 -0.2792  2.3410 -0.2794
 2946SOL    MW411558   5.224   4.495   2.816 -0.3101  0.6109  0.2426
 2947SOL     OW11559   1.747   0.857   6.351 -0.0257 -0.2277  0.5348
 2947SOL    HW211560   1.795   0.916   6.293 -1.1641 -0.4355 -0.6664
 2947SOL    HW311561   1.812   0.829   6.416  0.7457  1.6819  0.6535
 2947SOL    MW411562   1.762   0.861   6.352  0.1298  0.8866 -0.1243
 2948SOL     OW11563   4.881   5.713   2.745 -1.0845  0.1718  0.3546
 2948SOL    HW211564   4.904   5.805   2.755  0.5888  0.2092 -2.5136
 2948SOL    HW311565   4.941   5.666   2.802  0.4189  0.7564 -0.6807
 2948SOL    MW411566   4.892   5.719   2.754  1.1822 -0.3942  0.1470
 2949SOL     OW11567   2.161   5.836   1.806  0.3524 -0.6881 -0.1829
 2949SOL    HW211568   2.086   5.892   1.827  0.3618 -1.0801  0.9664
 2949SOL    HW311569   2.195   5.810   1.892  2.0251 -0.2218 -0.6747
 2949SOL    MW411570   2.156   5.840   1.820  0.2872 -0.1537  0.4602
 2950SOL     OW11571   4.539   2.651   0.986  0.1031 -0.0833  0.4232
 2950SOL    HW211572   4.618   2.632   0.936  0.9943 -0.3476  1.8573
 2950SOL    HW311573   4.570   2.703   1.060 -0.7620 -1.6680  1.9776
 2950SOL    MW411574   4.553   2.655   0.989  0.2955 -0.5409 -0.5576
 2951SOL     OW11575   0.920   5.620   5.067  0.2778  0.2865 -0.3504
 2951SOL    HW211576   0.852   5.677   5.032  0.0246  0.6635  0.7384
 2951SOL    HW311577   0.875   5.540   5.092  0.3718  0.2154 -0.4070
 2951SOL    MW411578   0.905   5.617   5.065  0.0436 -0.2599 -0.2246
 2952SOL     OW11579   5.259   2.568   5.159 -0.9208  0.1358 -0.1144
 2952SOL    HW211580   5.164   2.556   5.148 -1.0270  0.9612 -0.1037
 2952SOL    HW311581   5.282   2.635   5.095 -0.3681  0.0605  0.0054
 2952SOL    MW411582   5.249   2.575   5.149 -0.2138  0.7814  0.7531
 2953SOL     OW11583   2.926   3.987   2.705  0.2897  0.1705 -0.0580
 2953SOL    HW211584   2.832   4.003   2.716  0.3905 -0.3321  1.8824
 2953SOL    HW311585   2.933   3.946   2.618 -1.3627 -0.4045  0.0412
 2953SOL    MW411586   2.914   3.983   2.695  0.1321 -0.3358  0.2423
 2954SOL     OW11587   2.517   0.548   0.830  0.6353 -0.6109 -0.1969
 2954SOL    HW211588   2.541   0.624   0.777 -0.5479  0.0584  0.1992
 2954SOL    HW311589   2.437   0.515   0.790 -1.6808  1.3207  2.4332
 2954SOL    MW411590   2.510   0.554   0.818  0.5890 -0.0432 -0.4629
 2955SOL     OW11591   5.724   2.230   3.332  0.6553 -0.1199  0.3675
 2955SOL    HW211592   5.637   2.203   3.362  0.2807  0.3434 -0.2824
 2955SOL    HW311593   5.707   2.288   3.258  1.5226 -0.0534  0.2111
 2955SOL    MW411594   5.710   2.234   3.326  0.6406 -0.1366 -0.3624
 2956SOL     OW11595   5.020   4.888   4.411 -0.7397 -0.5196 -0.1503
 2956SOL    HW211596   5.077   4.832   4.463  0.7670  0.2246 -0.9613
 2956SOL    HW311597   5.079   4.944   4.361 -2.1257 -0.8293 -2.2664
 2956SOL    MW411598   5.035   4.888   4.412  0.2328 -0.2342  0.2138
 2957SOL     OW11599   5.039   4.468   3.364  0.0529 -0.1782 -0.0913
 2957SOL    HW211600   4.977   4.399   3.389 -0.2752  0.2814  0.3776
 2957SOL    HW311601   5.081   4.434   3.285 -1.1172 -0.3181 -0.6838
 2957SOL    MW411602   5.036   4.455   3.357 -0.2920  0.1993  0.5416
 2958SOL     OW11603   5.793   1.764   2.305 -0.2287  0.1835  0.7997
 2958SOL    HW211604   5.812   1.682   2.260 -1.1065 -0.4300  1.5309
 2958SOL    HW311605   5.817   1.832   2.242  2.7211 -0.5391  1.0031
 2958SOL    MW411606   5.799   1.762   2.291  0.0243 -0.1125 -0.1201
 2959SOL     OW11607   2.972   0.950   4.464 -0.4030 -0.0422 -0.5206
 2959SOL    HW211608   2.963   0.897   4.385 -1.9508  0.9429 -1.0488
 2959SOL    HW311609   3.030   1.022   4.438  0.0100 -0.3447 -0.4279
 2959SOL    MW411610   2.978   0.953   4.450  0.0112 -0.0262 -0.7768
 2960SOL     OW11611   1.974   5.918   4.453  0.0424 -0.0723 -0.2101
 2960SOL    HW211612   1.941   5.899   4.541 -0.6430 -0.7089 -0.5887
 2960SOL    HW311613   2.066   5.891   4.455 -0.3330 -1.4057 -0.0825
 2960SOL    MW411614   1.982   5.912   4.465  0.2746  0.6214  0.2930
 2961SOL     OW11615   3.837   4.793   5.053 -0.1421  0.2252  0.1043
 2961SOL    HW211616   3.777   4.797   5.128  0.0781  0.9489  0.2510
 2961SOL    HW311617   3.837   4.701   5.028 -0.3076 -0.0105  0.9212
 2961SOL    MW411618   3.829   4.782   5.060  0.0579 -0.1829 -0.2737
 2962SOL     OW11619   1.079   1.808   1.725  0.1946 -0.6909 -0.4358
 2962SOL    HW211620   1.000   1.763   1.757  0.1080 -1.1037 -1.2225
 2962SOL    HW311621   1.047   1.864   1.654  0.3260  0.5220  0.4192
 2962SOL    MW411622   1.064   1.809   1.720 -0.7902  0.3372  0.6698
 2963SOL     OW11623   1.811   1.094   4.387 -0.2562 -0.2583  0.2051
 2963SOL    HW211624   1.728   1.087   4.340 -0.2333 -2.0419  0.3890
 2963SOL    HW311625   1.864   1.153   4.333 -1.2340  0.0083 -0.4953
 2963SOL    MW411626   1.807   1.101   4.373 -0.3460  0.4276  0.1507
 2964SOL     OW11627   3.653   3.368   0.146  0.0698 -0.0541  0.9608
 2964SOL    HW211628   3.582   3.418   0.187 -0.8811  0.4192 -1.1286
 2964SOL    HW311629   3.660   3.289   0.199 -1.9358 -0.0619  1.3105
 2964SOL    MW411630   3.645   3.364   0.159 -0.1394 -0.5838 -0.1325
 2965SOL     OW11631   5.864   1.433   4.140  0.7167 -0.4040  0.1022
 2965SOL    HW211632   5.782   1.386   4.158  0.7028 -1.3310 -2.0642
 2965SOL    HW311633   5.905   1.443   4.226 -0.3579 -2.4127  0.9154
 2965SOL    MW411634   5.859   1.428   4.153 -0.0713  0.3246 -0.0549
 2966SOL     OW11635   4.195   1.219   2.273  0.0867  0.1001 -0.3412
 2966SOL    HW211636   4.158   1.228   2.361 -0.6232  1.4793 -0.7412
 2966SOL    HW311637   4.165   1.133   2.243  0.2951 -0.3663  0.7285
 2966SOL    MW411638   4.186   1.209   2.281 -0.1324 -0.0459  0.8157
 2967SOL     OW11639   2.082   1.363   2.065 -0.5706  0.3788  0.0773
 2967SOL    HW211640   1.994   1.384   2.032 -0.3562 -2.4173 -2.8649
 2967SOL    HW311641   2.070   1.279   2.110  0.5185  0.2058  0.0581
 2967SOL    MW411642   2.069   1.354   2.066  0.1096  0.0456  0.0423
 2968SOL     OW11643   1.495   0.216   2.636  0.1252 -0.6146 -0.6763
 2968SOL    HW211644   1.434   0.179   2.700  0.0747 -0.4986 -0.6573
 2968SOL    HW311645   1.578   0.224   2.684  0.1211 -0.6504 -0.6633
 2968SOL    MW411646   1.498   0.212   2.651  0.2993 -0.2980 -0.2824
 2969SOL     OW11647   1.206   2.758   6.327  0.2101  0.0666  0.5776
 2969SOL    HW211648   1.292   2.799   6.332 -0.1244  0.6837  1.8217
 2969SOL    HW311649   1.149   2.827   6.293 -0.1047  0.2507  1.4357
 2969SOL    MW411650   1.210   2.773   6.323  0.2598  0.2049 -0.1230
 2970SOL     OW11651   1.225   3.886   5.564 -0.2426 -0.0197 -0.3876
 2970SOL    HW211652   1.309   3.928   5.582  0.1674 -1.1349  0.4414
 2970SOL    HW311653   1.228   3.804   5.614 -2.2563  0.4072  0.5534
 2970SOL    MW411654   1.237   3.881   5.573 -0.3846  0.0946 -0.2669
 2971SOL     OW11655   4.027   0.321   3.748 -0.1628 -0.5742 -0.0069
 2971SOL    HW211656   4.102   0.288   3.798  1.2888  0.2098 -1.5637
 2971SOL    HW311657   4.036   0.416   3.750 -1.7167 -0.4245  0.6360
 2971SOL    MW411658   4.038   0.329   3.755  0.1398 -0.0657  0.0991
 2972SOL     OW11659   4.969   5.125   2.693  0.0920 -0.5962  0.5542
 2972SOL    HW211660   4.992   5.121   2.786 -2.3063 -2.6902  1.2022
 2972SOL    HW311661   5.017   5.052   2.653 -0.1954 -0.7682  0.5192
 2972SOL    MW411662   4.978   5.115   2.700 -0.1097  0.1148  0.1600
 2973SOL     OW11663   5.871   4.468   4.302  0.2598 -0.0124  0.6830
 2973SOL    HW211664   5.777   4.469   4.320  0.1191  2.7113  0.2627
 2973SOL    HW311665   5.880   4.417   4.222 -0.5724 -1.9725  1.7749
 2973SOL    MW411666   5.860   4.461   4.294 -0.3722  0.3941  0.5667
 2974SOL     OW11667   3.535   1.013   5.821  0.6522  0.6429 -0.1505
 2974SOL    HW211668   3.603   0.951   5.848  1.5470  2.2005  1.3652
 2974SOL    HW311669   3.581   1.095   5.805 -0.8619  1.8178  1.1630
 2974SOL    MW411670   3.550   1.015   5.822  0.1106  0.3908  0.3870
 2975SOL     OW11671   4.185   3.674   0.793  0.6563  0.3631 -0.2905
 2975SOL    HW211672   4.175   3.590   0.838  0.2275 -0.4339 -1.8241
 2975SOL    HW311673   4.100   3.717   0.804 -0.0385 -0.5620 -1.7189
 2975SOL    MW411674   4.173   3.669   0.801 -0.1642  0.6959  0.2428
 2976SOL     OW11675   1.356   6.132   2.252 -0.4239  0.2999 -0.0888
 2976SOL    HW211676   1.428   6.123   2.190  0.1000  0.6741  0.4458
 2976SOL    HW311677   1.278   6.147   2.198 -0.4073 -1.7336 -0.7607
 2976SOL    MW411678   1.355   6.133   2.237 -0.2767  0.2981 -0.2541
 2977SOL     OW11679   3.847   5.785   0.108  0.3535  0.1848  0.1310
 2977SOL    HW211680   3.876   5.829   0.028 -1.4412  1.7007  0.2213
 2977SOL    HW311681   3.908   5.713   0.120  1.1540  0.4042 -2.1554
 2977SOL    MW411682   3.858   5.782   0.099 -0.2646 -0.4831 -0.3195
 2978SOL     OW11683   6.368   1.574   1.131 -0.6495  0.3384  0.1615
 2978SOL    HW211684   6.358   1.508   1.063  0.0790  0.1665  0.2071
 2978SOL    HW311685   6.297   1.636   1.116 -1.1780 -0.3133 -0.0440
 2978SOL    MW411686   6.358   1.574   1.120 -0.5572  0.4946  0.0801
 2979SOL     OW11687   1.267   0.218   6.177 -0.1538 -0.7852  0.2944
 2979SOL    HW211688   1.322   0.290   6.145 -1.1052 -0.8684 -1.6499
 2979SOL    HW311689   1.298   0.202   6.266  2.1800 -0.0787 -0.3314
 2979SOL    MW411690   1.278   0.226   6.185 -0.5473 -0.0408  0.7322
 2980SOL     OW11691   2.439   2.428   2.888  0.3604 -0.9943 -0.1298
 2980SOL    HW211692   2.520   2.381   2.906  0.8195  0.1454  0.9750
 2980SOL    HW311693   2.451   2.513   2.930 -0.3655  0.1954 -2.1919
 2980SOL    MW411694   2.451   2.433   2.896  0.2360 -0.3605 -0.6939
 2981SOL     OW11695   2.464   1.367   3.647  0.2714 -0.1861  0.0973
 2981SOL    HW211696   2.454   1.462   3.638  0.8472 -0.2777 -1.9894
 2981SOL    HW311697   2.443   1.349   3.739 -0.4077  1.8770  0.3921
 2981SOL    MW411698   2.460   1.377   3.658  0.4126  0.0035 -0.2116
 2982SOL     OW11699   3.858   0.002   5.218  0.5378 -0.0576  0.5989
 2982SOL    HW211700   3.827   0.084   5.256 -2.3873 -1.3099  1.1528
 2982SOL    HW311701   3.876  -0.054   5.293  0.7498 -0.5399  0.1978
 2982SOL    MW411702   3.856   0.006   5.233  0.3806 -0.3299  0.0001
 2983SOL     OW11703   4.783   1.757   3.434 -0.5213  0.4985  0.3883
 2983SOL    HW211704   4.756   1.705   3.510  0.6031  0.1256  0.5425
 2983SOL    HW311705   4.825   1.834   3.472  1.4248 -0.4041  0.1908
 2983SOL    MW411706   4.785   1.760   3.449  0.5617  0.1550 -0.0116
 2984SOL     OW11707   0.699   5.970   1.214 -0.4769  0.7595 -0.5302
 2984SOL    HW211708   0.641   5.965   1.138 -2.3186 -1.8208  0.9015
 2984SOL    HW311709   0.643   6.003   1.285  0.9366  2.1147  0.0217
 2984SOL    MW411710   0.684   5.974   1.213 -0.5538 -0.4165  0.4079
 2985SOL     OW11711   1.697   6.000   3.124  0.0643  0.1910  0.0826
 2985SOL    HW211712   1.602   5.995   3.111  0.0205 -3.8304  0.5387
 2985SOL    HW311713   1.730   6.042   3.045 -2.0376  1.3635 -0.2561
 2985SOL    MW411714   1.688   6.005   3.112  0.1967  0.0069  0.6352
 2986SOL     OW11715   1.318   2.646   0.517 -0.0359  0.4739 -0.3141
 2986SOL    HW211716   1.344   2.730   0.481  1.7354  0.0039 -0.2225
 2986SOL    HW311717   1.375   2.633   0.593  0.1146 -1.0340 -0.6469
 2986SOL    MW411718   1.329   2.655   0.522 -0.6711 -0.0627 -0.1687
 2987SOL     OW11719   3.961   4.525   2.901 -0.4580  0.1810  0.1855
 2987SOL    HW211720   3.867   4.541   2.899 -0.4762  1.3139  3.5693
 2987SOL    HW311721   4.000   4.610   2.880 -0.2129  0.0895  0.2687
 2987SOL    MW411722   3.954   4.538   2.898 -0.3384  0.2546 -0.1927
 2988SOL     OW11723   1.799   0.459   4.858  0.2999  0.3690  0.0757
 2988SOL    HW211724   1.747   0.530   4.818 -0.4774 -0.0022  0.4052
 2988SOL    HW311725   1.875   0.503   4.895  0.2191  0.9294 -0.4073
 2988SOL    MW411726   1.802   0.474   4.857  0.3130 -0.1413  0.3072
 2989SOL     OW11727   5.067   2.206   5.338  0.1886 -0.3071  0.0311
 2989SOL    HW211728   5.061   2.282   5.279  0.3441  0.1054  0.5401
 2989SOL    HW311729   4.980   2.166   5.334  0.5322 -1.0057 -1.4161
 2989SOL    MW411730   5.055   2.211   5.329 -0.2214  0.6674 -0.2108
 2990SOL     OW11731   3.858   4.869   1.983 -0.0289 -0.2187 -0.9248
 2990SOL    HW211732   3.933   4.852   2.039 -1.5479 -0.4358  1.1597
 2990SOL    HW311733   3.821   4.782   1.967 -1.0462  0.0389 -0.1015
 2990SOL    MW411734   3.863   4.855   1.988 -0.3963  0.7866  0.2819
 2991SOL     OW11735   1.229   5.367   4.772 -0.0916 -0.2092  0.6212
 2991SOL    HW211736   1.203   5.278   4.798 -2.2829 -0.0374 -0.8016
 2991SOL    HW311737   1.284   5.354   4.695  1.9848 -0.4124  2.0423
 2991SOL    MW411738   1.233   5.353   4.765  0.5524 -0.0533 -0.3568
 2992SOL     OW11739   6.024   2.339   0.515  1.0171 -0.0337  0.0294
 2992SOL    HW211740   6.116   2.324   0.493  0.3624  0.0912 -3.2185
 2992SOL    HW311741   5.977   2.262   0.483  0.0507 -0.9775  3.2651
 2992SOL    MW411742   6.030   2.327   0.508 -0.1628 -0.0662 -0.1979
 2993SOL     OW11743   6.104   0.953   4.042 -0.0358  0.3391 -0.1745
 2993SOL    HW211744   6.196   0.969   4.066  0.3206 -0.1220 -1.1804
 2993SOL    HW311745   6.070   0.900   4.115  1.0258 -1.0415 -0.6229
 2993SOL    MW411746   6.112   0.948   4.055  0.8165  0.2075 -0.0384
 2994SOL     OW11747   4.535   6.126   3.002 -0.5383  0.4208  0.0822
 2994SOL    HW211748   4.594   6.177   3.057  1.3540 -2.9534  1.4907
 2994SOL    HW311749   4.466   6.097   3.062  0.5969 -1.8506  0.3953
 2994SOL    MW411750   4.534   6.129   3.017 -0.5901 -0.2092 -0.2293
 2995SOL     OW11751   5.135   1.425   0.419 -0.0300  0.2345 -0.8822
 2995SOL    HW211752   5.213   1.473   0.392  0.2273  0.7604  0.7133
 2995SOL    HW311753   5.075   1.493   0.450 -0.1539 -0.3451  0.2076
 2995SOL    MW411754   5.137   1.440   0.420 -0.2324  0.4350  0.2853
 2996SOL     OW11755   1.370   6.152   0.610  0.6385 -0.6098  0.8587
 2996SOL    HW211756   1.375   6.226   0.550  1.4810 -1.4441 -0.1198
 2996SOL    HW311757   1.292   6.170   0.664 -0.1728  0.1175 -0.5138
 2996SOL    MW411758   1.360   6.164   0.609 -0.1370  0.0432  0.1400
 2997SOL     OW11759   3.349   2.403   0.837 -0.2609  0.1217 -0.1025
 2997SOL    HW211760   3.301   2.327   0.869 -1.3092  0.6133 -0.4721
 2997SOL    HW311761   3.398   2.434   0.913  0.8712 -1.4208 -0.1675
 2997SOL    MW411762   3.349   2.397   0.851  0.1214 -0.9130  0.3071
 2998SOL     OW11763   4.188   5.884   4.354  0.0780  0.2963  0.1710
 2998SOL    HW211764   4.109   5.938   4.346 -0.4481 -0.1431  1.9545
 2998SOL    HW311765   4.158   5.795   4.339 -0.2093 -0.1036  2.7666
 2998SOL    MW411766   4.173   5.879   4.351 -0.0958 -0.4582  0.3757
 2999SOL     OW11767   2.513   3.359   4.799 -0.3531 -0.7226 -0.0934
 2999SOL    HW211768   2.477   3.270   4.792  2.4799 -1.9333 -0.6698
 2999SOL    HW311769   2.541   3.380   4.710  0.7765 -0.0727  0.3975
 2999SOL    MW411770   2.512   3.350   4.786  0.4081 -0.4576  0.2586
 3000SOL     OW11771   0.691   3.057   3.578  0.1393 -0.0799 -0.0607
 3000SOL    HW211772   0.606   3.075   3.619  0.0187  1.6368 -0.9777
 3000SOL    HW311773   0.673   2.983   3.520 -0.1589 -1.2192  1.4247
 3000SOL    MW411774   0.677   3.049   3.576  0.1155  0.3831 -0.1642
 3001SOL     OW11775   0.054   1.893   1.901 -0.8072  0.1428 -0.2236
 3001SOL    HW211776   0.096   1.854   1.824  0.5521  0.2782  0.4315
 3001SOL    HW311777   0.112   1.964   1.927 -1.6540  0.5994  0.4832
 3001SOL    MW411778   0.067   1.898   1.894  0.3841 -0.8787 -0.0302
 3002SOL     OW11779   5.723   4.516   4.802 -0.2438  0.0868 -0.1754
 3002SOL    HW211780   5.653   4.452   4.792  0.0603  0.0301 -2.3554
 3002SOL    HW311781   5.695   4.570   4.877 -2.2076 -0.4344 -0.4749
 3002SOL    MW411782   5.710   4.515   4.811  0.2097 -0.5815  0.3036
 3003SOL     OW11783   0.437   4.686   3.743  0.1173 -0.2163 -0.3677
 3003SOL    HW211784   0.510   4.670   3.802  0.1887 -0.4891 -0.5295
 3003SOL    HW311785   0.454   4.629   3.668  0.3141  0.5164 -0.8944
 3003SOL    MW411786   0.449   4.677   3.741 -0.1648 -0.2978 -0.1061
 3004SOL     OW11787   1.446   2.649   1.767 -0.2247  0.6089 -0.0901
 3004SOL    HW211788   1.492   2.695   1.837 -1.0386 -0.6046  1.2999
 3004SOL    HW311789   1.373   2.707   1.744  0.8484  1.6580 -0.9618
 3004SOL    MW411790   1.442   2.662   1.773 -0.1804  0.2198 -0.5989
 3005SOL     OW11791   3.977   0.543   2.354 -0.0580 -0.6399  0.5024
 3005SOL    HW211792   3.946   0.452   2.351 -0.3396 -0.5387  0.2670
 3005SOL    HW311793   3.992   0.560   2.447 -0.1527 -0.8782  0.5627
 3005SOL    MW411794   3.975   0.533   2.366 -0.2457 -0.0666 -0.9897
 3006SOL     OW11795   3.203   1.632   1.850  0.3872 -0.6260  0.3476
 3006SOL    HW211796   3.144   1.641   1.925  0.3522 -0.8161  0.3429
 3006SOL    HW311797   3.163   1.564   1.795  0.3858 -0.4536  0.1313
 3006SOL    MW411798   3.190   1.624   1.852 -0.1211  0.1208 -0.4592
 3007SOL     OW11799   5.236   0.511   5.853  0.1606 -0.0333 -0.4004
 3007SOL    HW211800   5.237   0.429   5.903 -0.3866  0.0180 -0.3054
 3007SOL    HW311801   5.154   0.509   5.804 -0.3198  0.8905  0.3273
 3007SOL    MW411802   5.225   0.500   5.853 -0.0158  0.3853 -0.2551
 3008SOL     OW11803   1.619   0.017   1.704  0.3796  0.2667 -0.5596
 3008SOL    HW211804   1.587   0.057   1.784  2.8913  0.1673  0.5813
 3008SOL    HW311805   1.542   0.010   1.648 -1.6611 -0.5409  2.1679
 3008SOL    MW411806   1.605   0.021   1.707 -0.2145  0.2607 -0.9392
 3009SOL     OW11807   4.758   0.972   5.216 -0.3114  0.0604  0.1474
 3009SOL    HW211808   4.735   0.892   5.169 -2.1633 -0.2719  1.5035
 3009SOL    HW311809   4.749   1.041   5.150 -0.5212 -0.6412 -0.5801
 3009SOL    MW411810   4.754   0.971   5.201 -0.3956 -0.0526  0.4157
 3010SOL     OW11811   6.133   5.281   4.888  0.1757  0.0560 -0.0559
 3010SOL    HW211812   6.196   5.278   4.960  0.2721  0.6693 -0.1049
 3010SOL    HW311813   6.170   5.344   4.827 -0.3531  0.2205 -0.2148
 3010SOL    MW411814   6.146   5.289   4.889  0.0579 -0.3344 -0.1843
 3011SOL     OW11815   5.434   2.001   5.022 -0.2618 -0.4455  0.0485
 3011SOL    HW211816   5.363   2.039   5.074 -0.5670 -0.5463 -0.2909
 3011SOL    HW311817   5.392   1.935   4.967 -0.0885  0.2317 -0.9255
 3011SOL    MW411818   5.419   1.998   5.022 -0.2097  0.1440  0.0223
 3012SOL     OW11819   5.390   6.406   3.723  1.1872 -0.3801  0.7308
 3012SOL    HW211820   5.352   6.401   3.635 -0.3140 -0.1782  1.3554
 3012SOL    HW311821   5.462   6.469   3.714 -0.3450  1.3561  0.1342
 3012SOL    MW411822   5.395   6.413   3.710  0.1348 -0.0647  0.2844
 3013SOL     OW11823   0.742  -0.007   4.920 -0.3987 -0.0248  0.7569
 3013SOL    HW211824   0.795  -0.035   4.846 -0.3409  2.2882 -0.1396
 3013SOL    HW311825   0.690  -0.084   4.943  1.4358 -1.5488 -0.0016
 3013SOL    MW411826   0.742  -0.021   4.913 -0.3638 -0.1122 -0.3529
 3014SOL     OW11827   2.036   4.729   3.205 -0.5830  0.0744 -0.6574
 3014SOL    HW211828   2.122   4.744   3.167  0.2147 -0.9477  0.6359
 3014SOL    HW311829   2.012   4.641   3.178 -1.2235  0.3428 -0.9911
 3014SOL    MW411830   2.044   4.720   3.197  0.2853  0.2069  0.6443
 3015SOL     OW11831   1.317   6.128   1.043  0.0716  1.0722  0.3055
 3015SOL    HW211832   1.270   6.165   1.118  0.4458  1.4677  0.3500
 3015SOL    HW311833   1.354   6.204   0.998 -2.0094  1.0904 -1.5894
 3015SOL    MW411834   1.315   6.143   1.047  0.5831  0.4940  0.2171
 3016SOL     OW11835   3.968   1.287   2.494 -0.6751 -0.7452  0.1256
 3016SOL    HW211836   3.895   1.272   2.434 -0.3233 -0.9260 -0.2539
 3016SOL    HW311837   3.954   1.224   2.565 -0.6001 -1.1393 -0.2082
 3016SOL    MW411838   3.956   1.276   2.496 -0.2740 -1.1296  0.3686
 3017SOL     OW11839   1.476   2.668   0.784 -0.4461 -0.0354  0.3982
 3017SOL    HW211840   1.435   2.683   0.869  0.9786 -0.0766  1.1144
 3017SOL    HW311841   1.522   2.585   0.793  1.1902  0.7894  0.2157
 3017SOL    MW411842   1.477   2.659   0.796  0.6870  0.4528 -0.1625
 3018SOL     OW11843   4.433   4.732   3.554 -0.1945 -0.0019 -0.3214
 3018SOL    HW211844   4.348   4.766   3.581 -0.6253  0.6181 -2.2931
 3018SOL    HW311845   4.448   4.769   3.467  1.3517 -1.3833 -0.7116
 3018SOL    MW411846   4.424   4.741   3.546  0.5529  0.2347  0.0106
 3019SOL     OW11847   4.632   1.987   4.352  0.2086  0.1408 -0.3710
 3019SOL    HW211848   4.622   1.901   4.394  0.5216  0.3704  0.1854
 3019SOL    HW311849   4.690   1.970   4.278 -0.7157 -0.3546 -0.9953
 3019SOL    MW411850   4.638   1.973   4.348  0.9752 -0.5399 -0.9313
 3020SOL     OW11851   5.784   0.354   0.792  0.3049 -0.2834 -0.8920
 3020SOL    HW211852   5.866   0.380   0.835 -1.2329  1.9199  0.9173
 3020SOL    HW311853   5.795   0.383   0.701  0.0935  3.9344  0.2099
 3020SOL    MW411854   5.796   0.362   0.786  0.5571 -0.3377 -0.4841
 3021SOL     OW11855   1.293   0.087   5.911  0.1459  0.0228  0.1972
 3021SOL    HW211856   1.282   0.122   6.000  0.7061  1.5739 -0.3179
 3021SOL    HW311857   1.311   0.163   5.857 -0.3805 -0.8777 -1.3062
 3021SOL    MW411858   1.294   0.101   5.916 -0.9187  0.5531  0.2096
 3022SOL     OW11859   3.291   5.877   0.088 -0.2550  0.8904 -0.0925
 3022SOL    HW211860   3.385   5.889   0.083 -0.2373  0.8073  0.0164
 3022SOL    HW311861   3.274   5.794   0.042 -0.4944  1.8102 -1.7078
 3022SOL    MW411862   3.301   5.867   0.081 -0.3273  0.3783 -0.0118
 3023SOL     OW11863   6.138   1.587   0.012  0.3737 -0.3865  0.2734
 3023SOL    HW211864   6.185   1.665   0.042 -0.7453 -0.2129  1.7115
 3023SOL    HW311865   6.054   1.591   0.058 -0.5391 -1.3668 -1.2247
 3023SOL    MW411866   6.133   1.598   0.022 -0.1095  0.5175 -0.4003
 3024SOL     OW11867   0.723   4.758   3.963 -0.2233 -0.1655 -0.2125
 3024SOL    HW211868   0.800   4.814   3.973  1.1266 -2.0130  0.3210
 3024SOL    HW311869   0.732   4.722   3.874 -0.2577 -0.6817 -0.0082
 3024SOL    MW411870   0.734   4.760   3.952 -0.3498  0.2612  0.1903
 3025SOL     OW11871   5.552   5.147   0.360 -0.1635 -0.6885  0.0082
 3025SOL    HW211872   5.481   5.086   0.339 -0.9990  0.1105  0.4504
 3025SOL    HW311873   5.522   5.193   0.438 -0.8932  2.2701 -1.8383
 3025SOL    MW411874   5.538   5.145   0.367  0.4913  0.0813 -0.3508
 3026SOL     OW11875   4.683   5.317   3.149  0.2160  0.2672  0.2124
 3026SOL    HW211876   4.686   5.353   3.238  1.2214 -1.3170  0.8655
 3026SOL    HW311877   4.611   5.254   3.151  0.0337  0.4618 -0.1979
 3026SOL    MW411878   4.674   5.313   3.161  0.2264  0.0728 -0.1703
 3027SOL     OW11879   4.379   5.088   0.841 -0.3469  0.3704  0.2460
 3027SOL    HW211880   4.377   5.176   0.805  0.4927  0.6113  0.7710
 3027SOL    HW311881   4.471   5.062   0.839 -0.6399 -0.6990 -0.3631
 3027SOL    MW411882   4.391   5.096   0.836  0.8913  0.0568 -0.3486
 3028SOL     OW11883   3.074   6.344   4.278  0.6146 -0.3302  0.6845
 3028SOL    HW211884   3.149   6.373   4.225 -0.1389 -1.6389 -1.2092
 3028SOL    HW311885   3.078   6.249   4.275 -0.6291 -0.4212  1.3258
 3028SOL    MW411886   3.084   6.335   4.271  0.5282 -0.2585 -0.3349
 3029SOL     OW11887   4.957   4.061   0.163  0.3160 -0.3488 -0.0815
 3029SOL    HW211888   4.963   4.155   0.183 -0.5661 -0.4591  0.7903
 3029SOL    HW311889   5.037   4.024   0.200  0.3094 -0.0454  0.2474
 3029SOL    MW411890   4.969   4.069   0.170  0.4898  0.1509 -0.7405
 3030SOL     OW11891   4.789   1.546   0.351 -0.1097 -0.1220 -0.0240
 3030SOL    HW211892   4.737   1.483   0.301  0.9695  1.1313 -2.9300
 3030SOL    HW311893   4.740   1.628   0.344  0.6696  0.3452 -0.0808
 3030SOL    MW411894   4.776   1.548   0.344  0.3042 -0.1517 -0.0465
 3031SOL     OW11895   1.918   2.138   3.896 -0.3276  0.2934 -0.0585
 3031SOL    HW211896   1.947   2.059   3.941  1.7905  0.7378 -0.5322
 3031SOL    HW311897   1.945   2.125   3.805  2.3797  2.5459  0.3014
 3031SOL    MW411898   1.925   2.126   3.890 -0.5234  0.1255  0.0019
 3032SOL     OW11899   4.803   1.756   0.990 -0.0345 -0.6090 -0.2973
 3032SOL    HW211900   4.798   1.783   1.082  0.8867 -2.9279  0.4971
 3032SOL    HW311901   4.883   1.704   0.984  0.2037 -0.1038 -2.5602
 3032SOL    MW411902   4.813   1.753   1.001  0.4721  0.1699  0.5475
 3033SOL     OW11903   0.770   3.163   1.602  0.0460  0.1759  0.6183
 3033SOL    HW211904   0.798   3.254   1.617 -0.6235  0.3914  0.6075
 3033SOL    HW311905   0.758   3.157   1.507 -1.1831  0.4752  0.7351
 3033SOL    MW411906   0.772   3.174   1.591 -0.1884 -0.6072 -0.3397
 3034SOL     OW11907   0.865   0.311   5.138  0.0571 -0.1419 -0.4063
 3034SOL    HW211908   0.829   0.225   5.161 -0.0025  0.1489  0.6696
 3034SOL    HW311909   0.946   0.291   5.092  1.2688 -0.8219  1.8440
 3034SOL    MW411910   0.871   0.297   5.135  0.2951  0.4885 -0.7278
 3035SOL     OW11911   0.341   4.127   0.236  0.2098  0.4002  0.0291
 3035SOL    HW211912   0.385   4.210   0.221  0.4009  0.3646  0.3841
 3035SOL    HW311913   0.387   4.088   0.310  1.4774 -0.9926 -1.4040
 3035SOL    MW411914   0.353   4.132   0.244 -0.4147  0.4746  0.4322
 3036SOL     OW11915   0.276   5.951   3.923  0.4134 -0.8839  0.5616
 3036SOL    HW211916   0.352   5.989   3.967 -0.2370 -0.5204  1.4071
 3036SOL    HW311917   0.258   5.871   3.972  1.3856 -2.0101 -0.8165
 3036SOL    MW411918   0.284   5.945   3.935 -0.4176  0.6261  0.1479
 3037SOL     OW11919   6.271   5.278   5.732  0.2572  0.3373 -0.2531
 3037SOL    HW211920   6.311   5.245   5.812  1.2120 -0.4315 -1.0236
 3037SOL    HW311921   6.188   5.315   5.760 -0.7254 -2.3845  0.7422
 3037SOL    MW411922   6.266   5.279   5.746 -0.0273 -0.3635  0.1195
 3038SOL     OW11923   2.944   0.668   3.826  0.0879  0.8269  0.0997
 3038SOL    HW211924   2.959   0.665   3.920 -1.5604  0.5411  0.3857
 3038SOL    HW311925   2.989   0.590   3.792 -0.9912 -0.2011  0.9352
 3038SOL    MW411926   2.952   0.657   3.834  0.0713  0.1557 -0.3264
 3039SOL     OW11927   3.818   5.084   0.402  0.3453  0.3035 -0.0997
 3039SOL    HW211928   3.912   5.067   0.415  0.2199 -0.5507 -0.3116
 3039SOL    HW311929   3.785   5.005   0.360 -0.7817 -0.0043  1.3185
 3039SOL    MW411930   3.826   5.072   0.398  0.4664 -0.8323  0.5231
 3040SOL     OW11931   3.323   5.135   1.577 -0.1949 -0.2976  0.5741
 3040SOL    HW211932   3.349   5.084   1.654  1.3081  0.2936  0.4845
 3040SOL    HW311933   3.268   5.205   1.612  0.9056  0.2743  1.2003
 3040SOL    MW411934   3.319   5.137   1.592 -0.3092 -1.1164 -0.2433
 3041SOL     OW11935   2.280   4.243   2.401 -0.0156 -0.6871  0.0100
 3041SOL    HW211936   2.325   4.323   2.375 -0.7867  0.1990  1.2906
 3041SOL    HW311937   2.349   4.187   2.437  0.5128 -0.5758 -0.8038
 3041SOL    MW411938   2.295   4.246   2.402 -0.1020  0.1647  0.3991
 3042SOL     OW11939   2.921   0.105   2.860 -0.0666  0.9270 -0.1084
 3042SOL    HW211940   2.974   0.033   2.825  0.0069  1.0344 -0.2196
 3042SOL    HW311941   2.949   0.113   2.951  1.0596  1.8371 -0.5068
 3042SOL    MW411942   2.932   0.097   2.867  0.1221  0.4460  0.8262
 3043SOL     OW11943   2.285   3.588   2.176  0.8899 -0.2456  0.7799
 3043SOL    HW211944   2.307   3.580   2.269  1.4309 -0.6733  0.6161
 3043SOL    HW311945   2.206   3.534   2.167 -0.1607  1.1479  1.3262
 3043SOL    MW411946   2.277   3.580   2.187 -0.7804  0.1113  0.3640
 3044SOL     OW11947   1.680   5.752   0.266  0.2992  0.2339 -0.1553
 3044SOL    HW211948   1.689   5.807   0.187 -2.1534  0.8277 -0.0883
 3044SOL    HW311949   1.661   5.665   0.232  0.5572  0.2080 -0.2335
 3044SOL    MW411950   1.679   5.748   0.251  0.4516 -0.4625  0.0582
 3045SOL     OW11951   3.031   0.339   3.244 -0.5320  0.1068  0.6341
 3045SOL    HW211952   3.056   0.375   3.159 -0.0228 -1.8481 -0.0947
 3045SOL    HW311953   3.067   0.401   3.308 -0.4487  1.3199 -0.5404
 3045SOL    MW411954   3.039   0.352   3.241 -0.2627  0.6795 -0.3957
 3046SOL     OW11955   1.916   5.673   2.072 -0.2766  0.3147  0.0493
 3046SOL    HW211956   1.930   5.586   2.035 -0.3791 -0.3172  1.4458
 3046SOL    HW311957   2.000   5.717   2.064 -0.3744  0.3298 -1.2005
 3046SOL    MW411958   1.929   5.667   2.066 -0.5002 -0.5951 -0.4579
 3047SOL     OW11959   2.247   2.443   1.511 -0.6582 -0.7665 -0.3954
 3047SOL    HW211960   2.195   2.489   1.577  1.1420 -1.3876  1.5327
 3047SOL    HW311961   2.283   2.367   1.556  0.6690 -1.2213 -2.0977
 3047SOL    MW411962   2.245   2.439   1.525 -0.7025 -0.8960  0.0223
 3048SOL     OW11963   1.192   5.599   2.887 -0.2295  0.3598  0.3441
 3048SOL    HW211964   1.176   5.548   2.808  0.6939 -1.4005  1.2329
 3048SOL    HW311965   1.246   5.542   2.942  1.3992  2.5270  1.1513
 3048SOL    MW411966   1.197   5.585   2.884 -0.0640 -0.1016 -0.5086
 3049SOL     OW11967   5.174   1.799   6.029 -0.3353  0.0815  0.2720
 3049SOL    HW211968   5.250   1.856   6.020 -0.2896  0.1450  0.9976
 3049SOL    HW311969   5.178   1.741   5.953  1.3160 -0.9299  1.0621
 3049SOL    MW411970   5.184   1.799   6.018  0.4667 -0.7447 -0.0136
 3050SOL     OW11971   6.051   3.160   3.818 -0.6188  0.4268 -0.2779
 3050SOL    HW211972   6.144   3.165   3.794 -0.3671 -0.0269  0.5604
 3050SOL    HW311973   6.013   3.239   3.782  0.5242  1.6834  1.1281
 3050SOL    MW411974   6.059   3.171   3.810 -0.3082  0.5585 -0.0721
 3051SOL     OW11975   0.913   5.336   5.130 -0.7861  0.4902  0.7109
 3051SOL    HW211976   0.903   5.284   5.209 -0.8477  0.5997  0.7749
 3051SOL    HW311977   0.924   5.271   5.060 -1.2662  0.3778  0.7332
 3051SOL    MW411978   0.913   5.320   5.131  0.3822  0.5009  0.3434
 3052SOL     OW11979   1.976   1.280   6.266  0.7460 -0.2115 -0.3653
 3052SOL    HW211980   1.937   1.299   6.351  0.2824  0.5200 -0.7340
 3052SOL    HW311981   1.921   1.211   6.229 -0.2007  0.7796 -0.8615
 3052SOL    MW411982   1.963   1.273   6.272 -0.1896 -0.5502  0.2245
 3053SOL     OW11983   2.917   4.377   0.800 -0.1985  0.0925 -0.2773
 3053SOL    HW211984   2.862   4.354   0.726 -0.8992  2.8402 -0.7024
 3053SOL    HW311985   3.000   4.404   0.761 -0.3474  0.9294 -0.0287
 3053SOL    MW411986   2.921   4.378   0.785  0.4354  0.0687  0.2376
 3054SOL     OW11987   3.704   0.259   4.364  0.3214  0.5916 -0.1793
 3054SOL    HW211988   3.755   0.250   4.284  0.3336  0.8418 -0.2014
 3054SOL    HW311989   3.615   0.234   4.339  0.0863  1.7416 -0.5523
 3054SOL    MW411990   3.699   0.255   4.350  0.5267  0.0400  0.6263
 3055SOL     OW11991   3.938   1.959   3.680 -0.1346 -0.0094  0.4134
 3055SOL    HW211992   4.002   1.889   3.665 -0.1810  0.2804 -1.2218
 3055SOL    HW311993   3.869   1.942   3.617 -1.3638  0.0977  1.6877
 3055SOL    MW411994   3.938   1.947   3.670  0.6235  0.0282 -0.7087
 3056SOL     OW11995   3.550   0.474   1.104  0.0102  0.9912 -0.1435
 3056SOL    HW211996   3.600   0.548   1.137  1.8764 -0.1741 -0.1936
 3056SOL    HW311997   3.614   0.404   1.093 -1.4220 -0.2237 -1.4316
 3056SOL    MW411998   3.565   0.475   1.107 -0.5311 -0.1760 -0.4583
 3057SOL     OW11999   5.381   3.634   2.476  0.4542  0.7886 -0.0708
 3057SOL    HW212000   5.298   3.681   2.485  0.4225  1.0849 -1.6459
 3057SOL    HW312001   5.404   3.610   2.566 -1.8029 -0.1158  0.3521
 3057SOL    MW412002   5.373   3.637   2.489 -0.3749 -0.7465  0.6113
 3058SOL     OW12003   4.961   4.530   2.556 -0.0138  0.3584 -0.5804
 3058SOL    HW212004   4.969   4.606   2.614  0.7975 -0.1478 -0.0050
 3058SOL    HW312005   5.045   4.524   2.512 -0.7591  0.9901 -2.1834
 3058SOL    MW412006   4.973   4.539   2.558 -0.3587  0.6145 -0.0738
 3059SOL     OW12007   5.868   0.113   2.419  0.2231 -0.5068 -0.2211
 3059SOL    HW212008   5.863   0.065   2.336 -1.0459 -0.2328 -0.3247
 3059SOL    HW312009   5.952   0.158   2.415  0.7313 -1.4848 -0.8068
 3059SOL    MW412010   5.878   0.113   2.407  0.2086  0.0039  0.2391
 3060SOL     OW12011   5.650   3.738   5.128 -0.2536 -0.2396  0.0128
 3060SOL    HW212012   5.632   3.770   5.217 -0.2396  0.4864 -0.2442
 3060SOL    HW312013   5.683   3.649   5.142 -1.6420 -0.6844  0.6465
 3060SOL    MW412014   5.652   3.731   5.142 -0.1086 -0.3891 -0.2270
 3061SOL     OW12015   5.856   1.555   0.655 -0.1678  0.0957  0.1926
 3061SOL    HW212016   5.819   1.478   0.611 -1.2629  1.3327 -1.1343
 3061SOL    HW312017   5.843   1.538   0.749 -3.0373 -0.0902 -0.1658
 3061SOL    MW412018   5.850   1.542   0.662 -0.2352 -0.1020 -0.3268
 3062SOL     OW12019   5.696   5.011   0.134  0.0095  0.1758  0.1652
 3062SOL    HW212020   5.666   4.921   0.125 -1.0972  0.3932  1.2870
 3062SOL    HW312021   5.691   5.028   0.229  0.2128  1.4019 -0.0273
 3062SOL    MW412022   5.691   5.002   0.146 -0.8165  0.2153  0.4855
 3063SOL     OW12023   3.384   5.477   0.570  0.9013 -0.1774  0.3585
 3063SOL    HW212024   3.307   5.436   0.610 -0.1683  1.7915  0.4540
 3063SOL    HW312025   3.372   5.571   0.587  2.0702  0.4134 -1.7551
 3063SOL    MW412026   3.372   5.484   0.577  0.0742 -0.4412  0.3921
 3064SOL     OW12027   5.166   0.808   4.135  0.5233 -0.3593  0.3729
 3064SOL    HW212028   5.086   0.837   4.178 -0.2060 -1.6539 -0.0691
 3064SOL    HW312029   5.206   0.888   4.102 -1.2415  0.2027 -0.5128
 3064SOL    MW412030   5.161   0.822   4.136  0.2442 -0.8619  0.0454
 3065SOL     OW12031   0.386   3.497   0.949 -0.4691  0.1228  0.3534
 3065SOL    HW212032   0.349   3.489   0.861  0.2096  0.7438  0.0020
 3065SOL    HW312033   0.341   3.573   0.987 -0.3882  0.1708  0.3526
 3065SOL    MW412034   0.375   3.506   0.942 -0.4278  0.2207  0.6818
 3066SOL     OW12035   2.061   4.630   2.453  0.0032 -0.3943 -0.1785
 3066SOL    HW212036   2.099   4.713   2.424 -1.9068  0.6848  0.2522
 3066SOL    HW312037   2.069   4.572   2.377  1.9651 -0.0729 -0.2687
 3066SOL    MW412038   2.067   4.633   2.439 -0.2209 -0.5546  0.3560
 3067SOL     OW12039   3.816   3.188   0.493 -0.0218  0.3798 -0.2179
 3067SOL    HW212040   3.836   3.131   0.419 -0.5872 -1.5093  0.9979
 3067SOL    HW312041   3.889   3.249   0.497  1.7325 -1.6016 -0.3500
 3067SOL    MW412042   3.828   3.188   0.484 -0.2709 -1.1033  0.0768
 3068SOL     OW12043   0.452   3.771   5.582  0.1292  0.1194  0.6618
 3068SOL    HW212044   0.451   3.866   5.594  0.7170 -0.0174  1.9378
 3068SOL    HW312045   0.386   3.738   5.642 -0.2291 -0.2756  0.0673
 3068SOL    MW412046   0.443   3.779   5.591  0.0382 -0.2296  0.8256
 3069SOL     OW12047   2.939   1.760   1.567 -0.9832  0.3008  0.1693
 3069SOL    HW212048   2.967   1.668   1.576 -1.5118  0.3466  3.0484
 3069SOL    HW312049   2.969   1.785   1.479  1.5430 -1.8234  0.2932
 3069SOL    MW412050   2.947   1.751   1.556  0.1475  1.0748 -0.4192
 3070SOL     OW12051   0.198   5.217   1.922 -0.1662  0.0132  0.1243
 3070SOL    HW212052   0.291   5.238   1.912 -0.2323  1.4419  1.8858
 3070SOL    HW312053   0.156   5.253   1.844  0.9550 -2.6076 -1.8188
 3070SOL    MW412054   0.205   5.225   1.910  0.3692  0.1353 -0.7902
 3071SOL     OW12055   0.988   5.513   4.795 -0.6596  0.6890  0.2541
 3071SOL    HW212056   0.995   5.549   4.883 -1.7577 -0.8707  1.0301
 3071SOL    HW312057   1.066   5.458   4.785 -0.5220  0.8868  0.2404
 3071SOL    MW412058   0.999   5.510   4.805 -0.4830 -0.1655  0.6921
 3072SOL     OW12059   0.954   5.294   2.555  0.7868 -0.0626 -0.3102
 3072SOL    HW212060   0.915   5.328   2.475 -0.1063 -0.2089  0.0524
 3072SOL    HW312061   0.992   5.210   2.530 -0.8031 -0.8312 -0.2858
 3072SOL    MW412062   0.954   5.287   2.541  0.1401 -0.6412  0.4150
 3073SOL     OW12063   5.851   1.460   2.970  0.3018 -0.2675 -0.3927
 3073SOL    HW212064   5.767   1.485   2.932  0.3630  1.6451  0.5791
 3073SOL    HW312065   5.894   1.407   2.903 -1.0632 -0.0080 -1.4967
 3073SOL    MW412066   5.846   1.457   2.956 -0.6307  0.4725 -0.1983
 3074SOL     OW12067   6.395   5.589   3.978 -0.0734  0.3390 -0.1400
 3074SOL    HW212068   6.350   5.641   4.045  1.0661  0.8713  0.2281
 3074SOL    HW312069   6.395   5.645   3.900  0.2615  0.4792 -0.0385
 3074SOL    MW412070   6.389   5.603   3.977  0.0924  0.7087 -0.3982
 3075SOL     OW12071   3.023   5.505   2.487  0.2032  0.2788  0.0108
 3075SOL    HW212072   3.119   5.509   2.487  0.1789  0.9067  0.0396
 3075SOL    HW312073   2.995   5.594   2.508 -0.3785 -0.0644  0.7585
 3075SOL    MW412074   3.032   5.517   2.490  0.2025  1.0486 -0.2083
 3076SOL     OW12075   5.217   2.008   2.053  0.6900 -0.3331 -0.1879
 3076SOL    HW212076   5.201   2.103   2.052  0.4801 -0.3604  0.2361
 3076SOL    HW312077   5.176   1.978   2.134  0.3991 -0.8492 -0.5207
 3076SOL    MW412078   5.209   2.017   2.063  1.1081  0.0604 -0.0105
 3077SOL     OW12079   5.521   3.908   4.807 -0.2011  0.0996 -0.5137
 3077SOL    HW212080   5.616   3.896   4.803 -0.3000 -0.3951 -2.0345
 3077SOL    HW312081   5.498   3.948   4.723 -1.3348  0.2644 -0.1391
 3077SOL    MW412082   5.530   3.911   4.796  0.4977 -0.4196  1.0055
 3078SOL     OW12083   1.544   5.288   2.724 -0.2080 -0.3675 -0.1095
 3078SOL    HW212084   1.499   5.345   2.661  0.9228 -0.4996 -1.0813
 3078SOL    HW312085   1.587   5.222   2.669 -1.1760 -1.9449  0.9646
 3078SOL    MW412086   1.544   5.287   2.708  0.2901  1.0480  0.0482
 3079SOL     OW12087   0.633   2.058   3.807  0.0248  0.2947 -0.0865
 3079SOL    HW212088   0.590   2.081   3.724  1.0280  0.9729 -0.4419
 3079SOL    HW312089   0.565   2.067   3.873 -0.4672  1.0125 -0.6751
 3079SOL    MW412090   0.618   2.062   3.804  0.4669  0.6453 -0.4134
 3080SOL     OW12091   2.761   5.950   2.249 -0.1571  0.2494 -0.4448
 3080SOL    HW212092   2.697   5.882   2.271  0.0855 -0.3801 -1.6173
 3080SOL    HW312093   2.846   5.905   2.253  0.1932  0.9603  0.6243
 3080SOL    MW412094   2.764   5.935   2.253 -0.0623 -0.0765 -0.4722
 3081SOL     OW12095   3.588   5.655   3.025 -0.3257  0.0122  0.2464
 3081SOL    HW212096   3.657   5.596   2.995 -1.3439 -0.3675 -1.4948
 3081SOL    HW312097   3.507   5.617   2.990 -1.1015  1.9934 -0.2285
 3081SOL    MW412098   3.586   5.642   3.017  1.0502 -0.0639  0.3121
 3082SOL     OW12099   0.136   2.617   4.824 -0.2206 -1.1210  0.2531
 3082SOL    HW212100   0.174   2.595   4.909  0.7712  0.0148  0.1318
 3082SOL    HW312101   0.171   2.551   4.764  0.9332 -0.5781  0.3039
 3082SOL    MW412102   0.145   2.606   4.827 -0.1319  0.3020  0.2842
 3083SOL     OW12103   3.227   0.715   0.899 -0.2376  0.3467 -0.0178
 3083SOL    HW212104   3.320   0.732   0.885  0.1774 -0.8129  1.2217
 3083SOL    HW312105   3.212   0.628   0.862 -1.1583  1.0479 -1.4152
 3083SOL    MW412106   3.237   0.706   0.892 -0.0724 -0.2919  0.3858
 3084SOL     OW12107   5.693   2.735   5.514  0.6794  0.1023  0.2925
 3084SOL    HW212108   5.629   2.697   5.575 -0.0272 -0.0176 -0.5122
 3084SOL    HW312109   5.768   2.675   5.517 -0.2102 -1.1008 -0.5643
 3084SOL    MW412110   5.694   2.722   5.523 -0.7644  0.1990 -0.3998
 3085SOL     OW12111   0.573   2.646   0.590  0.3028 -0.1361  0.2951
 3085SOL    HW212112   0.571   2.551   0.581  1.7704 -0.2273  0.6869
 3085SOL    HW312113   0.488   2.668   0.627  0.1759 -1.3602  0.7825
 3085SOL    MW412114   0.562   2.636   0.593 -0.2670  0.3280 -0.2075
 3086SOL     OW12115   1.044   0.235   0.714  0.2900 -0.3297 -0.0663
 3086SOL    HW212116   0.994   0.160   0.747  1.0868 -1.2165 -0.7987
 3086SOL    HW312117   1.055   0.292   0.790 -1.9670 -0.0064  0.0884
 3086SOL    MW412118   1.039   0.233   0.728 -0.0563  0.2686  0.4827
 3087SOL     OW12119   2.525   1.634   3.681  0.1107 -0.4119  0.5678
 3087SOL    HW212120   2.522   1.722   3.717 -0.9391 -0.7196  1.2838
 3087SOL    HW312121   2.600   1.593   3.725  0.4763  0.0526  0.3836
 3087SOL    MW412122   2.534   1.640   3.692 -0.1316  0.8916 -0.0333
 3088SOL     OW12123   0.587   0.243   2.669  0.2923 -0.2935  0.0746
 3088SOL    HW212124   0.520   0.293   2.622  0.8218  0.1171 -0.2579
 3088SOL    HW312125   0.627   0.307   2.728  0.0326 -0.6656  0.6577
 3088SOL    MW412126   0.583   0.258   2.671 -0.3035 -0.0522 -0.1459
 3089SOL     OW12127   1.086   4.859   6.318 -0.1724  0.6516 -0.6312
 3089SOL    HW212128   1.104   4.848   6.225 -2.7414 -2.2193 -0.9416
 3089SOL    HW312129   1.127   4.783   6.359 -0.7126  0.8541  0.3179
 3089SOL    MW412130   1.094   4.848   6.312 -0.2744 -0.0617 -0.8162
 3090SOL     OW12131   6.329   2.009   1.128  0.1660  0.1467 -0.0430
 3090SOL    HW212132   6.287   1.995   1.043  1.0503  0.9925 -0.6300
 3090SOL    HW312133   6.423   2.005   1.110  0.3899 -1.2119  1.1740
 3090SOL    MW412134   6.336   2.006   1.114 -0.3220 -0.6717  0.3652
 3091SOL     OW12135   4.476   2.539   6.133  0.0406 -0.1518  0.3461
 3091SOL    HW212136   4.454   2.486   6.209 -3.5930 -0.1071 -0.5095
 3091SOL    HW312137   4.452   2.485   6.058  1.0128  0.8105 -0.6982
 3091SOL    MW412138   4.470   2.525   6.133  0.8075  0.0081  0.0291
 3092SOL     OW12139   5.061   5.089   6.333  0.1493 -0.4169  0.0749
 3092SOL    HW212140   5.149   5.054   6.326  0.5466  0.8387 -1.6604
 3092SOL    HW312141   5.049   5.143   6.255 -0.9962  2.0038  1.7697
 3092SOL    MW412142   5.071   5.091   6.322 -0.2477 -0.0305 -0.1394
 3093SOL     OW12143   1.756   4.402   4.525  0.0147 -0.0559 -0.3399
 3093SOL    HW212144   1.820   4.421   4.594 -0.3883 -2.4096  0.7465
 3093SOL    HW312145   1.673   4.436   4.559  0.1965  0.7329 -0.6536
 3093SOL    MW412146   1.754   4.409   4.539  0.2075  0.0483  0.1987
 3094SOL     OW12147   2.022   2.166   4.218  0.4828 -0.1926  0.1529
 3094SOL    HW212148   2.089   2.234   4.213  1.0059 -0.6746  0.4072
 3094SOL    HW312149   2.070   2.088   4.247 -0.3496 -0.3178  1.2654
 3094SOL    MW412150   2.037   2.164   4.221  0.0229 -0.0687 -0.0654
 3095SOL     OW12151   5.289   2.500   3.786 -0.2064  0.2501  0.2299
 3095SOL    HW212152   5.379   2.524   3.763 -0.3815  1.1537  0.4404
 3095SOL    HW312153   5.298   2.444   3.863  0.2273 -0.4972 -0.3562
 3095SOL    MW412154   5.302   2.496   3.793  0.8547 -0.5517 -0.2191
 3096SOL     OW12155   0.329   4.303   3.434  0.1771 -0.0059 -0.6245
 3096SOL    HW212156   0.424   4.292   3.444  0.2919  1.8361  0.7414
 3096SOL    HW312157   0.316   4.397   3.427 -1.6254 -0.1722 -0.0499
 3096SOL    MW412158   0.340   4.314   3.435 -0.1199 -0.4805  0.3761
 3097SOL     OW12159   5.335   0.276   2.799  0.1966  0.0964  0.2756
 3097SOL    HW212160   5.373   0.190   2.783 -0.1891 -0.0349  0.0543
 3097SOL    HW312161   5.385   0.335   2.742  0.9838  0.1484  1.0099
 3097SOL    MW412162   5.346   0.273   2.789 -0.4617  0.0956  0.2391
 3098SOL     OW12163   4.226   2.663   1.961  0.1266 -0.7420 -0.3549
 3098SOL    HW212164   4.291   2.719   1.917 -0.5933  1.3001  1.0582
 3098SOL    HW312165   4.248   2.669   2.054 -2.1118  0.1249  0.1880
 3098SOL    MW412166   4.238   2.671   1.967  0.0250 -0.3506  0.3932
 3099SOL     OW12167   0.014   4.576   1.444  0.3181 -0.0943  0.1986
 3099SOL    HW212168  -0.002   4.487   1.412  3.5250 -0.5967 -0.3789
 3099SOL    HW312169   0.067   4.564   1.522  1.6795  1.2797 -0.4548
 3099SOL    MW412170   0.019   4.562   1.450 -0.4038  0.5993  0.2894
 3100SOL     OW12171   2.418   3.130   5.668 -0.5346  0.5564 -0.7077
 3100SOL    HW212172   2.383   3.046   5.638  0.8538 -0.8431  1.2720
 3100SOL    HW312173   2.508   3.132   5.634 -0.0782  0.5219  0.4491
 3100SOL    MW412174   2.425   3.119   5.660  0.1456 -0.0733  0.2695
 3101SOL     OW12175   0.292   4.921   2.261 -0.6427  0.2615  0.5909
 3101SOL    HW212176   0.225   4.974   2.304 -2.0717 -1.7723  1.0232
 3101SOL    HW312177   0.279   4.833   2.296  0.8480 -0.6495 -0.9814
 3101SOL    MW412178   0.282   4.916   2.272  0.4733  0.1393 -0.2171
 3102SOL     OW12179   5.724   4.917   3.043  0.0016 -0.0177  0.3309
 3102SOL    HW212180   5.770   4.986   3.090  0.1618 -0.7274  1.2690
 3102SOL    HW312181   5.789   4.847   3.033 -0.5312 -0.5695  0.6390
 3102SOL    MW412182   5.739   4.917   3.048 -0.0162  0.1867  1.0323
 3103SOL     OW12183   2.335   4.471   4.003 -0.5081  0.3283 -0.0196
 3103SOL    HW212184   2.377   4.485   3.918 -0.1140 -2.4959 -0.3775
 3103SOL    HW312185   2.315   4.378   4.006 -0.9656  0.4064  2.8064
 3103SOL    MW412186   2.338   4.461   3.993 -0.1771 -0.1288  0.4318
 3104SOL     OW12187   1.247   3.675   6.240  0.2534 -0.5988 -0.2785
 3104SOL    HW212188   1.338   3.660   6.213  1.2895  2.0111  1.3531
 3104SOL    HW312189   1.217   3.746   6.183  0.4247  0.8125  1.3104
 3104SOL    MW412190   1.255   3.683   6.229  0.2361  0.3656  0.5058
 3105SOL     OW12191   1.296   3.680   1.114 -0.6661  0.4892  0.0058
 3105SOL    HW212192   1.389   3.686   1.095 -0.5074 -1.2755  0.0743
 3105SOL    HW312193   1.292   3.661   1.208 -0.9963 -1.0638 -0.2940
 3105SOL    MW412194   1.307   3.678   1.124 -0.2446  0.9583  0.5099
 3106SOL     OW12195   0.092   4.499   3.661 -0.1041 -0.3711  0.1482
 3106SOL    HW212196   0.089   4.417   3.710  1.4412 -0.4342  0.1757
 3106SOL    HW312197   0.001   4.515   3.636 -1.0836 -0.0922  3.4231
 3106SOL    MW412198   0.080   4.490   3.664  0.8714 -0.7853  0.0030
 3107SOL     OW12199   2.105   5.260   0.846 -0.0638 -0.8741  0.4750
 3107SOL    HW212200   2.035   5.326   0.838  0.6248 -0.0287  1.1769
 3107SOL    HW312201   2.116   5.226   0.757 -1.6937 -1.3801  0.4340
 3107SOL    MW412202   2.097   5.265   0.833 -0.1426  0.2369 -0.0654
 3108SOL     OW12203   2.070   2.997   3.340 -0.1679 -0.4467 -0.1019
 3108SOL    HW212204   2.103   3.061   3.277 -0.6386 -0.5874 -0.4916
 3108SOL    HW312205   1.989   2.965   3.302  0.7081 -2.2667 -0.5516
 3108SOL    MW412206   2.064   3.001   3.327  0.1523  0.0424  0.0161
 3109SOL     OW12207   4.996   4.913   2.309 -0.4255 -0.2328 -0.0566
 3109SOL    HW212208   5.013   4.907   2.215  0.8290 -1.1443  0.2000
 3109SOL    HW312209   4.926   4.850   2.325  0.0971 -0.8564 -0.2175
 3109SOL    MW412210   4.989   4.904   2.299  0.2945  0.6838  0.2300
 3110SOL     OW12211   4.733   0.966   0.226 -0.7312  0.0543 -0.1421
 3110SOL    HW212212   4.651   0.917   0.223 -1.1085  0.6575  0.2450
 3110SOL    HW312213   4.799   0.899   0.247 -1.1572 -0.3897 -0.1989
 3110SOL    MW412214   4.731   0.950   0.229  0.0007  0.3269  0.7350
 3111SOL     OW12215   1.633   3.758   2.838 -0.0810  0.2099  0.5273
 3111SOL    HW212216   1.659   3.666   2.837  0.4268  0.3470 -0.7676
 3111SOL    HW312217   1.551   3.760   2.887  1.2058 -0.5500  2.8408
 3111SOL    MW412218   1.626   3.746   2.844 -0.5411  0.2854 -1.0356
 3112SOL     OW12219   5.793   2.977   3.772 -0.1345  0.1190 -0.2301
 3112SOL    HW212220   5.747   3.053   3.736  0.3515  0.2826 -0.5094
 3112SOL    HW312221   5.877   3.011   3.802 -0.1361 -0.2053  0.1546
 3112SOL    MW412222   5.798   2.991   3.771  0.1634  0.3282 -0.5142
 3113SOL     OW12223   1.599   5.335   3.332 -0.0971  0.1928  0.0194
 3113SOL    HW212224   1.563   5.321   3.244 -2.0196  0.7046  0.6802
 3113SOL    HW312225   1.537   5.292   3.390  0.6478  0.6759  1.2056
 3113SOL    MW412226   1.586   5.327   3.328  0.3406  0.4536  0.4304
 3114SOL     OW12227   2.949   6.189   5.763  0.1571  0.2560  0.2873
 3114SOL    HW212228   2.873   6.180   5.819  1.1141  0.4601  1.6592
 3114SOL    HW312229   3.007   6.248   5.810  0.4626  1.4595 -1.5137
 3114SOL    MW412230   2.947   6.195   5.776 -0.2233 -0.3808 -0.0771
 3115SOL     OW12231   2.942   5.734   0.008  1.0005  0.2098  0.6795
 3115SOL    HW212232   2.879   5.664   0.027  0.4552  1.1325  2.4458
 3115SOL    HW312233   2.962   5.773   0.093  4.1594 -0.1642  0.2414
 3115SOL    MW412234   2.936   5.730   0.022 -0.1587 -0.0354 -0.2034
 3116SOL     OW12235   5.061   0.869   3.277  0.0778 -0.5770  0.7827
 3116SOL    HW212236   5.017   0.922   3.211  0.2278  0.7370  1.6989
 3116SOL    HW312237   5.013   0.785   3.277 -0.7748 -0.1053 -0.0272
 3116SOL    MW412238   5.049   0.865   3.268 -0.0572  0.0376 -0.2799
 3117SOL     OW12239   2.262   1.701   0.511 -0.0347 -0.5250 -0.0858
 3117SOL    HW212240   2.258   1.732   0.421 -3.2653  0.6057  0.3143
 3117SOL    HW312241   2.275   1.781   0.563 -0.5010 -0.8587  0.5594
 3117SOL    MW412242   2.263   1.716   0.506 -0.4229 -0.6057 -0.0080
 3118SOL     OW12243   6.161   1.178   4.717 -0.5929  0.5184 -0.0305
 3118SOL    HW212244   6.232   1.151   4.776  0.4861  2.1000 -0.5523
 3118SOL    HW312245   6.163   1.113   4.647  0.1979  0.4095  0.0809
 3118SOL    MW412246   6.171   1.166   4.716 -0.1654 -0.7641 -0.0072
 3119SOL     OW12247   4.932   2.829   2.852  0.6624  0.3474 -0.1673
 3119SOL    HW212248   5.016   2.875   2.847  1.1549 -0.6655 -3.5365
 3119SOL    HW312249   4.945   2.763   2.921  1.3748  2.3618  1.7433
 3119SOL    MW412250   4.945   2.826   2.860 -0.1657  0.0013  0.0066
 3120SOL     OW12251   2.162   4.359   1.239 -0.0624 -0.5299  0.0489
 3120SOL    HW212252   2.249   4.398   1.246 -0.3172  0.1573 -0.5054
 3120SOL    HW312253   2.108   4.427   1.198 -1.4658 -0.0013  2.5494
 3120SOL    MW412254   2.166   4.373   1.234  0.1560  0.3355 -0.2702
 3121SOL     OW12255   2.357   2.637   2.310 -0.2275 -0.1609  0.5308
 3121SOL    HW212256   2.378   2.568   2.247 -1.0298 -1.0897  1.2494
 3121SOL    HW312257   2.274   2.609   2.350  0.3194  0.3321  2.0902
 3121SOL    MW412258   2.349   2.624   2.307 -0.5694 -0.5699 -0.5038
 3122SOL     OW12259   2.004   3.210   2.187 -0.2412  0.2638  0.0117
 3122SOL    HW212260   2.015   3.261   2.267  2.1919  0.0125 -0.0948
 3122SOL    HW312261   1.910   3.213   2.170 -0.5568  2.0955  1.6921
 3122SOL    MW412262   1.993   3.217   2.196 -0.1828  0.3940  0.7078
 3123SOL     OW12263   2.456   5.728   4.727  0.1033 -0.6863  0.0020
 3123SOL    HW212264   2.474   5.821   4.739  2.3735 -0.7733 -1.9476
 3123SOL    HW312265   2.424   5.698   4.812 -0.0346  1.7130  0.8655
 3123SOL    MW412266   2.454   5.736   4.740  0.1321  0.3092  0.1074
 3124SOL     OW12267   6.197   4.363   4.790  0.1581  0.1144  0.0419
 3124SOL    HW212268   6.116   4.343   4.836  0.5357 -1.7013  0.0032
 3124SOL    HW312269   6.170   4.418   4.716 -1.1751 -1.1028 -0.4259
 3124SOL    MW412270   6.183   4.367   4.786  0.9885  0.1147  0.2176
 3125SOL     OW12271   1.845   5.623   2.396  0.0420  0.3227  0.2659
 3125SOL    HW212272   1.826   5.611   2.489 -0.1077  2.0423  0.4988
 3125SOL    HW312273   1.789   5.696   2.370  0.0690 -0.1511 -1.1897
 3125SOL    MW412274   1.835   5.631   2.405  0.0244  0.1689 -0.6133
 3126SOL     OW12275   3.416   1.167   2.691  0.1187 -0.6532 -0.8755
 3126SOL    HW212276   3.324   1.163   2.665 -0.1036  1.5614 -0.6185
 3126SOL    HW312277   3.422   1.108   2.767 -0.6913 -2.0358 -1.8319
 3126SOL    MW412278   3.404   1.158   2.698  0.5675 -0.3268  0.1504
 3127SOL     OW12279   2.386   4.765   0.985  0.9681  0.1024 -0.0012
 3127SOL    HW212280   2.388   4.702   0.912 -1.2842 -0.6443  0.5169
 3127SOL    HW312281   2.309   4.819   0.968  0.8152  0.3790  1.4845
 3127SOL    MW412282   2.376   4.764   0.973 -0.3881  0.2185 -0.4406
 3128SOL     OW12283   0.133   3.850   1.364  0.1047  0.1257 -0.6655
 3128SOL    HW212284   0.073   3.915   1.400  1.5280  2.4078 -2.1393
 3128SOL    HW312285   0.208   3.853   1.423  0.6029  0.6471 -1.3003
 3128SOL    MW412286   0.135   3.859   1.377 -0.1179  0.0677  0.3732
 3129SOL     OW12287   6.036   0.774   2.915  0.1203 -0.0184 -0.4593
 3129SOL    HW212288   6.098   0.755   2.844  0.7710 -0.8695  0.3019
 3129SOL    HW312289   6.091   0.810   2.985 -0.6384  1.6312 -0.6776
 3129SOL    MW412290   6.052   0.776   2.915  0.1179 -0.3816 -0.0274
 3130SOL     OW12291   3.994   1.137   5.298  0.0477  0.1030 -0.7265
 3130SOL    HW212292   4.004   1.180   5.213 -0.9691 -0.5605 -1.2144
 3130SOL    HW312293   3.902   1.107   5.299  0.3789 -0.9730  0.0769
 3130SOL    MW412294   3.983   1.138   5.287  0.2160 -1.0266 -0.0267
 3131SOL     OW12295   1.322   6.372   3.692  0.0556 -0.1803  0.0653
 3131SOL    HW212296   1.271   6.425   3.754  0.7784  2.0436 -1.1218
 3131SOL    HW312297   1.257   6.329   3.638 -0.7365  2.6836 -1.4833
 3131SOL    MW412298   1.307   6.373   3.693  0.0725  0.4450 -0.4443
 3132SOL     OW12299   0.152   4.704   6.215 -0.1375 -0.1718  0.2732
 3132SOL    HW212300   0.245   4.682   6.218 -0.5166 -1.7908  2.8928
 3132SOL    HW312301   0.118   4.653   6.142  0.8075 -0.5166  0.0519
 3132SOL    MW412302   0.160   4.695   6.206 -0.2456  0.1371 -0.1961
 3133SOL     OW12303   0.180   0.621   1.535 -0.0862  0.1287  0.1000
 3133SOL    HW212304   0.115   0.604   1.602 -1.3964  2.4003 -0.4624
 3133SOL    HW312305   0.154   0.706   1.498  2.9746  0.9795 -0.4093
 3133SOL    MW412306   0.168   0.630   1.539  0.1055 -0.0938 -0.6093
 3134SOL     OW12307   4.736   4.065   5.029 -0.4822 -0.2967  0.1135
 3134SOL    HW212308   4.753   4.134   5.093  0.8801 -2.1796  1.9205
 3134SOL    HW312309   4.784   4.093   4.951 -2.1358  2.0199 -0.1928
 3134SOL    MW412310   4.745   4.078   5.027 -0.1535  0.4024 -0.8773
 3135SOL     OW12311   6.269   4.074   0.283  0.2958 -0.2685 -0.3138
 3135SOL    HW212312   6.180   4.057   0.313  0.4151  1.0606  0.9009
 3135SOL    HW312313   6.263   4.075   0.187 -0.3069 -3.4962 -0.4130
 3135SOL    MW412314   6.257   4.072   0.274 -0.0656 -0.5439  0.2371
 3136SOL     OW12315   4.746   2.128   5.285  0.1562 -0.0291 -0.3462
 3136SOL    HW212316   4.726   2.035   5.271  0.7499 -0.2058 -0.0585
 3136SOL    HW312317   4.765   2.161   5.197 -1.5175  0.1911 -0.6589
 3136SOL    MW412318   4.746   2.120   5.272 -0.3306 -0.0524 -0.5100
 3137SOL     OW12319   2.710   1.090   2.700  0.3644  0.0442 -0.9735
 3137SOL    HW212320   2.731   1.103   2.793  1.8442  0.0168 -1.2689
 3137SOL    HW312321   2.636   1.031   2.699  1.2392 -1.1228  0.1861
 3137SOL    MW412322   2.703   1.084   2.712 -0.1041  0.3398 -0.2789
 3138SOL     OW12323   1.911   1.242   5.888  0.8286 -0.3207  0.3571
 3138SOL    HW212324   1.939   1.152   5.904  0.2600 -1.1562 -2.7456
 3138SOL    HW312325   1.984   1.282   5.840  1.0242  0.8853  1.5928
 3138SOL    MW412326   1.924   1.235   5.884  0.0189 -0.5077  0.0430
 3139SOL     OW12327   5.397   4.730   1.614  1.0835 -0.0446 -0.7673
 3139SOL    HW212328   5.353   4.714   1.530 -1.1774 -0.1594  0.3714
 3139SOL    HW312329   5.373   4.656   1.669  2.8278 -0.1555 -0.0822
 3139SOL    MW412330   5.388   4.718   1.610 -0.0931  0.3081 -0.2241
 3140SOL     OW12331   5.999   4.480   5.183 -0.4318  0.3273  0.3005
 3140SOL    HW212332   6.073   4.538   5.161  0.1195 -0.5936 -0.3918
 3140SOL    HW312333   5.980   4.435   5.101 -0.8886 -0.4199  0.8078
 3140SOL    MW412334   6.007   4.482   5.169 -0.1963  0.2513 -0.3159
 3141SOL     OW12335   3.950   2.272   5.780  0.1802  0.2952  0.4520
 3141SOL    HW212336   3.911   2.360   5.780 -3.0902 -1.0259  0.7210
 3141SOL    HW312337   3.980   2.258   5.870  1.6531  1.4287  0.1821
 3141SOL    MW412338   3.949   2.282   5.792 -0.0573  0.5113 -0.1488
 3142SOL     OW12339   5.890   3.440   3.440  0.3913  0.3827  0.2080
 3142SOL    HW212340   5.805   3.464   3.402  0.7620  2.3055  0.4699
 3142SOL    HW312341   5.953   3.490   3.388  1.3005 -0.4637  0.4842
 3142SOL    MW412342   5.887   3.450   3.428  0.1915  0.3801  0.1202
 3143SOL     OW12343   2.537   5.668   0.600 -0.0939  0.4396  0.2854
 3143SOL    HW212344   2.626   5.684   0.570  0.4064  0.0555  1.5313
 3143SOL    HW312345   2.511   5.750   0.643 -0.0649  0.2820  0.6008
 3143SOL    MW412346   2.545   5.681   0.601 -0.4369 -0.5562  0.0672
 3144SOL     OW12347   3.722   0.258   1.008  0.0328  0.3853  0.5502
 3144SOL    HW212348   3.810   0.220   1.014 -0.7895 -1.7726 -0.3878
 3144SOL    HW312349   3.662   0.185   1.025 -1.6536  0.8319 -2.5879
 3144SOL    MW412350   3.726   0.244   1.011  0.3197 -0.9118 -0.4465
 3145SOL     OW12351   5.349   5.887   2.262  0.0197  0.1321  0.2838
 3145SOL    HW212352   5.349   5.915   2.354 -3.2212 -1.2305  0.8291
 3145SOL    HW312353   5.428   5.834   2.254  0.9561  1.1712  1.9535
 3145SOL    MW412354   5.360   5.884   2.273 -0.2667  0.2350 -0.0387
 3146SOL     OW12355   4.547   4.277   2.553 -0.2201 -0.1829 -0.5262
 3146SOL    HW212356   4.622   4.243   2.603 -0.9042 -0.3801  0.3904
 3146SOL    HW312357   4.578   4.361   2.519 -0.0218  0.3971  1.0135
 3146SOL    MW412358   4.561   4.284   2.555 -0.3551 -0.0248  0.0879
 3147SOL     OW12359   1.970   4.913   4.589 -0.0216  0.1343 -0.0076
 3147SOL    HW212360   1.887   4.960   4.575  0.5210  0.9412 -0.5829
 3147SOL    HW312361   1.999   4.890   4.501  1.0959  1.1543  0.0668
 3147SOL    MW412362   1.963   4.916   4.576 -0.4360  0.2462 -0.1320
 3148SOL     OW12363   2.255   0.816   2.511  0.3481  0.0989 -0.0895
 3148SOL    HW212364   2.211   0.734   2.533  0.8776 -0.1337  0.1236
 3148SOL    HW312365   2.189   0.867   2.464 -0.0049 -0.4220 -0.1679
 3148SOL    MW412366   2.240   0.812   2.508  0.1054 -0.3973  0.5722
 3149SOL     OW12367   1.908   3.381   4.012  0.7613  0.2105 -0.2802
 3149SOL    HW212368   1.841   3.440   4.047  0.2345  0.1091 -1.0957
 3149SOL    HW312369   1.985   3.437   4.001  0.0920  0.9157 -1.6208
 3149SOL    MW412370   1.909   3.396   4.015 -0.0783 -0.6186  0.7542
 3150SOL     OW12371   0.938   3.548   2.038 -0.9910 -0.5965 -0.0956
 3150SOL    HW212372   0.874   3.477   2.031 -0.6915 -1.1265  2.0419
 3150SOL    HW312373   1.022   3.505   2.046 -0.4643  0.0854 -1.5474
 3150SOL    MW412374   0.940   3.533   2.038 -0.2430 -0.1646  0.0839
 3151SOL     OW12375   3.494   4.639   5.822 -0.1818  0.0791  0.3313
 3151SOL    HW212376   3.501   4.573   5.753 -3.0368 -1.2184  1.1093
 3151SOL    HW312377   3.432   4.703   5.788 -1.2958 -0.3495  1.4706
 3151SOL    MW412378   3.487   4.639   5.809 -0.3177  1.0387  0.2116
 3152SOL     OW12379   6.152   0.966   4.520 -0.1164  0.1327 -0.2375
 3152SOL    HW212380   6.222   0.901   4.509  0.0192  0.2681 -0.1826
 3152SOL    HW312381   6.104   0.965   4.437  0.1474  0.2708 -0.3915
 3152SOL    MW412382   6.155   0.957   4.508  0.4362 -0.2158  0.3397
 3153SOL     OW12383   1.688   3.604   5.360 -0.3467  0.1405 -0.5676
 3153SOL    HW212384   1.721   3.527   5.406 -1.3924  0.8712  1.5024
 3153SOL    HW312385   1.622   3.570   5.300  0.0213 -0.6718 -0.5302
 3153SOL    MW412386   1.684   3.589   5.358 -0.3622  0.0930 -0.5851
 3154SOL     OW12387   4.801   5.835   4.562 -0.9298 -0.0117 -0.5545
 3154SOL    HW212388   4.866   5.777   4.603 -0.4151  0.4962 -0.6446
 3154SOL    HW312389   4.845   5.920   4.555 -1.3767  0.1725 -1.2200
 3154SOL    MW412390   4.815   5.839   4.567 -0.4077  0.5548 -0.2341
 3155SOL     OW12391   2.630   0.370   0.161 -0.0856 -0.4112  0.3765
 3155SOL    HW212392   2.675   0.442   0.206 -0.7926 -0.3481  0.9980
 3155SOL    HW312393   2.537   0.382   0.183 -0.4478 -0.4529 -0.9878
 3155SOL    MW412394   2.623   0.381   0.170  0.0132  0.3385 -0.3842
 3156SOL     OW12395   1.994   3.008   0.470 -0.8568 -0.2865  0.6595
 3156SOL    HW212396   1.958   3.032   0.384 -1.3806 -1.1391  0.6304
 3156SOL    HW312397   2.088   3.000   0.455 -1.0250 -1.1813 -0.0381
 3156SOL    MW412398   2.001   3.010   0.456 -0.3187 -0.0752  0.3472
 3157SOL     OW12399   1.362   2.348   2.138 -0.3875  0.3420 -0.0283
 3157SOL    HW212400   1.357   2.273   2.197  1.1505  1.0933  1.1384
 3157SOL    HW312401   1.389   2.310   2.054 -2.2867 -0.7016 -0.2284
 3157SOL    MW412402   1.365   2.333   2.135 -0.2762  0.6658  0.6064
 3158SOL     OW12403   1.718   5.473   4.038  0.3823  0.1555 -0.2419
 3158SOL    HW212404   1.656   5.476   3.965  0.5985 -2.8238 -0.6363
 3158SOL    HW312405   1.668   5.436   4.110  0.7053  1.2845  0.5895
 3158SOL    MW412406   1.703   5.469   4.038 -0.6964  0.2474 -0.8633
 3159SOL     OW12407   1.447   5.257   5.296  0.0759 -0.2411 -0.3336
 3159SOL    HW212408   1.353   5.264   5.312  0.4595  0.1794  2.1361
 3159SOL    HW312409   1.461   5.164   5.278 -0.6508 -0.5698  0.7085
 3159SOL    MW412410   1.436   5.245   5.296 -0.5712 -0.1064 -0.3939
 3160SOL     OW12411   4.334   3.206   2.801 -0.2996 -0.0080 -0.5881
 3160SOL    HW212412   4.385   3.172   2.874 -0.8861 -2.5852 -1.2819
 3160SOL    HW312413   4.251   3.234   2.840  0.7462  2.2373  0.2178
 3160SOL    MW412414   4.330   3.205   2.816  0.3809 -0.2317 -0.2332
 3161SOL     OW12415   4.130   4.320   2.368  0.1768 -0.1272  0.6718
 3161SOL    HW212416   4.190   4.331   2.442  2.3956 -0.8820 -0.9020
 3161SOL    HW312417   4.181   4.272   2.303 -2.5965 -2.0546 -0.2995
 3161SOL    MW412418   4.145   4.315   2.370 -0.2193 -0.5795 -0.5915
 3162SOL     OW12419   1.515   6.397   3.149  0.4556  0.2030  0.3154
 3162SOL    HW212420   1.531   6.384   3.243  0.3353  0.2302  0.3393
 3162SOL    HW312421   1.489   6.489   3.142 -2.6515 -0.5468  0.6808
 3162SOL    MW412422   1.514   6.407   3.161  0.0717  0.2872 -0.0549
 3163SOL     OW12423   4.540   2.309   5.184 -0.0989 -0.3382 -0.4549
 3163SOL    HW212424   4.481   2.372   5.225  0.9094 -0.2700  0.9567
 3163SOL    HW312425   4.625   2.326   5.224  0.6235 -1.2715 -1.5226
 3163SOL    MW412426   4.544   2.319   5.194 -0.1083 -0.0720 -0.0252
 3164SOL     OW12427   1.046   2.034   2.113  0.6177 -0.7320 -0.1189
 3164SOL    HW212428   1.016   1.945   2.131 -1.0144 -0.1099  0.3764
 3164SOL    HW312429   1.053   2.074   2.200  0.3167 -0.0556 -0.4089
 3164SOL    MW412430   1.043   2.027   2.127 -0.8942  0.0111  0.3909
 3165SOL     OW12431   4.149   5.469   0.308  0.0130  0.0353  0.2548
 3165SOL    HW212432   4.087   5.463   0.380  0.9055 -0.7198  0.9797
 3165SOL    HW312433   4.180   5.379   0.295 -1.8728 -0.3516 -2.6640
 3165SOL    MW412434   4.145   5.456   0.316  0.0213 -0.3320  0.1428
 3166SOL     OW12435   6.284   2.876   6.112 -0.1086  0.1548  0.2851
 3166SOL    HW212436   6.309   2.957   6.067  1.2641 -0.4477 -0.0915
 3166SOL    HW312437   6.198   2.853   6.075  0.9967 -0.3614 -2.1699
 3166SOL    MW412438   6.276   2.883   6.101  0.1957 -0.0834  0.2671
 3167SOL     OW12439   3.942   0.512   3.453 -0.8983  0.2488  0.3645
 3167SOL    HW212440   4.024   0.525   3.501  0.8303  0.8184 -2.4873
 3167SOL    HW312441   3.958   0.436   3.397 -2.7496 -0.3037  0.5171
 3167SOL    MW412442   3.955   0.504   3.452 -0.0896 -0.5063  0.0610
 3168SOL     OW12443   5.236   3.661   3.653  0.3989  0.2109  0.6009
 3168SOL    HW212444   5.195   3.612   3.724  0.5543  1.6286  1.7191
 3168SOL    HW312445   5.317   3.614   3.634 -0.2650 -0.9046  0.4618
 3168SOL    MW412446   5.241   3.649   3.660  0.4893 -0.2092 -0.0642
 3169SOL     OW12447   1.775   0.680   5.443  0.2343  0.3004 -0.1046
 3169SOL    HW212448   1.751   0.753   5.385  0.0316 -0.6178 -1.2047
 3169SOL    HW312449   1.789   0.606   5.384 -0.9235 -0.9229  1.0953
 3169SOL    MW412450   1.773   0.680   5.428 -0.7790  0.2616 -0.5484
 3170SOL     OW12451   1.619   4.928   3.203 -0.3489 -0.1096 -0.3228
 3170SOL    HW212452   1.714   4.938   3.205 -0.2698 -0.8699 -0.1210
 3170SOL    HW312453   1.596   4.897   3.290 -0.7111 -0.5185 -0.5620
 3170SOL    MW412454   1.628   4.926   3.215  0.3980 -0.2935 -0.1434
 3171SOL     OW12455   0.256   5.874   0.942  0.5394 -0.3860  0.1530
 3171SOL    HW212456   0.213   5.885   0.857 -1.4851 -3.5470  0.6104
 3171SOL    HW312457   0.228   5.950   0.993  0.2449  0.5900 -1.3884
 3171SOL    MW412458   0.247   5.885   0.938  0.3126  0.0455 -0.7044
 3172SOL     OW12459   6.384   5.481   3.578 -0.3754  0.3363 -0.0497
 3172SOL    HW212460   6.405   5.427   3.655 -1.1917  1.8191  1.2839
 3172SOL    HW312461   6.326   5.549   3.612 -1.4187  0.5815 -2.1653
 3172SOL    MW412462   6.379   5.483   3.593  0.1515 -0.5954  0.2268
 3173SOL     OW12463   5.940   6.357   1.503  0.0875 -0.0899 -0.6313
 3173SOL    HW212464   6.009   6.295   1.478  0.7856 -0.8853  2.6918
 3173SOL    HW312465   5.881   6.359   1.428  1.7571 -2.2923 -2.1491
 3173SOL    MW412466   5.942   6.349   1.490  0.4050 -0.1160  0.3866
 3174SOL     OW12467   0.202   4.163   1.300 -0.1433  0.0683  0.1733
 3174SOL    HW212468   0.173   4.095   1.361  0.2166 -0.0742  0.1903
 3174SOL    HW312469   0.137   4.232   1.308 -0.7530 -0.4543 -0.1538
 3174SOL    MW412470   0.190   4.163   1.309 -0.4316 -0.3502 -0.1372
 3175SOL     OW12471   4.410   6.346   1.462  0.1440 -0.1216 -0.3544
 3175SOL    HW212472   4.325   6.310   1.487  0.5078 -0.7298  0.0454
 3175SOL    HW312473   4.468   6.269   1.458  0.7626  0.3328 -0.2291
 3175SOL    MW412474   4.406   6.331   1.465  0.3159  0.3597  0.2774
 3176SOL     OW12475   2.435   6.187   2.393 -0.1605 -0.3760  0.4324
 3176SOL    HW212476   2.520   6.155   2.424  0.4946 -1.0432 -1.8796
 3176SOL    HW312477   2.377   6.110   2.399 -0.0921 -0.4449  0.2135
 3176SOL    MW412478   2.439   6.172   2.398  0.2690  0.2381  0.6767
 3177SOL     OW12479   5.195   1.843   3.696 -0.6812  0.3617  0.7194
 3177SOL    HW212480   5.140   1.773   3.659 -0.5933  0.0562  1.1651
 3177SOL    HW312481   5.284   1.811   3.686 -0.4588  1.4465 -1.2587
 3177SOL    MW412482   5.199   1.829   3.690  0.5420 -0.8234 -0.1515
 3178SOL     OW12483   5.082   2.043   6.418 -0.0891  0.3630  0.6643
 3178SOL    HW212484   5.087   2.102   6.343  0.0014  1.1262  1.2562
 3178SOL    HW312485   5.085   1.955   6.380 -1.0406  0.7251 -0.2983
 3178SOL    MW412486   5.083   2.039   6.403 -0.1953 -0.9212  0.0163
 3179SOL     OW12487   6.068   0.411   5.161  0.6158 -0.7701  0.2440
 3179SOL    HW212488   6.083   0.350   5.089  1.9251  0.5650 -0.6510
 3179SOL    HW312489   5.976   0.396   5.186  0.9359 -3.1789  0.1748
 3179SOL    MW412490   6.058   0.401   5.155  0.4958  0.0232  0.2074
 3180SOL     OW12491   2.948   5.674   3.605  0.0492 -0.4759 -0.2563
 3180SOL    HW212492   2.924   5.764   3.584 -1.7322 -0.3118  2.0313
 3180SOL    HW312493   2.944   5.670   3.701 -1.9281 -3.4473 -0.3074
 3180SOL    MW412494   2.944   5.685   3.615  0.1080  0.9772 -0.2270
 3181SOL     OW12495   4.948   2.624   3.046  0.1071  0.4707 -0.3072
 3181SOL    HW212496   4.895   2.681   3.102 -1.1849 -2.0685  1.2216
 3181SOL    HW312497   5.011   2.583   3.106  0.8793  0.1122 -1.3271
 3181SOL    MW412498   4.950   2.626   3.061 -0.4053  0.3324  0.1410
 3182SOL     OW12499   4.378   2.149   3.769  0.0006  0.4290  0.6614
 3182SOL    HW212500   4.288   2.179   3.770 -0.9074 -2.1199  1.3075
 3182SOL    HW312501   4.408   2.166   3.679 -0.5019  2.8193  0.8916
 3182SOL    MW412502   4.370   2.155   3.757  0.8038 -0.1897  0.0992
 3183SOL     OW12503   0.087   2.137   5.229 -0.3326 -0.2831 -0.4153
 3183SOL    HW212504   0.058   2.048   5.210  0.3034  0.0025 -3.0744
 3183SOL    HW312505   0.007   2.185   5.247 -0.7312 -1.2314  0.4922
 3183SOL    MW412506   0.073   2.131   5.229  0.0447  0.3973 -0.0122
 3184SOL     OW12507   4.201   0.502   3.205 -0.4805 -0.0294  0.3502
 3184SOL    HW212508   4.246   0.478   3.286  0.3414  1.0612  0.2532
 3184SOL    HW312509   4.220   0.430   3.145  1.5264  0.5581  0.1956
 3184SOL    MW412510   4.210   0.490   3.208  0.7620  0.4740 -0.0431
 3185SOL     OW12511   1.438   0.601   5.440  0.3507 -0.0860  0.8538
 3185SOL    HW212512   1.417   0.632   5.528 -2.4476 -0.8527  0.5403
 3185SOL    HW312513   1.390   0.519   5.430  0.0001  0.3225 -1.6069
 3185SOL    MW412514   1.429   0.595   5.450 -0.1630  0.0084 -0.1644
 3186SOL     OW12515   4.643   5.879   1.878 -0.0284  0.2045  0.4218
 3186SOL    HW212516   4.671   5.908   1.791  0.6333 -0.6307  0.3378
 3186SOL    HW312517   4.705   5.920   1.938  1.1192 -1.2238  0.2771
 3186SOL    MW412518   4.655   5.888   1.875  0.2082 -0.6272 -0.1018
 3187SOL     OW12519   4.596   3.973   0.713 -0.4676 -0.5065 -0.1076
 3187SOL    HW212520   4.675   4.027   0.717 -0.8435  0.1989 -1.5181
 3187SOL    HW312521   4.626   3.889   0.679 -0.3260 -0.2467 -0.6263
 3187SOL    MW412522   4.611   3.969   0.709  0.0532  0.1111 -0.3142
 3188SOL     OW12523   1.003   4.486   4.836  0.1559 -0.9145  0.1133
 3188SOL    HW212524   1.079   4.540   4.860  2.0936 -2.8256 -1.3858
 3188SOL    HW312525   0.950   4.483   4.916  1.6323  0.4889  1.2094
 3188SOL    MW412526   1.006   4.493   4.850 -0.2955  0.4729 -0.0479
 3189SOL     OW12527   6.168   1.685   2.736  0.3417  0.6116  0.0915
 3189SOL    HW212528   6.211   1.752   2.683  1.5572 -0.1710  0.0751
 3189SOL    HW312529   6.228   1.611   2.736 -0.3959 -0.0145  1.1877
 3189SOL    MW412530   6.181   1.684   2.729  0.4762 -0.0488  0.3587
 3190SOL     OW12531   2.412   1.191   4.493 -0.4281  0.5851  0.4522
 3190SOL    HW212532   2.411   1.128   4.421  0.6399  0.2602  0.7030
 3190SOL    HW312533   2.485   1.249   4.473 -1.3072  1.6797  0.2988
 3190SOL    MW412534   2.421   1.190   4.481  0.4064 -0.1818  0.2717
 3191SOL     OW12535   0.512   0.422   1.943  0.2114  0.1338 -0.8327
 3191SOL    HW212536   0.542   0.349   1.890  1.4654 -0.1762  0.2444
 3191SOL    HW312537   0.525   0.499   1.888  1.8124 -0.1353 -0.8878
 3191SOL    MW412538   0.518   0.422   1.929 -0.2275  0.2516 -0.2572
 3192SOL     OW12539   0.433   0.873   1.918  0.0584  0.3388 -0.2494
 3192SOL    HW212540   0.346   0.835   1.928  0.3641  0.1036  2.2593
 3192SOL    HW312541   0.486   0.802   1.881 -0.1293 -0.6472  1.2648
 3192SOL    MW412542   0.428   0.858   1.915  0.6612 -0.2721  0.0389
 3193SOL     OW12543   4.825   4.657   0.798 -0.2597 -0.0785 -0.1200
 3193SOL    HW212544   4.751   4.654   0.737 -1.2278 -1.5546  1.0549
 3193SOL    HW312545   4.793   4.613   0.877  0.7620  2.1770  1.6795
 3193SOL    MW412546   4.811   4.651   0.800 -0.2182 -0.2106 -0.1184
 3194SOL     OW12547   1.684   5.795   2.184  0.4115 -0.1624  0.1023
 3194SOL    HW212548   1.720   5.878   2.214  0.8947 -0.9063  1.6940
 3194SOL    HW312549   1.753   5.756   2.130  0.4286  0.1754 -0.1215
 3194SOL    MW412550   1.698   5.801   2.181 -0.0623  0.4720 -0.3132
 3195SOL     OW12551   0.134   3.495   4.948  0.2669 -0.0373  0.4298
 3195SOL    HW212552   0.073   3.423   4.967 -0.6982  1.3446  2.9903
 3195SOL    HW312553   0.209   3.480   5.006  0.6241  0.3557  0.0787
 3195SOL    MW412554   0.136   3.484   4.958 -0.2059  0.4356  0.4411
 3196SOL     OW12555   3.404   1.909   2.602  0.2104  0.2109  0.1922
 3196SOL    HW212556   3.420   2.000   2.625  0.1036  0.1512  0.5038
 3196SOL    HW312557   3.387   1.910   2.508 -2.6564  0.8851  0.6473
 3196SOL    MW412558   3.404   1.921   2.593  0.5205 -0.0606  0.0854
 3197SOL     OW12559   2.540   6.071   3.286  0.0850 -0.4791  0.3839
 3197SOL    HW212560   2.463   6.124   3.305  0.5429  0.0513  0.7822
 3197SOL    HW312561   2.562   6.030   3.369 -0.4068 -1.5008  0.0308
 3197SOL    MW412562   2.533   6.072   3.299 -0.0667 -0.3174  0.1406
 3198SOL     OW12563   6.121   1.133   2.008  0.2573  0.2331 -0.2749
 3198SOL    HW212564   6.190   1.130   1.941 -0.3672 -1.0930 -0.8968
 3198SOL    HW312565   6.156   1.081   2.081  0.1595  0.0622 -0.3495
 3198SOL    MW412566   6.135   1.125   2.009  0.4019 -0.4703 -0.1594
 3199SOL     OW12567   2.341   3.891   2.718 -0.1508  0.0229  0.0768
 3199SOL    HW212568   2.278   3.859   2.653 -0.7909 -1.6388  1.4307
 3199SOL    HW312569   2.405   3.941   2.667 -1.1532 -0.4082 -1.6872
 3199SOL    MW412570   2.341   3.893   2.703  0.6574 -0.3198 -0.4767
 3200SOL     OW12571   1.922   3.843   2.465  0.3018 -0.0579  0.0584
 3200SOL    HW212572   1.941   3.876   2.377  2.4422 -0.5849  0.2519
 3200SOL    HW312573   1.869   3.912   2.506 -0.0429  0.5561 -1.3656
 3200SOL    MW412574   1.918   3.857   2.459  0.0382 -0.1435 -0.4760
 3201SOL     OW12575   0.326   6.340   4.518 -0.6537 -0.1436 -0.2065
 3201SOL    HW212576   0.338   6.415   4.576  2.0811 -0.2091 -0.5595
 3201SOL    HW312577   0.307   6.378   4.432  2.6244  0.3413 -0.8194
 3201SOL    MW412578   0.325   6.355   4.514  0.4621  0.1448 -0.0293
 3202SOL     OW12579   5.178   5.537   0.872  0.4014  0.4388 -0.3658
 3202SOL    HW212580   5.186   5.600   0.801 -1.0719  2.8490  1.4438
 3202SOL    HW312581   5.096   5.491   0.854  0.0908  0.9657 -0.3405
 3202SOL    MW412582   5.168   5.539   0.860 -0.0150 -0.1466  0.0729
 3203SOL     OW12583   5.921   3.103   4.049 -0.3291 -0.5837 -0.6072
 3203SOL    HW212584   5.952   3.018   4.079  1.0712  0.1234  0.0458
 3203SOL    HW312585   5.976   3.123   3.973 -0.4222 -0.1244 -0.5568
 3203SOL    MW412586   5.933   3.095   4.043 -0.4034 -0.1004  1.0174
 3204SOL     OW12587   0.089   3.800   0.721  0.5758  0.3828  0.4450
 3204SOL    HW212588   0.025   3.871   0.717 -0.1860 -0.2542 -3.4365
 3204SOL    HW312589   0.044   3.729   0.766  0.2237  1.3281  1.6390
 3204SOL    MW412590   0.075   3.800   0.726 -0.0377 -0.1502  0.1400
 3205SOL     OW12591   0.561   1.849   2.567  0.6443 -0.0992 -0.1211
 3205SOL    HW212592   0.480   1.882   2.528  1.0400  1.5164  0.3523
 3205SOL    HW312593   0.593   1.785   2.503 -0.5905 -0.1848 -0.6892
 3205SOL    MW412594   0.555   1.845   2.553  0.2147  0.1767 -0.3470
 3206SOL     OW12595   0.868   0.562   1.555  0.1640  0.3674  0.0432
 3206SOL    HW212596   0.824   0.634   1.601 -0.5474 -0.0919  0.0983
 3206SOL    HW312597   0.821   0.556   1.471 -0.1295 -0.3707  0.2550
 3206SOL    MW412598   0.856   0.571   1.550  0.4933 -0.1151 -0.3349
 3207SOL     OW12599   3.606   0.768   4.966  0.6764 -0.4124  0.3122
 3207SOL    HW212600   3.557   0.850   4.972  1.2159  0.1948 -2.3759
 3207SOL    HW312601   3.696   0.795   4.948  1.0682 -1.6085  0.4018
 3207SOL    MW412602   3.611   0.783   4.965  0.3622 -0.0747  0.4219
 3208SOL     OW12603   3.945   3.241   1.113 -0.1257  0.0014 -0.1871
 3208SOL    HW212604   3.927   3.277   1.200  0.7125  0.4092 -0.1719
 3208SOL    HW312605   3.867   3.191   1.091 -0.2683 -0.2639  0.8873
 3208SOL    MW412606   3.932   3.239   1.122  0.3613 -0.1843 -0.1862
 3209SOL     OW12607   4.430   0.865   1.106 -0.1055 -0.4165  0.0338
 3209SOL    HW212608   4.501   0.824   1.154  0.6920 -1.8871 -2.2157
 3209SOL    HW312609   4.368   0.893   1.173  0.8733 -2.3948  1.8812
 3209SOL    MW412610   4.431   0.863   1.121  0.2860  0.6690  0.2214
 3210SOL     OW12611   1.322   5.701   2.585 -0.3704 -0.1082 -0.4647
 3210SOL    HW212612   1.316   5.749   2.668 -0.0928 -1.2906  0.2672
 3210SOL    HW312613   1.344   5.768   2.520  0.4475  0.6875  0.5932
 3210SOL    MW412614   1.324   5.717   2.588  0.1608 -0.0435  0.2910
 3211SOL     OW12615   2.611   0.545   2.638 -0.6008 -0.2498  0.7755
 3211SOL    HW212616   2.642   0.627   2.599  1.0860  0.0492  2.5581
 3211SOL    HW312617   2.610   0.483   2.565 -1.1965  1.1444 -0.4606
 3211SOL    MW412618   2.615   0.548   2.623  0.0173  0.3788  0.5639
 3212SOL     OW12619   6.181   2.768   4.409  0.4381  0.4266 -0.1442
 3212SOL    HW212620   6.255   2.754   4.468  1.9966 -0.4071 -2.1695
 3212SOL    HW312621   6.177   2.862   4.397  1.0919  0.4964  0.1301
 3212SOL    MW412622   6.190   2.778   4.415 -0.1773 -0.4887 -0.0227
 3213SOL     OW12623   4.098   1.224   5.546  0.1984 -0.2485  0.2229
 3213SOL    HW212624   4.062   1.194   5.462  0.4062 -2.9091  1.0128
 3213SOL    HW312625   4.192   1.225   5.532  0.1712  2.5321 -0.4942
 3213SOL    MW412626   4.105   1.220   5.533 -0.1806  0.3025 -0.1168
 3214SOL     OW12627   4.623   3.411   2.838  0.1701 -0.2396  0.0873
 3214SOL    HW212628   4.614   3.317   2.850 -0.2624 -0.1181  0.7796
 3214SOL    HW312629   4.670   3.442   2.915  0.8345  0.0359 -0.4177
 3214SOL    MW412630   4.628   3.403   2.850  0.3296 -0.5293 -0.1747
 3215SOL     OW12631   1.043   5.029   2.509 -0.7417 -0.2486  0.5656
 3215SOL    HW212632   1.104   5.015   2.437 -1.7627  1.4997 -0.7245
 3215SOL    HW312633   0.968   4.974   2.487 -0.0066 -1.8199  1.7668
 3215SOL    MW412634   1.041   5.020   2.497  0.3525  0.0638  0.0587
 3216SOL     OW12635   2.785   5.050   0.684 -0.4462  0.3905 -0.3626
 3216SOL    HW212636   2.784   4.958   0.710 -0.5777  0.1267 -1.2737
 3216SOL    HW312637   2.877   5.070   0.668 -0.3115  0.6703  0.6450
 3216SOL    MW412638   2.797   5.041   0.685  0.0088  0.0877 -0.6118
 3217SOL     OW12639   1.479   3.391   3.812 -0.4160 -0.3435  0.5560
 3217SOL    HW212640   1.510   3.454   3.747 -1.3456 -0.0545  0.3850
 3217SOL    HW312641   1.463   3.443   3.891 -1.2488 -0.3391  0.3951
 3217SOL    MW412642   1.481   3.406   3.814  0.7053  0.7490 -0.4624
 3218SOL     OW12643   0.248   3.959   1.083  0.4620  0.1998 -0.2736
 3218SOL    HW212644   0.226   4.009   1.162 -0.2015  1.6253 -1.3107
 3218SOL    HW312645   0.335   3.989   1.059 -0.0633  1.1560 -1.0756
 3218SOL    MW412646   0.256   3.970   1.090  0.0908 -0.4661 -0.1254
 3219SOL     OW12647   3.071   1.032   2.240  0.0274  0.0399 -0.1463
 3219SOL    HW212648   3.101   0.956   2.289 -0.3878  1.0900  1.8626
 3219SOL    HW312649   3.127   1.104   2.270  0.0949  0.6387 -1.6286
 3219SOL    MW412650   3.082   1.032   2.251 -0.2492 -0.5586  0.4341
 3220SOL     OW12651   4.879   2.158   3.167  0.2553  0.2053  0.3822
 3220SOL    HW212652   4.818   2.087   3.184  1.1181 -0.2768  1.6366
 3220SOL    HW312653   4.901   2.150   3.075 -0.8744 -0.1603  0.1333
 3220SOL    MW412654   4.874   2.148   3.157 -0.5630 -0.3199  0.1519
 3221SOL     OW12655   2.035   2.267   2.011 -0.2158  0.3816  0.1080
 3221SOL    HW212656   2.094   2.194   1.989 -0.2121  0.9208 -1.8942
 3221SOL    HW312657   2.094   2.342   2.023 -0.3177  0.3576  0.7653
 3221SOL    MW412658   2.051   2.267   2.010  0.0876  0.1079 -0.1996
 3222SOL     OW12659   6.015   0.858   0.972  0.5303  0.1305  0.5333
 3222SOL    HW212660   6.109   0.875   0.970  0.8416 -1.4889 -0.7659
 3222SOL    HW312661   5.986   0.873   0.882 -0.4410  0.4122  0.8754
 3222SOL    MW412662   6.024   0.862   0.960  0.7223  0.9413 -0.5164
 3223SOL     OW12663   5.709   2.729   2.912  0.3294 -0.6052  0.4481
 3223SOL    HW212664   5.765   2.779   2.971  0.3862 -0.2728  0.1147
 3223SOL    HW312665   5.647   2.793   2.878 -0.8206 -1.1289  1.4755
 3223SOL    MW412666   5.708   2.744   2.915 -0.3520 -0.3967 -0.7427
 3224SOL     OW12667   2.537   1.056   2.932 -0.0431 -0.2816 -0.5195
 3224SOL    HW212668   2.442   1.071   2.927  0.2036  2.3149  0.9758
 3224SOL    HW312669   2.546   0.983   2.993 -1.0822 -0.6025 -0.7273
 3224SOL    MW412670   2.525   1.048   2.939 -0.8756 -0.3855 -0.3465
 3225SOL     OW12671   0.884   5.309   0.020 -0.0200  0.2916  0.3134
 3225SOL    HW212672   0.830   5.331  -0.057  0.0306 -0.5942  0.0119
 3225SOL    HW312673   0.966   5.278  -0.018  0.5414  1.1903  0.7655
 3225SOL    MW412674   0.888   5.308   0.005  0.0075 -0.0043 -0.3447
 3226SOL     OW12675   2.073   0.694   1.115  0.4858 -0.1187  0.4546
 3226SOL    HW212676   2.131   0.769   1.098  2.1611 -1.3538  0.4609
 3226SOL    HW312677   2.004   0.730   1.172 -0.2025  1.9799 -1.5427
 3226SOL    MW412678   2.071   0.709   1.121  0.2446 -0.5346  0.5447
 3227SOL     OW12679   2.946   0.389   4.330  0.2246 -0.5729  0.5795
 3227SOL    HW212680   2.936   0.447   4.405 -0.1298 -1.8824  1.5680
 3227SOL    HW312681   3.019   0.331   4.354 -0.0665 -1.1755  0.0325
 3227SOL    MW412682   2.954   0.389   4.343 -0.2964 -0.0949  0.0824
 3228SOL     OW12683   3.884   0.186   4.823 -0.4643 -0.8191 -0.1949
 3228SOL    HW212684   3.949   0.171   4.893  0.5019 -0.5511 -1.0046
 3228SOL    HW312685   3.920   0.139   4.748 -1.8220 -1.6391 -0.3475
 3228SOL    MW412686   3.898   0.178   4.823  0.1831 -0.3639 -0.3376
 3229SOL     OW12687   5.349   3.078   3.359 -0.5977 -0.5907 -0.0157
 3229SOL    HW212688   5.372   2.987   3.379  0.9423  0.2066  2.3345
 3229SOL    HW312689   5.366   3.087   3.265 -0.5259 -2.6446 -0.2484
 3229SOL    MW412690   5.354   3.067   3.349 -0.2170 -0.2955 -0.5787
 3230SOL     OW12691   6.033   2.824   6.023 -0.1737  0.7820 -0.1553
 3230SOL    HW212692   5.992   2.896   6.071 -0.8715  1.1999 -1.3355
 3230SOL    HW312693   6.023   2.748   6.081 -0.3192  1.4120  0.6743
 3230SOL    MW412694   6.026   2.823   6.037 -0.0339 -0.0871  0.3209
 3231SOL     OW12695   3.437   2.469   4.219  0.1092  0.5261  0.1817
 3231SOL    HW212696   3.372   2.429   4.162  0.4479 -0.6688  0.6227
 3231SOL    HW312697   3.417   2.563   4.216 -2.2496  0.1177  1.0571
 3231SOL    MW412698   3.426   2.476   4.211 -0.5136  0.2398 -0.5445
 3232SOL     OW12699   4.286   0.478   6.359 -0.3526 -0.2084 -0.0176
 3232SOL    HW212700   4.212   0.537   6.344  0.1066 -0.2658 -3.2145
 3232SOL    HW312701   4.247   0.391   6.366 -0.6200 -0.2996 -2.1782
 3232SOL    MW412702   4.271   0.475   6.358 -0.1471 -0.0977  0.4440
 3233SOL     OW12703   1.066   4.844   5.225  0.1960 -0.5064 -0.1236
 3233SOL    HW212704   1.120   4.899   5.169 -0.2169 -0.7481 -0.7801
 3233SOL    HW312705   1.058   4.892   5.307 -0.3937  0.5573 -0.7870
 3233SOL    MW412706   1.072   4.857   5.228 -0.1939  0.3370  0.7622
 3234SOL     OW12707   2.447   1.570   3.332  0.4402  0.2338 -0.4883
 3234SOL    HW212708   2.398   1.585   3.251 -0.8331 -0.0957  0.1893
 3234SOL    HW312709   2.437   1.476   3.350  0.3022  0.3871  0.2902
 3234SOL    MW412710   2.439   1.560   3.324 -0.1860 -0.1962 -0.3183
 3235SOL     OW12711   2.876   0.640   4.816  0.4811 -0.5732  0.4393
 3235SOL    HW212712   2.810   0.694   4.774  0.3557 -0.9142  0.1970
 3235SOL    HW312713   2.945   0.702   4.841  0.3270 -0.2990  0.1883
 3235SOL    MW412714   2.877   0.655   4.814  0.2921  0.1508 -0.4341
 3236SOL     OW12715   1.651   2.950   1.251 -0.2659 -0.4498  0.2502
 3236SOL    HW212716   1.601   3.026   1.283 -1.0470 -0.3903 -1.0487
 3236SOL    HW312717   1.641   2.884   1.320 -0.5432  0.2180  0.8642
 3236SOL    MW412718   1.643   2.951   1.264  0.5371  0.3640  0.3460
 3237SOL     OW12719   5.111   2.678   6.274  0.0488 -0.6604  0.4218
 3237SOL    HW212720   5.086   2.597   6.319 -1.1359  0.3955  1.7469
 3237SOL    HW312721   5.205   2.685   6.290 -0.0822 -1.0834  1.5124
 3237SOL    MW412722   5.120   2.668   6.282 -0.3924 -0.0054  0.4219
 3238SOL     OW12723   2.159   3.043   2.664 -0.0588  0.0092 -0.3003
 3238SOL    HW212724   2.125   2.977   2.604 -1.2553  0.0064  0.3622
 3238SOL    HW312725   2.179   3.118   2.609 -0.6090 -0.1872 -0.7724
 3238SOL    MW412726   2.157   3.044   2.649 -0.5059 -0.2739 -0.5598
 3239SOL     OW12727   0.875   6.283   3.117 -0.1206  0.2873  0.2246
 3239SOL    HW212728   0.828   6.277   3.201  0.0838  1.1281  0.4095
 3239SOL    HW312729   0.843   6.364   3.077 -1.2148 -0.7781 -1.1512
 3239SOL    MW412730   0.865   6.293   3.123  0.1177  0.1235  0.1315
 3240SOL     OW12731   3.200   2.518   1.306 -0.1152 -0.2605  0.0867
 3240SOL    HW212732   3.210   2.488   1.396  0.3577  0.2448  0.2104
 3240SOL    HW312733   3.135   2.460   1.268  0.9792 -1.6202  0.2273
 3240SOL    MW412734   3.193   2.507   1.313 -0.1432  0.1216  0.0768
 3241SOL     OW12735   2.215   5.610   4.085  0.0292 -0.4203  0.2140
 3241SOL    HW212736   2.193   5.689   4.035  2.7640 -0.2734 -0.9719
 3241SOL    HW312737   2.146   5.603   4.151 -1.7781  1.4215 -1.3290
 3241SOL    MW412738   2.203   5.620   4.087 -0.0247 -0.2629 -0.1619
 3242SOL     OW12739   3.441   0.877   5.570  0.0847 -0.5659 -0.0672
 3242SOL    HW212740   3.484   0.908   5.649 -0.1364  0.2133 -0.2454
 3242SOL    HW312741   3.461   0.943   5.504  0.7668 -1.5039 -0.8272
 3242SOL    MW412742   3.449   0.890   5.571 -0.3073 -0.0935  0.0662
 3243SOL     OW12743   6.017   1.097   5.744  0.3931  0.4896 -0.2861
 3243SOL    HW212744   5.999   1.112   5.651 -1.4584  2.1991  0.2738
 3243SOL    HW312745   6.027   1.184   5.781  1.0055 -0.1670  1.1403
 3243SOL    MW412746   6.016   1.110   5.736 -0.3234 -0.0950 -0.1802
 3244SOL     OW12747   2.754   6.182   3.118  0.2471  0.3081  0.2191
 3244SOL    HW212748   2.742   6.275   3.139  1.5863  0.6522 -0.4659
 3244SOL    HW312749   2.699   6.136   3.182 -1.5064  1.6051 -0.2720
 3244SOL    MW412750   2.745   6.188   3.129  0.1586 -0.2655  0.4310
 3245SOL     OW12751   3.882   0.900   2.447  0.5484  0.7441 -0.5482
 3245SOL    HW212752   3.816   0.931   2.509  0.5877 -1.6935  0.8258
 3245SOL    HW312753   3.965   0.934   2.482  0.3299  1.2995 -0.5687
 3245SOL    MW412754   3.884   0.909   2.460 -0.7937 -0.1014  0.3380
 3246SOL     OW12755   4.534   5.771   3.472  0.3790  0.2550  0.1668
 3246SOL    HW212756   4.601   5.834   3.496 -0.5268  1.1798  0.3136
 3246SOL    HW312757   4.514   5.792   3.380  1.7710 -1.3957 -0.5798
 3246SOL    MW412758   4.540   5.782   3.463 -0.7002  0.1721  0.2437
 3247SOL     OW12759   3.393   0.303   4.433 -0.3832 -0.4835  0.5552
 3247SOL    HW212760   3.377   0.393   4.460  1.1593 -0.4362  1.4414
 3247SOL    HW312761   3.378   0.251   4.512  2.8582 -0.4858  1.3124
 3247SOL    MW412762   3.389   0.308   4.447  0.3241 -0.2591  0.2978
 3248SOL     OW12763   4.711   2.343   4.410  0.0703 -0.4345 -0.0252
 3248SOL    HW212764   4.774   2.309   4.346 -0.5993 -1.0961 -0.3487
 3248SOL    HW312765   4.686   2.429   4.376 -1.4787 -1.4313 -1.5292
 3248SOL    MW412766   4.716   2.350   4.397  0.2283  0.2000 -0.1580
 3249SOL     OW12767   4.688   4.393   4.593 -0.6338  0.3383 -0.3704
 3249SOL    HW212768   4.696   4.488   4.594  2.3938  0.1986  0.0360
 3249SOL    HW312769   4.761   4.364   4.537 -0.5405 -1.7575  0.7417
 3249SOL    MW412770   4.699   4.402   4.586  0.7953 -0.1896  0.2849
 3250SOL     OW12771   6.368   0.312   3.418 -0.1082  0.3561 -0.4923
 3250SOL    HW212772   6.373   0.336   3.510  0.6109 -2.4268  0.2594
 3250SOL    HW312773   6.379   0.395   3.371  1.4705  1.5825  1.8884
 3250SOL    MW412774   6.370   0.326   3.424 -0.3672  0.4628  0.3624
 3251SOL     OW12775   6.047   5.443   5.772  0.5338  0.5316  0.1286
 3251SOL    HW212776   6.007   5.446   5.859  1.5246  1.9128  0.5756
 3251SOL    HW312777   6.069   5.534   5.753 -1.0019  0.4987 -2.2369
 3251SOL    MW412778   6.044   5.456   5.781 -0.2432 -0.1623  0.1184
 3252SOL     OW12779   5.596   1.164   4.910  0.0856  0.1295 -0.2240
 3252SOL    HW212780   5.676   1.200   4.948 -0.8040  0.3754  1.4700
 3252SOL    HW312781   5.561   1.235   4.856  2.0619 -0.6586 -2.8001
 3252SOL    MW412782   5.602   1.178   4.908 -0.2218 -0.1684  0.1344
 3253SOL     OW12783   5.781   4.165   1.316 -0.0166  0.1798  0.1790
 3253SOL    HW212784   5.862   4.114   1.311  0.3736  0.9085 -2.6056
 3253SOL    HW312785   5.809   4.252   1.343 -0.5376 -0.6041  3.7223
 3253SOL    MW412786   5.796   4.169   1.319  0.0309  1.2515  0.2087
 3254SOL     OW12787   6.384   2.946   3.509  0.3088  0.0839 -0.1234
 3254SOL    HW212788   6.381   2.860   3.550  0.6516 -1.5691 -3.2226
 3254SOL    HW312789   6.478   2.966   3.501  0.2432  0.5008  0.1255
 3254SOL    MW412790   6.396   2.938   3.513 -0.2571 -0.0005  0.1823
 3255SOL     OW12791   4.118   4.423   1.092  0.4522  0.0877 -0.1554
 3255SOL    HW212792   4.084   4.506   1.126  0.0420 -0.7560  1.6072
 3255SOL    HW312793   4.044   4.385   1.044  0.5501  0.6122 -0.7227
 3255SOL    MW412794   4.103   4.429   1.090  0.1245  0.0050  0.2252
 3256SOL     OW12795   0.379   2.316   2.917  0.6455  0.2612  0.2479
 3256SOL    HW212796   0.383   2.273   2.831  0.8571  0.4581  0.1582
 3256SOL    HW312797   0.408   2.406   2.900  0.4668  0.3649  0.4844
 3256SOL    MW412798   0.383   2.322   2.903  0.1009 -0.4447 -0.1715
 3257SOL     OW12799   3.319   5.222   4.969  0.2365 -0.1369  0.4695
 3257SOL    HW212800   3.262   5.285   5.012  0.2676 -1.7017  3.0449
 3257SOL    HW312801   3.278   5.206   4.884 -0.0526  2.8406 -0.0372
 3257SOL    MW412802   3.306   5.228   4.964 -0.4540  0.1764  0.5693
 3258SOL     OW12803   5.081   3.535   4.678 -0.1448  0.2357 -0.5752
 3258SOL    HW212804   5.114   3.484   4.752 -1.0880  1.6253  0.8576
 3258SOL    HW312805   5.129   3.501   4.602  1.4589 -0.6526  0.7796
 3258SOL    MW412806   5.092   3.524   4.678 -0.3309  0.0408  0.5355
 3259SOL     OW12807   1.162   2.296   3.177 -0.1097 -0.0966 -0.1907
 3259SOL    HW212808   1.219   2.220   3.167  0.2792  0.4364 -3.1046
 3259SOL    HW312809   1.078   2.268   3.139 -0.3300  0.5716 -0.2082
 3259SOL    MW412810   1.158   2.282   3.171 -0.3743 -0.1083 -0.1234
 3260SOL     OW12811   6.175   2.456   1.675 -0.0407  0.6022 -0.0724
 3260SOL    HW212812   6.088   2.435   1.642  0.1860  0.9416 -0.8958
 3260SOL    HW312813   6.162   2.529   1.735 -0.4282  0.0810  0.5014
 3260SOL    MW412814   6.162   2.463   1.679 -0.6036  0.4063  0.1385
 3261SOL     OW12815   2.420   1.989   2.924  0.3100 -0.1713  0.1465
 3261SOL    HW212816   2.458   1.928   2.987  1.2940 -1.6962 -1.8177
 3261SOL    HW312817   2.333   1.953   2.905 -0.7865  1.3367  1.9497
 3261SOL    MW412818   2.413   1.976   2.930  0.6163  0.4384  0.2600
 3262SOL     OW12819   0.216   0.499   1.897 -0.6433  0.6218  0.1281
 3262SOL    HW212820   0.294   0.443   1.894 -0.3313  1.0037  0.8483
 3262SOL    HW312821   0.166   0.466   1.971 -2.0631 -0.7463 -1.3526
 3262SOL    MW412822   0.220   0.487   1.906  0.6503  0.0315 -0.0098
 3263SOL     OW12823   3.870   4.467   0.054  1.1611  0.1398 -0.4399
 3263SOL    HW212824   3.823   4.525   0.114  0.2840 -0.1989 -0.7915
 3263SOL    HW312825   3.922   4.411   0.111  1.3407  0.6831 -0.0585
 3263SOL    MW412826   3.871   4.467   0.069 -0.1459 -0.2337 -0.0210
 3264SOL     OW12827   5.387   5.149   3.969 -0.2600 -0.5839  0.1538
 3264SOL    HW212828   5.409   5.219   4.030 -2.7384 -0.7710  1.3974
 3264SOL    HW312829   5.395   5.069   4.020  0.6968 -1.0444 -0.7050
 3264SOL    MW412830   5.391   5.148   3.984 -0.1169  0.7115  0.1371
 3265SOL     OW12831   6.402   4.316   6.296 -0.2697  0.0453 -0.2293
 3265SOL    HW212832   6.403   4.273   6.210 -0.3973  0.6512 -0.5361
 3265SOL    HW312833   6.488   4.296   6.333 -1.4230 -3.2469  1.0477
 3265SOL    MW412834   6.414   4.308   6.289 -0.2754  0.4460  0.2099
 3266SOL     OW12835   4.362   0.880   0.061 -0.3164  0.2493 -0.0299
 3266SOL    HW212836   4.359   0.961   0.112  1.8451  0.5860 -0.3396
 3266SOL    HW312837   4.296   0.823   0.102  0.9805  0.6514  2.8786
 3266SOL    MW412838   4.353   0.883   0.073  0.3839  0.6364  0.1277
 3267SOL     OW12839   1.880   0.072   5.829 -0.1201  0.0378  0.9766
 3267SOL    HW212840   1.796   0.051   5.871 -0.9605  1.2259 -0.0149
 3267SOL    HW312841   1.933  -0.006   5.840 -1.0180 -0.4131  2.4526
 3267SOL    MW412842   1.876   0.059   5.836  0.7507  0.0970 -0.1463
 3268SOL     OW12843   1.433   0.404   4.186  0.3354 -0.0005 -0.3418
 3268SOL    HW212844   1.453   0.318   4.148 -0.8082  0.1100 -1.2139
 3268SOL    HW312845   1.343   0.396   4.218  0.5080  0.6271  0.3300
 3268SOL    MW412846   1.424   0.391   4.185  0.5617 -0.1560 -0.3765
 3269SOL     OW12847   2.906   4.747   3.129  0.3707 -0.3727 -0.3831
 3269SOL    HW212848   2.823   4.701   3.138 -0.3397  0.5879 -1.6433
 3269SOL    HW312849   2.955   4.725   3.209 -2.1396  1.1345  1.7343
 3269SOL    MW412850   2.902   4.738   3.141  0.1830  0.3421  0.1241
 3270SOL     OW12851   5.212   2.356   3.566  0.2816 -0.2250 -0.3706
 3270SOL    HW212852   5.229   2.389   3.654 -0.0412 -0.4327 -0.2297
 3270SOL    HW312853   5.207   2.261   3.577 -4.0343 -0.1381  0.1723
 3270SOL    MW412854   5.214   2.347   3.579 -0.0889  0.1071 -0.1370
 3271SOL     OW12855   5.283   5.282   2.173  0.2438  0.4164  0.2666
 3271SOL    HW212856   5.293   5.204   2.118 -0.1280  0.3208  0.3282
 3271SOL    HW312857   5.197   5.271   2.213  0.8025  0.1237  1.4384
 3271SOL    MW412858   5.273   5.270   2.171  0.0199 -0.1886  1.1872
 3272SOL     OW12859   3.188   1.952   2.094 -0.7851  0.3154  0.0201
 3272SOL    HW212860   3.215   1.980   2.182 -0.9616 -1.7545  0.7978
 3272SOL    HW312861   3.270   1.948   2.044 -0.5771  0.7189  0.3188
 3272SOL    MW412862   3.202   1.955   2.099 -0.0385  0.3380 -0.0182
 3273SOL     OW12863   3.255   2.504   1.967 -0.3569 -0.3959 -0.6716
 3273SOL    HW212864   3.226   2.591   1.939 -3.1787 -0.0500  2.7174
 3273SOL    HW312865   3.283   2.515   2.057 -0.3397 -2.9394 -0.2853
 3273SOL    MW412866   3.255   2.517   1.975  0.6230  0.3650  0.2495
 3274SOL     OW12867   0.989   3.833   0.197  0.1813 -0.0569  0.0655
 3274SOL    HW212868   1.019   3.742   0.200 -1.1806 -0.5012  2.2337
 3274SOL    HW312869   0.928   3.835   0.123 -1.0851 -1.3857  1.0152
 3274SOL    MW412870   0.985   3.821   0.187  0.8422  0.1123  0.2697
 3275SOL     OW12871   4.021   3.572   2.697 -0.3351 -0.0183  0.0361
 3275SOL    HW212872   3.984   3.484   2.707 -1.1312  0.1466 -1.1806
 3275SOL    HW312873   4.024   3.608   2.786 -0.6485 -1.0238  0.4585
 3275SOL    MW412874   4.016   3.565   2.710  0.0034  0.2585 -0.2748
 3276SOL     OW12875   0.128   2.975   6.079 -0.6345 -0.9126 -0.2713
 3276SOL    HW212876   0.092   2.976   5.991 -0.2153  0.0522 -0.4430
 3276SOL    HW312877   0.212   3.021   6.072 -0.8254 -0.3707  0.7096
 3276SOL    MW412878   0.134   2.982   6.067 -0.8463  0.3979 -0.3199
 3277SOL     OW12879   4.183   0.755   5.856  0.2571 -0.1188  0.6793
 3277SOL    HW212880   4.170   0.824   5.792  0.6141  0.7487  1.5092
 3277SOL    HW312881   4.136   0.679   5.821 -0.9669  0.8233  0.2132
 3277SOL    MW412882   4.175   0.754   5.843  0.3251 -0.0871  0.4187
 3278SOL     OW12883   2.723   1.844   4.606  0.1206  0.1652  0.0197
 3278SOL    HW212884   2.736   1.839   4.701  0.6747  1.3398  0.0243
 3278SOL    HW312885   2.711   1.937   4.588  0.3653 -0.0035 -1.1121
 3278SOL    MW412886   2.723   1.856   4.616  0.2173 -0.2872 -0.6986
 3279SOL     OW12887   4.919   1.549   3.007  0.2879  0.0285  0.2436
 3279SOL    HW212888   4.996   1.501   2.977 -0.5203 -1.2077  0.0569
 3279SOL    HW312889   4.924   1.546   3.102  3.0732  4.3040  0.4640
 3279SOL    MW412890   4.929   1.542   3.016 -0.2814 -0.0992  0.1900
 3280SOL     OW12891   3.001   1.081   5.100 -0.2174 -0.0631  0.0581
 3280SOL    HW212892   3.028   1.072   5.009  0.7828  1.5877  0.1635
 3280SOL    HW312893   2.934   1.013   5.112 -0.2542 -0.4079 -1.8468
 3280SOL    MW412894   2.996   1.071   5.090  0.1617 -0.3520  0.0804
 3281SOL     OW12895   6.369   2.747   5.361 -0.5717 -0.2573  0.4476
 3281SOL    HW212896   6.344   2.714   5.447 -0.9791  0.0655  0.4611
 3281SOL    HW312897   6.460   2.776   5.372 -0.6020 -0.2705  0.7563
 3281SOL    MW412898   6.378   2.747   5.374  0.2535  0.0280  0.0842
 3282SOL     OW12899   4.402   5.427   5.287  0.2723 -0.3922  0.0958
 3282SOL    HW212900   4.412   5.333   5.271  1.3768 -0.2321 -0.2056
 3282SOL    HW312901   4.489   5.463   5.275  0.3184  0.3827  2.3279
 3282SOL    MW412902   4.415   5.420   5.283  0.1101  0.4250  0.3829
 3283SOL     OW12903   3.684   1.221   1.091  0.3662  0.4636 -0.6971
 3283SOL    HW212904   3.661   1.153   1.029 -0.3703 -1.1472  1.2225
 3283SOL    HW312905   3.774   1.201   1.117  0.3769  0.6057 -0.6196
 3283SOL    MW412906   3.693   1.209   1.086 -0.0756 -0.1862 -0.6712
 3284SOL     OW12907   6.396   4.310   1.330  0.0701 -0.1531  0.0975
 3284SOL    HW212908   6.301   4.318   1.331 -0.0077 -0.5700 -1.1636
 3284SOL    HW312909   6.421   4.339   1.242  1.0151 -0.8877  0.1090
 3284SOL    MW412910   6.387   4.315   1.318 -0.1700  0.2901  0.0813
 3285SOL     OW12911   4.631   2.594   5.843  0.6595 -0.1640 -0.4870
 3285SOL    HW212912   4.568   2.577   5.913  0.8239 -1.7624 -0.6849
 3285SOL    HW312913   4.595   2.549   5.766  2.3482 -1.7971 -0.4143
 3285SOL    MW412914   4.618   2.586   5.842 -0.4453 -0.2876 -0.0959
 3286SOL     OW12915   5.878   4.274   5.652  0.3504  0.1860  0.2665
 3286SOL    HW212916   5.816   4.278   5.724  0.2427  2.6009  0.1128
 3286SOL    HW312917   5.943   4.342   5.671  3.1415 -2.3122  0.5006
 3286SOL    MW412918   5.879   4.283   5.664  0.2802 -0.0536  0.3504
 3287SOL     OW12919   0.788   4.162   4.690 -0.3120 -0.6608  0.0558
 3287SOL    HW212920   0.847   4.093   4.659  1.3518  0.4499  0.6344
 3287SOL    HW312921   0.785   4.152   4.785  0.5850  0.5073  0.2357
 3287SOL    MW412922   0.795   4.152   4.698  0.5109 -0.7002  0.2634
 3288SOL     OW12923   4.111   1.743   3.689 -0.3450 -0.0361  0.1944
 3288SOL    HW212924   4.088   1.677   3.755  0.8052 -0.0859  0.5585
 3288SOL    HW312925   4.203   1.762   3.704 -0.4613  1.1144 -0.3978
 3288SOL    MW412926   4.120   1.737   3.699  0.0660 -0.3541  0.5987
 3289SOL     OW12927   4.747   1.041   6.390 -0.3094 -0.1061  0.3287
 3289SOL    HW212928   4.790   1.126   6.392 -0.8684  0.2022 -0.4957
 3289SOL    HW312929   4.746   1.013   6.482 -1.4218  1.4405  0.8331
 3289SOL    MW412930   4.753   1.048   6.403  0.4587  0.0848  0.0505
 3290SOL     OW12931   4.598   2.980   0.845  1.0180  0.2609 -0.6434
 3290SOL    HW212932   4.545   3.026   0.910  0.2593 -0.7564 -0.5266
 3290SOL    HW312933   4.534   2.942   0.785  1.5665 -1.3238 -0.2729
 3290SOL    MW412934   4.583   2.981   0.846  0.3528  0.5097  0.0265
 3291SOL     OW12935   5.135   1.420   5.727  0.0193 -0.3312  0.5547
 3291SOL    HW212936   5.106   1.336   5.691 -1.3916 -0.0367  0.9390
 3291SOL    HW312937   5.223   1.431   5.694  0.5124 -2.3027  1.0533
 3291SOL    MW412938   5.143   1.410   5.718 -0.0988  0.2651  0.2940
 3292SOL     OW12939   6.044   1.895   4.652  0.1465 -0.2155  0.0896
 3292SOL    HW212940   6.054   1.934   4.565 -1.8066  1.2795  0.4569
 3292SOL    HW312941   6.031   1.970   4.710 -3.2221 -1.2721  0.9254
 3292SOL    MW412942   6.044   1.910   4.648 -0.6646 -0.3444 -0.7261
 3293SOL     OW12943   6.127   3.221   3.458  0.2303  0.0867 -0.1059
 3293SOL    HW212944   6.057   3.270   3.500  0.9578  0.3209  0.8597
 3293SOL    HW312945   6.183   3.192   3.530  2.1494  1.4788 -0.9617
 3293SOL    MW412946   6.125   3.223   3.473  0.4624  0.2557 -0.2774
 3294SOL     OW12947   3.055   1.540   5.887 -0.0589 -0.1448  0.0178
 3294SOL    HW212948   3.030   1.570   5.799 -0.9569 -0.9138 -0.0122
 3294SOL    HW312949   3.000   1.592   5.946  2.3109  2.2210  0.3520
 3294SOL    MW412950   3.044   1.551   5.883 -0.2469  0.1665 -0.1326
 3295SOL     OW12951   4.667   2.088   5.700 -0.3270  0.0223 -0.1563
 3295SOL    HW212952   4.639   2.131   5.781 -0.2381 -1.6526  0.8010
 3295SOL    HW312953   4.606   2.121   5.634 -2.0993 -0.5429  1.1131
 3295SOL    MW412954   4.655   2.098   5.702 -0.2778 -0.0231  0.6541
 3296SOL     OW12955   1.321   3.025   0.944 -0.3424  0.0423  0.7043
 3296SOL    HW212956   1.256   3.074   0.995 -1.7020 -0.1684 -0.7614
 3296SOL    HW312957   1.405   3.058   0.976 -1.1803  2.2174  0.8731
 3296SOL    MW412958   1.323   3.036   0.955 -0.1702  0.1195  0.1455
 3297SOL     OW12959   2.075   2.291   1.374  0.3880 -0.2348 -0.3291
 3297SOL    HW212960   2.025   2.351   1.318  2.0596 -0.3390 -2.0427
 3297SOL    HW312961   2.146   2.346   1.409  0.1894 -0.5205  0.5262
 3297SOL    MW412962   2.078   2.306   1.371  0.3929 -0.4856 -0.0083
 3298SOL     OW12963   4.737   1.505   0.867 -0.6189 -0.3125 -0.1582
 3298SOL    HW212964   4.696   1.496   0.781  1.8738  0.7019 -1.5890
 3298SOL    HW312965   4.741   1.600   0.881  1.7912 -0.3021 -0.4838
 3298SOL    MW412966   4.732   1.516   0.858  0.0367  0.7158 -0.1554
 3299SOL     OW12967   0.243   0.114   2.525  0.3701  0.0953 -0.1942
 3299SOL    HW212968   0.257   0.073   2.611 -0.0680  0.7421  0.1987
 3299SOL    HW312969   0.151   0.097   2.506  0.0957  1.1496  0.1253
 3299SOL    MW412970   0.233   0.107   2.534 -0.2313 -0.4875  0.6822
 3300SOL     OW12971   0.744   2.546   2.953  0.4034 -0.1766  0.2676
 3300SOL    HW212972   0.735   2.453   2.930  1.5853 -0.7180  1.8120
 3300SOL    HW312973   0.838   2.557   2.967  0.1699  1.0579  0.9209
 3300SOL    MW412974   0.756   2.535   2.952  0.0535  0.4617  0.1960
 3301SOL     OW12975   0.081   0.365   5.037  0.4992  0.5480 -0.5624
 3301SOL    HW212976   0.013   0.316   5.085  1.5311  0.4524  0.8533
 3301SOL    HW312977   0.032   0.431   4.988 -0.6426  0.3720  0.2928
 3301SOL    MW412978   0.065   0.367   5.037  0.1492 -0.1659 -0.0970
 3302SOL     OW12979   3.455   4.315   4.859  0.0707  0.1001  0.6497
 3302SOL    HW212980   3.505   4.391   4.888  1.1850 -0.2209 -0.3415
 3302SOL    HW312981   3.517   4.263   4.808 -1.2763 -0.3094 -0.6637
 3302SOL    MW412982   3.469   4.318   4.856  0.2580 -0.2307 -0.3366
 3303SOL     OW12983   0.280   6.106   1.685 -0.4284  0.0644 -0.2896
 3303SOL    HW212984   0.247   6.071   1.602 -0.3414  0.4668 -0.4968
 3303SOL    HW312985   0.242   6.193   1.691  0.5551  0.5248 -0.5168
 3303SOL    MW412986   0.270   6.113   1.675 -0.2278 -0.4068  0.2409
 3304SOL     OW12987   1.193   2.538   5.858 -0.1179 -0.3526 -0.0382
 3304SOL    HW212988   1.163   2.625   5.885  1.4256  0.5649 -1.1556
 3304SOL    HW312989   1.159   2.528   5.770  0.1408 -0.6692 -0.1027
 3304SOL    MW412990   1.184   2.548   5.850  0.4210 -0.1797  0.0714
 3305SOL     OW12991   1.567   4.224   5.120  0.0819  0.4661  0.0486
 3305SOL    HW212992   1.598   4.221   5.210  2.6230  1.0939 -0.7306
 3305SOL    HW312993   1.593   4.139   5.083 -0.5836  0.3727 -0.2209
 3305SOL    MW412994   1.574   4.212   5.127 -0.6516  0.4545  0.4420
 3306SOL     OW12995   2.510   3.723   1.448  0.3952  0.3909  0.7405
 3306SOL    HW212996   2.425   3.680   1.451  0.5618  0.1143  1.7967
 3306SOL    HW312997   2.569   3.665   1.496  0.9793  1.0150  0.8001
 3306SOL    MW412998   2.507   3.710   1.454 -0.2901 -0.0896  0.4464
 3307SOL     OW12999   1.934   3.853   2.873 -0.1411  0.1907 -0.0733
 3307SOL    HW213000   1.844   3.823   2.857  0.4409 -1.2120 -0.9242
 3307SOL    HW313001   1.950   3.917   2.804 -0.0003 -0.6617 -0.8457
 3307SOL    MW413002   1.924   3.857   2.862  0.7857 -0.1131 -0.1525
 3308SOL     OW13003   1.424   4.875   3.711 -0.3145 -0.0753  0.3013
 3308SOL    HW213004   1.367   4.798   3.701 -1.1707  0.5871 -0.0506
 3308SOL    HW313005   1.452   4.871   3.803  0.4418 -1.3285  0.0411
 3308SOL    MW413006   1.420   4.864   3.722  0.0644 -0.0478  0.2391
 3309SOL     OW13007   1.915   6.104   6.144  0.3449 -0.2718  0.2589
 3309SOL    HW213008   1.932   6.169   6.212 -2.6189 -0.6749  1.5635
 3309SOL    HW313009   1.957   6.139   6.066 -0.9611  3.2106  0.9156
 3309SOL    MW413010   1.922   6.117   6.143 -0.0738 -0.3056  0.0566
 3310SOL     OW13011   5.967   2.403   3.291 -0.4660  0.0290 -1.1671
 3310SOL    HW213012   5.878   2.388   3.324  0.4395 -0.7796  1.0808
 3310SOL    HW313013   5.981   2.333   3.228 -1.0135 -0.5335 -0.6783
 3310SOL    MW413014   5.957   2.392   3.287 -0.2988  0.0472  0.1280
 3311SOL     OW13015   0.812   5.949   2.511  0.4244 -0.2563  0.2385
 3311SOL    HW213016   0.719   5.931   2.523  0.6737 -0.7512  1.7314
 3311SOL    HW313017   0.822   5.964   2.418 -1.1212 -0.3666  0.0243
 3311SOL    MW413018   0.801   5.948   2.501 -0.3671  0.2846  0.0795
 3312SOL     OW13019   4.781   1.121   4.208  0.1089  0.4172  0.5284
 3312SOL    HW213020   4.856   1.067   4.234  0.6002  1.7482  2.0782
 3312SOL    HW313021   4.819   1.191   4.156 -0.1228  0.7885  0.8523
 3312SOL    MW413022   4.796   1.123   4.205  0.6744  0.1852 -0.1831
 3313SOL     OW13023   4.878   1.010   1.612  0.0928  0.4006 -0.2876
 3313SOL    HW213024   4.914   1.057   1.537  0.1583 -1.3030 -1.3771
 3313SOL    HW313025   4.955   0.978   1.659  0.0702 -0.9321 -1.1056
 3313SOL    MW413026   4.893   1.012   1.609 -0.0873 -0.1524  0.6174
 3314SOL     OW13027   2.926   5.443   3.463 -0.0628 -0.0464 -0.3500
 3314SOL    HW213028   2.839   5.438   3.422 -1.2386 -0.6574  2.0727
 3314SOL    HW313029   2.929   5.530   3.503  0.4897  0.0060 -0.4970
 3314SOL    MW413030   2.915   5.454   3.463  0.2426 -0.4386  0.5671
 3315SOL     OW13031   0.212   3.968   3.779 -0.8935  0.4956 -0.2162
 3315SOL    HW213032   0.301   3.951   3.810 -0.7272 -0.6796 -1.2383
 3315SOL    HW313033   0.156   3.940   3.851 -0.4653 -0.2702 -0.1655
 3315SOL    MW413034   0.216   3.962   3.793  0.0861  0.4979 -0.0880
 3316SOL     OW13035   0.867   2.544   6.004 -0.6107  0.9732  0.2628
 3316SOL    HW213036   0.956   2.535   5.970 -0.2219 -0.7259  1.5996
 3316SOL    HW313037   0.823   2.600   5.940  1.1017  0.9787 -0.9986
 3316SOL    MW413038   0.873   2.550   5.991  0.3862 -0.4079 -0.0938
 3317SOL     OW13039   5.907   0.425   5.643 -0.6775 -0.3293  0.5633
 3317SOL    HW213040   5.941   0.336   5.630 -0.4500 -0.1076 -0.4073
 3317SOL    HW313041   5.824   0.426   5.596 -0.2148  0.2520 -0.2764
 3317SOL    MW413042   5.901   0.413   5.635 -0.1643  0.6813  0.2757
 3318SOL     OW13043   0.740   2.579   6.343  0.1463  0.0333 -0.1797
 3318SOL    HW213044   0.822   2.550   6.382 -0.3602 -2.7418 -0.9578
 3318SOL    HW313045   0.674   2.565   6.411  0.0237  0.2222 -0.2580
 3318SOL    MW413046   0.742   2.573   6.357  0.0978  0.2094 -0.9806
 3319SOL     OW13047   3.340   3.282   6.256 -0.0481 -0.5337  0.3814
 3319SOL    HW213048   3.434   3.302   6.261  0.0496 -0.6876 -0.6474
 3319SOL    HW313049   3.325   3.259   6.164 -1.6242  2.0683 -0.1081
 3319SOL    MW413050   3.351   3.282   6.245 -0.7201  0.3885 -0.5146
 3320SOL     OW13051   4.399   2.439   6.404 -0.2357  0.2294 -0.5046
 3320SOL    HW213052   4.351   2.500   6.459 -2.4573 -0.7942 -1.1723
 3320SOL    HW313053   4.421   2.366   6.462 -0.9401 -0.0175 -0.5408
 3320SOL    MW413054   4.396   2.437   6.419  0.8778  0.0167 -0.1457
 3321SOL     OW13055   1.194   2.055   6.028 -0.0513  0.0265  0.2678
 3321SOL    HW213056   1.150   2.135   6.055  1.0614  0.4409  0.9248
 3321SOL    HW313057   1.155   1.986   6.082 -1.6807 -0.0761 -0.9551
 3321SOL    MW413058   1.183   2.056   6.038  0.0307 -0.1504  0.7853
 3322SOL     OW13059   1.135   5.973   0.191 -0.4180 -0.1616 -0.4647
 3322SOL    HW213060   1.128   6.036   0.262 -1.0541 -0.7258 -0.0179
 3322SOL    HW313061   1.069   5.907   0.211  2.5680 -2.9288  1.0255
 3322SOL    MW413062   1.126   5.973   0.203 -0.3525 -0.2602  0.0752
 3323SOL     OW13063   0.989   0.304   6.166  0.1458 -0.1446  0.2582
 3323SOL    HW213064   1.080   0.275   6.174  0.9738  1.8488 -1.1053
 3323SOL    HW313065   0.992   0.398   6.182 -1.9526 -0.2583  1.6806
 3323SOL    MW413066   1.002   0.313   6.169 -0.0616  0.5634  0.2633
 3324SOL     OW13067   5.181   0.598   4.566 -0.4293 -0.3574  0.2055
 3324SOL    HW213068   5.173   0.576   4.473 -1.2322  0.2339  0.1311
 3324SOL    HW313069   5.226   0.522   4.604  0.6546 -0.2587 -0.8039
 3324SOL    MW413070   5.186   0.585   4.559 -0.2985 -0.5634 -0.2275
 3325SOL     OW13071   5.734   0.894   3.118  0.0364  0.2042 -0.0500
 3325SOL    HW213072   5.817   0.941   3.126  1.0689 -1.1357 -1.8295
 3325SOL    HW313073   5.752   0.808   3.155 -0.6978  0.0450 -0.0475
 3325SOL    MW413074   5.747   0.889   3.124 -0.1910  0.0475  0.0106
 3326SOL     OW13075   4.245   0.296   3.020 -0.2541 -0.3736 -0.2854
 3326SOL    HW213076   4.306   0.354   2.975  0.0658 -0.9189 -0.5586
 3326SOL    HW313077   4.159   0.330   2.996 -0.0701 -0.0334 -0.4758
 3326SOL    MW413078   4.242   0.309   3.011  0.1808  0.0237 -0.3109
 3327SOL     OW13079   0.392   4.500   5.622  0.0066  0.0344  0.6670
 3327SOL    HW213080   0.317   4.479   5.678 -0.4457  0.9094  0.3938
 3327SOL    HW313081   0.385   4.593   5.605  1.1794  0.1444  0.6516
 3327SOL    MW413082   0.381   4.509   5.627 -0.1882  0.0637  0.0464
 3328SOL     OW13083   0.195   0.500   4.326  0.1969  0.1905  0.2453
 3328SOL    HW213084   0.121   0.457   4.283 -0.7466  0.1854  1.7992
 3328SOL    HW313085   0.174   0.593   4.322 -0.2093  0.1525  1.1952
 3328SOL    MW413086   0.182   0.506   4.319  0.6502  0.2139 -0.4237
 3329SOL     OW13087   0.924   5.660   2.823 -0.2153 -0.2857 -0.2161
 3329SOL    HW213088   1.004   5.691   2.867  0.1822 -0.8517 -0.5270
 3329SOL    HW313089   0.874   5.740   2.807 -0.2131 -0.0292  0.9527
 3329SOL    MW413090   0.928   5.675   2.827  0.2785 -0.0201 -0.5472
 3330SOL     OW13091   0.379   0.728   1.116  0.8838 -0.5374 -0.2637
 3330SOL    HW213092   0.432   0.654   1.087  0.6947 -1.5257  1.7179
 3330SOL    HW313093   0.369   0.783   1.038  1.3552 -2.3891 -1.7010
 3330SOL    MW413094   0.385   0.725   1.102 -0.0590  0.2391  0.7908
 3331SOL     OW13095   5.049   4.961   1.781  0.7034  0.0425  0.0234
 3331SOL    HW213096   4.953   4.957   1.788  0.8016 -1.2207  0.9196
 3331SOL    HW313097   5.066   4.952   1.687 -0.0662  0.5944 -0.1770
 3331SOL    MW413098   5.038   4.959   1.769 -0.0769  0.0390 -0.0492
 3332SOL     OW13099   1.495   4.537   4.662 -0.4684  0.0931  0.6161
 3332SOL    HW213100   1.465   4.452   4.694 -1.2718 -0.2248 -0.9215
 3332SOL    HW313101   1.417   4.576   4.623  0.4541  0.5066 -0.8575
 3332SOL    MW413102   1.480   4.531   4.661 -0.2505 -0.1048 -0.1668
 3333SOL     OW13103   4.767   4.453   0.103  0.3506 -0.6910  0.1762
 3333SOL    HW213104   4.694   4.393   0.118  0.2519 -0.5844  0.1184
 3333SOL    HW313105   4.745   4.531   0.153 -0.9156  0.4384 -1.9806
 3333SOL    MW413106   4.755   4.455   0.111 -0.4501  0.0062  0.0041
 3334SOL     OW13107   1.061   3.780   2.413 -0.0602 -0.2338  0.6726
 3334SOL    HW213108   0.977   3.791   2.458  0.2266  0.9987  0.9480
 3334SOL    HW313109   1.115   3.852   2.446  0.5262  0.0338 -0.8197
 3334SOL    MW413110   1.057   3.791   2.424 -0.3692  0.1056  0.3329
 3335SOL     OW13111   1.287   1.434   4.169 -0.1884  0.3841  0.0675
 3335SOL    HW213112   1.337   1.365   4.125 -1.2332  0.7172 -1.7077
 3335SOL    HW313113   1.208   1.389   4.199 -0.0855  0.4577  0.4597
 3335SOL    MW413114   1.283   1.419   4.167 -0.3940 -0.4925 -0.1617
 3336SOL     OW13115   4.311   4.613   6.366 -0.2250 -0.6384  0.3631
 3336SOL    HW213116   4.380   4.656   6.314  2.0644 -2.8216  1.4056
 3336SOL    HW313117   4.259   4.565   6.302  1.1806 -1.4712 -0.2059
 3336SOL    MW413118   4.313   4.613   6.351 -0.5824 -0.1154 -0.1280
 3337SOL     OW13119   3.282   6.280   3.453 -0.1378  0.4319 -0.3220
 3337SOL    HW213120   3.316   6.263   3.541 -0.3760  2.6400  0.2571
 3337SOL    HW313121   3.261   6.374   3.453 -0.2442  0.4641 -2.7101
 3337SOL    MW413122   3.283   6.290   3.464 -0.3961 -0.4493 -1.0750
 3338SOL     OW13123   0.915   6.039   1.525  0.5710 -0.3538  0.0811
 3338SOL    HW213124   0.996   6.027   1.573  0.3211  0.8013  0.8357
 3338SOL    HW313125   0.847   6.002   1.583  0.4423 -0.2933 -0.0299
 3338SOL    MW413126   0.916   6.032   1.539  0.0610  0.7356 -0.6442
 3339SOL     OW13127   6.396   0.100   3.226  0.2262 -0.1541 -0.3675
 3339SOL    HW213128   6.442   0.142   3.154 -1.0492  0.3545 -0.9060
 3339SOL    HW313129   6.401   0.163   3.298 -1.8721  1.1156 -1.2358
 3339SOL    MW413130   6.403   0.114   3.226 -0.2088  0.2193  0.2772
 3340SOL     OW13131   4.909   5.905   4.233  0.4244  0.1458 -0.2702
 3340SOL    HW213132   4.960   5.959   4.172 -0.1253  0.4537 -0.4712
 3340SOL    HW313133   4.876   5.833   4.179  1.9031 -0.9082  0.1968
 3340SOL    MW413134   4.911   5.903   4.218  0.3778  0.5121 -0.1482
 3341SOL     OW13135   4.885   2.515   5.940 -0.0003 -0.0727 -0.3491
 3341SOL    HW213136   4.924   2.438   5.898  0.1609 -0.3649  0.3210
 3341SOL    HW313137   4.809   2.535   5.886 -0.5414 -1.2358 -0.0587
 3341SOL    MW413138   4.880   2.507   5.927 -0.0975 -0.2781 -0.5080
 3342SOL     OW13139   4.214   5.742   4.690  0.4066  0.0327  0.1024
 3342SOL    HW213140   4.227   5.829   4.653  0.6353 -0.4165 -0.9281
 3342SOL    HW313141   4.168   5.757   4.772 -0.7795  1.0411 -0.7078
 3342SOL    MW413142   4.210   5.755   4.696  0.0178  0.3226 -0.2946
 3343SOL     OW13143   1.644   4.019   3.372  0.5064 -0.1576 -0.2501
 3343SOL    HW213144   1.599   4.101   3.351  0.4864 -0.2353 -0.5108
 3343SOL    HW313145   1.709   4.044   3.438 -1.2448 -0.3829  1.6859
 3343SOL    MW413146   1.647   4.033   3.378 -0.8927  0.1932  0.2515
 3344SOL     OW13147   3.162   1.577   2.521 -0.8200  0.2805 -0.6050
 3344SOL    HW213148   3.233   1.534   2.474 -0.3195  0.0555  0.3446
 3344SOL    HW313149   3.203   1.615   2.599 -1.5383  1.1168 -0.6078
 3344SOL    MW413150   3.176   1.577   2.525 -0.3055  0.5435  0.2221
 3345SOL     OW13151   1.402   4.605   2.231 -0.4182 -0.4170  0.2942
 3345SOL    HW213152   1.406   4.513   2.207 -1.2248 -0.5185  0.5327
 3345SOL    HW313153   1.337   4.643   2.172  1.0683  0.3661 -0.9175
 3345SOL    MW413154   1.394   4.598   2.220  0.3117 -0.2531  0.2449
 3346SOL     OW13155   5.564   4.311   2.536 -0.0845  0.1631  0.3615
 3346SOL    HW213156   5.631   4.267   2.586 -0.3776  0.1754  0.7723
 3346SOL    HW313157   5.524   4.373   2.598 -1.1494 -0.5547  0.4172
 3346SOL    MW413158   5.567   4.314   2.551 -0.0074 -0.5280 -0.7521
 3347SOL     OW13159   1.542   4.875   3.475  0.4873  0.2823 -0.1274
 3347SOL    HW213160   1.575   4.786   3.463 -3.4390 -1.2675 -1.2787
 3347SOL    HW313161   1.493   4.871   3.558  0.6727  1.5312  0.0587
 3347SOL    MW413162   1.540   4.863   3.485  0.9067  0.2775  0.0830
 3348SOL     OW13163   1.984   0.671   5.190 -0.3864  0.0847  0.3608
 3348SOL    HW213164   1.976   0.737   5.121 -0.5787 -0.8060 -0.4922
 3348SOL    HW313165   2.032   0.599   5.149 -2.6893 -1.5477  0.3051
 3348SOL    MW413166   1.989   0.670   5.176  0.0352  0.1293 -0.6552
 3349SOL     OW13167   4.296   4.570   5.749 -0.4666 -0.5779  0.6044
 3349SOL    HW213168   4.282   4.650   5.699  2.7036 -0.7273 -0.7051
 3349SOL    HW313169   4.324   4.601   5.835 -0.1739 -0.2971  0.4080
 3349SOL    MW413170   4.298   4.585   5.754  0.0196 -0.1424  0.2120
 3350SOL     OW13171   3.181   1.569   0.649  0.2732  0.0248  0.0259
 3350SOL    HW213172   3.185   1.592   0.556  1.5198  0.9456  0.2776
 3350SOL    HW313173   3.182   1.653   0.694 -2.3019 -0.3028  0.8795
 3350SOL    MW413174   3.182   1.583   0.643 -0.5929  0.4917  0.1674
 3351SOL     OW13175   6.307   3.141   6.051  0.0419  0.1505 -0.3394
 3351SOL    HW213176   6.372   3.201   6.014  0.4074  0.4731  0.7822
 3351SOL    HW313177   6.301   3.166   6.143 -0.7706 -0.6895 -0.1501
 3351SOL    MW413178   6.315   3.152   6.058 -0.3391 -0.2118  0.7299
 3352SOL     OW13179   3.630   4.763   6.053  0.0774 -0.0870 -0.1459
 3352SOL    HW213180   3.587   4.748   5.968  0.4186  0.3739 -0.4014
 3352SOL    HW313181   3.719   4.730   6.040 -0.0923 -0.7427  0.2839
 3352SOL    MW413182   3.636   4.756   6.040  0.3051  0.3561  1.0188
 3353SOL     OW13183   1.859   1.128   0.325 -0.0177  0.1979 -0.3773
 3353SOL    HW213184   1.937   1.128   0.269 -0.6784  1.6694 -1.3706
 3353SOL    HW313185   1.894   1.140   0.413  1.0091 -1.6133 -0.4953
 3353SOL    MW413186   1.874   1.130   0.329  0.0102  0.2115 -0.4380
 3354SOL     OW13187   1.079   2.100   4.034 -0.2015  0.3660  0.7278
 3354SOL    HW213188   1.071   2.021   4.088 -1.0324  0.4888  0.7896
 3354SOL    HW313189   1.018   2.087   3.962 -0.1559  0.8401  0.5965
 3354SOL    MW413190   1.070   2.088   4.032 -0.4853 -0.1969  0.0986
 3355SOL     OW13191   4.370   2.936   0.693  0.4263  0.4412 -0.4247
 3355SOL    HW213192   4.365   2.941   0.597  1.4645  1.4754 -0.4596
 3355SOL    HW313193   4.290   2.977   0.723 -0.3648 -0.7510 -0.8342
 3355SOL    MW413194   4.359   2.942   0.684 -0.4800 -0.7487 -0.3573
 3356SOL     OW13195   0.655   4.242   2.142 -0.1567  0.5326 -0.3693
 3356SOL    HW213196   0.681   4.292   2.064 -0.2603 -0.6572 -1.1841
 3356SOL    HW313197   0.603   4.170   2.109  1.7819 -1.4052  0.5414
 3356SOL    MW413198   0.652   4.239   2.128 -0.1739 -0.0432  0.2293
 3357SOL     OW13199   1.639   3.114   0.764 -0.2268 -0.0589 -0.0675
 3357SOL    HW213200   1.647   3.021   0.743  1.3712  0.1109 -0.3164
 3357SOL    HW313201   1.614   3.115   0.857 -0.8808 -0.7329 -0.2272
 3357SOL    MW413202   1.637   3.101   0.774  0.2367 -0.2903  0.0256
 3358SOL     OW13203   3.913   3.476   1.555  0.5506  0.1050  0.2088
 3358SOL    HW213204   3.850   3.499   1.624  1.7138  2.5434  0.5565
 3358SOL    HW313205   3.996   3.467   1.602  1.2472  1.2249 -0.7707
 3358SOL    MW413206   3.916   3.478   1.571 -0.3444 -0.3466 -0.0596
 3359SOL     OW13207   2.681   5.201   2.552  0.3532  0.1849 -0.0982
 3359SOL    HW213208   2.689   5.134   2.620  0.9632 -0.2170 -0.5561
 3359SOL    HW313209   2.657   5.152   2.473 -1.4592  0.7681  0.0442
 3359SOL    MW413210   2.679   5.185   2.550 -0.0095 -0.4426 -0.4813
 3360SOL     OW13211   5.192   1.683   3.965 -0.6353  0.0313  0.3760
 3360SOL    HW213212   5.223   1.717   3.881 -1.9812  1.0921  0.2680
 3360SOL    HW313213   5.268   1.688   4.022 -0.1542  0.9777 -0.3211
 3360SOL    MW413214   5.206   1.689   3.962  0.2747 -0.4776 -0.0490
 3361SOL     OW13215   3.986   6.400   4.609  0.5501  0.2113 -0.1283
 3361SOL    HW213216   3.892   6.419   4.602  0.7922  1.2031 -0.6993
 3361SOL    HW313217   4.028   6.485   4.608  1.6358 -0.2762 -2.4426
 3361SOL    MW413218   3.979   6.414   4.608  0.3394 -0.2603 -0.3095
 3362SOL     OW13219   4.089   5.114   1.541 -0.4674 -0.2310 -0.7280
 3362SOL    HW213220   4.063   5.187   1.485 -1.4824 -0.2193 -0.2618
 3362SOL    HW313221   4.063   5.141   1.629  0.7715 -0.4067 -0.2974
 3362SOL    MW413222   4.082   5.127   1.545  0.2165  0.3617  0.3544
 3363SOL     OW13223   3.473   3.582   3.657  0.3207  0.1898  0.2331
 3363SOL    HW213224   3.380   3.596   3.674  0.5991  2.4185  0.2274
 3363SOL    HW313225   3.514   3.666   3.679  2.2210 -0.4999 -0.5071
 3363SOL    MW413226   3.466   3.595   3.662 -0.4435 -0.4061  0.5440
 3364SOL     OW13227   5.377   2.215   6.230 -0.3293  0.3321 -0.0463
 3364SOL    HW213228   5.347   2.286   6.287  1.2232  0.2770  0.8688
 3364SOL    HW313229   5.453   2.251   6.185  1.5811 -1.2352  1.7164
 3364SOL    MW413230   5.383   2.229   6.232  0.1827  0.3475 -0.1160
 3365SOL     OW13231   5.616   5.144   1.908  0.5353  0.2016 -0.1585
 3365SOL    HW213232   5.691   5.127   1.851 -0.0388 -0.8780 -0.6088
 3365SOL    HW313233   5.547   5.087   1.876 -0.2825  0.6875  0.6753
 3365SOL    MW413234   5.617   5.135   1.896  0.0634  0.2430 -0.0092
 3366SOL     OW13235   1.667   0.712   6.137 -0.0378  0.1089 -0.2074
 3366SOL    HW213236   1.751   0.732   6.094  0.3847  1.7532  1.2810
 3366SOL    HW313237   1.656   0.781   6.202 -2.3524 -0.3378 -0.0404
 3366SOL    MW413238   1.677   0.724   6.140  0.1332  0.0257 -0.3181
 3367SOL     OW13239   5.179   0.243   5.319  0.0609 -0.0237  0.1525
 3367SOL    HW213240   5.176   0.252   5.414  0.6138 -2.0642  0.4086
 3367SOL    HW313241   5.269   0.265   5.295  0.0883 -0.0953  0.1882
 3367SOL    MW413242   5.190   0.247   5.329 -0.0292  0.1137  0.3900
 3368SOL     OW13243   1.865   0.377   3.929 -0.3446  0.8287 -0.7162
 3368SOL    HW213244   1.949   0.338   3.951 -1.1850 -0.8729 -0.3966
 3368SOL    HW313245   1.822   0.312   3.874 -2.1326  0.9199  0.5077
 3368SOL    MW413246   1.870   0.363   3.925  0.4818 -0.6343 -0.0386
 3369SOL     OW13247   2.371   4.599   1.204 -0.2879 -0.3451  0.4612
 3369SOL    HW213248   2.374   4.659   1.130 -0.7561  0.4523  1.0743
 3369SOL    HW313249   2.442   4.628   1.261 -0.1863 -0.7059  0.5248
 3369SOL    MW413250   2.381   4.610   1.202  0.0658  0.5625  0.1327
 3370SOL     OW13251   1.506   1.091   3.430  0.5746 -0.4697 -0.2268
 3370SOL    HW213252   1.497   1.021   3.366 -0.8871 -0.7213  0.2146
 3370SOL    HW313253   1.576   1.146   3.396  0.4302 -1.0865 -1.5806
 3370SOL    MW413254   1.514   1.089   3.417 -0.0278 -0.3153  0.0825
 3371SOL     OW13255   2.662   0.094   6.005  0.3345  0.2208  0.2839
 3371SOL    HW213256   2.754   0.086   6.031  0.5579  1.9688  0.1538
 3371SOL    HW313257   2.658   0.177   5.959 -1.0243 -0.5705 -1.1059
 3371SOL    MW413258   2.674   0.104   6.002  0.1537 -0.4374  0.4291
 3372SOL     OW13259   0.668   0.197   1.567 -0.1607 -0.2944 -0.8455
 3372SOL    HW213260   0.625   0.116   1.540 -0.8025 -0.0580 -0.5387
 3372SOL    HW313261   0.760   0.183   1.544 -0.0129 -1.6505  0.3942
 3372SOL    MW413262   0.675   0.184   1.561  0.1953  0.3340  0.4592
 3373SOL     OW13263   2.235   1.457   0.677  0.0965  0.0479 -0.4222
 3373SOL    HW213264   2.298   1.385   0.676 -0.3444 -0.3727  0.6646
 3373SOL    HW313265   2.253   1.506   0.597  0.2019 -1.4221 -1.3215
 3373SOL    MW413266   2.246   1.454   0.666  0.4468 -0.5071 -0.4400
 3374SOL     OW13267   3.821   5.151   2.510  0.0033  0.4375 -0.3443
 3374SOL    HW213268   3.887   5.083   2.522  0.2277  0.6147 -0.5560
 3374SOL    HW313269   3.756   5.111   2.453 -0.7582 -0.1961  0.9350
 3374SOL    MW413270   3.821   5.137   2.504  0.1463  0.2996 -0.1394
 3375SOL     OW13271   4.732   5.585   3.360  0.4916 -0.0884 -0.2713
 3375SOL    HW213272   4.688   5.655   3.409  0.5800  0.1920 -0.5939
 3375SOL    HW313273   4.777   5.629   3.289  0.4237 -0.4903 -0.5702
 3375SOL    MW413274   4.732   5.600   3.357  0.2704  0.2627  0.1005
 3376SOL     OW13275   1.962   5.913   2.604 -0.2007 -0.0874  0.3048
 3376SOL    HW213276   1.878   5.900   2.561 -0.1462 -1.0674  0.4527
 3376SOL    HW313277   1.975   6.008   2.605 -2.2441  0.2611  2.0924
 3376SOL    MW413278   1.953   5.924   2.598 -0.5405 -0.0449 -0.2995
 3377SOL     OW13279   4.447   6.330   4.162 -0.0653  0.5676 -0.5198
 3377SOL    HW213280   4.405   6.253   4.124 -0.0681  1.1480 -1.7399
 3377SOL    HW313281   4.529   6.297   4.198 -0.9837 -0.3606  0.8189
 3377SOL    MW413282   4.452   6.316   4.162 -0.1597 -0.4380 -0.4811
 3378SOL     OW13283   2.144   4.268   1.484 -1.0799  0.4045 -0.0615
 3378SOL    HW213284   2.166   4.176   1.469  0.5608  0.7718 -0.0873
 3378SOL    HW313285   2.144   4.307   1.397  1.8977  1.1548  0.1751
 3378SOL    MW413286   2.147   4.261   1.471 -0.1988  0.1233  0.2075
 3379SOL     OW13287   0.412   0.024   0.910 -0.9054 -0.1998  0.0721
 3379SOL    HW213288   0.487   0.052   0.858 -0.4910 -1.0732  0.1910
 3379SOL    HW313289   0.337   0.033   0.850 -0.7849  1.0374  0.0723
 3379SOL    MW413290   0.412   0.029   0.895  0.1952 -0.1688 -0.1228
 3380SOL     OW13291   5.133   0.610   0.656 -0.4856  0.0255  0.2181
 3380SOL    HW213292   5.105   0.685   0.709 -0.3161  1.5198 -1.7196
 3380SOL    HW313293   5.052   0.581   0.613 -0.2774  0.0297 -0.1725
 3380SOL    MW413294   5.118   0.616   0.658  0.0575  0.3735 -0.5332
 3381SOL     OW13295   4.662   3.811   3.037 -0.1335  0.0218  0.0366
 3381SOL    HW213296   4.633   3.853   3.118 -0.2958  1.6155 -0.8014
 3381SOL    HW313297   4.584   3.765   3.005  0.3232 -1.8518  1.4853
 3381SOL    MW413298   4.648   3.811   3.043 -0.5705 -0.0574 -0.2702
 3382SOL     OW13299   3.164   5.516   0.874  0.9123 -0.7534 -0.1670
 3382SOL    HW213300   3.097   5.583   0.888  1.0829 -0.8882  1.5020
 3382SOL    HW313301   3.133   5.440   0.924  1.8564 -1.1184 -0.1157
 3382SOL    MW413302   3.151   5.515   0.883  0.9102 -0.0977  0.0705
 3383SOL     OW13303   6.154   1.307   3.594 -0.2584  0.1737  0.1045
 3383SOL    HW213304   6.247   1.321   3.576 -0.6058  0.7612 -1.3482
 3383SOL    HW313305   6.149   1.301   3.690  1.3991 -0.9127  0.1664
 3383SOL    MW413306   6.166   1.308   3.604 -0.2184  0.3926  0.1407
 3384SOL     OW13307   0.239   4.867   0.354  0.3099  0.0974  0.4923
 3384SOL    HW213308   0.270   4.879   0.444  1.3689  2.3128 -0.1073
 3384SOL    HW313309   0.246   4.773   0.339 -0.6504 -0.4660  2.9511
 3384SOL    MW413310   0.244   4.856   0.364 -0.2445 -0.5487  0.4715
 3385SOL     OW13311   6.237   1.954   1.807  0.5510  0.0035  0.0203
 3385SOL    HW213312   6.327   1.930   1.830  0.8636  0.6860 -0.4579
 3385SOL    HW313313   6.245   2.037   1.761 -0.1850 -0.6610 -1.3592
 3385SOL    MW413314   6.250   1.962   1.804  0.1991  0.6001  0.4165
 3386SOL     OW13315   6.192   5.981   3.695  0.2089 -0.1317  0.3780
 3386SOL    HW213316   6.157   6.003   3.782 -0.6523 -1.7535  0.4661
 3386SOL    HW313317   6.115   5.978   3.638  0.5422 -0.8448 -0.0485
 3386SOL    MW413318   6.177   5.984   3.699  0.3177  0.1722  0.6936
 3387SOL     OW13319   2.321   5.589   2.365  0.6570  0.3964  0.6729
 3387SOL    HW213320   2.240   5.640   2.375 -0.5662 -1.4963  0.8102
 3387SOL    HW313321   2.333   5.582   2.271 -1.2731 -2.1313  0.5246
 3387SOL    MW413322   2.312   5.595   2.354 -0.3820  0.0824  0.3289
 3388SOL     OW13323   2.528   1.849   3.888  0.3852 -0.2929  0.3591
 3388SOL    HW213324   2.484   1.857   3.973  2.6618 -0.8938  1.6755
 3388SOL    HW313325   2.612   1.892   3.901  0.2583  0.8440 -2.0715
 3388SOL    MW413326   2.533   1.856   3.901 -0.1944  0.2454 -0.0424
 3389SOL     OW13327   1.784   5.246   5.095 -0.4252 -0.3899 -0.0196
 3389SOL    HW213328   1.768   5.187   5.168  0.5815 -0.2256  0.3548
 3389SOL    HW313329   1.700   5.289   5.079 -0.7229 -0.6327  0.8615
 3389SOL    MW413330   1.771   5.244   5.103  0.7715  0.1357 -0.6711
 3390SOL     OW13331   1.993   4.777   1.632 -0.4170 -0.1066  0.3215
 3390SOL    HW213332   1.902   4.775   1.662 -1.0125 -3.0324 -1.3288
 3390SOL    HW313333   1.988   4.804   1.541  0.2092 -1.1954 -0.0589
 3390SOL    MW413334   1.980   4.780   1.624 -0.2705 -0.5333 -0.3125
 3391SOL     OW13335   4.888   3.544   0.733  0.1830  0.4759 -0.1268
 3391SOL    HW213336   4.874   3.531   0.827  1.4299 -2.1814 -0.2143
 3391SOL    HW313337   4.982   3.560   0.724  0.4697 -1.3946 -1.0171
 3391SOL    MW413338   4.898   3.544   0.744  0.0752  0.5306  0.0334
 3392SOL     OW13339   5.836   4.075   4.191 -0.0731  0.6080 -0.2520
 3392SOL    HW213340   5.886   4.014   4.246  1.4882  0.2934 -1.9212
 3392SOL    HW313341   5.746   4.069   4.224  0.3209 -1.4906  0.5935
 3392SOL    MW413342   5.831   4.066   4.203 -0.0575  0.7243  0.0750
 3393SOL     OW13343   2.668   5.569   3.941 -0.5468  0.2743  0.4913
 3393SOL    HW213344   2.688   5.535   4.029  1.2752  0.1324  0.0696
 3393SOL    HW313345   2.693   5.497   3.883  1.2096  1.4595 -0.2914
 3393SOL    MW413346   2.674   5.555   3.945  0.3103  0.6355 -0.4775
 3394SOL     OW13347   3.284   3.783   1.276  0.4964 -0.2240 -0.3397
 3394SOL    HW213348   3.351   3.723   1.243 -0.3436 -1.6663  0.4672
 3394SOL    HW313349   3.268   3.753   1.366  0.8384  1.9376  0.4957
 3394SOL    MW413350   3.291   3.771   1.284 -0.0113  1.1038  1.0543
 3395SOL     OW13351   4.785   4.934   0.093 -0.3252 -0.2762 -0.0275
 3395SOL    HW213352   4.779   5.024   0.060 -0.8212 -0.2138  0.2095
 3395SOL    HW313353   4.768   4.880   0.016  2.3328 -0.2649 -0.7169
 3395SOL    MW413354   4.782   4.939   0.079 -0.4538 -0.6591 -0.0697
 3396SOL     OW13355   5.609   3.081   2.751  0.4720 -0.0252 -0.1307
 3396SOL    HW213356   5.684   3.051   2.698 -0.0288  0.1170 -0.9414
 3396SOL    HW313357   5.610   3.176   2.740 -0.4469 -0.1039 -1.0140
 3396SOL    MW413358   5.619   3.089   2.742  0.6963 -0.7222 -0.1135
 3397SOL     OW13359   1.923   3.378   2.682  0.2970 -0.3072  0.8334
 3397SOL    HW213360   1.856   3.435   2.719  1.7257  2.4306 -0.5085
 3397SOL    HW313361   2.005   3.425   2.696  1.5521 -1.9335 -0.5759
 3397SOL    MW413362   1.925   3.391   2.689  0.6071  0.2829 -0.0544
 3398SOL     OW13363   2.335   4.076   5.820 -0.0174  0.1796  0.0060
 3398SOL    HW213364   2.423   4.109   5.800  0.8110 -0.6703  2.0515
 3398SOL    HW313365   2.330   4.075   5.915 -1.1987 -2.4294  0.0005
 3398SOL    MW413366   2.346   4.080   5.830  0.0780 -0.6604 -0.0450
 3399SOL     OW13367   2.854   3.373   5.649 -0.3339 -0.2367  0.3093
 3399SOL    HW213368   2.905   3.357   5.569 -3.4523 -1.4966 -1.6307
 3399SOL    HW313369   2.873   3.299   5.705  0.7143 -0.1538  0.0780
 3399SOL    MW413370   2.863   3.361   5.646 -0.1473 -0.4566  0.1608
 3400SOL     OW13371   0.201   2.294   0.310 -0.5654 -0.8376 -0.4731
 3400SOL    HW213372   0.110   2.319   0.294  0.2134  1.0676 -2.2647
 3400SOL    HW313373   0.226   2.342   0.389 -0.3705  0.6817 -1.4413
 3400SOL    MW413374   0.192   2.303   0.318 -0.6005  0.2893 -0.0316
 3401SOL     OW13375   2.807   4.557   4.306  0.2160 -0.8150 -0.5283
 3401SOL    HW213376   2.795   4.613   4.383  0.7221  1.3111 -1.9154
 3401SOL    HW313377   2.718   4.538   4.276  0.0046  0.6580 -0.9510
 3401SOL    MW413378   2.793   4.562   4.312 -0.3921 -0.0687 -0.0438
 3402SOL     OW13379   4.940   5.972   2.308  0.5107  0.0051 -0.3297
 3402SOL    HW213380   4.935   5.896   2.366  1.0623  1.3792  1.6060
 3402SOL    HW313381   4.855   5.973   2.263  0.5639 -1.8316 -0.5316
 3402SOL    MW413382   4.928   5.962   2.310  0.1571  0.4773  0.1641
 3403SOL     OW13383   2.087   4.927   2.890 -0.0934  0.3431 -0.4178
 3403SOL    HW213384   2.050   4.842   2.865 -0.6846  0.7515 -0.9592
 3403SOL    HW313385   2.011   4.982   2.909  0.3006  0.0888  2.2688
 3403SOL    MW413386   2.072   4.923   2.889  0.8480  0.0840 -0.5512
 3404SOL     OW13387   4.308   2.864   5.369 -0.3416 -0.1589  0.3932
 3404SOL    HW213388   4.353   2.941   5.404 -1.6672  1.3710 -1.0954
 3404SOL    HW313389   4.353   2.790   5.409  2.1878  1.3088  0.4671
 3404SOL    MW413390   4.320   2.865   5.379 -0.3689 -0.3165 -0.0319
 3405SOL     OW13391   5.554   2.573   0.787  0.0951  0.2621  0.0413
 3405SOL    HW213392   5.592   2.504   0.841  0.7176 -0.6478 -1.4769
 3405SOL    HW313393   5.498   2.527   0.725 -0.0426  1.1861 -0.5462
 3405SOL    MW413394   5.552   2.558   0.786  0.0356 -0.3028 -0.0678
 3406SOL     OW13395   4.344   0.773   0.475  0.1560 -0.4423  0.1749
 3406SOL    HW213396   4.351   0.685   0.513 -2.8226 -1.6292 -1.6864
 3406SOL    HW313397   4.400   0.770   0.397 -0.3356 -0.8760 -0.1651
 3406SOL    MW413398   4.352   0.761   0.470  0.3507  0.4194 -0.3456
 3407SOL     OW13399   0.148   4.694   2.460 -0.3554  0.0225 -0.2765
 3407SOL    HW213400   0.094   4.632   2.412  0.0767 -0.6567  0.0990
 3407SOL    HW313401   0.085   4.754   2.500 -0.8294 -0.6712  0.0401
 3407SOL    MW413402   0.133   4.694   2.459 -0.3948 -0.2798  0.7116
 3408SOL     OW13403   2.024   1.941   1.118 -0.2878 -0.2994 -0.5821
 3408SOL    HW213404   2.070   1.974   1.195  0.1200  1.5071 -1.5501
 3408SOL    HW313405   2.087   1.882   1.076 -0.0126 -0.2339 -0.2690
 3408SOL    MW413406   2.038   1.938   1.123 -0.4234  0.8930 -0.4622
 3409SOL     OW13407   5.024   2.447   6.388  1.4576 -0.7365 -0.0142
 3409SOL    HW213408   4.970   2.482   6.459 -0.2819  3.5806 -3.0255
 3409SOL    HW313409   4.965   2.389   6.339  1.1295 -0.0351 -0.4660
 3409SOL    MW413410   5.009   2.444   6.391 -0.0308  0.1935 -0.3023
 3410SOL     OW13411   3.565   4.776   2.372  0.4776 -0.0497 -0.1009
 3410SOL    HW213412   3.514   4.742   2.299 -1.1043  0.3363  0.7724
 3410SOL    HW313413   3.655   4.748   2.354 -0.2714 -2.1447 -0.9055
 3410SOL    MW413414   3.570   4.768   2.360  0.0719 -0.6375  0.7680
 3411SOL     OW13415   1.893   3.969   4.699  0.4807 -0.1438 -0.0505
 3411SOL    HW213416   1.895   3.897   4.762 -0.2143  1.6592  2.2106
 3411SOL    HW313417   1.973   4.018   4.716 -1.4857  2.5940  2.4590
 3411SOL    MW413418   1.904   3.966   4.710 -0.0478 -0.1569  0.3722
 3412SOL     OW13419   0.359   5.167   5.259 -0.1453 -0.0453 -0.2557
 3412SOL    HW213420   0.304   5.207   5.325  0.6035  0.0167  0.3457
 3412SOL    HW313421   0.355   5.228   5.184 -0.5078  0.1950 -0.0413
 3412SOL    MW413422   0.351   5.181   5.258  0.2221  0.1431 -0.1491
 3413SOL     OW13423   0.426   3.385   6.326 -0.2558  0.4285 -0.3279
 3413SOL    HW213424   0.413   3.291   6.336 -0.2208  0.2549 -1.7680
 3413SOL    HW313425   0.344   3.424   6.359 -0.9351 -0.2015 -1.2104
 3413SOL    MW413426   0.413   3.378   6.332 -0.3237  0.1171  0.0798
 3414SOL     OW13427   1.911   4.145   0.861  0.7616  0.2136 -0.4303
 3414SOL    HW213428   2.002   4.130   0.836  1.3968  0.1231  1.7301
 3414SOL    HW313429   1.910   4.236   0.892  0.0117  0.3533 -0.8480
 3414SOL    MW413430   1.923   4.155   0.862  0.0476  0.6106  0.2470
 3415SOL     OW13431   3.981   4.007   5.470 -0.6705 -0.5349  0.4771
 3415SOL    HW213432   4.061   3.956   5.460  2.1593  3.1667  1.7314
 3415SOL    HW313433   3.942   4.007   5.383  2.3115 -0.2363 -1.0011
 3415SOL    MW413434   3.987   4.000   5.457  0.1619 -0.2967  0.4248
 3416SOL     OW13435   4.011   4.286   3.312  0.1359 -0.0212 -0.0225
 3416SOL    HW213436   4.083   4.232   3.281  0.2242 -0.3632  0.7525
 3416SOL    HW313437   3.994   4.255   3.401 -1.9937 -1.0338 -0.7140
 3416SOL    MW413438   4.018   4.275   3.319  0.5671 -0.3162 -0.0887
 3417SOL     OW13439   0.601   0.742   0.237  0.4974  0.0903  0.3050
 3417SOL    HW213440   0.547   0.745   0.315  1.2015  2.1667  0.7646
 3417SOL    HW313441   0.551   0.791   0.171  0.4633 -0.6111 -0.2131
 3417SOL    MW413442   0.587   0.749   0.238 -0.4436 -0.1806  0.4450
 3418SOL     OW13443   3.263   1.156   5.770 -0.6924 -0.3634 -0.1335
 3418SOL    HW213444   3.307   1.091   5.825 -1.9617 -1.4303 -0.3539
 3418SOL    HW313445   3.178   1.170   5.811  0.1382  2.4370  0.8542
 3418SOL    MW413446   3.258   1.149   5.783  0.7249 -0.2480  0.0606
 3419SOL     OW13447   0.928   4.396   2.847 -0.0852  0.1691 -0.0493
 3419SOL    HW213448   0.876   4.475   2.860 -0.2112  0.2368 -0.9208
 3419SOL    HW313449   0.875   4.326   2.885 -0.8791  0.2218 -1.0306
 3419SOL    MW413450   0.914   4.397   2.854 -0.3549  0.5119  0.0709
 3420SOL     OW13451   6.017   3.509   0.255 -0.1562 -0.3347  0.1336
 3420SOL    HW213452   6.054   3.594   0.231  0.9077 -0.0866  2.3453
 3420SOL    HW313453   6.008   3.514   0.351  0.1304 -2.7582  0.3410
 3420SOL    MW413454   6.021   3.521   0.265  0.0507  0.3449  0.6714
 3421SOL     OW13455   2.474   0.721   3.989 -0.5162  0.4508  0.3802
 3421SOL    HW213456   2.464   0.691   3.899 -2.2382  1.3823  0.2175
 3421SOL    HW313457   2.492   0.815   3.981  0.0854  0.3951  0.9971
 3421SOL    MW413458   2.475   0.729   3.976  0.4484 -0.7726  0.1158
 3422SOL     OW13459   1.931   0.131   2.134 -0.0433  0.0480 -0.5156
 3422SOL    HW213460   1.900   0.212   2.095 -1.1441 -0.6416 -1.1029
 3422SOL    HW313461   2.020   0.121   2.100 -0.4450  0.2296 -1.6729
 3422SOL    MW413462   1.939   0.140   2.125  0.6587  0.5782 -0.0522
 3423SOL     OW13463   5.842   0.686   4.412 -0.5667 -0.0684 -0.3593
 3423SOL    HW213464   5.905   0.615   4.426  0.7158  0.4342 -2.8908
 3423SOL    HW313465   5.764   0.642   4.376  0.4261 -0.2364 -2.4554
 3423SOL    MW413466   5.840   0.670   4.409  0.0626 -0.3179  0.1904
 3424SOL     OW13467   4.291   4.511   4.462  0.9755  0.1319 -0.1479
 3424SOL    HW213468   4.350   4.577   4.425  1.1039  0.0576 -0.0775
 3424SOL    HW313469   4.349   4.441   4.492  0.8687  0.1784  0.1680
 3424SOL    MW413470   4.307   4.510   4.461  0.5569 -0.5629  0.0296
 3425SOL     OW13471   4.181   3.038   1.992  0.1338  0.2800 -0.0644
 3425SOL    HW213472   4.087   3.030   2.008  0.4884 -1.4825  1.4462
 3425SOL    HW313473   4.218   3.065   2.076  1.1963 -1.3466  0.0544
 3425SOL    MW413474   4.174   3.040   2.005 -0.1992 -0.8068  0.4395
 3426SOL     OW13475   1.148   1.122   2.168  0.0121 -0.2385  0.7224
 3426SOL    HW213476   1.137   1.215   2.187 -0.8537 -0.0829 -0.4620
 3426SOL    HW313477   1.088   1.104   2.096  0.5050 -1.6193  0.6155
 3426SOL    MW413478   1.138   1.132   2.161 -0.8071 -0.9142 -0.1118
 3427SOL     OW13479   4.465   1.910   5.343  0.1581 -0.3568 -0.4768
 3427SOL    HW213480   4.542   1.862   5.313  1.0482  1.8116 -1.9718
 3427SOL    HW313481   4.422   1.940   5.263 -1.7004 -0.6487  0.3560
 3427SOL    MW413482   4.470   1.908   5.328  0.5088 -0.4327 -0.0670
 3428SOL     OW13483   4.189   0.976   4.387 -0.4714 -0.3824 -0.6847
 3428SOL    HW213484   4.226   0.897   4.426  0.6705  1.3195  2.0243
 3428SOL    HW313485   4.116   0.999   4.445 -2.0902 -0.4807 -2.5816
 3428SOL    MW413486   4.184   0.969   4.400  0.2173  0.2025 -0.2178
 3429SOL     OW13487   2.050   5.285   4.311 -0.0118 -0.2622  0.4861
 3429SOL    HW213488   2.070   5.367   4.267  0.0912  0.6816  2.2179
 3429SOL    HW313489   2.046   5.220   4.240  1.0458  1.0036 -0.7890
 3429SOL    MW413490   2.052   5.287   4.296  0.3760  0.3113  0.1437
 3430SOL     OW13491   2.991   0.462   1.579  0.2148  0.6023  0.8497
 3430SOL    HW213492   2.919   0.458   1.641 -0.5055  0.6228  0.0344
 3430SOL    HW313493   2.972   0.393   1.515  0.2980  1.3548 -0.0109
 3430SOL    MW413494   2.979   0.452   1.579 -0.1729 -0.2747 -0.0898
 3431SOL     OW13495   6.382   3.016   5.110  0.0747  0.0830  0.4788
 3431SOL    HW213496   6.473   2.993   5.130 -0.5875 -1.8997  1.4092
 3431SOL    HW313497   6.386   3.050   5.021  1.4299 -2.4254 -0.5319
 3431SOL    MW413498   6.395   3.017   5.101  0.2045  0.1031  0.0387
 3432SOL     OW13499   0.917   5.606   1.782 -0.4024 -0.0537  0.3698
 3432SOL    HW213500   0.988   5.604   1.717 -1.0697 -0.0124 -0.3749
 3432SOL    HW313501   0.847   5.553   1.743 -0.7551 -0.1593  1.1315
 3432SOL    MW413502   0.917   5.599   1.768 -0.1709 -0.3182 -0.2357
 3433SOL     OW13503   0.886   1.525   5.043 -0.4623  0.0798 -0.1061
 3433SOL    HW213504   0.891   1.607   4.993 -0.5452 -0.0724 -0.3626
 3433SOL    HW313505   0.947   1.466   4.998  0.5032  0.3726  0.7750
 3433SOL    MW413506   0.895   1.528   5.030 -0.4698  0.3092  0.2105
 3434SOL     OW13507   0.498   2.298   6.341  0.1577 -0.6918 -0.1927
 3434SOL    HW213508   0.461   2.263   6.422  1.6668 -1.2862  0.2778
 3434SOL    HW313509   0.430   2.356   6.306 -1.1061 -1.5656  0.7179
 3434SOL    MW413510   0.484   2.301   6.347  0.6262  0.0372 -0.2272
 3435SOL     OW13511   4.765   4.290   1.413  0.1358 -1.6047 -0.0736
 3435SOL    HW213512   4.843   4.286   1.359  0.5886  2.2178  0.0745
 3435SOL    HW313513   4.692   4.294   1.351  0.5064  0.4217 -0.4507
 3435SOL    MW413514   4.766   4.290   1.398 -0.1743 -0.1248 -0.9704
 3436SOL     OW13515   4.968   3.126   1.945 -0.0297 -0.0770  0.2059
 3436SOL    HW213516   5.010   3.178   1.876  0.1271 -1.4038 -0.7278
 3436SOL    HW313517   4.914   3.063   1.898  0.3843 -1.2730  1.2944
 3436SOL    MW413518   4.967   3.125   1.930  0.4453  0.6087  0.0569
 3437SOL     OW13519   5.397   0.745   5.592  0.0984 -0.5946 -0.7071
 3437SOL    HW213520   5.416   0.808   5.662 -0.9517 -0.0230 -0.9141
 3437SOL    HW313521   5.433   0.785   5.513  0.4972 -0.8253 -0.6444
 3437SOL    MW413522   5.404   0.759   5.591 -0.3842 -0.1455 -0.4192
 3438SOL     OW13523   1.512   0.210   3.974  0.5482  0.8538  0.1294
 3438SOL    HW213524   1.519   0.290   3.921  0.7837  0.2738 -0.7285
 3438SOL    HW313525   1.421   0.181   3.962  0.9689 -0.0378 -1.1033
 3438SOL    MW413526   1.501   0.217   3.965 -0.2977 -0.7465  0.2379
 3439SOL     OW13527   1.778   1.999   4.639  0.2586 -0.2117  0.1003
 3439SOL    HW213528   1.841   2.044   4.582 -0.5763 -0.2766 -0.8762
 3439SOL    HW313529   1.700   2.055   4.638 -0.1672 -0.7945  0.2764
 3439SOL    MW413530   1.776   2.013   4.632 -0.4642  0.5509 -0.2571
 3440SOL     OW13531   4.445   1.759   5.959 -0.0315  0.7708 -0.4616
 3440SOL    HW213532   4.485   1.774   6.044 -2.2993  1.5272  0.5516
 3440SOL    HW313533   4.516   1.771   5.896  2.0831 -1.3327  1.3343
 3440SOL    MW413534   4.460   1.762   5.962 -0.4791 -0.4856 -0.0329
 3441SOL     OW13535   2.121   2.058   1.670  0.3703  0.0336 -0.5588
 3441SOL    HW213536   2.112   2.043   1.764  0.2311  0.4598 -0.5026
 3441SOL    HW313537   2.101   1.973   1.630  1.6374 -0.4776 -0.1502
 3441SOL    MW413538   2.117   2.045   1.677 -0.3186 -0.0441  0.7933
 3442SOL     OW13539   1.689   1.921   0.624 -0.8004 -0.4164  0.1305
 3442SOL    HW213540   1.625   1.936   0.554 -0.1523 -1.4265 -0.7037
 3442SOL    HW313541   1.636   1.894   0.699 -1.3465 -1.7753 -0.7084
 3442SOL    MW413542   1.673   1.919   0.624 -0.6846 -0.3472  0.8926
 3443SOL     OW13543   2.846   2.277   5.458 -0.3534  0.0514 -0.1745
 3443SOL    HW213544   2.928   2.250   5.499 -0.3377  0.3225 -0.0304
 3443SOL    HW313545   2.798   2.322   5.527 -0.8942 -0.6524 -0.0796
 3443SOL    MW413546   2.851   2.279   5.472 -0.3055 -0.2742 -0.1469
 3444SOL     OW13547   4.188   6.184   1.470  0.2132 -0.1457  0.2103
 3444SOL    HW213548   4.093   6.173   1.477  0.1972  0.1171  0.4383
 3444SOL    HW313549   4.206   6.182   1.376 -0.0010 -0.3439  0.1748
 3444SOL    MW413550   4.178   6.182   1.459  0.2933 -0.7174 -0.0147
 3445SOL     OW13551   2.656   6.017   3.551 -0.1763  0.4119  0.1313
 3445SOL    HW213552   2.674   6.104   3.585 -1.3168  0.8174 -0.2472
 3445SOL    HW313553   2.648   5.962   3.629 -1.2135  1.0171  0.4692
 3445SOL    MW413554   2.657   6.021   3.566 -0.1026  0.8403 -0.2530
 3446SOL     OW13555   6.238   1.465   5.846  0.2701 -0.0226 -0.1766
 3446SOL    HW213556   6.291   1.396   5.887  0.0720  0.8496  1.6573
 3446SOL    HW313557   6.267   1.546   5.889 -0.3876  0.8734 -1.3744
 3446SOL    MW413558   6.249   1.467   5.857  0.6644  0.4531  0.0135
 3447SOL     OW13559   3.064   3.708   1.072 -0.1974  0.4677 -0.4283
 3447SOL    HW213560   3.129   3.737   1.136 -0.3829  0.9467 -0.4523
 3447SOL    HW313561   3.115   3.673   0.999  0.0199  0.2292 -0.1668
 3447SOL    MW413562   3.079   3.707   1.071 -0.2375  0.3199  0.3197
 3448SOL     OW13563   0.483   6.251   0.679  0.0296 -0.0438 -0.0625
 3448SOL    HW213564   0.396   6.282   0.704  0.9436  0.2870  3.1565
 3448SOL    HW313565   0.516   6.318   0.619 -1.2387  0.7516  0.0929
 3448SOL    MW413566   0.476   6.264   0.674 -0.0679  0.7813 -0.3112
 3449SOL     OW13567   0.797   0.757   1.753 -0.2072 -0.2994  0.0800
 3449SOL    HW213568   0.832   0.833   1.706  1.9510 -1.9594 -1.1843
 3449SOL    HW313569   0.798   0.783   1.845 -0.9234  1.6996 -0.4290
 3449SOL    MW413570   0.802   0.770   1.759 -0.2846 -0.1121 -0.4240
 3450SOL     OW13571   5.174   0.695   4.852  0.5524 -0.2482 -0.2502
 3450SOL    HW213572   5.165   0.696   4.757  2.6924 -1.4226 -0.5111
 3450SOL    HW313573   5.150   0.606   4.878  1.9181 -0.5392  0.0626
 3450SOL    MW413574   5.169   0.684   4.843  0.1007 -0.4301  0.3028
 3451SOL     OW13575   2.708   1.727   3.483  0.6970  0.3699  0.0285
 3451SOL    HW213576   2.635   1.699   3.538  0.8105  1.1298  0.5722
 3451SOL    HW313577   2.782   1.674   3.513  0.5131 -0.0040 -0.1540
 3451SOL    MW413578   2.708   1.716   3.494 -0.0411  0.1340  0.1834
 3452SOL     OW13579   5.336   5.447   3.087  0.2839  0.0453  0.0265
 3452SOL    HW213580   5.269   5.483   3.144  1.0022 -0.3424  1.1415
 3452SOL    HW313581   5.414   5.498   3.106  0.5712 -0.1939 -0.4943
 3452SOL    MW413582   5.337   5.458   3.097 -0.3082 -0.1253  0.0168
 3453SOL     OW13583   3.723   2.880   5.332 -0.0257 -0.4969 -0.2235
 3453SOL    HW213584   3.797   2.855   5.277  0.3012 -1.1573  0.4992
 3453SOL    HW313585   3.657   2.813   5.316 -0.4330  0.0261 -0.7780
 3453SOL    MW413586   3.724   2.868   5.323  0.5859  0.2702 -0.0462
 3454SOL     OW13587   2.049   1.851   1.497 -0.1610 -0.1952 -0.1673
 3454SOL    HW213588   1.962   1.874   1.463  0.1753  2.6272  0.6160
 3454SOL    HW313589   2.108   1.913   1.453  1.1140 -0.5294  1.0275
 3454SOL    MW413590   2.046   1.862   1.486  0.2990 -0.1540 -0.0883
 3455SOL     OW13591   5.438   0.272   5.218 -0.2974  0.7847  0.1654
 3455SOL    HW213592   5.498   0.288   5.146 -0.0865  0.9364  0.3731
 3455SOL    HW313593   5.494   0.257   5.294 -0.5118  0.3315  0.2391
 3455SOL    MW413594   5.453   0.272   5.219  0.2689 -0.0757 -0.1964
 3456SOL     OW13595   1.762   2.571   2.575 -0.2237 -0.5114 -0.1215
 3456SOL    HW213596   1.770   2.483   2.537 -2.5621 -1.2219  0.8941
 3456SOL    HW313597   1.746   2.556   2.668 -0.2945  1.0210  0.1345
 3456SOL    MW413598   1.761   2.557   2.582 -0.4271 -0.4635  0.3346
 3457SOL     OW13599   5.822   6.269   1.267 -0.1744 -0.1867  0.3844
 3457SOL    HW213600   5.850   6.185   1.304 -0.0742  0.4724  1.8732
 3457SOL    HW313601   5.731   6.255   1.242  0.1433 -1.0356 -0.3693
 3457SOL    MW413602   5.814   6.256   1.269  0.2940 -0.0646  0.0433
 3458SOL     OW13603   1.089   2.268   2.609 -0.0831 -0.3319 -0.6137
 3458SOL    HW213604   1.037   2.236   2.536  0.8597 -1.3389 -0.8755
 3458SOL    HW313605   1.133   2.346   2.575  0.4924 -0.8976 -1.2117
 3458SOL    MW413606   1.088   2.274   2.595  0.1242  0.0868  0.3234
 3459SOL     OW13607   0.654   4.259   3.291 -0.4564 -0.4232 -0.6243
 3459SOL    HW213608   0.696   4.331   3.243  0.5324 -0.4341  0.2089
 3459SOL    HW313609   0.714   4.186   3.282  0.3579 -0.0924  1.6154
 3459SOL    MW413610   0.667   4.259   3.284  0.1448  0.2958  0.6144
 3460SOL     OW13611   2.631   3.383   3.564  0.2262  0.4727  0.0621
 3460SOL    HW213612   2.565   3.330   3.520  0.1929 -0.4366  1.1448
 3460SOL    HW313613   2.652   3.453   3.502  0.3395 -0.8576 -1.4593
 3460SOL    MW413614   2.625   3.385   3.550  0.2454  0.1654  0.0938
 3461SOL     OW13615   1.951   1.461   4.029 -0.6608 -0.6123 -0.0816
 3461SOL    HW213616   1.868   1.466   4.076  0.3495  0.4945  1.6976
 3461SOL    HW313617   1.944   1.527   3.961 -0.6077  0.7866  1.2103
 3461SOL    MW413618   1.939   1.470   4.026 -0.4887 -0.3411  0.4461
 3462SOL     OW13619   5.445   3.258   3.559 -0.1034  0.0715 -0.4869
 3462SOL    HW213620   5.409   3.216   3.481  1.0520 -0.4083 -0.7862
 3462SOL    HW313621   5.530   3.216   3.572 -0.2790  0.1143  1.0545
 3462SOL    MW413622   5.451   3.247   3.550  0.5139  0.4951 -0.3949
 3463SOL     OW13623   6.129   3.666   2.020  0.1547  0.1008  1.2312
 3463SOL    HW213624   6.036   3.658   2.037 -0.1372  0.7343  0.0671
 3463SOL    HW313625   6.168   3.587   2.057 -1.0241 -0.8410  0.5083
 3463SOL    MW413626   6.122   3.655   2.027  0.2894  0.1755  0.2638
 3464SOL     OW13627   4.392   2.525   5.276 -0.4539 -0.3427 -0.3964
 3464SOL    HW213628   4.298   2.545   5.270 -0.4667 -0.4218 -0.4650
 3464SOL    HW313629   4.434   2.591   5.221 -0.2523  1.2259  1.5156
 3464SOL    MW413630   4.385   2.536   5.268  0.0684 -0.2535  0.4630
 3465SOL     OW13631   5.991   1.591   5.045  0.4804 -0.1856  0.4718
 3465SOL    HW213632   5.966   1.650   5.116  0.9514  1.5368 -0.7215
 3465SOL    HW313633   6.070   1.630   5.008 -0.6265 -0.1384 -1.9903
 3465SOL    MW413634   5.998   1.604   5.050  0.3594  0.3683  0.3348
 3466SOL     OW13635   0.203   3.554   6.376 -0.3526 -0.3704 -0.0620
 3466SOL    HW213636   0.150   3.477   6.392  0.9056 -0.7756  2.6229
 3466SOL    HW313637   0.151   3.627   6.410 -0.3443 -0.4117  0.0391
 3466SOL    MW413638   0.189   3.554   6.382  0.2103  0.2840 -0.0732
 3467SOL     OW13639   5.886   3.734   3.528 -0.1237 -0.0814  0.8601
 3467SOL    HW213640   5.941   3.673   3.479  0.2086  0.2449  0.8261
 3467SOL    HW313641   5.797   3.713   3.500  0.0033 -0.4084  0.6898
 3467SOL    MW413642   5.881   3.723   3.518  0.3151  0.6086 -0.6445
 3468SOL     OW13643   2.487   1.884   0.261 -0.0583  0.0558 -0.2929
 3468SOL    HW213644   2.411   1.827   0.253  0.0928 -0.3569  0.9675
 3468SOL    HW313645   2.562   1.824   0.264  0.0092  0.1261  2.5863
 3468SOL    MW413646   2.487   1.868   0.260 -0.0238 -0.0597 -0.5092
 3469SOL     OW13647   5.625   3.074   0.099  0.0489  0.1760  0.7048
 3469SOL    HW213648   5.545   3.121   0.122  0.2333  0.1805  1.3641
 3469SOL    HW313649   5.690   3.107   0.160  0.4410 -0.1731  0.4803
 3469SOL    MW413650   5.623   3.085   0.110  0.1235  0.3545  0.4347
 3470SOL     OW13651   0.315   0.935   5.614  0.4336  0.6110  0.4292
 3470SOL    HW213652   0.359   0.900   5.536  0.7122  1.6337  0.1025
 3470SOL    HW313653   0.222   0.916   5.600  0.7058 -1.2362  0.9433
 3470SOL    MW413654   0.309   0.928   5.602  0.1145  0.1166 -0.2658
 3471SOL     OW13655   0.017   1.822   4.110 -0.2629 -0.0862  0.0627
 3471SOL    HW213656  -0.005   1.784   4.025  1.0074 -0.9214  0.0891
 3471SOL    HW313657  -0.057   1.799   4.166 -1.6658  1.4519 -1.0608
 3471SOL    MW413658   0.004   1.814   4.106  0.2095  0.0200  0.3173
 3472SOL     OW13659   4.077   1.555   6.145  0.7387  0.2150  0.1047
 3472SOL    HW213660   4.045   1.509   6.067 -0.5679  2.5422 -0.8246
 3472SOL    HW313661   4.019   1.526   6.215  0.9060 -0.6857 -0.1187
 3472SOL    MW413662   4.065   1.545   6.144 -0.5757  0.0640  0.2318
 3473SOL     OW13663   4.599   5.519   5.870  0.1781  0.0787  0.5908
 3473SOL    HW213664   4.595   5.426   5.891 -0.6149 -0.3506 -1.1972
 3473SOL    HW313665   4.613   5.521   5.775  2.1311  1.8001  0.8430
 3473SOL    MW413666   4.601   5.507   5.860 -0.5298 -0.2498 -0.2775
 3474SOL     OW13667   1.286   1.421   6.268 -0.4648  0.3064 -0.4090
 3474SOL    HW213668   1.363   1.364   6.268 -0.2365  0.4930  2.1916
 3474SOL    HW313669   1.217   1.368   6.228  0.4934 -0.6494 -0.8402
 3474SOL    MW413670   1.287   1.406   6.263 -0.0146  0.0730 -0.1778
 3475SOL     OW13671   0.020   4.310   1.061 -0.7178  0.0514 -0.2667
 3475SOL    HW213672   0.057   4.326   0.974 -0.4917  0.9896 -0.0112
 3475SOL    HW313673  -0.001   4.217   1.061  0.3417 -0.2145 -0.9197
 3475SOL    MW413674   0.022   4.300   1.050 -0.2798  0.4069  0.4671
 3476SOL     OW13675   3.145   4.501   4.465 -0.1190 -0.2357 -0.4564
 3476SOL    HW213676   3.211   4.459   4.520 -0.2514  0.8956  0.6043
 3476SOL    HW313677   3.062   4.476   4.505 -0.2050  0.8463  0.0793
 3476SOL    MW413678   3.143   4.492   4.478  0.6898  0.7495  0.0298
 3477SOL     OW13679   2.350   1.956   5.355 -0.0786  0.1613 -0.1085
 3477SOL    HW213680   2.272   1.957   5.410 -0.3099  0.7716 -0.4357
 3477SOL    HW313681   2.390   2.042   5.370  0.0762  0.1714 -0.5823
 3477SOL    MW413682   2.345   1.968   5.364 -0.1831 -0.1720 -0.5356
 3478SOL     OW13683   4.352   4.184   2.214 -0.3792  0.5761  0.4176
 3478SOL    HW213684   4.403   4.264   2.206 -1.0760  1.0411  0.5639
 3478SOL    HW313685   4.374   4.133   2.135 -0.1449  1.0365  0.1868
 3478SOL    MW413686   4.361   4.188   2.202  0.3141  0.3411 -0.0707
 3479SOL     OW13687   2.644   0.714   5.274 -0.2795  0.0606 -0.3833
 3479SOL    HW213688   2.668   0.686   5.186  1.2664  0.4756 -0.1331
 3479SOL    HW313689   2.701   0.661   5.331 -1.4153 -0.3605  0.3821
 3479SOL    MW413690   2.655   0.703   5.270 -0.6180  0.6399 -0.8495
 3480SOL     OW13691   6.207   1.246   0.612 -0.3559  0.2322  0.3005
 3480SOL    HW213692   6.153   1.220   0.686  0.6042 -0.1742  0.8834
 3480SOL    HW313693   6.291   1.270   0.652  0.2369 -0.1855 -0.6762
 3480SOL    MW413694   6.211   1.246   0.627  0.3690 -0.1316 -0.1360
 3481SOL     OW13695   0.746   3.253   3.969  0.2544  0.1911  0.0968
 3481SOL    HW213696   0.817   3.264   3.906  0.9613 -1.6532  0.5070
 3481SOL    HW313697   0.759   3.323   4.033  1.2380  0.3464 -0.2544
 3481SOL    MW413698   0.757   3.264   3.969  0.3806 -0.0030  0.3723
 3482SOL     OW13699   2.409   0.369   3.939  0.5029  0.4202  0.1387
 3482SOL    HW213700   2.489   0.408   3.905  0.9329 -0.7101 -0.1875
 3482SOL    HW313701   2.421   0.369   4.034  0.2862  1.4904  0.1800
 3482SOL    MW413702   2.421   0.374   3.947  0.3219 -0.1596 -0.4597
 3483SOL     OW13703   3.893   2.432   1.156 -0.2531 -0.0360  0.5860
 3483SOL    HW213704   3.907   2.490   1.231  1.3261 -0.7940  0.9210
 3483SOL    HW313705   3.849   2.487   1.091 -0.5681  0.9671  1.6204
 3483SOL    MW413706   3.889   2.447   1.157 -0.4183 -0.2324 -0.1814
 3484SOL     OW13707   5.358   2.649   1.037  0.0281  0.4087  0.5476
 3484SOL    HW213708   5.380   2.584   1.103 -0.9859 -0.7027 -0.1600
 3484SOL    HW313709   5.416   2.630   0.963 -0.6759 -0.0984  0.1121
 3484SOL    MW413710   5.368   2.638   1.036  0.0596 -0.2958 -0.2470
 3485SOL     OW13711   1.832   2.194   4.442 -0.2568 -0.0901 -0.0329
 3485SOL    HW213712   1.839   2.273   4.496  0.4093 -0.6730  0.7692
 3485SOL    HW313713   1.876   2.217   4.360 -1.6944  0.9663 -0.5542
 3485SOL    MW413714   1.839   2.208   4.439 -1.1169 -0.3683  0.1090
 3486SOL     OW13715   0.404   4.625   2.338  0.0960  0.2224 -0.2769
 3486SOL    HW213716   0.411   4.539   2.297  0.4263  0.3798 -0.5653
 3486SOL    HW313717   0.320   4.624   2.384  0.1604 -0.2959 -0.1722
 3486SOL    MW413718   0.394   4.614   2.338 -0.5321  0.0019 -0.2839
 3487SOL     OW13719   4.771   5.157   2.191  0.3195 -0.3189  0.2648
 3487SOL    HW213720   4.755   5.078   2.139 -0.4594  0.7730 -1.2124
 3487SOL    HW313721   4.750   5.230   2.132  0.1845  0.9954  1.8663
 3487SOL    MW413722   4.766   5.156   2.176  0.0770  0.0328  0.1170
 3488SOL     OW13723   4.006   2.215   0.088  0.1651 -0.0050 -0.4049
 3488SOL    HW213724   4.078   2.156   0.112  2.1440  2.2373 -0.4850
 3488SOL    HW313725   3.991   2.199  -0.005  0.1354 -0.9101 -0.2520
 3488SOL    MW413726   4.014   2.205   0.079 -0.1823 -0.0830  0.0798
 3489SOL     OW13727   4.911   1.330   1.020  0.2192  0.3006  0.3400
 3489SOL    HW213728   4.862   1.399   0.975 -1.1146 -0.3379  0.7516
 3489SOL    HW313729   4.959   1.286   0.950  2.8937  2.9491  0.3078
 3489SOL    MW413730   4.911   1.333   1.005  0.0270  0.0111 -0.1638
 3490SOL     OW13731   2.421   3.896   3.248 -0.2579  0.6510  0.1807
 3490SOL    HW213732   2.466   3.978   3.227  1.5972 -0.3130  0.1157
 3490SOL    HW313733   2.457   3.832   3.186  0.2766 -0.7492  1.8417
 3490SOL    MW413734   2.432   3.898   3.237 -0.1072  0.1089  0.4295
 3491SOL     OW13735   6.101   4.490   5.718  0.8539  0.3012 -0.2028
 3491SOL    HW213736   6.126   4.569   5.671 -0.7694  0.8292 -0.2674
 3491SOL    HW313737   6.146   4.419   5.673  0.9230  1.0073 -1.2870
 3491SOL    MW413738   6.110   4.491   5.706  0.1449  0.2958  0.3850
 3492SOL     OW13739   5.107   6.034   1.146  0.6011 -0.4348  0.4396
 3492SOL    HW213740   5.134   6.119   1.181 -0.6266  0.9980 -1.8457
 3492SOL    HW313741   5.189   5.987   1.130  1.3979  1.0153  0.1540
 3492SOL    MW413742   5.121   6.039   1.149 -0.2698  0.4751 -0.0807
 3493SOL     OW13743   4.506   5.624   1.224  0.3450  0.4612 -0.4107
 3493SOL    HW213744   4.585   5.629   1.278  0.5533 -0.2368 -0.6436
 3493SOL    HW313745   4.522   5.686   1.152  0.1785  1.1925  0.1758
 3493SOL    MW413746   4.519   5.633   1.221 -0.0612 -0.3899  0.4111
 3494SOL     OW13747   3.913   2.838   1.213 -0.2373 -0.4818  0.8402
 3494SOL    HW213748   3.848   2.810   1.148 -0.6893 -0.8057  1.4098
 3494SOL    HW313749   3.947   2.756   1.249 -1.0833 -0.3397  2.0563
 3494SOL    MW413750   3.909   2.823   1.209 -0.7654  0.5831  0.4031
 3495SOL     OW13751   4.487   5.139   3.102 -0.2693 -0.0078  0.0448
 3495SOL    HW213752   4.510   5.068   3.162 -1.7520 -0.0221  0.6513
 3495SOL    HW313753   4.512   5.108   3.016  0.2390 -0.7506  0.4538
 3495SOL    MW413754   4.493   5.125   3.099 -0.0033  0.0737 -0.5360
 3496SOL     OW13755   0.984   6.371   1.725  0.5673  0.6535 -0.4041
 3496SOL    HW213756   0.917   6.393   1.790  0.8844  0.8694 -0.1462
 3496SOL    HW313757   0.935   6.351   1.646  0.1340 -0.2614  0.0728
 3496SOL    MW413758   0.969   6.371   1.723 -0.2029 -0.3385  0.8236
 3497SOL     OW13759   4.778   5.148   5.724 -0.3453 -0.0588  0.2505
 3497SOL    HW213760   4.708   5.178   5.666 -0.1919 -1.3951 -0.6654
 3497SOL    HW313761   4.789   5.056   5.702  2.0359  0.2240  0.0414
 3497SOL    MW413762   4.770   5.140   5.714  0.6527  0.0210  0.1970
 3498SOL     OW13763   1.786   3.348   6.171  0.2554  0.8665 -0.3189
 3498SOL    HW213764   1.825   3.340   6.084  2.0469  0.0208  0.5014
 3498SOL    HW313765   1.796   3.441   6.194  1.9817  0.6586 -0.0966
 3498SOL    MW413766   1.792   3.359   6.163  0.7567  0.4074  0.2734
 3499SOL     OW13767   3.659   5.040   6.002 -0.3163 -0.1406 -0.3554
 3499SOL    HW213768   3.646   4.949   6.030 -0.5977 -0.2895 -0.9743
 3499SOL    HW313769   3.603   5.051   5.925 -0.4007  0.6029 -0.2024
 3499SOL    MW413770   3.650   5.030   5.996  0.1467  0.2024 -0.7739
 3500SOL     OW13771   0.043   1.587   2.462  0.2450 -0.3575  0.1617
 3500SOL    HW213772   0.136   1.605   2.452  0.2480 -1.0093 -1.2466
 3500SOL    HW313773   0.035   1.545   2.548  1.6135 -2.3657 -0.6197
 3500SOL    MW413774   0.054   1.584   2.472  0.6229  0.7373 -0.2128
 3501SOL     OW13775   2.255   3.717   1.041  0.2518 -0.0581  0.4518
 3501SOL    HW213776   2.327   3.657   1.059 -0.5974 -1.7676 -1.4531
 3501SOL    HW313777   2.292   3.804   1.057  2.8491 -0.8427 -0.6931
 3501SOL    MW413778   2.269   3.721   1.046  0.1886  0.4310 -0.2587
 3502SOL     OW13779   5.230   0.346   1.907 -0.6854 -0.1966 -0.2451
 3502SOL    HW213780   5.234   0.253   1.930 -0.4914  0.4755  2.9470
 3502SOL    HW313781   5.183   0.386   1.980  0.8139  2.4575 -0.6301
 3502SOL    MW413782   5.224   0.339   1.920  0.5678  0.3747  0.3086
 3503SOL     OW13783   2.386   4.010   4.324 -0.3433 -0.4661 -0.0273
 3503SOL    HW213784   2.428   3.949   4.384  1.1647 -0.4567 -0.9957
 3503SOL    HW313785   2.457   4.067   4.295 -1.3632  0.5944 -0.5398
 3503SOL    MW413786   2.401   4.009   4.328 -0.0192  0.1507 -0.0402
 3504SOL     OW13787   1.770   2.414   6.296  0.3103 -0.5788  0.9367
 3504SOL    HW213788   1.699   2.350   6.302  0.8663 -1.2889  0.3335
 3504SOL    HW313789   1.757   2.473   6.370 -1.5902  0.0327  0.1612
 3504SOL    MW413790   1.759   2.413   6.306 -0.1857 -0.1381 -0.0531
 3505SOL     OW13791   3.739   0.344   3.703 -0.1107 -0.4061  0.1302
 3505SOL    HW213792   3.717   0.275   3.765  0.1958 -0.0083  0.6858
 3505SOL    HW313793   3.830   0.366   3.722  0.0843 -0.4927 -0.6683
 3505SOL    MW413794   3.748   0.338   3.713 -0.2676  0.6759  0.4024
 3506SOL     OW13795   1.108   3.388   4.559 -0.1715  0.3641 -0.4466
 3506SOL    HW213796   1.055   3.372   4.481 -1.1256 -2.4919  0.6274
 3506SOL    HW313797   1.060   3.344   4.630  3.1207 -1.5998  0.7811
 3506SOL    MW413798   1.095   3.380   4.558 -0.0291 -0.1216 -0.2083
 3507SOL     OW13799   4.039   6.381   4.301 -0.1191  0.1726 -0.1555
 3507SOL    HW213800   4.125   6.421   4.294  0.0914 -0.3194 -0.5380
 3507SOL    HW313801   4.018   6.383   4.394  0.2557  0.4063 -0.0747
 3507SOL    MW413802   4.048   6.386   4.312  0.1003 -0.3867  0.2752
 3508SOL     OW13803   5.342   5.262   5.178 -0.4323 -0.6728  0.2450
 3508SOL    HW213804   5.407   5.292   5.241 -1.2162  2.5777 -0.3413
 3508SOL    HW313805   5.374   5.291   5.094 -1.3832 -1.3492 -0.3775
 3508SOL    MW413806   5.355   5.270   5.176 -0.3705  0.7470  0.0808
 3509SOL     OW13807   1.881   5.866   4.720  0.2106  0.3985  0.3727
 3509SOL    HW213808   1.834   5.787   4.744 -1.4197  1.2603  0.1684
 3509SOL    HW313809   1.837   5.936   4.769  0.1369  1.4771 -1.1492
 3509SOL    MW413810   1.869   5.865   4.729  0.2472 -0.3339 -0.0032
 3510SOL     OW13811   3.348   3.228   5.989  0.1459 -0.0655 -0.1062
 3510SOL    HW213812   3.400   3.286   5.934  2.4031  0.5680  2.4833
 3510SOL    HW313813   3.401   3.148   5.995 -1.8470 -1.6350 -1.7600
 3510SOL    MW413814   3.362   3.225   5.982 -0.0980  0.0544 -0.7521
 3511SOL     OW13815   5.893   0.129   1.707  0.6071 -0.5289  0.7954
 3511SOL    HW213816   5.806   0.128   1.746  0.3552  0.7325  0.3431
 3511SOL    HW313817   5.885   0.077   1.627  0.1202 -0.0147  0.4992
 3511SOL    MW413818   5.881   0.122   1.701  1.2120  0.1372  0.2359
 3512SOL     OW13819   2.582   3.360   5.588 -0.2358 -0.5601  0.1084
 3512SOL    HW213820   2.533   3.377   5.507 -0.4949 -0.0052  0.3795
 3512SOL    HW313821   2.662   3.413   5.578  0.0909 -1.0946 -0.1243
 3512SOL    MW413822   2.586   3.369   5.576  0.1640  0.5082 -0.3764
 3513SOL     OW13823   2.734   2.839   4.803 -0.4115 -0.0971 -0.3112
 3513SOL    HW213824   2.781   2.885   4.734 -1.0485  1.8906  0.5029
 3513SOL    HW313825   2.643   2.840   4.775 -0.4577 -0.7699 -0.2071
 3513SOL    MW413826   2.728   2.845   4.791  0.2760  0.1936 -0.0358
 3514SOL     OW13827   6.407   1.885   4.730  0.0989 -0.0588 -0.0426
 3514SOL    HW213828   6.389   1.945   4.658  1.6619  1.1930  0.5336
 3514SOL    HW313829   6.437   1.804   4.688 -1.2217 -0.1668 -0.8143
 3514SOL    MW413830   6.409   1.882   4.715 -0.2677 -0.5021  0.1712
 3515SOL     OW13831   3.051   1.839   0.227  0.2663 -0.3291 -0.4236
 3515SOL    HW213832   3.055   1.929   0.260  1.1850 -0.0622 -1.1901
 3515SOL    HW313833   3.126   1.833   0.167 -0.6160 -1.1628 -1.4771
 3515SOL    MW413834   3.062   1.850   0.223 -0.5355  0.1475 -0.2815
 3516SOL     OW13835   3.307   1.014   4.109  0.4784  0.2521 -0.1279
 3516SOL    HW213836   3.376   1.017   4.175 -0.4939  1.0397  0.8993
 3516SOL    HW313837   3.229   0.984   4.157 -0.6316  2.3136 -0.5119
 3516SOL    MW413838   3.306   1.010   4.124  0.2575  0.0830  0.0327
 3517SOL     OW13839   6.164   4.683   4.061 -0.0151 -0.2026 -0.0100
 3517SOL    HW213840   6.163   4.608   4.002  0.8990 -0.8038  0.7126
 3517SOL    HW313841   6.257   4.702   4.075 -0.1374 -0.8705  2.1818
 3517SOL    MW413842   6.176   4.676   4.055  0.3347  0.0740  0.3680
 3518SOL     OW13843   4.235   4.304   5.710 -0.0972  0.2561  0.5282
 3518SOL    HW213844   4.146   4.294   5.676 -0.2091 -0.1090  0.9182
 3518SOL    HW313845   4.246   4.398   5.723  0.4638  0.5879 -1.8752
 3518SOL    MW413846   4.225   4.315   5.707  0.2011 -0.8659 -0.0251
 3519SOL     OW13847   0.301   0.080   3.866 -0.4749  0.8812 -0.3563
 3519SOL    HW213848   0.244   0.120   3.801  0.8983  1.5943 -1.1527
 3519SOL    HW313849   0.306   0.146   3.936 -2.0436  0.0679  0.5794
 3519SOL    MW413850   0.294   0.094   3.867 -0.0450  0.1431 -1.0409
 3520SOL     OW13851   2.353   0.145   3.341 -0.3984  0.3182  0.0815
 3520SOL    HW213852   2.277   0.172   3.392 -0.8386  0.2385 -0.5372
 3520SOL    HW313853   2.320   0.079   3.280  0.7932 -2.3548  2.1238
 3520SOL    MW413854   2.339   0.140   3.340 -0.2099  0.5450  0.2997
 3521SOL     OW13855   2.085   2.820   2.528 -0.4421  0.5887  0.0626
 3521SOL    HW213856   2.072   2.756   2.598 -1.7640  1.3133  0.5292
 3521SOL    HW313857   2.048   2.778   2.450 -1.7694  0.9372  0.4724
 3521SOL    MW413858   2.078   2.806   2.527 -0.0976  0.5452  0.5987
 3522SOL     OW13859   5.331   5.123   2.412  0.1350 -0.1342  0.0135
 3522SOL    HW213860   5.367   5.171   2.486  0.5201 -1.0985  0.4708
 3522SOL    HW313861   5.326   5.188   2.341  1.1234  0.4556  0.4557
 3522SOL    MW413862   5.335   5.138   2.412 -0.3017  0.0880 -1.1667
 3523SOL     OW13863   3.929   3.286   2.670  0.2780 -0.1454  0.6410
 3523SOL    HW213864   3.871   3.273   2.595 -0.6423 -0.4869  1.4004
 3523SOL    HW313865   3.991   3.214   2.665  0.3206 -0.0776  0.1235
 3523SOL    MW413866   3.930   3.275   2.659  0.1061 -0.5485 -0.4712
 3524SOL     OW13867   4.813   0.349   4.569  0.1922  0.2133 -0.2153
 3524SOL    HW213868   4.881   0.323   4.631 -0.7547 -0.8904  0.4012
 3524SOL    HW313869   4.732   0.315   4.607 -0.5644  0.5505 -1.4786
 3524SOL    MW413870   4.811   0.341   4.582 -0.1615  0.0610 -0.6313
 3525SOL     OW13871   3.284   3.396   2.779  0.1525 -0.1928 -0.3091
 3525SOL    HW213872   3.210   3.357   2.826  1.9686 -1.4108  1.7070
 3525SOL    HW313873   3.267   3.490   2.780 -1.5463 -0.4737 -0.2570
 3525SOL    MW413874   3.272   3.403   2.785 -0.6750 -0.3023 -0.3466
 3526SOL     OW13875   3.674   4.342   0.806 -0.1772  0.4439  0.3244
 3526SOL    HW213876   3.607   4.300   0.861  0.2660  0.1023  0.6179
 3526SOL    HW313877   3.757   4.302   0.836  0.2718  1.6156  0.6972
 3526SOL    MW413878   3.676   4.331   0.817 -0.3051  0.2953  0.6350
 3527SOL     OW13879   3.116   5.352   1.615 -0.3934  0.5030 -0.4324
 3527SOL    HW213880   3.069   5.350   1.532 -2.2972  0.0164  0.5934
 3527SOL    HW313881   3.096   5.439   1.651  1.4628  1.2122 -1.0007
 3527SOL    MW413882   3.107   5.363   1.609 -0.1600 -0.1789  0.0163
 3528SOL     OW13883   5.678   0.583   6.189  0.1158 -0.2707 -0.1253
 3528SOL    HW213884   5.767   0.608   6.164 -0.2737  2.5871  0.8597
 3528SOL    HW313885   5.629   0.584   6.107  0.3656  1.4981 -0.3007
 3528SOL    MW413886   5.684   0.587   6.175 -0.3926  0.1424  0.2952
 3529SOL     OW13887   1.061   0.331   1.153  0.1897 -0.2568  0.4756
 3529SOL    HW213888   1.133   0.359   1.210  0.2220  1.0017 -0.1424
 3529SOL    HW313889   0.995   0.399   1.164 -1.6167 -2.1312  2.2009
 3529SOL    MW413890   1.061   0.344   1.162  0.2083 -0.3968 -0.6484
 3530SOL     OW13891   6.071   0.474   2.144  0.2213 -0.0721  0.0554
 3530SOL    HW213892   6.082   0.569   2.139  0.5001 -0.1250 -0.3889
 3530SOL    HW313893   5.980   0.459   2.120  0.6353 -0.0482 -1.6667
 3530SOL    MW413894   6.061   0.485   2.140  0.0199  0.2135 -0.1860
 3531SOL     OW13895   1.845   3.827   5.187 -0.3381 -0.3311 -0.0795
 3531SOL    HW213896   1.915   3.843   5.251 -0.2080  1.3107 -0.5842
 3531SOL    HW313897   1.765   3.852   5.233 -0.4515 -0.9389  0.0560
 3531SOL    MW413898   1.844   3.832   5.202 -0.3193 -0.7237 -0.0316
 3532SOL     OW13899   4.901   2.744   4.550  0.7062  0.6264 -0.9643
 3532SOL    HW213900   4.940   2.795   4.479 -0.0543 -0.5864 -2.3198
 3532SOL    HW313901   4.945   2.773   4.629  1.5222  2.0926 -1.9307
 3532SOL    MW413902   4.912   2.754   4.551 -0.2940  0.5830  0.5667
 3533SOL     OW13903   0.333   6.011   2.482  0.4842 -0.5558 -0.0365
 3533SOL    HW213904   0.389   5.960   2.540  0.7527  1.0720  1.1995
 3533SOL    HW313905   0.380   6.012   2.398  1.6236 -0.3936  0.5830
 3533SOL    MW413906   0.346   6.004   2.478 -0.6435  0.2959  0.4262
 3534SOL     OW13907   4.447   4.751   4.370  0.0585  0.1572 -0.0792
 3534SOL    HW213908   4.538   4.723   4.382 -0.4526 -1.4353  0.3089
 3534SOL    HW313909   4.447   4.796   4.285  1.0244 -0.7120 -0.5606
 3534SOL    MW413910   4.459   4.753   4.360  0.0845 -0.0193 -0.2391
 3535SOL     OW13911   4.291   4.320   0.402  0.3548  1.2905  0.1193
 3535SOL    HW213912   4.229   4.247   0.392  0.8023  0.6739  1.5954
 3535SOL    HW313913   4.254   4.390   0.348  0.6674 -0.4537 -2.5342
 3535SOL    MW413914   4.278   4.319   0.394 -0.3956 -0.2688  0.0032
 3536SOL     OW13915   3.181   0.077   5.450 -0.5919  0.1588  0.3847
 3536SOL    HW213916   3.240   0.128   5.505 -0.5056  1.4322 -0.8368
 3536SOL    HW313917   3.106   0.059   5.506  0.1644  0.0568  1.3952
 3536SOL    MW413918   3.179   0.081   5.464  0.0431 -0.5666  0.2637
 3537SOL     OW13919   2.092   5.546   4.330  0.0117  0.1308  0.1280
 3537SOL    HW213920   2.017   5.585   4.284 -0.2463 -0.7962 -0.2561
 3537SOL    HW313921   2.068   5.549   4.422 -1.1839 -1.5304 -0.0927
 3537SOL    MW413922   2.079   5.552   4.336 -0.5638  0.6230 -0.2191
 3538SOL     OW13923   5.312   3.393   0.435 -0.3538  0.3334 -0.1127
 3538SOL    HW213924   5.402   3.382   0.403 -0.4320  0.0071 -0.2256
 3538SOL    HW313925   5.315   3.359   0.525 -0.0764  1.4782  0.3248
 3538SOL    MW413926   5.324   3.387   0.443  0.6999  0.6122 -0.0058
 3539SOL     OW13927   0.936   5.320   3.411 -0.0929 -0.3993 -0.0711
 3539SOL    HW213928   0.954   5.243   3.464  1.9728  1.4877  2.2066
 3539SOL    HW313929   1.022   5.351   3.383 -0.9031  0.8046 -1.3792
 3539SOL    MW413930   0.950   5.314   3.414  0.5093  0.2877 -0.4004
 3540SOL     OW13931   4.715   4.552   1.939 -0.5910 -0.5604 -0.3980
 3540SOL    HW213932   4.752   4.505   2.014 -2.8111  0.3189  1.3559
 3540SOL    HW313933   4.792   4.583   1.890  0.9307 -2.1851  0.8016
 3540SOL    MW413934   4.730   4.550   1.943 -0.2292 -0.0198 -0.4065
 3541SOL     OW13935   1.784   6.101   2.879 -0.2302  0.3634 -0.1231
 3541SOL    HW213936   1.873   6.069   2.885 -0.3506  0.2416  1.5620
 3541SOL    HW313937   1.733   6.026   2.848  0.2369  0.4655 -1.1966
 3541SOL    MW413938   1.789   6.087   2.876  0.6811  0.3686 -0.8878
 3542SOL     OW13939   4.583   3.978   3.232  1.4572 -0.0527 -0.4596
 3542SOL    HW213940   4.603   4.066   3.199 -0.8466 -1.1238 -5.8599
 3542SOL    HW313941   4.496   3.987   3.271  1.1930  0.1035 -1.0671
 3542SOL    MW413942   4.574   3.991   3.233  0.2824  0.8732  0.2184
 3543SOL     OW13943   5.099   1.432   1.244 -0.0759 -0.7017  0.6476
 3543SOL    HW213944   5.194   1.431   1.230  0.0652  1.4500  1.0412
 3543SOL    HW313945   5.063   1.388   1.167  1.1161  1.8863 -1.5777
 3543SOL    MW413946   5.107   1.426   1.232  0.5207 -0.2654  0.3179
 3544SOL     OW13947   3.198   3.655   3.710  0.3531  0.2518 -0.1285
 3544SOL    HW213948   3.193   3.651   3.806 -0.8718 -0.8914 -0.1959
 3544SOL    HW313949   3.158   3.739   3.687  0.5964  0.5047  0.3556
 3544SOL    MW413950   3.192   3.665   3.720 -0.1864 -0.7475 -0.0008
 3545SOL     OW13951   2.421   5.028   6.391  1.0889  0.4255  0.1706
 3545SOL    HW213952   2.401   4.951   6.443  2.2057 -0.2170 -0.3121
 3545SOL    HW313953   2.390   5.006   6.303  2.4586  0.0207 -0.2390
 3545SOL    MW413954   2.414   5.015   6.386 -0.4680 -0.9116  0.2719
 3546SOL     OW13955   0.705   2.253   5.518  0.4525 -0.0029 -0.1131
 3546SOL    HW213956   0.800   2.242   5.511  0.3789 -0.9318  0.2254
 3546SOL    HW313957   0.670   2.167   5.496 -0.2322 -0.1164  1.3146
 3546SOL    MW413958   0.713   2.241   5.514  0.0865  0.2809 -0.0499
 3547SOL     OW13959   3.327   3.584   0.579 -0.6229  0.0925  0.0826
 3547SOL    HW213960   3.298   3.626   0.660  0.0289  0.8235 -0.0579
 3547SOL    HW313961   3.292   3.639   0.510  0.5262  0.6284 -0.0981
 3547SOL    MW413962   3.318   3.597   0.581 -0.1593  0.2032  0.1336
 3548SOL     OW13963   3.974   0.252   2.918  0.3624 -0.0317 -0.0593
 3548SOL    HW213964   3.901   0.201   2.951 -0.3997  1.1433  0.1294
 3548SOL    HW313965   4.018   0.194   2.857 -0.1717 -1.0806  0.5299
 3548SOL    MW413966   3.970   0.238   2.914  0.0067 -0.6260 -0.0806
 3549SOL     OW13967   4.448   0.847   3.103  0.4930 -0.0112 -0.0738
 3549SOL    HW213968   4.512   0.778   3.089 -1.6412 -2.0956 -0.3127
 3549SOL    HW313969   4.440   0.855   3.198  0.5689 -0.3021 -0.0428
 3549SOL    MW413970   4.455   0.839   3.113 -0.3871 -0.5196 -0.0133
 3550SOL     OW13971   4.012   1.922   1.518  0.0291 -0.9365 -0.2803
 3550SOL    HW213972   4.011   1.982   1.443 -0.6394 -2.0119 -1.1442
 3550SOL    HW313973   4.054   1.843   1.485 -0.2874 -1.4295  0.4763
 3550SOL    MW413974   4.018   1.920   1.504  0.0336  0.8868 -0.5637
 3551SOL     OW13975   2.050   2.192   3.659  0.2918 -0.2634 -0.2332
 3551SOL    HW213976   2.063   2.268   3.602  0.8985 -0.4843 -0.3974
 3551SOL    HW313977   1.993   2.134   3.610  0.1024 -0.0666 -0.2490
 3551SOL    MW413978   2.044   2.195   3.645 -0.0588 -0.5800  0.0926
 3552SOL     OW13979   0.870   3.004   4.080 -0.3747 -0.1207  0.4387
 3552SOL    HW213980   0.849   3.041   3.995 -0.7650 -0.6133  0.3142
 3552SOL    HW313981   0.847   2.911   4.072 -0.6731 -0.1184  1.1634
 3552SOL    MW413982   0.864   2.996   4.068 -0.5944  0.1251 -0.0132
 3553SOL     OW13983   0.355   4.118   5.176  0.3510  0.0872 -0.6415
 3553SOL    HW213984   0.372   4.166   5.094  1.2750  1.6234  0.3955
 3553SOL    HW313985   0.268   4.081   5.164  0.0139  1.1870 -1.9066
 3553SOL    MW413986   0.346   4.119   5.163  0.2876 -0.1018  0.2545
 3554SOL     OW13987   2.691   4.137   2.380 -0.1273  0.1941  0.3405
 3554SOL    HW213988   2.698   4.116   2.287  1.5086  0.5865  0.3525
 3554SOL    HW313989   2.597   4.135   2.397 -0.4153 -0.7035 -1.1203
 3554SOL    MW413990   2.679   4.134   2.370  0.1218 -0.2940  0.4796
 3555SOL     OW13991   2.814   1.007   5.935 -0.0481  0.5502  0.1828
 3555SOL    HW213992   2.845   0.924   5.972 -1.4040 -0.4359 -0.7966
 3555SOL    HW313993   2.726   0.987   5.901 -0.4407  2.4136  0.0052
 3555SOL    MW413994   2.806   0.993   5.935 -0.0418 -0.2323  0.0369
 3556SOL     OW13995   4.623   0.465   4.236  0.2856 -0.3418 -0.2293
 3556SOL    HW213996   4.619   0.486   4.142 -1.5568  0.9045  0.0559
 3556SOL    HW313997   4.532   0.471   4.265  0.8332 -0.5980  1.6723
 3556SOL    MW413998   4.610   0.469   4.227  0.6842  0.0294 -0.1866
 3557SOL     OW13999   0.318   5.827   4.907 -0.0514 -0.1346 -0.3168
 3557SOL    HW214000   0.358   5.818   4.993 -2.1804 -0.9179  0.6571
 3557SOL    HW314001   0.355   5.908   4.871 -0.3382  1.1171  2.0341
 3557SOL    MW414002   0.328   5.836   4.913  0.6104 -0.0949 -0.2952
 3558SOL     OW14003   4.424   2.453   4.614  0.2128  0.3962 -0.6800
 3558SOL    HW214004   4.444   2.482   4.702 -0.2964  2.2704 -1.1424
 3558SOL    HW314005   4.328   2.457   4.609  0.2832  1.4854 -1.6579
 3558SOL    MW414006   4.414   2.457   4.625  0.2400 -0.2591  0.1362
 3559SOL     OW14007   2.434   0.741   1.596  0.5804 -0.0346  0.4154
 3559SOL    HW214008   2.512   0.769   1.549 -0.4970 -1.6451 -2.5954
 3559SOL    HW314009   2.361   0.761   1.537 -0.9951 -1.4007  1.7742
 3559SOL    MW414010   2.435   0.748   1.582  0.6980  0.2595  0.1362
 3560SOL     OW14011   5.666   1.952   1.691  0.1785 -0.5021  0.7192
 3560SOL    HW214012   5.667   1.867   1.648 -0.5566 -1.3085  2.2107
 3560SOL    HW314013   5.628   1.935   1.777  0.7391  1.1984  1.3512
 3560SOL    MW414014   5.661   1.939   1.697 -0.2456  0.1940 -0.1030
 3561SOL     OW14015   2.954   2.883   1.993 -0.4156  0.0424 -0.1147
 3561SOL    HW214016   2.884   2.823   1.966 -1.0566 -1.1677  3.6981
 3561SOL    HW314017   3.030   2.855   1.941 -1.4972 -2.0317 -0.7135
 3561SOL    MW414018   2.955   2.871   1.983  0.1441  0.0976 -0.4141
 3562SOL     OW14019   0.748   0.553   6.233  0.0832 -0.2132 -0.0781
 3562SOL    HW214020   0.780   0.604   6.158 -1.3286  3.3682  1.5141
 3562SOL    HW314021   0.778   0.601   6.310  0.2383 -2.9520  1.7095
 3562SOL    MW414022   0.756   0.566   6.233  0.1529 -0.0905  0.5755
 3563SOL     OW14023   3.372   5.995   1.035  0.0896  0.1031  0.1334
 3563SOL    HW214024   3.407   6.078   1.001  1.6447 -0.9385 -0.9224
 3563SOL    HW314025   3.419   5.981   1.117 -0.2508  0.3007  0.3660
 3563SOL    MW414026   3.383   6.004   1.041 -0.3875  0.3472  0.5600
 3564SOL     OW14027   1.978   3.145   2.858  0.1816  0.2449 -0.3499
 3564SOL    HW214028   1.952   3.230   2.822 -0.8716  0.5699  1.0873
 3564SOL    HW314029   2.029   3.104   2.788  1.1135  2.2330 -0.9261
 3564SOL    MW414030   1.982   3.151   2.844 -0.0639  0.4456  0.0332
 3565SOL     OW14031   0.089   3.300   5.952 -0.1784 -0.5549  0.7640
 3565SOL    HW214032   0.178   3.265   5.959  0.8409  1.9978  1.7034
 3565SOL    HW314033   0.084   3.335   5.864  0.4733  0.9577  1.2910
 3565SOL    MW414034   0.100   3.300   5.942  0.1892  0.4349  0.0522
 3566SOL     OW14035   0.968   3.298   6.005  0.2401  0.5321 -0.3683
 3566SOL    HW214036   1.030   3.325   6.073 -1.4369  0.7623  1.1198
 3566SOL    HW314037   0.935   3.381   5.970  1.1181  0.4158 -1.5330
 3566SOL    MW414038   0.972   3.313   6.009  0.0694 -0.1420 -0.6089
 3567SOL     OW14039   2.119   1.999   1.955 -0.1918 -0.2131 -0.1288
 3567SOL    HW214040   2.064   1.959   2.022 -0.1752 -0.9749 -0.5544
 3567SOL    HW314041   2.204   1.955   1.964 -0.1090 -0.1239 -0.4591
 3567SOL    MW414042   2.123   1.988   1.965  0.7258  0.2413 -0.5732
 3568SOL     OW14043   2.370   5.089   1.509 -0.0125 -0.1263 -0.5495
 3568SOL    HW214044   2.351   5.069   1.417 -0.4396 -1.7387 -0.1499
 3568SOL    HW314045   2.312   5.031   1.558 -0.8487  1.7211  0.7736
 3568SOL    MW414046   2.359   5.079   1.504 -0.0470  0.1071 -0.3694
 3569SOL     OW14047   4.767   3.207   1.601 -0.0529  0.1576  0.0231
 3569SOL    HW214048   4.727   3.235   1.518  0.2823  0.6247  0.0166
 3569SOL    HW314049   4.766   3.284   1.656 -0.7348 -0.2869  0.6462
 3569SOL    MW414050   4.762   3.221   1.597  0.0199 -0.0192  0.0629
 3570SOL     OW14051   1.888   2.199   1.601 -0.1441  0.1616 -0.4776
 3570SOL    HW214052   1.975   2.165   1.623 -0.8097 -1.3712 -0.0675
 3570SOL    HW314053   1.902   2.252   1.522  1.0040 -0.8867 -1.0134
 3570SOL    MW414054   1.901   2.201   1.593 -0.0949 -0.5070 -0.8600
 3571SOL     OW14055   4.630   3.857   5.824  0.5814 -0.7306 -0.3925
 3571SOL    HW214056   4.690   3.789   5.794  2.2755 -0.0622  1.2337
 3571SOL    HW314057   4.577   3.814   5.892 -0.8647 -1.3183 -1.8229
 3571SOL    MW414058   4.631   3.843   5.829 -0.1744  0.0247 -0.9646
 3572SOL     OW14059   3.180   2.142   1.663  0.2448 -0.5331  0.1282
 3572SOL    HW214060   3.240   2.091   1.716 -0.0974 -1.3572 -0.2508
 3572SOL    HW314061   3.097   2.140   1.711  0.2882 -0.1266  0.2272
 3572SOL    MW414062   3.177   2.135   1.676 -0.3778 -0.1969 -0.2688
 3573SOL     OW14063   3.391   0.873   1.243  0.3481 -0.8186 -0.5632
 3573SOL    HW214064   3.385   0.843   1.334 -0.1346  0.6402 -0.0817
 3573SOL    HW314065   3.420   0.964   1.250  0.9568 -0.8876 -1.9134
 3573SOL    MW414066   3.394   0.881   1.256  0.0721 -0.3171 -0.0638
 3574SOL     OW14067   3.842   4.522   4.665 -0.1843  0.1040 -0.7053
 3574SOL    HW214068   3.780   4.542   4.595 -0.4821  0.0723 -0.4526
 3574SOL    HW314069   3.924   4.562   4.637 -0.6755  1.4032 -0.3732
 3574SOL    MW414070   3.845   4.530   4.652  0.1777 -0.2374 -0.1190
 3575SOL     OW14071   3.513   1.785   0.787 -0.4206 -0.0478  0.0335
 3575SOL    HW214072   3.428   1.812   0.821 -0.5123  0.9503 -0.9323
 3575SOL    HW314073   3.576   1.819   0.850 -0.6166  1.3422 -0.4903
 3575SOL    MW414074   3.510   1.793   0.800 -0.0108 -0.1977 -0.1646
 3576SOL     OW14075   5.698   5.576   6.408  0.4695  0.2587 -0.8733
 3576SOL    HW214076   5.713   5.647   6.471  1.2277  0.4028 -1.2049
 3576SOL    HW314077   5.743   5.501   6.446 -1.5593 -0.5000  0.2232
 3576SOL    MW414078   5.706   5.575   6.422 -0.2465  0.0025  0.4669
 3577SOL     OW14079   3.337   5.833   3.958 -0.0546  0.3740  0.1502
 3577SOL    HW214080   3.308   5.744   3.976 -0.2700  0.2072 -0.9887
 3577SOL    HW314081   3.426   5.836   3.992 -0.3767  0.0182  1.0563
 3577SOL    MW414082   3.345   5.822   3.965 -0.1932  0.0885 -0.3227
 3578SOL     OW14083   0.790   5.528   3.234 -0.3490  0.2432 -0.1960
 3578SOL    HW214084   0.836   5.516   3.151 -0.8961 -0.2787 -0.4280
 3578SOL    HW314085   0.842   5.478   3.297 -0.9124 -0.8327 -0.5700
 3578SOL    MW414086   0.803   5.520   3.231 -0.3003  0.6668 -0.1963
 3579SOL     OW14087   6.361   1.230   5.935  0.4018 -0.7535  0.0067
 3579SOL    HW214088   6.452   1.203   5.946  0.7765  0.4599 -0.0531
 3579SOL    HW314089   6.320   1.157   5.888  1.0324 -1.8508  1.1134
 3579SOL    MW414090   6.367   1.217   5.930  0.2478 -0.0370 -0.0980
 3580SOL     OW14091   3.479   1.467   0.070 -0.5540 -0.1907 -0.0400
 3580SOL    HW214092   3.474   1.506   0.157 -1.0306  1.8496 -0.9218
 3580SOL    HW314093   3.415   1.395   0.071  1.1568 -1.8201  1.9912
 3580SOL    MW414094   3.470   1.462   0.081  0.2847  0.1232 -0.2266
 3581SOL     OW14095   4.308   1.038   3.529  0.3808  0.0581 -0.4510
 3581SOL    HW214096   4.398   1.063   3.506  0.1520  0.5383 -0.8239
 3581SOL    HW314097   4.267   1.119   3.558 -0.7199  0.3889 -2.7598
 3581SOL    MW414098   4.315   1.052   3.530 -0.0473  0.5096 -0.6761
 3582SOL     OW14099   3.158   5.256   2.073 -0.8082  0.2208 -0.0565
 3582SOL    HW214100   3.084   5.208   2.109 -0.6518  0.7526  0.9935
 3582SOL    HW314101   3.152   5.241   1.978 -2.1560  0.1273  0.0280
 3582SOL    MW414102   3.147   5.248   2.065 -0.4149  0.3562 -0.0682
 3583SOL     OW14103   5.208   2.833   1.814  0.1560  0.1943 -0.2306
 3583SOL    HW214104   5.213   2.876   1.899 -0.0449  1.0345 -0.6319
 3583SOL    HW314105   5.115   2.826   1.796  0.1960 -0.0467 -0.3447
 3583SOL    MW414106   5.197   2.838   1.823 -0.9932 -0.3978  0.2379
 3584SOL     OW14107   5.767   0.198   0.351  0.3065 -0.1873 -0.2106
 3584SOL    HW214108   5.843   0.150   0.384 -0.6405 -1.2561  0.5472
 3584SOL    HW314109   5.744   0.258   0.422  0.8424  0.6323 -0.7201
 3584SOL    MW414110   5.774   0.199   0.365  0.1089 -0.2236  0.0807
 3585SOL     OW14111   2.665   2.055   1.661 -0.7775  0.3608  0.2482
 3585SOL    HW214112   2.634   2.134   1.705 -2.9741 -0.6005  0.5648
 3585SOL    HW314113   2.729   2.087   1.597 -0.6238  2.2260  1.2530
 3585SOL    MW414114   2.669   2.070   1.658  0.3140 -0.9864  0.0770
 3586SOL     OW14115   4.398   5.643   0.345  0.2199 -0.3537  0.7457
 3586SOL    HW214116   4.325   5.581   0.346  1.1110 -1.4916 -0.7329
 3586SOL    HW314117   4.455   5.613   0.417 -0.1995 -0.1640  1.1626
 3586SOL    MW414118   4.396   5.631   0.355  0.0569  0.4805 -0.5885
 3587SOL     OW14119   2.956   5.939   3.261 -0.8806  0.3325 -0.5208
 3587SOL    HW214120   3.000   5.878   3.203 -1.5507  1.4485 -2.2885
 3587SOL    HW314121   2.982   6.026   3.229 -2.8948  1.0008 -0.4932
 3587SOL    MW414122   2.966   5.942   3.249  0.6141 -0.1097 -0.0235
 3588SOL     OW14123   1.352   6.279   5.766  0.0911  0.0017  0.5759
 3588SOL    HW214124   1.334   6.351   5.825 -0.8031 -0.4075  0.8252
 3588SOL    HW314125   1.266   6.252   5.734  0.5949  1.3222 -2.2793
 3588SOL    MW414126   1.338   6.285   5.769  0.1877  0.0889  0.3625
 3589SOL     OW14127   0.391   6.286   5.364  0.4722  0.0414 -0.2201
 3589SOL    HW214128   0.334   6.262   5.291 -0.2197  1.5743 -0.2130
 3589SOL    HW314129   0.331   6.299   5.438  1.0671 -0.4903  0.3771
 3589SOL    MW414130   0.376   6.285   5.364  0.0760 -0.6074 -0.5467
 3590SOL     OW14131   2.653   5.416   0.746  0.0124 -0.1884 -0.0615
 3590SOL    HW214132   2.693   5.442   0.829  0.4325  0.0800 -0.3448
 3590SOL    HW314133   2.649   5.497   0.696  0.3656 -0.4753 -0.5572
 3590SOL    MW414134   2.658   5.430   0.750  0.1784  0.7373  0.1689
 3591SOL     OW14135   5.262   1.632   5.350  0.0561 -0.8302  0.1226
 3591SOL    HW214136   5.182   1.668   5.387  0.0717  0.4354 -0.9712
 3591SOL    HW314137   5.330   1.696   5.375  0.0383  0.1457 -2.1279
 3591SOL    MW414138   5.261   1.645   5.359 -0.8991  0.1655  0.6441
 3592SOL     OW14139   4.617   1.840   5.741 -0.6622  0.2271 -0.2901
 3592SOL    HW214140   4.545   1.825   5.679 -1.4038  1.6735  0.1651
 3592SOL    HW314141   4.633   1.934   5.737 -0.0508  0.1984  0.9820
 3592SOL    MW414142   4.609   1.850   5.733 -0.4795  0.1767  0.4218
 3593SOL     OW14143   0.917   3.250   4.750 -0.0034  0.4117  0.2252
 3593SOL    HW214144   0.858   3.288   4.815 -0.5171 -0.1945  0.1274
 3593SOL    HW314145   1.001   3.241   4.795 -0.1395  0.7579  0.5467
 3593SOL    MW414146   0.920   3.254   4.765 -0.3328  0.4765  0.6291
 3594SOL     OW14147   0.853   4.434   3.183 -0.0165 -0.4272 -1.0610
 3594SOL    HW214148   0.836   4.480   3.101  0.7623  0.6727 -0.6307
 3594SOL    HW314149   0.941   4.398   3.174 -0.3920 -1.3330 -1.1628
 3594SOL    MW414150   0.862   4.435   3.171  0.1234 -0.0815  0.0646
 3595SOL     OW14151   0.295   2.959   1.706  0.2803 -0.4972 -0.3173
 3595SOL    HW214152   0.272   2.986   1.794 -0.5267 -0.7290 -0.4445
 3595SOL    HW314153   0.388   2.977   1.698  0.1920  0.2483  0.3113
 3595SOL    MW414154   0.304   2.965   1.716 -0.2947  0.4139 -0.4417
 3596SOL     OW14155   0.021   2.230   2.129 -0.1998 -0.7025  0.6013
 3596SOL    HW214156   0.059   2.185   2.205  2.3928  1.3044  0.6068
 3596SOL    HW314157   0.070   2.197   2.054  1.0819  1.2931  0.4970
 3596SOL    MW414158   0.032   2.219   2.129  0.3273  0.7389  0.4366
 3597SOL     OW14159   6.085   4.334   1.439 -0.7468 -0.3352 -0.3828
 3597SOL    HW214160   6.083   4.238   1.433 -0.7550 -0.6057  2.5206
 3597SOL    HW314161   6.013   4.355   1.499 -1.5938  1.6624 -1.9907
 3597SOL    MW414162   6.075   4.324   1.446 -0.1805 -0.2924  0.1815
 3598SOL     OW14163   5.386   2.029   2.479  0.0746  0.2299 -0.0020
 3598SOL    HW214164   5.390   2.042   2.573  1.6842 -0.1042 -0.0019
 3598SOL    HW314165   5.463   1.975   2.458 -0.4835 -0.0686 -1.4440
 3598SOL    MW414166   5.397   2.023   2.488  0.5029 -0.1198 -0.3073
 3599SOL     OW14167   0.787   5.099   4.589 -0.1945 -0.1335 -0.4590
 3599SOL    HW214168   0.713   5.091   4.529 -1.0640 -1.2838  0.7096
 3599SOL    HW314169   0.769   5.178   4.640 -0.5911 -0.3508 -0.2526
 3599SOL    MW414170   0.775   5.108   4.588  0.4511  0.5985 -0.0484
 3600SOL     OW14171   4.406   5.127   5.140 -0.4181  0.0263 -0.6949
 3600SOL    HW214172   4.489   5.142   5.095  1.4484 -2.0751  1.6901
 3600SOL    HW314173   4.373   5.045   5.102 -1.5730  0.9378 -1.7495
 3600SOL    MW414174   4.413   5.118   5.129  0.5846  0.1735  0.2817
 3601SOL     OW14175   0.162   5.325   5.404  0.5618 -0.2915 -0.4402
 3601SOL    HW214176   0.110   5.356   5.330  0.7228 -1.0552 -0.8772
 3601SOL    HW314177   0.108   5.258   5.445 -0.4846  1.5704  1.4585
 3601SOL    MW414178   0.148   5.320   5.400 -0.2912 -0.4680  0.1671
 3602SOL     OW14179   2.735   4.505   5.626 -0.6771 -0.4099 -0.1048
 3602SOL    HW214180   2.789   4.568   5.578  1.4094 -1.1869  1.1155
 3602SOL    HW314181   2.753   4.421   5.584 -1.0815 -0.6710  0.2330
 3602SOL    MW414182   2.744   4.502   5.614 -0.7235 -0.1794  0.1418
 3603SOL     OW14183   5.167   5.537   2.277  0.2101 -0.5301  0.3414
 3603SOL    HW214184   5.185   5.573   2.365  0.8043  1.6527 -0.5963
 3603SOL    HW314185   5.235   5.472   2.263 -0.3708 -1.4916  1.7958
 3603SOL    MW414186   5.178   5.533   2.287 -0.9168 -0.8834  0.0027
 3604SOL     OW14187   0.410   2.169   0.153  1.0121  0.0639 -0.4667
 3604SOL    HW214188   0.381   2.079   0.167  1.9614 -0.3564 -1.1582
 3604SOL    HW314189   0.339   2.223   0.189  0.1771 -0.9473 -0.5662
 3604SOL    MW414190   0.397   2.164   0.160 -0.6081 -0.1439  0.9472
 3605SOL     OW14191   4.443   2.025   0.234  0.0963  0.0596  0.1659
 3605SOL    HW214192   4.442   2.121   0.238  1.5119  0.1118 -0.1691
 3605SOL    HW314193   4.403   1.997   0.316 -2.0959  0.9054 -0.5466
 3605SOL    MW414194   4.438   2.034   0.245  0.0674  0.1764  0.2292
 3606SOL     OW14195   4.472   1.874   3.417  0.2108  0.4493 -0.4985
 3606SOL    HW214196   4.546   1.820   3.389  0.9506  1.5442 -0.7158
 3606SOL    HW314197   4.510   1.959   3.436 -0.4248  0.1233  2.7482
 3606SOL    MW414198   4.487   1.878   3.416  0.3980 -0.2915 -0.4541
 3607SOL     OW14199   5.017   5.184   5.033  0.1200  0.2317 -0.5765
 3607SOL    HW214200   5.047   5.260   4.983 -0.5359 -0.2794 -1.8016
 3607SOL    HW314201   5.071   5.184   5.111 -1.2551  3.2146  0.5527
 3607SOL    MW414202   5.028   5.194   5.037 -0.4085 -0.0254  0.2308
 3608SOL     OW14203   0.841   0.517   1.262  0.5526  0.9023 -0.3644
 3608SOL    HW214204   0.790   0.445   1.224  0.0983  1.4145 -0.7429
 3608SOL    HW314205   0.808   0.595   1.218  0.1385  1.4951  0.9370
 3608SOL    MW414206   0.830   0.518   1.251 -0.2168  0.3158  0.3622
 3609SOL     OW14207   2.446   5.358   1.440  0.3894  0.6846 -0.0543
 3609SOL    HW214208   2.406   5.384   1.357 -2.5982  0.1949  1.1095
 3609SOL    HW314209   2.403   5.277   1.464  2.8002 -0.4079  0.9619
 3609SOL    MW414210   2.435   5.351   1.432 -0.2447 -0.7279 -0.5821
 3610SOL     OW14211   1.333   4.344   3.132 -0.1119 -0.4756 -0.8321
 3610SOL    HW214212   1.336   4.422   3.188 -0.5025 -0.5468 -0.7127
 3610SOL    HW314213   1.408   4.354   3.073  1.3663 -1.2417  0.8267
 3610SOL    MW414214   1.344   4.355   3.131 -0.4145  0.4168  0.2221
 3611SOL     OW14215   2.674   4.100   0.354 -0.1396  0.0640 -0.0558
 3611SOL    HW214216   2.759   4.068   0.323 -0.0592 -0.5948  0.8061
 3611SOL    HW314217   2.671   4.074   0.446 -0.2859  2.0969  0.5656
 3611SOL    MW414218   2.685   4.093   0.362 -0.1383  0.1675 -0.1909
 3612SOL     OW14219   3.006   2.135   1.992 -0.4199 -0.4204  0.2866
 3612SOL    HW214220   2.977   2.084   1.916 -0.4166  0.3132 -0.2169
 3612SOL    HW314221   3.061   2.074   2.042 -0.9455 -1.1077  0.0438
 3612SOL    MW414222   3.009   2.120   1.989  0.4764 -0.1451  0.6956
 3613SOL     OW14223   0.430   4.918   3.610 -0.2481 -0.2236 -0.2382
 3613SOL    HW214224   0.497   4.980   3.580 -0.5973  0.6482  0.7214
 3613SOL    HW314225   0.478   4.854   3.662  0.0136 -0.3382 -0.6144
 3613SOL    MW414226   0.445   4.918   3.613  0.2612 -0.3362 -0.5267
 3614SOL     OW14227   3.422   2.627   3.707  0.2858 -0.0197  0.4039
 3614SOL    HW214228   3.417   2.713   3.665  2.3088 -0.8490 -1.7129
 3614SOL    HW314229   3.358   2.573   3.661  0.4814 -0.1888  0.3297
 3614SOL    MW414230   3.413   2.631   3.696 -0.9444 -0.1500 -0.2176
 3615SOL     OW14231   1.433   5.644   0.753  0.9621 -0.4805 -0.0866
 3615SOL    HW214232   1.395   5.637   0.841  1.4908  0.0807  0.1952
 3615SOL    HW314233   1.417   5.735   0.727  0.5950 -0.7053 -0.6789
 3615SOL    MW414234   1.426   5.655   0.761 -0.5997  0.3283 -0.2330
 3616SOL     OW14235   2.563   5.778   1.301 -0.3881  0.2515  0.2395
 3616SOL    HW214236   2.522   5.860   1.329 -1.4138  0.2564 -1.1685
 3616SOL    HW314237   2.546   5.773   1.207  0.6281 -1.0394  0.0901
 3616SOL    MW414238   2.555   5.788   1.293 -0.2694 -0.1019  0.3972
 3617SOL     OW14239   2.167   1.484   3.701 -0.2910  0.1209 -0.4335
 3617SOL    HW214240   2.147   1.401   3.744 -2.8307  0.7533 -0.2211
 3617SOL    HW314241   2.187   1.544   3.772 -1.2844  0.3714 -0.3557
 3617SOL    MW414242   2.167   1.481   3.716 -0.0487  0.4490  0.0719
 3618SOL     OW14243   3.948   3.031   0.269  0.2871 -0.7684 -0.3229
 3618SOL    HW214244   3.902   3.018   0.187 -0.7394  2.5419 -0.4071
 3618SOL    HW314245   4.026   3.081   0.245 -0.0373  0.2593  0.6639
 3618SOL    MW414246   3.952   3.036   0.255 -0.2117 -0.1403  0.4817
 3619SOL     OW14247   3.829   2.295   3.641 -0.3694  0.6008  0.0325
 3619SOL    HW214248   3.804   2.205   3.662  1.3797  0.1810  0.4659
 3619SOL    HW314249   3.795   2.309   3.553 -0.1960 -0.6834 -0.2592
 3619SOL    MW414250   3.821   2.285   3.632  0.1198 -0.3671  0.2273
 3620SOL     OW14251   1.381   3.496   2.704  0.1298  0.5530 -0.0035
 3620SOL    HW214252   1.386   3.487   2.799 -0.9133  0.0958  0.0150
 3620SOL    HW314253   1.442   3.567   2.684 -0.3056  1.2529  1.0918
 3620SOL    MW414254   1.390   3.504   2.714  0.0287 -0.1596 -0.1888
 3621SOL     OW14255   6.000   6.006   6.209  0.4793 -0.5974 -0.4337
 3621SOL    HW214256   6.081   6.057   6.211 -0.5221  1.0461  0.8412
 3621SOL    HW314257   5.956   6.033   6.128  0.5594 -0.4206 -0.4179
 3621SOL    MW414258   6.005   6.016   6.198 -0.0298 -0.1673  0.3609
 3622SOL     OW14259   4.810   0.967   1.270  0.1701 -0.3043 -0.3509
 3622SOL    HW214260   4.806   1.013   1.186 -1.8002 -0.0556 -0.1616
 3622SOL    HW314261   4.779   0.879   1.251  1.0425 -0.6723 -0.1236
 3622SOL    MW414262   4.806   0.962   1.256 -0.5549  0.4250 -0.4940
 3623SOL     OW14263   3.648   3.413   0.891 -0.0863  0.3043  0.3355
 3623SOL    HW214264   3.660   3.328   0.849  0.6250  0.4413  0.2472
 3623SOL    HW314265   3.553   3.423   0.898 -0.1787 -0.7577  0.8880
 3623SOL    MW414266   3.637   3.403   0.887 -0.0754 -0.2097  0.1751
 3624SOL     OW14267   5.017   2.093   2.936 -0.3010 -0.3351 -0.0033
 3624SOL    HW214268   5.008   2.130   2.848  0.3961 -0.8554 -0.3086
 3624SOL    HW314269   5.102   2.123   2.967 -0.4525 -0.3250  0.4128
 3624SOL    MW414270   5.027   2.102   2.928  0.2201  0.4426  0.0620
 3625SOL     OW14271   5.639   0.289   3.016  0.8186  0.0446  0.0081
 3625SOL    HW214272   5.688   0.254   2.941 -0.8299  0.3753 -1.2883
 3625SOL    HW314273   5.598   0.368   2.983 -1.6255 -0.8876  0.5841
 3625SOL    MW414274   5.640   0.295   3.002  1.2499 -0.2100 -0.2643
 3626SOL     OW14275   6.422   5.333   2.805  0.7845  0.1602  0.5654
 3626SOL    HW214276   6.435   5.287   2.888  0.3633  1.1487  1.1932
 3626SOL    HW314277   6.410   5.425   2.830  1.5752  0.6204 -0.6548
 3626SOL    MW414278   6.422   5.339   2.820  0.1144 -0.1202  0.3258
 3627SOL     OW14279   6.284   1.545   5.340  0.1463 -0.1211 -0.2259
 3627SOL    HW214280   6.258   1.634   5.317  1.5029  0.7175  1.3021
 3627SOL    HW314281   6.224   1.489   5.290 -2.4038  1.6298  0.6510
 3627SOL    MW414282   6.273   1.549   5.330 -0.0679  0.2850  0.3646
 3628SOL     OW14283   2.381   2.484   5.407  0.3568  0.1385 -0.4408
 3628SOL    HW214284   2.340   2.571   5.404  0.4138  0.2381  1.1881
 3628SOL    HW314285   2.326   2.433   5.467 -0.5708 -1.4703 -2.5173
 3628SOL    MW414286   2.368   2.489   5.414 -0.1064 -0.2967  0.0506
 3629SOL     OW14287   1.909   6.127   0.367  0.0515 -0.4220  0.6277
 3629SOL    HW214288   1.829   6.081   0.390  1.0969 -4.5545 -2.6536
 3629SOL    HW314289   1.976   6.089   0.424  0.6470 -2.0156 -1.0237
 3629SOL    MW414290   1.907   6.116   0.377  0.2156  0.7220 -0.5239
 3630SOL     OW14291   0.129   2.815   6.310  0.3007  0.2413 -0.7790
 3630SOL    HW214292   0.208   2.761   6.320  0.5826  0.9248  1.1891
 3630SOL    HW314293   0.154   2.881   6.245  1.0282 -0.1371 -0.8972
 3630SOL    MW414294   0.143   2.817   6.303  0.1273  0.1594  0.0737
 3631SOL     OW14295   3.496   0.895   3.844 -0.2579  0.5197 -0.3452
 3631SOL    HW214296   3.542   0.938   3.916 -0.3622  0.9646 -0.5387
 3631SOL    HW314297   3.554   0.905   3.769  0.6110 -1.4022  0.0325
 3631SOL    MW414298   3.510   0.902   3.843  0.7127 -0.5444 -0.6341
 3632SOL     OW14299   5.279   3.597   5.090 -0.0421 -0.4597  0.0085
 3632SOL    HW214300   5.337   3.602   5.014 -1.0574  3.4171 -0.7387
 3632SOL    HW314301   5.328   3.546   5.154  2.5984 -0.4436 -1.8434
 3632SOL    MW414302   5.293   3.591   5.089  0.1076 -0.4472  0.3774
 3633SOL     OW14303   5.210   1.277   4.006  0.8017  0.2734  0.2264
 3633SOL    HW214304   5.247   1.326   4.080 -0.4820  0.1192  1.0024
 3633SOL    HW314305   5.284   1.263   3.947  1.2644  3.0519  0.0080
 3633SOL    MW414306   5.225   1.282   4.008  0.6716 -0.3897 -0.5518
 3634SOL     OW14307   6.238   1.988   5.747  0.1532 -0.3090  0.4392
 3634SOL    HW214308   6.279   2.016   5.664 -0.5975 -0.8702 -0.1375
 3634SOL    HW314309   6.287   2.035   5.814  0.4928  0.5125 -0.3488
 3634SOL    MW414310   6.250   1.998   5.745 -0.0252  0.1677 -0.2666
 3635SOL     OW14311   1.906   5.719   1.147  0.1630 -0.4014 -0.5213
 3635SOL    HW214312   1.956   5.704   1.227 -1.0280 -0.9364  0.1440
 3635SOL    HW314313   1.893   5.632   1.109  0.3719 -0.1943 -1.0783
 3635SOL    MW414314   1.911   5.706   1.152  0.6183  0.1299  0.1583
 3636SOL     OW14315   0.628   2.551   2.538  0.1078  0.4054  0.4232
 3636SOL    HW214316   0.580   2.534   2.619 -2.7900  3.6173 -0.3821
 3636SOL    HW314317   0.700   2.608   2.565  0.2507  0.0053  0.9217
 3636SOL    MW414318   0.631   2.556   2.552  0.5388 -0.1415 -0.2569
 3637SOL     OW14319   0.065   1.499   1.890  0.2242  0.0495  0.4514
 3637SOL    HW214320  -0.030   1.509   1.887  0.3173  0.7643 -0.7494
 3637SOL    HW314321   0.090   1.479   1.800  1.1251 -1.1432  0.9401
 3637SOL    MW414322   0.055   1.498   1.877  0.3006  0.7076 -0.5461
 3638SOL     OW14323   4.921   5.502   4.896 -0.2755  0.1987 -0.0647
 3638SOL    HW214324   4.951   5.585   4.934  0.0025 -0.3225  0.8939
 3638SOL    HW314325   5.001   5.453   4.878 -0.4642 -0.3708  0.5773
 3638SOL    MW414326   4.935   5.506   4.898  0.0124  0.1726  0.5599
 3639SOL     OW14327   4.023   3.727   6.015  0.8934  0.0052  0.2320
 3639SOL    HW214328   4.057   3.793   5.954 -0.0393 -1.4886 -2.0321
 3639SOL    HW314329   3.928   3.736   6.010  0.7727  0.5569  2.3747
 3639SOL    MW414330   4.015   3.737   6.007 -0.8474 -0.0116 -0.1739
 3640SOL     OW14331   0.443   2.147   2.693 -0.4930  0.6484 -0.3924
 3640SOL    HW214332   0.402   2.060   2.699 -2.5107  1.4792 -1.3593
 3640SOL    HW314333   0.421   2.178   2.606  1.3362  1.6276 -0.5405
 3640SOL    MW414334   0.435   2.139   2.683 -0.3080 -0.8807 -0.4168
 3641SOL     OW14335   4.530   1.084   2.502  0.4621 -0.2596 -0.0438
 3641SOL    HW214336   4.464   1.123   2.559  0.0502 -0.7865 -0.1493
 3641SOL    HW314337   4.543   1.149   2.432  0.7690  0.2658  0.4917
 3641SOL    MW414338   4.523   1.098   2.500  0.2659  0.4960 -0.4289
 3642SOL     OW14339   4.915   2.955   4.368 -0.3895  0.6637 -0.3748
 3642SOL    HW214340   4.914   3.049   4.351 -2.4347  0.6679 -0.5619
 3642SOL    HW314341   4.836   2.922   4.324 -1.4387 -0.5991  2.2118
 3642SOL    MW414342   4.904   2.963   4.360  0.3414 -0.3514 -0.1269
 3643SOL     OW14343   0.050   4.145   4.108  0.5271  0.0605  0.3039
 3643SOL    HW214344   0.058   4.126   4.202 -2.7364 -1.8903  0.3170
 3643SOL    HW314345   0.062   4.061   4.065  1.1616  0.7974 -1.0394
 3643SOL    MW414346   0.053   4.132   4.115 -0.3008  0.0282  0.4334
 3644SOL     OW14347   1.043   1.939   1.439  0.2827  0.0435 -0.2819
 3644SOL    HW214348   1.026   2.030   1.462  0.5911 -0.4969  2.3555
 3644SOL    HW314349   1.137   1.928   1.451  0.2013 -0.7028 -0.2368
 3644SOL    MW414350   1.053   1.949   1.443  0.0660  0.3310  0.4868
 3645SOL     OW14351   6.036   3.550   1.762  0.5042  0.1132 -0.3147
 3645SOL    HW214352   6.074   3.569   1.848  0.4413 -0.4741 -0.1545
 3645SOL    HW314353   6.109   3.563   1.701  1.3916 -2.2968  0.1119
 3645SOL    MW414354   6.051   3.554   1.765  0.4987 -0.2848 -0.1872
 3646SOL     OW14355   2.275   4.408   4.774 -0.2928 -0.7412 -0.3182
 3646SOL    HW214356   2.320   4.469   4.832  1.0281  1.0095 -2.9951
 3646SOL    HW314357   2.339   4.338   4.758 -0.1027 -0.4588 -0.8011
 3646SOL    MW414358   2.290   4.407   4.780  0.3375  0.0033 -0.3845
 3647SOL     OW14359   4.833   4.789   1.265  0.5040  0.2121  0.3571
 3647SOL    HW214360   4.885   4.713   1.242  1.5578  0.9640  0.1703
 3647SOL    HW314361   4.743   4.756   1.274  0.3628 -0.5401 -2.7395
 3647SOL    MW414362   4.828   4.775   1.263 -0.2669 -0.2314 -0.6968
 3648SOL     OW14363   0.474   3.642   6.212 -0.0956  0.3420  0.6531
 3648SOL    HW214364   0.513   3.613   6.129  1.3061  1.6585  0.8033
 3648SOL    HW314365   0.444   3.562   6.254  0.1761 -0.4680 -0.6374
 3648SOL    MW414366   0.475   3.628   6.206 -0.2544  0.1962 -0.7561
 3649SOL     OW14367   3.238   2.358   5.305 -0.4003  0.0867 -0.6498
 3649SOL    HW214368   3.320   2.359   5.255  0.5966 -0.2207  0.9095
 3649SOL    HW314369   3.173   2.322   5.245  1.1732 -2.1220 -1.1324
 3649SOL    MW414370   3.240   2.353   5.291  0.4131  0.4110  0.4728
 3650SOL     OW14371   1.011   5.437   6.112 -0.2843  0.5106  0.1026
 3650SOL    HW214372   1.091   5.435   6.164  0.7560 -0.7201 -1.4761
 3650SOL    HW314373   1.041   5.448   6.022 -1.8509 -0.5647 -0.5811
 3650SOL    MW414374   1.025   5.439   6.107 -0.1175  0.1879  0.3764
 3651SOL     OW14375   5.322   5.084   6.308 -0.1628  0.4447  0.0812
 3651SOL    HW214376   5.410   5.048   6.299 -0.6514 -0.8046  0.0920
 3651SOL    HW314377   5.326   5.136   6.389 -0.0774 -1.6981  1.5455
 3651SOL    MW414378   5.334   5.086   6.318 -0.0122 -0.2309  0.0368
 3652SOL     OW14379   1.816   1.478   2.054 -0.2652 -0.3847  0.0806
 3652SOL    HW214380   1.750   1.425   2.097 -1.7393  1.6967  0.5546
 3652SOL    HW314381   1.825   1.556   2.109 -0.2420  1.1279 -1.9300
 3652SOL    MW414382   1.809   1.481   2.067 -0.1818  0.0692 -0.3292
 3653SOL     OW14383   4.542   1.529   5.513 -0.2315  0.6731 -0.2033
 3653SOL    HW214384   4.615   1.556   5.458  0.2808  1.5274  0.8633
 3653SOL    HW314385   4.492   1.609   5.529  0.4867  0.7752  1.7951
 3653SOL    MW414386   4.545   1.543   5.508  0.2553 -0.1680  0.2675
 3654SOL     OW14387   4.757   0.106   4.060  0.3179 -0.6934  0.3264
 3654SOL    HW214388   4.747   0.151   4.144  0.5100  0.2436 -0.1343
 3654SOL    HW314389   4.675   0.123   4.014  0.7687  0.0565 -0.2377
 3654SOL    MW414390   4.745   0.114   4.065  0.2692  0.0661 -0.5867
 3655SOL     OW14391   6.281   0.945   0.970 -0.1200  0.5827  0.1942
 3655SOL    HW214392   6.308   0.918   1.058 -0.1872  1.1917  0.4084
 3655SOL    HW314393   6.353   0.919   0.913 -0.1665  0.0014  0.4005
 3655SOL    MW414394   6.294   0.938   0.974 -0.3521 -0.0840 -0.2935
 3656SOL     OW14395   5.002   4.280   1.244  0.0177 -0.0368  0.2822
 3656SOL    HW214396   4.953   4.209   1.203 -2.1038  0.1563  2.3062
 3656SOL    HW314397   5.080   4.238   1.280  1.1784 -0.4610 -2.4282
 3656SOL    MW414398   5.006   4.265   1.243 -0.2064 -0.1438 -0.1151
 3657SOL     OW14399   1.107   3.295   2.057  0.0170  0.3348 -0.1075
 3657SOL    HW214400   1.151   3.255   2.132 -0.9709 -0.7512 -0.0851
 3657SOL    HW314401   1.027   3.245   2.046 -0.5567  1.3977 -1.0090
 3657SOL    MW414402   1.102   3.284   2.065 -0.1093 -0.5502 -0.1608
 3658SOL     OW14403   0.350   4.954   6.348  0.0233  0.1110 -0.4165
 3658SOL    HW214404   0.386   5.014   6.282  1.3927 -1.7886 -1.5332
 3658SOL    HW314405   0.294   4.895   6.298  1.5693 -1.7551 -0.0872
 3658SOL    MW414406   0.347   4.954   6.333  0.1740  0.5271 -0.1117
 3659SOL     OW14407   4.988   4.316   2.788 -0.0198 -0.0957 -0.4150
 3659SOL    HW214408   5.001   4.354   2.701 -2.7961  0.6955 -0.5670
 3659SOL    HW314409   5.045   4.368   2.845  0.4953  0.5321 -1.4701
 3659SOL    MW414410   4.997   4.328   2.784 -0.3819 -0.0305 -0.5410
 3660SOL     OW14411   1.332   0.103   2.838  0.3960 -0.5240 -0.5633
 3660SOL    HW214412   1.330   0.170   2.907  0.8497  0.8756 -1.8369
 3660SOL    HW314413   1.249   0.113   2.792  1.9091  1.9427 -3.1501
 3660SOL    MW414414   1.321   0.113   2.841 -0.4597  0.2673 -0.3768
 3661SOL     OW14415   3.325   2.824   0.359  0.0139 -0.4793 -0.4656
 3661SOL    HW214416   3.283   2.891   0.304 -0.3816  0.9434  1.4657
 3661SOL    HW314417   3.253   2.788   0.411  0.6315 -0.5437  0.3553
 3661SOL    MW414418   3.310   2.828   0.358  0.3457 -0.6600 -0.2302
 3662SOL     OW14419   0.747   4.666   4.228 -0.4035 -0.1735 -0.3589
 3662SOL    HW214420   0.737   4.712   4.145 -1.9189 -0.4434 -0.3634
 3662SOL    HW314421   0.765   4.735   4.292  1.2502 -0.0095 -0.9508
 3662SOL    MW414422   0.748   4.681   4.226 -0.2072  0.3831  0.1769
 3663SOL     OW14423   2.783   2.108   3.122  0.2991  0.3881  0.1777
 3663SOL    HW214424   2.750   2.110   3.212 -0.1515  3.5067  0.0576
 3663SOL    HW314425   2.860   2.051   3.126 -0.0653 -0.0636  2.3719
 3663SOL    MW414426   2.789   2.100   3.135 -0.0850  0.6412 -0.1296
 3664SOL     OW14427   3.243   0.504   5.563 -0.2432 -0.2855  0.4647
 3664SOL    HW214428   3.202   0.480   5.480 -0.5693 -1.2856  0.8893
 3664SOL    HW314429   3.336   0.486   5.550 -0.0030  1.3437 -0.2813
 3664SOL    MW414430   3.250   0.498   5.550  0.1468  0.0726  0.5533
 3665SOL     OW14431   3.519   2.070   3.231  0.2007  0.5727  0.1974
 3665SOL    HW214432   3.563   1.985   3.233  1.3676  1.1725  1.1291
 3665SOL    HW314433   3.587   2.132   3.255 -0.1815  1.9976 -2.1371
 3665SOL    MW414434   3.534   2.067   3.234  0.7233  0.3738 -0.0425
 3666SOL     OW14435   1.465   4.606   1.892  0.7330 -0.1980 -0.6124
 3666SOL    HW214436   1.407   4.612   1.967  2.3358 -0.4816  0.6967
 3666SOL    HW314437   1.514   4.525   1.906 -0.9763 -1.9139 -3.5105
 3666SOL    MW414438   1.464   4.596   1.903 -0.5211 -0.3004  0.1075
 3667SOL     OW14439   5.045   5.094   2.993 -0.2699 -0.2397  0.4024
 3667SOL    HW214440   5.135   5.122   3.007  0.0707 -0.9964 -0.2249
 3667SOL    HW314441   5.000   5.118   3.075  0.2609  1.0127  0.3592
 3667SOL    MW414442   5.051   5.101   3.006 -0.4597 -0.4911  0.3775
 3668SOL     OW14443   0.656   3.566   5.111 -0.2732  0.3852 -0.1730
 3668SOL    HW214444   0.701   3.504   5.054 -2.3493 -1.3403 -0.0523
 3668SOL    HW314445   0.675   3.652   5.073  0.5992 -0.5137 -1.8556
 3668SOL    MW414446   0.664   3.569   5.099 -0.3251 -0.6992 -0.1461
 3669SOL     OW14447   5.202   5.110   0.945  0.3079  0.1039 -0.3394
 3669SOL    HW214448   5.275   5.114   1.008 -1.4831 -1.9624  2.1024
 3669SOL    HW314449   5.181   5.017   0.939 -1.2919  0.5123 -2.0505
 3669SOL    MW414450   5.209   5.098   0.953 -0.1040 -0.5047 -0.5255
 3670SOL     OW14451   1.473   2.787   6.325 -0.2486 -0.0358  0.1509
 3670SOL    HW214452   1.545   2.794   6.388  0.2608  1.2969 -0.5273
 3670SOL    HW314453   1.502   2.720   6.263 -0.2612 -0.5624  0.7055
 3670SOL    MW414454   1.487   2.779   6.325  0.0913 -0.2830  0.1853
 3671SOL     OW14455   6.260   6.056   5.726 -0.1838  0.0686  0.0364
 3671SOL    HW214456   6.298   5.983   5.676 -2.3096  0.5225 -2.4594
 3671SOL    HW314457   6.298   6.135   5.685 -1.2119  0.4404 -0.2167
 3671SOL    MW414458   6.270   6.057   5.714 -0.3017  0.5874 -0.4332
 3672SOL     OW14459   5.291   3.891   6.320 -0.1635  0.2350  0.5806
 3672SOL    HW214460   5.290   3.964   6.259  0.4847  1.3137  1.8110
 3672SOL    HW314461   5.381   3.888   6.354 -0.7383  0.3120  2.2046
 3672SOL    MW414462   5.303   3.900   6.317  0.0690 -0.0471 -0.1806
 3673SOL     OW14463   3.259   2.588   6.068  0.2825 -0.3327 -0.2136
 3673SOL    HW214464   3.341   2.550   6.100  1.4764  3.2347  1.4312
 3673SOL    HW314465   3.283   2.629   5.985  0.1461  0.6065  0.2064
 3673SOL    MW414466   3.273   2.588   6.061  0.1778  0.3533 -0.7699
 3674SOL     OW14467   4.374   3.277   0.742 -0.4127  0.1016  0.0683
 3674SOL    HW214468   4.457   3.325   0.734  0.2419 -1.1530 -1.1988
 3674SOL    HW314469   4.389   3.213   0.811 -0.2941 -0.1666 -0.2033
 3674SOL    MW414470   4.387   3.275   0.750 -0.3963  0.5830 -0.2398
 3675SOL     OW14471   4.822   2.004   4.588 -0.6993  0.4543 -0.1424
 3675SOL    HW214472   4.761   2.044   4.525 -2.1604  1.1558  1.6174
 3675SOL    HW314473   4.892   2.068   4.597 -0.9467  0.7595 -0.3676
 3675SOL    MW414474   4.823   2.018   4.581  0.0177 -0.3379 -0.4946
 3676SOL     OW14475   2.911   1.044   3.918  0.2380  0.0354  0.3042
 3676SOL    HW214476   2.853   0.990   3.865  1.4713 -2.0589  0.9690
 3676SOL    HW314477   2.998   1.029   3.882  0.5195  2.9911 -0.5756
 3676SOL    MW414478   2.915   1.035   3.907 -0.3795 -0.2138 -0.9625
 3677SOL     OW14479   2.646   4.871   0.087  0.4957 -0.3761 -0.9429
 3677SOL    HW214480   2.700   4.813   0.033 -0.2115 -2.1307  0.1324
 3677SOL    HW314481   2.580   4.905   0.027  0.8903 -0.7341 -1.5956
 3677SOL    MW414482   2.644   4.868   0.072  0.1732 -0.1122 -0.5460
 3678SOL     OW14483   1.525   1.475   3.910 -0.2072 -0.2202  0.1851
 3678SOL    HW214484   1.557   1.555   3.869  0.9655 -1.1057 -0.6968
 3678SOL    HW314485   1.507   1.416   3.836  0.2387 -1.2305  0.8659
 3678SOL    MW414486   1.527   1.478   3.895  0.1988  0.0805 -0.0022
 3679SOL     OW14487   5.769   2.698   6.262 -0.2459  0.3522 -0.7481
 3679SOL    HW214488   5.721   2.742   6.192 -1.0289  0.6546 -0.0298
 3679SOL    HW314489   5.737   2.739   6.342  0.4362 -0.1910 -0.1927
 3679SOL    MW414490   5.759   2.710   6.263 -0.6544 -0.3370 -0.0727
 3680SOL     OW14491   1.954   0.591   5.630 -0.3064 -0.2363  0.1967
 3680SOL    HW214492   1.909   0.628   5.554  1.2038 -0.1208 -0.6699
 3680SOL    HW314493   2.030   0.546   5.594  0.1175 -0.6936  1.5929
 3680SOL    MW414494   1.958   0.590   5.615  0.2863  0.4435 -0.2493
 3681SOL     OW14495   0.513   0.210   6.343 -0.0859  0.4112 -0.0165
 3681SOL    HW214496   0.496   0.293   6.299 -0.1842  1.3754  1.7572
 3681SOL    HW314497   0.594   0.225   6.392 -1.1454  0.1861  1.9154
 3681SOL    MW414498   0.522   0.223   6.344 -0.1143 -0.3103  0.4692
 3682SOL     OW14499   0.522   4.894   0.242 -0.1341 -0.0862 -0.1960
 3682SOL    HW214500   0.426   4.897   0.253 -0.3741 -0.3381 -2.0189
 3682SOL    HW314501   0.540   4.960   0.175  0.7645 -1.2710 -1.1393
 3682SOL    MW414502   0.512   4.903   0.235 -0.3983  0.6714 -0.4498
 3683SOL     OW14503   1.290   6.223   3.355 -0.6800  0.4387 -0.4895
 3683SOL    HW214504   1.378   6.261   3.354 -0.4869 -0.0082 -1.3732
 3683SOL    HW314505   1.304   6.128   3.362 -1.1671  0.4750  2.9403
 3683SOL    MW414506   1.303   6.215   3.356  0.6125 -0.6734 -0.6700
 3684SOL     OW14507   2.167   2.261   4.528 -0.1010  0.1796  0.0145
 3684SOL    HW214508   2.160   2.172   4.493 -1.2219  0.1200  0.3282
 3684SOL    HW314509   2.125   2.256   4.614 -1.3859  1.2825 -0.5103
 3684SOL    MW414510   2.160   2.249   4.534 -0.0332 -0.0029  0.7299
 3685SOL     OW14511   3.363   0.492   0.689 -0.0142  0.0357 -0.0388
 3685SOL    HW214512   3.452   0.513   0.663 -0.1454 -0.8178 -1.2790
 3685SOL    HW314513   3.308   0.531   0.621 -0.5769  0.3181  0.5648
 3685SOL    MW414514   3.367   0.500   0.677  0.1200 -0.5687  0.5916
 3686SOL     OW14515   0.996   4.694   6.094 -0.3538  0.1890 -0.4010
 3686SOL    HW214516   1.022   4.659   6.009 -2.5661 -0.4384 -0.8918
 3686SOL    HW314517   0.928   4.634   6.125 -0.5269  1.1446  1.1960
 3686SOL    MW414518   0.990   4.681   6.087  0.4095  0.0943 -0.2265
 3687SOL     OW14519   2.483   0.909   0.311  0.7915 -0.0909  0.1370
 3687SOL    HW214520   2.445   0.898   0.223 -0.1605 -1.3124  0.6831
 3687SOL    HW314521   2.458   0.830   0.358 -1.0117  1.6789  2.3590
 3687SOL    MW414522   2.475   0.897   0.305 -0.0036  0.2878 -0.0693
 3688SOL     OW14523   1.661   0.919   1.006  0.3928  0.3478  0.5019
 3688SOL    HW214524   1.704   0.859   0.945 -1.0125 -1.0224  0.7994
 3688SOL    HW314525   1.733   0.968   1.046  1.4513  0.1761 -1.0934
 3688SOL    MW414526   1.677   0.917   1.003 -0.6996  0.3626  0.0796
 3689SOL     OW14527   5.859   1.553   2.131  0.2134  0.0452 -0.0026
 3689SOL    HW214528   5.811   1.474   2.104  2.0821 -0.5086 -1.9840
 3689SOL    HW314529   5.832   1.620   2.069 -0.6323  0.7519  1.0833
 3689SOL    MW414530   5.849   1.551   2.119  0.1406 -0.1616 -0.3564
 3690SOL     OW14531   3.745   4.541   5.505  0.1891 -0.8917 -0.4495
 3690SOL    HW214532   3.771   4.454   5.474  0.3519 -0.2094 -2.3346
 3690SOL    HW314533   3.816   4.598   5.479 -1.2469  0.3018 -1.9529
 3690SOL    MW414534   3.757   4.537   5.498  0.0549  0.2200 -0.5444
 3691SOL     OW14535   1.452   3.556   4.044  0.0013 -0.2101 -0.1994
 3691SOL    HW214536   1.378   3.497   4.058 -0.5135  0.0281 -1.6576
 3691SOL    HW314537   1.412   3.639   4.019  0.7470  0.2693  0.1764
 3691SOL    MW414538   1.437   3.559   4.042 -0.1693 -0.5988 -0.1684
 3692SOL     OW14539   2.389   1.231   0.909  0.0497  0.5923  0.2128
 3692SOL    HW214540   2.347   1.185   0.835  1.6759  1.0243 -1.0372
 3692SOL    HW314541   2.449   1.166   0.945 -1.2373  0.1493  1.6684
 3692SOL    MW414542   2.391   1.216   0.904 -0.1730  0.2293  0.0946
 3693SOL     OW14543   3.628   0.291   6.359 -0.5869 -0.0678  0.5103
 3693SOL    HW214544   3.663   0.202   6.349  0.6775  0.2778  1.5543
 3693SOL    HW314545   3.612   0.300   6.453 -0.4856  0.8897  0.4463
 3693SOL    MW414546   3.630   0.280   6.370 -0.5290 -0.6190 -0.2735
 3694SOL     OW14547   3.234   4.909   0.044  0.2967 -0.0956  0.7626
 3694SOL    HW214548   3.171   4.841   0.019  2.5788 -1.8189 -0.6106
 3694SOL    HW314549   3.260   4.949  -0.038  2.0771 -0.4303  1.1346
 3694SOL    MW414550   3.229   4.906   0.030 -1.2213  0.0523  0.5981
 3695SOL     OW14551   0.791   5.902   0.475  0.0408 -0.1542  0.0721
 3695SOL    HW214552   0.779   5.824   0.529  2.9462 -1.0640 -0.4095
 3695SOL    HW314553   0.823   5.869   0.391  0.5218  1.4838 -0.4442
 3695SOL    MW414554   0.794   5.888   0.471 -0.1725  0.2695 -0.2960
 3696SOL     OW14555   3.273   0.391   5.831 -0.0726  0.4086  0.4527
 3696SOL    HW214556   3.253   0.423   5.743  0.5435 -1.5108 -0.4451
 3696SOL    HW314557   3.288   0.470   5.883 -0.5492  1.5883 -1.1313
 3696SOL    MW414558   3.273   0.406   5.826 -0.2055  0.3157 -1.0957
 3697SOL     OW14559   4.702   6.213   1.599 -0.4972  0.6090 -0.4709
 3697SOL    HW214560   4.775   6.264   1.564 -0.8851  1.6429  0.1885
 3697SOL    HW314561   4.664   6.269   1.667 -1.7445 -0.0140 -0.6356
 3697SOL    MW414562   4.707   6.227   1.603  0.1895 -0.1388  0.1693
 3698SOL     OW14563   4.183   1.609   4.801 -0.2049  0.5545 -0.6660
 3698SOL    HW214564   4.165   1.696   4.764  0.1572  0.8796 -0.1017
 3698SOL    HW314565   4.103   1.585   4.848  1.0069  2.4272  2.6791
 3698SOL    MW414566   4.170   1.617   4.802  0.5258  0.3759  0.2279
 3699SOL     OW14567   3.060   5.320   1.085  0.0621  0.1802 -0.4041
 3699SOL    HW214568   2.968   5.296   1.075 -0.4993  0.9604  2.1716
 3699SOL    HW314569   3.103   5.239   1.114 -0.7524  0.7659  2.7718
 3699SOL    MW414570   3.053   5.306   1.088  0.6508 -0.6228  0.0699
 3700SOL     OW14571   0.565   0.533   5.683  0.3329  0.2146  0.4946
 3700SOL    HW214572   0.580   0.495   5.769 -1.1242 -0.7272  0.3633
 3700SOL    HW314573   0.508   0.609   5.699 -0.2048 -0.1492  0.3494
 3700SOL    MW414574   0.559   0.538   5.696 -0.2690  0.4542  0.3018
 3701SOL     OW14575   1.791   1.235   3.757  0.3295 -0.1270  0.2047
 3701SOL    HW214576   1.797   1.169   3.688 -0.6284 -0.6008  0.5602
 3701SOL    HW314577   1.882   1.254   3.780  0.6551 -0.0594 -1.0849
 3701SOL    MW414578   1.804   1.229   3.751 -0.3338  0.0622 -0.3308
 3702SOL     OW14579   1.024   6.402   5.844 -0.0332  0.6138  0.1878
 3702SOL    HW214580   0.939   6.447   5.843 -0.0449  0.6316  1.1687
 3702SOL    HW314581   1.089   6.472   5.839 -0.0651  0.6667  0.5162
 3702SOL    MW414582   1.021   6.417   5.843 -0.1234 -0.0782 -0.0966
 3703SOL     OW14583   0.020   3.357   0.027  0.6470 -0.0737  0.4586
 3703SOL    HW214584   0.038   3.287  -0.035 -1.0606 -1.2516  1.1841
 3703SOL    HW314585   0.041   3.320   0.113  0.4015  0.5506  0.8012
 3703SOL    MW414586   0.025   3.343   0.030 -0.3759 -0.0528 -0.6186
 3704SOL     OW14587   6.118   3.265   0.134 -0.2881  0.0005 -0.6614
 3704SOL    HW214588   6.087   3.343   0.180  1.1103  0.3213 -0.2162
 3704SOL    HW314589   6.123   3.197   0.201  0.9430  0.2435 -0.4752
 3704SOL    MW414590   6.115   3.267   0.149 -0.4584 -0.7655 -0.8827
 3705SOL     OW14591   3.078   3.848   2.059  0.0742  0.0561  0.2729
 3705SOL    HW214592   3.013   3.797   2.012  1.5201 -0.4990 -1.2523
 3705SOL    HW314593   3.032   3.927   2.087 -1.0262  0.1351 -1.6206
 3705SOL    MW414594   3.064   3.852   2.056 -0.7441  0.0194  0.4736
 3706SOL     OW14595   5.087   1.176   6.010  0.7494  0.5348 -0.2740
 3706SOL    HW214596   5.140   1.142   5.938 -1.2824 -1.1207 -1.0887
 3706SOL    HW314597   5.111   1.268   6.016  2.0913  0.3569 -2.0434
 3706SOL    MW414598   5.097   1.184   6.001 -0.1338 -0.5330  0.1075
 3707SOL     OW14599   6.331   2.620   4.989 -0.0886 -0.4487 -0.7060
 3707SOL    HW214600   6.381   2.593   5.066 -2.6352 -1.2844  0.7777
 3707SOL    HW314601   6.388   2.683   4.945  1.9595 -0.8270  1.1980
 3707SOL    MW414602   6.345   2.625   4.993  0.1254  0.2692 -0.0010
 3708SOL     OW14603   2.119   3.359   0.826  0.4582 -0.0863 -0.0321
 3708SOL    HW214604   2.173   3.340   0.749 -0.9203 -0.6885 -0.8957
 3708SOL    HW314605   2.061   3.430   0.798  0.8293  0.5927  0.8956
 3708SOL    MW414606   2.118   3.366   0.812 -0.2677  0.4757 -0.6675
 3709SOL     OW14607   5.599   2.899   4.881 -0.2323 -0.2019 -0.1792
 3709SOL    HW214608   5.568   2.810   4.895 -1.3487 -0.0109 -1.2505
 3709SOL    HW314609   5.620   2.904   4.788  1.4432  0.1943  0.1776
 3709SOL    MW414610   5.598   2.888   4.871  0.2298 -0.7114  0.3818
 3710SOL     OW14611   3.563   2.422   3.041 -0.3591  0.4354  0.0271
 3710SOL    HW214612   3.476   2.428   3.001 -0.6965 -0.3958  0.6082
 3710SOL    HW314613   3.617   2.380   2.975 -0.7761 -0.4316  0.2292
 3710SOL    MW414614   3.558   2.418   3.027  0.2558 -0.0075 -0.3608
 3711SOL     OW14615   5.672   4.414   3.923 -0.2273  0.1403 -0.8584
 3711SOL    HW214616   5.592   4.462   3.947 -1.2968 -1.0109 -1.9407
 3711SOL    HW314617   5.695   4.450   3.837  1.4465  1.6548  0.1531
 3711SOL    MW414618   5.664   4.425   3.915  0.6979  0.5244 -0.6719
 3712SOL     OW14619   1.606   3.753   3.176  0.3840  0.1200 -0.5484
 3712SOL    HW214620   1.568   3.773   3.261  2.2337 -1.8525  0.8583
 3712SOL    HW314621   1.530   3.745   3.118 -1.3272 -2.0545  1.7339
 3712SOL    MW414622   1.591   3.754   3.179  0.1877  0.1894  0.1082
 3713SOL     OW14623   2.627   3.877   2.560 -0.4461  0.0027 -0.1588
 3713SOL    HW214624   2.591   3.789   2.551  0.6516 -0.5662  0.6990
 3713SOL    HW314625   2.703   3.878   2.502 -0.0019  0.1129  0.4148
 3713SOL    MW414626   2.632   3.865   2.552  0.0452  0.3227 -0.4338
 3714SOL     OW14627   0.908   0.801   3.991 -0.3478  0.6036 -0.3010
 3714SOL    HW214628   0.989   0.852   3.982  0.8524 -0.9238  1.2971
 3714SOL    HW314629   0.936   0.710   3.986 -1.4014 -0.0963  3.4736
 3714SOL    MW414630   0.922   0.796   3.989  0.1442 -0.3932 -0.0744
 3715SOL     OW14631   3.728   5.575   3.992  0.0171 -0.4316  0.4478
 3715SOL    HW214632   3.813   5.537   4.015 -0.5281 -1.7895  0.2934
 3715SOL    HW314633   3.664   5.522   4.041 -0.9915 -1.6928 -2.0735
 3715SOL    MW414634   3.731   5.563   4.002 -1.0475  0.5128 -0.2724
 3716SOL     OW14635   6.322   0.581   4.927  0.4496 -0.4900 -0.2155
 3716SOL    HW214636   6.228   0.595   4.916 -0.0088 -2.0498  1.3588
 3716SOL    HW314637   6.362   0.650   4.874 -1.5598  0.1539 -1.0082
 3716SOL    MW414638   6.315   0.592   4.918  0.1745  0.7631 -0.1987
 3717SOL     OW14639   6.316   2.685   1.218 -0.2106 -0.1831  0.3324
 3717SOL    HW214640   6.237   2.691   1.164 -0.4860  0.5708  0.8122
 3717SOL    HW314641   6.290   2.634   1.294 -0.3086  0.2866  0.6157
 3717SOL    MW414642   6.303   2.679   1.221 -0.0917 -0.3390 -0.3146
 3718SOL     OW14643   2.846   3.125   4.180  0.1337 -0.0729  0.1125
 3718SOL    HW214644   2.810   3.137   4.093 -0.4148 -2.2836 -0.0314
 3718SOL    HW314645   2.939   3.109   4.166 -0.0532 -0.9960 -0.1552
 3718SOL    MW414646   2.854   3.124   4.167 -0.1646  0.5735  0.2587
 3719SOL     OW14647   0.442   5.428   4.780 -0.3843 -0.0239  0.4007
 3719SOL    HW214648   0.388   5.355   4.811  0.3209 -0.9749 -0.5662
 3719SOL    HW314649   0.402   5.453   4.697 -0.2435  0.2732  0.4226
 3719SOL    MW414650   0.429   5.422   4.773  0.0276 -0.0081  0.4230
 3720SOL     OW14651   0.262   0.563   3.475 -0.9631 -0.4936 -0.5670
 3720SOL    HW214652   0.170   0.571   3.452 -0.9746 -0.4405 -0.5035
 3720SOL    HW314653   0.273   0.470   3.498 -1.2237 -0.3073  0.3639
 3720SOL    MW414654   0.252   0.551   3.475 -0.0077 -0.0138 -0.0986
 3721SOL     OW14655   2.756   0.589   0.298  0.4029 -0.0324 -0.4032
 3721SOL    HW214656   2.730   0.673   0.336  0.4654 -0.9173  1.7865
 3721SOL    HW314657   2.845   0.603   0.267 -0.0496  1.0476 -1.2407
 3721SOL    MW414658   2.764   0.602   0.299 -0.2182  0.3807 -0.2903
 3722SOL     OW14659   5.381   3.268   2.575 -0.1519  0.3007 -0.0022
 3722SOL    HW214660   5.450   3.318   2.619 -0.7318  0.2573  0.9975
 3722SOL    HW314661   5.427   3.206   2.519  0.6079  2.4456 -1.8991
 3722SOL    MW414662   5.396   3.267   2.574  0.1067  0.1001  0.0444
 3723SOL     OW14663   1.813   6.259   1.588 -0.4216  0.4823  0.3429
 3723SOL    HW214664   1.805   6.325   1.657  2.1642  0.9738  0.2440
 3723SOL    HW314665   1.792   6.305   1.507 -0.3739  0.7216  0.4673
 3723SOL    MW414666   1.809   6.273   1.587  0.3868  0.4992  0.1542
 3724SOL     OW14667   6.233   1.254   1.572 -0.2264  0.3759  0.0286
 3724SOL    HW214668   6.138   1.243   1.570  0.0590 -2.8617 -1.4043
 3724SOL    HW314669   6.263   1.190   1.636  1.0102  2.1008  1.2809
 3724SOL    MW414670   6.224   1.244   1.581  0.2293  0.1972 -0.3799
 3725SOL     OW14671   2.641   1.429   6.378  0.2964  0.0877 -0.6863
 3725SOL    HW214672   2.680   1.516   6.391 -0.2043  0.1797  0.2811
 3725SOL    HW314673   2.550   1.448   6.357  0.7533 -0.1170 -3.1119
 3725SOL    MW414674   2.634   1.443   6.377  0.3889 -0.3598  0.1766
 3726SOL     OW14675   5.391   4.943   4.168  0.1844  0.2467 -0.2341
 3726SOL    HW214676   5.468   4.982   4.209  0.3231  0.2463 -0.4863
 3726SOL    HW314677   5.390   4.853   4.199  0.2835  0.2491 -0.2221
 3726SOL    MW414678   5.401   4.936   4.177  0.4042 -0.1594  0.0738
 3727SOL     OW14679   2.990   5.245   3.831 -0.1452  0.3804  0.6319
 3727SOL    HW214680   2.907   5.290   3.816 -0.5481 -0.4254  0.3897
 3727SOL    HW314681   3.023   5.282   3.913 -0.6511  0.8376  0.6320
 3727SOL    MW414682   2.984   5.255   3.840 -0.2997  0.1805  0.0823
 3728SOL     OW14683   5.714   5.999   4.240 -0.2091 -0.4002 -0.2415
 3728SOL    HW214684   5.647   6.006   4.172 -0.5382 -0.1263  0.1120
 3728SOL    HW314685   5.733   6.089   4.264 -0.2168 -0.5043  0.1561
 3728SOL    MW414686   5.708   6.012   4.234  0.3139  0.3112  0.0276
 3729SOL     OW14687   6.144   4.536   5.987  0.1065  0.3446  0.0671
 3729SOL    HW214688   6.189   4.620   5.995  0.4828  0.0886  0.6996
 3729SOL    HW314689   6.133   4.523   5.892 -1.3875  1.8518 -0.0097
 3729SOL    MW414690   6.149   4.545   5.975  0.6351 -1.2414  0.2443
 3730SOL     OW14691   3.710   3.691   0.822  0.2066 -0.5457 -0.4575
 3730SOL    HW214692   3.699   3.600   0.851 -0.2303 -1.0509 -2.0821
 3730SOL    HW314693   3.622   3.729   0.827  0.3820 -0.2169  0.1824
 3730SOL    MW414694   3.697   3.684   0.827  0.7749  0.1926 -0.1710
 3731SOL     OW14695   5.788   5.033   2.770 -0.0135  0.5501  0.6689
 3731SOL    HW214696   5.758   4.988   2.849  0.0464  1.0535  0.9845
 3731SOL    HW314697   5.711   5.038   2.714 -0.0547  0.1855  0.6911
 3731SOL    MW414698   5.774   5.028   2.773 -0.8293  0.3644  0.2008
 3732SOL     OW14699   0.920   4.481   4.108  0.4166  0.4674 -0.0445
 3732SOL    HW214700   0.861   4.545   4.148 -0.1043 -0.2880  0.4217
 3732SOL    HW314701   0.935   4.515   4.019  1.1354  1.8700  0.5721
 3732SOL    MW414702   0.914   4.494   4.101 -0.7541 -0.0932  0.4177
 3733SOL     OW14703   6.048   5.399   1.388 -0.1726 -0.0288 -0.0689
 3733SOL    HW214704   6.088   5.391   1.301  0.6492  0.7322  0.2318
 3733SOL    HW314705   5.965   5.351   1.380 -2.0202  3.1052 -2.4665
 3733SOL    MW414706   6.042   5.392   1.375 -0.4531  0.0840 -1.1276
 3734SOL     OW14707   1.960   0.480   1.841 -0.0203  0.3173  0.2099
 3734SOL    HW214708   1.892   0.537   1.804  1.4045  0.8153 -1.7923
 3734SOL    HW314709   1.935   0.392   1.812  1.0123  0.6869 -1.9897
 3734SOL    MW414710   1.948   0.476   1.832 -0.2202 -0.2663 -0.2185
 3735SOL     OW14711   0.964   0.209   0.362 -0.1005  0.0683  0.4024
 3735SOL    HW214712   0.914   0.156   0.425  1.5914  0.9188  2.5507
 3735SOL    HW314713   1.001   0.280   0.414  1.1812  0.9592 -1.6274
 3735SOL    MW414714   0.962   0.211   0.377  0.0049 -0.2397 -0.4000
 3736SOL     OW14715   1.642   2.155   3.961  0.0803 -0.3563 -0.3308
 3736SOL    HW214716   1.737   2.161   3.954  0.0492  0.1265 -0.3931
 3736SOL    HW314717   1.626   2.068   3.998  0.5190 -0.6329 -0.7654
 3736SOL    MW414718   1.653   2.144   3.965  0.6464 -0.1497  0.1367
 3737SOL     OW14719   5.139   2.313   4.902  0.3011 -0.4959 -0.1549
 3737SOL    HW214720   5.164   2.351   4.818  1.1374  0.7223  0.6139
 3737SOL    HW314721   5.220   2.310   4.953 -0.8025  2.9520  2.1698
 3737SOL    MW414722   5.153   2.317   4.898 -0.4569 -0.1786  0.4535
 3738SOL     OW14723   5.169   5.365   6.380 -0.2178 -0.3502  0.2299
 3738SOL    HW214724   5.154   5.327   6.293  0.8550  0.9850 -0.5895
 3738SOL    HW314725   5.257   5.404   6.374 -0.2388  0.0180  1.8288
 3738SOL    MW414726   5.179   5.365   6.368 -0.4485  0.1093 -0.2480
 3739SOL     OW14727   1.929   0.841   4.338 -0.3068  0.1929 -0.0089
 3739SOL    HW214728   1.938   0.852   4.243 -0.1354  0.9552  0.0905
 3739SOL    HW314729   1.896   0.925   4.369 -2.6253 -0.7699  0.3354
 3739SOL    MW414730   1.926   0.854   4.330  0.0972  0.4023 -0.1479
 3740SOL     OW14731   4.580   3.898   2.087  0.3649  0.4394 -0.1906
 3740SOL    HW214732   4.512   3.918   2.023 -0.1717  0.4596  0.3669
 3740SOL    HW314733   4.546   3.822   2.135 -0.4152  1.9073  1.7096
 3740SOL    MW414734   4.566   3.890   2.085 -0.0360 -0.3013 -0.2291
 3741SOL     OW14735   6.223   6.187   6.017  0.9190 -0.1534 -0.2151
 3741SOL    HW214736   6.245   6.171   5.925  1.5955 -0.6367  0.0238
 3741SOL    HW314737   6.306   6.206   6.059  0.5104  0.9061  0.1498
 3741SOL    MW414738   6.237   6.187   6.010 -0.1792  0.3335 -0.2624
 3742SOL     OW14739   5.547   5.000   5.576  0.3666 -0.3549 -0.3650
 3742SOL    HW214740   5.488   5.076   5.573  1.3663  0.5490  1.0419
 3742SOL    HW314741   5.491   4.927   5.599 -0.2008  0.5543  1.3320
 3742SOL    MW414742   5.532   5.001   5.579 -0.1004  0.4683 -0.2096
 3743SOL     OW14743   1.440   4.690   6.062 -0.6660 -0.1640 -0.5333
 3743SOL    HW214744   1.409   4.753   6.126 -0.7950 -1.3553  0.6251
 3743SOL    HW314745   1.535   4.703   6.059 -0.5850 -0.5069  0.3724
 3743SOL    MW414746   1.449   4.700   6.070 -0.6620 -0.4893 -0.4260
 3744SOL     OW14747   0.881   4.297   5.612  0.0249 -0.0471  0.3560
 3744SOL    HW214748   0.814   4.352   5.571 -0.0095 -0.3451  0.0099
 3744SOL    HW314749   0.907   4.236   5.543 -0.3631 -0.8553  0.9228
 3744SOL    MW414750   0.876   4.296   5.597  0.4340  0.0023 -0.0719
 3745SOL     OW14751   4.129   3.738   3.913 -0.4824 -0.0170 -0.1078
 3745SOL    HW214752   4.182   3.741   3.833 -1.4200  0.6672 -0.7216
 3745SOL    HW314753   4.170   3.670   3.966 -0.7234 -1.5656 -1.8091
 3745SOL    MW414754   4.141   3.729   3.910 -0.0975  1.0110  0.4580
 3746SOL     OW14755   1.359   4.816   5.415 -0.3832  0.0219  0.6382
 3746SOL    HW214756   1.437   4.800   5.468 -0.9293 -0.8075  1.2118
 3746SOL    HW314757   1.313   4.732   5.413 -1.3339  0.5307  0.4466
 3746SOL    MW414758   1.363   4.803   5.422  0.7001 -0.6627 -0.0026
 3747SOL     OW14759   5.522   5.450   1.879 -0.3652 -0.1352 -0.0833
 3747SOL    HW214760   5.609   5.437   1.839 -0.3284  1.1755 -0.4746
 3747SOL    HW314761   5.466   5.388   1.833  0.2734 -0.6806 -0.1477
 3747SOL    MW414762   5.526   5.440   1.868  0.1074 -0.2644  0.0484
 3748SOL     OW14763   4.599   1.441   2.014 -0.0235 -0.4189 -0.5613
 3748SOL    HW214764   4.559   1.429   2.100 -0.8108  2.1756 -0.4883
 3748SOL    HW314765   4.528   1.424   1.952 -0.4418  1.1608 -0.5419
 3748SOL    MW414766   4.584   1.437   2.017 -0.7650 -0.0719  0.4294
 3749SOL     OW14767   0.825   4.503   0.282 -0.0991  0.4315 -0.4108
 3749SOL    HW214768   0.766   4.435   0.313  0.1977  0.0114 -0.7675
 3749SOL    HW314769   0.807   4.578   0.340  0.0940 -0.1755  0.4502
 3749SOL    MW414770   0.815   4.504   0.294 -0.2341 -0.5660 -0.1371
 3750SOL     OW14771   5.324   0.441   4.092 -0.5298  0.6339 -0.0536
 3750SOL    HW214772   5.281   0.488   4.021  0.5729  2.0963  0.2053
 3750SOL    HW314773   5.414   0.473   4.091  0.6668 -2.4401 -0.6809
 3750SOL    MW414774   5.330   0.451   4.083  0.1916 -0.0760  0.0243
 3751SOL     OW14775   1.295   2.907   1.722 -0.1886  0.0567  0.7801
 3751SOL    HW214776   1.329   2.983   1.770  0.0103  0.6314 -0.2394
 3751SOL    HW314777   1.324   2.922   1.632 -1.0526 -0.7101  0.3713
 3751SOL    MW414778   1.304   2.919   1.716  0.1782  0.6258 -0.3563
 3752SOL     OW14779   0.065   1.758   0.778 -0.0496  0.3976  0.5276
 3752SOL    HW214780  -0.024   1.726   0.793 -0.0543  0.5413  0.8005
 3752SOL    HW314781   0.060   1.852   0.791  0.1390  0.4088  0.5232
 3752SOL    MW414782   0.053   1.766   0.782 -0.0910  0.0532  0.3264
 3753SOL     OW14783   4.576   0.604   1.913 -0.6153 -0.4118  0.1647
 3753SOL    HW214784   4.598   0.532   1.854  1.5073  0.0105  0.3719
 3753SOL    HW314785   4.526   0.665   1.859 -1.0653 -1.2786 -0.4337
 3753SOL    MW414786   4.572   0.602   1.898 -0.0465  0.3645  0.1215
 3754SOL     OW14787   4.591   2.593   3.992 -0.1286 -0.1472  0.3126
 3754SOL    HW214788   4.570   2.503   3.969  0.2008 -0.0156 -0.5456
 3754SOL    HW314789   4.508   2.640   3.986 -0.0818 -0.1518 -0.4720
 3754SOL    MW414790   4.578   2.588   3.988  0.2850 -0.9665  0.0128
 3755SOL     OW14791   6.044   4.608   1.985  0.3977 -0.3427  0.3879
 3755SOL    HW214792   6.064   4.606   1.892 -1.4086 -0.3384 -0.0168
 3755SOL    HW314793   5.988   4.684   1.997 -0.9499 -1.4088  1.1383
 3755SOL    MW414794   6.040   4.618   1.975  0.1776 -0.3512  0.2124
 3756SOL     OW14795   2.685   1.461   6.092 -0.2949  0.7207 -0.2706
 3756SOL    HW214796   2.753   1.528   6.087  1.2370 -0.7078  0.2300
 3756SOL    HW314797   2.667   1.451   6.186  2.2508 -2.0530  0.0844
 3756SOL    MW414798   2.692   1.468   6.104  0.4334 -0.5431 -0.0560
 3757SOL     OW14799   0.744   0.202   0.868  0.3046 -0.2866  0.3390
 3757SOL    HW214800   0.809   0.138   0.839 -0.4125 -0.8131 -0.1407
 3757SOL    HW314801   0.669   0.187   0.810  0.1774  1.0961  0.1131
 3757SOL    MW414802   0.743   0.192   0.856 -0.3042 -0.2238 -0.1398
 3758SOL     OW14803   4.547   1.067   5.389  0.1421  0.0258  0.2755
 3758SOL    HW214804   4.555   1.027   5.303 -1.8249  1.6339 -0.7577
 3758SOL    HW314805   4.626   1.120   5.399  1.3745 -1.7499  0.4257
 3758SOL    MW414806   4.558   1.069   5.379  0.3837 -0.4724  0.3217
 3759SOL     OW14807   5.108   6.367   4.274  0.0192 -0.2632 -0.4814
 3759SOL    HW214808   5.024   6.348   4.318 -0.7110  1.1832 -1.1982
 3759SOL    HW314809   5.139   6.448   4.315  0.6138 -0.2932 -0.8682
 3759SOL    MW414810   5.101   6.375   4.285  0.0424  0.0582  0.0118
 3760SOL     OW14811   0.304   3.635   0.275  0.2446  0.3133  0.5313
 3760SOL    HW214812   0.254   3.678   0.344 -0.6509 -0.5265  0.4362
 3760SOL    HW314813   0.315   3.703   0.208  0.9071  1.0592  1.3763
 3760SOL    MW414814   0.299   3.650   0.275 -0.1569  0.0764  0.1550
 3761SOL     OW14815   5.385   1.046   4.379  1.1899 -0.4759  0.0447
 3761SOL    HW214816   5.307   1.084   4.338  1.4409  0.6865  0.6015
 3761SOL    HW314817   5.420   1.117   4.432  0.3772 -2.1530  3.0454
 3761SOL    MW414818   5.379   1.060   4.381  0.0840 -0.4733 -0.6635
 3762SOL     OW14819   2.581   2.301   0.592 -0.2307  0.4734  0.4130
 3762SOL    HW214820   2.559   2.255   0.672 -0.3791 -0.6166 -0.2324
 3762SOL    HW314821   2.520   2.267   0.527  1.4988 -0.5814 -0.7586
 3762SOL    MW414822   2.570   2.291   0.594 -0.3495  0.3870  0.2230
 3763SOL     OW14823   0.852   0.846   2.668  0.5869  0.2351  0.4618
 3763SOL    HW214824   0.777   0.813   2.718  0.6739  0.6032  0.8417
 3763SOL    HW314825   0.813   0.898   2.597  0.3324 -2.5638 -1.6266
 3763SOL    MW414826   0.837   0.848   2.665  0.4969 -0.1556  0.1086
 3764SOL     OW14827   6.143   3.293   0.527  0.4077  0.2460  0.1238
 3764SOL    HW214828   6.204   3.297   0.602  0.4779  0.0277  0.0765
 3764SOL    HW314829   6.090   3.372   0.537 -1.7397 -1.3262  2.2288
 3764SOL    MW414830   6.144   3.304   0.538 -0.0738 -0.2777 -1.2412
 3765SOL     OW14831   2.468   0.354   4.204 -0.0673 -0.1871  0.2074
 3765SOL    HW214832   2.506   0.441   4.217 -1.1186  0.8911 -2.8769
 3765SOL    HW314833   2.393   0.352   4.263  0.3845  0.6978  0.8402
 3765SOL    MW414834   2.463   0.365   4.214  0.3411  0.1425  0.5801
 3766SOL     OW14835   1.249   3.869   0.752 -0.1338 -0.3345  0.3509
 3766SOL    HW214836   1.333   3.866   0.799  1.0677 -0.4826 -1.7024
 3766SOL    HW314837   1.257   3.801   0.685 -0.6923  1.6463 -1.8170
 3766SOL    MW414838   1.261   3.859   0.749  0.2899 -0.1496  0.6723
 3767SOL     OW14839   5.904   6.294   6.317 -0.2289 -0.2103  0.0278
 3767SOL    HW214840   5.890   6.213   6.366 -0.6173  0.5271  1.1949
 3767SOL    HW314841   5.820   6.340   6.322 -0.4064 -0.2797 -1.7140
 3767SOL    MW414842   5.891   6.289   6.324  0.2803 -0.1210 -0.2172
 3768SOL     OW14843   3.079   1.923   2.826  0.8715  0.0586 -0.5646
 3768SOL    HW214844   3.000   1.949   2.779  0.6306  1.7812  0.7106
 3768SOL    HW314845   3.151   1.958   2.773  0.7589 -0.6121 -1.1822
 3768SOL    MW414846   3.078   1.931   2.813  0.1128 -0.2758 -0.1863
 3769SOL     OW14847   0.833   6.184   0.489  0.0355 -0.2212 -0.4410
 3769SOL    HW214848   0.815   6.091   0.499 -0.6932  0.0096  0.6041
 3769SOL    HW314849   0.795   6.207   0.404  1.6906 -1.1885 -1.4948
 3769SOL    MW414850   0.826   6.175   0.479  0.7063 -0.4668  0.7239
 3770SOL     OW14851   2.804   1.469   0.224 -0.2859  0.2389  0.7924
 3770SOL    HW214852   2.850   1.423   0.154 -1.3065  1.6619 -0.8990
 3770SOL    HW314853   2.874   1.508   0.277  0.5004 -0.8346  0.5728
 3770SOL    MW414854   2.819   1.468   0.222  0.4415 -0.0583  0.0855
 3771SOL     OW14855   5.823   2.923   0.499 -0.4196 -0.2078 -0.1037
 3771SOL    HW214856   5.860   3.007   0.528  0.6020 -0.3321 -0.9884
 3771SOL    HW314857   5.786   2.885   0.579 -0.0317  0.6396  0.5018
 3771SOL    MW414858   5.823   2.929   0.514  0.6561  1.1695  0.5483
 3772SOL     OW14859   5.746   3.240   3.721  0.6154 -0.5598 -0.4908
 3772SOL    HW214860   5.813   3.298   3.757  1.6658 -1.9739 -0.0980
 3772SOL    HW314861   5.663   3.286   3.737  1.4836  1.4628 -1.4437
 3772SOL    MW414862   5.744   3.254   3.728  0.2065  0.0145  0.0441
 3773SOL     OW14863   4.142   4.124   4.103  0.2033  0.5779  0.2562
 3773SOL    HW214864   4.124   4.209   4.144  0.3548  0.6123  0.2535
 3773SOL    HW314865   4.063   4.073   4.118  0.3200  0.5329  0.7457
 3773SOL    MW414866   4.129   4.129   4.110  0.4328 -0.5528  0.3064
 3774SOL     OW14867   1.868   3.427   0.569  0.0708  1.0805 -0.4830
 3774SOL    HW214868   1.896   3.340   0.597 -0.7958  1.1133  0.5696
 3774SOL    HW314869   1.900   3.486   0.637 -1.7209  1.2147  0.3054
 3774SOL    MW414870   1.876   3.423   0.582  0.1966 -0.5666 -0.6579
 3775SOL     OW14871   1.619   3.650   0.651  0.2174  0.3492 -0.0529
 3775SOL    HW214872   1.664   3.682   0.729  0.4951  0.5723 -0.2979
 3775SOL    HW314873   1.590   3.562   0.673 -0.4839  0.7366  0.6080
 3775SOL    MW414874   1.621   3.643   0.664  0.1609 -0.4634  0.2109
 3776SOL     OW14875   1.090   4.871   4.291 -0.2613 -0.0376 -0.0419
 3776SOL    HW214876   1.079   4.898   4.382  0.2721  0.5924 -0.1587
 3776SOL    HW314877   1.159   4.928   4.257 -1.2328  0.5085 -1.1707
 3776SOL    MW414878   1.098   4.882   4.299 -0.1468  0.1318 -0.8396
 3777SOL     OW14879   2.270   5.977   2.296  0.3595 -0.5018  0.0266
 3777SOL    HW214880   2.242   5.915   2.364  0.6647 -0.7228 -0.0503
 3777SOL    HW314881   2.341   5.932   2.250  1.3057  0.3198  0.6464
 3777SOL    MW414882   2.276   5.963   2.299 -0.1258  0.8223 -0.7798
 3778SOL     OW14883   0.626   3.301   2.777 -0.5409 -0.4262 -0.4619
 3778SOL    HW214884   0.670   3.253   2.707  0.1022 -0.9496  0.2928
 3778SOL    HW314885   0.599   3.383   2.735 -0.4600 -0.8633 -1.4071
 3778SOL    MW414886   0.628   3.306   2.762  0.1846 -0.6767 -0.4054
 3779SOL     OW14887   1.290   0.684   0.770 -0.2145  0.4985  0.0554
 3779SOL    HW214888   1.321   0.775   0.776 -0.7261  0.6466  0.5762
 3779SOL    HW314889   1.345   0.636   0.831 -0.5607  0.6392  0.4858
 3779SOL    MW414890   1.302   0.690   0.779 -0.0666 -0.2744  0.1571
 3780SOL     OW14891   3.334   0.647   2.939  0.2255 -0.1458 -0.1208
 3780SOL    HW214892   3.349   0.553   2.947 -0.8740 -0.2626  0.7988
 3780SOL    HW314893   3.408   0.687   2.985  0.0063 -0.6018  0.6505
 3780SOL    MW414894   3.345   0.640   2.946  0.0911 -0.0273 -0.2920
 3781SOL     OW14895   0.546   3.061   1.702  0.3395  0.1104  0.1919
 3781SOL    HW214896   0.576   3.033   1.789  2.0794  2.0085  0.2652
 3781SOL    HW314897   0.625   3.083   1.654 -0.6684  0.3762 -1.4373
 3781SOL    MW414898   0.560   3.060   1.707 -0.1762 -0.0212  0.2646
 3782SOL     OW14899   4.600   2.907   3.433  0.3252  0.0001  0.1326
 3782SOL    HW214900   4.639   2.960   3.502 -0.3552 -0.0144  0.5325
 3782SOL    HW314901   4.560   2.970   3.373  1.8223  0.0808 -0.8416
 3782SOL    MW414902   4.600   2.922   3.434 -0.6267  0.0419  0.2490
 3783SOL     OW14903   1.296   1.268   3.460 -0.1144  0.3733 -0.0862
 3783SOL    HW214904   1.338   1.351   3.484  0.3605 -0.3913  1.9371
 3783SOL    HW314905   1.369   1.207   3.451 -0.2809  0.5027 -3.4682
 3783SOL    MW414906   1.311   1.271   3.462 -0.1202  0.3186 -0.1307
 3784SOL     OW14907   4.994   0.126   3.074  0.0188 -0.3685  0.4498
 3784SOL    HW214908   4.929   0.194   3.060  0.2551 -0.2065  0.1302
 3784SOL    HW314909   4.981   0.098   3.165  0.7071  0.9235  0.9613
 3784SOL    MW414910   4.983   0.131   3.085 -0.0795  0.7767 -0.2459
 3785SOL     OW14911   3.058   4.120   5.138  0.4008 -0.3727  0.3455
 3785SOL    HW214912   3.055   4.031   5.105 -2.7224 -0.2606  0.0781
 3785SOL    HW314913   3.137   4.158   5.097 -0.2894 -1.8564 -2.6665
 3785SOL    MW414914   3.068   4.113   5.128 -0.3235  0.6027  0.2399
 3786SOL     OW14915   5.946   4.061   5.939 -0.9126  0.4375 -0.4804
 3786SOL    HW214916   5.957   3.983   5.993 -0.5087 -0.0193 -1.2005
 3786SOL    HW314917   6.028   4.110   5.950  0.0163 -0.6498 -2.2105
 3786SOL    MW414918   5.958   4.057   5.948  0.1835 -0.1180  0.2572
 3787SOL     OW14919   2.414   5.185   2.859 -0.1089  0.4186  1.1410
 3787SOL    HW214920   2.448   5.250   2.797 -0.9504  0.2279  0.4669
 3787SOL    HW314921   2.360   5.235   2.919 -1.4921  0.2510  0.0840
 3787SOL    MW414922   2.411   5.200   2.858 -0.2531  0.0318  0.5126
 3788SOL     OW14923   1.965   4.124   2.465  0.3263 -0.2994 -0.2777
 3788SOL    HW214924   1.908   4.170   2.403  0.9188  0.0709 -0.5601
 3788SOL    HW314925   2.044   4.178   2.468  0.5000 -0.5873  0.4211
 3788SOL    MW414926   1.968   4.137   2.458 -0.2797 -0.2091  0.0570
 3789SOL     OW14927   2.304   1.160   5.393 -0.1748 -1.4255 -0.4260
 3789SOL    HW214928   2.227   1.184   5.342  0.3430 -3.5923 -2.3985
 3789SOL    HW314929   2.378   1.172   5.333  1.0579  0.2121  1.2918
 3789SOL    MW414930   2.304   1.165   5.378 -0.2256  0.1724  0.1621
 3790SOL     OW14931   3.780   2.626   0.546  0.4529  0.2945 -0.5237
 3790SOL    HW214932   3.744   2.657   0.463 -0.9695  1.4498  0.4852
 3790SOL    HW314933   3.748   2.687   0.612  1.1889 -0.8283  0.9598
 3790SOL    MW414934   3.771   2.638   0.544  0.0914 -0.3352  0.5351
 3791SOL     OW14935   5.776   1.883   3.255 -0.2081  0.1845  0.3500
 3791SOL    HW214936   5.840   1.954   3.255  0.6661 -0.5808  0.3780
 3791SOL    HW314937   5.825   1.806   3.224 -1.5314 -0.0554 -1.3014
 3791SOL    MW414938   5.791   1.882   3.251 -0.4374 -0.3401 -0.3236
 3792SOL     OW14939   5.715   1.350   2.044  0.2386 -0.0359 -0.5297
 3792SOL    HW214940   5.713   1.321   2.135  0.2669 -0.4123 -0.6498
 3792SOL    HW314941   5.623   1.367   2.023  0.1915 -0.3285 -0.5554
 3792SOL    MW414942   5.702   1.348   2.054 -0.8767  0.0947 -0.2889
 3793SOL     OW14943   2.329   3.461   3.379 -0.2686 -0.5021 -0.1362
 3793SOL    HW214944   2.371   3.543   3.407 -0.6360 -0.2397 -0.3372
 3793SOL    HW314945   2.249   3.456   3.432 -0.6940 -0.2777 -0.7452
 3793SOL    MW414946   2.324   3.472   3.390 -0.0005 -0.0821  0.3534
 3794SOL     OW14947   5.612   0.539   4.330  0.7677  0.4413 -0.2843
 3794SOL    HW214948   5.534   0.580   4.293  0.6998  2.2556  1.6906
 3794SOL    HW314949   5.578   0.478   4.396  0.9676 -1.0073 -1.4681
 3794SOL    MW414950   5.597   0.536   4.334 -0.2810  0.1416  0.3186
 3795SOL     OW14951   2.099   5.804   5.709 -0.5066  0.5567 -0.1807
 3795SOL    HW214952   2.146   5.809   5.626 -0.0678  0.2453  0.0451
 3795SOL    HW314953   2.113   5.889   5.750  2.2256 -0.4260  1.1446
 3795SOL    MW414954   2.107   5.816   5.703 -0.2350  0.6734 -0.0803
 3796SOL     OW14955   6.181   5.728   5.793  0.2354  0.7163  0.1667
 3796SOL    HW214956   6.105   5.784   5.782  0.7544  1.7758  1.6580
 3796SOL    HW314957   6.250   5.770   5.742 -0.0579 -0.0582 -0.9045
 3796SOL    MW414958   6.180   5.741   5.785  0.6541 -0.1431 -0.2509
 3797SOL     OW14959   4.601   1.194   0.793  0.2786  0.2336  0.0986
 3797SOL    HW214960   4.647   1.161   0.716  2.0294  1.3312  0.6192
 3797SOL    HW314961   4.509   1.175   0.775  0.8689 -1.8915 -1.0640
 3797SOL    MW414962   4.595   1.187   0.780 -0.5959  0.1297  0.2878
 3798SOL     OW14963   0.648   5.335   3.049 -0.6565  0.0946 -0.1879
 3798SOL    HW214964   0.732   5.364   3.016  0.0970 -0.3068  1.2855
 3798SOL    HW314965   0.612   5.280   2.979  0.1652  0.5002 -0.9429
 3798SOL    MW414966   0.654   5.331   3.035  0.2300 -0.0088 -0.1652
 3799SOL     OW14967   3.762   3.209   5.980  0.5226 -0.1606 -0.1111
 3799SOL    HW214968   3.691   3.257   6.022  0.4220 -0.5916  0.2191
 3799SOL    HW314969   3.841   3.239   6.025  0.6169  0.7055 -0.8282
 3799SOL    MW414970   3.763   3.219   5.991  0.1300  0.7371 -1.0868
 3800SOL     OW14971   5.515   3.704   4.518  0.2211 -0.2603  0.0428
 3800SOL    HW214972   5.557   3.719   4.433  0.8415  1.8423  0.6491
 3800SOL    HW314973   5.421   3.711   4.500  0.3494  0.2819 -0.4546
 3800SOL    MW414974   5.508   3.707   4.504  0.2536 -0.1053  0.2205
 3801SOL     OW14975   3.313   2.200   4.134  0.1878 -0.2200 -0.5973
 3801SOL    HW214976   3.295   2.191   4.227  0.1558  0.2887 -0.5533
 3801SOL    HW314977   3.395   2.152   4.121 -0.3620 -1.2064 -0.5098
 3801SOL    MW414978   3.321   2.192   4.144 -0.1019  0.5506  0.1469
 3802SOL     OW14979   2.637   4.378   1.437 -0.4640  0.3544 -0.2749
 3802SOL    HW214980   2.555   4.386   1.485 -0.5980 -2.0839  0.0123
 3802SOL    HW314981   2.615   4.326   1.359  0.5327  0.9294 -0.9661
 3802SOL    MW414982   2.623   4.372   1.433 -0.5181  0.2327 -0.0691
 3803SOL     OW14983   2.405   1.008   5.168  0.4245 -0.2096 -0.2605
 3803SOL    HW214984   2.415   0.913   5.158  0.5315 -0.3167  0.7613
 3803SOL    HW314985   2.450   1.045   5.093 -0.0920 -0.9827 -0.9651
 3803SOL    MW414986   2.412   1.000   5.157 -0.2644  0.1573 -0.0774
 3804SOL     OW14987   3.063   0.744   5.009  0.2080 -0.0913 -0.1792
 3804SOL    HW214988   3.091   0.656   4.984 -0.8023 -0.2129 -0.9209
 3804SOL    HW314989   3.138   0.799   4.989  2.4149 -1.1994  3.8044
 3804SOL    MW414990   3.077   0.739   5.003 -0.0771  0.0494 -0.5835
 3805SOL     OW14991   4.733   2.452   2.644  0.3759  0.4146 -0.0376
 3805SOL    HW214992   4.784   2.532   2.633 -0.0167  0.4730 -1.5547
 3805SOL    HW314993   4.655   2.465   2.591 -0.0926 -0.6493  0.3539
 3805SOL    MW414994   4.729   2.464   2.636 -0.3013  0.1979 -0.1651
 3806SOL     OW14995   2.401   1.895   4.125 -0.3569 -0.0081  0.3071
 3806SOL    HW214996   2.422   1.988   4.112 -0.7914  0.3148  1.6902
 3806SOL    HW314997   2.390   1.886   4.220  0.5610 -1.6835  0.2875
 3806SOL    MW414998   2.402   1.906   4.136  0.3137 -0.4083  0.3274
 3807SOL     OW14999   2.545   0.151   1.053 -0.0151  0.3549  0.5808
 3807SOL    HW215000   2.616   0.111   1.103  0.5245 -0.0253 -0.4706
 3807SOL    HW315001   2.589   0.203   0.986 -0.7119  1.9202  1.2695
 3807SOL    MW415002   2.560   0.153   1.051 -0.1147 -0.2528  0.2133
 3808SOL     OW15003   1.212   3.602   2.215  0.2067 -0.5788 -0.2542
 3808SOL    HW215004   1.226   3.673   2.152  1.8937 -0.0241  0.6927
 3808SOL    HW315005   1.163   3.642   2.286  0.7667 -0.4732  0.0744
 3808SOL    MW415006   1.207   3.617   2.216  0.2394  0.2157  0.2549
 3809SOL     OW15007   6.400   4.493   2.316 -0.1965 -0.4788  0.3101
 3809SOL    HW215008   6.307   4.478   2.335  0.0974 -1.7432  0.8496
 3809SOL    HW315009   6.404   4.495   2.220 -0.7090 -0.9546  0.2723
 3809SOL    MW415010   6.388   4.491   2.306 -0.1551  0.1536  0.1303
 3810SOL     OW15011   2.705   6.197   5.955 -0.0866 -0.3806  0.4212
 3810SOL    HW215012   2.731   6.214   6.045 -0.3422 -1.1764  0.6568
 3810SOL    HW315013   2.638   6.262   5.935  0.6211  0.3839  0.4897
 3810SOL    MW415014   2.700   6.208   5.964  0.3701  0.2056 -0.5205
 3811SOL     OW15015   6.345   0.020   3.758 -0.3049  0.2702  0.1697
 3811SOL    HW215016   6.418   0.075   3.731  0.2080 -0.6069 -0.2741
 3811SOL    HW315017   6.335  -0.043   3.687 -0.6851 -0.3971  0.8027
 3811SOL    MW415018   6.353   0.019   3.745 -0.0570 -0.0364 -0.0076
 3812SOL     OW15019   6.373   4.200   4.929 -0.3370  0.1049 -0.0040
 3812SOL    HW215020   6.448   4.260   4.933 -1.0134  0.9518  0.1715
 3812SOL    HW315021   6.310   4.245   4.872 -1.2402  0.0059  0.9018
 3812SOL    MW415022   6.375   4.214   4.922 -0.4150 -0.3080  0.0213
 3813SOL     OW15023   1.632   1.248   5.814  0.1772  0.1499  0.2695
 3813SOL    HW215024   1.607   1.339   5.795 -0.4696 -0.1855 -0.5337
 3813SOL    HW315025   1.727   1.247   5.804 -0.0495  0.1193 -2.5900
 3813SOL    MW415026   1.641   1.260   5.811  0.7111  0.8406  0.1210
 3814SOL     OW15027   4.077   3.756   2.454 -0.1922  0.0283 -0.1228
 3814SOL    HW215028   4.056   3.704   2.531  2.7334 -3.3097 -1.3040
 3814SOL    HW315029   4.038   3.707   2.381 -1.3405  2.1320 -1.0212
 3814SOL    MW415030   4.069   3.742   2.454 -0.3983 -0.1209  0.4751
 3815SOL     OW15031   0.657   4.909   5.323 -0.6103  0.1645 -0.1702
 3815SOL    HW215032   0.672   4.851   5.398  1.8426 -1.6475 -1.8824
 3815SOL    HW315033   0.562   4.912   5.312 -0.9038 -1.4779  1.5336
 3815SOL    MW415034   0.647   4.902   5.331  0.3373  0.1158  0.1200
 3816SOL     OW15035   0.587   3.122   5.510  0.0547 -0.1684 -0.0028
 3816SOL    HW215036   0.586   3.182   5.436 -0.4367 -0.7126 -0.4492
 3816SOL    HW315037   0.644   3.050   5.482  0.2961 -0.1199  0.3591
 3816SOL    MW415038   0.594   3.120   5.497 -0.3031  0.4399  0.1159
 3817SOL     OW15039   2.139   3.410   5.355  0.4041  0.2286  0.2868
 3817SOL    HW215040   2.166   3.501   5.353  0.7578  0.1298  0.4658
 3817SOL    HW315041   2.166   3.378   5.441  0.5544 -0.1232  0.1141
 3817SOL    MW415042   2.147   3.418   5.366  0.4740  0.0308  0.0455
 3818SOL     OW15043   5.403   3.068   1.300  0.1921 -0.1975  0.0445
 3818SOL    HW215044   5.394   3.000   1.233  0.1925  0.6174 -0.8083
 3818SOL    HW315045   5.494   3.064   1.327  0.4684  0.1775 -0.7993
 3818SOL    MW415046   5.414   3.059   1.294  0.3022  0.3301  0.1720
 3819SOL     OW15047   2.473   4.375   3.576 -0.2705 -0.0937 -0.3697
 3819SOL    HW215048   2.386   4.390   3.613  0.1980  0.1859  0.6553
 3819SOL    HW315049   2.484   4.280   3.580  0.6113  0.0203  2.3071
 3819SOL    MW415050   2.463   4.364   3.582 -0.0038 -0.4606 -0.0434
 3820SOL     OW15051   3.520   3.197   4.779 -0.3447  0.1319 -0.6252
 3820SOL    HW215052   3.482   3.145   4.708 -0.9042 -0.2876 -0.0211
 3820SOL    HW315053   3.576   3.136   4.826  0.0621  0.4216 -0.7256
 3820SOL    MW415054   3.523   3.182   4.776 -0.6014  0.4336  0.5181
 3821SOL     OW15055   0.188   3.465   4.168 -0.5270  0.0918 -0.4587
 3821SOL    HW215056   0.242   3.439   4.094  0.2504  0.2550  0.0409
 3821SOL    HW315057   0.207   3.558   4.181  1.1035 -0.4296  1.3462
 3821SOL    MW415058   0.197   3.474   4.160 -0.3521  0.2156 -0.0904
 3822SOL     OW15059   1.958   1.887   4.063  0.7958 -0.4951 -0.2960
 3822SOL    HW215060   2.054   1.895   4.061  1.3140 -3.2182  3.1433
 3822SOL    HW315061   1.938   1.823   3.996  1.5630 -0.7391 -0.3041
 3822SOL    MW415062   1.968   1.880   4.054 -0.5710  0.0786 -0.5978
 3823SOL     OW15063   4.751   2.007   4.869  0.3620  0.3592  0.0056
 3823SOL    HW215064   4.746   1.998   4.773 -1.7994 -0.0637  0.1060
 3823SOL    HW315065   4.712   1.926   4.902 -0.1538  1.0859  1.2166
 3823SOL    MW415066   4.745   1.995   4.860  0.5564  0.3273 -0.6231
 3824SOL     OW15067   4.070   2.556   0.787 -0.4602  0.1532  0.1077
 3824SOL    HW215068   4.094   2.592   0.701 -0.0604  1.5283  0.7593
 3824SOL    HW315069   4.108   2.618   0.849  0.6238 -1.6540  1.3340
 3824SOL    MW415070   4.078   2.569   0.784 -0.0963  0.0860 -0.1070
 3825SOL     OW15071   3.797   1.381   2.792 -0.2157 -0.2644  0.2649
 3825SOL    HW215072   3.863   1.449   2.785 -0.9032  0.3859 -0.1452
 3825SOL    HW315073   3.727   1.409   2.732 -1.5923 -0.0663  1.8680
 3825SOL    MW415074   3.796   1.394   2.783 -0.0093 -0.6115  0.0627
 3826SOL     OW15075   0.892   0.226   3.885 -0.0736 -0.3003  0.2604
 3826SOL    HW215076   0.856   0.259   3.967  0.7689  1.4036 -0.0261
 3826SOL    HW315077   0.815   0.215   3.829 -0.4601  0.4905  0.6142
 3826SOL    MW415078   0.877   0.229   3.888  0.2728 -0.3507  0.2446
 3827SOL     OW15079   0.678   4.506   1.389  0.1676  0.4238  0.1704
 3827SOL    HW215080   0.762   4.513   1.342  0.6769  1.7706  1.1986
 3827SOL    HW315081   0.627   4.579   1.356 -0.7694 -0.5951 -0.7017
 3827SOL    MW415082   0.683   4.517   1.378  0.1809 -0.5274 -0.4855
 3828SOL     OW15083   3.197   2.621   2.830  0.0700 -0.3238 -0.2004
 3828SOL    HW215084   3.141   2.664   2.895 -0.1089 -0.4840 -0.2475
 3828SOL    HW315085   3.228   2.542   2.873  0.2889 -0.2181 -0.1629
 3828SOL    MW415086   3.194   2.616   2.844  0.3441  0.4668  0.0439
 3829SOL     OW15087   0.542   0.726   5.983  0.2775  0.6548  0.4513
 3829SOL    HW215088   0.549   0.781   6.061 -1.1075  1.3951  0.1000
 3829SOL    HW315089   0.448   0.706   5.977  0.3591  0.6336 -1.0161
 3829SOL    MW415090   0.530   0.731   5.992 -0.1154  0.6706 -0.6754
 3830SOL     OW15091   3.723   3.472   4.960 -0.1302  0.4490  0.4092
 3830SOL    HW215092   3.688   3.474   4.871 -0.4462 -2.4816  0.3615
 3830SOL    HW315093   3.653   3.433   5.013  0.5684  0.8261  1.6587
 3830SOL    MW415094   3.709   3.467   4.956  0.1034  0.0934 -0.2975
 3831SOL     OW15095   5.782   5.427   1.810  0.3430 -0.4342 -0.0190
 3831SOL    HW215096   5.799   5.339   1.776  0.1839 -1.0023  1.3233
 3831SOL    HW315097   5.869   5.463   1.826  0.4266 -0.0985 -1.1221
 3831SOL    MW415098   5.796   5.420   1.808  0.3587  0.3451 -0.2098
 3832SOL     OW15099   3.079   0.876   4.196 -0.2225 -0.2050  0.1329
 3832SOL    HW215100   3.049   0.788   4.171  1.3790 -0.6720 -0.3071
 3832SOL    HW315101   3.003   0.932   4.185 -1.1088 -1.4357 -0.2083
 3832SOL    MW415102   3.065   0.872   4.191 -0.1253 -0.0568  0.1500
 3833SOL     OW15103   1.517   3.606   3.620 -0.1139  0.2278 -0.3134
 3833SOL    HW215104   1.508   3.679   3.559 -0.2634 -0.8667 -1.6237
 3833SOL    HW315105   1.549   3.533   3.567 -1.3539 -1.0864  0.6755
 3833SOL    MW415106   1.520   3.606   3.605 -0.3498  0.4844  0.9853
 3834SOL     OW15107   4.412   0.591   5.901 -0.0163 -0.5490 -0.1260
 3834SOL    HW215108   4.348   0.653   5.937  2.8233  1.0580  2.5785
 3834SOL    HW315109   4.454   0.639   5.829  1.2453  0.2278  1.0904
 3834SOL    MW415110   4.409   0.606   5.896 -0.0838 -0.0754 -0.5036
 3835SOL     OW15111   3.426   5.531   0.987 -0.7872 -0.2868  0.5635
 3835SOL    HW215112   3.451   5.617   0.953 -1.4776  0.2217  1.3132
 3835SOL    HW315113   3.332   5.524   0.968 -1.2848  0.1770  2.6512
 3835SOL    MW415114   3.417   5.542   0.980 -0.6688 -0.3053 -0.4280
 3836SOL     OW15115   4.681   4.542   2.493 -0.5778 -0.5103  0.5763
 3836SOL    HW215116   4.676   4.590   2.576 -0.4857 -0.5671  0.6143
 3836SOL    HW315117   4.770   4.507   2.490 -0.1790  0.5146 -0.1118
 3836SOL    MW415118   4.692   4.544   2.503  0.1928  0.1188  0.1160
 3837SOL     OW15119   4.055   1.803   4.589  0.0728 -0.0187  0.1504
 3837SOL    HW215120   4.033   1.731   4.530  0.4619 -1.4661  1.7108
 3837SOL    HW315121   4.096   1.869   4.532 -0.1157 -1.0977 -1.2849
 3837SOL    MW415122   4.058   1.802   4.573  0.0633 -0.3813 -0.0321
 3838SOL     OW15123   3.866   2.643   2.080 -0.2284  0.5119  0.2558
 3838SOL    HW215124   3.832   2.667   2.166 -0.2814 -0.8173  0.6348
 3838SOL    HW315125   3.789   2.610   2.033 -0.7550  3.6014 -1.2722
 3838SOL    MW415126   3.851   2.642   2.085  0.2516 -0.0122 -0.4711
 3839SOL     OW15127   3.345   1.464   1.058 -0.2072 -0.2726 -0.3662
 3839SOL    HW215128   3.428   1.481   1.015 -0.3734  1.1765 -0.1454
 3839SOL    HW315129   3.306   1.550   1.071  0.0828 -0.5242  3.2061
 3839SOL    MW415130   3.351   1.477   1.054 -0.3310  0.2960 -0.4880
 3840SOL     OW15131   4.393   3.745   0.307 -0.3466 -0.2612 -0.0650
 3840SOL    HW215132   4.324   3.766   0.244  0.3278 -0.7902 -1.0058
 3840SOL    HW315133   4.353   3.760   0.392 -1.1600  0.8351 -0.6207
 3840SOL    MW415134   4.379   3.749   0.310 -0.0367  0.4156  0.0173
 3841SOL     OW15135   1.659   3.270   3.113 -0.2473 -0.2745 -0.5189
 3841SOL    HW215136   1.604   3.333   3.159 -0.4471  0.1856 -1.3646
 3841SOL    HW315137   1.746   3.283   3.148 -0.4992 -0.3247  0.1307
 3841SOL    MW415138   1.663   3.280   3.123  0.2902 -0.0305 -0.1140
 3842SOL     OW15139   5.880   5.421   6.015 -0.0702  0.6029  0.3764
 3842SOL    HW215140   5.803   5.377   5.979 -0.0122 -0.2802  1.2865
 3842SOL    HW315141   5.892   5.381   6.101  1.2383  0.9351  0.3664
 3842SOL    MW415142   5.871   5.410   6.022 -0.0998 -0.0182  0.5154
 3843SOL     OW15143   3.834   4.746   2.303  0.0161 -0.4000  0.6214
 3843SOL    HW215144   3.899   4.724   2.369  0.4241 -0.4078  0.2218
 3843SOL    HW315145   3.878   4.810   2.247 -1.3345  2.0068  2.1239
 3843SOL    MW415146   3.848   4.751   2.304 -0.3755 -0.1533  0.1373
 3844SOL     OW15147   6.206   4.277   5.249 -0.2829 -0.1822 -0.6372
 3844SOL    HW215148   6.145   4.346   5.222 -0.7563 -0.2442  0.2411
 3844SOL    HW315149   6.183   4.202   5.195 -0.9311 -0.1803 -0.3721
 3844SOL    MW415150   6.195   4.276   5.238 -0.1929  0.3025  0.0175
 3845SOL     OW15151   3.558   3.371   4.113 -0.3159 -0.3841 -0.0641
 3845SOL    HW215152   3.634   3.356   4.169 -0.4449 -0.2377  0.1518
 3845SOL    HW315153   3.595   3.408   4.032 -0.0200 -1.6190 -0.5167
 3845SOL    MW415154   3.573   3.374   4.110  0.6201  0.0917  0.4359
 3846SOL     OW15155   1.025   1.291   4.923  0.3598 -0.3558  0.3274
 3846SOL    HW215156   1.118   1.272   4.911  0.6003  1.3892 -0.9651
 3846SOL    HW315157   0.981   1.207   4.910  1.6387 -0.8913 -0.7277
 3846SOL    MW415158   1.031   1.277   4.920  0.5362  0.6789 -0.5894
 3847SOL     OW15159   1.218   5.952   5.117 -0.2506  0.1682  0.1207
 3847SOL    HW215160   1.142   5.972   5.061 -0.6807  0.5550  0.8267
 3847SOL    HW315161   1.214   5.857   5.129  0.3072 -0.0390 -1.1435
 3847SOL    MW415162   1.207   5.942   5.111  0.8699  0.1380  0.4239
 3848SOL     OW15163   0.629   4.912   0.920  0.5712 -0.5346 -0.2277
 3848SOL    HW215164   0.687   4.973   0.874  0.9088 -0.9593 -0.3724
 3848SOL    HW315165   0.644   4.931   1.013  0.3653 -0.1169 -0.2752
 3848SOL    MW415166   0.638   4.923   0.926  0.2414  0.0530 -0.0261
 3849SOL     OW15167   5.318   0.185   0.605 -0.1744  0.3919 -0.3449
 3849SOL    HW215168   5.298   0.243   0.679 -1.6923  1.5696 -1.6038
 3849SOL    HW315169   5.365   0.240   0.543 -0.9358  0.0778 -1.2252
 3849SOL    MW415170   5.321   0.200   0.606 -0.4525  0.4777  0.0202
 3850SOL     OW15171   3.473   2.733   1.420 -0.6940  0.6303 -0.3737
 3850SOL    HW215172   3.542   2.799   1.411  0.5757 -0.4436  0.9283
 3850SOL    HW315173   3.392   2.783   1.429  0.2186  2.0263  0.4868
 3850SOL    MW415174   3.472   2.748   1.420  0.0622 -0.0396 -0.6593
 3851SOL     OW15175   3.747   0.221   5.551 -0.5579  0.1122  0.0794
 3851SOL    HW215176   3.781   0.255   5.468 -0.4975  0.2435  0.1576
 3851SOL    HW315177   3.693   0.292   5.586 -1.2317 -0.2433 -0.2358
 3851SOL    MW415178   3.744   0.235   5.545  0.3491 -0.3018 -0.0668
 3852SOL     OW15179   3.612   5.814   4.072 -0.1658  0.4363 -0.3652
 3852SOL    HW215180   3.662   5.737   4.045  1.1822  1.4412 -0.8881
 3852SOL    HW315181   3.671   5.887   4.055 -1.8198  1.6904 -0.9549
 3852SOL    MW415182   3.627   5.813   4.066 -0.1144 -0.2100  0.3352
 3853SOL     OW15183   3.717   4.908   4.361  0.0116 -0.4546 -0.0541
 3853SOL    HW215184   3.761   4.966   4.424 -1.0623  0.7940 -0.4174
 3853SOL    HW315185   3.624   4.929   4.369 -0.2431 -0.9886 -1.3324
 3853SOL    MW415186   3.711   4.918   4.370  0.2407 -0.0409 -0.1608
 3854SOL     OW15187   1.952   3.732   4.871 -0.5621  0.2773  0.2309
 3854SOL    HW215188   1.960   3.658   4.810 -0.1537  1.1694 -0.8401
 3854SOL    HW315189   1.880   3.708   4.929 -1.8235 -0.0672 -1.3957
 3854SOL    MW415190   1.944   3.719   4.871  0.2412 -0.0380  0.2594
 3855SOL     OW15191   1.552   6.379   2.573 -0.1586 -0.4547 -0.7070
 3855SOL    HW215192   1.546   6.413   2.483  0.5123  2.0654  0.1028
 3855SOL    HW315193   1.536   6.455   2.628 -0.7182 -1.9778  1.3449
 3855SOL    MW415194   1.549   6.394   2.568 -0.5351  0.2066 -0.7787
 3856SOL     OW15195   5.580   5.853   6.077 -0.4036  0.1475 -0.2772
 3856SOL    HW215196   5.491   5.822   6.091 -0.4476 -0.1546 -1.1527
 3856SOL    HW315197   5.636   5.779   6.100 -0.4297 -0.0064 -0.7016
 3856SOL    MW415198   5.576   5.839   6.082  0.4158 -0.3253 -0.6355
 3857SOL     OW15199   3.816   4.281   5.419  0.0469 -0.3522  0.8463
 3857SOL    HW215200   3.898   4.292   5.468 -0.5159  0.0043  1.7247
 3857SOL    HW315201   3.834   4.321   5.334  1.4492 -2.0861  0.2759
 3857SOL    MW415202   3.829   4.288   5.414  0.3764 -0.3795  0.5701
 3858SOL     OW15203   0.570   2.441   1.149  0.1401 -0.2889  0.3976
 3858SOL    HW215204   0.592   2.445   1.056 -0.4450  0.0697  0.2664
 3858SOL    HW315205   0.643   2.483   1.193  0.2421 -0.1159  0.0681
 3858SOL    MW415206   0.582   2.447   1.142 -0.2264  0.4574 -0.2182
 3859SOL     OW15207   4.475   2.496   3.517  0.5615 -0.2368  0.3644
 3859SOL    HW215208   4.397   2.443   3.501 -1.1205  1.8028  1.3423
 3859SOL    HW315209   4.532   2.441   3.570 -1.8868 -0.5380  2.8487
 3859SOL    MW415210   4.472   2.482   3.522 -0.0305  0.9920 -0.0416
 3860SOL     OW15211   5.110   3.478   3.827 -0.7059  0.2236 -0.1466
 3860SOL    HW215212   5.059   3.479   3.908 -2.2847  3.0231 -1.0595
 3860SOL    HW315213   5.087   3.394   3.786 -0.7875 -0.7087  1.7160
 3860SOL    MW415214   5.100   3.467   3.832  0.2642 -0.2450  0.4749
 3861SOL     OW15215   0.290   2.745   3.713 -0.4270 -0.0508  0.5225
 3861SOL    HW215216   0.353   2.689   3.668  0.2826  0.6984  0.5698
 3861SOL    HW315217   0.210   2.736   3.661 -0.4495 -1.3972  0.7458
 3861SOL    MW415218   0.288   2.736   3.700  0.7138  0.2206  0.2592
 3862SOL     OW15219   5.343   4.120   6.139 -0.8615 -0.5392 -0.0721
 3862SOL    HW215220   5.277   4.143   6.074 -1.2155 -0.9050  0.1569
 3862SOL    HW315221   5.324   4.177   6.214 -0.7479 -0.4546 -0.1062
 3862SOL    MW415222   5.332   4.131   6.140 -0.3550  0.5540  0.0812
 3863SOL     OW15223   5.364   2.077   1.283 -0.3449  0.3531 -0.3825
 3863SOL    HW215224   5.309   2.002   1.307  1.3446 -0.3038  1.6902
 3863SOL    HW315225   5.437   2.038   1.235  0.0622  0.7945 -0.1186
 3863SOL    MW415226   5.366   2.062   1.280  0.2594 -0.5806 -0.0118
 3864SOL     OW15227   5.974   5.423   0.095 -0.5963 -0.2360 -0.3106
 3864SOL    HW215228   5.986   5.373   0.014  1.5514 -1.9782  0.9501
 3864SOL    HW315229   5.924   5.365   0.152 -1.7904  0.8405 -0.2205
 3864SOL    MW415230   5.969   5.409   0.091 -0.5142  0.7864  0.7005
 3865SOL     OW15231   4.571   3.509   5.395 -0.0309 -0.1807 -0.2004
 3865SOL    HW215232   4.638   3.491   5.462 -1.4656 -1.7968  0.8789
 3865SOL    HW315233   4.547   3.600   5.409  1.2887  0.1552 -0.0100
 3865SOL    MW415234   4.577   3.518   5.406 -0.3827 -0.4439  0.3808
 3866SOL     OW15235   2.901   3.721   5.195  0.4550 -0.3396 -0.2054
 3866SOL    HW215236   2.965   3.672   5.248 -0.2725  0.2094  1.2386
 3866SOL    HW315237   2.955   3.776   5.137  1.3748  0.8533  1.6608
 3866SOL    MW415238   2.917   3.722   5.194  0.5332 -0.1099 -0.0963
 3867SOL     OW15239   0.319   5.741   1.603 -0.0042  0.3127 -0.5129
 3867SOL    HW215240   0.285   5.769   1.518  0.8367  1.1480 -0.5874
 3867SOL    HW315241   0.414   5.743   1.594  0.1180  1.0726  0.6317
 3867SOL    MW415242   0.327   5.745   1.591  0.0414  0.0979 -0.3005
 3868SOL     OW15243   5.500   4.491   6.021  0.4617 -0.3376  0.3892
 3868SOL    HW215244   5.576   4.521   6.072 -1.5019  0.0422  3.3938
 3868SOL    HW315245   5.429   4.485   6.086 -1.8898 -1.4658 -2.0882
 3868SOL    MW415246   5.501   4.494   6.036  0.5257 -0.0275 -0.1038
 3869SOL     OW15247   2.500   2.107   3.680 -0.0697 -0.2505  0.0453
 3869SOL    HW215248   2.427   2.062   3.638  0.4861 -0.4053 -0.7835
 3869SOL    HW315249   2.564   2.038   3.697  0.0119 -0.0666  0.4911
 3869SOL    MW415250   2.499   2.092   3.676 -0.5602  0.1119  0.0768
 3870SOL     OW15251   4.777   4.750   4.970 -0.5095 -0.4888 -0.7258
 3870SOL    HW215252   4.778   4.657   4.945 -0.8282 -0.4600 -0.8603
 3870SOL    HW315253   4.867   4.770   4.993 -0.4112 -0.7973 -0.8331
 3870SOL    MW415254   4.789   4.740   4.970  0.0868  1.0706 -0.1285
 3871SOL     OW15255   3.113   2.850   3.559  0.1884 -0.3116 -0.2662
 3871SOL    HW215256   3.202   2.868   3.588 -0.7268  2.0622  1.4464
 3871SOL    HW315257   3.064   2.836   3.640 -0.6910 -3.9178 -1.2118
 3871SOL    MW415258   3.118   2.850   3.574  0.5483 -0.0300 -0.3503
 3872SOL     OW15259   6.339   2.161   0.050  0.2657 -0.2985 -0.1901
 3872SOL    HW215260   6.250   2.167   0.086 -0.4345 -0.9089 -1.7600
 3872SOL    HW315261   6.370   2.076   0.080  1.0562  0.6312  1.8587
 3872SOL    MW415262   6.331   2.151   0.059 -0.4015 -0.2584  0.3627
 3873SOL     OW15263   1.486   0.173   0.624  0.1578 -0.0196  0.6005
 3873SOL    HW215264   1.460   0.152   0.713 -1.1810  1.9539  0.7316
 3873SOL    HW315265   1.523   0.092   0.589 -0.9825 -1.3225  2.3280
 3873SOL    MW415266   1.488   0.160   0.631 -0.8316 -0.3652 -0.1990
 3874SOL     OW15267   3.467   3.606   1.134 -0.0404  0.2145 -0.8869
 3874SOL    HW215268   3.456   3.544   1.062 -1.3447  1.1632 -1.5478
 3874SOL    HW315269   3.547   3.653   1.113  0.9750 -1.2196 -0.3686
 3874SOL    MW415270   3.476   3.604   1.122 -0.1931 -0.3971 -0.5793
 3875SOL     OW15271   2.861   5.215   1.463 -0.4719  0.6256 -0.6642
 3875SOL    HW215272   2.934   5.153   1.465 -0.8547  0.1569 -1.1050
 3875SOL    HW315273   2.807   5.191   1.539  0.3764  1.6565  0.2964
 3875SOL    MW415274   2.863   5.204   1.473 -0.3380  0.5971 -0.1375
 3876SOL     OW15275   4.669   3.423   2.563  0.3378 -0.1562 -0.3206
 3876SOL    HW215276   4.665   3.417   2.659  0.6762 -0.4750 -0.3215
 3876SOL    HW315277   4.596   3.480   2.539 -0.0404 -0.4608  0.0945
 3876SOL    MW415278   4.659   3.430   2.573 -0.0860  0.3177  0.4246
 3877SOL     OW15279   0.948   6.259   4.434  0.4406 -0.2911  0.4603
 3877SOL    HW215280   0.897   6.280   4.512  0.8919  0.3495  0.5917
 3877SOL    HW315281   0.893   6.198   4.385  0.1160 -0.6234  1.2299
 3877SOL    MW415282   0.934   6.254   4.438 -0.4724  0.4954  0.0594
 3878SOL     OW15283   4.813   4.086   4.287  0.3722 -0.7234  0.1416
 3878SOL    HW215284   4.784   4.085   4.196  0.5107  1.1533  0.0390
 3878SOL    HW315285   4.742   4.043   4.335 -0.1257 -0.8969 -0.7246
 3878SOL    MW415286   4.800   4.080   4.282 -0.2271 -0.3571 -0.2856
 3879SOL     OW15287   0.404   4.732   1.927 -0.5140 -0.1405 -0.4144
 3879SOL    HW215288   0.353   4.709   1.849  0.4201  0.2104 -1.1518
 3879SOL    HW315289   0.364   4.814   1.958 -1.3755 -0.6822 -0.0584
 3879SOL    MW415290   0.392   4.740   1.921  0.2925 -0.0159  0.3039
 3880SOL     OW15291   2.332   1.397   0.226  0.7328  0.5250  0.0642
 3880SOL    HW215292   2.408   1.453   0.242  1.6117 -0.1394 -1.5548
 3880SOL    HW315293   2.362   1.333   0.162 -1.1104  0.0428 -0.3881
 3880SOL    MW415294   2.346   1.396   0.220 -0.0923 -0.3096 -0.6591
 3881SOL     OW15295   6.245   1.905   3.696 -0.2914 -0.5274 -0.2044
 3881SOL    HW215296   6.286   1.958   3.629  1.6659  1.0273  2.0753
 3881SOL    HW315297   6.220   1.967   3.765  0.2284 -2.2636  1.6696
 3881SOL    MW415298   6.247   1.920   3.696 -0.1523 -0.5613  0.0719
 3882SOL     OW15299   4.061   5.638   5.521 -0.3689  0.1327 -0.3657
 3882SOL    HW215300   4.150   5.605   5.514 -0.5605 -0.2185 -1.3082
 3882SOL    HW315301   4.057   5.711   5.460 -0.8854 -0.2329 -0.7823
 3882SOL    MW415302   4.072   5.643   5.512  0.3289 -0.5257 -0.6525
 3883SOL     OW15303   5.833   3.221   6.358  0.4517 -0.2540 -0.4406
 3883SOL    HW215304   5.822   3.257   6.446 -2.6730  2.5665 -1.7385
 3883SOL    HW315305   5.757   3.165   6.345  0.6065 -0.2449 -1.5000
 3883SOL    MW415306   5.822   3.218   6.368  0.7952  0.2704 -0.6325
 3884SOL     OW15307   4.528   3.404   0.405 -0.0217 -0.3699  0.2591
 3884SOL    HW215308   4.575   3.379   0.485 -0.5477 -2.8327 -0.1237
 3884SOL    HW315309   4.598   3.422   0.341  0.3967 -0.5261  0.6669
 3884SOL    MW415310   4.544   3.403   0.407 -0.2116  0.3954 -0.2880
 3885SOL     OW15311   5.140   6.194   1.543 -0.3164 -0.1011 -0.0888
 3885SOL    HW215312   5.169   6.138   1.615  0.6318  0.7996  0.2590
 3885SOL    HW315313   5.204   6.178   1.473 -1.1587 -0.8777 -0.7054
 3885SOL    MW415314   5.153   6.185   1.543  0.1156  0.0035 -0.4826
 3886SOL     OW15315   4.515   6.042   0.894  0.0197  0.3836  0.1163
 3886SOL    HW215316   4.595   6.094   0.880  0.3689 -0.6957 -2.3007
 3886SOL    HW315317   4.547   5.952   0.904 -0.8749 -0.1533 -1.5003
 3886SOL    MW415318   4.530   6.037   0.894 -0.1156 -0.4715  0.5821
 3887SOL     OW15319   3.642   5.688   2.580 -0.2136  0.0638  0.0216
 3887SOL    HW215320   3.649   5.594   2.594 -0.0363 -0.2170 -1.7236
 3887SOL    HW315321   3.719   5.725   2.623  0.5469 -0.7606 -0.5969
 3887SOL    MW415322   3.653   5.680   2.587  0.2544 -0.2336 -0.2702
 3888SOL     OW15323   3.483   6.058   2.746  0.3315  0.1630 -0.0397
 3888SOL    HW215324   3.440   6.139   2.775 -0.1672 -0.6927  1.7089
 3888SOL    HW315325   3.572   6.085   2.723  0.2877  1.1415  0.8838
 3888SOL    MW415326   3.489   6.073   2.747  0.5347 -0.6280  0.0426
 3889SOL     OW15327   1.951   0.034   2.617 -0.0832  0.0774  0.5542
 3889SOL    HW215328   1.950   0.096   2.544 -1.0211  2.6770  2.6178
 3889SOL    HW315329   1.883   0.065   2.677  0.2059 -2.2946  2.2842
 3889SOL    MW415330   1.942   0.046   2.616  0.4766  0.1562  0.3929
 3890SOL     OW15331   1.020   2.935   4.830  0.3499  0.4517 -0.5266
 3890SOL    HW215332   0.964   2.987   4.772 -0.2081  0.0758 -0.3297
 3890SOL    HW315333   1.107   2.944   4.792  0.0591  0.5381 -1.1948
 3890SOL    MW415334   1.024   2.943   4.817 -0.2946 -0.4602 -0.2894
 3891SOL     OW15335   6.238   5.483   4.383  0.4085 -0.2597  0.2909
 3891SOL    HW215336   6.288   5.422   4.330  0.5531  1.7251 -2.0581
 3891SOL    HW315337   6.147   5.466   4.360  0.5084  1.1188 -1.3455
 3891SOL    MW415338   6.233   5.473   4.373  0.3409  0.2585  0.1548
 3892SOL     OW15339   1.180   3.620   3.750 -0.0790  0.1464  0.2125
 3892SOL    HW215340   1.232   3.546   3.719 -0.2791 -0.4604  1.2468
 3892SOL    HW315341   1.129   3.584   3.823 -0.2588  1.2816  0.6688
 3892SOL    MW415342   1.180   3.606   3.756  1.0952  0.6282  0.3855
 3893SOL     OW15343   1.307   2.548   2.927 -0.0844 -0.3294 -0.4660
 3893SOL    HW215344   1.363   2.474   2.903 -0.3981 -0.5585 -0.4965
 3893SOL    HW315345   1.311   2.551   3.022 -0.9996 -1.1287 -0.3813
 3893SOL    MW415346   1.315   2.539   2.936 -0.3063 -0.0505 -0.1236
 3894SOL     OW15347   6.122   2.729   1.819  0.0180 -0.4042 -0.1045
 3894SOL    HW215348   6.034   2.752   1.788 -0.2674  1.6944  1.9846
 3894SOL    HW315349   6.111   2.711   1.912  1.8347  0.1896  0.2663
 3894SOL    MW415350   6.109   2.730   1.827 -0.8327  0.6339  0.2972
 3895SOL     OW15351   1.003   1.742   2.182 -0.4301  0.2965  0.2383
 3895SOL    HW215352   1.054   1.704   2.111 -0.0087  1.1316  0.0890
 3895SOL    HW315353   1.028   1.691   2.259  1.0786  1.0578  0.2828
 3895SOL    MW415354   1.013   1.730   2.183 -0.3327  0.1553 -0.0623
 3896SOL     OW15355   6.008   2.444   5.232  0.4299 -0.4649  0.2542
 3896SOL    HW215356   5.924   2.408   5.259 -0.3663  0.1354 -1.2792
 3896SOL    HW315357   6.003   2.538   5.253  0.2673 -0.2218 -0.8161
 3896SOL    MW415358   5.996   2.452   5.238 -0.3826  0.1473 -0.0514
 3897SOL     OW15359   2.299   6.333   1.248  0.5287  0.6423  0.6138
 3897SOL    HW215360   2.327   6.352   1.158 -0.3804  0.9720  0.3914
 3897SOL    HW315361   2.376   6.354   1.301  0.9681  0.7706 -0.0562
 3897SOL    MW415362   2.313   6.339   1.243  0.3419 -0.0032  0.4700
 3898SOL     OW15363   4.403   4.308   1.587  0.3111 -0.0399 -0.3688
 3898SOL    HW215364   4.472   4.242   1.597  0.0947 -0.1720  0.3074
 3898SOL    HW315365   4.344   4.292   1.661 -1.9311 -1.6773 -2.3932
 3898SOL    MW415366   4.405   4.298   1.598  0.3968  0.4508  0.6521
 3899SOL     OW15367   6.130   4.906   5.722  0.0968  0.4573  0.0487
 3899SOL    HW215368   6.153   4.850   5.648  2.2076 -0.5018  1.3265
 3899SOL    HW315369   6.039   4.883   5.742 -0.2435  0.1400 -1.6948
 3899SOL    MW415370   6.121   4.895   5.715  0.1747 -0.4843 -0.1232
 3900SOL     OW15371   1.889   2.971   0.207 -0.4823  0.7497  0.1916
 3900SOL    HW215372   1.844   2.895   0.242 -0.1496 -0.9453 -2.7058
 3900SOL    HW315373   1.826   3.043   0.217 -1.5156 -0.2703  1.3768
 3900SOL    MW415374   1.875   2.970   0.213 -0.0802 -0.2996 -0.1624
 3901SOL     OW15375   4.967   4.140   3.135  0.0045 -0.3193 -0.3311
 3901SOL    HW215376   5.011   4.218   3.101  0.7758 -0.1046  1.1008
 3901SOL    HW315377   4.932   4.168   3.220 -1.0633 -1.1081 -0.4864
 3901SOL    MW415378   4.968   4.154   3.142  0.4794  0.7802 -0.0526
 3902SOL     OW15379   2.406   2.149   0.411  0.5217  0.0235  0.1775
 3902SOL    HW215380   2.434   2.058   0.399  0.8260  0.1852 -0.3666
 3902SOL    HW315381   2.429   2.192   0.329 -0.7849  0.3028 -0.0682
 3902SOL    MW415382   2.413   2.143   0.398 -0.5408  0.6309 -0.3298
 3903SOL     OW15383   1.840   6.283   4.569  0.2117 -0.2371  0.0011
 3903SOL    HW215384   1.891   6.251   4.494 -1.6067 -2.8089 -0.2796
 3903SOL    HW315385   1.827   6.376   4.550  1.9381 -0.2406 -1.5623
 3903SOL    MW415386   1.845   6.291   4.556  0.2100 -0.2296 -0.0224
 3904SOL     OW15387   1.918   5.464   0.996  0.3443 -0.4747  0.6939
 3904SOL    HW215388   1.929   5.495   0.907 -0.7439 -1.2706  0.2634
 3904SOL    HW315389   1.848   5.398   0.991 -0.7060  0.4305  2.3423
 3904SOL    MW415390   1.910   5.459   0.984  0.5780 -0.2666 -0.7897
 3905SOL     OW15391   0.875   5.540   5.462  0.5201 -0.1355  0.2803
 3905SOL    HW215392   0.889   5.463   5.518  0.8012  0.1170  0.5578
 3905SOL    HW315393   0.780   5.550   5.459  0.4432 -0.9500 -0.3776
 3905SOL    MW415394   0.864   5.531   5.469 -0.0771 -0.1285 -0.1248
 3906SOL     OW15395   1.703   4.329   3.854 -0.4577  0.1929 -0.0379
 3906SOL    HW215396   1.679   4.252   3.803  0.8693  0.0051 -0.4320
 3906SOL    HW315397   1.696   4.302   3.945  1.5490 -0.9553 -0.1684
 3906SOL    MW415398   1.699   4.315   3.859 -0.3563 -0.1229 -0.6077
 3907SOL     OW15399   2.860   0.783   1.526 -0.3565  0.2538 -0.2486
 3907SOL    HW215400   2.907   0.701   1.539 -1.4243 -0.2496  0.6822
 3907SOL    HW315401   2.914   0.833   1.465  0.8345 -0.7093 -0.0227
 3907SOL    MW415402   2.873   0.779   1.520 -0.3049  0.2047 -0.6086
 3908SOL     OW15403   5.385   5.452   6.041 -0.1776  0.6755  0.2107
 3908SOL    HW215404   5.448   5.425   5.974  0.0787 -1.1247  1.1237
 3908SOL    HW315405   5.300   5.450   5.996  0.1259  0.6433 -0.3689
 3908SOL    MW415406   5.382   5.448   6.026 -0.6464 -0.4596 -0.0835
 3909SOL     OW15407   1.175   3.204   1.081  0.3106 -0.5028 -0.4292
 3909SOL    HW215408   1.203   3.212   1.173 -0.0706 -0.9356 -0.2712
 3909SOL    HW315409   1.210   3.282   1.039 -1.0790  0.6896  0.4907
 3909SOL    MW415410   1.183   3.215   1.088  0.2530  1.1790  0.4298
 3910SOL     OW15411   1.138   4.359   6.024 -0.1527  0.0644 -0.5979
 3910SOL    HW215412   1.228   4.368   6.054 -0.2274 -0.2233 -0.2907
 3910SOL    HW315413   1.143   4.300   5.949  0.0129  0.6604 -1.0636
 3910SOL    MW415414   1.150   4.353   6.018 -0.1686  0.6215  0.0099
 3911SOL     OW15415   0.459   6.177   2.805 -0.4006  0.1005  0.4212
 3911SOL    HW215416   0.409   6.099   2.830 -1.1213 -0.1560 -1.6855
 3911SOL    HW315417   0.531   6.179   2.868 -0.3735 -2.2462  0.5585
 3911SOL    MW415418   0.462   6.167   2.817  0.2036 -0.4343  0.0427
 3912SOL     OW15419   0.920   4.391   4.462 -0.4697  0.1559 -0.0701
 3912SOL    HW215420   0.969   4.311   4.442 -0.2696  0.2753 -0.0519
 3912SOL    HW315421   0.979   4.463   4.440 -1.1263  0.3271 -1.3510
 3912SOL    MW415422   0.934   4.390   4.456  0.0577  0.2982  0.0315
 3913SOL     OW15423   4.874   2.604   1.653 -0.7155 -0.6369 -0.0808
 3913SOL    HW215424   4.792   2.634   1.693 -1.6752 -1.6959 -1.1741
 3913SOL    HW315425   4.878   2.511   1.673 -0.3768 -0.8373 -1.0545
 3913SOL    MW415426   4.864   2.596   1.661 -0.4337  0.5254  0.2900
 3914SOL     OW15427   5.043   5.425   1.810 -0.2770 -0.2543 -0.6445
 3914SOL    HW215428   4.986   5.359   1.771 -0.8041 -0.3164  0.1986
 3914SOL    HW315429   5.007   5.438   1.898  2.0687 -1.5733  0.5900
 3914SOL    MW415430   5.030   5.418   1.816 -0.0663 -0.1396 -0.3826
 3915SOL     OW15431   0.926   3.951   4.586  0.3492  0.5541 -0.3859
 3915SOL    HW215432   0.925   3.916   4.497 -1.5667  0.2684 -0.2874
 3915SOL    HW315433   0.998   3.905   4.629 -1.0421 -2.1097 -0.7396
 3915SOL    MW415434   0.936   3.940   4.580 -0.7754  0.2491 -0.0632
 3916SOL     OW15435   3.715   4.549   0.358  0.3897 -0.0967  0.2921
 3916SOL    HW215436   3.789   4.567   0.416  0.9050  2.0157 -0.9226
 3916SOL    HW315437   3.742   4.472   0.308  1.1018 -0.2741  0.9274
 3916SOL    MW415438   3.728   4.541   0.359 -0.5659  0.2276 -0.2828
 3917SOL     OW15439   3.067   1.390   0.901 -0.8062 -0.1118  0.2858
 3917SOL    HW215440   2.984   1.427   0.871 -1.3562 -0.1880  1.6065
 3917SOL    HW315441   3.086   1.319   0.840 -0.8113  1.0017 -1.0467
 3917SOL    MW415442   3.059   1.385   0.889  0.4462 -1.2579  0.5044
 3918SOL     OW15443   5.905   1.577   3.463 -0.2425 -0.1122  0.2180
 3918SOL    HW215444   5.947   1.593   3.378 -0.7973  0.1946 -0.0053
 3918SOL    HW315445   5.951   1.634   3.523  1.0193 -1.2759  0.3940
 3918SOL    MW415446   5.916   1.587   3.459 -0.2938  0.0858  0.1963
 3919SOL     OW15447   3.578   5.369   3.179 -0.6149 -0.2055 -0.3313
 3919SOL    HW215448   3.568   5.454   3.222  0.9460 -0.9427  1.6224
 3919SOL    HW315449   3.648   5.383   3.115 -0.3493 -0.0027  0.0001
 3919SOL    MW415450   3.586   5.382   3.176 -0.2885  0.1658 -0.1372
 3920SOL     OW15451   4.888   4.910   6.026  0.3434 -0.2365 -0.0346
 3920SOL    HW215452   4.822   4.911   5.957 -0.1035  1.4318  0.3655
 3920SOL    HW315453   4.956   4.971   5.996  0.0415  0.6887  1.0506
 3920SOL    MW415454   4.888   4.918   6.013  0.5584  0.5958 -0.4598
 3921SOL     OW15455   6.428   0.804   2.442  0.7133 -0.0329  0.0525
 3921SOL    HW215456   6.508   0.857   2.437  0.4427  0.3976  0.2139
 3921SOL    HW315457   6.428   0.752   2.362  1.0993  0.0490 -0.0014
 3921SOL    MW415458   6.438   0.804   2.431  0.1933  0.5814  0.2779
 3922SOL     OW15459   3.478   6.373   0.170 -0.1144 -0.3432 -0.1706
 3922SOL    HW215460   3.383   6.383   0.167 -0.2304 -1.3019 -0.1240
 3922SOL    HW315461   3.496   6.334   0.255  0.2188 -1.0275 -0.5399
 3922SOL    MW415462   3.468   6.369   0.181  0.5261  0.1155  0.3838
 3923SOL     OW15463   0.791   2.819   1.321  0.2114  0.2356 -0.3370
 3923SOL    HW215464   0.815   2.827   1.413  1.0533  0.2089 -0.5486
 3923SOL    HW315465   0.814   2.904   1.283 -0.8246  0.5112 -0.3747
 3923SOL    MW415466   0.797   2.831   1.328  0.2961 -0.3796  0.0052
 3924SOL     OW15467   0.579   5.756   1.475 -0.1740 -0.1667  0.6591
 3924SOL    HW215468   0.554   5.843   1.445  2.5233  0.2424 -0.7692
 3924SOL    HW315469   0.650   5.771   1.537  2.8400 -1.2214 -2.1967
 3924SOL    MW415470   0.585   5.769   1.479  0.7549  0.5209 -0.3399
 3925SOL     OW15471   2.603   5.245   6.345 -0.0963 -0.7680  0.3561
 3925SOL    HW215472   2.539   5.178   6.371 -0.1650 -1.0838 -0.5927
 3925SOL    HW315473   2.588   5.317   6.406 -1.4607 -0.7743  0.0555
 3925SOL    MW415474   2.593   5.245   6.357  0.3237  0.1284  0.6867
 3926SOL     OW15475   2.461   4.764   0.575 -0.1235 -0.8341  0.4732
 3926SOL    HW215476   2.549   4.750   0.610  0.3903  1.7914  0.4011
 3926SOL    HW315477   2.416   4.817   0.640  0.2977  2.7046 -1.8585
 3926SOL    MW415478   2.467   4.769   0.588  0.1556  0.0387 -0.3228
 3927SOL     OW15479   5.352   4.996   4.803 -0.0638 -0.1359  0.3946
 3927SOL    HW215480   5.375   4.956   4.886  0.2867 -1.4627 -0.3121
 3927SOL    HW315481   5.257   5.005   4.806  0.0288  0.7241  1.3061
 3927SOL    MW415482   5.343   4.992   4.814  0.0673 -0.6467  0.0073
 3928SOL     OW15483   5.546   3.468   4.225  0.0955  0.2174  0.0290
 3928SOL    HW215484   5.465   3.436   4.183  0.8499 -0.2062 -1.1628
 3928SOL    HW315485   5.565   3.404   4.293 -0.8454  0.6038  0.6807
 3928SOL    MW415486   5.538   3.456   4.228  1.0104 -0.1422  0.0768
 3929SOL     OW15487   1.321   1.512   4.427 -0.3481  0.1194  0.3846
 3929SOL    HW215488   1.412   1.542   4.424 -0.6993  1.2047  0.3895
 3929SOL    HW315489   1.303   1.479   4.339 -0.1917  0.6346  0.1580
 3929SOL    MW415490   1.331   1.511   4.415 -0.1361 -0.3735  0.3242
 3930SOL     OW15491   2.602   3.781   0.725 -0.0661  0.4682  0.1746
 3930SOL    HW215492   2.619   3.715   0.658 -0.6776  1.8625 -1.4045
 3930SOL    HW315493   2.633   3.740   0.806  0.5871 -1.3123 -0.9043
 3930SOL    MW415494   2.608   3.767   0.727 -0.1756 -0.2046  0.5271
 3931SOL     OW15495   2.205   4.998   6.109 -0.0844 -0.1596  0.7026
 3931SOL    HW215496   2.233   5.089   6.112  0.6686 -0.3200 -0.5999
 3931SOL    HW315497   2.141   4.990   6.180 -1.2959  1.7642 -0.0770
 3931SOL    MW415498   2.200   5.009   6.118  0.0250  0.0219  0.4157
 3932SOL     OW15499   6.043   1.845   2.427 -0.1767 -0.1236  0.2074
 3932SOL    HW215500   6.123   1.850   2.374  1.5785  0.7973  2.7868
 3932SOL    HW315501   5.986   1.786   2.378  2.2008 -1.1078 -1.5694
 3932SOL    MW415502   6.046   1.838   2.413  0.0416 -0.3953  0.2412
 3933SOL     OW15503   4.162   6.024   0.628  0.0352 -0.4759 -0.2116
 3933SOL    HW215504   4.169   5.929   0.631 -0.4780 -0.5244 -0.3151
 3933SOL    HW315505   4.077   6.043   0.670  1.3351  0.1257  2.3456
 3933SOL    MW415506   4.151   6.014   0.634 -0.4874 -0.3289 -0.3504
 3934SOL     OW15507   0.671   2.512   3.236  0.2969  0.2617  0.0774
 3934SOL    HW215508   0.755   2.538   3.199  0.4843  0.1183  0.3986
 3934SOL    HW315509   0.650   2.429   3.193  0.2605  0.3566 -0.0896
 3934SOL    MW415510   0.679   2.505   3.226 -0.7118  0.0037 -0.1075
 3935SOL     OW15511   3.547   3.292   0.493  0.0732  0.0666 -0.3232
 3935SOL    HW215512   3.630   3.248   0.477  0.8678  2.0753 -2.2662
 3935SOL    HW315513   3.570   3.385   0.501 -1.8349  0.5041  0.6246
 3935SOL    MW415514   3.561   3.298   0.492  0.2534  0.1168 -0.1756
 3936SOL     OW15515   4.679   0.592   0.141 -0.3276 -0.1043  0.3355
 3936SOL    HW215516   4.771   0.574   0.157 -0.4993 -1.5158 -0.1235
 3936SOL    HW315517   4.677   0.636   0.056 -0.1136 -0.6792  0.0252
 3936SOL    MW415518   4.691   0.595   0.132 -0.1572  0.3408 -0.4369
 3937SOL     OW15519   1.653   4.554   4.264  0.1391  0.0271 -0.3851
 3937SOL    HW215520   1.558   4.542   4.265  0.1800 -0.3272 -0.7863
 3937SOL    HW315521   1.667   4.633   4.316 -0.2898 -0.5470  0.6375
 3937SOL    MW415522   1.642   4.563   4.271 -0.2234  0.3655 -0.3063
 3938SOL     OW15523   2.029   4.427   3.162  0.2685 -0.0659 -0.5082
 3938SOL    HW215524   2.083   4.419   3.083 -0.5046 -1.3734 -0.9375
 3938SOL    HW315525   2.069   4.367   3.225 -0.7200 -1.1359 -0.8699
 3938SOL    MW415526   2.042   4.418   3.160 -0.5601  0.3233 -0.4717
 3939SOL     OW15527   5.540   4.110   2.169 -0.2214  0.7248 -0.2879
 3939SOL    HW215528   5.544   4.076   2.080  0.8924 -0.6943  0.2783
 3939SOL    HW315529   5.525   4.033   2.224  2.8468  0.9756  1.0918
 3939SOL    MW415530   5.538   4.095   2.165 -0.1058 -0.6415 -0.0924
 3940SOL     OW15531   4.938   4.749   2.726 -0.4047  0.1872  0.2408
 3940SOL    HW215532   4.908   4.737   2.816  0.0284  0.7098  0.4555
 3940SOL    HW315533   5.033   4.757   2.732 -0.4756  1.6832 -0.0925
 3940SOL    MW415534   4.946   4.748   2.739 -0.5221 -0.3242 -0.0095
 3941SOL     OW15535   0.716   5.970   5.528  0.6407  0.4776 -0.2469
 3941SOL    HW215536   0.747   5.908   5.461  0.1009 -0.0925  0.0260
 3941SOL    HW315537   0.626   5.990   5.502  0.6949  0.8814 -0.1323
 3941SOL    MW415538   0.708   5.964   5.516 -0.3301  0.0386  0.3165
 3942SOL     OW15539   4.806   4.449   4.152  0.5181  0.0334  0.0771
 3942SOL    HW215540   4.831   4.406   4.234  0.3568 -0.9833 -0.3939
 3942SOL    HW315541   4.880   4.435   4.094  0.4829  0.4402 -0.0706
 3942SOL    MW415542   4.819   4.441   4.156  0.0763 -0.0011  0.0929
 3943SOL     OW15543   2.638   3.558   2.841 -0.4171 -0.3953  0.0807
 3943SOL    HW215544   2.592   3.569   2.758 -1.3539  1.5644  0.7831
 3943SOL    HW315545   2.581   3.600   2.906  0.6676 -1.1588  1.5944
 3943SOL    MW415546   2.625   3.565   2.839 -0.2352  0.4665  0.1044
 3944SOL     OW15547   6.097   1.440   6.204  0.1350  0.1102 -0.2297
 3944SOL    HW215548   6.112   1.471   6.293  0.2023 -1.4285  0.3312
 3944SOL    HW315549   6.155   1.365   6.195 -1.2303 -0.9135 -0.9031
 3944SOL    MW415550   6.106   1.434   6.215 -0.0620  0.6120  0.2956
 3945SOL     OW15551   0.295   4.494   1.500 -0.0645 -0.3131  0.1136
 3945SOL    HW215552   0.365   4.498   1.565 -0.3896  0.1773  0.4443
 3945SOL    HW315553   0.295   4.580   1.458 -0.9942 -0.0026  0.6985
 3945SOL    MW415554   0.304   4.506   1.503 -0.0074 -0.1478 -0.0365
 3946SOL     OW15555   5.445   1.004   1.553 -0.5634 -0.8641  0.0341
 3946SOL    HW215556   5.349   1.001   1.557 -0.5913  0.2134  0.6887
 3946SOL    HW315557   5.468   1.077   1.610  0.5438  0.3842 -1.9250
 3946SOL    MW415558   5.435   1.013   1.561 -0.2721 -0.2748  0.4141
 3947SOL     OW15559   0.853   2.979   3.800 -0.1573 -0.2153  0.2867
 3947SOL    HW215560   0.786   2.996   3.734 -0.1317  0.5523  0.4453
 3947SOL    HW315561   0.907   3.058   3.801  1.2001 -1.0937 -0.3468
 3947SOL    MW415562   0.851   2.992   3.792  0.5177  0.8302 -0.8148
 3948SOL     OW15563   5.505   6.089   5.728  0.0561  0.1322  1.0223
 3948SOL    HW215564   5.593   6.125   5.736  0.6833 -0.9808 -0.4494
 3948SOL    HW315565   5.472   6.124   5.646  1.2524 -3.5729 -1.2682
 3948SOL    MW415566   5.512   6.099   5.719 -0.3069  0.3299  0.1233
 3949SOL     OW15567   3.881   1.196   4.395 -0.6193 -0.4881 -0.2787
 3949SOL    HW215568   3.797   1.234   4.369 -0.8186 -0.9985 -0.3832
 3949SOL    HW315569   3.886   1.113   4.347 -0.5704 -1.0040  0.6028
 3949SOL    MW415570   3.871   1.190   4.385  0.1431 -0.4219  0.2120
 3950SOL     OW15571   1.905   5.375   5.444 -0.5489  0.3808 -0.2589
 3950SOL    HW215572   1.865   5.455   5.409  0.2932  0.6619 -0.5932
 3950SOL    HW315573   1.992   5.402   5.472  0.1943 -0.6669 -1.4696
 3950SOL    MW415574   1.911   5.389   5.444  0.0440 -0.0020  0.3270
 3951SOL     OW15575   2.680   0.028   3.109  0.3780 -0.0853 -0.2710
 3951SOL    HW215576   2.602   0.083   3.114  1.4922  1.4358  2.0336
 3951SOL    HW315577   2.753   0.089   3.098  1.4611 -1.2487  0.0935
 3951SOL    MW415578   2.679   0.043   3.108  0.3645  0.1390 -0.3038
 3952SOL     OW15579   2.381   3.085   0.016  0.2869 -0.6265  0.3751
 3952SOL    HW215580   2.295   3.103   0.053  0.0749 -0.0817 -0.3353
 3952SOL    HW315581   2.404   2.998   0.047  0.2144 -0.1159  1.9114
 3952SOL    MW415582   2.373   3.076   0.025  0.3480 -0.2589  0.1128
 3953SOL     OW15583   1.983   4.023   6.223  0.3319 -0.1253 -0.1602
 3953SOL    HW215584   1.945   3.966   6.290 -0.3356 -0.6082 -0.9313
 3953SOL    HW315585   2.005   4.104   6.271  2.3010 -1.3676  1.1719
 3953SOL    MW415586   1.981   4.026   6.238 -0.4169 -0.1326 -0.5684
 3954SOL     OW15587   0.511   0.624   0.699 -0.0176  0.8627 -0.2817
 3954SOL    HW215588   0.525   0.660   0.611  0.5369  0.9230 -0.1741
 3954SOL    HW315589   0.595   0.584   0.721 -0.6479 -0.5928 -0.4348
 3954SOL    MW415590   0.524   0.624   0.690 -0.5448 -0.0779 -0.6213
 3955SOL     OW15591   2.642   4.421   2.123  0.1073  0.5809 -0.2773
 3955SOL    HW215592   2.613   4.406   2.033 -1.4004  2.3592 -0.1427
 3955SOL    HW315593   2.735   4.399   2.122  0.0938  0.4277 -2.2358
 3955SOL    MW415594   2.650   4.416   2.111 -0.0681  0.2533  0.2670
 3956SOL     OW15595   4.126   0.405   5.076  0.6889  0.2529  0.4318
 3956SOL    HW215596   4.190   0.418   5.146  0.4157  0.8794  0.5720
 3956SOL    HW315597   4.115   0.310   5.071  1.6839  0.1325  0.3555
 3956SOL    MW415598   4.133   0.394   5.085  0.1945  0.3287  0.0574
 3957SOL     OW15599   4.253   2.654   3.330  0.8399  0.0927 -0.0422
 3957SOL    HW215600   4.212   2.593   3.268  0.6315  0.7296 -0.5498
 3957SOL    HW315601   4.336   2.612   3.354  1.7344  0.5452 -2.0474
 3957SOL    MW415602   4.259   2.640   3.325  0.3097 -0.6469  0.0706
 3958SOL     OW15603   5.782   6.144   3.601 -0.2279  0.0470  0.3619
 3958SOL    HW215604   5.720   6.122   3.671 -1.3783  0.3328 -0.5232
 3958SOL    HW315605   5.728   6.145   3.521  1.1330 -0.7183 -0.6072
 3958SOL    MW415606   5.767   6.142   3.600  0.1583  0.8437 -0.3859
 3959SOL     OW15607   0.522   6.261   1.982  0.1511  0.2381 -0.1585
 3959SOL    HW215608   0.571   6.260   2.064 -0.9858 -2.1662  0.5668
 3959SOL    HW315609   0.430   6.265   2.008 -0.1976  1.3181 -1.4119
 3959SOL    MW415610   0.517   6.262   1.996  0.8424 -0.4378 -0.3630
 3960SOL     OW15611   2.329   3.383   1.282 -0.5979  0.4140 -0.3481
 3960SOL    HW215612   2.390   3.393   1.209 -0.6190 -1.8389 -0.7448
 3960SOL    HW315613   2.277   3.305   1.259 -0.5992 -0.3605  2.0356
 3960SOL    MW415614   2.330   3.374   1.269 -0.7111 -0.3707 -0.1082
 3961SOL     OW15615   3.084   2.535   0.262 -0.2036 -0.3621 -0.1000
 3961SOL    HW215616   3.043   2.619   0.239  1.0616 -0.2299 -2.2045
 3961SOL    HW315617   3.178   2.555   0.264  0.1001 -1.6579 -0.4068
 3961SOL    MW415618   3.091   2.549   0.259  0.0616  0.4469  0.0404
 3962SOL     OW15619   1.594   3.317   6.412 -0.7157 -0.1341 -0.0575
 3962SOL    HW215620   1.524   3.362   6.364 -1.3500 -1.7401 -0.7021
 3962SOL    HW315621   1.671   3.324   6.355 -1.1353 -0.9277 -0.7357
 3962SOL    MW415622   1.595   3.324   6.398  0.0064  0.3709 -0.3015
 3963SOL     OW15623   0.279   0.660   2.284  0.0044  0.2008  0.5344
 3963SOL    HW215624   0.311   0.640   2.372 -0.6366 -1.4196  0.4336
 3963SOL    HW315625   0.307   0.750   2.268  0.1037  0.5389  2.4006
 3963SOL    MW415626   0.287   0.669   2.293  0.2853  0.0931  0.0364
 3964SOL     OW15627   3.890   4.704   1.605 -0.5404 -0.8491 -0.9143
 3964SOL    HW215628   3.845   4.678   1.524 -1.5187 -0.9234 -0.3702
 3964SOL    HW315629   3.927   4.623   1.639 -0.7383 -0.9472 -0.9290
 3964SOL    MW415630   3.889   4.690   1.599 -0.1931 -0.7055 -0.4001
 3965SOL     OW15631   0.466   3.858   5.147  0.0810 -0.2210  0.6810
 3965SOL    HW215632   0.423   3.935   5.109 -0.1772 -0.0779  1.2449
 3965SOL    HW315633   0.521   3.893   5.217 -0.2274 -0.5659  1.1063
 3965SOL    MW415634   0.468   3.873   5.151  0.1047  0.5933 -0.4616
 3966SOL     OW15635   5.162   0.199   4.067 -0.0484 -0.2467  0.3036
 3966SOL    HW215636   5.203   0.285   4.058 -0.1501 -0.4022 -2.2015
 3966SOL    HW315637   5.080   0.217   4.113  0.4389  0.8153  0.7879
 3966SOL    MW415638   5.156   0.213   4.072 -0.0061 -0.5095 -0.1731
 3967SOL     OW15639   4.056   3.247   5.265 -0.2192  0.6186  0.3638
 3967SOL    HW215640   4.008   3.326   5.240 -1.8514 -0.3518  0.2254
 3967SOL    HW315641   3.995   3.200   5.322  1.4871  0.3762  2.0977
 3967SOL    MW415642   4.041   3.251   5.269  0.2459  0.8519 -0.4073
 3968SOL     OW15643   5.975   2.542   4.549 -0.3105 -0.3608 -0.4596
 3968SOL    HW215644   5.930   2.505   4.624 -0.3727  0.4590 -0.0871
 3968SOL    HW315645   6.033   2.609   4.585  2.0392 -2.0678 -0.7896
 3968SOL    MW415646   5.977   2.546   4.563 -0.4427 -0.2925 -0.0121
 3969SOL     OW15647   3.562   2.468   4.559  0.3971 -0.2568  0.9056
 3969SOL    HW215648   3.623   2.542   4.562 -1.2546  1.2096  0.2594
 3969SOL    HW315649   3.519   2.476   4.474  0.0703 -1.8894  0.8924
 3969SOL    MW415650   3.564   2.479   4.548 -0.0733  0.2704  0.2699
 3970SOL     OW15651   5.008   1.219   5.333  0.0380  0.2392  0.1343
 3970SOL    HW215652   4.913   1.226   5.332 -0.0408 -0.5774 -1.2192
 3970SOL    HW315653   5.031   1.211   5.425 -1.1532  0.9717  0.5134
 3970SOL    MW415654   4.999   1.219   5.345  0.1835 -0.7315  0.5099
 3971SOL     OW15655   0.678   1.820   4.767 -0.4307  0.1730  0.2787
 3971SOL    HW215656   0.610   1.840   4.831  0.6747 -0.1344  1.6086
 3971SOL    HW315657   0.643   1.745   4.718 -0.9547 -0.1419  1.1076
 3971SOL    MW415658   0.664   1.812   4.769 -0.2950 -0.0253  1.0073
 3972SOL     OW15659   3.455   2.584   1.704 -0.4398  0.1082  0.3831
 3972SOL    HW215660   3.529   2.595   1.763  0.2854 -0.8231 -0.3112
 3972SOL    HW315661   3.484   2.625   1.622 -0.4446 -0.7929 -0.0758
 3972SOL    MW415662   3.469   2.591   1.701 -0.3989 -0.2847  0.3306
 3973SOL     OW15663   2.293   5.548   0.693  0.1904 -0.2077  0.4264
 3973SOL    HW215664   2.261   5.504   0.614 -0.3739 -0.2652  0.6777
 3973SOL    HW315665   2.385   5.564   0.676  0.1664 -0.5739 -0.0863
 3973SOL    MW415666   2.301   5.544   0.681 -0.5476 -0.1203  0.5811
 3974SOL     OW15667   2.798   5.797   2.573 -0.5481  0.0231 -0.2402
 3974SOL    HW215668   2.858   5.728   2.602  0.5866 -0.0697 -2.5476
 3974SOL    HW315669   2.851   5.877   2.578 -0.5909  0.1199 -1.1718
 3974SOL    MW415670   2.813   5.799   2.578 -0.0488 -0.0328 -0.3689
 3975SOL     OW15671   2.782   6.370   2.477  0.0328  0.1862  0.0442
 3975SOL    HW215672   2.778   6.392   2.384  0.1775 -1.1210 -0.2971
 3975SOL    HW315673   2.875   6.372   2.499 -0.0629  1.4464  0.4307
 3975SOL    MW415674   2.793   6.373   2.468 -0.1844 -0.2347 -0.7774
 3976SOL     OW15675   6.226   1.985   2.594  0.0942 -0.7802 -0.0085
 3976SOL    HW215676   6.296   2.022   2.540 -0.0799  1.1722  1.0227
 3976SOL    HW315677   6.171   1.937   2.532  2.2512 -2.3339 -0.8624
 3976SOL    MW415678   6.228   1.984   2.579 -0.3304  0.2947 -0.2084
 3977SOL     OW15679   1.588   0.843   1.837 -0.4157  0.2253  0.1046
 3977SOL    HW215680   1.529   0.816   1.908  1.0592 -1.7833  0.6514
 3977SOL    HW315681   1.548   0.807   1.758 -1.2897  1.1913  0.0880
 3977SOL    MW415682   1.575   0.835   1.836 -0.2506 -0.2672 -0.5518
 3978SOL     OW15683   0.430   6.388   5.760  0.0442  0.1614 -0.1857
 3978SOL    HW215684   0.413   6.370   5.853 -0.0748  0.2328 -0.1943
 3978SOL    HW315685   0.505   6.332   5.739  1.0375  1.2382  0.3549
 3978SOL    MW415686   0.438   6.378   5.770 -0.3489  0.1780  0.6396
 3979SOL     OW15687   1.493   0.850   1.221 -0.4180  0.1546 -0.4188
 3979SOL    HW215688   1.555   0.881   1.155 -0.1720  0.2578 -0.1415
 3979SOL    HW315689   1.537   0.866   1.305 -0.2697 -0.9778 -0.2673
 3979SOL    MW415690   1.507   0.856   1.224  0.3535 -0.0421 -0.5859
 3980SOL     OW15691   5.899   4.330   4.077 -0.1498 -0.0978 -0.1855
 3980SOL    HW215692   5.819   4.351   4.028  0.1335 -1.7569 -1.4634
 3980SOL    HW315693   5.881   4.243   4.114  0.7122 -0.0780  0.2867
 3980SOL    MW415694   5.886   4.321   4.075  0.0876  0.5702  0.3011
 3981SOL     OW15695   4.806   4.500   4.846  0.4291  0.2285 -0.2453
 3981SOL    HW215696   4.743   4.429   4.834  0.6611 -0.4370  1.9038
 3981SOL    HW315697   4.881   4.458   4.889  0.9075  1.6182  0.3365
 3981SOL    MW415698   4.808   4.485   4.850  0.3182 -0.5694  0.1269
 3982SOL     OW15699   4.095   4.134   3.080  0.9678 -0.0588 -0.0966
 3982SOL    HW215700   4.170   4.076   3.095  2.0940  1.4275  0.2177
 3982SOL    HW315701   4.106   4.166   2.991 -2.1961 -3.8019 -2.1624
 3982SOL    MW415702   4.107   4.130   3.070  0.1388 -0.4741  0.2940
 3983SOL     OW15703   1.505   0.493   3.276 -0.6851 -0.6791 -0.8018
 3983SOL    HW215704   1.577   0.539   3.232 -0.6649  0.5523  0.4537
 3983SOL    HW315705   1.548   0.419   3.321 -0.0891  0.2861  0.2839
 3983SOL    MW415706   1.520   0.489   3.276 -0.4891  0.3778 -0.1556
 3984SOL     OW15707   4.001   3.068   1.724  0.6049  0.2937 -0.0605
 3984SOL    HW215708   4.016   3.032   1.637  0.8967  2.0298 -0.7624
 3984SOL    HW315709   3.997   2.991   1.782  1.1204 -0.8353 -1.4850
 3984SOL    MW415710   4.002   3.053   1.720  0.5082  0.4412  0.0833
 3985SOL     OW15711   0.336   0.969   5.235 -0.4602 -0.0304  0.2496
 3985SOL    HW215712   0.317   1.060   5.258 -0.9210 -0.3283  1.1004
 3985SOL    HW315713   0.269   0.946   5.172 -0.3000  0.2384 -0.0228
 3985SOL    MW415714   0.325   0.978   5.230  0.2939 -0.2339 -0.4177
 3986SOL     OW15715   3.396   6.268   0.983  0.0891 -0.1488 -0.3675
 3986SOL    HW215716   3.384   6.340   0.922  1.2365  0.8915  0.5719
 3986SOL    HW315717   3.329   6.281   1.050 -0.6345 -0.8133 -0.9424
 3986SOL    MW415718   3.386   6.279   0.984  0.4247  0.0407 -0.4562
 3987SOL     OW15719   2.563   0.566   4.537  0.3871  0.4737 -0.3099
 3987SOL    HW215720   2.488   0.567   4.478  0.9270  2.3993 -1.0314
 3987SOL    HW315721   2.579   0.473   4.554 -0.1987 -0.1132 -2.6798
 3987SOL    MW415722   2.555   0.554   4.532  0.0264 -0.1979  0.3316
 3988SOL     OW15723   1.728   5.644   1.523 -0.2697  0.3477  0.3967
 3988SOL    HW215724   1.799   5.691   1.480  0.1746  0.2558  1.0122
 3988SOL    HW315725   1.665   5.712   1.547  0.6648  0.7547  1.8608
 3988SOL    MW415726   1.729   5.659   1.521  0.3945  0.2882 -1.2890
 3989SOL     OW15727   3.416   5.383   2.083  0.1374 -0.2453  0.3004
 3989SOL    HW215728   3.329   5.350   2.103  0.2484  0.2607  1.7602
 3989SOL    HW315729   3.405   5.477   2.070  0.4783 -0.1456  0.6854
 3989SOL    MW415730   3.403   5.391   2.084 -0.1294  0.3638  0.0958
 3990SOL     OW15731   4.029   0.597   6.287 -0.1654  0.0665 -0.0740
 3990SOL    HW215732   3.962   0.645   6.336 -0.2886 -0.8119  0.6514
 3990SOL    HW315733   4.067   0.662   6.228 -1.1701  0.7526  0.0010
 3990SOL    MW415734   4.025   0.612   6.286 -0.5680  0.0165  0.1986
 3991SOL     OW15735   1.610   6.180   6.402 -0.3473 -0.0879  0.0847
 3991SOL    HW215736   1.650   6.240   6.340 -0.1683 -0.0837  0.2027
 3991SOL    HW315737   1.635   6.213   6.488 -1.4221  0.4874  0.1970
 3991SOL    MW415738   1.618   6.192   6.405 -0.4108  0.0521  0.2823
 3992SOL     OW15739   2.549   1.642   4.556 -0.1462 -0.6936  0.0426
 3992SOL    HW215740   2.580   1.562   4.598 -1.0707 -0.8177  0.5173
 3992SOL    HW315741   2.608   1.710   4.587  0.5034 -1.1435 -0.1757
 3992SOL    MW415742   2.561   1.640   4.566  0.4242 -0.0339  0.0573
 3993SOL     OW15743   0.699   3.830   3.692 -0.0564  0.2731  0.1780
 3993SOL    HW215744   0.674   3.856   3.604  0.3346 -1.0116 -0.3282
 3993SOL    HW315745   0.703   3.735   3.689 -0.3954  0.1791  1.6842
 3993SOL    MW415746   0.696   3.821   3.680 -0.0124  0.5462  0.2554
 3994SOL     OW15747   4.099   4.473   3.606 -0.2226  0.1522  0.0812
 3994SOL    HW215748   4.142   4.436   3.683 -0.0832 -0.9553 -0.5195
 3994SOL    HW315749   4.120   4.567   3.610  1.1858 -0.1640  0.4859
 3994SOL    MW415750   4.107   4.481   3.616  0.0716  0.4359 -0.8300
 3995SOL     OW15751   3.560   3.487   4.726 -0.3729 -0.0829 -0.3400
 3995SOL    HW215752   3.479   3.538   4.723 -0.1668  0.2203 -2.9132
 3995SOL    HW315753   3.530   3.396   4.734 -0.9173  0.0908 -0.3242
 3995SOL    MW415754   3.545   3.482   4.727 -0.1862 -0.1048  0.4966
 3996SOL     OW15755   5.956   3.704   6.257 -0.2735  0.0053 -0.3534
 3996SOL    HW215756   6.034   3.749   6.288 -0.0902  0.2663 -1.1692
 3996SOL    HW315757   5.980   3.611   6.256 -0.5175 -0.1025  0.9325
 3996SOL    MW415758   5.969   3.697   6.261  0.1867 -0.1786 -0.0750
 3997SOL     OW15759   1.740   6.067   5.293  0.3752  0.4696  0.3310
 3997SOL    HW215760   1.692   5.988   5.317 -2.0153  1.5818 -0.4206
 3997SOL    HW315761   1.792   6.041   5.216 -2.1047  0.0707 -1.3442
 3997SOL    MW415762   1.741   6.053   5.286 -0.2025 -0.8946  0.0304
 3998SOL     OW15763   4.479   3.944   5.109  0.4943 -0.5835  0.3464
 3998SOL    HW215764   4.565   3.980   5.088  0.3944 -0.9446 -0.7782
 3998SOL    HW315765   4.474   3.864   5.056 -0.0836 -1.1777  1.2647
 3998SOL    MW415766   4.490   3.938   5.099 -0.2879 -0.3349 -0.2340
 3999SOL     OW15767   0.500   0.069   2.874  0.4472  0.6454  0.0547
 3999SOL    HW215768   0.517   0.131   2.804  2.6525 -2.1530 -2.1467
 3999SOL    HW315769   0.587   0.039   2.901 -0.4794 -2.7891 -0.3527
 3999SOL    MW415770   0.514   0.073   2.868  0.5258  1.0474  0.5361
 4000SOL     OW15771   2.321   2.113   2.627 -0.0901  0.2139  0.2872
 4000SOL    HW215772   2.410   2.115   2.591  0.2665 -0.0091  1.1255
 4000SOL    HW315773   2.269   2.071   2.559  0.1521  1.5923 -0.8041
 4000SOL    MW415774   2.326   2.108   2.613  0.9399 -0.2557 -0.9322
 4001SOL     OW15775   5.615   5.899   2.674  0.1951 -0.9694 -0.2532
 4001SOL    HW215776   5.625   5.970   2.737 -0.6482 -0.9682 -0.1094
 4001SOL    HW315777   5.682   5.916   2.608 -0.3236  0.2552 -0.4882
 4001SOL    MW415778   5.625   5.910   2.674  0.0656 -0.4096  0.2066
 4002SOL     OW15779   3.721   5.956   3.121 -0.1114  0.6383  0.2436
 4002SOL    HW215780   3.790   5.964   3.187  2.2818  0.3921 -2.0397
 4002SOL    HW315781   3.720   6.042   3.078 -0.5926  0.3370 -0.3527
 4002SOL    MW415782   3.730   5.969   3.124 -1.0781  0.0224 -0.2359
 4003SOL     OW15783   5.641   1.857   0.586  0.1421  0.1657 -0.0328
 4003SOL    HW215784   5.626   1.762   0.585 -1.6201  0.4122 -0.6793
 4003SOL    HW315785   5.736   1.866   0.593  0.2916 -1.6350  0.8444
 4003SOL    MW415786   5.652   1.846   0.586  0.0563 -0.2446 -0.3357
 4004SOL     OW15787   4.887   2.310   1.636 -0.3894  0.1315 -0.0412
 4004SOL    HW215788   4.868   2.235   1.579  1.3327  0.6186 -1.3437
 4004SOL    HW315789   4.982   2.322   1.628 -0.0715  0.2797  2.9203
 4004SOL    MW415790   4.897   2.301   1.627 -0.0099  0.1639  0.2280
 4005SOL     OW15791   1.678   2.841   0.721  0.3722  0.3705  0.2818
 4005SOL    HW215792   1.755   2.794   0.753  0.8844  1.0040  0.0053
 4005SOL    HW315793   1.605   2.782   0.737  0.9905 -0.4711  0.0598
 4005SOL    MW415794   1.678   2.827   0.727  0.2094 -0.2218  0.0264
 4006SOL     OW15795   1.184   5.367   1.316 -0.7794  0.0426  0.3960
 4006SOL    HW215796   1.224   5.375   1.229 -1.8352 -0.3291 -0.1319
 4006SOL    HW315797   1.152   5.455   1.335  3.6525  1.5078  2.5794
 4006SOL    MW415798   1.185   5.380   1.307 -0.3959 -0.1742  0.1440
 4007SOL     OW15799   5.600   2.449   3.674 -0.2664  0.3565 -0.1266
 4007SOL    HW215800   5.644   2.478   3.754 -2.4024  0.6947  1.0110
 4007SOL    HW315801   5.637   2.363   3.656  0.1947  0.2308  1.2838
 4007SOL    MW415802   5.610   2.442   3.682  0.0201  0.0465 -0.4835
 4008SOL     OW15803   0.383   1.976   0.459  0.2345 -0.1171  0.7583
 4008SOL    HW215804   0.387   1.881   0.468 -0.2870 -0.5467 -2.2798
 4008SOL    HW315805   0.292   1.998   0.476  0.4451 -0.0499  1.9028
 4008SOL    MW415806   0.372   1.967   0.462  0.5938  0.2210 -0.6348
 4009SOL     OW15807   3.982   3.205   3.877  0.0736 -0.3676  0.0238
 4009SOL    HW215808   3.979   3.109   3.872 -2.1764 -0.5026  2.3165
 4009SOL    HW315809   3.926   3.234   3.804 -0.5130 -0.8615  0.2701
 4009SOL    MW415810   3.974   3.196   3.866  0.2921  0.2450  0.0071
 4010SOL     OW15811   1.703   5.894   1.187  0.2725  0.3045 -0.3904
 4010SOL    HW215812   1.789   5.854   1.183  0.7908  0.9277  2.3521
 4010SOL    HW315813   1.696   5.927   1.277 -2.5452  0.8959 -0.7301
 4010SOL    MW415814   1.713   5.893   1.198  0.2884 -0.1421  0.6017
 4011SOL     OW15815   2.121   4.699   4.433 -0.2469 -0.3060 -0.1083
 4011SOL    HW215816   2.127   4.640   4.358  0.2978 -1.5364  0.8505
 4011SOL    HW315817   2.106   4.640   4.508  0.2926  0.7802  0.8848
 4011SOL    MW415818   2.120   4.683   4.433  0.1515  0.2976 -0.0389
 4012SOL     OW15819   0.390   2.078   0.774 -0.0169 -0.1348 -0.2069
 4012SOL    HW215820   0.432   2.088   0.859 -2.2349  2.8023  0.7353
 4012SOL    HW315821   0.462   2.065   0.712  1.6624 -2.4880  2.0337
 4012SOL    MW415822   0.405   2.078   0.777 -0.3268 -0.1470 -0.6989
 4013SOL     OW15823   1.669   5.845   6.413  0.0936 -0.2954  0.3699
 4013SOL    HW215824   1.729   5.919   6.423  0.7689 -0.7538 -0.1504
 4013SOL    HW315825   1.615   5.868   6.338 -0.1310 -0.0514  0.6032
 4013SOL    MW415826   1.670   5.858   6.404 -0.2924  0.2565 -0.2692
 4014SOL     OW15827   2.590   2.145   2.550  0.0572  0.1523  0.6562
 4014SOL    HW215828   2.554   2.158   2.462  0.2900 -1.1080  0.3645
 4014SOL    HW315829   2.646   2.068   2.543  1.0378  0.7377  1.6368
 4014SOL    MW415830   2.593   2.137   2.538 -0.6968  0.4477 -0.2068
 4015SOL     OW15831   5.428   1.661   6.220  0.1098 -0.0548  0.6433
 4015SOL    HW215832   5.403   1.613   6.141 -0.1354  0.6122  0.3083
 4015SOL    HW315833   5.422   1.753   6.195 -0.4592  0.1791  1.5899
 4015SOL    MW415834   5.424   1.667   6.206 -0.1466  0.2080 -0.6972
 4016SOL     OW15835   2.405   2.830   0.101  0.0251 -0.2567  0.1999
 4016SOL    HW215836   2.466   2.757   0.109  0.0689 -0.4008 -1.2033
 4016SOL    HW315837   2.319   2.788   0.090  0.2206 -0.1840 -2.0653
 4016SOL    MW415838   2.401   2.815   0.100 -0.1963 -0.2082  0.2375
 4017SOL     OW15839   5.005   3.670   2.257 -0.5190 -0.0439 -0.1462
 4017SOL    HW215840   5.066   3.612   2.211 -0.1614  0.7306 -0.6666
 4017SOL    HW315841   4.918   3.642   2.226 -0.4466 -1.1683  0.6211
 4017SOL    MW415842   5.001   3.658   2.247  0.1106  0.0510  0.2041
 4018SOL     OW15843   1.760   3.629   2.514 -0.2335 -0.1237 -0.3155
 4018SOL    HW215844   1.797   3.636   2.426 -0.0485 -1.0243 -0.3100
 4018SOL    HW315845   1.769   3.718   2.550  0.1415  0.1334 -1.0181
 4018SOL    MW415846   1.766   3.642   2.507 -0.1770 -0.8291 -0.2303
 4019SOL     OW15847   1.947   2.299   6.024  0.2286  0.0180  0.1146
 4019SOL    HW215848   1.954   2.389   6.055 -0.2624  0.1575 -0.1615
 4019SOL    HW315849   1.963   2.304   5.930  0.8538 -0.2793  0.2052
 4019SOL    MW415850   1.950   2.311   6.016 -0.5864 -0.1935 -0.5681
 4020SOL     OW15851   3.391   4.300   1.225  0.0939  0.1916  0.6946
 4020SOL    HW215852   3.368   4.255   1.144 -2.6475  0.5125  1.1791
 4020SOL    HW315853   3.406   4.391   1.199  0.0234  0.1246  0.4245
 4020SOL    MW415854   3.390   4.306   1.211  0.2216  0.1473 -0.5718
 4021SOL     OW15855   5.560   4.669   4.959  0.3779 -0.3458  0.4370
 4021SOL    HW215856   5.502   4.663   5.035  1.4714  0.7964  1.3953
 4021SOL    HW315857   5.580   4.762   4.951 -0.1495 -0.3624 -1.6244
 4021SOL    MW415858   5.555   4.680   4.968  0.2366 -0.3686  0.1285
 4022SOL     OW15859   1.759   1.696   3.259 -0.5749 -0.3726  0.3942
 4022SOL    HW215860   1.753   1.612   3.305 -0.0709  0.2660  1.6734
 4022SOL    HW315861   1.849   1.724   3.273 -0.9601  0.7618  0.6556
 4022SOL    MW415862   1.770   1.688   3.267  0.0263  0.0922  0.2751
 4023SOL     OW15863   3.788   5.737   1.971  0.9816  0.5670  0.5628
 4023SOL    HW215864   3.794   5.752   2.065  1.0679  3.1396  0.2121
 4023SOL    HW315865   3.875   5.757   1.937  1.4615 -1.9800  0.0498
 4023SOL    MW415866   3.800   5.741   1.979  0.2941  0.3181 -0.5186
 4024SOL     OW15867   4.219   4.761   0.843  0.0586 -0.2169  0.5032
 4024SOL    HW215868   4.205   4.824   0.772  0.9453 -0.6809 -0.1106
 4024SOL    HW315869   4.131   4.736   0.871 -0.3521 -1.0342 -1.3474
 4024SOL    MW415870   4.206   4.766   0.837 -1.0091 -0.2826 -0.2039
 4025SOL     OW15871   5.667   5.823   5.354 -0.1533 -0.0925 -0.1394
 4025SOL    HW215872   5.696   5.732   5.356  0.6672  0.1590 -0.0416
 4025SOL    HW315873   5.615   5.834   5.433  2.1222  0.2656  1.3881
 4025SOL    MW415874   5.664   5.812   5.364  0.1217 -0.4709 -0.2062
 4026SOL     OW15875   0.554   0.882   5.756 -0.0317  0.2216  0.2654
 4026SOL    HW215876   0.529   0.815   5.820  2.0378 -2.0410 -1.1040
 4026SOL    HW315877   0.471   0.918   5.724 -1.2840 -2.2205  0.5599
 4026SOL    MW415878   0.540   0.878   5.760 -0.1520 -0.1841  0.5411
 4027SOL     OW15879   4.450   5.059   3.859 -0.5005  0.0968 -0.7156
 4027SOL    HW215880   4.527   5.083   3.909 -1.3162  1.4826 -0.0810
 4027SOL    HW315881   4.446   4.963   3.866  1.2594 -0.0277 -0.9654
 4027SOL    MW415882   4.460   5.049   3.867 -0.9219  0.6243  0.2512
 4028SOL     OW15883   2.557   1.009   6.265  0.3726 -0.0999 -0.0305
 4028SOL    HW215884   2.480   0.995   6.209 -1.3249  0.9358  1.9138
 4028SOL    HW315885   2.618   1.058   6.210 -0.6635 -0.2800 -1.3875
 4028SOL    MW415886   2.555   1.014   6.250  0.5938 -0.3500  0.0033
 4029SOL     OW15887   6.030   5.715   6.141 -1.3538 -0.4397  0.2860
 4029SOL    HW215888   6.049   5.808   6.128  1.7979 -1.3208 -3.3094
 4029SOL    HW315889   5.937   5.705   6.122 -1.5889  1.8701  0.0506
 4029SOL    MW415890   6.020   5.726   6.137  0.1314 -0.0050 -0.2923
 4030SOL     OW15891   3.182   6.095   4.358  0.0293  0.1810  0.1164
 4030SOL    HW215892   3.121   6.021   4.359  0.4564 -0.1742  0.2565
 4030SOL    HW315893   3.255   6.066   4.413  0.5942  0.3616 -0.5308
 4030SOL    MW415894   3.184   6.081   4.365  0.1926  0.3844  0.5415
 4031SOL     OW15895   0.783   0.985   6.053 -0.0582  0.5538  0.3956
 4031SOL    HW215896   0.811   0.895   6.037  0.1802  0.8411 -0.9282
 4031SOL    HW315897   0.798   0.998   6.147  1.1812 -0.3371  0.3492
 4031SOL    MW415898   0.789   0.975   6.063 -0.3033 -0.0887 -0.4462
 4032SOL     OW15899   4.871   6.346   0.065  0.0105 -0.5403  0.3302
 4032SOL    HW215900   4.865   6.319  -0.027 -1.5489  1.0087 -0.0671
 4032SOL    HW315901   4.940   6.290   0.101  0.7279 -1.1464 -1.7882
 4032SOL    MW415902   4.879   6.335   0.057  0.5725 -0.6784 -0.3420
 4033SOL     OW15903   1.416   3.227   2.633 -0.0598 -0.5056  0.0943
 4033SOL    HW215904   1.393   3.317   2.657  0.1813  0.0339 -1.5536
 4033SOL    HW315905   1.450   3.234   2.544 -3.0936 -2.6820 -1.3877
 4033SOL    MW415906   1.418   3.240   2.624  0.0736  0.1041  0.6669
 4034SOL     OW15907   5.970   1.859   4.246  0.0933 -0.1277 -0.3632
 4034SOL    HW215908   5.903   1.801   4.209  0.1043  0.5779 -1.5228
 4034SOL    HW315909   5.928   1.945   4.249  1.3074  0.5888 -2.2498
 4034SOL    MW415910   5.955   1.863   4.242 -0.4922 -0.9543  0.2846
 4035SOL     OW15911   0.858   3.240   0.279  0.0219 -0.0612 -0.4388
 4035SOL    HW215912   0.848   3.181   0.204 -1.6858 -0.0926 -0.2177
 4035SOL    HW315913   0.798   3.206   0.345 -1.4944  2.2209 -0.5294
 4035SOL    MW415914   0.849   3.228   0.278  0.4380  0.3724 -0.0489
 4036SOL     OW15915   0.088   5.489   4.894  0.4162 -0.2361 -0.6852
 4036SOL    HW215916   0.071   5.414   4.837  0.9836 -1.4044  0.6162
 4036SOL    HW315917   0.012   5.546   4.882 -0.6156 -1.5942 -0.8324
 4036SOL    MW415918   0.076   5.486   4.885 -0.2753 -0.2936 -0.1018
 4037SOL     OW15919   6.399   4.079   4.637 -0.3669 -0.4838  0.6894
 4037SOL    HW215920   6.378   4.133   4.713  0.6837  0.9444  0.0105
 4037SOL    HW315921   6.317   4.032   4.617 -1.9616  2.3374  0.1221
 4037SOL    MW415922   6.385   4.080   4.645  0.0723 -0.1576 -0.1404
 4038SOL     OW15923   5.690   2.825   0.712  0.4018 -0.4005 -0.2598
 4038SOL    HW215924   5.724   2.866   0.792 -0.3648  0.9846 -0.6085
 4038SOL    HW315925   5.672   2.734   0.737  0.8299 -0.1738  0.9411
 4038SOL    MW415926   5.693   2.818   0.726  0.0238  0.0714 -0.3749
 4039SOL     OW15927   1.889   0.511   0.010 -1.0686 -0.1200 -0.1812
 4039SOL    HW215928   1.906   0.605   0.003 -0.5845  0.0678  2.4675
 4039SOL    HW315929   1.950   0.480   0.076 -1.0413 -2.3902 -1.1865
 4039SOL    MW415930   1.899   0.519   0.018 -0.2072  0.1669  0.3042
 4040SOL     OW15931   0.310   0.289   5.197 -0.3424 -0.1015  0.1487
 4040SOL    HW215932   0.317   0.371   5.246 -2.3447  0.3329 -0.2272
 4040SOL    HW315933   0.244   0.306   5.130  0.1936 -1.6208 -0.8279
 4040SOL    MW415934   0.303   0.302   5.194 -0.3743  0.0109 -0.4394
 4041SOL     OW15935   3.056   3.860   5.026  0.1772 -0.3105  0.6870
 4041SOL    HW215936   3.012   3.853   4.942 -0.7310  0.5860  1.0669
 4041SOL    HW315937   3.135   3.807   5.016 -0.0335 -0.4134 -0.6422
 4041SOL    MW415938   3.061   3.852   5.014  0.2672  0.3861 -0.0593
 4042SOL     OW15939   1.536   2.650   5.669 -0.7993  0.5211 -0.3418
 4042SOL    HW215940   1.590   2.637   5.747 -1.0265  0.8539 -0.1244
 4042SOL    HW315941   1.589   2.705   5.612  0.4906 -1.8300 -1.5957
 4042SOL    MW415942   1.550   2.655   5.672  0.2921 -0.2323  0.2246
 4043SOL     OW15943   5.203   0.552   2.471  0.0332 -0.1072 -0.0311
 4043SOL    HW215944   5.280   0.604   2.447 -1.1099  3.0140  2.3058
 4043SOL    HW315945   5.128   0.606   2.445 -1.2996 -1.4469  0.8427
 4043SOL    MW415946   5.203   0.566   2.465  0.2898  0.1525 -0.1832
 4044SOL     OW15947   4.702   0.727   6.338 -0.3216  0.1588  0.0614
 4044SOL    HW215948   4.787   0.771   6.347 -1.2657  1.9975  0.5413
 4044SOL    HW315949   4.660   0.771   6.264 -1.2484 -0.0317  0.4587
 4044SOL    MW415950   4.708   0.739   6.330 -0.2197  0.5218 -0.7359
 4045SOL     OW15951   5.904   5.275   5.588  0.2914 -0.4438 -0.1121
 4045SOL    HW215952   5.954   5.299   5.666 -0.5521 -3.8839  1.6452
 4045SOL    HW315953   5.955   5.206   5.547 -0.5965 -0.5205 -1.1275
 4045SOL    MW415954   5.917   5.269   5.593  0.1110  0.4670 -0.3467
 4046SOL     OW15955   2.484   3.349   0.797 -0.0738 -0.0822 -0.4400
 4046SOL    HW215956   2.451   3.271   0.841  0.6532 -0.9664 -1.4257
 4046SOL    HW315957   2.562   3.320   0.751 -1.1234  0.6180 -2.8386
 4046SOL    MW415958   2.490   3.335   0.796  0.1311 -0.7019 -0.3592
 4047SOL     OW15959   6.311   2.261   1.186 -0.2679  0.2955 -0.2155
 4047SOL    HW215960   6.377   2.272   1.255 -1.3588  1.0009  0.7652
 4047SOL    HW315961   6.327   2.174   1.151  1.8028  0.8120 -0.6899
 4047SOL    MW415962   6.322   2.251   1.191  0.1440 -0.0420 -0.1491
 4048SOL     OW15963   2.911   1.969   1.766 -0.8053  0.4964 -0.4869
 4048SOL    HW215964   2.834   2.007   1.723 -1.3627  0.7771  0.7099
 4048SOL    HW315965   2.939   1.899   1.707 -1.0549  1.3735 -1.6847
 4048SOL    MW415966   2.904   1.965   1.752 -0.3915  0.3678 -0.1185
 4049SOL     OW15967   4.726   3.914   0.037 -0.2319 -0.0722  0.0618
 4049SOL    HW215968   4.783   3.974   0.085  1.7247 -1.4720 -0.4041
 4049SOL    HW315969   4.702   3.847   0.101  1.1233 -1.0927 -0.4360
 4049SOL    MW415970   4.731   3.913   0.052 -0.0412  1.0540 -0.1175
 4050SOL     OW15971   1.418   2.913   1.468  0.5234  0.3466 -0.6877
 4050SOL    HW215972   1.485   2.844   1.463 -0.0352 -0.7722  3.5702
 4050SOL    HW315973   1.458   2.988   1.425  2.2535 -1.7655 -3.1215
 4050SOL    MW415974   1.432   2.914   1.462  0.0607 -0.2291 -0.3478
 4051SOL     OW15975   3.631   4.933   0.915  0.1680 -0.3893 -0.1277
 4051SOL    HW215976   3.623   4.850   0.869  1.1714 -0.3879 -0.3296
 4051SOL    HW315977   3.697   4.982   0.866  2.1858 -0.8710  1.9511
 4051SOL    MW415978   3.639   4.929   0.903  0.5703 -0.4901 -0.3337
 4052SOL     OW15979   1.487   5.060   2.292  0.2645 -0.2298 -0.1136
 4052SOL    HW215980   1.535   5.143   2.286  0.0564  0.0374  1.3273
 4052SOL    HW315981   1.505   5.029   2.381 -1.3340 -0.6855  0.0764
 4052SOL    MW415982   1.496   5.067   2.303 -0.5908 -0.4403 -0.3141
 4053SOL     OW15983   4.131   4.576   2.271 -0.5731 -0.0909  0.7059
 4053SOL    HW215984   4.094   4.604   2.355 -0.1442  0.9782  0.5501
 4053SOL    HW315985   4.157   4.485   2.285 -0.2547  0.1584  1.8145
 4053SOL    MW415986   4.129   4.567   2.284 -0.3723 -0.1049  0.1722
 4054SOL     OW15987   0.638   3.458   0.228  0.4334 -0.3353  0.0932
 4054SOL    HW215988   0.665   3.548   0.210  0.0036 -0.2846 -0.3456
 4054SOL    HW315989   0.716   3.415   0.263  0.5523  0.2900  0.6019
 4054SOL    MW415990   0.652   3.464   0.230  0.5529  0.1437 -0.1070
 4055SOL     OW15991   1.166   2.527   4.837  0.6943  0.0755 -0.8965
 4055SOL    HW215992   1.212   2.484   4.766  2.8924  2.4402 -1.0587
 4055SOL    HW315993   1.088   2.565   4.796  0.3012 -1.1873 -1.3429
 4055SOL    MW415994   1.162   2.527   4.822 -0.5225  0.2401 -0.1631
 4056SOL     OW15995   4.350   1.056   0.281  0.1012 -0.8892 -0.3937
 4056SOL    HW215996   4.314   1.045   0.369 -1.5448 -0.5028 -0.9851
 4056SOL    HW315997   4.367   1.150   0.274 -0.4867 -0.7985 -0.7266
 4056SOL    MW415998   4.347   1.067   0.292 -0.5060  0.5026 -0.1543
 4057SOL     OW15999   5.032   1.705   4.345 -0.1814 -0.1224 -0.5299
 4057SOL    HW216000   5.006   1.695   4.437  0.4605  1.7619 -0.0814
 4057SOL    HW316001   4.997   1.628   4.301 -0.3380 -1.1693  1.3324
 4057SOL    MW416002   5.024   1.694   4.352 -0.3836 -0.1144  0.0490
 4058SOL     OW16003   1.130   5.004   5.468 -0.4325 -0.3870 -0.1366
 4058SOL    HW216004   1.130   5.016   5.563  0.0690  0.5001 -0.2295
 4058SOL    HW316005   1.205   4.947   5.451  0.3198  0.5696 -0.1037
 4058SOL    MW416006   1.140   4.998   5.478 -0.2475  0.8235 -0.0710
 4059SOL     OW16007   0.931   1.782   3.875 -0.0421  0.1371 -0.1133
 4059SOL    HW216008   0.971   1.696   3.891  0.1173  0.2689  0.1929
 4059SOL    HW316009   1.005   1.842   3.868 -0.0454 -0.0551 -2.2859
 4059SOL    MW416010   0.946   1.778   3.876  0.0630 -0.4416  0.5186
 4060SOL     OW16011   5.401   2.131   3.989  0.1690 -0.6495 -0.5672
 4060SOL    HW216012   5.479   2.088   4.025  0.8009  1.3923  0.6398
 4060SOL    HW316013   5.419   2.137   3.895  0.7636 -1.5683 -0.5226
 4060SOL    MW416014   5.414   2.126   3.981  0.1040 -0.4436 -0.4152
 4061SOL     OW16015   0.916   2.288   1.262  0.0553  0.0620  0.4595
 4061SOL    HW216016   0.861   2.366   1.263  1.1550  0.8727  0.3183
 4061SOL    HW316017   0.948   2.281   1.352  1.7711  1.1553 -0.0120
 4061SOL    MW416018   0.913   2.298   1.274  0.2168  0.2270 -0.4865
 4062SOL     OW16019   5.325   0.713   2.865  0.5235 -0.2156  0.3547
 4062SOL    HW216020   5.256   0.652   2.841 -1.6854  1.6216  1.6669
 4062SOL    HW316021   5.344   0.762   2.785 -0.4534 -0.0372  0.2289
 4062SOL    MW416022   5.319   0.711   2.851  0.2938 -0.3939  1.0479
 4063SOL     OW16023   2.618   2.857   4.299  0.0530  0.1946  0.4815
 4063SOL    HW216024   2.606   2.762   4.305 -4.0247  0.6363  3.5536
 4063SOL    HW316025   2.578   2.881   4.215 -1.4795 -0.6108  0.9532
 4063SOL    MW416026   2.611   2.848   4.289  0.0178 -0.5325 -0.3844
 4064SOL     OW16027   0.325   3.150   6.017 -0.0208 -0.5629  0.4387
 4064SOL    HW216028   0.309   3.200   6.097  0.1509 -2.0309  1.4243
 4064SOL    HW316029   0.417   3.166   5.996 -0.3206  0.6238 -0.0666
 4064SOL    MW416030   0.335   3.159   6.025 -0.0843 -0.1246 -0.3321
 4065SOL     OW16031   0.814   3.064   6.170 -0.1196  0.5615  0.2251
 4065SOL    HW216032   0.828   2.970   6.171 -1.7358  0.2841  1.6384
 4065SOL    HW316033   0.900   3.101   6.151  0.3891 -1.1922 -1.1615
 4065SOL    MW416034   0.827   3.057   6.168 -0.2281 -0.1862 -0.3364
 4066SOL     OW16035   1.267   4.044   4.052 -0.0796  0.2664  0.4579
 4066SOL    HW216036   1.309   4.072   4.134 -0.1821  1.7114  0.0559
 4066SOL    HW316037   1.309   3.961   4.030  0.9883  0.5849  1.2240
 4066SOL    MW416038   1.278   4.037   4.060  0.2268  0.2023  0.4883
 4067SOL     OW16039   5.591   3.944   5.791 -0.6303 -0.0006  0.7947
 4067SOL    HW216040   5.598   3.977   5.881 -0.4675  2.1750  0.0338
 4067SOL    HW316041   5.501   3.914   5.783 -1.1144  1.2681  1.2401
 4067SOL    MW416042   5.580   3.945   5.802  0.1931  0.3857 -0.5439
 4068SOL     OW16043   0.426   2.093   4.015 -0.0689 -0.0088  0.0322
 4068SOL    HW216044   0.493   2.140   4.066  0.1720 -0.2601 -0.0458
 4068SOL    HW316045   0.368   2.055   4.081 -1.4503  2.0563  0.0696
 4068SOL    MW416046   0.428   2.094   4.031 -0.1206  0.0194 -0.3439
 4069SOL     OW16047   2.937   3.873   4.771  0.2390  0.3827 -0.0059
 4069SOL    HW216048   2.891   3.950   4.804 -0.4746  0.8850 -2.0292
 4069SOL    HW316049   2.990   3.906   4.698 -0.2100 -1.0420 -1.0151
 4069SOL    MW416050   2.938   3.888   4.766 -0.1217 -0.4920 -0.4467
 4070SOL     OW16051   3.933   6.056   3.302 -0.6889 -0.2113 -0.0976
 4070SOL    HW216052   3.881   6.098   3.371  0.1035  1.0712 -0.2616
 4070SOL    HW316053   3.953   6.126   3.240  0.2193 -0.9462 -0.6667
 4070SOL    MW416054   3.928   6.071   3.303  0.4662 -0.4582 -0.0352
 4071SOL     OW16055   0.213   0.865   5.026  0.1996 -0.0688  0.6041
 4071SOL    HW216056   0.202   0.933   4.959 -0.5807  0.1751  0.9715
 4071SOL    HW316057   0.283   0.810   4.992  0.3082  0.4698 -0.0739
 4071SOL    MW416058   0.221   0.867   5.013 -0.2935  0.0522  0.1285
 4072SOL     OW16059   2.677   3.979   0.028  0.7934 -0.1937 -0.1016
 4072SOL    HW216060   2.733   4.051  -0.001  2.1194 -1.4255 -0.7239
 4072SOL    HW316061   2.590   4.019   0.038  1.2800  1.2839 -1.3185
 4072SOL    MW416062   2.673   3.994   0.025 -0.0755 -0.6176  0.2670
 4073SOL     OW16063   1.867   1.344   0.099  0.0396 -1.0117  0.8462
 4073SOL    HW216064   1.778   1.321   0.128 -0.8678  2.0880  0.8989
 4073SOL    HW316065   1.915   1.362   0.180  0.2528 -1.2187  0.7655
 4073SOL    MW416066   1.861   1.344   0.113 -0.0981  0.0051 -0.0779
 4074SOL     OW16067   3.635   6.391   5.626  0.4951 -0.2883 -0.0393
 4074SOL    HW216068   3.673   6.476   5.605  0.0844  0.3532  1.6622
 4074SOL    HW316069   3.572   6.375   5.556 -1.9828  2.4942  1.3196
 4074SOL    MW416070   3.632   6.400   5.614  0.3013  0.2650 -0.0962
 4075SOL     OW16071   6.022   0.232   0.632  0.0428 -0.1913 -0.3543
 4075SOL    HW216072   6.043   0.319   0.598 -1.1388 -0.1469 -1.0288
 4075SOL    HW316073   6.061   0.172   0.568 -1.4369 -0.1147 -1.3664
 4075SOL    MW416074   6.030   0.236   0.619  0.3203 -0.0410  0.0261
 4076SOL     OW16075   3.081   3.421   1.383  0.0946 -0.2774  0.3042
 4076SOL    HW216076   3.106   3.490   1.445 -0.8466  0.7225 -0.3796
 4076SOL    HW316077   2.992   3.445   1.356 -0.3865 -1.9611  0.2951
 4076SOL    MW416078   3.073   3.433   1.387 -0.7507 -0.3726 -0.5182
 4077SOL     OW16079   1.334   1.822   1.839  0.0401  0.3304  0.0458
 4077SOL    HW216080   1.243   1.821   1.811 -0.3033  2.0400  0.9186
 4077SOL    HW316081   1.381   1.865   1.768 -0.0269  0.4412  0.0688
 4077SOL    MW416082   1.328   1.828   1.826 -0.1431 -0.1736 -0.3629
 4078SOL     OW16083   3.263   2.721   3.298 -0.0629 -0.2071  0.3774
 4078SOL    HW216084   3.218   2.782   3.240  2.2459 -0.5263 -1.9343
 4078SOL    HW316085   3.204   2.711   3.373 -2.0843  2.1262 -0.7647
 4078SOL    MW416086   3.249   2.728   3.300 -0.5205 -0.0984  0.0919
 4079SOL     OW16087   1.360   6.305   4.843 -0.4211  0.0404 -0.5446
 4079SOL    HW216088   1.278   6.330   4.886 -0.1071 -1.3920  1.0016
 4079SOL    HW316089   1.334   6.237   4.780 -0.6302  0.8083 -1.3028
 4079SOL    MW416090   1.346   6.299   4.841 -0.7389  0.5117 -0.0123
 4080SOL     OW16091   5.626   5.344   5.622 -0.0028  0.1420 -0.3065
 4080SOL    HW216092   5.717   5.317   5.607 -0.4686 -1.8501  0.2248
 4080SOL    HW316093   5.614   5.418   5.562  1.6748 -0.1523 -1.0852
 4080SOL    MW416094   5.637   5.350   5.612 -0.0832 -0.4781  0.2669
 4081SOL     OW16095   5.159   0.636   3.915  0.0671  0.3888  0.5745
 4081SOL    HW216096   5.064   0.622   3.923 -0.0744  1.9924  2.3969
 4081SOL    HW316097   5.174   0.721   3.956  2.0302  1.1804 -1.5640
 4081SOL    MW416098   5.148   0.645   3.921  0.5892  0.1621 -0.1429
 4082SOL     OW16099   1.759   3.259   3.809 -0.2846 -0.4518  0.2756
 4082SOL    HW216100   1.668   3.274   3.832 -0.2873 -0.9281  0.6016
 4082SOL    HW316101   1.809   3.306   3.876 -0.2936 -1.6589  1.1719
 4082SOL    MW416102   1.754   3.267   3.821  0.3271  0.0951  0.4911
 4083SOL     OW16103   6.068   0.616   0.835  0.2735 -0.3734 -0.6316
 4083SOL    HW216104   6.040   0.539   0.885 -1.7103  0.8175  0.1740
 4083SOL    HW316105   6.044   0.691   0.890  1.2796  0.8747 -1.8214
 4083SOL    MW416106   6.061   0.616   0.849 -0.3852 -0.1746 -0.1959
 4084SOL     OW16107   4.476   3.621   2.517 -0.0054  0.0080  0.5292
 4084SOL    HW216108   4.397   3.575   2.544 -0.7248  1.0720  0.2897
 4084SOL    HW316109   4.516   3.648   2.600  0.0674 -0.4451  0.6478
 4084SOL    MW416110   4.471   3.618   2.532 -0.0436 -0.2158 -0.6581
 4085SOL     OW16111   5.538   3.063   5.985  0.6421  0.5100  0.1232
 4085SOL    HW216112   5.498   3.057   5.898  0.0778 -1.1745  0.4737
 4085SOL    HW316113   5.586   3.146   5.983 -0.9348  1.4523 -1.1119
 4085SOL    MW416114   5.539   3.073   5.973  0.1690 -0.5261 -0.0230
 4086SOL     OW16115   3.860   3.530   1.066 -0.1268  0.7882  0.8151
 4086SOL    HW216116   3.790   3.505   1.006  0.2192  1.1523  0.2576
 4086SOL    HW316117   3.914   3.451   1.073 -1.7360 -0.2436  2.9423
 4086SOL    MW416118   3.858   3.516   1.059 -0.5125  0.5317  0.3303
 4087SOL     OW16119   1.428   1.055   1.447 -0.7001  0.0571  0.1538
 4087SOL    HW216120   1.460   1.102   1.370  1.3244 -1.2499  0.1341
 4087SOL    HW316121   1.442   1.115   1.520  0.5412  0.0483 -0.0640
 4087SOL    MW416122   1.434   1.069   1.447 -0.2876 -0.1586  0.3839
 4088SOL     OW16123   0.247   5.017   1.351  0.5327  0.5717 -0.6785
 4088SOL    HW216124   0.154   5.034   1.365  0.1229 -0.5578 -1.8845
 4088SOL    HW316125   0.291   5.070   1.418 -1.0594 -0.6386  1.4629
 4088SOL    MW416126   0.240   5.026   1.362  0.1701 -0.1857  0.0961
 4089SOL     OW16127   1.390   4.233   1.604 -0.4410 -0.0865 -0.1686
 4089SOL    HW216128   1.333   4.304   1.635  0.8346  1.2606 -0.7624
 4089SOL    HW316129   1.477   4.258   1.636 -0.2162 -2.3935  1.2401
 4089SOL    MW416130   1.394   4.246   1.613  0.2038 -0.1439 -0.3276
 4090SOL     OW16131   3.275   4.582   3.702  0.0675  0.5248  0.4322
 4090SOL    HW216132   3.210   4.581   3.772 -0.7411 -0.9197 -0.2991
 4090SOL    HW316133   3.359   4.576   3.748 -0.4884 -1.4849  1.2816
 4090SOL    MW416134   3.278   4.581   3.717  0.1124 -0.1863  0.1602
 4091SOL     OW16135   5.532   5.142   2.844 -0.5496  0.1978  0.2391
 4091SOL    HW216136   5.464   5.175   2.785 -1.5708  0.0274  1.2813
 4091SOL    HW316137   5.569   5.220   2.884 -0.3143  0.2794 -0.1393
 4091SOL    MW416138   5.528   5.156   2.842  0.1140 -0.2296 -0.3335
 4092SOL     OW16139   4.485   4.516   4.901 -0.2950 -0.1473  0.0464
 4092SOL    HW216140   4.514   4.559   4.821 -0.2504  0.6120  0.4593
 4092SOL    HW316141   4.494   4.422   4.883  0.6417  0.0360 -0.4923
 4092SOL    MW416142   4.490   4.509   4.888 -0.0053 -0.1070 -0.0147
 4093SOL     OW16143   5.641   1.880   5.940 -0.0675  0.2179  0.4066
 4093SOL    HW216144   5.634   1.786   5.920 -1.3755  0.0717  1.4464
 4093SOL    HW316145   5.618   1.923   5.857  0.2629 -0.3655 -0.0020
 4093SOL    MW416146   5.637   1.873   5.926  0.0984  0.1252 -0.8986
 4094SOL     OW16147   1.476   5.488   2.524 -0.4656  0.0601 -0.4249
 4094SOL    HW216148   1.490   5.501   2.430  0.8288  0.5773 -0.1898
 4094SOL    HW316149   1.434   5.568   2.554 -3.1106 -1.0339 -0.9302
 4094SOL    MW416150   1.472   5.500   2.515  0.5123 -0.1641  0.3374
 4095SOL     OW16151   4.569   3.581   3.235 -0.0473  0.1017  0.4940
 4095SOL    HW216152   4.604   3.626   3.312  0.6756 -0.7392  0.6815
 4095SOL    HW316153   4.646   3.561   3.182 -0.6809  2.2521 -1.3721
 4095SOL    MW416154   4.584   3.584   3.238 -0.3860  0.6165  0.6122
 4096SOL     OW16155   2.705   5.401   1.354 -0.4283  0.3510  0.2141
 4096SOL    HW216156   2.774   5.359   1.406  1.5481  2.4961 -0.4703
 4096SOL    HW316157   2.624   5.379   1.398  0.8456 -0.9364  2.0527
 4096SOL    MW416158   2.704   5.393   1.367  0.0799 -0.1444 -0.2356
 4097SOL     OW16159   0.461   0.370   4.371 -0.2495  0.3646  0.4550
 4097SOL    HW216160   0.502   0.415   4.297 -1.2472  0.4070 -0.0988
 4097SOL    HW316161   0.374   0.410   4.378 -1.4640 -1.8793 -0.5168
 4097SOL    MW416162   0.455   0.381   4.362 -0.2462  0.1464  0.2359
 4098SOL     OW16163   5.557   4.035   4.243  0.4900 -0.1407 -0.4754
 4098SOL    HW216164   5.529   3.945   4.261 -0.8070  0.4274  0.4751
 4098SOL    HW316165   5.490   4.070   4.184  1.1148  0.1429 -1.0308
 4098SOL    MW416166   5.544   4.027   4.238 -0.0594 -0.5692  0.7874
 4099SOL     OW16167   2.018   6.217   5.512  0.4607  0.5953 -0.4081
 4099SOL    HW216168   2.105   6.190   5.542 -0.0373 -1.3646 -0.5850
 4099SOL    HW316169   1.963   6.211   5.590  0.2378  0.6332 -0.5616
 4099SOL    MW416170   2.022   6.213   5.526 -0.0335 -0.0962 -0.2072
 4100SOL     OW16171   1.770   2.547   3.392 -0.2290  0.0295 -0.3119
 4100SOL    HW216172   1.688   2.593   3.407 -0.4309 -0.4142 -0.0320
 4100SOL    HW316173   1.764   2.514   3.302 -0.6374 -0.5571 -0.0761
 4100SOL    MW416174   1.758   2.549   3.382  0.1312  0.2282 -0.6177
 4101SOL     OW16175   5.307   4.935   3.719  0.2016  0.6370  0.5156
 4101SOL    HW216176   5.397   4.913   3.695  0.3020  1.8468 -0.3219
 4101SOL    HW316177   5.263   4.950   3.635  0.1764  3.5384  0.9316
 4101SOL    MW416178   5.313   4.934   3.704 -0.3647 -0.2196  0.1451
 4102SOL     OW16179   2.577   3.241   2.632 -0.3707  0.1115 -0.0223
 4102SOL    HW216180   2.534   3.156   2.641 -0.2237  0.0760  0.3970
 4102SOL    HW316181   2.534   3.296   2.698 -1.2967  0.7104 -1.1026
 4102SOL    MW416182   2.566   3.237   2.642 -0.0282 -0.0399  0.0057
 4103SOL     OW16183   5.049   3.756   0.372  0.2135  0.8384 -0.3924
 4103SOL    HW216184   5.072   3.797   0.456  1.0393 -0.5977  0.1273
 4103SOL    HW316185   4.996   3.680   0.396 -2.4372  2.2573 -1.4128
 4103SOL    MW416186   5.045   3.751   0.386  0.0095  0.6843 -0.3933
 4104SOL     OW16187   3.497   2.841   3.374 -0.6340  0.2254 -0.0119
 4104SOL    HW216188   3.416   2.830   3.324 -0.8229  0.9933  0.1150
 4104SOL    HW316189   3.552   2.767   3.347 -1.9286 -1.1834  1.0231
 4104SOL    MW416190   3.494   2.830   3.364 -0.7490 -0.1063 -0.3363
 4105SOL     OW16191   3.137   3.399   4.750 -0.6839 -0.3158  0.2078
 4105SOL    HW216192   3.045   3.420   4.768 -0.7811 -0.8209  0.3139
 4105SOL    HW316193   3.158   3.453   4.674 -0.2810  1.7782  1.7138
 4105SOL    MW416194   3.127   3.409   4.742 -0.8226  0.0343 -0.1201
 4106SOL     OW16195   0.758   3.677   1.603  0.2177 -0.7131  0.1140
 4106SOL    HW216196   0.801   3.702   1.684  1.0248 -0.5948 -0.3346
 4106SOL    HW316197   0.752   3.758   1.553  1.2320 -1.0638 -0.6164
 4106SOL    MW416198   0.762   3.691   1.607  0.7459 -0.1606  0.0974
 4107SOL     OW16199   2.561   3.035   2.916 -0.2760 -0.3240 -0.2228
 4107SOL    HW216200   2.578   3.122   2.952 -0.2080 -0.4917  0.1531
 4107SOL    HW316201   2.644   3.010   2.875 -0.9155  0.7130 -2.3229
 4107SOL    MW416202   2.574   3.043   2.915 -0.2329  0.2022  0.6607
 4108SOL     OW16203   3.763   0.712   0.999  0.1554 -0.1677  0.3672
 4108SOL    HW216204   3.720   0.736   1.081 -0.9564  0.0818 -0.2669
 4108SOL    HW316205   3.804   0.627   1.017  1.2716  0.5839  1.6303
 4108SOL    MW416206   3.763   0.704   1.012  0.6635 -0.1137  0.1104
 4109SOL     OW16207   1.136   0.829   0.392 -0.1177  0.1897 -1.0522
 4109SOL    HW216208   1.142   0.829   0.296 -0.2404  0.2330 -1.0595
 4109SOL    HW316209   1.165   0.742   0.418  1.3544  0.6521 -1.0467
 4109SOL    MW416210   1.141   0.818   0.383 -0.2069 -0.1689  0.2897
 4110SOL     OW16211   1.956   6.385   3.035  0.1363 -0.4048 -0.4787
 4110SOL    HW216212   1.875   6.367   2.987 -0.0334 -0.5973 -0.1149
 4110SOL    HW316213   2.024   6.340   2.985 -0.0800 -0.8351 -0.3860
 4110SOL    MW416214   1.954   6.377   3.022  0.3936  0.3644  0.3112
 4111SOL     OW16215   6.197   2.445   4.424  0.3725  0.5597 -0.1513
 4111SOL    HW216216   6.258   2.409   4.489  0.2662  1.4684  0.4723
 4111SOL    HW316217   6.112   2.442   4.467  0.2412  0.8289 -0.3862
 4111SOL    MW416218   6.194   2.440   4.438 -0.9106  0.3881  0.0754
 4112SOL     OW16219   3.824   3.625   2.434  0.2605  0.0732  0.1153
 4112SOL    HW216220   3.853   3.578   2.512  1.2941  1.1752  0.4097
 4112SOL    HW316221   3.734   3.595   2.421  0.6618 -1.4876  0.6671
 4112SOL    MW416222   3.816   3.615   2.442  0.1226  0.0101  0.8417
 4113SOL     OW16223   1.723   1.118   4.891 -0.5848  0.3725  0.1793
 4113SOL    HW216224   1.634   1.085   4.885 -0.7801  0.5345  1.8044
 4113SOL    HW316225   1.770   1.074   4.819 -1.6094 -0.8597  0.2342
 4113SOL    MW416226   1.718   1.107   4.880  0.1994 -0.1111 -0.2786
 4114SOL     OW16227   3.129   6.009   5.441 -0.4118 -0.1987  0.0548
 4114SOL    HW216228   3.175   6.080   5.486 -0.6837  0.0101  0.0088
 4114SOL    HW316229   3.139   6.030   5.348  0.4002 -0.7866 -0.0014
 4114SOL    MW416230   3.136   6.021   5.434  0.0552  0.1330  0.0756
 4115SOL     OW16231   0.488   1.755   1.524 -0.3958  0.4209  0.1072
 4115SOL    HW216232   0.572   1.710   1.523  0.2015  1.4961  0.4836
 4115SOL    HW316233   0.426   1.690   1.491  0.6581 -0.2126 -0.7008
 4115SOL    MW416234   0.491   1.741   1.520  0.1696 -0.6946  0.2274
 4116SOL     OW16235   1.996   2.894   3.985  0.0549 -0.0931  0.3919
 4116SOL    HW216236   1.958   2.810   3.958 -0.4781 -0.1509  1.2777
 4116SOL    HW316237   1.992   2.948   3.906 -3.0379  0.3156  0.7118
 4116SOL    MW416238   1.991   2.890   3.971  0.6063 -0.1446  0.5830
 4117SOL     OW16239   4.470   5.343   1.099  0.0284 -0.5150  0.4497
 4117SOL    HW216240   4.474   5.437   1.119 -2.0011 -0.6107  1.5415
 4117SOL    HW316241   4.420   5.339   1.017  0.7493 -0.6191  0.0087
 4117SOL    MW416242   4.464   5.355   1.091  0.4569  0.3575  0.4953
 4118SOL     OW16243   1.132   0.081   3.105 -0.2296  0.7800 -0.1876
 4118SOL    HW216244   1.174   0.002   3.070 -0.5265 -0.0814  1.3343
 4118SOL    HW316245   1.193   0.113   3.172 -0.2871  1.6472 -0.5364
 4118SOL    MW416246   1.146   0.075   3.109 -0.2788  0.3034  0.0832
 4119SOL     OW16247   0.277   2.185   1.202 -0.0686 -0.3513 -0.1920
 4119SOL    HW216248   0.314   2.167   1.288  0.8521 -0.1372 -0.5305
 4119SOL    HW316249   0.230   2.105   1.178  0.9697 -0.9873 -0.1521
 4119SOL    MW416250   0.275   2.172   1.210 -0.0487 -0.0893 -0.5951
 4120SOL     OW16251   1.917   2.611   5.494 -0.4961 -0.4466 -0.5582
 4120SOL    HW216252   1.861   2.563   5.433  0.4962 -1.8198 -0.4330
 4120SOL    HW316253   2.006   2.589   5.468 -0.0414 -0.5059  0.9400
 4120SOL    MW416254   1.921   2.602   5.483  0.1504  0.2357  0.1243
 4121SOL     OW16255   1.305   5.864   3.948 -0.0856  0.6140 -0.0967
 4121SOL    HW216256   1.293   5.934   3.885 -3.1338  1.8061  1.5961
 4121SOL    HW316257   1.299   5.784   3.896  1.6600  1.5020 -1.8063
 4121SOL    MW416258   1.303   5.862   3.933 -0.5011  0.1534 -0.4401
 4122SOL     OW16259   0.902   1.786   6.345 -0.0481 -0.4938 -0.3623
 4122SOL    HW216260   0.975   1.778   6.407  1.5383 -3.9624 -2.3682
 4122SOL    HW316261   0.944   1.788   6.259 -2.2812 -0.0713 -1.5087
 4122SOL    MW416262   0.917   1.785   6.342  0.1331 -0.3580  0.3856
 4123SOL     OW16263   5.087   4.025   4.342 -0.9119 -0.0284 -0.4536
 4123SOL    HW216264   4.999   4.052   4.316 -0.9921 -0.0917 -0.2471
 4123SOL    HW316265   5.125   3.988   4.262 -1.3216 -0.6432 -0.3696
 4123SOL    MW416266   5.081   4.023   4.328 -0.1319  0.5165  0.0552
 4124SOL     OW16267   6.354   3.380   2.799 -0.1715  0.1489  0.5209
 4124SOL    HW216268   6.371   3.398   2.892 -2.9745 -0.3870  1.2017
 4124SOL    HW316269   6.347   3.467   2.759 -2.3736  0.5096  1.5528
 4124SOL    MW416270   6.356   3.394   2.806  0.1507  0.0921  0.1916
 4125SOL     OW16271   4.499   5.985   2.647 -0.0758 -0.0631  0.0015
 4125SOL    HW216272   4.501   5.975   2.551  2.0118 -3.8754  0.2494
 4125SOL    HW316273   4.525   5.899   2.680 -1.1547  0.9938  4.0732
 4125SOL    MW416274   4.503   5.972   2.638  0.3874  0.1408 -0.3596
 4126SOL     OW16275   3.502   4.223   5.883 -0.3825 -0.2300 -0.2738
 4126SOL    HW216276   3.566   4.276   5.835 -0.4428 -1.3590 -1.6733
 4126SOL    HW316277   3.555   4.166   5.938 -0.2593  0.0757 -0.0712
 4126SOL    MW416278   3.518   4.222   5.884 -0.3478  0.5854 -0.0633
 4127SOL     OW16279   3.214   2.148   0.516 -1.3103 -0.5172 -0.3313
 4127SOL    HW216280   3.154   2.126   0.445 -0.9809 -4.0973  0.3120
 4127SOL    HW316281   3.294   2.100   0.496 -0.4275  0.1640  1.3354
 4127SOL    MW416282   3.216   2.139   0.504  0.3858  0.4679 -0.5270
 4128SOL     OW16283   0.409   1.820   2.033 -0.1014  0.0852 -0.2933
 4128SOL    HW216284   0.499   1.852   2.024  0.2237 -0.0428  2.0660
 4128SOL    HW316285   0.396   1.763   1.957  2.1458 -0.6611 -0.1811
 4128SOL    MW416286   0.419   1.817   2.022 -0.3574 -0.9029 -0.3046
 4129SOL     OW16287   4.194   0.170   3.359 -0.1452 -0.1944 -0.1523
 4129SOL    HW216288   4.236   0.084   3.360  0.9778  0.2567 -2.1510
 4129SOL    HW316289   4.266   0.232   3.358 -0.9437  0.7911  1.0330
 4129SOL    MW416290   4.209   0.167   3.359 -0.3682  0.2297  0.0564
 4130SOL     OW16291   0.361   3.383   5.811 -0.7641 -1.0163  0.0971
 4130SOL    HW216292   0.440   3.397   5.760 -0.6194  0.0654  0.5834
 4130SOL    HW316293   0.326   3.471   5.826 -2.0338 -1.4618 -0.0607
 4130SOL    MW416294   0.367   3.397   5.806  0.3975 -0.2837  0.1221
 4131SOL     OW16295   2.399   4.753   2.150 -0.2725  0.5793  0.1547
 4131SOL    HW216296   2.338   4.725   2.081 -0.8389  4.0972 -0.9715
 4131SOL    HW316297   2.484   4.757   2.106 -0.1434  0.4057  0.3850
 4131SOL    MW416298   2.402   4.750   2.135 -0.0120  0.2750 -0.9516
 4132SOL     OW16299   2.159   3.831   3.450  0.7701 -0.0236 -0.3285
 4132SOL    HW216300   2.198   3.782   3.378  0.0365 -1.7284  0.3755
 4132SOL    HW316301   2.178   3.779   3.528  0.9521  1.4224  0.6371
 4132SOL    MW416302   2.167   3.818   3.451  0.2760 -0.1553 -0.4440
 4133SOL     OW16303   6.094   0.235   3.432  0.1972  0.1693 -0.0142
 4133SOL    HW216304   6.181   0.271   3.419 -0.1545  1.1449  0.2999
 4133SOL    HW316305   6.055   0.288   3.501 -0.0412 -1.3463  1.0784
 4133SOL    MW416306   6.100   0.247   3.439  0.2584 -0.8325  0.2861
 4134SOL     OW16307   1.699   6.379   3.625  0.6397  0.5915 -0.5298
 4134SOL    HW216308   1.742   6.310   3.675 -0.4009 -1.2464 -2.0664
 4134SOL    HW316309   1.766   6.408   3.563  0.3053 -0.9977 -1.6999
 4134SOL    MW416310   1.714   6.374   3.624 -0.6473  0.3551 -0.2548
 4135SOL     OW16311   1.358   0.349   5.783  0.4704 -0.2807 -0.2137
 4135SOL    HW216312   1.284   0.401   5.751 -0.6977 -0.6511  1.7078
 4135SOL    HW316313   1.413   0.336   5.706 -0.9840  0.8139 -1.5108
 4135SOL    MW416314   1.355   0.354   5.769  0.3253 -0.0651 -0.4661
 4136SOL     OW16315   3.769   1.107   3.282  0.7011  0.1539 -0.0351
 4136SOL    HW216316   3.704   1.141   3.221  1.0128  1.9980  0.6208
 4136SOL    HW316317   3.766   1.012   3.268  0.1370  0.4312 -2.2610
 4136SOL    MW416318   3.760   1.099   3.272 -0.2247  0.3050  0.1034
 4137SOL     OW16319   1.699   3.663   0.377  0.8468 -0.1208  0.2018
 4137SOL    HW216320   1.681   3.646   0.469 -0.9637 -0.7531 -0.2326
 4137SOL    HW316321   1.706   3.759   0.371  0.7185 -0.0612  0.9558
 4137SOL    MW416322   1.697   3.674   0.388 -0.1042  0.5349 -0.0655
 4138SOL     OW16323   3.436   6.044   3.340 -0.3224  0.0972  0.6810
 4138SOL    HW216324   3.530   6.056   3.358 -0.5047  3.0264  0.1374
 4138SOL    HW316325   3.393   6.111   3.393 -2.1372 -1.1177  0.8231
 4138SOL    MW416326   3.443   6.054   3.349 -0.2871 -0.3348  0.0524
 4139SOL     OW16327   3.647   4.663   1.924 -0.4784 -0.3941  0.2678
 4139SOL    HW216328   3.618   4.629   1.840 -2.0435  0.1879  0.5503
 4139SOL    HW316329   3.577   4.721   1.953  0.3386 -0.0438  1.6581
 4139SOL    MW416330   3.634   4.666   1.917  0.5759 -0.0857  0.6981
 4140SOL     OW16331   3.617   3.287   5.412  0.6624  0.3917  0.4610
 4140SOL    HW216332   3.693   3.295   5.469  1.8959 -1.4287 -0.8208
 4140SOL    HW316333   3.559   3.224   5.456  0.6333  0.5774  0.6870
 4140SOL    MW416334   3.619   3.280   5.425  0.2399  0.2707  0.3924
 4141SOL     OW16335   0.638   3.761   0.240 -0.1574 -0.1300  0.1305
 4141SOL    HW216336   0.547   3.773   0.212 -0.5350  0.5772  1.5292
 4141SOL    HW316337   0.634   3.768   0.336  1.6513  2.1083  0.1469
 4141SOL    MW416338   0.625   3.764   0.249 -0.6049  0.0782 -0.3706
 4142SOL     OW16339   5.896   3.578   5.894 -0.0437  0.0548 -0.3808
 4142SOL    HW216340   5.879   3.485   5.910 -0.1007  0.0581 -0.4209
 4142SOL    HW316341   5.811   3.620   5.909  0.0411  0.1312 -0.1168
 4142SOL    MW416342   5.882   3.571   5.898  0.5131  0.0145  0.3256
 4143SOL     OW16343   1.233   0.722   1.988  0.1973 -0.0957  0.3253
 4143SOL    HW216344   1.232   0.773   1.908  0.8122 -0.5454  0.0259
 4143SOL    HW316345   1.149   0.742   2.030  0.5457  1.3735  0.3625
 4143SOL    MW416346   1.222   0.731   1.983 -0.0003 -0.6009 -0.8115
 4144SOL     OW16347   5.678   2.084   2.665 -0.1248 -0.0485 -0.3251
 4144SOL    HW216348   5.652   2.007   2.615  0.5419  0.3992 -1.3869
 4144SOL    HW316349   5.772   2.072   2.679 -0.2630 -0.0644  0.6591
 4144SOL    MW416350   5.687   2.072   2.660 -0.2450  0.3346  0.3590
 4145SOL     OW16351   0.420   4.856   4.231  0.0181 -0.2067  0.0832
 4145SOL    HW216352   0.402   4.873   4.138  0.6511  1.2859  0.2122
 4145SOL    HW316353   0.353   4.906   4.278  0.7604  0.4680  0.4460
 4145SOL    MW416354   0.409   4.865   4.225  0.1620 -0.4974  0.1506
 4146SOL     OW16355   3.789   2.706   2.354 -0.3593 -0.7652 -0.1438
 4146SOL    HW216356   3.748   2.793   2.358  1.3074  0.0506  0.4816
 4146SOL    HW316357   3.727   2.648   2.397 -0.2367  0.6973  2.1834
 4146SOL    MW416358   3.775   2.710   2.360 -0.0023 -0.2283  0.5970
 4147SOL     OW16359   5.439   0.800   4.501  0.3497  0.7640  0.4693
 4147SOL    HW216360   5.421   0.739   4.429 -1.8845  1.1607  0.6216
 4147SOL    HW316361   5.424   0.887   4.463 -0.2024  1.0077  1.2163
 4147SOL    MW416362   5.434   0.804   4.487 -0.5197 -0.0627 -0.1738
 4148SOL     OW16363   4.381   6.026   5.961  0.2847  0.8285 -0.1841
 4148SOL    HW216364   4.407   5.953   6.018  3.9046  1.6272 -0.6098
 4148SOL    HW316365   4.355   5.983   5.879 -1.0066 -0.0951  0.6591
 4148SOL    MW416366   4.381   6.010   5.958  0.9103 -0.7098  0.6542
 4149SOL     OW16367   6.216   3.040   4.396  0.8060 -0.1707 -0.6807
 4149SOL    HW216368   6.172   3.092   4.463 -1.4526 -0.0472 -2.1632
 4149SOL    HW316369   6.309   3.057   4.410  0.2691  1.9776  0.7159
 4149SOL    MW416370   6.223   3.049   4.407 -0.2910 -0.1395 -0.1140
 4150SOL     OW16371   6.134   0.160   4.599  0.5018 -0.1818  0.1365
 4150SOL    HW216372   6.174   0.226   4.657  2.0165 -0.9020 -0.0289
 4150SOL    HW316373   6.088   0.101   4.659  0.7044 -0.0167  0.4607
 4150SOL    MW416374   6.133   0.161   4.615 -0.0929 -0.2843 -0.0933
 4151SOL     OW16375   3.736   4.922   5.668 -0.0620 -0.1482  0.1956
 4151SOL    HW216376   3.755   5.015   5.677  2.0856 -0.6057  0.8755
 4151SOL    HW316377   3.783   4.881   5.741 -0.1908 -1.8564 -0.6443
 4151SOL    MW416378   3.745   4.929   5.679  0.5258  0.5738  0.3745
 4152SOL     OW16379   2.843   2.963   1.006 -0.2261  0.3216 -0.5919
 4152SOL    HW216380   2.794   3.031   1.053 -0.1706  0.9845 -1.4626
 4152SOL    HW316381   2.824   2.883   1.054 -1.2005  0.7678 -0.1910
 4152SOL    MW416382   2.834   2.962   1.018  0.1723 -0.1300 -0.0748
 4153SOL     OW16383   5.119   0.539   4.277  0.6727 -0.0148  0.4414
 4153SOL    HW216384   5.192   0.518   4.218  0.1426 -0.2408 -0.1546
 4153SOL    HW316385   5.067   0.602   4.228 -0.3917 -1.0668  0.1722
 4153SOL    MW416386   5.122   0.545   4.262  0.1346  0.3407 -0.2622
 4154SOL     OW16387   1.480   5.578   5.335  0.2275 -0.0437 -0.2005
 4154SOL    HW216388   1.502   5.505   5.277 -1.0251  0.6339 -1.6127
 4154SOL    HW316389   1.497   5.545   5.423  0.7762 -1.6309 -0.8572
 4154SOL    MW416390   1.485   5.564   5.339 -0.5280 -0.3517  0.2068
 4155SOL     OW16391   4.077   0.979   4.912 -0.3223  0.1189  0.1802
 4155SOL    HW216392   4.085   1.073   4.926 -0.8585  0.0725  0.8082
 4155SOL    HW316393   4.129   0.939   4.982 -1.3276 -0.0717  0.8364
 4155SOL    MW416394   4.085   0.986   4.923 -0.2710  0.1688  0.4095
 4156SOL     OW16395   5.355   3.350   1.922  0.0781 -0.3617  0.0557
 4156SOL    HW216396   5.378   3.427   1.974  3.2960 -1.2640  0.1836
 4156SOL    HW316397   5.297   3.300   1.978  0.8231  0.2757  1.4591
 4156SOL    MW416398   5.351   3.354   1.936  0.1605 -0.7603 -0.1263
 4157SOL     OW16399   5.143   2.788   4.309 -0.0932 -0.0546  0.4114
 4157SOL    HW216400   5.199   2.718   4.340 -1.0929  0.1387  2.8160
 4157SOL    HW316401   5.094   2.749   4.236  0.1589 -1.4893  0.9823
 4157SOL    MW416402   5.144   2.774   4.303 -0.4638 -0.4198  0.4333
 4158SOL     OW16403   2.685   2.414   2.672  0.5470 -0.0336  0.5758
 4158SOL    HW216404   2.606   2.469   2.671 -0.5638 -1.4762 -2.5340
 4158SOL    HW316405   2.654   2.327   2.649  2.8863 -0.9738  0.7493
 4158SOL    MW416406   2.671   2.410   2.669 -0.0016  0.3822 -0.6515
 4159SOL     OW16407   0.334   5.554   0.959 -0.1093  0.0342  0.2792
 4159SOL    HW216408   0.363   5.600   0.880 -2.1321 -0.8397 -1.0761
 4159SOL    HW316409   0.307   5.468   0.927 -2.0229  0.0405  1.7233
 4159SOL    MW416410   0.334   5.548   0.944  0.2577  0.0673  0.0935
 4160SOL     OW16411   3.451   3.328   2.334  0.0071 -0.2271  0.2211
 4160SOL    HW216412   3.357   3.347   2.328 -0.0202 -0.3579  0.2321
 4160SOL    HW316413   3.477   3.310   2.243  0.2288  0.7739  0.0787
 4160SOL    MW416414   3.442   3.328   2.321 -0.1432  0.3111 -0.2609
 4161SOL     OW16415   5.332   1.222   5.514 -0.1213 -0.5208 -0.6998
 4161SOL    HW216416   5.413   1.270   5.535 -0.6293  0.4700 -0.9396
 4161SOL    HW316417   5.342   1.199   5.422  0.1382 -0.8990 -0.5771
 4161SOL    MW416418   5.344   1.226   5.505 -0.2658  0.1350 -0.3193
 4162SOL     OW16419   5.858   5.144   0.796 -0.4632  0.0047 -0.2730
 4162SOL    HW216420   5.847   5.159   0.702  0.1871  0.8422 -0.2339
 4162SOL    HW316421   5.781   5.185   0.836  0.0182  1.0238 -0.3526
 4162SOL    MW416422   5.846   5.152   0.789  0.5100  0.2108  0.0238
 4163SOL     OW16423   2.752   4.221   6.347  0.1841 -0.0546  0.8247
 4163SOL    HW216424   2.686   4.251   6.285  1.7222  1.1531 -0.3142
 4163SOL    HW316425   2.728   4.264   6.429 -0.4562  0.3526  0.4396
 4163SOL    MW416426   2.740   4.231   6.350  0.4095 -0.6935  0.2451
 4164SOL     OW16427   1.613   0.252   3.106  0.0850 -0.5187 -0.3029
 4164SOL    HW216428   1.673   0.306   3.054  1.3513 -0.7903  0.8324
 4164SOL    HW316429   1.625   0.282   3.196 -0.9927 -1.0544  0.0353
 4164SOL    MW416430   1.622   0.263   3.111  0.0902 -0.0758 -0.4116
 4165SOL     OW16431   3.448   6.294   1.785 -0.7026 -0.1555  1.5340
 4165SOL    HW216432   3.379   6.261   1.727  1.7520  0.8767 -2.4256
 4165SOL    HW316433   3.518   6.229   1.778  0.4766  1.0538  1.5218
 4165SOL    MW416434   3.448   6.281   1.776 -0.2229 -0.2126 -0.0658
 4166SOL     OW16435   0.481   2.596   6.194 -0.6325 -0.0094  0.2347
 4166SOL    HW216436   0.563   2.561   6.159  0.1025  1.0534  0.8339
 4166SOL    HW316437   0.415   2.571   6.130  0.1959 -0.6721 -0.3830
 4166SOL    MW416438   0.483   2.588   6.181 -0.2668 -0.1809  0.7440
 4167SOL     OW16439   2.535   1.019   5.834  0.3222 -0.1184 -0.1091
 4167SOL    HW216440   2.468   1.085   5.849  1.4906  1.1383 -0.2734
 4167SOL    HW316441   2.524   0.995   5.742  1.6527  1.9339 -0.8692
 4167SOL    MW416442   2.524   1.024   5.824  0.3175 -0.3494  0.6301
 4168SOL     OW16443   2.609   2.389   3.589 -0.0168  0.0512  0.1083
 4168SOL    HW216444   2.542   2.411   3.524 -0.4099  0.3508  0.6136
 4168SOL    HW316445   2.590   2.298   3.613  1.0370 -0.5805 -1.2833
 4168SOL    MW416446   2.598   2.380   3.584 -0.3094  0.0366  0.4203
 4169SOL     OW16447   1.451   3.459   5.225  0.3153 -0.2971 -0.4306
 4169SOL    HW216448   1.420   3.376   5.261 -0.0360 -0.2158 -0.5467
 4169SOL    HW316449   1.461   3.443   5.131 -2.8807  0.6938 -1.0426
 4169SOL    MW416450   1.448   3.446   5.218 -0.4152 -0.2378 -0.0287
 4170SOL     OW16451   2.532   2.453   4.864  0.7000 -0.5199  0.0680
 4170SOL    HW216452   2.486   2.442   4.947  0.7771 -1.4932 -0.0090
 4170SOL    HW316453   2.494   2.386   4.807  2.4289 -1.5720  0.0988
 4170SOL    MW416454   2.521   2.443   4.867 -0.3376 -0.1070 -0.5306
 4171SOL     OW16455   2.498   6.309   5.637 -0.5262 -0.4540  0.6570
 4171SOL    HW216456   2.529   6.371   5.570 -1.3207 -0.1201  0.5868
 4171SOL    HW316457   2.419   6.271   5.599 -0.6123 -0.7496  1.1338
 4171SOL    MW416458   2.492   6.312   5.623  0.5589 -0.1573 -0.1340
 4172SOL     OW16459   5.417   4.032   5.028 -0.3014  0.1709  0.4451
 4172SOL    HW216460   5.402   4.126   5.015  1.2227  0.5136  0.9963
 4172SOL    HW316461   5.462   4.004   4.948  1.4425  0.4748  1.2580
 4172SOL    MW416462   5.421   4.041   5.015  0.0881 -0.2649 -0.2061
 4173SOL     OW16463   1.623   4.072   0.172  0.2473  0.5247 -0.2796
 4173SOL    HW216464   1.555   4.121   0.218  1.1760  0.6385  1.0325
 4173SOL    HW316465   1.697   4.132   0.167  0.6121  0.0538 -0.7787
 4173SOL    MW416466   1.624   4.086   0.177 -0.4583  0.0856  0.5731
 4174SOL     OW16467   4.822   3.821   5.130 -0.2787  0.0751  0.0491
 4174SOL    HW216468   4.811   3.842   5.222  1.6240 -0.7509  0.5020
 4174SOL    HW316469   4.787   3.897   5.084 -2.8737 -0.2070  1.3394
 4174SOL    MW416470   4.816   3.833   5.136 -0.1130 -0.0690 -0.1527
 4175SOL     OW16471   0.579   1.054   4.699 -0.2131 -0.3036 -0.1839
 4175SOL    HW216472   0.629   1.089   4.626  0.8412 -0.2360  0.5402
 4175SOL    HW316473   0.487   1.072   4.677  0.0668 -0.4845 -1.5667
 4175SOL    MW416474   0.573   1.061   4.687  0.8217  0.0706 -0.4522
 4176SOL     OW16475   4.062   0.125   6.050 -0.5111 -0.5385  0.3060
 4176SOL    HW216476   3.991   0.066   6.075 -0.6759 -0.3509  0.2761
 4176SOL    HW316477   4.142   0.080   6.080 -0.7090 -0.2784  1.2501
 4176SOL    MW416478   4.063   0.111   6.057  0.5264  0.1809 -0.0081
 4177SOL     OW16479   2.560   2.073   1.993 -0.5178 -0.0647 -0.0610
 4177SOL    HW216480   2.587   2.137   1.927 -0.5618  1.7251  1.5492
 4177SOL    HW316481   2.492   2.021   1.949 -2.6552  2.9070 -0.6646
 4177SOL    MW416482   2.554   2.075   1.978  0.3075  0.0654 -0.4409
 4178SOL     OW16483   4.618   2.567   3.267  0.1810  0.5594 -0.0994
 4178SOL    HW216484   4.585   2.573   3.357 -0.2079 -1.0750 -0.1021
 4178SOL    HW316485   4.542   2.543   3.215  0.6295  0.4121 -0.6977
 4178SOL    MW416486   4.604   2.565   3.272  0.5632 -0.1164  0.2194
 4179SOL     OW16487   3.240   5.397   6.100 -0.7313  0.4235 -0.4353
 4179SOL    HW216488   3.307   5.353   6.153  0.0440  1.6079 -0.3971
 4179SOL    HW316489   3.168   5.413   6.161 -0.8084 -0.2836 -0.3237
 4179SOL    MW416490   3.239   5.393   6.115  0.0705 -0.5045  0.0649
 4180SOL     OW16491   2.427   0.029   5.259 -0.1971  0.1216 -0.3132
 4180SOL    HW216492   2.335   0.045   5.280 -0.7517  1.2836 -3.1016
 4180SOL    HW316493   2.436  -0.066   5.258 -0.6756 -0.0130  2.3844
 4180SOL    MW416494   2.416   0.019   5.262 -0.5012 -0.1438 -0.6772
 4181SOL     OW16495   2.993   3.429   3.173 -0.6255 -0.2808  0.1451
 4181SOL    HW216496   2.998   3.384   3.257 -0.4235 -1.4605 -0.4751
 4181SOL    HW316497   3.073   3.481   3.169 -1.0893  0.5469  1.0786
 4181SOL    MW416498   3.004   3.430   3.183 -0.3078  0.8089 -0.5066
 4182SOL     OW16499   5.125   2.131   0.678  0.0754  0.2112 -0.4032
 4182SOL    HW216500   5.036   2.148   0.644  0.1569 -0.7491 -1.1294
 4182SOL    HW316501   5.177   2.113   0.600  0.8578  0.4734  0.0478
 4182SOL    MW416502   5.120   2.131   0.663  0.1522  0.4659  0.7805
 4183SOL     OW16503   0.061   4.226   1.914 -0.0119  0.3192  0.6474
 4183SOL    HW216504   0.094   4.308   1.951  1.2242 -0.4662  1.3518
 4183SOL    HW316505  -0.029   4.219   1.946  0.7086  0.1325  2.7791
 4183SOL    MW416506   0.054   4.236   1.923 -0.3505  0.1180  0.1673
 4184SOL     OW16507   4.688   5.926   2.184 -0.1767  0.0688  0.1115
 4184SOL    HW216508   4.622   5.965   2.241  0.3179 -1.4302  1.7752
 4184SOL    HW316509   4.693   5.834   2.211  0.6891 -0.4979 -1.7858
 4184SOL    MW416510   4.680   5.919   2.195  0.4779 -0.0797  0.3778
 4185SOL     OW16511   6.012   5.708   6.422 -0.0203 -0.2307  0.5076
 4185SOL    HW216512   5.991   5.706   6.329  1.4118  0.5104  0.1354
 4185SOL    HW316513   5.969   5.630   6.458 -0.9415 -0.3055 -0.6732
 4185SOL    MW416514   6.003   5.698   6.415 -0.2443  0.2978 -0.9781
 4186SOL     OW16515   4.961   0.249   4.773  0.0435  0.2939  0.1010
 4186SOL    HW216516   4.900   0.269   4.845  0.3864 -1.3767  0.9077
 4186SOL    HW316517   5.040   0.298   4.795 -0.4072  1.0955 -0.0240
 4186SOL    MW416518   4.963   0.258   4.785  0.7518  0.1297 -0.6440
 4187SOL     OW16519   1.409   1.393   0.199 -0.2436 -0.5585  0.0493
 4187SOL    HW216520   1.402   1.370   0.291  0.9380 -0.6015  0.1325
 4187SOL    HW316521   1.319   1.416   0.174 -0.5520 -0.3868  1.2416
 4187SOL    MW416522   1.396   1.393   0.208 -0.5915  0.3330 -0.3778
 4188SOL     OW16523   4.181   3.376   1.241 -0.3343  0.7007  0.7069
 4188SOL    HW216524   4.184   3.393   1.147  0.9395 -0.4729  0.4976
 4188SOL    HW316525   4.142   3.455   1.278  0.3056  1.7232 -0.6813
 4188SOL    MW416526   4.177   3.389   1.233 -0.0347  0.0655 -0.7307
 4189SOL     OW16527   2.285   5.332   2.483 -0.1539  0.0441 -0.5664
 4189SOL    HW216528   2.237   5.389   2.544  0.4599 -0.0941  0.0614
 4189SOL    HW316529   2.310   5.390   2.411  0.0613  0.4674 -0.1546
 4189SOL    MW416530   2.282   5.347   2.482  0.1623 -0.1523 -0.3765
 4190SOL     OW16531   5.265   0.337   4.648  0.0311 -0.1245  0.0860
 4190SOL    HW216532   5.267   0.262   4.707 -2.2910 -0.3612 -0.0169
 4190SOL    HW316533   5.226   0.302   4.567  0.6719  0.7837 -0.6274
 4190SOL    MW416534   5.260   0.322   4.645  0.3546  0.2794  0.1178
 4191SOL     OW16535   4.511   0.693   4.654  0.0201  0.5174 -0.1625
 4191SOL    HW216536   4.577   0.702   4.585 -0.7099  1.2074 -0.7904
 4191SOL    HW316537   4.542   0.620   4.708  1.7066  1.3313  0.0253
 4191SOL    MW416538   4.524   0.685   4.652 -0.0628  0.5307 -0.4220
 4192SOL     OW16539   3.136   4.361   0.379  0.0810  1.0883  0.0584
 4192SOL    HW216540   3.137   4.381   0.286  1.1849  2.7819  0.3818
 4192SOL    HW316541   3.076   4.287   0.388  1.2375 -0.2241 -2.1963
 4192SOL    MW416542   3.128   4.354   0.368 -0.1689  0.4227 -0.0317
 4193SOL     OW16543   2.606   3.344   1.383 -0.2305 -0.1053  0.6291
 4193SOL    HW216544   2.573   3.292   1.310 -0.7902  0.8393  0.1920
 4193SOL    HW316545   2.529   3.360   1.438 -0.5862  2.0619 -0.3656
 4193SOL    MW416546   2.591   3.340   1.380 -0.4079 -0.1374  0.4934
 4194SOL     OW16547   5.374   4.579   4.773  0.3755 -0.6743 -0.5592
 4194SOL    HW216548   5.444   4.585   4.837  1.6725  0.9548 -2.0123
 4194SOL    HW316549   5.299   4.620   4.815  0.8960 -0.5821  0.2892
 4194SOL    MW416550   5.373   4.585   4.787 -0.2839  0.6785 -0.0516
 4195SOL     OW16551   6.307   6.106   3.033  0.1705 -0.2583  0.2603
 4195SOL    HW216552   6.326   6.101   2.940  1.9866  1.0957  0.5127
 4195SOL    HW316553   6.334   6.194   3.059 -1.3015 -0.2188  1.8619
 4195SOL    MW416554   6.313   6.117   3.024  0.0356  0.5848 -0.0586
 4196SOL     OW16555   1.367   2.662   4.980 -0.2418  0.0715  0.0327
 4196SOL    HW216556   1.451   2.618   4.963  0.2025 -0.7032  3.4713
 4196SOL    HW316557   1.303   2.613   4.929  1.2734  0.4729 -2.4138
 4196SOL    MW416558   1.370   2.650   4.971 -0.0742  0.6592 -0.6804
 4197SOL     OW16559   0.458   6.053   2.217 -0.3259  0.3498  0.1404
 4197SOL    HW216560   0.423   6.062   2.128  0.8306  0.0825 -0.3716
 4197SOL    HW316561   0.518   6.127   2.226  0.3426 -0.2003  0.2972
 4197SOL    MW416562   0.461   6.064   2.206  0.7868 -0.2474 -0.2955
 4198SOL     OW16563   0.475   4.011   4.145  0.1492 -0.2619 -0.1761
 4198SOL    HW216564   0.388   4.049   4.158  0.0084 -0.6540  0.0481
 4198SOL    HW316565   0.534   4.070   4.190 -0.0668 -0.3018  0.1609
 4198SOL    MW416566   0.471   4.024   4.152 -0.1844 -0.3526 -1.0688
 4199SOL     OW16567   0.893   4.438   0.016 -0.7185 -0.2104  0.2182
 4199SOL    HW216568   0.865   4.525  -0.014 -0.2934  0.0174  0.4609
 4199SOL    HW316569   0.880   4.440   0.111 -1.1962 -0.6001  0.1634
 4199SOL    MW416570   0.888   4.450   0.025  0.1044 -0.0298 -0.2327
 4200SOL     OW16571   2.573   4.938   1.830 -0.1017 -0.0812 -0.4438
 4200SOL    HW216572   2.572   4.944   1.735 -0.7019  0.9396 -0.3859
 4200SOL    HW316573   2.534   4.853   1.849 -0.2276 -0.1749 -1.1013
 4200SOL    MW416574   2.567   4.928   1.820 -0.6356  0.3802 -0.3315
 4201SOL     OW16575   4.718   1.377   1.519 -0.6152 -0.1638  0.3649
 4201SOL    HW216576   4.800   1.347   1.479  0.1649  0.4487  1.4408
 4201SOL    HW316577   4.690   1.303   1.574 -0.8879 -0.4412 -0.1417
 4201SOL    MW416578   4.725   1.363   1.521 -0.8086 -0.2165 -0.6090
 4202SOL     OW16579   0.579   2.258   3.138 -0.2215  0.5727 -0.2013
 4202SOL    HW216580   0.621   2.253   3.051  2.0947  0.5819  0.8304
 4202SOL    HW316581   0.495   2.299   3.122 -0.3223 -0.4021 -2.6022
 4202SOL    MW416582   0.574   2.263   3.124 -0.0209 -0.1702 -0.1662
 4203SOL     OW16583   1.035   5.697   4.564  0.1279  0.2659 -0.2671
 4203SOL    HW216584   1.029   5.674   4.657 -0.1463 -2.0024 -0.7962
 4203SOL    HW316585   0.972   5.769   4.553  0.5092  0.8903  1.3592
 4203SOL    MW416586   1.026   5.704   4.575 -0.1816 -0.0736  0.0165
 4204SOL     OW16587   6.404   0.547   0.617 -0.5401 -0.5885  0.0573
 4204SOL    HW216588   6.405   0.517   0.707  0.5850 -0.6771  0.0366
 4204SOL    HW316589   6.419   0.468   0.565 -0.8004 -0.4806 -0.1859
 4204SOL    MW416590   6.407   0.532   0.622 -0.7430  0.0809 -0.2898
 4205SOL     OW16591   1.777   0.669   1.766 -0.1750 -0.1358  0.2943
 4205SOL    HW216592   1.722   0.625   1.702  1.0588 -0.0455 -0.8699
 4205SOL    HW316593   1.717   0.726   1.814 -1.1288 -0.2184 -0.7663
 4205SOL    MW416594   1.762   0.671   1.764  0.3738 -0.1256 -0.3124
 4206SOL     OW16595   2.509   6.257   1.684 -0.0411  0.1134  0.4901
 4206SOL    HW216596   2.552   6.242   1.769  0.0811 -1.4518  0.1761
 4206SOL    HW316597   2.451   6.181   1.673  1.0246 -0.4630 -1.4750
 4206SOL    MW416598   2.507   6.245   1.694 -0.1854 -0.0100 -0.6076
 4207SOL     OW16599   4.247   4.817   5.613  0.8282 -0.0916  0.2457
 4207SOL    HW216600   4.296   4.851   5.688 -0.4939  0.5748  0.8286
 4207SOL    HW316601   4.315   4.802   5.546  1.8566  0.6336  1.0833
 4207SOL    MW416602   4.263   4.820   5.614  0.2125 -0.0149 -0.1874
 4208SOL     OW16603   6.136   5.584   0.968 -0.1239 -0.0757 -0.1601
 4208SOL    HW216604   6.219   5.631   0.972 -0.3277  0.1844  1.2153
 4208SOL    HW316605   6.148   5.509   1.026 -0.8032 -0.1205 -0.0665
 4208SOL    MW416606   6.148   5.580   0.976  0.3110  0.2649 -0.3302
 4209SOL     OW16607   3.492   1.014   0.412  0.4861 -0.2207  0.0359
 4209SOL    HW216608   3.515   0.948   0.347  0.7463 -0.8839  0.7728
 4209SOL    HW316609   3.564   1.077   0.410  0.3071 -0.0318 -0.5715
 4209SOL    MW416610   3.505   1.013   0.403 -0.5185 -0.5884  0.3133
 4210SOL     OW16611   3.424   2.562   1.108  0.3456  0.2580  0.0388
 4210SOL    HW216612   3.353   2.557   1.173  0.2037  0.2449 -0.1161
 4210SOL    HW316613   3.502   2.537   1.156  0.0249 -1.1205 -0.1272
 4210SOL    MW416614   3.425   2.558   1.123  0.7671 -0.1536  0.1825
 4211SOL     OW16615   3.684   5.502   1.130 -0.2462  0.0477 -0.5165
 4211SOL    HW216616   3.676   5.536   1.220 -0.3413 -1.8276  0.2207
 4211SOL    HW316617   3.596   5.508   1.094 -0.0946  1.3680 -0.7302
 4211SOL    MW416618   3.671   5.507   1.137 -0.0687 -0.5240  0.0243
 4212SOL     OW16619   0.914   1.978   3.391  0.6913 -0.1445 -0.2756
 4212SOL    HW216620   0.940   2.058   3.436 -0.4249 -0.4690  0.9852
 4212SOL    HW316621   0.928   1.908   3.455 -1.2039 -0.5825 -0.2935
 4212SOL    MW416622   0.919   1.979   3.405 -0.1329  0.1365 -0.0316
 4213SOL     OW16623   5.295   5.877   2.895  0.7899  0.6761  0.2691
 4213SOL    HW216624   5.381   5.882   2.938  0.3935  0.2705  1.1465
 4213SOL    HW316625   5.277   5.783   2.889  1.1583  0.6806 -1.5075
 4213SOL    MW416626   5.304   5.865   2.900  0.2879  0.4521  0.2142
 4214SOL     OW16627   2.695   3.106   5.566  0.0061 -0.5401 -0.0364
 4214SOL    HW216628   2.674   3.099   5.473  1.2210 -0.8791 -0.3047
 4214SOL    HW316629   2.682   3.198   5.587  0.9768 -0.1890 -0.8825
 4214SOL    MW416630   2.691   3.117   5.556  0.2437 -0.7634 -0.7010
 4215SOL     OW16631   4.212   3.888   1.143 -0.2805 -0.0995  0.2174
 4215SOL    HW216632   4.181   3.915   1.230 -1.6366 -0.4633 -0.1207
 4215SOL    HW316633   4.131   3.874   1.093  0.4756 -0.4479 -0.9331
 4215SOL    MW416634   4.197   3.890   1.148 -0.1946  0.0720 -0.1345
 4216SOL     OW16635   6.262   3.685   1.611  0.0157 -0.0804  0.0426
 4216SOL    HW216636   6.227   3.745   1.677  0.1627 -0.3839  0.3993
 4216SOL    HW316637   6.350   3.663   1.642  0.0721 -0.2536 -0.2344
 4216SOL    MW416638   6.269   3.690   1.623 -0.1891 -0.0854 -0.5183
 4217SOL     OW16639   0.138   5.963   4.260  0.8183 -0.1446  0.3756
 4217SOL    HW216640   0.094   5.912   4.328  0.7548 -0.5124  0.0630
 4217SOL    HW316641   0.110   5.922   4.178  1.8875 -0.4927  0.1727
 4217SOL    MW416642   0.128   5.951   4.258 -0.0670  0.3747  0.1519
 4218SOL     OW16643   6.327   1.415   4.176 -0.5282  0.9569  0.1721
 4218SOL    HW216644   6.377   1.483   4.222 -1.0960  0.4883  1.5461
 4218SOL    HW316645   6.394   1.364   4.131  0.0143  1.7351  0.0637
 4218SOL    MW416646   6.342   1.417   4.176 -0.5401 -0.2751 -0.4634
 4219SOL     OW16647   5.044   2.757   3.535 -0.2432  0.4676 -0.2541
 4219SOL    HW216648   5.018   2.669   3.509  1.0951  0.7788 -3.0279
 4219SOL    HW316649   4.980   2.814   3.493  0.3507  0.8905 -0.6075
 4219SOL    MW416650   5.032   2.753   3.526 -0.2766  0.4481 -0.4002
 4220SOL     OW16651   2.742   5.793   5.248 -0.1805  0.0470 -0.0355
 4220SOL    HW216652   2.765   5.773   5.157  0.0953  0.6623 -0.0988
 4220SOL    HW316653   2.761   5.886   5.258  1.6342 -0.4172  1.2181
 4220SOL    MW416654   2.747   5.802   5.237  0.1727 -0.2110  0.5970
 4221SOL     OW16655   1.344   4.098   1.944  0.5363 -0.0059  0.1867
 4221SOL    HW216656   1.277   4.037   1.972  1.0074 -0.1046  1.1505
 4221SOL    HW316657   1.415   4.043   1.910 -0.0883  0.1168 -1.4045
 4221SOL    MW416658   1.345   4.083   1.943 -0.1316  0.5745 -0.1846
 4222SOL     OW16659   0.354   1.415   0.751 -0.4911  0.1710  0.4097
 4222SOL    HW216660   0.336   1.368   0.832  1.1946 -1.6380 -0.1858
 4222SOL    HW316661   0.277   1.398   0.696 -1.1363  0.4599  1.2091
 4222SOL    MW416662   0.342   1.406   0.755  0.8342  0.1747  0.2381
 4223SOL     OW16663   4.185   0.745   3.091 -0.5447 -0.3924  0.2790
 4223SOL    HW216664   4.275   0.779   3.091 -1.1020  1.2256  1.5157
 4223SOL    HW316665   4.188   0.668   3.147  0.0052 -0.1456  0.5947
 4223SOL    MW416666   4.198   0.740   3.098  0.1496 -0.1748  0.9347
 4224SOL     OW16667   2.249   2.839   4.573  0.4054  0.1499  0.8364
 4224SOL    HW216668   2.213   2.921   4.607  1.6578  0.7161  0.8357
 4224SOL    HW316669   2.268   2.857   4.481  0.2855 -0.2814  0.7252
 4224SOL    MW416670   2.247   2.852   4.565  0.1565 -0.0419  0.3838
 4225SOL     OW16671   2.724   0.569   5.057 -0.8942  0.0096  0.2234
 4225SOL    HW216672   2.758   0.603   4.974 -0.8920 -0.2276  0.1259
 4225SOL    HW316673   2.775   0.489   5.072  1.1964  1.5654  1.9250
 4225SOL    MW416674   2.735   0.563   5.048  0.3681 -0.6241 -0.4956
 4226SOL     OW16675   5.237   3.454   2.256 -0.4941  0.0592  0.2180
 4226SOL    HW216676   5.216   3.382   2.196 -1.6439  0.0756  0.5758
 4226SOL    HW316677   5.322   3.485   2.227  0.6079 -2.2043  0.7816
 4226SOL    MW416678   5.245   3.448   2.244  0.2606 -0.4416 -0.4795
 4227SOL     OW16679   5.571   1.487   2.907  0.1462  0.2979 -0.0460
 4227SOL    HW216680   5.513   1.547   2.954 -0.2862  0.9444 -1.3440
 4227SOL    HW316681   5.560   1.403   2.952  0.1556  0.9959  1.3139
 4227SOL    MW416682   5.562   1.484   2.919 -1.0413  0.0677  0.4082
 4228SOL     OW16683   3.562   0.524   2.042  0.7688  0.1606  0.1633
 4228SOL    HW216684   3.511   0.591   2.087  0.2885 -0.5710  0.7257
 4228SOL    HW316685   3.613   0.481   2.112 -2.1895 -3.0035  0.6420
 4228SOL    MW416686   3.562   0.527   2.057  0.0211 -0.3457  0.4269
 4229SOL     OW16687   6.064   0.770   3.838  0.0030 -0.0503  0.2277
 4229SOL    HW216688   6.157   0.781   3.821  0.0863 -0.8594  0.1327
 4229SOL    HW316689   6.046   0.828   3.913  0.6387 -0.0991  0.4201
 4229SOL    MW416690   6.074   0.779   3.846  0.2402 -0.1871  0.4774
 4230SOL     OW16691   5.698   2.765   3.353 -0.4860  0.3430  0.0241
 4230SOL    HW216692   5.762   2.789   3.287 -0.5042  1.2152  0.3091
 4230SOL    HW316693   5.749   2.729   3.425 -0.4633 -0.5733 -0.4388
 4230SOL    MW416694   5.713   2.763   3.354  0.3022  0.2753  0.2675
 4231SOL     OW16695   5.365   6.028   1.694 -0.2030  0.4611  0.2081
 4231SOL    HW216696   5.431   6.021   1.625  0.0646  2.0359  0.2684
 4231SOL    HW316697   5.370   5.945   1.741 -0.2704 -0.5849 -1.5416
 4231SOL    MW416698   5.374   6.016   1.691 -1.0197 -0.2814  0.0942
 4232SOL     OW16699   0.689   0.031   4.405 -0.5646 -0.0144 -0.2362
 4232SOL    HW216700   0.647  -0.011   4.331 -0.0499  0.8011 -1.0196
 4232SOL    HW316701   0.780   0.044   4.377 -0.2997  0.0885  0.6263
 4232SOL    MW416702   0.696   0.027   4.392  0.8001  0.1469  0.2780
 4233SOL     OW16703   1.950   4.222   2.978  0.3724  0.2495 -0.3755
 4233SOL    HW216704   1.986   4.213   3.066  0.4052  2.2131 -0.1599
 4233SOL    HW316705   1.959   4.134   2.940  2.3599 -0.1321  0.8063
 4233SOL    MW416706   1.956   4.209   2.985  0.9233 -0.5006 -0.7727
 4234SOL     OW16707   6.015   3.809   5.180  0.2142  0.1814 -0.2249
 4234SOL    HW216708   6.051   3.722   5.195 -2.4314 -0.6310  2.2310
 4234SOL    HW316709   5.947   3.796   5.113  0.9428  0.7378 -1.1024
 4234SOL    MW416710   6.011   3.796   5.173  0.0639 -0.1034  0.6503
 4235SOL     OW16711   1.875   6.277   5.025 -0.6542 -0.2438 -0.4907
 4235SOL    HW216712   1.911   6.344   4.967 -0.9178  0.3242 -0.0043
 4235SOL    HW316713   1.868   6.320   5.111 -1.1186 -0.7941 -0.2442
 4235SOL    MW416714   1.879   6.291   5.029  0.0013  0.0521 -0.3117
 4236SOL     OW16715   0.458   3.704   4.432  0.2839  0.1630  0.3921
 4236SOL    HW216716   0.500   3.760   4.498 -0.7399  1.6938 -0.1921
 4236SOL    HW316717   0.382   3.754   4.404 -1.3134 -2.0192  0.6013
 4236SOL    MW416718   0.454   3.718   4.437 -0.6270  0.0509  0.2742
 4237SOL     OW16719   0.958   3.304   4.360 -0.1100 -0.5610  0.1743
 4237SOL    HW216720   1.014   3.259   4.297 -0.1059  1.4353 -1.3335
 4237SOL    HW316721   0.875   3.255   4.358  0.0763 -0.8527 -0.9776
 4237SOL    MW416722   0.954   3.292   4.351 -0.4151  0.2324 -0.0115
 4238SOL     OW16723   2.855   1.264   1.462  0.2816  0.5932 -0.3809
 4238SOL    HW216724   2.901   1.207   1.524  0.3620  1.3403  0.2618
 4238SOL    HW316725   2.804   1.204   1.408  0.2951 -0.0890  0.3377
 4238SOL    MW416726   2.855   1.249   1.463 -0.6254 -0.2140  0.3990
 4239SOL     OW16727   0.391   6.378   6.302 -0.1184  0.5797 -0.0091
 4239SOL    HW216728   0.417   6.470   6.293 -0.3894  0.9102  2.0159
 4239SOL    HW316729   0.461   6.339   6.356 -0.5215 -0.1451  0.0008
 4239SOL    MW416730   0.404   6.385   6.308  0.0223  0.1629  0.4097
 4240SOL     OW16731   0.836   5.229   0.361  0.0695 -0.0566 -0.6948
 4240SOL    HW216732   0.847   5.317   0.324 -0.9512  0.2504 -0.3231
 4240SOL    HW316733   0.878   5.171   0.297  2.8969  0.8517  0.1964
 4240SOL    MW416734   0.843   5.233   0.347  0.3458  0.0255  1.2577
 4241SOL     OW16735   1.764   4.172   6.078 -0.2057 -0.6482 -0.1898
 4241SOL    HW216736   1.718   4.089   6.066 -2.7972  0.2978  1.9940
 4241SOL    HW316737   1.854   4.147   6.099 -0.5703 -2.8127 -0.9523
 4241SOL    MW416738   1.770   4.158   6.080  0.1076  0.1128 -0.4884
 4242SOL     OW16739   4.358   4.899   4.796 -0.3889 -0.7459  0.0590
 4242SOL    HW216740   4.278   4.878   4.748 -0.6545 -1.0293  0.6180
 4242SOL    HW316741   4.337   4.882   4.887 -0.2481  0.8861  0.4268
 4242SOL    MW416742   4.345   4.894   4.802  0.6555 -0.1500 -0.7014
 4243SOL     OW16743   4.228   2.662   4.879 -0.1492 -0.5180 -0.0148
 4243SOL    HW216744   4.287   2.593   4.909 -1.7078 -1.8330  0.1777
 4243SOL    HW316745   4.285   2.726   4.836  1.2196 -2.5957 -1.4451
 4243SOL    MW416746   4.243   2.662   4.878 -0.1582 -0.3448  0.7416
 4244SOL     OW16747   4.377   6.160   5.174  0.3255 -0.2017  0.6654
 4244SOL    HW216748   4.324   6.172   5.253 -0.4127 -0.7279  0.2647
 4244SOL    HW316749   4.328   6.097   5.122  0.7488  0.2240 -0.2717
 4244SOL    MW416750   4.364   6.153   5.178 -0.5180 -0.2535  0.1069
 4245SOL     OW16751   5.477   5.383   6.321 -0.3994  0.4717 -0.3336
 4245SOL    HW216752   5.460   5.430   6.239 -1.1454  0.5028 -0.1625
 4245SOL    HW316753   5.539   5.438   6.368  1.2127 -0.2465 -1.5114
 4245SOL    MW416754   5.483   5.397   6.316 -0.1706 -0.1934  0.6677
 4246SOL     OW16755   5.142   1.388   2.554  0.6478 -0.4107  0.2297
 4246SOL    HW216756   5.102   1.454   2.610  2.4871  0.1996  0.9270
 4246SOL    HW316757   5.114   1.304   2.591 -0.9882 -0.0315 -0.1154
 4246SOL    MW416758   5.133   1.385   2.566 -0.6087 -0.4932  0.3122
 4247SOL     OW16759   6.236   1.754   4.312  0.4550  0.3339  0.2586
 4247SOL    HW216760   6.150   1.797   4.307 -0.1663 -0.7358  1.1528
 4247SOL    HW316761   6.216   1.666   4.345  1.7151 -0.5400 -1.2126
 4247SOL    MW416762   6.222   1.748   4.316  0.3481  0.7147  0.5302
 4248SOL     OW16763   6.006   1.468   2.378 -0.2325  0.1996  0.2729
 4248SOL    HW216764   5.940   1.472   2.309  1.2389  0.8262 -1.1633
 4248SOL    HW316765   6.089   1.464   2.331  0.9290  2.3267  2.0038
 4248SOL    MW416766   6.008   1.468   2.362  0.0208  0.2807  0.2054
 4249SOL     OW16767   2.335   3.891   4.786 -0.0161  0.4895  0.8789
 4249SOL    HW216768   2.401   3.908   4.720 -0.3406 -1.3587  0.0077
 4249SOL    HW316769   2.275   3.965   4.781  0.0186  0.4272 -0.8483
 4249SOL    MW416770   2.336   3.903   4.777  0.1893 -0.1229  0.2585
 4250SOL     OW16771   3.106   6.027   1.800  0.2324  0.0387  0.3107
 4250SOL    HW216772   3.127   6.101   1.743 -1.7338 -0.4956 -1.2320
 4250SOL    HW316773   3.144   5.951   1.757 -2.1119 -0.5128 -0.9523
 4250SOL    MW416774   3.113   6.027   1.787  0.0383  0.2124  0.4154
 4251SOL     OW16775   6.026   2.600   3.098  0.3951 -0.5930  0.7395
 4251SOL    HW216776   6.109   2.566   3.066 -0.5191 -1.1473 -1.2421
 4251SOL    HW316777   5.991   2.530   3.153  0.5984 -0.9733  0.3907
 4251SOL    MW416778   6.032   2.586   3.101 -0.2753  0.3313  0.4323
 4252SOL     OW16779   0.608   0.978   5.133 -0.0960 -0.3211 -0.1769
 4252SOL    HW216780   0.666   0.902   5.126 -1.8390 -1.6156 -1.3836
 4252SOL    HW316781   0.521   0.941   5.142 -0.8304  1.5686  1.1895
 4252SOL    MW416782   0.604   0.963   5.133  0.2900 -0.6099 -0.8160
 4253SOL     OW16783   1.385   3.644   1.888 -0.0240  0.6880 -0.6004
 4253SOL    HW216784   1.380   3.553   1.916  0.6403  1.0236  0.7009
 4253SOL    HW316785   1.349   3.644   1.800  0.2032 -0.8778 -0.7235
 4253SOL    MW416786   1.380   3.632   1.880  0.4539 -0.2966 -0.2594
 4254SOL     OW16787   2.426   1.700   5.491 -0.6708  0.0635 -0.2116
 4254SOL    HW216788   2.455   1.758   5.562  1.2609 -1.6119  0.4378
 4254SOL    HW316789   2.347   1.743   5.457 -1.0273  1.5305  2.1809
 4254SOL    MW416790   2.419   1.714   5.496 -0.0691  0.3699  0.3761
 4255SOL     OW16791   5.946   4.287   4.500 -0.3173  0.3615 -0.7453
 4255SOL    HW216792   5.918   4.349   4.432  0.9548  0.2415 -1.4198
 4255SOL    HW316793   5.883   4.215   4.494 -0.0549  0.2138 -2.0291
 4255SOL    MW416794   5.934   4.286   4.490 -0.7127  0.4608 -0.3911
 4256SOL     OW16795   4.721   0.470   5.607  0.5142  0.2929 -0.1924
 4256SOL    HW216796   4.802   0.490   5.653 -0.5317 -0.8104  2.3261
 4256SOL    HW316797   4.673   0.554   5.605  0.5814  0.3616  0.7745
 4256SOL    MW416798   4.725   0.484   5.612  0.1295  0.1968  0.1681
 4257SOL     OW16799   0.358   3.915   6.256  0.5408  0.4698  0.3708
 4257SOL    HW216800   0.264   3.895   6.262  0.6877 -0.3351  0.0651
 4257SOL    HW316801   0.398   3.834   6.225  1.1481  1.2826 -1.0462
 4257SOL    MW416802   0.351   3.901   6.253  0.3057 -1.1364  0.4302
 4258SOL     OW16803   3.434   0.654   4.507 -0.0175  0.7052  0.6763
 4258SOL    HW216804   3.525   0.624   4.505  0.6303  2.2702  2.7518
 4258SOL    HW316805   3.413   0.659   4.601 -2.5643 -0.4054  0.2560
 4258SOL    MW416806   3.444   0.651   4.519 -0.3537  0.5412  0.3384
 4259SOL     OW16807   3.372   5.869   2.268 -0.8171 -0.8196 -0.4065
 4259SOL    HW216808   3.303   5.829   2.321  0.5143 -1.7554  0.7289
 4259SOL    HW316809   3.383   5.810   2.194 -1.7634 -0.2360 -1.0246
 4259SOL    MW416810   3.364   5.856   2.265  0.2607 -0.0307  0.4373
 4260SOL     OW16811   5.506   6.198   6.304  0.0831 -0.0615 -0.1059
 4260SOL    HW216812   5.564   6.127   6.331  0.6791  0.2397 -0.5667
 4260SOL    HW316813   5.479   6.175   6.215 -0.0277  0.0997 -0.1140
 4260SOL    MW416814   5.510   6.186   6.296 -0.2949 -0.2300 -0.2346
 4261SOL     OW16815   0.403   0.205   4.151  0.4031  0.6124  0.3742
 4261SOL    HW216816   0.404   0.270   4.222 -1.8026  1.3297 -0.1824
 4261SOL    HW316817   0.434   0.253   4.074 -0.6399  0.8537  0.0959
 4261SOL    MW416818   0.407   0.220   4.150 -0.2298 -0.6139 -0.3333
 4262SOL     OW16819   1.401   1.941   5.604 -0.3503  0.4080  0.4529
 4262SOL    HW216820   1.328   1.932   5.665  0.6961 -2.9698  1.4020
 4262SOL    HW316821   1.399   1.862   5.551  1.9442  0.7398 -0.2605
 4262SOL    MW416822   1.391   1.930   5.605 -0.2882 -0.0356  0.8351
 4263SOL     OW16823   1.272   4.711   4.563 -0.1853 -0.0724  0.2186
 4263SOL    HW216824   1.200   4.682   4.508  1.1215 -0.1911 -1.5106
 4263SOL    HW316825   1.294   4.798   4.530  1.5629 -0.7312 -0.4432
 4263SOL    MW416826   1.266   4.719   4.552 -0.0676  0.0707 -0.2079
 4264SOL     OW16827   0.199   3.015   1.976 -0.0817  0.5858  0.0019
 4264SOL    HW216828   0.130   2.980   2.032  1.1306 -1.5317  0.3247
 4264SOL    HW316829   0.185   3.109   1.974 -1.3523  0.4965  2.2421
 4264SOL    MW416830   0.188   3.022   1.983 -0.3296  0.0277 -0.1822
 4265SOL     OW16831   4.944   3.799   3.635  0.4064 -0.0503 -0.1265
 4265SOL    HW216832   4.935   3.859   3.561  0.4892  0.7537  0.5018
 4265SOL    HW316833   4.945   3.712   3.595 -4.5389 -0.0910 -0.8094
 4265SOL    MW416834   4.943   3.795   3.620  0.2308 -0.2698 -0.5053
 4266SOL     OW16835   4.991   5.647   4.648  0.3870 -0.0422 -0.5628
 4266SOL    HW216836   5.083   5.671   4.663  0.1200  0.0889  0.9021
 4266SOL    HW316837   4.978   5.568   4.700 -0.1840 -0.4317 -1.2691
 4266SOL    MW416838   5.002   5.640   4.657 -0.1314  0.0297 -0.0308
 4267SOL     OW16839   5.655   1.177   5.796  0.0925  0.3533  0.8451
 4267SOL    HW216840   5.635   1.226   5.876  0.9936  0.3878  1.0665
 4267SOL    HW316841   5.751   1.172   5.795  0.1155  0.6556 -0.4160
 4267SOL    MW416842   5.665   1.183   5.807 -0.5830  0.6393  1.1594
 4268SOL     OW16843   5.892   2.836   3.113 -0.9383 -0.3968 -0.4754
 4268SOL    HW216844   5.970   2.881   3.081 -1.1097 -0.3976 -0.8983
 4268SOL    HW316845   5.916   2.743   3.113 -0.9204 -0.3918 -0.5496
 4268SOL    MW416846   5.905   2.830   3.109 -0.0443  0.1160  0.7919
 4269SOL     OW16847   4.388   0.073   3.077  0.1042 -0.1526 -0.1516
 4269SOL    HW216848   4.330   0.146   3.053  2.0109  1.7793  0.7533
 4269SOL    HW316849   4.450   0.068   3.005  0.7800  0.0135  0.4160
 4269SOL    MW416850   4.388   0.082   3.064  0.1180  0.3576  0.0415
 4270SOL     OW16851   5.148   2.020   3.951 -0.0851 -0.1108  0.2368
 4270SOL    HW216852   5.232   2.065   3.958  1.0581 -2.1873  0.8005
 4270SOL    HW316853   5.164   1.949   3.888 -1.2908 -0.7939  0.6655
 4270SOL    MW416854   5.161   2.017   3.943  0.6049 -0.1268 -0.3429
 4271SOL     OW16855   2.200   3.278   5.609  0.2788  0.1428 -0.6191
 4271SOL    HW216856   2.141   3.210   5.642 -0.0625 -0.2397 -1.9958
 4271SOL    HW316857   2.284   3.234   5.601  0.5680  0.4534  0.4750
 4271SOL    MW416858   2.203   3.263   5.613  0.0983  0.5349  0.3548
 4272SOL     OW16859   1.436   4.907   0.227 -0.2641  0.1108  0.3981
 4272SOL    HW216860   1.442   4.911   0.132 -0.2281 -0.3496  0.3785
 4272SOL    HW316861   1.353   4.862   0.245 -0.0794 -0.1716  0.5727
 4272SOL    MW416862   1.426   4.901   0.217 -0.7376 -0.3713 -0.2490
 4273SOL     OW16863   2.991   2.984   1.670 -0.3249 -0.1381 -0.2669
 4273SOL    HW216864   2.928   2.912   1.674 -2.3878  1.4933 -1.3598
 4273SOL    HW316865   2.980   3.020   1.582  2.0605  0.3397 -0.4335
 4273SOL    MW416866   2.981   2.979   1.659 -0.3999  0.0322 -0.4863
 4274SOL     OW16867   3.923   1.704   2.993  0.5479  0.2100  0.1979
 4274SOL    HW216868   3.855   1.637   2.985  0.1097  0.6738 -0.0479
 4274SOL    HW316869   3.913   1.738   3.082  1.8932 -1.2167  0.9442
 4274SOL    MW416870   3.913   1.700   3.004 -0.2462 -0.3829 -0.4955
 4275SOL     OW16871   4.316   0.680   2.785  0.0650  0.2345  0.2634
 4275SOL    HW216872   4.309   0.696   2.691  1.1805 -1.2292 -0.1087
 4275SOL    HW316873   4.355   0.761   2.820  2.9343 -0.4150 -1.1031
 4275SOL    MW416874   4.321   0.693   2.777  0.0467  0.0015  0.4514
 4276SOL     OW16875   5.182   6.003   3.181 -0.1022  0.5131  0.2139
 4276SOL    HW216876   5.163   5.979   3.091  0.3999  0.7165  0.0509
 4276SOL    HW316877   5.217   6.092   3.176  0.6989  0.2205  0.5158
 4276SOL    MW416878   5.184   6.011   3.169  0.0689  0.5796 -0.8004
 4277SOL     OW16879   3.683   3.761   4.956  0.5873  0.5992 -0.1581
 4277SOL    HW216880   3.619   3.789   5.022  1.0830  1.8254 -0.1812
 4277SOL    HW316881   3.702   3.669   4.979 -1.0138  0.2722 -0.0386
 4277SOL    MW416882   3.677   3.752   4.968 -0.3564  0.1970 -0.1466
 4278SOL     OW16883   0.594   4.011   2.392  0.1521 -0.5556 -0.3299
 4278SOL    HW216884   0.666   3.980   2.447  0.9438  0.6143 -0.6698
 4278SOL    HW316885   0.610   3.970   2.307 -1.1709 -2.5067  0.2990
 4278SOL    MW416886   0.606   4.002   2.388 -0.2845  0.5352 -0.2363
 4279SOL     OW16887   3.995   5.514   4.039  0.1059 -0.4252 -0.5020
 4279SOL    HW216888   4.051   5.437   4.023  1.2996  0.1470  0.6457
 4279SOL    HW316889   4.026   5.580   3.977  1.0434  0.0338  0.4238
 4279SOL    MW416890   4.007   5.512   4.029 -0.1556  0.3353 -0.1743
 4280SOL     OW16891   5.634   0.286   3.484  0.4136  0.1855  0.2405
 4280SOL    HW216892   5.656   0.352   3.418 -0.8097  0.8206  0.4356
 4280SOL    HW316893   5.639   0.333   3.567 -0.1549 -0.0466  0.4112
 4280SOL    MW416894   5.638   0.301   3.487 -0.7044 -0.1531 -0.1527
 4281SOL     OW16895   4.891   2.858   6.253  0.3758 -0.3196  0.1225
 4281SOL    HW216896   4.818   2.800   6.234  0.1987  0.0299 -0.3003
 4281SOL    HW316897   4.963   2.800   6.278 -0.1602 -0.6419  0.9438
 4281SOL    MW416898   4.891   2.843   6.254  0.2545  0.7098 -0.3432
 4282SOL     OW16899   3.386   1.772   1.307  0.4737  0.0472  0.0917
 4282SOL    HW216900   3.350   1.770   1.219  2.6802 -0.5394 -0.8815
 4282SOL    HW316901   3.357   1.855   1.343  0.0740  0.6177 -1.4579
 4282SOL    MW416902   3.378   1.782   1.300  0.3907  0.2840  0.3642
 4283SOL     OW16903   4.131   0.529   0.356 -0.5314 -0.2361 -0.6823
 4283SOL    HW216904   4.063   0.463   0.353 -0.3230 -0.5309  0.6122
 4283SOL    HW316905   4.212   0.482   0.337 -0.5654 -0.0653 -1.2654
 4283SOL    MW416906   4.133   0.514   0.353 -0.4526 -0.5375  0.1617
 4284SOL     OW16907   2.040   5.732   3.312 -0.0901 -0.6656  0.2400
 4284SOL    HW216908   2.012   5.813   3.354 -0.2936 -1.1412  1.0325
 4284SOL    HW316909   1.984   5.665   3.350  0.0466 -1.1749 -0.4475
 4284SOL    MW416910   2.029   5.734   3.322 -0.0090  0.4047  0.0307
 4285SOL     OW16911   2.003   5.426   5.053  0.1658 -0.1780  0.0717
 4285SOL    HW216912   1.921   5.378   5.059  0.5424 -0.8431  0.0412
 4285SOL    HW316913   2.032   5.414   4.962  0.0760  0.4408 -0.0484
 4285SOL    MW416914   1.996   5.418   5.042  0.6767 -0.2094  0.6037
 4286SOL     OW16915   3.902   5.800   2.984 -0.1052  0.0632 -0.7791
 4286SOL    HW216916   3.840   5.856   3.030  0.7723  0.3369  0.1062
 4286SOL    HW316917   3.988   5.835   3.007  0.5745 -2.5481  1.1377
 4286SOL    MW416918   3.905   5.812   2.993  0.4292  0.1486 -0.0765
 4287SOL     OW16919   6.074   4.020   5.693 -0.1445 -0.1394 -0.3961
 4287SOL    HW216920   6.016   4.089   5.661 -0.6902  0.2559  1.3098
 4287SOL    HW316921   6.024   3.976   5.762  0.8545 -1.0872 -0.2305
 4287SOL    MW416922   6.060   4.023   5.698 -0.3357  0.0995 -0.6522
 4288SOL     OW16923   5.704   5.170   4.617 -0.1529  0.1612  0.2166
 4288SOL    HW216924   5.613   5.187   4.592 -0.0697  0.0282 -0.1890
 4288SOL    HW316925   5.712   5.075   4.618  0.5630  0.1303 -2.0149
 4288SOL    MW416926   5.693   5.160   4.614 -0.1695 -0.2101 -0.1983
 4289SOL     OW16927   6.134   6.129   5.360  0.0224  0.0975  0.5474
 4289SOL    HW216928   6.064   6.110   5.422 -0.8693  0.0901 -0.4304
 4289SOL    HW316929   6.113   6.077   5.283 -0.0482  1.6461 -0.5372
 4289SOL    MW416930   6.122   6.120   5.358  0.2489 -0.4274 -0.2713
 4290SOL     OW16931   4.882   2.960   0.867  0.1645  0.0842 -0.7540
 4290SOL    HW216932   4.789   2.952   0.890 -0.0294  2.6173 -0.3127
 4290SOL    HW316933   4.891   3.050   0.837  2.4350 -0.2077 -1.1373
 4290SOL    MW416934   4.871   2.971   0.866 -0.1918 -0.6524  0.4502
 4291SOL     OW16935   4.360   1.482   6.135  0.0437  0.1119 -0.1072
 4291SOL    HW216936   4.406   1.502   6.053 -1.1610 -0.1903 -0.8787
 4291SOL    HW316937   4.272   1.518   6.123 -0.4480 -0.7719  0.6646
 4291SOL    MW416938   4.354   1.489   6.122 -0.2139  0.1329  0.2960
 4292SOL     OW16939   0.434   1.674   0.478  0.2847  0.1834  0.4073
 4292SOL    HW216940   0.500   1.627   0.529 -0.2853 -0.9279  0.1523
 4292SOL    HW316941   0.459   1.660   0.387 -0.5010 -0.5580  0.2971
 4292SOL    MW416942   0.446   1.666   0.473 -0.1378 -0.0859 -0.1002
 4293SOL     OW16943   2.523   6.386   1.420 -0.3061 -0.3676  0.1218
 4293SOL    HW216944   2.502   6.477   1.442  2.0255  0.4268 -0.5827
 4293SOL    HW316945   2.494   6.335   1.495 -3.4806  0.6515 -0.2829
 4293SOL    MW416946   2.517   6.391   1.432  0.2458  0.1490  0.5097
 4294SOL     OW16947   4.134   3.939   5.821 -0.6566 -0.0258  0.4897
 4294SOL    HW216948   4.061   3.952   5.761 -0.3987  0.7590  0.3362
 4294SOL    HW316949   4.196   3.885   5.772 -0.5505  0.4171  0.1320
 4294SOL    MW416950   4.133   3.934   5.807  0.1553 -0.2489  0.0343
 4295SOL     OW16951   1.087   2.883   2.656  0.3517  0.5501  0.0595
 4295SOL    HW216952   1.036   2.914   2.731  0.2239  2.3027 -0.6953
 4295SOL    HW316953   1.165   2.842   2.694  0.5708  1.9282  1.1743
 4295SOL    MW416954   1.091   2.882   2.671  0.0718  0.1262  0.0877
 4296SOL     OW16955   2.722   5.823   3.763  0.0870  0.9905 -0.2533
 4296SOL    HW216956   2.636   5.801   3.798  1.2379 -2.0557  0.9756
 4296SOL    HW316957   2.746   5.903   3.811 -0.7272  0.0311  1.9231
 4296SOL    MW416958   2.714   5.831   3.774 -0.3532 -0.1321  0.4654
 4297SOL     OW16959   1.914   0.066   3.479 -0.1820 -0.2019  0.0261
 4297SOL    HW216960   1.902   0.082   3.386 -3.2162 -1.0238  0.1748
 4297SOL    HW316961   2.004   0.095   3.497 -0.2250  2.0595 -2.6798
 4297SOL    MW416962   1.924   0.072   3.469 -0.7787 -0.1327  0.4187
 4298SOL     OW16963   0.059   5.574   5.660  0.3960 -0.5424  0.1233
 4298SOL    HW216964   0.145   5.564   5.620  0.4233  0.0252  0.0322
 4298SOL    HW316965   0.062   5.517   5.737  0.2155 -1.9301 -0.8519
 4298SOL    MW416966   0.071   5.565   5.665 -0.3591  0.6858  0.1133
 4299SOL     OW16967   5.643   4.522   0.820 -0.2741  0.1663 -0.4813
 4299SOL    HW216968   5.722   4.517   0.874  0.6903  2.2118 -1.5942
 4299SOL    HW316969   5.644   4.441   0.769  0.3015 -0.5062  0.5713
 4299SOL    MW416970   5.653   4.511   0.820  0.2234  0.4925  0.0827
 4300SOL     OW16971   5.016   5.296   5.667 -0.8304  0.2779 -0.5742
 4300SOL    HW216972   4.983   5.366   5.611 -1.2431 -1.5199 -2.7478
 4300SOL    HW316973   4.937   5.249   5.696 -0.4887 -0.9373 -1.5040
 4300SOL    MW416974   5.001   5.299   5.664  0.5263  0.2406 -0.0249
 4301SOL     OW16975   0.423   5.301   2.203  0.1680 -0.0166 -0.0250
 4301SOL    HW216976   0.429   5.393   2.229 -0.9312 -0.3783  1.6934
 4301SOL    HW316977   0.407   5.303   2.109  0.3212  1.5287 -0.0382
 4301SOL    MW416978   0.422   5.313   2.194 -0.1375  0.1239  0.0906
 4302SOL     OW16979   4.843   5.365   2.916 -0.5885 -0.1560 -0.1140
 4302SOL    HW216980   4.910   5.428   2.939  0.6844 -1.0600 -1.1969
 4302SOL    HW316981   4.811   5.332   3.000  2.1510 -1.5527  0.5112
 4302SOL    MW416982   4.847   5.369   2.930 -0.3070  0.1019 -0.2345
 4303SOL     OW16983   1.573   2.280   1.103 -0.1896  0.0828  0.2726
 4303SOL    HW216984   1.487   2.244   1.125 -0.6512  0.9447 -0.0631
 4303SOL    HW316985   1.601   2.230   1.026 -1.4245  1.2803 -1.0093
 4303SOL    MW416986   1.565   2.268   1.096  0.3153  0.4043  0.4822
 4304SOL     OW16987   5.491   1.867   3.685  0.0166 -0.0909 -1.1124
 4304SOL    HW216988   5.551   1.846   3.613 -0.1015 -0.9711 -0.9620
 4304SOL    HW316989   5.492   1.962   3.689  0.6950 -0.0591 -1.7171
 4304SOL    MW416990   5.499   1.877   3.676  0.3706 -0.3504  0.2419
 4305SOL     OW16991   0.015   3.152   2.296 -0.3694 -0.0740  0.2029
 4305SOL    HW216992  -0.046   3.187   2.362  0.9009 -0.1728  1.4745
 4305SOL    HW316993   0.060   3.229   2.262 -2.2803  0.1953 -1.9507
 4305SOL    MW416994   0.013   3.167   2.300 -0.5184  0.0303 -0.1076
 4306SOL     OW16995   4.609   5.053   3.390  0.3298 -0.1548  0.1504
 4306SOL    HW216996   4.615   5.014   3.478  1.3042 -0.7956 -0.1853
 4306SOL    HW316997   4.606   5.147   3.406 -0.6047 -0.2872  0.9126
 4306SOL    MW416998   4.609   5.060   3.404  0.0492 -0.3311  0.1107
 4307SOL     OW16999   2.797   4.692   1.103 -0.5534 -0.2406 -0.6201
 4307SOL    HW217000   2.745   4.658   1.030  0.7210 -1.7536 -0.8708
 4307SOL    HW317001   2.736   4.693   1.177 -1.0430 -1.6476 -0.9738
 4307SOL    MW417002   2.782   4.688   1.103  0.1361  0.4518  0.1856
 4308SOL     OW17003   0.979   5.189   1.140 -0.0651  0.4355  0.0451
 4308SOL    HW217004   0.938   5.254   1.083  0.5150  0.8666  0.1090
 4308SOL    HW317005   1.056   5.234   1.176  1.9170 -1.1288 -1.9841
 4308SOL    MW417006   0.984   5.204   1.138  0.1461 -0.4274  0.3838
 4309SOL     OW17007   6.239   3.935   4.244  0.1510 -0.2022  0.0129
 4309SOL    HW217008   6.157   3.918   4.291 -0.1600 -0.1769 -0.5112
 4309SOL    HW317009   6.244   4.030   4.240  0.3777 -0.1999  0.3375
 4309SOL    MW417010   6.229   3.945   4.250 -0.2302  0.2400 -0.4818
 4310SOL     OW17011   3.117   0.104   4.917 -0.6603 -0.3657 -0.7432
 4310SOL    HW217012   3.175   0.033   4.889 -1.1700 -1.0149 -0.1944
 4310SOL    HW317013   3.029   0.072   4.897 -0.9260 -0.1055 -0.0189
 4310SOL    MW417014   3.113   0.090   4.911 -0.2258  0.5500  0.1314
 4311SOL     OW17015   3.270   5.485   3.700  0.0579 -0.0857  0.1439
 4311SOL    HW217016   3.359   5.458   3.678  0.8614  0.3641  2.6009
 4311SOL    HW317017   3.260   5.570   3.658 -0.1060 -1.1206 -2.0645
 4311SOL    MW417018   3.280   5.493   3.691  0.1718 -0.0445 -0.1711
 4312SOL     OW17019   3.312   5.549   2.512 -0.2083  0.1040  0.4010
 4312SOL    HW217020   3.319   5.460   2.546 -0.9465 -0.3160 -0.5129
 4312SOL    HW317021   3.383   5.555   2.447  0.6386  0.6154  1.3393
 4312SOL    MW417022   3.322   5.538   2.508 -0.3567  0.0354 -0.1331
 4313SOL     OW17023   2.084   1.144   3.496  0.0192 -0.4469 -0.1510
 4313SOL    HW217024   2.138   1.122   3.420 -2.0527 -1.0241 -1.5634
 4313SOL    HW317025   2.038   1.224   3.470 -3.0705 -2.3018 -0.9416
 4313SOL    MW417026   2.085   1.151   3.482 -0.1925 -0.4709 -0.6769
 4314SOL     OW17027   5.927   5.883   5.772  0.1538 -0.0324 -0.1141
 4314SOL    HW217028   5.938   5.951   5.706 -2.0648  0.4368 -0.0637
 4314SOL    HW317029   5.891   5.929   5.848 -0.0242 -1.0389  0.4308
 4314SOL    MW417030   5.924   5.898   5.774 -0.1178  0.2142 -0.1116
 4315SOL     OW17031   3.855   3.343   2.165  0.4159 -0.0654 -0.3572
 4315SOL    HW217032   3.917   3.412   2.190 -0.1604 -0.2700  1.7720
 4315SOL    HW317033   3.770   3.386   2.164  0.2744 -0.3412 -0.9161
 4315SOL    MW417034   3.852   3.358   2.168  0.4579  0.4934  0.2566
 4316SOL     OW17035   0.860   2.447   2.040 -0.2548  0.6514 -0.2966
 4316SOL    HW217036   0.920   2.508   2.081  0.6775 -0.0805 -0.5243
 4316SOL    HW317037   0.808   2.412   2.113 -1.1603  2.0632 -0.2295
 4316SOL    MW417038   0.861   2.450   2.055 -0.4412  0.1974 -0.2536
 4317SOL     OW17039   2.935   0.049   4.074 -0.4901  0.1347  0.1239
 4317SOL    HW217040   2.949  -0.007   4.150 -0.9869 -1.1893 -0.7262
 4317SOL    HW317041   2.856   0.014   4.032  0.7040 -0.2518 -1.9247
 4317SOL    MW417042   2.926   0.037   4.078  0.4573 -0.4397 -0.2363
 4318SOL     OW17043   4.142   2.905   4.031  0.8547 -0.4543  0.2710
 4318SOL    HW217044   4.108   2.904   3.942  1.0654 -2.4964  0.1465
 4318SOL    HW317045   4.146   2.812   4.055  2.4706 -0.0499  1.7493
 4318SOL    MW417046   4.138   2.892   4.022  0.1011 -0.5464  0.4191
 4319SOL     OW17047   0.679   5.035   1.873  0.0056 -0.9126 -0.3831
 4319SOL    HW217048   0.637   5.042   1.958  0.4855  0.1598 -0.2227
 4319SOL    HW317049   0.733   4.956   1.880 -1.4092 -1.9144 -0.3638
 4319SOL    MW417050   0.680   5.025   1.885 -0.1100 -0.1181  0.6059
 4320SOL     OW17051   2.637   5.664   3.522 -0.3776  0.5030  0.7224
 4320SOL    HW217052   2.686   5.694   3.599  0.8168  1.7609 -0.4710
 4320SOL    HW317053   2.696   5.681   3.449 -1.6711 -0.2496 -0.5244
 4320SOL    MW417054   2.651   5.670   3.523 -0.3659 -0.5926  0.0398
 4321SOL     OW17055   4.171   3.181   0.175  0.1061 -0.2980  0.8110
 4321SOL    HW217056   4.223   3.259   0.198  0.0097 -0.5607  1.9651
 4321SOL    HW317057   4.236   3.111   0.167  0.0664 -0.3553  0.9869
 4321SOL    MW417058   4.187   3.182   0.177  0.0482  0.5249  0.1489
 4322SOL     OW17059   4.754   2.448   0.211  0.3300  0.1549  1.0681
 4322SOL    HW217060   4.748   2.525   0.155 -0.6907 -0.7180 -0.0404
 4322SOL    HW317061   4.718   2.376   0.159  1.1774 -1.0709  2.1109
 4322SOL    MW417062   4.749   2.449   0.197 -0.4219 -0.4043 -0.1266
 4323SOL     OW17063   2.130   0.278   3.967 -0.2403  0.1073  0.5597
 4323SOL    HW217064   2.216   0.315   3.946 -0.1018 -0.4096  0.1935
 4323SOL    HW317065   2.142   0.237   4.053 -0.2343  0.3892  0.6947
 4323SOL    MW417066   2.143   0.277   3.975 -0.2812 -0.0974 -0.1786
 4324SOL     OW17067   4.406   0.035   1.168  0.1233 -0.4980  0.5039
 4324SOL    HW217068   4.354  -0.037   1.131 -0.8041  0.5834 -0.4113
 4324SOL    HW317069   4.407   0.019   1.262 -0.6688 -1.3185  0.3840
 4324SOL    MW417070   4.399   0.024   1.175  0.4020 -0.1666 -0.3026
 4325SOL     OW17071   1.471   3.073   5.959 -0.3050 -0.3856  0.1395
 4325SOL    HW217072   1.552   3.074   5.907  0.3321 -1.5210  1.0447
 4325SOL    HW317073   1.450   2.980   5.969 -1.9278 -0.1000 -0.3471
 4325SOL    MW417074   1.479   3.061   5.954 -0.2620 -0.5241 -0.2755
 4326SOL     OW17075   5.026   4.114   6.306  0.1384 -0.4450 -0.3455
 4326SOL    HW217076   5.018   4.032   6.259  2.8701 -0.7572 -0.4506
 4326SOL    HW317077   4.994   4.096   6.394 -0.2990 -1.2936 -0.6763
 4326SOL    MW417078   5.021   4.101   6.311  0.5155 -0.3619 -0.5911
 4327SOL     OW17079   0.829   0.333   5.450 -0.0422 -0.0314  0.3006
 4327SOL    HW217080   0.755   0.366   5.398  0.8432  1.3604 -0.1173
 4327SOL    HW317081   0.905   0.379   5.416  0.6471  0.5885  2.5034
 4327SOL    MW417082   0.829   0.344   5.438 -0.5094  0.1955 -0.4676
 4328SOL     OW17083   5.111   0.876   2.934 -0.7269 -0.1612  0.3288
 4328SOL    HW217084   5.140   0.954   2.982 -0.8675  1.5539 -2.1596
 4328SOL    HW317085   5.192   0.828   2.914 -0.5067  0.0144  0.7961
 4328SOL    MW417086   5.126   0.880   2.938 -0.3020 -0.1966 -0.0672
 4329SOL     OW17087   3.992   4.486   1.739 -0.4539 -0.2521  0.2919
 4329SOL    HW217088   4.047   4.512   1.812  0.2501  0.7166 -0.5533
 4329SOL    HW317089   4.053   4.472   1.667 -1.1323 -1.1815 -0.1269
 4329SOL    MW417090   4.007   4.487   1.739  0.0050 -0.0738  0.1718
 4330SOL     OW17091   4.334   4.134   1.334 -0.0494  0.7056  0.2011
 4330SOL    HW217092   4.385   4.192   1.278 -1.0175  1.3488 -0.0549
 4330SOL    HW317093   4.340   4.173   1.422 -1.6740  1.9475 -0.1760
 4330SOL    MW417094   4.341   4.147   1.339 -0.0995 -0.4504 -0.1045
 4331SOL     OW17095   4.222   3.541   6.332 -0.1264 -0.1980  0.3048
 4331SOL    HW217096   4.266   3.613   6.286  1.1176 -0.1930  1.4221
 4331SOL    HW317097   4.154   3.511   6.271 -1.2903  2.4772  0.1426
 4331SOL    MW417098   4.219   3.547   6.318  0.1379 -0.0665  0.0879
 4332SOL     OW17099   5.019   5.328   3.405  0.4224 -0.1360  0.1774
 4332SOL    HW217100   5.104   5.282   3.404 -0.3531 -1.7430 -2.0607
 4332SOL    HW317101   4.968   5.283   3.338 -1.6890  1.8055  0.3801
 4332SOL    MW417102   5.024   5.316   3.396 -0.9295  0.1953 -0.0510
 4333SOL     OW17103   6.048   5.932   4.859  0.3498 -0.2174  0.3612
 4333SOL    HW217104   6.128   5.973   4.891 -0.6651 -0.1466  3.0181
 4333SOL    HW317105   5.989   6.006   4.842  0.4253 -0.3347 -0.4725
 4333SOL    MW417106   6.051   5.947   4.861  0.1742 -0.9333 -0.0321
 4334SOL     OW17107   3.720   1.910   6.057  0.0412 -0.3155 -0.4050
 4334SOL    HW217108   3.696   2.001   6.042  1.0252 -0.1843 -1.3088
 4334SOL    HW317109   3.729   1.872   5.970  1.1936 -0.8438 -0.0815
 4334SOL    MW417110   3.718   1.917   6.044 -0.0029 -0.0843 -0.1599
 4335SOL     OW17111   3.152   0.506   3.458  0.4234  0.8055  0.3807
 4335SOL    HW217112   3.234   0.554   3.447 -0.6064  2.5429 -0.2828
 4335SOL    HW317113   3.089   0.573   3.486 -0.7408 -0.5019  1.0245
 4335SOL    MW417114   3.155   0.521   3.460  0.6107  0.6675  0.2724
 4336SOL     OW17115   3.064   5.959   3.791 -0.2696  0.3454 -0.1880
 4336SOL    HW217116   3.034   5.994   3.707  0.8088 -0.1493 -0.8002
 4336SOL    HW317117   3.104   6.033   3.836  0.2191  0.3493 -0.6265
 4336SOL    MW417118   3.066   5.973   3.786 -0.1887 -0.0578 -0.5667
 4337SOL     OW17119   5.176   5.184   1.386 -0.2182  0.1893 -0.4572
 4337SOL    HW217120   5.200   5.157   1.298 -0.9285  2.7452 -1.5332
 4337SOL    HW317121   5.164   5.279   1.380  1.7291  0.8095  2.8825
 4337SOL    MW417122   5.178   5.193   1.374 -0.4352 -0.0892  0.1614
 4338SOL     OW17123   1.916   2.410   3.826  0.3146 -0.1053  0.5525
 4338SOL    HW217124   1.924   2.317   3.850  0.7405 -0.5732 -1.2448
 4338SOL    HW317125   2.006   2.442   3.823  0.3221 -0.2065 -0.8509
 4338SOL    MW417126   1.929   2.402   3.829 -0.8316  0.2321 -0.2719
 4339SOL     OW17127   1.240   4.648   4.864 -0.4836 -0.1302  0.4155
 4339SOL    HW217128   1.331   4.628   4.887 -0.8685 -0.3670  1.8325
 4339SOL    HW317129   1.245   4.685   4.776  1.1285  1.0864  0.9762
 4339SOL    MW417130   1.253   4.650   4.856 -0.0517 -0.3325  0.2725
 4340SOL     OW17131   4.153   3.641   3.263  0.2985  0.5179  0.7150
 4340SOL    HW217132   4.219   3.706   3.288  2.7045 -1.5947  0.2742
 4340SOL    HW317133   4.189   3.557   3.293 -2.0151 -0.8214  0.0408
 4340SOL    MW417134   4.167   3.639   3.270 -0.1316  0.7395  0.2029
 4341SOL     OW17135   3.576   6.306   5.881  0.3128 -0.3352 -0.3075
 4341SOL    HW217136   3.598   6.323   5.790  1.5105 -0.2957 -0.0229
 4341SOL    HW317137   3.507   6.369   5.902  1.5498  1.1563 -0.5690
 4341SOL    MW417138   3.570   6.316   5.872 -0.1771  0.4191  0.0681
 4342SOL     OW17139   0.457   4.638   0.143 -0.2641 -0.1095  0.1341
 4342SOL    HW217140   0.498   4.723   0.159 -0.9382  0.0043  1.3185
 4342SOL    HW317141   0.475   4.621   0.050  2.2906  0.0029  0.5290
 4342SOL    MW417142   0.465   4.647   0.133  0.2363 -0.2899  0.7080
 4343SOL     OW17143   5.522   0.755   3.411 -0.3124 -0.7082 -0.0246
 4343SOL    HW217144   5.457   0.800   3.357 -0.4934  0.2282  0.9266
 4343SOL    HW317145   5.580   0.712   3.349 -0.8846 -0.1968 -0.9388
 4343SOL    MW417146   5.521   0.756   3.396 -0.7267  0.8334 -0.1769
 4344SOL     OW17147   4.051   3.895   4.844  0.4901  0.3180  0.0154
 4344SOL    HW217148   4.025   3.851   4.925 -0.2279  1.8100  0.6351
 4344SOL    HW317149   4.023   3.986   4.857  1.5050  0.8533 -1.4006
 4344SOL    MW417150   4.044   3.901   4.857  0.2586  0.1700 -0.1971
 4345SOL     OW17151   4.876   4.250   5.715 -0.0593  0.1720 -0.4349
 4345SOL    HW217152   4.942   4.313   5.687  1.1545 -0.8346  0.0899
 4345SOL    HW317153   4.849   4.280   5.802  0.8241 -0.2522 -0.0063
 4345SOL    MW417154   4.881   4.262   5.723  0.1904 -0.3004  0.0027
 4346SOL     OW17155   2.117   1.506   5.257  0.6085  0.1449  0.1919
 4346SOL    HW217156   2.155   1.459   5.183 -1.9401  1.6453 -2.2590
 4346SOL    HW317157   2.041   1.552   5.221 -1.6496 -0.0928  4.0259
 4346SOL    MW417158   2.112   1.506   5.243  0.8215  0.0735  0.1618
 4347SOL     OW17159   6.068   0.357   3.030 -0.4289  0.1754  0.2498
 4347SOL    HW217160   6.018   0.324   3.104 -0.5601  1.1360  0.6091
 4347SOL    HW317161   6.022   0.437   3.004  0.1770  0.3709 -0.2429
 4347SOL    MW417162   6.055   0.363   3.036 -0.1066  0.1406 -0.2817
 4348SOL     OW17163   3.516   5.310   1.831  0.6538  0.1634 -0.0846
 4348SOL    HW217164   3.470   5.366   1.769  1.1179  0.7055  0.0459
 4348SOL    HW317165   3.480   5.334   1.916  0.6528  0.0639 -0.0568
 4348SOL    MW417166   3.506   5.321   1.834 -0.3178 -0.1497  0.6323
 4349SOL     OW17167   5.284   4.155   1.600 -0.1595  0.0711  0.0122
 4349SOL    HW217168   5.337   4.234   1.605  1.3432 -0.9849  1.6796
 4349SOL    HW317169   5.200   4.180   1.637  0.5654  0.6868  1.2923
 4349SOL    MW417170   5.280   4.169   1.605  0.3412 -0.6015 -0.3306
 4350SOL     OW17171   0.757   6.300   6.264  0.1254 -0.1548  0.4237
 4350SOL    HW217172   0.708   6.224   6.231  0.4768  0.9190 -2.9583
 4350SOL    HW317173   0.834   6.305   6.207 -0.1987  3.0533  0.0704
 4350SOL    MW417174   0.761   6.290   6.252  0.2182 -0.4965  0.1129
 4351SOL     OW17175   5.392   2.117   1.791 -0.5135  0.3088 -0.2281
 4351SOL    HW217176   5.397   2.042   1.850 -0.6908  0.5155  0.0481
 4351SOL    HW317177   5.428   2.190   1.841  0.9981  0.1218 -0.9856
 4351SOL    MW417178   5.397   2.117   1.805 -0.3624  0.1565  0.3967
 4352SOL     OW17179   3.738   6.061   4.748 -0.5213 -0.1457 -0.1580
 4352SOL    HW217180   3.744   6.034   4.657  1.4771  0.5054 -0.2518
 4352SOL    HW317181   3.757   5.982   4.799 -1.8875 -0.5712 -0.2527
 4352SOL    MW417182   3.741   6.047   4.743  0.1800 -0.1110  0.0213
 4353SOL     OW17183   3.666   3.578   5.574 -0.0196 -0.8871  0.1146
 4353SOL    HW217184   3.743   3.565   5.629  0.3704 -1.3812 -0.5256
 4353SOL    HW317185   3.701   3.617   5.494 -0.6050 -0.0038  0.2800
 4353SOL    MW417186   3.681   3.581   5.571 -0.6503 -0.3640 -1.0256
 4354SOL     OW17187   6.180   2.723   0.971 -0.9234  0.5820  0.2499
 4354SOL    HW217188   6.219   2.810   0.966 -0.5850  0.5482  1.7559
 4354SOL    HW317189   6.247   2.665   0.934 -0.9623  0.8997 -0.3297
 4354SOL    MW417190   6.194   2.727   0.966 -0.2512 -0.2067 -0.2814
 4355SOL     OW17191   2.158   4.567   5.636  0.3190 -0.2338 -0.1633
 4355SOL    HW217192   2.248   4.535   5.629  0.7792  0.7662  0.9000
 4355SOL    HW317193   2.164   4.662   5.627 -0.5415 -0.0868  0.6206
 4355SOL    MW417194   2.170   4.575   5.634 -0.3550 -0.5752  0.3768
 4356SOL     OW17195   4.598   0.722   3.559 -0.3565 -0.7700  0.2687
 4356SOL    HW217196   4.644   0.805   3.548  1.5682 -1.8785 -0.5428
 4356SOL    HW317197   4.526   0.726   3.496 -1.0894  0.7874  1.1632
 4356SOL    MW417198   4.595   0.733   3.549 -0.4472 -0.3906  0.3275
 4357SOL     OW17199   3.315   1.822   0.101  0.2873  0.5420 -0.4404
 4357SOL    HW217200   3.363   1.818   0.184  1.9946  0.5976 -1.3741
 4357SOL    HW317201   3.318   1.732   0.068 -0.4995  0.4928 -0.3889
 4357SOL    MW417202   3.322   1.810   0.108  0.1293  0.8445 -0.1959
 4358SOL     OW17203   0.581   0.612   4.216  0.7994 -0.3540 -0.6483
 4358SOL    HW217204   0.647   0.680   4.205 -0.5592  0.8751 -1.5602
 4358SOL    HW317205   0.559   0.585   4.127 -0.6580  0.0259 -0.4404
 4358SOL    MW417206   0.587   0.618   4.203 -0.0150  0.3780 -0.8722
 4359SOL     OW17207   4.409   1.001   3.977  0.5909  0.3167  0.5660
 4359SOL    HW217208   4.403   0.953   3.894 -0.5399 -1.3832  1.5820
 4359SOL    HW317209   4.467   1.075   3.957  1.6999 -0.9636 -1.3026
 4359SOL    MW417210   4.416   1.005   3.963  0.4849 -0.4304  0.0192
 4360SOL     OW17211   1.446   4.882   1.853 -0.1133 -0.1525  0.5450
 4360SOL    HW217212   1.475   4.794   1.875 -0.0974  0.0470  1.3745
 4360SOL    HW317213   1.422   4.921   1.937  0.4781  0.8487  0.2732
 4360SOL    MW417214   1.446   4.876   1.867  0.0018  0.0356 -0.2712
 4361SOL     OW17215   3.546   3.509   2.497 -0.1337 -0.1970  0.1165
 4361SOL    HW217216   3.577   3.459   2.572 -0.5380 -1.3734 -0.4867
 4361SOL    HW317217   3.486   3.450   2.452 -0.0386  0.5639 -1.0393
 4361SOL    MW417218   3.542   3.495   2.501 -0.6168 -0.0791 -0.1840
 4362SOL     OW17219   3.715   4.935   1.752  0.0426  0.4488 -0.4895
 4362SOL    HW217220   3.761   4.908   1.832 -0.5783  0.2847 -0.1826
 4362SOL    HW317221   3.747   4.874   1.685  0.2917  0.3508 -0.2858
 4362SOL    MW417222   3.725   4.923   1.754  0.0549 -0.0438  0.0575
 4363SOL     OW17223   3.985   3.345   6.113  0.4865  0.3020  0.1303
 4363SOL    HW217224   3.907   3.400   6.111 -0.7277 -1.3561 -0.9300
 4363SOL    HW317225   3.996   3.320   6.205 -0.2410  0.5590  0.2851
 4363SOL    MW417226   3.976   3.349   6.125  0.3482  0.3137 -0.0775
 4364SOL     OW17227   1.479   3.888   1.348  0.3977 -0.3966 -0.0874
 4364SOL    HW217228   1.401   3.890   1.293  2.8516 -1.0668 -3.9415
 4364SOL    HW317229   1.526   3.969   1.326 -0.3402  1.6120  4.4255
 4364SOL    MW417230   1.475   3.899   1.338  0.7657  0.1040  0.0291
 4365SOL     OW17231   4.759   4.365   2.930 -0.5160  0.0705  0.0024
 4365SOL    HW217232   4.693   4.382   2.863 -0.3113 -0.9417 -0.4803
 4365SOL    HW317233   4.835   4.334   2.880 -0.3186 -0.5754  0.6901
 4365SOL    MW417234   4.761   4.363   2.914 -0.1284  0.0825  0.9181
 4366SOL     OW17235   5.048   4.215   5.323  0.0213  0.0625  0.1699
 4366SOL    HW217236   5.047   4.257   5.409  0.6589 -0.2413  0.3326
 4366SOL    HW317237   4.959   4.227   5.290 -0.6365 -1.0036  1.4477
 4366SOL    MW417238   5.036   4.222   5.330 -0.1034  0.8728  0.1117
 4367SOL     OW17239   4.832   4.655   2.970 -0.1457  0.9003  0.5868
 4367SOL    HW217240   4.793   4.570   2.991  1.0134  0.5790  1.5751
 4367SOL    HW317241   4.898   4.668   3.038  0.1018  2.3247  0.1001
 4367SOL    MW417242   4.835   4.645   2.982 -0.5816  0.7209  0.0131
 4368SOL     OW17243   6.167   6.187   1.476  0.1812  0.7838 -0.5040
 4368SOL    HW217244   6.228   6.227   1.537  0.3285  0.4575 -0.4370
 4368SOL    HW317245   6.213   6.188   1.392 -0.3065  1.9079 -0.7760
 4368SOL    MW417246   6.181   6.193   1.473  0.1982  0.4208  0.1445
 4369SOL     OW17247   4.375   5.366   1.414 -0.0149  0.1709 -0.0158
 4369SOL    HW217248   4.413   5.425   1.349  1.1287 -0.2855  0.2022
 4369SOL    HW317249   4.298   5.329   1.372 -0.3986  1.3421 -0.3785
 4369SOL    MW417250   4.370   5.369   1.400  0.4033 -0.0263 -0.4343
 4370SOL     OW17251   3.603   2.644   5.245  0.1020  0.3909  0.4172
 4370SOL    HW217252   3.540   2.586   5.201  0.1797 -0.1954  1.0630
 4370SOL    HW317253   3.685   2.596   5.243  0.3076  0.7390  0.4312
 4370SOL    MW417254   3.605   2.630   5.239 -0.1233 -0.8099  0.1745
 4371SOL     OW17255   2.137   5.795   0.528  0.1688 -0.5339 -0.4405
 4371SOL    HW217256   2.101   5.883   0.527  0.9098 -0.1960  0.8618
 4371SOL    HW317257   2.145   5.772   0.620 -0.3649 -2.1248 -0.7611
 4371SOL    MW417258   2.134   5.804   0.540 -0.6045 -0.3000 -0.5338
 4372SOL     OW17259   4.869   0.717   4.177  0.2150 -0.1992  0.0596
 4372SOL    HW217260   4.793   0.674   4.217 -0.9723  1.2538 -0.5371
 4372SOL    HW317261   4.886   0.666   4.098  0.3585 -0.9710  0.5652
 4372SOL    MW417262   4.861   0.704   4.172 -0.3363 -0.0160 -0.8384
 4373SOL     OW17263   2.765   6.224   0.355  0.1244  0.2145  0.2827
 4373SOL    HW217264   2.738   6.240   0.265 -0.0273 -0.5809  0.1791
 4373SOL    HW317265   2.695   6.263   0.408  0.1305  0.5372  0.0532
 4373SOL    MW417266   2.752   6.231   0.350  0.0409 -0.6643  0.1761
 4374SOL     OW17267   2.290   0.519   1.398 -0.3142  0.0314 -0.3405
 4374SOL    HW217268   2.219   0.583   1.390 -1.4257 -1.1543 -0.2841
 4374SOL    HW317269   2.357   0.551   1.338 -1.0825  0.9425 -0.7449
 4374SOL    MW417270   2.290   0.532   1.389 -0.1462 -0.1578  0.2371
 4375SOL     OW17271   0.564   1.803   0.806 -0.0403 -0.0464 -0.5512
 4375SOL    HW217272   0.621   1.880   0.799 -0.4910  0.1717 -2.3243
 4375SOL    HW317273   0.476   1.836   0.791 -0.3461 -0.7578 -0.3842
 4375SOL    MW417274   0.560   1.817   0.803  0.4535 -0.3818 -0.4422
 4376SOL     OW17275   3.260   3.938   3.444 -0.4238 -0.1024  0.1046
 4376SOL    HW217276   3.213   3.911   3.523 -0.0204 -0.3738  0.2560
 4376SOL    HW317277   3.210   3.901   3.372 -1.0201  0.4848  0.2082
 4376SOL    MW417278   3.248   3.929   3.445 -0.1268 -0.5638  0.4069
 4377SOL     OW17279   3.507   0.080   2.182 -0.0652 -0.2668 -0.2493
 4377SOL    HW217280   3.441   0.049   2.120 -1.5506 -0.9204  1.5849
 4377SOL    HW317281   3.539   0.001   2.225  1.0649  0.1610 -0.2644
 4377SOL    MW417282   3.503   0.065   2.179 -0.1650 -0.5368  0.0677
 4378SOL     OW17283   5.870   4.497   0.997 -0.1001  0.5895 -0.1058
 4378SOL    HW217284   5.833   4.409   0.998  2.4854 -0.6177 -0.6709
 4378SOL    HW317285   5.933   4.496   0.925 -1.4294  3.6091 -1.4972
 4378SOL    MW417286   5.874   4.485   0.988  0.3295 -0.1202 -0.0807
 4379SOL     OW17287   5.055   2.390   1.032  0.0502 -0.4672 -0.4459
 4379SOL    HW217288   5.069   2.484   1.045 -1.8736 -0.4092  2.1923
 4379SOL    HW317289   5.139   2.350   1.055  0.5264  0.5523 -0.3382
 4379SOL    MW417290   5.068   2.397   1.037  0.0126 -0.2383  0.5417
 4380SOL     OW17291   2.089   4.853   4.820 -0.2259  0.0259  0.1614
 4380SOL    HW217292   2.045   4.890   4.743 -0.2099  1.6751  0.8958
 4380SOL    HW317293   2.180   4.842   4.792 -0.0401  1.3914  0.1679
 4380SOL    MW417294   2.095   4.856   4.806 -0.7623  0.2742 -0.1059
 4381SOL     OW17295   5.551   4.304   1.917 -0.4013  0.2057 -0.2383
 4381SOL    HW217296   5.544   4.214   1.948  0.9852 -0.1990 -1.0168
 4381SOL    HW317297   5.597   4.350   1.987  0.1680 -0.0415 -0.4398
 4381SOL    MW417298   5.556   4.298   1.930 -0.0223  0.0495  0.0356
 4382SOL     OW17299   2.914   2.065   4.188 -0.0862 -0.7171 -0.7063
 4382SOL    HW217300   2.852   2.127   4.225  0.6247 -0.3012 -0.1697
 4382SOL    HW317301   2.861   2.004   4.136 -0.8705 -0.1000 -0.6332
 4382SOL    MW417302   2.899   2.065   4.186 -0.0511  0.2822  0.1727
 4383SOL     OW17303   5.513   0.196   5.483 -0.3892 -0.0631  0.0890
 4383SOL    HW217304   5.553   0.121   5.526  0.3078 -0.0263 -0.4808
 4383SOL    HW317305   5.473   0.247   5.554  3.0334  1.4702  1.1373
 4383SOL    MW417306   5.513   0.193   5.498  0.1661 -0.6497 -0.3328
 4384SOL     OW17307   0.047   4.264   5.317 -0.4006 -0.6526  0.1118
 4384SOL    HW217308   0.072   4.187   5.265  0.2286 -0.0808 -0.4575
 4384SOL    HW317309  -0.047   4.276   5.298 -0.7579 -1.8653  1.0031
 4384SOL    MW417310   0.038   4.255   5.308  0.8511  0.2546 -0.5332
 4385SOL     OW17311   3.215   1.588   1.411  0.1664 -0.6538 -0.0119
 4385SOL    HW217312   3.231   1.506   1.364 -1.0180  0.3150 -2.2836
 4385SOL    HW317313   3.285   1.646   1.382  0.3587 -0.5182  0.7171
 4385SOL    MW417314   3.226   1.585   1.401 -0.1123 -0.2045  0.0793
 4386SOL     OW17315   1.397   1.830   0.133  0.4452  0.3493 -0.1350
 4386SOL    HW217316   1.460   1.862   0.068 -0.2535  1.1385 -0.4494
 4386SOL    HW317317   1.449   1.778   0.193  1.0584 -0.7549 -1.5620
 4386SOL    MW417318   1.412   1.828   0.132 -0.0614  0.6996  0.0599
 4387SOL     OW17319   1.995   5.050   5.917  0.3442 -0.6805  0.5092
 4387SOL    HW217320   2.064   5.049   5.982 -0.0963 -2.2036  1.0034
 4387SOL    HW317321   2.005   4.966   5.870 -0.4992 -0.4474 -0.1187
 4387SOL    MW417322   2.005   5.038   5.919  0.8563  1.1234 -0.0687
 4388SOL     OW17323   4.892   2.551   2.161 -0.5867 -0.1697 -0.0002
 4388SOL    HW217324   4.939   2.517   2.237 -2.5149 -0.7812  0.9905
 4388SOL    HW317325   4.914   2.490   2.091  1.4020  0.5300 -0.0624
 4388SOL    MW417326   4.901   2.539   2.162  0.5704 -0.4751  0.5825
 4389SOL     OW17327   3.518   4.069   1.536  0.5311 -0.1388  0.2651
 4389SOL    HW217328   3.526   3.974   1.538 -0.5989 -0.2397  1.2860
 4389SOL    HW317329   3.521   4.096   1.628  0.8941  0.8229 -0.0089
 4389SOL    MW417330   3.520   4.060   1.548 -0.6632 -0.0291 -0.3900
 4390SOL     OW17331   0.668   1.025   3.349  0.0964  0.0368  0.1644
 4390SOL    HW217332   0.683   1.117   3.367 -0.1253  0.5378 -2.0064
 4390SOL    HW317333   0.591   1.003   3.402 -0.8498  1.5527 -0.5039
 4390SOL    MW417334   0.660   1.034   3.359 -0.2560  0.9617  0.1038
 4391SOL     OW17335   3.006   2.572   0.880  0.0892  0.2352  0.3509
 4391SOL    HW217336   3.057   2.648   0.909 -0.3884  0.5908  0.2821
 4391SOL    HW317337   3.007   2.512   0.954  0.8804  0.0938  0.2282
 4391SOL    MW417338   3.013   2.574   0.893  0.6339  0.6189 -0.0168
 4392SOL     OW17339   3.369   1.384   3.168  0.1817  0.2810  0.3779
 4392SOL    HW217340   3.311   1.329   3.222  1.6488 -0.1286  1.6251
 4392SOL    HW317341   3.318   1.403   3.090 -0.3637 -3.1004 -0.2670
 4392SOL    MW417342   3.354   1.379   3.165 -0.1591 -0.5520  0.0061
 4393SOL     OW17343   6.208   3.877   4.572 -0.2280  0.3044  0.3400
 4393SOL    HW217344   6.255   3.823   4.508 -0.4708  1.2529 -0.6713
 4393SOL    HW317345   6.117   3.848   4.564 -0.1995  0.1648  0.5259
 4393SOL    MW417346   6.202   3.866   4.562 -0.3638  0.0975  0.1791
 4394SOL     OW17347   5.202   2.212   5.825  0.3682  0.1834 -0.3951
 4394SOL    HW217348   5.228   2.120   5.832  0.1516  0.1400 -0.1250
 4394SOL    HW317349   5.278   2.261   5.856  0.5267  0.1007 -0.6484
 4394SOL    MW417350   5.215   2.206   5.830 -0.4102 -0.1175 -0.2581
 4395SOL     OW17351   2.219   2.374   4.174  0.3136  0.3224  0.2532
 4395SOL    HW217352   2.258   2.419   4.249 -0.4724  0.5036  0.5576
 4395SOL    HW317353   2.199   2.444   4.112  1.6416  0.1065 -0.4638
 4395SOL    MW417354   2.222   2.389   4.175  0.6876  0.2968  0.0612
 4396SOL     OW17355   3.610   1.424   0.924 -0.2199  0.6808 -0.3504
 4396SOL    HW217356   3.634   1.350   0.980  0.2913  1.0579 -0.0588
 4396SOL    HW317357   3.611   1.388   0.835  0.3989  0.4223 -0.2455
 4396SOL    MW417358   3.613   1.410   0.920 -0.7077  0.1891 -0.0796
 4397SOL     OW17359   4.494   0.756   1.669 -0.4990 -0.2050 -0.2565
 4397SOL    HW217360   4.411   0.803   1.681 -0.5195  0.2124 -1.8571
 4397SOL    HW317361   4.475   0.689   1.604 -0.1096 -1.5928  0.9957
 4397SOL    MW417362   4.481   0.753   1.662 -0.4540  0.1819 -0.1253
 4398SOL     OW17363   4.023   0.641   2.884  0.0947  0.2798 -0.6394
 4398SOL    HW217364   4.083   0.692   2.937  1.5837 -0.5812 -1.4360
 4398SOL    HW317365   4.069   0.627   2.801 -0.4275 -1.9639 -0.6153
 4398SOL    MW417366   4.037   0.646   2.880 -0.1186  0.0666 -0.1495
 4399SOL     OW17367   2.819   5.595   2.105  0.6177 -0.0074  0.3557
 4399SOL    HW217368   2.818   5.519   2.163 -2.9257  0.4310  1.0887
 4399SOL    HW317369   2.875   5.658   2.150  3.4757 -1.9823 -0.1831
 4399SOL    MW417370   2.826   5.594   2.119 -0.5442  0.0131 -0.5886
 4400SOL     OW17371   1.623   5.937   4.075  0.6030 -1.2422  0.1879
 4400SOL    HW217372   1.680   5.872   4.034 -0.1605 -1.1080 -1.1418
 4400SOL    HW317373   1.538   5.924   4.033  1.1894  2.9045 -2.8516
 4400SOL    MW417374   1.620   5.926   4.064 -0.5966 -0.4329  0.1326
 4401SOL     OW17375   3.005   3.805   6.269 -0.0924 -0.6170 -0.2666
 4401SOL    HW217376   3.085   3.810   6.217 -0.6406 -1.1302 -1.1860
 4401SOL    HW317377   2.986   3.712   6.276  0.9554 -0.6987  2.4418
 4401SOL    MW417378   3.013   3.793   6.263  0.2689 -0.2987 -0.4023
 4402SOL     OW17379   5.834   0.656   1.942 -0.1397 -0.5366 -0.3900
 4402SOL    HW217380   5.877   0.691   2.020  2.1756 -0.8350 -1.4375
 4402SOL    HW317381   5.907   0.627   1.886 -1.6172  0.8510 -3.2441
 4402SOL    MW417382   5.850   0.657   1.945  0.5031 -0.3321 -0.1650
 4403SOL     OW17383   4.547   3.657   0.021 -0.6287 -0.5491  0.1728
 4403SOL    HW217384   4.574   3.593  -0.045  2.4825  0.3474  0.4045
 4403SOL    HW317385   4.555   3.610   0.104  2.8414  0.2417  0.4634
 4403SOL    MW417386   4.552   3.642   0.023  0.0843  0.0805  0.2293
 4404SOL     OW17387   2.342   6.324   4.151  0.4052  0.1729  0.1889
 4404SOL    HW217388   2.414   6.363   4.200  0.7720  0.7887 -0.8012
 4404SOL    HW317389   2.281   6.397   4.136 -0.5214 -0.3785  1.1583
 4404SOL    MW417390   2.344   6.339   4.155  0.7990  0.5363 -0.4955
 4405SOL     OW17391   1.785   3.503   0.147  0.1426  0.0580 -0.6021
 4405SOL    HW217392   1.762   3.553   0.225  1.2257 -0.9757  0.3989
 4405SOL    HW317393   1.704   3.456   0.125 -0.4695  1.1323 -0.7328
 4405SOL    MW417394   1.771   3.504   0.154 -0.8069  0.1686  0.6938
 4406SOL     OW17395   5.029   5.283   0.593 -0.1030  0.3392 -0.0686
 4406SOL    HW217396   4.988   5.314   0.512  1.6700  0.4734 -0.9602
 4406SOL    HW317397   4.983   5.330   0.662  0.6098  2.8976 -1.2182
 4406SOL    MW417398   5.017   5.294   0.592 -0.0615  0.3784  0.5677
 4407SOL     OW17399   0.611   3.014   2.501  0.3906 -0.6110 -0.1002
 4407SOL    HW217400   0.550   3.084   2.479 -0.5139 -0.2930  2.9144
 4407SOL    HW317401   0.555   2.940   2.522  1.1714 -1.1183  0.2263
 4407SOL    MW417402   0.596   3.014   2.501  0.4796 -0.5890  0.5302
 4408SOL     OW17403   6.076   5.649   1.532 -0.1832 -0.4996  0.6918
 4408SOL    HW217404   6.070   5.567   1.482  0.4340 -0.3681  0.3927
 4408SOL    HW317405   6.059   5.623   1.622 -2.3252 -0.5880  0.3179
 4408SOL    MW417406   6.073   5.635   1.537  0.3414 -0.2267 -0.4085
 4409SOL     OW17407   5.301   5.035   0.329 -0.1516  0.4716  0.4142
 4409SOL    HW217408   5.290   5.058   0.421 -1.3688  0.9422  0.1687
 4409SOL    HW317409   5.220   5.063   0.287  0.3432  0.1797 -0.7910
 4409SOL    MW417410   5.289   5.042   0.335 -0.4959  0.0003 -0.5085
 4410SOL     OW17411   5.758   2.324   5.315 -0.3522  0.0282  0.2480
 4410SOL    HW217412   5.770   2.235   5.348 -0.0727 -0.8553 -2.0296
 4410SOL    HW317413   5.663   2.333   5.305 -0.2953 -1.2290 -2.3299
 4410SOL    MW417414   5.747   2.314   5.318 -0.3816 -0.4828 -0.3210
 4411SOL     OW17415   1.049   0.893   0.783 -0.1796  0.2651 -0.0181
 4411SOL    HW217416   1.076   0.942   0.861 -0.3337 -0.6998  0.6479
 4411SOL    HW317417   1.115   0.916   0.717  0.3255  0.5808  0.5865
 4411SOL    MW417418   1.062   0.903   0.785 -0.3472  0.1698 -0.1579
 4412SOL     OW17419   4.170   5.269   2.806 -0.5261  0.4480  0.0897
 4412SOL    HW217420   4.142   5.265   2.897  0.5933 -1.7127  0.4135
 4412SOL    HW317421   4.262   5.296   2.811 -1.0333  2.5567 -0.6162
 4412SOL    MW417422   4.179   5.272   2.819 -0.0668 -0.0176 -0.0384
 4413SOL     OW17423   4.999   6.012   4.838  0.2158 -0.2576 -0.0148
 4413SOL    HW217424   5.063   5.982   4.775  0.9108 -0.8248  0.9338
 4413SOL    HW317425   4.929   6.050   4.785  0.2288 -1.7505 -1.1595
 4413SOL    MW417426   4.998   6.013   4.823 -0.0598  0.3342 -0.2090
 4414SOL     OW17427   5.444   6.067   0.869 -0.1079 -0.0127 -0.5659
 4414SOL    HW217428   5.405   6.154   0.881 -2.6477 -1.0564 -0.5128
 4414SOL    HW317429   5.471   6.041   0.957 -0.2907  0.3185 -0.4071
 4414SOL    MW417430   5.442   6.075   0.882  0.2346  0.3943  0.5920
 4415SOL     OW17431   4.287   6.341   3.282 -0.0674  0.0770  0.0575
 4415SOL    HW217432   4.249   6.259   3.252 -0.0588  0.1845 -0.2516
 4415SOL    HW317433   4.337   6.374   3.207  0.5122  0.0120  0.4084
 4415SOL    MW417434   4.289   6.335   3.268 -0.1756 -0.1747  0.2814
 4416SOL     OW17435   3.752   1.412   3.471 -0.0903  0.3244 -0.3351
 4416SOL    HW217436   3.772   1.461   3.391  1.0706 -0.0160 -0.2759
 4416SOL    HW317437   3.829   1.357   3.485 -0.1427  0.5719  1.1550
 4416SOL    MW417438   3.765   1.411   3.462  0.4179  0.6205 -0.0359
 4417SOL     OW17439   5.635   2.078   2.937 -0.0436 -0.2784 -0.3631
 4417SOL    HW217440   5.636   2.076   2.841  3.2077  1.0755 -0.4478
 4417SOL    HW317441   5.629   1.986   2.962 -0.4880 -0.6836 -1.8268
 4417SOL    MW417442   5.634   2.065   2.928  0.0755  0.4279 -0.5512
 4418SOL     OW17443   5.578   4.686   1.952  0.1015  0.1414 -0.0150
 4418SOL    HW217444   5.624   4.631   2.015  2.1255  1.5763 -0.1337
 4418SOL    HW317445   5.492   4.702   1.992  0.3223 -1.1901  1.0603
 4418SOL    MW417446   5.573   4.681   1.965 -0.8934 -0.3278  0.0505
 4419SOL     OW17447   2.432   2.413   5.118  0.4825  0.0382  0.3401
 4419SOL    HW217448   2.442   2.459   5.202 -0.0287  0.8486 -0.0312
 4419SOL    HW317449   2.337   2.407   5.105  0.5583  0.0284 -0.2368
 4419SOL    MW417450   2.421   2.419   5.127  0.4197 -0.8424 -0.2625
 4420SOL     OW17451   5.875   0.051   3.171 -0.2068 -0.5092  0.2506
 4420SOL    HW217452   5.865   0.134   3.217  0.9959 -0.8674  1.2311
 4420SOL    HW317453   5.825   0.061   3.090  0.0929  1.2363  0.2527
 4420SOL    MW417454   5.867   0.063   3.166 -0.4046 -0.3609  0.2495
 4421SOL     OW17455   0.122   3.853   2.249 -0.1659  0.3589 -0.4068
 4421SOL    HW217456   0.140   3.800   2.326  0.3177  0.4545 -0.4467
 4421SOL    HW317457   0.027   3.850   2.239 -0.3962  1.6507  1.1093
 4421SOL    MW417458   0.112   3.846   2.258  0.4707 -0.1963  0.2530
 4422SOL     OW17459   3.176   6.141   5.181  0.2237 -0.2478 -0.3880
 4422SOL    HW217460   3.261   6.120   5.144 -0.4283 -1.7821 -1.1284
 4422SOL    HW317461   3.169   6.236   5.174  1.7242 -0.1326 -0.6126
 4422SOL    MW417462   3.186   6.151   5.175  0.1967  0.1772 -0.5115
 4423SOL     OW17463   1.254   2.308   4.149  0.0972 -0.4741 -0.3773
 4423SOL    HW217464   1.269   2.265   4.233  0.8617  0.5583  0.0437
 4423SOL    HW317465   1.181   2.260   4.109 -0.2098 -1.0415  0.8323
 4423SOL    MW417466   1.246   2.296   4.155 -0.0539  0.2454  0.4907
 4424SOL     OW17467   5.340   4.533   0.570 -0.4295  0.6852 -0.0394
 4424SOL    HW217468   5.300   4.549   0.656 -0.9024  1.9753 -0.4906
 4424SOL    HW317469   5.352   4.619   0.532  1.6196  0.2757 -0.4758
 4424SOL    MW417470   5.336   4.546   0.577  0.1415 -0.0816  0.0273
 4425SOL     OW17471   4.669   2.770   1.227  0.1285  0.3573  0.3388
 4425SOL    HW217472   4.741   2.715   1.255  0.2643  0.3110 -0.0932
 4425SOL    HW317473   4.707   2.858   1.220 -0.1584  0.5669  1.3154
 4425SOL    MW417474   4.683   2.775   1.230  0.1859  0.2097 -0.3528
 4426SOL     OW17475   2.377   0.355   0.285 -0.0938  0.0360  0.2016
 4426SOL    HW217476   2.363   0.371   0.378 -0.6183  0.0585  0.1260
 4426SOL    HW317477   2.370   0.259   0.277  2.1398 -0.2018  0.5148
 4426SOL    MW417478   2.374   0.344   0.296 -0.3726 -0.1456 -0.1535
 4427SOL     OW17479   4.118   4.841   1.478 -0.2086 -0.1434 -0.0799
 4427SOL    HW217480   4.045   4.798   1.522 -0.4496 -0.4053 -0.7102
 4427SOL    HW317481   4.097   4.934   1.480 -2.1460 -0.3774 -2.8887
 4427SOL    MW417482   4.105   4.847   1.484 -0.0443 -0.1613 -0.1996
 4428SOL     OW17483   1.016   0.447   0.535 -0.7418  0.3249 -0.3832
 4428SOL    HW217484   0.948   0.510   0.558  0.2801  1.0459  0.7699
 4428SOL    HW317485   1.004   0.375   0.597 -0.4343  0.4753 -0.1459
 4428SOL    MW417486   1.005   0.446   0.546  0.1684  0.6029 -0.1405
 4429SOL     OW17487   5.247   6.202   6.373  0.3810  0.3582 -0.0406
 4429SOL    HW217488   5.335   6.201   6.335  0.4138 -2.0288 -0.0839
 4429SOL    HW317489   5.190   6.177   6.300 -0.2650  1.2013  0.1607
 4429SOL    MW417490   5.251   6.198   6.358 -0.1547 -0.1141  0.0553
 4430SOL     OW17491   2.789   4.329   0.520  0.7395  0.0522 -0.2261
 4430SOL    HW217492   2.804   4.389   0.447 -2.4495  1.0578 -0.1938
 4430SOL    HW317493   2.797   4.242   0.482 -2.5085  0.5156 -2.3424
 4430SOL    MW417494   2.792   4.326   0.505  0.1653 -0.4592  0.2728
 4431SOL     OW17495   2.754   2.974   3.814  0.0420 -0.1471  0.4075
 4431SOL    HW217496   2.839   2.949   3.779  0.8134  1.1268  1.2993
 4431SOL    HW317497   2.698   2.983   3.737  1.0244  0.1559 -0.2821
 4431SOL    MW417498   2.758   2.972   3.799 -0.2006  0.7856  0.7103
 4432SOL     OW17499   6.432   5.463   1.378 -0.2630 -0.3147  0.0889
 4432SOL    HW217500   6.440   5.506   1.293 -0.3594  0.0767  0.2731
 4432SOL    HW317501   6.416   5.371   1.357 -0.3526 -0.2106 -0.3173
 4432SOL    MW417502   6.431   5.457   1.364 -0.4671 -0.0541 -0.2903
 4433SOL     OW17503   1.492   1.882   1.271  0.2052  0.2693 -0.0935
 4433SOL    HW217504   1.465   1.936   1.196 -0.0360  2.2666  1.3387
 4433SOL    HW317505   1.554   1.819   1.234 -0.3449  0.8133 -2.0649
 4433SOL    MW417506   1.497   1.881   1.256 -0.3006  1.0243 -0.5319
 4434SOL     OW17507   2.308   1.556   2.172  0.2842  0.0457 -0.2450
 4434SOL    HW217508   2.244   1.487   2.156 -0.3619  0.8544 -1.2187
 4434SOL    HW317509   2.371   1.547   2.100 -0.4614  1.2141 -1.0608
 4434SOL    MW417510   2.308   1.546   2.161 -0.5363  0.5899 -0.2074
 4435SOL     OW17511   1.934   1.727   1.795 -0.4349  0.6283  0.1929
 4435SOL    HW217512   1.870   1.656   1.788  0.1719  0.1928 -1.2623
 4435SOL    HW317513   1.884   1.806   1.778 -0.6079  0.2958 -0.9003
 4435SOL    MW417514   1.919   1.728   1.792  0.1859  0.3096 -0.1047
 4436SOL     OW17515   1.642   1.229   0.953 -0.3637  0.0810 -0.4629
 4436SOL    HW217516   1.669   1.159   0.895  1.1145  0.6083 -0.4531
 4436SOL    HW317517   1.719   1.285   0.961 -1.2987  1.3516  0.0480
 4436SOL    MW417518   1.656   1.227   0.946 -0.1960  0.1060 -0.1883
 4437SOL     OW17519   3.416   4.530   5.265 -0.0679  0.4393 -0.5238
 4437SOL    HW217520   3.456   4.560   5.347 -1.6626  0.5391  0.2705
 4437SOL    HW317521   3.371   4.608   5.231 -0.4609  0.0863 -0.8243
 4437SOL    MW417522   3.415   4.544   5.272  0.6266 -0.1826  0.3357
 4438SOL     OW17523   5.412   1.953   6.128  0.1409  0.4906 -0.2469
 4438SOL    HW217524   5.387   2.040   6.158 -0.7428  0.1173  0.1478
 4438SOL    HW317525   5.482   1.968   6.064  1.8112  1.3225  1.6977
 4438SOL    MW417526   5.418   1.966   6.123 -0.4407 -0.0930 -0.0883
 4439SOL     OW17527   0.722   0.303   1.142 -0.3856  0.1164  0.1085
 4439SOL    HW217528   0.740   0.228   1.199 -1.2757  0.3815  0.7586
 4439SOL    HW317529   0.745   0.272   1.054 -2.7718 -1.6793  0.0311
 4439SOL    MW417530   0.728   0.289   1.138  0.1359 -0.3837  0.3044
 4440SOL     OW17531   4.921   0.770   0.339  0.3733 -0.2204 -0.0502
 4440SOL    HW217532   4.848   0.751   0.399  1.5331  0.1812  1.5458
 4440SOL    HW317533   4.948   0.685   0.306 -0.2753 -0.4447 -0.0278
 4440SOL    MW417534   4.915   0.756   0.342 -0.1832 -0.0995  0.2440
 4441SOL     OW17535   4.998   1.621   2.681  0.2265 -0.2884  0.6705
 4441SOL    HW217536   4.973   1.693   2.738  0.1455 -0.0028  0.2748
 4441SOL    HW317537   4.921   1.563   2.680  0.9874 -1.4173  2.5790
 4441SOL    MW417538   4.984   1.623   2.688 -0.0383  0.4681 -0.0319
 4442SOL     OW17539   6.141   3.759   0.584  0.2698  0.0183 -0.4752
 4442SOL    HW217540   6.123   3.851   0.601  1.0873  0.3655 -1.3916
 4442SOL    HW317541   6.221   3.760   0.532  0.2595 -1.2090 -0.5329
 4442SOL    MW417542   6.149   3.771   0.579 -0.2419 -0.2906 -0.0251
 4443SOL     OW17543   4.691   6.243   2.012 -0.7420 -0.6147  0.2084
 4443SOL    HW217544   4.727   6.234   2.101 -1.1135  0.8631  0.5335
 4443SOL    HW317545   4.624   6.176   2.006 -0.1014 -1.3156  0.7256
 4443SOL    MW417546   4.687   6.233   2.023 -0.0517  0.1488 -0.0203
 4444SOL     OW17547   3.774   4.491   3.636  0.0310  0.2203 -0.0882
 4444SOL    HW217548   3.851   4.481   3.692 -0.0079  0.8037  0.0781
 4444SOL    HW317549   3.809   4.517   3.551  0.1339 -1.2626 -0.5268
 4444SOL    MW417550   3.788   4.493   3.632  0.2145  0.4922 -0.2698
 4445SOL     OW17551   4.087   4.701   0.053 -0.5790  0.2755  0.1409
 4445SOL    HW217552   4.022   4.643   0.013 -0.1313 -0.1236 -0.0230
 4445SOL    HW317553   4.171   4.670   0.018 -0.3059  0.8225  0.2995
 4445SOL    MW417554   4.090   4.690   0.043 -0.0164  0.0031 -0.1853
 4446SOL     OW17555   1.532   1.276   6.267  0.1531  0.5284  0.2606
 4446SOL    HW217556   1.563   1.359   6.232 -1.1942  1.9006  2.1286
 4446SOL    HW317557   1.566   1.274   6.357 -0.6204 -0.4854  0.5473
 4446SOL    MW417558   1.540   1.287   6.275  0.4087  0.0396  0.3576
 4447SOL     OW17559   3.410   3.165   0.745  0.2299  0.0030 -0.5118
 4447SOL    HW217560   3.372   3.217   0.674  0.0529  0.4088 -0.1225
 4447SOL    HW317561   3.343   3.099   0.764 -0.4131  0.8587  0.3306
 4447SOL    MW417562   3.396   3.163   0.738  0.0602 -0.1067 -0.4814
 4448SOL     OW17563   3.671   5.355   1.504 -0.4199  0.1809  0.2547
 4448SOL    HW217564   3.710   5.316   1.582 -0.7535 -0.2694  0.1990
 4448SOL    HW317565   3.655   5.281   1.446 -1.6173  0.3180  0.3920
 4448SOL    MW417566   3.674   5.340   1.507 -0.1257  0.8470  0.7971
 4449SOL     OW17567   1.595   3.166   1.036  0.4278  0.2195 -0.6838
 4449SOL    HW217568   1.568   3.234   1.096  1.1186  0.6370 -0.8358
 4449SOL    HW317569   1.670   3.123   1.079 -0.5428 -1.0346 -0.1820
 4449SOL    MW417570   1.602   3.169   1.049 -0.4476 -0.0886 -0.3283
 4450SOL     OW17571   2.519   0.011   0.045  0.3168  0.1073 -0.6825
 4450SOL    HW217572   2.555   0.059  -0.029  1.7214 -0.4739 -0.4186
 4450SOL    HW317573   2.562  -0.075   0.041  0.3937  0.0475  0.7576
 4450SOL    MW417574   2.530   0.006   0.035  0.2143 -0.6329  0.1609
 4451SOL     OW17575   5.557   1.849   1.926 -0.2095  0.3262 -0.2259
 4451SOL    HW217576   5.516   1.769   1.894 -3.1594  2.3330 -1.8933
 4451SOL    HW317577   5.522   1.859   2.015 -1.7597  0.8965 -0.8604
 4451SOL    MW417578   5.547   1.840   1.934  0.1864 -0.6176  0.4531
 4452SOL     OW17579   0.921   2.671   1.103  0.0693  0.1724  0.6268
 4452SOL    HW217580   0.949   2.762   1.100  0.2882  0.0879 -0.0171
 4452SOL    HW317581   0.951   2.639   1.188 -0.5770  0.8756  1.1299
 4452SOL    MW417582   0.928   2.679   1.114 -0.2101  0.5532 -0.3539
 4453SOL     OW17583   3.536   3.981   2.503  0.6099 -0.0882 -0.3443
 4453SOL    HW217584   3.452   4.008   2.540  0.3612 -0.1217 -0.8827
 4453SOL    HW317585   3.545   4.032   2.423  0.8666 -0.4564 -0.5535
 4453SOL    MW417586   3.526   3.991   2.498  0.2843  0.0605 -0.9437
 4454SOL     OW17587   3.905   1.365   0.770  0.4165  0.3964 -0.0933
 4454SOL    HW217588   3.886   1.456   0.748  0.0106  0.0297 -1.3195
 4454SOL    HW317589   3.819   1.322   0.773  0.6176  0.0020  0.2540
 4454SOL    MW417590   3.891   1.371   0.768 -0.3521 -0.4114 -0.6649
 4455SOL     OW17591   1.651   3.098   6.190 -0.0327  0.4148 -0.2690
 4455SOL    HW217592   1.580   3.059   6.139 -0.5991 -0.0116  0.8175
 4455SOL    HW317593   1.677   3.175   6.140 -2.7034  1.8189  0.3619
 4455SOL    MW417594   1.645   3.103   6.177 -0.6062  0.5998  0.0571
 4456SOL     OW17595   0.892   3.518   2.671 -0.2746 -0.4013  0.2786
 4456SOL    HW217596   0.974   3.567   2.680 -0.9653  0.9104 -0.2556
 4456SOL    HW317597   0.915   3.428   2.692  0.6462  0.4336  3.2907
 4456SOL    MW417598   0.906   3.513   2.675  0.0160 -0.1836 -0.2595
 4457SOL     OW17599   2.139   1.307   1.287 -0.7286  0.4407  0.4665
 4457SOL    HW217600   2.056   1.283   1.329  0.4060 -1.0298  2.0047
 4457SOL    HW317601   2.169   1.384   1.336 -0.4005 -0.0398  1.0392
 4457SOL    MW417602   2.132   1.314   1.299  0.0778  0.4783  0.0266
 4458SOL     OW17603   0.941   5.588   0.060  0.3844 -0.5446  0.3018
 4458SOL    HW217604   0.893   5.639  -0.006  0.6123 -0.3163  0.3112
 4458SOL    HW317605   0.880   5.519   0.086 -0.1976  0.1558  0.8295
 4458SOL    MW417606   0.927   5.585   0.054  0.0011  0.3751  0.4223
 4459SOL     OW17607   2.377   1.897   1.923 -0.1965  0.7842  0.0739
 4459SOL    HW217608   2.406   1.810   1.953 -0.3029  0.9897  0.7892
 4459SOL    HW317609   2.338   1.880   1.838  0.1265  0.1819  0.0319
 4459SOL    MW417610   2.376   1.883   1.916 -0.0755  0.1886 -0.0051
 4460SOL     OW17611   1.398   3.824   4.664  0.0891 -0.4535 -0.5270
 4460SOL    HW217612   1.486   3.861   4.654 -0.1489  0.3498  0.1973
 4460SOL    HW317613   1.345   3.897   4.696 -0.6995 -1.0977 -0.3364
 4460SOL    MW417614   1.403   3.839   4.667 -0.2854  0.1993 -0.2839
 4461SOL     OW17615   5.758   6.357   2.208  0.4959 -0.0470  0.2046
 4461SOL    HW217616   5.664   6.376   2.201  0.2726 -0.5692  1.5200
 4461SOL    HW317617   5.783   6.326   2.121 -0.8158 -1.0355  0.1493
 4461SOL    MW417618   5.749   6.356   2.195  0.6425  0.4356  0.0914
 4462SOL     OW17619   0.197   5.661   4.709 -0.4384 -0.2765 -0.3958
 4462SOL    HW217620   0.160   5.596   4.769  1.0176 -0.4873  0.3227
 4462SOL    HW317621   0.241   5.725   4.766 -1.4205  1.0864 -1.1182
 4462SOL    MW417622   0.198   5.661   4.724  0.1846  0.0667 -0.0667
 4463SOL     OW17623   4.497   2.856   1.453 -0.4224 -0.4964  0.5242
 4463SOL    HW217624   4.548   2.823   1.379  0.6765  0.1823  0.9555
 4463SOL    HW317625   4.435   2.918   1.413 -0.3110 -0.6652  0.0882
 4463SOL    MW417626   4.495   2.860   1.438 -0.6545 -0.6678  0.3638
 4464SOL     OW17627   1.546   6.169   4.989 -0.2560  0.0866  0.0139
 4464SOL    HW217628   1.463   6.208   4.961 -0.5594  0.4840  1.3719
 4464SOL    HW317629   1.581   6.231   5.053  0.5263 -0.6397  0.3102
 4464SOL    MW417630   1.540   6.182   4.994 -0.1626 -0.3954 -0.8012
 4465SOL     OW17631   5.220   4.681   1.172 -1.0745 -0.2866 -0.1294
 4465SOL    HW217632   5.293   4.624   1.147  0.0674  1.3668 -0.7750
 4465SOL    HW317633   5.179   4.637   1.246  2.3002  0.0063  2.1104
 4465SOL    MW417634   5.224   4.668   1.178 -0.1072 -0.2191  0.2931
 4466SOL     OW17635   4.011   2.075   1.233 -0.1450  0.0087  0.2330
 4466SOL    HW217636   4.067   2.150   1.252  0.3746 -0.5046  0.7610
 4466SOL    HW317637   4.072   2.003   1.216 -0.6341 -0.5259  0.7037
 4466SOL    MW417638   4.026   2.075   1.234  0.1348 -0.6033  0.0324
 4467SOL     OW17639   0.694   3.672   4.285 -0.0798  0.3832  0.4765
 4467SOL    HW217640   0.621   3.682   4.347  1.6447  0.2758  2.6414
 4467SOL    HW317641   0.735   3.758   4.283  0.6155  0.0586  0.4760
 4467SOL    MW417642   0.690   3.685   4.293 -0.0853 -0.6595  0.0705
 4468SOL     OW17643   1.963   0.472   3.263 -0.0991 -0.6231  0.5209
 4468SOL    HW217644   2.000   0.414   3.197  1.6686  0.8128  0.1809
 4468SOL    HW317645   2.002   0.443   3.345 -0.0889 -0.5985  0.5246
 4468SOL    MW417646   1.973   0.461   3.265  0.8077 -0.0660 -0.4634
 4469SOL     OW17647   3.898   1.977   0.640  0.0896  0.3316 -0.6073
 4469SOL    HW217648   3.940   1.977   0.727  0.9408 -2.2132 -0.9239
 4469SOL    HW317649   3.816   2.024   0.653 -1.5752 -2.9328  2.5690
 4469SOL    MW417650   3.893   1.983   0.653 -0.2622 -0.9839  0.3849
 4470SOL     OW17651   3.340   0.150   2.426  0.1231 -0.2084  0.0705
 4470SOL    HW217652   3.386   0.137   2.343  1.3256 -1.2353  0.8809
 4470SOL    HW317653   3.248   0.163   2.400  0.0291 -2.9404 -1.3244
 4470SOL    MW417654   3.334   0.150   2.412 -0.0478  0.2117 -0.1425
 4471SOL     OW17655   1.312   3.397   6.383  0.0536  0.0423 -0.1096
 4471SOL    HW217656   1.290   3.486   6.354  1.6924 -0.3947 -3.1637
 4471SOL    HW317657   1.301   3.343   6.305  1.8053 -1.9226  0.8954
 4471SOL    MW417658   1.308   3.402   6.369 -0.0078 -0.3085 -0.2150
 4472SOL     OW17659   6.046   1.401   1.203 -0.1628 -0.5554 -0.0360
 4472SOL    HW217660   5.991   1.356   1.267 -1.8373  0.9564 -0.3225
 4472SOL    HW317661   6.107   1.452   1.256  0.0063 -1.1008  0.3067
 4472SOL    MW417662   6.047   1.402   1.218  0.6886  0.8209  0.1890
 4473SOL     OW17663   0.420   5.522   3.630  0.2414  0.1045  0.3170
 4473SOL    HW217664   0.404   5.439   3.676  0.1508 -1.3122 -2.1036
 4473SOL    HW317665   0.486   5.501   3.565 -0.3447  1.7438 -0.8801
 4473SOL    MW417666   0.426   5.508   3.628  0.0641  0.2422  0.2060
 4474SOL     OW17667   3.001   1.149   1.661  0.0808 -0.3213 -0.3263
 4474SOL    HW217668   3.017   1.055   1.672  0.9282 -0.0641  0.8355
 4474SOL    HW317669   3.087   1.186   1.643 -0.4607  0.0654 -2.4252
 4474SOL    MW417670   3.014   1.142   1.660  0.0276  0.5000  0.4603
 4475SOL     OW17671   0.685   5.860   0.783  0.6641 -0.5019  0.0616
 4475SOL    HW217672   0.636   5.906   0.852  1.0494  0.7191 -0.4588
 4475SOL    HW317673   0.766   5.910   0.774  1.1417 -1.3527 -0.4609
 4475SOL    MW417674   0.689   5.873   0.791  0.0740 -0.3545 -0.4783
 4476SOL     OW17675   0.340   2.669   2.295  0.5185  0.1859  0.1179
 4476SOL    HW217676   0.375   2.726   2.363 -0.5003  0.7973  0.1432
 4476SOL    HW317677   0.402   2.677   2.223  0.1804  1.6589 -0.0289
 4476SOL    MW417678   0.353   2.678   2.294  0.0665 -0.0008 -0.1446
 4477SOL     OW17679   6.251   1.169   2.378 -0.2708 -0.4106 -0.1050
 4477SOL    HW217680   6.246   1.257   2.342  0.1473 -0.1940  0.3410
 4477SOL    HW317681   6.170   1.158   2.427 -0.5066 -0.4293 -0.4978
 4477SOL    MW417682   6.240   1.179   2.380  0.4328 -0.4816  0.3718
 4478SOL     OW17683   5.719   0.839   5.477  0.1946 -0.0409  0.5328
 4478SOL    HW217684   5.732   0.813   5.568  0.3065 -1.7633  0.0691
 4478SOL    HW317685   5.805   0.828   5.437  0.2031  0.9401  0.2494
 4478SOL    MW417686   5.732   0.834   5.484 -0.2018  0.3822 -0.1260
 4479SOL     OW17687   4.353   5.609   3.611 -0.0683 -0.5247  0.1522
 4479SOL    HW217688   4.312   5.547   3.551 -1.3791  0.7758 -0.3527
 4479SOL    HW317689   4.418   5.654   3.557 -0.0983 -0.4925  0.1426
 4479SOL    MW417690   4.356   5.607   3.596 -0.5454 -0.4110 -0.2235
 4480SOL     OW17691   5.709   5.628   4.131 -0.1765  0.0405 -0.4289
 4480SOL    HW217692   5.756   5.691   4.077 -0.2630  0.4939  0.0212
 4480SOL    HW317693   5.730   5.653   4.221  0.8914 -1.3910 -0.2398
 4480SOL    MW417694   5.718   5.640   4.136 -0.3930 -0.3326  0.3933
 4481SOL     OW17695   5.158   0.750   5.465  0.1276 -0.4040 -0.0718
 4481SOL    HW217696   5.246   0.787   5.458  0.3317 -0.7925  0.3936
 4481SOL    HW317697   5.166   0.679   5.530 -0.0728 -1.8019 -1.5122
 4481SOL    MW417698   5.170   0.745   5.473 -0.2136 -0.2590 -0.1536
 4482SOL     OW17699   3.930   3.857   2.089 -0.1302 -0.6674  0.3563
 4482SOL    HW217700   3.851   3.817   2.055 -0.2724  0.3871 -0.6013
 4482SOL    HW317701   3.908   3.881   2.179 -0.4084 -1.6719  0.5636
 4482SOL    MW417702   3.917   3.855   2.097 -0.3246 -0.9178 -0.0211
 4483SOL     OW17703   3.263   6.296   4.866  0.5477 -0.2153  0.2338
 4483SOL    HW217704   3.352   6.264   4.879  0.3127 -0.1743  2.3644
 4483SOL    HW317705   3.209   6.217   4.866  0.3463 -0.1132  1.7459
 4483SOL    MW417706   3.268   6.281   4.868 -0.1612 -0.2043  0.1892
 4484SOL     OW17707   2.281   5.603   3.235 -0.2405 -0.3000  1.2985
 4484SOL    HW217708   2.210   5.647   3.282  0.3452  3.3513 -0.8636
 4484SOL    HW317709   2.267   5.626   3.143  2.5411 -1.2512  0.5440
 4484SOL    MW417710   2.270   5.612   3.229  0.5179 -0.4140  0.1343
 4485SOL     OW17711   5.997   6.169   2.139  0.3746 -0.1795  0.4650
 4485SOL    HW217712   5.932   6.107   2.172 -1.4866  1.9551  1.0903
 4485SOL    HW317713   5.996   6.158   2.044  0.8832 -1.7951  0.6200
 4485SOL    MW417714   5.989   6.159   2.131 -0.5588 -0.2892  0.0068
 4486SOL     OW17715   3.163   3.319   2.544 -0.3365  0.0697  0.1920
 4486SOL    HW217716   3.181   3.403   2.502  3.9476 -1.3848 -1.3929
 4486SOL    HW317717   3.222   3.317   2.620 -0.4429 -1.4349  0.2651
 4486SOL    MW417718   3.173   3.330   2.548 -0.1049  0.6472 -0.2300
 4487SOL     OW17719   4.775   3.443   4.362 -0.0385  0.4736  0.3909
 4487SOL    HW217720   4.780   3.538   4.376 -0.4793  0.5996 -0.2773
 4487SOL    HW317721   4.692   3.417   4.400 -0.8466  0.6844 -1.1460
 4487SOL    MW417722   4.765   3.452   4.368 -0.1119  0.2826 -0.0573
 4488SOL     OW17723   2.203   1.817   2.866 -0.6370  0.5943  0.3329
 4488SOL    HW217724   2.120   1.776   2.845 -0.7113  0.4983  0.7963
 4488SOL    HW317725   2.247   1.755   2.925  0.8626 -0.5135 -1.8384
 4488SOL    MW417726   2.198   1.804   2.871 -0.3937  0.5694 -0.0897
 4489SOL     OW17727   6.268   2.234   6.210 -0.0567 -0.5515  0.8114
 4489SOL    HW217728   6.301   2.324   6.210  0.3929 -0.7029  1.6567
 4489SOL    HW317729   6.303   2.196   6.291  1.3668 -2.0691 -0.4248
 4489SOL    MW417730   6.277   2.240   6.221  0.5355 -0.5393 -0.7424
 4490SOL     OW17731   5.015   5.941   2.050 -0.6578 -0.0944 -0.3171
 4490SOL    HW217732   5.077   5.868   2.053  0.7011  1.0427  1.3459
 4490SOL    HW317733   4.986   5.952   2.141  0.3572  2.3180 -0.1829
 4490SOL    MW417734   5.019   5.933   2.062 -0.4275  0.4453  0.1205
 4491SOL     OW17735   3.423   2.965   3.905  0.3133 -0.0157 -0.4818
 4491SOL    HW217736   3.368   2.887   3.894 -0.2884 -0.0017  1.8176
 4491SOL    HW317737   3.393   3.025   3.837 -0.0785 -1.3054 -1.4957
 4491SOL    MW417738   3.411   2.962   3.895 -0.4505  0.8803 -0.2284
 4492SOL     OW17739   6.416   5.069   4.313  0.5131 -0.0194  0.2771
 4492SOL    HW217740   6.510   5.055   4.324  0.9824  1.7118 -1.0737
 4492SOL    HW317741   6.376   5.022   4.386  2.4699 -0.1791  1.3110
 4492SOL    MW417742   6.423   5.061   4.324 -0.5144 -0.2908  0.0412
 4493SOL     OW17743   3.601   1.604   0.598  0.5819 -0.3427  0.1651
 4493SOL    HW217744   3.552   1.659   0.659  0.3842 -0.3094 -0.0218
 4493SOL    HW317745   3.690   1.601   0.634  0.2947 -0.9214  0.8475
 4493SOL    MW417746   3.606   1.611   0.610  0.7124  0.3630 -0.5465
 4494SOL     OW17747   2.182   0.227   5.010 -0.0111 -0.2252  0.0631
 4494SOL    HW217748   2.132   0.281   5.071 -0.4242  1.5212 -1.7561
 4494SOL    HW317749   2.116   0.178   4.962  0.3131 -1.4930  0.8395
 4494SOL    MW417750   2.167   0.228   5.012 -0.2963 -0.3249  0.1198
 4495SOL     OW17751   5.456   3.305   1.184 -0.9984 -0.3301 -0.8514
 4495SOL    HW217752   5.428   3.219   1.216 -0.4928 -0.9353 -1.9640
 4495SOL    HW317753   5.545   3.315   1.218 -1.6519  0.5629  0.7370
 4495SOL    MW417754   5.464   3.295   1.193 -0.4905 -0.1182 -0.0219
 4496SOL     OW17755   4.167   0.719   0.849 -0.2000 -0.2437 -0.0743
 4496SOL    HW217756   4.232   0.776   0.808  0.1551 -0.9010 -0.4342
 4496SOL    HW317757   4.125   0.775   0.915 -2.1738  1.5239 -2.5822
 4496SOL    MW417758   4.170   0.734   0.852  0.3697 -0.3971  0.0463
 4497SOL     OW17759   4.597   1.570   1.338  0.4004  0.1099  0.7570
 4497SOL    HW217760   4.600   1.540   1.247  1.5165  0.3798  0.6832
 4497SOL    HW317761   4.649   1.506   1.386  1.3879  0.9656  0.8747
 4497SOL    MW417762   4.604   1.558   1.332 -0.1088 -0.4533  0.6106
 4498SOL     OW17763   5.201   6.176   4.429  0.3408 -0.9500  0.2762
 4498SOL    HW217764   5.183   6.244   4.364  3.2802 -0.5498 -0.2514
 4498SOL    HW317765   5.250   6.109   4.381  2.4300 -0.7339  1.9295
 4498SOL    MW417766   5.205   6.176   4.414  0.1677  0.4775 -0.0901
 4499SOL     OW17767   5.059   4.037   3.459  0.1207  0.1759  0.0152
 4499SOL    HW217768   4.969   4.013   3.434 -0.6213  2.0341  0.7054
 4499SOL    HW317769   5.049   4.080   3.544  1.8512 -0.6972  0.7049
 4499SOL    MW417770   5.046   4.040   3.467  0.4524  0.2493 -0.3563
 4500SOL     OW17771   6.340   4.211   2.176  0.1570 -0.1192 -0.2225
 4500SOL    HW217772   6.304   4.298   2.195 -1.5387 -1.2081  1.9105
 4500SOL    HW317773   6.268   4.164   2.133  1.0799 -0.4998 -1.4305
 4500SOL    MW417774   6.326   4.216   2.173 -0.0967  0.2159  0.2397
 4501SOL     OW17775   5.104   2.403   2.861  0.5041  0.1147 -0.7679
 4501SOL    HW217776   5.082   2.374   2.772  2.6611  1.0478 -1.6767
 4501SOL    HW317777   5.077   2.494   2.864  0.1565  0.0017 -0.3380
 4501SOL    MW417778   5.097   2.411   2.849  0.3367  0.5434  0.3103
 4502SOL     OW17779   0.074   4.325   1.653  0.1645 -0.6845 -0.4225
 4502SOL    HW217780   0.165   4.343   1.633 -0.2360 -0.0329 -1.7111
 4502SOL    HW317781   0.077   4.283   1.739  1.7898 -1.9284 -1.0330
 4502SOL    MW417782   0.086   4.321   1.662  0.1264 -0.3244 -0.1106
 4503SOL     OW17783   6.368   2.257   0.783  0.1973  0.2266  0.1529
 4503SOL    HW217784   6.411   2.321   0.726 -0.8037 -0.3507 -1.3240
 4503SOL    HW317785   6.274   2.274   0.770 -0.1519 -2.3875 -1.3627
 4503SOL    MW417786   6.361   2.268   0.774  0.6197  0.7342  0.0035
 4504SOL     OW17787   4.869   1.947   0.376  0.3805 -0.1443 -0.0130
 4504SOL    HW217788   4.780   1.916   0.359  0.8320 -1.3903 -0.1488
 4504SOL    HW317789   4.860   2.001   0.455 -0.6688  0.6714 -0.6518
 4504SOL    MW417790   4.856   1.950   0.384  0.1868 -0.0345 -0.2519
 4505SOL     OW17791   1.674   6.004   6.037  0.0359  0.2112 -0.0463
 4505SOL    HW217792   1.754   6.036   6.078 -0.1808 -0.6334  1.0832
 4505SOL    HW317793   1.659   6.064   5.964  1.3810  0.7178  0.0678
 4505SOL    MW417794   1.683   6.016   6.033 -0.6765 -0.1478  0.5156
 4506SOL     OW17795   2.550   3.614   2.577  0.1978 -0.2662 -0.1090
 4506SOL    HW217796   2.602   3.549   2.529  0.2224 -0.9644  0.8254
 4506SOL    HW317797   2.467   3.617   2.529  0.0363 -1.3265  0.0615
 4506SOL    MW417798   2.546   3.606   2.564 -0.3972  0.1264 -0.3687
 4507SOL     OW17799   2.195   3.318   4.500  0.0102  0.1240  0.4208
 4507SOL    HW217800   2.249   3.389   4.536 -0.1430  0.2172  0.4671
 4507SOL    HW317801   2.256   3.268   4.445 -0.0939  0.8565 -0.3953
 4507SOL    MW417802   2.210   3.321   4.497 -0.0576 -0.2221  0.0242
 4508SOL     OW17803   3.858   5.100   4.506  0.1150  0.0829 -0.0212
 4508SOL    HW217804   3.908   5.121   4.427  0.3833 -2.2430 -0.5480
 4508SOL    HW317805   3.917   5.122   4.578  0.6021  0.4686 -0.5323
 4508SOL    MW417806   3.872   5.106   4.505  0.3328  0.7973  0.3441
 4509SOL     OW17807   3.132   1.974   4.812 -0.6069 -0.5409 -0.1353
 4509SOL    HW217808   3.177   2.050   4.848 -1.6525  0.5345 -1.0224
 4509SOL    HW317809   3.163   1.901   4.865  1.0367  0.3695  0.2200
 4509SOL    MW417810   3.142   1.974   4.824 -0.3249 -0.5602 -0.6156
 4510SOL     OW17811   5.720   1.139   3.969 -0.8839 -0.0976 -0.2046
 4510SOL    HW217812   5.645   1.194   3.949 -0.6118  0.4559  0.2591
 4510SOL    HW317813   5.785   1.163   3.903 -1.1972 -0.7579 -0.7612
 4510SOL    MW417814   5.719   1.149   3.958  0.0399 -0.3727 -0.1622
 4511SOL     OW17815   3.755   1.731   4.072  0.0306 -0.5077 -0.2181
 4511SOL    HW217816   3.748   1.636   4.065 -0.9693 -0.3155 -2.5489
 4511SOL    HW317817   3.848   1.746   4.091  0.1392 -1.9243  0.5704
 4511SOL    MW417818   3.767   1.720   4.074 -0.1041 -0.0235  0.3974
 4512SOL     OW17819   2.501   4.162   3.212  0.3783 -0.2866  0.0589
 4512SOL    HW217820   2.429   4.223   3.227 -0.5623 -1.2432 -0.4210
 4512SOL    HW317821   2.501   4.147   3.117  2.7982  1.5666 -0.3199
 4512SOL    MW417822   2.492   4.168   3.201 -0.2991  0.0270 -0.4243
 4513SOL     OW17823   4.835   1.303   4.511 -0.5510  0.5793  0.9847
 4513SOL    HW217824   4.876   1.356   4.579  1.2283  1.2266 -0.4963
 4513SOL    HW317825   4.867   1.214   4.526 -2.1466  0.1913  2.4178
 4513SOL    MW417826   4.845   1.298   4.522  0.6706 -0.0157 -0.2490
 4514SOL     OW17827   4.510   2.695   5.094  0.0217 -0.2129  0.1756
 4514SOL    HW217828   4.513   2.645   5.012  2.7555  1.2646 -0.7490
 4514SOL    HW317829   4.477   2.781   5.068 -1.6428 -0.5089  1.1808
 4514SOL    MW417830   4.506   2.700   5.080 -0.0613  0.2555 -0.0884
 4515SOL     OW17831   2.721   2.343   0.970 -0.2250 -0.4524  0.0638
 4515SOL    HW217832   2.776   2.266   0.955  2.6460  0.8204  2.8571
 4515SOL    HW317833   2.647   2.309   1.021  0.8655 -1.4889  1.0302
 4515SOL    MW417834   2.719   2.328   0.975  0.4282 -0.6693  0.0542
 4516SOL     OW17835   1.442   5.251   3.943 -0.9150 -0.5537 -0.4144
 4516SOL    HW217836   1.463   5.299   4.023  0.0839 -2.4421  0.5355
 4516SOL    HW317837   1.359   5.288   3.914 -0.6887  1.0205  0.7963
 4516SOL    MW417838   1.434   5.262   3.950 -0.9083 -0.4045 -0.2540
 4517SOL     OW17839   5.742   1.345   0.515  0.0051 -0.7412 -0.2722
 4517SOL    HW217840   5.708   1.391   0.438  0.2613  2.2144  1.2311
 4517SOL    HW317841   5.664   1.309   0.557 -0.4544 -0.0691 -0.5235
 4517SOL    MW417842   5.727   1.346   0.510  0.2556 -0.2153 -0.3586
 4518SOL     OW17843   4.949   5.851   1.319 -0.5714  0.6994 -0.0769
 4518SOL    HW217844   4.869   5.903   1.330  0.5707  2.7345 -1.0403
 4518SOL    HW317845   5.010   5.908   1.273  1.1387 -1.1450 -0.2539
 4518SOL    MW417846   4.946   5.865   1.315 -0.2043  0.2751  0.1755
 4519SOL     OW17847   0.755   0.710   5.056  0.2690  0.5153  0.0022
 4519SOL    HW217848   0.728   0.754   4.976 -0.9077  0.0447  0.1180
 4519SOL    HW317849   0.829   0.656   5.030 -0.6023 -0.2504 -0.9858
 4519SOL    MW417850   0.761   0.708   5.042  0.2012 -0.4558  0.1044
 4520SOL     OW17851   4.594   3.337   5.996  0.8623  0.1916  0.2864
 4520SOL    HW217852   4.602   3.397   6.071  1.4685 -0.5548  0.8431
 4520SOL    HW317853   4.680   3.339   5.954  0.9749 -0.4741  0.4676
 4520SOL    MW417854   4.606   3.345   6.001  0.2883  0.0258 -0.1524
 4521SOL     OW17855   5.934   1.180   5.486  0.7288  0.3437 -0.2845
 4521SOL    HW217856   5.957   1.271   5.502  2.8678 -0.1012 -0.5158
 4521SOL    HW317857   5.996   1.152   5.418 -0.0692 -1.2028 -0.4062
 4521SOL    MW417858   5.945   1.188   5.479 -0.0518 -1.2719  0.0244
 4522SOL     OW17859   1.436   5.815   3.614 -0.0709  0.2246 -0.1256
 4522SOL    HW217860   1.515   5.804   3.560 -0.3835  1.3435 -0.8454
 4522SOL    HW317861   1.455   5.891   3.669 -0.6678  0.5376 -0.3476
 4522SOL    MW417862   1.449   5.823   3.614  0.3289 -0.0961  0.4297
 4523SOL     OW17863   3.706   5.235   4.088 -1.1318  0.5515  0.6090
 4523SOL    HW217864   3.739   5.241   3.998  1.1437 -0.8892  1.2673
 4523SOL    HW317865   3.647   5.310   4.097 -0.0518  1.7371 -1.5196
 4523SOL    MW417866   3.702   5.246   4.077  0.0874 -0.2171 -0.2553
 4524SOL     OW17867   5.870   5.074   5.192  0.4784  0.7422 -0.0870
 4524SOL    HW217868   5.905   5.151   5.237  0.9273  1.8652 -2.2126
 4524SOL    HW317869   5.780   5.066   5.225  1.1694  0.7005  1.9117
 4524SOL    MW417870   5.862   5.083   5.202 -0.4361  0.5142 -0.3601
 4525SOL     OW17871   0.932   2.522   5.154 -0.6344  0.2329 -0.2365
 4525SOL    HW217872   0.952   2.594   5.214 -0.8863 -0.1721  0.3418
 4525SOL    HW317873   0.866   2.558   5.095 -2.5371 -0.1846  1.4941
 4525SOL    MW417874   0.926   2.536   5.154 -0.3031  0.1230 -0.2704
 4526SOL     OW17875   5.298   0.122   1.485  0.0316  0.2638 -0.0138
 4526SOL    HW217876   5.322   0.106   1.394  1.9187  1.4183  0.2298
 4526SOL    HW317877   5.340   0.052   1.535  0.8985  0.8805  0.1581
 4526SOL    MW417878   5.307   0.111   1.480 -0.5741  0.3144  0.4010
 4527SOL     OW17879   4.552   4.770   1.819  0.1311  0.2347  0.2218
 4527SOL    HW217880   4.605   4.751   1.742 -0.5938 -0.5510 -0.0922
 4527SOL    HW317881   4.580   4.705   1.884  0.7893  0.9377  0.6584
 4527SOL    MW417882   4.563   4.759   1.818 -0.0402  0.0030  0.6307
 4528SOL     OW17883   1.437   0.144   3.526 -0.3552  0.2169  0.3233
 4528SOL    HW217884   1.404   0.074   3.583  1.4181  1.8311  3.5802
 4528SOL    HW317885   1.404   0.225   3.565  1.8092  1.4667 -0.2694
 4528SOL    MW417886   1.428   0.145   3.538  0.3566  0.2678 -1.1247
 4529SOL     OW17887   0.819   5.840   5.297 -0.4864  0.4390 -0.3637
 4529SOL    HW217888   0.886   5.788   5.252 -0.3826 -1.3870  1.6954
 4529SOL    HW317889   0.830   5.929   5.264  2.2211 -0.0252 -0.9243
 4529SOL    MW417890   0.829   5.845   5.287 -0.2098  0.2595  0.5897
 4530SOL     OW17891   5.979   5.840   2.648  0.0333 -0.2693 -0.3061
 4530SOL    HW217892   6.014   5.924   2.676 -2.4448 -0.1245  2.9564
 4530SOL    HW317893   5.910   5.862   2.585 -1.0602  0.3191  1.0272
 4530SOL    MW417894   5.974   5.854   2.644 -0.5291 -0.0960 -0.1963
 4531SOL     OW17895   0.641   1.382   3.857  0.4760 -0.3535 -0.0377
 4531SOL    HW217896   0.586   1.421   3.789 -0.4553 -2.0364 -0.3128
 4531SOL    HW317897   0.579   1.348   3.921  1.3037 -0.1062  0.9266
 4531SOL    MW417898   0.625   1.383   3.857  0.5819  0.0651 -0.1449
 4532SOL     OW17899   4.220   2.316   4.291  0.1532 -0.1904  0.0019
 4532SOL    HW217900   4.192   2.278   4.374 -0.0934 -2.1639 -0.9394
 4532SOL    HW317901   4.308   2.282   4.277  0.4907  0.7269 -0.2196
 4532SOL    MW417902   4.228   2.307   4.300 -0.4015 -0.1310  0.0198
 4533SOL     OW17903   3.555   4.094   2.252 -0.6400  0.0483 -0.1609
 4533SOL    HW217904   3.634   4.122   2.205  0.2749 -1.4870  0.3961
 4533SOL    HW317905   3.483   4.139   2.207  0.5371  1.5337 -0.6372
 4533SOL    MW417906   3.556   4.104   2.240 -0.0181 -0.0200 -0.1484
 4534SOL     OW17907   5.756   1.454   4.977  0.3210 -0.1442 -0.1153
 4534SOL    HW217908   5.825   1.517   5.000  0.0631 -0.4876  1.7688
 4534SOL    HW317909   5.791   1.369   5.005  0.0299 -0.6273 -1.1995
 4534SOL    MW417910   5.770   1.451   4.984  0.3888  0.2234  0.1519
 4535SOL     OW17911   3.150   3.400   1.716 -0.4563 -0.4096  0.1451
 4535SOL    HW217912   3.209   3.378   1.643 -0.8826  0.7520 -0.5775
 4535SOL    HW317913   3.209   3.431   1.785 -0.1251 -0.3581 -0.1536
 4535SOL    MW417914   3.166   3.402   1.716  0.1218  0.3705 -0.2672
 4536SOL     OW17915   4.849   5.442   2.406  0.2282 -0.3473  0.2109
 4536SOL    HW217916   4.907   5.365   2.401 -0.0024 -0.5007 -0.1312
 4536SOL    HW317917   4.789   5.421   2.478 -0.0028 -0.6076 -0.0540
 4536SOL    MW417918   4.849   5.429   2.415 -0.2724 -0.4106 -0.1064
 4537SOL     OW17919   4.766   1.250   2.852 -0.2589  0.2780 -0.2560
 4537SOL    HW217920   4.673   1.246   2.875 -0.4729  0.7836 -0.9919
 4537SOL    HW317921   4.778   1.338   2.816  0.2443 -0.1834 -1.2535
 4537SOL    MW417922   4.755   1.261   2.850  0.5937  0.4146  0.1204
 4538SOL     OW17923   0.716   1.646   2.032 -0.4653  0.4721  0.4918
 4538SOL    HW217924   0.646   1.588   2.001 -1.1169  1.2427  0.4766
 4538SOL    HW317925   0.773   1.590   2.084 -1.0614 -0.1872  0.4487
 4538SOL    MW417926   0.714   1.631   2.035 -0.2560  0.1491 -0.0748
 4539SOL     OW17927   6.243   0.106   0.806 -0.1425 -0.1983 -0.2654
 4539SOL    HW217928   6.163   0.157   0.795 -0.9609 -1.2132  0.6474
 4539SOL    HW317929   6.212   0.017   0.826  1.2143 -0.6542 -0.0633
 4539SOL    MW417930   6.228   0.101   0.807  0.3018 -0.1179 -0.2187
 4540SOL     OW17931   2.577   0.114   2.547  0.0970 -0.0690 -0.5562
 4540SOL    HW217932   2.650   0.056   2.526 -0.3835 -1.1102  0.5500
 4540SOL    HW317933   2.583   0.125   2.642 -1.2374 -0.2339 -0.4416
 4540SOL    MW417934   2.588   0.108   2.557 -0.0123  0.0001 -0.4554
 4541SOL     OW17935   3.841   2.164   4.447 -0.2487  0.2365  0.0528
 4541SOL    HW217936   3.786   2.211   4.384  0.7519 -0.8658 -1.7566
 4541SOL    HW317937   3.924   2.213   4.447 -0.7043  1.0793  1.6940
 4541SOL    MW417938   3.845   2.177   4.439  0.1061  0.1003 -0.0403
 4542SOL     OW17939   5.729   0.082   4.500  0.1990  0.3156 -0.0888
 4542SOL    HW217940   5.705   0.035   4.420  0.9799  0.3379 -0.3351
 4542SOL    HW317941   5.663   0.151   4.508 -1.0606 -0.8900  0.3480
 4542SOL    MW417942   5.717   0.085   4.491 -0.3065  0.0057 -0.0852
 4543SOL     OW17943   5.761   0.333   4.727  0.0120  0.6124 -0.4545
 4543SOL    HW217944   5.811   0.412   4.748  0.1645  0.8752 -1.7333
 4543SOL    HW317945   5.825   0.262   4.734 -0.5132  0.3005  2.4654
 4543SOL    MW417946   5.776   0.334   4.731  0.3128  0.6102  0.1722
 4544SOL     OW17947   4.348   1.936   0.487  0.4192 -0.9454 -0.1914
 4544SOL    HW217948   4.313   2.003   0.546  0.6944 -0.6189 -0.3969
 4544SOL    HW317949   4.272   1.883   0.464 -0.0347  0.0123 -0.9624
 4544SOL    MW417950   4.333   1.938   0.492 -0.4384 -0.2531 -0.5225
 4545SOL     OW17951   1.467   1.101   3.793  0.0798  0.0657  0.2135
 4545SOL    HW217952   1.473   1.177   3.735 -0.4681 -0.8904 -1.1576
 4545SOL    HW317953   1.551   1.099   3.839 -0.0638  1.7314  0.6037
 4545SOL    MW417954   1.479   1.111   3.792 -0.5936  0.4537 -0.2861
 4546SOL     OW17955   4.755   2.615   6.184 -0.0200 -0.4233  0.2292
 4546SOL    HW217956   4.787   2.586   6.098 -0.1315 -3.2875  1.0788
 4546SOL    HW317957   4.659   2.616   6.175 -0.0948 -1.9437  0.6310
 4546SOL    MW417958   4.746   2.612   6.171 -0.4759  0.2925  0.0168
 4547SOL     OW17959   4.717   6.010   3.786  0.0456  0.5192 -0.7246
 4547SOL    HW217960   4.783   5.958   3.832  0.0197  1.7820  0.7874
 4547SOL    HW317961   4.739   5.999   3.693  0.5197 -1.5225 -0.4260
 4547SOL    MW417962   4.729   6.001   3.780 -0.0742 -0.5645  0.1470
 4548SOL     OW17963   4.893   1.557   5.149 -0.2023 -0.5032  0.0902
 4548SOL    HW217964   4.971   1.503   5.163 -0.8856 -1.5428 -0.0285
 4548SOL    HW317965   4.841   1.508   5.086  0.6190  1.8236 -2.5677
 4548SOL    MW417966   4.896   1.543   5.143 -0.4008  0.0833  0.0948
 4549SOL     OW17967   3.079   5.046   1.472  0.0695  0.4705  0.1703
 4549SOL    HW217968   3.175   5.054   1.466  0.3617  0.0845  2.8639
 4549SOL    HW317969   3.061   4.957   1.441  0.4104  0.9240 -1.4201
 4549SOL    MW417970   3.089   5.035   1.467  0.3893  0.0063  0.3674
 4550SOL     OW17971   4.479   6.388   5.910 -0.1194  0.0920  0.1878
 4550SOL    HW217972   4.507   6.440   5.986 -0.8536  1.1392 -0.2238
 4550SOL    HW317973   4.533   6.310   5.913  0.0427  0.2293  1.6481
 4550SOL    MW417974   4.490   6.385   5.920 -0.5902  0.6066 -0.1533
 4551SOL     OW17975   1.961   4.447   3.500  0.0937 -0.1203 -0.2240
 4551SOL    HW217976   1.943   4.472   3.409 -0.4826  2.0639  0.4255
 4551SOL    HW317977   1.930   4.521   3.552  0.8503 -1.1001  1.7406
 4551SOL    MW417978   1.955   4.460   3.495  0.3965  0.1552  0.2461
 4552SOL     OW17979   6.098   4.947   0.628 -0.2314  0.1400 -0.1529
 4552SOL    HW217980   6.040   5.023   0.635 -1.2792 -0.6459 -0.1127
 4552SOL    HW317981   6.112   4.937   0.534 -0.5133  0.0822 -0.1911
 4552SOL    MW417982   6.092   4.956   0.616  0.2138  0.3002 -0.2518
 4553SOL     OW17983   2.721   3.922   3.411  0.3176  0.1104  0.0983
 4553SOL    HW217984   2.792   3.939   3.350 -0.4824 -1.6524 -1.4077
 4553SOL    HW317985   2.762   3.872   3.482  0.8108  0.0890 -0.1963
 4553SOL    MW417986   2.736   3.918   3.413 -0.4413 -0.1872 -0.2052
 4554SOL     OW17987   5.909   5.283   2.812 -0.4743 -0.1172 -0.3100
 4554SOL    HW217988   5.882   5.191   2.808  1.6144 -0.9174  1.5910
 4554SOL    HW317989   5.900   5.307   2.905  2.4717  0.3560 -0.0497
 4554SOL    MW417990   5.904   5.274   2.824  0.1847 -0.7437  0.0461
 4555SOL     OW17991   4.799   2.710   5.075 -0.7210  0.0523 -0.4388
 4555SOL    HW217992   4.712   2.680   5.101 -0.5869 -0.3155 -0.4111
 4555SOL    HW317993   4.859   2.645   5.112 -0.6205 -1.6898 -3.3622
 4555SOL    MW417994   4.796   2.697   5.083 -0.8397  0.2631 -0.2038
 4556SOL     OW17995   4.050   5.185   1.854  0.5276  0.6283 -0.2089
 4556SOL    HW217996   4.112   5.248   1.817  0.9933 -0.1875 -0.8458
 4556SOL    HW317997   3.964   5.223   1.837  0.7956  0.9938 -0.7757
 4556SOL    MW417998   4.047   5.199   1.847  0.3520 -0.1754  0.5622
 4557SOL     OW17999   2.814   4.171   1.050  0.3498  0.5956 -1.2004
 4557SOL    HW218000   2.755   4.130   1.113 -0.8635  0.0581 -2.6133
 4557SOL    HW318001   2.879   4.217   1.103 -0.3350 -0.2314  0.4154
 4557SOL    MW418002   2.815   4.172   1.065 -0.2748 -0.2630 -0.8213
 4558SOL     OW18003   3.145   0.687   1.869  0.3453  0.5768  0.0494
 4558SOL    HW218004   3.210   0.625   1.901 -0.3197 -0.6011 -0.8212
 4558SOL    HW318005   3.071   0.678   1.930  0.3646  0.7342  0.0965
 4558SOL    MW418006   3.143   0.678   1.881 -0.4632  0.0893  0.2204
 4559SOL     OW18007   2.316   0.678   6.309 -1.1318  0.1293 -0.2525
 4559SOL    HW218008   2.298   0.624   6.386 -1.1108  1.6269  0.8290
 4559SOL    HW318009   2.233   0.680   6.261 -1.2932 -0.3668 -0.0029
 4559SOL    MW418010   2.303   0.671   6.312 -0.1975 -0.1380 -0.8203
 4560SOL     OW18011   5.263   2.422   4.617  0.2660 -0.0557  0.0111
 4560SOL    HW218012   5.181   2.430   4.568  0.5386 -0.7121 -0.5587
 4560SOL    HW318013   5.287   2.330   4.610  0.0481 -0.2853  1.8310
 4560SOL    MW418014   5.255   2.411   4.610  0.1708  0.3821  0.4899
 4561SOL     OW18015   5.650   3.456   3.300  0.2381 -0.3032  0.3914
 4561SOL    HW218016   5.556   3.466   3.311  0.2840 -1.1927  1.9924
 4561SOL    HW318017   5.660   3.373   3.253  0.2357 -1.2427  1.9857
 4561SOL    MW418018   5.639   3.446   3.295 -0.2351 -0.4988  0.2508
 4562SOL     OW18019   0.549   1.460   1.907  0.4086  0.5613 -0.1248
 4562SOL    HW218020   0.487   1.428   1.973  0.9662  0.8507  0.5630
 4562SOL    HW318021   0.497   1.511   1.847 -0.1795 -0.0219 -0.1251
 4562SOL    MW418022   0.534   1.462   1.908  0.1887 -0.2113 -0.1791
 4563SOL     OW18023   5.432   2.484   1.234  0.1991  0.1739 -0.5098
 4563SOL    HW218024   5.359   2.432   1.268  1.3299 -1.5652 -0.6124
 4563SOL    HW318025   5.507   2.425   1.236  1.3588  1.5273 -1.5296
 4563SOL    MW418026   5.432   2.469   1.239  0.2725  0.2528 -0.3479
 4564SOL     OW18027   1.001   5.046   3.508  0.7572  0.6346 -0.3971
 4564SOL    HW218028   1.028   4.990   3.435  1.6296  2.1195 -1.2508
 4564SOL    HW318029   1.074   5.041   3.570 -0.7032 -2.0269  1.3126
 4564SOL    MW418030   1.014   5.038   3.507  0.4418 -0.3481 -0.2837
 4565SOL     OW18031   4.842   3.556   5.229  0.2868 -0.3362 -0.7781
 4565SOL    HW218032   4.754   3.523   5.245  0.4712 -0.4293  0.0960
 4565SOL    HW318033   4.828   3.637   5.179 -0.2431 -0.8098 -1.4098
 4565SOL    MW418034   4.829   3.563   5.224  0.4028 -0.4070 -0.5682
 4566SOL     OW18035   0.870   6.071   5.744  0.4467 -0.4587  0.6219
 4566SOL    HW218036   0.833   6.024   5.670 -3.0013  1.9756  0.5481
 4566SOL    HW318037   0.961   6.087   5.720  0.1211 -1.9326 -1.9097
 4566SOL    MW418038   0.877   6.067   5.731 -0.1134 -0.0714 -0.0741
 4567SOL     OW18039   4.099   2.979   3.566 -0.5591 -0.0423  0.3342
 4567SOL    HW218040   4.080   2.919   3.494 -0.1265 -1.9489  1.7254
 4567SOL    HW318041   4.194   2.972   3.578 -0.4215  1.3768  0.1644
 4567SOL    MW418042   4.109   2.970   3.558  0.0288  0.4792 -0.0237
 4568SOL     OW18043   1.908   4.733   2.799  0.4951  0.6916 -0.0174
 4568SOL    HW218044   1.914   4.638   2.797 -0.7412  0.5641  1.0602
 4568SOL    HW318045   1.886   4.757   2.709  0.2528 -0.0896 -0.1763
 4568SOL    MW418046   1.906   4.724   2.787  0.0711  0.0824  0.1804
 4569SOL     OW18047   3.558   0.019   3.634 -0.5130  0.1499 -0.0502
 4569SOL    HW218048   3.609   0.051   3.709  1.1024  1.0189 -1.4556
 4569SOL    HW318049   3.511  -0.057   3.668  2.1367 -1.0493  1.2273
 4569SOL    MW418050   3.558   0.013   3.648 -0.9745  0.2968  0.2412
 4570SOL     OW18051   3.167   4.593   5.854 -0.4414  0.1973  0.2487
 4570SOL    HW218052   3.181   4.514   5.907 -0.6386 -1.0840 -1.5128
 4570SOL    HW318053   3.078   4.621   5.878 -0.6976 -0.6104  0.3121
 4570SOL    MW418054   3.157   4.586   5.864  0.7846 -0.1738  0.0052
 4571SOL     OW18055   4.381   5.283   2.524 -0.1875  0.2253  0.2199
 4571SOL    HW218056   4.417   5.271   2.437  0.9954 -1.6295  0.8916
 4571SOL    HW318057   4.312   5.216   2.531  0.7941 -0.7348  1.2030
 4571SOL    MW418058   4.377   5.272   2.514 -0.7614  0.1284  0.4707
 4572SOL     OW18059   0.683   4.492   5.534  0.3258  0.2451 -0.0497
 4572SOL    HW218060   0.589   4.491   5.552  0.5900  1.7605  1.6227
 4572SOL    HW318061   0.706   4.584   5.527  2.0788  0.0390  1.9682
 4572SOL    MW418062   0.673   4.504   5.535 -0.8871 -0.4591 -0.0899
 4573SOL     OW18063   4.808   0.477   1.448 -0.2606 -0.4413 -0.0121
 4573SOL    HW218064   4.735   0.443   1.398 -0.0385 -2.0573  0.7094
 4573SOL    HW318065   4.781   0.566   1.473 -2.1483 -1.1374  0.5656
 4573SOL    MW418066   4.795   0.485   1.445 -0.0244 -0.3944  0.1679
 4574SOL     OW18067   1.956   2.479   4.360 -0.2853 -0.1265  0.3063
 4574SOL    HW218068   2.017   2.441   4.297 -1.0641  1.3186 -1.3952
 4574SOL    HW318069   1.899   2.536   4.308 -0.3263  1.9384  2.4515
 4574SOL    MW418070   1.956   2.481   4.345 -0.5505  0.3671 -0.3787
 4575SOL     OW18071   4.437   3.628   1.934  0.2749  0.5349  0.3770
 4575SOL    HW218072   4.345   3.606   1.947 -0.1153  0.5483 -1.9449
 4575SOL    HW318073   4.484   3.548   1.959 -0.4320  0.2387  0.7894
 4575SOL    MW418074   4.431   3.614   1.939  0.2740 -0.1237  0.0030
 4576SOL     OW18075   0.683   0.171   5.617 -0.0785  0.1979 -0.1823
 4576SOL    HW218076   0.712   0.161   5.708 -0.3128 -0.9139 -0.2087
 4576SOL    HW318077   0.753   0.221   5.575  1.0541 -1.0625  0.1251
 4576SOL    MW418078   0.696   0.176   5.624  0.1870 -0.1441 -0.6137
 4577SOL     OW18079   2.266   2.201   3.797 -0.1393 -0.5253 -0.0015
 4577SOL    HW218080   2.345   2.177   3.749  0.0449 -0.7462  0.4054
 4577SOL    HW318081   2.196   2.194   3.733  0.5559  3.0263 -1.3615
 4577SOL    MW418082   2.267   2.197   3.783 -0.5449  0.2570 -0.2720
 4578SOL     OW18083   4.181   1.120   3.856 -0.3037  0.0401  0.0966
 4578SOL    HW218084   4.243   1.075   3.913  0.1880  1.5271  0.8014
 4578SOL    HW318085   4.108   1.144   3.914 -0.3843  0.4539 -0.1687
 4578SOL    MW418086   4.179   1.118   3.871  0.4061 -0.5388 -0.0797
 4579SOL     OW18087   4.757   1.482   2.701  0.1736 -0.2834 -0.3318
 4579SOL    HW218088   4.683   1.540   2.720 -0.2299 -0.3581 -1.5743
 4579SOL    HW318089   4.758   1.475   2.606  0.6054 -1.8096 -0.2468
 4579SOL    MW418090   4.747   1.488   2.691 -0.5893 -0.0483  0.2152
 4580SOL     OW18091   6.027   3.806   6.004  0.1924  0.0052 -0.7334
 4580SOL    HW218092   5.999   3.803   6.096  1.6682  1.4416 -0.2023
 4580SOL    HW318093   5.984   3.730   5.964 -1.3321 -0.0611  0.8826
 4580SOL    MW418094   6.017   3.796   6.011 -0.4100  0.2969 -0.3834
 4581SOL     OW18095   6.060   0.606   1.788  0.3094  0.1715 -0.8836
 4581SOL    HW218096   6.022   0.627   1.703 -0.3811 -0.2161 -0.6714
 4581SOL    HW318097   6.122   0.535   1.770 -0.0555 -0.1121 -1.0134
 4581SOL    MW418098   6.063   0.599   1.775 -0.7492  0.1524  0.0238
 4582SOL     OW18099   5.236   5.368   4.275 -0.2617 -0.1795 -0.5266
 4582SOL    HW218100   5.314   5.389   4.224 -2.2526 -0.0595 -3.8324
 4582SOL    HW318101   5.193   5.452   4.290 -0.0033 -0.2827  0.8982
 4582SOL    MW418102   5.240   5.382   4.270 -0.4552 -0.1036  0.3368
 4583SOL     OW18103   1.187   2.936   3.791  0.3253  0.1358 -0.3102
 4583SOL    HW218104   1.158   2.866   3.849  2.5451 -1.2771 -0.7895
 4583SOL    HW318105   1.249   2.987   3.843 -0.6505  1.2872 -0.2318
 4583SOL    MW418106   1.191   2.933   3.806  0.4564  0.1745  0.0362
 4584SOL     OW18107   1.256   2.203   4.405  0.3545 -0.1748  0.3438
 4584SOL    HW218108   1.163   2.183   4.393  0.1657  0.2518  1.0232
 4584SOL    HW318109   1.300   2.119   4.396 -0.1307 -0.4354  0.3413
 4584SOL    MW418110   1.250   2.189   4.402  0.6252  0.1075 -0.2217
 4585SOL     OW18111   5.414   5.640   4.059  0.3323  0.0015 -0.3471
 4585SOL    HW218112   5.506   5.662   4.072  0.6523 -0.0678 -2.2004
 4585SOL    HW318113   5.369   5.678   4.134  1.7834  0.6205  0.2402
 4585SOL    MW418114   5.420   5.648   4.071 -0.1620 -0.2031 -1.0316
 4586SOL     OW18115   6.003   5.176   0.285  0.5519  0.4376  0.4870
 4586SOL    HW218116   5.991   5.111   0.216 -0.1704 -0.0316  1.0342
 4586SOL    HW318117   6.097   5.190   0.289  0.6466  0.0298 -0.1851
 4586SOL    MW418118   6.014   5.169   0.276  0.0896  0.2454  0.3702
 4587SOL     OW18119   5.352   6.114   1.378  0.3233 -0.5691 -0.4575
 4587SOL    HW218120   5.420   6.158   1.430  0.2660  1.5412 -2.0258
 4587SOL    HW318121   5.349   6.025   1.413  1.0277  0.4087  2.3845
 4587SOL    MW418122   5.361   6.108   1.389  0.4596 -0.7341 -0.0593
 4588SOL     OW18123   5.830   2.641   2.580  0.0388  0.2226  0.1360
 4588SOL    HW218124   5.878   2.678   2.654  2.0077 -0.9354 -0.4860
 4588SOL    HW318125   5.738   2.648   2.605  0.5806  1.2458  2.0128
 4588SOL    MW418126   5.824   2.647   2.593 -0.3749  0.5179  0.0489
 4589SOL     OW18127   2.349   2.820   3.120  0.5096 -0.2970 -0.3894
 4589SOL    HW218128   2.422   2.835   3.180 -1.1098  1.1869  1.3695
 4589SOL    HW318129   2.345   2.900   3.067 -1.2010  0.7604  1.1842
 4589SOL    MW418130   2.358   2.833   3.121 -0.0508  0.0847 -0.1473
 4590SOL     OW18131   0.141   4.477   5.746 -0.1466  0.1266  0.6918
 4590SOL    HW218132   0.094   4.557   5.723 -1.2649 -0.1401  1.9071
 4590SOL    HW318133   0.109   4.411   5.684  1.4328  0.7646 -0.8957
 4590SOL    MW418134   0.130   4.479   5.735 -0.0571 -0.2737  0.0990
 4591SOL     OW18135   5.099   2.716   3.794  0.2600  0.2463 -0.1613
 4591SOL    HW218136   5.099   2.732   3.700 -0.7827 -0.7153 -0.3502
 4591SOL    HW318137   5.165   2.647   3.806 -1.1799 -1.2568 -0.5339
 4591SOL    MW418138   5.108   2.709   3.783  0.0039  0.0118 -0.4398
 4592SOL     OW18139   0.257   4.108   5.721 -0.0131  0.2512  0.1979
 4592SOL    HW218140   0.313   4.174   5.763  1.4307 -0.5212 -0.4298
 4592SOL    HW318141   0.235   4.048   5.791 -0.5386  0.8632  0.5705
 4592SOL    MW418142   0.262   4.109   5.735 -0.7409 -0.4119 -0.5417
 4593SOL     OW18143   4.258   3.515   3.016  0.2959 -0.0699  0.5390
 4593SOL    HW218144   4.211   3.553   3.090  1.7627  1.4640  0.7392
 4593SOL    HW318145   4.319   3.453   3.055  0.6852  0.3319  0.5726
 4593SOL    MW418146   4.260   3.512   3.031 -0.9048 -0.2702  0.0082
 4594SOL     OW18147   3.303   2.832   5.639 -0.4309  0.2227  0.0357
 4594SOL    HW218148   3.321   2.769   5.569 -1.9932  0.7119 -0.8528
 4594SOL    HW318149   3.334   2.916   5.603  1.2798  0.0718  1.0544
 4594SOL    MW418150   3.310   2.835   5.625 -0.5738  0.1765 -0.4924
 4595SOL     OW18151   2.867   3.428   4.799  0.2715 -0.4816 -0.2279
 4595SOL    HW218152   2.779   3.401   4.774  0.3545 -0.7384 -0.2411
 4595SOL    HW318153   2.856   3.465   4.887 -0.0273  0.4731 -0.6470
 4595SOL    MW418154   2.854   3.430   4.807  0.5399 -0.4728 -0.4151
 4596SOL     OW18155   2.439   5.265   5.476  0.1673  0.2862  0.1073
 4596SOL    HW218156   2.534   5.264   5.465 -0.0636 -0.1467 -2.6222
 4596SOL    HW318157   2.409   5.334   5.417 -1.2242  0.5133  1.0372
 4596SOL    MW418158   2.448   5.274   5.467  0.2960 -0.2935  0.2363
 4597SOL     OW18159   2.086   4.246   6.023  0.0525 -0.1392 -0.1682
 4597SOL    HW218160   2.105   4.258   6.116 -0.6875 -0.8872  0.0893
 4597SOL    HW318161   2.090   4.335   5.987 -0.1881  0.2359  0.6834
 4597SOL    MW418162   2.089   4.259   6.031  0.0997  0.7794  0.0425
 4598SOL     OW18163   4.830   1.032   4.636  0.4865 -0.1603 -0.3887
 4598SOL    HW218164   4.873   0.952   4.607 -0.3513 -1.1377  0.9202
 4598SOL    HW318165   4.848   1.035   4.730  1.3739  1.7716 -0.5732
 4598SOL    MW418166   4.838   1.022   4.645  0.7110 -0.2446  0.0821
 4599SOL     OW18167   1.892   5.874   5.116  0.6684 -0.7330  0.3231
 4599SOL    HW218168   1.952   5.802   5.137  1.8160  0.1522  0.1729
 4599SOL    HW318169   1.810   5.831   5.093  1.0271 -1.9502  1.2142
 4599SOL    MW418170   1.889   5.859   5.116  0.1410 -0.1336 -0.7105
 4600SOL     OW18171   0.149   1.008   1.745  0.7859  0.4005 -0.1647
 4600SOL    HW218172   0.222   1.065   1.767  0.7582  0.1844  0.5039
 4600SOL    HW318173   0.146   0.944   1.816  1.1217 -0.7417 -1.1432
 4600SOL    MW418174   0.158   1.007   1.757  0.0514  0.1415 -0.3371
 4601SOL     OW18175   5.634   3.199   0.853 -0.5352  0.2379  0.6658
 4601SOL    HW218176   5.656   3.229   0.765 -1.3716  0.5787  0.5628
 4601SOL    HW318177   5.705   3.139   0.876 -0.5194 -0.1997 -0.4184
 4601SOL    MW418178   5.646   3.195   0.844  0.1720 -0.9009  0.5584
 4602SOL     OW18179   5.947   0.627   6.117  0.3964 -0.6198 -0.4017
 4602SOL    HW218180   5.965   0.596   6.028 -0.3724 -1.8035 -0.1821
 4602SOL    HW318181   6.019   0.592   6.169  0.2529 -0.8922 -0.3823
 4602SOL    MW418182   5.959   0.618   6.112  0.5494  0.3993 -0.3096
 4603SOL     OW18183   1.301   3.948   0.411  0.0600 -0.3894  0.0314
 4603SOL    HW218184   1.224   3.992   0.448  1.0329  1.4589 -0.0474
 4603SOL    HW318185   1.293   3.858   0.442 -1.0974  0.2258  1.7054
 4603SOL    MW418186   1.289   3.942   0.420  0.2620  0.6851 -0.4507
 4604SOL     OW18187   2.116   5.701   5.161 -0.2614  0.9936  0.1425
 4604SOL    HW218188   2.089   5.614   5.131 -0.9476  1.2239  0.0852
 4604SOL    HW318189   2.151   5.686   5.249 -1.2716  0.7975  0.5233
 4604SOL    MW418190   2.117   5.687   5.168 -0.1009  0.7359  0.2561
 4605SOL     OW18191   5.565   6.150   1.187 -0.4607  0.1130  0.0081
 4605SOL    HW218192   5.564   6.220   1.122 -0.5246 -1.3402 -1.6032
 4605SOL    HW318193   5.484   6.163   1.237 -0.2527  1.4386  0.0479
 4605SOL    MW418194   5.554   6.161   1.185 -0.3572  0.2874  0.4430
 4606SOL     OW18195   2.854   0.259   5.705 -0.2669 -0.0049  0.6392
 4606SOL    HW218196   2.896   0.307   5.777 -1.5347  0.0127  1.4026
 4606SOL    HW318197   2.760   0.277   5.716 -0.5516 -0.6815 -0.5329
 4606SOL    MW418198   2.847   0.268   5.716 -0.2364  0.1998  0.6834
 4607SOL     OW18199   6.351   0.407   3.693  0.4528  0.0118  0.1037
 4607SOL    HW218200   6.305   0.430   3.774 -0.0138 -0.9980  0.1428
 4607SOL    HW318201   6.343   0.485   3.638  0.1951  0.4720  0.7769
 4607SOL    MW418202   6.344   0.421   3.697 -0.1213  0.3816  0.6118
 4608SOL     OW18203   6.335   0.106   4.410 -0.7179 -0.4031 -0.1133
 4608SOL    HW218204   6.261   0.138   4.462  0.9756  1.2453  1.4246
 4608SOL    HW318205   6.367   0.183   4.363  0.2092 -1.0255 -0.5321
 4608SOL    MW418206   6.329   0.120   4.411 -0.1957 -0.1837  0.7567
 4609SOL     OW18207   2.599   2.276   1.807  0.1132  0.6257 -0.0341
 4609SOL    HW218208   2.610   2.355   1.859 -1.9041  0.1828  1.1703
 4609SOL    HW318209   2.509   2.282   1.773 -0.2103 -1.2876  0.3665
 4609SOL    MW418210   2.589   2.287   1.809 -0.2178 -0.1952  0.5298
 4610SOL     OW18211   3.481   1.770   6.094 -0.4508  0.5839 -0.3724
 4610SOL    HW218212   3.568   1.790   6.060  0.3584 -0.6950  0.8517
 4610SOL    HW318213   3.449   1.854   6.127 -0.3511  1.3857 -2.2085
 4610SOL    MW418214   3.488   1.784   6.094 -0.0870  0.1934  0.6894
 4611SOL     OW18215   2.254   1.063   1.295 -0.0126  0.0258  0.3405
 4611SOL    HW218216   2.231   1.155   1.306 -1.6657 -0.5392  2.0293
 4611SOL    HW318217   2.347   1.059   1.321 -0.1558  1.0842  1.1017
 4611SOL    MW418218   2.263   1.075   1.300 -0.4702  0.3280 -0.0709
 4612SOL     OW18219   4.609   2.567   1.779 -0.3623 -0.0408 -0.1764
 4612SOL    HW218220   4.537   2.601   1.726  0.1484  0.2492 -0.7052
 4612SOL    HW318221   4.609   2.473   1.763  0.7673  0.2007 -2.0080
 4612SOL    MW418222   4.600   2.559   1.770  0.3470 -1.1582  0.1134
 4613SOL     OW18223   2.690   4.405   4.738  0.1838 -0.2197 -0.0994
 4613SOL    HW218224   2.629   4.332   4.748 -1.3901  0.9098 -0.9313
 4613SOL    HW318225   2.693   4.445   4.825 -0.2325 -0.3242 -0.0336
 4613SOL    MW418226   2.682   4.401   4.751 -0.2422 -0.0358  0.4355
 4614SOL     OW18227   0.648   0.526   3.663 -0.5560  0.9188 -0.0507
 4614SOL    HW218228   0.621   0.598   3.606 -1.6265  1.1181  0.6988
 4614SOL    HW318229   0.669   0.567   3.746  0.9402  0.6156 -0.2541
 4614SOL    MW418230   0.647   0.541   3.666  0.1579 -0.3992  0.1549
 4615SOL     OW18231   3.228   3.582   3.163  0.2119 -0.1596 -0.8217
 4615SOL    HW218232   3.284   3.625   3.098  0.5461  1.3719  0.4376
 4615SOL    HW318233   3.289   3.552   3.231 -0.4275  1.5050  0.5557
 4615SOL    MW418234   3.244   3.584   3.163  0.2622 -0.0898 -0.0707
 4616SOL     OW18235   4.302   3.281   1.856 -0.0137 -0.4999  0.2510
 4616SOL    HW218236   4.242   3.333   1.910  0.2854 -0.7489  0.8323
 4616SOL    HW318237   4.278   3.190   1.875 -0.7761 -0.5852 -1.0370
 4616SOL    MW418238   4.291   3.276   1.866 -0.1765 -0.5853  0.3960
 4617SOL     OW18239   1.090   3.288   2.972  0.2158 -0.3659 -0.4872
 4617SOL    HW218240   1.053   3.205   3.004  0.2415 -0.3324 -0.3679
 4617SOL    HW318241   1.042   3.306   2.891 -0.5418  0.0396  0.0385
 4617SOL    MW418242   1.079   3.279   2.966  0.3276 -0.6501 -0.3309
 4618SOL     OW18243   5.199   4.531   2.423  0.4701 -0.1895 -0.0194
 4618SOL    HW218244   5.153   4.563   2.345  0.7854  2.5588  0.8170
 4618SOL    HW318245   5.217   4.439   2.404 -1.2910 -0.1617 -2.2923
 4618SOL    MW418246   5.195   4.523   2.410 -0.4600  0.1013 -0.2930
 4619SOL     OW18247   4.906   5.390   0.829  0.4658 -0.1184  0.3551
 4619SOL    HW218248   4.826   5.373   0.779  0.4580  1.1751 -0.1341
 4619SOL    HW318249   4.881   5.374   0.920  0.5034 -2.5870 -0.0040
 4619SOL    MW418250   4.892   5.386   0.834 -0.0488  0.1344 -0.2305
 4620SOL     OW18251   2.909   2.422   3.596 -0.0074  0.7220  0.0144
 4620SOL    HW218252   2.815   2.408   3.585 -0.5301  4.1618 -1.0270
 4620SOL    HW318253   2.918   2.447   3.689 -0.2682  1.1197 -0.0615
 4620SOL    MW418254   2.897   2.424   3.607 -0.3623  0.0573 -0.0994
 4621SOL     OW18255   4.675   5.322   3.436 -0.0562  0.4281  0.0422
 4621SOL    HW218256   4.718   5.309   3.520  3.1715  0.9661 -1.3581
 4621SOL    HW318257   4.669   5.417   3.426  2.3262  0.5159 -1.4487
 4621SOL    MW418258   4.680   5.333   3.446 -0.2480 -0.2309 -0.2678
 4622SOL     OW18259   4.955   0.561   5.742 -0.1218 -0.1699  0.1713
 4622SOL    HW218260   4.911   0.562   5.827 -1.6346 -0.2796 -0.5762
 4622SOL    HW318261   4.941   0.649   5.707 -0.6184 -0.5074 -0.5007
 4622SOL    MW418262   4.948   0.573   5.749 -0.1759  0.1146  0.7453
 4623SOL     OW18263   0.219   5.075   0.145 -0.0873 -0.1071  0.3746
 4623SOL    HW218264   0.264   5.018   0.083 -0.5593  0.7715 -0.8281
 4623SOL    HW318265   0.211   5.023   0.224 -0.0117 -1.5004 -0.4936
 4623SOL    MW418266   0.224   5.061   0.147 -0.0865  0.6281 -0.3057
 4624SOL     OW18267   3.765   2.090   5.143 -0.1452  0.0891 -0.0777
 4624SOL    HW218268   3.689   2.040   5.113 -0.4739  0.0578  0.7669
 4624SOL    HW318269   3.834   2.025   5.153 -0.5282 -0.1947  0.8719
 4624SOL    MW418270   3.764   2.075   5.140  0.3006  0.0273  0.3737
 4625SOL     OW18271   6.168   4.314   0.977 -0.6874 -0.2195  0.1472
 4625SOL    HW218272   6.263   4.300   0.978 -0.5284  0.8139  0.2684
 4625SOL    HW318273   6.157   4.409   0.980 -1.6838 -0.1987 -1.9287
 4625SOL    MW418274   6.179   4.324   0.977 -0.4952 -0.7484  0.4038
 4626SOL     OW18275   4.408   6.241   2.501 -0.0181  0.6340 -0.0529
 4626SOL    HW218276   4.431   6.220   2.591 -0.1633 -0.3805 -0.2377
 4626SOL    HW318277   4.318   6.209   2.491  0.4157 -0.4097 -0.8972
 4626SOL    MW418278   4.399   6.234   2.511  0.2490  0.1866 -0.7062
 4627SOL     OW18279   5.416   5.185   4.610 -0.0645  0.2848 -0.0954
 4627SOL    HW218280   5.331   5.215   4.576 -0.8225 -0.6856  0.8578
 4627SOL    HW318281   5.393   5.123   4.679  1.4405 -0.5455 -0.3016
 4627SOL    MW418282   5.401   5.181   4.615 -0.1281 -0.5085 -0.1737
 4628SOL     OW18283   4.893   1.201   3.114 -0.1640  0.0912  0.3404
 4628SOL    HW218284   4.989   1.205   3.110 -0.0650 -1.7369  0.0607
 4628SOL    HW318285   4.864   1.221   3.024  0.1307 -2.0004 -0.2770
 4628SOL    MW418286   4.902   1.204   3.101 -0.6587  0.1948 -0.2615
 4629SOL     OW18287   6.392   3.728   4.943 -0.3094  0.2043  0.1607
 4629SOL    HW218288   6.454   3.656   4.942 -1.6577 -1.0182 -1.0998
 4629SOL    HW318289   6.384   3.752   5.035 -0.0840 -1.5003  0.6621
 4629SOL    MW418290   6.399   3.722   4.955  0.4176  0.0530  0.2189
 4630SOL     OW18291   1.619   2.086   5.688 -0.2143  0.5910 -0.4291
 4630SOL    HW218292   1.544   2.031   5.664  0.2989 -0.6619  0.7210
 4630SOL    HW318293   1.696   2.032   5.669  0.3036  0.9082  0.6863
 4630SOL    MW418294   1.619   2.071   5.682 -0.1620  0.0658 -0.0782
 4631SOL     OW18295   1.853   0.753   3.509 -0.1738 -0.3308  0.1057
 4631SOL    HW218296   1.813   0.698   3.576  1.1104 -1.1899  0.2071
 4631SOL    HW318297   1.804   0.835   3.512 -0.3896 -0.4905  1.8318
 4631SOL    MW418298   1.842   0.756   3.518 -0.0837 -0.4455 -0.3964
 4632SOL     OW18299   1.445   4.520   1.171  0.3112 -0.3755  0.5921
 4632SOL    HW218300   1.474   4.597   1.221 -0.5603 -0.5269  1.3666
 4632SOL    HW318301   1.383   4.476   1.229 -0.5551 -0.6958 -0.5387
 4632SOL    MW418302   1.441   4.525   1.185 -0.2895  0.1018  0.1287
 4633SOL     OW18303   3.498   0.177   4.855 -0.2923  0.2397  0.4230
 4633SOL    HW218304   3.553   0.100   4.838 -0.9522 -0.3867  0.9951
 4633SOL    HW318305   3.556   0.252   4.842  0.1162 -0.3111 -1.1036
 4633SOL    MW418306   3.513   0.176   4.851  0.6670  0.3962  0.4051
 4634SOL     OW18307   0.555   1.433   6.096  1.0796  0.2490  0.1157
 4634SOL    HW218308   0.485   1.478   6.143  0.5838  0.5918 -0.9215
 4634SOL    HW318309   0.599   1.380   6.163  0.1586  0.4256  0.8815
 4634SOL    MW418310   0.551   1.432   6.111  0.7063  0.4587  0.6218
 4635SOL     OW18311   2.654   0.569   4.171  0.7234  0.5559  0.2343
 4635SOL    HW218312   2.711   0.507   4.125 -0.1996 -1.7270  1.9456
 4635SOL    HW318313   2.627   0.631   4.104  0.3366 -1.9338 -2.1006
 4635SOL    MW418314   2.658   0.569   4.156  0.2714  0.2024 -0.1043
 4636SOL     OW18315   2.413   3.114   0.939  0.0943 -0.8033  0.2146
 4636SOL    HW218316   2.324   3.120   0.975  0.1601 -2.6483  0.8259
 4636SOL    HW318317   2.411   3.036   0.884  0.8716  0.1916 -1.2956
 4636SOL    MW418318   2.401   3.104   0.937 -0.2387  0.2384  0.2456
 4637SOL     OW18319   3.306   2.653   4.928 -0.0075 -0.3443  0.0251
 4637SOL    HW218320   3.223   2.630   4.886  0.3520 -1.0819 -0.3167
 4637SOL    HW318321   3.338   2.729   4.879 -1.1752  0.8884  1.1095
 4637SOL    MW418322   3.299   2.660   4.916 -0.1708 -0.1892 -0.6460
 4638SOL     OW18323   4.319   4.744   1.635 -0.9152 -0.3151  0.2566
 4638SOL    HW218324   4.285   4.768   1.721 -3.1594  2.2138 -1.1664
 4638SOL    HW318325   4.245   4.758   1.575  1.0836 -0.0884 -2.3513
 4638SOL    MW418326   4.304   4.749   1.638  0.4415 -0.8520 -0.3599
 4639SOL     OW18327   1.923   0.312   1.299  0.1233 -0.2202 -0.1172
 4639SOL    HW218328   1.969   0.261   1.365  0.2650 -0.8607 -0.7098
 4639SOL    HW318329   1.988   0.328   1.231 -0.1259  0.1187 -0.2795
 4639SOL    MW418330   1.938   0.308   1.299  0.2213 -0.2887  0.4410
 4640SOL     OW18331   3.066   2.574   5.500 -0.5524 -0.2290  0.2367
 4640SOL    HW218332   3.109   2.612   5.577  0.0348  0.1836 -0.2917
 4640SOL    HW318333   3.133   2.573   5.432 -1.6651  1.6246 -1.0077
 4640SOL    MW418334   3.080   2.579   5.501  0.1037  0.8701  0.1778
 4641SOL     OW18335   2.169   0.946   2.058 -0.2492  0.1234  0.2078
 4641SOL    HW218336   2.110   0.872   2.066 -0.4020  0.2216 -0.0120
 4641SOL    HW318337   2.130   1.015   2.112  1.2686 -0.8029  2.6399
 4641SOL    MW418338   2.156   0.945   2.066 -0.4366 -0.7258 -0.1290
 4642SOL     OW18339   4.347   1.494   1.438 -0.5508 -0.6516  0.0402
 4642SOL    HW218340   4.354   1.485   1.533  0.0051  0.2181  0.0968
 4642SOL    HW318341   4.433   1.527   1.411 -1.7595  2.5817 -0.3039
 4642SOL    MW418342   4.359   1.497   1.447 -0.0732 -0.1849  0.0298
 4643SOL     OW18343   1.632   4.968   2.795 -0.3117 -0.4249  0.4688
 4643SOL    HW218344   1.621   4.878   2.762  0.3195 -0.0378 -0.8690
 4643SOL    HW318345   1.560   4.979   2.857 -0.8726 -1.5921  0.0701
 4643SOL    MW418346   1.621   4.957   2.799 -0.4206  0.9746  0.0642
 4644SOL     OW18347   1.502   3.724   5.024 -0.0652  0.1373  0.3110
 4644SOL    HW218348   1.440   3.728   4.951  0.9898  0.7511 -0.5877
 4644SOL    HW318349   1.466   3.782   5.090  0.7215  2.4697 -1.1799
 4644SOL    MW418350   1.489   3.732   5.023  0.4189  0.7338  0.0980
 4645SOL     OW18351   4.383   0.908   0.805 -0.2788 -0.3546 -0.4194
 4645SOL    HW218352   4.455   0.852   0.776 -1.2879 -2.4342  0.8135
 4645SOL    HW318353   4.399   0.919   0.899 -1.6152 -1.0064 -0.0899
 4645SOL    MW418354   4.395   0.902   0.814 -0.1612  0.7355 -0.2758
 4646SOL     OW18355   0.727   0.465   2.845  0.2073 -0.5054 -0.4107
 4646SOL    HW218356   0.801   0.428   2.797 -0.5735 -2.0778 -0.4612
 4646SOL    HW318357   0.731   0.559   2.826  0.3285 -0.9610 -3.0302
 4646SOL    MW418358   0.737   0.473   2.836 -0.2164 -0.0699  0.0782
 4647SOL     OW18359   5.065   6.248   0.619  0.1091 -0.4313  0.1594
 4647SOL    HW218360   5.009   6.185   0.575  0.5567 -0.5375 -0.2713
 4647SOL    HW318361   5.033   6.334   0.589  1.3331 -0.5241 -1.5797
 4647SOL    MW418362   5.054   6.251   0.609  0.0552  0.7611 -0.7369
 4648SOL     OW18363   1.783   2.900   6.361 -0.0388  0.3300  0.7069
 4648SOL    HW218364   1.729   2.972   6.329 -2.8467 -1.3473  1.3916
 4648SOL    HW318365   1.810   2.927   6.449 -2.3039  0.0099  1.5572
 4648SOL    MW418366   1.780   2.913   6.368  0.3804 -0.3215 -0.1015
 4649SOL     OW18367   2.934   4.393   4.633  0.0322 -0.0773 -0.4789
 4649SOL    HW218368   2.977   4.332   4.693  0.0053  1.3407  1.0820
 4649SOL    HW318369   2.855   4.420   4.681  0.1900  1.3626 -0.9874
 4649SOL    MW418370   2.929   4.389   4.647 -0.4396 -0.0990 -0.0717
 4650SOL     OW18371   1.250   5.414   1.047  0.1362 -0.2778 -0.1610
 4650SOL    HW218372   1.199   5.495   1.050 -1.6387 -1.3658  1.4849
 4650SOL    HW318373   1.339   5.443   1.026 -0.5123  2.0403 -0.0694
 4650SOL    MW418374   1.255   5.429   1.045 -0.3340 -0.7249 -0.4915
 4651SOL     OW18375   3.626   3.579   4.444  0.2065 -0.9969 -0.3655
 4651SOL    HW218376   3.696   3.548   4.387  1.8103  0.7492  0.5306
 4651SOL    HW318377   3.636   3.530   4.525  0.5075 -0.6553 -0.1905
 4651SOL    MW418378   3.636   3.569   4.447  0.4029 -0.3938  0.1586
 4652SOL     OW18379   3.233   5.110   4.371  0.3166 -0.2980  0.1430
 4652SOL    HW218380   3.218   5.202   4.393  2.1044 -0.4100  2.1448
 4652SOL    HW318381   3.322   5.108   4.336  1.0266 -1.4950  1.9177
 4652SOL    MW418382   3.243   5.122   4.369 -0.1383 -0.3211 -0.3818
 4653SOL     OW18383   5.428   0.470   4.933  0.1229  0.0094  0.4535
 4653SOL    HW218384   5.489   0.397   4.925  0.0965  0.0603 -0.3960
 4653SOL    HW318385   5.445   0.524   4.856  0.9530  1.5467  1.6671
 4653SOL    MW418386   5.438   0.468   4.921  0.2744 -0.3038  0.2431
 4654SOL     OW18387   1.057   1.153   3.500  0.0130  0.3889 -0.1895
 4654SOL    HW218388   1.149   1.178   3.493  0.0518  0.3889  0.3081
 4654SOL    HW318389   1.048   1.078   3.440  0.3512  0.3434 -0.1855
 4654SOL    MW418390   1.068   1.146   3.491  0.1363  0.2703  0.6625
 4655SOL     OW18391   4.052   3.789   2.908 -0.3299 -0.0274  0.1025
 4655SOL    HW218392   4.097   3.854   2.854  0.0989  1.3059  1.9496
 4655SOL    HW318393   3.979   3.837   2.947 -1.9111 -1.5240 -0.9141
 4655SOL    MW418394   4.048   3.804   2.906  0.3339  0.4725  0.0004
 4656SOL     OW18395   5.915   3.736   2.903 -0.1359  0.1238  0.4535
 4656SOL    HW218396   5.849   3.669   2.925  1.1373 -0.7876  1.6731
 4656SOL    HW318397   5.873   3.819   2.926 -1.1311 -0.3737  0.5052
 4656SOL    MW418398   5.901   3.738   2.909 -1.0595  0.2218 -0.2136
 4657SOL     OW18399   0.974   3.518   3.953  0.4603  0.3241 -0.3999
 4657SOL    HW218400   0.909   3.523   3.883 -0.6958 -1.9240  0.4220
 4657SOL    HW318401   0.922   3.513   4.034  1.6344 -1.2157  0.3111
 4657SOL    MW418402   0.959   3.518   3.955 -0.8717 -0.3381 -0.0419
 4658SOL     OW18403   3.724   1.554   1.801  0.2098 -0.0849 -0.1860
 4658SOL    HW218404   3.654   1.489   1.795  0.8944 -0.8685  0.0845
 4658SOL    HW318405   3.700   1.621   1.737  0.6150 -1.7117 -2.1426
 4658SOL    MW418406   3.712   1.554   1.791 -0.1367 -0.7051  0.2481
 4659SOL     OW18407   2.456   1.143   2.428  0.1956  0.1062  0.0837
 4659SOL    HW218408   2.438   1.127   2.335 -0.7398  1.2202  0.0480
 4659SOL    HW318409   2.551   1.133   2.436  0.5510  1.7762 -1.3829
 4659SOL    MW418410   2.466   1.139   2.416 -0.3739 -0.3369 -0.3270
 4660SOL     OW18411   3.942   4.411   3.890 -0.0973 -0.4232  0.1480
 4660SOL    HW218412   4.001   4.336   3.880 -0.3705 -0.9533  2.0860
 4660SOL    HW318413   3.872   4.378   3.946  0.8369  1.8183  2.7997
 4660SOL    MW418414   3.940   4.396   3.896  0.4431 -0.3844 -0.2634
 4661SOL     OW18415   4.585   5.645   0.108  0.1961 -0.3296 -0.1909
 4661SOL    HW218416   4.530   5.611   0.179  0.7060 -0.3352  0.2063
 4661SOL    HW318417   4.529   5.639   0.031 -0.5530  0.1797  0.2975
 4661SOL    MW418418   4.570   5.640   0.107  0.1876 -0.6535  0.4127
 4662SOL     OW18419   3.914   0.532   3.112  0.5267 -0.2477  0.2752
 4662SOL    HW218420   3.948   0.557   3.026 -0.5331  0.9293  0.1661
 4662SOL    HW318421   3.976   0.569   3.175  0.5636  0.0929  0.0387
 4662SOL    MW418422   3.927   0.540   3.109  0.0121 -0.2385  0.1187
 4663SOL     OW18423   5.187   1.262   6.333  0.3758  0.0819 -0.2867
 4663SOL    HW218424   5.093   1.260   6.351  0.4877 -0.7644  0.2595
 4663SOL    HW318425   5.210   1.355   6.336 -0.6739  0.4179 -1.7246
 4663SOL    MW418426   5.178   1.274   6.336  0.0129  0.0278  0.2002
 4664SOL     OW18427   0.246   5.005   4.398 -0.5129 -0.4819 -0.3025
 4664SOL    HW218428   0.294   5.076   4.441 -2.4890  0.6858  0.0846
 4664SOL    HW318429   0.217   4.949   4.470 -2.9873  0.9451 -0.0902
 4664SOL    MW418430   0.249   5.007   4.413  0.3360  0.4047 -0.6886
 4665SOL     OW18431   2.886   4.612   1.943 -0.0814 -0.0483 -0.2435
 4665SOL    HW218432   2.894   4.636   1.850  0.5759  1.0966  0.0932
 4665SOL    HW318433   2.799   4.643   1.968  0.0234  0.2936 -0.2966
 4665SOL    MW418434   2.875   4.619   1.934 -0.2667 -0.0748  0.0699
 4666SOL     OW18435   3.323   1.352   1.309  0.1640 -0.0283 -0.2078
 4666SOL    HW218436   3.340   1.393   1.224 -1.0996  0.3916 -0.2798
 4666SOL    HW318437   3.353   1.262   1.299 -0.8781 -0.2666 -1.4482
 4666SOL    MW418438   3.329   1.346   1.297  0.1808 -0.2085 -0.4671
 4667SOL     OW18439   4.629   1.847   1.881  0.0737  0.3528 -0.0627
 4667SOL    HW218440   4.690   1.776   1.900 -0.7018 -0.3097  0.0308
 4667SOL    HW318441   4.623   1.849   1.786 -2.0209 -1.6217 -0.0559
 4667SOL    MW418442   4.636   1.838   1.871 -0.4073 -0.4556 -0.2281
 4668SOL     OW18443   1.598   3.376   0.529 -0.8580 -0.6014 -0.2625
 4668SOL    HW218444   1.552   3.427   0.463  0.2457 -0.3951 -0.9026
 4668SOL    HW318445   1.689   3.406   0.524 -0.8522 -0.1637  1.7713
 4668SOL    MW418446   1.604   3.387   0.520 -0.4344  0.5066 -0.1189
 4669SOL     OW18447   4.796   4.817   5.318 -0.2984  0.3509 -0.4173
 4669SOL    HW218448   4.708   4.790   5.291 -0.1667  1.0336 -1.6229
 4669SOL    HW318449   4.785   4.849   5.407 -0.7670 -2.0302  0.4586
 4669SOL    MW418450   4.783   4.818   5.326 -0.5095  0.7928  0.3749
 4670SOL     OW18451   2.514   5.669   1.002 -0.2481  0.0164 -1.0343
 4670SOL    HW218452   2.505   5.745   0.945  0.9036  1.5120  0.6981
 4670SOL    HW318453   2.424   5.640   1.018 -0.9144  2.5006  0.1973
 4670SOL    MW418454   2.501   5.675   0.996  0.0685  0.4004 -0.4746
 4671SOL     OW18455   0.558   4.169   2.840  0.2190 -0.5405  0.1456
 4671SOL    HW218456   0.546   4.254   2.798  2.1246  0.4704  1.4664
 4671SOL    HW318457   0.506   4.174   2.920  0.0681 -0.7526  0.0612
 4671SOL    MW418458   0.550   4.181   2.845  0.4490  0.2386  0.0428
 4672SOL     OW18459   5.954   6.302   3.728 -0.1718  0.3964  0.2356
 4672SOL    HW218460   5.889   6.243   3.689  0.0251  0.2694  0.0973
 4672SOL    HW318461   6.014   6.321   3.656  0.8902 -0.7966  0.7751
 4672SOL    MW418462   5.953   6.297   3.713  0.7389 -0.0891  0.3622
 4673SOL     OW18463   0.836   0.190   2.067  0.4512  0.0364  0.3191
 4673SOL    HW218464   0.745   0.217   2.082  0.0298 -0.9662 -0.3546
 4673SOL    HW318465   0.876   0.267   2.026 -1.1525 -0.7464 -3.0558
 4673SOL    MW418466   0.829   0.204   2.064 -0.5296 -0.1623 -0.5968
 4674SOL     OW18467   5.975   0.816   5.337  0.3166  0.4389 -0.4089
 4674SOL    HW218468   6.048   0.878   5.340  1.4086 -0.7952 -0.2187
 4674SOL    HW318469   5.986   0.771   5.253 -0.6451  0.7055 -0.6878
 4674SOL    MW418470   5.986   0.818   5.326 -0.0405  0.2380  0.3475
 4675SOL     OW18471   3.171   1.260   3.658 -0.4161  0.0372 -0.1865
 4675SOL    HW218472   3.104   1.303   3.711 -0.3189 -0.5202  0.3920
 4675SOL    HW318473   3.205   1.190   3.714 -1.3599 -1.5370 -1.4875
 4675SOL    MW418474   3.167   1.256   3.672 -0.0010 -0.3261 -0.5397
 4676SOL     OW18475   0.543   5.103   6.127  0.0036  0.0781 -0.6749
 4676SOL    HW218476   0.513   5.110   6.037  1.8280 -1.0343 -1.4329
 4676SOL    HW318477   0.610   5.172   6.135  0.7964 -0.6774 -0.6264
 4676SOL    MW418478   0.548   5.113   6.116  0.6559 -0.8114  0.1068
 4677SOL     OW18479   3.003   6.017   2.584  0.2064 -0.3241 -0.5429
 4677SOL    HW218480   2.992   6.105   2.547  1.9293  0.0214 -0.3619
 4677SOL    HW318481   2.982   6.027   2.677 -1.6748 -0.6254 -0.8936
 4677SOL    MW418482   2.999   6.030   2.591  0.1782  0.1429  0.4713
 4678SOL     OW18483   4.005   3.301   6.394  0.4324  0.0399  0.0251
 4678SOL    HW218484   3.966   3.365   6.454  0.5428  0.6258 -0.5222
 4678SOL    HW318485   4.067   3.253   6.449  0.8409  0.8498  0.2968
 4678SOL    MW418486   4.008   3.303   6.409  0.1058  0.0059  0.2888
 4679SOL     OW18487   1.634   4.673   5.128  0.6269 -0.4668 -0.6480
 4679SOL    HW218488   1.653   4.595   5.075  1.6953 -0.2413 -0.6072
 4679SOL    HW318489   1.686   4.661   5.208  1.3794  0.6360 -0.9562
 4679SOL    MW418490   1.643   4.661   5.132  0.3876  0.0288 -0.1359
 4680SOL     OW18491   5.586   3.598   1.555 -0.2758  0.2005 -0.0683
 4680SOL    HW218492   5.618   3.514   1.522 -0.4490  0.0736  0.0833
 4680SOL    HW318493   5.497   3.579   1.585 -0.3793  0.4774 -0.1959
 4680SOL    MW418494   5.578   3.584   1.555 -0.2435 -0.0655 -0.3700
 4681SOL     OW18495   1.316   4.931   2.895 -0.7660 -0.3183 -0.2970
 4681SOL    HW218496   1.292   5.009   2.846 -0.5657  0.3736  0.6836
 4681SOL    HW318497   1.241   4.872   2.885 -1.5585  0.5884  0.1649
 4681SOL    MW418498   1.303   4.933   2.887  0.0286  0.1478  0.3420
 4682SOL     OW18499   5.959   0.225   4.380  0.4057 -0.2525  0.4194
 4682SOL    HW218500   6.016   0.182   4.444  0.2628 -0.7989  0.1833
 4682SOL    HW318501   5.871   0.202   4.408  0.3271 -0.0809  0.3099
 4682SOL    MW418502   5.955   0.216   4.392  0.3473 -0.3831  0.0585
 4683SOL     OW18503   4.739   6.125   6.127 -0.2330 -0.1547  0.0800
 4683SOL    HW218504   4.792   6.046   6.127 -0.5703 -0.3984 -1.0573
 4683SOL    HW318505   4.802   6.197   6.136  0.3053 -0.4434 -1.1282
 4683SOL    MW418506   4.754   6.124   6.128 -0.0885  0.1205 -0.0214
 4684SOL     OW18507   5.245   0.796   5.955 -0.3445  0.6650  0.0423
 4684SOL    HW218508   5.209   0.716   5.916 -0.7309  1.6477 -1.7412
 4684SOL    HW318509   5.191   0.813   6.031 -1.2192  0.0356 -0.4244
 4684SOL    MW418510   5.233   0.787   5.960  0.6247  0.5898  0.2713
 4685SOL     OW18511   6.407   0.684   2.176 -0.1153 -0.0858  0.4436
 4685SOL    HW218512   6.440   0.595   2.176 -1.5926 -0.7096  1.9308
 4685SOL    HW318513   6.318   0.677   2.141  0.0336  0.9421 -0.1893
 4685SOL    MW418514   6.399   0.672   2.172  0.3321 -0.0240 -0.6081
 4686SOL     OW18515   3.786   2.911   5.932 -0.2034  0.0089 -0.1050
 4686SOL    HW218516   3.776   2.848   6.004  1.5756  0.1179  0.2720
 4686SOL    HW318517   3.730   2.984   5.957 -0.5493 -0.4750  0.5682
 4686SOL    MW418518   3.777   2.912   5.945 -0.9014  0.3697 -0.3566
 4687SOL     OW18519   4.453   4.537   0.761  1.1803  0.1798 -0.0692
 4687SOL    HW218520   4.437   4.490   0.843 -1.4688 -0.4183 -0.8530
 4687SOL    HW318521   4.495   4.619   0.788  1.8288 -0.6829  1.7084
 4687SOL    MW418522   4.457   4.542   0.776 -0.1493  0.2924 -0.3917
 4688SOL     OW18523   2.820   1.225   2.503  0.4391 -0.3052 -0.0823
 4688SOL    HW218524   2.837   1.148   2.449  1.3832  0.5922 -1.1129
 4688SOL    HW318525   2.773   1.191   2.579 -0.5980 -1.6684 -1.2666
 4688SOL    MW418526   2.816   1.210   2.506  0.4955  0.6597  0.1493
 4689SOL     OW18527   2.956   4.127   0.392 -0.0232  0.3048  0.1987
 4689SOL    HW218528   2.965   4.096   0.482 -1.5489  2.1509  1.0714
 4689SOL    HW318529   3.018   4.075   0.342 -0.1676 -1.8013  2.0549
 4689SOL    MW418530   2.965   4.116   0.397  0.4225  0.0878  0.1796
 4690SOL     OW18531   5.530   1.566   4.802  0.2839  0.0483  0.2218
 4690SOL    HW218532   5.480   1.484   4.798 -0.4346  0.4913  0.0896
 4690SOL    HW318533   5.615   1.540   4.838 -0.0098 -0.7215  0.3720
 4690SOL    MW418534   5.535   1.551   4.806  0.2463 -0.0189 -0.2971
 4691SOL     OW18535   4.155   1.676   5.292 -0.2378  0.0377 -0.5537
 4691SOL    HW218536   4.101   1.753   5.273 -0.9607 -0.7182 -1.6296
 4691SOL    HW318537   4.106   1.629   5.360 -1.6483 -1.3115 -2.4180
 4691SOL    MW418538   4.142   1.680   5.299 -0.3363 -0.5904 -0.2313
 4692SOL     OW18539   3.135   0.894   1.659 -0.0767 -0.2069  0.3343
 4692SOL    HW218540   3.218   0.877   1.616 -0.8853 -1.5072 -0.8077
 4692SOL    HW318541   3.130   0.829   1.730 -0.7150 -1.0798 -0.4907
 4692SOL    MW418542   3.145   0.883   1.663 -0.1503 -0.9316  0.2310
 4693SOL     OW18543   1.379   3.871   2.674 -0.3500  0.2939  0.1396
 4693SOL    HW218544   1.410   3.946   2.724 -0.9285  0.6613 -0.0434
 4693SOL    HW318545   1.322   3.909   2.607  0.4710 -0.1820 -0.8578
 4693SOL    MW418546   1.375   3.886   2.672 -0.3713 -0.1225 -0.9258
 4694SOL     OW18547   5.532   0.929   0.767  0.4616 -0.4326 -0.2249
 4694SOL    HW218548   5.591   0.866   0.724 -0.3318 -0.4309 -1.3754
 4694SOL    HW318549   5.561   0.930   0.858  1.8925 -0.8242 -0.6359
 4694SOL    MW418550   5.544   0.921   0.773  0.0883  0.1741  0.4547
 4695SOL     OW18551   5.710   6.099   5.304  0.1633  0.5909 -0.3098
 4695SOL    HW218552   5.650   6.121   5.233 -1.1912 -0.2167  0.5441
 4695SOL    HW318553   5.704   6.004   5.312 -0.0600  0.7055  1.1704
 4695SOL    MW418554   5.702   6.089   5.295  0.4017 -0.2599 -0.3436
 4696SOL     OW18555   2.312   2.696   1.383 -0.5562  0.0795  0.0886
 4696SOL    HW218556   2.315   2.609   1.422  0.1208  0.8945  2.0025
 4696SOL    HW318557   2.220   2.719   1.381 -0.6544 -0.2604  0.6073
 4696SOL    MW418558   2.301   2.688   1.388 -0.0694  0.0678 -0.2736
 4697SOL     OW18559   5.280   3.847   4.493  0.0905 -0.3241 -0.2901
 4697SOL    HW218560   5.209   3.870   4.433 -1.6342 -1.2748  1.2834
 4697SOL    HW318561   5.236   3.815   4.572  2.2250 -2.8635  0.0323
 4697SOL    MW418562   5.265   3.846   4.495  0.5843 -0.1127 -0.1976
 4698SOL     OW18563   0.872   3.928   3.422 -0.2465  0.1720  0.1726
 4698SOL    HW218564   0.923   3.907   3.500 -1.1661 -0.1099  0.7227
 4698SOL    HW318565   0.865   3.845   3.375  0.7515  0.4527 -0.4965
 4698SOL    MW418566   0.878   3.914   3.426 -0.7483  0.7912  0.6295
 4699SOL     OW18567   5.276   1.221   2.812 -0.3556  0.3047  0.4610
 4699SOL    HW218568   5.211   1.174   2.759 -0.1657  0.9869 -0.3910
 4699SOL    HW318569   5.359   1.176   2.794 -0.5085 -0.3287  1.2600
 4699SOL    MW418570   5.278   1.209   2.803 -0.3289  0.2213 -0.3235
 4700SOL     OW18571   0.355   0.168   4.718 -0.4080  0.1239 -0.6845
 4700SOL    HW218572   0.305   0.211   4.648  1.4090 -0.2460 -2.2906
 4700SOL    HW318573   0.445   0.168   4.686  0.4484 -0.3013  1.5757
 4700SOL    MW418574   0.360   0.174   4.704  0.3497 -0.3243  0.2898
 4701SOL     OW18575   2.713   2.098   5.999  0.3313  0.3023 -0.1591
 4701SOL    HW218576   2.695   2.004   6.001  0.4042  0.2025 -2.2398
 4701SOL    HW318577   2.704   2.126   6.091  3.5847 -2.2948  1.1688
 4701SOL    MW418578   2.709   2.089   6.012 -0.0187  0.4099  0.0986
 4702SOL     OW18579   5.643   5.917   3.290  0.3568 -0.3731 -0.1158
 4702SOL    HW218580   5.672   6.008   3.284  2.8155 -1.0468  0.2874
 4702SOL    HW318581   5.607   5.897   3.203 -0.4209  1.0345 -0.1269
 4702SOL    MW418582   5.642   5.926   3.277 -0.4194  0.7375 -0.3975
 4703SOL     OW18583   5.313   5.584   2.838  0.0666 -0.1598  0.1341
 4703SOL    HW218584   5.402   5.613   2.819  0.0521  0.5033  1.0246
 4703SOL    HW318585   5.321   5.537   2.921 -0.6639  1.3975  1.1416
 4703SOL    MW418586   5.326   5.582   2.846 -0.1563  0.4045 -0.0389
 4704SOL     OW18587   1.268   0.859   2.485  0.5089  0.0375  0.1970
 4704SOL    HW218588   1.287   0.931   2.545 -0.8579 -1.0242  2.0022
 4704SOL    HW318589   1.179   0.876   2.454  0.3170 -0.6363  0.3419
 4704SOL    MW418590   1.259   0.870   2.489 -0.1655  0.1063  0.5039
 4705SOL     OW18591   4.807   6.140   0.830  0.5387  0.5791  0.1646
 4705SOL    HW218592   4.871   6.192   0.878 -0.7901  1.7950  0.6726
 4705SOL    HW318593   4.796   6.187   0.747 -0.8598  1.3338  0.7313
 4705SOL    MW418594   4.814   6.153   0.825  0.0587  0.0239  0.4909
 4706SOL     OW18595   0.842   1.908   0.579  0.3234  0.3175 -0.2860
 4706SOL    HW218596   0.918   1.959   0.552  0.8258 -1.5276 -2.6815
 4706SOL    HW318597   0.876   1.820   0.594 -0.8894  0.1032  1.5260
 4706SOL    MW418598   0.856   1.903   0.577 -0.0738  0.5811  0.2131
 4707SOL     OW18599   5.799   4.159   2.639  0.9988  0.6101  0.0411
 4707SOL    HW218600   5.877   4.112   2.670 -0.5397  0.5290  4.3909
 4707SOL    HW318601   5.735   4.090   2.622  0.5050  0.8598  0.8676
 4707SOL    MW418602   5.801   4.143   2.641  0.1785 -0.0691  0.3416
 4708SOL     OW18603   2.905   4.621   5.241  0.0463 -0.0899  0.0425
 4708SOL    HW218604   2.875   4.531   5.224  0.6526 -0.8554  2.6336
 4708SOL    HW318605   2.877   4.670   5.163 -0.5178 -2.4466 -1.3538
 4708SOL    MW418606   2.897   4.615   5.228 -0.1782 -0.3372  0.4216
 4709SOL     OW18607   4.078   5.987   3.980  0.0156 -0.2535 -0.5769
 4709SOL    HW218608   4.156   6.034   4.009  1.4900 -2.9024  0.0566
 4709SOL    HW318609   4.111   5.916   3.925 -2.1377 -0.2878 -1.9686
 4709SOL    MW418610   4.093   5.984   3.976 -0.3031  0.0620 -0.2481
 4710SOL     OW18611   4.464   0.969   5.147  0.2996 -0.2619 -0.2100
 4710SOL    HW218612   4.424   1.053   5.121 -0.1835 -0.3690  0.1606
 4710SOL    HW318613   4.409   0.939   5.219 -0.2997 -1.5108 -1.1474
 4710SOL    MW418614   4.451   0.976   5.153  0.1680  0.5814 -0.2860
 4711SOL     OW18615   5.553   3.513   3.906 -0.6294  0.5953  0.0768
 4711SOL    HW218616   5.482   3.471   3.954 -1.3614  1.7004 -0.0302
 4711SOL    HW318617   5.538   3.607   3.915 -0.6447  0.8489 -2.0578
 4711SOL    MW418618   5.542   3.519   3.913 -0.0853 -0.6534 -0.1754
 4712SOL     OW18619   5.727   3.937   3.962  0.8058  0.1968  0.1368
 4712SOL    HW218620   5.770   3.854   3.940 -1.1744 -1.0159  0.5606
 4712SOL    HW318621   5.791   3.983   4.015  2.7359 -0.1481 -1.7134
 4712SOL    MW418622   5.741   3.932   3.966 -0.4350 -0.4978  0.0269
 4713SOL     OW18623   1.786   2.665   4.205 -0.2641  0.1523 -0.4174
 4713SOL    HW218624   1.704   2.669   4.156 -1.3592 -0.0289  1.3300
 4713SOL    HW318625   1.798   2.753   4.240 -0.6522 -0.2525  0.7752
 4713SOL    MW418626   1.777   2.677   4.203 -0.0654 -0.0273  0.2587
 4714SOL     OW18627   1.731   2.656   5.877  0.2922  0.3548 -0.4501
 4714SOL    HW218628   1.777   2.739   5.863 -0.2120  0.4280 -1.8740
 4714SOL    HW318629   1.800   2.590   5.883  0.7284  0.9045  1.2367
 4714SOL    MW418630   1.746   2.658   5.876 -0.1603  0.0388 -0.9558
 4715SOL     OW18631   2.571   2.777   5.885 -0.0527 -0.6616  0.6712
 4715SOL    HW218632   2.571   2.863   5.927  1.9248 -0.3076  0.0353
 4715SOL    HW318633   2.662   2.748   5.889 -0.1705 -1.5403 -1.4953
 4715SOL    MW418634   2.583   2.785   5.891  0.6291  0.2089  0.6835
 4716SOL     OW18635   4.131   1.623   2.267  0.4867  0.1977 -0.0940
 4716SOL    HW218636   4.140   1.568   2.188  1.6141 -1.5135  1.1351
 4716SOL    HW318637   4.169   1.569   2.337 -1.7298  1.0902  1.8950
 4716SOL    MW418638   4.137   1.608   2.266  0.1622 -0.3849  0.1474
 4717SOL     OW18639   1.276   5.416   5.662  0.1689 -0.3897  0.3856
 4717SOL    HW218640   1.210   5.438   5.728 -0.9305  0.6613 -1.0102
 4717SOL    HW318641   1.231   5.427   5.579  0.5646 -4.5216 -0.5905
 4717SOL    MW418642   1.261   5.420   5.660  0.0393  0.2196  0.0418
 4718SOL     OW18643   3.295   6.370   4.113 -0.1834  0.4709 -0.2493
 4718SOL    HW218644   3.273   6.424   4.038  0.4461  0.8104 -0.2033
 4718SOL    HW318645   3.355   6.424   4.164 -0.5053  0.1956  0.4321
 4718SOL    MW418646   3.300   6.384   4.110  0.3071  0.4368 -0.0384
 4719SOL     OW18647   0.461   4.865   4.752 -0.2023 -0.1300 -0.0319
 4719SOL    HW218648   0.371   4.860   4.721 -0.1377 -2.5448 -0.0785
 4719SOL    HW318649   0.510   4.805   4.694  1.4681  1.2060 -0.0806
 4719SOL    MW418650   0.456   4.856   4.740 -0.2850  0.4871 -0.0131
 4720SOL     OW18651   5.311   3.158   2.851  0.8874  0.1091 -0.2463
 4720SOL    HW218652   5.290   3.249   2.872  1.2002  0.5278 -1.6298
 4720SOL    HW318653   5.336   3.160   2.759 -0.3060 -1.5869 -0.6611
 4720SOL    MW418654   5.311   3.170   2.842  0.3417  0.4800 -0.0018
 4721SOL     OW18655   2.050   2.765   1.260  0.2532 -0.6838 -0.5373
 4721SOL    HW218656   1.955   2.774   1.269  0.4303 -0.8387  2.9254
 4721SOL    HW318657   2.064   2.756   1.166 -2.8675  2.1076 -1.5001
 4721SOL    MW418658   2.039   2.765   1.249 -0.1551 -0.4336  0.0742
 4722SOL     OW18659   1.009   2.082   4.395  0.1539 -0.2030 -0.0561
 4722SOL    HW218660   1.024   2.020   4.323  0.3082 -1.3506  0.9202
 4722SOL    HW318661   0.921   2.116   4.379  0.2672 -0.2777 -0.8948
 4722SOL    MW418662   0.999   2.078   4.383  0.0858 -0.1363 -0.3657
 4723SOL     OW18663   0.092   6.330   3.447 -0.1197 -0.2168  0.4784
 4723SOL    HW218664   0.009   6.303   3.486  0.2481  0.0536  1.4791
 4723SOL    HW318665   0.068   6.362   3.359 -1.0594 -0.1982  0.7287
 4723SOL    MW418666   0.078   6.331   3.440  0.3437  0.1486 -0.6939
 4724SOL     OW18667   4.368   1.207   4.979 -0.5765 -0.0569 -0.6268
 4724SOL    HW218668   4.309   1.198   4.904  1.1783 -0.9343 -1.9831
 4724SOL    HW318669   4.416   1.289   4.962  0.5142 -0.7538 -1.0109
 4724SOL    MW418670   4.367   1.217   4.967  0.2887 -0.0759 -0.2141
 4725SOL     OW18671   3.323   3.932   5.694 -0.6975 -0.0966 -0.4292
 4725SOL    HW218672   3.279   3.880   5.627 -1.3984 -0.0715 -0.0007
 4725SOL    HW318673   3.362   3.867   5.754  0.0836 -0.1196 -0.9463
 4725SOL    MW418674   3.323   3.917   5.693 -0.3022 -0.1095 -0.0908
 4726SOL     OW18675   5.505   1.607   0.486  0.2732 -0.5080 -0.1166
 4726SOL    HW218676   5.484   1.542   0.553 -1.3828 -1.0236 -1.0829
 4726SOL    HW318677   5.439   1.676   0.498  1.8505  0.9413  0.7355
 4726SOL    MW418678   5.493   1.608   0.496  0.0442 -0.1412 -0.0909
 4727SOL     OW18679   0.108   5.200   3.018 -0.0567 -0.7823  0.0122
 4727SOL    HW218680   0.051   5.248   3.078  0.0165 -0.4189 -0.2044
 4727SOL    HW318681   0.172   5.265   2.989  0.6470 -1.2562  0.4710
 4727SOL    MW418682   0.109   5.215   3.022 -0.0583 -0.2714  0.8190
 4728SOL     OW18683   1.208   5.669   0.937 -0.1924 -0.0957 -0.3570
 4728SOL    HW218684   1.175   5.663   0.847 -2.1595  0.4733  0.2824
 4728SOL    HW318685   1.186   5.758   0.965 -0.6882 -0.6392  1.0867
 4728SOL    MW418686   1.201   5.680   0.929  0.4024 -0.0599  0.0243
 4729SOL     OW18687   0.466   4.071   2.010  0.2654  0.6043 -0.5339
 4729SOL    HW218688   0.457   4.004   1.943  1.1029 -0.3045  0.2251
 4729SOL    HW318689   0.379   4.079   2.049 -0.4073  1.6481 -2.1461
 4729SOL    MW418690   0.453   4.064   2.007  0.5038  0.1740  0.0622
 4730SOL     OW18691   3.329   4.642   2.547 -0.4793  0.2522  0.2509
 4730SOL    HW218692   3.412   4.622   2.503  0.6330 -0.1691  2.4219
 4730SOL    HW318693   3.290   4.710   2.493  1.0239  0.1040 -1.1234
 4730SOL    MW418694   3.335   4.648   2.534 -0.5179  0.1148 -0.1001
 4731SOL     OW18695   2.373   0.749   5.194  0.3259  0.1711  0.3644
 4731SOL    HW218696   2.446   0.729   5.252 -0.1909 -2.5930  0.2254
 4731SOL    HW318697   2.299   0.766   5.253  0.2242 -0.8430  0.5499
 4731SOL    MW418698   2.373   0.748   5.210 -0.2389  0.1863 -0.1693
 4732SOL     OW18699   3.108   3.000   4.872  0.2570 -0.1551 -0.1624
 4732SOL    HW218700   3.072   3.052   4.800 -0.4275 -0.8475 -0.3373
 4732SOL    HW318701   3.047   3.016   4.945  0.7214  0.2270  0.1488
 4732SOL    MW418702   3.095   3.009   4.873 -0.3460 -0.2505  0.3296
 4733SOL     OW18703   1.976   4.564   1.208 -0.0828 -0.1987  0.3178
 4733SOL    HW218704   2.028   4.632   1.251 -1.2042  0.8991 -0.0332
 4733SOL    HW318705   1.889   4.602   1.197 -0.3122 -1.0868 -1.3367
 4733SOL    MW418706   1.972   4.578   1.212  0.1578 -0.4487 -0.3563
 4734SOL     OW18707   2.038   5.193   0.113  0.1229 -0.2916  0.0875
 4734SOL    HW218708   2.126   5.185   0.151  0.2214 -0.1370 -0.1069
 4734SOL    HW318709   2.018   5.286   0.119  0.7978 -0.0034 -1.6962
 4734SOL    MW418710   2.047   5.204   0.119  0.6453 -0.3257  0.3990
 4735SOL     OW18711   0.052   6.099   2.148 -0.2318 -0.1548 -0.0696
 4735SOL    HW218712   0.045   6.058   2.061 -0.3054  0.3168 -0.2912
 4735SOL    HW318713   0.091   6.031   2.203  0.0315 -0.3873 -0.5269
 4735SOL    MW418714   0.056   6.085   2.144 -0.0837 -0.3027  0.0340
 4736SOL     OW18715   0.904   5.500   2.063 -0.0371 -0.1807 -0.1260
 4736SOL    HW218716   0.929   5.531   1.976  0.9753  1.3765  0.6810
 4736SOL    HW318717   0.985   5.496   2.112 -0.6700 -0.5323  0.9234
 4736SOL    MW418718   0.918   5.503   2.058  0.2195  0.5139  0.2672
 4737SOL     OW18719   0.338   2.569   5.591  0.0063  0.4843  0.5728
 4737SOL    HW218720   0.307   2.528   5.510  1.1084 -0.2979  0.5333
 4737SOL    HW318721   0.370   2.497   5.644 -1.0613  0.9458  1.9000
 4737SOL    MW418722   0.338   2.554   5.587 -0.0828 -0.5325  0.1665
 4738SOL     OW18723   0.625   0.457   5.318 -0.6756  0.2788  0.1519
 4738SOL    HW218724   0.558   0.438   5.384 -2.1897  2.2871 -0.6852
 4738SOL    HW318725   0.577   0.459   5.235  0.0296  3.2930 -0.3066
 4738SOL    MW418726   0.610   0.455   5.316  0.2725 -0.1635 -0.3051
 4739SOL     OW18727   0.088   0.053   5.051  0.2506 -0.0056  0.5567
 4739SOL    HW218728   0.025   0.066   5.122 -0.6502  0.6583 -0.3235
 4739SOL    HW318729   0.131   0.138   5.042  4.6454 -1.4729  4.0947
 4739SOL    MW418730   0.085   0.066   5.059 -0.4157  0.1826 -0.7239
 4740SOL     OW18731   1.774   5.595   5.345  0.0644  0.2181 -0.6675
 4740SOL    HW218732   1.782   5.624   5.254  0.5462 -1.1286 -1.0852
 4740SOL    HW318733   1.706   5.650   5.383  0.3849  1.3050 -1.6303
 4740SOL    MW418734   1.766   5.606   5.338 -0.3320  0.4709  0.4157
 4741SOL     OW18735   6.214   1.713   1.618  0.7775 -0.1135  0.3683
 4741SOL    HW218736   6.245   1.783   1.675 -1.1530 -0.7028  2.2932
 4741SOL    HW318737   6.228   1.633   1.668  0.5451 -0.8248 -0.6781
 4741SOL    MW418738   6.220   1.712   1.632  0.7586  0.5114  0.1454
 4742SOL     OW18739   0.441   6.067   5.861  0.3589  0.3009  0.2516
 4742SOL    HW218740   0.479   6.013   5.929  3.0456  1.2256 -0.3893
 4742SOL    HW318741   0.418   6.149   5.905 -1.0390 -0.2728  0.6472
 4742SOL    MW418742   0.443   6.071   5.875  0.1172  1.0645  0.6790
 4743SOL     OW18743   4.053   5.525   1.956  0.4959  0.4942  0.0902
 4743SOL    HW218744   4.077   5.569   2.038  1.0076  0.1551  0.1277
 4743SOL    HW318745   4.121   5.551   1.894  0.4000  0.3301 -0.0850
 4743SOL    MW418746   4.065   5.534   1.958  0.2615 -1.0763 -0.0695
 4744SOL     OW18747   6.235   1.189   6.191 -0.2542 -0.0718 -0.2162
 4744SOL    HW218748   6.290   1.141   6.253  0.7500  0.5650 -0.5974
 4744SOL    HW318749   6.289   1.198   6.112 -1.5373 -0.9441 -1.2361
 4744SOL    MW418750   6.249   1.184   6.189  0.5645  0.1738  0.3377
 4745SOL     OW18751   3.613   3.533   2.152 -0.0231  0.2107 -0.1817
 4745SOL    HW218752   3.663   3.586   2.090 -0.2400  1.1120  0.4058
 4745SOL    HW318753   3.580   3.595   2.216  0.7386 -0.7816  1.2203
 4745SOL    MW418754   3.615   3.548   2.152 -0.5412  0.4184 -0.1774
 4746SOL     OW18755   4.322   0.731   5.501  0.6027  0.7950 -0.7135
 4746SOL    HW218756   4.245   0.674   5.504 -0.1872  1.8706  0.4310
 4746SOL    HW318757   4.392   0.678   5.538  0.1394  0.1964 -0.6637
 4746SOL    MW418758   4.321   0.716   5.506 -0.3805  0.4243  0.0634
 4747SOL     OW18759   0.024   4.242   6.013  0.3761  0.2204 -0.6176
 4747SOL    HW218760   0.053   4.333   6.020  1.1479 -0.1129  1.3817
 4747SOL    HW318761   0.081   4.203   5.946  1.9620  0.5653  0.4666
 4747SOL    MW418762   0.036   4.249   6.005 -0.1321  0.9664  0.4921
 4748SOL     OW18763   0.861   5.111   5.349  0.0841  0.3062 -0.1205
 4748SOL    HW218764   0.862   5.024   5.309 -0.6190  1.4448 -2.8219
 4748SOL    HW318765   0.768   5.135   5.353  0.2774  0.9924  0.4905
 4748SOL    MW418766   0.849   5.103   5.344  0.7981  0.3521  0.0651
 4749SOL     OW18767   3.087   5.788   5.083 -0.3034 -0.1985 -0.0731
 4749SOL    HW218768   3.003   5.757   5.048  0.8653 -1.8898 -1.5223
 4749SOL    HW318769   3.090   5.753   5.172 -1.0315 -0.2937 -0.0753
 4749SOL    MW418770   3.076   5.779   5.090 -0.1626  0.2994 -0.7855
 4750SOL     OW18771   4.897   2.155   0.538  0.1008 -0.2844  0.1857
 4750SOL    HW218772   4.914   2.210   0.462 -0.3683  0.1016  0.3518
 4750SOL    HW318773   4.803   2.164   0.554 -0.0886 -1.5604 -0.0980
 4750SOL    MW418774   4.887   2.164   0.530 -0.6342 -0.0973 -0.1925
 4751SOL     OW18775   1.978   1.671   0.317 -0.3975  0.1004 -0.0651
 4751SOL    HW218776   1.916   1.648   0.248 -1.0425  0.6384  0.3201
 4751SOL    HW318777   2.036   1.736   0.277  0.2431 -0.7654 -0.5761
 4751SOL    MW418778   1.978   1.677   0.302  0.0943 -0.2686 -0.4030
 4752SOL     OW18779   1.551   0.848   3.303  0.0859 -0.0265  0.2526
 4752SOL    HW218780   1.517   0.798   3.377 -2.2876 -0.0690 -0.7577
 4752SOL    HW318781   1.623   0.795   3.269 -0.7714 -1.5451  0.6935
 4752SOL    MW418782   1.556   0.834   3.308 -0.6301  0.6855  0.5307
 4753SOL     OW18783   4.047   6.140   6.308  0.3312  0.1640  0.5216
 4753SOL    HW218784   4.132   6.144   6.263  0.1374  1.4882  0.2204
 4753SOL    HW318785   3.991   6.198   6.258 -0.7885 -0.7389  0.6953
 4753SOL    MW418786   4.051   6.148   6.296  0.3379 -0.0113  0.9293
 4754SOL     OW18787   1.124   2.588   1.318 -0.5005  0.4231 -0.1760
 4754SOL    HW218788   1.200   2.532   1.333  0.2667  1.2391 -0.8681
 4754SOL    HW318789   1.077   2.589   1.401 -0.6072 -1.3198 -0.1809
 4754SOL    MW418790   1.128   2.581   1.331 -0.2005  0.9502  0.1397
 4755SOL     OW18791   0.732   4.938   4.915  0.5155  1.0901 -0.1290
 4755SOL    HW218792   0.707   4.871   4.978  0.9861  0.9434 -0.0960
 4755SOL    HW318793   0.663   4.935   4.848  1.9002 -1.3575 -1.6035
 4755SOL    MW418794   0.720   4.929   4.914 -0.2201 -0.0429 -0.2075
 4756SOL     OW18795   5.435   6.194   5.496 -0.3618 -0.0945 -0.3890
 4756SOL    HW218796   5.349   6.221   5.464 -0.4776  0.9502  0.7082
 4756SOL    HW318797   5.476   6.149   5.422 -2.1488 -1.3378 -0.6949
 4756SOL    MW418798   5.429   6.191   5.482  0.0098  1.0695 -0.0797
 4757SOL     OW18799   1.217   4.025   4.806 -0.0577  0.1329  0.6618
 4757SOL    HW218800   1.164   3.979   4.871  0.3237 -1.1824  0.0799
 4757SOL    HW318801   1.169   4.107   4.790 -1.6815 -0.7886  0.5148
 4757SOL    MW418802   1.204   4.030   4.812  0.3534 -0.8248 -0.2896
 4758SOL     OW18803   3.538   5.778   5.128 -0.0690  0.3135 -0.2537
 4758SOL    HW218804   3.620   5.732   5.108 -0.0270 -0.2034  1.0283
 4758SOL    HW318805   3.474   5.738   5.069  0.8458  1.7432 -2.3397
 4758SOL    MW418806   3.540   5.766   5.117  0.1066 -0.4941 -0.1942
 4759SOL     OW18807   0.826   3.414   1.697  0.1753  0.2299  0.0217
 4759SOL    HW218808   0.788   3.486   1.647  0.2495  0.1493 -0.1535
 4759SOL    HW318809   0.764   3.397   1.767 -0.5458 -0.4827 -0.7718
 4759SOL    MW418810   0.813   3.421   1.700 -0.0372  0.3769 -0.1143
 4760SOL     OW18811   5.725   2.591   5.898 -0.1204 -0.0830 -0.2992
 4760SOL    HW218812   5.722   2.681   5.866  0.6617 -0.5627 -1.8456
 4760SOL    HW318813   5.641   2.578   5.941  0.0159  1.5706  0.5449
 4760SOL    MW418814   5.714   2.601   5.899  0.3649 -0.2418  0.4314
 4761SOL     OW18815   6.321   4.094   5.789 -0.2200  0.3965 -0.5167
 4761SOL    HW218816   6.235   4.077   5.753 -0.4350  1.2967 -0.4519
 4761SOL    HW318817   6.355   4.168   5.738  0.1917  0.5470 -0.0413
 4761SOL    MW418818   6.314   4.102   5.777  0.1551 -0.4593 -0.8562
 4762SOL     OW18819   4.918   1.513   6.219  0.0213  0.4815 -0.0773
 4762SOL    HW218820   4.982   1.506   6.148 -0.9593 -1.3889 -0.8664
 4762SOL    HW318821   4.837   1.542   6.176 -0.4000  0.0108  0.3779
 4762SOL    MW418822   4.915   1.516   6.204 -0.2719  0.1945  0.4583
 4763SOL     OW18823   2.238   6.005   3.556 -0.3565  0.5073 -0.3420
 4763SOL    HW218824   2.295   5.939   3.518 -0.5323  0.7405 -1.0280
 4763SOL    HW318825   2.229   6.072   3.487  0.6792  1.7776  0.6938
 4763SOL    MW418826   2.245   6.005   3.542 -0.3588 -0.8110 -0.2280
 4764SOL     OW18827   4.407   5.740   1.969  0.3254 -0.6287  0.9168
 4764SOL    HW218828   4.484   5.790   1.942 -0.7282  1.1099  0.9728
 4764SOL    HW318829   4.340   5.807   1.983 -1.7928 -2.1806 -1.0626
 4764SOL    MW418830   4.408   5.756   1.967  0.7192 -0.0293 -0.2949
 4765SOL     OW18831   5.971   6.123   1.866  0.0552  0.1438 -0.3890
 4765SOL    HW218832   6.025   6.074   1.804  1.4224  1.4852 -0.3345
 4765SOL    HW318833   5.996   6.215   1.852 -1.9706  0.7935 -0.0865
 4765SOL    MW418834   5.982   6.129   1.856 -0.1765 -0.7932 -0.1060
 4766SOL     OW18835   1.406   3.057   3.950 -0.2545  0.3763 -0.7138
 4766SOL    HW218836   1.492   3.018   3.965 -0.8782 -1.5739 -1.8438
 4766SOL    HW318837   1.420   3.118   3.878  0.5957  1.8091  0.6042
 4766SOL    MW418838   1.419   3.060   3.942 -0.2757  0.1105 -0.2322
 4767SOL     OW18839   5.074   2.014   3.299  0.0761  0.6788 -0.1598
 4767SOL    HW218840   5.016   2.067   3.244  0.0667 -0.3250 -1.1592
 4767SOL    HW318841   5.068   1.926   3.262  2.3436  0.5706 -0.4193
 4767SOL    MW418842   5.066   2.010   3.287 -0.1483 -0.1818  0.1689
 4768SOL     OW18843   6.142   6.289   0.855  0.1910 -0.7282  0.5073
 4768SOL    HW218844   6.055   6.325   0.841  0.1997 -0.6955  0.5375
 4768SOL    HW318845   6.130   6.194   0.855  0.0915 -0.7180  0.9064
 4768SOL    MW418846   6.129   6.281   0.853 -0.0748  0.3252 -0.4374
 4769SOL     OW18847   3.346   2.974   1.114 -0.4429 -0.2140  0.1201
 4769SOL    HW218848   3.320   2.902   1.172 -3.5216  0.1267 -0.6593
 4769SOL    HW318849   3.264   3.020   1.095  1.3058  3.1601  0.0708
 4769SOL    MW418850   3.331   2.971   1.119 -0.4082 -0.1823 -0.1118
 4770SOL     OW18851   0.432   4.449   2.789 -0.3274 -0.4807 -0.0868
 4770SOL    HW218852   0.443   4.520   2.852  1.0300 -0.1945 -0.6283
 4770SOL    HW318853   0.338   4.432   2.789 -0.6793  1.3131  0.0544
 4770SOL    MW418854   0.421   4.456   2.797  0.0168 -0.2047 -0.0435
 4771SOL     OW18855   0.760   0.777   3.063  0.2363 -0.0909  0.3173
 4771SOL    HW218856   0.690   0.718   3.093 -0.7955  0.1155 -1.4871
 4771SOL    HW318857   0.720   0.864   3.064  0.4631  0.0413 -0.6481
 4771SOL    MW418858   0.745   0.780   3.067 -0.0948 -0.0216 -0.8068
 4772SOL     OW18859   3.139   1.027   1.969 -0.0863  0.2232  0.1623
 4772SOL    HW218860   3.115   1.019   2.061 -0.9959 -3.3691 -0.2359
 4772SOL    HW318861   3.185   0.945   1.950  0.6485  1.1568 -2.4471
 4772SOL    MW418862   3.142   1.015   1.979  0.6546  0.4425 -0.0705
 4773SOL     OW18863   4.728   5.733   6.243  0.5600  0.4072  0.0374
 4773SOL    HW218864   4.718   5.692   6.329 -0.0848 -1.2040 -0.7492
 4773SOL    HW318865   4.756   5.822   6.261 -1.5125  0.7452  1.9985
 4773SOL    MW418866   4.731   5.739   6.256 -0.2779  0.5496  0.1193
 4774SOL     OW18867   1.748   0.531   1.146 -0.2199 -0.4258  0.0289
 4774SOL    HW218868   1.825   0.476   1.165 -0.2521 -0.5213 -0.1195
 4774SOL    HW318869   1.736   0.524   1.052 -0.2937 -0.2535  0.0252
 4774SOL    MW418870   1.757   0.523   1.136  0.8910 -0.1000 -0.2355
 4775SOL     OW18871   0.375   5.232   3.229 -0.4598 -0.3015 -0.4020
 4775SOL    HW218872   0.418   5.264   3.150 -0.0100  0.4218  0.1309
 4775SOL    HW318873   0.288   5.274   3.229 -1.8236 -2.8662 -2.2368
 4775SOL    MW418874   0.369   5.242   3.219  0.0716  0.5864 -0.5658
 4776SOL     OW18875   5.263   2.370   4.020  0.2141 -0.3842  0.1716
 4776SOL    HW218876   5.285   2.277   4.028  0.8356 -0.5455 -2.3831
 4776SOL    HW318877   5.169   2.374   4.034  0.4625 -1.0104  2.4882
 4776SOL    MW418878   5.254   2.358   4.023 -0.5859 -0.3568 -0.7089
 4777SOL     OW18879   0.785  -0.004   1.248  0.4093 -0.4677 -0.0196
 4777SOL    HW218880   0.690   0.001   1.252  0.3786 -0.5838 -0.4900
 4777SOL    HW318881   0.804  -0.093   1.217  0.7149 -0.8681  1.2677
 4777SOL    MW418882   0.775  -0.015   1.244  0.6344 -0.2847  0.3173
 4778SOL     OW18883   5.232   6.264   4.050 -0.1968 -0.5108 -0.3338
 4778SOL    HW218884   5.185   6.327   4.105  0.5035 -0.2464 -0.0166
 4778SOL    HW318885   5.318   6.256   4.092  0.6188  0.2215 -1.7644
 4778SOL    MW418886   5.237   6.272   4.063 -0.6177  0.5868  0.2372
 4779SOL     OW18887   5.767   5.700   5.630  0.2241  0.2579 -0.7681
 4779SOL    HW218888   5.818   5.760   5.685  0.4359  0.2563 -0.9630
 4779SOL    HW318889   5.833   5.647   5.585  0.0407 -0.0516 -0.6761
 4779SOL    MW418890   5.783   5.701   5.631  0.7109  0.5972  0.3901
 4780SOL     OW18891   3.095   2.181   3.955 -0.3147 -0.4343 -0.1790
 4780SOL    HW218892   3.035   2.159   4.026 -1.6153 -0.7408 -1.3216
 4780SOL    HW318893   3.181   2.188   3.997 -0.6305 -2.8581  1.0503
 4780SOL    MW418894   3.099   2.179   3.970 -0.2051  0.1633 -0.3578
 4781SOL     OW18895   3.957   2.039   6.248  0.2366 -0.1533 -0.3211
 4781SOL    HW218896   3.871   2.011   6.214  0.2554  0.2838 -0.7398
 4781SOL    HW318897   4.006   2.066   6.170  0.1041  1.3657  0.0831
 4781SOL    MW418898   3.952   2.039   6.233  0.3787 -0.1591 -0.3949
 4782SOL     OW18899   2.427   4.678   6.187 -0.7121  0.4053 -0.5220
 4782SOL    HW218900   2.363   4.621   6.143 -0.8977  0.5674 -0.4630
 4782SOL    HW318901   2.447   4.746   6.122  1.0786 -0.8636 -1.3861
 4782SOL    MW418902   2.421   4.680   6.172  0.0166  0.2855  0.0143
 4783SOL     OW18903   2.831   2.494   5.238 -0.6598 -0.5104  0.0023
 4783SOL    HW218904   2.903   2.556   5.231 -1.8970  0.8465 -1.2381
 4783SOL    HW318905   2.842   2.455   5.325 -0.1182  1.7971  1.0562
 4783SOL    MW418906   2.842   2.497   5.249  0.0633 -0.0244  0.5783
 4784SOL     OW18907   5.229   4.362   0.205 -0.2113 -0.4745  0.1083
 4784SOL    HW218908   5.141   4.344   0.237 -0.6825  0.7478 -0.4241
 4784SOL    HW318909   5.287   4.342   0.279 -0.9112 -1.4598  0.4018
 4784SOL    MW418910   5.225   4.357   0.219  0.4541  0.4182  0.0701
 4785SOL     OW18911   5.111   3.776   5.181 -0.3457  0.3799 -0.9534
 4785SOL    HW218912   5.030   3.748   5.139 -1.1552 -0.5477  1.0665
 4785SOL    HW318913   5.178   3.717   5.145 -0.8182  0.2521 -1.6416
 4785SOL    MW418914   5.109   3.764   5.171  0.8857  0.0884  0.4538
 4786SOL     OW18915   0.255   0.533   4.635  0.1424  0.4414 -0.1118
 4786SOL    HW218916   0.340   0.517   4.674 -0.3853  0.0158  0.9004
 4786SOL    HW318917   0.243   0.460   4.573 -0.2892 -0.5839  1.1403
 4786SOL    MW418918   0.264   0.521   4.632 -0.6234 -0.0780 -0.2640
 4787SOL     OW18919   0.038   3.069   3.919  0.3131 -0.3578  0.3743
 4787SOL    HW218920   0.097   3.001   3.953 -0.6691 -0.8686  1.1183
 4787SOL    HW318921  -0.020   3.090   3.993 -1.1392 -0.6574 -0.6281
 4787SOL    MW418922   0.038   3.063   3.934  0.0563 -0.1674 -0.2704
 4788SOL     OW18923   1.085   3.023   3.154 -0.5906  0.3125 -0.4357
 4788SOL    HW218924   1.130   2.947   3.190 -0.1317 -0.0157 -1.6636
 4788SOL    HW318925   1.074   3.003   3.061 -0.7141  1.6276 -0.7264
 4788SOL    MW418926   1.089   3.011   3.147 -0.4385  0.1150 -0.1661
 4789SOL     OW18927   1.083   5.036   6.038  0.3565 -0.0751 -0.3463
 4789SOL    HW218928   1.076   5.034   5.943 -1.8500 -1.1672 -0.2160
 4789SOL    HW318929   1.002   5.079   6.067  0.0776 -1.4839  1.0730
 4789SOL    MW418930   1.071   5.042   6.029 -0.6940  0.1743 -0.5652
 4790SOL     OW18931   0.265   0.576   5.681 -0.2931 -0.3826  0.4767
 4790SOL    HW218932   0.266   0.480   5.687 -0.6418 -0.4403 -0.3795
 4790SOL    HW318933   0.262   0.605   5.773  2.8814 -1.1267  0.9192
 4790SOL    MW418934   0.265   0.567   5.694  0.1363 -1.0499 -0.3821
 4791SOL     OW18935   5.485   4.912   1.802 -0.2598  0.3064  0.1472
 4791SOL    HW218936   5.464   4.861   1.724  0.1470  1.4713 -0.7592
 4791SOL    HW318937   5.543   4.855   1.853  0.1552 -0.1570 -0.8111
 4791SOL    MW418938   5.490   4.898   1.798  0.1943  0.2888 -0.3839
 4792SOL     OW18939   2.683   3.451   2.374 -0.5601 -0.8532 -0.2355
 4792SOL    HW218940   2.753   3.389   2.395 -1.1756 -1.4763 -0.0137
 4792SOL    HW318941   2.688   3.462   2.279  0.0901 -0.5900 -0.1744
 4792SOL    MW418942   2.693   3.445   2.365 -0.5440  0.1022  0.4131
 4793SOL     OW18943   4.264   5.638   0.769  0.4192  0.2663  0.1626
 4793SOL    HW218944   4.203   5.650   0.696  1.1209  0.0197 -0.4718
 4793SOL    HW318945   4.253   5.717   0.823  0.2595  0.6792 -0.4684
 4793SOL    MW418946   4.254   5.650   0.767 -0.7861 -0.0290 -0.3275
 4794SOL     OW18947   3.269   4.117   5.985 -0.0081 -0.5696 -0.6222
 4794SOL    HW218948   3.292   4.149   6.072  1.3948 -2.9794  0.0013
 4794SOL    HW318949   3.342   4.145   5.929  0.4198 -1.2522 -0.4204
 4794SOL    MW418950   3.282   4.125   5.989  0.1615 -0.4856  0.6143
 4795SOL     OW18951   0.950   2.863   0.260 -0.3145  0.9604 -0.4862
 4795SOL    HW218952   0.875   2.809   0.285 -0.3178  1.6849  1.1527
 4795SOL    HW318953   0.982   2.901   0.342  2.0146  0.4837 -1.0872
 4795SOL    MW418954   0.944   2.861   0.274 -0.1902 -0.0457 -0.4628
 4796SOL     OW18955   4.268   0.195   5.612 -0.3825  0.6285  0.3028
 4796SOL    HW218956   4.292   0.121   5.669  1.6122  0.2465 -0.9292
 4796SOL    HW318957   4.313   0.270   5.650  0.3209  0.5210 -0.2811
 4796SOL    MW418958   4.277   0.195   5.625  0.5017 -0.3601 -0.3167
 4797SOL     OW18959   1.029   4.336   0.386 -0.3506  0.0960 -0.3939
 4797SOL    HW218960   0.970   4.406   0.358 -3.4826 -2.3373 -0.4545
 4797SOL    HW318961   1.016   4.267   0.321  1.7813 -0.9984  0.2604
 4797SOL    MW418962   1.019   4.336   0.374  0.4283 -0.0325  0.2837
 4798SOL     OW18963   1.095   0.950   1.058 -0.4772  0.5136 -0.8359
 4798SOL    HW218964   1.002   0.974   1.061 -1.0051 -1.4001 -0.0506
 4798SOL    HW318965   1.133   0.991   1.136 -1.4145 -1.2230  0.6328
 4798SOL    MW418966   1.088   0.959   1.069 -0.0283  0.3751  0.2957
 4799SOL     OW18967   0.666   1.601   4.411  0.0932 -0.5526  0.8809
 4799SOL    HW218968   0.625   1.598   4.498 -1.3994 -1.8725  0.1920
 4799SOL    HW318969   0.621   1.533   4.361  0.6758  0.3862 -1.0383
 4799SOL    MW418970   0.654   1.592   4.416 -0.4718 -0.1605 -0.1510
 4800SOL     OW18971   2.871   0.931   1.946  0.0873  0.2131  0.2097
 4800SOL    HW218972   2.957   0.975   1.948  0.3165 -0.2370  1.7559
 4800SOL    HW318973   2.846   0.932   1.854  2.0626 -0.2262 -0.3858
 4800SOL    MW418974   2.879   0.937   1.934  0.1877  0.7351  0.3558
 4801SOL     OW18975   0.503   3.392   3.453  0.3831 -0.2434  0.7710
 4801SOL    HW218976   0.597   3.377   3.466  0.2245 -1.5974  0.4433
 4801SOL    HW318977   0.498   3.482   3.420  1.5799 -0.2203  0.6068
 4801SOL    MW418978   0.515   3.402   3.450 -0.3096  1.0339 -0.3703
 4802SOL     OW18979   1.771   2.202   0.584 -0.1668 -0.2412  0.3642
 4802SOL    HW218980   1.848   2.207   0.640 -0.9310  0.5097  1.3794
 4802SOL    HW318981   1.764   2.109   0.562  0.2891 -0.5161  1.3106
 4802SOL    MW418982   1.780   2.191   0.588  0.2541 -0.1914  0.4014
 4803SOL     OW18983   2.849   0.560   5.853 -0.0051  0.1351 -0.3203
 4803SOL    HW218984   2.893   0.591   5.774  0.4454  2.9925  0.9365
 4803SOL    HW318985   2.905   0.490   5.886  0.0565 -0.7643 -2.2002
 4803SOL    MW418986   2.862   0.554   5.847 -0.2657  0.5721  0.3218
 4804SOL     OW18987   3.882   2.468   4.636  0.1794  0.0362  0.2634
 4804SOL    HW218988   3.858   2.501   4.723  2.0934  0.1101  0.8029
 4804SOL    HW318989   3.924   2.384   4.652  1.8452  0.6930 -0.4177
 4804SOL    MW418990   3.884   2.462   4.649 -0.1629  0.3771  0.0623
 4805SOL     OW18991   3.080   2.811   0.976 -0.5721  0.7424  0.1812
 4805SOL    HW218992   3.025   2.889   0.968 -0.2949  0.8337 -0.9590
 4805SOL    HW318993   3.125   2.823   1.060 -2.2569  0.6645  1.1501
 4805SOL    MW418994   3.078   2.823   0.986  0.4110 -0.2120  0.0203
 4806SOL     OW18995   3.879   5.765   1.616  0.0559 -0.0252 -0.5112
 4806SOL    HW218996   3.921   5.810   1.543  0.2180  1.2520  0.3453
 4806SOL    HW318997   3.915   5.676   1.613  0.3949  0.1400 -1.7054
 4806SOL    MW418998   3.890   5.759   1.606 -0.0430  0.4438  0.3830
 4807SOL     OW18999   0.718   3.990   0.619  0.0938 -0.7249 -0.4783
 4807SOL    HW219000   0.755   3.968   0.705  1.0878  0.8803 -0.4438
 4807SOL    HW319001   0.780   3.953   0.556 -0.4590 -1.6101 -0.5207
 4807SOL    MW419002   0.731   3.982   0.622  0.0606 -0.1974 -0.5537
 4808SOL     OW19003   4.018   3.031   1.401 -0.0074 -0.0095  0.3169
 4808SOL    HW219004   3.973   2.974   1.339 -1.0513  2.8885 -1.8249
 4808SOL    HW319005   3.964   3.110   1.405  2.2881  1.6219  1.6198
 4808SOL    MW419006   4.005   3.034   1.393 -0.2697  0.2765  0.0937
 4809SOL     OW19007   0.949   4.903   1.255 -0.4410  0.3297  0.3435
 4809SOL    HW219008   0.979   4.983   1.299  1.2770  0.3146 -0.6907
 4809SOL    HW319009   0.967   4.919   1.162  2.2781 -2.1265  0.3145
 4809SOL    MW419010   0.955   4.916   1.248  0.2411 -0.5160 -0.2458
 4810SOL     OW19011   2.563   4.257   5.481 -0.2605  0.3707 -0.0550
 4810SOL    HW219012   2.563   4.219   5.569 -2.0170  1.1808  0.3365
 4810SOL    HW319013   2.546   4.183   5.423 -0.4909  0.0509  0.4134
 4810SOL    MW419014   2.561   4.243   5.485  0.2628 -0.6677 -0.2159
 4811SOL     OW19015   5.024   6.007   3.449 -0.3723 -0.3325  0.2915
 4811SOL    HW219016   5.056   6.001   3.359  0.0083  1.3826  0.2796
 4811SOL    HW319017   5.090   5.962   3.501 -0.9104 -1.8927 -0.3248
 4811SOL    MW419018   5.037   6.000   3.444 -0.4211  0.2271  0.1526
 4812SOL     OW19019   2.630   1.826   5.308  0.2749 -0.6600  0.0638
 4812SOL    HW219020   2.684   1.873   5.371  1.0553 -0.0008 -1.0621
 4812SOL    HW319021   2.541   1.840   5.338  0.6365 -0.4590  1.0870
 4812SOL    MW419022   2.626   1.834   5.321  0.4787 -0.5623  0.0807
 4813SOL     OW19023   2.840   5.349   2.285 -0.2711  0.0103 -0.0698
 4813SOL    HW219024   2.750   5.334   2.316 -0.4256  0.1120 -0.4569
 4813SOL    HW319025   2.889   5.373   2.363 -0.2301 -1.5381  0.4092
 4813SOL    MW419026   2.834   5.350   2.299 -0.0797  0.0339  0.6023
 4814SOL     OW19027   1.573   2.152   3.690 -0.1243 -0.0547 -0.3739
 4814SOL    HW219028   1.591   2.150   3.784 -0.0521 -0.4752 -0.3930
 4814SOL    HW319029   1.626   2.224   3.656  0.1446 -0.1494 -0.1532
 4814SOL    MW419030   1.582   2.161   3.698  0.1619 -0.0163  0.0574
 4815SOL     OW19031   2.400   4.537   0.811 -0.4979  0.5620 -0.2385
 4815SOL    HW219032   2.373   4.466   0.870 -0.3005  1.1682  0.5919
 4815SOL    HW319033   2.429   4.492   0.732  2.3071 -0.5007  1.2769
 4815SOL    MW419034   2.400   4.522   0.808  0.7292 -0.1130 -0.7716
 4816SOL     OW19035   3.321   2.243   6.129  0.1013 -0.2273  0.1545
 4816SOL    HW219036   3.256   2.265   6.196 -1.4475  1.5432 -1.7866
 4816SOL    HW319037   3.393   2.303   6.145  0.2486 -0.5782  0.8723
 4816SOL    MW419038   3.322   2.254   6.140  0.2267 -0.0882 -0.4883
 4817SOL     OW19039   3.402   2.137   2.784 -0.1890  0.0891  0.6985
 4817SOL    HW219040   3.493   2.167   2.781  0.6080 -2.1949 -0.2297
 4817SOL    HW319041   3.394   2.091   2.867 -1.0961  1.8626  1.6437
 4817SOL    MW419042   3.413   2.134   2.794 -0.2202  0.0028 -0.3022
 4818SOL     OW19043   2.251   1.405   1.836 -0.3811 -0.1936 -0.0119
 4818SOL    HW219044   2.192   1.372   1.768 -1.0923 -0.5041  0.7442
 4818SOL    HW319045   2.204   1.392   1.918  0.5094  0.0763  0.5627
 4818SOL    MW419046   2.237   1.399   1.838  0.4401 -0.3411 -0.1476
 4819SOL     OW19047   6.240   3.904   2.524 -0.2842  0.1819  0.5649
 4819SOL    HW219048   6.277   3.987   2.494  0.2620 -0.4842 -0.6790
 4819SOL    HW319049   6.236   3.850   2.445 -0.3894 -1.0637  1.4043
 4819SOL    MW419050   6.244   3.908   2.509  0.0302  0.3439 -0.5108
 4820SOL     OW19051   5.345   1.520   1.135  0.1037 -0.6992  0.8153
 4820SOL    HW219052   5.383   1.482   1.056 -0.9345 -0.6080  0.2481
 4820SOL    HW319053   5.330   1.612   1.113  1.1918 -0.3041  1.6512
 4820SOL    MW419054   5.348   1.527   1.122 -0.4604  0.1846  0.3717
 4821SOL     OW19055   2.695   2.221   4.322  0.4744  0.3826 -0.5446
 4821SOL    HW219056   2.644   2.222   4.241  1.3319  0.0159 -1.1038
 4821SOL    HW319057   2.735   2.308   4.326  0.1529  0.5205 -0.3340
 4821SOL    MW419058   2.694   2.233   4.312  0.5747 -0.1203 -0.1128
 4822SOL     OW19059   4.139   0.079   2.740 -0.4287  0.0042 -0.1955
 4822SOL    HW219060   4.190   0.143   2.691 -0.5669  1.0569  0.9602
 4822SOL    HW319061   4.089   0.031   2.674  1.3972 -0.4851 -1.2737
 4822SOL    MW419062   4.139   0.081   2.725  0.6056  0.3743 -0.0615
 4823SOL     OW19063   2.277   6.163   3.313 -0.3484 -0.2908  0.2685
 4823SOL    HW219064   2.312   6.218   3.384 -0.8626 -0.7420  0.8750
 4823SOL    HW319065   2.208   6.216   3.274  1.1097  0.7151 -1.1019
 4823SOL    MW419066   2.273   6.178   3.318 -0.0175  0.2094 -0.4584
 4824SOL     OW19067   2.942   6.201   2.105 -0.2397 -0.0798 -0.2009
 4824SOL    HW219068   2.877   6.254   2.151  1.1223  1.8033 -0.3333
 4824SOL    HW319069   2.952   6.244   2.020  0.2356 -1.1045 -0.6776
 4824SOL    MW419070   2.935   6.214   2.100 -0.0904 -0.3984 -1.0600
 4825SOL     OW19071   0.654   3.029   0.724 -0.1302 -0.0442 -0.2819
 4825SOL    HW219072   0.674   3.086   0.650  0.3558  0.0966 -0.0441
 4825SOL    HW319073   0.677   3.080   0.802  2.7796 -1.4297 -0.0866
 4825SOL    MW419074   0.660   3.043   0.725 -1.2599  0.3966 -0.1561
 4826SOL     OW19075   4.898   0.775   4.827 -0.1489 -0.0503 -0.2008
 4826SOL    HW219076   4.986   0.747   4.852 -0.1424  0.2646  0.1390
 4826SOL    HW319077   4.881   0.730   4.744  0.2758 -0.2211 -0.1972
 4826SOL    MW419078   4.907   0.766   4.819  0.0770  0.0977  0.4995
 4827SOL     OW19079   2.970   3.161   0.117 -0.4004 -0.5208  0.4070
 4827SOL    HW219080   2.885   3.174   0.159 -0.8782  0.1479 -0.7286
 4827SOL    HW319081   2.954   3.178   0.025  0.6826 -1.7199 -0.0291
 4827SOL    MW419082   2.957   3.165   0.111 -0.3674 -0.2410  0.3650
 4828SOL     OW19083   3.525   3.862   1.900  0.0484  0.2033 -0.6712
 4828SOL    HW219084   3.471   3.845   1.978  0.4769  0.0603 -0.4050
 4828SOL    HW319085   3.539   3.956   1.901 -1.2263  0.4271 -1.4231
 4828SOL    MW419086   3.520   3.872   1.911 -0.3015  0.2969 -0.8323
 4829SOL     OW19087   5.308   3.901   3.790  0.0242 -0.1029 -0.2070
 4829SOL    HW219088   5.390   3.933   3.752  0.8737 -0.9932  0.7962
 4829SOL    HW319089   5.292   3.818   3.746  0.6412 -0.7983  0.8201
 4829SOL    MW419090   5.317   3.894   3.780 -0.0250  0.4529  0.3178
 4830SOL     OW19091   1.728   5.305   0.236  0.6466  0.4042  0.0858
 4830SOL    HW219092   1.675   5.248   0.292 -1.0086  1.7783  0.0083
 4830SOL    HW319093   1.755   5.250   0.163 -0.6573 -0.3728  0.1704
 4830SOL    MW419094   1.724   5.291   0.233  0.4179 -0.0170 -0.1331
 4831SOL     OW19095   2.567   5.785   2.383 -0.0984  0.0384  0.6157
 4831SOL    HW219096   2.543   5.701   2.420  1.8192 -0.3972  0.9660
 4831SOL    HW319097   2.632   5.821   2.443 -0.3471  1.4570  0.0991
 4831SOL    MW419098   2.573   5.779   2.395  0.3182 -0.2328 -0.3629
 4832SOL     OW19099   1.397   1.700   2.380  0.6949  0.4424 -0.1668
 4832SOL    HW219100   1.355   1.638   2.440  3.4358 -1.3613  0.0488
 4832SOL    HW319101   1.387   1.659   2.293 -0.5793  1.5292 -0.5660
 4832SOL    MW419102   1.390   1.686   2.376 -0.4414 -0.4177 -0.4599
 4833SOL     OW19103   5.532   1.512   3.894 -0.2602  0.2668  0.9137
 4833SOL    HW219104   5.627   1.497   3.897  0.0098  1.8528  1.1407
 4833SOL    HW319105   5.512   1.522   3.801  0.0959  1.5631  0.9604
 4833SOL    MW419106   5.542   1.511   3.882  0.0914 -0.1553  0.7590
 4834SOL     OW19107   5.983   5.462   3.350  0.0084 -0.2252  0.2072
 4834SOL    HW219108   5.962   5.421   3.267  2.1332  0.7859 -0.9190
 4834SOL    HW319109   6.032   5.395   3.398  0.3865 -0.2051 -0.1449
 4834SOL    MW419110   5.987   5.448   3.346 -0.2096  0.0269 -0.3793
 4835SOL     OW19111   4.122   2.902   0.421 -0.1005  0.3829 -0.0616
 4835SOL    HW219112   4.104   2.811   0.445 -1.5332  0.9224  1.0230
 4835SOL    HW319113   4.055   2.924   0.357 -1.0971  1.2837  1.2390
 4835SOL    MW419114   4.111   2.893   0.416 -0.1773 -0.5137  0.1048
 4836SOL     OW19115   1.618   5.005   5.629  0.4013 -0.5890  0.8133
 4836SOL    HW219116   1.542   5.047   5.671  0.9717 -0.4488  1.7229
 4836SOL    HW319117   1.620   5.043   5.541 -1.1712 -1.3390  0.4220
 4836SOL    MW419118   1.608   5.016   5.623 -0.0107  0.1290 -0.0509
 4837SOL     OW19119   2.525   5.004   5.099  0.1916 -0.1248  0.5712
 4837SOL    HW219120   2.459   5.053   5.050  0.6001  1.2713  1.3659
 4837SOL    HW319121   2.477   4.929   5.135 -0.6201  0.0812 -0.0398
 4837SOL    MW419122   2.510   5.000   5.097  0.1967  0.0516  0.1881
 4838SOL     OW19123   1.172   2.031   5.285  0.1964 -0.1020  0.7526
 4838SOL    HW219124   1.084   2.068   5.286  0.4333  0.5351 -0.2696
 4838SOL    HW319125   1.225   2.095   5.333  0.2061 -0.1824  0.8477
 4838SOL    MW419126   1.167   2.044   5.292  0.1696 -0.0462 -0.1642
 4839SOL     OW19127   5.686   3.974   6.293  0.7722  0.3623 -0.5857
 4839SOL    HW219128   5.617   3.925   6.338 -0.7822  0.6684 -2.4806
 4839SOL    HW319129   5.658   3.977   6.201  3.5149  0.1944 -1.5312
 4839SOL    MW419130   5.673   3.968   6.287  0.8830  0.4570 -0.4602
 4840SOL     OW19131   4.011   4.793   2.867  0.0546  0.1312  0.5517
 4840SOL    HW219132   3.996   4.791   2.772  0.0920 -0.5839  0.5520
 4840SOL    HW319133   3.937   4.841   2.903 -1.1372 -1.4953  0.3619
 4840SOL    MW419134   3.999   4.799   2.859 -0.2617  0.3941 -0.1875
 4841SOL     OW19135   0.208   2.421   3.726 -0.2723  0.3034  0.0158
 4841SOL    HW219136   0.179   2.347   3.673  0.0795  0.3981 -0.3084
 4841SOL    HW319137   0.284   2.456   3.680  0.4319 -0.0065  0.9094
 4841SOL    MW419138   0.214   2.416   3.713 -0.2405 -0.1689  0.4668
 4842SOL     OW19139   2.747   5.526   0.979 -0.3556 -0.6195 -0.2893
 4842SOL    HW219140   2.666   5.571   1.005 -0.4517 -0.7411 -0.3741
 4842SOL    HW319141   2.751   5.450   1.037 -0.6132 -0.9358 -0.6854
 4842SOL    MW419142   2.737   5.522   0.990 -0.5113  0.2136 -0.4168
 4843SOL     OW19143   3.644   1.367   1.468  0.6305  0.6192 -0.3016
 4843SOL    HW219144   3.605   1.397   1.386 -0.3381 -1.0758 -0.4963
 4843SOL    HW319145   3.739   1.371   1.453  0.5830  3.3934 -0.3240
 4843SOL    MW419146   3.652   1.372   1.456 -0.6576  0.1556  0.0155
 4844SOL     OW19147   5.180   4.600   0.063 -0.4678 -0.2135  0.3295
 4844SOL    HW219148   5.263   4.626   0.023 -0.3923 -0.3319  0.4072
 4844SOL    HW319149   5.205   4.533   0.128 -0.8550 -2.0206 -1.2774
 4844SOL    MW419150   5.194   4.594   0.067 -0.0905 -0.2395  0.3628
 4845SOL     OW19151   2.173   0.895   3.085 -0.4234 -0.0459 -0.0049
 4845SOL    HW219152   2.120   0.865   3.159  0.3584  0.8427  0.9437
 4845SOL    HW319153   2.131   0.856   3.009 -0.7269 -1.7296  0.9739
 4845SOL    MW419154   2.160   0.886   3.085 -0.0553 -0.6114  0.0040
 4846SOL     OW19155   1.522   5.370   5.024  0.2196  0.3421 -0.1409
 4846SOL    HW219156   1.477   5.314   5.087 -0.8680 -0.8236 -1.8825
 4846SOL    HW319157   1.463   5.445   5.014  1.9082  2.2357  2.5764
 4846SOL    MW419158   1.508   5.373   5.031 -0.2745 -0.0158 -0.3331
 4847SOL     OW19159   3.068   5.397   3.222 -0.1472 -0.3771  0.0718
 4847SOL    HW219160   3.006   5.398   3.294 -1.8046 -1.2692 -1.2541
 4847SOL    HW319161   3.026   5.341   3.156  1.0749  0.7571 -1.7454
 4847SOL    MW419162   3.054   5.390   3.222  0.5308  0.0922 -0.2698
 4848SOL     OW19163   1.603   4.433   4.923  0.0712  0.0983 -0.2645
 4848SOL    HW219164   1.683   4.424   4.870  0.3771 -1.2549  0.4000
 4848SOL    HW319165   1.607   4.360   4.985 -0.6092  1.2578  1.2052
 4848SOL    MW419166   1.614   4.422   4.924  0.3053  0.0748  0.3473
 4849SOL     OW19167   5.196   2.382   1.379  0.1344  0.2197 -0.8871
 4849SOL    HW219168   5.185   2.359   1.471  1.1602  0.9640 -0.5598
 4849SOL    HW319169   5.108   2.376   1.342  0.0034 -2.1559 -0.3816
 4849SOL    MW419170   5.183   2.378   1.386  0.4285  0.3265 -0.4049
 4850SOL     OW19171   1.063   4.670   0.524  0.4017 -0.5591 -0.0315
 4850SOL    HW219172   1.124   4.726   0.573 -1.7577  2.1983 -0.2289
 4850SOL    HW319173   1.010   4.628   0.591 -0.7974  1.1216  0.1304
 4850SOL    MW419174   1.064   4.672   0.539 -0.4630 -0.1126 -0.2720
 4851SOL     OW19175   2.134   5.110   3.457 -0.2639  0.0457 -0.0663
 4851SOL    HW219176   2.191   5.099   3.381  1.2230  1.5732  0.7472
 4851SOL    HW319177   2.109   5.021   3.482 -1.5308 -0.4896 -2.8030
 4851SOL    MW419178   2.138   5.097   3.450  0.9197  0.0355  0.0079
 4852SOL     OW19179   4.734   5.874   0.197  0.4991 -0.2024 -0.3951
 4852SOL    HW219180   4.664   5.815   0.170  0.7279  0.0339 -1.5576
 4852SOL    HW319181   4.721   5.886   0.291 -0.4246 -0.9374 -0.4210
 4852SOL    MW419182   4.723   5.868   0.206  0.7923  0.5080 -0.0724
 4853SOL     OW19183   1.525   2.257   1.906 -0.3555 -0.0479 -0.5481
 4853SOL    HW219184   1.601   2.210   1.942 -0.0838  0.4237 -0.4886
 4853SOL    HW319185   1.557   2.295   1.824 -0.4707  0.3049 -0.4326
 4853SOL    MW419186   1.540   2.256   1.900  0.0220 -0.1479  0.2885
 4854SOL     OW19187   3.042   1.602   4.246  0.4580 -0.8885 -0.1512
 4854SOL    HW219188   3.021   1.608   4.339 -3.0302 -1.3323 -0.7549
 4854SOL    HW319189   3.123   1.651   4.236  0.9226 -0.7939  3.0903
 4854SOL    MW419190   3.050   1.609   4.257 -0.0472  0.6553  0.0121
 4855SOL     OW19191   0.860   6.352   4.050  0.2283 -0.1728 -0.6248
 4855SOL    HW219192   0.836   6.398   3.969  1.5393  1.0046 -0.3940
 4855SOL    HW319193   0.937   6.301   4.027 -0.2429 -0.9733 -0.4575
 4855SOL    MW419194   0.867   6.352   4.036 -0.2400 -0.3237 -0.1151
 4856SOL     OW19195   6.161   5.688   3.289  0.1750 -0.7033 -0.0335
 4856SOL    HW219196   6.146   5.594   3.280 -1.0450 -0.3894 -1.6175
 4856SOL    HW319197   6.074   5.727   3.287  0.7347  0.5984 -1.5216
 4856SOL    MW419198   6.148   5.681   3.288 -0.1007 -0.2826  0.4431
 4857SOL     OW19199   1.473   4.340   6.379 -0.1717 -0.2150 -0.1023
 4857SOL    HW219200   1.567   4.357   6.374 -0.1843  0.0435  0.4425
 4857SOL    HW319201   1.441   4.353   6.290  0.6046 -2.1466 -0.7150
 4857SOL    MW419202   1.481   4.344   6.367 -0.7592  0.2036  0.1958
 4858SOL     OW19203   4.862   1.385   0.581 -0.4033  0.1317 -0.1009
 4858SOL    HW219204   4.889   1.296   0.558  2.5150  0.6791  0.8118
 4858SOL    HW319205   4.847   1.428   0.497  0.8353 -0.4796 -0.6515
 4858SOL    MW419206   4.863   1.379   0.567 -0.4071 -0.4915 -0.1901
 4859SOL     OW19207   1.946   1.570   4.749  0.1536  0.0377 -0.3440
 4859SOL    HW219208   2.002   1.646   4.736  2.6633 -1.7224 -0.4683
 4859SOL    HW319209   1.936   1.564   4.844  0.1908  0.3158 -0.3204
 4859SOL    MW419210   1.952   1.579   4.760  0.6588  0.6775  0.2239
 4860SOL     OW19211   4.063   5.218   4.669  0.6566  0.4701  0.4417
 4860SOL    HW219212   4.084   5.309   4.690 -0.1783  0.3356  2.0665
 4860SOL    HW319213   4.074   5.172   4.753 -1.7129 -0.3918  0.3421
 4860SOL    MW419214   4.067   5.224   4.683  1.0562  0.2979  0.2833
 4861SOL     OW19215   0.598   2.796   5.249 -0.5041 -0.0782  0.2551
 4861SOL    HW219216   0.504   2.779   5.239 -0.5891 -0.0868  1.0295
 4861SOL    HW319217   0.638   2.708   5.250 -0.3778 -0.0498 -1.0229
 4861SOL    MW419218   0.591   2.782   5.248 -0.5068 -0.3658  0.1367
 4862SOL     OW19219   5.490   4.025   4.512 -0.5966 -0.3225  0.3469
 4862SOL    HW219220   5.502   4.067   4.427  0.1124 -1.0114  0.1017
 4862SOL    HW319221   5.413   3.969   4.501 -0.0385 -1.0160 -0.0853
 4862SOL    MW419222   5.482   4.023   4.500 -0.1596  0.3265 -0.2899
 4863SOL     OW19223   2.037   6.008   3.784 -0.6211 -0.4176 -0.3755
 4863SOL    HW219224   2.076   5.944   3.843  1.7223  0.2775 -1.0440
 4863SOL    HW319225   2.102   6.018   3.714 -1.0138  2.4345 -0.4549
 4863SOL    MW419226   2.051   6.001   3.782 -0.0438  0.3748 -0.0154
 4864SOL     OW19227   5.089   0.486   2.123  0.1088 -0.3244  0.2481
 4864SOL    HW219228   5.009   0.469   2.172 -0.1122 -0.7829 -0.2760
 4864SOL    HW319229   5.134   0.554   2.174 -0.2194 -0.6484  0.9765
 4864SOL    MW419230   5.085   0.493   2.136  0.3463  0.1738 -0.0209
 4865SOL     OW19231   1.145   0.802   1.342 -0.2703  0.0020  0.4015
 4865SOL    HW219232   1.123   0.752   1.264  1.1765  0.8436 -0.5772
 4865SOL    HW319233   1.239   0.818   1.336 -0.4968  1.9476  1.1992
 4865SOL    MW419234   1.155   0.797   1.331  0.1909  0.2285 -0.6139
 4866SOL     OW19235   0.272   0.186   1.145 -0.2773  0.3244  0.1994
 4866SOL    HW219236   0.265   0.276   1.115  2.1381  0.3680 -0.5004
 4866SOL    HW319237   0.309   0.139   1.070  0.4996 -0.7816  1.2346
 4866SOL    MW419238   0.276   0.192   1.131 -0.5287  0.1499  0.2527
 4867SOL     OW19239   0.515   2.373   5.694  0.5776  0.1233 -0.1105
 4867SOL    HW219240   0.559   2.399   5.775  0.7636  0.2243 -0.2449
 4867SOL    HW319241   0.585   2.339   5.638  0.2410 -1.4725  0.3763
 4867SOL    MW419242   0.530   2.372   5.697 -0.3354  0.0324  0.2496
 4868SOL     OW19243   0.476   1.894   4.940  0.3168  0.7693  0.3434
 4868SOL    HW219244   0.467   1.806   4.978  0.0841  0.2805 -0.8063
 4868SOL    HW319245   0.387   1.924   4.925  0.4057  0.9649  0.1963
 4868SOL    MW419246   0.463   1.886   4.943  0.1460  0.2828 -0.4700
 4869SOL     OW19247   4.580   4.014   4.390  0.2965 -0.4549 -0.1068
 4869SOL    HW219248   4.524   3.954   4.440 -0.5283  0.5002  0.1638
 4869SOL    HW319249   4.551   4.003   4.299  1.6447 -2.0286 -0.3942
 4869SOL    MW419250   4.568   4.005   4.384  0.2323 -0.2692 -0.3798
 4870SOL     OW19251   1.146   3.253   4.948 -0.1401  0.2205 -0.3080
 4870SOL    HW219252   1.083   3.286   5.011 -0.1081  0.8321 -0.5935
 4870SOL    HW319253   1.167   3.165   4.979 -0.5480  0.3045  0.2153
 4870SOL    MW419254   1.141   3.246   4.960  0.1846 -0.4662  0.0761
 4871SOL     OW19255   3.242   5.117   0.249  0.1264  0.2181  0.0762
 4871SOL    HW219256   3.227   5.059   0.323 -0.1358  0.1689 -0.0151
 4871SOL    HW319257   3.209   5.069   0.173 -1.5401  1.0913  0.1951
 4871SOL    MW419258   3.235   5.103   0.248  0.3512 -0.2088 -0.4688
 4872SOL     OW19259   2.148   1.458   5.542 -0.1296  0.3371 -0.0471
 4872SOL    HW219260   2.239   1.436   5.524 -0.0680  1.3133 -1.0145
 4872SOL    HW319261   2.107   1.465   5.456 -1.5724 -1.7684  0.3787
 4872SOL    MW419262   2.155   1.456   5.528  0.2690  0.1853  0.1158
 4873SOL     OW19263   6.166   0.318   6.033  0.1391  0.3346  0.2742
 4873SOL    HW219264   6.169   0.385   6.101 -0.4830 -0.9975  1.6695
 4873SOL    HW319265   6.098   0.258   6.061  0.6771 -0.8937 -0.9345
 4873SOL    MW419266   6.158   0.319   6.046 -0.4244  0.9839  0.2064
 4874SOL     OW19267   5.028   0.137   1.593 -0.3791 -0.5008 -0.2833
 4874SOL    HW219268   5.113   0.140   1.549  0.0140  0.7457  0.5208
 4874SOL    HW319269   4.996   0.227   1.590 -0.3653 -0.3790  1.8794
 4874SOL    MW419270   5.035   0.149   1.587 -0.0510 -0.2764 -0.1498
 4875SOL     OW19271   2.739   5.326   6.110  0.2525  0.2532  0.6010
 4875SOL    HW219272   2.688   5.306   6.188  0.9506  0.6622  1.1783
 4875SOL    HW319273   2.686   5.390   6.062 -0.2011 -0.0349  0.7123
 4875SOL    MW419274   2.726   5.332   6.114  0.2649 -0.4349 -0.4921
 4876SOL     OW19275   1.086   0.642   4.538 -0.1297  0.3413  0.2926
 4876SOL    HW219276   0.995   0.653   4.566 -0.3920 -1.0895  0.0787
 4876SOL    HW319277   1.137   0.680   4.609 -0.8629 -0.4601  1.2882
 4876SOL    MW419278   1.080   0.648   4.551 -0.4950  0.3836 -0.4408
 4877SOL     OW19279   6.432   6.163   6.206  0.1982  0.0440  0.0024
 4877SOL    HW219280   6.409   6.197   6.292 -0.6656 -2.9504  1.0657
 4877SOL    HW319281   6.527   6.150   6.210  0.0860 -0.6144  0.7315
 4877SOL    MW419282   6.441   6.166   6.218 -0.0590 -0.0201 -0.3687
 4878SOL     OW19283   0.687   4.899   4.381  0.0539 -0.4198  0.2106
 4878SOL    HW219284   0.727   4.974   4.338  0.0211 -1.6680 -2.1515
 4878SOL    HW319285   0.606   4.885   4.333 -0.4972 -1.3220  1.3487
 4878SOL    MW419286   0.681   4.907   4.369 -0.1164  0.2231  0.0728
 4879SOL     OW19287   4.305   1.172   0.777 -0.3100 -0.0665 -0.6639
 4879SOL    HW219288   4.226   1.203   0.733 -0.3824 -0.4257 -0.7881
 4879SOL    HW319289   4.303   1.077   0.766 -2.6947 -0.8106  3.8875
 4879SOL    MW419290   4.295   1.164   0.770 -0.6532  0.0968  0.6565
 4880SOL     OW19291   5.480   2.616   6.022 -0.3467 -0.0034 -0.0117
 4880SOL    HW219292   5.493   2.708   6.048  0.9248  0.0631 -0.7681
 4880SOL    HW319293   5.386   2.608   6.009 -0.5445  1.0501  0.5784
 4880SOL    MW419294   5.470   2.627   6.024 -0.4997  0.0153  0.1751
 4881SOL     OW19295   5.003   4.450   5.051 -0.8438  0.2000  0.2684
 4881SOL    HW219296   5.084   4.399   5.060 -0.3387  0.9873  0.3037
 4881SOL    HW319297   4.991   4.492   5.136 -0.4999  1.2038 -0.1537
 4881SOL    MW419298   5.012   4.449   5.063 -0.6554  0.1448 -0.2200
 4882SOL     OW19299   2.950   0.064   0.297 -0.3520  0.0235  0.3070
 4882SOL    HW219300   2.858   0.070   0.268 -0.5435  1.0118  1.0727
 4882SOL    HW319301   2.963  -0.028   0.316 -1.3859 -0.0449  0.7664
 4882SOL    MW419302   2.939   0.053   0.295  0.4868 -0.6127 -0.6357
 4883SOL     OW19303   4.694   3.074   3.181  0.2348 -0.2355  0.6945
 4883SOL    HW219304   4.658   3.148   3.230  1.0797  0.9372 -0.3766
 4883SOL    HW319305   4.642   3.072   3.100  0.2902 -0.7577  0.6700
 4883SOL    MW419306   4.682   3.084   3.177  0.5144 -0.0024  0.4337
 4884SOL     OW19307   0.180   6.279   4.814 -0.5982  0.1658  0.7314
 4884SOL    HW219308   0.263   6.307   4.852 -0.2240  1.3439 -0.8184
 4884SOL    HW319309   0.144   6.359   4.776 -2.4463 -0.3370  1.3581
 4884SOL    MW419310   0.186   6.293   4.814 -0.2694  0.6007 -0.0351
 4885SOL     OW19311   6.201   1.392   0.297 -0.4430 -0.2083  0.3327
 4885SOL    HW219312   6.120   1.353   0.264 -0.3025 -1.3129  1.1953
 4885SOL    HW319313   6.250   1.317   0.332  1.5484  0.2296 -1.3212
 4885SOL    MW419314   6.196   1.377   0.298 -0.3481  0.2661  0.0732
 4886SOL     OW19315   5.750   4.769   0.780  0.1920  0.3183 -0.7948
 4886SOL    HW219316   5.696   4.692   0.796 -0.7853  1.0920 -0.1802
 4886SOL    HW319317   5.699   4.822   0.719  0.1129  1.1851 -0.0010
 4886SOL    MW419318   5.736   4.766   0.774 -0.4000 -0.1554  0.2647
 4887SOL     OW19319   3.368   0.671   2.191 -0.1643  0.1202 -0.5067
 4887SOL    HW219320   3.435   0.663   2.260 -1.4268  0.5983  0.8400
 4887SOL    HW319321   3.385   0.756   2.151 -0.3255  0.5222  0.2538
 4887SOL    MW419322   3.379   0.681   2.195  0.0051 -0.2846  0.4467
 4888SOL     OW19323   6.431   2.509   0.635 -0.3782  0.5142 -0.2450
 4888SOL    HW219324   6.518   2.491   0.600  0.2226 -0.2575  1.5336
 4888SOL    HW319325   6.371   2.463   0.576  0.6524 -1.5677  0.2413
 4888SOL    MW419326   6.435   2.501   0.623 -0.5757 -0.0514  0.5762
 4889SOL     OW19327   2.245   1.125   3.252  0.0306 -0.3593 -0.5780
 4889SOL    HW219328   2.214   1.053   3.197  0.6843  0.9282 -2.7752
 4889SOL    HW319329   2.244   1.202   3.193 -2.7361  2.0030  2.1781
 4889SOL    MW419330   2.241   1.126   3.237 -0.6647 -0.6701  0.2228
 4890SOL     OW19331   3.312   2.035   3.051 -0.1328 -0.2520 -0.6182
 4890SOL    HW219332   3.316   1.939   3.052  1.5971 -0.2075  0.2872
 4890SOL    HW319333   3.384   2.062   3.108 -2.9835  1.5745  2.4000
 4890SOL    MW419334   3.322   2.026   3.058  0.1357  0.7503  0.4353
 4891SOL     OW19335   5.849   5.131   0.524  0.0836  0.3608 -0.3611
 4891SOL    HW219336   5.763   5.092   0.509 -0.1782  0.3923  0.9269
 4891SOL    HW319337   5.891   5.131   0.438 -0.5927 -1.1249 -0.7183
 4891SOL    MW419338   5.843   5.126   0.511  0.3818  0.6348  0.1162
 4892SOL     OW19339   4.503   0.084   2.057  0.6062 -0.2638  0.2743
 4892SOL    HW219340   4.570   0.092   2.125  0.6941  1.0702  0.0665
 4892SOL    HW319341   4.549   0.048   1.981  0.6963 -0.9646  0.6538
 4892SOL    MW419342   4.518   0.081   2.056  0.1105  0.2921 -0.3505
 4893SOL     OW19343   5.427   3.097   3.093 -0.0809 -0.2583  0.0677
 4893SOL    HW219344   5.390   3.125   3.009 -1.5288  0.0775  0.7882
 4893SOL    HW319345   5.419   3.002   3.092 -0.9897 -0.1946  0.1970
 4893SOL    MW419346   5.421   3.088   3.082 -0.0597 -0.1330 -0.0369
 4894SOL     OW19347   0.674   3.209   1.333 -0.2159  0.0751 -0.0944
 4894SOL    HW219348   0.598   3.267   1.339 -1.7447 -1.6775 -1.4938
 4894SOL    HW319349   0.738   3.259   1.281 -0.4924  1.4531  0.8473
 4894SOL    MW419350   0.673   3.224   1.327  0.3555 -0.4111 -0.1229
 4895SOL     OW19351   2.066   0.594   2.888 -0.5220  0.1996  0.0248
 4895SOL    HW219352   2.061   0.505   2.854  0.9144 -0.1790  0.7299
 4895SOL    HW319353   2.142   0.632   2.843 -0.2770  0.5884  0.7544
 4895SOL    MW419354   2.076   0.587   2.877  0.0724  0.0225  0.3726
 4896SOL     OW19355   2.209   0.868   4.410  0.1551  0.0838 -0.4875
 4896SOL    HW219356   2.120   0.856   4.375 -0.2162  0.6987  0.2135
 4896SOL    HW319357   2.202   0.945   4.467  1.2311  0.3635 -0.7152
 4896SOL    MW419358   2.196   0.877   4.413 -0.2441  0.1258  0.1277
 4897SOL     OW19359   1.245   3.636   1.636 -0.0077 -0.0776 -0.3583
 4897SOL    HW219360   1.198   3.716   1.661  0.9640  0.4341 -0.0930
 4897SOL    HW319361   1.185   3.565   1.657 -0.5642  0.5417  0.1902
 4897SOL    MW419362   1.231   3.637   1.642 -0.2028  0.1538 -0.3617
 4898SOL     OW19363   4.129   4.085   0.329  0.0672  0.7149  0.0829
 4898SOL    HW219364   4.167   4.040   0.253 -1.4635  3.7120 -2.7166
 4898SOL    HW319365   4.069   4.021   0.366  3.0654 -1.9311  0.8306
 4898SOL    MW419366   4.126   4.070   0.324  0.0167 -0.4323  0.1728
 4899SOL     OW19367   0.473   4.490   4.914  0.3299  0.3077 -0.6799
 4899SOL    HW219368   0.566   4.492   4.892  0.3954 -1.7790 -0.7152
 4899SOL    HW319369   0.466   4.548   4.990  2.3098 -2.0785  1.5151
 4899SOL    MW419370   0.484   4.498   4.921  0.3607 -0.7010  0.9549
 4900SOL     OW19371   0.035   6.380   0.509  0.0967 -0.5916  0.3933
 4900SOL    HW219372   0.052   6.290   0.481  0.6825 -0.9078  1.7073
 4900SOL    HW319373  -0.043   6.373   0.564 -0.0542 -0.2356  0.2250
 4900SOL    MW419374   0.027   6.367   0.512  0.5079  0.8485 -0.2179
 4901SOL     OW19375   3.644   0.469   0.733  0.0820 -0.1037 -0.4035
 4901SOL    HW219376   3.652   0.492   0.826 -0.0526  0.9543 -0.6436
 4901SOL    HW319377   3.733   0.474   0.699  0.1070 -0.3298 -0.3765
 4901SOL    MW419378   3.657   0.472   0.741  0.1307 -0.2100  0.1798
 4902SOL     OW19379   1.430   4.072   5.947  0.8002 -0.0544 -0.1385
 4902SOL    HW219380   1.509   4.022   5.968 -0.3187 -2.0324 -0.3937
 4902SOL    HW319381   1.393   4.095   6.032  1.1593  0.0904 -0.0178
 4902SOL    MW419382   1.436   4.069   5.961  0.5112  0.4723  0.3555
 4903SOL     OW19383   1.356   0.361   5.315 -0.0574 -0.1052 -0.2620
 4903SOL    HW219384   1.360   0.270   5.342  1.6158 -0.6509 -2.1487
 4903SOL    HW319385   1.362   0.359   5.220 -1.0012  1.9432 -0.4339
 4903SOL    MW419386   1.357   0.349   5.306  0.2611 -0.0244  0.1039
 4904SOL     OW19387   0.932   1.731   5.898  0.4051  0.2651  0.2098
 4904SOL    HW219388   1.013   1.715   5.850  0.1338 -1.5308  0.2949
 4904SOL    HW319389   0.886   1.797   5.846  0.9216 -0.3336 -1.0502
 4904SOL    MW419390   0.936   1.738   5.885 -0.0106  0.4420 -0.8042
 4905SOL     OW19391   0.248   0.020   4.279  0.5772 -0.0216 -0.0764
 4905SOL    HW219392   0.244  -0.068   4.241  0.3812 -0.4015  0.8030
 4905SOL    HW319393   0.300   0.071   4.217  1.2325 -0.9197 -0.2857
 4905SOL    MW419394   0.254   0.015   4.266 -0.4999  0.2867  0.0657
 4906SOL     OW19395   3.868   6.349   6.198 -0.2302  0.0347 -0.7820
 4906SOL    HW219396   3.808   6.310   6.134 -1.6802  0.3259  0.3539
 4906SOL    HW319397   3.811   6.391   6.262  1.1948  0.1679  0.4542
 4906SOL    MW419398   3.853   6.349   6.198  0.8824  0.4721 -0.0151
 4907SOL     OW19399   2.745   6.228   3.715  0.0820 -0.0423 -0.1604
 4907SOL    HW219400   2.832   6.258   3.688 -0.3961  2.5625  0.9199
 4907SOL    HW319401   2.758   6.195   3.804  0.2881 -1.5799 -0.7308
 4907SOL    MW419402   2.758   6.228   3.723  0.5254  0.0863  0.8687
 4908SOL     OW19403   2.668   2.533   4.014  0.1649 -0.1097  0.0708
 4908SOL    HW219404   2.621   2.569   3.939  1.2276 -1.2695 -1.1981
 4908SOL    HW319405   2.621   2.568   4.090 -0.6765  1.4598 -1.0986
 4908SOL    MW419406   2.655   2.542   4.014  0.0385 -0.0203  0.2033
 4909SOL     OW19407   0.320   0.568   5.386 -0.0881 -0.3992  0.2463
 4909SOL    HW219408   0.330   0.551   5.479  1.9947 -0.3911  0.0806
 4909SOL    HW319409   0.382   0.638   5.368 -0.6638 -0.2020 -1.1051
 4909SOL    MW419410   0.329   0.575   5.396  0.0301  0.8307 -0.3234
 4910SOL     OW19411   0.628   0.186   1.849 -0.1542  0.3789  0.8487
 4910SOL    HW219412   0.671   0.110   1.887  1.2672  0.7047 -0.0509
 4910SOL    HW319413   0.636   0.174   1.754 -1.5041  0.7692  0.6597
 4910SOL    MW419414   0.635   0.175   1.841  0.5225  0.2633 -0.1767
 4911SOL     OW19415   2.938   0.679   2.056 -0.0341  0.2882 -0.1492
 4911SOL    HW219416   2.859   0.625   2.064  0.5782 -0.4214  1.5485
 4911SOL    HW319417   2.906   0.764   2.027 -1.1800 -0.5379 -1.4877
 4911SOL    MW419418   2.923   0.683   2.053 -0.0344  0.4725 -0.0591
 4912SOL     OW19419   1.947   6.163   4.333 -0.1025 -0.0251 -0.7624
 4912SOL    HW219420   1.950   6.080   4.380  0.7976  0.8053  0.7339
 4912SOL    HW319421   1.860   6.166   4.294 -0.1978 -1.5893 -0.7322
 4912SOL    MW419422   1.936   6.153   4.334 -0.2649 -0.5098  0.3647
 4913SOL     OW19423   3.652   4.110   2.713 -0.2173 -0.0620  0.5151
 4913SOL    HW219424   3.617   4.080   2.630  1.3364  0.9490 -0.5572
 4913SOL    HW319425   3.614   4.196   2.727  1.0462  0.6347 -0.1856
 4913SOL    MW419426   3.643   4.117   2.704 -0.6385  0.2868 -0.5207
 4914SOL     OW19427   3.771   4.874   3.412  0.1691  0.4690 -0.0913
 4914SOL    HW219428   3.713   4.803   3.440 -0.6224  1.2169  0.2086
 4914SOL    HW319429   3.731   4.908   3.332  0.7403  0.3559 -0.4350
 4914SOL    MW419430   3.758   4.869   3.405  0.0440 -0.2007 -0.4215
 4915SOL     OW19431   0.467   0.311   5.553 -0.1288  0.0893  0.2543
 4915SOL    HW219432   0.529   0.242   5.577  1.3027  1.3459  0.3123
 4915SOL    HW319433   0.493   0.386   5.606  0.1756  1.5494 -1.8564
 4915SOL    MW419434   0.479   0.311   5.563 -0.2183  0.7403 -0.1884
 4916SOL     OW19435   3.563   5.890   0.129  0.6146 -0.1225 -0.6337
 4916SOL    HW219436   3.591   5.981   0.138  0.4113 -0.2328  1.5877
 4916SOL    HW319437   3.645   5.840   0.136  0.4994 -0.1892  0.3870
 4916SOL    MW419438   3.578   5.896   0.131  0.3757 -0.3890  0.4217
 4917SOL     OW19439   6.349   4.639   2.084  0.7524 -0.2065 -0.1654
 4917SOL    HW219440   6.313   4.665   2.168  3.5155  1.1695  0.6962
 4917SOL    HW319441   6.273   4.609   2.033 -1.3234  1.2448  1.9220
 4917SOL    MW419442   6.334   4.638   2.088 -0.1068 -0.6051 -0.1901
 4918SOL     OW19443   2.961   6.136   0.063  0.0460  0.4715 -0.1193
 4918SOL    HW219444   2.995   6.086  -0.012 -0.0276 -3.3215  2.1488
 4918SOL    HW319445   3.027   6.125   0.131 -1.1656  1.4235  1.2580
 4918SOL    MW419446   2.974   6.128   0.062  0.1615 -0.4049 -0.3616
 4919SOL     OW19447   3.911   1.625   2.696 -0.4419  0.2884  0.2225
 4919SOL    HW219448   3.917   1.607   2.602  0.4246 -0.1206  0.3459
 4919SOL    HW319449   3.902   1.720   2.702 -1.1640  0.2628 -0.2891
 4919SOL    MW419450   3.910   1.635   2.685  0.2759 -0.2807  0.1837
 4920SOL     OW19451   4.805   1.438   5.658  0.0308  0.0215 -0.1051
 4920SOL    HW219452   4.881   1.415   5.711 -1.3725  1.2208  2.6477
 4920SOL    HW319453   4.733   1.444   5.720 -2.1215  0.0497 -2.4209
 4920SOL    MW419454   4.805   1.436   5.673 -0.0185 -0.0012 -0.4229
 4921SOL     OW19455   0.187   2.317   5.967 -0.0934 -0.2340 -0.0908
 4921SOL    HW219456   0.229   2.402   5.977  0.6639 -0.7340  1.2729
 4921SOL    HW319457   0.203   2.272   6.050 -1.7335 -1.1648 -0.2224
 4921SOL    MW419458   0.194   2.322   5.979 -0.2351 -0.1141 -0.6931
 4922SOL     OW19459   4.552   4.373   4.082  0.7229  0.3330 -0.1971
 4922SOL    HW219460   4.599   4.424   4.147 -0.5412 -0.0979  1.0955
 4922SOL    HW319461   4.596   4.394   3.999 -0.0683  3.9139  0.1456
 4922SOL    MW419462   4.564   4.382   4.079  0.0024 -0.0693  0.3387
 4923SOL     OW19463   2.231   4.410   2.952  0.2627 -0.2593  0.2435
 4923SOL    HW219464   2.271   4.458   2.879  0.4127 -1.2563 -0.3422
 4923SOL    HW319465   2.223   4.320   2.921 -2.5564 -0.1049  0.3171
 4923SOL    MW419466   2.235   4.405   2.938 -0.0660  0.0537  0.3554
 4924SOL     OW19467   0.108   3.640   2.033  0.1927 -0.3385 -0.2033
 4924SOL    HW219468   0.191   3.594   2.047  0.1195 -0.2408  0.5966
 4924SOL    HW319469   0.123   3.728   2.070  0.6658  0.6540 -2.5912
 4924SOL    MW419470   0.121   3.646   2.040 -0.5034  0.1797  0.2777
 4925SOL     OW19471   3.747   4.344   3.152 -0.2719 -0.1839 -0.0715
 4925SOL    HW219472   3.729   4.288   3.076 -1.7515  0.2217 -0.0599
 4925SOL    HW319473   3.827   4.308   3.190  0.0586 -0.8894 -1.3546
 4925SOL    MW419474   3.755   4.332   3.147  0.3199 -0.4189  0.4658
 4926SOL     OW19475   1.501   0.436   3.834  0.1077 -0.8478  0.1181
 4926SOL    HW219476   1.582   0.478   3.805 -0.3395  0.9854  1.3216
 4926SOL    HW319477   1.448   0.427   3.755  0.5492  0.1478 -0.3036
 4926SOL    MW419478   1.505   0.440   3.820 -0.4740  0.1375  0.7405
 4927SOL     OW19479   5.217   5.629   1.136  0.1659 -0.2308 -0.1649
 4927SOL    HW219480   5.308   5.605   1.154  0.5051  1.1974  0.1336
 4927SOL    HW319481   5.197   5.585   1.053  1.1417 -0.5234 -0.2596
 4927SOL    MW419482   5.227   5.620   1.127 -0.2011 -0.2190 -0.0839
 4928SOL     OW19483   2.534   4.558   3.775  0.2734  0.3057 -0.3182
 4928SOL    HW219484   2.527   4.505   3.695 -0.2570  0.8042 -0.6136
 4928SOL    HW319485   2.624   4.591   3.773  0.9986 -1.5049  0.4843
 4928SOL    MW419486   2.545   4.556   3.764 -0.4316 -0.0692  0.3042
 4929SOL     OW19487   5.070   1.094   3.452  0.4046  0.4719  0.1012
 4929SOL    HW219488   5.074   1.018   3.394  0.0497 -0.0565  0.7574
 4929SOL    HW319489   5.131   1.073   3.523  1.3013  1.3798 -0.3773
 4929SOL    MW419490   5.079   1.082   3.454 -0.4997 -0.1215 -0.4088
 4930SOL     OW19491   6.362   5.250   5.047 -0.0048 -0.3709  0.3248
 4930SOL    HW219492   6.434   5.189   5.060 -0.0940 -0.8530 -1.2416
 4930SOL    HW319493   6.371   5.314   5.118  1.1168 -1.2139  0.9654
 4930SOL    MW419494   6.373   5.251   5.058  0.1214  0.3085  1.0723
 4931SOL     OW19495   0.542   4.370   0.943 -0.4718 -0.1737 -0.2813
 4931SOL    HW219496   0.502   4.361   1.030 -1.7280  1.0029 -0.7066
 4931SOL    HW319497   0.596   4.449   0.949  0.1779 -0.6086 -0.3135
 4931SOL    MW419498   0.544   4.379   0.956  0.5234  0.1285  0.0901
 4932SOL     OW19499   1.137   5.900   3.597  0.3162 -0.0483 -0.0493
 4932SOL    HW219500   1.215   5.850   3.574 -0.5511 -1.6656  0.3718
 4932SOL    HW319501   1.064   5.838   3.585 -0.8982  1.3808 -0.3505
 4932SOL    MW419502   1.137   5.885   3.593 -0.4174  0.1452 -0.0897
 4933SOL     OW19503   1.639   2.106   5.331 -0.5209 -0.1187 -0.3570
 4933SOL    HW219504   1.605   2.036   5.275  1.0256 -2.1532  1.0846
 4933SOL    HW319505   1.561   2.152   5.362 -1.7024 -1.9521 -0.4586
 4933SOL    MW419506   1.624   2.103   5.328  0.9957 -0.2451 -0.1743
 4934SOL     OW19507   2.794   0.043   1.142 -0.0180  0.0076  0.0235
 4934SOL    HW219508   2.834   0.018   1.058  0.1680  1.7149 -0.4359
 4934SOL    HW319509   2.866   0.039   1.205  0.0982 -0.1962 -0.1198
 4934SOL    MW419510   2.809   0.039   1.139 -0.0833 -0.0001  0.0713
 4935SOL     OW19511   1.463   2.923   4.996 -0.0667 -0.0601  0.2825
 4935SOL    HW219512   1.376   2.954   5.021 -0.1348 -0.0462  0.0331
 4935SOL    HW319513   1.456   2.828   4.998 -0.2695 -0.0648 -0.3423
 4935SOL    MW419514   1.451   2.915   4.999 -0.2954  0.1708  0.2392
 4936SOL     OW19515   6.209   5.032   2.536 -0.2278  0.6437 -0.3945
 4936SOL    HW219516   6.221   5.108   2.481  4.2323 -1.5673 -3.0003
 4936SOL    HW319517   6.140   4.981   2.493 -1.0550  1.7109 -0.3589
 4936SOL    MW419518   6.201   5.035   2.523  0.4548  0.3175 -0.1206
 4937SOL     OW19519   4.911   0.227   5.538 -0.6666 -0.1143 -0.4448
 4937SOL    HW219520   4.988   0.283   5.545 -0.8109  0.1936 -1.1538
 4937SOL    HW319521   4.837   0.288   5.534 -0.9645 -0.4138  0.4253
 4937SOL    MW419522   4.912   0.243   5.538  0.5839 -0.3195  0.2139
 4938SOL     OW19523   2.822   4.312   5.177 -0.4372  0.0063  0.2608
 4938SOL    HW219524   2.896   4.254   5.160  0.4599  1.3042 -0.4776
 4938SOL    HW319525   2.815   4.314   5.273 -0.6685 -1.4831  0.3065
 4938SOL    MW419526   2.831   4.305   5.188  0.1361  0.0534 -0.0645
 4939SOL     OW19527   3.352   4.175   5.555 -0.0260 -0.2232 -0.8267
 4939SOL    HW219528   3.324   4.108   5.618  1.0661  0.3257  0.2757
 4939SOL    HW319529   3.447   4.163   5.549  0.3572  1.8992  0.2254
 4939SOL    MW419530   3.361   4.164   5.562 -0.1432  0.2674 -0.1684
 4940SOL     OW19531   1.459   1.185   4.462  0.2793 -0.4645  0.5565
 4940SOL    HW219532   1.491   1.136   4.386 -1.3784  3.0231 -2.7627
 4940SOL    HW319533   1.363   1.185   4.452  0.0671  0.7996  2.1475
 4940SOL    MW419534   1.450   1.178   4.451  0.2412  0.1959  0.3463
 4941SOL     OW19535   6.427   4.687   1.172 -0.4956  0.4273 -0.2856
 4941SOL    HW219536   6.423   4.666   1.265  0.3726  0.9414 -0.1165
 4941SOL    HW319537   6.513   4.656   1.144 -0.3929  1.0769 -0.7075
 4941SOL    MW419538   6.438   4.680   1.180  0.1844  0.4840 -0.5558
 4942SOL     OW19539   1.356   0.942   5.635  0.7595  0.1203  0.0765
 4942SOL    HW219540   1.288   0.980   5.690  1.2050  0.7657  0.1870
 4942SOL    HW319541   1.310   0.917   5.555  0.7178  2.3646 -0.6693
 4942SOL    MW419542   1.341   0.943   5.632 -0.3504 -0.3554  0.3286
 4943SOL     OW19543   4.949   6.149   1.880  0.3021 -0.1992  0.2087
 4943SOL    HW219544   4.978   6.074   1.933 -0.3964 -0.8351 -0.2826
 4943SOL    HW319545   4.862   6.170   1.913 -0.1368 -0.5973 -0.6510
 4943SOL    MW419546   4.942   6.142   1.891  0.7458  0.7552 -0.0121
 4944SOL     OW19547   3.189   5.682   2.781 -0.1284 -0.4372 -0.0927
 4944SOL    HW219548   3.248   5.735   2.728  0.1635  0.1930  0.8372
 4944SOL    HW319549   3.248   5.631   2.838 -0.4356  1.4365  2.0395
 4944SOL    MW419550   3.205   5.682   2.782  0.2863 -0.2442 -0.2507
 4945SOL     OW19551   2.773   4.518   6.363  0.0605  0.3866 -0.1646
 4945SOL    HW219552   2.749   4.597   6.315 -0.1560 -0.2546 -1.1488
 4945SOL    HW319553   2.690   4.485   6.398 -0.1566 -0.4230 -1.3758
 4945SOL    MW419554   2.759   4.524   6.361  0.1274  0.1638 -0.0232
 4946SOL     OW19555   3.870   4.053   4.107 -0.0985  0.1013 -0.0512
 4946SOL    HW219556   3.896   4.025   4.020 -0.7741 -1.5606  0.2485
 4946SOL    HW319557   3.851   3.971   4.154  1.6996  0.8246  2.1199
 4946SOL    MW419558   3.871   4.038   4.102  0.3134 -0.7232  0.7274
 4947SOL     OW19559   4.354   1.602   3.949  0.2834 -0.4972 -0.2714
 4947SOL    HW219560   4.271   1.618   3.904  0.1615 -1.1759 -0.3084
 4947SOL    HW319561   4.335   1.528   4.007 -0.2096  1.7237  2.6533
 4947SOL    MW419562   4.340   1.594   3.951 -0.2861  0.0221  0.3448
 4948SOL     OW19563   1.344   0.055   1.168 -1.0816 -0.2180 -0.0726
 4948SOL    HW219564   1.334   0.107   1.248 -0.6663  0.8135 -0.6608
 4948SOL    HW319565   1.428   0.011   1.178 -0.6942  0.4620 -0.2246
 4948SOL    MW419566   1.353   0.056   1.180  0.0411 -0.2936  0.2348
 4949SOL     OW19567   4.166   5.093   3.820 -0.1632 -0.5905 -0.1843
 4949SOL    HW219568   4.259   5.075   3.829  0.1430  1.2951  1.0568
 4949SOL    HW319569   4.123   5.023   3.868  0.8339  0.4271  2.3697
 4949SOL    MW419570   4.173   5.081   3.827  0.3511  0.3967 -0.0709
 4950SOL     OW19571   3.842   3.817   3.717 -0.2607 -0.4451 -0.3864
 4950SOL    HW219572   3.896   3.861   3.783  0.2827  2.6969 -2.6783
 4950SOL    HW319573   3.899   3.749   3.681 -0.3216 -1.7236  1.7736
 4950SOL    MW419574   3.857   3.814   3.721 -0.1227 -0.0118  0.3195
 4951SOL     OW19575   4.833   5.949   6.375 -0.0162  0.0838  0.2862
 4951SOL    HW219576   4.798   5.946   6.464  0.9053  0.7705  0.6835
 4951SOL    HW319577   4.928   5.949   6.386  0.1091  0.1345 -0.7023
 4951SOL    MW419578   4.841   5.948   6.388 -0.5573 -0.3705 -0.2578
 4952SOL     OW19579   1.207   4.615   2.018 -0.2586  0.0728  0.2478
 4952SOL    HW219580   1.154   4.536   2.006 -0.2865 -0.0131  0.9291
 4952SOL    HW319581   1.183   4.671   1.944 -0.8769 -0.1983  0.2382
 4952SOL    MW419582   1.197   4.612   2.006 -0.3019  0.1996 -0.6066
 4953SOL     OW19583   5.486   3.780   3.968 -0.0720 -0.2395 -0.3546
 4953SOL    HW219584   5.425   3.828   3.912  0.2224  1.1143  0.4098
 4953SOL    HW319585   5.568   3.829   3.960  0.0074 -0.0884  1.1099
 4953SOL    MW419586   5.489   3.793   3.960  0.1926 -0.3521 -0.2277
 4954SOL     OW19587   1.321   5.603   3.832  0.5842 -0.3314 -0.3369
 4954SOL    HW219588   1.415   5.594   3.818  0.3451 -2.6349 -0.7793
 4954SOL    HW319589   1.281   5.577   3.749 -0.4677 -0.8901  0.3167
 4954SOL    MW419590   1.328   5.599   3.820  0.2380 -0.3401  0.0637
 4955SOL     OW19591   0.509   3.494   5.478 -0.3334 -0.0086  0.2047
 4955SOL    HW219592   0.420   3.461   5.494  0.1918 -1.0606  1.0637
 4955SOL    HW319593   0.499   3.590   5.482 -1.3568 -0.1152  0.6730
 4955SOL    MW419594   0.496   3.503   5.481 -0.2171  0.2734 -0.0624
 4956SOL     OW19595   0.559   4.513   2.554 -0.4566  0.8059 -0.0797
 4956SOL    HW219596   0.509   4.541   2.477 -1.4151 -0.8012 -0.0856
 4956SOL    HW319597   0.494   4.500   2.622  0.2484  1.0278  0.6560
 4956SOL    MW419598   0.544   4.515   2.553 -0.2258 -0.1053  0.0231
 4957SOL     OW19599   3.887   3.953   3.059  0.1373  0.2532 -0.2894
 4957SOL    HW219600   3.957   4.018   3.060 -0.4490  0.9148 -0.8290
 4957SOL    HW319601   3.807   4.005   3.051 -0.2963 -0.5747 -1.5951
 4957SOL    MW419602   3.886   3.969   3.058  0.7706 -0.1222  0.2855
 4958SOL     OW19603   4.519   0.309   3.609  0.3669  0.2693  0.1247
 4958SOL    HW219604   4.500   0.216   3.609  1.0640  0.0840  1.7947
 4958SOL    HW319605   4.613   0.315   3.590  0.9521  0.3761  2.5855
 4958SOL    MW419606   4.529   0.298   3.607 -0.5876  0.2149  0.2503
 4959SOL     OW19607   1.796   5.080   1.867  0.1517  0.3798 -0.1767
 4959SOL    HW219608   1.738   5.007   1.889  0.1327  0.2597 -0.6150
 4959SOL    HW319609   1.776   5.099   1.775  1.0196  0.1407 -0.4170
 4959SOL    MW419610   1.785   5.073   1.858 -0.0294 -0.3591 -0.3950
 4960SOL     OW19611   3.257   3.938   2.850 -0.8711  0.2378 -0.1797
 4960SOL    HW219612   3.223   3.857   2.813  0.9476 -1.6192  1.8664
 4960SOL    HW319613   3.193   3.963   2.917 -0.4466 -0.7710  0.6386
 4960SOL    MW419614   3.244   3.931   2.854  0.4850 -0.0363 -0.6757
 4961SOL     OW19615   4.562   6.336   0.821  0.0596 -0.0531 -0.1236
 4961SOL    HW219616   4.569   6.310   0.729  0.4900  1.3604 -0.5135
 4961SOL    HW319617   4.477   6.380   0.827  0.1610  0.1136  0.0889
 4961SOL    MW419618   4.552   6.338   0.810  0.0489  0.0073 -0.3478
 4962SOL     OW19619   5.281   1.667   4.498 -0.3729 -0.8457  0.2847
 4962SOL    HW219620   5.210   1.674   4.434 -1.3647 -1.0572  1.3300
 4962SOL    HW319621   5.291   1.756   4.532 -0.7824 -1.0013  0.8132
 4962SOL    MW419622   5.273   1.680   4.494  0.2154 -0.0518 -0.1772
 4963SOL     OW19623   2.162   3.233   1.523 -0.0703  0.2301 -0.3563
 4963SOL    HW219624   2.253   3.210   1.542 -0.0442  0.3116 -0.3847
 4963SOL    HW319625   2.114   3.204   1.600 -0.1771 -0.8186 -0.7935
 4963SOL    MW419626   2.168   3.226   1.535 -0.2501  0.3810  0.0752
 4964SOL     OW19627   1.240   4.774   4.051 -0.6454  0.2809 -0.5919
 4964SOL    HW219628   1.331   4.794   4.027  0.3624 -1.4705  1.4426
 4964SOL    HW319629   1.223   4.689   4.011 -0.7344 -0.2296  0.4995
 4964SOL    MW419630   1.250   4.766   4.043  0.2328  0.1818  0.1047
 4965SOL     OW19631   2.051   5.196   1.574  0.2290 -0.1188 -0.3796
 4965SOL    HW219632   2.083   5.108   1.593  0.6256 -0.0478 -0.7058
 4965SOL    HW319633   2.056   5.203   1.478  1.7260  0.8254 -0.2655
 4965SOL    MW419634   2.056   5.186   1.564 -0.0930 -0.8158  0.2641
 4966SOL     OW19635   1.544   4.574   1.615 -0.3064  0.2025 -0.0772
 4966SOL    HW219636   1.593   4.494   1.599 -0.7652  0.2432 -1.9449
 4966SOL    HW319637   1.484   4.552   1.685 -0.9764 -1.3618 -1.0962
 4966SOL    MW419638   1.543   4.561   1.622  0.2774 -0.4931 -0.1777
 4967SOL     OW19639   4.206   3.450   0.969 -0.4424  1.0745  0.3342
 4967SOL    HW219640   4.301   3.438   0.975 -0.4552  1.1825  0.7831
 4967SOL    HW319641   4.180   3.392   0.898 -0.1689  0.2608  0.8701
 4967SOL    MW419642   4.215   3.441   0.961  0.1054  0.4419  0.1296
 4968SOL     OW19643   2.144   1.921   5.541 -0.4406  0.7804  0.2601
 4968SOL    HW219644   2.147   1.975   5.619  0.2576  1.4416 -0.2051
 4968SOL    HW319645   2.052   1.924   5.512 -0.5674  1.0387  0.6908
 4968SOL    MW419646   2.132   1.928   5.547  0.0927  0.0129  0.8733
 4969SOL     OW19647   1.902   2.054   2.494  0.2959 -0.6309  0.4611
 4969SOL    HW219648   1.874   1.973   2.537 -2.1585  0.3753  0.9369
 4969SOL    HW319649   1.850   2.057   2.413  1.2462 -0.1030 -0.1492
 4969SOL    MW419650   1.891   2.044   2.489  0.0348 -0.7120 -0.2564
 4970SOL     OW19651   0.703   2.125   4.370 -0.2760 -0.1388 -0.2436
 4970SOL    HW219652   0.672   2.184   4.301  1.0787  0.6787 -0.1831
 4970SOL    HW319653   0.707   2.039   4.328 -1.3107 -0.0219 -0.6199
 4970SOL    MW419654   0.699   2.121   4.355  0.4429  0.2626 -0.5378
 4971SOL     OW19655   0.793   5.829   1.648  0.5213  0.3519 -0.4350
 4971SOL    HW219656   0.856   5.766   1.681 -0.0283 -0.3215 -0.6297
 4971SOL    HW319657   0.744   5.857   1.725  0.3177  0.0136 -0.4364
 4971SOL    MW419658   0.795   5.824   1.662  0.2738 -0.5484  1.6922
 4972SOL     OW19659   0.511   2.835   4.128 -0.0367 -0.3079 -0.0245
 4972SOL    HW219660   0.519   2.914   4.074 -2.2118  1.0030  1.4233
 4972SOL    HW319661   0.588   2.837   4.184  0.4250  0.2465 -0.6519
 4972SOL    MW419662   0.522   2.846   4.128 -0.1269  0.0211 -0.2292
 4973SOL     OW19663   2.330   1.627   3.043 -0.2455  0.3677 -0.2055
 4973SOL    HW219664   2.251   1.592   3.085 -0.3363  1.5520  0.6680
 4973SOL    HW319665   2.379   1.550   3.015 -1.4294 -0.3999 -0.2342
 4973SOL    MW419666   2.326   1.612   3.045  0.5416  0.2063 -0.1665
 4974SOL     OW19667   6.114   4.441   2.213 -0.2206 -0.1368  0.3277
 4974SOL    HW219668   6.079   4.486   2.137  1.3443  0.1043 -0.2632
 4974SOL    HW319669   6.045   4.451   2.280 -1.1996  0.4540 -0.7348
 4974SOL    MW419670   6.100   4.448   2.212 -0.3293  0.1987  0.4030
 4975SOL     OW19671   5.785   1.203   4.553  0.2782  0.1902 -0.4035
 4975SOL    HW219672   5.822   1.117   4.532 -0.1044  0.2318 -1.2456
 4975SOL    HW319673   5.832   1.264   4.497 -0.0970  0.4150 -0.4764
 4975SOL    MW419674   5.796   1.199   4.543  0.3422 -0.2854  0.0116
 4976SOL     OW19675   2.789   0.081   0.851 -0.4788 -0.3442 -0.4703
 4976SOL    HW219676   2.853   0.042   0.793 -1.4822  1.1299 -2.6999
 4976SOL    HW319677   2.744   0.147   0.798 -0.6999  1.9447  2.2717
 4976SOL    MW419678   2.791   0.085   0.837  0.1185  0.4066 -0.0637
 4977SOL     OW19679   5.324   5.863   1.062 -0.8735  0.0273  0.1330
 4977SOL    HW219680   5.410   5.862   1.105 -0.5066  0.9576 -0.5722
 4977SOL    HW319681   5.287   5.776   1.082  0.4508 -0.5928 -0.0276
 4977SOL    MW419682   5.330   5.851   1.071  0.3371 -0.4516  0.5523
 4978SOL     OW19683   0.427   3.043   3.676  0.4831  0.4648  0.0895
 4978SOL    HW219684   0.391   2.955   3.689  2.3497 -0.3341  0.1367
 4978SOL    HW319685   0.359   3.090   3.628  0.5940 -1.9028 -2.6516
 4978SOL    MW419686   0.413   3.037   3.672  0.4608 -0.0226 -0.2757
 4979SOL     OW19687   5.462   0.645   2.456 -0.0060  0.5676  0.6258
 4979SOL    HW219688   5.504   0.671   2.374 -0.8515  1.1291  0.3578
 4979SOL    HW319689   5.472   0.721   2.513  0.9080  0.0439  1.1878
 4979SOL    MW419690   5.469   0.658   2.452  0.0820 -0.5851  0.3873
 4980SOL     OW19691   6.016   1.226   0.176  0.0897  0.4869  0.1795
 4980SOL    HW219692   5.948   1.268   0.123  0.7542  0.8430 -0.4109
 4980SOL    HW319693   5.980   1.225   0.264 -0.1682  1.8447  0.1177
 4980SOL    MW419694   6.003   1.232   0.180  0.3545  0.2976 -0.4513
 4981SOL     OW19695   2.423   4.403   6.029 -0.4845  0.4445  0.0683
 4981SOL    HW219696   2.501   4.405   5.973  0.3558  1.0397  1.2202
 4981SOL    HW319697   2.453   4.361   6.110 -1.8909 -1.1705 -0.1830
 4981SOL    MW419698   2.437   4.398   6.032 -0.2613 -0.2205 -0.0404
 4982SOL     OW19699   0.748   2.530   0.938  0.0435 -0.7335  0.4176
 4982SOL    HW219700   0.736   2.589   0.864 -1.8071 -2.7878 -1.0706
 4982SOL    HW319701   0.812   2.573   0.994  1.8009  0.7920 -2.5400
 4982SOL    MW419702   0.755   2.543   0.936  0.6447  0.1099  0.3017
 4983SOL     OW19703   1.530   2.710   3.424 -0.0139  0.5916 -0.3385
 4983SOL    HW219704   1.496   2.622   3.438  1.5239  0.0650  0.3576
 4983SOL    HW319705   1.543   2.717   3.330  0.2840 -0.1114 -0.3551
 4983SOL    MW419706   1.528   2.699   3.414  0.3882 -0.4526 -0.2192
 4984SOL     OW19707   3.558   4.826   4.755  0.4870  0.2856 -0.1937
 4984SOL    HW219708   3.638   4.878   4.762  0.3269  0.3338  1.7289
 4984SOL    HW319709   3.499   4.880   4.703  0.9022  1.2951  0.3471
 4984SOL    MW419710   3.561   4.840   4.749 -0.1444  0.1017  0.5379
 4985SOL     OW19711   1.556   2.299   4.389 -0.0661 -0.2666 -0.1984
 4985SOL    HW219712   1.643   2.260   4.397 -0.1726 -0.3747  0.4412
 4985SOL    HW319713   1.548   2.319   4.295 -0.0449 -1.8345 -0.5630
 4985SOL    MW419714   1.566   2.297   4.377 -0.2159 -0.2980  0.1651
 4986SOL     OW19715   2.750   5.448   2.886  0.1461 -0.1107 -0.5318
 4986SOL    HW219716   2.776   5.489   2.968 -1.1757 -0.3902  0.0578
 4986SOL    HW319717   2.812   5.482   2.821  0.4913  1.0252  0.3546
 4986SOL    MW419718   2.762   5.458   2.888  0.1665  0.1604  0.3168
 4987SOL     OW19719   5.194   2.216   2.387 -0.5475 -0.7954 -0.1623
 4987SOL    HW219720   5.236   2.291   2.344 -0.0511  0.6627  2.6193
 4987SOL    HW319721   5.267   2.161   2.415 -0.8450 -1.5661 -0.8738
 4987SOL    MW419722   5.209   2.219   2.385 -0.4726 -0.0299  0.0017
 4988SOL     OW19723   0.112   3.735   3.489  0.1824 -0.4033 -0.0229
 4988SOL    HW219724   0.204   3.752   3.507  0.6902 -2.5458 -0.3653
 4988SOL    HW319725   0.105   3.742   3.394 -0.5016  1.7627  0.1312
 4988SOL    MW419726   0.123   3.738   3.479 -0.3282 -0.6002  0.0470
 4989SOL     OW19727   6.154   2.514   3.482 -0.0889 -0.7711  0.0272
 4989SOL    HW219728   6.100   2.492   3.407 -1.3874  1.1326  0.3232
 4989SOL    HW319729   6.171   2.608   3.472 -0.1453 -0.5141  2.0166
 4989SOL    MW419730   6.149   2.524   3.471  0.7629  0.2472 -0.0580
 4990SOL     OW19731   3.236   3.338   0.570  0.1240  0.4569 -0.2060
 4990SOL    HW219732   3.266   3.428   0.569  2.7632 -0.3462 -0.1088
 4990SOL    HW319733   3.265   3.301   0.487  0.1964 -0.6231  0.2726
 4990SOL    MW419734   3.244   3.345   0.559 -0.1691  0.0925 -0.5192
 4991SOL     OW19735   3.351   1.509   4.866 -0.7127  0.6848  0.1334
 4991SOL    HW219736   3.328   1.587   4.917 -0.8425 -0.3012  1.6407
 4991SOL    HW319737   3.440   1.489   4.892 -0.7424  0.2237 -0.1072
 4991SOL    MW419738   3.359   1.516   4.876  0.2285  0.0757 -0.4285
 4992SOL     OW19739   2.768   5.012   3.820  0.0131  0.4848  0.3231
 4992SOL    HW219740   2.784   5.097   3.778 -0.7063  1.3531  1.7073
 4992SOL    HW319741   2.744   5.035   3.910  1.0706 -1.2744  1.0900
 4992SOL    MW419742   2.767   5.026   3.827  0.5133  0.2946 -0.2877
 4993SOL     OW19743   2.009   1.856   0.737 -0.0627 -0.2640 -0.4545
 4993SOL    HW219744   2.097   1.873   0.702 -0.5349 -1.1361 -2.1805
 4993SOL    HW319745   1.968   1.801   0.671 -1.7509 -0.2832  0.5726
 4993SOL    MW419746   2.015   1.851   0.724 -0.3092 -0.0406 -0.2928
 4994SOL     OW19747   0.987   3.019   1.318 -0.0597  0.0950 -0.1212
 4994SOL    HW219748   1.082   3.011   1.321 -0.0619 -0.0075 -0.3404
 4994SOL    HW319749   0.968   3.099   1.368  0.0686 -0.4217  0.7628
 4994SOL    MW419750   0.997   3.029   1.325 -0.3644 -0.7983 -0.0705
 4995SOL     OW19751   2.150   3.834   5.775  0.0546 -0.3528  0.2099
 4995SOL    HW219752   2.073   3.851   5.829 -0.0354 -0.2184  0.0426
 4995SOL    HW319753   2.209   3.908   5.793 -0.6343  0.5498 -1.0541
 4995SOL    MW419754   2.148   3.846   5.784 -0.6460 -0.0079 -0.0270
 4996SOL     OW19755   3.770   3.261   5.704 -0.0003 -0.1927  0.7952
 4996SOL    HW219756   3.777   3.177   5.659 -0.0552 -0.7726  1.8638
 4996SOL    HW319757   3.791   3.243   5.795  0.4103  1.0339  0.9692
 4996SOL    MW419758   3.773   3.248   5.710  0.3018 -0.1454  0.0380
 4997SOL     OW19759   3.064   1.882   0.942 -0.7139 -0.8158  0.0850
 4997SOL    HW219760   3.019   1.964   0.965 -0.8027 -0.2656 -1.8247
 4997SOL    HW319761   2.993   1.821   0.921 -0.6319 -1.2356  0.9769
 4997SOL    MW419762   3.048   1.885   0.942 -0.0831  0.0771 -0.0320
 4998SOL     OW19763   1.885   2.585   1.426 -0.6448 -0.1983 -0.0078
 4998SOL    HW219764   1.957   2.562   1.485 -0.3467  0.3700 -0.1426
 4998SOL    HW319765   1.840   2.502   1.410  0.1929 -0.6201 -0.2080
 4998SOL    MW419766   1.889   2.571   1.432  0.3974  0.3387  0.4314
 4999SOL     OW19767   6.220   1.642   2.063 -0.3796  0.1898 -0.0544
 4999SOL    HW219768   6.182   1.730   2.070  0.2032  0.4419  0.0181
 4999SOL    HW319769   6.315   1.657   2.064 -0.1041 -0.6974  4.2551
 4999SOL    MW419770   6.228   1.656   2.064  0.1195  0.1986  0.1557
 5000SOL     OW19771   4.273   4.350   2.611 -0.4159 -0.6883  0.1860
 5000SOL    HW219772   4.242   4.343   2.701 -0.9354  0.8078  0.1523
 5000SOL    HW319773   4.364   4.319   2.615 -0.5443 -0.9818  1.1411
 5000SOL    MW419774   4.281   4.345   2.623 -0.3177 -0.3437 -0.0461
 5001SOL     OW19775   5.703   1.187   1.052 -0.0708  0.0127 -0.5772
 5001SOL    HW219776   5.610   1.202   1.033 -0.5238  0.1101  1.4262
 5001SOL    HW319777   5.708   1.190   1.148  2.1506  0.8358 -0.6636
 5001SOL    MW419778   5.691   1.190   1.062  0.4382  0.0216  0.3418
 5002SOL     OW19779   1.597   5.295   3.645 -0.6181  0.9348  0.6809
 5002SOL    HW219780   1.535   5.261   3.709 -0.3507 -2.5152 -0.6959
 5002SOL    HW319781   1.683   5.268   3.678 -0.3024  0.9900 -0.0758
 5002SOL    MW419782   1.600   5.287   3.658 -0.4897 -0.0990  0.2672
 5003SOL     OW19783   6.237   4.778   1.468 -0.1977 -0.3950  0.3437
 5003SOL    HW219784   6.263   4.815   1.552 -0.2310  1.3752 -0.3677
 5003SOL    HW319785   6.305   4.714   1.447  0.9222  0.6099  0.7936
 5003SOL    MW419786   6.249   4.774   1.476 -0.0722  0.4945 -0.3611
 5004SOL     OW19787   2.659   1.309   4.444  0.1772  0.5839 -0.0088
 5004SOL    HW219788   2.649   1.313   4.349 -0.7755  1.1710  0.1101
 5004SOL    HW319789   2.675   1.400   4.470  0.1571  0.4652  0.4199
 5004SOL    MW419790   2.660   1.322   4.435  0.1642  0.0379  0.3058
 5005SOL     OW19791   3.957   3.260   4.876 -0.0894 -0.1855  0.2689
 5005SOL    HW219792   3.867   3.255   4.907  0.3849 -1.6201  1.5682
 5005SOL    HW319793   3.956   3.219   4.789 -1.0593  1.9239 -0.7811
 5005SOL    MW419794   3.945   3.254   4.869  1.0067 -0.2277  0.3653
 5006SOL     OW19795   5.023   1.923   1.843 -0.0648 -0.2694  0.1404
 5006SOL    HW219796   5.022   1.827   1.848  1.1432 -0.2440  1.4229
 5006SOL    HW319797   5.094   1.949   1.901  1.2671  1.3114 -2.0498
 5006SOL    MW419798   5.032   1.914   1.851 -0.7664  0.3497  0.2699
 5007SOL     OW19799   4.651   0.755   4.389 -0.0334 -0.0888  0.6323
 5007SOL    HW219800   4.603   0.739   4.307 -1.4926  0.3629  1.3656
 5007SOL    HW319801   4.644   0.849   4.403  1.6597  0.1041  0.4535
 5007SOL    MW419802   4.644   0.765   4.380  0.8519 -0.0796 -0.1808
 5008SOL     OW19803   4.087   0.566   1.657 -0.2036 -0.1142  0.6524
 5008SOL    HW219804   4.104   0.598   1.568 -0.0687  0.3292  0.8381
 5008SOL    HW319805   4.173   0.536   1.688 -0.3920 -1.0142  0.3452
 5008SOL    MW419806   4.101   0.566   1.649 -0.2231  0.0614  0.0260
 5009SOL     OW19807   3.928   5.385   5.237  0.0522 -0.6200  0.6488
 5009SOL    HW219808   3.983   5.317   5.199 -1.2722 -1.6262  0.4441
 5009SOL    HW319809   3.969   5.467   5.210  2.1760 -1.3103  1.6530
 5009SOL    MW419810   3.940   5.387   5.228  0.4678  0.3444 -0.2483
 5010SOL     OW19811   0.605   5.180   1.090 -0.2105  0.0741  0.8335
 5010SOL    HW219812   0.562   5.214   1.168 -0.6331  0.2621  0.5215
 5010SOL    HW319813   0.664   5.250   1.063 -1.1661  0.6330  0.1230
 5010SOL    MW419814   0.607   5.193   1.097 -0.4387  0.1905  0.4607
 5011SOL     OW19815   6.213   3.662   5.549  0.3026 -0.0850 -0.5270
 5011SOL    HW219816   6.121   3.636   5.550  0.3787 -0.6387 -2.5990
 5011SOL    HW319817   6.212   3.749   5.509  0.4129  1.5744  2.7728
 5011SOL    MW419818   6.201   3.670   5.544  0.1948 -0.7063  0.1209
 5012SOL     OW19819   1.235   1.343   1.880 -0.2041 -0.2152 -0.4164
 5012SOL    HW219820   1.187   1.280   1.828 -0.7079 -0.7170  0.6191
 5012SOL    HW319821   1.288   1.290   1.939 -2.3583  0.2029  2.0808
 5012SOL    MW419822   1.235   1.328   1.881 -0.1084  0.1064 -0.3426
 5013SOL     OW19823   5.151   5.338   4.845 -0.7364 -0.2762  0.1557
 5013SOL    HW219824   5.161   5.328   4.750 -1.3490  2.4788 -0.2896
 5013SOL    HW319825   5.240   5.347   4.878 -0.4409 -2.3481  0.0615
 5013SOL    MW419826   5.164   5.338   4.837 -0.4320  0.5046  0.2125
 5014SOL     OW19827   3.890   5.161   3.536  0.0614  0.1305  0.6154
 5014SOL    HW219828   3.852   5.075   3.554 -0.0288  0.2647  1.0821
 5014SOL    HW319829   3.984   5.144   3.527 -0.1671 -0.3209 -1.3269
 5014SOL    MW419830   3.897   5.147   3.537 -0.7880 -0.2570 -0.1451
 5015SOL     OW19831   3.190   1.299   4.773  0.3017 -0.0282  0.5040
 5015SOL    HW219832   3.199   1.333   4.684 -0.0400 -0.3397  0.3481
 5015SOL    HW319833   3.221   1.371   4.829 -0.0139  0.3834  0.1611
 5015SOL    MW419834   3.195   1.313   4.769 -0.2630  0.4186  0.4885
 5016SOL     OW19835   0.278   5.342   0.089 -0.6089  0.5977  0.0475
 5016SOL    HW219836   0.265   5.262   0.141  2.4285  0.8224  1.3096
 5016SOL    HW319837   0.307   5.310   0.004  0.9013  0.2978  0.6462
 5016SOL    MW419838   0.280   5.327   0.085 -0.1393  0.1302  0.2639
 5017SOL     OW19839   6.240   5.753   5.399  0.0813  0.1813 -0.1546
 5017SOL    HW219840   6.288   5.792   5.472 -1.0738  0.5028  0.4572
 5017SOL    HW319841   6.152   5.791   5.405  0.2899  1.2376 -2.4918
 5017SOL    MW419842   6.235   5.763   5.410  0.0792  0.0446 -0.0894
 5018SOL     OW19843   4.319   4.808   2.289  0.3302 -0.3036  0.4706
 5018SOL    HW219844   4.393   4.865   2.309  1.3195 -1.1501 -0.6189
 5018SOL    HW319845   4.332   4.731   2.345  0.0118 -0.2525  0.6168
 5018SOL    MW419846   4.330   4.805   2.299 -0.0895  0.2370  0.0806
 5019SOL     OW19847   0.776   1.017   1.357  0.5948 -0.2600  0.1117
 5019SOL    HW219848   0.803   1.030   1.267  0.2754 -0.8562 -0.0755
 5019SOL    HW319849   0.691   0.972   1.351  1.0392 -1.2099  0.7092
 5019SOL    MW419850   0.768   1.013   1.345 -0.5997 -0.4627  0.4405
 5020SOL     OW19851   5.533   6.268   1.526 -0.0873  0.1406  0.2015
 5020SOL    HW219852   5.585   6.190   1.548  1.0706  1.1594  1.2003
 5020SOL    HW319853   5.491   6.293   1.608 -2.2578 -0.6801 -0.5924
 5020SOL    MW419854   5.535   6.261   1.539  0.3800 -0.0892  0.2522
 5021SOL     OW19855   2.357   2.764   2.774  0.7051  0.0686  0.4080
 5021SOL    HW219856   2.268   2.729   2.774  0.8918 -0.5472  2.6182
 5021SOL    HW319857   2.402   2.713   2.706 -0.3283 -0.3681  0.0229
 5021SOL    MW419858   2.351   2.752   2.765 -0.1064  0.2396 -0.0415
 5022SOL     OW19859   3.059   1.702   2.113  0.6643 -0.1145 -0.1631
 5022SOL    HW219860   3.117   1.777   2.125  0.9571 -0.6232  1.9098
 5022SOL    HW319861   3.022   1.686   2.200  0.2898 -2.1048 -0.6405
 5022SOL    MW419862   3.062   1.710   2.126  0.2277  0.3705 -0.4332
 5023SOL     OW19863   2.758   5.273   4.948 -0.9749  0.0078  0.1279
 5023SOL    HW219864   2.782   5.183   4.965 -1.8858 -0.0373  1.2882
 5023SOL    HW319865   2.708   5.300   5.025 -0.1727  1.7076  0.1055
 5023SOL    MW419866   2.754   5.265   4.960 -0.3584  0.4112 -0.1537
 5024SOL     OW19867   3.811   5.805   4.824 -0.1407 -0.2717 -0.4864
 5024SOL    HW219868   3.810   5.733   4.761 -2.2185  1.7736 -3.0256
 5024SOL    HW319869   3.778   5.767   4.905  0.6724 -2.5479 -1.1496
 5024SOL    MW419870   3.807   5.791   4.827  0.2205  0.0817  0.0906
 5025SOL     OW19871   0.800   1.936   2.457 -0.2956 -0.1761  0.4225
 5025SOL    HW219872   0.722   1.941   2.513 -0.5432 -1.0799  0.1792
 5025SOL    HW319873   0.784   1.859   2.401  0.4974 -0.0065 -0.0475
 5025SOL    MW419874   0.787   1.926   2.457 -0.0948 -0.4438 -0.2305
 5026SOL     OW19875   2.037   3.824   1.724  0.5017 -0.3937 -0.2330
 5026SOL    HW219876   2.019   3.917   1.708  0.2290 -0.3663  0.2265
 5026SOL    HW319877   2.043   3.786   1.636  0.5387  0.0415 -0.4247
 5026SOL    MW419878   2.035   3.832   1.710 -0.1946  0.0200 -0.3878
 5027SOL     OW19879   3.739   3.085   1.002 -0.0261  0.2713 -0.0533
 5027SOL    HW219880   3.756   3.116   0.913  1.6786 -0.7330 -0.1269
 5027SOL    HW319881   3.739   2.989   0.994  1.3315  0.1367  1.1785
 5027SOL    MW419882   3.742   3.076   0.989 -0.0429  0.0841  0.2169
 5028SOL     OW19883   0.685   4.184   4.210  0.1989 -0.2939 -0.0726
 5028SOL    HW219884   0.673   4.257   4.270  0.6256  0.1534 -0.5220
 5028SOL    HW319885   0.675   4.222   4.123 -0.3392 -0.9226 -0.2869
 5028SOL    MW419886   0.682   4.199   4.206 -0.2498  0.1766 -0.2325
 5029SOL     OW19887   2.618   2.449   1.525 -0.2332  0.1383  0.4653
 5029SOL    HW219888   2.598   2.533   1.565  1.3363  0.7716 -0.0161
 5029SOL    HW319889   2.695   2.417   1.572  1.0766  0.4549 -1.3299
 5029SOL    MW419890   2.625   2.456   1.536 -0.5857 -0.2447 -0.6374
 5030SOL     OW19891   1.089   6.138   0.413 -0.1940 -0.0949 -0.6218
 5030SOL    HW219892   0.996   6.152   0.431 -0.3185 -0.9578 -0.5506
 5030SOL    HW319893   1.126   6.226   0.407 -0.4590  0.2906  2.1790
 5030SOL    MW419894   1.082   6.152   0.414 -0.4589  0.3869  0.4266
 5031SOL     OW19895   3.865   1.115   2.083 -0.1106 -0.0222  0.0579
 5031SOL    HW219896   3.887   1.201   2.049  0.1043  0.7362  1.9642
 5031SOL    HW319897   3.856   1.059   2.006  1.1892  1.3613 -1.1409
 5031SOL    MW419898   3.866   1.119   2.068 -0.2344  0.0331  0.0372
 5032SOL     OW19899   1.308   4.492   2.780 -0.5608  0.1218  0.2456
 5032SOL    HW219900   1.356   4.505   2.699 -0.0185 -0.2328  0.5038
 5032SOL    HW319901   1.348   4.552   2.843  0.0260 -0.6566  0.6467
 5032SOL    MW419902   1.319   4.502   2.778  0.4018  1.1321  0.2556
 5033SOL     OW19903   6.019   4.544   6.307 -0.1269 -0.0388  0.1381
 5033SOL    HW219904   5.971   4.471   6.269 -0.3857 -0.1122  0.6060
 5033SOL    HW319905   5.979   4.558   6.393 -1.3086  1.8393 -0.6603
 5033SOL    MW419906   6.007   4.537   6.313  0.2375 -0.4326 -0.5028
 5034SOL     OW19907   2.329   2.866   4.299  0.2614  0.2191 -0.1413
 5034SOL    HW219908   2.320   2.844   4.207 -0.9880 -0.7031  0.1571
 5034SOL    HW319909   2.422   2.858   4.317  0.1804 -3.7275 -0.4245
 5034SOL    MW419910   2.340   2.862   4.290 -0.1302  0.0212 -0.3676
 5035SOL     OW19911   5.863   3.332   1.741  0.2469 -0.1408  0.0938
 5035SOL    HW219912   5.807   3.361   1.813  0.3977 -1.1484  0.6299
 5035SOL    HW319913   5.935   3.396   1.740 -0.4955  0.7227 -0.1227
 5035SOL    MW419914   5.865   3.345   1.750  0.0231 -0.1664  0.4579
 5036SOL     OW19915   6.255   4.030   2.850 -0.1035 -0.4342  0.8316
 5036SOL    HW219916   6.262   3.938   2.873  4.1119 -0.6848 -0.4928
 5036SOL    HW319917   6.327   4.072   2.898 -0.9470  1.8645  0.2067
 5036SOL    MW419918   6.266   4.024   2.859 -0.3456  0.1714  0.1499
 5037SOL     OW19919   2.964   6.330   5.145  0.4418  0.5806  0.6539
 5037SOL    HW219920   2.877   6.321   5.184 -0.3143 -2.6493 -1.3739
 5037SOL    HW319921   2.947   6.328   5.050  2.7492 -1.1318  0.1993
 5037SOL    MW419922   2.950   6.329   5.137  0.1113  0.2043  0.0472
 5038SOL     OW19923   5.524   0.264   3.746 -0.2212  0.5314 -0.4774
 5038SOL    HW219924   5.540   0.307   3.829 -2.1064  1.8973 -0.7551
 5038SOL    HW319925   5.595   0.200   3.737  0.9392  1.5025  1.3728
 5038SOL    MW419926   5.535   0.261   3.756  0.1173  0.4572 -0.6281
 5039SOL     OW19927   6.392   2.456   0.991  0.6755  0.0834 -0.3870
 5039SOL    HW219928   6.349   2.395   1.051 -2.2575  1.7929 -0.6070
 5039SOL    HW319929   6.367   2.425   0.904 -1.2481  1.7621 -0.4935
 5039SOL    MW419930   6.383   2.444   0.988 -0.1561 -0.2717 -0.7352
 5040SOL     OW19931   6.034   3.952   3.428 -0.1024 -0.8220 -0.4035
 5040SOL    HW219932   5.963   3.905   3.471 -0.5106 -0.3580 -0.5630
 5040SOL    HW319933   6.112   3.899   3.447 -0.1592 -0.3146  1.4210
 5040SOL    MW419934   6.035   3.939   3.436  0.0437 -0.5500  0.4674
 5041SOL     OW19935   6.131   2.330   3.919  0.7864 -0.1662  0.5440
 5041SOL    HW219936   6.127   2.234   3.927 -2.2011 -0.3283 -1.4215
 5041SOL    HW319937   6.186   2.345   3.842  0.4218 -0.3771  0.2370
 5041SOL    MW419938   6.138   2.319   3.910  0.1348  0.2425  0.1422
 5042SOL     OW19939   5.622   1.989   4.114  0.1644  0.0531  0.4614
 5042SOL    HW219940   5.579   1.929   4.176  2.9576 -2.0309  0.5702
 5042SOL    HW319941   5.632   1.937   4.034  1.2539  0.9176  0.0133
 5042SOL    MW419942   5.618   1.974   4.112 -0.3504  0.0313  0.4167
 5043SOL     OW19943   2.153   3.193   0.126 -0.4064  0.1612  0.4149
 5043SOL    HW219944   2.099   3.192   0.047  0.9923  1.4262 -0.6167
 5043SOL    HW319945   2.091   3.205   0.197 -1.5898  0.3669 -0.6140
 5043SOL    MW419946   2.138   3.194   0.125  0.3677 -0.1832  0.3294
 5044SOL     OW19947   0.860   4.280   5.139 -0.3363 -0.2350  0.0325
 5044SOL    HW219948   0.855   4.364   5.093 -1.4424 -0.1271  0.3120
 5044SOL    HW319949   0.946   4.281   5.181  0.8284 -0.4399 -2.1782
 5044SOL    MW419950   0.871   4.292   5.138  0.0506 -0.4258  0.0906
 5045SOL     OW19951   3.262   6.115   1.394  0.0620  0.3629  0.4733
 5045SOL    HW219952   3.222   6.034   1.427 -1.1081  1.7288  2.6700
 5045SOL    HW319953   3.356   6.097   1.395 -0.0923 -0.5812  2.1765
 5045SOL    MW419954   3.269   6.102   1.399  0.4163 -0.4837 -0.2474
 5046SOL     OW19955   6.388   0.358   4.284  0.1330  0.1233 -0.0514
 5046SOL    HW219956   6.365   0.365   4.191  3.7408  3.3128 -0.9551
 5046SOL    HW319957   6.359   0.442   4.321 -1.3631 -1.1482  1.8482
 5046SOL    MW419958   6.381   0.370   4.277 -0.1929  0.3329  0.3374
 5047SOL     OW19959   1.358   6.017   5.350  0.0935  0.2419  0.0005
 5047SOL    HW219960   1.426   5.950   5.354  2.7154  2.6084 -1.1739
 5047SOL    HW319961   1.327   6.015   5.259 -1.6810 -0.9476  0.5684
 5047SOL    MW419962   1.363   6.008   5.339  0.0532  0.4135 -0.3206
 5048SOL     OW19963   1.846   3.827   3.945  0.1274 -0.5885  0.0903
 5048SOL    HW219964   1.907   3.815   3.873 -0.2407 -1.0618 -0.1520
 5048SOL    HW319965   1.876   3.766   4.012  0.1778 -0.5070  0.1416
 5048SOL    MW419966   1.858   3.817   3.945  0.1268 -0.1139  0.6338
 5049SOL     OW19967   2.461   5.873   0.822  0.0599 -0.1706 -0.0889
 5049SOL    HW219968   2.401   5.924   0.876  0.4929  1.2411 -0.9006
 5049SOL    HW319969   2.540   5.926   0.817  0.7214 -1.1661 -0.5505
 5049SOL    MW419970   2.463   5.886   0.828  0.0109 -0.6533 -0.3299
 5050SOL     OW19971   0.319   1.185   4.657 -0.4141  0.1308  0.4697
 5050SOL    HW219972   0.269   1.130   4.717 -0.9741  0.7766  0.6068
 5050SOL    HW319973   0.351   1.256   4.712 -0.5122  0.4611  0.1035
 5050SOL    MW419974   0.317   1.187   4.672  0.0629 -0.2966  0.2263
 5051SOL     OW19975   5.751   4.472   3.656  0.1213 -0.0849 -0.1528
 5051SOL    HW219976   5.842   4.470   3.627  0.1717 -1.3635  0.0224
 5051SOL    HW319977   5.700   4.485   3.575  0.4345  0.1163 -0.3173
 5051SOL    MW419978   5.756   4.473   3.641  0.6462  0.4966 -0.0222
 5052SOL     OW19979   1.172   3.210   3.378  0.0108  0.3328 -0.0620
 5052SOL    HW219980   1.087   3.251   3.360 -0.5054 -0.7116 -0.0425
 5052SOL    HW319981   1.172   3.131   3.325 -0.1680 -1.0851  1.9538
 5052SOL    MW419982   1.160   3.205   3.369 -0.4973 -0.1725  1.2301
 5053SOL     OW19983   4.509   4.073   4.675  0.2451 -0.0515  0.1158
 5053SOL    HW219984   4.431   4.018   4.679  0.4352 -0.2641  1.3930
 5053SOL    HW319985   4.534   4.072   4.582  0.2652 -2.1658  0.0843
 5053SOL    MW419986   4.502   4.065   4.663  0.0643 -0.4033  0.0444
 5054SOL     OW19987   2.300   2.840   3.497  0.1014 -0.4844 -0.0838
 5054SOL    HW219988   2.218   2.885   3.477  0.0214 -0.8585 -0.5859
 5054SOL    HW319989   2.305   2.769   3.434  0.5439 -0.8006  0.3028
 5054SOL    MW419990   2.290   2.837   3.486  0.3046 -0.7494  0.1241
 5055SOL     OW19991   2.736   5.487   4.189 -0.3851 -0.2956  0.3531
 5055SOL    HW219992   2.677   5.450   4.255  0.1641  0.2209  1.1494
 5055SOL    HW319993   2.789   5.413   4.160 -0.2600 -0.4204  0.8962
 5055SOL    MW419994   2.735   5.472   4.194 -0.4187  0.0376 -0.3289
 5056SOL     OW19995   6.024   3.859   1.089  0.0764 -0.4464  0.1905
 5056SOL    HW219996   6.117   3.837   1.088  0.2234  0.0169  1.2970
 5056SOL    HW319997   5.994   3.840   1.001  0.8262 -2.2630  0.2675
 5056SOL    MW419998   6.033   3.854   1.077  0.4338 -0.0652 -0.7673
 5057SOL     OW19999   6.057   6.378   4.157  0.3691 -0.2994 -0.4219
 5057SOL    HW220000   6.133   6.335   4.195  0.0215  0.8396  1.7548
 5057SOL    HW320001   6.092   6.440   4.095  1.3262  0.7693  1.1266
 5057SOL    MW420002   6.071   6.380   4.154 -0.0460  0.2568 -0.3876
 5058SOL     OW20003   2.090   1.686   5.703  0.2920 -0.1095 -0.3626
 5058SOL    HW220004   2.104   1.607   5.651  3.0384  0.2095 -0.2702
 5058SOL    HW320005   2.118   1.758   5.646 -2.4672  0.9029 -0.5727
 5058SOL    MW420006   2.096   1.685   5.689  0.1701  0.1950  0.4480
 5059SOL     OW20007   0.479   2.114   1.036 -0.1456 -0.3989 -0.2390
 5059SOL    HW220008   0.426   2.158   1.102  0.3032 -0.4963  0.1932
 5059SOL    HW320009   0.567   2.150   1.048  0.6199 -2.5313  1.2087
 5059SOL    MW420010   0.484   2.124   1.046 -0.4688 -0.1191  0.1383
 5060SOL     OW20011   0.383   3.575   2.827  0.0441 -0.0270  0.1671
 5060SOL    HW220012   0.412   3.553   2.916  0.5654  0.6941  0.1825
 5060SOL    HW320013   0.464   3.595   2.780 -0.0757 -1.8410 -0.8984
 5060SOL    MW420014   0.398   3.575   2.833  0.1775  0.3215  0.1448
 5061SOL     OW20015   1.726   1.007   3.584 -0.1843  0.4970  0.1508
 5061SOL    HW220016   1.695   0.984   3.672 -0.9042  1.8904  0.3011
 5061SOL    HW320017   1.648   1.041   3.540  0.9839  3.8838  0.4445
 5061SOL    MW420018   1.712   1.008   3.590  0.1030  0.0432 -0.0895
 5062SOL     OW20019   4.933   4.260   2.187  0.1758  0.4193 -0.0984
 5062SOL    HW220020   4.948   4.209   2.267  1.4779 -0.7071 -1.0052
 5062SOL    HW320021   5.019   4.299   2.168 -0.5162  2.0448 -0.0731
 5062SOL    MW420022   4.947   4.259   2.195 -0.1026  0.1476 -0.1539
 5063SOL     OW20023   2.732   4.724   4.505  0.2099 -0.2725 -0.0553
 5063SOL    HW220024   2.697   4.783   4.439  1.9261  0.7628 -0.1176
 5063SOL    HW320025   2.666   4.656   4.516 -1.1373  0.8334 -1.1109
 5063SOL    MW420026   2.719   4.723   4.498 -0.1740  1.0933 -0.3662
 5064SOL     OW20027   2.990   3.000   3.344 -0.1128 -0.2290  0.2553
 5064SOL    HW220028   3.022   2.973   3.430 -0.4916 -0.0898  0.4429
 5064SOL    HW320029   2.919   3.061   3.363 -1.3721 -1.5094 -0.1145
 5064SOL    MW420030   2.985   3.004   3.358  0.4972 -0.0091 -0.3415
 5065SOL     OW20031   0.686   3.198   5.764  0.3504  0.1724 -0.2354
 5065SOL    HW220032   0.646   3.161   5.685  0.3839 -0.2986 -0.0373
 5065SOL    HW320033   0.680   3.293   5.752  0.6164  0.1044 -0.9299
 5065SOL    MW420034   0.680   3.206   5.752 -0.2353  0.1488 -0.1675
 5066SOL     OW20035   0.739   3.759   2.909  0.1778  0.3633 -0.2481
 5066SOL    HW220036   0.663   3.774   2.964  1.9303 -0.4437  2.5627
 5066SOL    HW320037   0.745   3.664   2.901 -0.0356  0.4560 -1.9199
 5066SOL    MW420038   0.730   3.749   2.915 -0.0700  0.5271  0.0955
 5067SOL     OW20039   0.660   5.048   3.138  0.3957  0.1680 -0.0409
 5067SOL    HW220040   0.662   5.142   3.124  0.9081  0.0042 -1.1653
 5067SOL    HW320041   0.617   5.013   3.060 -0.4907 -0.4825  0.7098
 5067SOL    MW420042   0.655   5.056   3.126  0.1262  0.5967 -0.4537
 5068SOL     OW20043   1.666   2.171   3.327  0.2546  0.0624  0.1371
 5068SOL    HW220044   1.725   2.225   3.275  1.7211  1.6061  3.1507
 5068SOL    HW320045   1.615   2.233   3.379  0.2750 -1.3470  1.9593
 5068SOL    MW420046   1.667   2.186   3.327 -0.2879  0.4855  0.1079
 5069SOL     OW20047   2.292   2.459   0.321 -0.3463  0.6829  0.1497
 5069SOL    HW220048   2.196   2.464   0.322 -0.5077 -1.2693  1.9079
 5069SOL    HW320049   2.320   2.524   0.386 -0.5583  0.5996  0.3278
 5069SOL    MW420050   2.283   2.468   0.330 -0.0647 -0.0692  0.1728
 5070SOL     OW20051   2.441   5.863   0.119 -0.4032  0.3012 -0.1389
 5070SOL    HW220052   2.533   5.886   0.126 -0.0752 -0.5757 -1.3499
 5070SOL    HW320053   2.416   5.835   0.207  0.1750  1.5717  0.4557
 5070SOL    MW420054   2.450   5.863   0.132 -0.4461 -0.4230  0.1983
 5071SOL     OW20055   6.122   5.090   3.974  0.2823  0.1507 -0.5858
 5071SOL    HW220056   6.128   5.141   3.893 -0.2551 -0.9221 -1.3285
 5071SOL    HW320057   6.065   5.016   3.952 -0.5162  0.2352  0.9976
 5071SOL    MW420058   6.115   5.087   3.960 -0.6050  0.6706  0.2677
 5072SOL     OW20059   6.038   4.426   3.643  0.2383 -0.0916 -0.1762
 5072SOL    HW220060   6.054   4.333   3.627  0.6626 -0.2581  1.0419
 5072SOL    HW320061   6.064   4.439   3.735 -0.2657  1.1256 -0.1823
 5072SOL    MW420062   6.044   4.415   3.653 -0.1570 -0.0873 -0.0021
 5073SOL     OW20063   5.996   2.787   2.760  0.2599 -0.4471 -0.4132
 5073SOL    HW220064   5.955   2.782   2.847  2.4217  0.5262  0.7414
 5073SOL    HW320065   5.954   2.862   2.718 -1.6608 -1.6415 -0.7531
 5073SOL    MW420066   5.985   2.796   2.766  0.3370 -0.2857  0.0371
 5074SOL     OW20067   6.320   5.148   0.851  0.3038  0.0293  0.0390
 5074SOL    HW220068   6.349   5.136   0.760 -0.7325  0.8684 -0.4144
 5074SOL    HW320069   6.360   5.074   0.898  1.6404  0.1176 -0.9012
 5074SOL    MW420070   6.329   5.136   0.845  0.2438  0.1107 -0.1975
 5075SOL     OW20071   4.888   2.002   3.509  0.6188 -0.2897 -0.1259
 5075SOL    HW220072   4.949   2.000   3.435  0.9662  1.4397  0.0861
 5075SOL    HW320073   4.831   2.077   3.492 -0.5433 -1.0170  0.4108
 5075SOL    MW420074   4.889   2.011   3.497  0.0968 -0.0005 -0.3115
 5076SOL     OW20075   2.655   2.660   6.218  0.0395  0.2850  0.6265
 5076SOL    HW220076   2.709   2.603   6.164 -1.3454 -1.7212  1.2613
 5076SOL    HW320077   2.615   2.721   6.156 -0.5054 -1.1394 -0.4888
 5076SOL    MW420078   2.657   2.661   6.202 -0.2005  0.1456  0.1803
 5077SOL     OW20079   2.906   0.329   2.349  0.1133  0.1021 -0.1012
 5077SOL    HW220080   2.811   0.318   2.355  0.2371 -1.6540 -0.6386
 5077SOL    HW320081   2.921   0.421   2.368 -1.7756  0.6032 -0.7980
 5077SOL    MW420082   2.895   0.339   2.352 -0.0498 -0.2645  0.3990
 5078SOL     OW20083   3.119   2.462   4.036 -0.4670 -0.3197 -0.5106
 5078SOL    HW220084   3.123   2.376   3.996 -0.5594 -0.3747 -0.4040
 5078SOL    HW320085   3.113   2.445   4.130 -0.2793 -0.1928 -0.4743
 5078SOL    MW420086   3.118   2.449   4.043 -0.1096  0.3672  0.0318
 5079SOL     OW20087   0.813   1.994   1.616  0.3610 -0.0431 -0.0084
 5079SOL    HW220088   0.751   2.041   1.560 -1.1996 -1.4780  0.4393
 5079SOL    HW320089   0.847   1.924   1.559 -1.0403 -1.3507  0.6984
 5079SOL    MW420090   0.809   1.991   1.601  0.1455  0.3996  0.1908
 5080SOL     OW20091   3.617   0.552   5.851  0.1378 -0.0779  0.8232
 5080SOL    HW220092   3.679   0.502   5.904  1.7655  0.5371 -0.4392
 5080SOL    HW320093   3.663   0.634   5.831 -1.1799  0.5028  0.0531
 5080SOL    MW420094   3.631   0.556   5.856 -0.6762 -0.3177 -0.3033
 5081SOL     OW20095   4.851   5.669   1.065  0.0127  0.0623 -0.9766
 5081SOL    HW220096   4.892   5.726   0.999  1.2285  0.7876  0.3447
 5081SOL    HW320097   4.877   5.708   1.149 -1.3902 -0.9158 -0.0653
 5081SOL    MW420098   4.860   5.682   1.067 -0.2055 -0.4821 -0.1719
 5082SOL     OW20099   0.505   3.411   0.485 -0.4296  0.4270 -0.1898
 5082SOL    HW220100   0.458   3.380   0.407 -0.3410  1.3241 -0.6014
 5082SOL    HW320101   0.542   3.495   0.459 -1.1216  1.1508  1.0839
 5082SOL    MW420102   0.504   3.418   0.471  0.5112 -0.0129  0.2200
 5083SOL     OW20103   3.356   2.556   0.315 -0.4576  0.1158 -0.2879
 5083SOL    HW220104   3.325   2.525   0.400  0.1091  1.1954  0.3394
 5083SOL    HW320105   3.363   2.651   0.326  0.8620  0.1332 -1.1294
 5083SOL    MW420106   3.353   2.564   0.328  0.2014 -0.3370  0.8460
 5084SOL     OW20107   5.754   5.644   6.133 -0.3469  0.4434  0.1534
 5084SOL    HW220108   5.742   5.618   6.224 -0.6802  0.3214  0.0781
 5084SOL    HW320109   5.787   5.565   6.090 -0.0163  0.5533  0.2040
 5084SOL    MW420110   5.757   5.630   6.139 -0.5105 -0.1982  0.3499
 5085SOL     OW20111   3.599   2.203   4.650  0.6175 -0.5267  0.3451
 5085SOL    HW220112   3.693   2.191   4.640  0.7288  0.1904  0.4980
 5085SOL    HW320113   3.582   2.291   4.617 -0.3031 -1.3478 -1.5465
 5085SOL    MW420114   3.609   2.213   4.645  0.2552 -0.0758 -0.3836
 5086SOL     OW20115   0.213   4.260   0.015  0.0893  0.0932 -0.0588
 5086SOL    HW220116   0.220   4.175   0.060 -0.0815  0.8426  1.4289
 5086SOL    HW320117   0.183   4.321   0.083  0.5203  1.4270 -1.0307
 5086SOL    MW420118   0.210   4.256   0.030 -0.0438  0.1454  0.1568
 5087SOL     OW20119   5.323   6.275   3.147  0.0014 -0.5972 -0.1808
 5087SOL    HW220120   5.350   6.363   3.173  0.6433 -1.0251  0.6302
 5087SOL    HW320121   5.294   6.286   3.056 -1.8766  0.8382  0.5017
 5087SOL    MW420122   5.323   6.288   3.138  0.7405  0.1115 -0.6053
 5088SOL     OW20123   3.877   0.367   6.207 -0.5099 -0.8247  0.4176
 5088SOL    HW220124   3.933   0.445   6.205 -0.5963 -0.7356  1.3922
 5088SOL    HW320125   3.803   0.391   6.262 -0.9296 -1.3372  0.0887
 5088SOL    MW420126   3.875   0.380   6.214 -0.2931 -0.4720 -0.2362
 5089SOL     OW20127   1.000   4.592   3.868  0.2139 -0.5043  0.3829
 5089SOL    HW220128   1.016   4.531   3.796 -1.3990  0.6438 -1.0342
 5089SOL    HW320129   0.960   4.668   3.826  3.4453  2.2448  1.8169
 5089SOL    MW420130   0.997   4.594   3.853  0.6232  0.1238 -0.2535
 5090SOL     OW20131   4.602   2.727   1.995  0.3015 -0.2117 -0.2853
 5090SOL    HW220132   4.538   2.794   1.969  0.9490  0.3185 -0.5428
 5090SOL    HW320133   4.600   2.664   1.922  1.4915  0.8311 -1.2653
 5090SOL    MW420134   4.593   2.727   1.982 -0.3853 -0.1371  0.1730
 5091SOL     OW20135   3.280   1.731   3.020  0.1589  0.6823  0.2601
 5091SOL    HW220136   3.292   1.710   3.113 -0.0261  3.3226  0.9718
 5091SOL    HW320137   3.198   1.688   2.996  0.6434 -0.7508  1.0400
 5091SOL    MW420138   3.271   1.723   3.029  0.4628 -0.3101  0.2567
 5092SOL     OW20139   5.954   3.591   1.233  0.5055 -0.5418  0.3657
 5092SOL    HW220140   5.945   3.681   1.204 -0.8468  0.0732  2.4719
 5092SOL    HW320141   6.014   3.551   1.170 -1.7044  0.7724 -2.8265
 5092SOL    MW420142   5.961   3.597   1.221 -0.0990  0.0815  0.1177
 5093SOL     OW20143   3.469   3.236   2.075 -0.2945  0.0246  0.6084
 5093SOL    HW220144   3.380   3.204   2.059 -0.1535  0.1065 -0.3626
 5093SOL    HW320145   3.494   3.280   1.994  0.8132 -0.4111  0.6979
 5093SOL    MW420146   3.461   3.237   2.063 -0.2474  0.8355  0.5256
 5094SOL     OW20147   0.956   5.581   4.157 -0.0349  0.2321 -0.5194
 5094SOL    HW220148   0.927   5.571   4.247 -0.1747 -0.3097 -0.6213
 5094SOL    HW320149   0.876   5.575   4.105  0.1742 -0.6139 -0.7578
 5094SOL    MW420150   0.942   5.579   4.162  0.1863  0.3499 -0.0116
 5095SOL     OW20151   0.535   0.653   1.795 -0.2209  0.1733  0.2445
 5095SOL    HW220152   0.510   0.655   1.702  2.2341  2.5977 -0.5004
 5095SOL    HW320153   0.631   0.654   1.794 -0.1337  0.8586  2.7804
 5095SOL    MW420154   0.544   0.654   1.782  0.1541 -0.0645  0.1050
 5096SOL     OW20155   4.239   3.770   4.304 -0.5353 -0.2497  0.0012
 5096SOL    HW220156   4.172   3.827   4.341 -0.7358  0.4168 -1.3264
 5096SOL    HW320157   4.294   3.828   4.251  0.4004 -0.9747  0.1355
 5096SOL    MW420158   4.238   3.785   4.301  0.6945 -0.1391 -0.3916
 5097SOL     OW20159   4.616   3.080   5.314  0.5952  0.2080 -0.3515
 5097SOL    HW220160   4.525   3.101   5.336  0.5907 -2.0257  2.2825
 5097SOL    HW320161   4.618   3.083   5.218 -2.8219 -1.6575 -0.6581
 5097SOL    MW420162   4.604   3.083   5.304  0.5618  0.2883 -0.6870
 5098SOL     OW20163   0.256   0.335   1.407 -0.6179  0.0432  0.2913
 5098SOL    HW220164   0.226   0.274   1.339  0.7210  1.0951 -1.3309
 5098SOL    HW320165   0.216   0.419   1.383  0.7143  0.6642  0.1401
 5098SOL    MW420166   0.246   0.338   1.395 -0.2267 -0.1665 -0.2722
 5099SOL     OW20167   5.967   6.349   4.992 -0.5796 -0.7595  0.1377
 5099SOL    HW220168   5.958   6.418   4.926 -1.0120 -2.0234 -1.1634
 5099SOL    HW320169   6.048   6.371   5.038 -0.3701  0.2617 -0.6792
 5099SOL    MW420170   5.976   6.361   4.989  0.8512 -0.6431  0.1136
 5100SOL     OW20171   3.709   1.964   0.937 -0.3278 -0.6783 -0.8405
 5100SOL    HW220172   3.745   2.022   1.004 -2.1551  1.0165 -1.2260
 5100SOL    HW320173   3.781   1.904   0.916  1.9948  1.9500 -1.0001
 5100SOL    MW420174   3.723   1.964   0.943  0.0172  0.7986 -0.7721
 5101SOL     OW20175   4.941   2.259   5.876  0.1452 -0.0213 -0.7782
 5101SOL    HW220176   5.033   2.232   5.879 -0.1596 -1.0374 -0.2362
 5101SOL    HW320177   4.898   2.204   5.941 -0.5838  1.5262  0.0904
 5101SOL    MW420178   4.947   2.248   5.885  0.5676 -0.0743 -0.0834
 5102SOL     OW20179   0.482   5.765   4.186  0.7550  0.0147 -0.0139
 5102SOL    HW220180   0.391   5.760   4.155  0.4401  0.3200  0.8341
 5102SOL    HW320181   0.481   5.836   4.250  1.6611  0.2105 -0.2148
 5102SOL    MW420182   0.470   5.774   4.190  0.1536 -0.1732 -0.3192
 5103SOL     OW20183   5.575   4.555   1.401 -0.3599 -0.4459  0.4805
 5103SOL    HW220184   5.589   4.650   1.399 -0.4484 -0.4362  0.2637
 5103SOL    HW320185   5.662   4.518   1.389 -0.3716 -0.3894  0.2044
 5103SOL    MW420186   5.588   4.563   1.399 -0.2946 -0.4388  0.5896
 5104SOL     OW20187   1.422   0.265   1.630  0.0471  0.1998 -0.1216
 5104SOL    HW220188   1.350   0.207   1.607 -0.4485  0.0376  1.6584
 5104SOL    HW320189   1.395   0.351   1.596 -1.0454  0.1535  0.5533
 5104SOL    MW420190   1.409   0.269   1.622 -0.0174 -0.6602  0.5996
 5105SOL     OW20191   0.352   5.284   6.238 -0.2032  0.8597 -0.1870
 5105SOL    HW220192   0.272   5.259   6.193  0.4959 -1.0124 -0.4932
 5105SOL    HW320193   0.417   5.219   6.210  1.5931  2.6394 -0.4031
 5105SOL    MW420194   0.350   5.272   6.229 -0.0137 -0.4648  0.3397
 5106SOL     OW20195   1.731   5.463   1.309 -0.3325  0.0796 -0.2485
 5106SOL    HW220196   1.816   5.419   1.299 -0.0514  0.3087  1.0326
 5106SOL    HW320197   1.743   5.521   1.384 -0.8242  2.0538 -1.6294
 5106SOL    MW420198   1.744   5.465   1.317  0.2815 -0.1392 -0.5109
 5107SOL     OW20199   4.572   5.991   4.827 -0.4879  0.2232  0.1072
 5107SOL    HW220200   4.643   6.050   4.801 -1.0531  0.6048 -0.6111
 5107SOL    HW320201   4.493   6.045   4.821 -1.0337 -0.6260 -0.6931
 5107SOL    MW420202   4.571   6.006   4.823  0.3916  0.6613 -0.4617
 5108SOL     OW20203   0.931   0.314   4.709 -0.1504  0.5415 -0.0718
 5108SOL    HW220204   0.860   0.288   4.768  0.9792 -3.0775 -0.0926
 5108SOL    HW320205   0.886   0.347   4.631 -1.7727  0.1597  0.6613
 5108SOL    MW420206   0.916   0.315   4.707 -1.2115 -0.6026  0.0481
 5109SOL     OW20207   2.596   0.336   5.823 -0.2143 -0.1896 -0.5369
 5109SOL    HW220208   2.598   0.430   5.842 -1.7812 -0.3959  0.7790
 5109SOL    HW320209   2.538   0.328   5.748 -0.4936 -0.1488 -0.3272
 5109SOL    MW420210   2.589   0.348   5.816  0.9632 -0.1504  0.8281
 5110SOL     OW20211   0.893   2.354   2.776  0.4129 -0.5682 -0.5012
 5110SOL    HW220212   0.820   2.292   2.771  0.3283 -0.4398 -0.8439
 5110SOL    HW320213   0.962   2.314   2.724 -0.2593  0.4687 -2.2909
 5110SOL    MW420214   0.892   2.341   2.769 -0.3606  0.3030 -0.0691
 5111SOL     OW20215   1.743   2.734   1.099 -0.6349 -0.4186 -0.0251
 5111SOL    HW220216   1.672   2.673   1.120 -0.9174 -0.0709  0.0378
 5111SOL    HW320217   1.722   2.813   1.148  0.9563 -1.0300  1.8093
 5111SOL    MW420218   1.731   2.736   1.108 -0.2505 -0.3287 -0.1976
 5112SOL     OW20219   4.024  -0.013   5.803 -0.3894  0.0030 -0.1406
 5112SOL    HW220220   4.030   0.039   5.883 -0.6272  2.1367 -1.4254
 5112SOL    HW320221   4.114  -0.030   5.778 -0.3050 -0.2300  0.3241
 5112SOL    MW420222   4.036  -0.008   5.810 -0.1644 -0.2751 -0.0196
 5113SOL     OW20223   6.414   4.093   3.430 -0.2986 -0.1474 -0.0106
 5113SOL    HW220224   6.366   4.103   3.513  0.3869  0.2028  0.3554
 5113SOL    HW320225   6.504   4.076   3.457  0.2145  1.3151 -0.6655
 5113SOL    MW420226   6.419   4.092   3.445 -0.1655  0.2204  0.1854
 5114SOL     OW20227   0.444   5.351   1.898  0.1871  0.5170 -0.8362
 5114SOL    HW220228   0.450   5.341   1.803  0.3266  1.1516 -0.9032
 5114SOL    HW320229   0.487   5.435   1.916  0.2623  0.3498 -0.1999
 5114SOL    MW420230   0.450   5.361   1.888  0.0397  0.3554 -0.0909
 5115SOL     OW20231   0.195   0.200   5.412 -0.6275  0.0219 -0.0337
 5115SOL    HW220232   0.270   0.205   5.472 -0.3469 -2.3347 -0.0953
 5115SOL    HW320233   0.231   0.229   5.328 -1.3903  4.8551  1.0061
 5115SOL    MW420234   0.210   0.204   5.409  0.4038  0.4890  0.0734
 5116SOL     OW20235   2.561   5.802   3.057 -0.5560  0.0159 -0.3300
 5116SOL    HW220236   2.643   5.831   3.017  0.0175 -0.9090  0.1522
 5116SOL    HW320237   2.497   5.867   3.028  0.3094  0.6774 -0.8288
 5116SOL    MW420238   2.563   5.814   3.048 -0.2768  0.6334  0.1482
 5117SOL     OW20239   4.442   3.105   4.893 -0.4956 -0.3100  0.1296
 5117SOL    HW220240   4.390   3.185   4.900 -0.7503 -0.5285  0.8058
 5117SOL    HW320241   4.415   3.052   4.968 -0.7802 -1.2975 -0.6464
 5117SOL    MW420242   4.432   3.109   4.904  0.4132  0.3958  0.2704
 5118SOL     OW20243   2.324   5.141   4.959  0.3663 -0.2462 -0.0514
 5118SOL    HW220244   2.296   5.210   5.019  2.7455 -0.5587  1.5707
 5118SOL    HW320245   2.383   5.186   4.898 -0.7150 -0.2616 -1.1492
 5118SOL    MW420246   2.328   5.156   4.959 -0.2467 -1.0246  0.1856
 5119SOL     OW20247   3.338   4.354   3.564  0.3781 -0.1039 -0.0302
 5119SOL    HW220248   3.295   4.418   3.620 -1.1647 -1.7987  0.8406
 5119SOL    HW320249   3.266   4.308   3.519  1.3626 -1.6009 -0.1811
 5119SOL    MW420250   3.323   4.356   3.565 -0.2087  0.3408  0.3632
 5120SOL     OW20251   5.223   3.147   5.416  0.3730  0.3655 -0.3903
 5120SOL    HW220252   5.202   3.230   5.372 -2.0952  0.2517  0.3906
 5120SOL    HW320253   5.261   3.092   5.347 -0.1024  1.3817 -1.5027
 5120SOL    MW420254   5.225   3.151   5.401 -0.4385 -0.8012  0.4703
 5121SOL     OW20255   1.879   5.684   5.831  0.5953 -0.3599  0.1092
 5121SOL    HW220256   1.800   5.712   5.785  0.4297  1.5685  1.4438
 5121SOL    HW320257   1.950   5.732   5.789  0.5737  0.6154  1.1412
 5121SOL    MW420258   1.878   5.694   5.820  0.0373 -0.2969 -0.5454
 5122SOL     OW20259   2.057   2.054   3.248  0.0078  0.3202  0.0749
 5122SOL    HW220260   2.054   1.960   3.231 -0.1916 -0.0358  1.8130
 5122SOL    HW320261   2.150   2.072   3.264 -0.2957 -0.4991  3.8043
 5122SOL    MW420262   2.069   2.044   3.248 -0.2414 -0.2066  0.4453
 5123SOL     OW20263   4.827   3.225   2.397 -0.0522 -0.4490  0.2656
 5123SOL    HW220264   4.784   3.266   2.472 -1.1231 -2.4958  0.8481
 5123SOL    HW320265   4.867   3.145   2.432  0.0439 -1.0781 -1.1904
 5123SOL    MW420266   4.827   3.220   2.411 -0.1490  0.0204  0.0590
 5124SOL     OW20267   5.872   4.338   3.293  0.1601  0.1451 -0.1014
 5124SOL    HW220268   5.950   4.316   3.244  0.0511  0.5387 -0.4599
 5124SOL    HW320269   5.800   4.324   3.232  0.1669  2.6712 -0.7911
 5124SOL    MW420270   5.873   4.333   3.279  0.0882  0.2019  0.6585
 5125SOL     OW20271   4.459   4.853   3.296  0.0979 -0.3415 -0.3777
 5125SOL    HW220272   4.367   4.879   3.298  0.3696  0.6230  0.1347
 5125SOL    HW320273   4.507   4.932   3.323  1.0945 -0.7279 -0.9732
 5125SOL    MW420274   4.453   4.867   3.300 -0.0483  0.2846 -0.3157
 5126SOL     OW20275   1.545   4.790   1.255  0.1987  0.1631  0.1430
 5126SOL    HW220276   1.588   4.812   1.337 -1.2726  1.6578  0.5692
 5126SOL    HW320277   1.615   4.753   1.200  1.5353  0.5788  1.5022
 5126SOL    MW420278   1.560   4.788   1.258  0.4092 -0.3236 -0.0359
 5127SOL     OW20279   0.160   6.405   0.072 -0.2815 -0.4117 -0.3009
 5127SOL    HW220280   0.232   6.398   0.010 -0.1044 -0.9153 -0.0443
 5127SOL    HW320281   0.083   6.424   0.018 -0.0788 -0.5564 -0.6400
 5127SOL    MW420282   0.159   6.407   0.056 -0.2152  0.3223 -0.0596
 5128SOL     OW20283   1.815   2.932   4.326  0.0013 -0.3092 -0.0799
 5128SOL    HW220284   1.727   2.963   4.347  0.1559  0.7011 -0.8362
 5128SOL    HW320285   1.856   3.005   4.279  1.2222 -0.7856  0.2002
 5128SOL    MW420286   1.809   2.945   4.322  0.2354  0.5196 -0.2530
 5129SOL     OW20287   1.083   2.014   0.225 -0.0794 -0.3520 -0.0184
 5129SOL    HW220288   1.030   2.066   0.165 -2.1555  0.0846  2.0366
 5129SOL    HW320289   1.082   1.926   0.188  1.1435  0.4382 -2.0767
 5129SOL    MW420290   1.075   2.009   0.212 -0.0851 -0.0358 -0.9645
 5130SOL     OW20291   0.639   0.074   6.118 -0.1742  0.0132 -0.1568
 5130SOL    HW220292   0.673  -0.002   6.164 -0.2491 -0.4686 -0.8720
 5130SOL    HW320293   0.630   0.142   6.185 -0.7744 -0.8201  0.6256
 5130SOL    MW420294   0.642   0.073   6.133  0.0736 -0.0138  0.0287
 5131SOL     OW20295   2.073   0.615   6.194 -0.4792 -0.3701  0.0508
 5131SOL    HW220296   2.041   0.559   6.265 -0.6169 -1.4394 -0.8202
 5131SOL    HW320297   2.039   0.574   6.114 -0.0524  0.6127 -0.6573
 5131SOL    MW420298   2.064   0.602   6.193  0.2091 -0.2703  0.6491
 5132SOL     OW20299   0.225   5.100   3.521 -0.4056 -0.2365 -0.0865
 5132SOL    HW220300   0.301   5.131   3.472  0.1572  0.9433  1.4248
 5132SOL    HW320301   0.254   5.018   3.561 -0.2240 -0.2367 -0.2172
 5132SOL    MW420302   0.239   5.094   3.520  0.5783  0.4720  0.7691
 5133SOL     OW20303   0.755   3.616   6.255 -0.1442  0.1659 -0.0961
 5133SOL    HW220304   0.764   3.522   6.240  0.4603  0.3277 -0.7762
 5133SOL    HW320305   0.661   3.633   6.246 -0.4105 -0.5446  1.1247
 5133SOL    MW420306   0.744   3.606   6.252 -0.2345  0.1929 -0.1856
 5134SOL     OW20307   6.392   2.993   0.019 -0.0245 -0.5343  0.1874
 5134SOL    HW220308   6.447   2.925  -0.022 -1.5246 -1.5147 -0.2655
 5134SOL    HW320309   6.415   2.989   0.112  1.2015 -0.4134 -0.0915
 5134SOL    MW420310   6.403   2.983   0.026 -0.4492  0.1317 -0.0050
 5135SOL     OW20311   5.948   5.073   2.180 -0.1099  0.0499 -0.0475
 5135SOL    HW220312   6.006   5.149   2.179 -0.3408  0.2483 -1.5045
 5135SOL    HW320313   5.860   5.110   2.177 -0.3630 -0.2528  2.0604
 5135SOL    MW420314   5.944   5.088   2.179  0.4775  0.4550  0.0768
 5136SOL     OW20315   2.725   6.021   2.781  0.1411 -0.9451 -0.8756
 5136SOL    HW220316   2.657   6.069   2.827  0.9933  1.2004 -1.7569
 5136SOL    HW320317   2.681   5.986   2.703 -0.4414 -1.5042 -0.3108
 5136SOL    MW420318   2.710   6.023   2.777 -0.3277 -0.0317  0.6605
 5137SOL     OW20319   6.302   1.093   1.779  0.1136  0.5038  0.2138
 5137SOL    HW220320   6.265   1.006   1.792 -0.7220  0.5819 -1.4224
 5137SOL    HW320321   6.392   1.076   1.752 -0.1741  0.1161 -0.5346
 5137SOL    MW420322   6.309   1.079   1.777 -0.3102  0.0007 -0.1624
 5138SOL     OW20323   3.619   5.275   4.512 -0.0435  0.1431  0.2498
 5138SOL    HW220324   3.615   5.324   4.594  0.3661 -0.1638  0.4603
 5138SOL    HW320325   3.710   5.245   4.507  0.1308  0.7997 -0.6986
 5138SOL    MW420326   3.630   5.277   4.522  0.2724 -0.4230  0.2129
 5139SOL     OW20327   5.651   3.317   6.056 -0.2274 -0.2357 -0.1005
 5139SOL    HW220328   5.646   3.371   6.134  0.2236 -1.5489  0.8812
 5139SOL    HW320329   5.745   3.300   6.045 -0.4611 -2.8140  1.1148
 5139SOL    MW420330   5.663   3.321   6.065 -0.7573  0.2414  0.3621
 5140SOL     OW20331   4.498   0.089   3.941 -0.2260 -0.2214 -0.3191
 5140SOL    HW220332   4.493   0.022   4.009  1.2463 -0.0795 -0.0375
 5140SOL    HW320333   4.461   0.046   3.864 -0.6195 -0.8655  0.2055
 5140SOL    MW420334   4.492   0.074   3.940  0.0192 -0.3351 -0.3467
 5141SOL     OW20335   1.740   3.943   5.676 -0.3472  0.3110  0.3259
 5141SOL    HW220336   1.790   3.863   5.661 -1.5248 -0.2377 -0.9550
 5141SOL    HW320337   1.661   3.931   5.624 -2.3293  0.6939  3.0658
 5141SOL    MW420338   1.736   3.931   5.667  0.0193  0.2607 -0.4259
 5142SOL     OW20339   2.244   2.628   3.337  0.3783 -0.1485  0.2071
 5142SOL    HW220340   2.153   2.637   3.367  0.3209 -1.8490  0.6494
 5142SOL    HW320341   2.248   2.681   3.257 -1.2046 -0.5766 -0.1984
 5142SOL    MW420342   2.232   2.636   3.330  0.3709  0.4233  0.2436
 5143SOL     OW20343   3.593   2.703   3.045  0.2728 -0.0155  0.1104
 5143SOL    HW220344   3.591   2.608   3.030 -0.5947 -0.1810  1.1782
 5143SOL    HW320345   3.542   2.739   2.973 -3.1962 -0.7435  2.0113
 5143SOL    MW420346   3.586   2.695   3.034 -0.1433 -0.5393 -0.2566
 5144SOL     OW20347   2.480   2.133   0.789 -0.2187  0.0979  0.2401
 5144SOL    HW220348   2.460   2.142   0.882 -1.3592  0.2029 -0.0022
 5144SOL    HW320349   2.561   2.082   0.787 -0.4353 -0.3107  1.2703
 5144SOL    MW420350   2.488   2.128   0.801 -0.0627 -0.5817 -0.6184
 5145SOL     OW20351   1.606   0.525   2.120 -0.0741  0.1580 -0.2573
 5145SOL    HW220352   1.687   0.477   2.105 -0.4415 -0.6074  0.1891
 5145SOL    HW320353   1.554   0.510   2.041 -0.9055 -1.6511  0.5885
 5145SOL    MW420354   1.610   0.517   2.108  0.5745 -0.2035  0.2358
 5146SOL     OW20355   3.428   3.958   3.109  0.6889 -0.9683  0.3053
 5146SOL    HW220356   3.392   4.026   3.166 -1.6259 -2.0096  0.2290
 5146SOL    HW320357   3.359   3.943   3.043  3.1186 -0.0008 -2.7184
 5146SOL    MW420358   3.414   3.965   3.108 -0.0915 -0.3807 -0.2950
 5147SOL     OW20359   2.902   0.918   6.253  0.0319 -0.5919 -0.0257
 5147SOL    HW220360   2.861   0.847   6.205  1.3065 -0.6985 -1.0256
 5147SOL    HW320361   2.868   0.998   6.211  0.7558 -0.6776 -0.8043
 5147SOL    MW420362   2.892   0.919   6.241  0.1900  0.2805 -0.1116
 5148SOL     OW20363   1.819   3.910   1.433 -0.3201  0.3695 -0.1901
 5148SOL    HW220364   1.756   3.874   1.370  0.5907  0.2791 -1.0806
 5148SOL    HW320365   1.869   3.834   1.463 -0.7882  0.4040  0.7057
 5148SOL    MW420366   1.818   3.895   1.429  0.1154 -0.2457  0.5471
 5149SOL     OW20367   2.622   5.088   5.969 -0.3873  0.4264  0.1967
 5149SOL    HW220368   2.543   5.106   5.918  0.7604 -2.4549 -2.9786
 5149SOL    HW320369   2.658   5.174   5.990 -3.5347  1.7911  0.5169
 5149SOL    MW420370   2.616   5.102   5.965  0.0126  0.0354  0.6062
 5150SOL     OW20371   5.141   4.832   0.952  0.2749 -0.1093 -0.3822
 5150SOL    HW220372   5.047   4.842   0.969  0.1621 -0.5697 -0.7063
 5150SOL    HW320373   5.172   4.774   1.023  1.0068  2.6613  1.7314
 5150SOL    MW420374   5.133   4.825   0.964 -0.2835  0.0898  0.2511
 5151SOL     OW20375   2.202   4.095   1.152  0.2651 -0.4783  0.4507
 5151SOL    HW220376   2.285   4.076   1.110  0.4771 -0.0377  0.6646
 5151SOL    HW320377   2.206   4.188   1.173 -0.3634 -0.4079  0.2862
 5151SOL    MW420378   2.213   4.105   1.150 -0.6452 -0.1915 -0.3266
 5152SOL     OW20379   1.751   2.367   4.669 -0.0677 -0.1822 -0.0366
 5152SOL    HW220380   1.689   2.295   4.684 -0.6840  0.4626  0.5922
 5152SOL    HW320381   1.698   2.446   4.680  0.5556  0.3759 -0.9305
 5152SOL    MW420382   1.736   2.368   4.673  0.0652  0.5362 -0.0961
 5153SOL     OW20383   2.649   0.180   2.805  0.0445 -0.4306  0.4946
 5153SOL    HW220384   2.648   0.265   2.849 -1.0952 -0.8525  1.3217
 5153SOL    HW320385   2.736   0.144   2.823  1.0491  1.1008 -0.9924
 5153SOL    MW420386   2.660   0.186   2.813 -1.2782  0.0224 -0.1839
 5154SOL     OW20387   0.339   2.649   0.760  0.1463 -0.0384 -0.3318
 5154SOL    HW220388   0.246   2.664   0.778 -0.5519 -1.6076 -2.2386
 5154SOL    HW320389   0.384   2.689   0.834 -2.1419 -0.9599  1.7247
 5154SOL    MW420390   0.332   2.656   0.772 -0.1596 -0.1872 -0.4842
 5155SOL     OW20391   5.143   3.338   0.912  0.1128  0.1415 -0.2484
 5155SOL    HW220392   5.133   3.416   0.967 -1.3205 -0.8063  0.9192
 5155SOL    HW320393   5.153   3.267   0.975  2.3351 -0.5548 -1.2857
 5155SOL    MW420394   5.143   3.339   0.928 -0.3492 -0.1171 -0.3306
 5156SOL     OW20395   1.948   6.022   1.861 -0.1381 -0.0468 -0.7191
 5156SOL    HW220396   1.952   6.117   1.855  1.0163  0.0351  0.7261
 5156SOL    HW320397   1.919   6.005   1.951 -2.2025 -1.0850 -1.5111
 5156SOL    MW420398   1.945   6.032   1.872  0.5293  0.4650  0.4902
 5157SOL     OW20399   1.291   0.603   3.984  0.0125  0.4533 -0.0610
 5157SOL    HW220400   1.376   0.562   3.968 -0.1952  0.0411 -0.0983
 5157SOL    HW320401   1.297   0.688   3.940  0.6404  0.6998  0.4826
 5157SOL    MW420402   1.303   0.609   3.976  0.4486  0.4120 -0.2146
 5158SOL     OW20403   2.991   5.360   6.221  0.1997  0.3825 -0.1817
 5158SOL    HW220404   2.904   5.377   6.185  0.3715  1.8381  0.0261
 5158SOL    HW320405   2.977   5.356   6.316  0.2348 -0.2517 -0.1996
 5158SOL    MW420406   2.977   5.362   6.229 -0.0152 -0.7867  0.3864
 5159SOL     OW20407   5.883   2.521   1.330 -0.1863  0.0188  0.5557
 5159SOL    HW220408   5.916   2.609   1.315 -3.4521  1.4254  0.7246
 5159SOL    HW320409   5.866   2.518   1.424 -1.5594 -0.1960  0.3158
 5159SOL    MW420410   5.885   2.532   1.341 -0.1867 -0.6920  0.1257
 5160SOL     OW20411   5.540   1.082   2.226 -0.4326  0.3612 -0.2633
 5160SOL    HW220412   5.622   1.129   2.241 -0.9569  1.3413 -0.3345
 5160SOL    HW320413   5.498   1.078   2.312 -0.7772  0.8010 -0.4040
 5160SOL    MW420414   5.545   1.088   2.239  0.4704  0.1673  0.1418
 5161SOL     OW20415   6.356   4.759   0.347  0.0725  0.2639 -0.1475
 5161SOL    HW220416   6.388   4.760   0.257  0.2478 -1.8759 -0.1682
 5161SOL    HW320417   6.427   4.798   0.398  1.7278 -2.0085 -0.5286
 5161SOL    MW420418   6.370   4.764   0.342 -0.0732 -0.0539  0.1998
 5162SOL     OW20419   0.530   0.136   2.109 -1.0577 -0.7215 -0.1633
 5162SOL    HW220420   0.532   0.210   2.170 -1.7202 -1.1581  0.4149
 5162SOL    HW320421   0.528   0.176   2.023  0.3205 -0.0933  0.0797
 5162SOL    MW420422   0.530   0.151   2.106  0.6502  0.0401  0.0377
 5163SOL     OW20423   6.340   3.314   4.704 -0.1435  0.0990  0.3330
 5163SOL    HW220424   6.254   3.315   4.662 -1.1237 -0.3070  2.2218
 5163SOL    HW320425   6.390   3.381   4.658 -1.2944  0.0026 -1.1374
 5163SOL    MW420426   6.335   3.323   4.693 -0.2496  0.4874 -0.4045
 5164SOL     OW20427   0.702   0.685   2.452  0.4137 -0.4112 -0.0684
 5164SOL    HW220428   0.708   0.766   2.402  1.9538 -0.9572 -0.8477
 5164SOL    HW320429   0.747   0.705   2.534  0.4367 -0.3505 -0.0952
 5164SOL    MW420430   0.709   0.698   2.456 -0.0102 -0.4328 -0.5920
 5165SOL     OW20431   3.663   1.230   0.721 -0.4469  0.5627 -0.7633
 5165SOL    HW220432   3.656   1.204   0.629  0.3797 -0.1614 -0.6451
 5165SOL    HW320433   3.621   1.158   0.769  0.1967  0.3350 -0.5241
 5165SOL    MW420434   3.657   1.217   0.715 -0.5034  0.2440 -0.3293
 5166SOL     OW20435   1.507   4.090   2.798  0.2203  0.1740  0.3997
 5166SOL    HW220436   1.431   4.144   2.821 -0.3518 -0.3679 -0.1458
 5166SOL    HW320437   1.557   4.082   2.878 -0.1775  0.7500  0.7099
 5166SOL    MW420438   1.504   4.096   2.811  0.3845 -0.0825 -0.7289
 5167SOL     OW20439   1.297   4.350   5.548  0.5978 -0.3339  0.1253
 5167SOL    HW220440   1.252   4.418   5.498 -0.0190 -1.3484 -0.7365
 5167SOL    HW320441   1.324   4.286   5.483  0.0981 -1.5173  1.0453
 5167SOL    MW420442   1.295   4.351   5.533  0.5274  0.3086 -0.2888
 5168SOL     OW20443   4.779   2.782   3.165  0.2262  0.2726 -0.1170
 5168SOL    HW220444   4.728   2.862   3.171  0.2417  0.2569  0.2276
 5168SOL    HW320445   4.722   2.714   3.201  0.4872  0.2535  0.2602
 5168SOL    MW420446   4.765   2.783   3.170 -0.2921  0.7994  0.7174
 5169SOL     OW20447   4.404   0.617   1.449 -0.1302 -0.2462 -0.0340
 5169SOL    HW220448   4.483   0.603   1.396  0.0506 -1.0277  0.4192
 5169SOL    HW320449   4.364   0.695   1.412  0.7926  0.0923 -0.3525
 5169SOL    MW420450   4.409   0.625   1.437  0.1177  0.4724  0.3572
 5170SOL     OW20451   0.973   3.444   0.119  0.2353  0.1811  0.4253
 5170SOL    HW220452   0.958   3.365   0.172  0.2512 -0.4901 -0.5455
 5170SOL    HW320453   0.986   3.411   0.030  0.9192  1.2336  0.1165
 5170SOL    MW420454   0.973   3.429   0.115  0.3398 -0.0422  0.3731
 5171SOL     OW20455   2.942   1.525   1.350  0.0453  0.3621 -0.0688
 5171SOL    HW220456   2.932   1.431   1.366 -0.8667  0.2257 -1.2601
 5171SOL    HW320457   3.017   1.551   1.404 -0.8003 -0.6653  1.7091
 5171SOL    MW420458   2.951   1.516   1.359  0.1680 -0.2004  0.2765
 5172SOL     OW20459   5.748   4.271   5.889 -0.0684 -0.1037 -0.3659
 5172SOL    HW220460   5.818   4.207   5.904  0.5429  0.8965  1.3391
 5172SOL    HW320461   5.785   4.354   5.918 -0.7704  1.1286 -2.7062
 5172SOL    MW420462   5.762   4.273   5.895  0.3066 -0.5967  0.4502
 5173SOL     OW20463   4.318   6.315   0.019  0.0551 -0.5773 -0.6536
 5173SOL    HW220464   4.302   6.249   0.087  2.0931 -1.1497 -0.6585
 5173SOL    HW320465   4.408   6.299  -0.008 -0.5687 -0.1267 -3.2457
 5173SOL    MW420466   4.327   6.304   0.024 -0.0654 -0.0649  0.5926
 5174SOL     OW20467   1.776   1.451   1.219  0.1313 -0.1910 -0.0316
 5174SOL    HW220468   1.761   1.453   1.124  0.5187  1.4357 -0.0745
 5174SOL    HW320469   1.694   1.484   1.256 -0.1636 -1.1912  0.2419
 5174SOL    MW420470   1.763   1.456   1.211  0.1748 -0.1172  0.1464
 5175SOL     OW20471   2.976   2.758   2.234  0.0755 -0.2858  0.5915
 5175SOL    HW220472   3.006   2.668   2.247 -0.2392 -0.4151  0.4439
 5175SOL    HW320473   2.981   2.771   2.139 -2.4865 -1.0901  0.2905
 5175SOL    MW420474   2.981   2.748   2.223 -0.2009 -0.1923  0.7350
 5176SOL     OW20475   3.048   4.572   3.879  0.7711  0.3795  0.6761
 5176SOL    HW220476   3.060   4.578   3.974  2.1471  0.8671  0.5055
 5176SOL    HW320477   3.048   4.664   3.850  0.1355  0.2397  0.2265
 5176SOL    MW420478   3.050   4.585   3.887 -0.1629  0.1474 -0.2505
 5177SOL     OW20479   6.129   0.510   3.866  0.2757 -0.0588  0.0685
 5177SOL    HW220480   6.123   0.605   3.863 -0.0281 -0.0968 -0.6211
 5177SOL    HW320481   6.068   0.484   3.936 -1.6227  0.0958 -1.4382
 5177SOL    MW420482   6.120   0.519   3.875  0.4138  0.4104 -0.1528
 5178SOL     OW20483   2.958   2.992   1.331  0.3865  0.9680 -0.5625
 5178SOL    HW220484   2.894   3.044   1.379  0.2372  1.7030 -1.5527
 5178SOL    HW320485   2.914   2.909   1.314  0.7241  0.3523  1.2697
 5178SOL    MW420486   2.944   2.988   1.335 -0.6116  0.9045 -0.6313
 5179SOL     OW20487   3.863   0.084   1.764 -0.2880  0.4118  0.1207
 5179SOL    HW220488   3.783   0.085   1.711 -0.6858 -0.8817  0.6628
 5179SOL    HW320489   3.874   0.175   1.792 -2.5328  0.3674  1.3946
 5179SOL    MW420490   3.854   0.096   1.761  0.2115  0.1108 -0.4540
 5180SOL     OW20491   5.966   4.393   4.934 -0.1166  0.0708 -0.1624
 5180SOL    HW220492   5.891   4.424   4.882 -0.1646 -1.2659 -0.9532
 5180SOL    HW320493   5.953   4.298   4.939  0.8519 -0.0284  0.7959
 5180SOL    MW420494   5.954   4.384   4.928 -0.6655 -0.2682 -0.5826
 5181SOL     OW20495   2.791   0.425   0.920 -0.0082 -0.0136  0.0595
 5181SOL    HW220496   2.695   0.427   0.915 -0.1217  0.2914  1.7969
 5181SOL    HW320497   2.816   0.516   0.933  0.6368  0.0807 -1.6424
 5181SOL    MW420498   2.781   0.437   0.921  0.0988  0.1358  0.0883
 5182SOL     OW20499   5.900   0.321   3.267  0.4366  0.0480  0.1532
 5182SOL    HW220500   5.873   0.397   3.319 -3.2850 -0.8465 -0.2194
 5182SOL    HW320501   5.957   0.271   3.326  1.5959  2.1879  0.9760
 5182SOL    MW420502   5.904   0.324   3.282  0.5222 -0.4228  0.1383
 5183SOL     OW20503   3.348   0.599   3.753  0.0286 -0.1503  0.2929
 5183SOL    HW220504   3.429   0.568   3.794  0.7078 -0.4796 -1.1882
 5183SOL    HW320505   3.303   0.648   3.821  0.4379 -1.7516  1.8124
 5183SOL    MW420506   3.353   0.601   3.767  0.4183 -0.1106 -0.5516
 5184SOL     OW20507   1.167   1.857   4.681 -0.0699  0.2601  0.0120
 5184SOL    HW220508   1.122   1.914   4.743  0.2920  0.2331  0.3036
 5184SOL    HW320509   1.188   1.778   4.731  1.6083  0.8631  0.3175
 5184SOL    MW420510   1.164   1.854   4.696 -0.0158  0.0905  0.2233
 5185SOL     OW20511   5.633   3.366   2.733  0.1325  0.6683  0.0831
 5185SOL    HW220512   5.645   3.408   2.818 -1.0119  1.3468 -0.0561
 5185SOL    HW320513   5.700   3.405   2.677  1.1023 -0.0240  0.7386
 5185SOL    MW420514   5.643   3.377   2.737 -0.3259  0.5217  0.5457
 5186SOL     OW20515   5.968   0.918   4.288  0.0454 -0.1977  0.1491
 5186SOL    HW220516   5.918   1.000   4.284  0.3548  0.0624  1.1954
 5186SOL    HW320517   5.906   0.854   4.323 -0.0657 -0.3028 -0.2386
 5186SOL    MW420518   5.953   0.921   4.292  0.5860 -0.1301  0.0266
 5187SOL     OW20519   5.241   2.976   0.118  0.2027 -0.4294  0.3802
 5187SOL    HW220520   5.268   3.066   0.135  0.6113 -0.4581 -0.0705
 5187SOL    HW320521   5.231   2.972   0.022  0.3992 -0.9179  0.3762
 5187SOL    MW420522   5.243   2.987   0.107 -0.3464  0.1013  0.0153
 5188SOL     OW20523   4.814   3.415   2.140  0.4790 -0.0836  0.4908
 5188SOL    HW220524   4.825   3.358   2.216  0.4041 -0.3263  0.3192
 5188SOL    HW320525   4.742   3.377   2.092  1.7805 -1.0835 -0.7482
 5188SOL    MW420526   4.806   3.402   2.144 -0.2485  0.0815  0.3078
 5189SOL     OW20527   4.807   2.773   3.864  0.3913 -0.1950  0.6418
 5189SOL    HW220528   4.717   2.745   3.884  0.4777 -0.2697  0.9467
 5189SOL    HW320529   4.858   2.693   3.871  0.2747 -0.4237 -0.9415
 5189SOL    MW420530   4.802   2.759   3.868  0.0292 -0.1249  0.4481
 5190SOL     OW20531   6.052   4.610   3.208  0.2449 -0.0593 -0.3370
 5190SOL    HW220532   6.132   4.647   3.246 -0.2853  2.0568 -1.1138
 5190SOL    HW320533   5.990   4.610   3.280  0.6186 -0.6743 -0.0062
 5190SOL    MW420534   6.055   4.615   3.223 -0.1407 -0.1452  0.0297
 5191SOL     OW20535   6.100   2.347   0.071  0.4681 -0.3862  0.4618
 5191SOL    HW220536   6.070   2.434   0.097  2.9424  0.5301  0.5276
 5191SOL    HW320537   6.101   2.349  -0.024  1.9885  0.2545  0.4670
 5191SOL    MW420538   6.096   2.358   0.062 -0.0169  0.4638 -0.2694
 5192SOL     OW20539   1.728   3.301   4.313 -0.1237 -0.3497 -0.0138
 5192SOL    HW220540   1.661   3.240   4.282 -0.1395 -0.6410  0.5756
 5192SOL    HW320541   1.723   3.375   4.253 -1.8017  0.1780  0.7061
 5192SOL    MW420542   1.719   3.303   4.301  0.3325 -0.0408 -0.8993
 5193SOL     OW20543   4.224   0.547   3.553 -0.6571 -0.0926  0.0709
 5193SOL    HW220544   4.290   0.541   3.622 -0.3296 -1.0350 -0.3060
 5193SOL    HW320545   4.183   0.633   3.566  0.0669  0.1510  0.8235
 5193SOL    MW420546   4.227   0.558   3.564  0.2493  0.1028 -0.2242
 5194SOL     OW20547   4.510   2.139   3.517  0.5037  0.0991 -0.2800
 5194SOL    HW220548   4.435   2.192   3.488 -0.5103  0.8362  3.2660
 5194SOL    HW320549   4.586   2.186   3.483 -0.5156  1.3016 -1.0047
 5194SOL    MW420550   4.510   2.152   3.509  0.8015  0.3996 -0.3306
 5195SOL     OW20551   4.194   3.205   4.551  0.0002  0.7583  0.0743
 5195SOL    HW220552   4.274   3.176   4.507  0.5667  2.0779  0.1864
 5195SOL    HW320553   4.182   3.143   4.624  0.4822  0.1059 -0.3894
 5195SOL    MW420554   4.203   3.193   4.555 -0.6341 -0.0960 -0.0108
 5196SOL     OW20555   6.152   3.054   0.346 -0.4927 -0.3093 -0.3320
 5196SOL    HW220556   6.148   3.123   0.412 -0.9764 -0.5665 -0.0854
 5196SOL    HW320557   6.061   3.043   0.319 -0.3617 -0.5722 -0.6627
 5196SOL    MW420558   6.139   3.062   0.351  0.1500  0.1798  0.1378
 5197SOL     OW20559   4.237   1.553   0.680  0.2916  0.0217  0.2612
 5197SOL    HW220560   4.165   1.616   0.678 -0.6294 -1.0134 -0.8970
 5197SOL    HW320561   4.281   1.570   0.763 -1.8055  0.1421  1.4179
 5197SOL    MW420562   4.233   1.564   0.691  0.0311 -0.0436 -0.4354
 5198SOL     OW20563   0.831   5.333   5.687  0.0909 -0.4783 -0.4120
 5198SOL    HW220564   0.742   5.347   5.656  0.4689  0.7422 -1.0125
 5198SOL    HW320565   0.856   5.249   5.650 -1.0246 -1.1561  0.3140
 5198SOL    MW420566   0.823   5.324   5.678  0.0553  0.2183 -0.2276
 5199SOL     OW20567   5.786   2.663   4.869  0.0754 -0.2466 -0.4453
 5199SOL    HW220568   5.857   2.654   4.933  0.5783  1.4498 -0.7236
 5199SOL    HW320569   5.717   2.605   4.902  0.5244  0.1718  1.3287
 5199SOL    MW420570   5.786   2.654   4.882 -0.2640 -0.4804  0.8199
 5200SOL     OW20571   0.836   5.079   2.242 -0.9436  0.1110  0.0221
 5200SOL    HW220572   0.764   5.071   2.180  0.5196 -3.1974 -1.5367
 5200SOL    HW320573   0.834   4.998   2.292  1.8021 -0.2790 -0.3134
 5200SOL    MW420574   0.826   5.067   2.240 -0.6501 -0.9096 -0.6627
 5201SOL     OW20575   0.871   4.808   1.850  0.7694  0.1287  0.6158
 5201SOL    HW220576   0.839   4.775   1.766  0.7863  1.1562  0.1882
 5201SOL    HW320577   0.964   4.787   1.851  0.4780 -1.2529  1.0674
 5201SOL    MW420578   0.879   4.801   1.840 -0.5609 -0.2840 -0.0346
 5202SOL     OW20579   2.818   3.169   2.763 -0.3252  0.3259  0.1219
 5202SOL    HW220580   2.740   3.196   2.715  0.4261  0.4021 -1.0963
 5202SOL    HW320581   2.885   3.159   2.696  0.6687  0.0749  1.1253
 5202SOL    MW420582   2.817   3.171   2.748  0.1462  0.1649  0.1087
 5203SOL     OW20583   2.985   5.784   2.216  0.4089  0.1023 -0.5521
 5203SOL    HW220584   3.045   5.804   2.145  0.1580 -0.7663 -1.0354
 5203SOL    HW320585   3.041   5.770   2.292  0.9842 -2.0222 -1.2892
 5203SOL    MW420586   3.000   5.784   2.217 -0.5048 -0.1135  0.0806
 5204SOL     OW20587   6.419   4.930   3.237  0.5926 -0.8127 -0.3042
 5204SOL    HW220588   6.363   4.921   3.159 -2.1925 -0.1249  1.4592
 5204SOL    HW320589   6.403   4.850   3.287 -0.9240  0.4737  1.4180
 5204SOL    MW420590   6.409   4.918   3.233  0.3828 -0.5352 -0.5119
 5205SOL     OW20591   0.367   5.260   0.946 -0.3027 -0.1629  0.1450
 5205SOL    HW220592   0.444   5.262   1.003  0.1190  1.8834 -0.4342
 5205SOL    HW320593   0.400   5.225   0.863 -0.1479  0.1127  0.0908
 5205SOL    MW420594   0.381   5.256   0.943  0.4696  0.2532  0.2737
 5206SOL     OW20595   4.939   6.175   5.228 -0.0617  0.0764 -0.0031
 5206SOL    HW220596   4.902   6.235   5.164 -1.8451 -1.1623 -0.2323
 5206SOL    HW320597   4.880   6.181   5.303  1.5388  0.9109  1.2393
 5206SOL    MW420598   4.926   6.183   5.230  0.4943  0.0088  0.0748
 5207SOL     OW20599   6.184   3.373   2.030 -0.0744  0.8359  0.0862
 5207SOL    HW220600   6.255   3.374   2.094 -0.6598  1.3715  0.7361
 5207SOL    HW320601   6.218   3.320   1.957  0.4262 -0.1771  1.0270
 5207SOL    MW420602   6.198   3.366   2.029 -0.1269 -0.0246  0.6228
 5208SOL     OW20603   1.692   2.572   0.109 -0.3740  0.1665  0.6945
 5208SOL    HW220604   1.672   2.666   0.106  0.2927  0.2831 -0.6046
 5208SOL    HW320605   1.626   2.536   0.168 -1.6904  1.2138 -0.0718
 5208SOL    MW420606   1.680   2.580   0.117  0.0669  1.1499  0.2178
 5209SOL     OW20607   3.222   0.707   2.698  0.0529 -0.0014  0.8142
 5209SOL    HW220608   3.229   0.619   2.662 -2.5110 -0.1687  0.5077
 5209SOL    HW320609   3.259   0.701   2.786 -0.1582 -1.4098  0.8238
 5209SOL    MW420610   3.228   0.695   2.705  0.2747  0.4894 -0.2702
 5210SOL     OW20611   0.973   2.493   2.392  0.2525 -0.7115  0.3270
 5210SOL    HW220612   0.891   2.443   2.391 -0.4866  0.4252 -1.0857
 5210SOL    HW320613   0.968   2.546   2.471 -1.7844  1.4016 -1.0676
 5210SOL    MW420614   0.961   2.493   2.402  0.3761  0.0596  0.2139
 5211SOL     OW20615   1.962   1.527   4.393 -0.0134 -0.2011 -0.4730
 5211SOL    HW220616   1.882   1.484   4.422 -0.0438 -0.1477 -0.4771
 5211SOL    HW320617   1.939   1.620   4.390 -0.4130 -0.3324 -1.9806
 5211SOL    MW420618   1.948   1.534   4.397  0.2624  0.0209  0.1061
 5212SOL     OW20619   2.276   5.392   2.950  0.3822  0.0017  0.1183
 5212SOL    HW220620   2.338   5.456   2.985 -1.1096  2.0961 -0.8803
 5212SOL    HW320621   2.220   5.370   3.025  0.3947  0.5047  0.2819
 5212SOL    MW420622   2.277   5.397   2.965 -0.1377  0.4615  0.2088
 5213SOL     OW20623   5.134   3.541   1.129  0.3282 -0.2252 -0.5617
 5213SOL    HW220624   5.137   3.470   1.193 -0.9914 -1.4283 -1.7918
 5213SOL    HW320625   5.225   3.552   1.101  0.9449  0.3602  1.4977
 5213SOL    MW420626   5.147   3.533   1.134 -0.7711 -0.3122 -0.1819
 5214SOL     OW20627   3.125   4.519   5.589  0.0374 -0.0421  0.7509
 5214SOL    HW220628   3.132   4.526   5.684  1.6107 -0.6483  0.6961
 5214SOL    HW320629   3.055   4.455   5.575  0.3639 -0.5814  1.5179
 5214SOL    MW420630   3.117   4.511   5.600  0.7639 -0.0818 -0.3848
 5215SOL     OW20631   4.840   3.191   0.499  0.1594 -0.3048  0.2234
 5215SOL    HW220632   4.905   3.191   0.428  1.1995 -0.7352  1.1564
 5215SOL    HW320633   4.811   3.100   0.506 -0.0821 -0.2287  0.2398
 5215SOL    MW420634   4.845   3.179   0.490  0.0107 -0.1809 -0.2859
 5216SOL     OW20635   0.753   4.974   3.604  0.0307 -0.1079  0.2732
 5216SOL    HW220636   0.707   4.940   3.527 -2.4149  0.3846  1.4130
 5216SOL    HW320637   0.841   4.993   3.572  0.1972 -3.1672 -1.5186
 5216SOL    MW420638   0.758   4.972   3.589  0.0445 -0.5599  0.5292
 5217SOL     OW20639   2.326   0.701   3.336 -0.0184  0.4058  0.0263
 5217SOL    HW220640   2.349   0.609   3.349 -0.8159  0.4490  2.1759
 5217SOL    HW320641   2.230   0.702   3.335 -0.0289  1.3103  0.9486
 5217SOL    MW420642   2.317   0.689   3.337  0.2944 -0.1162 -0.2776
 5218SOL     OW20643   5.151   4.317   0.532  0.1311 -0.2963 -0.6767
 5218SOL    HW220644   5.206   4.387   0.568 -0.3894  0.2497 -0.9339
 5218SOL    HW320645   5.062   4.340   0.558  0.0220 -1.2266 -0.1902
 5218SOL    MW420646   5.147   4.329   0.540  0.0568  0.1615  0.1941
 5219SOL     OW20647   5.454   1.095   4.128  0.1028 -0.1587 -0.1811
 5219SOL    HW220648   5.502   1.176   4.143  0.9731 -0.7064  0.0739
 5219SOL    HW320649   5.432   1.063   4.215 -0.6002  0.0082 -0.2920
 5219SOL    MW420650   5.458   1.101   4.141  0.8731  0.7837 -0.4960
 5220SOL     OW20651   1.390   3.769   2.982 -0.1858 -0.2132 -0.1076
 5220SOL    HW220652   1.345   3.694   3.021  1.0848 -0.1944  1.4742
 5220SOL    HW320653   1.333   3.795   2.910 -2.1648 -0.8412  1.1410
 5220SOL    MW420654   1.377   3.762   2.978 -0.6792  0.0323  0.1733
 5221SOL     OW20655   1.640   6.391   1.020  0.1088 -0.1754 -0.0403
 5221SOL    HW220656   1.620   6.299   1.004 -0.2189 -0.1998  0.4651
 5221SOL    HW320657   1.656   6.396   1.114 -0.9408  0.4673  0.1247
 5221SOL    MW420658   1.640   6.380   1.030 -0.0190  0.4016 -0.1820
 5222SOL     OW20659   4.360   2.976   3.275 -0.0622  0.1742 -0.4356
 5222SOL    HW220660   4.364   2.934   3.189  3.0281  2.1525 -1.4372
 5222SOL    HW320661   4.365   2.904   3.337 -0.4384 -1.2074 -1.9522
 5222SOL    MW420662   4.361   2.961   3.272 -0.2126  0.2604  0.0099
 5223SOL     OW20663   3.461   0.293   6.018 -0.4481 -0.2704 -0.4284
 5223SOL    HW220664   3.555   0.279   6.017  0.3305  3.4058  1.4246
 5223SOL    HW320665   3.441   0.335   5.935 -0.1993  0.0743 -0.3145
 5223SOL    MW420666   3.471   0.297   6.007  0.9309 -0.3593  0.1713
 5224SOL     OW20667   5.705   3.820   1.915  0.2038  0.0536 -0.3207
 5224SOL    HW220668   5.639   3.889   1.909 -0.8657 -0.9136 -0.1341
 5224SOL    HW320669   5.719   3.792   1.824 -1.7059 -1.5613 -0.2016
 5224SOL    MW420670   5.698   3.825   1.902  0.0767 -0.1789  0.2015
 5225SOL     OW20671   6.180   4.252   1.856 -0.0735  0.0230 -0.1161
 5225SOL    HW220672   6.087   4.250   1.881  0.0381  0.4223  0.3412
 5225SOL    HW320673   6.181   4.293   1.770 -0.3555 -0.3355 -0.2955
 5225SOL    MW420674   6.168   4.257   1.848  0.1587  0.4376  0.1586
 5226SOL     OW20675   5.142   4.948   2.535 -0.3888  0.2339  0.4623
 5226SOL    HW220676   5.097   4.913   2.458  0.3894  0.3785 -0.0758
 5226SOL    HW320677   5.203   5.013   2.499  0.7348 -0.4394  1.0882
 5226SOL    MW420678   5.144   4.952   2.520 -0.2706 -0.5359 -0.0116
 5227SOL     OW20679   0.499   3.049   1.154  0.4135  0.0219  0.2843
 5227SOL    HW220680   0.419   3.092   1.185  0.1518 -0.3082  0.0648
 5227SOL    HW320681   0.563   3.066   1.224  0.1073  0.1402  0.5389
 5227SOL    MW420682   0.497   3.057   1.168  0.4385 -0.1557 -0.2498
 5228SOL     OW20683   6.169   3.852   1.798 -0.2731 -0.0729 -0.1789
 5228SOL    HW220684   6.254   3.896   1.798  0.1879 -0.9593 -0.3266
 5228SOL    HW320685   6.163   3.812   1.885 -0.9638  0.7741  0.1818
 5228SOL    MW420686   6.179   3.853   1.810 -0.0445 -0.0036 -0.0219
 5229SOL     OW20687   5.583   6.170   3.092 -0.5445  0.4866 -0.6242
 5229SOL    HW220688   5.652   6.192   3.155 -0.2720 -1.8640 -0.0041
 5229SOL    HW320689   5.501   6.190   3.138 -0.3075  1.4022 -0.5932
 5229SOL    MW420690   5.581   6.175   3.106 -0.1571 -0.3205  0.3862
 5230SOL     OW20691   6.349   5.039   2.176  0.9874 -0.2249 -0.2497
 5230SOL    HW220692   6.369   5.003   2.089 -0.3673  0.1229 -0.7369
 5230SOL    HW320693   6.293   5.115   2.158  0.4744 -0.2960  0.9424
 5230SOL    MW420694   6.344   5.045   2.162  0.0528 -0.7039 -0.0862
 5231SOL     OW20695   5.202   2.949   5.930 -0.0396  0.0635 -0.5135
 5231SOL    HW220696   5.111   2.921   5.942 -0.2303  1.4742  1.9787
 5231SOL    HW320697   5.202   2.992   5.845 -1.8337  0.3970 -0.3965
 5231SOL    MW420698   5.190   2.951   5.921  0.3778  0.1184  0.1705
 5232SOL     OW20699   3.548   0.623   2.383  0.4841  0.4019  0.1401
 5232SOL    HW220700   3.566   0.665   2.467  0.4056  0.0576  0.3300
 5232SOL    HW320701   3.634   0.608   2.345  0.5953 -0.8086  0.8337
 5232SOL    MW420702   3.562   0.627   2.389 -0.3671  0.3968  0.2710
 5233SOL     OW20703   2.340   2.982   2.339  0.6443  0.5922 -0.4268
 5233SOL    HW220704   2.353   3.076   2.325  1.3544  0.4575 -0.7107
 5233SOL    HW320705   2.368   2.941   2.258 -1.6506  0.2565 -1.1100
 5233SOL    MW420706   2.346   2.989   2.327  0.1056 -0.3812 -0.1177
 5234SOL     OW20707   1.608   5.045   1.072 -0.4773 -0.1531 -0.1746
 5234SOL    HW220708   1.637   5.123   1.025 -0.1683 -0.7734 -1.0441
 5234SOL    HW320709   1.543   5.077   1.135 -0.1046  0.8445 -0.2770
 5234SOL    MW420710   1.604   5.060   1.074 -0.0099  0.2842  0.0435
 5235SOL     OW20711   4.298   4.275   4.691 -0.3140  0.0027  0.0816
 5235SOL    HW220712   4.310   4.327   4.771 -1.0148  0.0543  0.1595
 5235SOL    HW320713   4.366   4.209   4.696  0.0784  0.4172  0.3879
 5235SOL    MW420714   4.308   4.273   4.702 -0.1816  0.0556  0.1720
 5236SOL     OW20715   2.364   2.788   6.239 -0.9090 -0.2332 -0.5082
 5236SOL    HW220716   2.282   2.838   6.240 -1.7562 -1.5664 -0.5026
 5236SOL    HW320717   2.403   2.804   6.325 -1.4830 -0.0833 -0.2703
 5236SOL    MW420718   2.358   2.797   6.250  0.3387 -0.2283  0.1978
 5237SOL     OW20719   3.450   5.602   4.745  0.5043  0.5451 -0.0986
 5237SOL    HW220720   3.448   5.681   4.691 -1.1886  0.0219 -0.8728
 5237SOL    HW320721   3.400   5.626   4.823 -0.1195  0.2186 -0.3915
 5237SOL    MW420722   3.443   5.616   4.748 -0.3280 -0.3001  0.0768
 5238SOL     OW20723   5.988   5.537   5.503 -0.1471  0.5535 -0.2462
 5238SOL    HW220724   6.082   5.550   5.519  0.3357  1.0254 -2.8708
 5238SOL    HW320725   5.965   5.461   5.556  1.7508  0.3774  0.4154
 5238SOL    MW420726   5.998   5.529   5.512  0.0530  0.3178  0.1395
 5239SOL     OW20727   2.028   3.923   0.354  0.0292 -0.3022  0.0944
 5239SOL    HW220728   2.092   3.990   0.328 -0.2004 -0.4867 -0.9922
 5239SOL    HW320729   2.065   3.884   0.433  0.5044  0.6354  0.3571
 5239SOL    MW420730   2.041   3.927   0.361  0.0866  0.1901 -0.6931
 5240SOL     OW20731   4.516   4.779   3.035 -0.0245  0.7751  0.1606
 5240SOL    HW220732   4.550   4.855   2.988 -1.0929  1.6055  0.6750
 5240SOL    HW320733   4.505   4.810   3.125  0.6594 -0.3585  0.6543
 5240SOL    MW420734   4.519   4.793   3.041  0.3020  0.0935 -0.2262
 5241SOL     OW20735   4.155   4.305   5.157  0.3451  0.5793  0.7441
 5241SOL    HW220736   4.190   4.236   5.101  2.8225  1.2818  1.3377
 5241SOL    HW320737   4.165   4.385   5.105  0.4617  0.9244  1.2986
 5241SOL    MW420738   4.161   4.307   5.143  0.4397  0.0836 -0.7657
 5242SOL     OW20739   3.286   5.651   6.358  0.2349  0.3701 -0.3467
 5242SOL    HW220740   3.348   5.578   6.366 -1.5132 -1.0328  1.2181
 5242SOL    HW320741   3.243   5.637   6.274  2.9626  2.2359 -2.2210
 5242SOL    MW420742   3.289   5.639   6.348 -0.1448 -0.2874  0.2822
 5243SOL     OW20743   5.270   0.095   4.809 -0.2349  0.6045 -0.2789
 5243SOL    HW220744   5.305   0.079   4.896 -0.2364 -1.2470 -0.5668
 5243SOL    HW320745   5.244   0.008   4.777 -0.7600  1.3046 -1.8973
 5243SOL    MW420746   5.271   0.081   4.816 -0.3069  0.0934 -0.1529
 5244SOL     OW20747   3.573   3.846   3.738 -0.0958 -0.5186 -0.3163
 5244SOL    HW220748   3.666   3.834   3.719  0.0762 -0.7766  0.6338
 5244SOL    HW320749   3.542   3.907   3.671  1.2515  1.3199  0.6370
 5244SOL    MW420750   3.581   3.852   3.727 -0.1320  0.7028 -0.0387
 5245SOL     OW20751   3.124   2.324   3.296  0.8121  0.2363  0.2536
 5245SOL    HW220752   3.078   2.256   3.344  0.5062  1.1070  1.2335
 5245SOL    HW320753   3.120   2.297   3.204 -0.2532 -0.5020  0.5121
 5245SOL    MW420754   3.118   2.312   3.290 -0.2390 -0.4897 -0.1522
 5246SOL     OW20755   2.335   3.452   5.955 -0.4851 -0.0562 -0.3361
 5246SOL    HW220756   2.356   3.457   5.862 -0.6785  0.9559 -0.3350
 5246SOL    HW320757   2.334   3.358   5.974  0.2274 -0.2553 -1.1942
 5246SOL    MW420758   2.338   3.441   5.945 -0.1315  0.3925  0.4786
 5247SOL     OW20759   6.231   6.184   2.292  0.1099  0.0238  0.0950
 5247SOL    HW220760   6.167   6.180   2.222  0.8668 -0.1531 -0.6096
 5247SOL    HW320761   6.316   6.173   2.248  0.6953  1.1166  0.8862
 5247SOL    MW420762   6.234   6.182   2.277  0.0372  0.0319  0.3286
 5248SOL     OW20763   5.900   4.474   0.560 -0.3377  0.6184 -0.2539
 5248SOL    HW220764   5.935   4.444   0.476  1.5952 -1.8634  1.2968
 5248SOL    HW320765   5.970   4.527   0.598  1.5265 -3.0504  2.1500
 5248SOL    MW420766   5.914   4.477   0.554  0.2144 -0.2074 -0.3205
 5249SOL     OW20767   1.095   5.630   0.678 -0.0297 -0.0770 -0.0977
 5249SOL    HW220768   1.107   5.674   0.594 -2.4781 -0.6095 -0.8282
 5249SOL    HW320769   1.149   5.551   0.673 -1.5142 -1.0550 -2.0129
 5249SOL    MW420770   1.104   5.625   0.667 -0.1156 -0.0408  0.1179
 5250SOL     OW20771   4.710   3.082   2.146  0.0261 -0.0928 -0.0281
 5250SOL    HW220772   4.689   3.101   2.055 -0.4619 -1.4235 -0.2167
 5250SOL    HW320773   4.805   3.095   2.152  0.1492 -0.5037 -0.8713
 5250SOL    MW420774   4.720   3.086   2.135 -0.4073  0.5861 -0.4485
 5251SOL     OW20775   3.855   0.955   4.209 -0.3586  0.5866  0.6456
 5251SOL    HW220776   3.946   0.927   4.194 -0.4795  0.0360  0.9325
 5251SOL    HW320777   3.836   1.012   4.135 -0.2257 -0.3842 -0.1614
 5251SOL    MW420778   3.865   0.959   4.197  0.6533 -0.1019 -0.1369
 5252SOL     OW20779   2.194   1.387   5.024  0.2360  0.1170 -0.3760
 5252SOL    HW220780   2.255   1.325   4.985 -0.4230 -2.0083  1.6949
 5252SOL    HW320781   2.119   1.388   4.965  0.3366 -0.9521 -0.5376
 5252SOL    MW420782   2.192   1.379   5.011 -0.1176  0.0679  0.4256
 5253SOL     OW20783   3.465   2.773   0.956  0.5162 -0.1198 -0.1363
 5253SOL    HW220784   3.447   2.695   1.008  1.8190 -0.1798  0.2381
 5253SOL    HW320785   3.428   2.845   1.008 -1.3602 -0.5244 -0.8348
 5253SOL    MW420786   3.457   2.772   0.969 -0.4298 -0.1246 -0.0520
 5254SOL     OW20787   3.474   5.095   4.244 -0.8098 -0.5877  0.0812
 5254SOL    HW220788   3.412   5.094   4.172 -1.7103 -2.5855  0.8258
 5254SOL    HW320789   3.518   5.180   4.236 -3.4412  0.8314 -0.6369
 5254SOL    MW420790   3.472   5.106   4.234  0.3739  0.1396  0.0852
 5255SOL     OW20791   1.767   0.431   4.400  0.8494  0.0711 -0.0107
 5255SOL    HW220792   1.751   0.361   4.336  3.8548 -1.3248  0.5914
 5255SOL    HW320793   1.686   0.437   4.450  0.2149 -2.4656 -0.6009
 5255SOL    MW420794   1.754   0.423   4.398  0.1235  0.3902 -0.2452
 5256SOL     OW20795   1.375   5.589   4.273  0.1406 -0.1224  0.2728
 5256SOL    HW220796   1.466   5.587   4.302  0.6978  1.3575 -1.1615
 5256SOL    HW320797   1.365   5.675   4.232 -1.6346 -0.6245 -0.4559
 5256SOL    MW420798   1.386   5.600   4.271  0.1841  0.0059 -0.3018
 5257SOL     OW20799   2.400   5.668   4.286 -0.6469 -0.0319 -0.5031
 5257SOL    HW220800   2.459   5.741   4.268  0.2130 -0.5783  0.0433
 5257SOL    HW320801   2.349   5.658   4.206  0.5687 -0.0631 -1.3036
 5257SOL    MW420802   2.401   5.676   4.273 -0.3562  0.3005  0.4526
 5258SOL     OW20803   5.269   0.968   4.659 -0.0021 -0.3981 -0.9559
 5258SOL    HW220804   5.302   0.990   4.746 -2.4126  2.1948 -0.5673
 5258SOL    HW320805   5.332   0.904   4.625  3.4821  1.7315  0.9510
 5258SOL    MW420806   5.282   0.963   4.666  0.1843 -0.1015 -0.1186
 5259SOL     OW20807   5.911   1.227   4.822  0.1343  0.0646  0.1735
 5259SOL    HW220808   6.003   1.208   4.804  0.3538 -0.1226  1.3842
 5259SOL    HW320809   5.866   1.213   4.739  1.1874  0.0665 -0.4038
 5259SOL    MW420810   5.917   1.223   4.809 -0.0129 -0.2564 -0.6783
 5260SOL     OW20811   1.103   3.167   4.160  0.1657 -0.1678 -0.2976
 5260SOL    HW220812   1.162   3.101   4.199  1.4470 -1.1123 -3.4883
 5260SOL    HW320813   1.025   3.117   4.137 -0.4605  0.3198  0.7193
 5260SOL    MW420814   1.101   3.151   4.162 -0.0480  0.5844  0.1718
 5261SOL     OW20815   1.839   4.602   5.879 -0.4454 -0.3753 -0.3761
 5261SOL    HW220816   1.781   4.526   5.881  0.4882 -1.0869  0.0499
 5261SOL    HW320817   1.822   4.643   5.794 -0.9681 -1.0485 -0.6043
 5261SOL    MW420818   1.829   4.597   5.868  0.5348  0.8182 -0.2496
 5262SOL     OW20819   0.906   0.494   4.200 -0.7151 -0.1538 -0.0556
 5262SOL    HW220820   0.833   0.437   4.172 -0.7692 -0.6159  0.9752
 5262SOL    HW320821   0.952   0.515   4.119 -2.1935  0.4289 -0.7851
 5262SOL    MW420822   0.902   0.489   4.185 -0.3421  0.1690  0.0087
 5263SOL     OW20823   4.529   1.809   1.601 -0.0538 -0.4397  0.2417
 5263SOL    HW220824   4.502   1.792   1.511  0.6772  0.5397 -0.1734
 5263SOL    HW320825   4.518   1.903   1.612 -0.2397 -0.5656  1.2176
 5263SOL    MW420826   4.524   1.819   1.591  0.1429  0.1118  0.1985
 5264SOL     OW20827   3.478   2.230   2.153 -0.2549 -0.6072 -0.5080
 5264SOL    HW220828   3.497   2.146   2.111  0.6700 -0.4946 -0.3380
 5264SOL    HW320829   3.545   2.238   2.221 -0.0155  0.4911 -0.8498
 5264SOL    MW420830   3.489   2.220   2.156 -0.3458  0.0331 -0.1663
 5265SOL     OW20831   3.216   6.244   1.625  0.1041  0.1420  0.5101
 5265SOL    HW220832   3.246   6.212   1.539  0.8111 -0.6130  1.0242
 5265SOL    HW320833   3.202   6.338   1.612 -4.8429 -0.5815 -1.8762
 5265SOL    MW420834   3.218   6.252   1.612 -0.1551  0.6535 -0.3248
 5266SOL     OW20835   2.128   0.324   3.081 -0.0403  0.6689 -0.4735
 5266SOL    HW220836   2.103   0.245   3.129  0.7612 -0.1733 -1.3974
 5266SOL    HW320837   2.211   0.351   3.122  1.2251 -0.6766 -2.0013
 5266SOL    MW420838   2.136   0.317   3.093  0.0897  0.1403 -0.1277
 5267SOL     OW20839   1.414   4.321   2.133  0.3275 -0.0366  0.1197
 5267SOL    HW220840   1.371   4.249   2.087  2.7087 -1.8218  0.4970
 5267SOL    HW320841   1.489   4.343   2.079  1.1172  0.3384  1.3426
 5267SOL    MW420842   1.418   4.314   2.120  0.1547  0.2663 -0.4005
 5268SOL     OW20843   0.729   2.358   2.311 -0.0385  0.4240 -0.0955
 5268SOL    HW220844   0.670   2.298   2.265  0.4606  1.6190 -2.4481
 5268SOL    HW320845   0.674   2.399   2.378 -1.0317 -0.7846 -0.1251
 5268SOL    MW420846   0.714   2.355   2.313 -0.1856  0.3847  0.3246
 5269SOL     OW20847   3.766   5.213   1.733 -0.2302  0.4784 -0.3620
 5269SOL    HW220848   3.693   5.245   1.786  0.4368  0.7707  0.3907
 5269SOL    HW320849   3.753   5.118   1.730 -0.3933  0.4798  0.1468
 5269SOL    MW420850   3.754   5.205   1.739  0.2058  0.1676 -0.3676
 5270SOL     OW20851   2.801   5.000   4.913 -0.3139  0.3391 -0.1463
 5270SOL    HW220852   2.711   4.980   4.885  0.0085 -1.2582 -0.1353
 5270SOL    HW320853   2.851   5.005   4.831 -0.8450  4.1240 -0.4315
 5270SOL    MW420854   2.796   4.998   4.898  0.4661 -0.0298  0.4564
 5271SOL     OW20855   3.996   4.914   1.081  0.0711  0.1245  0.0625
 5271SOL    HW220856   4.087   4.944   1.079 -0.9715  3.6836 -0.7896
 5271SOL    HW320857   3.980   4.882   0.992 -0.1644  2.0272 -0.6340
 5271SOL    MW420858   4.006   4.914   1.069  0.1068  0.3932  0.0633
 5272SOL     OW20859   6.337   3.186   1.239 -0.4719 -0.3863 -0.3857
 5272SOL    HW220860   6.289   3.129   1.299 -2.3185  1.7162  0.2883
 5272SOL    HW320861   6.421   3.200   1.282 -0.1883 -2.1143 -0.3131
 5272SOL    MW420862   6.342   3.180   1.253 -0.6251  0.0473 -0.4212
 5273SOL     OW20863   0.765   4.083   4.953  0.7619  0.4686  0.3589
 5273SOL    HW220864   0.755   3.993   4.982 -1.7106  0.8273  0.8578
 5273SOL    HW320865   0.790   4.132   5.031 -0.0040  0.5286  0.5698
 5273SOL    MW420866   0.767   4.077   4.967  0.2396 -0.4067  0.7425
 5274SOL     OW20867   6.300   1.130   0.337  0.4840  0.4258  0.2516
 5274SOL    HW220868   6.279   1.067   0.268  2.6223 -0.3856  0.2555
 5274SOL    HW320869   6.395   1.122   0.349  0.2563  0.7529  3.0874
 5274SOL    MW420870   6.310   1.121   0.330 -0.4147  0.1746 -0.3129
 5275SOL     OW20871   1.374   0.949   0.916  0.2292  0.0310  0.6678
 5275SOL    HW220872   1.469   0.947   0.926  0.1504 -0.6967  1.3209
 5275SOL    HW320873   1.341   0.982   0.999 -0.1730 -1.4783  1.1429
 5275SOL    MW420874   1.382   0.953   0.928  0.3689 -0.1186  0.8041
 5276SOL     OW20875   1.949   5.022   0.868 -0.1627 -0.5625 -0.3862
 5276SOL    HW220876   1.908   5.027   0.781 -0.5111 -2.1142 -0.3452
 5276SOL    HW320877   1.998   5.104   0.876 -1.7010  0.5022 -1.2322
 5276SOL    MW420878   1.950   5.033   0.858 -0.2487  0.1180 -0.5284
 5277SOL     OW20879   2.161   4.263   5.680 -0.2122  0.1569 -0.3835
 5277SOL    HW220880   2.070   4.253   5.707  0.3359 -0.4351  1.3416
 5277SOL    HW320881   2.210   4.203   5.736  1.1981  0.1045 -1.6056
 5277SOL    MW420882   2.155   4.254   5.691  0.5640 -0.2322  0.6543
 5278SOL     OW20883   2.030   3.844   2.174 -0.4009 -0.4883 -0.6102
 5278SOL    HW220884   2.114   3.884   2.197 -0.4964 -1.3756  1.4214
 5278SOL    HW320885   1.978   3.917   2.138  0.8117  0.3220 -0.7755
 5278SOL    MW420886   2.034   3.859   2.172  0.2351 -0.0625 -0.1830
 5279SOL     OW20887   5.545   5.857   5.095 -0.4866  0.2608 -0.5861
 5279SOL    HW220888   5.599   5.841   5.173 -2.0267 -0.5153  0.3791
 5279SOL    HW320889   5.605   5.898   5.032  1.0405  0.0419  0.6563
 5279SOL    MW420890   5.560   5.860   5.097  0.4672 -0.2324  0.1588
 5280SOL     OW20891   0.705   3.109   5.019 -0.2652 -0.3916 -0.2760
 5280SOL    HW220892   0.735   3.199   5.023 -1.2567 -0.0846  0.9998
 5280SOL    HW320893   0.611   3.115   5.007 -0.2960 -1.2704 -0.5802
 5280SOL    MW420894   0.697   3.121   5.018  0.0409  0.2280 -0.5162
 5281SOL     OW20895   4.845   1.202   3.692 -0.4210  0.3392 -0.4448
 5281SOL    HW220896   4.801   1.201   3.777  1.2537  0.0014  0.4597
 5281SOL    HW320897   4.796   1.266   3.641 -0.8517  1.3113  1.1167
 5281SOL    MW420898   4.833   1.210   3.696 -0.4613  0.2321 -0.0584
 5282SOL     OW20899   5.862   1.751   1.927  0.0494 -0.0669  0.2970
 5282SOL    HW220900   5.931   1.804   1.966  0.8045 -2.0595  1.8167
 5282SOL    HW320901   5.782   1.801   1.943  0.5587  0.0818  2.8684
 5282SOL    MW420902   5.861   1.764   1.934  0.0013 -0.0826 -0.1997
 5283SOL     OW20903   1.805   3.575   1.367  0.7208  0.2271  0.0642
 5283SOL    HW220904   1.846   3.494   1.339  0.7840  0.8447 -1.7167
 5283SOL    HW320905   1.853   3.644   1.322 -1.0653  1.0760 -0.6605
 5283SOL    MW420906   1.816   3.573   1.358  0.6328  0.3629 -0.0710
 5284SOL     OW20907   5.934   5.883   0.199  0.2224  0.2008 -0.1150
 5284SOL    HW220908   5.997   5.903   0.269 -0.0705 -2.2758  0.9793
 5284SOL    HW320909   5.979   5.820   0.143 -0.4474  0.2301 -0.7079
 5284SOL    MW420910   5.948   5.877   0.201 -0.0453 -0.5221 -0.2754
 5285SOL     OW20911   3.091   0.305   0.362 -0.6152 -0.0451 -0.3253
 5285SOL    HW220912   3.061   0.216   0.345  1.7504 -1.0859  0.5336
 5285SOL    HW320913   3.098   0.345   0.276  1.5353 -1.8547 -1.0650
 5285SOL    MW420914   3.088   0.298   0.349  0.1873 -0.4517 -0.2048
 5286SOL     OW20915   3.612   2.825   4.531 -0.1194 -0.0932  0.2936
 5286SOL    HW220916   3.633   2.786   4.616  0.4844  0.9556  0.6361
 5286SOL    HW320917   3.684   2.799   4.474  0.7690  1.2386  0.7615
 5286SOL    MW420918   3.624   2.817   4.534 -0.5317 -0.1677 -0.0785
 5287SOL     OW20919   1.694   6.393   2.161 -0.8230  0.2136  0.0080
 5287SOL    HW220920   1.664   6.425   2.077 -1.2521 -2.1910 -0.8296
 5287SOL    HW320921   1.786   6.420   2.166 -1.4571  2.5413 -0.0506
 5287SOL    MW420922   1.702   6.401   2.151  0.3499 -0.0608 -0.5103
 5288SOL     OW20923   5.885   3.026   0.265 -0.4216 -0.2071  0.1142
 5288SOL    HW220924   5.841   2.985   0.339  0.1976 -0.5721  0.2898
 5288SOL    HW320925   5.871   2.966   0.192 -1.0093  0.1399 -0.0634
 5288SOL    MW420926   5.878   3.013   0.265 -0.1029  0.5343 -0.0531
 5289SOL     OW20927   1.806   5.757   4.006 -0.3486 -0.1557 -0.0356
 5289SOL    HW220928   1.815   5.778   4.099 -1.5151 -0.8120  0.2393
 5289SOL    HW320929   1.781   5.665   4.004  2.2865 -0.9546 -1.1185
 5289SOL    MW420930   1.804   5.748   4.018  0.0179 -0.1095  0.4564
 5290SOL     OW20931   4.371   5.113   2.054  0.0021 -0.4978  0.1862
 5290SOL    HW220932   4.287   5.084   2.088 -0.2417  0.8825  0.8111
 5290SOL    HW320933   4.392   5.051   1.984 -1.0854 -1.3921  0.6428
 5290SOL    MW420934   4.363   5.101   2.049  0.2759  0.4314  0.3842
 5291SOL     OW20935   2.084   6.202   1.560  0.5123 -0.0959 -0.0809
 5291SOL    HW220936   1.991   6.213   1.581  0.4935 -1.1633  0.4444
 5291SOL    HW320937   2.118   6.292   1.555 -0.4664  0.2948  0.0731
 5291SOL    MW420938   2.077   6.215   1.562 -0.4254 -0.5552  0.0014
 5292SOL     OW20939   0.034   4.900   6.007 -0.2275  0.3973  0.0503
 5292SOL    HW220940   0.106   4.842   5.982 -0.5682  0.2316 -0.5687
 5292SOL    HW320941  -0.043   4.843   6.008 -0.0872  0.1276  2.6001
 5292SOL    MW420942   0.033   4.885   6.004  0.2376  0.4211  0.0203
 5293SOL     OW20943   6.418   3.754   3.184  0.3288 -0.0343  0.5690
 5293SOL    HW220944   6.508   3.786   3.183  0.3115  0.0144 -0.0732
 5293SOL    HW320945   6.365   3.833   3.169  0.2717 -0.3095 -0.7764
 5293SOL    MW420946   6.423   3.769   3.182 -0.5683  0.3497 -0.3338
 5294SOL     OW20947   0.038   0.954   6.115  0.2044 -0.0765 -0.5729
 5294SOL    HW220948   0.114   0.950   6.058  0.2312 -2.3401 -0.4783
 5294SOL    HW320949  -0.027   0.898   6.072 -0.3937 -0.4021  0.7010
 5294SOL    MW420950   0.039   0.946   6.102  0.0256  0.4402  0.6322
 5295SOL     OW20951   0.128   4.506   6.020  0.2701 -0.1380  0.6044
 5295SOL    HW220952   0.148   4.499   5.927 -0.4210 -1.9487  0.5485
 5295SOL    HW320953   0.195   4.454   6.064  0.8262  1.0165  1.1914
 5295SOL    MW420954   0.140   4.499   6.014  0.2699 -0.1737 -0.1912
 5296SOL     OW20955   6.179   6.198   0.547 -0.6666 -0.6797 -0.1780
 5296SOL    HW220956   6.154   6.280   0.506 -1.0204 -1.4398 -1.5178
 5296SOL    HW320957   6.171   6.216   0.641 -0.1956  0.9714 -0.4153
 5296SOL    MW420958   6.174   6.211   0.554 -0.0685  0.0896  0.2646
 5297SOL     OW20959   2.932   1.298   6.425  0.1385 -0.3857 -0.1785
 5297SOL    HW220960   2.854   1.275   6.375  0.9220  1.1413 -2.2291
 5297SOL    HW320961   3.005   1.280   6.367  1.3588 -1.5454  1.6133
 5297SOL    MW420962   2.931   1.293   6.411 -0.3398 -0.1555  0.5280
 5298SOL     OW20963   3.217   1.303   0.657  0.2745  0.2566  0.7698
 5298SOL    HW220964   3.235   1.396   0.670  1.1619  0.4533 -1.4414
 5298SOL    HW320965   3.256   1.261   0.735  0.5355  1.6487  1.4323
 5298SOL    MW420966   3.225   1.310   0.669 -0.0163 -0.6852  0.4612
 5299SOL     OW20967   2.344   0.699   4.721 -0.1378 -0.2493  0.7513
 5299SOL    HW220968   2.373   0.649   4.797  0.3089  1.7665  1.9671
 5299SOL    HW320969   2.390   0.658   4.647 -0.0026 -1.7660  1.6314
 5299SOL    MW420970   2.354   0.687   4.721 -0.5415  0.2492  0.0924
 5300SOL     OW20971   3.155   5.845   1.362 -0.2476 -0.0795  0.1377
 5300SOL    HW220972   3.200   5.761   1.352 -0.3848 -0.2647  1.0181
 5300SOL    HW320973   3.130   5.869   1.273 -0.6227 -1.2036 -0.0772
 5300SOL    MW420974   3.158   5.837   1.349  0.4166  0.5025  0.2845
 5301SOL     OW20975   1.908   2.418   1.174 -0.5091 -0.1365 -0.3487
 5301SOL    HW220976   1.879   2.509   1.166 -1.8033 -0.5443 -0.5784
 5301SOL    HW320977   1.904   2.384   1.084 -0.7783 -0.6233 -0.1567
 5301SOL    MW420978   1.903   2.426   1.161  0.4372  0.5735  0.6273
 5302SOL     OW20979   2.302   0.997   6.109  0.6092  0.0348  0.3947
 5302SOL    HW220980   2.339   0.916   6.075  0.4115  0.0446  0.1511
 5302SOL    HW320981   2.317   1.061   6.039  0.0936  0.0249  0.2695
 5302SOL    MW420982   2.308   0.995   6.095  0.3139 -0.0819  0.3898
 5303SOL     OW20983   3.934   6.181   0.691 -0.6571  0.0889  0.1663
 5303SOL    HW220984   3.900   6.160   0.604 -0.5267  0.9848 -0.1189
 5303SOL    HW320985   3.952   6.275   0.687  1.6416 -0.2868  0.3687
 5303SOL    MW420986   3.932   6.191   0.679  0.1707  0.0984  0.0608
 5304SOL     OW20987   2.751   0.166   1.686  0.1085 -0.0344  0.5145
 5304SOL    HW220988   2.748   0.260   1.702  1.1756  0.3323 -1.1626
 5304SOL    HW320989   2.830   0.136   1.731  0.4593  0.1027 -0.0111
 5304SOL    MW420990   2.761   0.174   1.694 -0.0989 -0.0254 -0.8697
 5305SOL     OW20991   3.873   2.860   4.111  0.4628 -0.4011 -0.3989
 5305SOL    HW220992   3.965   2.858   4.084  0.4163  0.1982 -0.6106
 5305SOL    HW320993   3.862   2.781   4.164  1.5847  0.5071  1.2511
 5305SOL    MW420994   3.883   2.849   4.114  0.2242 -0.1066 -0.2969
 5306SOL     OW20995   1.156   3.706   4.298 -0.6189  0.2287 -0.0584
 5306SOL    HW220996   1.093   3.751   4.242  0.0189  2.1500  0.6866
 5306SOL    HW320997   1.107   3.685   4.378 -0.2016  2.4975  0.8802
 5306SOL    MW420998   1.141   3.709   4.302 -0.2533  0.0407  0.1533
 5307SOL     OW20999   1.754   0.376   2.436 -0.1094 -0.2589  0.5616
 5307SOL    HW221000   1.702   0.450   2.404 -0.5915 -1.2357 -1.0131
 5307SOL    HW321001   1.702   0.299   2.413  0.8459 -1.1459  1.2902
 5307SOL    MW421002   1.740   0.376   2.429 -0.7179 -0.3670 -0.4153
 5308SOL     OW21003   2.723   2.826   1.244 -0.5671 -0.4121  0.4575
 5308SOL    HW221004   2.631   2.848   1.227 -0.3586 -0.4373 -0.7757
 5308SOL    HW321005   2.730   2.733   1.223 -0.0887 -0.2203 -0.2844
 5308SOL    MW421006   2.712   2.817   1.239  0.5680  0.8399  0.1567
 5309SOL     OW21007   4.746   1.458   2.430  0.2907  0.1519  0.2041
 5309SOL    HW221008   4.784   1.484   2.345 -1.2509  0.4555 -0.4203
 5309SOL    HW321009   4.742   1.363   2.425  0.0549  0.1766 -0.1370
 5309SOL    MW421010   4.751   1.449   2.418 -0.2752 -0.2194  0.5230
 5310SOL     OW21011   0.949   4.639   0.992  0.3334  0.0498  0.7298
 5310SOL    HW221012   1.011   4.708   1.015 -1.0082  1.3205  0.6216
 5310SOL    HW321013   0.946   4.641   0.896 -2.4057  2.4019  0.7456
 5310SOL    MW421014   0.957   4.648   0.982  0.3352 -0.3856  0.7906
 5311SOL     OW21015   5.975   2.353   6.231 -0.1810 -0.2314  0.2757
 5311SOL    HW221016   5.969   2.364   6.137 -1.7439 -0.0924  0.3583
 5311SOL    HW321017   5.888   2.377   6.264 -0.0237 -1.3636  1.6346
 5311SOL    MW421018   5.962   2.358   6.223 -0.2886 -0.3545 -0.2557
 5312SOL     OW21019   0.672   1.638   5.467  0.6221 -0.1033  0.0642
 5312SOL    HW221020   0.628   1.560   5.501  0.5608  1.0824  3.0035
 5312SOL    HW321021   0.747   1.604   5.418 -0.5163 -2.0158 -0.4529
 5312SOL    MW421022   0.676   1.623   5.465  0.0239 -0.2580 -0.1385
 5313SOL     OW21023   4.310   4.480   5.439 -0.0016  0.0381 -0.1189
 5313SOL    HW221024   4.396   4.479   5.480  0.1955 -0.1376 -0.5329
 5313SOL    HW321025   4.276   4.391   5.452 -1.1805  0.7378  2.2297
 5313SOL    MW421026   4.317   4.468   5.446 -0.6907 -0.1768  0.0285
 5314SOL     OW21027   6.170   2.871   5.745 -0.1834 -0.1706 -0.3109
 5314SOL    HW221028   6.161   2.813   5.821  0.1682  0.7398  0.4439
 5314SOL    HW321029   6.260   2.903   5.750 -0.1085 -0.2246 -1.2104
 5314SOL    MW421030   6.181   2.868   5.756 -0.0205 -0.3423  0.4755
 5315SOL     OW21031   2.296   2.475   4.420  0.1371  0.3850  0.7027
 5315SOL    HW221032   2.249   2.400   4.457 -1.4817  0.5672 -0.8131
 5315SOL    HW321033   2.230   2.545   4.416  1.2799  1.5107  0.9530
 5315SOL    MW421034   2.281   2.474   4.424  0.1991  0.0919  0.1649
 5316SOL     OW21035   0.194   5.625   3.503  0.4297 -0.3223  0.2443
 5316SOL    HW221036   0.120   5.578   3.541 -1.1186  2.1247  0.4831
 5316SOL    HW321037   0.270   5.592   3.550 -0.7604 -1.4500  1.4771
 5316SOL    MW421038   0.194   5.614   3.514  0.3019 -0.0635  0.3875
 5317SOL     OW21039   6.130   4.909   0.349  0.2248  0.1274 -0.6072
 5317SOL    HW221040   6.220   4.884   0.331  0.3559  1.1130 -1.4408
 5317SOL    HW321041   6.104   4.961   0.272 -0.5112  1.1973  0.3330
 5317SOL    MW421042   6.138   4.913   0.336 -0.2097 -0.2558  0.1538
 5318SOL     OW21043   4.315   3.113   2.549 -0.4251  0.1554 -0.8069
 5318SOL    HW221044   4.335   3.138   2.639 -4.9852  1.7472  0.0075
 5318SOL    HW321045   4.393   3.140   2.499  1.3489  1.3084  2.2948
 5318SOL    MW421046   4.328   3.120   2.554 -0.7650  0.5396 -0.6522
 5319SOL     OW21047   6.297   6.225   3.584 -0.8623 -0.2111 -0.6690
 5319SOL    HW221048   6.225   6.275   3.546 -1.5147  1.9978  2.9611
 5319SOL    HW321049   6.256   6.148   3.623 -0.7330 -0.6094 -1.3037
 5319SOL    MW421050   6.282   6.221   3.584  0.2278 -0.2278 -0.1119
 5320SOL     OW21051   3.011   4.850   3.825 -0.7677 -0.0241  0.2099
 5320SOL    HW221052   3.077   4.908   3.787 -0.9517 -0.7360 -1.2540
 5320SOL    HW321053   2.931   4.902   3.828 -0.8701 -0.1056 -0.8561
 5320SOL    MW421054   3.009   4.864   3.821 -0.1159 -0.2758  0.3255
 5321SOL     OW21055   5.229   1.535   6.377 -0.0462 -0.3844 -0.2678
 5321SOL    HW221056   5.303   1.578   6.334  0.8181 -1.6234 -0.0929
 5321SOL    HW321057   5.243   1.550   6.471 -0.5130  0.1464 -0.2840
 5321SOL    MW421058   5.240   1.542   6.384  0.7273  0.1479 -0.0326
 5322SOL     OW21059   4.539   5.072   6.161  0.2968  0.2448 -0.3897
 5322SOL    HW221060   4.540   4.980   6.190 -0.5416  0.0958 -0.8077
 5322SOL    HW321061   4.446   5.091   6.145  0.3704  1.4080  0.4464
 5322SOL    MW421062   4.527   5.062   6.163  0.0584  0.4149  0.2926
 5323SOL     OW21063   5.810   2.947   5.193 -0.4870 -0.3849  0.1777
 5323SOL    HW221064   5.879   3.007   5.220  0.3613 -0.6407 -1.3006
 5323SOL    HW321065   5.803   2.959   5.098 -2.1264 -0.7428  0.2223
 5323SOL    MW421066   5.818   2.956   5.184 -0.0012  0.1682 -0.6473
 5324SOL     OW21067   2.385   3.781   3.695  0.5121  0.8327 -0.0483
 5324SOL    HW221068   2.320   3.715   3.719  0.7093  0.6742  0.0578
 5324SOL    HW321069   2.434   3.741   3.623  0.4670  0.9665 -0.1526
 5324SOL    MW421070   2.383   3.767   3.689 -0.0587  0.3459 -0.8722
 5325SOL     OW21071   0.657   1.017   4.088  0.3715 -0.1881 -0.1018
 5325SOL    HW221072   0.629   0.977   4.170  0.5094 -0.2619 -0.0901
 5325SOL    HW321073   0.653   0.946   4.024 -2.1436  0.3967 -0.7351
 5325SOL    MW421074   0.653   1.003   4.090 -0.1138  0.6513 -1.0385
 5326SOL     OW21075   4.115   3.095   3.206 -0.0774 -0.0018  0.4211
 5326SOL    HW221076   4.135   3.135   3.121 -1.2351  1.2315  0.6859
 5326SOL    HW321077   4.195   3.048   3.230  0.5938  0.4076 -0.9147
 5326SOL    MW421078   4.128   3.094   3.198 -0.4798 -0.2245 -0.1847
 5327SOL     OW21079   4.278   2.969   1.308 -0.2551 -0.2093 -0.0686
 5327SOL    HW221080   4.194   3.003   1.337 -0.4864  0.0601 -1.0272
 5327SOL    HW321081   4.265   2.947   1.216  0.7962  0.0568 -0.2944
 5327SOL    MW421082   4.265   2.970   1.300  0.6040 -0.4616  0.0870
 5328SOL     OW21083   5.973   3.408   3.706  0.2200  0.4906 -0.3041
 5328SOL    HW221084   5.946   3.410   3.614  0.3172  2.2953 -0.3328
 5328SOL    HW321085   6.041   3.476   3.712 -1.9862  2.7253  1.6973
 5328SOL    MW421086   5.978   3.418   3.695  0.5605  0.1697 -0.1776
 5329SOL     OW21087   0.951   1.351   0.712  0.0377  0.5593 -0.8689
 5329SOL    HW221088   0.968   1.322   0.622 -0.8729  1.6067 -1.4089
 5329SOL    HW321089   0.938   1.445   0.704  0.6528  0.7767  0.4856
 5329SOL    MW421090   0.952   1.359   0.699  0.3030  0.0238  0.3543
 5330SOL     OW21091   5.908   3.035   2.665 -0.2921 -0.2680 -0.1267
 5330SOL    HW221092   5.892   3.033   2.571 -0.5572  1.9110 -0.1759
 5330SOL    HW321093   5.958   3.116   2.680  0.0171 -0.7197  1.5576
 5330SOL    MW421094   5.913   3.046   2.655 -0.1116  0.0100 -0.4400
 5331SOL     OW21095   3.681   0.769   4.278  0.5153  0.4464  0.4360
 5331SOL    HW221096   3.754   0.827   4.254 -0.2962  1.5483  0.5506
 5331SOL    HW321097   3.626   0.822   4.335 -0.7348 -0.1416 -0.1842
 5331SOL    MW421098   3.683   0.784   4.282  0.0911  0.2744  0.2619
 5332SOL     OW21099   3.076   0.102   2.300 -0.2382  0.5165 -0.2811
 5332SOL    HW221100   3.012   0.171   2.312  0.5756  1.1583  0.5675
 5332SOL    HW321101   3.066   0.046   2.377  0.3918  0.7796  0.0025
 5332SOL    MW421102   3.066   0.104   2.312 -0.0962  0.0444 -0.2932
 5333SOL     OW21103   0.815   6.006   3.541 -0.2562 -0.3813  0.0835
 5333SOL    HW221104   0.754   5.935   3.562 -0.6427 -0.1995 -0.4161
 5333SOL    HW321105   0.761   6.072   3.498 -0.2739  1.0204  2.0990
 5333SOL    MW421106   0.800   6.005   3.538  0.3678  0.4938  0.0840
 5334SOL     OW21107   1.635   2.713   1.453  0.0626  0.4223  0.1908
 5334SOL    HW221108   1.728   2.689   1.462  0.0812  0.4455  0.0591
 5334SOL    HW321109   1.589   2.630   1.445 -0.0004  0.3805  0.9313
 5334SOL    MW421110   1.641   2.699   1.453 -0.3565 -0.0273 -0.0444
 5335SOL     OW21111   3.481   1.948   2.051  0.1793  0.5413 -0.6467
 5335SOL    HW221112   3.549   1.880   2.051  2.7011  2.8548  0.8102
 5335SOL    HW321113   3.453   1.954   1.959  0.7214 -1.6216 -0.9929
 5335SOL    MW421114   3.487   1.940   2.039  0.3175 -0.3977 -0.6447
 5336SOL     OW21115   1.241   1.014   4.196 -0.4905  0.1300 -0.3748
 5336SOL    HW221116   1.175   0.979   4.136  0.8078 -1.2334 -1.0791
 5336SOL    HW321117   1.256   0.943   4.259  1.8526 -0.5048 -1.5374
 5336SOL    MW421118   1.234   1.000   4.197 -0.8947 -0.0771 -0.1963
 5337SOL     OW21119   1.752   1.666   5.612  0.2970 -0.1238  0.7105
 5337SOL    HW221120   1.700   1.627   5.682  0.4718 -1.1185  0.2961
 5337SOL    HW321121   1.806   1.594   5.578 -1.1983 -0.1976 -1.7637
 5337SOL    MW421122   1.752   1.651   5.617 -0.3268  0.0707 -0.0872
 5338SOL     OW21123   1.283   3.237   5.310  0.1800 -0.6326  0.1769
 5338SOL    HW221124   1.212   3.293   5.279  1.0564  0.7783  0.6200
 5338SOL    HW321125   1.243   3.151   5.320 -0.9881 -0.3378 -1.4508
 5338SOL    MW421126   1.268   3.233   5.307  0.3326  0.2136  0.6763
 5339SOL     OW21127   4.760   5.243   1.416  0.5070  0.0286 -0.3875
 5339SOL    HW221128   4.690   5.230   1.480  0.5767  0.4697 -0.2218
 5339SOL    HW321129   4.793   5.155   1.399 -1.0700 -0.3861 -1.5846
 5339SOL    MW421130   4.755   5.230   1.422  0.2943  0.0285 -1.2998
 5340SOL     OW21131   4.450   6.280   2.788  0.2675  0.0676  0.0865
 5340SOL    HW221132   4.495   6.221   2.849  0.1401  0.7043  0.8174
 5340SOL    HW321133   4.501   6.361   2.790  0.9443 -0.2841 -1.5779
 5340SOL    MW421134   4.463   6.283   2.796 -0.4296 -0.1984  0.1912
 5341SOL     OW21135   2.619   4.185   0.868  0.1814 -0.3288  0.0358
 5341SOL    HW221136   2.638   4.137   0.787 -0.7127 -0.2720 -0.2159
 5341SOL    HW321137   2.701   4.181   0.918  1.7157  1.9471 -2.0139
 5341SOL    MW421138   2.633   4.178   0.863  0.7271  0.0453  0.2545
 5342SOL     OW21139   4.254   2.272   3.468  0.4073  0.5719  0.2206
 5342SOL    HW221140   4.190   2.227   3.413  0.5434 -0.6320  1.0113
 5342SOL    HW321141   4.212   2.278   3.554  1.0183  0.5129  0.5296
 5342SOL    MW421142   4.240   2.267   3.472 -0.3071  0.7355 -0.3289
 5343SOL     OW21143   6.102   0.076   3.882  0.0152 -0.1261 -0.0726
 5343SOL    HW221144   6.055  -0.003   3.857  0.3289 -0.2743 -0.2013
 5343SOL    HW321145   6.187   0.068   3.840 -0.1309  0.5227 -0.5099
 5343SOL    MW421146   6.107   0.065   3.874 -0.2746  0.1485  0.2128
 5344SOL     OW21147   4.860   2.341   0.819  0.0036 -0.2750  0.0184
 5344SOL    HW221148   4.812   2.282   0.876 -0.4946  0.6047  0.5312
 5344SOL    HW321149   4.941   2.360   0.866  1.3810 -2.5046 -1.2573
 5344SOL    MW421150   4.865   2.336   0.832  0.1555  0.0589  0.0787
 5345SOL     OW21151   0.633   2.109   1.416 -0.0316 -0.0696 -0.1603
 5345SOL    HW221152   0.550   2.062   1.406  0.8086 -1.4707 -0.6443
 5345SOL    HW321153   0.607   2.202   1.413 -1.4017 -0.4506 -1.8837
 5345SOL    MW421154   0.618   2.115   1.414 -0.7355 -0.4005  0.5790
 5346SOL     OW21155   0.527   6.028   1.446 -0.1404  0.0586  0.1856
 5346SOL    HW221156   0.442   6.067   1.425 -0.3774 -0.2348  0.5953
 5346SOL    HW321157   0.553   6.069   1.528 -0.4956 -0.8056  0.7364
 5346SOL    MW421158   0.519   6.038   1.454 -0.2091 -0.0333 -0.1928
 5347SOL     OW21159   3.418   5.877   6.210 -0.0492  0.1002  0.6239
 5347SOL    HW221160   3.351   5.865   6.278 -0.5237  0.4771  0.2368
 5347SOL    HW321161   3.467   5.955   6.238 -0.9254  0.9018  0.0178
 5347SOL    MW421162   3.415   5.886   6.223  0.3175 -0.2587  0.1943
 5348SOL     OW21163   1.885   6.032   0.012  0.6546 -0.1754  0.5801
 5348SOL    HW221164   1.947   6.061   0.079  0.5171 -0.1587  0.7015
 5348SOL    HW321165   1.827   6.107  -0.001  2.1752  0.7276 -1.3548
 5348SOL    MW421166   1.885   6.046   0.019 -0.3130 -0.1454 -0.0397
 5349SOL     OW21167   6.059   3.603   3.307 -0.0366  0.2216 -0.1789
 5349SOL    HW221168   6.072   3.597   3.212 -0.4451 -2.0146 -0.1442
 5349SOL    HW321169   6.131   3.660   3.337  1.2930 -0.6242 -1.6049
 5349SOL    MW421170   6.070   3.610   3.298  0.1190 -0.5391 -0.0520
 5350SOL     OW21171   6.284   5.446   5.514 -0.0512  0.0478 -0.5760
 5350SOL    HW221172   6.305   5.365   5.561  1.5097  1.4651  1.3125
 5350SOL    HW321173   6.339   5.513   5.554 -1.1192  2.0457 -2.2230
 5350SOL    MW421174   6.294   5.444   5.525 -0.4272 -0.0928  0.7280
 5351SOL     OW21175   4.356   0.147   4.836  0.0118 -0.1290 -0.0512
 5351SOL    HW221176   4.437   0.103   4.810  0.7491  0.4909  1.1128
 5351SOL    HW321177   4.316   0.173   4.754  0.0539 -2.0661 -0.7311
 5351SOL    MW421178   4.362   0.145   4.822  0.1606  0.0834 -0.1523
 5352SOL     OW21179   2.835   6.126   4.373 -1.0841 -0.1391 -0.2909
 5352SOL    HW221180   2.787   6.111   4.455 -0.9589  2.7352  0.4057
 5352SOL    HW321181   2.887   6.047   4.361 -2.5265 -1.4348  1.3781
 5352SOL    MW421182   2.835   6.113   4.382  0.2402  0.4070  0.4312
 5353SOL     OW21183   3.470   4.425   3.113  0.4086 -0.5174 -0.3331
 5353SOL    HW221184   3.561   4.396   3.120  0.5903  0.2560  0.6850
 5353SOL    HW321185   3.419   4.354   3.153  0.6735 -0.3605  0.2839
 5353SOL    MW421186   3.475   4.412   3.119  0.5709  0.4393 -0.2355
 5354SOL     OW21187   6.340   2.817   3.239 -0.5178 -0.1947 -0.0179
 5354SOL    HW221188   6.396   2.834   3.316 -0.6519 -1.0631  0.2821
 5354SOL    HW321189   6.261   2.868   3.256  0.1044  0.9194 -0.3671
 5354SOL    MW421190   6.337   2.826   3.252  0.0803  0.5811  0.2928
 5355SOL     OW21191   5.519   3.033   4.243  0.3706  0.5640 -0.2323
 5355SOL    HW221192   5.563   3.064   4.165 -1.4792  1.3370 -1.0201
 5355SOL    HW321193   5.432   3.006   4.213 -0.0733  0.0269  1.4031
 5355SOL    MW421194   5.513   3.033   4.229  0.0753 -0.8134 -0.3342
 5356SOL     OW21195   1.894   1.751   3.579 -0.0417 -0.7292  0.6843
 5356SOL    HW221196   1.879   1.842   3.554 -0.8619 -0.3974  2.2533
 5356SOL    HW321197   1.863   1.700   3.504  1.6896  0.2826 -0.7770
 5356SOL    MW421198   1.888   1.756   3.566 -0.2693  0.0386  0.1432
 5357SOL     OW21199   4.354   2.256   2.577  0.0776 -0.2216 -0.0830
 5357SOL    HW221200   4.271   2.286   2.541  1.3144  0.8004 -2.2340
 5357SOL    HW321201   4.419   2.318   2.545  1.4514  0.5299  3.5982
 5357SOL    MW421202   4.352   2.268   2.568 -0.7126 -0.7232 -0.5809
 5358SOL     OW21203   2.131   3.542   4.037  0.2860 -0.8651 -0.2140
 5358SOL    HW221204   2.093   3.606   4.097  0.1798 -0.3750 -0.7823
 5358SOL    HW321205   2.180   3.482   4.092 -0.2522 -0.7392  0.4050
 5358SOL    MW421206   2.133   3.543   4.052  0.1040 -0.3136 -0.3581
 5359SOL     OW21207   1.738   0.622   3.204  0.2642 -0.2352  0.4817
 5359SOL    HW221208   1.809   0.564   3.228  1.0046  0.6785  0.5631
 5359SOL    HW321209   1.772   0.674   3.131 -0.6196 -0.3534 -0.0431
 5359SOL    MW421210   1.752   0.622   3.197 -0.5600 -0.0535 -0.6075
 5360SOL     OW21211   0.496   0.220   0.659 -0.2991  0.3350  0.6647
 5360SOL    HW221212   0.554   0.277   0.609 -0.3168 -0.4282 -0.2505
 5360SOL    HW321213   0.451   0.166   0.593 -1.5976  0.4814  1.3874
 5360SOL    MW421214   0.497   0.220   0.644  0.3173  0.4757  0.1344
 5361SOL     OW21215   2.268   2.812   4.035  0.5861 -0.0776 -0.0723
 5361SOL    HW221216   2.283   2.775   3.948 -1.5773  0.6279 -0.7994
 5361SOL    HW321217   2.188   2.863   4.026  0.3006  0.0048  2.3585
 5361SOL    MW421218   2.259   2.814   4.022  0.4471  0.0246 -0.1849
 5362SOL     OW21219   0.312   4.195   4.030  0.1235 -0.0176 -0.0105
 5362SOL    HW221220   0.318   4.291   4.031 -0.8215  0.0585  0.1361
 5362SOL    HW321221   0.223   4.177   4.062 -0.4173 -0.8757 -1.8303
 5362SOL    MW421222   0.301   4.205   4.034 -0.2265 -0.0436 -0.5034
 5363SOL     OW21223   3.643   6.148   0.103 -0.3833  0.6253  0.0322
 5363SOL    HW221224   3.736   6.149   0.128 -0.1015 -1.3512 -0.7736
 5363SOL    HW321225   3.602   6.211   0.163  1.1098 -0.0537  1.8815
 5363SOL    MW421226   3.650   6.156   0.114  0.3941 -0.5739 -0.0015
 5364SOL     OW21227   0.306   2.484   5.034 -0.6467 -0.6365 -0.2971
 5364SOL    HW221228   0.252   2.406   5.017  0.0883 -0.9594 -1.2151
 5364SOL    HW321229   0.396   2.454   5.021 -0.0970 -0.4086  2.3485
 5364SOL    MW421230   0.311   2.469   5.030  0.4258 -0.3254 -0.5505
 5365SOL     OW21231   0.153   5.888   5.987  0.1829  0.1198 -0.0329
 5365SOL    HW221232   0.163   5.962   5.927 -0.8263  1.1983  1.0753
 5365SOL    HW321233   0.058   5.880   6.001  0.2915 -1.1613  0.1550
 5365SOL    MW421234   0.142   5.896   5.981  0.2750 -0.0148 -0.3295
 5366SOL     OW21235   2.692   2.178   5.747 -0.3898  0.0285 -0.2891
 5366SOL    HW221236   2.696   2.273   5.731 -0.4713  0.1208  0.2188
 5366SOL    HW321237   2.708   2.169   5.841  0.3066 -0.5169 -0.4539
 5366SOL    MW421238   2.695   2.190   5.757 -0.3903 -0.2169 -0.6517
 5367SOL     OW21239   5.750   2.496   3.905  0.3348  0.0079  0.1699
 5367SOL    HW221240   5.756   2.407   3.941  0.8085  0.1017  0.3344
 5367SOL    HW321241   5.707   2.547   3.974  2.3322  0.4628  1.1709
 5367SOL    MW421242   5.745   2.491   3.919  0.0497  0.6214  0.5386
 5368SOL     OW21243   5.123   1.488   5.981 -0.0765 -0.2570 -0.4107
 5368SOL    HW221244   5.120   1.452   5.893 -1.7194 -0.2037 -0.4103
 5368SOL    HW321245   5.216   1.508   5.996  0.5262 -2.0693 -1.3650
 5368SOL    MW421246   5.135   1.486   5.971  0.1287 -0.0005 -0.4383
 5369SOL     OW21247   6.427   4.884   1.959 -0.2475 -0.1359  0.2688
 5369SOL    HW221248   6.410   4.801   2.005 -2.5007  0.5647  0.8468
 5369SOL    HW321249   6.519   4.902   1.975  0.7735 -3.2707 -1.1623
 5369SOL    MW421250   6.437   4.875   1.967 -0.0188  0.1424  0.1027
 5370SOL     OW21251   4.341   0.943   6.233 -0.0507  0.9130  0.2614
 5370SOL    HW221252   4.344   0.915   6.324 -1.0170 -0.1059  0.0002
 5370SOL    HW321253   4.320   1.037   6.237 -0.5143  0.7851  1.0786
 5370SOL    MW421254   4.339   0.952   6.245  0.0093  0.1316  0.3389
 5371SOL     OW21255   1.683   5.931   2.488 -0.4260  0.1495 -0.5118
 5371SOL    HW221256   1.719   6.019   2.498  0.8352 -0.4056  0.0409
 5371SOL    HW321257   1.649   5.909   2.574  0.0380 -0.2225 -0.4197
 5371SOL    MW421258   1.683   5.940   2.500  0.2056 -0.0009  0.3510
 5372SOL     OW21259   3.976   0.301   3.261  0.4527  0.1940 -0.1970
 5372SOL    HW221260   3.999   0.370   3.199 -0.0102  0.3318 -0.2172
 5372SOL    HW321261   4.060   0.263   3.287  0.6930  0.6113 -0.3600
 5372SOL    MW421262   3.990   0.305   3.256  0.5560 -0.0474  0.0326
 5373SOL     OW21263   2.691   0.439   3.876 -0.0948 -0.3240 -1.0851
 5373SOL    HW221264   2.743   0.519   3.871 -0.6869  0.1063 -0.5167
 5373SOL    HW321265   2.738   0.383   3.937  0.1106 -0.2451 -1.1709
 5373SOL    MW421266   2.704   0.443   3.883  0.0716  0.5458  0.7682
 5374SOL     OW21267   3.851   6.040   5.123 -0.3453  0.0126  0.5760
 5374SOL    HW221268   3.877   6.098   5.051  0.2575  0.1861  0.9363
 5374SOL    HW321269   3.796   6.094   5.179 -1.0708 -0.2071  0.0967
 5374SOL    MW421270   3.847   6.054   5.121 -0.1361 -0.0780 -0.4594
 5375SOL     OW21271   0.105   2.036   0.817  0.2147  0.1457 -0.3842
 5375SOL    HW221272   0.050   2.112   0.800 -0.7486 -0.0769  1.4119
 5375SOL    HW321273   0.194   2.067   0.803 -0.1977  1.4552 -0.2365
 5375SOL    MW421274   0.110   2.050   0.813 -0.3186  0.1108  0.3539
 5376SOL     OW21275   3.674   3.719   3.405  0.6056 -0.5194  0.1146
 5376SOL    HW221276   3.651   3.801   3.450  1.7724 -0.1892  0.1458
 5376SOL    HW321277   3.741   3.745   3.342 -0.7327 -1.0386 -1.5953
 5376SOL    MW421278   3.680   3.733   3.403 -0.1166 -0.2569  0.3360
 5377SOL     OW21279   5.228   0.371   1.623 -0.2053 -0.0672 -0.5135
 5377SOL    HW221280   5.242   0.362   1.717  1.0036 -0.1691 -0.6820
 5377SOL    HW321281   5.269   0.293   1.585  1.1251  0.9504 -1.2574
 5377SOL    MW421282   5.235   0.359   1.630  0.6653  0.4567 -0.2514
 5378SOL     OW21283   3.437   3.904   6.388  0.3146  0.3361 -0.2943
 5378SOL    HW221284   3.526   3.888   6.422 -0.3634 -1.7572  0.6772
 5378SOL    HW321285   3.411   3.821   6.350 -0.6845  1.3783 -2.0013
 5378SOL    MW421286   3.445   3.891   6.387  0.2026 -0.0371  0.3338
 5379SOL     OW21287   2.843   2.225   0.568  0.4688  0.0518  0.4468
 5379SOL    HW221288   2.899   2.300   0.546  1.6918 -0.8888  0.1900
 5379SOL    HW321289   2.755   2.261   0.573  0.9995  1.4661  0.1360
 5379SOL    MW421290   2.839   2.240   0.566 -0.0851  0.2032 -0.0564
 5380SOL     OW21291   5.096   3.238   2.570  0.1612 -0.5102 -0.1240
 5380SOL    HW221292   5.048   3.313   2.534 -0.7671 -1.0504 -0.0443
 5380SOL    HW321293   5.188   3.267   2.573 -0.3250  1.0966  1.0849
 5380SOL    MW421294   5.102   3.252   2.566  0.4366  0.2395  0.1727
 5381SOL     OW21295   3.856   4.157   1.470 -0.1953  0.0321  0.0707
 5381SOL    HW221296   3.925   4.148   1.404 -0.3185 -2.2790  0.1879
 5381SOL    HW321297   3.779   4.185   1.420  0.2310  0.3555 -0.4233
 5381SOL    MW421298   3.855   4.159   1.454  0.2813 -0.2077 -0.2177
 5382SOL     OW21299   1.352   5.565   2.027  0.1089 -0.5148 -0.7251
 5382SOL    HW221300   1.281   5.530   2.082  0.4912  0.7534  0.6307
 5382SOL    HW321301   1.316   5.646   1.990  1.3934  1.1562  1.4627
 5382SOL    MW421302   1.338   5.571   2.029  0.2948 -0.4052  0.0551
 5383SOL     OW21303   3.359   0.070   5.876 -0.2892  0.2972 -0.3884
 5383SOL    HW221304   3.357   0.132   5.803  0.1580  0.2707 -0.4250
 5383SOL    HW321305   3.374   0.124   5.953 -1.3399  0.3938 -0.2301
 5383SOL    MW421306   3.360   0.085   5.877  0.3307  0.3397 -0.0828
 5384SOL     OW21307   1.584   2.400   0.800  0.5179  0.3754 -0.1084
 5384SOL    HW221308   1.621   2.390   0.713  1.1307 -0.9316  0.2677
 5384SOL    HW321309   1.505   2.347   0.799 -0.4459  1.7604 -0.3739
 5384SOL    MW421310   1.578   2.392   0.789  0.1168 -0.4962  0.1235
 5385SOL     OW21311   1.731   4.664   1.103 -0.1374 -0.1129 -0.2629
 5385SOL    HW221312   1.682   4.657   1.021  0.6071 -0.4136 -0.6937
 5385SOL    HW321313   1.775   4.749   1.097  0.4748 -0.4365 -0.5042
 5385SOL    MW421314   1.730   4.675   1.091  0.1378  0.3587 -0.1761
 5386SOL     OW21315   2.145   4.869   2.329 -0.4063 -0.5824  0.3627
 5386SOL    HW221316   2.190   4.942   2.286 -1.2339 -0.5125 -0.4140
 5386SOL    HW321317   2.100   4.909   2.404 -2.0876  0.0252 -0.9052
 5386SOL    MW421318   2.145   4.884   2.334 -0.0461 -0.0428 -0.1373
 5387SOL     OW21319   0.314   3.493   4.556  0.0363 -0.0388 -0.0727
 5387SOL    HW221320   0.366   3.552   4.500  0.0003 -1.9224 -2.2422
 5387SOL    HW321321   0.315   3.535   4.642  3.0718  1.2620 -0.6003
 5387SOL    MW421322   0.321   3.506   4.560  1.0618 -0.3325  0.1918
 5388SOL     OW21323   0.823   5.864   4.544  0.2263  0.1505 -0.4367
 5388SOL    HW221324   0.797   5.926   4.475 -0.8669 -0.5801 -0.7028
 5388SOL    HW321325   0.759   5.794   4.539  0.8817 -0.5442  0.5047
 5388SOL    MW421326   0.811   5.863   4.534 -0.6669 -0.1061  0.0392
 5389SOL     OW21327   5.033   1.142   2.668 -0.2885  0.0246  0.4880
 5389SOL    HW221328   4.984   1.067   2.634 -0.9813  1.4353 -1.8200
 5389SOL    HW321329   4.969   1.193   2.717 -0.7269  0.8585 -0.8909
 5389SOL    MW421330   5.018   1.139   2.670  0.0240  0.4666  0.1756
 5390SOL     OW21331   5.550   4.754   3.975  0.2359 -0.2237 -0.3930
 5390SOL    HW221332   5.502   4.728   4.054  0.8808  0.1966  0.1451
 5390SOL    HW321333   5.621   4.810   4.007  0.4192  0.0695 -1.2886
 5390SOL    MW421334   5.553   4.758   3.989  0.4429  0.3338 -0.3791
 5391SOL     OW21335   6.181   5.358   1.140  0.0518 -0.1325  0.2264
 5391SOL    HW221336   6.261   5.329   1.184  0.0093 -0.6944 -0.0626
 5391SOL    HW321337   6.147   5.279   1.097  0.0641  0.3947 -0.7754
 5391SOL    MW421338   6.187   5.343   1.140  0.3391  0.4482 -0.2536
 5392SOL     OW21339   0.366   4.578   4.301 -0.7439  0.4871  0.8890
 5392SOL    HW221340   0.276   4.608   4.316 -0.5964  0.3494  2.1869
 5392SOL    HW321341   0.416   4.659   4.291 -0.9721  0.5694  0.3876
 5392SOL    MW421342   0.361   4.593   4.302 -0.3309  0.4200  1.0149
 5393SOL     OW21343   1.749   2.405   3.139  0.6222  0.2120  0.3151
 5393SOL    HW221344   1.780   2.321   3.103  1.5855  1.1562 -1.1945
 5393SOL    HW321345   1.666   2.421   3.093  0.1094 -0.2154  1.0848
 5393SOL    MW421346   1.742   2.396   3.128 -0.6845  0.2340  0.1477
 5394SOL     OW21347   1.198   2.229   1.858 -0.1604  0.3221 -0.4664
 5394SOL    HW221348   1.278   2.197   1.900  0.5320  0.3727 -1.6942
 5394SOL    HW321349   1.202   2.324   1.871 -0.6421  0.2146  0.5109
 5394SOL    MW421350   1.209   2.238   1.865  0.7990 -0.3181  0.0683
 5395SOL     OW21351   3.660   4.401   6.144  0.0316  0.0449 -0.2508
 5395SOL    HW221352   3.708   4.482   6.162  1.8904 -1.0604  0.0370
 5395SOL    HW321353   3.573   4.430   6.119 -0.2029  2.0452  2.4233
 5395SOL    MW421354   3.655   4.415   6.143 -0.0956 -0.2482 -0.0705
 5396SOL     OW21355   3.225   2.422   1.585 -0.2394 -0.0329  0.4595
 5396SOL    HW221356   3.304   2.446   1.633  1.4754 -0.8876 -1.7618
 5396SOL    HW321357   3.217   2.327   1.596  1.2982 -0.6029 -2.2649
 5396SOL    MW421358   3.235   2.413   1.593 -0.1426  0.0228 -0.0431
 5397SOL     OW21359   1.787   6.402   1.365  0.1014 -0.5371 -0.0205
 5397SOL    HW221360   1.871   6.400   1.319  0.0392  1.0277 -0.2539
 5397SOL    HW321361   1.766   6.495   1.373 -0.6556 -0.8165  1.7855
 5397SOL    MW421362   1.796   6.414   1.360 -0.5805 -0.2020 -0.2087
 5398SOL     OW21363   3.950   2.885   5.182  0.1353 -0.0804  0.2348
 5398SOL    HW221364   4.014   2.947   5.149  0.8702 -0.8431  0.1763
 5398SOL    HW321365   3.908   2.849   5.104 -0.4425  0.4837  0.2756
 5398SOL    MW421366   3.953   2.888   5.168 -0.4209 -0.0687  0.1221
 5399SOL     OW21367   3.303   0.464   0.139 -0.3621 -0.3902 -0.2023
 5399SOL    HW221368   3.258   0.525   0.197 -2.2042 -1.1779 -0.7493
 5399SOL    HW321369   3.329   0.517   0.064 -0.5724  0.0167  0.0066
 5399SOL    MW421370   3.301   0.479   0.137 -0.0397 -0.3928 -0.4704
 5400SOL     OW21371   3.956   1.971   4.133  0.2048 -0.2514  0.5123
 5400SOL    HW221372   3.974   2.064   4.144 -2.8244  0.4408  0.5424
 5400SOL    HW321373   3.930   1.941   4.220  2.9238 -1.6645  0.9308
 5400SOL    MW421374   3.955   1.979   4.145 -0.1797  0.2858 -0.5876
 5401SOL     OW21375   2.378   5.359   3.303 -0.6221  0.5315  0.6342
 5401SOL    HW221376   2.369   5.361   3.398 -0.9541  2.1131  0.5937
 5401SOL    HW321377   2.353   5.447   3.275 -1.4471 -0.1937 -0.9991
 5401SOL    MW421378   2.373   5.371   3.312 -0.2158  0.4409  0.1974
 5402SOL     OW21379   0.610   5.218   5.411  0.4325 -0.3742  0.3457
 5402SOL    HW221380   0.540   5.204   5.347 -0.4144 -1.3515  1.4322
 5402SOL    HW321381   0.599   5.147   5.475  0.8094  0.9427  1.9568
 5402SOL    MW421382   0.599   5.207   5.411  0.4572 -0.1408  0.0362
 5403SOL     OW21383   2.592   5.476   5.939  0.1107  0.3173  0.0470
 5403SOL    HW221384   2.606   5.569   5.923  3.4946 -0.5034 -3.3431
 5403SOL    HW321385   2.528   5.449   5.872  0.0627 -0.0210  0.2242
 5403SOL    MW421386   2.585   5.484   5.928  0.5254 -0.1814 -0.4794
 5404SOL     OW21387   5.673   3.251   3.081 -0.4138 -0.6138 -0.5808
 5404SOL    HW221388   5.595   3.201   3.106 -0.3085 -0.8265 -0.6740
 5404SOL    HW321389   5.724   3.190   3.027 -0.0011 -0.6099 -0.2022
 5404SOL    MW421390   5.670   3.236   3.078  0.5504 -0.5860 -0.1016
 5405SOL     OW21391   5.008   6.402   2.826  0.5170 -0.1878 -0.0638
 5405SOL    HW221392   5.097   6.365   2.826  0.7873  0.3204 -2.2621
 5405SOL    HW321393   5.003   6.451   2.909  2.1505 -0.5388  0.2908
 5405SOL    MW421394   5.019   6.404   2.837 -0.0780  0.3376 -1.1453
 5406SOL     OW21395   2.510   1.838   4.866 -0.1576 -0.3486 -0.1592
 5406SOL    HW221396   2.476   1.901   4.802 -0.0964 -0.0034  0.1454
 5406SOL    HW321397   2.464   1.858   4.947 -0.4006 -0.9361 -0.1487
 5406SOL    MW421398   2.500   1.849   4.868  0.2484 -0.0006 -0.4404
 5407SOL     OW21399   1.190   4.705   3.390 -0.8457  0.0514 -0.9987
 5407SOL    HW221400   1.250   4.680   3.320 -0.5790  1.3000 -1.2384
 5407SOL    HW321401   1.151   4.787   3.360 -1.7391 -0.0975 -0.2790
 5407SOL    MW421402   1.193   4.712   3.377 -0.5165  0.0361 -0.0014
 5408SOL     OW21403   1.296   4.637   3.642 -0.1935  0.4902  0.0121
 5408SOL    HW221404   1.248   4.640   3.559 -1.0713  0.2740  0.4923
 5408SOL    HW321405   1.243   4.580   3.697  1.1347 -0.5509  0.2576
 5408SOL    MW421406   1.282   4.630   3.638 -0.1569 -0.4139  0.0108
 5409SOL     OW21407   3.930   4.783   3.783  0.2772 -0.1829  0.2319
 5409SOL    HW221408   3.867   4.844   3.743  0.2760  0.2727  0.9142
 5409SOL    HW321409   3.878   4.735   3.848  0.5273 -0.1551  0.4505
 5409SOL    MW421410   3.915   4.785   3.786 -0.7748 -1.0479  0.5494
 5410SOL     OW21411   4.790   1.213   5.924 -0.3623 -0.2906  0.5396
 5410SOL    HW221412   4.886   1.215   5.927 -0.3481 -0.3527  0.1472
 5410SOL    HW321413   4.766   1.143   5.985 -0.1795  0.0849  1.0451
 5410SOL    MW421414   4.799   1.204   5.932 -0.1502 -0.7626  0.1901
 5411SOL     OW21415   4.720   0.074   6.032 -0.1496 -0.0432  0.0037
 5411SOL    HW221416   4.700   0.149   6.087 -1.2652  0.7921 -1.4855
 5411SOL    HW321417   4.786   0.106   5.970  1.4134 -1.0907  1.0461
 5411SOL    MW421418   4.726   0.088   6.031 -0.2555 -0.0863 -1.1357
 5412SOL     OW21419   5.841   3.193   3.311  0.3799  0.0538  0.0335
 5412SOL    HW221420   5.801   3.223   3.229 -2.1890 -1.7171  0.5013
 5412SOL    HW321421   5.849   3.272   3.364 -2.3891  0.6149 -0.2345
 5412SOL    MW421422   5.837   3.207   3.307 -0.1791  0.2051  0.3021
 5413SOL     OW21423   2.379   3.593   4.855 -0.3378 -0.0156 -0.1683
 5413SOL    HW221424   2.326   3.616   4.779  0.3218  0.3259 -0.5361
 5413SOL    HW321425   2.408   3.503   4.838  0.0296  0.1541 -0.4575
 5413SOL    MW421426   2.376   3.584   4.843 -0.9086 -0.0131  0.1898
 5414SOL     OW21427   1.594   6.106   1.025  0.0276 -0.2478  0.1751
 5414SOL    HW221428   1.636   6.031   1.067  0.2800 -0.2846 -0.1363
 5414SOL    HW321429   1.501   6.089   1.034  0.0696 -0.0007  1.1738
 5414SOL    MW421430   1.588   6.094   1.032  0.5045  0.0572  0.2826
 5415SOL     OW21431   6.184   1.873   6.193  0.2264  0.3152 -0.2451
 5415SOL    HW221432   6.143   1.861   6.278 -1.1541  0.1826 -0.9107
 5415SOL    HW321433   6.140   1.949   6.154 -0.7357 -0.9426 -1.7332
 5415SOL    MW421434   6.173   1.882   6.199  0.1673  0.3210 -0.2983
 5416SOL     OW21435   1.989   3.442   4.388  0.3876 -0.1242 -0.2563
 5416SOL    HW221436   1.957   3.397   4.310  2.2971  1.6202 -2.1899
 5416SOL    HW321437   2.058   3.386   4.422  0.4166 -0.2906 -0.5910
 5416SOL    MW421438   1.994   3.429   4.382  0.1504 -0.5832 -0.5012
 5417SOL     OW21439   2.899   1.758   5.535  0.3287  0.0216 -0.5025
 5417SOL    HW221440   2.858   1.841   5.560 -0.6558 -1.1428  2.0954
 5417SOL    HW321441   2.825   1.700   5.515  0.9577 -0.5076 -1.3371
 5417SOL    MW421442   2.883   1.761   5.536 -0.4214 -0.0304  0.0881
 5418SOL     OW21443   3.585   2.041   1.284 -0.1377  0.0967 -0.1110
 5418SOL    HW221444   3.626   1.980   1.346  0.7019 -0.1246 -0.8719
 5418SOL    HW321445   3.658   2.091   1.248 -0.8711  2.3172  1.2445
 5418SOL    MW421446   3.600   2.039   1.288 -0.1126  0.0931  0.4985
 5419SOL     OW21447   1.658   2.812   0.439 -0.0706  0.3552 -0.6873
 5419SOL    HW221448   1.670   2.784   0.530  2.3857 -0.3407 -1.1566
 5419SOL    HW321449   1.643   2.906   0.444 -1.3289  0.1237  0.4902
 5419SOL    MW421450   1.657   2.820   0.451  0.2821  0.7470  0.3926
 5420SOL     OW21451   5.967   4.862   4.852 -0.0458  0.0250 -0.7269
 5420SOL    HW221452   6.001   4.803   4.919  0.2991 -1.3651 -2.0701
 5420SOL    HW321453   5.895   4.909   4.895  0.8442 -0.0479  0.9041
 5420SOL    MW421454   5.962   4.860   4.867  0.4831 -0.2288 -0.0317
 5421SOL     OW21455   4.573   2.204   4.620  0.2080 -0.2559  0.5825
 5421SOL    HW221456   4.500   2.263   4.640 -0.5795 -0.8097 -0.5857
 5421SOL    HW321457   4.613   2.241   4.542  0.9660 -0.1600  1.0097
 5421SOL    MW421458   4.569   2.216   4.612 -0.2328 -0.5419 -0.4116
 5422SOL     OW21459   4.699   4.525   0.999 -0.4152 -0.0273  0.0384
 5422SOL    HW221460   4.672   4.436   0.977  1.0327 -0.2040 -1.1773
 5422SOL    HW321461   4.656   4.544   1.083 -1.0939 -1.6902  0.0902
 5422SOL    MW421462   4.690   4.516   1.007 -0.5634  0.0609  0.5268
 5423SOL     OW21463   0.825   0.716   6.015 -0.1587 -0.1201 -0.1618
 5423SOL    HW221464   0.785   0.728   5.929 -0.1688  0.3310 -0.0972
 5423SOL    HW321465   0.914   0.685   5.995 -0.3426 -0.5601 -0.3168
 5423SOL    MW421466   0.832   0.713   6.001  0.3562  0.1730 -0.3211
 5424SOL     OW21467   6.056   3.425   6.262 -0.1452  0.0756 -0.4101
 5424SOL    HW221468   6.149   3.406   6.245 -0.2599  0.0145 -0.9967
 5424SOL    HW321469   6.030   3.359   6.326  0.4192  0.5976  0.3768
 5424SOL    MW421470   6.065   3.414   6.268 -0.0225  0.2925 -0.0539
 5425SOL     OW21471   5.780   5.756   4.364 -0.7186  0.3931  0.0061
 5425SOL    HW221472   5.872   5.778   4.380 -0.2963  0.7276 -2.4816
 5425SOL    HW321473   5.748   5.825   4.306 -2.1801 -0.3879 -0.1691
 5425SOL    MW421474   5.788   5.768   4.358 -0.0193  0.0290 -0.3978
 5426SOL     OW21475   3.068  -0.009   6.306 -0.3251  0.0614 -0.2496
 5426SOL    HW221476   3.131  -0.065   6.262 -0.5632  0.7821 -1.5645
 5426SOL    HW321477   3.115   0.073   6.321 -0.2990 -0.1161  0.7220
 5426SOL    MW421478   3.082  -0.005   6.302  0.3390 -0.4829  0.3446
 5427SOL     OW21479   2.800   6.247   6.202 -0.0387 -0.0866 -0.0224
 5427SOL    HW221480   2.738   6.251   6.274  1.5877 -1.2053  1.5244
 5427SOL    HW321481   2.875   6.299   6.232  0.4472 -0.0886 -1.1556
 5427SOL    MW421482   2.802   6.255   6.215 -0.2090  0.7765 -0.0548
 5428SOL     OW21483   3.809   4.345   4.346  0.1876  0.2882 -0.4639
 5428SOL    HW221484   3.775   4.278   4.405  0.2562  0.3623 -0.3389
 5428SOL    HW321485   3.893   4.311   4.317 -0.4675 -0.4044 -1.6363
 5428SOL    MW421486   3.816   4.332   4.350 -0.0017  0.5990  1.1539
 5429SOL     OW21487   4.626   5.289   0.753 -0.2777 -0.2275  0.5156
 5429SOL    HW221488   4.632   5.285   0.658  1.6437  2.0408  0.4699
 5429SOL    HW321489   4.659   5.203   0.782 -0.9227 -0.9593 -0.8244
 5429SOL    MW421490   4.632   5.277   0.744 -0.2469 -0.6059 -0.0043
 5430SOL     OW21491   5.417   0.678   0.701 -0.2655 -0.0050  0.0606
 5430SOL    HW221492   5.440   0.756   0.752  0.3556 -0.5071  0.5689
 5430SOL    HW321493   5.321   0.674   0.705 -0.2730  0.4545  0.4501
 5430SOL    MW421494   5.407   0.688   0.708 -0.1087 -0.2115 -0.2528
 5431SOL     OW21495   6.360   5.723   1.461 -0.2468 -0.1098 -0.2448
 5431SOL    HW221496   6.397   5.637   1.442 -1.0774 -0.8265  1.2535
 5431SOL    HW321497   6.274   5.705   1.498 -0.4592  1.3794  0.0616
 5431SOL    MW421498   6.353   5.709   1.463 -0.3206  0.5129 -0.4705
 5432SOL     OW21499   0.255   6.260   2.039  0.3369 -0.2215  0.7484
 5432SOL    HW221500   0.201   6.193   2.079 -1.4202  1.4457  1.3302
 5432SOL    HW321501   0.262   6.329   2.106  0.6436  0.9133 -0.3960
 5432SOL    MW421502   0.249   6.260   2.053  0.0860 -0.0159 -0.6842
 5433SOL     OW21503   2.480   4.286   6.279  0.4637 -0.3164 -0.0653
 5433SOL    HW221504   2.475   4.366   6.331  0.3006 -0.6149  0.3810
 5433SOL    HW321505   2.485   4.215   6.343  0.0466 -0.7020 -0.4454
 5433SOL    MW421506   2.480   4.287   6.294  0.0132  0.1746  0.2665
 5434SOL     OW21507   1.377   3.970   1.593 -0.0984  0.1454  0.3661
 5434SOL    HW221508   1.380   4.065   1.594  1.6927  0.2123 -1.9882
 5434SOL    HW321509   1.424   3.945   1.513 -0.0493 -2.7283  1.1661
 5434SOL    MW421510   1.384   3.979   1.583 -0.2200  0.3064  0.2477
 5435SOL     OW21511   2.371   1.438   6.292  0.5575 -0.2970 -0.3305
 5435SOL    HW221512   2.367   1.445   6.197  0.0717  0.4424 -0.2707
 5435SOL    HW321513   2.335   1.352   6.312 -1.2768  0.3380 -0.7173
 5435SOL    MW421514   2.366   1.428   6.282 -0.0453  0.4709  0.0497
 5436SOL     OW21515   1.764   4.775   5.670  0.7524 -0.6109  0.1976
 5436SOL    HW221516   1.713   4.852   5.695  1.2194  0.0976 -0.9181
 5436SOL    HW321517   1.725   4.747   5.587  2.9320  0.7447 -1.3866
 5436SOL    MW421518   1.752   4.781   5.662  0.0140 -0.1102  0.1425
 5437SOL     OW21519   6.059   2.098   4.444  0.4294  0.0659  0.2637
 5437SOL    HW221520   5.975   2.103   4.398  0.7325 -0.0601 -0.3132
 5437SOL    HW321521   6.122   2.138   4.384  0.8313 -0.0938  0.5703
 5437SOL    MW421522   6.056   2.104   4.430 -0.7155 -0.0963 -0.3568
 5438SOL     OW21523   3.359   5.830   2.633 -0.6342 -0.2216  0.0656
 5438SOL    HW221524   3.439   5.793   2.595 -1.3970 -0.3650 -1.5061
 5438SOL    HW321525   3.387   5.914   2.670  0.0087  0.5395 -1.9653
 5438SOL    MW421526   3.373   5.836   2.633 -0.1668  0.1794 -0.3197
 5439SOL     OW21527   5.157   2.466   0.431 -0.5443  0.0973  0.1280
 5439SOL    HW221528   5.102   2.544   0.431 -2.1645 -0.9981 -0.9865
 5439SOL    HW321529   5.156   2.436   0.522 -1.8164  0.1170  0.1400
 5439SOL    MW421530   5.150   2.472   0.443  0.0172 -0.2249  0.3642
 5440SOL     OW21531   0.583   3.729   0.511  0.4303 -0.2439 -0.0273
 5440SOL    HW221532   0.500   3.729   0.558  0.8842 -0.1905  0.8102
 5440SOL    HW321533   0.649   3.718   0.580  1.0848 -0.8323 -0.7319
 5440SOL    MW421534   0.581   3.728   0.527 -0.4117  0.1695 -0.1136
 5441SOL     OW21535   3.883   0.431   2.703 -0.3050 -0.2775 -0.1642
 5441SOL    HW221536   3.796   0.458   2.732 -0.8872 -1.2736 -0.9371
 5441SOL    HW321537   3.915   0.375   2.773 -0.1598  0.2937  0.2399
 5441SOL    MW421538   3.876   0.427   2.716  0.4640  0.8397 -0.4509
 5442SOL     OW21539   3.497   3.969   4.056 -0.0629  0.5897 -0.4691
 5442SOL    HW221540   3.576   3.926   4.088 -1.4352 -1.8968 -0.1203
 5442SOL    HW321541   3.501   3.957   3.961  0.1556  0.7889 -0.4852
 5442SOL    MW421542   3.508   3.961   4.047 -0.6741  0.7970 -0.4422
 5443SOL     OW21543   1.816   0.290   6.269 -0.3728 -0.2090  0.1588
 5443SOL    HW221544   1.803   0.299   6.174  0.7092  0.2261  0.0379
 5443SOL    HW321545   1.785   0.373   6.306 -0.9355 -0.4365  0.2121
 5443SOL    MW421546   1.810   0.302   6.261  0.5786  0.5016  0.2244
 5444SOL     OW21547   0.827   1.014   1.076  0.0147  0.1057  0.1678
 5444SOL    HW221548   0.764   1.083   1.056  0.0995  1.2719  3.2502
 5444SOL    HW321549   0.774   0.935   1.085 -0.4265  0.2457 -1.0684
 5444SOL    MW421550   0.811   1.013   1.075 -0.3305  0.1649 -0.2550
 5445SOL     OW21551   0.581   2.474   1.925  0.0661  0.3365  0.0137
 5445SOL    HW221552   0.672   2.463   1.951 -0.3732  0.0810  1.5158
 5445SOL    HW321553   0.583   2.474   1.829  2.0206  3.3547 -0.0690
 5445SOL    MW421554   0.593   2.473   1.916  0.1021  0.4011 -0.3854
 5446SOL     OW21555   3.522   4.346   2.007  0.3376 -0.1041 -0.1658
 5446SOL    HW221556   3.534   4.440   2.024  0.6570 -0.1375 -0.1949
 5446SOL    HW321557   3.427   4.335   1.999  0.3337  0.3295 -0.7896
 5446SOL    MW421558   3.511   4.357   2.008 -0.4924 -0.1882 -0.0854
 5447SOL     OW21559   0.388   1.637   1.775  0.4031  0.3110 -0.2905
 5447SOL    HW221560   0.441   1.703   1.729 -1.0656  1.2324 -0.7348
 5447SOL    HW321561   0.301   1.645   1.736 -0.2472 -0.6889  0.8933
 5447SOL    MW421562   0.384   1.647   1.764  0.2652  0.6078 -0.6776
 5448SOL     OW21563   3.500   1.373   5.872 -0.8370  0.3685 -0.1325
 5448SOL    HW221564   3.485   1.310   5.801 -0.3960  0.0708  0.0303
 5448SOL    HW321565   3.562   1.328   5.930 -1.2127  0.6011  0.4536
 5448SOL    MW421566   3.506   1.359   5.870 -0.5522 -0.0781 -0.3150
 5449SOL     OW21567   2.385   2.178   5.867 -0.0747 -0.7213  0.1606
 5449SOL    HW221568   2.467   2.176   5.817  0.1921 -1.3883  0.6086
 5449SOL    HW321569   2.357   2.269   5.865 -0.7771 -0.9009 -2.3495
 5449SOL    MW421570   2.392   2.190   5.860 -0.2259  0.7865  0.5959
 5450SOL     OW21571   1.100   4.170   1.774 -0.4938  0.1024  0.0779
 5450SOL    HW221572   1.047   4.091   1.781 -1.1180  0.3114 -1.8223
 5450SOL    HW321573   1.191   4.139   1.783 -0.5620 -1.2345 -2.8285
 5450SOL    MW421574   1.105   4.155   1.776 -0.2042  0.2842  0.1427
 5451SOL     OW21575   3.291   2.698   3.934  0.1111 -0.4498  0.5703
 5451SOL    HW221576   3.350   2.660   3.869 -0.2203 -0.0195 -0.0036
 5451SOL    HW321577   3.226   2.630   3.951  0.5747 -0.8027  0.9523
 5451SOL    MW421578   3.290   2.684   3.928  0.0484 -0.1689 -0.3645
 5452SOL     OW21579   1.919   0.733   0.865 -0.1043 -0.8851  0.5731
 5452SOL    HW221580   1.851   0.674   0.896 -0.6421 -0.2219  0.6944
 5452SOL    HW321581   1.991   0.723   0.928  0.4288 -2.5061 -0.2513
 5452SOL    MW421582   1.920   0.724   0.877  0.0160  0.0252 -0.5722
 5453SOL     OW21583   4.466   0.150   0.487 -0.1629 -0.5317 -0.0590
 5453SOL    HW221584   4.551   0.140   0.531 -0.9401  1.2884  2.0730
 5453SOL    HW321585   4.484   0.129   0.396  2.3833 -1.0454  0.4593
 5453SOL    MW421586   4.480   0.146   0.481 -0.5271  0.4310  0.3466
 5454SOL     OW21587   0.669   2.214   2.880 -0.5129  0.0186 -0.4531
 5454SOL    HW221588   0.590   2.194   2.831 -0.4034 -1.7155  0.0216
 5454SOL    HW321589   0.722   2.135   2.874  0.0476  0.1900  1.4059
 5454SOL    MW421590   0.666   2.201   2.873 -0.0925 -0.3357 -0.0277
 5455SOL     OW21591   3.328   0.658   6.362  0.1152  0.5649 -0.4343
 5455SOL    HW221592   3.233   0.664   6.371  0.2683  0.7091  1.4345
 5455SOL    HW321593   3.341   0.582   6.304 -1.1016 -1.1805  1.4367
 5455SOL    MW421594   3.317   0.649   6.355 -0.1402 -0.2123  0.1261
 5456SOL     OW21595   1.714   3.535   4.144 -0.3659  0.2193 -0.0680
 5456SOL    HW221596   1.624   3.564   4.129 -0.2295  1.5854  1.4041
 5456SOL    HW321597   1.745   3.590   4.216  1.0463 -1.4669  0.7022
 5456SOL    MW421598   1.706   3.546   4.152 -0.2868 -0.5193 -0.0767
 5457SOL     OW21599   3.434   4.803   5.155  0.6366  0.1065 -0.2108
 5457SOL    HW221600   3.525   4.829   5.171  0.9522 -0.4359 -1.0789
 5457SOL    HW321601   3.382   4.873   5.196  1.4333  0.3049  0.4872
 5457SOL    MW421602   3.439   4.816   5.163  0.3110  0.0213  0.0168
 5458SOL     OW21603   2.391   6.166   0.439  0.0553 -0.2970 -0.1167
 5458SOL    HW221604   2.445   6.097   0.476  2.1172  1.0840 -0.4053
 5458SOL    HW321605   2.437   6.248   0.460 -0.3556  0.7717 -2.8273
 5458SOL    MW421606   2.404   6.168   0.446  0.5160 -0.2090 -0.5297
 5459SOL     OW21607   3.176   4.163   3.961 -0.5365 -0.5490  0.1494
 5459SOL    HW221608   3.189   4.234   4.024 -0.0628 -0.8375  0.3859
 5459SOL    HW321609   3.105   4.193   3.905 -1.2310 -0.4635  1.0672
 5459SOL    MW421610   3.169   4.176   3.962  0.6699  0.1778  0.0743
 5460SOL     OW21611   0.659   4.963   1.497 -0.2883 -0.3713 -0.0707
 5460SOL    HW221612   0.663   4.946   1.403 -0.4379 -0.7417 -0.0137
 5460SOL    HW321613   0.719   5.036   1.511  0.4807 -0.9442 -0.3126
 5460SOL    MW421614   0.668   4.970   1.486 -0.9498  0.2499 -0.1686
 5461SOL     OW21615   1.689   0.355   0.691 -0.5763  0.5411  0.0634
 5461SOL    HW221616   1.728   0.311   0.766 -0.2239  0.9677  0.1318
 5461SOL    HW321617   1.605   0.311   0.679 -0.4764  0.2292  0.4819
 5461SOL    MW421618   1.683   0.343   0.699  0.1181  0.6554 -0.6331
 5462SOL     OW21619   4.408   5.254   0.215  0.1348  0.2693  0.0809
 5462SOL    HW221620   4.474   5.222   0.153 -1.3376 -3.3407  0.1416
 5462SOL    HW321621   4.398   5.183   0.278 -3.2042  0.9985  0.5328
 5462SOL    MW421622   4.416   5.240   0.215 -0.3247 -0.2421 -0.2412
 5463SOL     OW21623   3.071   0.751   2.294  0.0470 -0.2375  0.6552
 5463SOL    HW221624   3.048   0.757   2.201 -0.7512 -0.8939  0.8009
 5463SOL    HW321625   3.166   0.736   2.295  0.3586  1.4657  0.0089
 5463SOL    MW421626   3.081   0.750   2.282 -0.3288  0.0826 -0.1282
 5464SOL     OW21627   0.823   3.900   2.547 -0.1054 -0.3722 -0.1333
 5464SOL    HW221628   0.841   3.993   2.534 -0.7487 -0.4655 -1.9481
 5464SOL    HW321629   0.759   3.897   2.617 -1.0410  0.6583 -0.9247
 5464SOL    MW421630   0.817   3.912   2.555  0.3802  0.0910 -0.3703
 5465SOL     OW21631   0.470   6.283   3.819  0.3860 -0.3966 -0.3440
 5465SOL    HW221632   0.429   6.368   3.835  0.7127 -0.3360  0.1780
 5465SOL    HW321633   0.560   6.303   3.796  0.2380 -0.5553 -1.0998
 5465SOL    MW421634   0.476   6.297   3.818 -0.3991 -0.6952 -0.4795
 5466SOL     OW21635   1.737   1.592   4.942 -0.7185  0.1583  0.0740
 5466SOL    HW221636   1.682   1.663   4.907  0.0623 -0.3542 -2.3811
 5466SOL    HW321637   1.712   1.515   4.890  1.8950 -0.2009 -0.7695
 5466SOL    MW421638   1.726   1.591   4.930  0.2119 -0.8516 -0.0479
 5467SOL     OW21639   1.845   5.158   3.735  0.0460  0.0345 -0.3909
 5467SOL    HW221640   1.864   5.246   3.768 -1.6890  0.2535  0.1279
 5467SOL    HW321641   1.801   5.114   3.808  0.8076 -1.2388 -0.6783
 5467SOL    MW421642   1.841   5.164   3.749  0.2008 -0.0688 -0.1590
 5468SOL     OW21643   1.172   0.379   0.912  0.3844 -0.2011 -0.1555
 5468SOL    HW221644   1.238   0.310   0.901 -0.3310 -0.9275  0.0230
 5468SOL    HW321645   1.148   0.375   1.004  0.9264  0.8533  0.0486
 5468SOL    MW421646   1.178   0.369   0.922 -0.8727  0.3305  0.3229
 5469SOL     OW21647   3.238   0.736   3.230  0.3702  0.1447  0.3077
 5469SOL    HW221648   3.299   0.718   3.301  2.2691  2.4361 -0.5913
 5469SOL    HW321649   3.266   0.679   3.158 -0.7416 -1.2293  0.9086
 5469SOL    MW421650   3.249   0.726   3.230 -1.0104  0.0953  0.5670
 5470SOL     OW21651   2.164   5.430   5.522  0.6296 -0.2205 -0.3051
 5470SOL    HW221652   2.170   5.337   5.499  1.4602 -0.2504  0.0235
 5470SOL    HW321653   2.228   5.473   5.466 -2.6883  0.8257 -3.7244
 5470SOL    MW421654   2.173   5.423   5.511  0.1062 -0.4569  0.7487
 5471SOL     OW21655   2.277   2.264   3.083 -0.1737  0.2725 -0.0074
 5471SOL    HW221656   2.343   2.301   3.024  0.2564 -2.3585 -1.3210
 5471SOL    HW321657   2.219   2.215   3.025 -0.5668 -1.2482  1.6090
 5471SOL    MW421658   2.278   2.262   3.067 -0.1288 -0.3541 -0.2945
 5472SOL     OW21659   6.165   2.577   2.827  0.3327  0.1894  0.4621
 5472SOL    HW221660   6.122   2.658   2.798  0.5592 -0.1586 -0.9462
 5472SOL    HW321661   6.236   2.606   2.884  0.1733  0.9700  0.2708
 5472SOL    MW421662   6.169   2.591   2.831  0.5673 -0.1459  0.7217
 5473SOL     OW21663   4.686   3.863   1.654  0.2273 -0.5664  0.0242
 5473SOL    HW221664   4.776   3.893   1.639  0.0570  1.2249  2.0071
 5473SOL    HW321665   4.632   3.933   1.618 -0.3660 -1.4086 -0.7295
 5473SOL    MW421666   4.691   3.876   1.648  0.2092  0.0502  0.1272
 5474SOL     OW21667   5.038   4.675   3.568  0.3058 -0.1412 -0.0843
 5474SOL    HW221668   5.104   4.738   3.541  0.8844 -0.1330  1.2700
 5474SOL    HW321669   5.054   4.599   3.512  0.3233  0.4942 -0.9589
 5474SOL    MW421670   5.049   4.673   3.557 -0.2649  0.0653 -0.1213
 5475SOL     OW21671   3.519   0.082   4.195  0.4925 -0.2658  0.9919
 5475SOL    HW221672   3.608   0.050   4.184  0.8068  0.4760  1.2885
 5475SOL    HW321673   3.511   0.152   4.130 -0.3055 -1.1631  0.0892
 5475SOL    MW421674   3.530   0.087   4.185  0.7181 -0.1020 -0.1558
 5476SOL     OW21675   3.046   1.838   1.296 -0.4226 -0.3041 -0.4390
 5476SOL    HW221676   3.099   1.916   1.283 -1.7438  0.9097  1.0632
 5476SOL    HW321677   3.032   1.804   1.208  1.7375  0.0355 -0.9835
 5476SOL    MW421678   3.051   1.844   1.283 -0.1253 -0.2099  0.1777
 5477SOL     OW21679   5.336   4.464   3.510  0.1965 -0.2468 -0.0745
 5477SOL    HW221680   5.311   4.388   3.457  2.9700 -0.7865 -0.8262
 5477SOL    HW321681   5.337   4.432   3.600 -0.1068 -0.6843 -0.2258
 5477SOL    MW421682   5.333   4.449   3.515 -0.4123  0.4822  0.2553
 5478SOL     OW21683   1.407   2.177   0.761  0.0903  0.5157 -0.2124
 5478SOL    HW221684   1.392   2.083   0.752 -0.3296  0.6050 -0.4641
 5478SOL    HW321685   1.366   2.216   0.683 -0.7309  1.0081  0.4427
 5478SOL    MW421686   1.400   2.170   0.749  0.0868 -0.0640 -0.8917
 5479SOL     OW21687   2.220   5.872   3.962  0.0233 -0.4247  0.1001
 5479SOL    HW221688   2.210   5.934   4.035 -3.9082  0.3387 -0.8272
 5479SOL    HW321689   2.312   5.879   3.937  0.5748  2.3896  2.3344
 5479SOL    MW421690   2.230   5.881   3.969 -0.6332  0.1163  0.3323
 5480SOL     OW21691   1.223   2.507   1.918  0.6872  0.0515 -0.1028
 5480SOL    HW221692   1.249   2.515   2.010  1.0916 -1.2056 -0.0821
 5480SOL    HW321693   1.303   2.527   1.870  0.6740 -0.0177 -0.1532
 5480SOL    MW421694   1.237   2.511   1.924  0.0218  0.4419 -0.6522
 5481SOL     OW21695   3.496   3.937   4.685 -0.0626 -0.0752  0.1314
 5481SOL    HW221696   3.564   3.907   4.624 -0.5726  0.1471 -0.5537
 5481SOL    HW321697   3.545   3.963   4.764  0.7875  1.2195 -0.7790
 5481SOL    MW421698   3.511   3.936   4.688  0.3673 -0.6242 -0.4879
 5482SOL     OW21699   0.305   5.727   0.425  0.0082 -0.3386 -0.4216
 5482SOL    HW221700   0.384   5.779   0.406 -0.1552  0.3366  0.6681
 5482SOL    HW321701   0.278   5.693   0.339  0.6516  0.6189 -1.0283
 5482SOL    MW421702   0.312   5.729   0.411  0.3860  0.2805  0.0378
 5483SOL     OW21703   4.894   1.289   3.361  0.2976  0.4514 -0.1640
 5483SOL    HW221704   4.900   1.271   3.268  1.8138 -0.9495  0.1495
 5483SOL    HW321705   4.932   1.212   3.403 -2.0297  0.1886  1.7041
 5483SOL    MW421706   4.900   1.276   3.355 -0.4394  0.3383  0.3025
 5484SOL     OW21707   2.518   4.567   4.548  0.7338  0.0066  0.3283
 5484SOL    HW221708   2.467   4.508   4.492 -1.8831  1.1125  1.3788
 5484SOL    HW321709   2.553   4.511   4.617 -0.3979 -0.5624  0.4596
 5484SOL    MW421710   2.516   4.552   4.549 -0.2323  0.2359  0.5243
 5485SOL     OW21711   5.779   1.436   3.836 -0.6729 -0.4010 -0.1143
 5485SOL    HW221712   5.826   1.424   3.918 -1.4768 -1.4305  0.2145
 5485SOL    HW321713   5.825   1.507   3.792 -0.6450  0.6215  1.5216
 5485SOL    MW421714   5.792   1.443   3.841  0.6296 -0.3815  0.0332
 5486SOL     OW21715   1.686   3.384   3.505  0.0189  0.2811 -0.5032
 5486SOL    HW221716   1.639   3.321   3.450  0.2663  0.7403 -1.2382
 5486SOL    HW321717   1.691   3.340   3.590  0.7387 -0.9818 -1.1626
 5486SOL    MW421718   1.680   3.370   3.509 -0.1880 -0.3784  0.3865
 5487SOL     OW21719   0.565   4.708   1.254  0.0868  0.2163 -0.3968
 5487SOL    HW221720   0.612   4.791   1.244  0.0389  0.2019 -0.7682
 5487SOL    HW321721   0.594   4.655   1.180 -0.1739  0.0442 -0.3773
 5487SOL    MW421722   0.575   4.712   1.243 -0.1286  0.1492  0.2050
 5488SOL     OW21723   4.302   6.207   1.034 -0.0836  0.6820  0.8219
 5488SOL    HW221724   4.357   6.166   0.966 -1.2352  2.0456 -1.0087
 5488SOL    HW321725   4.226   6.150   1.040  0.3163  0.2054  1.4702
 5488SOL    MW421726   4.299   6.194   1.026  0.5964  0.2428  0.2171
 5489SOL     OW21727   5.409   4.450   1.213  0.1445  0.1108  0.2765
 5489SOL    HW221728   5.341   4.394   1.251  1.0338 -1.1535  0.0815
 5489SOL    HW321729   5.461   4.479   1.288 -0.6212  1.1174  0.4307
 5489SOL    MW421730   5.407   4.446   1.228  0.6010  0.5052 -0.6270
 5490SOL     OW21731   0.058   1.699   6.362 -0.1872  0.8201  0.3509
 5490SOL    HW221732   0.071   1.680   6.455 -1.0430  0.8387  0.4812
 5490SOL    HW321733   0.067   1.614   6.319 -0.2542  0.7389  0.4975
 5490SOL    MW421734   0.061   1.685   6.369 -0.0616  0.3843 -0.2296
 5491SOL     OW21735   5.072   5.788   5.772  0.0451 -0.2355  0.2652
 5491SOL    HW221736   5.132   5.864   5.769 -0.1120 -0.0891  0.7496
 5491SOL    HW321737   4.999   5.813   5.715 -1.6317  1.4001  2.9160
 5491SOL    MW421738   5.071   5.802   5.764 -1.1059 -0.8371 -0.2116
 5492SOL     OW21739   6.370   2.096   5.967 -0.0967  0.0903  0.3522
 5492SOL    HW221740   6.427   2.027   6.001  0.6414  0.7850  0.5430
 5492SOL    HW321741   6.334   2.138   6.046  0.1413  0.4890  0.2494
 5492SOL    MW421742   6.373   2.092   5.982 -0.3447  0.2474  0.6603
 5493SOL     OW21743   0.443   5.189   4.470 -0.1748 -0.1962 -0.0324
 5493SOL    HW221744   0.473   5.240   4.395  2.1585  0.8504  1.4810
 5493SOL    HW321745   0.421   5.254   4.537  0.4486 -1.1099  1.1010
 5493SOL    MW421746   0.444   5.204   4.469  0.2101 -0.3711  0.5958
 5494SOL     OW21747   5.595   1.666   2.665 -0.2065  0.0011  0.0007
 5494SOL    HW221748   5.673   1.642   2.716 -0.1312 -1.3366 -0.6964
 5494SOL    HW321749   5.523   1.662   2.728  0.2513  1.0576  0.6090
 5494SOL    MW421750   5.596   1.662   2.680 -0.3559 -0.1405 -0.0218
 5495SOL     OW21751   0.160   6.102   1.101  0.4232  0.3677 -0.0647
 5495SOL    HW221752   0.121   6.163   1.039  1.1466  0.9626  0.0544
 5495SOL    HW321753   0.236   6.148   1.136 -0.2239  0.2451  1.6257
 5495SOL    MW421754   0.164   6.116   1.097 -0.2778  0.5993  0.3098
 5496SOL     OW21755   5.832   2.427   2.879  0.3646 -0.0452  0.4150
 5496SOL    HW221756   5.824   2.521   2.894 -2.2939 -0.1222 -0.0827
 5496SOL    HW321757   5.777   2.387   2.946  1.1181 -1.2512  0.3437
 5496SOL    MW421758   5.824   2.434   2.890 -0.3038 -0.2391  0.0748
 5497SOL     OW21759   1.099   3.984   5.856  0.4750 -0.3670  0.1985
 5497SOL    HW221760   1.129   4.060   5.806 -0.0180 -0.5439 -0.3786
 5497SOL    HW321761   1.168   3.969   5.920  0.6235  0.5093  0.2551
 5497SOL    MW421762   1.112   3.992   5.858 -0.0055 -0.3032  0.6392
 5498SOL     OW21763   0.881   0.619   4.753 -0.0606  0.0797 -0.1280
 5498SOL    HW221764   0.839   0.561   4.689 -0.6188  2.2881 -1.8946
 5498SOL    HW321765   0.829   0.699   4.751  0.6976  0.7176  2.1834
 5498SOL    MW421766   0.869   0.622   4.744 -0.3171 -0.5130  0.1549
 5499SOL     OW21767   5.544   2.757   4.347 -0.2026  0.3732 -0.4310
 5499SOL    HW221768   5.617   2.725   4.400  1.2940  1.4365 -1.7697
 5499SOL    HW321769   5.563   2.850   4.333 -1.9855  0.7581 -0.5782
 5499SOL    MW421770   5.556   2.765   4.352 -0.0579 -0.3282 -0.2448
 5500SOL     OW21771   1.873   2.841   6.106 -0.0995  0.3912 -0.4316
 5500SOL    HW221772   1.854   2.848   6.200 -0.3233 -0.4504 -0.4092
 5500SOL    HW321773   1.942   2.775   6.100 -0.5345 -0.0281 -0.9106
 5500SOL    MW421774   1.880   2.833   6.118  0.0434 -0.0736  0.1679
 5501SOL     OW21775   4.773   0.743   2.236  0.0419 -0.2361 -0.0438
 5501SOL    HW221776   4.776   0.783   2.149  0.3848  1.5696  0.7501
 5501SOL    HW321777   4.711   0.798   2.285  0.4615 -0.7376  1.0680
 5501SOL    MW421778   4.765   0.756   2.231 -0.5878  0.1173 -0.0343
 5502SOL     OW21779   3.189   2.733   2.473 -0.0902  0.3626  0.2585
 5502SOL    HW221780   3.198   2.792   2.398 -0.5779 -1.5495 -1.3786
 5502SOL    HW321781   3.111   2.765   2.518 -0.9792  0.3584 -1.2089
 5502SOL    MW421782   3.180   2.745   2.469 -0.1531  0.1983  0.1616
 5503SOL     OW21783   1.017   0.746   3.009  0.6253 -0.2547  0.1191
 5503SOL    HW221784   0.929   0.756   3.046 -0.2277 -0.2871 -1.8060
 5503SOL    HW321785   1.049   0.664   3.046 -0.2760 -0.4133  0.5812
 5503SOL    MW421786   1.009   0.737   3.019  0.5736 -0.5420 -0.3354
 5504SOL     OW21787   3.113   0.183   4.407  0.0633  0.6647  0.4970
 5504SOL    HW221788   3.100   0.088   4.409 -0.3429  0.7293  1.4042
 5504SOL    HW321789   3.208   0.194   4.411  0.1270  0.2876  0.0441
 5504SOL    MW421790   3.124   0.172   4.408 -0.3540  0.2745  0.0230
 5505SOL     OW21791   1.542   4.032   0.510  0.1383 -0.1938 -0.0252
 5505SOL    HW221792   1.467   3.982   0.480  1.1491 -2.8847  1.5455
 5505SOL    HW321793   1.612   4.010   0.449  0.0913  1.0044 -0.5335
 5505SOL    MW421794   1.542   4.023   0.498 -0.1238 -0.3219 -0.2970
 5506SOL     OW21795   3.838   1.672   5.310 -0.3819 -0.7488  0.6012
 5506SOL    HW221796   3.815   1.593   5.261  0.5428  0.0909 -1.2834
 5506SOL    HW321797   3.756   1.703   5.346 -1.0534 -1.5608 -0.1815
 5506SOL    MW421798   3.824   1.665   5.308 -0.3716 -0.1540 -0.2290
 5507SOL     OW21799   1.391   3.470   5.987  0.0836  0.2093  0.3471
 5507SOL    HW221800   1.311   3.507   5.949 -0.0910  0.5704  1.0451
 5507SOL    HW321801   1.441   3.439   5.912 -0.8763 -0.3486 -0.0736
 5507SOL    MW421802   1.387   3.471   5.972  0.4166 -0.0897  0.2870
 5508SOL     OW21803   2.128   4.854   1.010 -0.1138  0.0852 -0.3640
 5508SOL    HW221804   2.127   4.762   0.986  1.8366 -0.0927  0.1042
 5508SOL    HW321805   2.075   4.897   0.943 -1.8313 -1.4404 -0.0857
 5508SOL    MW421806   2.121   4.848   0.998 -0.1218  0.2026  0.1449
 5509SOL     OW21807   0.605   3.188   6.037  0.0645 -0.4276 -0.2149
 5509SOL    HW221808   0.666   3.126   6.078  0.9675  0.2067 -0.5637
 5509SOL    HW321809   0.632   3.191   5.945 -0.6641 -0.3317 -0.4307
 5509SOL    MW421810   0.617   3.180   6.030  0.3245  0.1881  0.3992
 5510SOL     OW21811   5.799   3.484   3.998 -0.0154  0.0073  0.3669
 5510SOL    HW221812   5.801   3.437   4.081  1.2225  1.7269  1.3767
 5510SOL    HW321813   5.706   3.486   3.974 -0.3062 -1.1671  1.2963
 5510SOL    MW421814   5.787   3.478   4.006 -0.0693  0.6351  0.0035
 5511SOL     OW21815   0.450   5.815   5.175  0.1404  0.0581  0.4399
 5511SOL    HW221816   0.528   5.833   5.227  0.6756 -1.0390  0.0490
 5511SOL    HW321817   0.423   5.901   5.141  1.8993  0.3086 -0.4331
 5511SOL    MW421818   0.456   5.829   5.177 -0.0478  0.1592  0.0128
 5512SOL     OW21819   2.696   6.233   0.066 -0.2847  0.4350 -0.1505
 5512SOL    HW221820   2.662   6.147   0.093 -1.4183  0.9855  0.2283
 5512SOL    HW321821   2.791   6.223   0.070 -0.4043 -0.5348  0.7693
 5512SOL    MW421822   2.704   6.220   0.070  0.9711 -0.0361 -0.0859
 5513SOL     OW21823   3.646   1.435   3.018  0.1581  0.0121  0.2825
 5513SOL    HW221824   3.570   1.471   2.971  1.1162  1.2641 -0.3839
 5513SOL    HW321825   3.711   1.420   2.950  1.6390  2.0229  1.1433
 5513SOL    MW421826   3.644   1.438   3.003 -0.1247  0.2783 -0.2614
 5514SOL     OW21827   4.666   5.142   4.025 -0.4288 -0.6081  0.0199
 5514SOL    HW221828   4.649   5.146   4.119  0.3081 -1.7200  0.2165
 5514SOL    HW321829   4.730   5.072   4.015 -1.5006 -1.4438 -1.4423
 5514SOL    MW421830   4.672   5.133   4.036  0.5658  0.0738  0.2752
 5515SOL     OW21831   5.603   0.809   0.261 -0.3141  0.2281  0.1179
 5515SOL    HW221832   5.508   0.804   0.245 -0.5267  0.0831  1.2890
 5515SOL    HW321833   5.623   0.902   0.260 -0.6026  0.2988  0.4876
 5515SOL    MW421834   5.593   0.820   0.259 -0.0506 -0.4835  0.0918
 5516SOL     OW21835   0.225   3.849   4.413 -0.0140  0.5503 -0.3499
 5516SOL    HW221836   0.209   3.941   4.391 -0.1058  0.4241 -0.8095
 5516SOL    HW321837   0.139   3.807   4.403 -0.0507  0.4822  0.2087
 5516SOL    MW421838   0.211   3.856   4.409 -1.1216  0.0618  0.0167
 5517SOL     OW21839   0.936   3.499   3.099 -0.1020 -0.3256  0.4828
 5517SOL    HW221840   0.998   3.440   3.055  1.7677  2.2279 -0.5439
 5517SOL    HW321841   0.861   3.503   3.040 -0.3437 -1.7849  0.6643
 5517SOL    MW421842   0.934   3.492   3.085 -0.4636 -0.2255 -0.0505
 5518SOL     OW21843   4.829   2.398   3.269  0.3876  0.3245 -0.0135
 5518SOL    HW221844   4.754   2.453   3.244  1.3804  1.6979 -0.0887
 5518SOL    HW321845   4.818   2.318   3.219 -2.3276 -0.5477  1.7751
 5518SOL    MW421846   4.818   2.395   3.259 -1.0010  0.0159  0.3221
 5519SOL     OW21847   3.198   2.774   1.233  0.2740  0.0871 -0.5126
 5519SOL    HW221848   3.211   2.682   1.257  0.3581  0.3868  0.6432
 5519SOL    HW321849   3.202   2.821   1.316  1.0320  1.2343 -1.1820
 5519SOL    MW421850   3.200   2.768   1.247  0.3655 -0.1817  0.0719
 5520SOL     OW21851   0.918   6.032   0.804  0.3687 -0.2573 -0.1702
 5520SOL    HW221852   0.985   6.018   0.737  0.2627 -0.4380 -0.2400
 5520SOL    HW321853   0.961   6.011   0.886  0.7751  0.8584 -0.0839
 5520SOL    MW421854   0.932   6.027   0.806 -0.3367 -0.3117 -0.2619
 5521SOL     OW21855   3.738   1.009   3.949  0.0881  0.2858  0.1807
 5521SOL    HW221856   3.754   0.915   3.941  0.9234  0.5911 -2.7194
 5521SOL    HW321857   3.796   1.049   3.885 -4.3029  2.3375 -3.0509
 5521SOL    MW421858   3.748   1.002   3.939 -0.5492  0.2713 -0.2864
 5522SOL     OW21859   0.332   2.463   0.130  0.0917 -0.6751  0.2155
 5522SOL    HW221860   0.267   2.433   0.193 -0.4494  0.2513  0.1131
 5522SOL    HW321861   0.289   2.454   0.044 -0.4829  1.3078  0.2512
 5522SOL    MW421862   0.318   2.457   0.127  0.8857  0.4831  0.1461
 5523SOL     OW21863   4.862   0.482   0.951  0.2600  0.3131 -0.3796
 5523SOL    HW221864   4.874   0.471   0.856  0.3831 -0.2090 -0.3061
 5523SOL    HW321865   4.854   0.392   0.984 -1.3772  0.5265 -0.1024
 5523SOL    MW421866   4.863   0.468   0.943  0.0644  0.8312 -0.0646
 5524SOL     OW21867   6.304   5.666   4.858  0.2227  0.5715  0.5474
 5524SOL    HW221868   6.305   5.723   4.781 -0.4766  1.4526  1.1771
 5524SOL    HW321869   6.213   5.667   4.888  0.3042 -0.4729  0.8775
 5524SOL    MW421870   6.292   5.674   4.851  0.6119  0.3347 -0.3883
 5525SOL     OW21871   1.676   1.233   1.512 -0.2219 -0.0244  0.0111
 5525SOL    HW221872   1.657   1.202   1.600  1.5405  0.3272  0.5519
 5525SOL    HW321873   1.717   1.319   1.524  0.9731 -0.4027 -1.0620
 5525SOL    MW421874   1.679   1.240   1.525 -0.3606 -0.8424 -0.0311
 5526SOL     OW21875   3.070   5.102   0.642  0.4696 -0.1968  0.3259
 5526SOL    HW221876   3.125   5.053   0.580  2.1785 -1.0561  2.3709
 5526SOL    HW321877   3.093   5.194   0.626 -0.7444 -0.1868 -1.7145
 5526SOL    MW421878   3.080   5.108   0.632 -1.1018 -0.0248  0.3533
 5527SOL     OW21879   3.952   4.742   5.400 -0.4204  0.5597  0.2596
 5527SOL    HW221880   4.014   4.755   5.327 -1.4966 -0.1138 -0.8157
 5527SOL    HW321881   3.962   4.820   5.454 -0.0903  1.4227 -0.9890
 5527SOL    MW421882   3.962   4.754   5.397 -0.5277 -0.7255  0.7040
 5528SOL     OW21883   5.401   3.419   5.272  0.0772 -0.3647 -0.3195
 5528SOL    HW221884   5.428   3.474   5.346 -0.2955 -0.5988 -0.0059
 5528SOL    HW321885   5.475   3.361   5.257  0.5026  0.2554 -0.6932
 5528SOL    MW421886   5.414   3.419   5.280  0.4250 -0.4046 -0.0429
 5529SOL     OW21887   6.350   2.324   5.807 -0.3718  0.1337 -0.2738
 5529SOL    HW221888   6.441   2.341   5.780 -0.4898  0.3188 -0.5560
 5529SOL    HW321889   6.357   2.251   5.869  0.1301  1.0376  0.7858
 5529SOL    MW421890   6.363   2.317   5.812 -0.1176 -0.4172 -0.2633
 5530SOL     OW21891   1.305   4.179   0.710 -0.3179  0.6811  0.1230
 5530SOL    HW221892   1.386   4.204   0.666  2.0030 -1.2083  2.9312
 5530SOL    HW321893   1.314   4.084   0.724 -1.3219  0.9669  3.5725
 5530SOL    MW421894   1.317   4.170   0.706 -0.1030  0.1627  0.2422
 5531SOL     OW21895   4.344   2.611   1.282 -0.0993 -0.1110 -0.0816
 5531SOL    HW221896   4.424   2.560   1.272  0.4871  0.8583 -0.5887
 5531SOL    HW321897   4.374   2.696   1.315 -1.1359 -0.3508  1.5886
 5531SOL    MW421898   4.359   2.616   1.285  0.0848  0.5932 -0.5577
 5532SOL     OW21899   5.351   5.704   6.131 -0.3146 -0.3838  0.3966
 5532SOL    HW221900   5.385   5.624   6.091  0.5413 -0.7267  1.7375
 5532SOL    HW321901   5.256   5.692   6.130 -0.2089 -1.3724  0.4737
 5532SOL    MW421902   5.343   5.692   6.126 -0.4894 -0.2220 -0.5020
 5533SOL     OW21903   5.703   1.629   1.306  0.2447 -0.6301 -0.1771
 5533SOL    HW221904   5.727   1.639   1.214 -1.1101  0.7102 -0.4287
 5533SOL    HW321905   5.637   1.560   1.306 -0.9456  0.4555 -0.4864
 5533SOL    MW421906   5.697   1.621   1.294 -0.1715 -0.4501 -0.5401
 5534SOL     OW21907   2.277   5.186   3.774 -0.1959  0.3001 -0.0581
 5534SOL    HW221908   2.268   5.244   3.850 -0.3946  0.1498  0.0358
 5534SOL    HW321909   2.293   5.244   3.700 -2.9024  0.6936 -0.4125
 5534SOL    MW421910   2.278   5.201   3.774 -0.4253 -0.9823 -0.2761
 5535SOL     OW21911   0.423   2.312   4.360 -0.4413 -0.2797 -0.4974
 5535SOL    HW221912   0.484   2.383   4.379  1.0595 -1.8078  0.8572
 5535SOL    HW321913   0.418   2.263   4.443 -2.6332 -0.8863 -0.9220
 5535SOL    MW421914   0.430   2.315   4.374  0.1396  0.2778  0.4896
 5536SOL     OW21915   0.280   2.592   5.994  0.3681  0.2798  0.2003
 5536SOL    HW221916   0.207   2.646   6.026  1.2318  0.2313  2.4230
 5536SOL    HW321917   0.340   2.654   5.953 -0.4936  0.4274 -0.8902
 5536SOL    MW421918   0.278   2.607   5.993  0.4242  0.5046 -0.1280
 5537SOL     OW21919   4.954   5.747   2.473 -0.1409 -0.2021  0.7444
 5537SOL    HW221920   4.909   5.692   2.409 -2.9578  2.4341  0.2350
 5537SOL    HW321921   4.938   5.704   2.557 -1.1907 -0.8250  0.2468
 5537SOL    MW421922   4.946   5.734   2.476 -0.1081 -0.1321 -0.7444
 5538SOL     OW21923   5.464   5.005   0.732 -0.1089 -0.2577 -0.4007
 5538SOL    HW221924   5.520   4.991   0.656 -0.4073 -0.0509 -0.6611
 5538SOL    HW321925   5.384   5.042   0.696 -0.0356  0.3821  0.0816
 5538SOL    MW421926   5.461   5.008   0.717 -0.2400  0.1111 -0.4673
 5539SOL     OW21927   5.594   5.746   3.687 -0.6004  0.1584  0.1076
 5539SOL    HW221928   5.547   5.663   3.680 -0.1963 -0.1303  0.7347
 5539SOL    HW321929   5.660   5.742   3.617 -0.9003  0.1673 -0.1771
 5539SOL    MW421930   5.597   5.735   3.677 -0.1307 -0.1040 -0.2027
 5540SOL     OW21931   4.062   4.871   2.178 -0.6272  0.3398 -0.0324
 5540SOL    HW221932   4.091   4.961   2.167 -1.1571  1.0088  3.0575
 5540SOL    HW321933   4.125   4.833   2.240 -2.0139 -0.4707  0.9488
 5540SOL    MW421934   4.074   4.877   2.185  0.1331  0.0793 -0.7870
 5541SOL     OW21935   3.371   4.689   4.115  0.0669 -0.1208 -0.4426
 5541SOL    HW221936   3.412   4.687   4.201  0.4853  0.9119 -0.6005
 5541SOL    HW321937   3.369   4.597   4.087  1.9947 -0.2527 -0.2897
 5541SOL    MW421938   3.376   4.677   4.123  0.2882 -0.0145 -0.3396
 5542SOL     OW21939   5.929   1.266   1.537 -0.2413  0.3547 -0.2404
 5542SOL    HW221940   5.891   1.352   1.551  0.4401  0.5895  0.2306
 5542SOL    HW321941   5.897   1.214   1.611  0.7967  0.7195  0.5020
 5542SOL    MW421942   5.920   1.270   1.549 -0.5659  0.1955  0.2338
 5543SOL     OW21943   4.657   4.095   4.073  0.0048  0.4689  0.1568
 5543SOL    HW221944   4.625   4.185   4.087  2.4974  1.2252  1.5157
 5543SOL    HW321945   4.728   4.105   4.010  0.6034 -0.4799  0.6677
 5543SOL    MW421946   4.662   4.108   4.067 -0.0449 -0.1543 -0.1815
 5544SOL     OW21947   0.455   5.611   2.296  0.5002  0.1375  0.0020
 5544SOL    HW221948   0.493   5.689   2.257  0.9702 -0.0526  0.0773
 5544SOL    HW321949   0.527   5.570   2.344  0.5660 -0.9624 -0.9817
 5544SOL    MW421950   0.470   5.616   2.297 -0.0302 -0.0812  0.0758
 5545SOL     OW21951   0.952   6.379   2.109  0.5671  0.0575 -0.2096
 5545SOL    HW221952   0.925   6.368   2.200 -0.1936 -0.7313 -0.5119
 5545SOL    HW321953   0.921   6.466   2.084  0.0116 -0.0673  0.0345
 5545SOL    MW421954   0.944   6.389   2.117 -0.3748 -0.1331  0.2744
 5546SOL     OW21955   2.061   4.255   4.964 -0.5552 -0.5819  0.7365
 5546SOL    HW221956   2.064   4.166   4.998 -1.2120 -0.6606  0.6018
 5546SOL    HW321957   2.123   4.303   5.017  0.4608 -1.3076  0.2489
 5546SOL    MW421958   2.070   4.249   4.975 -0.5763 -0.5273  0.1398
 5547SOL     OW21959   6.106   2.914   2.190  0.4256 -0.7881 -0.3454
 5547SOL    HW221960   6.198   2.935   2.176  0.4266  0.0442  0.7871
 5547SOL    HW321961   6.097   2.909   2.285 -0.9464  0.3310 -0.3876
 5547SOL    MW421962   6.117   2.916   2.200  0.2055 -0.3453 -0.4019
 5548SOL     OW21963   4.621   1.422   5.870 -0.1712 -0.0948 -0.1485
 5548SOL    HW221964   4.621   1.502   5.922 -1.1292  0.5999 -1.1909
 5548SOL    HW321965   4.690   1.368   5.909 -0.0844  0.8795  1.0971
 5548SOL    MW421966   4.630   1.425   5.882  0.0409 -0.1104 -0.3112
 5549SOL     OW21967   6.389   5.030   3.729 -0.0699 -0.0441  0.4020
 5549SOL    HW221968   6.422   5.118   3.710 -0.4388 -0.0946 -0.5348
 5549SOL    HW321969   6.468   4.979   3.750  0.0603  0.6989  1.8128
 5549SOL    MW421970   6.404   5.035   3.729 -0.8735  0.1839  0.1699
 5550SOL     OW21971   0.638   5.868   1.895 -0.1626 -0.0522 -0.0165
 5550SOL    HW221972   0.698   5.926   1.942  0.9456 -0.8744 -0.3793
 5550SOL    HW321973   0.552   5.909   1.906  0.4419  1.1128  0.5782
 5550SOL    MW421974   0.635   5.881   1.903  0.5592 -0.1412 -0.0283
 5551SOL     OW21975   6.410   4.029   1.009 -0.6124 -0.1398 -0.2622
 5551SOL    HW221976   6.497   3.990   1.019  1.0373  3.3024  0.4439
 5551SOL    HW321977   6.390   4.020   0.916 -0.4032 -2.5638 -0.1359
 5551SOL    MW421978   6.419   4.023   0.998  0.1781 -0.2104 -0.6541
 5552SOL     OW21979   0.360   0.990   0.445 -0.0390  0.0564 -0.4906
 5552SOL    HW221980   0.318   1.032   0.370 -0.4959 -0.0183 -0.2784
 5552SOL    HW321981   0.293   0.990   0.513  0.1614 -0.4594 -0.2896
 5552SOL    MW421982   0.345   0.995   0.444  0.1872 -0.0310 -0.1207
 5553SOL     OW21983   4.629   0.514   2.447  0.8446 -0.0964  0.2845
 5553SOL    HW221984   4.614   0.459   2.524  0.8249  0.2187  0.5046
 5553SOL    HW321985   4.623   0.604   2.479 -2.2923  0.1348 -0.6443
 5553SOL    MW421986   4.626   0.519   2.462  0.2510  0.3036 -0.0779
 5554SOL     OW21987   5.550   5.716   1.355 -0.2117 -0.2479 -0.1162
 5554SOL    HW221988   5.609   5.641   1.348  2.7180  1.8383  0.4484
 5554SOL    HW321989   5.507   5.705   1.440  0.5101 -1.0859  0.1567
 5554SOL    MW421990   5.552   5.705   1.366 -0.0017  0.1605 -0.2042
 5555SOL     OW21991   2.918   3.522   6.331  0.3482  0.3563  0.6015
 5555SOL    HW221992   2.843   3.577   6.354  2.0174  2.3747  1.5911
 5555SOL    HW321993   2.944   3.480   6.413 -0.2909 -1.1657  0.0512
 5555SOL    MW421994   2.911   3.524   6.345  0.0760 -0.1667 -0.9138
 5556SOL     OW21995   4.267   3.257   3.854 -0.0270 -0.4675  0.0025
 5556SOL    HW221996   4.179   3.226   3.875  0.6249 -1.6951  0.9860
 5556SOL    HW321997   4.272   3.343   3.896 -0.3959 -0.8454  0.8459
 5556SOL    MW421998   4.256   3.264   3.862 -0.2653 -0.5241 -0.4356
 5557SOL     OW21999   5.233   6.020   5.727 -0.0703 -0.0522  0.8500
 5557SOL    HW222000   5.172   6.093   5.738 -0.2201 -0.2370  1.2805
 5557SOL    HW322001   5.320   6.059   5.738 -0.1371  0.1217  0.7546
 5557SOL    MW422002   5.237   6.034   5.730 -0.5607  0.1145  0.4190
 5558SOL     OW22003   4.485   4.269   4.449 -0.2524 -0.7521  0.9546
 5558SOL    HW222004   4.554   4.316   4.495  0.3329 -1.1484  0.4890
 5558SOL    HW322005   4.524   4.185   4.425 -0.3285 -0.3352 -0.7869
 5558SOL    MW422006   4.499   4.264   4.452 -0.3239 -0.4476  0.2749
 5559SOL     OW22007   4.572   2.417   5.611  0.0688 -0.1322  0.8663
 5559SOL    HW222008   4.546   2.347   5.552  2.0946 -1.0155  0.9560
 5559SOL    HW322009   4.542   2.497   5.567 -0.2413 -0.8929 -0.3586
 5559SOL    MW422010   4.564   2.419   5.597  0.8935  0.2238  0.5348
 5560SOL     OW22011   2.917   0.902   1.283 -0.0821 -0.5180  0.2080
 5560SOL    HW222012   2.932   0.838   1.214 -0.5706  0.9376 -1.3066
 5560SOL    HW322013   3.000   0.950   1.288 -0.7320  0.7780 -0.9140
 5560SOL    MW422014   2.930   0.900   1.275  0.9266 -0.1830 -0.1884
 5561SOL     OW22015   0.611   0.415   0.479  0.6571 -0.0205  0.4581
 5561SOL    HW222016   0.580   0.445   0.394  0.2202  0.3713  0.7430
 5561SOL    HW322017   0.681   0.476   0.502  0.4568  0.1636  0.5853
 5561SOL    MW422018   0.616   0.427   0.471 -0.1650  0.2368  0.7862
 5562SOL     OW22019   4.604   3.866   0.986 -0.1353  0.1866 -0.2764
 5562SOL    HW222020   4.565   3.930   0.926  0.1807  2.4874  1.8241
 5562SOL    HW322021   4.588   3.902   1.073  2.6832 -1.1028  0.8810
 5562SOL    MW422022   4.597   3.879   0.989 -0.6241 -0.1807 -0.4167
 5563SOL     OW22023   6.193   1.758   0.494 -0.3176 -0.0333  0.1468
 5563SOL    HW222024   6.247   1.709   0.431  0.6227  1.8406 -0.5832
 5563SOL    HW322025   6.105   1.753   0.458 -0.2229 -1.0492  0.0176
 5563SOL    MW422026   6.189   1.751   0.481  0.1217 -0.3683 -0.5660
 5564SOL     OW22027   1.845   0.193   5.442 -0.1268 -0.1193  0.5273
 5564SOL    HW222028   1.814   0.278   5.410 -0.9838  0.1904  2.0845
 5564SOL    HW322029   1.772   0.159   5.493  0.6931 -1.2103  1.0121
 5564SOL    MW422030   1.831   0.200   5.444  0.0098 -0.2543 -0.7276
 5565SOL     OW22031   4.083   5.534   5.897  0.4393 -0.0330 -0.0957
 5565SOL    HW222032   4.103   5.628   5.901  1.8941 -0.3441  0.7111
 5565SOL    HW322033   3.988   5.530   5.890  0.0267  1.4818  2.9849
 5565SOL    MW422034   4.073   5.546   5.897  0.0804  0.9438 -0.7757
 5566SOL     OW22035   5.760   4.097   4.598  0.0583 -0.3390 -0.4209
 5566SOL    HW222036   5.670   4.071   4.577 -1.0655  1.4201  1.7028
 5566SOL    HW322037   5.794   4.026   4.652 -0.9740 -0.0106  0.7293
 5566SOL    MW422038   5.752   4.084   4.603 -0.6246 -0.3841  0.1516
 5567SOL     OW22039   4.224   2.638   6.184 -0.2357  0.2265 -0.1956
 5567SOL    HW222040   4.315   2.626   6.157  0.2290  0.8814  0.9686
 5567SOL    HW322041   4.222   2.727   6.221 -1.3507  0.2223 -0.2166
 5567SOL    MW422042   4.236   2.648   6.186  0.3195 -0.3971 -0.3501
 5568SOL     OW22043   1.882   1.230   1.337  0.2389  0.4815 -0.2078
 5568SOL    HW222044   1.837   1.203   1.417 -0.1471 -2.3840 -1.2797
 5568SOL    HW322045   1.821   1.290   1.295 -1.6309 -1.5008 -0.4896
 5568SOL    MW422046   1.868   1.234   1.342 -0.4812 -0.4572  0.1605
 5569SOL     OW22047   4.369   1.264   5.442  0.0855  0.5016  0.3480
 5569SOL    HW222048   4.408   1.310   5.517  0.1091  0.9189  0.0802
 5569SOL    HW322049   4.439   1.206   5.411 -0.2067 -0.3350  1.1908
 5569SOL    MW422050   4.384   1.262   5.448  0.3854 -0.2359  0.0683
 5570SOL     OW22051   1.393   2.402   5.585 -0.8992  0.2722 -0.7248
 5570SOL    HW222052   1.387   2.357   5.669  1.4826 -2.5325 -1.8899
 5570SOL    HW322053   1.451   2.476   5.600  1.1235 -1.3313 -0.1957
 5570SOL    MW422054   1.400   2.406   5.598 -0.3805  0.3764  0.1862
 5571SOL     OW22055   6.121   5.088   3.258  0.0731 -0.4394  0.4232
 5571SOL    HW222056   6.166   5.027   3.200  0.2499  0.6127 -0.5954
 5571SOL    HW322057   6.152   5.066   3.346  2.7717  0.3407 -0.2362
 5571SOL    MW422058   6.131   5.077   3.262 -0.3468 -0.3149  0.1800
 5572SOL     OW22059   1.193   1.937   3.364 -0.1186 -0.3982  0.1372
 5572SOL    HW222060   1.100   1.941   3.341  0.1210 -1.1627 -1.0837
 5572SOL    HW322061   1.235   1.998   3.304  0.3381 -1.2061 -0.3812
 5572SOL    MW422062   1.186   1.946   3.353  0.8762  0.3576 -0.2290
 5573SOL     OW22063   4.066   1.793   0.542  0.3752  0.2157  0.2684
 5573SOL    HW222064   3.999   1.852   0.576  0.2304  0.4419 -0.3965
 5573SOL    HW322065   4.029   1.757   0.462  0.1155 -1.4422  1.0846
 5573SOL    MW422066   4.052   1.796   0.536 -0.1284  0.4137 -0.4001
 5574SOL     OW22067   4.960   0.054   3.336 -0.2930 -0.2422 -0.7698
 5574SOL    HW222068   4.995  -0.023   3.382  1.2209  0.8554  0.0163
 5574SOL    HW322069   4.999   0.129   3.381 -0.4166  0.9569 -2.5386
 5574SOL    MW422070   4.970   0.054   3.348  0.8398 -0.1529 -0.6718
 5575SOL     OW22071   4.176   0.323   2.071 -0.1656 -0.4991 -0.5231
 5575SOL    HW222072   4.230   0.273   2.009  0.3266 -1.7618  0.8607
 5575SOL    HW322073   4.218   0.408   2.075 -0.8806  0.0265 -2.7571
 5575SOL    MW422074   4.189   0.327   2.064  0.0401  0.1639 -0.1624
 5576SOL     OW22075   0.668   1.483   0.951  0.3479  0.0722  0.0150
 5576SOL    HW222076   0.655   1.512   0.861 -1.1743  0.0104  0.1871
 5576SOL    HW322077   0.702   1.560   0.997  0.1217  0.4124 -0.3814
 5576SOL    MW422078   0.671   1.497   0.945 -0.4265  0.1261 -0.3178
 5577SOL     OW22079   5.652   3.707   0.910 -0.4056  0.4570 -0.2509
 5577SOL    HW222080   5.684   3.622   0.939 -0.2552  0.2829 -0.9028
 5577SOL    HW322081   5.729   3.753   0.877 -0.5191  0.7643 -0.0928
 5577SOL    MW422082   5.666   3.702   0.909  0.9663  0.3579  0.2353
 5578SOL     OW22083   5.725   5.804   0.912  0.2766  0.3613  0.2861
 5578SOL    HW222084   5.799   5.756   0.950 -0.0412 -1.0071 -0.7779
 5578SOL    HW322085   5.667   5.821   0.986  1.8244  1.8694  1.2389
 5578SOL    MW422086   5.727   5.800   0.927  0.4300 -0.7068  0.1412
 5579SOL     OW22087   0.606   2.355   0.587  0.5738 -0.6462  0.0431
 5579SOL    HW222088   0.524   2.341   0.635  0.7087 -0.0781  0.4416
 5579SOL    HW322089   0.627   2.269   0.550 -1.0759 -0.4466 -1.4659
 5579SOL    MW422090   0.598   2.341   0.588 -0.5214 -0.5636 -0.7788
 5580SOL     OW22091   4.224   0.256   1.173  0.2101 -0.1939  0.0292
 5580SOL    HW222092   4.221   0.279   1.266 -2.7609 -0.5965  0.1290
 5580SOL    HW322093   4.264   0.169   1.171 -1.2287 -0.9285  1.1662
 5580SOL    MW422094   4.229   0.248   1.185 -0.0880  0.5037 -0.1911
 5581SOL     OW22095   2.694   1.867   0.513  0.5192  0.3181 -0.4468
 5581SOL    HW222096   2.660   1.778   0.516  0.4716  0.3645  0.6381
 5581SOL    HW322097   2.712   1.883   0.420 -1.5509 -0.0189 -0.9517
 5581SOL    MW422098   2.692   1.858   0.501  0.6270  0.1857 -0.5706
 5582SOL     OW22099   5.260   1.606   0.226  0.4447  0.0933  0.8030
 5582SOL    HW222100   5.353   1.618   0.206  1.0742 -0.2657  3.2791
 5582SOL    HW322101   5.231   1.690   0.261  0.1528 -0.1557  1.1713
 5582SOL    MW422102   5.268   1.618   0.228 -0.3392  0.1035  0.0877
 5583SOL     OW22103   5.161   0.184   4.406 -0.1925  0.3722 -0.4399
 5583SOL    HW222104   5.129   0.244   4.340 -0.2987  0.1750 -0.5686
 5583SOL    HW322105   5.083   0.137   4.436  0.2026 -1.4377 -2.0860
 5583SOL    MW422106   5.146   0.186   4.402  0.3358 -0.5598  0.3309
 5584SOL     OW22107   0.892   0.375   5.921 -0.1370 -0.6652  0.4113
 5584SOL    HW222108   0.810   0.417   5.946 -0.0440 -0.1494 -0.1225
 5584SOL    HW322109   0.927   0.338   6.002 -1.0857 -1.2274  0.5766
 5584SOL    MW422110   0.886   0.375   5.935 -0.8499 -0.4375  0.2351
 5585SOL     OW22111   0.782   3.402   4.934 -0.0616 -0.1307 -0.2902
 5585SOL    HW222112   0.707   3.419   4.877  0.2277 -0.7813 -0.8787
 5585SOL    HW322113   0.840   3.477   4.919  0.0115 -0.2958 -0.8508
 5585SOL    MW422114   0.780   3.414   4.925  0.8026 -0.4281 -0.3688
 5586SOL     OW22115   4.571   6.229   6.395  0.0005  0.1312  0.4841
 5586SOL    HW222116   4.634   6.186   6.338  1.2005  0.8116  1.2472
 5586SOL    HW322117   4.618   6.242   6.478 -0.7905  1.5650  0.7502
 5586SOL    MW422118   4.585   6.225   6.399 -0.6488 -0.5019 -0.3699
 5587SOL     OW22119   0.532   2.084   6.162  0.9879 -0.1504 -0.1996
 5587SOL    HW222120   0.504   2.150   6.226 -1.8060 -1.0550 -0.3371
 5587SOL    HW322121   0.569   2.013   6.215  0.9836  0.1544  0.2188
 5587SOL    MW422122   0.533   2.083   6.177 -0.3904  0.4926  0.1395
 5588SOL     OW22123   2.586   2.740   5.600 -0.4523 -0.0019 -0.3104
 5588SOL    HW222124   2.678   2.743   5.574 -0.0621 -3.5534  0.0889
 5588SOL    HW322125   2.585   2.773   5.690 -0.2654  3.4021 -1.4342
 5588SOL    MW422126   2.598   2.745   5.608  0.4421 -0.1223 -0.0023
 5589SOL     OW22127   5.679   5.302   3.044 -0.1755  0.3393  0.6090
 5589SOL    HW222128   5.730   5.233   3.087  0.6049  0.9838  0.7397
 5589SOL    HW322129   5.663   5.366   3.113  0.1842  0.8833  0.1920
 5589SOL    MW422130   5.684   5.301   3.059 -0.2729 -0.3722  0.4359
 5590SOL     OW22131   1.629   0.578   4.226 -0.5152 -0.6747 -0.0890
 5590SOL    HW222132   1.556   0.518   4.211 -1.0765 -0.5383  1.7705
 5590SOL    HW322133   1.688   0.529   4.285  0.3964 -0.3987 -0.7420
 5590SOL    MW422134   1.627   0.563   4.232 -0.0313  0.1816  0.2923
 5591SOL     OW22135   2.012   0.661   2.557 -0.4748 -0.0695 -0.1497
 5591SOL    HW222136   1.946   0.714   2.512 -1.5585 -3.0151 -2.2796
 5591SOL    HW322137   1.963   0.607   2.619  0.2475 -0.5941 -0.0147
 5591SOL    MW422138   1.997   0.661   2.560 -0.5355  0.5961 -0.5070
 5592SOL     OW22139   0.667   0.818   4.811  0.3422 -0.0864  0.3559
 5592SOL    HW222140   0.578   0.785   4.801  0.5255 -0.3244 -0.5731
 5592SOL    HW322141   0.661   0.910   4.786  0.3306 -0.0707  0.4173
 5592SOL    MW422142   0.654   0.825   4.806  0.2183  0.3867  0.3883
 5593SOL     OW22143   1.743   2.847   5.602  0.0545  0.0572 -0.1054
 5593SOL    HW222144   1.813   2.796   5.563 -0.4921 -0.4248 -0.4787
 5593SOL    HW322145   1.767   2.854   5.694  0.1230 -0.9105 -0.0413
 5593SOL    MW422146   1.755   2.841   5.609 -0.1749  0.5272 -0.3290
 5594SOL     OW22147   4.635   1.843   1.251  0.0283 -0.2198 -0.3102
 5594SOL    HW222148   4.623   1.753   1.282 -1.2645 -0.4971 -1.5192
 5594SOL    HW322149   4.596   1.843   1.164  3.0132  0.6738 -1.7494
 5594SOL    MW422150   4.628   1.831   1.244  0.9429 -0.4316 -0.7632
 5595SOL     OW22151   3.572   4.580   4.596  0.3089 -0.2099 -0.3647
 5595SOL    HW222152   3.540   4.603   4.509  2.2219  1.7940 -0.6415
 5595SOL    HW322153   3.587   4.665   4.638 -0.5085 -1.1338  1.9321
 5595SOL    MW422154   3.570   4.595   4.590 -0.5598  0.9090  0.2231
 5596SOL     OW22155   2.606   1.261   3.160 -0.3542 -0.3170 -0.6126
 5596SOL    HW222156   2.539   1.272   3.227 -0.7690  1.3516 -1.2487
 5596SOL    HW322157   2.558   1.263   3.077  0.5995  3.4706 -1.2320
 5596SOL    MW422158   2.591   1.263   3.158  0.1464  0.4463  0.4406
 5597SOL     OW22159   0.562   2.164   2.218 -0.5066 -0.1805 -0.7058
 5597SOL    HW222160   0.607   2.081   2.204  0.6688  0.1002  1.0664
 5597SOL    HW322161   0.521   2.184   2.134  2.2494 -0.7329 -2.2904
 5597SOL    MW422162   0.562   2.156   2.205 -0.3715  0.1309 -0.0148
 5598SOL     OW22163   0.890   5.679   2.542  0.2475 -0.0951  0.2112
 5598SOL    HW222164   0.879   5.774   2.533 -1.1308 -0.3338 -1.1646
 5598SOL    HW322165   0.904   5.665   2.635 -0.5347  1.3874  0.5843
 5598SOL    MW422166   0.890   5.690   2.553  0.1541  0.4546  0.0779
 5599SOL     OW22167   0.661   1.707   2.338 -0.0159 -0.2186 -0.2707
 5599SOL    HW222168   0.659   1.737   2.247  0.5254 -0.7818 -0.4779
 5599SOL    HW322169   0.620   1.620   2.335 -0.0532 -0.2133  0.0335
 5599SOL    MW422170   0.655   1.699   2.325 -0.2045 -0.1483 -0.0559
 5600SOL     OW22171   0.789   3.831   0.012  0.9269  0.1441 -0.1730
 5600SOL    HW222172   0.736   3.810   0.089  0.7646 -0.3272 -0.4115
 5600SOL    HW322173   0.792   3.749  -0.038  0.8910  0.4973 -0.7539
 5600SOL    MW422174   0.782   3.817   0.016 -0.0717 -0.7890  0.5308
 5601SOL     OW22175   2.687   3.255   0.585  0.2602 -0.1741 -0.8116
 5601SOL    HW222176   2.714   3.187   0.647  0.8881  0.3968 -0.4367
 5601SOL    HW322177   2.696   3.214   0.499  1.0742 -0.4300 -0.6132
 5601SOL    MW422178   2.692   3.241   0.582 -0.0577  0.2105  0.5350
 5602SOL     OW22179   0.400   2.903   0.346  0.5941 -0.5198  0.0456
 5602SOL    HW222180   0.327   2.852   0.309 -0.2920  1.9068 -1.8037
 5602SOL    HW322181   0.463   2.910   0.274  0.7853  0.7983  0.3165
 5602SOL    MW422182   0.399   2.897   0.331 -0.2193  0.0865 -0.1454
 5603SOL     OW22183   4.324   3.310   6.096  0.1165 -0.2608  0.7392
 5603SOL    HW222184   4.260   3.357   6.042  0.7620 -0.4263 -0.2071
 5603SOL    HW322185   4.395   3.288   6.035  0.3165 -1.5382  1.3863
 5603SOL    MW422186   4.325   3.313   6.080  0.1974  0.4938  0.2896
 5604SOL     OW22187   4.961   1.456   4.260  0.3144  0.1026  0.1583
 5604SOL    HW222188   4.937   1.391   4.194  0.9394  1.5635 -1.5988
 5604SOL    HW322189   4.942   1.414   4.344 -0.4832 -1.8405 -0.9393
 5604SOL    MW422190   4.955   1.442   4.262  0.0964 -0.4608  0.0993
 5605SOL     OW22191   4.040   2.046   2.414  0.3753  0.0909 -0.5504
 5605SOL    HW222192   4.131   2.037   2.442  0.2065 -1.4338 -0.3945
 5605SOL    HW322193   3.991   1.985   2.470 -0.8776  1.4397 -0.0944
 5605SOL    MW422194   4.045   2.037   2.425  0.3841 -0.4881  0.4709
 5606SOL     OW22195   4.620   5.585   5.186  0.4711 -0.9147  0.1133
 5606SOL    HW222196   4.648   5.652   5.248 -1.6623  0.5676 -0.4160
 5606SOL    HW322197   4.702   5.542   5.159  1.9033  1.2304  0.7369
 5606SOL    MW422198   4.635   5.588   5.191 -0.3483 -0.5326  0.5804
 5607SOL     OW22199   0.224   1.215   5.262 -0.3356  0.1136 -1.0260
 5607SOL    HW222200   0.143   1.191   5.308 -0.0622  0.3773 -0.3943
 5607SOL    HW322201   0.262   1.284   5.316  1.1707 -1.1484 -0.4158
 5607SOL    MW422202   0.218   1.221   5.275  0.4206 -0.0469 -0.6377
 5608SOL     OW22203   2.402   4.357   4.392  0.2615  0.0025  0.3399
 5608SOL    HW222204   2.440   4.312   4.316 -0.6178  1.4744 -1.0553
 5608SOL    HW322205   2.348   4.290   4.434 -0.8687 -0.3804 -1.5653
 5608SOL    MW422206   2.400   4.342   4.387  0.4305 -0.2812 -0.0575
 5609SOL     OW22207   5.827   0.615   2.320 -0.1157 -0.0707  0.5446
 5609SOL    HW222208   5.795   0.541   2.370  0.2911 -1.9506 -1.7764
 5609SOL    HW322209   5.755   0.679   2.323 -0.8541 -0.9116  1.8362
 5609SOL    MW422210   5.813   0.614   2.327 -0.4832  0.4901 -0.3364
 5610SOL     OW22211   1.156   6.191   2.083  0.2460 -0.6119  0.0431
 5610SOL    HW222212   1.077   6.246   2.079 -0.0783 -1.0678  0.0818
 5610SOL    HW322213   1.124   6.102   2.068  0.8864 -0.6973 -0.9114
 5610SOL    MW422214   1.141   6.187   2.081  0.2923 -0.2897 -0.2618
 5611SOL     OW22215   3.320   0.166   1.332 -0.0512  0.2863 -0.3967
 5611SOL    HW222216   3.276   0.143   1.414 -0.6293  0.8088 -0.5466
 5611SOL    HW322217   3.314   0.087   1.279 -0.4631  0.2203 -0.2605
 5611SOL    MW422218   3.313   0.152   1.336  0.2262 -0.6657  0.1620
 5612SOL     OW22219   5.507   1.906   3.179 -0.0586  0.3253  0.1927
 5612SOL    HW222220   5.599   1.888   3.197 -0.5337 -0.2689  2.2498
 5612SOL    HW322221   5.466   1.820   3.176 -0.6635  0.6171  0.0059
 5612SOL    MW422222   5.514   1.893   3.181 -0.6351  0.7008  0.2251
 5613SOL     OW22223   4.835   1.798   1.564  0.0623 -0.0155 -0.1137
 5613SOL    HW222224   4.852   1.886   1.598  0.2091 -0.4791  1.0817
 5613SOL    HW322225   4.748   1.805   1.523  0.0834  0.6911 -0.0636
 5613SOL    MW422226   4.825   1.811   1.563 -0.2115  0.2337  0.4534
 5614SOL     OW22227   4.208   3.321   4.247  0.4612 -0.5969 -0.0576
 5614SOL    HW222228   4.219   3.390   4.313 -1.5949 -1.6682  1.5646
 5614SOL    HW322229   4.297   3.293   4.226  1.2240  0.4503  1.5512
 5614SOL    MW422230   4.221   3.327   4.253 -0.3479  0.1530  0.1769
 5615SOL     OW22231   6.285   2.298   5.312  0.3325 -0.3531  0.7593
 5615SOL    HW222232   6.217   2.346   5.265  0.6230  1.3578  1.9701
 5615SOL    HW322233   6.247   2.279   5.397  1.8362  2.2197  2.1546
 5615SOL    MW422234   6.271   2.302   5.317 -0.5428  0.2346  0.5743
 5616SOL     OW22235   2.830   5.511   4.539 -0.1231 -0.1004  0.5101
 5616SOL    HW222236   2.865   5.595   4.510  0.2470  0.2356  1.8577
 5616SOL    HW322237   2.736   5.525   4.547 -0.3215 -0.3899 -1.1055
 5616SOL    MW422238   2.822   5.524   4.537  0.1344  0.3274 -0.4412
 5617SOL     OW22239   5.506   1.215   1.740  0.0813  0.4305 -0.5566
 5617SOL    HW222240   5.502   1.153   1.813 -0.7973 -0.1573 -1.0728
 5617SOL    HW322241   5.598   1.238   1.732  0.2735 -0.0159  0.3145
 5617SOL    MW422242   5.517   1.210   1.748 -0.2149 -0.5012 -0.0068
 5618SOL     OW22243   4.627   0.062   2.885  0.2783 -0.7115 -0.1028
 5618SOL    HW222244   4.652   0.082   2.795  0.5195 -1.1165 -0.1258
 5618SOL    HW322245   4.661   0.136   2.936 -0.2082 -0.2807 -0.3887
 5618SOL    MW422246   4.635   0.075   2.880 -0.6730 -0.1775 -0.0226
 5619SOL     OW22247   2.078   1.164   0.938 -0.1769 -0.3776 -0.0974
 5619SOL    HW222248   2.045   1.114   1.012  0.5771 -1.6032 -0.5611
 5619SOL    HW322249   2.096   1.251   0.973 -2.1173 -0.1989  0.5803
 5619SOL    MW422250   2.076   1.169   0.952 -0.6011  0.0147 -0.3071
 5620SOL     OW22251   6.367   0.571   1.682 -0.1446 -0.1717  0.2533
 5620SOL    HW222252   6.326   0.504   1.736 -1.7397  1.5477  1.2475
 5620SOL    HW322253   6.320   0.567   1.599 -0.0459 -0.4730  0.2118
 5620SOL    MW422254   6.356   0.561   1.678  0.3853 -0.1237 -0.6625
 5621SOL     OW22255   0.807   4.726   3.690 -0.2488  0.4769 -0.3123
 5621SOL    HW222256   0.807   4.810   3.645 -1.2401 -0.1939 -1.6163
 5621SOL    HW322257   0.829   4.662   3.623  0.0811 -0.3684  0.5686
 5621SOL    MW422258   0.810   4.729   3.675 -0.1268 -0.3088  0.6467
 5622SOL     OW22259   2.509   2.732   1.603 -0.1700  0.3707 -0.7679
 5622SOL    HW222260   2.505   2.749   1.697 -0.3768  0.0016 -0.7065
 5622SOL    HW322261   2.422   2.758   1.571 -0.1620  0.3243 -0.8270
 5622SOL    MW422262   2.497   2.737   1.611 -0.3262 -0.5092  0.0551
 5623SOL     OW22263   1.226   5.407   0.311 -0.2738 -0.5682  0.5120
 5623SOL    HW222264   1.242   5.328   0.259  1.5363  0.2642 -0.2974
 5623SOL    HW322265   1.178   5.465   0.251  0.5114 -0.1695  0.2547
 5623SOL    MW422266   1.221   5.404   0.296 -0.4338  0.1986  0.2060
 5624SOL     OW22267   2.087   0.253   6.389 -0.0113  0.1153  0.0820
 5624SOL    HW222268   2.141   0.216   6.319 -1.0871  2.3199 -2.0398
 5624SOL    HW322269   1.998   0.251   6.354 -0.7142  0.4602  1.7879
 5624SOL    MW422270   2.083   0.248   6.375  0.2535  0.5663  0.5369
 5625SOL     OW22271   4.829   1.025   0.672  0.1042 -0.3271  0.0374
 5625SOL    HW222272   4.850   1.060   0.586 -1.0141 -0.2627 -0.2244
 5625SOL    HW322273   4.899   1.058   0.729  2.0418 -2.0935 -1.2090
 5625SOL    MW422274   4.841   1.034   0.668 -0.0057 -0.4760 -0.3015
 5626SOL     OW22275   2.244   3.656   4.340 -0.2368  0.4488  0.2551
 5626SOL    HW222276   2.332   3.687   4.323  0.0572  0.6149  1.8728
 5626SOL    HW322277   2.250   3.561   4.335 -0.0045  0.4682  0.1979
 5626SOL    MW422278   2.256   3.647   4.337 -0.7476  0.2951 -0.4068
 5627SOL     OW22279   2.992   4.955   6.095 -0.2098  0.3105 -0.1497
 5627SOL    HW222280   3.074   4.997   6.069  0.3489  0.8102  2.1565
 5627SOL    HW322281   2.949   5.020   6.151 -1.8160 -0.2727 -0.6458
 5627SOL    MW422282   2.997   4.970   6.099  0.6326  0.0958 -0.2001
 5628SOL     OW22283   0.779   0.602   3.333  0.4960  0.2433 -0.2624
 5628SOL    HW222284   0.767   0.548   3.255  0.4378 -2.2277  1.3188
 5628SOL    HW322285   0.692   0.635   3.355  0.4154  0.4550 -0.9023
 5628SOL    MW422286   0.766   0.599   3.326 -0.7780  0.3572 -0.1896
 5629SOL     OW22287   3.698   0.644   3.477  0.2982  0.5247 -0.6700
 5629SOL    HW222288   3.783   0.600   3.476  0.0507 -0.1337  1.5252
 5629SOL    HW322289   3.711   0.720   3.534 -0.5533  0.4531 -0.3670
 5629SOL    MW422290   3.711   0.648   3.484 -0.1941  0.0359 -0.1226
 5630SOL     OW22291   1.482   0.622   0.316  0.3919 -0.1002  0.4738
 5630SOL    HW222292   1.559   0.579   0.352 -0.5806 -2.3843  0.0035
 5630SOL    HW322293   1.424   0.635   0.390  0.2131 -0.7070  0.4455
 5630SOL    MW422294   1.485   0.618   0.330  0.1092  0.8127 -0.0117
 5631SOL     OW22295   3.069   5.599   1.746  0.0273 -0.1725 -0.4338
 5631SOL    HW222296   2.977   5.622   1.729  0.0496  0.4329  0.2213
 5631SOL    HW322297   3.072   5.583   1.840  0.8169  0.9063 -0.2558
 5631SOL    MW422298   3.057   5.600   1.756 -0.5806  0.1774  0.2790
 5632SOL     OW22299   5.440   5.846   3.483 -0.7579 -0.3482  0.1055
 5632SOL    HW222300   5.486   5.805   3.556  2.2674  1.3686 -0.6868
 5632SOL    HW322301   5.509   5.882   3.428 -3.0529  1.2504 -1.9415
 5632SOL    MW422302   5.455   5.845   3.485  0.6746  0.3049  0.0072
 5633SOL     OW22303   3.790   1.557   3.223 -0.2212  0.1515 -0.1217
 5633SOL    HW222304   3.735   1.634   3.241 -1.3952 -0.7445  0.2630
 5633SOL    HW322305   3.745   1.511   3.152  0.7134  0.0401 -0.6569
 5633SOL    MW422306   3.777   1.561   3.216  0.3956 -0.0116  0.0151
 5634SOL     OW22307   2.146   1.577   5.985  0.5097 -0.1587 -0.1561
 5634SOL    HW222308   2.057   1.566   6.019  1.2688  0.1773  2.1319
 5634SOL    HW322309   2.135   1.631   5.907 -1.3600 -0.8966 -0.4683
 5634SOL    MW422310   2.132   1.583   5.979 -0.5159  0.5746 -0.2592
 5635SOL     OW22311   6.104   4.063   5.073 -0.2564  0.3480  0.3295
 5635SOL    HW222312   6.080   3.986   5.125 -1.3907  0.5117  0.0798
 5635SOL    HW322313   6.143   4.026   4.994 -1.3380 -0.0150 -0.0584
 5635SOL    MW422314   6.106   4.048   5.069  0.0352  0.1556  0.2113
 5636SOL     OW22315   2.768   2.818   1.509 -0.3074 -0.0456 -0.7622
 5636SOL    HW222316   2.685   2.790   1.547  0.9054 -3.0273 -0.0656
 5636SOL    HW322317   2.747   2.835   1.417 -2.1753  1.9819 -0.0526
 5636SOL    MW422318   2.754   2.817   1.502  0.5574  0.0167  0.6423
 5637SOL     OW22319   0.796   4.797   5.550 -0.4347  0.0938  0.2034
 5637SOL    HW222320   0.872   4.739   5.557  0.8622  1.2413 -2.7055
 5637SOL    HW322321   0.821   4.875   5.599  0.0995  0.2881 -0.3660
 5637SOL    MW422322   0.809   4.800   5.557 -0.0744  0.1665  0.0409
 5638SOL     OW22323   4.925   3.529   2.748 -0.0089 -0.3749 -0.0681
 5638SOL    HW222324   4.870   3.603   2.722  1.4528  0.5016 -0.7879
 5638SOL    HW322325   5.002   3.535   2.692 -0.6953 -3.6766 -1.6143
 5638SOL    MW422326   4.928   3.540   2.737  0.1740  0.4794 -0.1958
 5639SOL     OW22327   0.428   6.353   4.891 -0.5693  0.5713  0.1858
 5639SOL    HW222328   0.450   6.393   4.975  0.7280 -2.1463  1.2340
 5639SOL    HW322329   0.425   6.427   4.830  0.5640  2.3882  2.1990
 5639SOL    MW422330   0.431   6.368   4.894 -0.1031  0.1464 -0.0215
 5640SOL     OW22331   0.164   2.632   1.928  0.3972 -0.1416 -0.4642
 5640SOL    HW222332   0.104   2.589   1.989 -0.7787 -0.7888 -1.9999
 5640SOL    HW322333   0.111   2.701   1.888  0.6612 -0.7143 -1.8341
 5640SOL    MW422334   0.149   2.635   1.931  0.2571  0.1834  0.0219
 5641SOL     OW22335   4.369   0.051   3.651 -0.3365  0.3742  0.7709
 5641SOL    HW222336   4.397  -0.041   3.644  0.9835  0.7342  0.9965
 5641SOL    HW322337   4.279   0.046   3.682 -1.3917 -0.8969 -2.1385
 5641SOL    MW422338   4.361   0.038   3.654  0.2396 -0.2836 -0.4763
 5642SOL     OW22339   6.215   5.850   2.912  0.1597  0.3334  0.0975
 5642SOL    HW222340   6.230   5.893   2.996 -2.8965  1.5696  0.1456
 5642SOL    HW322341   6.252   5.909   2.847 -1.1119  1.4732  0.3739
 5642SOL    MW422342   6.222   5.863   2.915  0.2048 -0.1415 -0.2349
 5643SOL     OW22343   0.696   5.661   5.825  0.0351  0.1096  0.0027
 5643SOL    HW222344   0.783   5.701   5.820  0.6978 -1.3541 -0.6317
 5643SOL    HW322345   0.669   5.649   5.734  0.1049 -1.3869  0.1546
 5643SOL    MW422346   0.704   5.665   5.812  0.3686 -0.0054  0.8585
 5644SOL     OW22347   0.807   5.331   2.313 -0.3174 -0.1126 -0.1842
 5644SOL    HW222348   0.828   5.369   2.227  1.4437 -0.9078 -0.1536
 5644SOL    HW322349   0.799   5.237   2.296  1.0837 -0.4104  0.6633
 5644SOL    MW422350   0.809   5.324   2.299 -0.2445  0.2903  0.0076
 5645SOL     OW22351   3.992   4.110   1.958 -0.0868 -0.3969 -0.3409
 5645SOL    HW222352   3.916   4.167   1.970  0.9254  0.9853 -0.2986
 5645SOL    HW322353   3.983   4.043   2.026  0.2205  1.4221  1.6027
 5645SOL    MW422354   3.980   4.108   1.969 -0.6336  0.5066 -0.0498
 5646SOL     OW22355   2.852   5.905   1.372  0.2068 -0.1002  0.0918
 5646SOL    HW222356   2.945   5.918   1.353 -0.2198  0.8936 -1.5444
 5646SOL    HW322357   2.837   5.811   1.359  0.9123 -0.2063  0.0244
 5646SOL    MW422358   2.862   5.894   1.368  0.4229 -0.1664 -0.2450
 5647SOL     OW22359   5.816   6.094   0.093 -0.0981  0.0320 -0.2914
 5647SOL    HW222360   5.779   6.138   0.170  2.4312  2.5312 -0.3488
 5647SOL    HW322361   5.849   6.011   0.127 -0.4047  0.4017  0.9886
 5647SOL    MW422362   5.815   6.089   0.108  0.0971 -0.0352  0.4927
 5648SOL     OW22363   1.398   3.458   2.352 -0.1310  0.6012  0.0833
 5648SOL    HW222364   1.352   3.506   2.282  0.3249  0.4568 -0.3231
 5648SOL    HW322365   1.419   3.525   2.417  0.5423  0.9731 -0.5001
 5648SOL    MW422366   1.395   3.473   2.351  0.1965  0.3778  0.1583
 5649SOL     OW22367   5.931   1.713   0.437  0.4153 -0.2863 -0.0632
 5649SOL    HW222368   5.881   1.793   0.454 -0.7299 -1.1724  0.9047
 5649SOL    HW322369   5.920   1.660   0.516  0.4330 -1.7653 -1.0039
 5649SOL    MW422370   5.922   1.717   0.450  0.1346 -0.3473 -0.1595
 5650SOL     OW22371   2.053   4.803   5.270 -0.1818  0.5939  0.3731
 5650SOL    HW222372   2.047   4.882   5.217  1.1319  0.1042 -0.5666
 5650SOL    HW322373   2.006   4.824   5.351 -1.4217  1.6845 -0.5920
 5650SOL    MW422374   2.046   4.816   5.274 -0.1298 -0.6287 -0.4371
 5651SOL     OW22375   1.548   2.557   1.143 -0.3063  0.3056 -0.1304
 5651SOL    HW222376   1.472   2.586   1.092 -0.2116 -0.7384 -0.8906
 5651SOL    HW322377   1.567   2.469   1.110  0.2963 -0.0504  1.1168
 5651SOL    MW422378   1.540   2.549   1.132 -0.0570 -0.1032  0.4866
 5652SOL     OW22379   0.066   4.379   0.247 -0.0376 -0.2450 -0.1368
 5652SOL    HW222380  -0.007   4.423   0.203  1.0746  0.2624 -1.5435
 5652SOL    HW322381   0.127   4.450   0.269  0.7492 -0.8292 -0.4024
 5652SOL    MW422382   0.065   4.394   0.244 -0.4650 -0.8434 -0.2894
 5653SOL     OW22383   2.463   3.532   1.006  0.6444  0.0166  0.5444
 5653SOL    HW222384   2.546   3.577   0.989  0.3850  0.8055  1.2605
 5653SOL    HW322385   2.455   3.467   0.936  1.7671  0.0661  0.3574
 5653SOL    MW422386   2.473   3.530   0.995 -0.1349  0.3267  0.3031
 5654SOL     OW22387   5.108   0.270   3.468  0.5127 -0.0819  0.3929
 5654SOL    HW222388   5.199   0.245   3.452  0.3304 -0.3521 -0.2314
 5654SOL    HW322389   5.089   0.238   3.556  0.6954 -0.9615  0.1202
 5654SOL    MW422390   5.118   0.263   3.478 -0.2638  0.2184 -0.0036
 5655SOL     OW22391   0.470   6.029   5.425  0.4597  0.4264 -0.1911
 5655SOL    HW222392   0.447   6.119   5.403 -1.8682 -0.1882 -0.5477
 5655SOL    HW322393   0.388   5.990   5.454  1.4553 -1.5425  0.1526
 5655SOL    MW422394   0.456   6.036   5.426 -0.8650 -0.0217  0.0692
 5656SOL     OW22395   4.295   1.233   6.276  0.5888 -0.1170 -0.1248
 5656SOL    HW222396   4.306   1.307   6.215  0.7566 -1.6957 -2.1001
 5656SOL    HW322397   4.371   1.238   6.333  0.1510  1.7324  0.3716
 5656SOL    MW422398   4.307   1.244   6.275  0.0671 -0.6506 -0.2768
 5657SOL     OW22399   1.050   1.384   4.649 -0.4214 -0.4683  0.7134
 5657SOL    HW222400   1.024   1.342   4.731 -1.4363 -1.0640  0.0974
 5657SOL    HW322401   1.101   1.317   4.603  1.1314  0.2400  1.3204
 5657SOL    MW422402   1.054   1.370   4.654  0.2479  0.2926 -0.5052
 5658SOL     OW22403   3.817   4.544   4.949  0.7205  0.1206 -0.3554
 5658SOL    HW222404   3.845   4.544   4.858  0.2208 -1.9654 -0.5661
 5658SOL    HW322405   3.723   4.528   4.945  0.9121 -1.4907  0.5139
 5658SOL    MW422406   3.808   4.542   4.936 -0.2314  0.0692 -0.0971
 5659SOL     OW22407   1.310   2.174   0.282 -0.2045 -0.0445 -0.1409
 5659SOL    HW222408   1.234   2.126   0.249  1.0936 -1.3024 -1.4410
 5659SOL    HW322409   1.325   2.243   0.218  1.0292 -1.1565 -1.0879
 5659SOL    MW422410   1.302   2.177   0.269 -0.3332  0.1628 -0.0929
 5660SOL     OW22411   3.314   3.503   1.946 -0.3426  0.0433  0.1038
 5660SOL    HW222412   3.279   3.468   2.028  0.0661 -2.1493 -0.6055
 5660SOL    HW322413   3.408   3.488   1.951 -0.3775 -0.7059 -1.0037
 5660SOL    MW422414   3.322   3.497   1.957 -0.0206  0.3775  0.4677
 5661SOL     OW22415   3.390   3.632   4.316  0.5067 -0.2407  0.2756
 5661SOL    HW222416   3.470   3.616   4.366  0.3571  0.8395  0.8926
 5661SOL    HW322417   3.404   3.588   4.233  1.2684 -1.0371  0.8087
 5661SOL    MW422418   3.402   3.624   4.312 -0.4621 -1.0020 -0.1960
 5662SOL     OW22419   5.330   6.146   3.798 -0.2273  0.1895 -0.2400
 5662SOL    HW222420   5.291   6.164   3.883  1.4517  0.6482  0.4630
 5662SOL    HW322421   5.360   6.231   3.766  0.8695 -0.2388 -0.4061
 5662SOL    MW422422   5.329   6.159   3.805 -0.1470 -0.3778 -0.0478
 5663SOL     OW22423   5.904   4.310   1.904  0.1349 -0.0084 -0.1266
 5663SOL    HW222424   5.893   4.250   1.830 -0.0517  1.5344 -1.3761
 5663SOL    HW322425   5.899   4.397   1.866 -1.1344  0.8560  1.8641
 5663SOL    MW422426   5.902   4.313   1.890 -0.3663 -0.5047  0.3749
 5664SOL     OW22427   1.949   1.818   2.072 -0.1652  0.3314 -0.7815
 5664SOL    HW222428   1.858   1.815   2.104  0.1440  0.1408  0.1140
 5664SOL    HW322429   1.945   1.782   1.984 -0.5659 -2.1929  0.1934
 5664SOL    MW422430   1.936   1.813   2.065  0.2366  0.4261  1.1158
 5665SOL     OW22431   3.472   1.382   3.548  0.6190 -0.3565  0.2350
 5665SOL    HW222432   3.560   1.393   3.512  0.6262 -0.5033  0.2047
 5665SOL    HW322433   3.433   1.469   3.546  0.8687 -0.2339  0.5184
 5665SOL    MW422434   3.478   1.395   3.543 -0.3186  0.1569 -0.1443
 5666SOL     OW22435   4.422   1.135   1.838 -0.1428 -0.3088  0.0020
 5666SOL    HW222436   4.468   1.111   1.918 -0.9907  0.1589  0.6467
 5666SOL    HW322437   4.492   1.151   1.774  0.5197 -3.1082 -0.1142
 5666SOL    MW422438   4.437   1.134   1.840 -0.0782  0.3299  0.1231
 5667SOL     OW22439   1.706   1.758   2.163  0.5243 -0.2092  0.4456
 5667SOL    HW222440   1.627   1.812   2.150  0.7347  0.2141  0.9040
 5667SOL    HW322441   1.698   1.725   2.252  0.3156 -1.0895  0.1152
 5667SOL    MW422442   1.694   1.761   2.173 -0.4897 -0.4543  0.2034
 5668SOL     OW22443   2.971   5.518   0.459 -0.3179 -0.1674 -0.3591
 5668SOL    HW222444   2.943   5.562   0.539  0.7143 -1.1388  0.5490
 5668SOL    HW322445   3.008   5.588   0.405 -1.0538  0.4960 -0.0184
 5668SOL    MW422446   2.972   5.533   0.462 -0.0454 -0.6726  0.3320
 5669SOL     OW22447   5.590   2.279   1.955 -0.0561 -0.2993 -0.1665
 5669SOL    HW222448   5.669   2.260   1.905  2.8343  2.4524  2.8257
 5669SOL    HW322449   5.591   2.215   2.026  0.2586  0.5016  0.5746
 5669SOL    MW422450   5.600   2.268   1.958  0.1324  0.1285 -0.1314
 5670SOL     OW22451   0.924   5.685   3.597 -0.1748  0.1071  0.0463
 5670SOL    HW222452   0.932   5.662   3.690  2.7351  0.5408 -0.0126
 5670SOL    HW322453   0.845   5.740   3.593 -1.0795 -0.9323  2.0129
 5670SOL    MW422454   0.915   5.689   3.609 -0.5559  0.3149 -0.1606
 5671SOL     OW22455   1.729   0.249   4.184  0.2226  0.3479 -0.2759
 5671SOL    HW222456   1.770   0.287   4.106  0.9661 -1.3282 -0.7541
 5671SOL    HW322457   1.645   0.215   4.153 -0.0874  0.8961 -0.0348
 5671SOL    MW422458   1.724   0.249   4.169 -0.0111  0.1980  0.1811
 5672SOL     OW22459   2.664   2.956   5.081 -0.2628  0.5431 -0.2983
 5672SOL    HW222460   2.677   2.875   5.130  2.3937  1.0990  0.0964
 5672SOL    HW322461   2.687   2.934   4.991  3.0584  1.2761  0.2154
 5672SOL    MW422462   2.669   2.943   5.076 -0.4276 -0.2918 -0.2345
 5673SOL     OW22463   1.399   1.559   2.142 -0.1763 -0.1572 -0.0567
 5673SOL    HW222464   1.384   1.561   2.048 -0.3016 -1.9836 -0.1194
 5673SOL    HW322465   1.482   1.512   2.152  0.0358  0.3658  0.7229
 5673SOL    MW422466   1.408   1.553   2.131 -0.2752 -0.0144 -0.4957
 5674SOL     OW22467   1.336   1.421   5.149  0.4837 -0.0011  0.0352
 5674SOL    HW222468   1.250   1.422   5.191 -0.9983 -0.9666 -2.6750
 5674SOL    HW322469   1.395   1.385   5.215 -1.4960 -0.7272  1.5214
 5674SOL    MW422470   1.332   1.416   5.163 -0.1472  0.1158 -0.1576
 5675SOL     OW22471   4.411   5.016   1.783  0.1486 -0.0633 -0.5595
 5675SOL    HW222472   4.445   4.927   1.776 -1.8444 -0.8259 -1.3252
 5675SOL    HW322473   4.437   5.057   1.700  1.1239  0.1142 -0.1800
 5675SOL    MW422474   4.419   5.010   1.771 -0.5496 -0.2039 -0.5135
 5676SOL     OW22475   0.038   4.240   5.592 -0.6432  0.0518 -0.6002
 5676SOL    HW222476   0.041   4.233   5.496 -0.6792 -0.6533 -0.5539
 5676SOL    HW322477   0.115   4.191   5.621 -0.9321 -0.1942 -0.2477
 5676SOL    MW422478   0.049   4.232   5.583 -0.4089  0.3756 -0.2186
 5677SOL     OW22479   2.411   1.294   3.367  0.0428  0.2506 -0.5612
 5677SOL    HW222480   2.339   1.233   3.350 -1.5472  1.9930 -0.4676
 5677SOL    HW322481   2.408   1.308   3.462  0.1791  0.6652 -0.6137
 5677SOL    MW422482   2.401   1.288   3.378 -0.1126  0.5479 -0.5406
 5678SOL     OW22483   3.162   4.671   5.369  0.6445  0.1300 -0.6102
 5678SOL    HW222484   3.081   4.671   5.318  0.9607  1.1033 -1.1325
 5678SOL    HW322485   3.142   4.616   5.445 -1.2415  2.0306  0.3799
 5678SOL    MW422486   3.149   4.664   5.372 -0.2515  0.3723 -0.8071
 5679SOL     OW22487   4.891   5.047   4.601 -0.2181 -0.2593 -0.2841
 5679SOL    HW222488   4.825   4.990   4.642 -0.8268 -0.5889 -1.6881
 5679SOL    HW322489   4.933   4.991   4.536 -0.0434  0.5862 -0.9034
 5679SOL    MW422490   4.888   5.032   4.598  0.2234 -0.1237  0.2696
 5680SOL     OW22491   0.968   0.425   1.959  0.2014  0.4559  0.0641
 5680SOL    HW222492   1.052   0.394   1.993  0.6535  1.0056 -0.5167
 5680SOL    HW322493   0.940   0.492   2.021  0.1049  0.1541  0.3496
 5680SOL    MW422494   0.975   0.430   1.972 -0.4702 -0.4978 -0.8297
 5681SOL     OW22495   1.464   5.864   4.318  0.4305 -0.0001  0.3546
 5681SOL    HW222496   1.390   5.917   4.346  0.5508  0.6702 -0.5521
 5681SOL    HW322497   1.513   5.920   4.257  0.5163 -1.1634 -0.6915
 5681SOL    MW422498   1.461   5.878   4.314 -0.4085 -0.7073  0.2065
 5682SOL     OW22499   6.324   2.709   2.461  0.6139 -0.4363 -0.1127
 5682SOL    HW222500   6.395   2.732   2.521 -0.4726 -1.1030  1.5246
 5682SOL    HW322501   6.364   2.710   2.374  2.3307  0.2963  0.6362
 5682SOL    MW422502   6.338   2.712   2.458  0.3571 -0.1126  0.1327
 5683SOL     OW22503   5.283   1.022   0.419 -0.4121  0.0904  0.1319
 5683SOL    HW222504   5.285   1.060   0.331 -0.4121 -0.7638 -0.2502
 5683SOL    HW322505   5.259   0.931   0.405  2.0820 -0.7555  0.7740
 5683SOL    MW422506   5.280   1.015   0.406  0.2988 -0.4909  0.1891
 5684SOL     OW22507   5.558   0.401   6.362 -0.0981  0.1454  0.2513
 5684SOL    HW222508   5.600   0.461   6.301  0.8573 -0.2885  0.4656
 5684SOL    HW322509   5.625   0.382   6.427  0.1151 -2.2011 -0.5384
 5684SOL    MW422510   5.572   0.407   6.362 -0.1209  0.5845  0.0837
 5685SOL     OW22511   1.353   5.027   6.138  0.1309 -0.0516 -0.3231
 5685SOL    HW222512   1.268   5.031   6.094  0.3133  0.1335 -0.6572
 5685SOL    HW322513   1.407   5.092   6.093  0.3602  0.0406  0.0807
 5685SOL    MW422514   1.349   5.036   6.126 -0.0926  0.4462  0.1150
 5686SOL     OW22515   6.034   0.239   2.766 -0.2541  0.5980 -0.6026
 5686SOL    HW222516   6.015   0.318   2.715 -0.5708  1.1945  0.4116
 5686SOL    HW322517   6.047   0.271   2.856 -1.7034 -0.6334  0.0892
 5686SOL    MW422518   6.033   0.254   2.771 -0.0222  0.0006 -0.1990
 5687SOL     OW22519   0.939   5.287   0.603  0.5505  0.4242 -0.2571
 5687SOL    HW222520   0.943   5.205   0.653 -1.9026  0.8360  0.7419
 5687SOL    HW322521   0.895   5.262   0.521 -2.3215  1.0409  0.9799
 5687SOL    MW422522   0.934   5.273   0.599  0.5723 -0.6980 -0.0057
 5688SOL     OW22523   2.096   5.762   2.408 -0.2949  0.3246  0.0374
 5688SOL    HW222524   2.070   5.807   2.488  1.0686  0.1450  0.6157
 5688SOL    HW322525   2.015   5.726   2.372 -0.5904 -2.3503  2.9995
 5688SOL    MW422526   2.082   5.763   2.413  0.4159 -0.3101 -0.0309
 5689SOL     OW22527   5.258   2.959   4.141 -0.5418 -0.2503 -0.1873
 5689SOL    HW222528   5.217   2.892   4.196 -0.4437 -0.1626 -0.0079
 5689SOL    HW322529   5.321   2.910   4.088  0.8810 -0.0427  1.2655
 5689SOL    MW422530   5.261   2.943   4.141  0.2869  0.0847  0.2676
 5690SOL     OW22531   1.326   0.532   4.790  0.1852  0.5006 -0.8388
 5690SOL    HW222532   1.294   0.618   4.816 -1.0906 -0.1265 -0.2527
 5690SOL    HW322533   1.343   0.487   4.873  0.6344  0.1019 -1.1419
 5690SOL    MW422534   1.324   0.537   4.804  0.1259 -0.3141 -0.2698
 5691SOL     OW22535   3.798   5.249   3.820 -0.5405  0.0996  0.1950
 5691SOL    HW222536   3.793   5.203   3.737 -0.7744 -1.3028  0.9567
 5691SOL    HW322537   3.867   5.314   3.808 -0.6428 -0.0166 -1.1095
 5691SOL    MW422538   3.806   5.252   3.808  0.4505 -0.5924 -0.6925
 5692SOL     OW22539   4.268   0.127   2.240  0.6551 -0.0185 -0.0541
 5692SOL    HW222540   4.221   0.200   2.199 -0.0672 -0.2448  0.3431
 5692SOL    HW322541   4.340   0.108   2.181 -0.1266 -0.0764 -1.0181
 5692SOL    MW422542   4.271   0.134   2.227  0.3920  0.2158 -0.1121
 5693SOL     OW22543   5.398   0.673   4.232 -0.8121 -0.1924 -0.2788
 5693SOL    HW222544   5.314   0.713   4.208 -0.8337  0.2532  0.4954
 5693SOL    HW322545   5.438   0.648   4.149 -0.8559  1.3506 -0.7976
 5693SOL    MW422546   5.392   0.675   4.218  0.1029  0.1827 -0.0064
 5694SOL     OW22547   0.625   5.256   4.992  0.0501 -0.3693  0.1728
 5694SOL    HW222548   0.611   5.349   5.011  0.2005 -0.8496  3.1491
 5694SOL    HW322549   0.705   5.234   5.041  0.3631 -1.9415 -0.9923
 5694SOL    MW422550   0.634   5.266   5.001  0.0109  0.1224  0.0696
 5695SOL     OW22551   3.480   1.050   2.317 -0.3351  0.1434 -0.2559
 5695SOL    HW222552   3.410   1.001   2.360 -0.1231 -0.7542 -0.9028
 5695SOL    HW322553   3.457   1.142   2.331 -0.8010 -0.1259  0.8921
 5695SOL    MW422554   3.468   1.056   2.324  0.6688 -0.4691 -0.4838
 5696SOL     OW22555   0.142   6.142   0.386 -0.0383 -0.5220  0.2630
 5696SOL    HW222556   0.095   6.062   0.410  1.3711 -1.9701 -1.5144
 5696SOL    HW322557   0.112   6.161   0.297  0.4957  0.2852  0.2431
 5696SOL    MW422558   0.132   6.134   0.377 -0.1370  0.1217  0.0658
 5697SOL     OW22559   0.155   0.333   1.686 -0.1651 -0.4722  0.3014
 5697SOL    HW222560   0.165   0.397   1.756 -1.5591 -0.3141  0.3823
 5697SOL    HW322561   0.121   0.383   1.612 -0.6613 -0.9962  0.1653
 5697SOL    MW422562   0.152   0.348   1.686  0.1570  0.7076 -0.7668
 5698SOL     OW22563   4.222   4.880   3.046  0.3273 -0.6008  0.2959
 5698SOL    HW222564   4.307   4.842   3.023 -0.5061 -1.9215 -0.7670
 5698SOL    HW322565   4.160   4.836   2.988 -1.0701  0.4587  0.9350
 5698SOL    MW422566   4.225   4.869   3.035 -0.1385  0.0470  0.5799
 5699SOL     OW22567   6.348   2.049   5.501 -0.5990 -0.1724  0.5790
 5699SOL    HW222568   6.395   2.131   5.506 -1.6349  0.5533 -0.8342
 5699SOL    HW322569   6.416   1.981   5.503  0.6317  0.8439 -2.2064
 5699SOL    MW422570   6.363   2.051   5.502  0.1413  0.1130 -0.2644
 5700SOL     OW22571   3.411   5.050   2.034  0.2820 -0.4879  0.2040
 5700SOL    HW222572   3.493   5.098   2.047  0.2489 -0.3900  0.0567
 5700SOL    HW322573   3.343   5.117   2.041  0.0350 -0.8917  2.5211
 5700SOL    MW422574   3.413   5.065   2.036  0.4631  0.3204  0.7004
 5701SOL     OW22575   2.226   2.832   0.384  0.2807 -0.2887  0.5936
 5701SOL    HW222576   2.219   2.803   0.293  0.6844  2.0304 -0.2411
 5701SOL    HW322577   2.272   2.916   0.380  1.4524 -0.7055  3.0753
 5701SOL    MW422578   2.231   2.839   0.372 -0.3551 -0.2638 -0.2406
 5702SOL     OW22579   5.718   5.202   3.438 -0.0866 -0.4327  0.7171
 5702SOL    HW222580   5.769   5.135   3.482  0.1687 -0.9680 -0.3541
 5702SOL    HW322581   5.754   5.285   3.469  0.6314 -0.8049  0.8773
 5702SOL    MW422582   5.729   5.204   3.448  0.0095 -0.5823  1.0495
 5703SOL     OW22583   0.510   3.986   1.009  0.3093 -0.3620  0.6208
 5703SOL    HW222584   0.546   3.902   0.983 -0.5073 -1.6058  3.2135
 5703SOL    HW322585   0.477   4.024   0.928  3.7160 -0.9195 -1.2298
 5703SOL    MW422586   0.511   3.980   0.995  0.6921 -0.1216 -0.5528
 5704SOL     OW22587   6.052   5.765   4.423  0.0836 -0.3633 -0.2059
 5704SOL    HW222588   6.115   5.766   4.351 -0.5809 -0.5372 -0.8072
 5704SOL    HW322589   6.106   5.765   4.502  1.0024 -3.7049 -0.6516
 5704SOL    MW422590   6.068   5.765   4.424 -0.1583 -0.2576 -0.5219
 5705SOL     OW22591   5.123   4.854   5.793  0.3985 -0.1523  0.6916
 5705SOL    HW222592   5.157   4.811   5.872 -1.8723  1.7179  2.8958
 5705SOL    HW322593   5.129   4.948   5.814 -3.1355  0.3534  0.0790
 5705SOL    MW422594   5.128   4.861   5.806  0.0596  0.7303 -0.0133
 5706SOL     OW22595   3.714   0.791   1.472  0.2387  0.2104 -0.1415
 5706SOL    HW222596   3.702   0.881   1.502  2.9115 -0.3694  3.2896
 5706SOL    HW322597   3.667   0.738   1.536 -1.3513 -0.9246 -2.1517
 5706SOL    MW422598   3.706   0.796   1.484  0.4719 -0.0969  0.2928
 5707SOL     OW22599   2.952   5.110   2.187  0.3867 -0.0992 -0.0167
 5707SOL    HW222600   2.911   5.171   2.248  0.3510 -1.2628  1.1572
 5707SOL    HW322601   2.897   5.113   2.109  1.5711  2.9874 -0.8986
 5707SOL    MW422602   2.940   5.118   2.184  0.4032 -0.0918 -0.0550
 5708SOL     OW22603   1.538   1.928   1.653 -0.3103  0.5140  0.0502
 5708SOL    HW222604   1.538   2.001   1.590  0.4992  0.1350 -0.4062
 5708SOL    HW322605   1.615   1.944   1.708 -0.6872  0.5263  0.5814
 5708SOL    MW422606   1.548   1.940   1.652  0.4262  0.9738 -0.2299
 5709SOL     OW22607   2.416   5.994   4.372  0.1245 -0.0559  0.4055
 5709SOL    HW222608   2.340   6.014   4.317 -0.6746  1.0105  1.8272
 5709SOL    HW322609   2.380   5.945   4.446  0.8996 -0.0186  0.8125
 5709SOL    MW422610   2.401   5.990   4.374 -0.0201 -0.4252  0.1643
 5710SOL     OW22611   3.206   6.091   3.992  0.4571  0.3397 -0.4360
 5710SOL    HW222612   3.240   6.004   4.012  1.2252  0.3886 -1.4302
 5710SOL    HW322613   3.243   6.148   4.060 -0.1262 -0.1180  0.2735
 5710SOL    MW422614   3.215   6.087   4.003 -0.5476 -0.0037 -0.0536
 5711SOL     OW22615   1.069   0.975   2.825 -0.2821 -0.4767 -0.2675
 5711SOL    HW222616   0.994   0.948   2.772 -0.9919  0.7087  0.1206
 5711SOL    HW322617   1.073   0.911   2.896 -1.2315 -0.2519 -0.0067
 5711SOL    MW422618   1.060   0.963   2.827 -0.5024  0.4846 -0.0289
 5712SOL     OW22619   5.121   0.070   0.101 -0.4337 -0.2186  0.0785
 5712SOL    HW222620   5.042   0.039   0.057 -0.8100 -0.5970  1.0068
 5712SOL    HW322621   5.192   0.020   0.061 -0.3933  1.4297 -2.0939
 5712SOL    MW422622   5.120   0.060   0.090  0.3683  0.2512  0.2649
 5713SOL     OW22623   1.313   2.625   2.153 -0.3348  0.5954 -0.9725
 5713SOL    HW222624   1.316   2.535   2.185  0.2234  0.2564 -1.9631
 5713SOL    HW322625   1.221   2.650   2.161 -0.4920 -0.0566 -0.6950
 5713SOL    MW422626   1.301   2.617   2.158 -0.0927  0.2287 -0.4508
 5714SOL     OW22627   3.335   3.447   5.501  0.1537 -0.4382  0.1158
 5714SOL    HW222628   3.425   3.423   5.478 -1.5103 -4.6881 -3.1558
 5714SOL    HW322629   3.301   3.492   5.423 -1.2478 -1.0855  0.3312
 5714SOL    MW422630   3.342   3.450   5.488  0.1097 -0.5951  0.1929
 5715SOL     OW22631   5.213   3.626   1.917 -0.1035  0.0860 -0.2168
 5715SOL    HW222632   5.232   3.698   1.976 -1.9658  2.5691 -2.4143
 5715SOL    HW322633   5.120   3.606   1.933  0.5669 -2.5795  0.9813
 5715SOL    MW422634   5.203   3.633   1.927  0.4048 -0.4223 -0.0749
 5716SOL     OW22635   1.018   4.925   4.553 -0.5927 -0.1948 -0.6260
 5716SOL    HW222636   0.989   4.834   4.564 -1.0394 -0.0030 -0.1820
 5716SOL    HW322637   0.939   4.977   4.563  0.0451  0.4379  1.8891
 5716SOL    MW422638   1.004   4.920   4.556  0.4383  0.2513  0.2021
 5717SOL     OW22639   2.429   4.676   1.824  0.5343 -0.1470 -1.0473
 5717SOL    HW222640   2.336   4.695   1.820  0.5430  0.9962  1.7820
 5717SOL    HW322641   2.434   4.580   1.829 -0.6057 -0.1744  0.0901
 5717SOL    MW422642   2.418   4.666   1.824 -0.4830  0.3542  0.0906
 5718SOL     OW22643   3.662   5.719   0.629  0.3785  0.3753  1.2894
 5718SOL    HW222644   3.616   5.745   0.710  0.4320  0.3876  1.3158
 5718SOL    HW322645   3.628   5.632   0.610  0.9188  0.0623  1.7364
 5718SOL    MW422646   3.651   5.711   0.637 -0.2817  0.4886  0.1443
 5719SOL     OW22647   6.123   3.530   0.905  0.1888  0.4429 -0.7197
 5719SOL    HW222648   6.203   3.556   0.860 -0.9770 -0.4691 -3.5491
 5719SOL    HW322649   6.154   3.492   0.988  2.7210 -0.1313 -1.8115
 5719SOL    MW422650   6.138   3.528   0.910 -0.2917  0.0069 -0.4903
 5720SOL     OW22651   6.432   2.506   5.253 -0.4768 -0.2656 -0.0973
 5720SOL    HW222652   6.404   2.574   5.314  0.3964 -0.3033  0.3705
 5720SOL    HW322653   6.376   2.431   5.273 -0.1270 -0.3157  0.7505
 5720SOL    MW422654   6.421   2.505   5.264  0.4286 -0.6496  0.1546
 5721SOL     OW22655   4.309   5.817   2.334 -0.0729  0.1520 -0.2120
 5721SOL    HW222656   4.377   5.751   2.347  1.1182  1.4972  0.7016
 5721SOL    HW322657   4.266   5.825   2.419  1.1788  1.9724  0.3131
 5721SOL    MW422658   4.312   5.810   2.347 -0.2084  0.3507 -0.0205
 5722SOL     OW22659   4.984   5.318   5.300 -0.8104  0.3739 -0.4223
 5722SOL    HW222660   4.938   5.364   5.370 -0.2705  0.9433 -0.4306
 5722SOL    HW322661   5.059   5.374   5.280 -0.2891 -0.3857 -0.6183
 5722SOL    MW422662   4.988   5.331   5.307  0.0913  0.6962 -0.2255
 5723SOL     OW22663   2.632   3.115   4.362 -0.3112 -0.2358 -0.2490
 5723SOL    HW222664   2.693   3.126   4.289 -0.4610  0.3852 -0.2857
 5723SOL    HW322665   2.631   3.021   4.378  2.4775 -0.1145  1.3008
 5723SOL    MW422666   2.640   3.104   4.355 -0.2110 -0.6610  0.1467
 5724SOL     OW22667   4.844   2.912   0.218 -0.1525  0.3023 -0.1449
 5724SOL    HW222668   4.758   2.940   0.249  0.1377  0.8303  0.1947
 5724SOL    HW322669   4.828   2.827   0.177 -1.2996  1.5043 -2.4036
 5724SOL    MW422670   4.831   2.904   0.217  0.2836 -0.1463  0.1731
 5725SOL     OW22671   5.153   1.133   3.052  0.2995 -0.7995 -0.3247
 5725SOL    HW222672   5.186   1.161   3.137 -2.2246  1.8647 -0.0613
 5725SOL    HW322673   5.217   1.165   2.989  0.3099  0.6272  0.3751
 5725SOL    MW422674   5.166   1.141   3.055  0.1973 -0.3975 -0.0780
 5726SOL     OW22675   0.547   3.847   3.094  0.6012 -0.2599  0.1984
 5726SOL    HW222676   0.566   3.787   3.166  2.6532 -1.0131 -0.8804
 5726SOL    HW322677   0.502   3.920   3.135  3.1156  0.1095  2.5821
 5726SOL    MW422678   0.544   3.848   3.109  0.2329  0.2182 -0.3158
 5727SOL     OW22679   0.092   2.019   0.205  0.3865  0.0272 -0.2396
 5727SOL    HW222680   0.090   2.115   0.210 -2.3779  0.1224 -1.5608
 5727SOL    HW322681   0.088   1.991   0.297 -0.8119  1.2056  0.0938
 5727SOL    MW422682   0.091   2.028   0.218  0.5519 -0.2004 -0.1544
 5728SOL     OW22683   2.257   1.176   6.339  0.0519  0.0252  0.4030
 5728SOL    HW222684   2.273   1.112   6.270  1.3880  1.5209 -0.7420
 5728SOL    HW322685   2.180   1.225   6.309  0.3289  0.3506  0.2242
 5728SOL    MW422686   2.249   1.174   6.326  0.3567  0.3449  0.4561
 5729SOL     OW22687   5.376   2.841   3.113 -0.3426 -0.4020 -0.0896
 5729SOL    HW222688   5.412   2.764   3.070  0.5550 -1.5931  2.6380
 5729SOL    HW322689   5.315   2.807   3.178 -1.1742  1.2829  0.0720
 5729SOL    MW422690   5.373   2.827   3.116 -0.7770  0.0495  0.4561
 5730SOL     OW22691   4.661   0.021   1.814 -0.7434  0.5526  0.0953
 5730SOL    HW222692   4.667  -0.048   1.880  0.1706 -0.5099 -1.0478
 5730SOL    HW322693   4.735   0.079   1.833  1.4482 -1.4202 -1.7329
 5730SOL    MW422694   4.671   0.019   1.825 -0.0174  0.0401 -0.3823
 5731SOL     OW22695   0.576   0.467   0.158  0.4090 -0.1690 -0.5499
 5731SOL    HW222696   0.591   0.562   0.164  0.8315 -0.3293  1.3333
 5731SOL    HW322697   0.663   0.429   0.160  0.1920 -0.7272  2.3721
 5731SOL    MW422698   0.589   0.475   0.159  0.7161 -0.2002 -0.4879
 5732SOL     OW22699   3.700   2.959   2.401  0.0252  0.4497 -0.3078
 5732SOL    HW222700   3.763   3.031   2.405  0.2678  0.1586  2.5655
 5732SOL    HW322701   3.615   2.999   2.418 -0.0704  0.2937 -0.4069
 5732SOL    MW422702   3.697   2.974   2.403 -0.1636  0.1070  1.1521
 5733SOL     OW22703   3.418   5.870   4.289 -0.0273 -0.3313 -0.7771
 5733SOL    HW222704   3.358   5.799   4.269 -1.0746  0.8117 -1.8492
 5733SOL    HW322705   3.481   5.869   4.216 -0.6510  0.4535 -1.3445
 5733SOL    MW422706   3.419   5.861   4.277  0.3834  0.5471  0.0761
 5734SOL     OW22707   3.233   1.331   5.542 -0.4923  0.7350 -0.1283
 5734SOL    HW222708   3.252   1.268   5.612  0.1908  1.9288  0.8108
 5734SOL    HW322709   3.217   1.413   5.589 -2.2068  1.0905 -1.2708
 5734SOL    MW422710   3.234   1.333   5.558 -0.0239  0.4451  0.4741
 5735SOL     OW22711   0.569   6.189   4.534  0.2870  0.1600  0.9631
 5735SOL    HW222712   0.481   6.222   4.554  0.7186  0.0587  3.3558
 5735SOL    HW322713   0.599   6.243   4.461 -1.7027  0.2764  0.1746
 5735SOL    MW422714   0.561   6.200   4.527  0.4303  0.4686  0.3191
 5736SOL     OW22715   4.921   3.908   4.558  0.6336  0.0337 -0.0705
 5736SOL    HW222716   4.982   3.868   4.620  0.4995  1.1669  0.8306
 5736SOL    HW322717   4.976   3.964   4.504  0.2755  2.4547  1.8829
 5736SOL    MW422718   4.936   3.910   4.559  0.2472  0.3460 -0.3586
 5737SOL     OW22719   1.276   2.656   3.700  0.1600  0.1484  0.5377
 5737SOL    HW222720   1.291   2.750   3.716 -0.5841  0.6019 -1.2183
 5737SOL    HW322721   1.181   2.648   3.694  0.0882 -1.0783  2.4152
 5737SOL    MW422722   1.265   2.668   3.702  0.2223 -0.3457  0.0486
 5738SOL     OW22723   6.194   2.017   0.882  0.0248 -0.7071  0.2366
 5738SOL    HW222724   6.135   1.942   0.881 -0.8899 -0.0042 -0.2766
 5738SOL    HW322725   6.136   2.093   0.871  1.2007 -0.1258 -3.0014
 5738SOL    MW422726   6.178   2.017   0.880 -0.2376  0.1703 -0.1521
 5739SOL     OW22727   6.392   5.116   0.587 -0.2592 -0.4862 -0.0638
 5739SOL    HW222728   6.417   5.024   0.595  0.1203 -0.4918 -1.0785
 5739SOL    HW322729   6.475   5.163   0.578 -0.4781 -0.1618 -0.4621
 5739SOL    MW422730   6.406   5.110   0.587 -0.3733  0.4138  0.1757
 5740SOL     OW22731   3.971   0.839   1.339  0.3756  0.0546 -0.1639
 5740SOL    HW222732   4.017   0.757   1.357  1.8143  0.1547 -2.7994
 5740SOL    HW322733   3.885   0.828   1.379  1.5740 -1.4341  2.2579
 5740SOL    MW422734   3.966   0.827   1.346 -0.3708  0.2029  0.3799
 5741SOL     OW22735   4.074   2.505   3.153 -0.0787  0.2386  0.0506
 5741SOL    HW222736   4.007   2.569   3.179 -0.3778 -0.4039  0.8706
 5741SOL    HW322737   4.098   2.531   3.064 -0.9192  0.8936  0.0064
 5741SOL    MW422738   4.069   2.517   3.144 -0.2495 -0.3485 -0.4272
 5742SOL     OW22739   3.515   1.921   4.284  0.5570 -0.6069 -0.4633
 5742SOL    HW222740   3.487   2.007   4.315  1.4141 -1.0207  1.6460
 5742SOL    HW322741   3.601   1.936   4.245  0.5479 -0.4378 -0.4182
 5742SOL    MW422742   3.523   1.934   4.283 -0.2375 -0.1991 -0.3810
 5743SOL     OW22743   1.200   1.028   0.558 -0.2474 -0.0603 -0.0814
 5743SOL    HW222744   1.189   0.953   0.499 -1.4362 -0.3703  0.5039
 5743SOL    HW322745   1.289   1.019   0.591 -0.5489 -1.5507  0.3951
 5743SOL    MW422746   1.210   1.017   0.555 -0.2091  0.3879 -0.0403
 5744SOL     OW22747   2.713   0.921   1.713  0.1136 -0.2386 -0.4758
 5744SOL    HW222748   2.780   0.896   1.650 -0.5693 -1.0471 -0.9048
 5744SOL    HW322749   2.693   0.840   1.760  0.4673  0.3089  0.6469
 5744SOL    MW422750   2.719   0.907   1.711  0.5065  0.1756  0.8802
 5745SOL     OW22751   1.359   1.365   0.487  0.3846  0.6096  0.2935
 5745SOL    HW222752   1.266   1.344   0.498  0.0799  1.5121 -0.4743
 5745SOL    HW322753   1.370   1.449   0.531  0.2670  1.7397 -1.7542
 5745SOL    MW422754   1.348   1.373   0.495  0.0464  0.7775  0.1410
 5746SOL     OW22755   2.767   4.387   2.638  0.4309  0.1435 -0.1002
 5746SOL    HW222756   2.795   4.457   2.697  1.4376  0.3399 -0.7911
 5746SOL    HW322757   2.844   4.332   2.628  0.1770 -0.0668 -0.9706
 5746SOL    MW422758   2.781   4.389   2.644  0.5558  0.1506  0.0207
 5747SOL     OW22759   1.856   1.692   0.593 -0.1633  0.1868 -0.8245
 5747SOL    HW222760   1.808   1.771   0.617  0.7955  0.4570  0.3064
 5747SOL    HW322761   1.865   1.697   0.498 -0.0295  1.4886 -0.7622
 5747SOL    MW422762   1.851   1.703   0.584  0.0805 -0.8134 -0.8959
 5748SOL     OW22763   2.525   0.277   5.202  0.4175  0.4099  0.5805
 5748SOL    HW222764   2.493   0.189   5.220  0.2817  0.4007  0.3064
 5748SOL    HW322765   2.545   0.276   5.108 -1.7826  1.3351  0.0182
 5748SOL    MW422766   2.523   0.265   5.192  0.1904  0.3281 -0.2116
 5749SOL     OW22767   3.802   0.713   0.505 -0.2903  0.1038  0.1034
 5749SOL    HW222768   3.844   0.627   0.500  1.5987  0.9858 -0.5808
 5749SOL    HW322769   3.844   0.755   0.580  2.5689  2.1474 -2.3773
 5749SOL    MW422770   3.813   0.707   0.514 -0.5692  0.2922  0.0526
 5750SOL     OW22771   0.130   5.353   3.288 -0.4080  0.6017 -0.1254
 5750SOL    HW222772   0.071   5.284   3.319 -0.5313  1.2211  1.0590
 5750SOL    HW322773   0.138   5.414   3.362  2.8808 -0.1996  0.3820
 5750SOL    MW422774   0.124   5.352   3.302  0.1905 -0.5301 -0.2097
 5751SOL     OW22775   0.805   5.344   0.993 -0.2396  0.0627  0.1932
 5751SOL    HW222776   0.845   5.428   1.013  0.0786 -0.0622  0.0812
 5751SOL    HW322777   0.777   5.351   0.902 -0.8609  0.3025  0.3996
 5751SOL    MW422778   0.807   5.356   0.983 -0.5699 -0.0455  0.0029
 5752SOL     OW22779   1.777   0.380   5.743  0.0181 -0.3762  0.3172
 5752SOL    HW222780   1.834   0.442   5.697 -0.0845 -0.3627  0.2085
 5752SOL    HW322781   1.712   0.354   5.678  1.5123 -2.5387 -0.4097
 5752SOL    MW422782   1.776   0.385   5.729 -0.4825 -0.3278  0.1839
 5753SOL     OW22783   0.759   6.215   2.584 -0.3288 -0.3868 -0.1468
 5753SOL    HW222784   0.665   6.232   2.587 -0.3829 -0.0485 -2.4359
 5753SOL    HW322785   0.766   6.121   2.567 -0.2549 -0.3957 -0.0701
 5753SOL    MW422786   0.748   6.205   2.582  0.4067 -0.2067  0.3022
 5754SOL     OW22787   5.625   3.849   5.384 -0.1631 -0.6096  0.3200
 5754SOL    HW222788   5.700   3.866   5.441 -1.4173 -2.7716  2.8410
 5754SOL    HW322789   5.561   3.917   5.406  0.0696 -0.3034  0.0584
 5754SOL    MW422790   5.626   3.860   5.394  0.1178  0.3564 -0.2220
 5755SOL     OW22791   5.449   1.071   3.470 -0.7992  0.3073 -0.2510
 5755SOL    HW222792   5.487   1.083   3.383 -0.9409  2.1341 -0.1090
 5755SOL    HW322793   5.519   1.032   3.522 -0.8298 -1.1319 -1.2471
 5755SOL    MW422794   5.463   1.068   3.466 -0.1895 -0.5256  0.2923
 5756SOL     OW22795   5.620   0.152   1.784  0.9747  0.4151  0.0309
 5756SOL    HW222796   5.583   0.217   1.844 -1.3294 -0.9269  0.1940
 5756SOL    HW322797   5.597   0.183   1.697 -0.6953 -0.4185  0.1316
 5756SOL    MW422798   5.612   0.165   1.781  0.1618 -0.3497 -0.5187
 5757SOL     OW22799   6.076   5.149   0.980  0.8204 -0.3333  0.1864
 5757SOL    HW222800   6.003   5.144   0.919  0.9353  2.9787 -0.4073
 5757SOL    HW322801   6.154   5.156   0.925  1.4084 -1.6013  0.8052
 5757SOL    MW422802   6.077   5.150   0.965  0.4760  0.2808 -0.2128
 5758SOL     OW22803   1.968   4.559   5.106  0.2201 -0.3219  0.1847
 5758SOL    HW222804   2.002   4.635   5.153 -0.8817  0.3610 -0.0675
 5758SOL    HW322805   2.039   4.495   5.108  0.9551  0.4905  0.9208
 5758SOL    MW422806   1.982   4.561   5.112  0.0988 -0.2232  0.5465
 5759SOL     OW22807   0.736   1.467   0.282 -0.4071 -0.4247 -0.1558
 5759SOL    HW222808   0.738   1.519   0.201  1.7864 -0.1299  0.0319
 5759SOL    HW322809   0.643   1.449   0.296 -1.0003  1.0872 -1.7341
 5759SOL    MW422810   0.724   1.471   0.273 -0.2047 -0.0910  0.0669
 5760SOL     OW22811   6.237   5.354   1.877 -0.4035 -0.6763  0.6660
 5760SOL    HW222812   6.223   5.260   1.869  1.5971 -0.9796  0.1984
 5760SOL    HW322813   6.310   5.362   1.938  2.4583  0.2470 -2.5508
 5760SOL    MW422814   6.245   5.343   1.884  0.1093 -0.1866  0.3567
 5761SOL     OW22815   1.634   2.615   4.730 -0.3488  0.0034  0.3879
 5761SOL    HW222816   1.698   2.685   4.714  0.2091 -0.4694  0.5386
 5761SOL    HW322817   1.647   2.591   4.821  0.0780 -0.9061  0.1014
 5761SOL    MW422818   1.644   2.621   4.740 -0.6556  0.5889  0.0115
 5762SOL     OW22819   5.613   2.253   6.093  0.1450  0.0907  0.1302
 5762SOL    HW222820   5.652   2.316   6.154 -1.2396  1.2228 -0.1188
 5762SOL    HW322821   5.569   2.307   6.028 -1.3023 -1.1352  0.0599
 5762SOL    MW422822   5.613   2.269   6.093 -0.2344 -0.0700 -0.3176
 5763SOL     OW22823   4.556   1.335   5.182 -0.0102  0.0120  0.8852
 5763SOL    HW222824   4.580   1.277   5.109 -1.0071 -0.1603  0.6861
 5763SOL    HW322825   4.467   1.309   5.205 -0.0020  0.6204  1.6362
 5763SOL    MW422826   4.548   1.324   5.175 -0.6873  0.1989 -0.7044
 5764SOL     OW22827   2.608   0.496   3.592  0.0474 -0.3268 -0.8206
 5764SOL    HW222828   2.669   0.477   3.663 -1.0840 -0.9290  0.0154
 5764SOL    HW322829   2.641   0.577   3.553 -0.4147  1.1125  1.6396
 5764SOL    MW422830   2.620   0.504   3.596  0.3275 -0.0247 -0.2335
 5765SOL     OW22831   5.183   6.272   4.712  0.1897  0.3819 -0.5323
 5765SOL    HW222832   5.222   6.210   4.773 -0.1589  0.9982  0.3385
 5765SOL    HW322833   5.198   6.234   4.626  0.0374 -0.8739 -0.0240
 5765SOL    MW422834   5.190   6.259   4.709 -0.3933 -0.7141  0.6349
 5766SOL     OW22835   2.482   1.305   2.656 -0.1280  0.5921 -0.2540
 5766SOL    HW222836   2.468   1.341   2.568 -0.0279  1.3325  0.0249
 5766SOL    HW322837   2.551   1.239   2.644 -0.7469  0.0439 -0.8798
 5766SOL    MW422838   2.490   1.301   2.643  0.3012  0.7666  0.8232
 5767SOL     OW22839   2.073   5.612   0.320  0.7165 -0.0536  0.1237
 5767SOL    HW222840   2.070   5.678   0.389  0.1910  0.4696 -0.3890
 5767SOL    HW322841   2.035   5.655   0.243 -0.6661 -1.2966  0.0615
 5767SOL    MW422842   2.068   5.626   0.319 -0.4176  0.5356 -0.3597
 5768SOL     OW22843   4.879   1.706   5.672 -0.3731  0.2504  0.3353
 5768SOL    HW222844   4.865   1.613   5.651  1.0762 -0.3798  1.9469
 5768SOL    HW322845   4.791   1.740   5.691 -0.9851 -0.6328 -0.7825
 5768SOL    MW422846   4.865   1.698   5.672 -0.2048 -0.4162  0.1757
 5769SOL     OW22847   1.393   2.232   5.826 -0.1034  0.2991 -0.2385
 5769SOL    HW222848   1.406   2.264   5.915  1.1655  1.5190 -0.8104
 5769SOL    HW322849   1.478   2.193   5.802  0.3332  1.9334 -1.6164
 5769SOL    MW422850   1.406   2.231   5.834  0.1034 -0.7861  0.3501
 5770SOL     OW22851   0.622   1.168   4.944  0.2084  0.2435 -1.1531
 5770SOL    HW222852   0.575   1.144   4.864  0.3796 -1.3497 -0.7961
 5770SOL    HW322853   0.601   1.099   5.006  1.9113  0.2344 -0.5372
 5770SOL    MW422854   0.613   1.156   4.941  0.2382 -0.0721  0.5871
 5771SOL     OW22855   6.378   3.139   2.670 -0.0581 -0.2699  0.3210
 5771SOL    HW222856   6.363   3.227   2.705 -0.2700  0.6894 -2.0402
 5771SOL    HW322857   6.473   3.128   2.670  0.0833  0.7418 -1.0915
 5771SOL    MW422858   6.388   3.149   2.675  0.3279  0.4361 -0.0969
 5772SOL     OW22859   5.670   5.858   4.605  0.4356 -0.0947  0.3221
 5772SOL    HW222860   5.700   5.820   4.522  1.0030  0.2857  0.3448
 5772SOL    HW322861   5.587   5.900   4.583  2.2291  3.0955 -0.9375
 5772SOL    MW422862   5.663   5.858   4.591  0.4980  0.3388 -0.5813
 5773SOL     OW22863   5.235   1.416   4.263  0.2196  0.3837 -0.2953
 5773SOL    HW222864   5.247   1.340   4.319 -1.3668  0.6843  0.5028
 5773SOL    HW322865   5.141   1.433   4.264 -0.2634 -0.7775 -4.6225
 5773SOL    MW422866   5.224   1.408   4.270 -0.1401 -0.4181  0.6027
 5774SOL     OW22867   4.861   4.532   1.529 -0.6863  0.1972  0.0688
 5774SOL    HW222868   4.796   4.602   1.520  0.5476  1.1778 -1.7617
 5774SOL    HW322869   4.821   4.456   1.487 -0.9536  0.5825 -0.3779
 5774SOL    MW422870   4.847   4.532   1.522  0.0999  0.2111  0.2890
 5775SOL     OW22871   4.662   3.783   0.300  0.1353  0.1789  0.7306
 5775SOL    HW222872   4.685   3.690   0.290 -0.5967 -0.2474  2.6466
 5775SOL    HW322873   4.567   3.784   0.308  0.0952  1.1607  0.3214
 5775SOL    MW422874   4.652   3.771   0.300  0.3382  0.3484  0.4353
 5776SOL     OW22875   3.281   4.438   2.889  1.0568 -0.2058  0.1430
 5776SOL    HW222876   3.221   4.512   2.885  0.9306 -0.3409 -2.4507
 5776SOL    HW322877   3.338   4.457   2.963 -1.2338  0.6358  1.7898
 5776SOL    MW422878   3.281   4.450   2.898 -0.0984  0.1906  0.3061
 5777SOL     OW22879   5.702   5.844   1.852  0.6116  0.1698  0.6339
 5777SOL    HW222880   5.659   5.925   1.879  0.5991  0.2536  0.3585
 5777SOL    HW322881   5.769   5.871   1.789 -0.1133 -0.1379 -0.2891
 5777SOL    MW422882   5.705   5.858   1.847  0.1277 -0.2273  0.5797
 5778SOL     OW22883   4.154   4.496   6.139 -0.2001  0.0852 -1.0746
 5778SOL    HW222884   4.065   4.523   6.161 -0.9314 -3.1751  0.5589
 5778SOL    HW322885   4.144   4.412   6.095  2.0389  0.6993 -3.0424
 5778SOL    MW422886   4.141   4.489   6.136 -0.1683  0.1571 -0.2321
 5779SOL     OW22887   0.176   4.117   4.398  0.5258 -0.2880 -0.4033
 5779SOL    HW222888   0.116   4.132   4.471  1.6892 -1.7746  0.9123
 5779SOL    HW322889   0.234   4.193   4.399  1.6358 -1.0994  1.3832
 5779SOL    MW422890   0.175   4.129   4.408 -0.1398 -0.6079  0.1385
 5780SOL     OW22891   4.373   4.593   6.007  0.3259 -0.3165 -0.2900
 5780SOL    HW222892   4.293   4.578   6.058 -0.5126  1.6127 -0.9381
 5780SOL    HW322893   4.420   4.510   6.010 -0.7932 -0.9308  1.6948
 5780SOL    MW422894   4.369   4.580   6.014 -0.2707  0.1036 -0.0593
 5781SOL     OW22895   1.489   5.346   6.381  0.0053 -0.0300  0.4977
 5781SOL    HW222896   1.506   5.421   6.437 -1.0816  1.3186 -0.9083
 5781SOL    HW322897   1.431   5.289   6.432 -2.0915  1.8211  0.3036
 5781SOL    MW422898   1.484   5.348   6.395 -0.0616 -0.5715  1.0113
 5782SOL     OW22899   5.394   5.963   5.306 -0.4701  0.1209  0.0947
 5782SOL    HW222900   5.438   5.952   5.222  0.9415  0.7523  0.7216
 5782SOL    HW322901   5.453   5.922   5.370 -0.0651  2.1739  1.1331
 5782SOL    MW422902   5.408   5.956   5.303  0.5173  0.2356  0.1300
 5783SOL     OW22903   1.483   5.914   5.089  0.3782 -0.6644  0.9219
 5783SOL    HW222904   1.390   5.913   5.068 -0.2041 -0.9930  3.2524
 5783SOL    HW322905   1.509   6.006   5.080  0.0403 -0.6781 -0.4269
 5783SOL    MW422906   1.474   5.926   5.085 -0.3728  0.1207 -0.3089
 5784SOL     OW22907   3.303   1.770   4.225  0.0287  0.5556 -0.2064
 5784SOL    HW222908   3.240   1.836   4.253 -0.5015  0.6195 -1.5038
 5784SOL    HW322909   3.388   1.811   4.240 -0.2925  1.8507 -1.6379
 5784SOL    MW422910   3.306   1.784   4.231 -0.1049 -0.6986 -0.0461
 5785SOL     OW22911   1.517   1.523   1.303  0.9278  0.3432 -0.2799
 5785SOL    HW222912   1.548   1.607   1.338 -0.4906  0.3047  1.1847
 5785SOL    HW322913   1.484   1.544   1.216  0.6180  1.3194  0.0549
 5785SOL    MW422914   1.517   1.537   1.296 -0.2637  0.0592 -0.1996
 5786SOL     OW22915   2.334   3.156   5.951  0.0574 -0.5682 -0.4101
 5786SOL    HW222916   2.348   3.169   5.857 -0.3271  1.3260 -0.2284
 5786SOL    HW322917   2.277   3.079   5.956  0.7674 -1.2099 -1.6684
 5786SOL    MW422918   2.328   3.147   5.939 -0.0524 -0.4473  0.3766
 5787SOL     OW22919   2.664   2.251   6.220 -0.2081 -0.3820  0.5522
 5787SOL    HW222920   2.625   2.315   6.279 -0.6535  0.3447 -0.4852
 5787SOL    HW322921   2.755   2.242   6.250  0.7042  2.7743 -0.8026
 5787SOL    MW422922   2.671   2.258   6.232 -0.0046  0.6003 -0.4245
 5788SOL     OW22923   2.353   4.949   1.248 -0.0829  0.3887  0.0490
 5788SOL    HW222924   2.437   4.950   1.202  1.1169  0.3110  2.1485
 5788SOL    HW322925   2.289   4.927   1.180  1.7772 -1.2162 -1.2897
 5788SOL    MW422926   2.356   4.946   1.233 -0.2849 -0.1371 -0.0056
 5789SOL     OW22927   3.685   1.743   2.049  0.5103 -0.3333  0.3163
 5789SOL    HW222928   3.737   1.681   2.100  0.0149  0.3065  1.6743
 5789SOL    HW322929   3.669   1.699   1.966  2.3149 -0.9653  0.2736
 5789SOL    MW422930   3.690   1.729   2.045 -0.5387  0.0316  0.3593
 5790SOL     OW22931   2.240   1.085   1.574 -0.5163 -0.1712  0.3564
 5790SOL    HW222932   2.239   1.061   1.481 -0.1324 -1.6299  0.7051
 5790SOL    HW322933   2.332   1.083   1.598 -0.6540 -0.3378  0.8864
 5790SOL    MW422934   2.252   1.081   1.565  0.3099  0.1631 -0.2026
 5791SOL     OW22935   2.031   0.867   5.624 -0.2484  0.7819  0.1809
 5791SOL    HW222936   2.011   0.773   5.615  1.0323  0.3260  1.6445
 5791SOL    HW322937   2.083   0.888   5.547 -0.8923  0.4075 -0.3710
 5791SOL    MW422938   2.035   0.857   5.613 -0.8789  0.1541  0.6576
 5792SOL     OW22939   4.310   2.384   4.920  0.0258  0.2200 -0.8949
 5792SOL    HW222940   4.262   2.367   5.001 -0.3393  0.3130 -1.0905
 5792SOL    HW322941   4.380   2.318   4.919 -2.3449 -2.4872 -2.4887
 5792SOL    MW422942   4.313   2.373   4.931  0.0626 -0.0825  0.4342
 5793SOL     OW22943   1.359   6.325   4.156  0.0924  0.2126  0.3537
 5793SOL    HW222944   1.386   6.336   4.247 -0.7979  2.1426  0.4499
 5793SOL    HW322945   1.340   6.414   4.126  0.0975 -0.3942 -1.6525
 5793SOL    MW422946   1.360   6.339   4.164 -0.1660 -0.4158  0.9464
 5794SOL     OW22947   2.757   2.923   0.306 -0.4462  0.4300  0.1244
 5794SOL    HW222948   2.830   2.873   0.340 -0.2346 -0.4194 -1.4847
 5794SOL    HW322949   2.694   2.927   0.379  0.7164  0.2364  1.1609
 5794SOL    MW422950   2.758   2.917   0.320 -0.1075 -0.3497  0.1702
 5795SOL     OW22951   1.169   5.227   5.299  0.3542  0.4936  0.1918
 5795SOL    HW222952   1.154   5.160   5.366  1.6187  0.9575  0.9584
 5795SOL    HW322953   1.082   5.242   5.261 -0.2988 -0.1133  1.3944
 5795SOL    MW422954   1.155   5.220   5.302  0.1577 -0.2888  0.1052
 5796SOL     OW22955   4.465   2.084   1.621  0.5495 -0.3308 -0.1020
 5796SOL    HW222956   4.459   2.086   1.526 -1.9556  0.0803 -0.0072
 5796SOL    HW322957   4.390   2.031   1.649  0.9041  0.0186  1.6618
 5796SOL    MW422958   4.454   2.077   1.612 -0.3783  0.0471 -0.1048
 5797SOL     OW22959   5.456   5.299   0.556  0.6330  0.4744 -0.4089
 5797SOL    HW222960   5.399   5.283   0.630 -0.9719 -0.7969 -1.8524
 5797SOL    HW322961   5.497   5.384   0.575  0.0478  0.3198  1.7370
 5797SOL    MW422962   5.454   5.308   0.568  0.3378  0.4105 -0.4853
 5798SOL     OW22963   4.692   4.604   5.833  0.6075 -0.1399  0.3841
 5798SOL    HW222964   4.716   4.532   5.891  3.0010 -0.8096 -1.3135
 5798SOL    HW322965   4.648   4.561   5.759  0.2661  0.3715  0.2874
 5798SOL    MW422966   4.689   4.588   5.831  0.3189 -0.0200  0.3683
 5799SOL     OW22967   0.375   3.391   3.693 -0.4535  0.4275  0.2090
 5799SOL    HW222968   0.446   3.405   3.756 -0.6719  3.1923 -0.0296
 5799SOL    HW322969   0.420   3.376   3.610 -0.1109  1.7704  0.1326
 5799SOL    MW422970   0.391   3.391   3.690  0.4210  0.0002 -0.2018
 5800SOL     OW22971   1.509   3.033   4.659  0.1086  0.3293 -0.3499
 5800SOL    HW222972   1.598   3.015   4.687  0.2185 -1.7321 -1.7420
 5800SOL    HW322973   1.515   3.041   4.564 -1.2955 -1.0120 -0.6079
 5800SOL    MW422974   1.521   3.032   4.650  0.0723 -0.3360  0.3019
 5801SOL     OW22975   6.029   6.270   2.496  0.5568 -0.1918  0.1899
 5801SOL    HW222976   6.090   6.254   2.424  0.0072 -0.8672 -0.1358
 5801SOL    HW322977   6.027   6.365   2.505  0.3378 -0.0744 -0.9483
 5801SOL    MW422978   6.037   6.280   2.487 -0.5468 -0.2494 -0.0766
 5802SOL     OW22979   3.042   2.118   0.734  0.3668 -0.9313  0.0895
 5802SOL    HW222980   3.107   2.121   0.664 -1.1995 -1.3708 -1.4584
 5802SOL    HW322981   2.964   2.158   0.696  0.2685  1.5781  2.5682
 5802SOL    MW422982   3.041   2.124   0.720 -0.2642  0.2000  0.0647
 5803SOL     OW22983   3.108   5.421   5.064 -0.1667 -0.1543 -0.2566
 5803SOL    HW222984   3.038   5.462   5.014 -0.3176 -0.1796 -0.0655
 5803SOL    HW322985   3.070   5.404   5.150  0.1376  0.0316 -0.0796
 5803SOL    MW422986   3.094   5.424   5.069 -0.0991  0.3406 -0.1847
 5804SOL     OW22987   1.227   1.580   2.571 -0.2644  0.1958  0.1361
 5804SOL    HW222988   1.225   1.647   2.640 -1.2404  1.0919 -0.7120
 5804SOL    HW322989   1.254   1.500   2.615 -0.4818  0.8352  1.4797
 5804SOL    MW422990   1.230   1.579   2.586  0.8520  0.0071  0.1115
 5805SOL     OW22991   0.895   3.564   5.988 -0.6541  0.6538 -0.0258
 5805SOL    HW222992   0.804   3.567   6.017 -0.5800 -1.8186  0.7015
 5805SOL    HW322993   0.946   3.593   6.064 -0.6613 -2.4457  1.3121
 5805SOL    MW422994   0.890   3.568   6.002  0.9374 -0.0051  0.1444
 5806SOL     OW22995   0.379   1.559   6.301 -0.5180 -0.5448  0.2011
 5806SOL    HW222996   0.296   1.531   6.341 -0.6789  0.5765  0.7219
 5806SOL    HW322997   0.354   1.631   6.243  0.1942  0.6347  1.2837
 5806SOL    MW422998   0.364   1.565   6.299 -0.1526  0.2456  0.3117
 5807SOL     OW22999   6.418   5.123   5.485 -0.5043  0.2379 -0.7363
 5807SOL    HW223000   6.401   5.094   5.574 -3.5255  0.6644 -1.0784
 5807SOL    HW323001   6.433   5.041   5.436  0.2273 -0.0573 -0.0344
 5807SOL    MW423002   6.418   5.108   5.490  0.8805  0.0767 -0.0986
 5808SOL     OW23003   0.617   3.554   2.660  0.4098 -0.2027  0.1886
 5808SOL    HW223004   0.712   3.564   2.649  0.5540 -0.2272  1.3022
 5808SOL    HW323005   0.579   3.623   2.606  0.9212 -1.9158 -2.5990
 5808SOL    MW423006   0.625   3.564   2.651  1.1428 -0.1305 -0.1599
 5809SOL     OW23007   2.090   2.286   2.280 -0.2114  0.1684  0.0053
 5809SOL    HW223008   2.125   2.196   2.279  0.0130  0.2533  0.0788
 5809SOL    HW323009   2.043   2.294   2.197 -1.1755 -0.3814  0.4937
 5809SOL    MW423010   2.089   2.275   2.269  0.4500  0.2058 -0.1077
 5810SOL     OW23011   0.287   2.668   3.091  0.1471  0.2146 -0.9431
 5810SOL    HW223012   0.229   2.743   3.079  2.1602  1.7743 -1.3306
 5810SOL    HW323013   0.266   2.610   3.017 -1.5923  0.2307 -0.5055
 5810SOL    MW423014   0.277   2.670   3.080  0.3056 -0.7417  0.4970
 5811SOL     OW23015   5.458   2.589   2.997  0.0920  0.2326  0.0755
 5811SOL    HW223016   5.438   2.501   2.964  0.9796  0.2594 -0.5652
 5811SOL    HW323017   5.536   2.615   2.949 -0.4732  1.5953 -0.1433
 5811SOL    MW423018   5.466   2.580   2.986 -0.2429 -0.2281 -0.3553
 5812SOL     OW23019   4.412   3.213   1.265 -0.2191  0.1519  0.6345
 5812SOL    HW223020   4.377   3.124   1.276  0.7127 -0.1345  1.4300
 5812SOL    HW323021   4.340   3.270   1.293 -0.9121 -0.3225 -0.1067
 5812SOL    MW423022   4.398   3.209   1.270  0.7679 -0.0170  0.4128
 5813SOL     OW23023   5.474   3.526   3.648  0.0647 -0.1890  0.0184
 5813SOL    HW223024   5.460   3.439   3.611  1.5408 -0.0593 -0.9555
 5813SOL    HW323025   5.491   3.510   3.741  0.8813 -1.0278 -0.2532
 5813SOL    MW423026   5.475   3.512   3.655  0.5778  0.3660  0.1955
 5814SOL     OW23027   0.698   5.713   3.940 -0.7249  0.3638  0.0709
 5814SOL    HW223028   0.610   5.700   3.906 -0.3471 -0.6857 -0.5367
 5814SOL    HW323029   0.697   5.670   4.025 -0.5647 -0.4037 -0.3065
 5814SOL    MW423030   0.686   5.706   3.947 -0.2607 -0.0193 -0.4856
 5815SOL     OW23031   2.004   0.063   4.861  0.4185 -0.3769 -0.1508
 5815SOL    HW223032   1.919   0.102   4.845  1.1955  1.1372 -0.7992
 5815SOL    HW323033   2.032   0.030   4.776  1.1264  0.5366 -0.2945
 5815SOL    MW423034   1.997   0.064   4.848 -0.9039 -0.4866  0.2361
 5816SOL     OW23035   0.867   1.637   1.101  0.1731 -0.3753  0.7574
 5816SOL    HW223036   0.865   1.692   1.180 -0.2336  0.3875  0.2250
 5816SOL    HW323037   0.894   1.696   1.031 -0.2338 -0.8623  0.1780
 5816SOL    MW423038   0.870   1.652   1.103  0.1241  0.0631  0.0372
 5817SOL     OW23039   3.795   5.951   0.532 -0.4997 -0.3265 -0.2416
 5817SOL    HW223040   3.844   5.918   0.457 -0.8695  0.2330 -0.7366
 5817SOL    HW323041   3.761   5.872   0.575  3.6125 -1.0978  2.1500
 5817SOL    MW423042   3.797   5.936   0.528 -0.3049  0.4203 -0.4569
 5818SOL     OW23043   4.781   1.091   1.009 -0.4866 -0.1198 -0.0329
 5818SOL    HW223044   4.711   1.122   0.952 -1.0274 -1.2096  0.0006
 5818SOL    HW323045   4.823   1.171   1.042 -1.7691  0.5636  0.0126
 5818SOL    MW423046   4.777   1.106   1.006 -0.4236 -0.0561  0.3019
 5819SOL     OW23047   5.059   3.151   1.507 -0.1741 -0.2176  0.0917
 5819SOL    HW223048   5.034   3.075   1.455  0.5859  0.1769 -0.8686
 5819SOL    HW323049   4.981   3.172   1.558 -0.9571 -0.5876 -0.9254
 5819SOL    MW423050   5.045   3.144   1.507  0.1831 -0.3118 -0.1811
 5820SOL     OW23051   3.096   2.420   4.319 -0.0626 -0.2149  0.0080
 5820SOL    HW223052   3.128   2.503   4.356  0.0999 -0.6930  0.9705
 5820SOL    HW323053   3.113   2.355   4.387 -1.2077 -0.8495 -0.2881
 5820SOL    MW423054   3.103   2.423   4.333  0.4397 -0.3447 -0.0563
 5821SOL     OW23055   5.025   2.198   2.662  0.6091  0.6204 -0.4470
 5821SOL    HW223056   4.931   2.196   2.643  0.3150 -0.2993  0.9435
 5821SOL    HW323057   5.056   2.111   2.637  0.8525  0.5259  0.1774
 5821SOL    MW423058   5.017   2.186   2.656 -0.0665  0.3608 -0.1733
 5822SOL     OW23059   1.163   5.121   3.133 -0.3714 -0.0370  0.0154
 5822SOL    HW223060   1.102   5.130   3.059 -0.9440 -1.1180  0.3385
 5822SOL    HW323061   1.140   5.192   3.192 -1.7878 -0.8123  0.4412
 5822SOL    MW423062   1.152   5.132   3.131 -0.1804  0.1153  0.4162
 5823SOL     OW23063   0.390   5.980   1.939  0.0331 -0.2581 -0.1589
 5823SOL    HW223064   0.341   5.903   1.967 -0.7580  0.1275 -0.4567
 5823SOL    HW323065   0.354   6.002   1.853  1.3742 -0.5193 -0.8236
 5823SOL    MW423066   0.379   5.973   1.931  0.4090  0.2822  0.0456
 5824SOL     OW23067   3.732   5.136   2.788 -0.1473  0.1166 -0.2324
 5824SOL    HW223068   3.771   5.140   2.701  0.1832 -0.6445 -0.1268
 5824SOL    HW323069   3.643   5.102   2.774  0.2938 -1.0916 -0.1665
 5824SOL    MW423070   3.725   5.132   2.775 -0.0784  0.4704 -0.0686
 5825SOL     OW23071   3.317   0.290   2.924  0.5744  0.0059  0.5311
 5825SOL    HW223072   3.295   0.238   2.846 -2.6118  0.7723  0.7806
 5825SOL    HW323073   3.373   0.233   2.976  1.0232 -1.3478 -1.3180
 5825SOL    MW423074   3.321   0.276   2.920 -0.0320  0.0123 -0.0914
 5826SOL     OW23075   3.044   1.085   4.833  0.1950  0.5393  0.5856
 5826SOL    HW223076   3.095   1.161   4.806 -0.8023  0.8693 -0.4712
 5826SOL    HW323077   3.066   1.017   4.769 -1.5290  1.0540 -0.6332
 5826SOL    MW423078   3.054   1.086   4.821  0.3742  0.9714  0.2917
 5827SOL     OW23079   2.829   1.990   2.777  0.1570 -0.0441 -0.0758
 5827SOL    HW223080   2.786   2.067   2.814 -0.4643 -0.5928  0.3716
 5827SOL    HW323081   2.758   1.941   2.735  0.5339 -0.3950 -0.3066
 5827SOL    MW423082   2.814   1.993   2.776 -0.0378 -0.6178 -0.2843
 5828SOL     OW23083   3.917   5.631   0.813  0.2587  0.2649 -0.1101
 5828SOL    HW223084   3.833   5.590   0.790 -0.3160  1.4717 -0.2667
 5828SOL    HW323085   3.893   5.720   0.840  1.6411  1.1932 -1.7674
 5828SOL    MW423086   3.903   5.638   0.814 -0.2461 -0.0905  0.0128
 5829SOL     OW23087   3.102   2.478   2.278  0.4665 -0.5026 -0.1528
 5829SOL    HW223088   3.026   2.421   2.267 -1.2207  1.1927  2.0472
 5829SOL    HW323089   3.105   2.497   2.372  2.7497  0.6698 -0.3962
 5829SOL    MW423090   3.093   2.473   2.289  0.1886  0.5528  0.3969
 5830SOL     OW23091   0.549   3.442   4.784 -0.5046  0.1284 -0.3666
 5830SOL    HW223092   0.509   3.363   4.747  1.8971 -0.5994 -1.5929
 5830SOL    HW323093   0.562   3.500   4.708 -0.5862  0.9694  0.2439
 5830SOL    MW423094   0.545   3.439   4.769  0.5540  0.1003 -0.2284
 5831SOL     OW23095   2.313   0.466   5.223 -0.2349  0.3882 -0.8159
 5831SOL    HW223096   2.325   0.558   5.201  0.0631  0.1567 -1.6750
 5831SOL    HW323097   2.400   0.427   5.210 -0.0752  0.1924  0.6395
 5831SOL    MW423098   2.326   0.473   5.219 -0.3381 -0.3857  0.4904
 5832SOL     OW23099   0.245   0.058   1.630 -0.2475 -0.8312 -0.2598
 5832SOL    HW223100   0.198   0.005   1.695 -0.3059  0.2634  0.6115
 5832SOL    HW323101   0.253   0.144   1.670  3.7896 -1.2799  0.2988
 5832SOL    MW423102   0.240   0.062   1.643  0.0033  0.1408  0.1878
 5833SOL     OW23103   0.277   0.953   5.922 -0.4893 -0.3461 -0.2297
 5833SOL    HW223104   0.349   0.974   5.982 -2.1193  0.0756  1.6952
 5833SOL    HW323105   0.310   0.978   5.836  2.5169 -2.3793  0.1756
 5833SOL    MW423106   0.291   0.959   5.919  0.0563  0.0216 -0.0351
 5834SOL     OW23107   4.068   5.279   0.693  0.2235  0.1612  0.2854
 5834SOL    HW223108   4.117   5.325   0.761  0.2196  1.5405 -0.6020
 5834SOL    HW323109   3.988   5.251   0.737  2.0998 -3.0413  2.0397
 5834SOL    MW423110   4.064   5.281   0.708  0.1064  0.4719  0.0749
 5835SOL     OW23111   0.256   3.678   5.212 -0.3926  0.1606 -0.2572
 5835SOL    HW223112   0.317   3.743   5.177  0.7900 -0.1788  1.0875
 5835SOL    HW323113   0.234   3.711   5.299 -0.9951 -0.4661 -0.1642
 5835SOL    MW423114   0.261   3.691   5.219 -0.2605 -0.2332  0.8474
 5836SOL     OW23115   5.974   4.049   6.352  0.7262 -0.5152  0.6011
 5836SOL    HW223116   5.911   3.988   6.313  0.6253  0.0573 -0.1630
 5836SOL    HW323117   5.922   4.105   6.409  0.3976  0.4118 -0.5665
 5836SOL    MW423118   5.959   4.048   6.354 -0.6507  0.1492 -0.1920
 5837SOL     OW23119   1.503   3.863   2.227  0.3916 -0.7782  0.4331
 5837SOL    HW223120   1.509   3.814   2.309  1.2501  0.1500  0.9359
 5837SOL    HW323121   1.515   3.954   2.252  1.5096 -0.5568 -0.8226
 5837SOL    MW423122   1.505   3.868   2.241 -0.4829  0.0321 -0.1027
 5838SOL     OW23123   2.221   5.924   1.168 -0.3972 -0.1741  0.6264
 5838SOL    HW223124   2.299   5.979   1.169 -0.4069 -0.1629  0.8206
 5838SOL    HW323125   2.189   5.930   1.078 -0.1666 -0.1924  0.5432
 5838SOL    MW423126   2.227   5.932   1.156 -0.4425 -0.0624 -0.2291
 5839SOL     OW23127   4.702   3.746   0.596  0.0880  0.1947  0.0768
 5839SOL    HW223128   4.739   3.731   0.509  2.0093 -1.4261  1.0614
 5839SOL    HW323129   4.765   3.704   0.656 -0.7461  1.9149  2.3099
 5839SOL    MW423130   4.716   3.738   0.593 -0.5435 -0.8214  1.0127
 5840SOL     OW23131   0.210   2.264   3.974 -0.2630 -0.5088  0.1430
 5840SOL    HW223132   0.230   2.324   3.902  0.2374  1.0502  1.5089
 5840SOL    HW323133   0.296   2.230   4.001 -0.1964  0.4973  1.2793
 5840SOL    MW423134   0.224   2.268   3.968 -0.5168 -0.6224  0.4314
 5841SOL     OW23135   0.637   5.090   0.023 -0.4089 -0.1370  0.2553
 5841SOL    HW223136   0.717   5.081   0.074 -0.2968  1.1470  0.3297
 5841SOL    HW323137   0.655   5.163  -0.037 -1.4435  0.0328  0.1412
 5841SOL    MW423138   0.650   5.098   0.022  0.0525  0.0707  0.1871
 5842SOL     OW23139   4.961   3.625   3.393  0.6913  0.2051  0.4049
 5842SOL    HW223140   4.974   3.532   3.378  0.8942  0.0293  1.6232
 5842SOL    HW323141   4.948   3.662   3.305  3.2105 -0.5528 -0.3700
 5842SOL    MW423142   4.961   3.618   3.379  0.0959  0.2825 -0.6245
 5843SOL     OW23143   2.995   5.917   5.677 -0.3256 -0.2531  0.1608
 5843SOL    HW223144   2.977   6.009   5.693 -0.0850 -0.3712  1.1476
 5843SOL    HW323145   3.019   5.913   5.584  0.1305  0.7547  0.2235
 5843SOL    MW423146   2.996   5.928   5.667 -0.2528 -0.3190  0.2827
 5844SOL     OW23147   3.376   4.230   0.918  0.2088  0.4750  0.4211
 5844SOL    HW223148   3.284   4.258   0.920  0.3150  0.7826  1.5560
 5844SOL    HW323149   3.376   4.143   0.957  0.1494 -0.3718 -1.3720
 5844SOL    MW423150   3.364   4.222   0.923 -0.2501  0.5601 -0.6203
 5845SOL     OW23151   3.255   3.358   1.155 -0.1664  0.0245  0.2856
 5845SOL    HW223152   3.217   3.274   1.130  0.0739  0.2086 -0.7713
 5845SOL    HW323153   3.206   3.385   1.233 -1.7535 -0.0478 -0.6442
 5845SOL    MW423154   3.244   3.350   1.162 -0.1234  0.4367  0.0711
 5846SOL     OW23155   2.210   5.303   5.168  0.0992  0.0731  0.6039
 5846SOL    HW223156   2.176   5.263   5.248 -0.1338  0.9087  0.9351
 5846SOL    HW323157   2.136   5.350   5.131  0.0486 -0.8082 -0.4385
 5846SOL    MW423158   2.196   5.304   5.174  0.6294 -0.5214 -0.4223
 5847SOL     OW23159   1.625   5.307   2.208  0.0935 -0.3710  0.7117
 5847SOL    HW223160   1.588   5.395   2.216  0.4698 -0.2590  1.2822
 5847SOL    HW323161   1.659   5.303   2.119 -0.8714 -0.3159  0.3291
 5847SOL    MW423162   1.625   5.318   2.198  0.2317 -0.0500 -0.1694
 5848SOL     OW23163   0.053   3.508   4.533  0.1584  0.1053 -0.0426
 5848SOL    HW223164   0.147   3.492   4.524  0.2089  0.9696 -1.1519
 5848SOL    HW323165   0.040   3.596   4.498 -0.7936  0.7747  1.8637
 5848SOL    MW423166   0.064   3.517   4.528 -0.2481 -0.0787 -0.4446
 5849SOL     OW23167   3.588   2.215   0.306 -0.0222 -0.0974  0.0643
 5849SOL    HW223168   3.579   2.301   0.346  0.6567  0.4116 -0.8482
 5849SOL    HW323169   3.682   2.201   0.299 -0.1272 -0.7228 -0.2087
 5849SOL    MW423170   3.599   2.224   0.311 -0.2789  0.0176  0.5579
 5850SOL     OW23171   3.571   3.715   0.262  0.0432  0.0928 -0.0947
 5850SOL    HW223172   3.628   3.773   0.212  0.2335  0.8201  0.9263
 5850SOL    HW323173   3.624   3.690   0.338 -0.9498  0.7281  0.8398
 5850SOL    MW423174   3.586   3.719   0.265 -0.0312  0.6034  1.0509
 5851SOL     OW23175   4.906   3.551   0.459 -0.2537 -0.2227  0.3114
 5851SOL    HW223176   4.953   3.471   0.436 -1.3676 -1.1711  1.1625
 5851SOL    HW323177   4.906   3.552   0.555  0.6824  1.3937  0.3171
 5851SOL    MW423178   4.912   3.540   0.469 -0.1996  0.8700 -0.4630
 5852SOL     OW23179   1.177   0.203   5.587  0.3423 -0.3861  0.1471
 5852SOL    HW223180   1.121   0.269   5.628 -1.4490 -2.4982  1.3130
 5852SOL    HW323181   1.131   0.179   5.507  0.7963 -0.4924 -0.0868
 5852SOL    MW423182   1.164   0.208   5.582 -0.5805 -0.2706  0.1451
 5853SOL     OW23183   1.247   0.796   4.817  0.1114  0.0076 -0.5823
 5853SOL    HW223184   1.297   0.871   4.849  0.5147 -0.6640  0.4045
 5853SOL    HW323185   1.156   0.823   4.825  0.0908 -0.6967  2.7600
 5853SOL    MW423186   1.242   0.810   4.822  0.1254 -0.0237 -0.0728
 5854SOL     OW23187   5.796   4.854   5.555 -0.5337  0.6419  0.5526
 5854SOL    HW223188   5.719   4.911   5.554 -1.1730 -0.2104 -0.3245
 5854SOL    HW323189   5.817   4.845   5.648 -0.4849  2.1950  0.7110
 5854SOL    MW423190   5.788   4.860   5.567  0.4584 -0.4598  0.7295
 5855SOL     OW23191   3.318   1.458   2.033 -0.3389  0.4524  0.1782
 5855SOL    HW223192   3.251   1.390   2.035 -1.3573  1.4250  0.4586
 5855SOL    HW323193   3.296   1.512   1.957 -2.0817  2.8403  2.1884
 5855SOL    MW423194   3.306   1.457   2.023  0.3359 -0.7624 -0.6083
 5856SOL     OW23195   5.261   4.590   1.859 -0.3630  0.0288  0.0472
 5856SOL    HW223196   5.210   4.536   1.798 -1.7187  1.1303  0.1526
 5856SOL    HW323197   5.201   4.659   1.886  0.6366  0.3323  1.6210
 5856SOL    MW423198   5.246   4.592   1.854  0.5501 -0.2492  0.3743
 5857SOL     OW23199   1.657   0.428   5.088  0.3029 -0.1933  0.1509
 5857SOL    HW223200   1.691   0.443   4.999  0.8816  0.0338  0.4064
 5857SOL    HW323201   1.620   0.340   5.085  1.1429 -0.5509 -0.0716
 5857SOL    MW423202   1.656   0.419   5.076 -0.0202 -0.6658 -0.0707
 5858SOL     OW23203   0.259   2.843   4.962 -0.3038 -0.1494 -0.6398
 5858SOL    HW223204   0.275   2.917   4.904  0.6923 -1.7258 -2.5110
 5858SOL    HW323205   0.234   2.772   4.903 -1.9460 -1.1497  1.1390
 5858SOL    MW423206   0.258   2.843   4.947  0.2990 -0.5166 -0.4761
 5859SOL     OW23207   1.654   0.133   6.420  0.1337  0.2626  0.6161
 5859SOL    HW223208   1.637   0.181   6.501  2.6528  1.7088  0.3722
 5859SOL    HW323209   1.683   0.199   6.358 -1.5927 -0.8326 -1.5189
 5859SOL    MW423210   1.655   0.148   6.423  0.0191  0.5893  0.1877
 5860SOL     OW23211   6.055   2.978   3.363 -0.1058 -0.2008 -0.1652
 5860SOL    HW223212   6.068   3.071   3.385 -0.2930 -0.5604  1.5964
 5860SOL    HW323213   6.002   2.980   3.283  0.8928  1.2086 -0.8431
 5860SOL    MW423214   6.050   2.991   3.356 -0.0381  0.1477  0.4211
 5861SOL     OW23215   1.961   4.886   4.285 -0.4021 -0.1871 -0.3356
 5861SOL    HW223216   2.017   4.962   4.268 -2.1357  1.1822 -0.2759
 5861SOL    HW323217   2.020   4.820   4.321  1.3159  0.8297 -1.1703
 5861SOL    MW423218   1.976   4.888   4.288 -0.5649 -0.2301  0.1505
 5862SOL     OW23219   0.575   5.402   5.609 -0.4867  0.7420 -0.6297
 5862SOL    HW223220   0.580   5.350   5.530 -1.2103 -0.9389  0.3837
 5862SOL    HW323221   0.493   5.451   5.601 -0.0893  1.3182 -1.3178
 5862SOL    MW423222   0.565   5.402   5.598 -0.5322  0.3232 -0.3524
 5863SOL     OW23223   4.081   3.505   4.884  0.2201 -0.1771 -0.1862
 5863SOL    HW223224   4.166   3.469   4.909 -0.1673  0.0232  1.5735
 5863SOL    HW323225   4.023   3.429   4.881 -0.1136 -0.0171  1.3522
 5863SOL    MW423226   4.085   3.490   4.887  0.0291 -0.2342  0.4358
 5864SOL     OW23227   1.025   0.147   5.362  0.9780  0.2043 -0.3345
 5864SOL    HW223228   0.998   0.055   5.370 -1.0831  0.6761 -1.2857
 5864SOL    HW323229   0.944   0.197   5.375  2.1559  1.9406  0.7557
 5864SOL    MW423230   1.011   0.141   5.365  0.7225 -0.2173 -0.2793
 5865SOL     OW23231   1.567   0.203   0.257  0.0367  0.2889  0.0711
 5865SOL    HW223232   1.522   0.262   0.317 -1.4399  1.3507 -1.9387
 5865SOL    HW323233   1.520   0.120   0.264  0.6743  0.0026  1.2408
 5865SOL    MW423234   1.555   0.200   0.266 -0.2760 -0.1776  0.1946
 5866SOL     OW23235   0.663   0.904   2.264 -0.0308 -0.1354  0.2046
 5866SOL    HW223236   0.568   0.910   2.249 -0.1542 -0.7720  0.6945
 5866SOL    HW323237   0.679   0.964   2.337  0.0528  0.4657 -0.2986
 5866SOL    MW423238   0.652   0.913   2.272  0.5354  0.1873  0.5059
 5867SOL     OW23239   0.555   2.585   4.398  0.0273 -0.1486  0.5340
 5867SOL    HW223240   0.527   2.676   4.411  1.8007  0.6322 -0.7158
 5867SOL    HW323241   0.627   2.591   4.335 -2.1663 -2.7227 -2.5470
 5867SOL    MW423242   0.561   2.598   4.391  0.5696  0.3501 -0.0350
 5868SOL     OW23243   2.298   1.998   3.527 -0.1167 -0.1605 -0.5076
 5868SOL    HW223244   2.343   2.009   3.444  0.5431 -1.0539 -0.2885
 5868SOL    HW323245   2.302   1.904   3.544 -0.4993 -0.0268  0.3811
 5868SOL    MW423246   2.305   1.987   3.519 -0.0225 -0.4587  0.1120
 5869SOL     OW23247   0.903   4.300   0.746  0.2511 -0.2525  0.0953
 5869SOL    HW223248   0.846   4.249   0.804 -0.5144 -0.1843 -0.5885
 5869SOL    HW323249   0.902   4.253   0.663 -0.6248  0.9647 -0.6089
 5869SOL    MW423250   0.895   4.287   0.743 -0.1220  0.1494 -0.0179
 5870SOL     OW23251   0.512   2.006   1.769 -0.3995 -0.1862  0.7171
 5870SOL    HW223252   0.556   1.971   1.692 -1.0597  0.2048  0.1576
 5870SOL    HW323253   0.574   1.991   1.841 -0.2255 -1.5113  0.3100
 5870SOL    MW423254   0.526   1.999   1.769 -0.6226  0.3030 -0.4832
 5871SOL     OW23255   5.050   5.049   5.517  0.2286 -0.2193  0.1183
 5871SOL    HW223256   5.075   5.056   5.425  0.3529  0.7044  0.2049
 5871SOL    HW323257   5.041   5.140   5.546 -0.6917 -0.5004  0.7797
 5871SOL    MW423258   5.052   5.062   5.509 -0.0208 -0.1273 -0.0965
 5872SOL     OW23259   3.674   2.632   5.741 -0.0098  0.1845  0.1483
 5872SOL    HW223260   3.618   2.579   5.684 -0.2408  1.8084 -1.2001
 5872SOL    HW323261   3.753   2.646   5.690  1.2909 -1.2489  1.6510
 5872SOL    MW423262   3.677   2.627   5.727  0.1538 -0.3531 -0.0211
 5873SOL     OW23263   6.242   4.915   3.043 -0.7874  0.1001 -0.2578
 5873SOL    HW223264   6.225   4.824   3.020 -1.2746 -0.3181  1.5863
 5873SOL    HW323265   6.199   4.966   2.974 -0.4383 -1.0365 -1.3542
 5873SOL    MW423266   6.234   4.910   3.031 -0.5843  0.0076  0.7330
 5874SOL     OW23267   1.337   3.239   6.125  0.6346  0.5299  0.3242
 5874SOL    HW223268   1.365   3.159   6.080 -0.8890  0.2145 -0.1452
 5874SOL    HW323269   1.342   3.307   6.057 -0.2305  0.3541  0.0667
 5874SOL    MW423270   1.341   3.237   6.110 -0.6593 -0.1764  0.0345
 5875SOL     OW23271   2.743   1.478   5.505  0.4437 -0.2761 -0.2817
 5875SOL    HW223272   2.829   1.437   5.503  0.6337  0.0685  0.7074
 5875SOL    HW323273   2.704   1.451   5.588 -1.0577 -1.6938 -1.3497
 5875SOL    MW423274   2.749   1.469   5.515 -0.4801  0.3964  0.3550
 5876SOL     OW23275   0.287   4.833   1.662  0.3246  0.1580  0.5210
 5876SOL    HW223276   0.284   4.805   1.570  1.7481  0.4229  0.3709
 5876SOL    HW323277   0.195   4.847   1.686 -0.0930 -0.3219 -0.7344
 5876SOL    MW423278   0.275   4.831   1.653 -0.4997  0.2662  0.3827
 5877SOL     OW23279   0.105   0.455   0.855 -0.3519  0.1429 -0.4176
 5877SOL    HW223280   0.172   0.475   0.789 -0.6180  0.0556 -0.7193
 5877SOL    HW323281   0.082   0.364   0.838 -0.3271  0.0782 -0.1142
 5877SOL    MW423282   0.111   0.445   0.844 -0.0180 -0.5629  0.3127
 5878SOL     OW23283   4.616   5.827   1.056 -0.2982 -0.5296 -0.1980
 5878SOL    HW223284   4.691   5.767   1.056  0.0561 -0.1029 -1.0555
 5878SOL    HW323285   4.647   5.905   1.102 -0.6171 -0.8116  0.5199
 5878SOL    MW423286   4.630   5.829   1.062 -0.0002  0.0400 -0.2101
 5879SOL     OW23287   5.720   3.438   0.961  0.2751  0.2220 -0.4049
 5879SOL    HW223288   5.710   3.449   1.056  1.8682 -0.4863 -0.1184
 5879SOL    HW323289   5.670   3.360   0.940  1.9248 -1.1070  0.3320
 5879SOL    MW423290   5.712   3.429   0.971 -0.3725 -0.3173 -0.2317
 5880SOL     OW23291   0.781   4.973   2.825 -0.0524  0.4940 -0.3389
 5880SOL    HW223292   0.726   4.905   2.785 -1.5453  1.2189  0.3936
 5880SOL    HW323293   0.734   5.055   2.807  0.7343  1.1306  0.4374
 5880SOL    MW423294   0.767   4.975   2.817 -0.5004  0.3099  0.3940
 5881SOL     OW23295   2.183   3.976   1.412  0.0534 -0.0327  0.1564
 5881SOL    HW223296   2.278   3.979   1.423  0.2895 -1.6479 -1.0610
 5881SOL    HW323297   2.169   4.001   1.320 -0.8803  1.8713  0.7592
 5881SOL    MW423298   2.194   3.980   1.401 -0.3961 -0.1042 -0.6722
 5882SOL     OW23299   6.419   4.714   4.572  0.0593 -0.0502  0.1167
 5882SOL    HW223300   6.432   4.663   4.491  0.7225  0.0361  0.1582
 5882SOL    HW323301   6.348   4.774   4.551  2.4480  2.4036 -1.6452
 5882SOL    MW423302   6.412   4.715   4.558  0.1652 -0.2878 -0.1549
 5883SOL     OW23303   5.363   6.329   0.936 -0.0191  0.3261 -0.3634
 5883SOL    HW223304   5.372   6.345   0.842  2.6625 -0.6341 -0.3334
 5883SOL    HW323305   5.412   6.400   0.978 -0.2484  0.1085  0.2934
 5883SOL    MW423306   5.370   6.341   0.929 -0.0900 -0.1399  0.3292
 5884SOL     OW23307   0.754   5.573   1.378  0.4294 -0.5275 -0.5070
 5884SOL    HW223308   0.688   5.642   1.384 -0.3582 -1.2657 -0.4605
 5884SOL    HW323309   0.732   5.513   1.449  0.4706 -1.3584 -1.1772
 5884SOL    MW423310   0.742   5.574   1.388  0.3141  0.3245 -0.3798
 5885SOL     OW23311   2.080   1.291   1.659 -0.4381  0.0010  0.4771
 5885SOL    HW223312   2.130   1.216   1.626  1.6664  2.0242 -1.2868
 5885SOL    HW323313   2.078   1.353   1.586 -2.5416  1.4918  1.6811
 5885SOL    MW423314   2.086   1.289   1.645  0.4943 -0.6779  0.0856
 5886SOL     OW23315   1.880   6.353   5.307  0.1866 -0.1955 -0.4157
 5886SOL    HW223316   1.896   6.286   5.374 -0.7640  0.1879  0.2319
 5886SOL    HW323317   1.877   6.435   5.357  0.5865  0.2358 -1.0932
 5886SOL    MW423318   1.882   6.355   5.323  0.3199 -0.4688  0.8311
 5887SOL     OW23319   5.972   1.052   3.183 -0.8430  0.0814  0.6614
 5887SOL    HW223320   5.992   1.137   3.144  1.9849 -1.0729 -0.7318
 5887SOL    HW323321   5.955   1.071   3.275 -0.1234  2.1510  0.4203
 5887SOL    MW423322   5.973   1.066   3.190 -0.5112  0.0485  0.1298
 5888SOL     OW23323   4.895   0.686   1.199  0.0965  0.3367 -0.1149
 5888SOL    HW223324   4.906   0.613   1.138 -1.6040  0.1276 -0.2009
 5888SOL    HW323325   4.966   0.675   1.262 -0.0469 -1.3064 -0.2151
 5888SOL    MW423326   4.906   0.675   1.199  0.0143 -0.6007  0.7612
 5889SOL     OW23327   0.998   2.267   5.471 -0.1541 -0.2417  0.4657
 5889SOL    HW223328   1.002   2.241   5.563 -0.2714  2.8613  1.4743
 5889SOL    HW323329   1.067   2.332   5.461 -1.5943  1.1597 -1.0266
 5889SOL    MW423330   1.007   2.272   5.482 -1.2056  0.1709  0.2707
 5890SOL     OW23331   2.681   5.987   4.169 -0.3282  0.0484  0.0229
 5890SOL    HW223332   2.607   6.037   4.135  1.2005  0.8603 -2.3258
 5890SOL    HW323333   2.715   6.040   4.240 -2.2434 -0.5872  1.5024
 5890SOL    MW423334   2.676   6.000   4.174  0.2650  0.0654 -0.1319
 5891SOL     OW23335   0.565   1.054   1.760 -0.9018  0.4852 -0.3485
 5891SOL    HW223336   0.530   0.991   1.823  0.7640  0.4074  0.5469
 5891SOL    HW323337   0.622   1.110   1.812  0.3864  0.5433 -1.7567
 5891SOL    MW423338   0.568   1.053   1.775  0.1798 -0.2822 -0.0911
 5892SOL     OW23339   6.018   4.052   2.998 -0.0418  0.3930 -0.5391
 5892SOL    HW223340   5.952   4.113   2.963 -0.1136  0.5110 -0.2023
 5892SOL    HW323341   6.086   4.050   2.931  0.2336  1.2953 -0.2946
 5892SOL    MW423342   6.018   4.060   2.985  0.4557  0.7162  1.0161
 5893SOL     OW23343   1.856   3.777   1.153 -0.4112  0.4345  0.3704
 5893SOL    HW223344   1.927   3.713   1.152 -0.5670  0.2310 -1.6169
 5893SOL    HW323345   1.901   3.861   1.159  0.0206  0.3116 -0.9319
 5893SOL    MW423346   1.872   3.780   1.154 -0.8378  1.0888 -0.6676
 5894SOL     OW23347   5.003   3.494   4.095 -0.6715  0.2137 -0.3880
 5894SOL    HW223348   4.924   3.538   4.127 -0.4773 -0.3036  0.8424
 5894SOL    HW323349   5.072   3.522   4.155  0.3932  1.6434 -2.1508
 5894SOL    MW423350   5.001   3.504   4.107 -0.4226  0.2289  0.2111
 5895SOL     OW23351   5.370   4.129   4.046 -0.0870  1.0048 -0.3314
 5895SOL    HW223352   5.395   4.142   3.955 -0.4166  0.0043 -0.5800
 5895SOL    HW323353   5.301   4.192   4.062  0.6906  1.9117 -0.4490
 5895SOL    MW423354   5.364   4.139   4.036  0.2422 -0.0764  0.9745
 5896SOL     OW23355   4.775   3.435   3.079  0.4418  0.7789  0.1547
 5896SOL    HW223356   4.851   3.489   3.056  1.2139  0.1907  1.2247
 5896SOL    HW323357   4.806   3.379   3.151  0.1404 -2.1816 -1.8444
 5896SOL    MW423358   4.790   3.435   3.086  0.0874  0.1433  0.3243
 5897SOL     OW23359   3.882   3.935   2.361 -0.4498 -0.0164  0.6077
 5897SOL    HW223360   3.948   3.896   2.419 -0.6034 -0.1846  0.6679
 5897SOL    HW323361   3.852   4.013   2.409  0.5172  0.7091  0.0898
 5897SOL    MW423362   3.887   3.940   2.375 -0.0473  0.0215  0.4911
 5898SOL     OW23363   5.734   4.789   2.300 -0.5987  1.1084 -1.0815
 5898SOL    HW223364   5.724   4.760   2.391 -1.9949  2.7937 -0.6639
 5898SOL    HW323365   5.656   4.841   2.282  0.7732  2.8155 -2.4645
 5898SOL    MW423366   5.722   4.792   2.310 -0.9244  0.3441 -0.2264
 5899SOL     OW23367   2.688   4.572   0.882 -0.0855  0.3216  0.3034
 5899SOL    HW223368   2.611   4.525   0.852 -0.3125  0.9094 -0.0491
 5899SOL    HW323369   2.762   4.515   0.857 -0.2439  0.9275 -1.6889
 5899SOL    MW423370   2.688   4.558   0.875 -0.1624  0.0751 -0.1377
 5900SOL     OW23371   0.407   1.420   4.836 -0.1164  0.9894 -0.2614
 5900SOL    HW223372   0.325   1.468   4.844 -1.2303 -1.1131  2.1462
 5900SOL    HW323373   0.465   1.461   4.901 -0.4968  0.2218  0.5801
 5900SOL    MW423374   0.404   1.432   4.846  0.4220 -0.0164 -0.1589
 5901SOL     OW23375   3.396   5.219   3.433  0.2695  0.0685  0.3109
 5901SOL    HW223376   3.312   5.225   3.478  0.2791 -1.7164  0.6559
 5901SOL    HW323377   3.401   5.128   3.404  2.0273  0.1690  0.1849
 5901SOL    MW423378   3.386   5.208   3.435  0.5701  0.2666  0.2644
 5902SOL     OW23379   5.050   4.897   0.486  0.1101 -0.1151 -0.7835
 5902SOL    HW223380   5.084   4.867   0.402  1.6135  0.1841 -0.3038
 5902SOL    HW323381   5.064   4.824   0.546  1.3028  0.5347 -0.2426
 5902SOL    MW423382   5.056   4.884   0.482 -0.2584 -0.0971 -0.0786
 5903SOL     OW23383   2.641   3.952   5.008  0.2153 -0.2958 -0.4075
 5903SOL    HW223384   2.644   3.864   4.972 -0.0012  0.2520 -1.8135
 5903SOL    HW323385   2.584   3.945   5.085  0.2920 -1.3905 -0.4423
 5903SOL    MW423386   2.634   3.939   5.013 -0.3375  0.2817  0.1842
 5904SOL     OW23387   2.909   2.515   3.225 -0.6068  0.4499 -0.0296
 5904SOL    HW223388   2.904   2.575   3.300 -0.9199 -0.8049  0.9773
 5904SOL    HW323389   2.978   2.453   3.248 -0.6687  0.0872 -0.8092
 5904SOL    MW423390   2.917   2.515   3.238  0.0504  0.0062  0.3053
 5905SOL     OW23391   0.588   4.276   0.640 -0.6429 -0.2273 -0.2638
 5905SOL    HW223392   0.608   4.329   0.718  1.6820 -1.0524 -0.2103
 5905SOL    HW323393   0.649   4.203   0.645 -1.1728 -0.8721 -2.3357
 5905SOL    MW423394   0.599   4.274   0.651 -0.1574 -0.1564  0.0847
 5906SOL     OW23395   3.214   6.380   0.504 -0.7481  0.1978  0.4263
 5906SOL    HW223396   3.285   6.322   0.531  0.9885  0.9402 -2.1776
 5906SOL    HW323397   3.244   6.468   0.528 -1.7233  0.3545  1.1190
 5906SOL    MW423398   3.227   6.384   0.511  0.2872 -0.1997  0.7379
 5907SOL     OW23399   5.681   2.933   4.606 -0.3267  0.0814 -0.0066
 5907SOL    HW223400   5.745   2.905   4.541  0.8001  1.5371  0.4290
 5907SOL    HW323401   5.608   2.967   4.555 -0.8981 -1.8274 -0.5109
 5907SOL    MW423402   5.680   2.934   4.591 -0.1269  0.2581  0.6269
 5908SOL     OW23403   5.930   0.900   3.583 -0.5389  0.1015 -0.3076
 5908SOL    HW223404   5.837   0.886   3.600 -1.0757  1.5815 -1.7672
 5908SOL    HW323405   5.974   0.864   3.660 -2.2586 -1.2992  0.0827
 5908SOL    MW423406   5.923   0.893   3.596  0.5659  0.3641  0.0407
 5909SOL     OW23407   5.039   1.394   3.639 -0.0287  0.8064  0.2657
 5909SOL    HW223408   5.128   1.359   3.631 -0.3054  0.4493 -1.9876
 5909SOL    HW323409   4.985   1.319   3.664  0.0672  0.6164 -0.0841
 5909SOL    MW423410   5.044   1.380   3.641  0.2149  0.2003 -0.3977
 5910SOL     OW23411   3.892   5.212   5.968  0.4096 -0.0907 -0.1295
 5910SOL    HW223412   3.825   5.145   5.978 -0.1996  0.5630  0.2405
 5910SOL    HW323413   3.866   5.260   5.889  1.1485 -0.6116 -0.7142
 5910SOL    MW423414   3.880   5.209   5.959  0.0080 -0.3316  0.0447
 5911SOL     OW23415   2.749   0.755   0.970  0.5074 -0.5615  0.5025
 5911SOL    HW223416   2.824   0.737   1.027  0.8332  0.5570  0.4371
 5911SOL    HW323417   2.678   0.777   1.030  1.0282  1.2787  0.4832
 5911SOL    MW423418   2.749   0.755   0.985 -1.3997 -0.3041  0.1222
 5912SOL     OW23419   1.774   1.404   5.282  0.5278 -0.1373 -0.0815
 5912SOL    HW223420   1.829   1.399   5.360 -0.2828  0.0142  0.5117
 5912SOL    HW323421   1.691   1.363   5.308  1.0077 -2.2644 -1.5725
 5912SOL    MW423422   1.770   1.398   5.295 -0.5560 -0.2955 -0.3059
 5913SOL     OW23423   6.277   3.395   5.042 -0.4337 -0.0273  0.8136
 5913SOL    HW223424   6.217   3.448   5.095 -1.2991  0.2125 -0.3593
 5913SOL    HW323425   6.219   3.340   4.989  0.4288 -2.3453  2.1238
 5913SOL    MW423426   6.262   3.395   5.042  0.2750  1.2729  0.1115
 5914SOL     OW23427   3.971   4.453   0.730  0.2145  0.3642  0.3363
 5914SOL    HW223428   3.972   4.517   0.801  0.1872  0.2294  0.4606
 5914SOL    HW323429   4.061   4.450   0.698  0.2742  0.2704  0.5086
 5914SOL    MW423430   3.983   4.461   0.735 -0.0751 -0.1324 -0.0165
 5915SOL     OW23431   5.398   4.370   4.580 -0.4953 -0.0942  0.2168
 5915SOL    HW223432   5.384   4.448   4.634 -1.4969 -0.0852 -0.0333
 5915SOL    HW323433   5.427   4.303   4.642  0.3127  0.4513  0.4430
 5915SOL    MW423434   5.400   4.372   4.595  0.1361  0.0486  0.3750
 5916SOL     OW23435   0.236   1.106   4.281 -0.7531  0.1896  0.2538
 5916SOL    HW223436   0.315   1.055   4.298 -0.1639  1.1048  0.3556
 5916SOL    HW323437   0.249   1.140   4.192 -0.4976  1.2639  0.6927
 5916SOL    MW423438   0.248   1.104   4.271  0.1434  0.3802 -0.3069
 5917SOL     OW23439   3.199   0.107   3.501 -0.1827  0.3580 -0.7916
 5917SOL    HW223440   3.222   0.152   3.582 -0.5324  0.0494 -0.5182
 5917SOL    HW323441   3.104   0.118   3.493 -0.1319  0.5168 -1.2418
 5917SOL    MW423442   3.189   0.114   3.510  0.4334 -0.2216  0.2296
 5918SOL     OW23443   2.000   0.486   5.951 -0.2611  0.0271  0.5494
 5918SOL    HW223444   1.938   0.425   5.913 -0.4169  0.3792  0.2362
 5918SOL    HW323445   2.084   0.464   5.911 -0.4563  0.5115 -0.1348
 5918SOL    MW423446   2.003   0.475   5.941  0.6557 -0.4035  0.2751
 5919SOL     OW23447   3.585   2.807   4.989 -0.3979 -0.7965  0.5296
 5919SOL    HW223448   3.500   2.849   4.978 -0.2156 -0.8079 -1.0935
 5919SOL    HW323449   3.572   2.746   5.062 -2.2485 -1.9230 -0.6602
 5919SOL    MW423450   3.572   2.805   4.997 -0.4411  0.1891 -0.3777
 5920SOL     OW23451   0.901   5.713   6.180 -0.2943  0.1386  0.1611
 5920SOL    HW223452   0.819   5.665   6.178 -0.1558 -0.0838 -0.4756
 5920SOL    HW323453   0.967   5.650   6.150  0.5111 -0.4133  2.8180
 5920SOL    MW423454   0.899   5.699   6.175  0.6525 -0.8794 -0.2739
 5921SOL     OW23455   2.049   0.179   1.508  0.1212  0.0706 -0.4596
 5921SOL    HW223456   1.975   0.193   1.566  0.4388  1.8894 -0.4391
 5921SOL    HW323457   2.108   0.253   1.525  0.7199  0.0890 -2.3190
 5921SOL    MW423458   2.047   0.191   1.518 -0.2840 -0.1946  0.3053
 5922SOL     OW23459   0.740   5.123   5.891 -0.3156  0.2021 -0.1065
 5922SOL    HW223460   0.799   5.128   5.816  0.4378 -0.6504  0.4040
 5922SOL    HW323461   0.780   5.057   5.948 -1.6145 -0.1813  0.3932
 5922SOL    MW423462   0.753   5.115   5.889 -0.2246 -0.2577 -0.4469
 5923SOL     OW23463   1.489   1.711   5.963  0.0184 -0.1022  0.4530
 5923SOL    HW223464   1.531   1.796   5.952 -0.4072  0.6204  3.4664
 5923SOL    HW323465   1.418   1.727   6.025 -0.6142 -2.5107  0.4480
 5923SOL    MW423466   1.485   1.724   5.970  0.0219 -0.5783 -0.0753
 5924SOL     OW23467   0.799   0.875   0.673  0.6109  0.1604  0.5058
 5924SOL    HW223468   0.887   0.883   0.708  0.7271  0.3093  0.1813
 5924SOL    HW323469   0.770   0.965   0.660  0.1625  0.1285  1.2220
 5924SOL    MW423470   0.807   0.888   0.676 -0.4938  0.0020  0.2527
 5925SOL     OW23471   2.462   3.685   3.987  0.4099  0.2290 -0.3757
 5925SOL    HW223472   2.418   3.672   3.903  0.0611  2.2658 -0.5633
 5925SOL    HW323473   2.399   3.733   4.040  2.3325  3.4979 -0.7428
 5925SOL    MW423474   2.448   3.690   3.983  0.9984  0.4240 -0.0250
 5926SOL     OW23475   1.377   0.910   6.121  0.2575 -0.6656  0.1146
 5926SOL    HW223476   1.451   0.964   6.092  0.1250  0.3365  1.5613
 5926SOL    HW323477   1.389   0.827   6.075  1.5187 -0.0535 -0.7243
 5926SOL    MW423478   1.388   0.906   6.111  0.8628 -0.0597  0.3405
 5927SOL     OW23479   0.505   1.045   6.076  0.0306  0.1117  0.0328
 5927SOL    HW223480   0.599   1.030   6.066  0.4072  1.2602  1.5445
 5927SOL    HW323481   0.488   1.126   6.027 -0.7123 -1.3669 -2.3617
 5927SOL    MW423482   0.515   1.054   6.068 -0.2839 -0.1988 -0.1254
 5928SOL     OW23483   0.892   4.571   0.725 -0.2347  0.0977 -0.2055
 5928SOL    HW223484   0.804   4.587   0.690  0.2170 -2.1265 -2.7183
 5928SOL    HW323485   0.892   4.477   0.746  1.0279  0.4425  1.4881
 5928SOL    MW423486   0.880   4.561   0.723 -0.0551  0.4408  0.5680
 5929SOL     OW23487   0.932   4.005   6.235 -0.0476  0.4518 -0.4454
 5929SOL    HW223488   0.873   3.968   6.300  2.7596 -1.1148  1.4600
 5929SOL    HW323489   0.927   4.099   6.249 -1.5364  0.3161  0.1216
 5929SOL    MW423490   0.924   4.012   6.245 -0.2003 -0.0386  0.1539
 5930SOL     OW23491   1.538   3.651   0.077 -0.2995 -0.1100  0.2876
 5930SOL    HW223492   1.529   3.598  -0.002 -0.8108  0.8698 -0.3251
 5930SOL    HW323493   1.454   3.696   0.087  0.0031  0.3332  0.9827
 5930SOL    MW423494   1.526   3.650   0.068  0.6493  0.2680 -0.0487
 5931SOL     OW23495   3.115   1.929   4.352  0.5909 -0.1295  0.3458
 5931SOL    HW223496   3.065   2.005   4.324  0.6782 -0.0822  0.3175
 5931SOL    HW323497   3.065   1.892   4.425  0.2477 -0.3786 -0.0107
 5931SOL    MW423498   3.102   1.934   4.358 -0.3230  0.1191 -0.1490
 5932SOL     OW23499   4.086   6.240   1.886  0.1858 -0.1234  0.1720
 5932SOL    HW223500   4.052   6.301   1.951 -0.6427 -0.2027 -0.1800
 5932SOL    HW323501   4.129   6.171   1.938  0.0002  0.0889  0.6118
 5932SOL    MW423502   4.087   6.239   1.902 -0.1579 -0.6283  0.0985
 5933SOL     OW23503   5.982   5.494   2.155  0.5597 -0.5735 -0.2623
 5933SOL    HW223504   5.956   5.481   2.246  0.1467 -1.4781 -0.4951
 5933SOL    HW323505   5.906   5.533   2.113 -0.1619 -2.4026 -0.7447
 5933SOL    MW423506   5.969   5.497   2.161 -0.5806 -0.2486 -0.0380
 5934SOL     OW23507   0.564   3.268   5.294 -0.3376  0.3165 -0.2898
 5934SOL    HW223508   0.508   3.251   5.218 -1.5677  0.8274  0.4656
 5934SOL    HW323509   0.534   3.353   5.326 -0.0318 -0.0350  0.9515
 5934SOL    MW423510   0.553   3.277   5.288  0.3383 -0.9267  0.9639
 5935SOL     OW23511   3.222   0.437   2.607  0.1216 -0.2653  0.3807
 5935SOL    HW223512   3.204   0.436   2.513 -0.2987 -0.0153  0.4605
 5935SOL    HW323513   3.292   0.372   2.618  1.9434  1.4328 -0.4496
 5935SOL    MW423514   3.229   0.428   2.596  0.2536 -0.3085  0.3583
 5936SOL     OW23515   3.014   4.926   1.100 -0.6396  0.3830 -0.6590
 5936SOL    HW223516   3.047   4.953   1.015 -1.2298 -0.2762 -1.1080
 5936SOL    HW323517   2.950   4.858   1.081  0.7193 -1.2912  0.4242
 5936SOL    MW423518   3.010   4.921   1.086 -0.2999  0.3211  1.0687
 5937SOL     OW23519   3.721   1.708   4.562 -0.1668 -0.4399  0.1197
 5937SOL    HW223520   3.776   1.631   4.572 -0.8006 -0.8774  0.2470
 5937SOL    HW323521   3.636   1.682   4.596 -0.0653  0.6922  1.2887
 5937SOL    MW423522   3.717   1.695   4.567  0.3500  0.5587  0.2500
 5938SOL     OW23523   1.535   3.144   1.371  0.0571  0.2113  0.0593
 5938SOL    HW223524   1.455   3.184   1.334 -0.4644 -1.5117 -0.7782
 5938SOL    HW323525   1.548   3.191   1.454 -1.4539  0.9812 -0.0837
 5938SOL    MW423526   1.526   3.156   1.377  0.1208  0.1071 -0.0498
 5939SOL     OW23527   3.747   3.842   4.226  0.5987  0.5902 -0.1360
 5939SOL    HW223528   3.744   3.851   4.321  1.1560  1.7881 -0.2131
 5939SOL    HW323529   3.768   3.750   4.211 -2.3301 -0.3301  0.8256
 5939SOL    MW423530   3.750   3.831   4.237  0.0465 -0.0773  0.5221
 5940SOL     OW23531   0.339   3.827   1.530 -0.1226  0.3934 -0.3894
 5940SOL    HW223532   0.284   3.766   1.579 -0.9045  0.5377 -1.0647
 5940SOL    HW323533   0.377   3.884   1.597 -0.1229 -0.2474  0.1604
 5940SOL    MW423534   0.337   3.827   1.545  0.4249 -0.3133 -0.0250
 5941SOL     OW23535   1.972   3.395   2.382  0.3571  0.0104 -0.2090
 5941SOL    HW223536   1.959   3.489   2.371  0.2548  0.2348  1.6448
 5941SOL    HW323537   1.942   3.376   2.470  0.4632 -1.7617 -0.5194
 5941SOL    MW423538   1.967   3.405   2.392 -0.4491  0.0548 -0.1454
 5942SOL     OW23539   4.016   2.324   5.386  0.3412 -0.2191  0.8456
 5942SOL    HW223540   4.090   2.263   5.390 -0.1082 -0.7833  0.6368
 5942SOL    HW323541   3.939   2.270   5.404 -0.1766  0.0775 -0.4027
 5942SOL    MW423542   4.015   2.309   5.389 -0.0239 -0.3443  0.2471
 5943SOL     OW23543   3.399   2.123   4.436 -0.5638  0.3496  0.0599
 5943SOL    HW223544   3.306   2.141   4.453 -1.0615 -1.3624 -0.6075
 5943SOL    HW323545   3.445   2.162   4.510 -2.0555 -1.0842  1.8359
 5943SOL    MW423546   3.393   2.131   4.448 -0.2208 -0.4641  0.3518
 5944SOL     OW23547   2.478   3.221   0.227  0.3460  0.0066 -0.0102
 5944SOL    HW223548   2.451   3.175   0.147  0.9944  1.4062 -1.0714
 5944SOL    HW323549   2.476   3.313   0.203  0.2295  0.4792  1.7194
 5944SOL    MW423550   2.474   3.227   0.213 -0.3193 -0.6033  0.8174
 5945SOL     OW23551   1.441   4.915   4.475 -0.1475 -0.1936 -0.1197
 5945SOL    HW223552   1.529   4.884   4.454  0.0620  1.0556 -1.1966
 5945SOL    HW323553   1.425   4.986   4.413 -2.5033 -1.3462 -0.9712
 5945SOL    MW423554   1.450   4.920   4.464 -0.4451 -0.3845  0.0242
 5946SOL     OW23555   4.780   1.629   1.928 -0.5205  0.1135  0.2867
 5946SOL    HW223556   4.724   1.562   1.966  2.0513 -1.4683  1.5769
 5946SOL    HW323557   4.816   1.587   1.849 -0.7114  0.8871 -0.2185
 5946SOL    MW423558   4.777   1.614   1.922  0.7179  0.2468  0.3331
 5947SOL     OW23559   2.174   3.621   5.029 -0.2504 -0.0683 -0.0789
 5947SOL    HW223560   2.251   3.620   4.972 -0.6480  0.4255 -0.6480
 5947SOL    HW323561   2.108   3.668   4.978 -0.6517  0.2986  0.7622
 5947SOL    MW423562   2.175   3.627   5.015  0.1726  0.4237  0.3974
 5948SOL     OW23563   1.004   0.429   2.754  0.4279  0.0552  0.1859
 5948SOL    HW223564   1.064   0.503   2.760 -1.0398  1.4611 -1.5983
 5948SOL    HW323565   1.061   0.354   2.736  1.7443  1.1825 -0.5445
 5948SOL    MW423566   1.019   0.429   2.753  0.2289  0.1294 -0.8242
 5949SOL     OW23567   3.157   2.220   4.514 -0.2500 -0.5575 -0.3177
 5949SOL    HW223568   3.208   2.278   4.571  0.1626  0.6789 -1.8338
 5949SOL    HW323569   3.079   2.199   4.564  1.1750 -1.5488  1.6346
 5949SOL    MW423570   3.154   2.225   4.528 -0.4046 -0.2250 -0.1363
 5950SOL     OW23571   1.601   5.534   3.789 -0.4316 -0.8547 -0.3744
 5950SOL    HW223572   1.668   5.596   3.759  0.3362 -0.7006  1.4726
 5950SOL    HW323573   1.607   5.461   3.728  2.8023 -1.6983  0.7460
 5950SOL    MW423574   1.611   5.533   3.777 -0.5141 -0.6576  0.0750
 5951SOL     OW23575   4.301   4.331   3.460  0.0989  0.2873 -0.4277
 5951SOL    HW223576   4.246   4.382   3.519  0.5015  1.7209 -1.2465
 5951SOL    HW323577   4.293   4.375   3.375  0.8805 -0.7100 -1.0479
 5951SOL    MW423578   4.293   4.343   3.457  0.0465 -0.2938 -0.0003
 5952SOL     OW23579   2.039   4.289   1.838  0.0910 -0.0598 -0.3141
 5952SOL    HW223580   2.014   4.377   1.812  1.6059  0.3260 -0.5756
 5952SOL    HW323581   2.058   4.244   1.755 -0.7789 -0.6756 -0.1901
 5952SOL    MW423582   2.039   4.295   1.824  0.6481 -0.3166  0.0667
 5953SOL     OW23583   5.329   1.700   2.505  0.1473 -0.2864  0.2143
 5953SOL    HW223584   5.384   1.689   2.582  0.7701 -1.9867 -0.4347
 5953SOL    HW323585   5.376   1.762   2.450  1.3697 -1.5843 -0.2515
 5953SOL    MW423586   5.342   1.707   2.508  0.0097  0.5937 -0.2392
 5954SOL     OW23587   5.277   5.671   4.771 -0.1005 -0.6106 -0.1612
 5954SOL    HW223588   5.286   5.686   4.865 -0.7769 -1.9228  0.1335
 5954SOL    HW323589   5.356   5.622   4.746 -0.6471 -1.6233  0.0480
 5954SOL    MW423590   5.289   5.667   4.780  0.2358  0.8598 -0.0370
 5955SOL     OW23591   2.514   3.037   1.442  0.1124 -0.2359 -0.4249
 5955SOL    HW223592   2.476   3.100   1.503  2.6212  0.1253  0.8857
 5955SOL    HW323593   2.461   2.958   1.453  0.9078 -0.4695  2.9479
 5955SOL    MW423594   2.502   3.035   1.452 -0.0580 -0.6076 -0.3694
 5956SOL     OW23595   0.447   5.702   3.836 -0.1889  0.0660  0.0886
 5956SOL    HW223596   0.423   5.783   3.792  0.8713  0.9791  1.1505
 5956SOL    HW323597   0.440   5.635   3.768 -0.5323  1.1246 -0.9482
 5956SOL    MW423598   0.443   5.704   3.821 -0.1481 -0.4463  0.1432
 5957SOL     OW23599   2.447   4.511   5.571 -0.3246 -0.5626 -0.0976
 5957SOL    HW223600   2.453   4.426   5.528 -0.4875  0.3040 -1.9157
 5957SOL    HW323601   2.532   4.523   5.614  0.0537 -1.2150 -0.6607
 5957SOL    MW423602   2.459   4.502   5.571 -0.1815 -0.4642 -0.1679
 5958SOL     OW23603   6.335   4.611   4.843 -0.0231 -0.3218  0.7855
 5958SOL    HW223604   6.368   4.638   4.758  0.7467  1.0573  1.4836
 5958SOL    HW323605   6.300   4.523   4.829  2.4925 -1.2279 -0.3791
 5958SOL    MW423606   6.335   4.603   4.830  0.1215 -0.2986  0.3765
 5959SOL     OW23607   5.416   1.352   2.443  0.7022  0.6498 -0.5710
 5959SOL    HW223608   5.346   1.389   2.496  0.4128  1.6305 -1.5960
 5959SOL    HW323609   5.489   1.414   2.452  0.8562  0.5080 -0.8264
 5959SOL    MW423610   5.417   1.365   2.451 -0.0743  0.2395 -0.7847
 5960SOL     OW23611   0.722   1.870   4.242  0.1021 -0.4112  0.1056
 5960SOL    HW223612   0.699   1.779   4.260 -0.6759 -0.0942  0.7507
 5960SOL    HW323613   0.680   1.889   4.159 -0.5247 -0.3567  0.4342
 5960SOL    MW423614   0.714   1.860   4.233 -0.4150  0.0468 -0.3877
 5961SOL     OW23615   6.236   0.742   5.802  0.1408  0.4351  0.2919
 5961SOL    HW223616   6.150   0.699   5.797  0.4966 -0.3196  0.5209
 5961SOL    HW323617   6.282   0.713   5.723  1.0515 -1.0997  1.3531
 5961SOL    MW423618   6.231   0.733   5.791 -0.0849 -0.0532 -0.5028
 5962SOL     OW23619   2.377   5.131   1.941  0.0829 -0.7943  1.1516
 5962SOL    HW223620   2.431   5.068   1.893  1.0968  1.1578 -0.4185
 5962SOL    HW323621   2.439   5.194   1.978 -1.0054  0.9067  0.2208
 5962SOL    MW423622   2.392   5.131   1.940  0.6763  0.4743 -0.2517
 5963SOL     OW23623   1.179   0.518   3.103 -1.0210 -0.2859 -0.4451
 5963SOL    HW223624   1.213   0.444   3.052  0.9121  1.4544 -1.7972
 5963SOL    HW323625   1.198   0.494   3.194 -0.3952 -1.4271 -0.8482
 5963SOL    MW423626   1.186   0.505   3.108 -0.2208 -0.6749 -0.2870
 5964SOL     OW23627   5.428   3.874   0.295  0.1798 -0.1499 -0.4048
 5964SOL    HW223628   5.350   3.911   0.254 -0.6290  1.1743  2.1264
 5964SOL    HW323629   5.396   3.794   0.338 -0.1765  1.1186  1.8070
 5964SOL    MW423630   5.413   3.868   0.295  0.1802  0.2678 -0.1723
 5965SOL     OW23631   2.485   3.128   6.177 -0.0013  0.0130 -0.0741
 5965SOL    HW223632   2.446   3.124   6.265 -1.0926  2.1684 -0.3863
 5965SOL    HW323633   2.411   3.115   6.118  0.7313 -1.4218 -0.7087
 5965SOL    MW423634   2.470   3.126   6.181 -0.3838 -0.3541 -0.0447
 5966SOL     OW23635   6.088   3.236   4.580  0.2551 -0.0647 -1.0444
 5966SOL    HW223636   6.004   3.204   4.613  0.2092  2.9024  2.4044
 5966SOL    HW323637   6.066   3.316   4.532  1.0042  0.6854 -0.1951
 5966SOL    MW423638   6.074   3.242   4.578  0.4441 -0.0466 -0.1193
 5967SOL     OW23639   4.058   1.512   0.092 -0.0526  0.3261 -0.2635
 5967SOL    HW223640   4.028   1.448   0.028 -0.5436 -1.0976  1.3289
 5967SOL    HW323641   4.145   1.538   0.061  1.8543 -3.8496  0.7988
 5967SOL    MW423642   4.066   1.507   0.080  0.0812 -0.5190 -0.0494
 5968SOL     OW23643   4.755   2.410   5.335  0.1045  0.1175  0.1973
 5968SOL    HW223644   4.761   2.506   5.340  1.9551  0.0284  0.3933
 5968SOL    HW323645   4.798   2.380   5.415 -0.3678 -0.8975  0.0766
 5968SOL    MW423646   4.761   2.419   5.347  0.3032  0.0009 -0.2780
 5969SOL     OW23647   4.882   3.826   1.002 -0.5255 -0.1492 -0.3725
 5969SOL    HW223648   4.787   3.836   0.999 -0.5913 -0.8253 -0.8165
 5969SOL    HW323649   4.896   3.732   0.988  0.1487 -0.2501  0.8769
 5969SOL    MW423650   4.871   3.815   1.000  0.2310 -0.3438  0.0091
 5970SOL     OW23651   2.422   3.246   3.927  0.3024 -0.3206  0.2584
 5970SOL    HW223652   2.515   3.229   3.940  0.9178  1.8967 -0.6698
 5970SOL    HW323653   2.395   3.186   3.858  1.4778  0.1633 -0.6340
 5970SOL    MW423654   2.430   3.236   3.920  0.3005 -0.6661 -0.1034
 5971SOL     OW23655   0.043   2.939   5.793  0.1983  0.4434 -0.3354
 5971SOL    HW223656   0.110   2.988   5.746 -0.3967  1.6333  0.0039
 5971SOL    HW323657   0.078   2.851   5.801  1.1636  0.7292 -1.2620
 5971SOL    MW423658   0.057   2.934   5.788  0.3858  0.2324 -0.0982
 5972SOL     OW23659   4.705   1.863   6.108  0.3152 -0.3916 -0.2747
 5972SOL    HW223660   4.785   1.863   6.055  0.8423 -2.5911  0.4470
 5972SOL    HW323661   4.736   1.852   6.198 -0.6537  2.0628  0.4468
 5972SOL    MW423662   4.720   1.862   6.113 -0.5856 -0.1588  0.4827
 5973SOL     OW23663   5.268   6.090   2.082  0.3541 -1.0186 -0.2008
 5973SOL    HW223664   5.181   6.052   2.072 -0.0715 -0.2583  0.4946
 5973SOL    HW323665   5.301   6.053   2.163  0.5159 -0.9835 -0.2499
 5973SOL    MW423666   5.261   6.080   2.091 -0.1914  0.5019  0.2706
 5974SOL     OW23667   2.788   1.761   3.186  0.2277 -0.4286  0.2688
 5974SOL    HW223668   2.770   1.669   3.165  0.0119 -0.1416 -0.8690
 5974SOL    HW323669   2.770   1.768   3.280 -0.8318 -1.2956  0.1543
 5974SOL    MW423670   2.783   1.749   3.196 -0.4494  0.9760  0.0765
 5975SOL     OW23671   3.552   3.072   3.227 -0.5290  0.5070  0.8154
 5975SOL    HW223672   3.645   3.095   3.224 -0.6270  0.8311 -0.8785
 5975SOL    HW323673   3.549   2.989   3.275  0.7959 -0.1431 -0.1622
 5975SOL    MW423674   3.564   3.064   3.233 -0.4515  0.2955  0.3709
 5976SOL     OW23675   5.288   0.700   2.150 -0.5201 -0.2549 -0.2989
 5976SOL    HW223676   5.270   0.699   2.056  0.0592  1.2655 -0.4544
 5976SOL    HW323677   5.217   0.753   2.187 -0.5751 -0.5920  0.0862
 5976SOL    MW423678   5.276   0.707   2.143  0.0088 -0.3299  0.4045
 5977SOL     OW23679   2.457   4.448   0.328  0.2158  0.1193 -0.0996
 5977SOL    HW223680   2.449   4.543   0.319 -0.1471  0.1121  0.1117
 5977SOL    HW323681   2.367   4.417   0.326  0.3363 -0.2230 -0.1847
 5977SOL    MW423682   2.444   4.457   0.327  0.4266 -0.4307 -0.0489
 5978SOL     OW23683   5.041   6.061   4.050  0.3013  0.5229 -0.1560
 5978SOL    HW223684   5.112   6.124   4.037 -0.2170  1.1899  0.1661
 5978SOL    HW323685   4.962   6.111   4.034 -0.0896 -0.4341 -1.3974
 5978SOL    MW423686   5.040   6.076   4.046 -0.6843 -0.2033 -0.3331
 5979SOL     OW23687   4.696   0.763   5.021  0.6250 -0.3391  0.2220
 5979SOL    HW223688   4.631   0.814   4.973  0.1894  0.7940  1.9111
 5979SOL    HW323689   4.763   0.742   4.956 -0.3550  0.3520 -1.0601
 5979SOL    MW423690   4.696   0.767   5.006 -0.1451 -0.2639  0.0838
 5980SOL     OW23691   4.445   5.314   2.836 -0.5626  0.2384 -0.1179
 5980SOL    HW223692   4.474   5.352   2.753  0.3389  1.2214  0.6166
 5980SOL    HW323693   4.487   5.229   2.840 -0.8439  0.0661 -0.8040
 5980SOL    MW423694   4.454   5.308   2.826  0.0610 -0.0942 -0.1323
 5981SOL     OW23695   5.577   0.040   1.326  0.2077  0.0627  0.0645
 5981SOL    HW223696   5.610   0.115   1.376  1.4565 -0.5232  0.1556
 5981SOL    HW323697   5.559  -0.026   1.393 -1.7088  0.5415  0.0695
 5981SOL    MW423698   5.579   0.041   1.342 -0.0861 -0.0314  0.1718
 5982SOL     OW23699   2.929   3.533   2.827 -0.3107 -0.6400  0.1801
 5982SOL    HW223700   2.834   3.533   2.824 -0.3957 -0.3304  1.8481
 5982SOL    HW323701   2.952   3.446   2.861 -0.1070 -0.1265  1.4172
 5982SOL    MW423702   2.920   3.521   2.831 -0.2000 -0.3402 -0.0245
 5983SOL     OW23703   0.384   4.896   5.279  0.0281 -0.0941 -0.3690
 5983SOL    HW223704   0.361   4.984   5.251 -0.8064 -0.8870 -2.3615
 5983SOL    HW323705   0.398   4.848   5.198 -0.3172 -1.9974  0.6325
 5983SOL    MW423706   0.383   4.901   5.265 -0.4314 -0.4123 -0.3060
 5984SOL     OW23707   2.798   1.859   4.876  0.0591 -0.5388  0.5490
 5984SOL    HW223708   2.707   1.877   4.899 -0.1398  1.6346 -1.5387
 5984SOL    HW323709   2.806   1.764   4.882 -2.3458 -0.7887  0.7567
 5984SOL    MW423710   2.787   1.849   4.880 -0.4166  0.1053 -0.4954
 5985SOL     OW23711   2.936   3.585   2.539  0.5965 -0.2139  0.3805
 5985SOL    HW223712   2.952   3.573   2.633  0.9116  0.5750  0.4332
 5985SOL    HW323713   2.888   3.506   2.513 -0.4249  0.0454  1.4158
 5985SOL    MW423714   2.932   3.573   2.548 -0.8813 -0.8760  0.0523
 5986SOL     OW23715   5.754   3.672   0.024  0.3276  0.6227  0.0541
 5986SOL    HW223716   5.775   3.740   0.087 -0.5059  0.2171  0.7873
 5986SOL    HW323717   5.819   3.682  -0.045  2.0361  0.3192  1.5496
 5986SOL    MW423718   5.765   3.682   0.023  0.5165  0.0811 -0.2690
 5987SOL     OW23719   2.487   3.348   5.091  0.1810 -0.1827  0.1498
 5987SOL    HW223720   2.520   3.350   5.001  0.8697  0.9759  0.4097
 5987SOL    HW323721   2.392   3.344   5.081  0.2902 -2.2636 -0.6106
 5987SOL    MW423722   2.479   3.348   5.078 -0.7346 -0.4750 -0.1280
 5988SOL     OW23723   3.859   2.193   4.899  0.2796 -0.0145  0.1831
 5988SOL    HW223724   3.825   2.168   4.986  2.4297 -0.8124  0.8689
 5988SOL    HW323725   3.856   2.112   4.848  0.3392  0.1171 -0.0303
 5988SOL    MW423726   3.854   2.179   4.904 -0.0335  0.6884  0.1323
 5989SOL     OW23727   0.437   2.860   6.152 -0.8703  0.0283  0.3593
 5989SOL    HW223728   0.475   2.775   6.176  0.7486  1.3417  2.8826
 5989SOL    HW323729   0.453   2.867   6.058 -0.4421 -2.1564  0.2111
 5989SOL    MW423730   0.444   2.850   6.142 -0.0362  0.1584 -0.7741
 5990SOL     OW23731   3.147   1.084   2.659  0.4970 -0.8591 -0.1899
 5990SOL    HW223732   3.083   1.139   2.615 -0.3087 -0.7637  1.0486
 5990SOL    HW323733   3.141   1.109   2.751  0.8934 -2.2425  0.2378
 5990SOL    MW423734   3.138   1.094   2.665 -0.5269 -0.7134  0.2704
 5991SOL     OW23735   4.397   1.688   0.909  0.2661 -1.1400  0.2588
 5991SOL    HW223736   4.462   1.632   0.952  0.2083 -2.0340 -0.7762
 5991SOL    HW323737   4.440   1.717   0.828  0.3940  0.5581  0.8926
 5991SOL    MW423738   4.412   1.685   0.904 -0.3782 -0.0924 -0.1535
 5992SOL     OW23739   6.356   0.086   5.264 -0.2954  0.0101 -0.3530
 5992SOL    HW223740   6.347   0.175   5.295 -0.4857 -0.2857  0.4557
 5992SOL    HW323741   6.400   0.039   5.335 -0.9363 -0.7228 -0.4204
 5992SOL    MW423742   6.361   0.091   5.277 -0.7966 -0.3781  0.5981
 5993SOL     OW23743   1.851   0.758   1.264  0.2463 -0.7061  0.2964
 5993SOL    HW223744   1.797   0.682   1.240 -0.9191 -0.2243  1.2880
 5993SOL    HW323745   1.801   0.802   1.333  0.2297  1.7279 -1.1588
 5993SOL    MW423746   1.837   0.754   1.270  0.4815  0.1380  0.3957
 5994SOL     OW23747   2.114   2.485   2.452 -0.1359  0.0854  0.2638
 5994SOL    HW223748   2.172   2.469   2.526  0.8941  0.9316 -0.3360
 5994SOL    HW323749   2.126   2.409   2.395  0.1771  0.1246  0.2761
 5994SOL    MW423750   2.123   2.473   2.454  0.1344 -0.0892 -0.3613
 5995SOL     OW23751   5.330   0.712   0.160 -0.3742 -0.3338  0.9539
 5995SOL    HW223752   5.316   0.617   0.153  0.6508 -0.5728  1.8244
 5995SOL    HW323753   5.272   0.740   0.230 -1.7025 -0.0543 -0.2199
 5995SOL    MW423754   5.321   0.703   0.168 -0.3562  0.0369 -0.3722
 5996SOL     OW23755   1.725   5.659   4.820  0.0603 -0.5398 -0.1328
 5996SOL    HW223756   1.712   5.575   4.776  1.6329 -0.2614 -1.2001
 5996SOL    HW323757   1.646   5.710   4.798  0.0218 -1.0267 -1.1854
 5996SOL    MW423758   1.713   5.655   4.811  0.2218  0.3797  0.3349
 5997SOL     OW23759   3.383   2.476   2.226  0.1885  0.4182  0.3414
 5997SOL    HW223760   3.297   2.471   2.268 -1.0301  0.4561 -2.0177
 5997SOL    HW323761   3.408   2.384   2.212 -0.1568  0.4129 -0.2718
 5997SOL    MW423762   3.375   2.463   2.230  0.0855 -0.2784 -0.4304
 5998SOL     OW23763   0.537   1.825   1.103 -0.4414  0.4224  0.2523
 5998SOL    HW223764   0.539   1.918   1.083 -0.4882  0.3085 -0.2803
 5998SOL    HW323765   0.528   1.782   1.018  3.9171 -0.2902 -0.0901
 5998SOL    MW423766   0.536   1.832   1.089 -0.3599 -0.4984  0.1130
 5999SOL     OW23767   0.847   4.290   5.901  0.1784 -0.0407  0.1397
 5999SOL    HW223768   0.805   4.207   5.924 -0.7320  0.5858  0.8681
 5999SOL    HW323769   0.935   4.283   5.937 -0.4536 -0.0345  1.8165
 5999SOL    MW423770   0.853   4.278   5.909 -0.4053  0.6446 -1.4687
 6000SOL     OW23771   0.494   6.390   1.563 -0.5764 -0.1950  0.2452
 6000SOL    HW223772   0.525   6.323   1.624  1.8551  1.3916  0.9188
 6000SOL    HW323773   0.410   6.419   1.598  0.4492  0.2074  2.5391
 6000SOL    MW423774   0.487   6.385   1.575  0.3478 -0.0078 -0.6268
 6001SOL     OW23775   6.084   2.774   3.577 -0.0799  0.0194  0.4955
 6001SOL    HW223776   6.003   2.723   3.574  0.5975 -1.0406 -0.2511
 6001SOL    HW323777   6.077   2.834   3.503 -0.2937  0.1182  0.5940
 6001SOL    MW423778   6.072   2.775   3.567  0.7069  0.0023  0.1376
 6002SOL     OW23779   4.133   2.718   1.557 -0.7389 -0.0539 -0.0637
 6002SOL    HW223780   4.178   2.793   1.596 -0.3108  0.7719 -2.0088
 6002SOL    HW323781   4.109   2.663   1.631  0.5627  1.1070  1.2908
 6002SOL    MW423782   4.136   2.721   1.572  0.3537  0.4745 -0.2251
 6003SOL     OW23783   3.303   1.974   3.754  0.8818 -0.4985  0.1077
 6003SOL    HW223784   3.316   1.916   3.829 -1.7127  1.1707  2.0329
 6003SOL    HW323785   3.386   2.020   3.745  0.7475  0.6741  3.3686
 6003SOL    MW423786   3.316   1.973   3.763  0.1004 -0.4777  0.8265
 6004SOL     OW23787   3.336   4.437   3.973  0.2920 -0.1431 -0.1191
 6004SOL    HW223788   3.383   4.360   4.006  1.3091  0.3963 -0.2719
 6004SOL    HW323789   3.382   4.460   3.892 -1.3218 -0.6340 -1.2148
 6004SOL    MW423790   3.348   4.430   3.966 -0.0689 -0.0849  0.0458
 6005SOL     OW23791   5.044   1.639   3.515 -0.2114  0.6224  0.6087
 6005SOL    HW223792   4.954   1.662   3.492 -0.3809 -1.3899 -0.9802
 6005SOL    HW323793   5.039   1.550   3.548  1.2937  0.1253 -0.4005
 6005SOL    MW423794   5.032   1.630   3.516  0.1239  0.2997 -0.6598
 6006SOL     OW23795   2.328   5.246   4.258 -0.2381 -0.0509 -0.4871
 6006SOL    HW223796   2.247   5.272   4.301 -0.5988 -0.6680 -0.7733
 6006SOL    HW323797   2.395   5.304   4.294 -0.5632 -0.4111  0.7292
 6006SOL    MW423798   2.326   5.257   4.268 -0.1445 -0.1307  0.5729
 6007SOL     OW23799   0.176   1.018   2.448  0.2283 -0.3434  0.0112
 6007SOL    HW223800   0.272   1.018   2.455  0.1974 -0.8192  0.5246
 6007SOL    HW323801   0.147   1.070   2.522  0.1122  0.5541 -0.6537
 6007SOL    MW423802   0.185   1.025   2.459  0.3884 -0.1171 -0.2217
 6008SOL     OW23803   1.185   1.128   6.047  0.1492  0.1315  0.3009
 6008SOL    HW223804   1.244   1.055   6.067  0.2344 -0.2977 -1.3658
 6008SOL    HW323805   1.151   1.108   5.960  0.4777  2.2810 -0.3794
 6008SOL    MW423806   1.189   1.116   6.038  0.3671  0.1745  0.2602
 6009SOL     OW23807   2.508   4.989   3.046 -0.3719  0.1393  0.1581
 6009SOL    HW223808   2.488   5.063   2.989 -0.8328  2.1229  2.7187
 6009SOL    HW323809   2.425   4.942   3.053 -0.9794  1.3058  1.0907
 6009SOL    MW423810   2.494   4.992   3.039  0.0841 -0.3495  0.3135
 6010SOL     OW23811   6.234   1.924   4.958 -0.0381 -0.2194  0.0160
 6010SOL    HW223812   6.268   1.940   4.870  0.7179 -1.4747  0.0517
 6010SOL    HW323813   6.310   1.933   5.015 -0.4196  0.0656  0.4817
 6010SOL    MW423814   6.248   1.927   4.954 -0.4305 -0.3449 -0.3671
 6011SOL     OW23815   5.503   3.650   4.903  0.3418 -0.0021  0.2499
 6011SOL    HW223816   5.546   3.678   4.984 -0.8529  0.7706  0.6453
 6011SOL    HW323817   5.495   3.730   4.851  0.1630 -0.3050 -0.1933
 6011SOL    MW423818   5.508   3.664   4.907  0.1314 -0.2960 -0.3123
 6012SOL     OW23819   3.445   5.698   5.406 -0.1984  0.1150 -0.2414
 6012SOL    HW223820   3.351   5.700   5.393 -0.2352 -1.5661 -0.4664
 6012SOL    HW323821   3.481   5.737   5.326 -0.6909  0.9713 -0.0539
 6012SOL    MW423822   3.438   5.703   5.394  0.0561  0.4103 -0.0112
 6013SOL     OW23823   5.979   6.115   5.625 -0.1012  0.6781  0.1103
 6013SOL    HW223824   5.924   6.194   5.630 -1.4882 -0.3090  1.2496
 6013SOL    HW323825   6.059   6.139   5.672 -1.4801  0.7268  2.6535
 6013SOL    MW423826   5.982   6.129   5.632  0.0609  0.3536  0.1715
 6014SOL     OW23827   5.955   2.502   0.982  0.1873 -0.1174 -0.5152
 6014SOL    HW223828   5.982   2.445   1.054  0.0891 -0.4126 -0.7146
 6014SOL    HW323829   6.025   2.567   0.976  0.4072 -0.3473 -0.4378
 6014SOL    MW423830   5.968   2.503   0.991 -0.3020 -0.3811  0.3469
 6015SOL     OW23831   2.969   2.746   6.147 -0.0765 -0.0280  0.3454
 6015SOL    HW223832   3.044   2.803   6.132  0.6075 -0.4795  1.8104
 6015SOL    HW323833   2.917   2.791   6.213 -0.7704 -0.0242 -0.1892
 6015SOL    MW423834   2.972   2.759   6.154 -0.0734 -0.0322  0.1805
 6016SOL     OW23835   6.207   2.985   5.451  0.7419 -0.1238  0.0106
 6016SOL    HW223836   6.134   2.949   5.501  1.1733  1.7511  2.1818
 6016SOL    HW323837   6.268   2.911   5.441 -0.8484 -1.3869 -0.7428
 6016SOL    MW423838   6.206   2.970   5.457  0.4353 -0.3818 -0.1680
 6017SOL     OW23839   3.788   4.147   6.172  0.0211  0.5416 -0.4994
 6017SOL    HW223840   3.811   4.157   6.080 -1.6105 -0.0409 -1.0061
 6017SOL    HW323841   3.737   4.225   6.193 -0.9339 -0.0560 -0.5474
 6017SOL    MW423842   3.785   4.158   6.162  1.0427 -0.3365 -0.8295
 6018SOL     OW23843   1.164   3.592   0.214 -0.6145  0.0935  0.6660
 6018SOL    HW223844   1.098   3.532   0.179  0.2887 -0.3982 -0.2606
 6018SOL    HW323845   1.232   3.535   0.249  0.0818  0.5607  0.1167
 6018SOL    MW423846   1.164   3.576   0.214 -0.4963 -0.0738  0.4460
 6019SOL     OW23847   3.909   4.170   3.561 -0.1281  0.3874 -0.3505
 6019SOL    HW223848   3.980   4.196   3.620 -0.2190  1.1697 -0.5707
 6019SOL    HW323849   3.830   4.176   3.615  0.1220 -2.3138  0.4512
 6019SOL    MW423850   3.908   4.174   3.576 -0.3770  0.5626 -0.1835
 6020SOL     OW23851   1.991   3.419   0.305 -0.1227 -0.3757  0.2913
 6020SOL    HW223852   1.913   3.429   0.250  0.3320 -1.2816 -0.5559
 6020SOL    HW323853   1.963   3.446   0.392 -0.7329  1.6498 -0.4642
 6020SOL    MW423854   1.977   3.424   0.309 -0.5010 -0.2893 -0.3383
 6021SOL     OW23855   2.316   1.452   4.633 -0.2635 -0.3636  0.1156
 6021SOL    HW223856   2.297   1.490   4.548 -1.4137 -0.2066  0.4357
 6021SOL    HW323857   2.303   1.523   4.695 -2.0336 -1.1156  0.6786
 6021SOL    MW423858   2.312   1.466   4.630  0.1178 -0.3517  0.0426
 6022SOL     OW23859   1.624   5.883   2.773 -0.0960 -0.6627 -0.0033
 6022SOL    HW223860   1.533   5.896   2.800  0.4596 -1.5509  2.5605
 6022SOL    HW323861   1.655   5.810   2.826  1.8423 -1.0900 -1.5867
 6022SOL    MW423862   1.616   5.875   2.784  0.8117 -0.1603 -0.2470
 6023SOL     OW23863   1.107   6.181   5.686 -0.3023  0.1287  0.2185
 6023SOL    HW223864   1.073   6.267   5.711  2.0852  1.2246 -0.0477
 6023SOL    HW323865   1.103   6.180   5.590 -0.5181 -0.1690  0.2258
 6023SOL    MW423866   1.102   6.192   5.677  0.6077 -0.2850  0.1885
 6024SOL     OW23867   0.241   0.266   5.713  0.1648 -0.1776  0.0436
 6024SOL    HW223868   0.282   0.233   5.792  0.7798 -0.4971 -0.4029
 6024SOL    HW323869   0.310   0.265   5.647  0.3445  2.3406  0.0866
 6024SOL    MW423870   0.255   0.262   5.715 -0.2265 -0.2588  0.1470
 6025SOL     OW23871   3.780   4.946   6.419 -0.0412 -0.2408  0.9022
 6025SOL    HW223872   3.854   4.972   6.474  0.8404 -0.2968 -0.2133
 6025SOL    HW323873   3.715   5.015   6.432 -1.2494 -1.7799  4.4508
 6025SOL    MW423874   3.781   4.958   6.428  0.1077 -0.0013 -0.0483
 6026SOL     OW23875   3.368   2.944   1.756 -0.4037 -0.5427  0.7272
 6026SOL    HW223876   3.461   2.923   1.762 -0.2425  0.1921  0.9772
 6026SOL    HW323877   3.341   2.910   1.671 -0.0240 -1.1976  0.8689
 6026SOL    MW423878   3.377   2.937   1.745 -0.5481 -0.5039 -0.0837
 6027SOL     OW23879   2.583   0.257   4.914 -0.1766  0.6289  0.3340
 6027SOL    HW223880   2.670   0.290   4.937  0.2765 -0.7645  0.7731
 6027SOL    HW323881   2.597   0.163   4.898 -1.4636  0.5332 -0.3558
 6027SOL    MW423882   2.596   0.249   4.915 -0.0274 -0.6026  0.0594
 6028SOL     OW23883   2.665   5.763   4.339 -0.0840 -0.0337 -0.3115
 6028SOL    HW223884   2.714   5.693   4.295 -0.7831  0.4256 -1.8979
 6028SOL    HW323885   2.672   5.837   4.279  0.1891  1.1154  1.0888
 6028SOL    MW423886   2.673   5.763   4.325  0.4222  0.4755  0.9056
 6029SOL     OW23887   1.320   0.852   3.767 -0.2722  0.3284  0.0162
 6029SOL    HW223888   1.267   0.848   3.687 -1.2641  0.6916  0.6399
 6029SOL    HW323889   1.367   0.936   3.760  1.1645 -0.5112 -1.0877
 6029SOL    MW423890   1.320   0.863   3.755  0.0667 -0.1006  0.5406
 6030SOL     OW23891   4.379   0.853   3.734 -0.2223  0.0685 -0.0183
 6030SOL    HW223892   4.355   0.922   3.672  1.0473 -0.5548 -1.2570
 6030SOL    HW323893   4.448   0.804   3.690 -1.6778 -2.5579  0.4424
 6030SOL    MW423894   4.385   0.856   3.720 -0.0476  0.3251  0.6868
 6031SOL     OW23895   4.436   3.767   5.347 -0.3615  0.0030  0.0471
 6031SOL    HW223896   4.483   3.823   5.286 -0.2214 -0.0218  0.1317
 6031SOL    HW323897   4.375   3.825   5.391 -0.0548  0.1379  0.3009
 6031SOL    MW423898   4.434   3.782   5.345 -0.5669  0.1447 -0.3260
 6032SOL     OW23899   2.966   5.698   3.878 -0.1547 -0.7995 -0.3388
 6032SOL    HW223900   3.002   5.784   3.856  1.7325 -1.0470  1.5294
 6032SOL    HW323901   2.871   5.710   3.873  0.0882  0.7854 -2.1743
 6032SOL    MW423902   2.958   5.711   3.875  0.6057  0.3829 -0.0349
 6033SOL     OW23903   4.504   3.413   4.523  0.1651 -0.1468  0.6710
 6033SOL    HW223904   4.531   3.486   4.579 -0.3215 -0.1876  0.9688
 6033SOL    HW323905   4.412   3.432   4.502  0.3264 -0.1685 -0.0633
 6033SOL    MW423906   4.495   3.425   4.528  0.1422  0.3988 -0.1479
 6034SOL     OW23907   2.136   2.438   0.895  0.0052  0.2605  0.3403
 6034SOL    HW223908   2.167   2.409   0.981 -0.9536 -1.0896  0.2678
 6034SOL    HW323909   2.042   2.421   0.897 -0.3601  1.9925 -0.3195
 6034SOL    MW423910   2.127   2.432   0.907 -0.0830 -0.0333  0.9692
 6035SOL     OW23911   1.883   2.320   2.512 -0.0917  0.8342  0.3595
 6035SOL    HW223912   1.950   2.345   2.448  0.3745  0.0861  0.5437
 6035SOL    HW323913   1.894   2.225   2.523 -1.4317  0.6311  0.1178
 6035SOL    MW423914   1.893   2.311   2.505  0.1568 -0.0037  0.3011
 6036SOL     OW23915   3.777   0.884   4.597  0.2455  0.0572  0.1423
 6036SOL    HW223916   3.698   0.886   4.544  0.9423  0.8677 -0.8817
 6036SOL    HW323917   3.745   0.869   4.686 -1.2040  2.0478  0.0196
 6036SOL    MW423918   3.763   0.882   4.602  0.1265  0.4122  0.3417
 6037SOL     OW23919   5.950   1.394   4.437  0.5051  0.0539 -0.3839
 6037SOL    HW223920   5.945   1.443   4.519  1.2300 -0.2576 -0.1373
 6037SOL    HW323921   6.044   1.387   4.420  0.6633 -3.3529  0.9436
 6037SOL    MW423922   5.962   1.399   4.446  0.1883  0.1190  0.1487
 6038SOL     OW23923   2.443   0.083   3.877  0.1219  0.0820  0.5367
 6038SOL    HW223924   2.518   0.058   3.930  0.3963  3.2155  1.8700
 6038SOL    HW323925   2.418   0.170   3.910 -3.6463 -0.4906 -0.3394
 6038SOL    MW423926   2.449   0.091   3.888 -0.6254 -0.3546 -0.4168
 6039SOL     OW23927   3.953   3.816   0.808  0.7937  0.7033  0.0016
 6039SOL    HW223928   3.874   3.763   0.812  0.2240  1.5556  0.1501
 6039SOL    HW323929   3.935   3.883   0.742  1.8262  0.2231 -0.8144
 6039SOL    MW423930   3.940   3.818   0.800  0.2580 -0.3938 -0.3013
 6040SOL     OW23931   2.848   4.293   4.395  0.0265 -0.0557  0.2528
 6040SOL    HW223932   2.833   4.377   4.352  0.5399  0.1082  0.3846
 6040SOL    HW323933   2.893   4.316   4.477  0.0290 -0.4459  0.3632
 6040SOL    MW423934   2.852   4.307   4.400 -0.4741  0.1779 -0.2586
 6041SOL     OW23935   1.628   3.875   5.377 -0.1197 -0.3196 -0.4205
 6041SOL    HW223936   1.647   3.781   5.375 -1.4856 -0.6756  1.0115
 6041SOL    HW323937   1.542   3.882   5.335  0.3349  0.4103 -1.2445
 6041SOL    MW423938   1.619   3.863   5.371  0.2346  0.3106  0.3793
 6042SOL     OW23939   2.757   4.797   6.261 -0.1596 -0.2226 -0.0795
 6042SOL    HW223940   2.796   4.884   6.267 -0.5089 -0.1322  1.0357
 6042SOL    HW323941   2.734   4.787   6.168  0.2371  0.7090 -0.2839
 6042SOL    MW423942   2.759   4.807   6.249 -0.3713  0.1124  0.2677
 6043SOL     OW23943   5.035   4.325   4.719 -0.5052 -0.0320  0.2564
 6043SOL    HW223944   5.075   4.285   4.643  2.2649  0.2918  1.4346
 6043SOL    HW323945   5.000   4.252   4.770 -0.4400 -0.4261 -0.2597
 6043SOL    MW423946   5.036   4.310   4.716  0.4416  0.5199  0.8045
 6044SOL     OW23947   4.598   6.351   5.071 -0.4800  0.0240  0.2545
 6044SOL    HW223948   4.691   6.329   5.070 -0.2427  0.8684  1.5259
 6044SOL    HW323949   4.559   6.286   5.131 -0.7234 -0.3605 -0.3159
 6044SOL    MW423950   4.605   6.339   5.079 -0.3160 -0.2797 -0.8316
 6045SOL     OW23951   0.141   1.524   4.804 -0.0944 -0.2305 -0.4210
 6045SOL    HW223952   0.089   1.463   4.856  1.4808 -0.8054  0.5685
 6045SOL    HW323953   0.086   1.544   4.728 -1.5147 -1.2002  0.2971
 6045SOL    MW423954   0.127   1.519   4.801 -0.2011  0.0525  0.9043
 6046SOL     OW23955   3.623   4.140   1.296  0.1525 -0.2924  0.1537
 6046SOL    HW223956   3.599   4.092   1.375 -0.3397  0.1636  0.2869
 6046SOL    HW323957   3.568   4.218   1.297  0.9096  0.2604 -0.0863
 6046SOL    MW423958   3.613   4.144   1.306 -0.4119  0.0812 -0.3688
 6047SOL     OW23959   4.366   3.189   5.764  0.0689 -0.3079 -0.3412
 6047SOL    HW223960   4.297   3.250   5.790 -1.0541 -1.1482 -1.2568
 6047SOL    HW323961   4.447   3.230   5.794 -0.6029  1.8784 -1.3818
 6047SOL    MW423962   4.368   3.202   5.771 -0.4935 -0.2261  0.7224
 6048SOL     OW23963   1.133   0.998   5.797  0.0633  0.0758 -0.0804
 6048SOL    HW223964   1.127   0.909   5.831  2.3252 -0.1445 -0.1093
 6048SOL    HW323965   1.042   1.029   5.796 -0.7280 -2.0268  0.3967
 6048SOL    MW423966   1.120   0.990   5.802  0.5344 -0.4773  0.0489
 6049SOL     OW23967   2.915   5.642   2.752  0.0417  0.0383  0.1262
 6049SOL    HW223968   2.878   5.714   2.802 -0.5225 -0.0268 -0.1843
 6049SOL    HW323969   3.010   5.656   2.755 -0.0753  0.9816 -0.2037
 6049SOL    MW423970   2.923   5.653   2.759  0.2913 -0.1800  0.0921
 6050SOL     OW23971   4.690   5.469   4.198  0.2195  0.1632 -0.0531
 6050SOL    HW223972   4.624   5.433   4.139  0.4859  2.1384 -1.6817
 6050SOL    HW323973   4.739   5.531   4.144  0.6656  1.8876  2.1777
 6050SOL    MW423974   4.688   5.472   4.184 -0.2838  0.3912 -0.3506
 6051SOL     OW23975   6.388   6.222   5.472 -0.6102 -0.0746  0.0407
 6051SOL    HW223976   6.466   6.178   5.439 -1.0383 -0.7213 -0.1220
 6051SOL    HW323977   6.317   6.191   5.415 -0.6614  2.1820 -1.2430
 6051SOL    MW423978   6.389   6.212   5.460 -0.1402  0.3988  0.0066
 6052SOL     OW23979   0.015   0.149   1.417  0.7179  0.2594 -0.5515
 6052SOL    HW223980   0.088   0.167   1.476  2.5379 -0.4464 -2.4535
 6052SOL    HW323981  -0.064   0.162   1.471  2.2244  0.6739  1.6814
 6052SOL    MW423982   0.014   0.153   1.432  1.0375  0.3544  0.1154
 6053SOL     OW23983   2.575   6.140   4.551  0.9387  0.3302 -0.0326
 6053SOL    HW223984   2.510   6.107   4.488  1.1142  0.6343 -0.3767
 6053SOL    HW323985   2.550   6.100   4.634 -0.1170  0.9709 -0.0118
 6053SOL    MW423986   2.563   6.130   4.554 -0.3718  0.7924  0.0384
 6054SOL     OW23987   6.249   4.094   6.420  1.0444 -0.2307 -0.3363
 6054SOL    HW223988   6.163   4.076   6.382  0.9110 -0.5128  0.0960
 6054SOL    HW323989   6.294   4.146   6.354  1.2811 -1.7714 -1.4223
 6054SOL    MW423990   6.243   4.098   6.407 -0.4600  0.2256 -0.1634
 6055SOL     OW23991   0.575   3.654   3.315 -0.1137 -0.6384  0.1939
 6055SOL    HW223992   0.659   3.637   3.358 -0.0753 -1.6402 -0.2392
 6055SOL    HW323993   0.524   3.702   3.380  0.1106 -1.6965  1.1854
 6055SOL    MW423994   0.579   3.658   3.329  0.1143 -0.7039 -0.1083
 6056SOL     OW23995   2.049   2.427   3.171 -0.1795 -0.5059 -0.2345
 6056SOL    HW223996   1.968   2.390   3.136 -0.1193  0.1398 -1.0820
 6056SOL    HW323997   2.117   2.363   3.150 -0.6565 -1.8015  1.8236
 6056SOL    MW423998   2.047   2.414   3.164 -0.5884  0.2837  0.2457
 6057SOL     OW23999   4.809   3.614   1.473 -0.4629 -0.6261 -0.7647
 6057SOL    HW224000   4.818   3.707   1.453 -0.8551 -0.2202  0.8099
 6057SOL    HW324001   4.898   3.580   1.470 -0.1072  0.1668  0.2239
 6057SOL    MW424002   4.822   3.622   1.470  0.1627  0.4098  0.8769
 6058SOL     OW24003   0.170   4.544   5.003  0.4498  0.0057  0.4454
 6058SOL    HW224004   0.217   4.627   4.990  0.0674  0.3047  0.9403
 6058SOL    HW324005   0.080   4.564   4.977  0.0473  0.1368  1.8941
 6058SOL    MW424006   0.165   4.558   4.998 -0.0313 -0.0224 -0.2882
 6059SOL     OW24007   5.569   0.539   5.938  0.1713  0.2222 -0.3992
 6059SOL    HW224008   5.620   0.603   5.888  0.3101  0.0215 -0.5184
 6059SOL    HW324009   5.478   0.558   5.916  0.1115  1.4045  0.8081
 6059SOL    MW424010   5.564   0.550   5.928 -0.2007  0.0531  0.6227
 6060SOL     OW24011   3.447   1.526   0.349 -0.2408  0.2767 -0.4594
 6060SOL    HW224012   3.379   1.464   0.376  1.2477 -1.7810 -1.2336
 6060SOL    HW324013   3.508   1.527   0.423 -1.1327  2.3280  0.3506
 6060SOL    MW424014   3.446   1.518   0.362  0.1644 -0.1386  0.5684
 6061SOL     OW24015   5.139   3.271   1.246 -0.1453 -0.1907 -0.3331
 6061SOL    HW224016   5.156   3.240   1.335  0.1141  1.6316  0.3070
 6061SOL    HW324017   5.113   3.193   1.197  3.5048 -2.0396  0.3224
 6061SOL    MW424018   5.138   3.257   1.251 -0.1412  0.2968  0.3906
 6062SOL     OW24019   0.799   0.624   0.517 -0.2846  0.4308  0.3461
 6062SOL    HW224020   0.797   0.661   0.429 -0.0726 -0.4002 -0.0114
 6062SOL    HW324021   0.785   0.700   0.575 -0.2154  1.0107 -0.3839
 6062SOL    MW424022   0.797   0.639   0.513  0.1825 -0.0184  0.5491
 6063SOL     OW24023   5.165   5.579   1.592  0.0216 -0.1782 -0.1417
 6063SOL    HW224024   5.259   5.570   1.607 -0.2129  0.8413  2.5475
 6063SOL    HW324025   5.124   5.525   1.661 -1.4189 -1.4334 -1.8726
 6063SOL    MW424026   5.172   5.570   1.603  0.1796  0.4164  0.0663
 6064SOL     OW24027   5.868   2.457   1.616  0.0238  0.4979 -0.1926
 6064SOL    HW224028   5.804   2.494   1.677 -0.6109  1.7185 -1.5518
 6064SOL    HW324029   5.869   2.364   1.636 -0.5802  0.7856  1.2973
 6064SOL    MW424030   5.860   2.450   1.627 -0.1714  0.0746  0.9881
 6065SOL     OW24031   2.487   4.416   1.874 -0.6215  0.3221  0.1531
 6065SOL    HW224032   2.459   4.326   1.890  0.3557 -0.0324 -0.0502
 6065SOL    HW324033   2.565   4.407   1.819  1.8211  1.0902  3.2448
 6065SOL    MW424034   2.493   4.403   1.869  0.0100 -0.4960 -0.2773
 6066SOL     OW24035   1.091   5.916   1.021 -0.3064 -0.2287 -0.1182
 6066SOL    HW224036   1.075   5.915   1.116  1.3074 -0.5667  0.1944
 6066SOL    HW324037   1.149   5.990   1.007 -2.1551  1.0855 -1.1973
 6066SOL    MW424038   1.097   5.925   1.032  0.4656 -0.5451 -0.1627
 6067SOL     OW24039   3.480   5.314   0.821  0.0744 -0.1328 -0.0953
 6067SOL    HW224040   3.450   5.242   0.875 -0.7160 -0.6405 -1.1644
 6067SOL    HW324041   3.452   5.393   0.867  0.6062 -0.5079  0.8882
 6067SOL    MW424042   3.472   5.315   0.834 -0.1701 -0.2068  0.2952
 6068SOL     OW24043   4.028   1.514   1.686 -0.0970 -0.5380 -0.6552
 6068SOL    HW224044   4.004   1.449   1.752  1.2378  1.3661  1.9186
 6068SOL    HW324045   3.962   1.583   1.695  1.2874  0.7515  0.3909
 6068SOL    MW424046   4.016   1.515   1.696 -0.2036  0.0135  0.1009
 6069SOL     OW24047   3.329   4.549   1.568  0.0328 -0.1055 -0.4074
 6069SOL    HW224048   3.299   4.612   1.632  1.1478  1.7714 -1.6517
 6069SOL    HW324049   3.419   4.528   1.593  1.2015  2.1682 -2.3500
 6069SOL    MW424050   3.337   4.554   1.580  0.4136 -0.0564 -0.0186
 6070SOL     OW24051   0.083   6.018   1.869  0.8204 -0.2156 -0.2163
 6070SOL    HW224052   0.024   5.981   1.802  0.4970  0.5657 -0.3699
 6070SOL    HW324053   0.165   6.033   1.823  0.6757  0.0856 -0.3815
 6070SOL    MW424054   0.086   6.015   1.854 -0.5830 -0.5305  0.6395
 6071SOL     OW24055   2.771   3.948   5.819 -0.0759  0.5996 -0.4971
 6071SOL    HW224056   2.782   3.872   5.876  0.7069  1.2825  0.2901
 6071SOL    HW324057   2.854   3.995   5.826 -0.0352  0.8070 -2.0719
 6071SOL    MW424058   2.783   3.944   5.827 -0.7928  0.4389  0.3124
 6072SOL     OW24059   1.636   1.882   4.379 -0.1941 -0.1281 -0.8523
 6072SOL    HW224060   1.644   1.910   4.470 -1.4421  0.1728 -0.8186
 6072SOL    HW324061   1.618   1.788   4.383  2.9390 -0.8309 -0.9315
 6072SOL    MW424062   1.635   1.874   4.391  0.6873 -0.0503 -0.7913
 6073SOL     OW24063   4.114   1.640   1.031  0.2233 -0.2511 -0.3635
 6073SOL    HW224064   4.206   1.623   1.010  0.6068 -0.1489  1.1132
 6073SOL    HW324065   4.118   1.699   1.107 -1.0693  0.5474 -0.8866
 6073SOL    MW424066   4.127   1.646   1.038  0.4259  0.0240  0.2091
 6074SOL     OW24067   1.153   1.139   4.548  0.1471  0.0200 -0.1736
 6074SOL    HW224068   1.093   1.134   4.474 -2.6729  3.8888  1.4773
 6074SOL    HW324069   1.116   1.080   4.614 -2.7224  2.9236  1.1209
 6074SOL    MW424070   1.141   1.131   4.547 -0.6342 -0.3941 -0.4650
 6075SOL     OW24071   5.260   4.240   6.365  0.0451  0.1382  0.2144
 6075SOL    HW224072   5.172   4.204   6.350  0.0081 -0.0857  0.9439
 6075SOL    HW324073   5.262   4.261   6.458  0.9165 -0.2587  0.2921
 6075SOL    MW424074   5.248   4.238   6.375 -0.4471 -0.3483 -0.0638
 6076SOL     OW24075   4.077   1.899   2.174  0.2190 -0.0139  0.1947
 6076SOL    HW224076   4.062   1.956   2.249  0.6486 -0.2338  0.4507
 6076SOL    HW324077   4.087   1.812   2.211 -2.3212 -0.6225 -0.3191
 6076SOL    MW424078   4.076   1.895   2.189  0.3285 -0.3111 -0.4327
 6077SOL     OW24079   2.020   0.155   0.999 -0.1113  0.2815  0.1113
 6077SOL    HW224080   2.075   0.137   0.923  1.0511 -0.0380  0.9954
 6077SOL    HW324081   2.047   0.242   1.028 -1.4376  0.9377 -0.5692
 6077SOL    MW424082   2.031   0.164   0.993 -0.0066  0.5085  0.4512
 6078SOL     OW24083   4.882   4.333   4.392  0.0255 -0.3329 -0.0552
 6078SOL    HW224084   4.861   4.246   4.357 -2.6972  0.6472 -1.0538
 6078SOL    HW324085   4.963   4.319   4.442 -0.7672 -3.6144  0.5495
 6078SOL    MW424086   4.890   4.319   4.394 -0.1723  0.0214 -0.0347
 6079SOL     OW24087   1.171   0.566   6.226  0.0245  0.5767 -0.7122
 6079SOL    HW224088   1.156   0.589   6.317 -0.6644  0.4516 -0.7932
 6079SOL    HW324089   1.251   0.512   6.228 -0.1406  0.3479 -0.1536
 6079SOL    MW424090   1.180   0.562   6.238 -0.1217 -0.2350 -0.3194
 6080SOL     OW24091   4.158   5.276   4.054 -0.6750  1.3657  0.1716
 6080SOL    HW224092   4.245   5.301   4.084 -0.1369 -1.0458  0.8707
 6080SOL    HW324093   4.173   5.233   3.969 -0.8745 -0.6469  1.0927
 6080SOL    MW424094   4.171   5.274   4.046 -0.5027  0.1496 -0.2044
 6081SOL     OW24095   4.510   4.085   5.475  0.2879  0.0392 -0.2782
 6081SOL    HW224096   4.567   4.158   5.453 -0.3318  0.5094 -0.3480
 6081SOL    HW324097   4.493   4.095   5.569  1.8940 -1.2322  0.1958
 6081SOL    MW424098   4.515   4.096   5.485  0.0391 -0.3375  0.2748
 6082SOL     OW24099   3.319   6.144   2.482 -0.3268 -0.1231 -0.1814
 6082SOL    HW224100   3.282   6.098   2.407  0.8223 -1.4286  0.0099
 6082SOL    HW324101   3.350   6.074   2.539 -1.3279  0.8237  1.6202
 6082SOL    MW424102   3.318   6.128   2.480 -0.0589 -0.3731  0.2474
 6083SOL     OW24103   1.690   5.978   1.736 -0.0984  0.4629 -0.1595
 6083SOL    HW224104   1.702   5.985   1.641 -0.3311 -3.5637 -0.6464
 6083SOL    HW324105   1.779   5.986   1.772  0.3027 -0.1784 -0.9683
 6083SOL    MW424106   1.703   5.980   1.728  0.1691 -0.2458 -0.1311
 6084SOL     OW24107   1.053   0.390   3.711 -0.0305 -0.4418 -0.2931
 6084SOL    HW224108   1.010   0.332   3.773  1.0580 -0.8591  0.1006
 6084SOL    HW324109   0.997   0.388   3.633 -1.7603  0.6076  0.8658
 6084SOL    MW424110   1.040   0.382   3.709  0.0764  0.2358  0.2592
 6085SOL     OW24111   0.052   3.494   3.096 -0.3376 -0.2512 -0.5584
 6085SOL    HW224112   0.146   3.508   3.090 -0.3617  0.1008 -0.1125
 6085SOL    HW324113   0.016   3.578   3.126 -0.8014 -0.3539 -0.8126
 6085SOL    MW424114   0.060   3.507   3.099 -0.9385  0.0373 -0.4792
 6086SOL     OW24115   4.041   2.509   0.135 -0.4228  0.0228 -0.0213
 6086SOL    HW224116   4.057   2.467   0.051  1.5019 -0.1434  0.3938
 6086SOL    HW324117   3.957   2.554   0.123 -0.5224 -0.5533 -1.7905
 6086SOL    MW424118   4.032   2.510   0.122  0.0956  0.1751 -0.2448
 6087SOL     OW24119   3.066   0.863   0.711  0.0421 -0.3272  0.4898
 6087SOL    HW224120   3.122   0.809   0.767  1.6382 -1.9755 -2.4767
 6087SOL    HW324121   2.999   0.802   0.679 -0.9885  0.6485  0.7127
 6087SOL    MW424122   3.064   0.848   0.714 -0.6529  0.5901 -0.3542
 6088SOL     OW24123   5.468   5.497   1.125 -0.4557 -0.5462  0.3282
 6088SOL    HW224124   5.493   5.521   1.036 -0.5942 -0.8103  0.2179
 6088SOL    HW324125   5.453   5.402   1.122  2.3955 -1.1435  1.2588
 6088SOL    MW424126   5.469   5.488   1.113  0.2696  0.5041 -0.5520
 6089SOL     OW24127   1.770   2.154   1.972  0.5033 -0.2819 -0.0313
 6089SOL    HW224128   1.746   2.133   2.062 -0.9081  1.0910 -0.0442
 6089SOL    HW324129   1.848   2.209   1.981  0.4259 -0.2306  0.3610
 6089SOL    MW424130   1.777   2.158   1.985  0.0400  0.2690 -0.2267
 6090SOL     OW24131   5.827   2.608   3.566  0.2161  0.5251  0.2441
 6090SOL    HW224132   5.745   2.566   3.591  0.8174  0.2319  1.8524
 6090SOL    HW324133   5.895   2.555   3.608  1.0946  2.0020  0.7724
 6090SOL    MW424134   5.825   2.595   3.575 -0.7129 -0.1646  0.1601
 6091SOL     OW24135   0.878   1.352   3.458  0.0872 -0.2883  0.5886
 6091SOL    HW224136   0.789   1.317   3.458 -0.3310  0.5657 -2.0633
 6091SOL    HW324137   0.934   1.276   3.474 -1.0118 -1.2491 -0.0043
 6091SOL    MW424138   0.874   1.337   3.460 -0.4121 -0.4268 -0.0941
 6092SOL     OW24139   3.213   4.126   1.452 -0.1148 -0.1582  0.5173
 6092SOL    HW224140   3.203   4.213   1.492  1.5988 -0.1078  0.9185
 6092SOL    HW324141   3.306   4.121   1.428 -0.5672 -1.1637 -1.2348
 6092SOL    MW424142   3.224   4.137   1.454  0.3276 -0.1638  0.2126
 6093SOL     OW24143   3.878   5.754   2.260 -0.1160 -0.8851 -0.3441
 6093SOL    HW224144   3.845   5.664   2.258 -0.5879 -0.8191  1.8147
 6093SOL    HW324145   3.802   5.806   2.286  0.6248 -0.1379  0.3819
 6093SOL    MW424146   3.863   5.749   2.263 -0.0905  0.8265  0.2308
 6094SOL     OW24147   0.059   6.162   0.128 -0.6710 -0.0755  0.3136
 6094SOL    HW224148   0.104   6.094   0.078 -0.5856  1.6039 -2.0081
 6094SOL    HW324149   0.104   6.243   0.105 -0.2327  0.7702  3.6452
 6094SOL    MW424150   0.071   6.164   0.119 -0.0642 -1.0686  0.4538
 6095SOL     OW24151   5.658   0.892   4.825  0.1125 -0.1437  0.6053
 6095SOL    HW224152   5.619   0.979   4.835 -0.4605 -0.4657  1.2247
 6095SOL    HW324153   5.696   0.893   4.737  0.4970  0.8812  0.7702
 6095SOL    MW424154   5.658   0.904   4.815  0.7289  0.2735  0.0967
 6096SOL     OW24155   6.155   3.622   3.694 -0.1332 -0.0929 -0.1774
 6096SOL    HW224156   6.220   3.622   3.764  1.5916  0.9012 -1.6812
 6096SOL    HW324157   6.115   3.709   3.698 -2.0278 -0.9518  1.2247
 6096SOL    MW424158   6.159   3.634   3.704  0.0934 -0.0387 -0.4090
 6097SOL     OW24159   3.218   2.522   3.524 -0.2713 -0.4063 -0.6770
 6097SOL    HW224160   3.192   2.487   3.438 -2.2113 -1.0034  0.0939
 6097SOL    HW324161   3.189   2.455   3.586  1.6690 -0.2757  0.4470
 6097SOL    MW424162   3.211   2.508   3.521  0.0601 -0.3458  0.1299
 6098SOL     OW24163   0.618   2.521   0.175 -0.1314  0.4547  0.3738
 6098SOL    HW224164   0.662   2.437   0.185 -2.2874 -0.6319  1.3662
 6098SOL    HW324165   0.525   2.500   0.180 -0.7968  2.7142 -0.9927
 6098SOL    MW424166   0.612   2.507   0.177  0.1797  0.1840  0.8319
 6099SOL     OW24167   1.541   2.340   5.153  0.3689 -0.6019 -0.5914
 6099SOL    HW224168   1.453   2.326   5.117  1.2670  2.6630 -4.8401
 6099SOL    HW324169   1.592   2.264   5.122 -0.4374 -1.4994  0.2039
 6099SOL    MW424170   1.536   2.328   5.144 -1.1595 -0.2153  0.8190
 6100SOL     OW24171   2.756   5.511   0.092  0.4196  0.4613  0.4579
 6100SOL    HW224172   2.699   5.522   0.016 -0.8646 -1.0811  1.1182
 6100SOL    HW324173   2.790   5.422   0.084  0.1937  0.2400  1.7151
 6100SOL    MW424174   2.753   5.501   0.081  0.0705 -0.4949  0.1997
 6101SOL     OW24175   3.067   3.291   2.882 -0.1166 -0.0495 -0.2316
 6101SOL    HW224176   3.109   3.299   2.968  2.3500  0.3517 -1.4113
 6101SOL    HW324177   3.067   3.197   2.864  0.6835 -0.0149 -0.4155
 6101SOL    MW424178   3.072   3.279   2.891 -0.0105 -0.0772 -0.2345
 6102SOL     OW24179   0.183   2.267   3.137  0.8790  0.0469  0.5347
 6102SOL    HW224180   0.241   2.268   3.062 -0.4201  0.4304 -0.5006
 6102SOL    HW324181   0.241   2.256   3.213  2.1685 -0.8191 -0.5407
 6102SOL    MW424182   0.198   2.266   3.137  0.0013  0.0985 -0.4748
 6103SOL     OW24183   3.808   3.204   4.294  0.3734  0.0322 -0.1566
 6103SOL    HW224184   3.895   3.165   4.280 -0.0294 -0.4834 -1.4229
 6103SOL    HW324185   3.748   3.130   4.294 -0.0568  0.3641  0.9889
 6103SOL    MW424186   3.812   3.189   4.292  0.5773 -0.0852  0.5706
 6104SOL     OW24187   2.176   1.786   2.249 -0.4659 -0.5401 -0.2930
 6104SOL    HW224188   2.098   1.777   2.194  0.5358 -1.1331 -1.6972
 6104SOL    HW324189   2.234   1.716   2.219  1.7724  1.6289 -1.3871
 6104SOL    MW424190   2.173   1.776   2.238  0.1101 -0.1166 -0.5206
 6105SOL     OW24191   4.237   1.943   1.699 -0.4286  0.2116 -0.2923
 6105SOL    HW224192   4.207   2.006   1.764 -1.1706 -1.2248  0.8179
 6105SOL    HW324193   4.159   1.923   1.647 -0.1430  0.3726 -0.7896
 6105SOL    MW424194   4.223   1.948   1.701  0.1150 -0.0630  0.2543
 6106SOL     OW24195   5.606   2.677   1.448  0.1385  0.3502  0.2909
 6106SOL    HW224196   5.577   2.638   1.365  0.5618  0.0285  0.2911
 6106SOL    HW324197   5.526   2.711   1.488 -0.0165  0.8424 -0.4243
 6106SOL    MW424198   5.592   2.676   1.442 -0.7189 -1.1614 -0.2175
 6107SOL     OW24199   1.710   5.561   2.675 -0.5747 -0.0871 -0.1541
 6107SOL    HW224200   1.671   5.588   2.758 -0.1603 -0.8978  0.3133
 6107SOL    HW324201   1.645   5.502   2.636 -0.9716  0.6404 -0.6413
 6107SOL    MW424202   1.696   5.557   2.681 -0.1842  0.2187  0.0401
 6108SOL     OW24203   2.307   6.311   6.166  0.0281 -0.3765 -0.2341
 6108SOL    HW224204   2.292   6.405   6.156  1.4014 -0.1895 -0.7805
 6108SOL    HW324205   2.341   6.283   6.081  0.4698 -1.1841  0.1960
 6108SOL    MW424206   2.309   6.320   6.154  0.1961  0.2436 -0.0873
 6109SOL     OW24207   5.756   0.535   2.711 -0.0049  0.0021  0.0564
 6109SOL    HW224208   5.822   0.492   2.658 -1.6622 -2.2230 -0.3243
 6109SOL    HW324209   5.797   0.545   2.797  1.5077  0.6020 -0.6847
 6109SOL    MW424210   5.770   0.531   2.716 -0.7524 -0.3304 -0.6721
 6110SOL     OW24211   6.430   0.202   1.902  0.5814  0.2287  0.0416
 6110SOL    HW224212   6.339   0.230   1.907  1.3027  2.9828 -0.3985
 6110SOL    HW324213   6.464   0.245   1.824  2.4051 -0.2359  0.5294
 6110SOL    MW424214   6.423   0.211   1.893 -0.3436  0.2947  0.0801
 6111SOL     OW24215   5.850   6.140   4.833 -0.2769 -1.0451  0.7475
 6111SOL    HW224216   5.902   6.214   4.867  0.4790 -1.0096 -0.4391
 6111SOL    HW324217   5.862   6.144   4.739 -0.3472 -2.6190  0.6573
 6111SOL    MW424218   5.858   6.150   4.825  0.4926  0.1251 -0.0135
 6112SOL     OW24219   1.426   1.263   2.364  0.3336  0.1075 -0.3692
 6112SOL    HW224220   1.420   1.175   2.329  1.7044  0.3959 -1.3953
 6112SOL    HW324221   1.356   1.311   2.321  0.8765  0.0094 -1.4063
 6112SOL    MW424222   1.416   1.258   2.354 -0.0389 -0.1793  0.2499
 6113SOL     OW24223   3.686   0.760   6.241 -0.4053  0.2636 -0.0973
 6113SOL    HW224224   3.596   0.758   6.210 -0.8082 -1.0048  1.0304
 6113SOL    HW324225   3.736   0.801   6.170 -2.0222  2.0927 -0.2487
 6113SOL    MW424226   3.681   0.765   6.228 -0.3551  0.1742  0.2718
 6114SOL     OW24227   0.727   5.424   1.621 -0.5165 -0.0372 -0.6753
 6114SOL    HW224228   0.752   5.333   1.636 -0.2812  0.0012 -0.8296
 6114SOL    HW324229   0.631   5.423   1.622 -0.5157 -0.2909 -0.7154
 6114SOL    MW424230   0.718   5.412   1.623 -0.2068 -0.0408 -0.1387
 6115SOL     OW24231   0.844   0.183   6.377 -0.2675 -0.1230 -0.3693
 6115SOL    HW224232   0.893   0.103   6.396 -0.2830  0.0014  0.2230
 6115SOL    HW324233   0.890   0.222   6.302  0.2821 -0.2288 -0.0960
 6115SOL    MW424234   0.857   0.177   6.370  0.4373 -0.0671 -0.1224
 6116SOL     OW24235   0.805   4.854   2.459  0.3621 -0.1208  0.2038
 6116SOL    HW224236   0.747   4.819   2.527 -0.0219 -0.5252 -0.3195
 6116SOL    HW324237   0.812   4.783   2.395  0.1903  0.4873 -0.5009
 6116SOL    MW424238   0.798   4.840   2.459 -0.4504  0.3630  0.1628
 6117SOL     OW24239   2.864   3.741   1.906  0.2698  0.9076 -0.1820
 6117SOL    HW224240   2.855   3.656   1.862  0.0968  0.7261  0.1971
 6117SOL    HW324241   2.842   3.805   1.840  0.9456  0.6826 -0.6372
 6117SOL    MW424242   2.860   3.738   1.892  0.8110 -0.2502  0.1454
 6118SOL     OW24243   3.611   1.578   1.251  0.0624  0.3208  0.5626
 6118SOL    HW224244   3.700   1.610   1.267  0.9025 -2.8100  3.4670
 6118SOL    HW324245   3.561   1.656   1.231  2.2638  3.3015  4.9710
 6118SOL    MW424246   3.617   1.592   1.251 -0.0009  0.2920 -0.2202
 6119SOL     OW24247   1.313   0.290   0.136 -0.4918 -0.3564  0.5172
 6119SOL    HW224248   1.348   0.374   0.107  1.7947 -0.9328  1.4158
 6119SOL    HW324249   1.320   0.292   0.231 -2.0144 -0.9398  0.6719
 6119SOL    MW424250   1.318   0.301   0.145  0.5307  0.4641  0.3001
 6120SOL     OW24251   1.885   0.848   2.403  0.1154  0.0395 -0.4267
 6120SOL    HW224252   1.953   0.915   2.408 -0.2880  0.3677  2.9657
 6120SOL    HW324253   1.875   0.831   2.309  4.4510  0.3053 -1.1444
 6120SOL    MW424254   1.893   0.855   2.391  0.0547  0.4094  0.2880
 6121SOL     OW24255   5.062   5.709   6.157 -0.3946  0.4405  0.6256
 6121SOL    HW224256   5.015   5.634   6.120  2.0793 -0.9567  0.0608
 6121SOL    HW324257   5.071   5.689   6.250 -0.5575  0.5290  0.6620
 6121SOL    MW424258   5.057   5.696   6.164 -0.1750  0.1192  0.4226
 6122SOL     OW24259   6.374   1.992   4.485 -0.4090 -1.0247  0.2778
 6122SOL    HW224260   6.349   1.910   4.443  0.9560 -0.7470 -1.1710
 6122SOL    HW324261   6.344   2.061   4.426  2.3080 -0.6530 -0.8176
 6122SOL    MW424262   6.367   1.990   4.472 -0.0500  0.2250  0.3840
 6123SOL     OW24263   3.579   5.150   0.089  0.0083 -0.7077  0.0338
 6123SOL    HW224264   3.580   5.228   0.145 -0.9789  1.1396 -2.3538
 6123SOL    HW324265   3.508   5.096   0.124 -0.5978  0.3923  0.5485
 6123SOL    MW424266   3.570   5.153   0.101 -0.3824  0.3346  1.1529
 6124SOL     OW24267   6.368   2.508   2.104  0.2087 -0.0077  0.5737
 6124SOL    HW224268   6.279   2.541   2.104 -0.4179 -1.5476 -0.6733
 6124SOL    HW324269   6.359   2.414   2.121  1.4051 -0.5424 -1.4085
 6124SOL    MW424270   6.355   2.500   2.106 -0.4757 -0.2243  0.2796
 6125SOL     OW24271   1.753   3.935   0.368  0.2561  0.1471 -0.9648
 6125SOL    HW224272   1.725   3.970   0.283  1.0456  1.1124 -0.8437
 6125SOL    HW324273   1.849   3.939   0.365  0.2937  1.5307  0.4888
 6125SOL    MW424274   1.762   3.940   0.356 -0.5927  0.0106 -0.2499
 6126SOL     OW24275   3.170   1.302   2.335 -0.4191  0.4672  0.3668
 6126SOL    HW224276   3.146   1.330   2.246  0.5638 -2.5364 -0.9628
 6126SOL    HW324277   3.265   1.312   2.338 -0.3936  0.0623  0.8862
 6126SOL    MW424278   3.179   1.307   2.323  0.3856 -0.4527  0.4811
 6127SOL     OW24279   0.264   3.379   2.348 -0.0429 -0.2173 -0.1870
 6127SOL    HW224280   0.311   3.442   2.293 -0.9471  0.4452 -0.2380
 6127SOL    HW324281   0.265   3.417   2.435 -1.2536  0.2934 -0.3630
 6127SOL    MW424282   0.270   3.392   2.352  0.4299  0.3925 -0.1091
 6128SOL     OW24283   4.547   4.318   1.215  0.3281  0.8972  0.3289
 6128SOL    HW224284   4.596   4.252   1.165 -0.7984  0.6372 -0.4701
 6128SOL    HW324285   4.511   4.376   1.149 -0.5026  1.0407  0.8949
 6128SOL    MW424286   4.549   4.317   1.200 -0.1765 -0.7530  0.0873
 6129SOL     OW24287   2.892   3.289   5.206  0.1770  0.1205  0.1254
 6129SOL    HW224288   2.818   3.253   5.254 -0.2755  0.5490 -0.2349
 6129SOL    HW324289   2.937   3.213   5.170  0.9577 -0.2580  1.8064
 6129SOL    MW424290   2.889   3.275   5.207 -0.4982 -0.5116 -0.8085
 6130SOL     OW24291   5.559   1.948   5.634 -0.2010 -0.5090 -0.1095
 6130SOL    HW224292   5.541   1.881   5.569 -2.2714 -0.9297  0.8303
 6130SOL    HW324293   5.632   1.998   5.598 -1.1869 -0.8030 -2.6590
 6130SOL    MW424294   5.567   1.946   5.621  0.3883  0.2801  0.1640
 6131SOL     OW24295   3.666   3.794   1.204 -0.3399  0.4410 -0.0965
 6131SOL    HW224296   3.758   3.771   1.203 -0.3222  0.4730  0.3897
 6131SOL    HW324297   3.661   3.876   1.154 -0.2480 -0.0364 -0.9032
 6131SOL    MW424298   3.677   3.802   1.197  0.2392 -0.2427  0.6105
 6132SOL     OW24299   2.150   4.789   3.484 -0.5205 -0.7135 -0.0024
 6132SOL    HW224300   2.090   4.736   3.536 -3.7192  0.6903 -1.9227
 6132SOL    HW324301   2.145   4.751   3.396  1.2344 -0.3756 -0.2734
 6132SOL    MW424302   2.141   4.777   3.479 -0.6672  0.2126  0.3393
 6133SOL     OW24303   0.891   0.864   3.331 -0.7847  0.0446 -0.4591
 6133SOL    HW224304   0.856   0.776   3.342 -1.5603  0.3422 -0.4466
 6133SOL    HW324305   0.814   0.921   3.334 -0.0655  1.0148  2.4599
 6133SOL    MW424306   0.876   0.860   3.333 -0.1696  0.6301  0.4679
 6134SOL     OW24307   6.158   5.122   2.829 -0.1602  0.3935  0.4274
 6134SOL    HW224308   6.198   5.105   2.744  2.4950  2.9518  0.9913
 6134SOL    HW324309   6.072   5.159   2.809 -0.1636 -0.3684 -1.0611
 6134SOL    MW424310   6.152   5.125   2.815 -0.0681  0.1634  0.1452
 6135SOL     OW24311   3.548   2.521   6.387  1.0743  0.2536  0.0683
 6135SOL    HW224312   3.492   2.463   6.438 -0.3009 -0.5902 -2.2369
 6135SOL    HW324313   3.519   2.609   6.411 -0.1520 -0.1413  0.1069
 6135SOL    MW424314   3.536   2.525   6.397 -0.2017 -0.1499  0.4000
 6136SOL     OW24315   4.029   2.839   3.331 -0.4188 -0.5367 -1.0319
 6136SOL    HW224316   4.114   2.805   3.302 -0.3224  0.3200 -1.7938
 6136SOL    HW324317   4.026   2.929   3.298 -1.5173 -0.4658 -0.7917
 6136SOL    MW424318   4.040   2.846   3.323 -0.1657 -0.2786  0.3332
 6137SOL     OW24319   1.911   0.024   4.219  0.0067 -0.9710 -1.1918
 6137SOL    HW224320   1.886  -0.015   4.135  0.2824  0.2057 -1.8370
 6137SOL    HW324321   1.849   0.095   4.232  0.2492 -0.8581 -0.6139
 6137SOL    MW424322   1.899   0.028   4.209 -0.8211 -0.1597  0.6151
 6138SOL     OW24323   0.853   0.366   0.160  0.2264  0.4011 -0.6262
 6138SOL    HW224324   0.848   0.297   0.093  1.3922  0.8818 -1.2366
 6138SOL    HW324325   0.893   0.322   0.235  3.9813  1.0350 -2.0352
 6138SOL    MW424326   0.858   0.351   0.161  0.1545  0.1989 -0.9990
 6139SOL     OW24327   2.432   1.410   5.530  0.4632  0.4169  0.1228
 6139SOL    HW224328   2.455   1.352   5.457 -1.3330 -0.3168  0.0676
 6139SOL    HW324329   2.456   1.497   5.500  0.9172 -0.0210 -0.8270
 6139SOL    MW424330   2.438   1.414   5.516 -0.3136 -0.3743  0.0542
 6140SOL     OW24331   2.085   1.804   4.702  0.2144 -0.3219 -0.3274
 6140SOL    HW224332   2.158   1.770   4.755  1.1265 -1.3323 -2.1416
 6140SOL    HW324333   2.050   1.877   4.754  2.8616  0.5553  0.3918
 6140SOL    MW424334   2.090   1.809   4.716 -0.1946  0.1130  0.3722
 6141SOL     OW24335   5.674   4.577   1.706 -0.0883  0.3303 -0.3139
 6141SOL    HW224336   5.630   4.634   1.643  2.0479  1.1492 -1.1608
 6141SOL    HW324337   5.636   4.600   1.790  0.5900  2.9584 -0.6461
 6141SOL    MW424338   5.664   4.587   1.709 -0.2504 -0.4598 -0.3897
 6142SOL     OW24339   1.090   3.126   6.227 -0.1389  0.0476  0.2878
 6142SOL    HW224340   1.172   3.163   6.195 -0.1017 -0.4606 -0.2241
 6142SOL    HW324341   1.112   3.088   6.312  0.4335 -1.0842 -0.3448
 6142SOL    MW424342   1.104   3.126   6.234 -0.0692 -0.2484 -0.0633
 6143SOL     OW24343   5.914   2.391   5.957 -0.6523  0.0897 -0.1102
 6143SOL    HW224344   5.840   2.448   5.941  0.8150  1.8110 -1.0787
 6143SOL    HW324345   5.928   2.344   5.875  1.1874  2.1125 -1.0621
 6143SOL    MW424346   5.906   2.392   5.944 -0.2860  0.2482 -0.2745
 6144SOL     OW24347   3.938   1.419   1.429  0.6542  0.3839  0.3868
 6144SOL    HW224348   3.943   1.443   1.522 -0.9398  0.7611  0.3958
 6144SOL    HW324349   4.006   1.352   1.418  0.2249 -0.3851  2.0616
 6144SOL    MW424350   3.948   1.413   1.440 -0.1072 -0.2843  0.5132
 6145SOL     OW24351   0.207   4.877   4.645 -0.2792  0.6041 -0.5102
 6145SOL    HW224352   0.147   4.939   4.687  0.0936 -1.0922  2.8930
 6145SOL    HW324353   0.152   4.802   4.623  0.0739  0.1870 -0.0037
 6145SOL    MW424354   0.192   4.875   4.647  0.5620 -0.6768 -0.4464
 6146SOL     OW24355   0.500   0.685   3.100  0.7912  0.0591 -0.4864
 6146SOL    HW224356   0.436   0.742   3.057 -0.6543 -1.2222 -0.1314
 6146SOL    HW324357   0.464   0.671   3.188  1.7425 -0.4303 -0.1614
 6146SOL    MW424358   0.487   0.690   3.106  0.3463  0.4546 -0.1381
 6147SOL     OW24359   2.639   4.302   0.176 -0.0907  0.0397 -0.1328
 6147SOL    HW224360   2.662   4.244   0.249  2.3144  2.9799  1.7021
 6147SOL    HW324361   2.572   4.360   0.212 -1.9212 -1.0194 -1.6896
 6147SOL    MW424362   2.633   4.302   0.191  0.5448 -0.5322 -0.1382
 6148SOL     OW24363   3.013   3.974   1.068  0.2480 -0.5832 -0.7698
 6148SOL    HW224364   2.938   4.017   1.028 -1.0595  0.3934  2.4347
 6148SOL    HW324365   2.999   3.880   1.052 -2.6992 -0.5869  1.2121
 6148SOL    MW424366   3.001   3.967   1.061 -0.5278 -0.3117  0.2232
 6149SOL     OW24367   0.351   4.505   0.799  0.5246  0.9742  0.0083
 6149SOL    HW224368   0.406   4.452   0.857 -1.4474 -0.1852  0.8924
 6149SOL    HW324369   0.363   4.595   0.831  1.5002  0.6875  0.4897
 6149SOL    MW424370   0.360   4.510   0.811 -0.1664  0.5612 -0.0425
 6150SOL     OW24371   0.295   2.525   1.367  0.5180  0.5862 -0.7263
 6150SOL    HW224372   0.213   2.478   1.378  1.8558 -1.4230  1.6738
 6150SOL    HW324373   0.301   2.583   1.443  1.8746 -0.2381 -0.1729
 6150SOL    MW424374   0.285   2.527   1.378  0.1888 -0.4732  0.1497
 6151SOL     OW24375   0.126   3.254   0.277 -0.3217 -0.2169  0.1097
 6151SOL    HW224376   0.130   3.160   0.297  1.5723 -0.4429 -1.0996
 6151SOL    HW324377   0.214   3.286   0.297 -0.4663  0.9558 -1.0515
 6151SOL    MW424378   0.138   3.246   0.282 -0.3227 -0.4239  0.6866
 6152SOL     OW24379   1.309   2.042   2.043 -0.4570 -0.1266  0.6884
 6152SOL    HW224380   1.214   2.053   2.052 -0.7698 -0.2559 -1.8289
 6152SOL    HW324381   1.319   1.962   1.991  1.0642 -0.1521  0.9736
 6152SOL    MW424382   1.297   2.033   2.038 -0.1441  0.1298  0.2182
 6153SOL     OW24383   3.348   4.196   3.226  0.1842  0.6639 -0.7790
 6153SOL    HW224384   3.274   4.207   3.286  1.3206 -0.9209  1.0085
 6153SOL    HW324385   3.425   4.209   3.281  1.2607 -0.3988 -1.9867
 6153SOL    MW424386   3.348   4.199   3.241 -0.1309 -0.1736  0.0189
 6154SOL     OW24387   0.392   3.734   3.523 -0.0343 -0.5397 -0.0815
 6154SOL    HW224388   0.399   3.704   3.613 -0.5194 -0.0291  0.1285
 6154SOL    HW324389   0.440   3.817   3.521 -1.0796  0.0943  0.0213
 6154SOL    MW424390   0.399   3.741   3.534  0.3220 -0.2154  0.0249
 6155SOL     OW24391   2.518   2.840   1.869 -0.6916 -0.1879 -0.5455
 6155SOL    HW224392   2.590   2.902   1.860 -1.0901  0.4638  0.5530
 6155SOL    HW324393   2.474   2.866   1.950 -3.2272  0.5382 -2.0482
 6155SOL    MW424394   2.522   2.851   1.879 -0.0477 -0.3144  0.0693
 6156SOL     OW24395   3.185   5.438   0.178 -0.2769 -0.0197  0.4586
 6156SOL    HW224396   3.239   5.376   0.227 -0.2196 -0.8165 -0.5698
 6156SOL    HW324397   3.235   5.456   0.098  0.7321  3.0410  1.6223
 6156SOL    MW424398   3.199   5.433   0.174  0.2495 -0.2798 -0.3019
 6157SOL     OW24399   3.742   4.274   4.010 -0.0664  0.5652 -0.3039
 6157SOL    HW224400   3.696   4.229   3.939  0.4911  0.5775 -0.6833
 6157SOL    HW324401   3.780   4.203   4.062 -1.5889  0.4951  0.7812
 6157SOL    MW424402   3.741   4.259   4.007 -0.2763 -0.0787  0.3910
 6158SOL     OW24403   6.043   0.673   5.091 -0.2001  0.1595 -0.0853
 6158SOL    HW224404   5.961   0.699   5.049 -0.4513  2.0360  1.3911
 6158SOL    HW324405   6.034   0.579   5.106 -1.2634 -0.0186 -1.6254
 6158SOL    MW424406   6.031   0.664   5.087 -0.1249 -0.0750  0.2994
 6159SOL     OW24407   2.610   2.183   2.905 -0.3927 -0.0496  0.5067
 6159SOL    HW224408   2.530   2.130   2.912 -2.5671  2.8102 -0.4752
 6159SOL    HW324409   2.664   2.155   2.979 -1.9928 -2.5468  0.8615
 6159SOL    MW424410   2.606   2.172   2.916 -0.3233  0.6937  0.2289
 6160SOL     OW24411   3.454   4.602   3.431  0.1669 -0.0666 -0.0141
 6160SOL    HW224412   3.396   4.632   3.361  1.6504 -0.4232 -1.4635
 6160SOL    HW324413   3.419   4.516   3.456 -0.0587 -0.1882 -0.7225
 6160SOL    MW424414   3.441   4.594   3.425  0.4348  0.1706  0.3242
 6161SOL     OW24415   4.017   2.734   6.019 -0.7663 -0.2696  0.0780
 6161SOL    HW224416   3.928   2.746   6.051 -0.2295 -2.0639  2.4910
 6161SOL    HW324417   4.069   2.720   6.098  1.1312 -2.3424 -1.4292
 6161SOL    MW424418   4.012   2.734   6.034  0.1393 -0.3874 -0.3089
 6162SOL     OW24419   0.291   5.595   6.224 -0.0270  0.5825 -0.4464
 6162SOL    HW224420   0.314   5.503   6.233  1.2755  0.7761 -1.4637
 6162SOL    HW324421   0.197   5.595   6.204 -0.1548 -0.4795  0.0923
 6162SOL    MW424422   0.282   5.583   6.223 -0.1000  0.2358  0.2767
 6163SOL     OW24423   5.896   0.363   1.530  0.5356  0.0929 -0.3207
 6163SOL    HW224424   5.942   0.300   1.585 -1.0465 -0.7572  0.1185
 6163SOL    HW324425   5.924   0.342   1.441  0.9001 -0.4857 -0.0777
 6163SOL    MW424426   5.905   0.352   1.525  0.2592  1.1136 -0.0686
 6164SOL     OW24427   0.231   6.354   0.707  0.3037  0.4925 -0.0281
 6164SOL    HW224428   0.177   6.302   0.767 -0.5178  1.0027 -0.3129
 6164SOL    HW324429   0.181   6.357   0.626  1.2259  0.1496 -0.6190
 6164SOL    MW424430   0.217   6.348   0.704  0.2221  0.0330 -0.7795
 6165SOL     OW24431   4.365   0.489   4.314  0.2832 -0.0357  0.3165
 6165SOL    HW224432   4.282   0.456   4.281  0.1840  1.0082 -0.5776
 6165SOL    HW324433   4.342   0.568   4.363  0.8012  0.8718 -0.8394
 6165SOL    MW424434   4.351   0.495   4.316  0.0887  0.4140  0.3096
 6166SOL     OW24435   2.090   1.397   0.368 -0.1291  0.1610  0.0626
 6166SOL    HW224436   2.070   1.491   0.365  1.1973  0.4382 -2.3761
 6166SOL    HW324437   2.177   1.390   0.328  0.2836 -2.0147  1.2158
 6166SOL    MW424438   2.099   1.409   0.362 -0.2459 -0.2033 -0.3045
 6167SOL     OW24439   4.817   3.866   1.338 -0.3709 -0.6187  0.2618
 6167SOL    HW224440   4.732   3.895   1.305 -0.0736  0.5231  0.4660
 6167SOL    HW324441   4.880   3.895   1.272  0.1137  0.7657  1.2953
 6167SOL    MW424442   4.814   3.874   1.325  0.5183  0.3567  0.0843
 6168SOL     OW24443   0.557   3.430   3.886  0.0956 -0.1255  0.0152
 6168SOL    HW224444   0.610   3.352   3.904  1.9965  0.6911 -1.6344
 6168SOL    HW324445   0.581   3.492   3.955  0.0102 -0.3498  0.2455
 6168SOL    MW424446   0.567   3.428   3.898  0.3163  0.3208 -0.0262
 6169SOL     OW24447   5.780   1.223   1.752 -0.1456 -0.0238 -0.0860
 6169SOL    HW224448   5.767   1.129   1.766 -1.4777  0.4178  2.2920
 6169SOL    HW324449   5.840   1.249   1.821  1.5611  0.6430 -1.7542
 6169SOL    MW424450   5.786   1.214   1.763  0.0218 -0.2386 -0.0125
 6170SOL     OW24451   2.227   4.521   6.397  0.4826 -0.3179 -0.0863
 6170SOL    HW224452   2.216   4.575   6.318  1.4789  0.8415  0.5267
 6170SOL    HW324453   2.321   4.528   6.417  0.4667 -1.6136  0.5032
 6170SOL    MW424454   2.238   4.529   6.389  0.9228 -0.7349  0.4107
 6171SOL     OW24455   4.742   1.851   5.198 -0.2307 -0.2606  0.2055
 6171SOL    HW224456   4.757   1.778   5.258 -0.3627  0.6006  1.3283
 6171SOL    HW324457   4.697   1.812   5.123 -0.8182 -1.2311  1.0365
 6171SOL    MW424458   4.738   1.837   5.196  0.8374  0.0396 -0.4140
 6172SOL     OW24459   3.628   6.118   5.296  0.4916 -0.3752  0.1236
 6172SOL    HW224460   3.562   6.097   5.230 -0.1358  0.6563  0.3931
 6172SOL    HW324461   3.623   6.046   5.359  0.6926 -1.0700 -0.6498
 6172SOL    MW424462   3.619   6.106   5.296 -0.1309  0.1578  0.1839
 6173SOL     OW24463   0.013   0.097   1.093  0.3511 -0.4742 -0.0780
 6173SOL    HW224464   0.098   0.114   1.133 -0.8152  0.4967  2.1858
 6173SOL    HW324465   0.028   0.104   0.999  2.4436  1.2083  0.3277
 6173SOL    MW424466   0.026   0.100   1.086 -0.2537  0.3312 -0.6922
 6174SOL     OW24467   2.890   0.249   1.393  0.7147 -0.4653 -0.1623
 6174SOL    HW224468   2.872   0.279   1.304 -2.4666  1.4422  0.9527
 6174SOL    HW324469   2.823   0.182   1.410  0.9115 -0.3929  0.9850
 6174SOL    MW424470   2.879   0.244   1.383 -0.3284 -0.2476  0.2037
 6175SOL     OW24471   1.949   5.313   6.206  0.5339  0.5501  0.5439
 6175SOL    HW224472   1.942   5.390   6.264 -1.8585  0.6912  0.1673
 6175SOL    HW324473   1.923   5.346   6.120  1.5607 -0.2317 -0.0766
 6175SOL    MW424474   1.945   5.328   6.202  0.1593  0.0312 -0.7993
 6176SOL     OW24475   5.668   0.685   1.151 -0.4559  0.4561  0.9335
 6176SOL    HW224476   5.644   0.754   1.089 -2.6000 -0.1885  0.9816
 6176SOL    HW324477   5.708   0.617   1.097 -1.8666  0.1093  0.2797
 6176SOL    MW424478   5.671   0.685   1.136 -0.4893  0.3126 -0.6326
 6177SOL     OW24479   4.751   3.240   5.533  0.0492 -0.6278 -0.2715
 6177SOL    HW224480   4.821   3.179   5.509  0.0156 -1.1774  0.9614
 6177SOL    HW324481   4.674   3.209   5.484  0.3709 -0.7278 -0.7226
 6177SOL    MW424482   4.750   3.228   5.523 -0.4162 -0.6326 -0.3634
 6178SOL     OW24483   1.674   4.282   0.504 -0.0562  0.2967 -0.7114
 6178SOL    HW224484   1.658   4.305   0.596  1.0329  0.8898 -0.6507
 6178SOL    HW324485   1.620   4.205   0.489 -2.0275  1.5233 -0.2348
 6178SOL    MW424486   1.665   4.275   0.514  0.6545 -0.1653 -0.7245
 6179SOL     OW24487   5.123   2.474   3.226  0.4684 -0.0945 -0.0656
 6179SOL    HW224488   5.186   2.403   3.213  0.4546  0.0005 -0.6777
 6179SOL    HW324489   5.039   2.435   3.205  0.4573  0.0933 -0.3725
 6179SOL    MW424490   5.120   2.459   3.222  0.3496 -0.1784 -0.1744
 6180SOL     OW24491   2.525   1.337   1.870 -0.3780 -0.1703  0.2293
 6180SOL    HW224492   2.432   1.356   1.859 -0.4622 -0.3327  0.6241
 6180SOL    HW324493   2.527   1.260   1.928  0.0095  0.2097  0.7346
 6180SOL    MW424494   2.513   1.329   1.876  0.3607 -0.0091  0.6021
 6181SOL     OW24495   4.527   2.181   5.462 -0.1369  0.0187  0.3382
 6181SOL    HW224496   4.460   2.116   5.442  0.8698 -0.9419 -0.0524
 6181SOL    HW324497   4.572   2.196   5.378 -0.2006  1.0486  0.4736
 6181SOL    MW424498   4.524   2.175   5.448 -0.2766  0.2675 -0.1061
 6182SOL     OW24499   6.118   0.228   2.000  0.0816 -0.4518  0.1406
 6182SOL    HW224500   6.107   0.170   2.076 -1.4092  0.0069  0.3113
 6182SOL    HW324501   6.093   0.314   2.032  1.3923  0.1471 -0.3656
 6182SOL    MW424502   6.113   0.232   2.014 -0.0477  0.1740  0.3197
 6183SOL     OW24503   2.787   1.288   3.919  0.0150 -0.5248 -0.4059
 6183SOL    HW224504   2.812   1.202   3.952 -0.2121 -0.1019  0.9396
 6183SOL    HW324505   2.869   1.338   3.918 -0.1542 -0.1706  0.7656
 6183SOL    MW424506   2.801   1.283   3.923 -0.2052  0.0625 -0.2447
 6184SOL     OW24507   2.240   4.741   0.395 -0.3452 -0.9652  0.1790
 6184SOL    HW224508   2.170   4.804   0.415 -0.8698 -0.9961 -1.4224
 6184SOL    HW324509   2.307   4.758   0.462 -0.4040  1.4206 -0.2866
 6184SOL    MW424510   2.239   4.752   0.407  0.8816  0.1328 -0.0412
 6185SOL     OW24511   1.717   4.765   1.739  0.0236  0.2180  0.5513
 6185SOL    HW224512   1.698   4.776   1.832  0.0589  0.0403  0.5792
 6185SOL    HW324513   1.664   4.690   1.712  2.0664 -1.5242  1.0591
 6185SOL    MW424514   1.708   4.756   1.747 -0.0240  0.2460  0.0503
 6186SOL     OW24515   4.829   0.496   0.654 -0.0403 -0.5448  0.0764
 6186SOL    HW224516   4.745   0.471   0.694  0.3393 -1.8075  0.1273
 6186SOL    HW324517   4.812   0.581   0.614 -1.4728 -0.9513 -0.2554
 6186SOL    MW424518   4.816   0.504   0.654 -0.1303  0.3506  0.1866
 6187SOL     OW24519   4.719   4.698   4.331 -0.1652 -0.4834 -0.2526
 6187SOL    HW224520   4.744   4.616   4.289  0.2737 -0.1245 -0.7086
 6187SOL    HW324521   4.752   4.691   4.420  0.6327 -0.4574 -0.5350
 6187SOL    MW424522   4.726   4.686   4.337 -0.3128  0.7935  0.0820
 6188SOL     OW24523   6.085   1.281   3.862 -0.2443 -0.7437 -0.2672
 6188SOL    HW224524   6.099   1.228   3.941 -0.7507 -0.4031  0.0590
 6188SOL    HW324525   6.015   1.236   3.815 -0.0771 -0.8383 -0.4285
 6188SOL    MW424526   6.078   1.268   3.866  0.4209  0.2717  0.0936
 6189SOL     OW24527   5.676   1.101   5.377 -0.1324  0.2746  0.1773
 6189SOL    HW224528   5.768   1.129   5.383 -0.3994  1.1744  0.2305
 6189SOL    HW324529   5.675   1.015   5.418  0.7947 -0.0001 -0.3337
 6189SOL    MW424530   5.688   1.094   5.383 -0.2796  0.7471  0.0570
 6190SOL     OW24531   1.151   6.330   0.723  0.0613 -0.4100 -0.0638
 6190SOL    HW224532   1.213   6.344   0.794 -2.0357  0.0840  1.7788
 6190SOL    HW324533   1.065   6.345   0.763 -1.2900 -1.4723 -2.3760
 6190SOL    MW424534   1.148   6.334   0.738  0.0674  0.1926 -0.0730
 6191SOL     OW24535   2.323   3.459   3.073 -0.3399 -0.7249 -0.2787
 6191SOL    HW224536   2.297   3.548   3.049  0.8345  0.1925  1.5760
 6191SOL    HW324537   2.319   3.459   3.169 -0.3749 -2.7109 -0.2543
 6191SOL    MW424538   2.319   3.471   3.082  0.1638  0.1923  0.5838
 6192SOL     OW24539   0.027   5.108   1.558 -0.0341 -0.0596  0.1425
 6192SOL    HW224540   0.074   5.185   1.591  0.8145 -0.7138  0.4990
 6192SOL    HW324541  -0.061   5.140   1.539  0.6865  1.3424 -1.0600
 6192SOL    MW424542   0.021   5.123   1.560 -0.0261 -0.2399 -0.6534
 6193SOL     OW24543   3.858   0.833   2.740 -0.2540  0.0009 -0.3851
 6193SOL    HW224544   3.892   0.791   2.820 -2.3057  0.5951  0.8662
 6193SOL    HW324545   3.903   0.917   2.737 -1.3225  0.6761  1.1104
 6193SOL    MW424546   3.869   0.838   2.750  0.3240  0.2317  0.6250
 6194SOL     OW24547   0.399   4.578   4.599  0.5072 -0.1107 -0.8029
 6194SOL    HW224548   0.438   4.544   4.679  2.1630  2.6435 -0.3298
 6194SOL    HW324549   0.467   4.632   4.559 -0.9124  0.1331 -3.0994
 6194SOL    MW424550   0.413   4.581   4.604  0.1421 -0.1465  0.1115
 6195SOL     OW24551   2.132   5.281   3.188  0.1522  0.0276 -0.4960
 6195SOL    HW224552   2.063   5.234   3.234  1.3026 -1.7554 -0.5303
 6195SOL    HW324553   2.195   5.304   3.257 -0.1616  1.1522 -0.5559
 6195SOL    MW424554   2.131   5.278   3.204  0.0302  0.1611 -0.2457
 6196SOL     OW24555   0.911   6.409   3.595  0.0713 -0.4765 -0.1213
 6196SOL    HW224556   0.963   6.335   3.563 -0.6225 -1.0028 -0.0544
 6196SOL    HW324557   0.893   6.461   3.517  1.8339  0.4577  0.0463
 6196SOL    MW424558   0.916   6.406   3.580  0.3467  0.4453  0.7560
 6197SOL     OW24559   5.549   2.504   4.929  0.0746  0.4099  0.1887
 6197SOL    HW224560   5.537   2.503   5.024  2.1240  0.4753  0.4919
 6197SOL    HW324561   5.533   2.413   4.903 -2.2140  0.7200  0.2929
 6197SOL    MW424562   5.545   2.492   4.939  0.0301  0.1322  0.1316
 6198SOL     OW24563   6.005   2.574   0.176  0.6806  0.2097  0.8270
 6198SOL    HW224564   5.933   2.559   0.237 -0.8096  0.4693 -0.7923
 6198SOL    HW324565   5.977   2.650   0.124  1.8476 -0.0709 -0.2523
 6198SOL    MW424566   5.992   2.582   0.177  0.3099  0.1241 -0.6277
 6199SOL     OW24567   6.036   1.782   0.889  0.7807  0.3331 -0.0876
 6199SOL    HW224568   5.975   1.768   0.962  0.4201  0.1095 -0.4315
 6199SOL    HW324569   5.980   1.795   0.813  1.1247  2.0681 -0.0770
 6199SOL    MW424570   6.021   1.782   0.889 -0.6494  1.0152 -0.2652
 6200SOL     OW24571   2.257   1.164   0.645  0.0463  0.3211 -0.7956
 6200SOL    HW224572   2.292   1.148   0.557  1.8993 -0.4203  0.0246
 6200SOL    HW324573   2.165   1.185   0.630  0.4804  0.9911 -2.9680
 6200SOL    MW424574   2.249   1.164   0.631 -0.0825  0.4677  0.6621
 6201SOL     OW24575   1.606   6.216   5.836 -0.1692 -0.1943  0.2185
 6201SOL    HW224576   1.520   6.224   5.793 -0.6264 -1.5751  0.8332
 6201SOL    HW324577   1.605   6.285   5.903 -0.0446  1.0013 -0.9780
 6201SOL    MW424578   1.594   6.226   5.839 -0.0301 -0.3169  0.2377
 6202SOL     OW24579   1.091   0.768   0.106  0.0228 -0.4830  0.1375
 6202SOL    HW224580   1.094   0.675   0.130  0.9085 -0.7272 -0.8263
 6202SOL    HW324581   1.175   0.784   0.063 -0.6185  0.4480 -0.8323
 6202SOL    MW424582   1.102   0.758   0.103  0.0287  0.2058 -0.5429
 6203SOL     OW24583   5.677   4.166   3.133 -0.3980  0.0080 -0.1331
 6203SOL    HW224584   5.711   4.154   3.044 -0.9511  1.4742 -0.5601
 6203SOL    HW324585   5.737   4.115   3.188  0.6106 -0.0291 -1.2186
 6203SOL    MW424586   5.690   4.158   3.129  0.1814  0.8046  0.3373
 6204SOL     OW24587   4.935   4.661   5.697 -0.0423  0.2513 -0.5849
 6204SOL    HW224588   5.007   4.706   5.742  0.4071  0.6635 -1.6821
 6204SOL    HW324589   4.879   4.629   5.768  1.1493  0.0319  0.2854
 6204SOL    MW424590   4.937   4.663   5.712 -0.1218 -0.1290 -0.2825
 6205SOL     OW24591   5.310   1.818   0.537 -0.1846  0.0208 -0.0666
 6205SOL    HW224592   5.294   1.774   0.621 -0.0132  0.1143  0.0142
 6205SOL    HW324593   5.237   1.789   0.482  0.4498 -1.1476 -0.3171
 6205SOL    MW424594   5.298   1.808   0.541 -0.5943 -0.1856 -0.6663
 6206SOL     OW24595   0.430   4.166   3.117 -0.8528 -0.0708 -0.3493
 6206SOL    HW224596   0.503   4.184   3.176 -1.5913 -0.7992  0.8321
 6206SOL    HW324597   0.357   4.216   3.153 -1.4649 -0.9872 -0.2841
 6206SOL    MW424598   0.430   4.175   3.129  0.4921  0.1319  0.2347
 6207SOL     OW24599   1.659   1.494   0.473  0.0525 -0.5692  0.0109
 6207SOL    HW224600   1.695   1.540   0.549 -1.1455 -1.0874  0.9277
 6207SOL    HW324601   1.648   1.404   0.503  0.2722 -0.9499 -1.0353
 6207SOL    MW424602   1.662   1.489   0.487  0.5185 -0.2204 -0.4720
 6208SOL     OW24603   2.288   3.055   2.924 -0.2734 -0.5409  0.6758
 6208SOL    HW224604   2.266   3.008   2.844 -0.4656 -0.4544  0.6764
 6208SOL    HW324605   2.378   3.028   2.944  0.4390  0.8249 -0.5561
 6208SOL    MW424606   2.297   3.045   2.916  0.0710 -0.3168 -0.6118
 6209SOL     OW24607   0.935   3.073   5.849  0.3086 -0.2589 -1.2714
 6209SOL    HW224608   0.945   3.146   5.910 -0.2741 -0.8608 -0.4459
 6209SOL    HW324609   0.852   3.089   5.805  0.3299 -0.2657 -1.3143
 6209SOL    MW424610   0.925   3.085   5.851  0.2494 -0.5968  0.1413
 6210SOL     OW24611   4.032   5.986   2.200 -0.0463  0.8142 -0.2383
 6210SOL    HW224612   3.953   6.039   2.215 -0.7457 -0.2031 -0.1717
 6210SOL    HW324613   4.014   5.904   2.246  1.1793  0.6589  0.0014
 6210SOL    MW424614   4.019   5.982   2.208 -0.7658 -0.1388  0.3884
 6211SOL     OW24615   1.367   1.971   4.317 -0.0687 -0.4954  0.2315
 6211SOL    HW224616   1.457   1.965   4.350 -0.0214 -0.2836  0.1408
 6211SOL    HW324617   1.320   1.903   4.365  0.0073 -0.2057  0.7208
 6211SOL    MW424618   1.373   1.961   4.328 -0.6245  0.1625 -0.2064
 6212SOL     OW24619   4.904   3.206   4.061  0.2338 -0.2675  0.0435
 6212SOL    HW224620   4.952   3.146   4.003  1.1777  1.9351 -1.5908
 6212SOL    HW324621   4.960   3.283   4.067 -2.0117  1.4704  0.0288
 6212SOL    MW424622   4.918   3.208   4.054 -0.4230  0.0049  0.3531
 6213SOL     OW24623   2.470   6.027   1.418 -0.1924 -0.0273 -0.0137
 6213SOL    HW224624   2.407   6.016   1.489 -1.2225 -2.0331 -1.1479
 6213SOL    HW324625   2.551   6.055   1.462 -1.2710  0.5131  1.7209
 6213SOL    MW424626   2.473   6.029   1.433 -0.3246  0.0901  0.4107
 6214SOL     OW24627   1.880   5.186   2.560 -0.2325 -0.0707 -0.6844
 6214SOL    HW224628   1.902   5.255   2.497  0.5818 -0.9455 -1.4000
 6214SOL    HW324629   1.886   5.228   2.645  0.6918  0.6445 -1.0852
 6214SOL    MW424630   1.884   5.201   2.563 -0.2815 -0.1488  0.3342
 6215SOL     OW24631   0.475   0.790   5.388 -0.5347  0.6148  0.1659
 6215SOL    HW224632   0.570   0.800   5.393 -0.2138 -2.0626  0.8483
 6215SOL    HW324633   0.446   0.865   5.337  1.8087  2.1016  0.8495
 6215SOL    MW424634   0.484   0.801   5.382  0.3503 -0.3089  0.1148
 6216SOL     OW24635   0.921   3.945   3.852  0.1396  0.9696  0.4497
 6216SOL    HW224636   0.829   3.920   3.842  0.4112 -0.1319  0.5227
 6216SOL    HW324637   0.922   4.039   3.837 -0.4604  0.5327 -3.3267
 6216SOL    MW424638   0.909   3.954   3.849  0.2156  0.3296 -0.5754
 6217SOL     OW24639   0.431   3.063   2.128  0.1740  0.3239 -0.0060
 6217SOL    HW224640   0.344   3.045   2.092 -0.7151  3.1955  0.4832
 6217SOL    HW324641   0.491   3.018   2.068 -1.5721 -0.8124 -0.9998
 6217SOL    MW424642   0.427   3.055   2.115 -0.4839  0.0441 -0.0500
 6218SOL     OW24643   5.919   2.108   0.446  0.8615 -0.1001 -0.4765
 6218SOL    HW224644   5.835   2.148   0.468  0.6587 -0.8430  0.1068
 6218SOL    HW324645   5.919   2.104   0.350 -0.8363 -2.3235 -0.4566
 6218SOL    MW424646   5.908   2.113   0.436  0.3416  0.8982  0.2575
 6219SOL     OW24647   1.508   1.245   1.225 -0.7178 -1.1430 -0.5650
 6219SOL    HW224648   1.573   1.255   1.155 -1.9933 -0.9329 -1.7869
 6219SOL    HW324649   1.515   1.325   1.276 -0.6936 -0.6566 -1.3043
 6219SOL    MW424650   1.518   1.257   1.222 -0.0174  0.4904 -0.6958
 6220SOL     OW24651   1.813   4.717   0.096 -0.2073  0.0924  0.5768
 6220SOL    HW224652   1.834   4.811   0.102 -1.1151  0.2387  1.7270
 6220SOL    HW324653   1.889   4.674   0.135  0.6062  0.2678 -0.7218
 6220SOL    MW424654   1.826   4.724   0.102 -0.4028 -0.0876  0.4467
 6221SOL     OW24655   4.061   6.040   0.932  0.1853 -0.0228 -0.2816
 6221SOL    HW224656   4.048   6.130   0.901 -1.3455  0.1970  0.8901
 6221SOL    HW324657   3.986   5.992   0.898  1.3911 -1.0907 -1.5691
 6221SOL    MW424658   4.049   6.046   0.923  0.2392 -0.3923 -0.6770
 6222SOL     OW24659   0.457   0.058   5.141  0.0752  0.1324  0.0704
 6222SOL    HW224660   0.461   0.006   5.221 -0.9020 -0.8544 -0.4928
 6222SOL    HW324661   0.398   0.131   5.163  0.1972  0.1414  0.3808
 6222SOL    MW424662   0.449   0.061   5.154  0.1466 -0.0698 -0.1205
 6223SOL     OW24663   2.044   3.720   0.167  0.3756 -0.1605 -0.0309
 6223SOL    HW224664   1.997   3.771   0.101  0.3364  1.5548  1.2339
 6223SOL    HW324665   2.025   3.765   0.249  2.7667 -0.4800  0.7700
 6223SOL    MW424666   2.035   3.733   0.169 -0.1977 -0.1907  0.1238
 6224SOL     OW24667   4.454   1.287   2.291 -0.2008 -0.5732 -0.4528
 6224SOL    HW224668   4.363   1.269   2.312 -0.1655 -0.0877  0.1422
 6224SOL    HW324669   4.466   1.380   2.310  0.4475 -0.6556 -0.4135
 6224SOL    MW424670   4.444   1.297   2.296 -0.0277  0.6463  0.5826
 6225SOL     OW24671   6.250   2.707   6.350  0.3113  0.2011  0.9912
 6225SOL    HW224672   6.277   2.774   6.288 -0.7324  0.6821  1.0401
 6225SOL    HW324673   6.169   2.672   6.313 -0.0716  0.1733  1.8499
 6225SOL    MW424674   6.243   2.711   6.337  0.4281 -0.6994  0.1252
 6226SOL     OW24675   2.714   0.179   0.509  0.7072 -0.8291  0.2536
 6226SOL    HW224676   2.689   0.161   0.419  0.0901  0.9779  0.0176
 6226SOL    HW324677   2.796   0.132   0.522 -0.1669 -2.7029 -0.6019
 6226SOL    MW424678   2.721   0.170   0.499 -0.1459 -0.5332 -0.3507
 6227SOL     OW24679   2.761   1.741   1.913  0.0820 -0.4769 -0.0941
 6227SOL    HW224680   2.839   1.707   1.958  0.8104  0.0861 -0.8990
 6227SOL    HW324681   2.796   1.797   1.844 -1.0455 -0.3703 -0.5961
 6227SOL    MW424682   2.776   1.744   1.910  0.8991  0.3585 -0.5201
 6228SOL     OW24683   1.822   4.456   2.180  0.0085  0.3219 -0.5069
 6228SOL    HW224684   1.912   4.485   2.167 -0.1400  1.2508  0.3883
 6228SOL    HW324685   1.795   4.498   2.262 -0.9284 -0.7074 -0.2646
 6228SOL    MW424686   1.830   4.466   2.189 -0.2476 -0.1941  0.7738
 6229SOL     OW24687   2.276   4.829   3.075 -0.3921 -0.0798  0.1251
 6229SOL    HW224688   2.226   4.849   2.996  1.0358  1.3914 -0.4581
 6229SOL    HW324689   2.310   4.740   3.060 -2.7135 -1.1052  0.5273
 6229SOL    MW424690   2.274   4.820   3.063 -0.0051  0.0276  0.4856
 6230SOL     OW24691   0.797   3.731   1.868 -0.1919  0.0952  0.0853
 6230SOL    HW224692   0.705   3.704   1.863  0.2641 -1.2538 -1.9442
 6230SOL    HW324693   0.831   3.686   1.946 -0.9348 -0.4435  0.1056
 6230SOL    MW424694   0.789   3.721   1.878  0.0144 -0.1432  0.2215
 6231SOL     OW24695   5.684   6.326   0.767  0.2631  0.1746  0.6977
 6231SOL    HW224696   5.688   6.231   0.781  0.1719  0.0279 -0.1852
 6231SOL    HW324697   5.604   6.340   0.716  0.3860  0.6976  0.6386
 6231SOL    MW424698   5.674   6.315   0.762 -0.3322  0.4735 -0.1540
 6232SOL     OW24699   4.315   6.101   0.194 -0.6979 -0.4156 -0.5120
 6232SOL    HW224700   4.384   6.132   0.252  0.3973 -0.0941 -1.9518
 6232SOL    HW324701   4.234   6.112   0.245  0.3142 -1.2132  1.3649
 6232SOL    MW424702   4.313   6.107   0.209 -0.4088  0.2027 -0.2580
 6233SOL     OW24703   3.892   3.532   0.145  0.5826 -0.1943 -0.0599
 6233SOL    HW224704   3.929   3.559   0.229 -1.8546  0.2059  0.9655
 6233SOL    HW324705   3.806   3.495   0.167  0.9590 -2.5864 -2.1349
 6233SOL    MW424706   3.886   3.531   0.159 -0.3662 -0.0245  0.1345
 6234SOL     OW24707   3.505   1.350   1.700  0.5142 -0.7323 -0.2365
 6234SOL    HW224708   3.541   1.269   1.738 -1.0622 -0.9143  1.0189
 6234SOL    HW324709   3.553   1.363   1.619  1.4165 -2.4610 -0.0192
 6234SOL    MW424710   3.516   1.341   1.695  0.0593 -0.0828 -0.0061
 6235SOL     OW24711   1.571   5.332   2.984  0.2289  0.5365  0.2972
 6235SOL    HW224712   1.564   5.307   2.892  1.1061  0.2790  0.2861
 6235SOL    HW324713   1.514   5.271   3.031  0.0689  0.4288 -0.0374
 6235SOL    MW424714   1.563   5.321   2.978  0.4871 -0.7630 -0.0808
 6236SOL     OW24715   1.216   5.548   0.041 -0.0065  0.5169 -0.1874
 6236SOL    HW224716   1.242   5.520  -0.047 -1.2294 -2.2611  0.2610
 6236SOL    HW324717   1.121   5.552   0.038 -0.0132  1.5757  0.7216
 6236SOL    MW424718   1.207   5.545   0.029  0.3471  0.3440  0.0949
 6237SOL     OW24719   4.289   2.649   0.121  0.1805  0.2260  0.1083
 6237SOL    HW224720   4.195   2.633   0.117  0.3881 -1.1103  0.1593
 6237SOL    HW324721   4.311   2.640   0.214  0.8985 -3.0614 -0.2779
 6237SOL    MW424722   4.279   2.646   0.133 -0.3258  0.7888  0.6581
 6238SOL     OW24723   4.782   1.980   4.126  0.0699  0.0765  0.1401
 6238SOL    HW224724   4.726   1.993   4.050  0.8598 -2.1372 -0.9263
 6238SOL    HW324725   4.848   1.917   4.096  0.0117 -1.4075  2.8468
 6238SOL    MW424726   4.783   1.973   4.112  0.1557 -0.2701 -0.1583
 6239SOL     OW24727   0.397   3.466   5.121 -0.0814 -0.0582  0.0040
 6239SOL    HW224728   0.490   3.488   5.109  0.5440 -2.0412  0.8401
 6239SOL    HW324729   0.360   3.543   5.164  0.9238  1.1933 -1.2713
 6239SOL    MW424730   0.405   3.479   5.125  0.2191  0.4472  0.4942
 6240SOL     OW24731   4.021   3.363   1.938 -0.9483  0.6675  0.2660
 6240SOL    HW224732   4.021   3.274   1.904  1.0238  0.3058  1.1135
 6240SOL    HW324733   3.952   3.363   2.005 -0.7604 -0.3277  0.4767
 6240SOL    MW424734   4.012   3.351   1.943 -0.0278  0.2202  0.2542
 6241SOL     OW24735   0.172   3.745   2.924 -0.3443  0.4616 -0.7681
 6241SOL    HW224736   0.219   3.827   2.935 -1.3852  0.9715  0.1997
 6241SOL    HW324737   0.237   3.683   2.893  0.4884  1.6228 -1.4093
 6241SOL    MW424738   0.187   3.748   2.921 -0.3749  0.0876  0.5184
 6242SOL     OW24739   3.095   2.230   5.569  0.1163  0.0500  0.4186
 6242SOL    HW224740   3.141   2.312   5.586  2.2799 -1.1614  0.7144
 6242SOL    HW324741   3.120   2.173   5.642 -0.9342 -1.0528 -0.0535
 6242SOL    MW424742   3.104   2.234   5.581 -0.1916  0.4291 -0.2902
 6243SOL     OW24743   6.009   0.945   1.230  0.3221  0.0660 -0.5090
 6243SOL    HW224744   5.998   0.898   1.148 -2.2117  0.7204 -0.6174
 6243SOL    HW324745   5.957   0.897   1.294 -1.2594  1.8959 -0.3209
 6243SOL    MW424746   6.001   0.933   1.228 -0.3125  0.1062  0.1737
 6244SOL     OW24747   6.068   5.253   3.745  0.2347 -0.0866 -0.5059
 6244SOL    HW224748   6.125   5.308   3.800  1.1124 -1.2859 -0.1810
 6244SOL    HW324749   6.104   5.262   3.657  0.7749 -0.6408 -0.3438
 6244SOL    MW424750   6.080   5.262   3.741 -0.1395 -0.1334 -0.1407
 6245SOL     OW24751   4.456   0.389   5.718 -0.2714 -0.2962 -0.3332
 6245SOL    HW224752   4.532   0.422   5.671  0.9025  0.2443  1.8267
 6245SOL    HW324753   4.441   0.454   5.788 -2.4812 -0.5905 -0.4520
 6245SOL    MW424754   4.464   0.402   5.721 -0.0575 -0.3643 -0.2245
 6246SOL     OW24755   0.024   5.032   4.789 -0.4793  0.8905  0.0019
 6246SOL    HW224756  -0.069   5.014   4.776 -0.3464  1.1071 -1.3386
 6246SOL    HW324757   0.033   5.125   4.770 -0.1049  1.0409  0.8774
 6246SOL    MW424758   0.013   5.042   4.785 -0.1230  0.0228 -0.6653
 6247SOL     OW24759   2.037   1.437   3.469  0.0846  0.4287  0.6140
 6247SOL    HW224760   2.098   1.462   3.400 -1.2077 -0.5428 -0.9599
 6247SOL    HW324761   2.087   1.445   3.550  1.1758  3.3103 -0.2001
 6247SOL    MW424762   2.051   1.442   3.470  0.2489 -0.1871 -0.2878
 6248SOL     OW24763   5.783   3.489   5.451 -0.1650  0.0291 -0.1589
 6248SOL    HW224764   5.689   3.504   5.464  0.0804  3.1965 -1.0960
 6248SOL    HW324765   5.790   3.465   5.358 -0.0778 -0.6894  0.0312
 6248SOL    MW424766   5.771   3.488   5.440  0.0768 -0.2355  0.0814
 6249SOL     OW24767   5.917   2.155   0.161  0.2786  0.1716 -0.0402
 6249SOL    HW224768   5.988   2.217   0.141 -1.0967  1.3254 -1.5623
 6249SOL    HW324769   5.837   2.207   0.154 -0.7428 -1.0118  2.0238
 6249SOL    MW424770   5.916   2.170   0.158  0.1794 -0.1986 -0.0122
 6250SOL     OW24771   0.835   3.569   2.286  0.8260  0.1266 -0.1837
 6250SOL    HW224772   0.897   3.589   2.215  0.0394 -0.4883 -1.0709
 6250SOL    HW324773   0.877   3.498   2.335  0.3626 -1.0693 -1.4525
 6250SOL    MW424774   0.849   3.563   2.283  0.4011  0.5697  0.4032
 6251SOL     OW24775   1.448   5.029   4.715 -0.1511 -0.0556 -0.3194
 6251SOL    HW224776   1.479   4.967   4.781 -0.6205 -0.8340 -0.8194
 6251SOL    HW324777   1.450   4.980   4.633 -0.8010  0.5053 -0.6812
 6251SOL    MW424778   1.453   5.014   4.713 -0.4030  0.2155 -0.0082
 6252SOL     OW24779   6.335   3.562   3.890  0.2091  0.1780  0.2610
 6252SOL    HW224780   6.409   3.544   3.832  0.5576  0.3972  0.6354
 6252SOL    HW324781   6.339   3.494   3.957 -1.0963 -1.0143 -0.8018
 6252SOL    MW424782   6.345   3.551   3.891  0.4471  0.3995 -0.2264
 6253SOL     OW24783   3.092   3.125   1.136 -0.2580  0.1515 -0.0261
 6253SOL    HW224784   3.069   3.085   1.220 -1.0378  0.1437 -0.2353
 6253SOL    HW324785   3.011   3.168   1.107 -0.1329 -0.2532 -1.0058
 6253SOL    MW424786   3.078   3.126   1.143 -0.6430 -0.3998 -0.0560
 6254SOL     OW24787   1.233   0.128   4.043  0.1370  0.0342 -0.0849
 6254SOL    HW224788   1.168   0.101   3.979 -0.2338 -1.8004  0.9884
 6254SOL    HW324789   1.183   0.179   4.108  0.2032  0.4884 -0.3853
 6254SOL    MW424790   1.218   0.131   4.043  0.4012  0.3747  0.0123
 6255SOL     OW24791   2.854   5.192   2.839  0.0764 -0.1964 -0.1592
 6255SOL    HW224792   2.815   5.275   2.868 -0.3117 -0.9927  1.6932
 6255SOL    HW324793   2.782   5.130   2.839 -0.0047 -0.2443 -3.1607
 6255SOL    MW424794   2.839   5.195   2.843 -0.7805  0.2330  0.4978
 6256SOL     OW24795   4.911   2.331   1.252 -0.2250 -0.3912 -0.1638
 6256SOL    HW224796   4.956   2.358   1.172  1.7255  0.4980  1.1471
 6256SOL    HW324797   4.905   2.236   1.245  0.5942 -0.3982 -1.0264
 6256SOL    MW424798   4.916   2.322   1.240 -0.5662 -0.4493 -0.3673
 6257SOL     OW24799   1.812   2.731   3.014 -0.3929  0.0616 -0.1610
 6257SOL    HW224800   1.793   2.825   3.016 -2.2564 -0.2741  0.0552
 6257SOL    HW324801   1.895   2.722   3.060 -0.6766  1.5091  0.6924
 6257SOL    MW424802   1.820   2.742   3.020  0.3055 -0.0323 -0.3600
 6258SOL     OW24803   6.337   4.432   4.439 -0.0371 -0.4149 -0.1951
 6258SOL    HW224804   6.403   4.406   4.503  0.4568  0.6904 -0.2448
 6258SOL    HW324805   6.270   4.476   4.491 -0.6443 -1.3198 -0.1781
 6258SOL    MW424806   6.337   4.434   4.455 -0.3539 -0.6934  0.0810
 6259SOL     OW24807   1.099   1.772   0.091  0.4478 -0.2106 -0.0661
 6259SOL    HW224808   1.188   1.803   0.077  0.2110  0.1678 -0.8094
 6259SOL    HW324809   1.109   1.683   0.123  1.1358  0.4538  1.6556
 6259SOL    MW424810   1.112   1.764   0.093 -0.1239  0.1314  0.2804
 6260SOL     OW24811   2.032   5.103   4.099  0.1767  0.3941 -0.4609
 6260SOL    HW224812   2.116   5.080   4.059  0.7394  0.6347  0.5310
 6260SOL    HW324813   1.969   5.097   4.028  0.8147 -1.0795 -0.9572
 6260SOL    MW424814   2.035   5.099   4.085 -0.1714  0.3403 -0.5349
 6261SOL     OW24815   2.257   1.715   3.489 -0.5343  0.1959 -0.1309
 6261SOL    HW224816   2.336   1.678   3.449 -0.6995  1.1681 -1.4438
 6261SOL    HW324817   2.228   1.649   3.552  0.0050 -1.2165 -1.3164
 6261SOL    MW424818   2.263   1.701   3.492  0.6528 -0.2667 -0.5511
 6262SOL     OW24819   2.948   4.995   4.645 -0.1134  0.2090 -0.2152
 6262SOL    HW224820   2.928   4.914   4.599 -0.7464 -0.9306  1.9490
 6262SOL    HW324821   2.924   5.065   4.584 -2.8340 -1.1890 -0.8659
 6262SOL    MW424822   2.942   4.994   4.631 -0.5786 -0.4999  0.4254
 6263SOL     OW24823   1.626   1.514   6.179  0.3220 -0.3090  0.3368
 6263SOL    HW224824   1.571   1.564   6.119 -0.0545 -0.5041  0.5161
 6263SOL    HW324825   1.712   1.512   6.137  0.0025 -0.6581 -0.3193
 6263SOL    MW424826   1.630   1.520   6.166  0.2257  0.0708 -0.1859
 6264SOL     OW24827   4.553   3.956   1.284  0.0739  0.6791 -0.6407
 6264SOL    HW224828   4.492   4.020   1.320 -0.0509 -0.1678  0.7582
 6264SOL    HW324829   4.506   3.872   1.291  1.2769  0.0516  0.2139
 6264SOL    MW424830   4.539   3.953   1.290  0.0131  0.0561 -0.2924
 6265SOL     OW24831   2.619   3.641   4.640  0.0781 -0.0960  0.1681
 6265SOL    HW224832   2.695   3.608   4.592  0.1444  1.6286 -1.0325
 6265SOL    HW324833   2.648   3.644   4.731  1.4449  0.3980 -0.2527
 6265SOL    MW424834   2.633   3.637   4.646 -0.5222 -0.8416  0.0921
 6266SOL     OW24835   4.644   5.485   4.854 -0.3313  0.0385  0.2619
 6266SOL    HW224836   4.735   5.510   4.842 -0.3562 -0.3665 -0.9048
 6266SOL    HW324837   4.595   5.566   4.841 -0.1553  0.1936  0.5672
 6266SOL    MW424838   4.649   5.499   4.850  0.3956  0.5585  0.0179
 6267SOL     OW24839   2.740   0.458   2.902 -0.0350 -0.1937  0.1464
 6267SOL    HW224840   2.782   0.414   2.976 -0.1367 -1.5983 -0.5953
 6267SOL    HW324841   2.808   0.463   2.836 -0.1699  0.3548  0.0402
 6267SOL    MW424842   2.754   0.453   2.903  0.0551 -0.3618 -0.0964
 6268SOL     OW24843   2.509   4.105   3.544  0.0581 -0.4461 -0.5002
 6268SOL    HW224844   2.572   4.067   3.483  0.0461  2.5044 -2.6034
 6268SOL    HW324845   2.424   4.094   3.500 -0.4335 -1.2627  0.6256
 6268SOL    MW424846   2.506   4.099   3.530 -0.9730  0.0500 -0.1628
 6269SOL     OW24847   3.223   1.588   5.352 -0.0912 -0.6390 -0.4240
 6269SOL    HW224848   3.180   1.628   5.277  0.7555  0.0857 -0.5459
 6269SOL    HW324849   3.172   1.618   5.428  0.1659  0.1870 -0.5649
 6269SOL    MW424850   3.211   1.597   5.352  1.0305 -0.4852 -0.4073
 6270SOL     OW24851   1.958   6.170   0.975 -0.2636 -0.1974 -0.1011
 6270SOL    HW224852   1.953   6.075   0.989  0.3893 -0.0720  1.0868
 6270SOL    HW324853   1.974   6.206   1.062 -1.7432  1.1169 -0.3502
 6270SOL    MW424854   1.960   6.162   0.988 -0.1860  0.4640 -0.0502
 6271SOL     OW24855   0.237   2.418   1.019  0.0370  0.1342  0.3859
 6271SOL    HW224856   0.143   2.438   1.013  0.0125  0.7771  2.2095
 6271SOL    HW324857   0.242   2.348   1.085  0.7974 -0.2692 -0.0904
 6271SOL    MW424858   0.225   2.411   1.027  0.2690  0.4282  0.0357
 6272SOL     OW24859   1.075   4.167   4.410  0.5891  0.4157 -0.3234
 6272SOL    HW224860   1.124   4.090   4.438  1.6481  1.0506 -0.3466
 6272SOL    HW324861   1.077   4.163   4.315  0.9230  0.6305 -0.3277
 6272SOL    MW424862   1.082   4.157   4.401 -0.2489 -0.0380  0.0278
 6273SOL     OW24863   1.173   3.388   5.531 -0.3816 -0.4669  0.1483
 6273SOL    HW224864   1.216   3.403   5.447 -0.2926 -2.4269 -0.2017
 6273SOL    HW324865   1.081   3.412   5.515 -0.3707 -0.8593 -0.5242
 6273SOL    MW424866   1.166   3.393   5.518  0.1387  0.4356  0.1289
 6274SOL     OW24867   2.730   3.268   1.726  0.2728  0.2646  0.0420
 6274SOL    HW224868   2.728   3.198   1.791 -2.5228  0.0275 -0.1540
 6274SOL    HW324869   2.752   3.225   1.644 -0.7217 -0.3201  0.0581
 6274SOL    MW424870   2.732   3.253   1.724 -0.0847 -0.3286  0.1867
 6275SOL     OW24871   4.598   5.218   5.932  0.3995 -0.4333 -0.3014
 6275SOL    HW224872   4.592   5.146   5.994  1.0861  0.6598  1.0920
 6275SOL    HW324873   4.676   5.198   5.879 -0.3322 -1.4933 -1.0134
 6275SOL    MW424874   4.608   5.206   5.933  0.3960  0.0374  0.2253
 6276SOL     OW24875   3.148   3.897   3.929 -0.1452 -0.2483  0.5146
 6276SOL    HW224876   3.146   3.988   3.959  0.0823 -0.5733  1.5529
 6276SOL    HW324877   3.111   3.847   4.002 -1.8386 -0.8287 -0.6767
 6276SOL    MW424878   3.143   3.902   3.942 -0.4181  0.3609  0.1685
 6277SOL     OW24879   0.734   5.330   4.748 -0.0337  0.3050 -0.3903
 6277SOL    HW224880   0.822   5.356   4.773 -0.6884  2.2814  0.0937
 6277SOL    HW324881   0.689   5.313   4.831  0.0817 -1.5108 -0.6609
 6277SOL    MW424882   0.740   5.332   4.762  0.5948 -0.0742 -0.3405
 6278SOL     OW24883   3.359   2.650   5.430 -0.0968  0.0945 -0.0154
 6278SOL    HW224884   3.446   2.611   5.426  0.3165  0.6288  2.4195
 6278SOL    HW324885   3.345   2.687   5.342  1.3087 -1.6069 -1.0306
 6278SOL    MW424886   3.369   2.649   5.418 -1.0028 -0.0047  0.3947
 6279SOL     OW24887   6.130   0.487   6.304 -0.1238  0.0524  0.0402
 6279SOL    HW224888   6.203   0.428   6.324  0.1162  0.2188 -0.3424
 6279SOL    HW324889   6.052   0.432   6.316  0.1416 -0.7627 -1.6641
 6279SOL    MW424890   6.129   0.472   6.309  0.0577  0.3036 -0.1527
 6280SOL     OW24891   2.907   2.878   4.344  0.0235 -0.5604  0.2510
 6280SOL    HW224892   2.893   2.953   4.286  0.6907 -1.9662 -1.8779
 6280SOL    HW324893   2.835   2.819   4.324  0.8510 -1.5282  0.0587
 6280SOL    MW424894   2.896   2.880   4.333 -0.2296  0.3967 -0.8276
 6281SOL     OW24895   5.605   2.349   5.677  0.6964 -0.1947 -0.2574
 6281SOL    HW224896   5.695   2.345   5.710  0.3627 -1.0003  0.5993
 6281SOL    HW324897   5.586   2.443   5.672  1.1004 -0.0218  0.9601
 6281SOL    MW424898   5.615   2.361   5.681  0.5078 -0.1037  0.1770
 6282SOL     OW24899   1.337   5.556   3.537 -0.2159  0.2173 -0.4547
 6282SOL    HW224900   1.256   5.586   3.496  0.1334  1.0362 -0.5553
 6282SOL    HW324901   1.389   5.635   3.549  0.8005 -0.3561 -0.9028
 6282SOL    MW424902   1.333   5.570   3.533  0.8778  0.1420  0.2366
 6283SOL     OW24903   3.233   1.282   3.998  0.2628 -0.6005  0.4240
 6283SOL    HW224904   3.274   1.198   4.020  2.0937 -0.1004 -0.8535
 6283SOL    HW324905   3.301   1.347   4.014  0.1803  0.2360 -2.1529
 6283SOL    MW424906   3.248   1.279   4.003 -0.4635 -0.2638  0.0660
 6284SOL     OW24907   1.078   5.203   3.982 -0.0496 -0.4068 -0.0554
 6284SOL    HW224908   1.117   5.277   4.028  1.1418 -0.1562 -1.4070
 6284SOL    HW324909   1.131   5.192   3.903 -0.2118 -2.6707  0.0603
 6284SOL    MW424910   1.090   5.211   3.978 -0.2715 -0.0155  0.2372
 6285SOL     OW24911   6.425   5.904   0.459 -0.2706  0.8195  0.0700
 6285SOL    HW224912   6.432   5.829   0.400  0.8599  0.3290  0.7882
 6285SOL    HW324913   6.345   5.949   0.432 -1.4916 -1.1505  0.2088
 6285SOL    MW424914   6.416   5.900   0.447  0.3879  0.3222 -0.1261
 6286SOL     OW24915   2.439   0.862   3.541  0.6952  0.1040 -0.2773
 6286SOL    HW224916   2.472   0.796   3.601  1.0051 -0.0740 -0.6353
 6286SOL    HW324917   2.412   0.813   3.464  1.7739  0.4599 -0.9125
 6286SOL    MW424918   2.440   0.847   3.539 -1.0521 -0.0009 -0.3314
 6287SOL     OW24919   3.935   0.353   1.748  0.1074  0.3129 -0.4705
 6287SOL    HW224920   3.868   0.405   1.794  1.0836  2.8474 -1.6933
 6287SOL    HW324921   4.000   0.418   1.720  2.5723 -1.9002 -0.2466
 6287SOL    MW424922   3.935   0.369   1.750  0.6654  0.0353  0.3431
 6288SOL     OW24923   4.355   0.460   1.688 -0.3371  0.2341  0.0985
 6288SOL    HW224924   4.316   0.427   1.607  1.3775 -0.0868 -0.6490
 6288SOL    HW324925   4.345   0.389   1.750 -1.8195  0.5428  0.2542
 6288SOL    MW424926   4.349   0.447   1.685  0.4520  0.2878 -0.3641
 6289SOL     OW24927   2.649   0.692   1.868 -0.1730  0.1371 -0.3906
 6289SOL    HW224928   2.652   0.664   1.959 -0.3669 -1.8977 -0.9539
 6289SOL    HW324929   2.556   0.709   1.852 -0.0983  0.8257 -0.1440
 6289SOL    MW424930   2.637   0.690   1.878  0.7233  0.0447  0.3648
 6290SOL     OW24931   2.129   0.913   1.778 -0.1040  0.2392 -0.0594
 6290SOL    HW224932   2.173   0.984   1.731 -1.5944  1.2993  0.0910
 6290SOL    HW324933   2.137   0.938   1.870  0.2563 -0.3307  0.0670
 6290SOL    MW424934   2.136   0.926   1.784 -0.1592 -0.5166  0.6124
 6291SOL     OW24935   0.081   5.638   1.703  0.0857 -0.4403 -0.6825
 6291SOL    HW224936   0.161   5.680   1.672  0.2210 -0.2134 -0.0355
 6291SOL    HW324937   0.013   5.669   1.643  0.4973 -0.7376 -1.3133
 6291SOL    MW424938   0.083   5.648   1.691 -0.1120 -0.2861  0.2243
 6292SOL     OW24939   2.431   6.380   4.468 -0.1311 -0.2656 -0.1692
 6292SOL    HW224940   2.499   6.329   4.512 -0.4239 -2.7364 -2.3571
 6292SOL    HW324941   2.478   6.431   4.401 -0.1646  0.1002  0.0810
 6292SOL    MW424942   2.446   6.380   4.465 -0.4257 -0.6077 -0.1583
 6293SOL     OW24943   0.745   5.326   6.171  0.1051  0.1545 -0.1989
 6293SOL    HW224944   0.703   5.409   6.147  0.3743  0.2329 -0.4062
 6293SOL    HW324945   0.838   5.341   6.154  0.1282 -0.2669 -0.4465
 6293SOL    MW424946   0.752   5.339   6.165 -0.8632 -0.3295 -0.4223
 6294SOL     OW24947   5.556   1.070   0.518  0.0914  0.5546 -0.1051
 6294SOL    HW224948   5.483   1.023   0.478 -0.0603  0.0080  0.7772
 6294SOL    HW324949   5.556   1.040   0.609  0.3437  1.8450  0.3444
 6294SOL    MW424950   5.546   1.060   0.525 -0.0883 -0.2787  0.2824
 6295SOL     OW24951   2.099   3.197   3.123  0.3651  0.0444  0.2570
 6295SOL    HW224952   2.067   3.164   3.039 -0.3917 -3.8454  1.8770
 6295SOL    HW324953   2.192   3.213   3.109  0.1798 -0.1698 -1.3813
 6295SOL    MW424954   2.107   3.195   3.110 -0.0629  0.2912 -0.1493
 6296SOL     OW24955   1.254   0.588   0.496  0.5143  0.3651 -0.1788
 6296SOL    HW224956   1.268   0.617   0.587  0.0870 -0.1343  0.0570
 6296SOL    HW324957   1.171   0.540   0.500  0.5051  0.3265 -0.8350
 6296SOL    MW424958   1.245   0.586   0.509 -0.6107 -0.0152  0.6503
 6297SOL     OW24959   0.918   4.495   1.244  0.0101 -0.7367  0.8213
 6297SOL    HW224960   0.922   4.527   1.154 -1.2835 -0.4705  0.8545
 6297SOL    HW324961   0.956   4.565   1.296  0.6083 -0.8218  0.5110
 6297SOL    MW424962   0.924   4.508   1.239 -0.2827  0.4038 -0.0837
 6298SOL     OW24963   3.694   3.153   0.747  0.2547  0.0222 -0.2272
 6298SOL    HW224964   3.598   3.147   0.747  0.2980 -1.8710 -2.2188
 6298SOL    HW324965   3.716   3.182   0.659  1.5642 -1.7653 -0.5394
 6298SOL    MW424966   3.684   3.156   0.735 -0.2144  0.0117 -0.5534
 6299SOL     OW24967   4.538   4.528   5.601 -0.3568 -0.2298  0.1532
 6299SOL    HW224968   4.546   4.608   5.548  0.6702 -0.0476  0.5668
 6299SOL    HW324969   4.454   4.538   5.645 -1.3887 -0.5256 -1.6380
 6299SOL    MW424970   4.528   4.540   5.600 -0.5341  0.0266 -0.8771
 6300SOL     OW24971   1.042   0.517   5.331 -0.0562 -0.2927  0.4294
 6300SOL    HW224972   0.996   0.495   5.251 -0.2580 -2.6336  1.1098
 6300SOL    HW324973   1.123   0.466   5.328  0.3741  0.2953  1.3105
 6300SOL    MW424974   1.047   0.507   5.320 -0.0644 -0.1781  0.0789
 6301SOL     OW24975   0.335   3.650   5.871 -0.3086 -0.1142  0.0688
 6301SOL    HW224976   0.270   3.633   5.939 -2.6454  1.2477 -1.6853
 6301SOL    HW324977   0.387   3.723   5.906 -0.8111 -0.1051  0.8123
 6301SOL    MW424978   0.333   3.658   5.885  0.0655  0.1108  0.3581
 6302SOL     OW24979   5.160   5.933   0.858  0.3099  0.8684  0.0178
 6302SOL    HW224980   5.156   6.028   0.858  0.8142  1.0149  3.0423
 6302SOL    HW324981   5.215   5.912   0.934 -0.4488 -1.8283 -0.0781
 6302SOL    MW424982   5.166   5.943   0.868  0.4204  0.2269  0.1369
 6303SOL     OW24983   3.572   1.694   2.955 -0.0830  0.3412 -0.1763
 6303SOL    HW224984   3.623   1.691   3.036 -0.2469 -0.0535 -0.0836
 6303SOL    HW324985   3.485   1.724   2.982  0.0629  0.9002 -0.3161
 6303SOL    MW424986   3.567   1.698   2.969  0.2010  0.0224 -0.0064
 6304SOL     OW24987   1.195   5.932   5.924  0.1469 -0.4358  0.5138
 6304SOL    HW224988   1.212   5.987   6.001 -1.3081  0.8361 -0.0179
 6304SOL    HW324989   1.167   5.994   5.857  2.0560 -1.4295 -1.3011
 6304SOL    MW424990   1.194   5.948   5.925  0.0992  0.2755  0.0361
 6305SOL     OW24991   3.611   0.754   1.790  0.3869  0.4921 -0.5696
 6305SOL    HW224992   3.704   0.735   1.800  0.2780  0.5067  0.5635
 6305SOL    HW324993   3.573   0.673   1.755  0.7559  0.3635 -0.6777
 6305SOL    MW424994   3.618   0.741   1.787  0.0909  0.6827  0.9197
 6306SOL     OW24995   4.055   1.559   3.871  0.5243 -0.0465 -0.0076
 6306SOL    HW224996   4.028   1.604   3.951 -1.4376 -0.4341 -0.3945
 6306SOL    HW324997   3.975   1.515   3.841  1.1113  0.3869 -2.3628
 6306SOL    MW424998   4.041   1.560   3.878  0.4751  0.5952  0.5145
 6307SOL     OW24999   3.508   6.348   5.371  0.0611  0.4178 -0.0463
 6307SOL    HW225000   3.550   6.411   5.312 -1.0367  0.1478 -1.1561
 6307SOL    HW325001   3.546   6.264   5.348  1.0791  0.5633  1.0193
 6307SOL    MW425002   3.518   6.345   5.360 -0.6166  0.1990  0.4024
 6308SOL     OW25003   5.578   5.109   4.298 -0.8443 -0.9385 -0.0220
 6308SOL    HW225004   5.670   5.097   4.274 -1.0197 -2.1577 -0.1353
 6308SOL    HW325005   5.580   5.128   4.392 -0.4504 -0.3491 -0.1414
 6308SOL    MW425006   5.591   5.110   4.308  0.5330  0.0116 -0.0765
 6309SOL     OW25007   3.592   1.222   4.055  0.4180 -0.4537 -0.2648
 6309SOL    HW225008   3.600   1.276   3.976  2.2748 -1.9333 -1.1808
 6309SOL    HW325009   3.641   1.142   4.034 -1.8937 -2.3737  1.1564
 6309SOL    MW425010   3.600   1.219   4.042  0.1904 -0.6003  0.7840
 6310SOL     OW25011   3.098   4.523   0.606 -0.1366  0.2435 -0.3936
 6310SOL    HW225012   3.045   4.597   0.578 -0.0701  0.3604 -0.2138
 6310SOL    HW325013   3.096   4.463   0.531  0.3963  0.7431 -0.8217
 6310SOL    MW425014   3.091   4.525   0.592  0.3964 -0.2536 -0.1346
 6311SOL     OW25015   1.155   0.682   1.095 -0.0985  0.9014  0.0813
 6311SOL    HW225016   1.149   0.774   1.070 -0.4821  0.5235 -1.3235
 6311SOL    HW325017   1.092   0.637   1.038  0.6841 -0.3328  0.1416
 6311SOL    MW425018   1.146   0.688   1.084 -0.0339 -0.1669 -0.5607
 6312SOL     OW25019   1.834   3.560   1.655  0.0345 -0.3976 -0.1349
 6312SOL    HW225020   1.835   3.578   1.561  2.1500  2.8828  0.3459
 6312SOL    HW325021   1.776   3.626   1.692 -0.2054 -1.1893  0.9455
 6312SOL    MW425022   1.827   3.571   1.647 -0.2617 -0.5069  0.0525
 6313SOL     OW25023   4.081   0.167   1.577 -0.1059  0.5884  0.0443
 6313SOL    HW225024   4.023   0.170   1.653 -0.2262 -1.2182  0.0880
 6313SOL    HW325025   4.140   0.094   1.595 -0.6429 -0.4218 -1.8937
 6313SOL    MW425026   4.081   0.158   1.589  0.1593  0.7130  0.7549
 6314SOL     OW25027   0.472   4.915   2.961 -0.0585 -0.2631 -0.0394
 6314SOL    HW225028   0.454   4.946   2.873 -0.1487 -1.6050 -0.5178
 6314SOL    HW325029   0.392   4.936   3.011  0.9228  2.8119  0.4475
 6314SOL    MW425030   0.459   4.922   2.956  1.0587 -0.8152 -0.7820
 6315SOL     OW25031   1.776   4.949   6.319 -0.1533  0.0895  0.6168
 6315SOL    HW225032   1.760   4.969   6.227 -2.1531 -0.7758  0.7254
 6315SOL    HW325033   1.773   5.034   6.363  5.1016  1.2012 -0.4834
 6315SOL    MW425034   1.774   4.963   6.313  0.2196 -0.0113 -0.1396
 6316SOL     OW25035   2.733   1.394   3.515  0.0470 -0.4281 -0.1209
 6316SOL    HW225036   2.706   1.423   3.428  0.7036  0.7798  0.0513
 6316SOL    HW325037   2.651   1.375   3.561 -0.3213 -0.6541 -0.8692
 6316SOL    MW425038   2.719   1.396   3.510 -0.0923 -0.4723  0.2023
 6317SOL     OW25039   5.790   2.039   6.115 -0.1974  0.4313 -0.3503
 6317SOL    HW225040   5.754   1.976   6.052  2.5037  0.2813 -1.8847
 6317SOL    HW325041   5.729   2.113   6.113 -1.6861 -0.7684 -0.9503
 6317SOL    MW425042   5.777   2.040   6.107 -0.6000 -0.0805 -0.4616
 6318SOL     OW25043   5.793   0.830   6.321  0.5485  0.3891 -0.3415
 6318SOL    HW225044   5.766   0.747   6.360 -0.2286  0.6468 -0.3147
 6318SOL    HW325045   5.843   0.874   6.390 -0.7442  0.8052  0.3670
 6318SOL    MW425046   5.796   0.825   6.335 -0.0221  0.3636 -0.4145
 6319SOL     OW25047   3.248   0.386   1.649 -0.2652 -0.0851  0.6636
 6319SOL    HW225048   3.160   0.413   1.622  0.2369  0.0896 -0.9488
 6319SOL    HW325049   3.305   0.456   1.616  0.3959  0.4123  2.7263
 6319SOL    MW425050   3.244   0.399   1.641  0.2745 -0.0656  0.0122
 6320SOL     OW25051   3.191   3.762   6.075 -0.0874  0.2008  0.5394
 6320SOL    HW225052   3.262   3.773   6.011  0.4053 -0.6366  0.9177
 6320SOL    HW325053   3.144   3.684   6.044 -1.6756  1.5002 -0.4527
 6320SOL    MW425054   3.194   3.753   6.062 -0.2727 -0.0011  0.8895
 6321SOL     OW25055   3.434   5.466   1.614 -0.1315 -0.1810 -0.3142
 6321SOL    HW225056   3.507   5.418   1.576 -0.1955 -2.4878  2.2335
 6321SOL    HW325057   3.356   5.416   1.590 -0.8834  1.7159 -2.1659
 6321SOL    MW425058   3.433   5.453   1.606  0.6767  0.4272  0.0260
 6322SOL     OW25059   2.243   1.552   4.381  0.1127  0.1350  0.2459
 6322SOL    HW225060   2.153   1.525   4.365 -0.1169  0.5940  0.7053
 6322SOL    HW325061   2.287   1.541   4.297 -0.2330 -0.6211  0.1581
 6322SOL    MW425062   2.237   1.547   4.368 -0.1162 -0.8858  0.1285
 6323SOL     OW25063   0.654   1.391   5.131  0.2054  0.4640  0.5321
 6323SOL    HW225064   0.732   1.445   5.118  0.1712  0.5607  0.7269
 6323SOL    HW325065   0.651   1.334   5.054  0.1746  0.8192  0.2673
 6323SOL    MW425066   0.664   1.391   5.119  0.2182  0.1837  0.7238
 6324SOL     OW25067   0.046   3.116   4.849  0.0138 -0.0313  0.3919
 6324SOL    HW225068  -0.001   3.188   4.809  0.1366 -0.2543 -0.1547
 6324SOL    HW325069   0.055   3.051   4.780  1.1104 -0.0028  0.4959
 6324SOL    MW425070   0.041   3.117   4.835 -0.3416  0.2147  0.1363
 6325SOL     OW25071   4.806   5.502   0.180 -0.2824  0.1374  0.1038
 6325SOL    HW225072   4.741   5.558   0.137  0.6561 -0.3685 -2.1273
 6325SOL    HW325073   4.826   5.435   0.115  0.4938 -1.3361  1.7656
 6325SOL    MW425074   4.800   5.500   0.166 -0.1641 -0.0814 -0.4885
 6326SOL     OW25075   5.110   2.670   1.481  0.1119 -0.0073  0.1207
 6326SOL    HW225076   5.052   2.647   1.553  0.4131  0.1201  0.4039
 6326SOL    HW325077   5.146   2.586   1.452  1.5900  0.1094  1.4747
 6326SOL    MW425078   5.107   2.656   1.486  0.0236 -0.1874  0.3570
 6327SOL     OW25079   1.910   2.839   1.692 -0.3031  0.7691  0.1031
 6327SOL    HW225080   1.933   2.899   1.621 -0.1285  1.6677  0.8948
 6327SOL    HW325081   1.958   2.759   1.672  0.1426  1.1802 -0.5147
 6327SOL    MW425082   1.919   2.836   1.680 -0.4236 -0.0061 -0.0122
 6328SOL     OW25083   4.775   0.027   3.569 -0.0884  0.0035  0.3777
 6328SOL    HW225084   4.821  -0.032   3.628  0.4083  0.6714  0.6797
 6328SOL    HW325085   4.818   0.015   3.484 -0.9503 -1.1195  0.0808
 6328SOL    MW425086   4.787   0.018   3.565  0.1013  0.1749 -0.1947
 6329SOL     OW25087   1.677   3.921   2.619  0.0480 -0.6018  0.4261
 6329SOL    HW225088   1.639   3.885   2.699 -0.1515 -0.8283  0.2304
 6329SOL    HW325089   1.641   4.010   2.613  0.6081 -0.3327  0.9543
 6329SOL    MW425090   1.667   3.928   2.629 -0.6882 -0.2440  0.9003
 6330SOL     OW25091   3.862   5.097   0.804 -0.6225 -0.2517 -0.1178
 6330SOL    HW225092   3.896   5.071   0.890 -3.7577 -2.1716  0.7170
 6330SOL    HW325093   3.817   5.180   0.820  0.8443  0.6367 -0.4957
 6330SOL    MW425094   3.860   5.104   0.817 -0.0131  0.7466  0.2474
 6331SOL     OW25095   3.604   0.483   2.812  0.4322 -0.4037  0.1126
 6331SOL    HW225096   3.596   0.571   2.777  0.2768  0.5084  2.3307
 6331SOL    HW325097   3.568   0.427   2.743  1.0178  1.1753 -1.5534
 6331SOL    MW425098   3.598   0.487   2.798 -0.0791  0.2714 -0.5999
 6332SOL     OW25099   5.363   0.361   0.401  0.1333 -0.7188 -0.2172
 6332SOL    HW225100   5.410   0.433   0.443 -2.3272 -0.1581  1.7949
 6332SOL    HW325101   5.336   0.396   0.316 -1.2831  0.9050  0.8537
 6332SOL    MW425102   5.366   0.375   0.395  0.1687 -0.0487 -0.0792
 6333SOL     OW25103   1.266   5.475   6.196 -0.3541  0.0101  0.1060
 6333SOL    HW225104   1.346   5.431   6.225 -0.8996 -1.2738 -0.2445
 6333SOL    HW325105   1.296   5.542   6.135  0.4822 -0.2510  0.2129
 6333SOL    MW425106   1.280   5.478   6.192 -0.2449 -0.6425  0.0899
 6334SOL     OW25107   5.923   1.591   6.034  0.0034  0.2110 -0.4172
 6334SOL    HW225108   5.975   1.650   5.980  0.5875  2.0232  1.9321
 6334SOL    HW325109   5.987   1.540   6.084 -0.3564  1.6410  1.6481
 6334SOL    MW425110   5.938   1.592   6.034 -0.1246  0.5676  0.2308
 6335SOL     OW25111   0.656   3.398   0.962 -0.0470  0.0445  0.2064
 6335SOL    HW225112   0.561   3.387   0.958 -0.0751  0.5022 -0.6206
 6335SOL    HW325113   0.679   3.441   0.879  0.8204  0.3636  0.5968
 6335SOL    MW425114   0.647   3.403   0.950 -0.2728  0.3490  1.2241
 6336SOL     OW25115   0.323   1.329   2.053  0.3079  0.3918  0.0888
 6336SOL    HW225116   0.362   1.270   2.117  0.8864  0.8764  0.1968
 6336SOL    HW325117   0.230   1.330   2.074  0.2963 -0.4418  0.1076
 6336SOL    MW425118   0.316   1.321   2.064  0.6595 -0.4672 -0.0696
 6337SOL     OW25119   5.335   6.295   3.466  0.5641 -0.2192 -0.1388
 6337SOL    HW225120   5.251   6.253   3.483  0.6242 -0.5315 -0.5737
 6337SOL    HW325121   5.357   6.267   3.377 -0.0602  1.8651 -1.0091
 6337SOL    MW425122   5.327   6.285   3.456  0.6614 -0.3417  0.0372
 6338SOL     OW25123   2.881   2.587   2.739 -0.5860 -0.1721  0.7057
 6338SOL    HW225124   2.830   2.506   2.747 -0.5571 -0.1147  1.5022
 6338SOL    HW325125   2.904   2.610   2.829 -2.0571  1.6787  0.6606
 6338SOL    MW425126   2.878   2.579   2.752 -0.2569 -0.0006 -0.0849
 6339SOL     OW25127   6.086   0.675   0.092 -0.5940  0.3005 -0.5588
 6339SOL    HW225128   6.110   0.606   0.030  0.3045 -1.1152  1.2615
 6339SOL    HW325129   5.996   0.656   0.116 -0.0905 -0.8205  0.5723
 6339SOL    MW425130   6.077   0.663   0.087 -0.1878  0.5778 -0.3058
 6340SOL     OW25131   3.350   3.236   0.338  0.3897  0.0905 -0.0353
 6340SOL    HW225132   3.349   3.315   0.284  0.7262  0.0785 -0.0602
 6340SOL    HW325133   3.427   3.245   0.394  0.3245 -0.1317  0.0950
 6340SOL    MW425134   3.360   3.248   0.338  0.6146 -0.3472  0.6184
 6341SOL     OW25135   3.118   1.748   3.272  0.2907 -0.1258  0.9499
 6341SOL    HW225136   3.133   1.818   3.335  0.4373  0.4460  0.2874
 6341SOL    HW325137   3.091   1.792   3.192  2.4482 -0.6405 -0.1512
 6341SOL    MW425138   3.116   1.763   3.270 -0.1621 -0.4732  0.3887
 6342SOL     OW25139   5.667   4.916   4.996  0.3413 -0.0296 -0.1012
 6342SOL    HW225140   5.652   5.003   4.959 -0.9502 -0.6522 -1.1672
 6342SOL    HW325141   5.660   4.928   5.090 -2.8320  0.6064 -0.2825
 6342SOL    MW425142   5.664   4.929   5.003  0.1262  0.1863  0.5994
 6343SOL     OW25143   0.262   3.675   1.124 -0.0222 -0.1630  0.1811
 6343SOL    HW225144   0.334   3.663   1.187 -0.6208  0.8850  1.1039
 6343SOL    HW325145   0.243   3.768   1.128  0.7919  0.1978 -2.5700
 6343SOL    MW425146   0.269   3.685   1.133  0.0391  0.2374  0.7364
 6344SOL     OW25147   0.766   3.588   4.605  0.0192  0.1776 -0.2956
 6344SOL    HW225148   0.710   3.657   4.640  0.9082  0.6388  0.2290
 6344SOL    HW325149   0.714   3.549   4.535 -0.6909  1.0487 -0.2716
 6344SOL    MW425150   0.752   3.592   4.600  0.3430  0.2908  0.8674
 6345SOL     OW25151   2.894   5.227   4.205 -0.6126 -0.5345  0.7847
 6345SOL    HW225152   2.834   5.171   4.156 -2.5219  1.2355  0.9571
 6345SOL    HW325153   2.872   5.210   4.297  0.6802 -1.4456  0.9410
 6345SOL    MW425154   2.883   5.217   4.211  0.1413 -0.2120  0.1973
 6346SOL     OW25155   4.648   5.156   1.184 -0.2559 -0.0962 -0.3774
 6346SOL    HW225156   4.584   5.216   1.145  0.8626  0.9482 -0.6633
 6346SOL    HW325157   4.665   5.192   1.271 -1.3223 -1.3531  0.3879
 6346SOL    MW425158   4.642   5.169   1.190  0.1580 -0.3241 -0.1673
 6347SOL     OW25159   5.892   4.686   4.658 -0.0213  0.3315  0.0274
 6347SOL    HW225160   5.849   4.610   4.697  0.6143 -0.0601 -0.0247
 6347SOL    HW325161   5.907   4.745   4.732 -0.3246  0.3165  0.1026
 6347SOL    MW425162   5.888   4.684   4.673 -0.4644  0.0831  0.5742
 6348SOL     OW25163   0.936   2.840   5.630 -0.3597  0.1309  0.4291
 6348SOL    HW225164   0.983   2.763   5.597  0.7722  1.4209 -1.1047
 6348SOL    HW325165   1.003   2.908   5.639 -1.6457  1.5742 -0.3480
 6348SOL    MW425166   0.951   2.839   5.627  0.1946 -0.5478 -0.2749
 6349SOL     OW25167   5.261   5.002   1.956  0.2638  0.0119 -0.2517
 6349SOL    HW225168   5.187   5.011   1.895 -0.5379  1.5128  0.8615
 6349SOL    HW325169   5.330   4.960   1.905 -0.9705 -0.3977 -1.6581
 6349SOL    MW425170   5.260   4.997   1.941 -0.5580 -0.2147  0.4079
 6350SOL     OW25171   4.145   4.237   5.430  0.2743  0.3921  0.5288
 6350SOL    HW225172   4.157   4.250   5.336 -0.5658  0.2384  0.3955
 6350SOL    HW325173   4.112   4.148   5.437 -1.0697  0.8993  0.8472
 6350SOL    MW425174   4.142   4.227   5.418  0.2182 -0.0328 -0.4336
 6351SOL     OW25175   4.643   3.381   0.680 -0.2946  0.2917  0.5323
 6351SOL    HW225176   4.639   3.475   0.698  1.1462  0.7549 -1.2040
 6351SOL    HW325177   4.733   3.356   0.704 -0.4477 -0.4960  0.3287
 6351SOL    MW425178   4.655   3.390   0.685 -0.6651 -0.1344 -0.2244
 6352SOL     OW25179   1.097   5.342   1.660  0.3774  0.3667 -0.9360
 6352SOL    HW225180   1.029   5.302   1.715 -0.2477  0.7497 -1.4245
 6352SOL    HW325181   1.168   5.278   1.659  0.0064 -0.0557 -0.4568
 6352SOL    MW425182   1.097   5.328   1.667 -0.1568  0.1461  0.3270
 6353SOL     OW25183   5.910   1.687   0.150  0.0247 -0.2404 -0.1696
 6353SOL    HW225184   5.932   1.770   0.109 -2.2852  1.2230  1.3153
 6353SOL    HW325185   5.942   1.695   0.240  0.8735 -1.4980 -0.3297
 6353SOL    MW425186   5.917   1.699   0.157 -0.5207 -0.1592  0.4373
 6354SOL     OW25187   1.677   0.566   0.894  0.6244  0.2592  0.4726
 6354SOL    HW225188   1.674   0.514   0.813  1.0266  1.6644 -0.4846
 6354SOL    HW325189   1.585   0.581   0.915  0.4604 -1.7365  1.4071
 6354SOL    MW425190   1.664   0.561   0.886  0.4052 -0.0170  0.0957
 6355SOL     OW25191   2.846   5.690   6.105 -0.1293 -0.5411 -0.3367
 6355SOL    HW225192   2.935   5.676   6.138 -0.0714 -1.6715 -0.9275
 6355SOL    HW325193   2.852   5.771   6.054  0.5463 -0.5472 -0.2760
 6355SOL    MW425194   2.859   5.699   6.102  0.9093 -0.5993 -0.5346
 6356SOL     OW25195   1.377   3.129   5.686  0.4085  0.3410 -0.2996
 6356SOL    HW225196   1.396   3.121   5.780  1.3508  2.0780 -0.2938
 6356SOL    HW325197   1.283   3.115   5.679  0.5271 -1.2453  0.6927
 6356SOL    MW425198   1.367   3.126   5.698 -0.2759 -0.0310 -0.3056
 6357SOL     OW25199   1.087   0.489   0.089  0.3284  0.3369  0.8217
 6357SOL    HW225200   1.001   0.448   0.099  0.1740  0.5422  0.3798
 6357SOL    HW325201   1.149   0.420   0.113  0.0608 -0.0519  0.4247
 6357SOL    MW425202   1.083   0.475   0.093  0.3468 -0.5289 -0.0856
 6358SOL     OW25203   0.971   2.219   5.747 -0.4407  0.0407  0.0017
 6358SOL    HW225204   0.914   2.143   5.755 -0.9276  0.1380 -1.9883
 6358SOL    HW325205   0.960   2.266   5.830 -0.0007 -2.0868  1.3508
 6358SOL    MW425206   0.962   2.215   5.759  0.2007  0.3226 -0.1503
 6359SOL     OW25207   1.511   2.337   2.544  0.1184  0.1085 -0.3256
 6359SOL    HW225208   1.486   2.260   2.493  0.5795 -0.7819  0.7469
 6359SOL    HW325209   1.433   2.392   2.543 -1.3597 -1.7712  1.4145
 6359SOL    MW425210   1.497   2.334   2.538 -0.2709 -0.0735  0.5424
 6360SOL     OW25211   4.193   2.151   1.902  0.4392 -0.5883 -0.7635
 6360SOL    HW225212   4.209   2.244   1.890  1.7303 -0.8468 -1.1914
 6360SOL    HW325213   4.199   2.138   1.997  0.9327 -0.3472 -0.7586
 6360SOL    MW425214   4.196   2.161   1.913 -0.4669  0.1572 -0.2668
 6361SOL     OW25215   0.868   3.323   3.300  0.1823 -0.1860 -0.2904
 6361SOL    HW225216   0.872   3.389   3.231 -1.6553 -0.5621 -0.8246
 6361SOL    HW325217   0.831   3.246   3.256  1.8199 -1.4327  0.4237
 6361SOL    MW425218   0.863   3.321   3.285 -0.2905 -0.1763 -0.1161
 6362SOL     OW25219   1.768   6.040   3.624 -0.3243 -0.1868  0.1410
 6362SOL    HW225220   1.840   6.014   3.682  0.0544 -2.3715 -1.2054
 6362SOL    HW325221   1.801   6.022   3.536 -2.4907 -1.2188 -0.5228
 6362SOL    MW425222   1.782   6.034   3.620  0.4134 -0.3645  0.7423
 6363SOL     OW25223   4.510   2.176   4.933  0.2457  0.3009  0.0655
 6363SOL    HW225224   4.585   2.122   4.908 -0.7497 -1.3907  0.5797
 6363SOL    HW325225   4.535   2.213   5.017  1.1350  1.0639 -0.5132
 6363SOL    MW425226   4.523   2.173   4.941  0.1587 -0.0068  0.3246
 6364SOL     OW25227   2.788   4.090   4.816 -0.0246 -0.0844 -0.1774
 6364SOL    HW225228   2.753   4.060   4.900 -0.4508  0.6983 -0.0691
 6364SOL    HW325229   2.848   4.160   4.839 -1.1633  1.0585 -0.6002
 6364SOL    MW425230   2.791   4.095   4.830 -0.3439 -0.6622  0.3285
 6365SOL     OW25231   2.828   5.223   4.478 -0.7333  0.3763  0.2947
 6365SOL    HW225232   2.733   5.217   4.476 -0.7177  0.3444 -0.2802
 6365SOL    HW325233   2.846   5.316   4.490 -0.8279  0.4855 -0.3841
 6365SOL    MW425234   2.818   5.234   4.480  0.0173 -0.1895  0.1882
 6366SOL     OW25235   4.379   3.023   0.066 -0.0742  0.0433 -0.0775
 6366SOL    HW225236   4.397   3.087  -0.003 -0.3323 -0.3094 -0.4844
 6366SOL    HW325237   4.450   3.034   0.129  0.4419  0.0423 -0.6478
 6366SOL    MW425238   4.390   3.033   0.065  0.7479  0.3713  0.0043
 6367SOL     OW25239   1.895   1.020   1.132 -0.9886  0.0558 -0.2778
 6367SOL    HW225240   1.885   1.090   1.196  0.1284  1.4639 -1.5451
 6367SOL    HW325241   1.920   0.943   1.184 -0.3618  1.0781  0.9981
 6367SOL    MW425242   1.897   1.019   1.147  0.6579  0.1139  1.0179
 6368SOL     OW25243   4.682   3.654   3.484 -0.3764 -0.3595  0.4549
 6368SOL    HW225244   4.667   3.740   3.523 -0.5893  0.0037 -0.4023
 6368SOL    HW325245   4.766   3.664   3.438 -1.1078 -0.1321 -0.8905
 6368SOL    MW425246   4.691   3.667   3.483 -0.6467  0.6487  0.1389
 6369SOL     OW25247   5.520   1.515   4.428  0.0253 -0.3236  0.1844
 6369SOL    HW225248   5.591   1.566   4.466 -0.5817 -1.0367  2.4257
 6369SOL    HW325249   5.443   1.572   4.434  0.2462  0.2637 -1.7886
 6369SOL    MW425250   5.519   1.529   4.434 -0.2693  0.4963 -0.1871
 6370SOL     OW25251   5.336   6.379   1.727  0.5212  0.5083  0.2170
 6370SOL    HW225252   5.243   6.369   1.748  0.3321 -0.6090 -1.0173
 6370SOL    HW325253   5.381   6.332   1.796 -0.0418 -2.3167 -1.1796
 6370SOL    MW425254   5.329   6.372   1.739  0.1942 -0.9263  0.0941
 6371SOL     OW25255   2.886   4.022   4.293  0.1006  0.1613  0.0781
 6371SOL    HW225256   2.938   4.091   4.335  0.8228  0.8713 -1.8519
 6371SOL    HW325257   2.839   4.067   4.223  0.0171 -1.1766 -0.7556
 6371SOL    MW425258   2.887   4.037   4.289  0.2655  0.1609  0.4911
 6372SOL     OW25259   5.241   1.266   0.608 -0.0031  0.5988  0.2839
 6372SOL    HW225260   5.269   1.187   0.561  1.1028  0.8120  0.5450
 6372SOL    HW325261   5.193   1.317   0.543  1.5181  0.9019 -0.6718
 6372SOL    MW425262   5.238   1.262   0.593  0.0747 -0.1648 -0.1861
 6373SOL     OW25263   3.748   5.874   3.523 -0.5592 -0.4336 -0.0549
 6373SOL    HW225264   3.828   5.830   3.495 -0.3302 -1.7134  2.3508
 6373SOL    HW325265   3.753   5.961   3.484  1.1640 -1.0531 -1.3230
 6373SOL    MW425266   3.759   5.880   3.514 -0.3222 -0.0092 -0.3075
 6374SOL     OW25267   2.227   0.168   6.118 -0.1095  0.3705  0.0649
 6374SOL    HW225268   2.183   0.158   6.034 -0.4237  0.2056  0.2464
 6374SOL    HW325269   2.285   0.244   6.106 -1.5980  1.6039  0.2841
 6374SOL    MW425270   2.229   0.177   6.106  0.5899  0.1643 -0.1315
 6375SOL     OW25271   2.123   2.061   5.770 -0.5332  0.0387  0.1501
 6375SOL    HW225272   2.075   2.017   5.841 -1.2361  0.3052 -0.1513
 6375SOL    HW325273   2.097   2.153   5.777  0.3407  0.2789  0.2997
 6375SOL    MW425274   2.113   2.067   5.780 -0.0004  0.3751 -0.4251
 6376SOL     OW25275   4.364   6.014   1.221 -0.0709  0.3250  0.0435
 6376SOL    HW225276   4.433   6.041   1.282  0.7946  0.0982 -0.8191
 6376SOL    HW325277   4.352   6.089   1.163 -0.6206  0.3935  0.2354
 6376SOL    MW425278   4.371   6.028   1.222 -0.6098 -0.3954  0.4026
 6377SOL     OW25279   1.604   3.819   3.774 -0.0284  0.4737 -0.2310
 6377SOL    HW225280   1.693   3.806   3.808  0.2064 -0.5930 -1.1666
 6377SOL    HW325281   1.585   3.738   3.726 -1.1988  1.0129 -0.7186
 6377SOL    MW425282   1.614   3.806   3.772  0.1270  0.0393  0.3930
 6378SOL     OW25283   3.872   3.099   5.469 -0.3447  0.2005  0.0325
 6378SOL    HW225284   3.832   3.016   5.444  0.3766 -0.2135  0.2244
 6378SOL    HW325285   3.913   3.082   5.554  0.5943  0.4791 -0.3470
 6378SOL    MW425286   3.872   3.086   5.477  0.1426 -0.4933  0.4717
 6379SOL     OW25287   1.481   2.509   0.311  0.4379 -0.1910  0.6893
 6379SOL    HW225288   1.528   2.461   0.379 -0.1432  0.2973  1.4632
 6379SOL    HW325289   1.422   2.567   0.360 -1.6554 -1.4238 -0.2072
 6379SOL    MW425290   1.479   2.510   0.327  0.0838 -0.1610  0.2028
 6380SOL     OW25291   4.891   1.443   4.740 -0.5383  0.2556  0.4118
 6380SOL    HW225292   4.972   1.407   4.775 -0.7596 -1.5791 -0.8086
 6380SOL    HW325293   4.916   1.528   4.704  1.1674 -0.7835 -1.0328
 6380SOL    MW425294   4.905   1.449   4.740  0.1372 -0.0313 -0.0284
 6381SOL     OW25295   1.073   5.955   2.975 -0.0308 -0.2755 -0.5433
 6381SOL    HW225296   1.073   6.034   3.030  1.8268 -0.6973  0.1466
 6381SOL    HW325297   1.096   5.987   2.888  0.2666 -0.0036 -0.3676
 6381SOL    MW425298   1.076   5.970   2.971 -0.0745 -0.2369  0.3225
 6382SOL     OW25299   4.168   5.257   1.238 -0.1441 -0.2083  0.4094
 6382SOL    HW225300   4.200   5.186   1.182 -2.0438 -1.8346  1.2644
 6382SOL    HW325301   4.170   5.334   1.182  2.0176 -0.8701 -0.5483
 6382SOL    MW425302   4.173   5.257   1.223  0.3102  0.1873 -0.3105
 6383SOL     OW25303   2.387   2.075   3.260  0.1223  0.3222  0.5916
 6383SOL    HW225304   2.354   2.126   3.187  1.0511  0.3371  0.1648
 6383SOL    HW325305   2.433   2.001   3.219 -0.6356 -0.5008  1.1837
 6383SOL    MW425306   2.389   2.072   3.245 -0.1264 -0.1641  0.1509
 6384SOL     OW25307   1.582   0.171   5.039 -0.4032 -0.1650  0.5552
 6384SOL    HW225308   1.651   0.139   4.982  0.3448  1.2157  0.6237
 6384SOL    HW325309   1.579   0.108   5.111  2.4682  0.8780  1.7863
 6384SOL    MW425310   1.591   0.159   5.041 -0.3824  0.2004 -0.0842
 6385SOL     OW25311   6.276   4.530   3.523  0.0877 -0.1494 -0.3541
 6385SOL    HW225312   6.196   4.515   3.574 -0.8154  0.4559 -1.5548
 6385SOL    HW325313   6.282   4.454   3.465  1.6713 -1.3643  1.2593
 6385SOL    MW425314   6.266   4.518   3.522  0.3485  0.4117  0.5074
 6386SOL     OW25315   0.396   5.659   2.610 -0.4262 -0.2905  0.0425
 6386SOL    HW225316   0.405   5.609   2.529 -0.4924 -0.3459  0.0697
 6386SOL    HW325317   0.443   5.607   2.676  0.7806  0.4016 -0.2342
 6386SOL    MW425318   0.404   5.646   2.608 -0.0501  0.7889  0.2080
 6387SOL     OW25319   0.778   4.598   2.958 -0.6780 -0.0227 -0.4863
 6387SOL    HW225320   0.685   4.620   2.953 -0.6419 -0.0861 -1.5325
 6387SOL    HW325321   0.819   4.676   2.995 -1.3867 -0.6950  1.9098
 6387SOL    MW425322   0.771   4.611   2.962  0.2894 -0.1632  0.0231
 6388SOL     OW25323   3.175   4.885   4.038  0.5629 -0.5869 -0.1529
 6388SOL    HW225324   3.135   4.876   3.952  2.0033 -0.8533 -0.8278
 6388SOL    HW325325   3.231   4.808   4.047  3.7194  1.4554 -0.8283
 6388SOL    MW425326   3.177   4.874   4.028  0.2485 -0.0889 -0.3650
 6389SOL     OW25327   5.202   2.392   0.696  0.5449  0.0577 -0.0965
 6389SOL    HW225328   5.158   2.310   0.720  2.3196 -0.9806 -0.2023
 6389SOL    HW325329   5.294   2.367   0.684  1.1968  2.1389  0.1718
 6389SOL    MW425330   5.209   2.378   0.698  0.7569 -0.0930 -0.4338
 6390SOL     OW25331   5.937   2.303   5.654 -0.0285  0.1692 -0.4115
 6390SOL    HW225332   6.021   2.333   5.618 -0.0060  0.8866  0.2008
 6390SOL    HW325333   5.959   2.224   5.703  0.2626  0.2479 -0.4092
 6390SOL    MW425334   5.951   2.297   5.655  1.1286  0.1340  0.6265
 6391SOL     OW25335   1.450   4.516   5.691 -0.0389  0.1349  0.3683
 6391SOL    HW225336   1.503   4.462   5.750  0.9372  1.0036  0.3285
 6391SOL    HW325337   1.403   4.453   5.637  0.7315 -0.6818  0.6164
 6391SOL    MW425338   1.451   4.501   5.692  0.1446 -0.0306  0.2549
 6392SOL     OW25339   5.559   1.383   3.257 -0.4688 -0.4110  0.0534
 6392SOL    HW225340   5.635   1.374   3.316 -0.2773  3.2903  0.6312
 6392SOL    HW325341   5.582   1.331   3.180  2.5636  0.3345  0.3273
 6392SOL    MW425342   5.572   1.375   3.255 -0.5116  0.7613  0.1189
 6393SOL     OW25343   1.304   2.882   4.746 -0.9187  0.2934  0.5003
 6393SOL    HW225344   1.379   2.935   4.720 -1.6002 -0.0220 -2.4372
 6393SOL    HW325345   1.333   2.837   4.825  0.9460  2.2657  1.0517
 6393SOL    MW425346   1.318   2.883   4.753 -0.3894  0.0934  0.0602
 6394SOL     OW25347   4.817   4.502   2.185  0.9512  0.5019  0.0022
 6394SOL    HW225348   4.896   4.552   2.162  0.7605  0.3951 -0.9428
 6394SOL    HW325349   4.847   4.412   2.192  0.9599  0.4962 -0.1068
 6394SOL    MW425350   4.832   4.497   2.183 -0.0598 -0.2843 -0.3019
 6395SOL     OW25351   1.334   4.739   5.810 -0.4450  0.7081  0.1796
 6395SOL    HW225352   1.376   4.734   5.896  0.9127  0.2253 -0.4793
 6395SOL    HW325353   1.380   4.674   5.758 -1.5142  0.7296 -0.8171
 6395SOL    MW425354   1.346   4.730   5.815 -0.7184 -0.4525  0.0149
 6396SOL     OW25355   1.537   5.721   3.173 -0.1909 -0.0466 -0.5081
 6396SOL    HW225356   1.535   5.816   3.182  0.1729 -0.0530 -0.3549
 6396SOL    HW325357   1.603   5.692   3.236 -0.7747 -0.4610 -0.0814
 6396SOL    MW425358   1.546   5.730   3.182  0.1281  0.7867 -0.4937
 6397SOL     OW25359   1.192   4.570   5.416 -0.2737 -0.0981  0.5618
 6397SOL    HW225360   1.144   4.578   5.334  0.3742 -0.2356  0.1686
 6397SOL    HW325361   1.127   4.589   5.484 -0.4747  1.4653 -0.0376
 6397SOL    MW425362   1.177   4.574   5.414  0.1416  0.4480  0.5761
 6398SOL     OW25363   1.813   2.951   2.346 -0.4058 -0.4541  0.1250
 6398SOL    HW225364   1.899   2.942   2.306 -1.1187 -1.6504 -1.2603
 6398SOL    HW325365   1.824   3.018   2.413  1.5400 -0.4448 -0.1528
 6398SOL    MW425366   1.826   2.958   2.349 -0.4933 -0.4791  0.2290
 6399SOL     OW25367   4.282   3.533   4.014  0.2639  0.2889  0.2550
 6399SOL    HW225368   4.368   3.574   4.011  2.0247 -2.7942  2.6491
 6399SOL    HW325369   4.257   3.537   4.106 -2.4119  1.3473 -0.4117
 6399SOL    MW425370   4.290   3.539   4.026  0.1419 -0.2544 -0.1328
 6400SOL     OW25371   0.996   4.618   1.637 -0.6354 -0.5941  0.1915
 6400SOL    HW225372   0.983   4.525   1.619  1.4118 -1.0350  0.7400
 6400SOL    HW325373   1.010   4.658   1.551  1.4562 -1.3507  0.1247
 6400SOL    MW425374   0.996   4.611   1.623 -0.0135 -0.0173 -0.1994
 6401SOL     OW25375   3.074   0.845   4.712  0.3845 -1.1294  0.3910
 6401SOL    HW225376   3.144   0.780   4.702 -0.6929 -2.3280  0.4204
 6401SOL    HW325377   3.043   0.860   4.623  0.0392 -1.3263  0.4783
 6401SOL    MW425378   3.079   0.839   4.699 -0.0601 -0.3078  0.1916
 6402SOL     OW25379   5.575   5.880   1.146 -0.7425  0.5616  0.0247
 6402SOL    HW225380   5.577   5.973   1.167  0.7284  0.5641 -0.0215
 6402SOL    HW325381   5.557   5.837   1.230 -1.0078  0.8715  0.1263
 6402SOL    MW425382   5.573   5.886   1.160 -0.3599  0.4022 -0.2258
 6403SOL     OW25383   2.090   6.104   5.115 -0.3811  0.4879 -0.2580
 6403SOL    HW225384   2.031   6.173   5.089 -1.1511  0.2617  0.8291
 6403SOL    HW325385   2.046   6.023   5.089  0.7585  0.3567 -2.0377
 6403SOL    MW425386   2.077   6.102   5.108 -0.0399 -0.1338  0.7785
 6404SOL     OW25387   3.595   0.045   1.109 -0.0503 -0.3325 -0.3671
 6404SOL    HW225388   3.665  -0.010   1.075  0.1257 -0.8373  0.7752
 6404SOL    HW325389   3.520  -0.014   1.117 -0.6648  0.2163 -1.6489
 6404SOL    MW425390   3.594   0.030   1.106  0.0964 -0.2342  0.1657
 6405SOL     OW25391   2.388   5.522   1.650  0.3192  0.1559 -0.2521
 6405SOL    HW225392   2.335   5.455   1.693 -0.7722 -0.2246 -2.0975
 6405SOL    HW325393   2.436   5.475   1.582 -0.9546  1.2948 -2.0029
 6405SOL    MW425394   2.387   5.507   1.647 -0.2950  0.7995 -0.0805
 6406SOL     OW25395   4.632   2.539   2.208  0.0529  0.2579 -0.0860
 6406SOL    HW225396   4.727   2.531   2.199  0.0014 -0.2184 -0.2596
 6406SOL    HW325397   4.608   2.611   2.150  0.3980  0.8871  0.5458
 6406SOL    MW425398   4.641   2.547   2.199 -0.2736 -0.0071 -0.5145
 6407SOL     OW25399   2.651   4.802   5.994 -0.1108  0.1656 -0.4402
 6407SOL    HW225400   2.651   4.898   5.998 -0.7653  0.2883 -2.3147
 6407SOL    HW325401   2.608   4.782   5.911 -0.6242 -1.7905  0.2553
 6407SOL    MW425402   2.646   4.812   5.983  0.5056  0.0955  0.1925
 6408SOL     OW25403   3.317   1.086   3.204  0.2110 -0.5275 -0.5121
 6408SOL    HW225404   3.243   1.138   3.235 -0.9035 -0.3766 -3.1059
 6408SOL    HW325405   3.312   1.005   3.255 -0.3979  0.3303  0.8501
 6408SOL    MW425406   3.306   1.082   3.215  1.1018 -0.4499  0.1078
 6409SOL     OW25407   1.637   4.644   3.364 -0.0252 -0.2292 -0.1631
 6409SOL    HW225408   1.697   4.608   3.298 -2.1378 -0.6948 -1.9754
 6409SOL    HW325409   1.624   4.572   3.426  3.7841  0.9396  2.2769
 6409SOL    MW425410   1.643   4.629   3.363  1.1728 -0.3169 -0.2815
 6410SOL     OW25411   1.920   2.720   0.361  0.4648 -0.1073 -0.3088
 6410SOL    HW225412   1.824   2.716   0.362  0.4470 -1.1480 -2.0039
 6410SOL    HW325413   1.944   2.730   0.453 -1.2570 -0.0550  0.1838
 6410SOL    MW425414   1.910   2.721   0.374 -0.1174 -0.1496 -0.4232
 6411SOL     OW25415   4.476   4.758   5.417  0.1627 -0.0749  0.1756
 6411SOL    HW225416   4.509   4.717   5.337 -0.2798 -0.6998  0.3084
 6411SOL    HW325417   4.508   4.848   5.413  0.5397 -0.2357 -0.4734
 6411SOL    MW425418   4.484   4.765   5.406 -0.4993  0.9877  0.6667
 6412SOL     OW25419   1.684   4.128   3.008 -0.3964  0.0116  0.8564
 6412SOL    HW225420   1.768   4.167   2.986 -0.1042  0.1719  2.1480
 6412SOL    HW325421   1.706   4.044   3.048 -0.9295 -0.5935 -0.0820
 6412SOL    MW425422   1.698   4.122   3.011  0.1344  0.1046 -0.2293
 6413SOL     OW25423   3.211   3.519   5.764 -0.0590 -0.8961  0.2549
 6413SOL    HW225424   3.160   3.450   5.808  0.0354 -1.9251 -1.1728
 6413SOL    HW325425   3.230   3.482   5.678 -2.1428  1.8748 -1.5557
 6413SOL    MW425426   3.207   3.505   5.759  0.1760 -0.4346  0.3947
 6414SOL     OW25427   0.797   6.244   0.225 -0.0752  0.1752 -0.0275
 6414SOL    HW225428   0.777   6.162   0.180 -1.4683  0.5378 -0.1203
 6414SOL    HW325429   0.872   6.280   0.178  0.4259 -0.9409 -0.1100
 6414SOL    MW425430   0.804   6.238   0.213 -0.3827  0.1385 -0.1268
 6415SOL     OW25431   2.953   2.165   3.429 -0.5320 -0.0176 -0.1573
 6415SOL    HW225432   2.953   2.242   3.486 -0.5421  0.3875 -0.6952
 6415SOL    HW325433   2.860   2.146   3.417 -0.5216 -0.5369  0.5283
 6415SOL    MW425434   2.940   2.173   3.435 -0.2175 -0.1409  0.2680
 6416SOL     OW25435   5.389   3.650   5.735  0.0922 -0.1413 -0.3817
 6416SOL    HW225436   5.350   3.734   5.759 -0.0772 -0.7326  1.5989
 6416SOL    HW325437   5.323   3.585   5.760 -0.7229 -0.8459 -3.8662
 6416SOL    MW425438   5.375   3.652   5.741  0.1909  0.4167  0.3516
 6417SOL     OW25439   5.437   2.908   0.308  0.3434 -0.3593  0.4429
 6417SOL    HW225440   5.403   2.954   0.385  2.2382  0.1877  1.0037
 6417SOL    HW325441   5.376   2.932   0.238 -0.9775 -0.2381  1.5754
 6417SOL    MW425442   5.424   2.917   0.309  0.3604  0.1186 -0.0835
 6418SOL     OW25443   3.375   6.302   2.825  0.5406  0.1909 -0.0798
 6418SOL    HW225444   3.376   6.337   2.914  3.1221  3.2770 -1.1139
 6418SOL    HW325445   3.338   6.373   2.772 -2.3876 -2.1308 -1.4108
 6418SOL    MW425446   3.370   6.316   2.830  0.2645 -0.5194 -0.0912
 6419SOL     OW25447   2.540   5.060   3.374 -0.2103  0.7749 -0.5133
 6419SOL    HW225448   2.477   5.053   3.302  0.7757 -1.5355 -1.2428
 6419SOL    HW325449   2.625   5.040   3.334  0.5583  0.7036  1.0535
 6419SOL    MW425450   2.543   5.056   3.359  0.2341  0.3685  0.1240
 6420SOL     OW25451   1.007   5.599   1.333  0.2999 -0.2876  0.5350
 6420SOL    HW225452   1.017   5.694   1.329 -1.6162 -0.0610  0.5681
 6420SOL    HW325453   0.914   5.584   1.345  0.4036 -2.2135 -0.5790
 6420SOL    MW425454   0.996   5.609   1.334 -0.2192  0.3710  0.5144
 6421SOL     OW25455   5.394   5.306   2.604 -0.3553  0.0004 -0.9856
 6421SOL    HW225456   5.309   5.339   2.633  1.3356  3.0737  0.9972
 6421SOL    HW325457   5.430   5.377   2.550  2.0297  0.0793  0.5475
 6421SOL    MW425458   5.388   5.320   2.601  0.2787  0.1975 -0.3331
 6422SOL     OW25459   1.076   2.041   0.501  0.4970 -0.3030  0.0259
 6422SOL    HW225460   1.087   2.046   0.406  2.7206  0.3983  0.2493
 6422SOL    HW325461   1.129   2.114   0.535  0.1076 -0.8015  1.8107
 6422SOL    MW425462   1.085   2.052   0.493 -0.3829  0.1460 -0.4389
 6423SOL     OW25463   1.808   0.071   0.324  0.0362  0.1960 -0.3639
 6423SOL    HW225464   1.884   0.087   0.268  0.6225 -1.9195 -0.2498
 6423SOL    HW325465   1.738   0.122   0.284  1.3531  1.7556 -0.7985
 6423SOL    MW425466   1.809   0.080   0.311  0.3123 -0.5785  0.3289
 6424SOL     OW25467   4.550   0.541   5.361  0.2967 -0.7330  0.6257
 6424SOL    HW225468   4.603   0.617   5.384 -0.0126 -0.4968  0.5681
 6424SOL    HW325469   4.550   0.541   5.265 -0.7353 -0.0689  0.6146
 6424SOL    MW425470   4.557   0.551   5.351  0.3257  0.1296  0.0581
 6425SOL     OW25471   3.110   3.246   5.857 -0.4522  0.0620  0.1955
 6425SOL    HW225472   3.176   3.263   5.924 -0.7652  0.9424  0.3016
 6425SOL    HW325473   3.127   3.157   5.828  2.0562  0.8847 -1.1946
 6425SOL    MW425474   3.121   3.237   5.862  0.2162  0.4687 -0.5316
 6426SOL     OW25475   5.246   1.036   5.810 -0.8792  0.2123 -0.1099
 6426SOL    HW225476   5.236   0.950   5.850 -0.4862 -0.3228 -1.1185
 6426SOL    HW325477   5.340   1.044   5.795 -1.1347 -0.1884 -2.1336
 6426SOL    MW425478   5.257   1.026   5.813  0.0203  0.3966 -0.4084
 6427SOL     OW25479   6.090   3.229   4.900  0.3115 -0.4179  0.1045
 6427SOL    HW225480   6.071   3.140   4.930 -0.5977 -0.2560  0.0430
 6427SOL    HW325481   6.090   3.223   4.805 -1.1631 -0.0991  0.0581
 6427SOL    MW425482   6.087   3.217   4.892  0.0506 -0.3882 -0.0578
 6428SOL     OW25483   0.819   2.839   1.589 -0.1509 -0.2192  0.6476
 6428SOL    HW225484   0.896   2.884   1.625  0.8471 -2.1939  1.1384
 6428SOL    HW325485   0.772   2.808   1.667 -0.2491 -0.9064  0.3163
 6428SOL    MW425486   0.823   2.841   1.604  0.1734  0.1678 -0.0275
 6429SOL     OW25487   6.095   3.604   3.046 -0.6831  0.1846  0.2204
 6429SOL    HW225488   6.067   3.514   3.032 -1.3933  0.2171  1.3564
 6429SOL    HW325489   6.034   3.656   2.993 -0.5249  0.0385 -0.1143
 6429SOL    MW425490   6.083   3.599   3.037 -0.3458  0.0972 -0.0484
 6430SOL     OW25491   2.100   4.480   2.190 -0.1775  0.1955 -0.1026
 6430SOL    HW225492   2.159   4.408   2.167  0.2090  0.4809 -0.0248
 6430SOL    HW325493   2.133   4.554   2.139  0.3580  0.7031  0.9505
 6430SOL    MW425494   2.113   4.480   2.180 -0.0884 -0.1942  0.1575
 6431SOL     OW25495   0.704   3.229   0.512  0.0875 -0.0068  0.2794
 6431SOL    HW225496   0.627   3.284   0.496  0.8606  0.4146 -2.4770
 6431SOL    HW325497   0.761   3.285   0.565  0.2968  1.4253 -1.3539
 6431SOL    MW425498   0.701   3.244   0.517 -0.0415 -0.2658 -0.0845
 6432SOL     OW25499   5.542   1.480   3.618 -0.0470 -0.1522 -0.0292
 6432SOL    HW225500   5.568   1.561   3.575 -0.3201  0.2278  0.5116
 6432SOL    HW325501   5.616   1.421   3.605  0.1314  0.1636 -0.4690
 6432SOL    MW425502   5.555   1.482   3.611  0.1580 -0.0682  0.0415
 6433SOL     OW25503   2.474   0.278   2.017  0.1907 -0.3810  0.3843
 6433SOL    HW225504   2.421   0.248   2.091  0.6869  0.0979  0.9439
 6433SOL    HW325505   2.465   0.208   1.952 -1.9416  0.1408  0.0259
 6433SOL    MW425506   2.466   0.265   2.018 -0.1248 -0.2460 -0.5456
 6434SOL     OW25507   3.318   2.769   5.171 -0.1642 -0.3672 -0.0514
 6434SOL    HW225508   3.345   2.860   5.161 -0.1756 -0.2351  1.0257
 6434SOL    HW325509   3.338   2.729   5.086 -0.7954  0.7867 -0.7632
 6434SOL    MW425510   3.324   2.776   5.159  0.2701 -0.5121  0.0702
 6435SOL     OW25511   2.791   5.292   1.110  0.5295 -0.8927  0.0061
 6435SOL    HW225512   2.722   5.242   1.066 -0.5621  0.9370 -0.4689
 6435SOL    HW325513   2.754   5.313   1.196  1.3592 -1.6688  0.5729
 6435SOL    MW425514   2.777   5.288   1.116 -0.2832  0.0458 -0.2950
 6436SOL     OW25515   5.166   0.541   3.522  0.0730  0.0191 -0.3364
 6436SOL    HW225516   5.148   0.447   3.517  2.2282 -0.4223 -0.6974
 6436SOL    HW325517   5.259   0.547   3.546 -0.4223  2.0776  1.4349
 6436SOL    MW425518   5.176   0.529   3.524  0.2478 -0.8178  0.0832
 6437SOL     OW25519   0.666   4.285   0.369  0.2509 -0.4473  0.1381
 6437SOL    HW225520   0.586   4.320   0.328 -0.1254  1.9208  2.5812
 6437SOL    HW325521   0.645   4.282   0.462  2.3232 -1.9174  0.6130
 6437SOL    MW425522   0.653   4.289   0.376 -0.6252  0.4206 -0.3745
 6438SOL     OW25523   1.044   4.390   1.957 -0.0633 -0.3461  0.0151
 6438SOL    HW225524   0.950   4.393   1.972  0.1180  0.8160  1.1184
 6438SOL    HW325525   1.059   4.308   1.911 -1.6431 -0.4138 -0.4152
 6438SOL    MW425526   1.034   4.380   1.953  0.6683 -0.0239 -0.2986
 6439SOL     OW25527   2.510   5.774   5.969  0.0601  0.2336  0.8223
 6439SOL    HW225528   2.597   5.798   6.002  0.6133  0.3161 -0.6374
 6439SOL    HW325529   2.449   5.815   6.031  1.0201  2.5982  0.3042
 6439SOL    MW425530   2.513   5.782   5.982  0.3683 -0.1293 -0.4189
 6440SOL     OW25531   2.986   1.205   5.852  0.2783 -0.7551  0.2407
 6440SOL    HW225532   2.953   1.277   5.906  0.1555 -1.5864  1.3140
 6440SOL    HW325533   2.931   1.130   5.874 -1.0724 -0.6953 -2.5273
 6440SOL    MW425534   2.975   1.205   5.862 -0.1901  0.7767  0.6814
 6441SOL     OW25535   1.659   5.711   5.104 -0.0542 -0.7187  0.7859
 6441SOL    HW225536   1.673   5.695   5.011  0.5793  0.3224  0.6888
 6441SOL    HW325537   1.596   5.782   5.107 -1.7024 -2.1314  1.1947
 6441SOL    MW425538   1.653   5.718   5.092  0.1317 -0.1432 -0.3914
 6442SOL     OW25539   3.706   1.320   0.090 -0.0134  0.1270 -0.0387
 6442SOL    HW225540   3.751   1.339   0.172  0.0312 -0.2971  0.0381
 6442SOL    HW325541   3.636   1.385   0.085  0.4571  0.6376 -0.0451
 6442SOL    MW425542   3.703   1.331   0.100  0.2121  0.2991  0.1407
 6443SOL     OW25543   0.388   5.049   2.731 -0.2146  0.7180 -0.1516
 6443SOL    HW225544   0.432   5.125   2.694  0.2801 -0.2024 -1.5539
 6443SOL    HW325545   0.387   4.985   2.659  0.0306 -0.8647  1.1970
 6443SOL    MW425546   0.393   5.051   2.716  0.1258  0.0434  0.5308
 6444SOL     OW25547   1.765   1.992   1.092 -0.1413  0.2131  0.3889
 6444SOL    HW225548   1.734   2.055   1.027 -0.2214 -0.3727 -0.1578
 6444SOL    HW325549   1.860   1.991   1.080 -0.2977 -1.4126 -1.2000
 6444SOL    MW425550   1.774   2.000   1.082 -0.0702  0.2885 -0.2577
 6445SOL     OW25551   3.154   2.183   2.639 -0.0387 -0.7928  0.4491
 6445SOL    HW225552   3.246   2.165   2.654  0.0239 -1.9346 -1.0393
 6445SOL    HW325553   3.150   2.277   2.620  0.9473 -0.8866 -0.2779
 6445SOL    MW425554   3.166   2.193   2.638  0.1583  0.4505  0.6350
 6446SOL     OW25555   4.055   5.622   5.187  0.1094 -0.3219  0.2427
 6446SOL    HW225556   4.146   5.600   5.206  1.3443  1.6603 -2.6771
 6446SOL    HW325557   4.043   5.709   5.227  0.5477  0.7460 -1.7976
 6446SOL    MW425558   4.066   5.631   5.195  0.2171 -0.3826  0.4195
 6447SOL     OW25559   3.285   2.413   5.700 -0.4541  0.2942 -0.0118
 6447SOL    HW225560   3.212   2.470   5.726 -0.8983 -0.0720 -0.4205
 6447SOL    HW325561   3.299   2.357   5.776 -2.3029 -1.3355 -0.7689
 6447SOL    MW425562   3.277   2.413   5.713 -0.1756  0.2367 -0.4348
 6448SOL     OW25563   2.928   4.410   3.115  0.4127  0.3755 -0.5401
 6448SOL    HW225564   2.949   4.492   3.159 -1.0556  0.4294  0.1168
 6448SOL    HW325565   2.843   4.384   3.151  0.8268 -1.4195 -0.7577
 6448SOL    MW425566   2.920   4.418   3.126 -0.5475  0.0716  0.5591
 6449SOL     OW25567   4.238   1.918   4.856  0.5106 -0.2810 -0.5353
 6449SOL    HW225568   4.307   1.898   4.792  1.0715  0.3181 -0.1271
 6449SOL    HW325569   4.216   2.009   4.839  1.5582  0.2775  0.9475
 6449SOL    MW425570   4.244   1.927   4.845  0.0856 -0.0176  0.6184
 6450SOL     OW25571   1.597   0.604   2.383 -0.2306  0.7626 -0.5640
 6450SOL    HW225572   1.584   0.571   2.294 -0.7701 -1.1652  0.1921
 6450SOL    HW325573   1.527   0.565   2.434  0.3587  1.4508  0.8254
 6450SOL    MW425574   1.586   0.595   2.378  0.1716  0.2711  0.3146
 6451SOL     OW25575   4.082   3.008   2.364 -0.7471  0.2230 -0.3722
 6451SOL    HW225576   4.172   3.036   2.350 -1.0734  1.2595 -0.4609
 6451SOL    HW325577   4.043   3.007   2.277 -0.7297 -0.5843 -0.3777
 6451SOL    MW425578   4.089   3.012   2.351 -0.4466 -0.5199 -0.1893
 6452SOL     OW25579   2.244   5.809   5.478  0.3734 -0.0258  0.1435
 6452SOL    HW225580   2.326   5.826   5.433 -0.0332 -0.0161 -0.6090
 6452SOL    HW325581   2.179   5.858   5.427 -0.3686 -1.4257 -0.2969
 6452SOL    MW425582   2.246   5.818   5.465  0.7316 -0.2144  0.8364
 6453SOL     OW25583   5.824   1.860   4.836 -0.1039  0.0282 -0.0851
 6453SOL    HW225584   5.894   1.818   4.787  0.2426 -1.4733  1.5876
 6453SOL    HW325585   5.868   1.908   4.906 -0.6743  0.0998  0.2406
 6453SOL    MW425586   5.839   1.861   4.839 -0.1918 -0.2313 -0.0958
 6454SOL     OW25587   0.508   4.270   1.393 -0.3163  0.0279  0.0677
 6454SOL    HW225588   0.448   4.283   1.466  0.3092  0.4801  0.5064
 6454SOL    HW325589   0.565   4.347   1.395 -0.3418  0.0825 -0.9449
 6454SOL    MW425590   0.507   4.282   1.403  0.1057 -0.2665 -0.1636
 6455SOL     OW25591   3.240   3.076   2.007 -0.0705 -0.0951  0.2299
 6455SOL    HW225592   3.162   3.115   1.965  0.6257  1.5121  0.3651
 6455SOL    HW325593   3.283   3.028   1.936 -1.1315 -0.9573  0.1364
 6455SOL    MW425594   3.235   3.075   1.992  0.4669  0.8166 -0.0678
 6456SOL     OW25595   3.598   5.567   0.206  0.8980  0.3590 -0.3236
 6456SOL    HW225596   3.625   5.584   0.116  0.2015  1.2493 -0.3782
 6456SOL    HW325597   3.655   5.496   0.236 -0.3485 -1.5764 -2.2198
 6456SOL    MW425598   3.609   5.560   0.198  0.6007  0.4856  0.4741
 6457SOL     OW25599   3.418   2.781   2.840  0.0867 -0.2643 -0.4758
 6457SOL    HW225600   3.390   2.856   2.788 -0.6787  0.6860  1.2429
 6457SOL    HW325601   3.339   2.727   2.850  0.1490 -0.2809 -0.0507
 6457SOL    MW425602   3.404   2.784   2.835  0.5916  0.0797  0.5724
 6458SOL     OW25603   2.070   6.166   2.234 -0.5642 -0.5863  0.3071
 6458SOL    HW225604   2.145   6.109   2.246  0.6033  0.8749  0.3112
 6458SOL    HW325605   2.036   6.180   2.323 -0.4600 -0.7837  0.3769
 6458SOL    MW425606   2.075   6.161   2.248 -0.1006  0.8014 -0.4835
 6459SOL     OW25607   5.166   5.913   5.467 -0.0429 -0.1728 -0.3837
 6459SOL    HW225608   5.219   5.925   5.546 -0.1600 -1.3396 -0.1055
 6459SOL    HW325609   5.228   5.925   5.395  0.2845 -0.0733 -0.0900
 6459SOL    MW425610   5.181   5.916   5.468 -0.3489 -0.1992 -0.0097
 6460SOL     OW25611   3.952   5.242   4.258 -0.3957  0.2710 -0.3155
 6460SOL    HW225612   4.033   5.249   4.207 -0.5006 -2.7262 -1.0511
 6460SOL    HW325613   3.883   5.266   4.196 -0.2668  0.0658 -0.5416
 6460SOL    MW425614   3.954   5.246   4.243 -0.1131  0.7389 -0.4333
 6461SOL     OW25615   3.941   0.260   5.746 -0.5078 -0.6613 -0.5321
 6461SOL    HW225616   3.874   0.253   5.678 -1.0152  0.2005 -0.1396
 6461SOL    HW325617   3.998   0.185   5.731 -0.5902 -0.4820 -1.9388
 6461SOL    MW425618   3.940   0.249   5.735  0.4902 -0.3564  0.3336
 6462SOL     OW25619   1.101   0.694   5.974 -0.1309  0.4365 -0.1197
 6462SOL    HW225620   1.106   0.615   5.922  1.8055 -0.0511  0.7213
 6462SOL    HW325621   1.132   0.668   6.061 -1.3359  1.6817  0.7437
 6462SOL    MW425622   1.106   0.680   5.979 -0.2544 -0.2309  0.1766
 6463SOL     OW25623   0.794   2.044   1.147  0.4346 -0.4032  0.5976
 6463SOL    HW225624   0.778   1.964   1.197  1.8267 -0.4209  1.0647
 6463SOL    HW325625   0.825   2.107   1.212  0.1242  0.2696  0.1036
 6463SOL    MW425626   0.796   2.042   1.162  0.0657  0.2747  0.0982
 6464SOL     OW25627   1.426   3.599   5.609  0.0317  0.1581 -0.3830
 6464SOL    HW225628   1.352   3.553   5.649 -0.0699 -0.8401 -1.6149
 6464SOL    HW325629   1.477   3.529   5.567  0.3212  1.0740 -1.6326
 6464SOL    MW425630   1.423   3.584   5.608 -0.0750 -0.3113 -0.3919
 6465SOL     OW25631   5.252   1.121   0.168 -0.3256  0.1078  0.1360
 6465SOL    HW225632   5.332   1.165   0.140 -1.1615  0.9497 -1.0286
 6465SOL    HW325633   5.236   1.055   0.100  0.3780 -1.3904  1.3479
 6465SOL    MW425634   5.260   1.118   0.155  0.0690  0.1647 -0.4948
 6466SOL     OW25635   6.068   4.641   1.727  0.0499 -0.2655  0.0688
 6466SOL    HW225636   6.151   4.613   1.690 -0.4946 -1.1842 -0.5106
 6466SOL    HW325637   6.005   4.633   1.655 -0.7090 -0.4514  0.7333
 6466SOL    MW425638   6.070   4.636   1.712 -0.2485 -0.3506 -0.2365
 6467SOL     OW25639   4.029   2.146   0.449 -0.1883  0.0344  0.1449
 6467SOL    HW225640   3.963   2.114   0.510  0.7939 -1.5619  0.4408
 6467SOL    HW325641   4.005   2.107   0.365 -0.9573  1.4042 -0.3068
 6467SOL    MW425642   4.017   2.137   0.446 -0.1191 -0.0055 -0.4434
 6468SOL     OW25643   3.406   2.752   0.053  0.1559 -0.4775 -0.5059
 6468SOL    HW225644   3.400   2.740   0.148  0.1361  2.7615 -0.0110
 6468SOL    HW325645   3.330   2.706   0.018  0.3078 -1.9399  0.9698
 6468SOL    MW425646   3.395   2.744   0.061  0.1088  0.3868  0.3045
 6469SOL     OW25647   0.028   0.598   6.019 -0.1433 -0.5936 -0.4494
 6469SOL    HW225648  -0.012   0.534   5.960 -0.1565 -0.4088 -0.6420
 6469SOL    HW325649  -0.046   0.648   6.054 -0.1368 -0.7135 -0.2635
 6469SOL    MW425650   0.013   0.597   6.016  0.0864  0.1859 -0.5363
 6470SOL     OW25651   4.900   6.233   3.128  0.2768 -0.1208  0.3008
 6470SOL    HW225652   4.950   6.314   3.121  0.0102  0.0012 -0.2407
 6470SOL    HW325653   4.813   6.260   3.158 -0.1627 -0.0651 -0.9647
 6470SOL    MW425654   4.895   6.247   3.131  0.2980 -0.0267  0.2000
 6471SOL     OW25655   3.191   6.326   0.171  0.3240  0.5106 -0.1700
 6471SOL    HW225656   3.163   6.413   0.201 -0.9762 -0.3797  1.3677
 6471SOL    HW325657   3.152   6.317   0.084 -0.0532  1.2316 -0.0887
 6471SOL    MW425658   3.182   6.336   0.164  0.7995  0.5026 -0.1152
 6472SOL     OW25659   5.042   3.235   3.714 -0.2431  0.2062 -0.3157
 6472SOL    HW225660   5.060   3.171   3.783 -0.6331  1.7661  1.3362
 6472SOL    HW325661   5.072   3.194   3.634  0.4658 -1.6067  0.8197
 6472SOL    MW425662   5.048   3.221   3.713 -0.1624  0.1345  0.0876
 6473SOL     OW25663   5.859   5.277   4.980  1.0706  0.7149 -0.2489
 6473SOL    HW225664   5.945   5.284   4.938 -0.0484  1.1117 -2.6271
 6473SOL    HW325665   5.876   5.230   5.062  3.3246 -0.5849 -1.3796
 6473SOL    MW425666   5.873   5.272   4.986  0.4337 -0.3527 -0.0847
 6474SOL     OW25667   0.270   5.648   5.905  0.1026  0.1260  0.6168
 6474SOL    HW225668   0.236   5.737   5.918 -1.4515 -0.2972 -0.2989
 6474SOL    HW325669   0.330   5.634   5.978  0.0322  1.7591  1.0226
 6474SOL    MW425670   0.274   5.658   5.916  0.5635  0.1520 -0.0900
 6475SOL     OW25671   2.934   4.429   3.534 -0.2460 -0.3671 -0.3733
 6475SOL    HW225672   2.880   4.492   3.582  0.3602  0.3742 -0.6472
 6475SOL    HW325673   2.877   4.353   3.522 -0.9952  0.1283 -0.0503
 6475SOL    MW425674   2.919   4.427   3.539  1.2307 -0.8445 -0.2142
 6476SOL     OW25675   5.161   0.998   5.143 -0.0301 -0.2495  0.0563
 6476SOL    HW225676   5.176   1.080   5.191 -0.4420  1.2535 -2.2029
 6476SOL    HW325677   5.232   0.995   5.078 -1.2935 -0.4819 -1.3619
 6476SOL    MW425678   5.173   1.009   5.141  0.6549 -0.1699  0.2855
 6477SOL     OW25679   2.739   0.096   3.681 -0.1223  0.0929 -0.2329
 6477SOL    HW225680   2.718   0.003   3.694 -0.2346  0.1420 -0.0585
 6477SOL    HW325681   2.654   0.138   3.668 -0.0721  0.1742 -0.3002
 6477SOL    MW425682   2.725   0.089   3.681  0.2639 -0.0216  0.3693
 6478SOL     OW25683   5.683   5.384   0.194 -1.0022 -0.3875 -0.6036
 6478SOL    HW225684   5.669   5.318   0.263  0.8339 -0.3101 -0.1143
 6478SOL    HW325685   5.618   5.452   0.213 -2.7013 -1.8582 -0.9134
 6478SOL    MW425686   5.672   5.384   0.206  0.7373  0.0375  0.1387
 6479SOL     OW25687   2.912   6.251   1.812 -0.2084 -0.4323  0.1633
 6479SOL    HW225688   2.949   6.162   1.806 -1.5864 -0.9820 -0.8339
 6479SOL    HW325689   2.819   6.237   1.826 -0.2895  0.9024  1.1112
 6479SOL    MW425690   2.905   6.237   1.813 -0.2662 -0.0043 -0.3141
 6480SOL     OW25691   3.000   2.823   0.223 -0.4153 -0.2025 -0.3729
 6480SOL    HW225692   3.057   2.896   0.245 -0.4935 -0.4502  0.6968
 6480SOL    HW325693   2.962   2.847   0.139 -0.1826  0.8255 -0.1957
 6480SOL    MW425694   3.003   2.836   0.215 -0.2318  0.0249 -0.2681
 6481SOL     OW25695   0.752   2.705   5.778 -0.0421 -0.2214 -0.3461
 6481SOL    HW225696   0.702   2.668   5.705 -1.3238 -0.4393  0.5940
 6481SOL    HW325697   0.819   2.759   5.736 -2.6484  2.2690 -1.7692
 6481SOL    MW425698   0.754   2.707   5.763 -0.2983 -0.3780 -0.0604
 6482SOL     OW25699   5.222   0.280   2.403 -0.4855  0.1253 -0.6834
 6482SOL    HW225700   5.151   0.273   2.467  1.1338 -0.7976  1.0902
 6482SOL    HW325701   5.242   0.374   2.400 -1.6244  0.3750 -1.0662
 6482SOL    MW425702   5.215   0.292   2.411 -0.0167 -0.1090  0.3136
 6483SOL     OW25703   0.383   4.114   0.793 -0.2396  0.3462 -0.2308
 6483SOL    HW225704   0.430   4.145   0.716  1.4185 -0.0432  0.5625
 6483SOL    HW325705   0.291   4.125   0.772  0.1334 -0.4528 -2.5709
 6483SOL    MW425706   0.377   4.119   0.780 -0.0021  0.1722 -0.7910
 6484SOL     OW25707   4.110   3.910   1.810  0.4050  0.2688 -0.2083
 6484SOL    HW225708   4.089   3.998   1.840 -0.3815  0.0350 -0.0531
 6484SOL    HW325709   4.185   3.922   1.752 -0.7089  1.2400 -1.5007
 6484SOL    MW425710   4.117   3.923   1.806 -0.0997 -0.4217 -0.2676
 6485SOL     OW25711   0.788   2.281   6.246  0.3895 -0.4936 -0.2106
 6485SOL    HW225712   0.706   2.236   6.227  0.2713 -0.1028 -0.6422
 6485SOL    HW325713   0.764   2.373   6.252  0.8395 -0.3408 -0.6395
 6485SOL    MW425714   0.774   2.287   6.244 -0.1020  0.1399  0.3422
 6486SOL     OW25715   3.228   3.138   5.387 -0.5422 -0.1282  0.8413
 6486SOL    HW225716   3.274   3.118   5.305 -1.4028 -0.2096  0.3637
 6486SOL    HW325717   3.292   3.119   5.456  0.2077 -0.0231  0.1862
 6486SOL    MW425718   3.242   3.133   5.385  0.2608  0.0659  0.0345
 6487SOL     OW25719   3.168   0.256   6.375  0.1784  0.2299 -0.2194
 6487SOL    HW225720   3.113   0.320   6.329 -0.6185  1.0979  1.8008
 6487SOL    HW325721   3.256   0.295   6.374 -0.1426  0.9948  0.3053
 6487SOL    MW425722   3.172   0.270   6.369  0.0907  0.3990  0.0154
 6488SOL     OW25723   1.442   1.550   1.859 -0.3079  0.5820 -0.2158
 6488SOL    HW225724   1.394   1.631   1.842  0.0424  0.6068 -1.1244
 6488SOL    HW325725   1.380   1.480   1.839 -0.6071  0.6092  0.5591
 6488SOL    MW425726   1.428   1.551   1.854 -0.0050  0.4058 -0.2105
 6489SOL     OW25727   2.783   4.182   1.899 -0.2259 -0.2567 -0.6071
 6489SOL    HW225728   2.879   4.180   1.897 -0.2262 -0.5543 -2.2013
 6489SOL    HW325729   2.760   4.244   1.829 -1.1933 -0.5597 -0.5682
 6489SOL    MW425730   2.793   4.190   1.889  0.7684 -0.4935 -0.4997
 6490SOL     OW25731   4.660   5.834   0.486 -0.0993 -0.4382  0.2843
 6490SOL    HW225732   4.626   5.794   0.566 -0.7484 -1.9242 -0.7035
 6490SOL    HW325733   4.595   5.901   0.463 -0.4126 -0.6767  0.4695
 6490SOL    MW425734   4.647   5.838   0.494 -0.6459  0.2291 -0.0987
 6491SOL     OW25735   2.947   0.096   6.064  0.1419 -0.3614  0.2519
 6491SOL    HW225736   2.980   0.090   6.153  2.7235  0.6307 -0.5572
 6491SOL    HW325737   2.996   0.030   6.015 -0.6977 -0.3817 -0.5939
 6491SOL    MW425738   2.958   0.087   6.069  0.6056 -0.4261  0.5776
 6492SOL     OW25739   2.312   1.040   3.706 -0.5029  0.0028 -0.3552
 6492SOL    HW225740   2.234   1.083   3.671 -2.4018 -2.8029  0.1657
 6492SOL    HW325741   2.343   0.984   3.635  2.4195  2.5055 -1.3082
 6492SOL    MW425742   2.306   1.038   3.692  0.1895 -0.3035 -0.2201
 6493SOL     OW25743   4.436   4.478   1.872 -0.0880 -0.1705 -0.1071
 6493SOL    HW225744   4.398   4.560   1.903  0.0389  1.3795 -3.6454
 6493SOL    HW325745   4.529   4.486   1.892 -0.4332 -0.7903  2.0450
 6493SOL    MW425746   4.443   4.490   1.879 -0.0311  0.3274 -0.3839
 6494SOL     OW25747   2.002   6.252   0.716  0.2103 -0.2553  0.2575
 6494SOL    HW225748   1.947   6.327   0.690  0.2974 -0.8889 -1.9267
 6494SOL    HW325749   1.976   6.234   0.807 -2.5535  0.0495 -0.3881
 6494SOL    MW425750   1.991   6.260   0.725  0.7290 -0.0970 -0.2473
 6495SOL     OW25751   4.019   5.383   3.698  0.0702 -0.3300  0.2906
 6495SOL    HW225752   4.001   5.295   3.663  2.0331 -0.3614 -0.8227
 6495SOL    HW325753   3.940   5.433   3.679 -0.6286 -1.5448 -0.1566
 6495SOL    MW425754   4.006   5.378   3.691  0.1128  0.0631  0.2648
 6496SOL     OW25755   2.591   0.968   4.911  0.2037 -0.0793 -0.2818
 6496SOL    HW225756   2.648   0.948   4.985  0.4748 -1.4832 -0.8312
 6496SOL    HW325757   2.597   0.890   4.855 -2.6944 -0.5696 -0.0861
 6496SOL    MW425758   2.599   0.955   4.913  0.3470 -0.2994  0.9578
 6497SOL     OW25759   3.995   3.787   5.100 -0.9063 -0.3900 -0.6235
 6497SOL    HW225760   3.953   3.851   5.158  0.4998  1.5325 -1.6005
 6497SOL    HW325761   4.072   3.757   5.149 -1.1942 -0.8056 -0.4299
 6497SOL    MW425762   4.000   3.792   5.114 -0.4384 -0.1453  0.0226
 6498SOL     OW25763   1.287   2.428   3.855 -0.0110  0.5189 -0.1910
 6498SOL    HW225764   1.380   2.418   3.877 -0.0029  1.8707  0.4253
 6498SOL    HW325765   1.284   2.505   3.798 -0.7866  0.5757 -0.0802
 6498SOL    MW425766   1.299   2.437   3.850 -0.2354  0.0646  0.2369
 6499SOL     OW25767   1.239   0.427   2.072 -0.3360  0.6104  0.4217
 6499SOL    HW225768   1.257   0.434   2.166 -2.0965 -1.0752  0.9423
 6499SOL    HW325769   1.232   0.518   2.042  2.3402  1.2358  1.4278
 6499SOL    MW425770   1.240   0.440   2.080 -0.3762  0.3373  0.4300
 6500SOL     OW25771   3.641   1.781   3.280  0.2599 -0.6320 -0.4821
 6500SOL    HW225772   3.561   1.728   3.281  0.3125 -0.7404  0.8605
 6500SOL    HW325773   3.643   1.822   3.367  0.4880  1.1766 -1.2858
 6500SOL    MW425774   3.631   1.779   3.292  0.2970 -0.5830 -0.1654
 6501SOL     OW25775   3.256   4.050   4.799  0.3134 -0.8277  0.1896
 6501SOL    HW225776   3.333   4.057   4.742  1.4494 -3.5993  1.2255
 6501SOL    HW325777   3.290   4.069   4.886 -1.0449  1.5970  0.2790
 6501SOL    MW425778   3.271   4.053   4.803 -0.0746 -0.3355 -0.1881
 6502SOL     OW25779   4.717   5.650   2.294  0.1996 -0.4135  0.1576
 6502SOL    HW225780   4.755   5.569   2.328  1.0698  0.4257  1.2088
 6502SOL    HW325781   4.670   5.688   2.368 -0.5650 -0.1414 -0.4436
 6502SOL    MW425782   4.716   5.644   2.308 -0.2032 -0.1937  0.2219
 6503SOL     OW25783   2.013   4.481   4.644 -0.6720  0.3083  0.0364
 6503SOL    HW225784   2.103   4.462   4.672  0.1325 -0.4401 -2.7406
 6503SOL    HW325785   1.979   4.540   4.711  2.2718  1.4543  0.6632
 6503SOL    MW425786   2.021   4.487   4.656  0.1898  0.3061  0.2702
 6504SOL     OW25787   4.570   0.103   3.276 -0.0802 -0.4626  0.1764
 6504SOL    HW225788   4.484   0.111   3.234 -1.6579  0.9779  3.3076
 6504SOL    HW325789   4.622   0.173   3.237 -0.7417 -0.5013 -0.8218
 6504SOL    MW425790   4.566   0.114   3.266 -0.5009  0.2464  0.2247
 6505SOL     OW25791   5.957   2.070   3.422  0.1755 -0.0067 -0.2474
 6505SOL    HW225792   6.042   2.114   3.422 -0.5374  1.4911  1.3501
 6505SOL    HW325793   5.896   2.134   3.386 -0.3644 -0.9314 -1.0258
 6505SOL    MW425794   5.960   2.084   3.417  0.3097 -0.0996 -0.2751
 6506SOL     OW25795   2.352   0.516   2.749 -0.2527  0.2756  0.3313
 6506SOL    HW225796   2.295   0.465   2.690 -1.5952  2.6408 -0.5497
 6506SOL    HW325797   2.436   0.519   2.704  0.2856 -2.1676  1.0231
 6506SOL    MW425798   2.356   0.510   2.735  0.1702 -0.1292  0.4091
 6507SOL     OW25799   2.812   2.442   5.728  0.7291  0.4138 -0.0941
 6507SOL    HW225800   2.786   2.444   5.820 -0.3647 -0.2212 -0.3765
 6507SOL    HW325801   2.904   2.471   5.728  1.7626 -2.5109  1.5444
 6507SOL    MW425802   2.821   2.446   5.740  0.5029 -0.4168 -0.4163
 6508SOL     OW25803   5.689   3.335   1.508 -0.0673 -0.2426 -0.5679
 6508SOL    HW225804   5.756   3.331   1.576 -0.5051 -1.4255 -0.1736
 6508SOL    HW325805   5.607   3.318   1.554 -1.0328  3.4187 -0.6456
 6508SOL    MW425806   5.687   3.332   1.523  0.7658  0.5932  0.6355
 6509SOL     OW25807   6.176   5.017   4.759 -0.6534 -0.1206  0.2687
 6509SOL    HW225808   6.175   5.104   4.798 -1.1552  0.1133 -0.2566
 6509SOL    HW325809   6.103   4.971   4.801 -0.1047 -0.4514  0.8885
 6509SOL    MW425810   6.167   5.022   4.769  0.0279  0.3144 -0.2311
 6510SOL     OW25811   3.581   5.759   4.494  0.1084  0.0749 -0.2961
 6510SOL    HW225812   3.638   5.836   4.505 -0.5946  0.3363  2.2619
 6510SOL    HW325813   3.514   5.787   4.432 -0.9269  2.1064  1.5824
 6510SOL    MW425814   3.580   5.773   4.487 -0.4104 -0.3684  0.2173
 6511SOL     OW25815   4.111   6.372   3.730  0.0025  0.2837 -0.0740
 6511SOL    HW225816   4.073   6.435   3.668  0.1310  0.6574  0.2262
 6511SOL    HW325817   4.101   6.413   3.816 -1.2756 -0.7528  0.3105
 6511SOL    MW425818   4.105   6.386   3.733  0.0344 -0.6198  0.1206
 6512SOL     OW25819   4.937   6.386   4.809  0.5611  0.4124  0.0816
 6512SOL    HW225820   4.952   6.481   4.813  0.1174  0.4592  1.2015
 6512SOL    HW325821   5.024   6.349   4.796  0.8664  0.9452  0.5283
 6512SOL    MW425822   4.951   6.394   4.808 -0.3806  0.0964  0.8524
 6513SOL     OW25823   0.568   0.073   2.414  0.4339  0.1038 -0.6852
 6513SOL    HW225824   0.535  -0.007   2.455 -0.3585 -0.4503 -2.3254
 6513SOL    HW325825   0.572   0.136   2.486 -1.8615 -0.5232  0.0674
 6513SOL    MW425826   0.564   0.071   2.429 -0.1521 -0.2196 -0.2787
 6514SOL     OW25827   2.444   1.347   2.950  0.6270 -0.3622  0.4004
 6514SOL    HW225828   2.361   1.327   2.992  0.1440  0.0674 -0.3331
 6514SOL    HW325829   2.442   1.300   2.867  0.6209  0.5671 -0.1353
 6514SOL    MW425830   2.433   1.338   2.945  0.2937  0.4808 -0.3436
 6515SOL     OW25831   4.223   0.679   3.972  0.5176 -0.8815  0.5381
 6515SOL    HW225832   4.141   0.649   3.934  0.6349  1.0695 -1.5562
 6515SOL    HW325833   4.289   0.619   3.937  0.0646 -2.1786  1.8609
 6515SOL    MW425834   4.221   0.667   3.962 -0.2216 -0.1467 -0.2844
 6516SOL     OW25835   6.133   4.072   1.392  0.1726  0.5641 -0.1930
 6516SOL    HW225836   6.101   4.104   1.308  0.3467  1.7648  0.1779
 6516SOL    HW325837   6.065   4.012   1.422  0.1260  0.0905 -1.1918
 6516SOL    MW425838   6.120   4.068   1.385  0.6103  0.4011 -0.2623
 6517SOL     OW25839   6.099   2.310   0.785 -0.1027  0.4762  0.6481
 6517SOL    HW225840   6.067   2.330   0.697 -1.8088  0.0306  1.1221
 6517SOL    HW325841   6.057   2.375   0.842 -0.1836 -0.1308  1.3040
 6517SOL    MW425842   6.089   2.321   0.781  0.2362  0.2436 -0.6066
 6518SOL     OW25843   4.697   5.398   2.682  0.7654 -0.1173 -0.3014
 6518SOL    HW225844   4.661   5.487   2.680 -0.4572 -0.5253  1.5332
 6518SOL    HW325845   4.722   5.384   2.773  1.7739 -1.3612 -0.7399
 6518SOL    MW425846   4.696   5.408   2.694  0.2613  0.2882 -0.2091
 6519SOL     OW25847   5.066   1.163   5.601 -0.0117  0.1726 -0.2933
 6519SOL    HW225848   5.075   1.099   5.671  1.1055  0.5278 -0.0786
 6519SOL    HW325849   5.150   1.158   5.554 -0.9580 -0.4897 -1.9853
 6519SOL    MW425850   5.078   1.154   5.604 -0.6394  0.2371 -0.3318
 6520SOL     OW25851   3.744   2.786   1.000  0.1514 -0.0854 -0.3374
 6520SOL    HW225852   3.649   2.785   0.995  0.2186  0.6452 -2.6899
 6520SOL    HW325853   3.771   2.703   0.960  0.5196 -0.2728  0.2830
 6520SOL    MW425854   3.735   2.775   0.994 -0.0601  0.1254  0.0014
 6521SOL     OW25855   4.953   3.056   5.519  0.4012  0.1614 -0.1744
 6521SOL    HW225856   5.038   3.082   5.485  1.4207 -2.2983  0.3036
 6521SOL    HW325857   4.939   2.967   5.486 -1.9130  0.4122 -0.0720
 6521SOL    MW425858   4.962   3.048   5.511  0.1482 -0.0931  0.5227
 6522SOL     OW25859   4.489   4.429   2.250  0.4374  0.2197 -0.5578
 6522SOL    HW225860   4.582   4.439   2.271  0.4524 -0.6116 -0.2013
 6522SOL    HW325861   4.444   4.482   2.316  0.6534  0.5560 -0.6778
 6522SOL    MW425862   4.496   4.437   2.261  0.4943  0.1713  0.0394
 6523SOL     OW25863   5.343   5.311   0.812  0.6329 -0.3251  0.3468
 6523SOL    HW225864   5.289   5.237   0.839  1.3773 -1.0353 -0.0668
 6523SOL    HW325865   5.292   5.389   0.836 -0.9619 -0.9628 -0.7982
 6523SOL    MW425866   5.329   5.312   0.818 -0.9715  0.4443 -0.1704
 6524SOL     OW25867   0.995   4.962   0.983 -0.1478  0.0304 -0.0871
 6524SOL    HW225868   1.080   4.923   0.964 -1.1589 -1.4769 -1.7563
 6524SOL    HW325869   1.016   5.044   1.028  2.1472 -0.6024  0.1161
 6524SOL    MW425870   1.009   4.968   0.987  0.4096 -0.1415 -0.3064
 6525SOL     OW25871   0.434   2.207   4.754  0.0149 -0.4550  0.0789
 6525SOL    HW225872   0.508   2.167   4.707  0.5203 -0.1347  0.5943
 6525SOL    HW325873   0.375   2.134   4.771  0.2462 -0.7288 -0.2809
 6525SOL    MW425874   0.436   2.192   4.750 -1.0426  0.1917  0.0102
 6526SOL     OW25875   5.368   3.414   6.391  0.2429 -0.3045  0.2090
 6526SOL    HW225876   5.334   3.362   6.319  1.4354 -0.4852 -0.2337
 6526SOL    HW325877   5.295   3.471   6.415 -0.2628 -0.4418 -0.9422
 6526SOL    MW425878   5.354   3.415   6.385 -0.0409  0.9922 -0.0457
 6527SOL     OW25879   1.417   6.022   3.064 -0.3430 -0.0166  0.1208
 6527SOL    HW225880   1.361   6.006   3.140 -0.9533 -0.3144 -0.3762
 6527SOL    HW325881   1.399   6.112   3.038  0.6467  0.4405  0.9437
 6527SOL    MW425882   1.407   6.031   3.071  0.5282  0.4450 -0.5363
 6528SOL     OW25883   2.989   2.805   3.799  0.2867 -0.4422 -0.0195
 6528SOL    HW225884   2.967   2.713   3.812 -1.5567  0.2215  2.2020
 6528SOL    HW325885   3.033   2.830   3.881  0.5750  0.7186 -0.5102
 6528SOL    MW425886   2.992   2.796   3.812 -0.1587  0.0752  0.0822
 6529SOL     OW25887   0.201   1.208   6.230 -0.1580 -0.0875 -0.4340
 6529SOL    HW225888   0.200   1.189   6.137 -0.8013 -0.1523 -0.4183
 6529SOL    HW325889   0.286   1.176   6.260  0.5607  1.0215 -1.2044
 6529SOL    MW425890   0.212   1.201   6.222 -0.0662 -0.8496 -0.1886
 6530SOL     OW25891   5.098   1.936   2.580 -0.3291  0.1490  0.6638
 6530SOL    HW225892   5.191   1.912   2.585  0.1570  1.6277 -0.4131
 6530SOL    HW325893   5.059   1.869   2.524  0.2101 -0.1370  0.6175
 6530SOL    MW425894   5.105   1.924   2.573  0.4613 -0.3444 -0.2054
 6531SOL     OW25895   3.317   2.214   4.917 -0.2482  0.0398 -0.0980
 6531SOL    HW225896   3.284   2.282   4.858  2.3427 -0.1749 -1.9321
 6531SOL    HW325897   3.379   2.259   4.973  0.3034 -0.5028 -0.2624
 6531SOL    MW425898   3.321   2.229   4.916 -0.5357 -0.2636  0.4644
 6532SOL     OW25899   0.520   1.246   4.073  0.2892  0.3871  0.4144
 6532SOL    HW225900   0.562   1.162   4.088 -0.0341  0.4302  1.6433
 6532SOL    HW325901   0.427   1.229   4.086 -0.1782  0.2430 -2.4860
 6532SOL    MW425902   0.513   1.233   4.077  0.2869  0.4496 -0.0383
 6533SOL     OW25903   3.553   2.139   4.026  0.1399 -0.3025  0.0518
 6533SOL    HW225904   3.636   2.111   3.988  1.2149  0.8538  1.4191
 6533SOL    HW325905   3.532   2.220   3.981 -1.4417 -1.6573 -1.8246
 6533SOL    MW425906   3.561   2.146   4.015 -0.1579  0.1135  0.3041
 6534SOL     OW25907   6.083   1.883   2.034 -0.3338  0.6008  0.3137
 6534SOL    HW225908   6.136   1.915   1.962  1.4457 -0.3818  1.1022
 6534SOL    HW325909   6.103   1.942   2.107  0.0117 -0.0072  0.7227
 6534SOL    MW425910   6.093   1.895   2.034  0.0582  0.4283 -0.0968
 6535SOL     OW25911   1.120   5.671   3.410  0.7582 -0.4555 -0.1770
 6535SOL    HW225912   1.035   5.675   3.455  1.4078  1.6464  1.0045
 6535SOL    HW325913   1.103   5.709   3.325  0.2643 -1.2489 -0.4503
 6535SOL    MW425914   1.106   5.676   3.405  0.8723  0.6878  0.1649
 6536SOL     OW25915   2.982   2.083   5.989  0.2462 -0.2167 -0.3664
 6536SOL    HW225916   2.886   2.077   5.985  0.2209 -1.8459  1.2890
 6536SOL    HW325917   3.011   2.047   5.905 -0.5714 -0.7556 -0.4346
 6536SOL    MW425918   2.973   2.077   5.977  0.0437  0.1770  0.4126
 6537SOL     OW25919   2.615   0.832   1.405  0.0431  0.7184  0.1808
 6537SOL    HW225920   2.703   0.806   1.429 -0.3477  0.6688  1.6722
 6537SOL    HW325921   2.605   0.803   1.314  1.1621 -0.2747  0.3527
 6537SOL    MW425922   2.625   0.824   1.396  0.0842  0.0277  0.3591
 6538SOL     OW25923   3.499   4.321   2.771  0.3901 -0.5699  0.0214
 6538SOL    HW225924   3.472   4.367   2.692  0.7056 -0.6908 -0.1590
 6538SOL    HW325925   3.427   4.334   2.833  0.9152  1.0465  0.3392
 6538SOL    MW425926   3.486   4.329   2.769  0.2987  0.4684 -0.6535
 6539SOL     OW25927   1.113   1.657   5.514 -0.0487  0.0721 -0.8881
 6539SOL    HW225928   1.082   1.747   5.523 -2.9173 -0.7640 -1.4728
 6539SOL    HW325929   1.122   1.626   5.604 -0.6380  0.4445 -0.6926
 6539SOL    MW425930   1.110   1.665   5.527 -0.1617  0.4828  0.0355
 6540SOL     OW25931   4.874   5.334   4.570  0.3625 -0.0757  0.8401
 6540SOL    HW225932   4.873   5.326   4.475 -2.5554  0.3475  0.7444
 6540SOL    HW325933   4.866   5.244   4.602  0.7725 -0.1707  0.6808
 6540SOL    MW425934   4.873   5.321   4.562  0.0762 -0.0255  0.2280
 6541SOL     OW25935   3.296   4.466   6.300  0.5919 -0.1333  0.1630
 6541SOL    HW225936   3.205   4.490   6.316 -0.3988 -2.2044 -1.7189
 6541SOL    HW325937   3.335   4.544   6.262 -0.9634  0.2325 -0.7807
 6541SOL    MW425938   3.289   4.479   6.297 -0.0814  0.1695 -0.1756
 6542SOL     OW25939   5.110   4.259   4.032  0.1018  0.1647 -0.6031
 6542SOL    HW225940   5.090   4.297   3.946 -1.4168  1.6111  0.3175
 6542SOL    HW325941   5.119   4.335   4.090  2.4006 -0.7070  0.3242
 6542SOL    MW425942   5.109   4.274   4.028 -0.5781  0.2582  0.2293
 6543SOL     OW25943   1.763   6.318   4.005 -0.2690 -0.6555  0.3011
 6543SOL    HW225944   1.831   6.315   3.937  0.3405  0.4207  0.8307
 6543SOL    HW325945   1.682   6.299   3.958  0.2029 -0.4503 -0.6355
 6543SOL    MW425946   1.761   6.315   3.990 -0.1172 -0.0633  0.6524
 6544SOL     OW25947   5.528   5.952   4.041  0.1617  0.1066  0.0862
 6544SOL    HW225948   5.573   5.998   3.970 -0.5687 -0.7971 -0.9984
 6544SOL    HW325949   5.475   5.886   3.997  1.0606 -1.6960  1.5691
 6544SOL    MW425950   5.527   5.950   4.026  0.0431  0.3865  0.1851
 6545SOL     OW25951   5.819   2.868   1.434 -0.4498 -0.0580  0.1114
 6545SOL    HW225952   5.848   2.881   1.524 -1.9187  0.7635  0.5071
 6545SOL    HW325953   5.763   2.791   1.437  1.2123 -1.3500 -0.5518
 6545SOL    MW425954   5.815   2.860   1.446 -0.3563  0.2743 -0.1248
 6546SOL     OW25955   2.096   2.666   3.049  0.2285  0.0389  0.3059
 6546SOL    HW225956   2.082   2.604   3.121 -0.3787 -0.1099  0.0708
 6546SOL    HW325957   2.173   2.716   3.075  1.4205 -1.5513 -0.0122
 6546SOL    MW425958   2.104   2.664   3.062 -0.8354  0.2126  0.5574
 6547SOL     OW25959   6.246   5.294   2.438  0.1004 -0.2662 -0.3780
 6547SOL    HW225960   6.205   5.339   2.512  1.0290  1.2199 -0.7330
 6547SOL    HW325961   6.297   5.362   2.394  2.1782 -1.8251 -0.5062
 6547SOL    MW425962   6.247   5.309   2.442 -0.3622  0.4837 -0.6458
 6548SOL     OW25963   3.993   3.961   3.884 -0.1320 -0.5012  0.4916
 6548SOL    HW225964   4.058   4.024   3.854 -0.5158 -1.2546 -2.2408
 6548SOL    HW325965   4.043   3.882   3.904 -0.0966 -0.8884 -1.0226
 6548SOL    MW425966   4.008   3.959   3.883 -0.4308  0.4794 -0.0300
 6549SOL     OW25967   6.161   3.382   1.124 -0.1838  0.1530 -0.7939
 6549SOL    HW225968   6.093   3.316   1.110 -0.4238 -0.0646  1.0907
 6549SOL    HW325969   6.203   3.355   1.206  0.2398  1.8972 -0.4060
 6549SOL    MW425970   6.158   3.370   1.133 -0.2252 -0.3549 -0.0026
 6550SOL     OW25971   2.759   5.391   3.753  0.1637 -0.3257 -0.2470
 6550SOL    HW225972   2.696   5.338   3.704 -0.4138  0.9397 -0.9181
 6550SOL    HW325973   2.818   5.427   3.687 -0.6375  1.4255 -0.0602
 6550SOL    MW425974   2.759   5.388   3.738  0.4698  0.1180  0.2040
 6551SOL     OW25975   5.509   0.582   0.449 -0.5803 -0.7502 -0.2529
 6551SOL    HW225976   5.475   0.623   0.529 -0.5288 -0.8731 -0.1688
 6551SOL    HW325977   5.563   0.650   0.408  0.0458 -0.9618  0.2275
 6551SOL    MW425978   5.511   0.596   0.454 -0.1623 -0.1630  0.0208
 6552SOL     OW25979   0.916   3.062   1.947 -0.4431  0.1796  0.0074
 6552SOL    HW225980   0.978   3.011   2.000  0.3543  0.5602 -0.5429
 6552SOL    HW325981   0.948   3.051   1.857 -0.7555  0.9755 -0.2010
 6552SOL    MW425982   0.929   3.054   1.942 -0.1054 -0.3267 -0.0862
 6553SOL     OW25983   1.980   3.163   1.739  0.3590  0.2580  0.1668
 6553SOL    HW225984   2.032   3.120   1.807  0.2405 -0.1508  0.0053
 6553SOL    HW325985   1.895   3.118   1.742 -0.4001  1.6777  1.2079
 6553SOL    MW425986   1.975   3.151   1.748 -0.2723 -0.4427  0.3131
 6554SOL     OW25987   4.704   1.480   4.941  0.3496 -0.5187 -0.3394
 6554SOL    HW225988   4.748   1.483   4.856 -0.3025  0.3231 -0.6560
 6554SOL    HW325989   4.615   1.451   4.921 -0.4993  1.8645 -0.2634
 6554SOL    MW425990   4.698   1.476   4.927  0.3813  0.1119 -0.6787
 6555SOL     OW25991   2.562   5.204   3.612  0.2045 -0.1824  0.0854
 6555SOL    HW225992   2.512   5.130   3.647  0.9281 -0.8214 -0.2000
 6555SOL    HW325993   2.583   5.177   3.522 -0.5482  0.8893 -0.4300
 6555SOL    MW425994   2.558   5.191   3.605 -0.7487  0.1557  0.0913
 6556SOL     OW25995   0.808   3.059   3.198 -0.0645  0.0412 -0.0293
 6556SOL    HW225996   0.795   3.014   3.281  0.6257  0.7437  0.4754
 6556SOL    HW325997   0.902   3.052   3.181 -0.0657  0.6391 -0.3157
 6556SOL    MW425998   0.819   3.052   3.207  0.2096  0.3975  0.4636
 6557SOL     OW25999   1.906   5.387   5.939  0.1361 -0.4025 -0.2117
 6557SOL    HW226000   1.992   5.352   5.913 -0.0073  0.2197 -1.6311
 6557SOL    HW326001   1.901   5.472   5.895 -1.1065 -0.3188  0.0716
 6557SOL    MW426002   1.917   5.394   5.930 -0.3415  0.2080 -0.2809
 6558SOL     OW26003   1.647   2.366   5.953  0.0994  0.5139  0.0313
 6558SOL    HW226004   1.605   2.449   5.978 -0.0262  0.0057  1.6389
 6558SOL    HW326005   1.724   2.361   6.009 -0.1212 -0.6377  0.2485
 6558SOL    MW426006   1.651   2.376   5.964  0.4403  0.2892 -0.4366
 6559SOL     OW26007   5.677   0.237   1.027  0.0244 -0.0856  0.1945
 6559SOL    HW226008   5.592   0.281   1.031  0.7699  1.3726  0.5808
 6559SOL    HW326009   5.706   0.249   0.936 -0.2982 -0.8605 -0.0240
 6559SOL    MW426010   5.670   0.244   1.015  0.4951  0.4011 -0.2962
 6560SOL     OW26011   1.206   4.789   0.979  0.0678 -0.0423 -0.1464
 6560SOL    HW226012   1.245   4.702   0.966 -0.3259 -0.1160 -0.8866
 6560SOL    HW326013   1.269   4.835   1.036  0.2626 -0.8166  0.2800
 6560SOL    MW426014   1.220   4.783   0.985  0.4567 -0.5120 -0.1951
 6561SOL     OW26015   0.809   3.463   4.160 -0.2124  0.2684  0.2110
 6561SOL    HW226016   0.867   3.421   4.223  0.1914  2.0052  1.0666
 6561SOL    HW326017   0.767   3.533   4.209 -1.0192  0.7247 -1.0861
 6561SOL    MW426018   0.811   3.467   4.175 -0.0913  0.0151 -0.6938
 6562SOL     OW26019   4.669   2.107   3.881  0.0963  0.2144  0.7158
 6562SOL    HW226020   4.763   2.115   3.865 -0.1843  0.4469 -0.9705
 6562SOL    HW326021   4.644   2.025   3.840 -0.6207  0.6684  0.2194
 6562SOL    MW426022   4.678   2.098   3.874  0.6430  0.1728  0.1685
 6563SOL     OW26023   3.317   2.399   2.912  0.3031  0.0972 -0.2646
 6563SOL    HW226024   3.348   2.339   2.845  1.7242 -0.8913  1.2250
 6563SOL    HW326025   3.251   2.350   2.961  1.5473 -0.3454  1.0269
 6563SOL    MW426026   3.312   2.385   2.909  0.6357  0.3227 -0.1230
 6564SOL     OW26027   4.814   5.658   1.897  0.0379  0.6974 -0.4156
 6564SOL    HW226028   4.761   5.734   1.877 -2.5895 -0.8258  0.3248
 6564SOL    HW326029   4.784   5.591   1.835  0.1330 -0.6112  0.9155
 6564SOL    MW426030   4.803   5.659   1.886  0.2810 -0.6843 -0.1763
 6565SOL     OW26031   1.304   1.220   4.922  0.1128  0.2182  0.2126
 6565SOL    HW226032   1.336   1.274   4.994 -1.1557  0.5795  0.5353
 6565SOL    HW326033   1.328   1.268   4.843  0.5706  0.3517  0.4299
 6565SOL    MW426034   1.311   1.233   4.921  0.0797 -0.2676 -0.9081
 6566SOL     OW26035   1.309   4.371   2.498 -0.4287 -0.0430 -0.2056
 6566SOL    HW226036   1.372   4.333   2.559 -1.2718  2.0245  2.1254
 6566SOL    HW326037   1.225   4.365   2.543 -0.8464  2.9502 -0.4031
 6566SOL    MW426038   1.306   4.365   2.512 -0.1794  0.1198 -0.0963
 6567SOL     OW26039   2.999   0.081   1.760 -0.6415 -0.3888  0.1259
 6567SOL    HW226040   3.036   0.099   1.847 -1.7554  0.7959  0.3987
 6567SOL    HW326041   2.973  -0.011   1.764  2.6864 -1.4800 -0.2965
 6567SOL    MW426042   3.000   0.071   1.772 -1.0960  0.3460  0.7887
 6568SOL     OW26043   0.198   2.384   6.300 -0.2296  0.2913  0.2994
 6568SOL    HW226044   0.107   2.401   6.276  0.5969  0.8442 -2.9505
 6568SOL    HW326045   0.216   2.297   6.266  1.0942  1.1881 -1.4702
 6568SOL    MW426046   0.188   2.375   6.293 -0.0658  0.6801  0.2647
 6569SOL     OW26047   0.969   3.356   0.927  0.0795  0.1043  0.6623
 6569SOL    HW226048   1.036   3.424   0.933  1.1755 -0.9852  1.0690
 6569SOL    HW326049   1.005   3.282   0.976 -0.2124 -1.4601 -1.3382
 6569SOL    MW426050   0.983   3.355   0.934 -0.5172  0.7207 -0.1862
 6570SOL     OW26051   6.203   2.595   4.754  0.2621  0.7102  0.5296
 6570SOL    HW226052   6.244   2.575   4.838  0.1111  2.6044  1.1066
 6570SOL    HW326053   6.276   2.606   4.693  0.4164  0.2064  0.6248
 6570SOL    MW426054   6.218   2.594   4.757  0.2735 -0.0153 -0.6751
 6571SOL     OW26055   5.402   5.779   1.836 -0.1267 -0.0573 -0.3318
 6571SOL    HW226056   5.487   5.782   1.880 -0.1575  2.9183 -0.2990
 6571SOL    HW326057   5.339   5.779   1.907 -0.2126 -1.7839 -0.3664
 6571SOL    MW426058   5.405   5.779   1.851 -0.1076 -0.0029  0.0807
 6572SOL     OW26059   1.710   1.697   4.654 -0.1401 -0.3430 -0.5597
 6572SOL    HW226060   1.734   1.782   4.690 -1.4014  0.1289 -0.7852
 6572SOL    HW326061   1.773   1.636   4.692 -0.1380  0.4559  0.7836
 6572SOL    MW426062   1.721   1.700   4.664  0.1977 -0.0658 -0.5235
 6573SOL     OW26063   0.723   1.592   0.025  0.1098  0.1401 -0.0185
 6573SOL    HW226064   0.775   1.669  -0.000 -1.1676  0.2288 -2.8828
 6573SOL    HW326065   0.637   1.629   0.048 -0.1170 -0.3091 -0.1383
 6573SOL    MW426066   0.718   1.607   0.024  0.2560 -0.0242 -0.5139
 6574SOL     OW26067   2.167   5.317   5.854 -0.0419  0.1221 -0.3538
 6574SOL    HW226068   2.148   5.285   5.766 -0.3353  1.4768 -0.8168
 6574SOL    HW326069   2.183   5.411   5.842  0.4228  0.2324  0.9693
 6574SOL    MW426070   2.166   5.325   5.841 -0.9898  0.0561  0.3951
 6575SOL     OW26071   2.296   2.379   2.649 -0.5394 -0.5146 -0.4293
 6575SOL    HW226072   2.328   2.384   2.739  1.6775 -1.2329 -1.1237
 6575SOL    HW326073   2.287   2.285   2.632 -2.2189 -0.3605 -0.5732
 6575SOL    MW426074   2.299   2.367   2.659  0.0387  0.5892 -0.2440
 6576SOL     OW26075   3.228   3.803   5.471 -0.1324  0.1728 -0.2140
 6576SOL    HW226076   3.172   3.876   5.444 -0.6009 -0.2864 -0.5231
 6576SOL    HW326077   3.196   3.729   5.419  1.2675  0.0614 -0.9787
 6576SOL    MW426078   3.216   3.803   5.460 -0.1847 -0.0558  0.6964
 6577SOL     OW26079   5.885   0.634   1.570 -0.1534 -0.0016  0.3608
 6577SOL    HW226080   5.887   0.544   1.539 -0.5549 -0.1860  0.8647
 6577SOL    HW326081   5.815   0.636   1.635  1.4576  0.0623  2.1940
 6577SOL    MW426082   5.876   0.623   1.574  0.4808  0.4249 -0.3527
 6578SOL     OW26083   5.195   4.684   6.004 -0.2013  0.0286 -0.5426
 6578SOL    HW226084   5.289   4.700   6.009  0.0494 -1.7140  1.2155
 6578SOL    HW326085   5.156   4.743   6.068 -0.2209  0.0639 -0.5862
 6578SOL    MW426086   5.202   4.694   6.013 -0.2982  0.0924 -0.2677
 6579SOL     OW26087   1.900   5.995   3.353  0.1957  0.4815  0.0629
 6579SOL    HW226088   1.947   6.078   3.345 -0.8605  1.0451 -0.5849
 6579SOL    HW326089   1.840   5.994   3.278 -2.2980  0.7776  1.9051
 6579SOL    MW426090   1.898   6.006   3.342 -0.5792 -0.1517 -0.4086
 6580SOL     OW26091   1.372   4.526   3.974  0.0834  0.2746  0.5858
 6580SOL    HW226092   1.376   4.510   4.068  1.2360 -0.9522  0.3633
 6580SOL    HW326093   1.463   4.536   3.947 -0.2671  1.2866 -0.3119
 6580SOL    MW426094   1.385   4.525   3.983 -0.5313 -0.3923  0.7591
 6581SOL     OW26095   3.049   3.997   5.863 -0.1097  0.1488  0.3536
 6581SOL    HW226096   3.132   4.028   5.901  0.3562 -0.1375 -0.4015
 6581SOL    HW326097   3.067   3.905   5.841 -0.5992  0.1160  0.0937
 6581SOL    MW426098   3.063   3.989   5.865  0.1868  0.0152  0.5636
 6582SOL     OW26099   3.220   0.591   4.356 -0.3331 -0.2342  0.0590
 6582SOL    HW226100   3.284   0.617   4.423 -1.4799  1.0154  0.7310
 6582SOL    HW326101   3.135   0.596   4.401 -1.0280 -0.4942 -1.1795
 6582SOL    MW426102   3.217   0.595   4.371 -0.1135  0.1473  0.0891
 6583SOL     OW26103   0.643   4.723   4.584 -0.2716  0.5460 -0.3559
 6583SOL    HW226104   0.728   4.686   4.606 -1.0098 -0.9191  0.1196
 6583SOL    HW326105   0.664   4.799   4.529  1.3449  0.5104  0.1549
 6583SOL    MW426106   0.657   4.728   4.579  0.2546  0.2436 -0.2820
 6584SOL     OW26107   0.754   5.174   4.049 -0.1973  0.3623 -0.9978
 6584SOL    HW226108   0.799   5.249   4.010  1.3207 -0.2068 -0.4080
 6584SOL    HW326109   0.813   5.144   4.118 -1.8626  0.0767  0.3865
 6584SOL    MW426110   0.768   5.180   4.053  0.0838  0.0879 -0.4690
 6585SOL     OW26111   2.416   1.453   6.029  0.5625  0.3399  0.0944
 6585SOL    HW226112   2.509   1.479   6.032  0.9105 -0.8642  0.2824
 6585SOL    HW326113   2.375   1.518   5.971  1.9918 -0.4372 -1.9139
 6585SOL    MW426114   2.423   1.465   6.022  0.3706 -0.1928  0.4490
 6586SOL     OW26115   4.022   1.886   0.874 -0.0585 -0.0039 -0.6809
 6586SOL    HW226116   4.085   1.954   0.895 -0.9638  1.1076 -1.4286
 6586SOL    HW326117   4.025   1.826   0.948 -0.7840  2.0154  1.0842
 6586SOL    MW426118   4.030   1.887   0.887 -0.6809  0.0575  0.0342
 6587SOL     OW26119   0.761   2.767   0.767 -0.6363  0.6220  0.8716
 6587SOL    HW226120   0.705   2.722   0.704 -0.8291  1.3250  0.5306
 6587SOL    HW326121   0.752   2.860   0.746  0.3706  0.7764  1.0547
 6587SOL    MW426122   0.752   2.773   0.756  0.2986 -0.4543 -0.2108
 6588SOL     OW26123   3.397   2.264   0.076  0.1253 -0.2825  0.0533
 6588SOL    HW226124   3.440   2.249   0.160  0.5611  0.5476 -0.0118
 6588SOL    HW326125   3.455   2.223   0.011  0.0202 -0.5204  0.1068
 6588SOL    MW426126   3.410   2.256   0.078  0.8100  0.8372  0.2488
 6589SOL     OW26127   2.609   2.592   3.222  0.1607 -0.3062 -0.0928
 6589SOL    HW226128   2.580   2.634   3.141  0.2846  0.8754  0.4483
 6589SOL    HW326129   2.693   2.552   3.200 -0.2053 -0.7174 -0.7567
 6589SOL    MW426130   2.616   2.593   3.209 -0.4903 -0.7070  1.0486
 6590SOL     OW26131   4.471   2.125   3.203 -0.6343 -0.2952  0.1517
 6590SOL    HW226132   4.533   2.062   3.238 -1.9694 -1.2094  0.9920
 6590SOL    HW326133   4.398   2.072   3.171 -0.9250  0.7269 -0.9808
 6590SOL    MW426134   4.469   2.110   3.204  0.0754 -0.3381  0.3881
 6591SOL     OW26135   2.503   1.114   1.693  0.0248  0.5229  0.0776
 6591SOL    HW226136   2.541   1.192   1.733  0.0757 -0.0306  1.1284
 6591SOL    HW326137   2.556   1.041   1.726 -0.8150 -0.0800  0.1311
 6591SOL    MW426138   2.515   1.115   1.702 -0.2018 -0.2357 -0.0763
 6592SOL     OW26139   3.464   4.836   0.180  0.0089 -0.0296 -0.2020
 6592SOL    HW226140   3.503   4.773   0.119 -1.0114 -0.2792 -0.6102
 6592SOL    HW326141   3.381   4.861   0.139  0.3084  1.4614  0.0360
 6592SOL    MW426142   3.458   4.831   0.167 -0.3361  0.4076  0.4851
 6593SOL     OW26143   0.746   6.342   3.796  0.4503  0.0775 -0.2062
 6593SOL    HW226144   0.786   6.259   3.821  1.3855  0.9276  1.2516
 6593SOL    HW326145   0.789   6.365   3.714  1.1738 -0.2380  0.0725
 6593SOL    MW426146   0.757   6.334   3.788 -0.6289 -0.0863  0.0453
 6594SOL     OW26147   3.836   0.727   0.051  0.2565 -0.0882 -0.0674
 6594SOL    HW226148   3.775   0.675   0.104 -0.6852 -0.8979 -1.8471
 6594SOL    HW326149   3.789   0.742  -0.031  2.8207 -1.6273 -1.9456
 6594SOL    MW426150   3.821   0.722   0.047 -0.1130 -0.0610 -0.8980
 6595SOL     OW26151   2.797   2.464   4.363  0.5431 -0.1621  0.4276
 6595SOL    HW226152   2.889   2.458   4.340 -0.0280  0.4146 -2.2910
 6595SOL    HW326153   2.797   2.483   4.457  3.1910  0.7338  0.3153
 6595SOL    MW426154   2.809   2.466   4.373 -0.3311 -0.0369 -0.1030
 6596SOL     OW26155   6.259   2.188   4.266 -0.0778  0.0389 -0.0137
 6596SOL    HW226156   6.244   2.281   4.282 -0.4602  0.1115 -0.7634
 6596SOL    HW326157   6.331   2.186   4.203  0.1465 -0.1882  0.2458
 6596SOL    MW426158   6.266   2.200   4.260  0.1735  0.2148  0.0897
 6597SOL     OW26159   1.352   5.354   4.478 -0.7638  0.0601  0.4966
 6597SOL    HW226160   1.287   5.359   4.408 -0.8230  0.2399  0.5639
 6597SOL    HW326161   1.363   5.444   4.507 -0.0965  0.1015  0.1307
 6597SOL    MW426162   1.345   5.366   4.472  0.3489  0.8637  0.5013
 6598SOL     OW26163   6.133   4.204   0.667 -0.7899  0.1533  0.4614
 6598SOL    HW226164   6.115   4.274   0.730  0.0824  1.6074 -0.8442
 6598SOL    HW326165   6.177   4.247   0.595 -1.1891 -1.5807 -0.8927
 6598SOL    MW426166   6.136   4.219   0.666 -0.0342 -0.2058 -0.5152
 6599SOL     OW26167   0.742   5.815   4.974  0.7863  0.3128  0.0022
 6599SOL    HW226168   0.680   5.766   4.920 -0.0031  0.0745  1.0920
 6599SOL    HW326169   0.810   5.842   4.913  0.0599 -0.1699 -1.0616
 6599SOL    MW426170   0.743   5.812   4.959 -0.8081 -0.2145  0.5031
 6600SOL     OW26171   4.595   3.483   4.900  0.3720  0.6080  0.2723
 6600SOL    HW226172   4.659   3.485   4.828  0.3870  1.8961  0.2934
 6600SOL    HW326173   4.637   3.431   4.968  0.4038 -0.5486 -0.5966
 6600SOL    MW426174   4.609   3.477   4.899  0.6488 -0.2859 -0.0940
 6601SOL     OW26175   3.610   1.268   5.631 -0.3458  0.7111  0.3150
 6601SOL    HW226176   3.603   1.209   5.556 -0.8606  1.0035  0.1265
 6601SOL    HW326177   3.705   1.276   5.647 -0.2137  0.9225 -0.5307
 6601SOL    MW426178   3.622   1.261   5.623 -0.1603  0.1721 -0.1977
 6602SOL     OW26179   3.800   1.447   4.138  0.3684 -0.6180  0.2992
 6602SOL    HW226180   3.742   1.375   4.164 -0.2441 -0.4087 -0.4726
 6602SOL    HW326181   3.888   1.413   4.155  0.1189 -1.7737 -0.5699
 6602SOL    MW426182   3.804   1.433   4.144 -0.6326 -0.6234 -0.4695
 6603SOL     OW26183   5.918   3.940   1.511  0.4169  0.8131 -0.4615
 6603SOL    HW226184   5.915   3.861   1.565  0.8029  1.4394  0.5019
 6603SOL    HW326185   5.875   4.007   1.565  1.4770  1.6298 -0.6085
 6603SOL    MW426186   5.912   3.938   1.525  0.7318 -0.0234 -0.0340
 6604SOL     OW26187   6.298   3.756   1.325  0.2750 -0.5348  0.4172
 6604SOL    HW226188   6.390   3.778   1.341 -0.4630  2.9567  0.6561
 6604SOL    HW326189   6.267   3.721   1.408  1.3018 -1.5406  0.3984
 6604SOL    MW426190   6.306   3.754   1.338  0.3913  0.3882  0.1229
 6605SOL     OW26191   0.976   5.561   1.048 -0.3222 -0.0646  0.3152
 6605SOL    HW226192   0.996   5.645   1.007 -0.5196 -0.1023  0.1414
 6605SOL    HW326193   0.983   5.578   1.142 -0.0352  0.0627  0.2716
 6605SOL    MW426194   0.979   5.574   1.055  0.2123 -0.2246  0.4231
 6606SOL     OW26195   1.190   0.117   1.780  0.4465 -0.0611  0.1959
 6606SOL    HW226196   1.231   0.076   1.856  0.5086 -0.9124 -0.2767
 6606SOL    HW326197   1.110   0.066   1.765  0.3503  0.1980 -0.2075
 6606SOL    MW426198   1.185   0.105   1.788 -0.0760 -0.4401 -0.1282
 6607SOL     OW26199   3.344   0.343   0.943  0.0281  0.0503  0.6523
 6607SOL    HW226200   3.380   0.397   1.014  0.8327  0.7524 -0.2747
 6607SOL    HW326201   3.342   0.400   0.867  0.4321 -1.0746 -0.2365
 6607SOL    MW426202   3.349   0.358   0.943  0.0455  0.5457 -0.3590
 6608SOL     OW26203   0.617   1.085   5.400 -0.5774  0.1988 -0.0639
 6608SOL    HW226204   0.693   1.143   5.402  1.1446 -1.8781 -1.2489
 6608SOL    HW326205   0.604   1.065   5.307 -1.4373 -0.8666  0.2647
 6608SOL    MW426206   0.626   1.090   5.388  0.2516  0.4710  0.1467
 6609SOL     OW26207   5.679   4.314   0.612 -0.2185 -0.2316 -0.1704
 6609SOL    HW226208   5.756   4.366   0.589 -0.9394 -0.0860 -2.5139
 6609SOL    HW326209   5.614   4.338   0.547 -1.3968 -2.2883  0.1634
 6609SOL    MW426210   5.681   4.324   0.601  0.4041 -0.4414 -0.0120
 6610SOL     OW26211   1.772   0.545   2.684 -0.5796 -0.2540 -0.6682
 6610SOL    HW226212   1.714   0.619   2.668  1.6773  0.9949 -4.1248
 6610SOL    HW326213   1.744   0.478   2.622  0.6663 -0.1787 -1.3521
 6610SOL    MW426214   1.761   0.546   2.674  0.4396  0.1035 -0.0514
 6611SOL     OW26215   3.889   0.971   1.823 -0.1696  0.4632  0.4578
 6611SOL    HW226216   3.967   1.010   1.784 -0.6147  0.9931  0.0799
 6611SOL    HW326217   3.898   0.877   1.806 -1.3397  0.8287 -2.8490
 6611SOL    MW426218   3.901   0.964   1.816 -0.0516  0.8693 -0.2379
 6612SOL     OW26219   0.339   2.204   1.671 -0.3445 -0.4660  0.6936
 6612SOL    HW226220   0.257   2.168   1.704  0.1588 -1.1050  1.2918
 6612SOL    HW326221   0.405   2.139   1.695  0.1161 -0.7953 -1.2990
 6612SOL    MW426222   0.337   2.191   1.679  0.1299  0.1478  0.2491
 6613SOL     OW26223   0.497   2.350   1.477 -0.6592 -0.0677  0.0869
 6613SOL    HW226224   0.438   2.407   1.428 -1.6144 -0.0687  1.1956
 6613SOL    HW326225   0.443   2.315   1.547  0.8648  0.5774  1.6390
 6613SOL    MW426226   0.482   2.353   1.479  0.6769 -0.0515  0.6514
 6614SOL     OW26227   0.510   5.167   3.466 -0.0513  0.4698  0.4892
 6614SOL    HW226228   0.568   5.235   3.500  0.4481  0.2553  0.0918
 6614SOL    HW326229   0.506   5.183   3.372  1.0698 -0.7589  0.2010
 6614SOL    MW426230   0.517   5.178   3.458 -0.1259  0.4221 -0.2100
 6615SOL     OW26231   3.582   1.121   3.485  0.1606 -0.3494 -0.2633
 6615SOL    HW226232   3.651   1.127   3.419 -0.5966  0.0621 -1.0498
 6615SOL    HW326233   3.547   1.210   3.489 -1.4256 -0.8953 -1.1298
 6615SOL    MW426234   3.587   1.134   3.477  0.2083  0.2649  1.0438
 6616SOL     OW26235   1.171   4.797   1.801  0.5180 -0.2986  0.1348
 6616SOL    HW226236   1.136   4.740   1.732 -0.3674  0.2694  0.1002
 6616SOL    HW326237   1.264   4.804   1.781  0.1497  0.4652 -1.4640
 6616SOL    MW426238   1.178   4.790   1.789  0.0588 -0.1320 -0.0572
 6617SOL     OW26239   0.837   4.164   2.937  0.3473 -0.2044  0.0028
 6617SOL    HW226240   0.854   4.110   3.014  0.6795 -0.3015 -0.1358
 6617SOL    HW326241   0.748   4.142   2.911 -0.2385  0.7525  1.1039
 6617SOL    MW426242   0.827   4.154   2.943 -0.0988  0.4613 -0.1358
 6618SOL     OW26243   3.289   2.911   0.780 -0.7985  0.1711 -0.0664
 6618SOL    HW226244   3.201   2.924   0.816  0.2836 -0.0324  2.9873
 6618SOL    HW326245   3.332   2.853   0.843  1.7042  0.7681 -1.1074
 6618SOL    MW426246   3.283   2.905   0.793 -0.4800 -0.1202  0.2800
 6619SOL     OW26247   3.822   5.349   6.204  0.7613 -0.2015  0.2480
 6619SOL    HW226248   3.848   5.324   6.115 -3.4533  0.6475 -1.4779
 6619SOL    HW326249   3.841   5.443   6.208 -1.2777  0.3391 -0.8753
 6619SOL    MW426250   3.828   5.358   6.192 -0.0461 -0.0632 -0.1276
 6620SOL     OW26251   5.209   5.902   3.645  0.2723 -0.2100  0.0780
 6620SOL    HW226252   5.253   5.975   3.689 -0.3814 -0.1881  0.7245
 6620SOL    HW326253   5.276   5.863   3.590  1.3037 -0.6123  1.5576
 6620SOL    MW426254   5.223   5.906   3.644 -0.5824  0.0478 -0.2969
 6621SOL     OW26255   1.353   2.446   1.313 -0.3029  0.6419  0.3012
 6621SOL    HW226256   1.397   2.433   1.397  0.4898 -1.5849 -0.3843
 6621SOL    HW326257   1.419   2.488   1.258 -0.3027  0.7020  0.3472
 6621SOL    MW426258   1.368   2.449   1.317  0.1367  0.5489 -0.2710
 6622SOL     OW26259   4.899   0.009   1.206 -0.2271 -0.5118 -0.6308
 6622SOL    HW226260   4.902  -0.016   1.298  1.6221 -0.9485 -0.7667
 6622SOL    HW326261   4.824  -0.038   1.171 -0.2965 -1.2306  0.4129
 6622SOL    MW426262   4.890  -0.000   1.214  1.1477 -0.1117 -0.8255
 6623SOL     OW26263   5.814   0.434   2.101  0.7495  0.4623  0.1021
 6623SOL    HW226264   5.813   0.496   2.173 -1.7634  0.5972  0.0174
 6623SOL    HW326265   5.787   0.484   2.024 -0.2312 -0.4687 -0.1893
 6623SOL    MW426266   5.810   0.449   2.100  0.3312 -0.3022  0.0746
 6624SOL     OW26267   2.467   2.077   1.393 -0.0898 -0.4053  0.7495
 6624SOL    HW226268   2.476   2.004   1.455  0.3665 -1.0022 -0.0065
 6624SOL    HW326269   2.555   2.092   1.360 -0.1459  0.6208  1.0185
 6624SOL    MW426270   2.480   2.069   1.397 -0.0395 -0.4674  0.0855
 6625SOL     OW26271   4.807   2.551   1.384 -0.2957  0.7427  0.4697
 6625SOL    HW226272   4.832   2.563   1.476 -0.8756 -0.0160  0.7354
 6625SOL    HW326273   4.848   2.468   1.359  0.8388  1.5234 -0.3198
 6625SOL    MW426274   4.816   2.541   1.393  0.5893 -0.3701 -0.1288
 6626SOL     OW26275   1.640   3.594   5.772 -0.6280  0.1576 -0.3675
 6626SOL    HW226276   1.567   3.618   5.715 -2.0374 -0.5990  1.0419
 6626SOL    HW326277   1.621   3.504   5.799  0.5512  0.1330  0.4595
 6626SOL    MW426278   1.628   3.586   5.768  0.0877  0.5933 -0.3653
 6627SOL     OW26279   0.042   2.421   1.778 -0.1860  0.3638 -0.2403
 6627SOL    HW226280   0.080   2.503   1.809  0.1325 -0.1692  0.8298
 6627SOL    HW326281  -0.052   2.439   1.773 -0.0198  1.1236 -1.1253
 6627SOL    MW426282   0.035   2.434   1.781  0.4490  0.8872  0.3359
 6628SOL     OW26283   6.036   0.049   0.427  0.2134 -0.1259  0.4521
 6628SOL    HW226284   6.048   0.103   0.349 -0.4460 -0.2040  0.2909
 6628SOL    HW326285   6.012  -0.037   0.392 -1.1512  0.1138  0.7554
 6628SOL    MW426286   6.034   0.045   0.412  0.0260 -0.1958  0.2883
 6629SOL     OW26287   2.530   0.830   1.139 -0.1542 -0.1395  0.1659
 6629SOL    HW226288   2.443   0.841   1.101  0.9256  0.5607 -2.3097
 6629SOL    HW326289   2.578   0.910   1.114  1.1507 -0.3895  1.6784
 6629SOL    MW426290   2.525   0.842   1.131  0.6127  0.0081  0.1163
 6630SOL     OW26291   5.456   4.877   0.979  0.3091  0.2818 -0.6701
 6630SOL    HW226292   5.428   4.786   0.969 -1.0465  0.5926  0.0039
 6630SOL    HW326293   5.447   4.914   0.891 -0.1389  0.0131 -0.7415
 6630SOL    MW426294   5.451   4.870   0.966 -0.3716 -0.9021  0.3969
 6631SOL     OW26295   3.839   2.539   4.186  0.0278  0.2235 -0.3339
 6631SOL    HW226296   3.817   2.446   4.180  0.4248 -0.2232  2.9850
 6631SOL    HW326297   3.930   2.544   4.157  1.0342 -1.0705  2.2535
 6631SOL    MW426298   3.848   2.527   4.181 -1.0672 -0.5645  0.1042
 6632SOL     OW26299   1.720   3.160   2.128 -0.2793  0.4781  0.6078
 6632SOL    HW226300   1.665   3.236   2.110  1.2889  1.9498  1.6613
 6632SOL    HW326301   1.711   3.147   2.222  0.1111 -0.1209  0.5632
 6632SOL    MW426302   1.712   3.168   2.138  0.2204 -0.1031  0.4938
 6633SOL     OW26303   2.623   0.958   4.183 -0.1379 -0.0669  0.4506
 6633SOL    HW226304   2.595   0.989   4.097 -1.1960 -0.6697  0.5633
 6633SOL    HW326305   2.712   0.994   4.194  0.5913 -1.1548 -1.4906
 6633SOL    MW426306   2.631   0.967   4.173  0.0172 -0.3608  0.7576
 6634SOL     OW26307   4.284   6.101   3.112  0.3391 -0.4030  0.3302
 6634SOL    HW226308   4.223   6.153   3.060  0.5766 -0.2911  0.1600
 6634SOL    HW326309   4.255   6.011   3.102  1.6564 -0.6577 -1.7740
 6634SOL    MW426310   4.272   6.096   3.104 -0.0599 -0.6008 -0.1544
 6635SOL     OW26311   2.654   1.298   4.953 -0.2358 -0.0195  0.3075
 6635SOL    HW226312   2.710   1.276   4.879  1.0325 -0.6366  1.4165
 6635SOL    HW326313   2.712   1.343   5.015 -1.3469  0.7904  0.7935
 6635SOL    MW426314   2.669   1.301   4.952 -0.6186  0.1919  0.4007
 6636SOL     OW26315   1.032   0.557   4.983  0.3103 -0.8598  0.6701
 6636SOL    HW226316   1.093   0.488   4.958  0.2211  0.0753 -2.6047
 6636SOL    HW326317   0.969   0.561   4.911 -2.9350 -0.8998  3.2627
 6636SOL    MW426318   1.032   0.549   4.970  0.2415 -1.0494  0.4228
 6637SOL     OW26319   4.674   4.554   6.256  0.0170 -0.4550  0.1682
 6637SOL    HW226320   4.635   4.485   6.203  0.4194 -0.9287  0.4818
 6637SOL    HW326321   4.638   4.541   6.343 -0.9740  0.5843 -0.0609
 6637SOL    MW426322   4.664   4.543   6.260 -0.2983 -0.3251 -0.3355
 6638SOL     OW26323   4.736   3.510   0.240  0.4432  0.5696 -0.7395
 6638SOL    HW226324   4.757   3.445   0.173  1.2674  0.2953 -0.2230
 6638SOL    HW326325   4.781   3.480   0.319 -1.2732  0.3542  0.2294
 6638SOL    MW426326   4.745   3.498   0.242  0.1524 -0.5708  0.1446
 6639SOL     OW26327   4.286   5.539   2.576  0.3491  0.2131  0.2171
 6639SOL    HW226328   4.197   5.517   2.604  0.3358  0.2984  0.2423
 6639SOL    HW326329   4.327   5.455   2.557 -0.3194  0.2552 -1.5879
 6639SOL    MW426330   4.280   5.525   2.577  0.1394 -0.0051  0.1033
 6640SOL     OW26331   1.005   3.975   2.189 -0.0421  0.7742 -0.6148
 6640SOL    HW226332   1.071   4.037   2.220 -1.5166  1.9293  0.3341
 6640SOL    HW326333   1.023   3.895   2.238  0.0626  1.3780  0.3596
 6640SOL    MW426334   1.016   3.973   2.200  0.0376  0.0139  0.2196
 6641SOL     OW26335   3.325   6.378   2.027 -0.2297  0.8934  0.2692
 6641SOL    HW226336   3.375   6.327   1.964 -1.6243  1.3441 -1.2895
 6641SOL    HW326337   3.287   6.449   1.975  1.0090  3.1108  2.2161
 6641SOL    MW426338   3.326   6.380   2.012 -0.0655 -0.8587 -0.1928
 6642SOL     OW26339   4.538   4.272   0.143 -0.1170 -0.0648 -0.4108
 6642SOL    HW226340   4.537   4.219   0.223  0.2436  0.7742  0.1605
 6642SOL    HW326341   4.488   4.350   0.165 -0.0934  0.1319 -1.0361
 6642SOL    MW426342   4.531   4.275   0.156 -0.6103  0.1130 -0.1698
 6643SOL     OW26343   4.672   4.414   3.831 -0.2063  0.3316 -0.6149
 6643SOL    HW226344   4.684   4.319   3.820 -0.7994  0.1860 -0.0332
 6643SOL    HW326345   4.608   4.438   3.764  1.0259  0.5890 -1.7374
 6643SOL    MW426346   4.665   4.404   3.820 -0.0748 -0.6857  0.5818
 6644SOL     OW26347   2.108   4.067   3.758 -0.3007  0.4208  0.5748
 6644SOL    HW226348   2.197   4.064   3.792  0.2218  3.3921 -0.2459
 6644SOL    HW326349   2.067   4.140   3.805 -1.4413  0.8015 -0.9450
 6644SOL    MW426350   2.114   4.076   3.769 -0.0637  0.8338  0.2149
 6645SOL     OW26351   2.210   1.675   1.760  0.2487 -0.2887 -0.0550
 6645SOL    HW226352   2.217   1.586   1.794  0.9659 -0.3035 -0.2365
 6645SOL    HW326353   2.119   1.700   1.777  0.0364 -1.0615 -0.0221
 6645SOL    MW426354   2.199   1.667   1.767  0.3793 -0.3696  0.4164
 6646SOL     OW26355   4.099   4.291   2.846 -0.2028  0.3619  0.0250
 6646SOL    HW226356   4.031   4.254   2.790 -1.9196  0.2686  2.0434
 6646SOL    HW326357   4.078   4.384   2.851  0.4036  0.5100 -0.0929
 6646SOL    MW426358   4.087   4.299   2.840 -0.4111 -0.1624  0.6799
 6647SOL     OW26359   5.801   0.339   5.208 -0.2753  0.1445 -0.5035
 6647SOL    HW226360   5.811   0.251   5.245 -1.7042  0.2534  0.2203
 6647SOL    HW326361   5.766   0.392   5.280  1.6698  1.6345 -0.5540
 6647SOL    MW426362   5.797   0.335   5.222  0.4603  0.3110 -0.5010
 6648SOL     OW26363   1.254   3.139   4.545 -0.1032 -0.7244  0.7848
 6648SOL    HW226364   1.318   3.135   4.616 -0.2401  0.8214  1.0397
 6648SOL    HW326365   1.231   3.232   4.539 -1.7003 -1.1239  0.1494
 6648SOL    MW426366   1.259   3.151   4.554  0.1979  0.5477 -0.0597
 6649SOL     OW26367   1.655   0.493   1.586 -0.2362 -0.3036 -0.0061
 6649SOL    HW226368   1.678   0.404   1.561 -0.2140  0.0846 -1.4902
 6649SOL    HW326369   1.571   0.509   1.543 -0.2123  0.4047  0.1907
 6649SOL    MW426370   1.647   0.484   1.577  0.1728  0.5856 -0.1460
 6650SOL     OW26371   4.361   6.166   3.517  0.1931  0.0231 -0.3601
 6650SOL    HW226372   4.343   6.214   3.436  0.2441 -0.0878 -0.4382
 6650SOL    HW326373   4.278   6.121   3.536 -0.5257  1.7511  0.8351
 6650SOL    MW426374   4.347   6.166   3.509 -0.5016  0.1184 -0.5193
 6651SOL     OW26375   4.608   4.517   3.331  0.0021 -0.1717  0.2584
 6651SOL    HW226376   4.536   4.543   3.273  1.5196 -0.3310 -1.8138
 6651SOL    HW326377   4.652   4.599   3.353  0.1539 -0.2253  0.1575
 6651SOL    MW426378   4.604   4.531   3.326  0.3866 -0.0989  0.3477
 6652SOL     OW26379   2.432   2.860   1.196  0.0125 -0.1899 -0.3248
 6652SOL    HW226380   2.439   2.810   1.114  1.1584 -2.0292  0.8152
 6652SOL    HW326381   2.390   2.800   1.257 -3.4400  2.0908 -0.1705
 6652SOL    MW426382   2.427   2.845   1.193  0.1679  0.5044  0.0750
 6653SOL     OW26383   1.845   1.115   2.071  0.0333  0.1006  0.1837
 6653SOL    HW226384   1.887   1.162   2.000  0.5487 -3.1289 -1.8414
 6653SOL    HW326385   1.910   1.114   2.141  0.9933  0.2295 -0.6844
 6653SOL    MW426386   1.859   1.121   2.071 -0.1677 -0.6396  0.3582
 6654SOL     OW26387   4.883   5.287   0.349  0.4739 -0.3851  0.0337
 6654SOL    HW226388   4.863   5.358   0.288  0.6970  1.4513  1.9856
 6654SOL    HW326389   4.948   5.233   0.302 -0.5692 -0.0171 -1.9505
 6654SOL    MW426390   4.889   5.289   0.335 -0.1839  0.8521  0.3354
 6655SOL     OW26391   0.609   3.400   4.426  0.4820 -0.5654 -0.0232
 6655SOL    HW226392   0.601   3.314   4.467  2.0791 -1.2249 -0.9840
 6655SOL    HW326393   0.538   3.403   4.362  1.1403 -1.6900 -0.8304
 6655SOL    MW426394   0.598   3.389   4.423 -0.3401  0.0991 -0.0696
 6656SOL     OW26395   1.857   3.126   1.151 -0.5407  0.3743 -0.1032
 6656SOL    HW226396   1.901   3.200   1.191 -0.4052  0.3775 -0.2558
 6656SOL    HW326397   1.821   3.076   1.224  0.7871 -0.3156  0.1144
 6656SOL    MW426398   1.858   3.129   1.166  0.3515 -0.0374 -0.2669
 6657SOL     OW26399   4.075   1.573   3.300 -0.0738  0.1506  0.1919
 6657SOL    HW226400   4.079   1.517   3.378 -0.1390 -0.8872 -0.5223
 6657SOL    HW326401   3.982   1.575   3.277 -0.0411  0.3620  0.0771
 6657SOL    MW426402   4.063   1.566   3.307  0.1252  0.1419  0.1904
 6658SOL     OW26403   4.380   0.605   0.967  0.2537 -0.0263  0.0566
 6658SOL    HW226404   4.289   0.628   0.947  0.2063  0.2281  0.5416
 6658SOL    HW326405   4.405   0.668   1.034  0.7958 -0.0854 -0.0920
 6658SOL    MW426406   4.371   0.617   0.973 -0.0748  0.4256  0.0800
 6659SOL     OW26407   1.175   4.912   0.648 -0.8270 -0.4607  0.1353
 6659SOL    HW226408   1.227   4.965   0.587  0.2994 -1.5796  0.0798
 6659SOL    HW326409   1.228   4.907   0.727 -0.4513 -2.2658 -0.1894
 6659SOL    MW426410   1.189   4.919   0.650 -0.8970 -0.0793  0.1992
 6660SOL     OW26411   3.671   1.645   4.988 -0.7173 -0.1345 -0.0449
 6660SOL    HW226412   3.645   1.735   5.006  0.5344  0.3672 -0.6266
 6660SOL    HW326413   3.671   1.602   5.074  0.0347  0.8030  0.4503
 6660SOL    MW426414   3.668   1.651   5.002 -0.3681  0.4556 -0.5292
 6661SOL     OW26415   6.360   2.614   3.033 -0.1400 -0.1082 -0.6457
 6661SOL    HW226416   6.355   2.526   3.071  0.9476 -0.3594 -1.0668
 6661SOL    HW326417   6.338   2.672   3.105 -0.0866 -0.6859 -0.1540
 6661SOL    MW426418   6.356   2.610   3.047 -0.2125  0.1338  0.0626
 6662SOL     OW26419   4.909   1.267   1.845  0.1212 -0.2892 -0.1855
 6662SOL    HW226420   4.819   1.250   1.869  0.3850 -2.7022 -0.6464
 6662SOL    HW326421   4.910   1.359   1.819 -1.8074  0.2518  1.4075
 6662SOL    MW426422   4.898   1.277   1.845  0.1730 -0.1834 -0.6732
 6663SOL     OW26423   2.790   5.601   1.634  0.1951 -0.0638 -0.2218
 6663SOL    HW226424   2.754   5.688   1.651  3.1952  1.0554  1.1172
 6663SOL    HW326425   2.808   5.601   1.540  0.3550  0.8762 -0.2009
 6663SOL    MW426426   2.788   5.612   1.624 -0.0751 -0.4041  0.3716
 6664SOL     OW26427   2.875   2.713   0.467 -0.1643  0.1112 -0.0009
 6664SOL    HW226428   2.837   2.645   0.411  0.0313  0.3490 -0.4309
 6664SOL    HW326429   2.825   2.707   0.548 -1.2570  0.5289 -0.6139
 6664SOL    MW426430   2.863   2.703   0.470 -0.2688 -0.2402  0.2791
 6665SOL     OW26431   2.232   4.164   4.504  0.5337 -0.0226  0.2094
 6665SOL    HW226432   2.161   4.210   4.459  0.9465 -0.3570 -0.8048
 6665SOL    HW326433   2.256   4.093   4.445  0.6772 -0.8611  1.2368
 6665SOL    MW426434   2.226   4.161   4.490  0.4809 -0.3896 -0.0900
 6666SOL     OW26435   5.052   5.604   4.364  0.4842 -0.3730 -0.0643
 6666SOL    HW226436   4.988   5.661   4.320  1.2573 -1.1176 -2.2505
 6666SOL    HW326437   5.030   5.612   4.457 -0.3569  2.3427 -0.4019
 6666SOL    MW426438   5.040   5.613   4.371  0.1497 -0.3072  0.2712
 6667SOL     OW26439   1.727   2.849   3.785 -0.3392  0.2201 -0.1162
 6667SOL    HW226440   1.799   2.901   3.749 -1.2138  0.8413 -1.0084
 6667SOL    HW326441   1.770   2.771   3.821  0.6467 -0.1858 -2.0258
 6667SOL    MW426442   1.742   2.845   3.785 -0.1559 -0.1601 -0.2363
 6668SOL     OW26443   1.177   4.001   2.524 -0.3687  0.1010  0.0637
 6668SOL    HW226444   1.112   4.028   2.589  0.0629 -1.0864  1.0218
 6668SOL    HW326445   1.176   4.072   2.459 -1.6766  0.7307  0.7231
 6668SOL    MW426446   1.168   4.014   2.524 -0.1513  0.1768  0.0763
 6669SOL     OW26447   3.000   0.161   2.571 -0.0686 -0.1753 -0.1415
 6669SOL    HW226448   2.930   0.170   2.635 -1.3623  0.4447 -1.5816
 6669SOL    HW326449   2.990   0.238   2.514 -1.0732 -2.2676 -3.0337
 6669SOL    MW426450   2.989   0.173   2.572 -0.0800 -0.3602  0.0812
 6670SOL     OW26451   4.300   2.164   2.176  0.1501  0.4583  0.5946
 6670SOL    HW226452   4.387   2.200   2.159  0.6668 -0.3524  1.3915
 6670SOL    HW326453   4.254   2.232   2.225  0.4156  0.7947  0.3780
 6670SOL    MW426454   4.305   2.178   2.180 -0.0247  0.4424  0.4156
 6671SOL     OW26455   5.955   5.511   4.373 -0.3867  0.1329  0.5643
 6671SOL    HW226456   5.984   5.601   4.389 -0.1505  0.2243 -0.3192
 6671SOL    HW326457   5.945   5.473   4.460  1.0332  0.5377  0.9399
 6671SOL    MW426458   5.958   5.518   4.387 -0.2298  0.1583  0.0067
 6672SOL     OW26459   1.520   4.130   2.318  0.0419 -0.3623 -0.1624
 6672SOL    HW226460   1.551   4.165   2.402  2.0826  0.0459 -1.0126
 6672SOL    HW326461   1.476   4.204   2.276  0.3328 -0.1287 -0.0590
 6672SOL    MW426462   1.519   4.145   2.324  0.7718  0.0615 -0.2321
 6673SOL     OW26463   5.181   3.901   0.968  0.3228  0.1625  0.0346
 6673SOL    HW226464   5.098   3.875   0.926  1.2301 -0.4154 -1.4735
 6673SOL    HW326465   5.198   3.989   0.933 -0.4957  1.0317  1.7004
 6673SOL    MW426466   5.172   3.909   0.958  0.0161 -0.3671  0.2576
 6674SOL     OW26467   5.338   1.076   4.919  0.0078  0.1734  0.4237
 6674SOL    HW226468   5.288   1.156   4.935  0.6499  0.7176 -0.2426
 6674SOL    HW326469   5.430   1.102   4.930  0.1965 -0.6645  0.9998
 6674SOL    MW426470   5.344   1.090   4.923  0.8438 -0.3648  0.2704
 6675SOL     OW26471   0.661   5.783   3.592  0.2547 -0.2135 -0.0430
 6675SOL    HW226472   0.634   5.755   3.505  0.9040  0.4383 -0.4735
 6675SOL    HW326473   0.586   5.832   3.626  0.3138  0.2714 -0.5958
 6675SOL    MW426474   0.648   5.786   3.585  0.1433  0.2095  0.2977
 6676SOL     OW26475   0.393   6.071   0.111  0.3754 -0.7601 -0.5426
 6676SOL    HW226476   0.472   6.062   0.058  2.0468 -2.1303  1.9640
 6676SOL    HW326477   0.332   6.007   0.074  0.8316 -0.4736 -1.8347
 6676SOL    MW426478   0.395   6.062   0.099  0.1399 -0.0020 -0.1229
 6677SOL     OW26479   3.219   1.327   0.376  0.0911 -0.2794 -0.3018
 6677SOL    HW226480   3.223   1.300   0.467 -0.1938  2.2222  0.5187
 6677SOL    HW326481   3.155   1.399   0.375 -1.0148 -1.1850 -2.7393
 6677SOL    MW426482   3.211   1.333   0.388 -0.2442  0.2954 -0.0876
 6678SOL     OW26483   5.834   5.051   3.639  0.2190 -0.2178  0.1406
 6678SOL    HW226484   5.761   5.071   3.698 -0.3286  0.9918 -0.9222
 6678SOL    HW326485   5.912   5.079   3.688 -0.2627  1.1986  0.1443
 6678SOL    MW426486   5.835   5.057   3.653  0.3535 -0.4116 -0.3100
 6679SOL     OW26487   4.590   2.465   1.194  0.0256  0.6698 -0.5531
 6679SOL    HW226488   4.597   2.526   1.120 -1.3581  1.1270 -0.3454
 6679SOL    HW326489   4.662   2.490   1.253  0.7764  0.6832 -1.4619
 6679SOL    MW426490   4.600   2.477   1.192  0.2845 -0.0489  0.0885
 6680SOL     OW26491   3.521   6.059   1.402  0.3701 -0.2910  0.1173
 6680SOL    HW226492   3.600   6.102   1.369 -0.5761  0.7828 -0.8816
 6680SOL    HW326493   3.552   6.000   1.470  1.9090  0.9248  0.5426
 6680SOL    MW426494   3.535   6.057   1.406  0.2583 -0.4507 -0.1710
 6681SOL     OW26495   3.302   4.850   5.796  0.0686  0.0207 -0.1972
 6681SOL    HW226496   3.248   4.797   5.854  1.4996 -0.0899  1.0988
 6681SOL    HW326497   3.270   4.829   5.708 -0.9054 -1.2426  0.4207
 6681SOL    MW426498   3.291   4.841   5.792  1.1234 -0.1030  0.3149
 6682SOL     OW26499   2.150   2.150   2.846  0.2533  0.1990 -0.4192
 6682SOL    HW226500   2.102   2.222   2.804  0.1879  1.4593  1.6797
 6682SOL    HW326501   2.227   2.137   2.789  1.0864  3.0259 -0.0976
 6682SOL    MW426502   2.154   2.158   2.833  0.3409  0.5774  0.2129
 6683SOL     OW26503   5.411   3.559   1.058  0.7408 -0.2564  0.5283
 6683SOL    HW226504   5.438   3.617   1.129  0.6185 -0.5334  0.8059
 6683SOL    HW326505   5.439   3.472   1.086  0.0038 -0.4794  0.5937
 6683SOL    MW426506   5.418   3.555   1.071 -0.4074 -0.1986 -0.0817
 6684SOL     OW26507   0.763   0.929   3.794 -0.4622 -0.2930  0.0652
 6684SOL    HW226508   0.830   0.909   3.860 -0.1350  1.8182  0.4473
 6684SOL    HW326509   0.685   0.882   3.824  0.5115 -1.8532  0.2454
 6684SOL    MW426510   0.761   0.921   3.807  0.1722 -0.2409 -1.0141
 6685SOL     OW26511   4.647   3.225   5.057 -0.7015 -0.3441  0.3177
 6685SOL    HW226512   4.623   3.175   4.978  2.3173  0.8793 -1.5377
 6685SOL    HW326513   4.737   3.198   5.075  0.1738  2.5767  0.6993
 6685SOL    MW426514   4.656   3.215   5.049  0.0417  0.3347 -0.3726
 6686SOL     OW26515   5.646   1.785   5.057 -0.6046 -0.1897  0.2185
 6686SOL    HW226516   5.582   1.856   5.054 -0.1464  0.2560 -2.5455
 6686SOL    HW326517   5.694   1.793   4.974  2.7198 -0.8030  1.9159
 6686SOL    MW426518   5.644   1.795   5.045 -0.3328  0.1462 -0.2308
 6687SOL     OW26519   4.523   1.212   6.409  0.4410  0.1596 -0.8111
 6687SOL    HW226520   4.576   1.133   6.402 -0.8381 -1.1582  2.3898
 6687SOL    HW326521   4.577   1.273   6.458  0.4960  0.3253 -1.0780
 6687SOL    MW426522   4.537   1.210   6.414  0.1075 -0.2100  0.9235
 6688SOL     OW26523   6.100   2.178   4.740 -0.7051 -0.3920  0.3072
 6688SOL    HW226524   6.087   2.161   4.647 -3.3278 -1.7129  0.8221
 6688SOL    HW326525   6.033   2.243   4.762 -1.2050 -1.3089  1.5798
 6688SOL    MW426526   6.089   2.184   4.731 -0.3329  0.0989 -0.0932
 6689SOL     OW26527   0.901   1.912   5.281 -0.2511  0.4097 -0.4493
 6689SOL    HW226528   0.829   1.949   5.230 -1.4653  0.6650  1.3591
 6689SOL    HW326529   0.884   1.818   5.282 -1.5282  0.6129  1.2944
 6689SOL    MW426530   0.889   1.904   5.275  0.2473  0.0125 -0.5058
 6690SOL     OW26531   5.823   1.564   5.723  0.5046  0.0576  0.0479
 6690SOL    HW226532   5.858   1.642   5.767 -0.5912  0.2089  0.6938
 6690SOL    HW326533   5.880   1.493   5.751  1.1277  0.5183 -0.0306
 6690SOL    MW426534   5.835   1.565   5.732 -0.1819  0.0448 -0.2805
 6691SOL     OW26535   3.346   1.942   6.285 -0.3598 -0.3367  0.1083
 6691SOL    HW226536   3.254   1.961   6.269 -0.2462  0.2675  0.1658
 6691SOL    HW326537   3.351   1.924   6.379 -0.3047  0.3133  0.2331
 6691SOL    MW426538   3.335   1.942   6.296 -0.2789  0.3985 -0.0134
 6692SOL     OW26539   2.570   1.585   2.006  0.5471 -0.4815 -0.3134
 6692SOL    HW226540   2.555   1.507   1.953 -1.1417 -0.5936  0.2865
 6692SOL    HW326541   2.631   1.638   1.954 -1.6936 -0.1732 -2.8347
 6692SOL    MW426542   2.576   1.582   1.993 -0.0294  0.5626 -0.3262
 6693SOL     OW26543   3.970   0.657   4.192 -0.2291 -0.2202 -0.1548
 6693SOL    HW226544   4.031   0.723   4.156  0.1434  0.7396  2.1010
 6693SOL    HW326545   4.011   0.574   4.170  0.3852  0.3334 -1.2287
 6693SOL    MW426546   3.984   0.655   4.184  0.3728 -0.0041  0.6311
 6694SOL     OW26547   2.897   6.033   5.170 -0.3233 -0.3327  0.3122
 6694SOL    HW226548   2.957   5.966   5.136 -1.5416 -0.6986 -1.2091
 6694SOL    HW326549   2.953   6.109   5.188  0.7308 -0.9816 -0.1704
 6694SOL    MW426550   2.912   6.034   5.168 -0.6121 -0.5219 -0.3278
 6695SOL     OW26551   5.070   4.454   6.041  0.1610 -0.4033 -0.1269
 6695SOL    HW226552   5.026   4.470   6.125 -1.7503  1.7139 -1.4256
 6695SOL    HW326553   5.097   4.540   6.011  0.3567 -1.0463 -1.9244
 6695SOL    MW426554   5.067   4.467   6.049 -0.5287  0.6580  0.5652
 6696SOL     OW26555   1.011   0.542   3.958 -0.0387 -0.4246 -0.7540
 6696SOL    HW226556   1.021   0.512   3.867  0.5362 -2.4544 -0.0886
 6696SOL    HW326557   1.098   0.574   3.982 -0.0503 -0.3939 -0.7529
 6696SOL    MW426558   1.024   0.542   3.949 -0.1335  0.4857  0.7030
 6697SOL     OW26559   5.325   2.612   4.403 -0.1268 -0.0214  0.2046
 6697SOL    HW226560   5.323   2.570   4.489  1.1063  0.8211  0.6714
 6697SOL    HW326561   5.412   2.653   4.398 -0.2851  0.1950 -1.3238
 6697SOL    MW426562   5.336   2.612   4.414  0.0442 -0.6528 -0.1382
 6698SOL     OW26563   0.060   0.149   2.154  0.6701 -0.6536  0.2251
 6698SOL    HW226564   0.055   0.193   2.069  0.5206 -0.7074  0.2057
 6698SOL    HW326565   0.153   0.129   2.166  0.6453 -0.9631 -0.0878
 6698SOL    MW426566   0.072   0.152   2.144  0.2560 -0.1096  0.1012
 6699SOL     OW26567   1.532   1.333   3.675 -0.2586 -0.1470 -0.2210
 6699SOL    HW226568   1.626   1.324   3.691  0.0869 -0.7011 -2.2488
 6699SOL    HW326569   1.526   1.396   3.603 -1.5149  0.5361  0.4509
 6699SOL    MW426570   1.544   1.340   3.668 -0.2323 -0.1992  0.2878
 6700SOL     OW26571   0.191   3.090   0.804 -0.2962  0.4017  0.0832
 6700SOL    HW226572   0.177   3.173   0.759 -1.2834  0.3634  0.2906
 6700SOL    HW326573   0.253   3.042   0.749 -0.9681  0.6183 -0.8872
 6700SOL    MW426574   0.198   3.095   0.791 -0.2209 -0.4526  0.2538
 6701SOL     OW26575   5.395   1.633   1.834  0.1468  0.1808 -0.0563
 6701SOL    HW226576   5.313   1.651   1.881 -0.1074 -0.1160 -0.3754
 6701SOL    HW326577   5.371   1.642   1.742  0.0988 -1.3428 -0.2217
 6701SOL    MW426578   5.381   1.637   1.828 -0.8637 -0.8506 -0.2515
 6702SOL     OW26579   3.262   1.658   6.270 -0.3718  0.2958  0.4607
 6702SOL    HW226580   3.293   1.587   6.214  0.0618  1.0263 -0.2455
 6702SOL    HW326581   3.302   1.737   6.233 -1.0762  0.9449  1.0549
 6702SOL    MW426582   3.272   1.659   6.258  0.4542  0.3984 -0.1816
 6703SOL     OW26583   6.304   4.509   0.062 -0.3274 -0.3279  0.0563
 6703SOL    HW226584   6.212   4.533   0.047 -0.1176  1.0987  0.8353
 6703SOL    HW326585   6.325   4.448  -0.009 -1.3320  0.7717 -1.2363
 6703SOL    MW426586   6.294   4.504   0.051  0.1897  0.5694  0.3438
 6704SOL     OW26587   0.374   4.359   1.179  0.2430  0.0200 -0.0049
 6704SOL    HW226588   0.300   4.298   1.179 -0.3211  0.6701 -0.7813
 6704SOL    HW326589   0.419   4.342   1.261 -0.0949 -1.1983 -0.0499
 6704SOL    MW426590   0.370   4.349   1.190  0.3125  0.3753 -0.1417
 6705SOL     OW26591   2.585   4.942   1.075  0.0346 -0.0141 -0.3314
 6705SOL    HW226592   2.523   4.885   1.030 -0.1447  1.1546 -1.6301
 6705SOL    HW326593   2.571   5.028   1.037  1.2383  0.6391  0.6147
 6705SOL    MW426594   2.575   4.946   1.064 -0.5449 -0.1395 -0.3918
 6706SOL     OW26595   1.265   1.149   1.159  0.2874  0.0617  0.1741
 6706SOL    HW226596   1.351   1.189   1.173 -0.3554  1.0910  1.3740
 6706SOL    HW326597   1.235   1.187   1.076  0.2056  1.1426  0.6883
 6706SOL    MW426598   1.273   1.159   1.150 -0.4248  0.5499 -0.3011
 6707SOL     OW26599   3.804   5.362   1.999  0.4131 -0.1175 -0.4149
 6707SOL    HW226600   3.887   5.396   1.965 -0.1442 -0.1107 -1.8423
 6707SOL    HW326601   3.741   5.379   1.929 -0.1853 -2.7747 -0.6104
 6707SOL    MW426602   3.807   5.369   1.985  0.1101  0.2235  0.9123
 6708SOL     OW26603   1.633   4.900   1.496 -0.0337 -0.2201 -0.2947
 6708SOL    HW226604   1.655   4.992   1.512  0.7225 -0.5938  1.0112
 6708SOL    HW326605   1.664   4.855   1.575 -0.2997 -1.6061 -0.9658
 6708SOL    MW426606   1.640   4.906   1.509 -0.5062 -0.7275 -0.2386
 6709SOL     OW26607   2.008   1.226   4.237  0.2016  0.1956  0.2071
 6709SOL    HW226608   2.025   1.321   4.237  0.3693  0.1735  0.8858
 6709SOL    HW326609   2.078   1.189   4.182 -1.0802  0.6439 -1.8313
 6709SOL    MW426610   2.020   1.234   4.230 -0.3454  0.0323  0.3702
 6710SOL     OW26611   6.068   0.791   4.778 -0.2503  0.4195 -0.0080
 6710SOL    HW226612   6.008   0.861   4.804  0.1564  0.1457  1.8002
 6710SOL    HW326613   6.081   0.804   4.684 -0.3893  2.5860  0.2341
 6710SOL    MW426614   6.062   0.802   4.769 -0.2789  0.1560 -0.0856
 6711SOL     OW26615   6.426   3.936   1.795 -0.1058  0.5268  0.0875
 6711SOL    HW226616   6.481   3.997   1.843 -0.1586  0.4042  0.3069
 6711SOL    HW326617   6.426   3.968   1.705  0.4202  0.4586  0.0609
 6711SOL    MW426618   6.433   3.948   1.789  0.0136  0.6191  0.2883
 6712SOL     OW26619   4.678   2.129   6.088 -0.0476  0.4895 -0.1073
 6712SOL    HW226620   4.624   2.154   6.014  1.2014  1.9721 -0.5694
 6712SOL    HW326621   4.691   2.034   6.077 -1.8851  0.2313 -0.3674
 6712SOL    MW426622   4.673   2.119   6.077 -0.5681  0.1409 -0.3906
 6713SOL     OW26623   1.848   6.031   2.140 -0.1986  0.2324  0.3195
 6713SOL    HW226624   1.786   6.101   2.121 -0.2756  0.2517  0.6384
 6713SOL    HW326625   1.926   6.077   2.173 -0.1466  0.1839  0.2649
 6713SOL    MW426626   1.850   6.046   2.142  0.1768 -0.3585  0.3221
 6714SOL     OW26627   6.178   2.540   5.858 -0.0161  0.0338 -0.1961
 6714SOL    HW226628   6.224   2.458   5.840 -1.1482 -0.7555  0.3653
 6714SOL    HW326629   6.104   2.514   5.913 -0.5617  1.4006 -0.2527
 6714SOL    MW426630   6.174   2.526   5.863 -0.2745  0.0397 -0.0975
 6715SOL     OW26631   5.085   5.494   1.320  0.1644  0.0003 -0.9983
 6715SOL    HW226632   5.110   5.540   1.400 -0.0404 -0.0393 -0.9114
 6715SOL    HW326633   5.116   5.550   1.249 -0.4696  0.4948 -0.8972
 6715SOL    MW426634   5.092   5.508   1.321  0.2422 -0.6713  0.1349
 6716SOL     OW26635   1.596   3.327   4.794  0.4887 -0.2648  0.6274
 6716SOL    HW226636   1.569   3.294   4.708 -0.0087 -0.8952  1.0218
 6716SOL    HW326637   1.515   3.330   4.845  1.1011 -2.2340  1.8457
 6716SOL    MW426638   1.582   3.323   4.789  0.5092 -0.2276  0.5967
 6717SOL     OW26639   0.274   1.730   2.267  0.2024 -0.1026  0.2608
 6717SOL    HW226640   0.199   1.698   2.217 -0.4900  1.6538  0.1022
 6717SOL    HW326641   0.332   1.767   2.201  0.4840 -0.0590  0.5332
 6717SOL    MW426642   0.271   1.731   2.251  0.2178  0.0527  0.2055
 6718SOL     OW26643   3.993   5.530   0.104  0.0533  0.6736  0.1884
 6718SOL    HW226644   4.044   5.518   0.184  0.9876  0.3961 -0.4373
 6718SOL    HW326645   3.967   5.441   0.078 -2.3098  0.9077  1.4582
 6718SOL    MW426646   3.996   5.517   0.111 -0.0731  0.3396  1.0549
 6719SOL     OW26647   1.906   5.541   0.702 -0.0159 -0.3073 -0.6097
 6719SOL    HW226648   1.882   5.511   0.614 -0.4551 -0.2429 -0.5144
 6719SOL    HW326649   1.838   5.603   0.726  0.2072 -0.1790 -0.2989
 6719SOL    MW426650   1.894   5.545   0.694  0.1388 -0.6725  0.2986
 6720SOL     OW26651   3.961   1.906   5.227  0.1986  0.6098  0.5987
 6720SOL    HW226652   3.917   1.830   5.264  0.9336  0.4432  1.1539
 6720SOL    HW326653   3.961   1.889   5.133 -1.4512  0.9133  0.5084
 6720SOL    MW426654   3.955   1.893   5.220  0.1086 -0.1716  0.0146
 6721SOL     OW26655   1.330  -0.000   1.992  0.2645  0.4112  0.3643
 6721SOL    HW226656   1.312   0.064   2.061  2.5515 -0.2339  1.6734
 6721SOL    HW326657   1.309  -0.084   2.032  1.4540  0.0474  0.2689
 6721SOL    MW426658   1.325  -0.003   2.007  0.0807  0.1441  0.4245
 6722SOL     OW26659   1.402   0.674   5.703 -0.4626 -0.4377 -0.1932
 6722SOL    HW226660   1.373   0.763   5.684 -1.1599 -0.1495  1.9695
 6722SOL    HW326661   1.494   0.684   5.728 -1.2113  0.1284  2.6126
 6722SOL    MW426662   1.410   0.687   5.704  0.4585 -0.1064 -0.2588
 6723SOL     OW26663   1.630   0.991   0.381  0.3491 -0.4848 -0.0892
 6723SOL    HW226664   1.707   1.032   0.342  0.3643  0.1080  0.5385
 6723SOL    HW326665   1.591   0.941   0.310  1.9515 -1.7360 -0.1428
 6723SOL    MW426666   1.635   0.990   0.367 -0.1479 -0.7864  0.0135
 6724SOL     OW26667   1.316   1.879   1.037 -0.3694  0.2854  0.1123
 6724SOL    HW226668   1.238   1.909   1.084 -0.0351  0.2593  0.6977
 6724SOL    HW326669   1.309   1.919   0.950 -0.0300  1.9434  0.8060
 6724SOL    MW426670   1.305   1.889   1.032  0.1395 -0.7612  0.4656
 6725SOL     OW26671   4.992   0.665   5.267  0.2527  0.5794 -0.2632
 6725SOL    HW226672   5.040   0.702   5.341  1.8804  0.6850 -1.3191
 6725SOL    HW326673   5.006   0.728   5.196 -0.9399  0.2787 -0.7744
 6725SOL    MW426674   5.000   0.678   5.267 -0.2415  0.2376  0.5264
 6726SOL     OW26675   4.458   3.650   2.871 -0.3623  0.6692  0.4357
 6726SOL    HW226676   4.516   3.575   2.857 -0.4050  0.9734 -1.6675
 6726SOL    HW326677   4.382   3.613   2.915  0.1068 -0.3088  0.4508
 6726SOL    MW426678   4.455   3.635   2.875  0.0016 -0.4232 -0.1730
 6727SOL     OW26679   1.655   3.673   2.073  0.6612 -0.9775  0.7136
 6727SOL    HW226680   1.731   3.678   2.131  0.9978 -0.0848  0.2143
 6727SOL    HW326681   1.606   3.754   2.090  2.6158  1.1446 -2.6928
 6727SOL    MW426682   1.659   3.684   2.083 -0.4072  0.2699 -0.3026
 6728SOL     OW26683   0.560   0.798   3.918  0.3072 -0.1740  0.3315
 6728SOL    HW226684   0.547   0.709   3.951  0.1859 -0.0483  0.6247
 6728SOL    HW326685   0.471   0.832   3.906  0.3540 -0.0758  0.2637
 6728SOL    MW426686   0.546   0.791   3.921 -0.8864  0.4607  0.3262
 6729SOL     OW26687   0.478   3.271   4.170  0.3840  0.5599 -0.0353
 6729SOL    HW226688   0.434   3.235   4.093  1.4612  2.5250 -1.6716
 6729SOL    HW326689   0.414   3.261   4.241 -1.6410  0.8279 -1.7138
 6729SOL    MW426690   0.464   3.265   4.170 -0.3930 -0.2815  0.0474
 6730SOL     OW26691   0.667   4.667   1.998 -0.4511 -0.2434 -0.0847
 6730SOL    HW226692   0.727   4.720   1.945 -1.5023  0.2202 -0.8432
 6730SOL    HW326693   0.580   4.689   1.965 -1.2234  0.5357  2.2583
 6730SOL    MW426694   0.663   4.677   1.987  0.0971  0.1498  0.3447
 6731SOL     OW26695   3.729   4.505   2.144 -0.5950 -0.2799 -0.5416
 6731SOL    HW226696   3.773   4.571   2.198 -0.1956 -0.4231 -0.6837
 6731SOL    HW326697   3.710   4.550   2.062  0.0122 -0.4358 -0.7785
 6731SOL    MW426698   3.732   4.519   2.140 -0.4159 -0.1080 -0.0667
 6732SOL     OW26699   5.490   0.289   2.194  0.1487 -0.6004  0.4970
 6732SOL    HW226700   5.400   0.313   2.214  0.4667  3.4152 -1.7424
 6732SOL    HW326701   5.539   0.318   2.271 -0.1243  1.0449  0.0892
 6732SOL    MW426702   5.485   0.296   2.207 -0.1314 -0.6174 -0.9529
 6733SOL     OW26703   3.439   6.039   5.115  0.5988  0.0954 -0.0607
 6733SOL    HW226704   3.471   5.952   5.091  2.1340  0.7004 -0.2773
 6733SOL    HW326705   3.473   6.096   5.046  2.8710  1.4577  2.0541
 6733SOL    MW426706   3.448   6.035   5.103  0.0745  0.2091  0.1995
 6734SOL     OW26707   2.634   1.090   2.030 -0.2777  0.1069 -0.5569
 6734SOL    HW226708   2.708   1.031   2.013  0.2166 -0.1807  2.1502
 6734SOL    HW326709   2.576   1.041   2.088 -1.8546  0.8989 -1.3931
 6734SOL    MW426710   2.636   1.076   2.035 -0.1456 -0.4067 -0.0306
 6735SOL     OW26711   4.397   3.677   2.253 -0.4811 -0.4618  0.3631
 6735SOL    HW226712   4.342   3.754   2.239 -2.1145 -1.8168 -0.9834
 6735SOL    HW326713   4.402   3.668   2.348 -0.5637  1.0598  0.5375
 6735SOL    MW426714   4.391   3.686   2.264  0.1197  0.4511 -0.0012
 6736SOL     OW26715   6.342   3.381   4.136 -0.3210 -0.6870 -0.6214
 6736SOL    HW226716   6.432   3.413   4.138 -0.3285 -0.4322 -2.5719
 6736SOL    HW326717   6.295   3.437   4.198  0.7683 -0.5352  0.0867
 6736SOL    MW426718   6.348   3.393   4.144 -0.2072  0.2053  0.4264
 6737SOL     OW26719   3.636   2.041   2.443  0.7994 -0.2209 -0.3112
 6737SOL    HW226720   3.698   1.990   2.496  0.1997 -0.9058 -0.2535
 6737SOL    HW326721   3.582   1.976   2.400 -0.8968  0.3555  0.8391
 6737SOL    MW426722   3.637   2.026   2.445  0.3170  0.0134  0.4672
 6738SOL     OW26723   5.779   2.224   3.653 -0.2673  0.3587  0.1122
 6738SOL    HW226724   5.791   2.183   3.567 -0.3996 -0.0948  0.3081
 6738SOL    HW326725   5.850   2.288   3.659  0.1453 -0.0799 -0.0545
 6738SOL    MW426726   5.790   2.227   3.642  0.0232 -0.2041  0.0073
 6739SOL     OW26727   5.044   2.895   0.620  0.0937  0.3492  0.3569
 6739SOL    HW226728   5.126   2.853   0.646  1.0326  1.7232 -0.2712
 6739SOL    HW326729   5.068   2.952   0.547 -1.9683 -1.5780 -2.0546
 6739SOL    MW426730   5.058   2.897   0.613 -0.1983 -1.2698 -0.2877
 6740SOL     OW26731   5.042   5.622   2.933  0.3573 -0.2295  0.0300
 6740SOL    HW226732   5.125   5.604   2.888  0.4306  0.4879 -0.1241
 6740SOL    HW326733   5.068   5.649   3.021  0.2439 -0.8689  0.2676
 6740SOL    MW426734   5.056   5.623   2.938 -0.3046 -0.6817 -0.2415
 6741SOL     OW26735   0.623   2.069   0.567 -0.0609 -0.7246  0.6232
 6741SOL    HW226736   0.545   2.032   0.527 -1.1005  2.1983 -0.3704
 6741SOL    HW326737   0.690   2.003   0.555 -1.6301 -2.0900 -1.3530
 6741SOL    MW426738   0.621   2.056   0.560  0.1391  0.4560  0.4689
 6742SOL     OW26739   1.629   6.239   5.489 -0.6545 -0.0818 -0.0617
 6742SOL    HW226740   1.615   6.182   5.564 -2.6678  1.6169  0.9671
 6742SOL    HW326741   1.659   6.181   5.420 -1.8474 -2.2558  1.1322
 6742SOL    MW426742   1.631   6.224   5.490 -0.1181 -0.0527  0.0195
 6743SOL     OW26743   0.739   2.620   3.539 -0.3954  0.0982  0.3557
 6743SOL    HW226744   0.645   2.608   3.553 -0.5058  0.9140  0.3486
 6743SOL    HW326745   0.768   2.538   3.500 -1.1708 -0.0353  0.0425
 6743SOL    MW426746   0.730   2.608   3.536 -0.0148  0.0487  0.1537
 6744SOL     OW26747   3.826   2.664   3.274 -0.6259 -0.3077 -0.0578
 6744SOL    HW226748   3.761   2.713   3.224  1.7461  2.1597 -0.9861
 6744SOL    HW326749   3.893   2.729   3.296  1.4528 -2.6533  0.9826
 6744SOL    MW426750   3.826   2.679   3.270  0.7033 -0.3782 -0.1685
 6745SOL     OW26751   4.265   0.321   1.448 -0.0315 -0.3341  0.5060
 6745SOL    HW226752   4.346   0.286   1.486  0.5814  1.7220  1.2102
 6745SOL    HW326753   4.195   0.274   1.494  0.6942 -2.7115 -0.6553
 6745SOL    MW426754   4.267   0.310   1.459  0.1298  0.2110 -0.1268
 6746SOL     OW26755   5.209   2.288   1.979  0.6065  0.8968 -0.5450
 6746SOL    HW226756   5.213   2.342   1.900  0.9205  0.6653 -0.6912
 6746SOL    HW326757   5.239   2.346   2.049 -3.9590  2.6322  0.3036
 6746SOL    MW426758   5.213   2.303   1.978  0.1475 -0.2254  0.0285
 6747SOL     OW26759   5.527   0.668   4.768 -0.2046 -0.3993 -0.5338
 6747SOL    HW226760   5.562   0.748   4.807 -2.9535  0.6619  0.0235
 6747SOL    HW326761   5.479   0.698   4.691 -0.9721 -1.5505 -0.5260
 6747SOL    MW426762   5.525   0.682   4.763  0.1671 -0.3227 -0.2044
 6748SOL     OW26763   1.129   3.630   3.457 -0.8778 -0.0961  0.0839
 6748SOL    HW226764   1.157   3.711   3.414 -1.9022  0.3141  0.1604
 6748SOL    HW326765   1.106   3.656   3.546 -1.5518 -0.3943  0.0074
 6748SOL    MW426766   1.130   3.644   3.463  0.4467 -0.0020 -0.2809
 6749SOL     OW26767   2.787   6.037   3.922 -0.4085  0.4458  0.2047
 6749SOL    HW226768   2.880   6.019   3.930 -0.2294  1.0780 -0.3843
 6749SOL    HW326769   2.749   6.007   4.005  0.0427 -1.4028 -0.2349
 6749SOL    MW426770   2.794   6.031   3.934 -0.7704 -0.3025  0.2169
 6750SOL     OW26771   3.899   4.258   4.694 -0.4885 -0.2116  0.7199
 6750SOL    HW226772   3.824   4.222   4.647 -1.3346  1.2240  0.9053
 6750SOL    HW326773   3.883   4.352   4.696  0.1482 -0.0945  2.7836
 6750SOL    MW426774   3.887   4.266   4.688 -0.5844  0.2638 -0.4951
 6751SOL     OW26775   1.314   1.882   1.465  0.3425 -0.5444  0.0166
 6751SOL    HW226776   1.377   1.860   1.534  2.6689  1.7232 -1.1984
 6751SOL    HW326777   1.367   1.891   1.386 -1.3361  2.1844 -0.9483
 6751SOL    MW426778   1.330   1.881   1.464  0.6455 -0.6693  0.5465
 6752SOL     OW26779   3.422   2.179   5.431  0.6104 -0.1686  0.1502
 6752SOL    HW226780   3.335   2.215   5.417 -0.1037 -1.2431  1.6169
 6752SOL    HW326781   3.408   2.098   5.479  2.4742  0.2337  1.5098
 6752SOL    MW426782   3.409   2.173   5.435  0.9207 -0.0588 -0.5562
 6753SOL     OW26783   4.734   2.170   2.578  0.1507 -0.4474 -0.1666
 6753SOL    HW226784   4.706   2.257   2.609  2.5843 -0.0200  1.0965
 6753SOL    HW326785   4.747   2.181   2.484  0.7093  0.6753  0.0219
 6753SOL    MW426786   4.732   2.183   2.570 -0.5343 -0.3844 -0.2222
 6754SOL     OW26787   0.177   1.950   1.113 -0.2054 -0.3078 -0.4748
 6754SOL    HW226788   0.172   1.932   1.019 -0.2277  1.0203 -0.7536
 6754SOL    HW326789   0.184   1.864   1.154  0.4037 -0.8814 -1.7288
 6754SOL    MW426790   0.177   1.936   1.106 -0.0069 -0.0924  0.2142
 6755SOL     OW26791   3.146   5.279   3.554  0.1769 -0.0354  0.4289
 6755SOL    HW226792   3.162   5.336   3.630 -0.7581 -0.9947  1.3919
 6755SOL    HW326793   3.083   5.328   3.501  0.9678  0.7235  0.1641
 6755SOL    MW426794   3.140   5.293   3.557  0.1370 -0.6950  0.4750
 6756SOL     OW26795   3.592   3.484   5.212 -0.5711 -0.2437 -0.0617
 6756SOL    HW226796   3.609   3.432   5.290  1.1779 -1.5411 -1.2409
 6756SOL    HW326797   3.496   3.487   5.206 -0.7307 -0.4633  1.8732
 6756SOL    MW426798   3.581   3.477   5.221 -0.0139 -0.2484  0.2192
 6757SOL     OW26799   3.961   6.122   3.764  0.0685  0.0779 -0.6060
 6757SOL    HW226800   4.002   6.077   3.837 -0.2341 -0.1562 -0.5769
 6757SOL    HW326801   4.015   6.199   3.750 -0.1064  0.3425  0.1285
 6757SOL    MW426802   3.973   6.126   3.772  0.1467  0.4207  0.5733
 6758SOL     OW26803   1.981   0.572   0.615 -0.3284 -0.0502  0.2015
 6758SOL    HW226804   1.914   0.626   0.574 -0.9195  0.1117  1.3326
 6758SOL    HW326805   2.020   0.629   0.682  1.2330 -0.0050 -0.6953
 6758SOL    MW426806   1.977   0.587   0.619 -0.6442  0.1833 -0.4621
 6759SOL     OW26807   4.676   5.381   2.012 -0.2180  0.2194 -0.3732
 6759SOL    HW226808   4.755   5.434   2.023 -0.3445  0.6784 -1.5294
 6759SOL    HW326809   4.606   5.434   2.050 -0.6284  1.7145 -2.9966
 6759SOL    MW426810   4.677   5.395   2.019  0.1805  0.7692  0.5244
 6760SOL     OW26811   5.863   4.603   5.968 -0.6879 -0.2072 -0.1966
 6760SOL    HW226812   5.956   4.588   5.985  0.0761  3.0185 -0.8328
 6760SOL    HW326813   5.822   4.599   6.055  0.3254 -0.1206  0.3021
 6760SOL    MW426814   5.870   4.601   5.982  0.2926  0.7830  0.1746
 6761SOL     OW26815   6.000   2.723   5.307  0.1948 -0.0871 -0.1258
 6761SOL    HW226816   6.069   2.748   5.245  0.7874  1.3794  1.0815
 6761SOL    HW326817   5.924   2.775   5.281  0.1225 -0.2388 -0.2270
 6761SOL    MW426818   5.999   2.733   5.295 -0.3222 -0.5751 -0.4907
 6762SOL     OW26819   2.695   3.150   3.279 -0.0646  0.1020 -0.2362
 6762SOL    HW226820   2.611   3.169   3.321  0.6720  0.5505  1.0853
 6762SOL    HW326821   2.692   3.198   3.197 -1.2397 -0.1737 -0.3716
 6762SOL    MW426822   2.683   3.159   3.274  0.0673  0.3873  0.3082
 6763SOL     OW26823   1.894   1.288   5.067  0.1408 -0.0792 -0.5231
 6763SOL    HW226824   1.826   1.229   5.033 -1.5243  2.2428 -1.5083
 6763SOL    HW326825   1.852   1.332   5.141  0.2945  1.8370 -1.5200
 6763SOL    MW426826   1.879   1.286   5.072  0.1024 -0.1923  0.0383
 6764SOL     OW26827   3.551   4.597   4.953 -0.4065  0.3337  0.0472
 6764SOL    HW226828   3.529   4.640   5.036 -1.5283 -0.3499  0.1203
 6764SOL    HW326829   3.535   4.663   4.886 -0.5889  0.5290  0.2844
 6764SOL    MW426830   3.546   4.611   4.955 -0.3424 -0.4851  0.4352
 6765SOL     OW26831   4.495   4.566   1.510  0.5090 -0.2581 -0.5945
 6765SOL    HW226832   4.479   4.494   1.571  0.0119 -0.0433 -0.4609
 6765SOL    HW326833   4.454   4.642   1.552  1.6814  0.2753 -0.3658
 6765SOL    MW426834   4.488   4.567   1.524  0.5283 -0.0840  0.1920
 6766SOL     OW26835   4.215   4.432   0.644 -0.2023  0.6279 -0.4840
 6766SOL    HW226836   4.282   4.490   0.681 -1.3970  1.7051  0.0777
 6766SOL    HW326837   4.251   4.406   0.559  1.3255  0.4200  0.1891
 6766SOL    MW426838   4.229   4.436   0.638  0.1458  0.0393  0.5046
 6767SOL     OW26839   1.599   5.249   0.680 -0.1950  0.2284  0.0735
 6767SOL    HW226840   1.597   5.324   0.621 -0.0802  0.5653  0.5015
 6767SOL    HW326841   1.512   5.247   0.721 -0.9236 -1.0503 -1.3960
 6767SOL    MW426842   1.587   5.258   0.678 -0.0487  0.2945  0.4336
 6768SOL     OW26843   6.302   5.843   6.032  0.5260  0.4885 -0.1643
 6768SOL    HW226844   6.268   5.932   6.041  0.8466  0.7916 -1.6730
 6768SOL    HW326845   6.251   5.805   5.960 -0.0837 -0.8029  0.8997
 6768SOL    MW426846   6.291   5.849   6.024  0.4413  0.6144 -0.2534
 6769SOL     OW26847   4.708   1.786   2.375  0.2037 -0.1089 -0.3559
 6769SOL    HW226848   4.669   1.848   2.313  2.1805  1.3430 -0.2677
 6769SOL    HW326849   4.638   1.765   2.435 -1.6748 -1.2113 -2.7647
 6769SOL    MW426850   4.694   1.792   2.375 -0.5720  0.1790  0.9644
 6770SOL     OW26851   6.214   0.286   5.622  0.1511 -0.4780  0.0038
 6770SOL    HW226852   6.191   0.351   5.556  2.0454  0.0411 -0.2247
 6770SOL    HW326853   6.133   0.237   5.638 -1.5731  2.4261  0.8010
 6770SOL    MW426854   6.201   0.288   5.615 -0.1221 -0.0525  0.0374
 6771SOL     OW26855   2.440   3.942   0.361 -0.0067  0.3557  0.1546
 6771SOL    HW226856   2.458   3.852   0.335  1.4752  0.6903 -0.0707
 6771SOL    HW326857   2.523   3.988   0.348 -1.0188  2.0073 -0.7550
 6771SOL    MW426858   2.453   3.936   0.356  0.1155  0.4258 -0.1580
 6772SOL     OW26859   0.102   5.599   3.120  0.6294  0.2549  0.2105
 6772SOL    HW226860   0.056   5.680   3.142 -1.0148 -0.2939 -0.9767
 6772SOL    HW326861   0.081   5.539   3.191  0.3972  0.3492  0.2225
 6772SOL    MW426862   0.093   5.602   3.132  0.1837 -0.2163 -0.6538
 6773SOL     OW26863   3.880   5.620   6.234  0.4457 -0.2687 -0.1574
 6773SOL    HW226864   3.893   5.692   6.173  3.0235 -1.5493 -1.2737
 6773SOL    HW326865   3.893   5.659   6.321 -1.5897  1.2190 -0.4446
 6773SOL    MW426866   3.883   5.634   6.237  0.0206  0.5526 -0.3243
 6774SOL     OW26867   4.458   4.916   4.158 -0.5560 -0.6395 -0.4796
 6774SOL    HW226868   4.526   4.973   4.194  0.0907 -0.1152 -2.4004
 6774SOL    HW326869   4.376   4.954   4.188 -0.0793  0.3573 -0.4073
 6774SOL    MW426870   4.456   4.928   4.167  0.3313  0.8498  0.4669
 6775SOL     OW26871   3.487   4.246   4.107 -0.0036  0.3305  0.1874
 6775SOL    HW226872   3.581   4.262   4.108 -0.2092  1.8031 -0.9100
 6775SOL    HW326873   3.479   4.151   4.105  1.4847  0.1932 -0.8504
 6775SOL    MW426874   3.498   4.236   4.107 -0.2632  0.0144  0.3445
 6776SOL     OW26875   4.297   5.174   4.516  0.4593 -0.0878  0.6072
 6776SOL    HW226876   4.304   5.257   4.469 -0.1306 -0.3117  0.1082
 6776SOL    HW326877   4.220   5.184   4.572 -0.7650 -0.9543 -0.8524
 6776SOL    MW426878   4.288   5.186   4.517  0.1780  0.2586  0.3050
 6777SOL     OW26879   1.098   0.257   4.959 -0.1531 -0.7311  0.1158
 6777SOL    HW226880   1.109   0.164   4.976  0.7370 -1.3111 -3.1493
 6777SOL    HW326881   1.062   0.262   4.871 -0.4348  2.0507  0.2892
 6777SOL    MW426882   1.094   0.246   4.950  0.0225  0.9390  0.3413
 6778SOL     OW26883   1.323   4.965   1.183 -0.6287  0.3935  0.3244
 6778SOL    HW226884   1.268   5.007   1.249 -0.2475  0.9262  0.3015
 6778SOL    HW326885   1.394   4.924   1.232 -0.4267  0.6646  0.2613
 6778SOL    MW426886   1.325   4.965   1.198  0.3242 -0.1899  0.2172
 6779SOL     OW26887   4.976   5.768   0.272  0.1625  0.1634  0.0762
 6779SOL    HW226888   4.900   5.815   0.237 -1.0867 -1.8157 -0.0532
 6779SOL    HW326889   5.001   5.707   0.203  2.0722  0.9261  0.0247
 6779SOL    MW426890   4.969   5.766   0.258 -1.2053 -0.0278  0.3157
 6780SOL     OW26891   4.804   3.805   2.662 -0.0680  0.3357 -0.0928
 6780SOL    HW226892   4.791   3.829   2.570  1.6174  1.2018 -0.1453
 6780SOL    HW326893   4.728   3.840   2.707 -1.3337 -0.8133 -1.2493
 6780SOL    MW426894   4.793   3.813   2.656  0.3460  0.1183 -0.0865
 6781SOL     OW26895   2.300   4.950   4.204  0.2500  0.0073 -0.0449
 6781SOL    HW226896   2.258   4.905   4.130  1.4790 -0.6526 -0.3659
 6781SOL    HW326897   2.338   5.029   4.165  0.1236  0.1175  0.0565
 6781SOL    MW426898   2.299   4.954   4.189 -0.5669  0.4262  0.0893
 6782SOL     OW26899   5.207   3.998   5.550 -0.7711  0.3510 -0.1353
 6782SOL    HW226900   5.237   4.006   5.460 -1.5223  0.4143 -0.3941
 6782SOL    HW326901   5.219   4.085   5.588  0.2887  0.1182  0.0712
 6782SOL    MW426902   5.212   4.010   5.543 -0.0846 -0.0672 -0.2584
 6783SOL     OW26903   6.282   0.891   2.654 -0.6498  0.4305 -0.2949
 6783SOL    HW226904   6.360   0.899   2.600  0.2319 -2.3271  0.4127
 6783SOL    HW326905   6.270   0.977   2.693  1.6294  1.0984 -0.9669
 6783SOL    MW426906   6.290   0.903   2.652 -0.2986  0.5973  0.0186
 6784SOL     OW26907   4.178   5.261   5.890 -0.1835  0.0792  0.0417
 6784SOL    HW226908   4.090   5.231   5.912 -0.9665  1.4190 -1.0547
 6784SOL    HW326909   4.170   5.356   5.889  1.6090  0.2819  1.1116
 6784SOL    MW426910   4.165   5.270   5.893  0.6121  0.6981 -1.0283
 6785SOL     OW26911   2.633   5.115   1.587 -0.5966  0.2638  0.0314
 6785SOL    HW226912   2.540   5.112   1.563 -0.5913 -1.5023  0.1190
 6785SOL    HW326913   2.636   5.171   1.664 -1.8389 -0.9011  0.9688
 6785SOL    MW426914   2.621   5.122   1.594 -0.1986 -0.2780  0.3622
 6786SOL     OW26915   2.263   6.081   0.915  0.2587 -0.1093 -0.2230
 6786SOL    HW226916   2.295   6.143   0.981 -0.5601 -0.5158  0.5755
 6786SOL    HW326917   2.170   6.103   0.905  0.3984  0.0380 -1.3593
 6786SOL    MW426918   2.255   6.092   0.922 -0.0048  0.0862  0.3592
 6787SOL     OW26919   4.766   0.625   5.946  0.0872  0.1768 -0.4108
 6787SOL    HW226920   4.693   0.684   5.965 -0.3262  0.4049 -2.4607
 6787SOL    HW326921   4.787   0.585   6.030 -2.3589  0.1656  0.2672
 6787SOL    MW426922   4.759   0.627   5.960 -0.3652  0.5583  0.0227
 6788SOL     OW26923   0.860   5.766   2.145  0.3670 -0.3313  0.5721
 6788SOL    HW226924   0.857   5.671   2.133  2.4774 -0.8024  2.9457
 6788SOL    HW326925   0.776   5.788   2.186  0.1018 -1.2645  0.5572
 6788SOL    MW426926   0.849   5.757   2.149 -0.2004 -0.1704  0.2195
 6789SOL     OW26927   5.805   6.146   1.651 -0.0516  0.5462  0.0471
 6789SOL    HW226928   5.864   6.134   1.725  0.1207  0.4937 -0.0972
 6789SOL    HW326929   5.855   6.198   1.588 -0.6016  1.6050  0.4471
 6789SOL    MW426930   5.819   6.152   1.652 -0.1230 -0.7051  0.4042
 6790SOL     OW26931   4.256   3.943   5.463 -0.1172  0.1882 -0.0622
 6790SOL    HW226932   4.274   3.902   5.548 -0.2205  1.4769  0.5977
 6790SOL    HW326933   4.322   4.012   5.456 -0.5116  0.5001 -0.7470
 6790SOL    MW426934   4.267   3.947   5.473  0.2889 -0.2884 -0.3309
 6791SOL     OW26935   3.552   2.976   4.155 -0.0896 -0.0046 -0.4508
 6791SOL    HW226936   3.519   2.980   4.065 -0.1329 -0.2483 -0.4462
 6791SOL    HW326937   3.638   2.934   4.147 -0.1299 -0.1028 -0.3686
 6791SOL    MW426938   3.559   2.971   4.142 -0.0905 -0.1625  0.2461
 6792SOL     OW26939   5.931   3.439   4.946 -0.2373  0.1142  0.1380
 6792SOL    HW226940   5.855   3.417   4.892 -2.3127 -0.3426  2.9982
 6792SOL    HW326941   5.991   3.366   4.934 -1.3127 -0.7004 -0.4360
 6792SOL    MW426942   5.929   3.426   4.938  0.5343  0.2588 -0.0541
 6793SOL     OW26943   1.920   4.454   0.321  0.2021 -0.1767  0.0324
 6793SOL    HW226944   1.976   4.525   0.290  0.6785 -1.0285 -1.1384
 6793SOL    HW326945   1.844   4.497   0.359  1.2724  0.9902  0.9360
 6793SOL    MW426946   1.918   4.469   0.322  0.9839  0.4279  0.3080
 6794SOL     OW26947   5.699   5.389   4.293 -0.1057 -0.5597  0.0771
 6794SOL    HW226948   5.689   5.295   4.312 -0.7387 -0.8816 -1.6637
 6794SOL    HW326949   5.792   5.406   4.307 -0.0962 -1.2894  1.0322
 6794SOL    MW426950   5.710   5.379   4.298 -0.0878 -0.3304  0.0763
 6795SOL     OW26951   3.982   2.921   4.513  0.2350 -0.4611  0.3068
 6795SOL    HW226952   3.942   2.838   4.490  0.0728 -0.5679  0.9801
 6795SOL    HW326953   3.983   2.971   4.430 -1.9633 -0.1668  0.4190
 6795SOL    MW426954   3.977   2.917   4.499 -0.1350 -0.2069  0.2771
 6796SOL     OW26955   3.718   5.536   1.754  0.3759 -0.9294  0.3014
 6796SOL    HW226956   3.749   5.584   1.830 -1.0412  1.9984 -0.8047
 6796SOL    HW326957   3.798   5.510   1.708  1.2538  1.2070  0.5150
 6796SOL    MW426958   3.733   5.539   1.758  0.0533  0.1069 -0.1979
 6797SOL     OW26959   2.529   5.545   5.102 -0.3742  0.0003  0.2450
 6797SOL    HW226960   2.541   5.450   5.096 -0.2415  0.0292  0.0639
 6797SOL    HW326961   2.469   5.566   5.030 -0.3594  0.0637  0.2512
 6797SOL    MW426962   2.522   5.535   5.092 -0.0048  0.2992 -0.0263
 6798SOL     OW26963   0.610   0.229   4.548 -0.2465  0.3325 -0.5953
 6798SOL    HW226964   0.561   0.280   4.483 -0.1450  0.1304 -0.8330
 6798SOL    HW326965   0.651   0.159   4.497  0.6344  0.7464 -0.4662
 6798SOL    MW426966   0.609   0.226   4.533  0.0995 -0.5411 -0.3651
 6799SOL     OW26967   3.544   1.553   4.333 -0.0578 -0.1513  0.8533
 6799SOL    HW226968   3.620   1.611   4.337 -0.2708  0.2718 -0.4604
 6799SOL    HW326969   3.485   1.585   4.401 -0.5421  1.7921 -0.3743
 6799SOL    MW426970   3.546   1.565   4.342  0.7600 -0.2354  0.0830
 6800SOL     OW26971   1.399   2.995   2.117 -1.1633  0.0839  0.1759
 6800SOL    HW226972   1.356   3.070   2.157 -3.5386 -0.1100 -1.7518
 6800SOL    HW326973   1.407   3.018   2.025 -0.0448 -1.2147 -0.0841
 6800SOL    MW426974   1.394   3.008   2.110 -0.3170  0.2879 -0.5798
 6801SOL     OW26975   3.514   2.365   3.885 -0.5484 -0.3253 -0.3456
 6801SOL    HW226976   3.429   2.390   3.848 -0.9252 -1.5860 -0.3822
 6801SOL    HW326977   3.557   2.449   3.904 -2.1737  0.3762  0.5700
 6801SOL    MW426978   3.508   2.380   3.883 -0.4965 -0.2371  0.1950
 6802SOL     OW26979   0.313   2.193   5.380  0.5831  0.0584  0.0571
 6802SOL    HW226980   0.244   2.153   5.328  1.0683  0.4869 -0.9481
 6802SOL    HW326981   0.319   2.283   5.347  0.8713  0.3568  0.8883
 6802SOL    MW426982   0.305   2.200   5.369 -0.6154  0.4002  0.1296
 6803SOL     OW26983   1.955   6.281   3.819 -0.3139 -0.3737  0.1681
 6803SOL    HW226984   1.982   6.190   3.831 -1.4536 -0.5545  1.7488
 6803SOL    HW326985   2.036   6.332   3.825  0.2278 -1.2138  0.1511
 6803SOL    MW426986   1.969   6.276   3.821 -0.0392 -0.2473  0.2112
 6804SOL     OW26987   4.858   0.941   2.587  0.0552 -0.3228  0.2995
 6804SOL    HW226988   4.833   1.011   2.527 -0.5095  0.0510  0.9557
 6804SOL    HW326989   4.789   0.941   2.653  0.4741 -0.9755  0.7412
 6804SOL    MW426990   4.846   0.950   2.588  0.4442  0.2269 -0.1725
 6805SOL     OW26991   4.631   1.986   2.118  0.6216  0.0161  0.0382
 6805SOL    HW226992   4.545   1.980   2.160  0.1883  2.2206 -0.3769
 6805SOL    HW326993   4.624   1.928   2.042 -0.9701  1.0494 -0.6668
 6805SOL    MW426994   4.618   1.978   2.114  0.6667 -0.1816  1.0262
 6806SOL     OW26995   1.334   2.393   4.661 -0.1236 -0.3424  0.2918
 6806SOL    HW226996   1.317   2.335   4.587  0.4003  0.5781 -0.5683
 6806SOL    HW326997   1.376   2.470   4.623  1.9477 -0.6519  1.7422
 6806SOL    MW426998   1.337   2.395   4.646  0.8623 -0.1826  0.5415
 6807SOL     OW26999   5.053   5.269   6.126 -0.3411 -0.2459  0.0042
 6807SOL    HW227000   4.986   5.315   6.076  1.3245  0.3242 -1.8431
 6807SOL    HW327001   5.100   5.218   6.061  1.3450 -0.2053  1.1289
 6807SOL    MW427002   5.050   5.269   6.111 -0.8959  0.2127  0.2394
 6808SOL     OW27003   3.485   1.835   2.321 -0.2839  0.3580 -0.0991
 6808SOL    HW227004   3.450   1.863   2.237 -2.1347  0.4007  0.6474
 6808SOL    HW327005   3.479   1.740   2.320 -0.4139  0.3650  0.0382
 6808SOL    MW427006   3.480   1.826   2.310 -0.5813  0.4508 -0.1948
 6809SOL     OW27007   3.241   2.907   1.486  0.0433 -0.1498  0.0238
 6809SOL    HW227008   3.180   2.860   1.543 -0.5386 -0.1203 -0.5592
 6809SOL    HW327009   3.218   2.999   1.498  2.1653  0.1772  2.3098
 6809SOL    MW427010   3.230   2.913   1.495  0.5062 -0.1247  0.1817
 6810SOL     OW27011   5.935   1.035   2.880 -0.3546 -0.4482 -0.3052
 6810SOL    HW227012   5.860   1.048   2.823 -0.6932 -0.8379  0.0347
 6810SOL    HW327013   5.936   0.940   2.896 -2.1825 -0.1163  2.8069
 6810SOL    MW427014   5.925   1.024   2.875 -0.0630 -0.3539 -0.3598
 6811SOL     OW27015   3.951   1.236   3.945 -0.5679 -0.4387  0.3323
 6811SOL    HW227016   3.919   1.322   3.920  1.5097  0.1406 -0.5914
 6811SOL    HW327017   3.988   1.248   4.032  0.7844 -0.0633 -0.2698
 6811SOL    MW427018   3.952   1.249   3.953  0.0961  0.3501  0.3496
 6812SOL     OW27019   5.517   5.865   6.389 -0.6319 -0.2733  0.3260
 6812SOL    HW227020   5.576   5.863   6.464  0.4192 -2.3154 -0.4531
 6812SOL    HW327021   5.565   5.818   6.320 -1.5524  1.4989 -1.6411
 6812SOL    MW427022   5.531   5.858   6.390  0.3070  0.7877 -0.1131
 6813SOL     OW27023   4.567   4.385   0.479  0.5352  0.2494  0.1172
 6813SOL    HW227024   4.572   4.464   0.532 -0.8295  0.1007  0.5134
 6813SOL    HW327025   4.473   4.364   0.477  0.5857  0.0788 -2.1234
 6813SOL    MW427026   4.555   4.392   0.486 -0.0461 -0.3907  0.3657
 6814SOL     OW27027   1.151   1.076   6.356 -0.3830  0.0450 -0.0833
 6814SOL    HW227028   1.090   1.004   6.341 -0.4287  0.0871 -0.1001
 6814SOL    HW327029   1.200   1.084   6.274  0.8402 -1.1128  0.4891
 6814SOL    MW427030   1.149   1.068   6.344  0.5061  0.2099  1.1392
 6815SOL     OW27031   6.336   3.791   5.217  0.2691  0.5431 -0.0349
 6815SOL    HW227032   6.280   3.858   5.257  0.3209  0.5350  0.0514
 6815SOL    HW327033   6.403   3.773   5.283  1.4962  1.9183 -0.8752
 6815SOL    MW427034   6.337   3.797   5.231 -1.0113  0.3732 -0.5257
 6816SOL     OW27035   2.412   1.011   2.179  0.1928  0.0123 -0.2445
 6816SOL    HW227036   2.329   0.995   2.135 -1.3395 -0.1528  2.4891
 6816SOL    HW327037   2.434   0.928   2.221  2.5954 -0.3985 -2.0549
 6816SOL    MW427038   2.404   0.998   2.179  0.0057  0.2844  0.6856
 6817SOL     OW27039   5.567   4.755   0.191  0.4449  0.0957  0.0252
 6817SOL    HW227040   5.515   4.741   0.112  2.0780  0.7117 -1.2188
 6817SOL    HW327041   5.639   4.691   0.184  0.2073 -0.3452  1.3968
 6817SOL    MW427042   5.570   4.744   0.180  0.6821 -0.0951  0.0311
 6818SOL     OW27043   1.707   5.465   4.614 -0.0528  0.2494  0.1873
 6818SOL    HW227044   1.642   5.419   4.667  0.1560  1.1161  1.2342
 6818SOL    HW327045   1.782   5.405   4.612 -0.5457 -0.3685 -0.2781
 6818SOL    MW427046   1.709   5.451   4.621 -0.0496 -0.4482  0.2748
 6819SOL     OW27047   1.596   1.102   1.765  0.0870  0.6043  0.5322
 6819SOL    HW227048   1.586   1.008   1.778  1.9862  0.2027 -0.6132
 6819SOL    HW327049   1.681   1.123   1.804  0.5216  1.4932 -0.8188
 6819SOL    MW427050   1.606   1.092   1.772  0.6036 -0.0328 -0.4149
 6820SOL     OW27051   4.259   4.274   1.844 -0.3620  0.4194 -0.6966
 6820SOL    HW227052   4.284   4.364   1.865 -0.8576  0.3795  0.1128
 6820SOL    HW327053   4.165   4.270   1.862 -1.0872  0.6366 -3.9088
 6820SOL    MW427054   4.250   4.285   1.849  0.4331 -0.1014 -0.0009
 6821SOL     OW27055   1.211   2.570   4.246 -0.0407  0.2837  0.8974
 6821SOL    HW227056   1.237   2.482   4.217 -1.0291  0.0235  0.7801
 6821SOL    HW327057   1.286   2.601   4.297  1.6683  0.6322 -1.5860
 6821SOL    MW427058   1.225   2.562   4.249 -0.0699  0.6360 -0.1640
 6822SOL     OW27059   4.807   0.298   3.619 -0.6056 -0.1678  0.0360
 6822SOL    HW227060   4.834   0.316   3.709  1.7186  0.8948 -0.7827
 6822SOL    HW327061   4.818   0.203   3.609  0.8337 -0.0673  0.4112
 6822SOL    MW427062   4.812   0.288   3.630  0.5421  0.0755 -0.1203
 6823SOL     OW27063   1.655   1.686   5.340  0.3885  0.2514 -0.1500
 6823SOL    HW227064   1.686   1.615   5.283  1.3556 -0.2040  0.9134
 6823SOL    HW327065   1.690   1.665   5.426 -0.3543  1.3778  0.4520
 6823SOL    MW427066   1.664   1.674   5.344  0.1162 -0.1652 -0.1325
 6824SOL     OW27067   3.640   5.837   2.333  0.3033 -0.2743  0.3651
 6824SOL    HW227068   3.546   5.851   2.332  0.2694 -0.3929  1.1871
 6824SOL    HW327069   3.654   5.772   2.402  1.0763  0.4813  0.9337
 6824SOL    MW427070   3.630   5.830   2.342 -0.6988 -0.2190  0.6363
 6825SOL     OW27071   4.637   6.278   3.209 -0.0552 -0.5708 -0.4631
 6825SOL    HW227072   4.643   6.250   3.301  0.9859 -2.4606 -1.0624
 6825SOL    HW327073   4.623   6.373   3.214  2.9886 -0.1075  1.6186
 6825SOL    MW427074   4.636   6.287   3.222 -0.2160 -0.4603 -0.4667
 6826SOL     OW27075   0.358   4.808   3.365 -0.2805  0.5065  0.2238
 6826SOL    HW227076   0.355   4.880   3.302 -1.5890  0.0654 -0.2606
 6826SOL    HW327077   0.385   4.849   3.447 -0.5857  1.4714 -0.1404
 6826SOL    MW427078   0.361   4.823   3.367 -0.3818 -0.2833 -0.3756
 6827SOL     OW27079   3.702   0.145   2.008  0.4084 -0.1517  0.5539
 6827SOL    HW227080   3.667   0.110   1.926 -0.6206 -0.2076  0.9988
 6827SOL    HW327081   3.639   0.117   2.074  1.3436 -0.2995  1.4042
 6827SOL    MW427082   3.689   0.137   2.006 -0.2294 -0.2412 -0.1202
 6828SOL     OW27083   2.438   0.369   6.059  0.3472  0.5216  0.6459
 6828SOL    HW227084   2.466   0.363   5.968 -2.4537  0.6259 -0.3307
 6828SOL    HW327085   2.486   0.444   6.095  1.8823  0.1570 -0.5431
 6828SOL    MW427086   2.448   0.378   6.052 -0.3478  0.0926  0.2736
 6829SOL     OW27087   4.962   2.877   4.807 -0.3233 -0.0680  0.1987
 6829SOL    HW227088   4.995   2.826   4.881  0.9983 -0.5710 -0.6914
 6829SOL    HW327089   5.000   2.964   4.820 -0.4030 -0.0493  0.3095
 6829SOL    MW427090   4.972   2.882   4.818 -0.0171 -0.9553 -0.1154
 6830SOL     OW27091   6.381   2.931   2.140 -0.0775 -0.0701  0.3883
 6830SOL    HW227092   6.404   3.002   2.200  1.2244  1.2320 -1.5496
 6830SOL    HW327093   6.412   2.851   2.184 -0.4314  0.6601  2.0423
 6830SOL    MW427094   6.388   2.930   2.154  0.4021 -0.9285 -0.0893
 6831SOL     OW27095   0.900   2.351   0.275  0.2790 -0.8224 -0.0095
 6831SOL    HW227096   0.827   2.290   0.285 -0.0805 -0.2679  0.9880
 6831SOL    HW327097   0.923   2.374   0.365  1.3896 -0.6362 -0.3305
 6831SOL    MW427098   0.893   2.346   0.289  0.1879  0.0419 -0.2124
 6832SOL     OW27099   5.506   1.502   5.133  0.2388 -0.2948  0.1739
 6832SOL    HW227100   5.584   1.486   5.081 -0.8115 -1.6033 -1.0886
 6832SOL    HW327101   5.497   1.597   5.135 -0.6925 -0.1307 -3.7859
 6832SOL    MW427102   5.515   1.512   5.127 -0.3042  0.1405  0.3235
 6833SOL     OW27103   0.273   3.256   4.352 -0.2716  0.7186 -0.6283
 6833SOL    HW227104   0.296   3.287   4.440 -1.5771  0.7041 -0.2654
 6833SOL    HW327105   0.220   3.327   4.315  0.2760  0.7274 -1.4188
 6833SOL    MW427106   0.269   3.270   4.358 -0.0396  0.0440  0.3147
 6834SOL     OW27107   3.231   6.329   1.222 -0.0339  0.0673 -0.3342
 6834SOL    HW227108   3.138   6.348   1.233 -0.2886 -0.8742 -0.8225
 6834SOL    HW327109   3.244   6.246   1.267  0.3898 -0.2458 -1.0267
 6834SOL    MW427110   3.220   6.321   1.229  0.2522  0.3857 -0.3155
 6835SOL     OW27111   1.241   0.738   4.291  0.2756 -0.1421 -0.0031
 6835SOL    HW227112   1.243   0.683   4.213  0.5190  0.0223 -0.1141
 6835SOL    HW327113   1.192   0.687   4.356 -0.1860 -0.1526 -0.3583
 6835SOL    MW427114   1.234   0.724   4.290 -0.3879 -0.5005 -0.1216
 6836SOL     OW27115   1.108   4.281   4.691  0.2177 -0.4944  0.0517
 6836SOL    HW227116   1.069   4.338   4.757 -0.4871 -2.0634  1.0684
 6836SOL    HW327117   1.040   4.268   4.626  1.2038  1.7627 -1.5338
 6836SOL    MW427118   1.094   4.287   4.691 -0.3451  0.0957 -1.0328
 6837SOL     OW27119   3.401   0.394   6.272  0.4167  0.2198  0.2322
 6837SOL    HW227120   3.396   0.340   6.194 -0.3490  1.3050 -0.4864
 6837SOL    HW327121   3.482   0.365   6.316  2.4709  1.5337 -2.4278
 6837SOL    MW427122   3.411   0.383   6.268 -0.8801  0.4375  0.0398
 6838SOL     OW27123   3.369   5.055   2.483  0.1439  0.2481  0.5168
 6838SOL    HW227124   3.437   5.080   2.422 -0.6080  1.7083  0.2459
 6838SOL    HW327125   3.416   5.025   2.561  1.1165 -1.9428 -0.8119
 6838SOL    MW427126   3.384   5.054   2.486  0.1894  0.3199  0.1561
 6839SOL     OW27127   1.489   2.691   2.543  0.4523 -0.1269  0.5741
 6839SOL    HW227128   1.579   2.660   2.547  0.1650 -0.8352  2.0178
 6839SOL    HW327129   1.484   2.740   2.461  1.0831 -3.3345 -1.5345
 6839SOL    MW427130   1.500   2.694   2.533 -0.4316 -0.2385  0.1032
 6840SOL     OW27131   1.427   0.205   0.927  0.0461  0.0109 -0.1894
 6840SOL    HW227132   1.404   0.170   1.013 -0.8256  1.8494  0.3797
 6840SOL    HW327133   1.523   0.206   0.926  0.0683 -0.5510  0.5238
 6840SOL    MW427134   1.436   0.200   0.938 -0.5327  0.3510 -0.3643
 6841SOL     OW27135   2.093   2.862   5.719  0.1950  0.2238  0.1107
 6841SOL    HW227136   2.132   2.894   5.800 -1.7839  0.8377  0.8783
 6841SOL    HW327137   2.167   2.829   5.668  1.4024 -1.0207  2.5085
 6841SOL    MW427138   2.108   2.862   5.723  0.2349 -0.2439  0.0355
 6842SOL     OW27139   3.029   4.610   4.153  0.4509  0.3357 -0.1297
 6842SOL    HW227140   2.945   4.578   4.187  0.6294 -0.8147 -0.7620
 6842SOL    HW327141   3.069   4.656   4.228 -0.2713 -0.0038  0.4758
 6842SOL    MW427142   3.023   4.612   4.168 -0.7996 -0.0069 -0.8958
 6843SOL     OW27143   0.499   5.263   2.583 -0.1241 -0.2594  0.6398
 6843SOL    HW227144   0.407   5.278   2.604 -0.4346 -0.7394 -0.3367
 6843SOL    HW327145   0.499   5.186   2.526  0.9405 -0.6425  1.1258
 6843SOL    MW427146   0.487   5.255   2.578 -0.2471  0.2479 -0.1163
 6844SOL     OW27147   5.764   6.241   2.466 -0.2110  0.6079 -0.3176
 6844SOL    HW227148   5.859   6.237   2.470 -0.1924 -1.7027 -1.2513
 6844SOL    HW327149   5.744   6.301   2.395  0.6511 -0.7449 -1.7594
 6844SOL    MW427150   5.774   6.248   2.457 -0.0621  0.4094  0.2038
 6845SOL     OW27151   6.170   4.280   5.542  0.4128 -0.2499  0.2973
 6845SOL    HW227152   6.263   4.278   5.519  0.2823  0.4065 -0.3119
 6845SOL    HW327153   6.125   4.303   5.461 -0.4168 -1.9476  0.2387
 6845SOL    MW427154   6.176   4.283   5.528  0.1603  0.5348 -0.1231
 6846SOL     OW27155   1.484   0.661   3.512 -0.8533  0.3019 -0.8994
 6846SOL    HW227156   1.391   0.664   3.535 -0.8887 -0.3050 -0.9531
 6846SOL    HW327157   1.488   0.604   3.435 -0.3017 -0.5704 -0.2373
 6846SOL    MW427158   1.472   0.654   3.505 -0.4232 -0.2279 -0.6277
 6847SOL     OW27159   0.906   2.410   3.424  0.2158 -0.2340 -0.0241
 6847SOL    HW227160   0.847   2.360   3.367 -0.8903  0.8179  0.1601
 6847SOL    HW327161   0.942   2.345   3.485 -2.6124 -0.5823  1.4290
 6847SOL    MW427162   0.903   2.394   3.424 -0.2967 -0.1584  0.0618
 6848SOL     OW27163   2.204   6.329   2.031 -0.8754 -0.2709 -1.0962
 6848SOL    HW227164   2.141   6.309   2.100  0.3296  0.4229  0.2513
 6848SOL    HW327165   2.247   6.245   2.013 -3.0327 -1.0559 -2.9926
 6848SOL    MW427166   2.202   6.315   2.038 -0.1863 -0.1357 -0.6022
 6849SOL     OW27167   2.294   0.001   3.124 -0.3149 -0.5483  0.1981
 6849SOL    HW227168   2.344  -0.079   3.140 -1.2854 -1.3032 -0.4658
 6849SOL    HW327169   2.307   0.019   3.030  0.2543  0.3372  0.4274
 6849SOL    MW427170   2.303  -0.007   3.114 -0.1619 -0.3617 -0.0139
 6850SOL     OW27171   3.694   4.307   0.220  0.1575 -0.4226 -0.0623
 6850SOL    HW227172   3.642   4.257   0.283 -0.6025  2.7881  2.1322
 6850SOL    HW327173   3.650   4.294   0.136 -0.5060 -2.5822  0.5606
 6850SOL    MW427174   3.682   4.299   0.217  0.3214 -0.2510 -0.3618
 6851SOL     OW27175   4.566   1.212   4.739 -0.2427  0.0672 -0.6433
 6851SOL    HW227176   4.650   1.206   4.694  0.6398 -1.8859  1.0698
 6851SOL    HW327177   4.529   1.124   4.731 -1.2444  0.3924  0.2228
 6851SOL    MW427178   4.572   1.199   4.732 -0.0940  0.5783 -0.1053
 6852SOL     OW27179   1.007   5.169   2.914 -0.2458 -0.0188 -0.1834
 6852SOL    HW227180   1.073   5.155   2.847  0.1966 -1.0841  0.4491
 6852SOL    HW327181   0.931   5.118   2.884 -0.1125 -0.3437  0.0253
 6852SOL    MW427182   1.006   5.160   2.901 -0.3953  0.1368 -0.6706
 6853SOL     OW27183   3.633   0.521   4.110  0.0661 -0.5627 -0.0858
 6853SOL    HW227184   3.660   0.575   4.185 -0.5594 -1.6766  0.9885
 6853SOL    HW327185   3.542   0.499   4.130 -0.3157 -0.3508 -1.5188
 6853SOL    MW427186   3.624   0.525   4.123  0.4129  0.0099 -0.1420
 6854SOL     OW27187   1.918   2.500   1.892 -0.0168 -0.3370  0.5983
 6854SOL    HW227188   1.879   2.538   1.971  0.5685 -0.8786  1.1724
 6854SOL    HW327189   1.950   2.414   1.921 -0.4371 -0.8496 -0.4120
 6854SOL    MW427190   1.917   2.493   1.906 -0.0783  0.1828  0.0304
 6855SOL     OW27191   5.710   3.284   0.613  0.5755 -0.3829  0.0070
 6855SOL    HW227192   5.789   3.231   0.617  0.6620 -0.2198  0.7275
 6855SOL    HW327193   5.668   3.260   0.531  1.3656 -0.4845 -0.3712
 6855SOL    MW427194   5.715   3.274   0.603 -0.3219 -0.1082  0.1103
 6856SOL     OW27195   4.786   2.267   5.017 -0.1021  0.4477  0.2810
 6856SOL    HW227196   4.753   2.303   4.935 -1.2726  0.8337  0.9026
 6856SOL    HW327197   4.842   2.194   4.990 -0.7784  0.3177 -0.8385
 6856SOL    MW427198   4.789   2.263   5.003  0.3839 -0.0570  0.2165
 6857SOL     OW27199   5.997   0.415   3.616 -0.3749 -0.2027  0.0591
 6857SOL    HW227200   5.956   0.472   3.551 -2.2661 -1.2842  0.2265
 6857SOL    HW327201   6.023   0.474   3.687 -0.5855  0.6714 -0.5773
 6857SOL    MW427202   5.995   0.430   3.617  0.1802  0.0550 -0.0587
 6858SOL     OW27203   4.774   5.047   5.111 -0.0152  0.3698 -0.4602
 6858SOL    HW227204   4.804   5.132   5.143  0.1689  0.2409 -0.2883
 6858SOL    HW327205   4.850   4.989   5.121 -1.1095 -0.7248  2.8559
 6858SOL    MW427206   4.788   5.050   5.117  0.4811 -0.1764  0.2170
 6859SOL     OW27207   4.209   2.025   3.166  0.1580  0.2914  0.0671
 6859SOL    HW227208   4.196   2.017   3.072  0.1643  0.1573  0.0767
 6859SOL    HW327209   4.153   2.098   3.192 -0.3852 -0.1200  0.0693
 6859SOL    MW427210   4.200   2.033   3.157 -0.5616 -0.1438  0.6215
 6860SOL     OW27211   4.268   1.764   1.456  0.1744  0.1684 -0.2946
 6860SOL    HW227212   4.292   1.675   1.484 -1.1606 -0.1154  0.0287
 6860SOL    HW327213   4.286   1.819   1.533 -0.9841 -0.1882  0.2660
 6860SOL    MW427214   4.274   1.759   1.470 -0.0586 -0.5435 -0.1834
 6861SOL     OW27215   2.619   2.884   3.179 -0.5035 -0.5730 -0.1622
 6861SOL    HW227216   2.655   2.968   3.207 -0.0091 -1.1398  0.9386
 6861SOL    HW327217   2.630   2.884   3.084 -0.8336  0.7510 -0.2057
 6861SOL    MW427218   2.625   2.895   3.170 -0.1129 -0.0644  0.1175
 6862SOL     OW27219   2.456   5.070   3.977  0.2485 -0.0577 -0.2382
 6862SOL    HW227220   2.469   5.002   3.912  1.4857  0.5303 -0.6489
 6862SOL    HW327221   2.396   5.132   3.935  0.1170 -0.2697 -0.3619
 6862SOL    MW427222   2.450   5.069   3.963  0.1251  0.0687  0.3013
 6863SOL     OW27223   3.771   2.129   5.413 -0.1591 -0.3696  0.1058
 6863SOL    HW227224   3.677   2.148   5.408 -0.7105 -2.9110 -0.7440
 6863SOL    HW327225   3.793   2.095   5.327  0.9681 -2.0061  0.9939
 6863SOL    MW427226   3.761   2.127   5.401 -0.3145  0.0573 -0.3579
 6864SOL     OW27227   1.388   0.168   4.783  0.6840 -0.6958 -0.4964
 6864SOL    HW227228   1.307   0.163   4.732  1.4202  0.1785 -1.8119
 6864SOL    HW327229   1.394   0.083   4.826 -0.6387 -0.9796 -0.8174
 6864SOL    MW427230   1.378   0.156   4.782  0.4961  0.4674  0.0767
 6865SOL     OW27231   0.505   4.515   3.541 -0.2105  0.2764  0.0068
 6865SOL    HW227232   0.523   4.537   3.449 -0.8198 -0.0120 -0.1891
 6865SOL    HW327233   0.584   4.471   3.572 -0.1196  0.0994 -0.4719
 6865SOL    MW427234   0.518   4.512   3.533 -0.6374  0.3402 -0.3919
 6866SOL     OW27235   2.218   5.319   1.777  0.3952 -0.1185 -0.3201
 6866SOL    HW227236   2.252   5.243   1.824 -0.9959 -1.5455 -1.5181
 6866SOL    HW327237   2.171   5.282   1.703  0.2525  1.9637 -1.3268
 6866SOL    MW427238   2.216   5.304   1.774  0.0852  0.3456  0.0517
 6867SOL     OW27239   3.499   0.768   0.837 -0.0353  0.5822 -0.1286
 6867SOL    HW227240   3.499   0.771   0.742 -0.2965  4.1604 -0.1526
 6867SOL    HW327241   3.590   0.754   0.861  0.1260  0.3065 -0.8899
 6867SOL    MW427242   3.511   0.767   0.828 -0.5021  0.1113  0.2460
 6868SOL     OW27243   3.295   4.857   5.515 -0.1122  0.6142  0.2527
 6868SOL    HW227244   3.385   4.823   5.515  0.1901  1.3019  2.0398
 6868SOL    HW327245   3.245   4.792   5.465  0.7281 -1.6723  2.2015
 6868SOL    MW427246   3.300   4.844   5.508  0.2409  0.2002  0.5398
 6869SOL     OW27247   1.665   4.746   4.669 -0.1390 -0.0545  0.2093
 6869SOL    HW227248   1.604   4.673   4.677 -0.3698  0.1112  0.0051
 6869SOL    HW327249   1.749   4.711   4.697 -0.2023 -0.4635 -0.1046
 6869SOL    MW427250   1.668   4.732   4.673  0.3554 -0.4708 -0.4596
 6870SOL     OW27251   0.665   1.161   5.740  0.1253 -0.8827  0.8243
 6870SOL    HW227252   0.735   1.134   5.799  0.8540 -0.4149  0.2076
 6870SOL    HW327253   0.633   1.080   5.701  0.4546 -1.0880  0.9797
 6870SOL    MW427254   0.670   1.147   5.742  0.4686  0.4613 -0.4731
 6871SOL     OW27255   2.300   1.127   0.371 -0.0008 -0.2295 -0.1082
 6871SOL    HW227256   2.314   1.218   0.344 -1.0674  0.0197  0.1426
 6871SOL    HW327257   2.388   1.088   0.369  0.6486  1.0902  0.8237
 6871SOL    MW427258   2.314   1.134   0.367  0.4705  0.6209  0.4410
 6872SOL     OW27259   1.119   1.058   1.463  0.0501  0.4074 -0.5631
 6872SOL    HW227260   1.102   0.975   1.417  0.9656  0.5790 -1.2473
 6872SOL    HW327261   1.212   1.074   1.449  0.3322  0.5319  1.3091
 6872SOL    MW427262   1.129   1.049   1.455 -0.2326  0.3660 -0.0387
 6873SOL     OW27263   3.492   1.120   1.282  0.1136  0.2487 -0.6594
 6873SOL    HW227264   3.543   1.120   1.363 -0.4834 -1.3694 -0.2488
 6873SOL    HW327265   3.546   1.169   1.220  1.9722 -0.9742 -0.1005
 6873SOL    MW427266   3.506   1.126   1.284 -0.1199  0.5870 -0.7242
 6874SOL     OW27267   4.675   4.259   0.940  0.2748 -0.1223 -0.2795
 6874SOL    HW227268   4.580   4.268   0.949  0.0370 -1.9928 -0.4063
 6874SOL    HW327269   4.687   4.222   0.852  1.0588 -0.4735 -0.0335
 6874SOL    MW427270   4.664   4.255   0.929 -0.3067 -0.3657  0.6009
 6875SOL     OW27271   5.927   3.644   5.621  0.6137 -0.1490  0.0951
 6875SOL    HW227272   5.919   3.623   5.714  0.1652  0.5908  0.2320
 6875SOL    HW327273   5.866   3.583   5.578  1.5027 -1.1181  0.1840
 6875SOL    MW427274   5.918   3.633   5.628 -0.4184 -0.0854 -0.1136
 6876SOL     OW27275   3.475   5.908   5.806 -0.0782  0.7459 -0.0530
 6876SOL    HW227276   3.507   5.886   5.894 -1.8142 -0.2086  0.3919
 6876SOL    HW327277   3.434   5.994   5.817  1.0925  1.3603 -0.3230
 6876SOL    MW427278   3.474   5.917   5.819  0.4662 -0.4847  0.1350
 6877SOL     OW27279   1.024   2.174   3.580  0.2808 -0.6700 -0.6442
 6877SOL    HW227280   0.967   2.183   3.657 -0.7674  0.2341 -1.4886
 6877SOL    HW327281   1.111   2.158   3.617 -0.1803 -0.1653  0.7392
 6877SOL    MW427282   1.028   2.173   3.595  0.0219  0.2450  0.2352
 6878SOL     OW27283   4.254   2.141   0.621  0.3735  0.2422  0.0674
 6878SOL    HW227284   4.178   2.161   0.567  1.3960  1.3361 -1.0505
 6878SOL    HW327285   4.290   2.227   0.644  0.4190 -0.2156  1.8678
 6878SOL    MW427286   4.249   2.155   0.617 -0.2807  0.6815  0.2604
 6879SOL     OW27287   5.206   2.894   2.903  0.4767 -0.2354 -0.0330
 6879SOL    HW227288   5.228   2.867   2.992 -1.7312 -0.7025  0.4231
 6879SOL    HW327289   5.214   2.990   2.905  1.4634 -0.3078  0.3346
 6879SOL    MW427290   5.210   2.903   2.915  0.9641  0.3546  0.4082
 6880SOL     OW27291   2.510   4.724   5.396  0.6684  0.2683  0.7723
 6880SOL    HW227292   2.493   4.640   5.440  0.5305 -0.2363 -0.1958
 6880SOL    HW327293   2.485   4.790   5.459 -1.0285 -0.4360  0.9014
 6880SOL    MW427294   2.504   4.721   5.410 -0.2902 -0.0445  0.0937
 6881SOL     OW27295   5.067   4.735   0.702 -0.2198 -0.3295  0.5938
 6881SOL    HW227296   4.985   4.692   0.726 -1.0901  0.6566 -0.5028
 6881SOL    HW327297   5.098   4.775   0.783  1.2875 -3.9028  2.0176
 6881SOL    MW427298   5.060   4.735   0.716 -0.2292  0.0266 -0.6503
 6882SOL     OW27299   1.441   5.164   3.142  0.0554 -0.2986 -0.2416
 6882SOL    HW227300   1.348   5.148   3.125 -0.3128  0.8027  0.5942
 6882SOL    HW327301   1.481   5.077   3.143 -0.8394 -0.7460 -1.2511
 6882SOL    MW427302   1.434   5.151   3.140  0.3057 -0.1318 -0.4866
 6883SOL     OW27303   3.850   0.041   3.309 -0.0237  0.1107  0.7174
 6883SOL    HW227304   3.868   0.054   3.402  2.2666 -0.1373  0.3635
 6883SOL    HW327305   3.900   0.110   3.265  1.5458 -1.6960 -0.4684
 6883SOL    MW427306   3.859   0.052   3.316 -0.0620  0.0005  0.4524
 6884SOL     OW27307   3.671   0.417   1.808  0.4976 -0.0236  0.1257
 6884SOL    HW227308   3.650   0.471   1.883 -3.0994  2.2194 -2.1972
 6884SOL    HW327309   3.626   0.334   1.824 -0.2334  0.4304  0.4679
 6884SOL    MW427310   3.663   0.413   1.820  0.1877 -0.0399  0.0488
 6885SOL     OW27311   1.376   4.971   1.486  0.1300 -0.6221 -0.0338
 6885SOL    HW227312   1.466   4.943   1.502  0.1514 -1.6208 -1.7339
 6885SOL    HW327313   1.384   5.055   1.442  0.2101 -0.5822  0.0556
 6885SOL    MW427314   1.389   4.979   1.482 -0.2474 -0.1821 -0.0483
 6886SOL     OW27315   2.402   3.529   5.698 -0.4626  0.5733 -0.1295
 6886SOL    HW227316   2.472   3.482   5.654 -0.6149 -0.4049  0.6399
 6886SOL    HW327317   2.327   3.522   5.638 -0.0516  1.1997 -0.7282
 6886SOL    MW427318   2.401   3.522   5.684  0.0275 -0.5413 -0.4754
 6887SOL     OW27319   6.305   4.590   0.726 -0.5344 -0.8129 -0.1013
 6887SOL    HW227320   6.224   4.582   0.674 -0.2093 -1.2934 -0.5391
 6887SOL    HW327321   6.275   4.617   0.813 -1.2887 -2.3329  0.1411
 6887SOL    MW427322   6.290   4.593   0.730  0.2459  0.4697  0.3797
 6888SOL     OW27323   0.607   1.552   0.691  0.5297  0.3461  0.0825
 6888SOL    HW227324   0.583   1.640   0.720  2.9330  1.4521 -1.0034
 6888SOL    HW327325   0.525   1.502   0.697 -0.7161  2.3758  1.5923
 6888SOL    MW427326   0.593   1.557   0.696  0.5853  0.4467 -0.0522
 6889SOL     OW27327   5.096   6.229   0.879  0.0129  0.0524  0.1405
 6889SOL    HW227328   5.174   6.272   0.913 -0.0004 -0.2726  0.5953
 6889SOL    HW327329   5.099   6.245   0.785  0.0581  0.9454  0.2920
 6889SOL    MW427330   5.107   6.237   0.871  0.0992 -0.1856  0.1737
 6890SOL     OW27331   6.136   4.427   3.915  0.1797 -0.4703 -0.1830
 6890SOL    HW227332   6.059   4.417   3.971  0.8477 -0.4710  0.7653
 6890SOL    HW327333   6.210   4.418   3.975  0.9657 -2.4716 -1.3623
 6890SOL    MW427334   6.135   4.424   3.931  0.5621 -0.1496  0.3039
 6891SOL     OW27335   1.814   0.427   5.318 -0.3424 -0.0163 -0.5652
 6891SOL    HW227336   1.900   0.405   5.283 -0.1345  0.0634 -0.1189
 6891SOL    HW327337   1.760   0.445   5.241 -0.0516 -0.3934 -0.8612
 6891SOL    MW427338   1.818   0.427   5.304 -0.8170  0.6423  0.0223
 6892SOL     OW27339   6.333   1.642   0.268  0.4528  0.3272 -0.1168
 6892SOL    HW227340   6.266   1.574   0.277  0.0838  0.9287  2.5355
 6892SOL    HW327341   6.415   1.594   0.255  0.2013 -0.6700  1.6963
 6892SOL    MW427342   6.335   1.626   0.268  0.1164  0.4193 -0.1145
 6893SOL     OW27343   0.737   1.250   1.875 -0.1640  0.0478  0.3890
 6893SOL    HW227344   0.777   1.246   1.788  0.4304 -0.1719  0.6640
 6893SOL    HW327345   0.676   1.324   1.871  0.1982  0.3215 -0.0767
 6893SOL    MW427346   0.734   1.259   1.863  0.5647  0.4537 -0.3769
 6894SOL     OW27347   5.215   2.121   5.125 -0.0369 -0.0823  0.3382
 6894SOL    HW227348   5.186   2.142   5.213 -0.0217 -1.8750  0.8075
 6894SOL    HW327349   5.139   2.083   5.082  0.2892 -0.3620 -0.0066
 6894SOL    MW427350   5.201   2.119   5.131  0.5783  0.7225 -0.2415
 6895SOL     OW27351   4.727   1.268   5.397 -0.6080  0.1192  0.3668
 6895SOL    HW227352   4.709   1.333   5.465 -1.9392  0.6646 -0.4531
 6895SOL    HW327353   4.673   1.297   5.323 -0.7409 -1.5754 -0.2311
 6895SOL    MW427354   4.717   1.281   5.396 -0.1235 -0.6799  0.2774
 6896SOL     OW27355   1.773   4.627   2.404 -0.0610 -0.2025  0.3658
 6896SOL    HW227356   1.862   4.661   2.412 -0.7051  1.6708 -0.0148
 6896SOL    HW327357   1.730   4.687   2.344 -2.1892  0.1502  2.1376
 6896SOL    MW427358   1.779   4.639   2.397 -0.7326  0.3009 -0.0692
 6897SOL     OW27359   3.982   5.476   1.640 -0.2820 -0.0968 -0.7429
 6897SOL    HW227360   4.046   5.427   1.692  1.1932  1.7549 -0.6969
 6897SOL    HW327361   3.988   5.439   1.552  1.2748  0.3812 -0.8621
 6897SOL    MW427362   3.991   5.465   1.636 -0.3590 -0.1496  0.1592
 6898SOL     OW27363   5.553   2.664   0.271  0.2216 -0.0111  0.3345
 6898SOL    HW227364   5.491   2.592   0.279 -0.9697  0.6581 -1.9530
 6898SOL    HW327365   5.506   2.740   0.304  0.6977  0.1138  0.7459
 6898SOL    MW427366   5.539   2.665   0.277 -0.4422  0.6252 -0.1791
 6899SOL     OW27367   5.766   5.893   2.175 -0.1044 -0.4175 -0.8571
 6899SOL    HW227368   5.823   5.832   2.129 -1.3009 -2.6050  0.4261
 6899SOL    HW327369   5.710   5.930   2.106  0.9347 -0.3733 -1.7062
 6899SOL    MW427370   5.766   5.890   2.159  0.0335  0.1772  0.2167
 6900SOL     OW27371   5.881   4.695   2.965 -0.4397 -0.3212  0.1712
 6900SOL    HW227372   5.940   4.660   3.032 -0.7787 -1.0771  0.0814
 6900SOL    HW327373   5.939   4.736   2.901 -0.0677 -0.2696  0.5365
 6900SOL    MW427374   5.896   4.696   2.966 -0.6366  0.2111 -0.1007
 6901SOL     OW27375   1.705   2.332   1.386  0.1190 -0.1824 -0.4164
 6901SOL    HW227376   1.714   2.345   1.292  0.2090 -1.1700 -0.5539
 6901SOL    HW327377   1.627   2.276   1.395  1.8414 -2.7358 -0.1595
 6901SOL    MW427378   1.696   2.326   1.375  0.3914 -0.0026 -0.3714
 6902SOL     OW27379   1.531   3.019   2.831  0.1546  0.4651 -0.0242
 6902SOL    HW227380   1.587   2.951   2.792 -0.8457 -0.0874 -0.5155
 6902SOL    HW327381   1.500   3.070   2.757 -1.1825 -0.1511  0.0858
 6902SOL    MW427382   1.535   3.017   2.816 -0.3893  0.4622  0.0060
 6903SOL     OW27383   6.028   0.903   1.598  1.0682  0.2876 -0.2699
 6903SOL    HW227384   6.022   0.920   1.692  4.2823  0.4117  0.0301
 6903SOL    HW327385   5.960   0.838   1.580  2.0094 -1.6876  2.6776
 6903SOL    MW427386   6.018   0.897   1.608  0.1144 -0.0129 -0.7097
 6904SOL     OW27387   4.035   3.634   3.609  0.3681 -0.3779 -0.0782
 6904SOL    HW227388   4.117   3.588   3.625  0.6540  1.2091  4.3077
 6904SOL    HW327389   4.060   3.711   3.558  1.3354 -0.6394 -0.0048
 6904SOL    MW427390   4.049   3.638   3.604  0.4475  0.5271 -0.1114
 6905SOL     OW27391   3.951   0.856   0.713  0.1044 -0.2083  0.6351
 6905SOL    HW227392   3.967   0.888   0.802 -0.1592 -1.6162  1.2188
 6905SOL    HW327393   4.009   0.781   0.704 -1.9374 -1.8709  0.7011
 6905SOL    MW427394   3.961   0.850   0.724  0.5850  0.3066 -0.0943
 6906SOL     OW27395   4.665   2.828   5.442 -0.3328 -0.5773 -0.6670
 6906SOL    HW227396   4.632   2.912   5.411 -0.2244 -0.1736  0.2832
 6906SOL    HW327397   4.668   2.836   5.537  0.7416 -1.2581 -0.6188
 6906SOL    MW427398   4.661   2.840   5.451  0.3485 -0.0807 -0.2028
 6907SOL     OW27399   2.028   2.598   6.139 -0.1972  0.6975  0.0071
 6907SOL    HW227400   2.111   2.551   6.147 -0.0988  0.5650 -1.5715
 6907SOL    HW327401   2.006   2.624   6.229  1.0046 -0.1920  0.5742
 6907SOL    MW427402   2.036   2.596   6.152  0.4652  0.4440 -0.2048
 6908SOL     OW27403   4.268   2.885   4.423  0.4629  0.0465  0.6506
 6908SOL    HW227404   4.175   2.906   4.427  0.1940  0.1411 -2.9478
 6908SOL    HW327405   4.270   2.792   4.400  1.0775  0.6003 -1.8297
 6908SOL    MW427406   4.256   2.876   4.420  0.3538  0.1168 -0.5342
 6909SOL     OW27407   3.879   2.507   5.900 -0.2744  0.0301 -0.1816
 6909SOL    HW227408   3.929   2.579   5.940 -0.5806 -0.1429  0.5425
 6909SOL    HW327409   3.812   2.551   5.848  0.7462  0.2632 -1.3283
 6909SOL    MW427410   3.877   2.522   5.899  0.0704 -0.5465 -0.0636
 6910SOL     OW27411   1.666   5.674   2.938 -0.3950  0.5463 -0.1987
 6910SOL    HW227412   1.626   5.687   3.024 -0.5155 -0.1548 -0.1427
 6910SOL    HW327413   1.760   5.672   2.955 -0.4546 -0.4139  0.0339
 6910SOL    MW427414   1.673   5.676   2.952  0.2815  0.6195 -0.2293
 6911SOL     OW27415   0.030   3.451   0.476  0.0919 -0.3370  0.3346
 6911SOL    HW227416   0.048   3.381   0.413  1.9705 -0.4402  0.9047
 6911SOL    HW327417  -0.011   3.406   0.550  1.0879 -0.8458  0.6061
 6911SOL    MW427418   0.027   3.436   0.477  0.3144  0.3977  0.0564
 6912SOL     OW27419   0.185   3.704   2.480  0.0064  0.6313  0.0115
 6912SOL    HW227420   0.281   3.711   2.482  0.0906 -0.4750  0.7112
 6912SOL    HW327421   0.157   3.740   2.564 -0.0632 -0.4820  0.4849
 6912SOL    MW427422   0.194   3.710   2.491 -0.6810 -0.2028  0.2968
 6913SOL     OW27423   5.651   0.907   3.609  0.3092  0.4335  0.5412
 6913SOL    HW227424   5.628   0.842   3.542  2.4055 -1.2470  1.3611
 6913SOL    HW327425   5.602   0.879   3.687 -2.5028  2.6558 -0.2512
 6913SOL    MW427426   5.641   0.894   3.610 -0.0229  0.7177  0.2294
 6914SOL     OW27427   0.207   1.304   5.961  0.1829 -0.1906 -0.5559
 6914SOL    HW227428   0.178   1.395   5.959 -0.9926 -0.5526 -1.4892
 6914SOL    HW327429   0.303   1.309   5.958  0.1681  1.0167  0.4576
 6914SOL    MW427430   0.216   1.316   5.960  0.0482  0.5248  0.0714
 6915SOL     OW27431   0.623   4.638   0.633  0.4102  0.3063  0.1497
 6915SOL    HW227432   0.612   4.723   0.590  1.4158  0.3003 -0.1332
 6915SOL    HW327433   0.537   4.596   0.624 -0.7533  2.0695  2.0684
 6915SOL    MW427434   0.610   4.644   0.627  0.1701 -0.2441  0.6321
 6916SOL     OW27435   4.979   6.329   3.761  0.0668 -0.0427 -0.5730
 6916SOL    HW227436   5.014   6.416   3.780  1.4539 -0.9147  1.2073
 6916SOL    HW327437   4.937   6.302   3.843 -0.1570 -1.1258 -1.0293
 6916SOL    MW427438   4.978   6.337   3.774 -0.3655 -0.6693  0.9754
 6917SOL     OW27439   4.756   4.711   3.459  0.7526  0.6587  0.2396
 6917SOL    HW227440   4.849   4.690   3.457  0.7836  0.5742  1.6448
 6917SOL    HW327441   4.731   4.701   3.551 -1.3696 -2.4170 -0.5352
 6917SOL    MW427442   4.765   4.707   3.471  0.2845  0.2527 -0.0214
 6918SOL     OW27443   1.318   6.282   0.147 -0.8597  0.1030  0.0481
 6918SOL    HW227444   1.301   6.199   0.102  0.5415  0.2542 -0.8033
 6918SOL    HW327445   1.336   6.344   0.077 -0.0452  0.6834  0.7533
 6918SOL    MW427446   1.318   6.279   0.132  0.2035  0.6592 -0.2815
 6919SOL     OW27447   5.697   5.428   3.889  0.3934  0.1475 -0.5746
 6919SOL    HW227448   5.679   5.483   3.965 -1.4467 -0.1531 -0.7652
 6919SOL    HW327449   5.682   5.338   3.919 -1.3800  0.0823 -1.5147
 6919SOL    MW427450   5.693   5.423   3.903 -0.2855 -0.2414  0.5114
 6920SOL     OW27451   4.456   3.180   4.195 -0.2625 -0.0178 -0.3312
 6920SOL    HW227452   4.494   3.125   4.263 -2.1678 -1.4566 -0.3414
 6920SOL    HW327453   4.531   3.225   4.155  1.1987 -1.4024  0.7426
 6920SOL    MW427454   4.471   3.179   4.198 -0.2889  0.4650 -0.3127
 6921SOL     OW27455   5.418   0.050   5.073 -0.3240  0.4210 -0.4006
 6921SOL    HW227456   5.429   0.112   5.145  0.0565  0.7929 -0.7720
 6921SOL    HW327457   5.326   0.026   5.077 -0.0727 -0.3882  0.8627
 6921SOL    MW427458   5.407   0.055   5.083  0.6049  0.2375 -0.0900
 6922SOL     OW27459   5.452   3.105   4.519 -0.1019 -0.4840 -0.3059
 6922SOL    HW227460   5.492   3.118   4.433  0.1600  0.0628 -0.1047
 6922SOL    HW327461   5.373   3.054   4.501  0.0578 -0.5494 -0.8467
 6922SOL    MW427462   5.447   3.100   4.505  0.1832 -0.2607  0.1119
 6923SOL     OW27463   2.062   5.162   5.350  0.9338 -0.1081 -0.2858
 6923SOL    HW227464   1.986   5.216   5.369  1.7660  0.4578  1.6375
 6923SOL    HW327465   2.043   5.122   5.265 -1.2828  0.3678 -0.0537
 6923SOL    MW427466   2.050   5.164   5.341  0.0600 -0.4794  0.1305
 6924SOL     OW27467   1.280   3.812   0.065  0.6262 -0.4629  0.0968
 6924SOL    HW227468   1.251   3.774  -0.018 -1.4686  0.5215  0.2950
 6924SOL    HW327469   1.246   3.752   0.132  0.2106 -0.0187  0.2945
 6924SOL    MW427470   1.272   3.799   0.063 -0.5218 -0.0374 -0.1449
 6925SOL     OW27471   2.866   4.146   1.554  0.0535  0.1742 -0.0722
 6925SOL    HW227472   2.936   4.190   1.604  0.2770 -0.2315 -0.0279
 6925SOL    HW327473   2.909   4.073   1.511 -0.2129  0.3184 -0.5921
 6925SOL    MW427474   2.881   4.142   1.555  0.2217  0.5747  0.1329
 6926SOL     OW27475   0.044   3.365   1.456  0.7011 -0.1469  0.3639
 6926SOL    HW227476   0.099   3.422   1.509  2.4602 -1.5139  0.1148
 6926SOL    HW327477   0.064   3.390   1.365  2.4730 -1.9097  0.2001
 6926SOL    MW427478   0.053   3.376   1.451  0.5062 -0.0047  0.8512
 6927SOL     OW27479   4.976   0.593   3.282 -0.2562 -0.1633  0.0857
 6927SOL    HW227480   4.907   0.556   3.337 -0.7219 -1.8663 -1.5672
 6927SOL    HW327481   5.058   0.567   3.325 -0.6019  0.5370  1.2100
 6927SOL    MW427482   4.978   0.585   3.295 -0.2274  0.1026 -0.0432
 6928SOL     OW27483   4.063   1.597   4.390 -0.2734 -0.1823  0.3482
 6928SOL    HW227484   4.142   1.649   4.380 -0.5486  0.8198  2.6780
 6928SOL    HW327485   4.095   1.509   4.413  0.1560 -0.5878 -1.6513
 6928SOL    MW427486   4.078   1.592   4.392  0.5914  0.0651 -0.7416
 6929SOL     OW27487   3.748   2.199   2.235  0.7156  0.4310 -0.4060
 6929SOL    HW227488   3.724   2.133   2.300  1.8885  0.7914  0.4317
 6929SOL    HW327489   3.801   2.151   2.171  1.2889  0.4779  0.0243
 6929SOL    MW427490   3.752   2.184   2.236  0.0948  0.0941 -0.3748
 6930SOL     OW27491   4.918   2.865   1.801 -0.5957  0.3405  0.6317
 6930SOL    HW227492   4.870   2.833   1.877 -2.7352 -0.7380 -1.0745
 6930SOL    HW327493   4.852   2.876   1.733  1.3798  0.1295 -1.4518
 6930SOL    MW427494   4.903   2.862   1.802  0.3369 -0.0014  0.1007
 6931SOL     OW27495   3.080   4.567   3.311 -0.0900  0.3937 -0.5843
 6931SOL    HW227496   3.065   4.481   3.351 -1.9537  1.5568  1.3805
 6931SOL    HW327497   3.083   4.628   3.384 -0.1623  2.2014 -2.0195
 6931SOL    MW427498   3.079   4.564   3.326  0.2695  0.1826  0.3151
 6932SOL     OW27499   4.210   5.548   1.094 -0.2509 -0.4635  0.3326
 6932SOL    HW227500   4.266   5.607   1.044 -0.7486 -0.4889 -0.2595
 6932SOL    HW327501   4.121   5.570   1.068 -0.5039 -0.7081  0.9570
 6932SOL    MW427502   4.206   5.558   1.084 -0.8694  1.1163 -0.2241
 6933SOL     OW27503   1.665   0.765   5.716 -0.3476 -0.0084 -0.1521
 6933SOL    HW227504   1.705   0.716   5.645 -0.3818 -1.2512  0.6535
 6933SOL    HW327505   1.666   0.856   5.686  3.3995  0.1304 -0.0375
 6933SOL    MW427506   1.670   0.770   5.703  0.1579  0.1767 -0.1818
 6934SOL     OW27507   4.454   2.634   4.408 -0.4338 -0.4198  0.3526
 6934SOL    HW227508   4.535   2.610   4.364  0.6498  0.7803  1.6099
 6934SOL    HW327509   4.449   2.575   4.483 -0.8431 -0.6021  0.1909
 6934SOL    MW427510   4.464   2.623   4.412  0.1566  0.6025  0.2088
 6935SOL     OW27511   0.085   4.032   5.151  0.3485  0.2384  0.1312
 6935SOL    HW227512   0.049   4.073   5.072  3.1761  0.2326 -1.2993
 6935SOL    HW327513   0.035   3.950   5.160 -0.3059  0.4275 -1.4368
 6935SOL    MW427514   0.073   4.026   5.141 -0.0034 -0.1941  0.1340
 6936SOL     OW27515   0.899   4.633   2.288 -0.0388 -0.4093  0.2894
 6936SOL    HW227516   0.981   4.679   2.270  1.7802 -3.1865  0.7201
 6936SOL    HW327517   0.873   4.596   2.203 -0.7649  0.2987  0.1943
 6936SOL    MW427518   0.907   4.634   2.274 -0.5490 -0.0035  0.1710
 6937SOL     OW27519   2.344   3.072   5.348 -0.2524  0.3104  0.1503
 6937SOL    HW227520   2.360   3.015   5.272  1.7319  0.6309  0.2682
 6937SOL    HW327521   2.249   3.079   5.353 -0.4759  1.4748 -3.2379
 6937SOL    MW427522   2.334   3.065   5.338  0.5169 -0.0071  0.0467
 6938SOL     OW27523   5.872   1.175   0.807  0.6160  0.0170 -0.5073
 6938SOL    HW227524   5.960   1.175   0.845  1.4007  1.2227 -2.2366
 6938SOL    HW327525   5.814   1.165   0.883  2.2225 -2.2816  0.5711
 6938SOL    MW427526   5.876   1.173   0.822  0.0089 -0.3906 -0.8533
 6939SOL     OW27527   1.859   0.406   2.096  0.0114 -0.5714 -0.2293
 6939SOL    HW227528   1.898   0.432   2.013 -2.0720  1.3420 -0.6974
 6939SOL    HW327529   1.921   0.437   2.162  2.1226 -2.8809 -0.9730
 6939SOL    MW427530   1.873   0.413   2.094 -0.0623 -0.0364 -0.4630
 6940SOL     OW27531   6.318   0.314   0.267 -0.0024  0.4528  0.6529
 6940SOL    HW227532   6.361   0.290   0.349 -2.5816 -0.6825  1.7965
 6940SOL    HW327533   6.306   0.408   0.273 -1.1344  0.2524  2.1634
 6940SOL    MW427534   6.322   0.323   0.279 -0.7053  0.0522 -0.2048
 6941SOL     OW27535   2.323   0.067   0.256  0.2902  0.0201  0.5209
 6941SOL    HW227536   2.377   0.045   0.181 -0.4107 -0.7614  0.2291
 6941SOL    HW327537   2.233   0.060   0.224 -0.0233 -0.4329  1.4558
 6941SOL    MW427538   2.318   0.063   0.242 -1.0287 -0.3610 -0.3585
 6942SOL     OW27539   2.398   2.896   5.124  0.3900  0.2765  0.0482
 6942SOL    HW227540   2.492   2.906   5.112  0.4067 -0.0354 -0.0933
 6942SOL    HW327541   2.375   2.820   5.071  0.0944  0.2174  0.2572
 6942SOL    MW427542   2.407   2.887   5.115  0.2813  0.1823  0.8183
 6943SOL     OW27543   5.892   4.306   6.230  0.5155  0.3995  0.6147
 6943SOL    HW227544   5.984   4.287   6.212  0.4329  1.4331 -1.1168
 6943SOL    HW327545   5.847   4.223   6.214  1.0697  0.0467  0.8505
 6943SOL    MW427546   5.898   4.292   6.225 -0.4316  0.2750  0.4588
 6944SOL     OW27547   5.419   5.566   3.424  0.3888 -0.5306 -0.3755
 6944SOL    HW227548   5.423   5.661   3.418 -0.1594 -0.5024 -0.2736
 6944SOL    HW327549   5.455   5.546   3.511  1.4784 -0.4880 -0.8021
 6944SOL    MW427550   5.425   5.576   3.435 -0.6629  0.5873  0.6658
 6945SOL     OW27551   5.918   0.645   0.413  0.4416 -0.0046 -0.0871
 6945SOL    HW227552   5.991   0.612   0.465  0.9992  0.1395 -0.7631
 6945SOL    HW327553   5.930   0.740   0.412  0.3573  0.0054 -0.3602
 6945SOL    MW427554   5.929   0.653   0.419  0.1988  0.5126  0.4149
 6946SOL     OW27555   4.411   1.555   0.471  0.5918  0.3319  0.1145
 6946SOL    HW227556   4.482   1.523   0.527  0.0339 -1.9869 -0.3796
 6946SOL    HW327557   4.331   1.543   0.524  0.3005  0.4023 -0.3027
 6946SOL    MW427558   4.409   1.549   0.485 -0.0153  0.2100  0.4712
 6947SOL     OW27559   5.910   0.984   4.930  0.2764 -0.3325  0.3458
 6947SOL    HW227560   5.903   1.077   4.909  1.5496 -0.7354 -2.3452
 6947SOL    HW327561   5.832   0.965   4.981 -1.4468  1.6600 -1.3495
 6947SOL    MW427562   5.899   0.994   4.934 -0.2391 -0.5981 -0.2928
 6948SOL     OW27563   0.962   6.284   6.089 -0.0145  0.4746 -0.6138
 6948SOL    HW227564   1.004   6.329   6.015 -0.5981  0.9240 -0.6803
 6948SOL    HW327565   1.028   6.222   6.120  0.1530  0.1087 -1.6617
 6948SOL    MW427566   0.977   6.282   6.084 -0.3960 -0.1068 -0.1016
 6949SOL     OW27567   1.414   5.233   1.400  0.0265  0.5782  0.3656
 6949SOL    HW227568   1.348   5.290   1.359  0.0093  1.3968  1.4824
 6949SOL    HW327569   1.468   5.293   1.452  0.3319 -0.3701  1.1577
 6949SOL    MW427570   1.412   5.249   1.401 -0.5565  0.0471 -0.2388
 6950SOL     OW27571   3.453   3.636   1.631  0.1709 -0.0781  0.1432
 6950SOL    HW227572   3.509   3.699   1.586  0.5367 -0.3748  0.1707
 6950SOL    HW327573   3.380   3.688   1.664  0.7506  0.4257  0.6528
 6950SOL    MW427574   3.451   3.651   1.629  0.2971  0.3444 -0.2940
 6951SOL     OW27575   3.695   1.186   0.458 -0.8738 -0.4551 -0.4066
 6951SOL    HW227576   3.773   1.135   0.478 -0.6770  0.0501  0.1520
 6951SOL    HW327577   3.729   1.273   0.435 -1.3500  0.5097  2.1702
 6951SOL    MW427578   3.710   1.191   0.457 -0.6561 -0.2548 -0.0564
 6952SOL     OW27579   2.211   5.123   5.581 -0.1365 -0.2660 -0.3480
 6952SOL    HW227580   2.284   5.173   5.547 -1.0044  1.7777  0.6582
 6952SOL    HW327581   2.157   5.104   5.504  1.8944 -2.8030 -1.3079
 6952SOL    MW427582   2.213   5.127   5.566 -0.0418 -0.5497 -0.2070
 6953SOL     OW27583   1.391   2.802   6.007  0.0403  0.1526 -0.0924
 6953SOL    HW227584   1.412   2.710   6.020 -0.8839  0.2712  2.9728
 6953SOL    HW327585   1.307   2.802   5.960  0.2944 -0.5280 -0.5543
 6953SOL    MW427586   1.382   2.790   6.002  0.2334  0.7116  0.3520
 6954SOL     OW27587   1.352   3.685   0.534 -0.3933 -0.5570 -0.2999
 6954SOL    HW227588   1.316   3.601   0.562  1.0592 -1.1862 -0.2301
 6954SOL    HW327589   1.438   3.689   0.575 -0.5967  1.1765  0.0456
 6954SOL    MW427590   1.358   3.674   0.543 -0.0208  0.1411  0.0703
 6955SOL     OW27591   5.173   0.037   6.156  0.8557  0.2553 -0.1335
 6955SOL    HW227592   5.234   0.052   6.228 -1.3529  0.2024  1.9207
 6955SOL    HW327593   5.189  -0.053   6.129  2.5126  0.6544 -0.5383
 6955SOL    MW427594   5.183   0.027   6.162 -0.6252  0.4034 -0.0028
 6956SOL     OW27595   3.028   3.203   1.844  0.1169  0.3460 -0.7003
 6956SOL    HW227596   3.022   3.129   1.784 -1.6419  1.4699 -2.0096
 6956SOL    HW327597   3.070   3.273   1.793  0.3126  0.7517 -0.0061
 6956SOL    MW427598   3.033   3.203   1.830  0.4337  0.1582  0.9144
 6957SOL     OW27599   5.666   0.439   5.443 -0.7429 -0.0612  0.2790
 6957SOL    HW227600   5.664   0.513   5.383  1.5790  1.5431  1.9729
 6957SOL    HW327601   5.576   0.429   5.474 -1.3552  1.1593 -1.0316
 6957SOL    MW427602   5.654   0.447   5.440  0.0229  0.1279  0.1641
 6958SOL     OW27603   1.556   4.663   0.214  0.1546 -0.0330 -0.4347
 6958SOL    HW227604   1.633   4.672   0.158 -0.6620  0.3860 -1.5357
 6958SOL    HW327605   1.509   4.747   0.204 -1.7903 -1.2010 -1.9105
 6958SOL    MW427606   1.560   4.676   0.205  0.6341 -0.2491 -0.9175
 6959SOL     OW27607   4.883   3.249   2.748 -0.6257  0.1822 -0.0237
 6959SOL    HW227608   4.968   3.231   2.707 -0.1956 -0.1037  0.9730
 6959SOL    HW327609   4.872   3.343   2.741 -0.3467  0.1915 -0.3804
 6959SOL    MW427610   4.893   3.259   2.741  0.1240  0.3912 -0.1069
 6960SOL     OW27611   3.391   1.512   4.075  0.0085 -0.1640  0.1706
 6960SOL    HW227612   3.363   1.596   4.036  0.6654 -0.8100 -1.8500
 6960SOL    HW327613   3.420   1.535   4.163  0.9107  1.9153 -0.5882
 6960SOL    MW427614   3.391   1.526   4.081 -0.0098 -0.2043  0.2230
 6961SOL     OW27615   0.364   2.943   5.620  0.3408 -0.2387  0.1869
 6961SOL    HW227616   0.430   2.980   5.561  2.1926 -1.7345  1.2302
 6961SOL    HW327617   0.322   3.020   5.660 -0.6238  0.8009 -2.5970
 6961SOL    MW427618   0.367   2.958   5.618  0.8682 -0.3414  0.2431
 6962SOL     OW27619   2.048   0.603   3.911  0.2017 -0.7589  0.6524
 6962SOL    HW227620   1.982   0.538   3.934  0.9512 -1.6155  0.4335
 6962SOL    HW327621   2.109   0.604   3.985  0.8748 -1.2187  0.1195
 6962SOL    MW427622   2.048   0.595   3.924 -0.0303  0.4511  0.8588
 6963SOL     OW27623   0.477   4.240   5.520 -0.0613 -0.0912 -0.6807
 6963SOL    HW227624   0.517   4.261   5.436 -0.5960  0.8288 -0.7206
 6963SOL    HW327625   0.454   4.325   5.558  0.0736 -0.4961  0.3457
 6963SOL    MW427626   0.479   4.254   5.514 -0.1274 -0.3154  0.2767
 6964SOL     OW27627   6.379   2.492   6.234 -0.0673 -0.1922  0.7659
 6964SOL    HW227628   6.392   2.522   6.144 -1.9341 -1.2868  0.0504
 6964SOL    HW327629   6.332   2.563   6.277 -0.5700 -0.2745  0.3744
 6964SOL    MW427630   6.374   2.505   6.228  0.8264  0.0477 -0.8979
 6965SOL     OW27631   1.390   5.920   0.789 -0.1177  0.2552 -0.1642
 6965SOL    HW227632   1.440   5.904   0.869 -0.4590  1.1535  0.2413
 6965SOL    HW327633   1.440   5.987   0.743  1.3139 -1.8191 -1.8572
 6965SOL    MW427634   1.403   5.926   0.793  0.5883 -0.2551 -0.0947
 6966SOL     OW27635   0.871   1.609   1.816 -0.1818  0.3784 -0.1102
 6966SOL    HW227636   0.856   1.515   1.805  2.8844 -0.3393  0.9172
 6966SOL    HW327637   0.821   1.632   1.895  1.4156 -1.1334  1.4171
 6966SOL    MW427638   0.862   1.600   1.825 -0.2815 -0.0898 -0.6357
 6967SOL     OW27639   2.796   4.606   3.702  0.3678  0.5113  0.2845
 6967SOL    HW227640   2.807   4.686   3.650  1.2673 -0.1764 -0.6205
 6967SOL    HW327641   2.868   4.607   3.764  0.5526  0.2691  0.0779
 6967SOL    MW427642   2.807   4.617   3.703 -0.0992  0.4039  0.9088
 6968SOL     OW27643   0.232   3.516   5.462  0.4354 -0.0947  0.7293
 6968SOL    HW227644   0.186   3.539   5.542 -1.2743  1.3376 -0.5710
 6968SOL    HW327645   0.180   3.556   5.392  2.4039 -0.4101 -1.0304
 6968SOL    MW427646   0.219   3.524   5.463 -0.3034  0.4554 -0.3648
 6969SOL     OW27647   2.657   1.009   3.392  0.4164 -0.1536 -0.5541
 6969SOL    HW227648   2.603   1.060   3.332 -1.6460 -0.7339  0.7023
 6969SOL    HW327649   2.594   0.958   3.443  2.2139 -1.3262  0.5917
 6969SOL    MW427650   2.641   1.009   3.391 -0.3579  0.5349 -1.0941
 6970SOL     OW27651   2.031   2.987   1.430 -0.3272  0.0730  0.0116
 6970SOL    HW227652   2.070   2.963   1.346 -0.8085 -1.4382  0.1854
 6970SOL    HW327653   2.048   3.081   1.438  2.1809 -0.2675 -0.4616
 6970SOL    MW427654   2.038   2.996   1.420  0.5244 -0.0467 -0.2907
 6971SOL     OW27655   0.723   4.336   1.691 -0.1194 -0.1271 -0.3963
 6971SOL    HW227656   0.701   4.244   1.703 -1.1923  0.1577 -0.0983
 6971SOL    HW327657   0.814   4.335   1.661 -0.1057 -1.2751 -0.3586
 6971SOL    MW427658   0.732   4.324   1.689  0.2421 -0.4635 -0.0784
 6972SOL     OW27659   4.345   4.036   0.588  0.3597  0.1636  0.6825
 6972SOL    HW227660   4.434   4.019   0.619  0.9484  0.8377 -0.5939
 6972SOL    HW327661   4.355   4.062   0.497 -1.3303 -1.9144 -0.1770
 6972SOL    MW427662   4.358   4.037   0.580 -0.3233 -0.1357  0.2509
 6973SOL     OW27663   0.507   5.464   0.233  0.1790 -0.0373 -0.0547
 6973SOL    HW227664   0.456   5.411   0.171 -0.1103  0.9283 -0.6546
 6973SOL    HW327665   0.500   5.417   0.316  2.0759 -2.3740 -1.0789
 6973SOL    MW427666   0.499   5.451   0.236  0.3678 -0.1969  0.3473
 6974SOL     OW27667   0.109   2.450   3.429  0.0196 -0.5010  0.4324
 6974SOL    HW227668   0.060   2.427   3.350  0.1300  0.0580  0.1984
 6974SOL    HW327669   0.131   2.365   3.468  1.7649 -0.8921 -1.2274
 6974SOL    MW427670   0.106   2.435   3.423  0.2560 -0.4051  0.0686
 6975SOL     OW27671   0.125   4.249   3.782  0.7403 -0.0132  1.1502
 6975SOL    HW227672   0.038   4.228   3.748  1.3926  0.2215 -0.7888
 6975SOL    HW327673   0.162   4.164   3.806  1.2760 -0.6108 -1.4392
 6975SOL    MW427674   0.119   4.235   3.780  0.1246 -0.0070  0.3384
 6976SOL     OW27675   1.153   6.205   3.102 -0.1986  0.0297  0.5885
 6976SOL    HW227676   1.067   6.242   3.125 -0.5778 -1.1708  1.2500
 6976SOL    HW327677   1.201   6.204   3.185  1.3793  2.8466 -0.1819
 6976SOL    MW427678   1.148   6.210   3.116 -0.0682 -0.4577  0.4329
 6977SOL     OW27679   0.155   6.164   2.634 -0.2684  0.1742  0.2229
 6977SOL    HW227680   0.222   6.105   2.599 -0.6376  0.2882 -0.6802
 6977SOL    HW327681   0.095   6.107   2.681 -1.4096 -0.3980 -1.8248
 6977SOL    MW427682   0.156   6.149   2.636  0.0499  0.5319 -0.1323
 6978SOL     OW27683   3.213   3.660   0.834  0.2832  0.1192  0.1671
 6978SOL    HW227684   3.269   3.738   0.844  0.4038  0.0887 -0.2219
 6978SOL    HW327685   3.264   3.589   0.873  0.0670  0.2793  0.7437
 6978SOL    MW427686   3.227   3.661   0.840 -0.5642  0.1008  0.6137
 6979SOL     OW27687   2.841   4.485   0.299  0.0331 -0.2132  0.3449
 6979SOL    HW227688   2.906   4.526   0.243  0.5545  0.7344  1.5940
 6979SOL    HW327689   2.779   4.443   0.239 -0.0588  1.7052 -0.9675
 6979SOL    MW427690   2.841   4.485   0.284 -0.4625  0.2860  0.2104
 6980SOL     OW27691   1.363   2.187   5.410  0.2860  0.3332 -0.3746
 6980SOL    HW227692   1.391   2.273   5.442  3.7465  0.3309 -2.8184
 6980SOL    HW327693   1.405   2.125   5.469  0.7340  0.3335 -0.6900
 6980SOL    MW427694   1.372   2.190   5.422  0.1111  0.3062 -0.4535
 6981SOL     OW27695   4.086   2.436   6.273 -0.1846 -0.6788 -0.1939
 6981SOL    HW227696   4.143   2.505   6.240  0.0534 -0.4537  0.6530
 6981SOL    HW327697   4.142   2.358   6.277  1.1410  0.2424  3.7184
 6981SOL    MW427698   4.101   2.435   6.269  0.2187  0.6239  0.6696
 6982SOL     OW27699   5.706   6.085   2.860 -0.0496  0.0796  0.1857
 6982SOL    HW227700   5.672   6.118   2.944 -2.0683 -1.7737  0.1823
 6982SOL    HW327701   5.790   6.045   2.882  0.1430  0.9176  1.0418
 6982SOL    MW427702   5.713   6.084   2.874 -0.2078 -0.2448 -0.3401
 6983SOL     OW27703   1.295   4.274   3.870 -0.2994  0.2537  1.1714
 6983SOL    HW227704   1.294   4.208   3.939  0.0605 -1.3179 -0.2748
 6983SOL    HW327705   1.312   4.356   3.916 -2.2137 -0.3973  3.2069
 6983SOL    MW427706   1.297   4.276   3.886 -0.1965 -0.1182  0.0166
 6984SOL     OW27707   4.541   3.675   3.990 -0.2213 -0.0284 -0.3885
 6984SOL    HW227708   4.585   3.623   3.922 -0.9001 -0.5969 -0.4042
 6984SOL    HW327709   4.496   3.744   3.941 -0.1647 -0.0387 -0.4561
 6984SOL    MW427710   4.541   3.677   3.974 -0.3374 -0.1248  0.2711
 6985SOL     OW27711   2.289   3.819   0.067  0.4260  0.9503 -0.0695
 6985SOL    HW227712   2.269   3.819  -0.026 -1.1150  0.6176  0.2256
 6985SOL    HW327713   2.208   3.788   0.109  1.0409  1.2066  1.3822
 6985SOL    MW427714   2.276   3.815   0.060  0.1316 -0.1427  0.2519
 6986SOL     OW27715   6.391   2.709   0.191 -0.3504 -0.3535 -0.0116
 6986SOL    HW227716   6.312   2.694   0.244 -0.7492  2.1497  0.2574
 6986SOL    HW327717   6.359   2.711   0.101 -1.0398  2.4717  0.2017
 6986SOL    MW427718   6.376   2.708   0.186 -0.2496 -0.3365  0.0541
 6987SOL     OW27719   5.354   3.451   1.406 -0.0202  0.5723  0.3706
 6987SOL    HW227720   5.363   3.389   1.478 -0.4641  0.1691  0.0841
 6987SOL    HW327721   5.385   3.403   1.329  1.2021  1.2657  0.4170
 6987SOL    MW427722   5.359   3.437   1.405 -0.1337  0.0256  0.1761
 6988SOL     OW27723   1.357   2.428   6.046 -0.3782 -0.5892  0.3015
 6988SOL    HW227724   1.288   2.439   6.111 -0.1270  2.4016  0.1822
 6988SOL    HW327725   1.317   2.455   5.964  0.4836 -0.3011 -0.0382
 6988SOL    MW427726   1.343   2.433   6.044  0.6945 -0.2153  0.9701
 6989SOL     OW27727   2.402   5.916   2.570  0.2698 -0.7463 -0.0050
 6989SOL    HW227728   2.365   5.839   2.613  1.6767 -1.3302  0.2320
 6989SOL    HW327729   2.464   5.880   2.507  2.2724  0.1759  1.3409
 6989SOL    MW427730   2.405   5.901   2.567  0.2066  0.3323 -0.5264
 6990SOL     OW27731   2.671   2.737   5.259 -0.4434 -0.2538 -0.5480
 6990SOL    HW227732   2.716   2.761   5.341 -0.7879 -0.0748 -0.4102
 6990SOL    HW327733   2.707   2.651   5.237 -1.3754 -0.9530  0.5484
 6990SOL    MW427734   2.682   2.729   5.267 -0.3809  0.8506 -0.5310
 6991SOL     OW27735   2.361   2.170   4.047 -1.1228 -0.4850  0.5567
 6991SOL    HW227736   2.308   2.236   4.090  1.4336  1.1596  1.4114
 6991SOL    HW327737   2.334   2.173   3.955 -1.0668  1.8105  0.5721
 6991SOL    MW427738   2.351   2.179   4.040  0.1482 -0.1165 -0.0766
 6992SOL     OW27739   5.796   2.101   5.495  0.2864 -0.2297 -0.6692
 6992SOL    HW227740   5.868   2.053   5.453  0.0907  1.3380 -2.9700
 6992SOL    HW327741   5.836   2.181   5.529 -0.0131 -0.3370 -0.0491
 6992SOL    MW427742   5.811   2.105   5.494 -0.6076  0.0454 -0.6241
 6993SOL     OW27743   0.484   3.938   3.895  0.0879 -0.2337 -0.3889
 6993SOL    HW227744   0.545   3.986   3.838  0.2023 -0.1916 -0.2307
 6993SOL    HW327745   0.477   3.991   3.974 -1.4757  0.6310 -1.0793
 6993SOL    MW427746   0.491   3.951   3.898 -0.0860 -0.5401 -0.3908
 6994SOL     OW27747   5.455   5.121   3.542  0.2609 -0.6050 -0.4796
 6994SOL    HW227748   5.414   5.168   3.614 -0.3341 -1.5502 -0.1868
 6994SOL    HW327749   5.539   5.165   3.529 -0.0039  0.1209  0.2020
 6994SOL    MW427750   5.460   5.133   3.550 -0.6517  0.1803  0.2591
 6995SOL     OW27751   1.599   1.762   0.855  0.3195  0.1221  0.3769
 6995SOL    HW227752   1.594   1.769   0.951 -0.2158 -1.2889  0.4657
 6995SOL    HW327753   1.524   1.708   0.831  1.5075 -1.1295 -0.6619
 6995SOL    MW427754   1.589   1.756   0.865 -0.2714 -0.1499 -0.7943
 6996SOL     OW27755   5.586   6.051   2.000 -0.1636 -0.3889 -0.2543
 6996SOL    HW227756   5.586   6.117   1.930 -0.5567  0.4087  0.4840
 6996SOL    HW327757   5.508   6.070   2.051  0.0230 -1.0834  0.3007
 6996SOL    MW427758   5.576   6.062   1.998  0.4054  0.2330 -0.3846
 6997SOL     OW27759   2.318   6.051   1.671  0.0497  0.2515 -0.5594
 6997SOL    HW227760   2.236   6.095   1.649 -0.3603 -0.1522  0.1132
 6997SOL    HW327761   2.292   5.960   1.690  0.4343  0.4351  1.0092
 6997SOL    MW427762   2.304   6.045   1.671 -0.0594  0.0120  0.2961
 6998SOL     OW27763   0.422   4.782   5.655  0.2018  0.5812  0.2259
 6998SOL    HW227764   0.343   4.785   5.708 -0.2036 -0.6913 -0.2717
 6998SOL    HW327765   0.491   4.757   5.716  0.3925  2.3872  0.8111
 6998SOL    MW427766   0.421   4.779   5.670  0.4714  0.0439 -0.5315
 6999SOL     OW27767   0.750   3.935   1.496 -0.1412 -0.1524  0.0964
 6999SOL    HW227768   0.677   3.963   1.441  0.1228  2.2711  0.8595
 6999SOL    HW327769   0.827   3.975   1.457  0.2229  0.5598  1.4666
 6999SOL    MW427770   0.750   3.944   1.484  0.0582  0.4759  0.1084
 7000SOL     OW27771   5.377   6.145   4.917 -0.2463 -0.4794  0.0720
 7000SOL    HW227772   5.437   6.082   4.876  0.9148 -0.0066  0.9830
 7000SOL    HW327773   5.323   6.093   4.976 -0.1809 -0.8003 -0.1495
 7000SOL    MW427774   5.378   6.130   4.919 -0.2360  0.3017 -0.1866
 7001SOL     OW27775   0.537   1.393   5.554  0.2932 -0.0463  0.2155
 7001SOL    HW227776   0.508   1.408   5.644 -1.8406 -2.3019  0.0118
 7001SOL    HW327777   0.576   1.306   5.556  0.1894 -0.1390 -1.0367
 7001SOL    MW427778   0.538   1.383   5.566 -0.5362  0.8243  0.5964
 7002SOL     OW27779   5.313   6.167   0.462 -0.0495  0.3596 -0.4736
 7002SOL    HW227780   5.357   6.095   0.507  1.1362 -0.3022 -2.5156
 7002SOL    HW327781   5.226   6.171   0.500  1.1244  0.4890  2.4559
 7002SOL    MW427782   5.307   6.158   0.473  0.6412 -0.1289 -0.1424
 7003SOL     OW27783   4.292   0.829   2.046  0.1627  0.1718  0.0049
 7003SOL    HW227784   4.225   0.886   2.082  1.0478  1.3345 -0.1214
 7003SOL    HW327785   4.293   0.849   1.952 -0.5384 -1.1656 -0.3282
 7003SOL    MW427786   4.283   0.839   2.038 -0.3075  0.0906  0.2760
 7004SOL     OW27787   2.478   3.771   2.998  1.0218  0.6133  0.0733
 7004SOL    HW227788   2.388   3.749   2.976  0.7153  0.1624  1.6443
 7004SOL    HW327789   2.493   3.857   2.958 -0.2438  0.8968  0.1916
 7004SOL    MW427790   2.468   3.780   2.990  0.3997  0.0287 -0.3549
 7005SOL     OW27791   4.697   1.604   3.679 -0.1449  0.2718  0.2619
 7005SOL    HW227792   4.759   1.555   3.733 -0.8929  0.2175  1.0844
 7005SOL    HW327793   4.620   1.548   3.674  0.0966  0.0390 -1.3236
 7005SOL    MW427794   4.695   1.590   3.686  0.0695 -0.3269 -0.3126
 7006SOL     OW27795   1.492   3.472   3.205 -0.2064 -0.4329 -0.0840
 7006SOL    HW227796   1.463   3.460   3.296  0.2923  0.3647  0.2008
 7006SOL    HW327797   1.547   3.550   3.209  0.8339 -1.1143 -0.8563
 7006SOL    MW427798   1.495   3.481   3.218  0.0567  0.0501 -0.2421
 7007SOL     OW27799   5.822   6.310   5.495  0.1563  0.2883 -0.7802
 7007SOL    HW227800   5.804   6.235   5.438 -0.5650  0.2191 -0.4774
 7007SOL    HW327801   5.835   6.383   5.434 -0.4926  0.1916 -1.0440
 7007SOL    MW427802   5.821   6.310   5.479 -0.0850  0.5532  0.0661
 7008SOL     OW27803   3.687   5.255   5.239 -0.0504  0.1786 -0.2007
 7008SOL    HW227804   3.757   5.320   5.232 -0.3014  0.3854 -0.8428
 7008SOL    HW327805   3.619   5.298   5.289  1.2327 -0.8641  2.6772
 7008SOL    MW427806   3.687   5.269   5.245  0.2650  0.2301  1.0277
 7009SOL     OW27807   3.806   6.272   0.430  0.3137  0.0773  0.3983
 7009SOL    HW227808   3.880   6.243   0.376  1.4401  1.8145  0.9487
 7009SOL    HW327809   3.804   6.367   0.420 -0.6954  0.2427  1.8498
 7009SOL    MW427810   3.816   6.281   0.422  0.3153 -0.5301  0.3699
 7010SOL     OW27811   2.670   4.651   3.279 -0.0412  0.1133 -0.3493
 7010SOL    HW227812   2.675   4.557   3.298 -0.1799  0.2458  0.3814
 7010SOL    HW327813   2.686   4.693   3.364 -2.1242  0.7263 -0.2170
 7010SOL    MW427814   2.673   4.644   3.293 -0.8096 -0.2852  0.2753
 7011SOL     OW27815   4.472   0.458   6.149 -0.3399 -0.4982  0.4218
 7011SOL    HW227816   4.405   0.475   6.216  0.0154 -1.0650  0.9357
 7011SOL    HW327817   4.478   0.540   6.100 -1.8184 -0.6180 -0.0183
 7011SOL    MW427818   4.464   0.471   6.152  0.2405  0.0417 -0.0965
 7012SOL     OW27819   3.609   5.801   6.028  0.1451 -0.2729  0.3331
 7012SOL    HW227820   3.524   5.821   6.066 -0.3140 -1.9803  0.2840
 7012SOL    HW327821   3.598   5.716   5.987  2.0294 -0.7987  0.7993
 7012SOL    MW427822   3.597   5.793   6.027 -0.7704  0.4697 -0.2470
 7013SOL     OW27823   4.397   2.368   2.821 -0.3888 -0.1619 -0.4045
 7013SOL    HW227824   4.367   2.317   2.746 -0.1565 -1.7827  0.5526
 7013SOL    HW327825   4.467   2.316   2.859  0.9918  1.6762 -0.2956
 7013SOL    MW427826   4.402   2.355   2.816 -0.2277  0.2557 -0.4608
 7014SOL     OW27827   4.575   6.363   4.763 -0.1761 -0.1528  0.2795
 7014SOL    HW227828   4.585   6.352   4.858 -1.1377 -1.3325  0.2717
 7014SOL    HW327829   4.519   6.290   4.737  0.2078  0.0723 -1.2321
 7014SOL    MW427830   4.569   6.352   4.772 -0.1434 -0.2503 -0.2758
 7015SOL     OW27831   2.230   0.163   0.582  0.3947 -0.3892 -0.5843
 7015SOL    HW227832   2.144   0.198   0.557  0.9659  0.2589 -1.7252
 7015SOL    HW327833   2.267   0.131   0.500  1.2966 -0.5363 -0.1256
 7015SOL    MW427834   2.223   0.163   0.568  0.0908  0.2871  0.6197
 7016SOL     OW27835   2.678   2.454   2.325 -0.2059 -0.3193 -0.0853
 7016SOL    HW227836   2.696   2.450   2.418  1.8111 -0.2086 -0.4397
 7016SOL    HW327837   2.737   2.389   2.286 -0.3325  0.3026 -1.3752
 7016SOL    MW427838   2.688   2.445   2.332  0.2362 -0.6183  0.2644
 7017SOL     OW27839   3.632   4.147   5.583  0.2151  0.4337 -0.0662
 7017SOL    HW227840   3.689   4.212   5.542 -0.6570  1.7566  0.7382
 7017SOL    HW327841   3.692   4.085   5.623  1.0735  0.7062 -0.8819
 7017SOL    MW427842   3.648   4.148   5.583  0.1302 -0.7254 -0.0794
 7018SOL     OW27843   5.385   0.475   5.520  0.2693 -0.1394 -0.2166
 7018SOL    HW227844   5.392   0.559   5.565  0.7110 -0.3152  0.0523
 7018SOL    HW327845   5.379   0.498   5.428  1.5849  0.1596 -0.2456
 7018SOL    MW427846   5.385   0.489   5.514  0.4817 -0.1492 -0.2710
 7019SOL     OW27847   1.550   4.402   5.349 -0.3210  0.4963  0.4176
 7019SOL    HW227848   1.640   4.422   5.323  0.6077 -1.6986  1.6061
 7019SOL    HW327849   1.497   4.432   5.276  1.6317 -0.3047 -1.4545
 7019SOL    MW427850   1.555   4.408   5.336  0.2823 -0.6356 -0.0350
 7020SOL     OW27851   4.628   0.419   3.239 -0.1531  0.2795  0.1693
 7020SOL    HW227852   4.674   0.445   3.319  2.1274  1.1264 -1.3207
 7020SOL    HW327853   4.611   0.502   3.194 -2.8993 -0.0292  0.4290
 7020SOL    MW427854   4.631   0.434   3.244  0.6899  0.6630  0.6658
 7021SOL     OW27855   0.886   1.459   2.146  0.2843  0.1246 -0.0856
 7021SOL    HW227856   0.904   1.498   2.232 -2.0978  0.1017  0.5008
 7021SOL    HW327857   0.963   1.480   2.093  1.5978  0.5776  1.8986
 7021SOL    MW427858   0.899   1.467   2.150 -0.1283  0.5675 -0.1859
 7022SOL     OW27859   2.113   0.424   1.048  0.6121 -0.2190 -0.1052
 7022SOL    HW227860   2.120   0.515   1.078 -1.0547 -0.4289  1.0755
 7022SOL    HW327861   2.197   0.385   1.073  1.6741  1.1458 -1.3401
 7022SOL    MW427862   2.125   0.431   1.056 -0.4857  0.0592  0.3529
 7023SOL     OW27863   6.094   3.497   1.451  0.0404  0.3565 -0.2301
 7023SOL    HW227864   6.160   3.564   1.466 -0.2446  0.3772  1.0801
 7023SOL    HW327865   6.035   3.534   1.385  0.6788  0.7983 -0.5573
 7023SOL    MW427866   6.095   3.511   1.444 -0.3653  0.3326 -0.2672
 7024SOL     OW27867   3.960   4.548   5.811  0.0766 -0.2652  0.4453
 7024SOL    HW227868   3.996   4.559   5.723  0.9521 -1.5110  0.6228
 7024SOL    HW327869   4.032   4.513   5.863 -1.2839 -2.7036  0.8573
 7024SOL    MW427870   3.974   4.545   5.807 -0.1903 -0.3041 -0.0710
 7025SOL     OW27871   1.840   4.610   6.249  0.1436 -0.3947  0.4425
 7025SOL    HW227872   1.828   4.636   6.341  1.0340 -1.6751  0.9505
 7025SOL    HW327873   1.789   4.674   6.199  0.0893  0.6581  1.7882
 7025SOL    MW427874   1.832   4.622   6.255 -0.6762 -0.2378  0.1526
 7026SOL     OW27875   5.030   4.713   3.146 -0.0388  0.1702  0.2863
 7026SOL    HW227876   5.079   4.722   3.228 -1.2049  0.6133  0.9560
 7026SOL    HW327877   5.082   4.761   3.082  0.7017  0.1252  0.8380
 7026SOL    MW427878   5.044   4.720   3.148  0.1842  0.3864  0.0467
 7027SOL     OW27879   4.391   3.112   5.481 -0.2050 -0.1907  0.0993
 7027SOL    HW227880   4.402   3.106   5.576  0.0261  2.1891  0.2951
 7027SOL    HW327881   4.358   3.201   5.467 -0.3618 -0.5420 -2.0523
 7027SOL    MW427882   4.388   3.123   5.492 -0.0353  0.0404 -0.3365
 7028SOL     OW27883   4.680   6.309   4.470 -0.1705 -0.1682 -0.0164
 7028SOL    HW227884   4.682   6.235   4.409 -0.4865 -0.0305 -0.1951
 7028SOL    HW327885   4.636   6.275   4.548  1.0611 -0.6140  0.4951
 7028SOL    MW427886   4.674   6.295   4.472 -0.3603 -0.2890 -0.4016
 7029SOL     OW27887   5.664   1.088   0.244  0.0816 -0.4408 -0.3290
 7029SOL    HW227888   5.598   1.139   0.199 -0.1866 -0.3253  0.1794
 7029SOL    HW327889   5.669   1.127   0.332  0.4327 -0.7905 -0.1881
 7029SOL    MW427890   5.656   1.100   0.250 -0.4531 -0.0561 -0.3559
 7030SOL     OW27891   4.212   4.527   5.010  0.1517  0.6030 -0.2807
 7030SOL    HW227892   4.306   4.532   4.993  0.2414 -0.5284 -0.1891
 7030SOL    HW327893   4.173   4.586   4.945  0.9436  1.3243 -0.1073
 7030SOL    MW427894   4.219   4.535   4.999 -0.0582 -0.4656 -0.1745
 7031SOL     OW27895   5.844   3.628   2.082 -0.1959 -0.2288  0.3242
 7031SOL    HW227896   5.840   3.535   2.061 -1.4050  0.1160 -1.1172
 7031SOL    HW327897   5.773   3.667   2.031 -0.3335  1.3475  1.6530
 7031SOL    MW427898   5.834   3.621   2.073 -0.4127  0.5240 -0.8084
 7032SOL     OW27899   5.196   5.736   2.050  0.6619  0.2078  0.3953
 7032SOL    HW227900   5.159   5.656   2.086  1.1932 -1.0342 -1.6688
 7032SOL    HW327901   5.265   5.760   2.112  1.5423 -1.8168  0.2809
 7032SOL    MW427902   5.200   5.729   2.063 -0.7490  0.3901 -0.4237
 7033SOL     OW27903   4.964   6.001   0.493  0.2311  0.3050 -0.0190
 7033SOL    HW227904   4.986   5.912   0.520  0.8741  0.1532 -1.0115
 7033SOL    HW327905   4.881   6.019   0.537 -0.0617 -0.8929 -0.0382
 7033SOL    MW427906   4.956   5.991   0.503 -0.2073 -0.1136 -0.0760
 7034SOL     OW27907   1.414   5.924   5.700  0.0485  0.0461  0.1137
 7034SOL    HW227908   1.342   5.920   5.636 -1.2991 -0.2769  1.6020
 7034SOL    HW327909   1.375   5.963   5.778  1.7425  0.7118  0.6776
 7034SOL    MW427910   1.399   5.929   5.702  0.2846  0.6303  0.5933
 7035SOL     OW27911   1.273   3.656   4.872 -0.1996  0.2655  0.3043
 7035SOL    HW227912   1.292   3.699   4.788 -2.4262  0.6625 -0.0659
 7035SOL    HW327913   1.219   3.720   4.920  0.8201 -0.0590  1.9571
 7035SOL    MW427914   1.268   3.670   4.867  0.2540  0.1316  0.0023
 7036SOL     OW27915   2.812   1.227   4.752  0.3858 -0.3682  0.2086
 7036SOL    HW227916   2.891   1.174   4.768 -0.2415 -1.2446  0.5020
 7036SOL    HW327917   2.761   1.175   4.690  0.0483  0.2103 -0.0044
 7036SOL    MW427918   2.816   1.213   4.746 -0.1295  0.0921 -0.9782
 7037SOL     OW27919   2.760   1.181   6.129 -0.3041  0.3399 -0.3969
 7037SOL    HW227920   2.796   1.140   6.050  0.4124  0.2626 -0.0416
 7037SOL    HW327921   2.721   1.263   6.099 -2.5545 -0.9556 -1.2796
 7037SOL    MW427922   2.759   1.186   6.115  0.0765  0.6415 -0.2735
 7038SOL     OW27923   0.763   0.897   5.542  0.5108 -0.1614 -0.3010
 7038SOL    HW227924   0.766   0.819   5.486  1.9133 -0.2122 -0.1814
 7038SOL    HW327925   0.706   0.958   5.495  0.7045 -0.6562 -1.1977
 7038SOL    MW427926   0.756   0.895   5.528  0.3697  0.4799  0.0604
 7039SOL     OW27927   2.190   4.857   3.965  0.3437  0.1131 -0.3493
 7039SOL    HW227928   2.280   4.847   3.936  0.0056 -1.8462 -0.8612
 7039SOL    HW327929   2.148   4.911   3.898  1.0570  0.8469 -0.2172
 7039SOL    MW427930   2.196   4.863   3.953 -0.9237  0.2680  0.1693
 7040SOL     OW27931   2.766   1.990   3.963 -0.6894 -0.2838  0.3440
 7040SOL    HW227932   2.840   2.001   3.902  0.3340 -2.0558  1.1985
 7040SOL    HW327933   2.739   2.080   3.984  3.0090  0.6258  2.0805
 7040SOL    MW427934   2.772   2.004   3.958  0.1700 -0.4022  0.0900
 7041SOL     OW27935   2.536   2.404   5.606 -0.4586  0.7345 -1.1169
 7041SOL    HW227936   2.616   2.453   5.625 -0.0524 -0.0864 -0.5919
 7041SOL    HW327937   2.497   2.448   5.531  1.1504  0.4124 -2.1793
 7041SOL    MW427938   2.542   2.416   5.599  0.0681  0.1958  0.1245
 7042SOL     OW27939   4.068   2.649   0.529 -0.4542  0.2695  0.3579
 7042SOL    HW227940   3.974   2.644   0.544 -0.2978  1.1789  1.8424
 7042SOL    HW327941   4.092   2.563   0.494 -1.4077 -0.9610  2.5769
 7042SOL    MW427942   4.059   2.637   0.526  0.1291  0.2076  0.3107
 7043SOL     OW27943   3.253   1.658   3.543  0.1676  0.2920  0.1033
 7043SOL    HW227944   3.206   1.741   3.540  0.0213  0.2410  0.8035
 7043SOL    HW327945   3.185   1.594   3.565  0.1715 -0.1044 -0.9678
 7043SOL    MW427946   3.238   1.660   3.545 -0.5713  0.2413 -0.6518
 7044SOL     OW27947   3.738   1.855   1.446 -0.0300  0.0707 -0.0625
 7044SOL    HW227948   3.808   1.894   1.498  1.0525 -2.3115  0.4168
 7044SOL    HW327949   3.686   1.806   1.510  0.8978 -2.3247 -1.0211
 7044SOL    MW427950   3.740   1.853   1.462  0.0164  0.6755  0.0301
 7045SOL     OW27951   3.172   4.942   0.853  0.1312 -0.2968  0.3011
 7045SOL    HW227952   3.133   4.975   0.772  0.0478  1.6346  1.0861
 7045SOL    HW327953   3.232   4.873   0.824 -0.7988 -0.4993 -1.2805
 7045SOL    MW427954   3.175   4.937   0.838 -0.2600 -0.2372  0.0534
 7046SOL     OW27955   5.435   0.652   1.313 -0.8697  0.0935 -0.0454
 7046SOL    HW227956   5.504   0.670   1.250 -1.4472 -1.4671 -1.1770
 7046SOL    HW327957   5.358   0.631   1.260 -1.4327 -1.0232  1.1585
 7046SOL    MW427958   5.434   0.651   1.298 -0.2903  0.2366 -0.4557
 7047SOL     OW27959   0.711   3.330   6.302 -0.0269  0.8597  0.4718
 7047SOL    HW227960   0.708   3.253   6.245  0.3070  0.9489  0.3312
 7047SOL    HW327961   0.620   3.361   6.306  0.1406  1.6449 -1.1021
 7047SOL    MW427962   0.698   3.324   6.295 -0.0726  0.2011 -0.0126
 7048SOL     OW27963   1.288   1.696   6.171  0.3462  0.2397 -0.1563
 7048SOL    HW227964   1.278   1.602   6.187  0.9887  0.1135 -0.4629
 7048SOL    HW327965   1.346   1.726   6.241 -0.5761  0.5875  0.4732
 7048SOL    MW427966   1.294   1.687   6.182 -0.2584  0.4787  0.6219
 7049SOL     OW27967   5.500   6.231   4.149  0.2209  0.1596 -0.0129
 7049SOL    HW227968   5.560   6.243   4.222  0.6642  2.5016 -0.7057
 7049SOL    HW327969   5.550   6.255   4.071 -0.5542 -1.3032 -1.0384
 7049SOL    MW427970   5.514   6.236   4.148  0.6271 -0.1195 -0.2740
 7050SOL     OW27971   5.463   4.770   5.976 -0.0612  0.2571  0.2357
 7050SOL    HW227972   5.449   4.789   5.883  0.1459  0.5923  0.2695
 7050SOL    HW327973   5.486   4.677   5.978  0.2131  0.3133 -0.0819
 7050SOL    MW427974   5.465   4.761   5.964  0.8198 -0.7174 -0.0309
 7051SOL     OW27975   5.469   4.507   2.720  0.4985 -0.0434 -0.0527
 7051SOL    HW227976   5.456   4.593   2.680 -0.6011  0.9671  2.2818
 7051SOL    HW327977   5.536   4.522   2.788 -0.4972 -0.7263  1.1170
 7051SOL    MW427978   5.476   4.521   2.724  0.0981 -0.3090 -0.2584
 7052SOL     OW27979   6.099   0.544   0.571  0.4655 -0.5886  0.3424
 7052SOL    HW227980   6.080   0.579   0.658 -0.6854  0.2929 -0.2321
 7052SOL    HW327981   6.194   0.554   0.561  0.6091 -0.6841  1.4772
 7052SOL    MW427982   6.109   0.550   0.581 -0.4414  0.3465 -0.4472
 7053SOL     OW27983   3.371   5.072   6.276  0.1590  0.4049  0.5376
 7053SOL    HW227984   3.455   5.117   6.283  1.3585 -1.7490  0.8358
 7053SOL    HW327985   3.341   5.092   6.187  2.1822 -0.6708 -0.4504
 7053SOL    MW427986   3.378   5.081   6.265 -0.2104  0.2998 -0.4081
 7054SOL     OW27987   0.536   5.361   1.274  0.7446 -0.3028  0.7418
 7054SOL    HW227988   0.565   5.444   1.238 -2.2291  0.5143 -0.0748
 7054SOL    HW327989   0.459   5.383   1.326 -0.2156 -2.5406  0.3986
 7054SOL    MW427990   0.530   5.375   1.276  0.3100 -0.3713 -0.2346
 7055SOL     OW27991   4.118   1.002   2.508 -0.2696  0.8333  0.1652
 7055SOL    HW227992   4.175   1.065   2.552 -0.7963  1.1151  0.4463
 7055SOL    HW327993   4.175   0.926   2.492  0.6224  1.6952 -0.9642
 7055SOL    MW427994   4.133   1.001   2.512  0.1780  0.3832 -0.3846
 7056SOL     OW27995   2.387   4.570   3.139  0.4737  0.5600  0.8275
 7056SOL    HW227996   2.339   4.505   3.087 -0.3502  2.0117 -0.2879
 7056SOL    HW327997   2.361   4.551   3.229 -1.5190  0.7041  0.3400
 7056SOL    MW427998   2.377   4.559   3.144 -0.3756 -0.2434 -0.3921
 7057SOL     OW27999   0.697   6.180   3.342 -0.2580  0.4896 -1.1872
 7057SOL    HW228000   0.653   6.237   3.405 -1.1492 -1.4104 -0.0045
 7057SOL    HW328001   0.626   6.128   3.304  0.6955 -1.1184 -0.8463
 7057SOL    MW428002   0.682   6.181   3.345  0.0883 -0.0864 -0.0112
 7058SOL     OW28003   0.823   1.976   5.780 -0.3260 -0.3359  0.6875
 7058SOL    HW228004   0.777   1.949   5.700  1.6355  0.0977 -0.6504
 7058SOL    HW328005   0.755   2.016   5.834 -1.8342 -1.2217 -0.4648
 7058SOL    MW428006   0.808   1.978   5.777 -0.1017  0.1967  0.0734
 7059SOL     OW28007   2.510   1.085   1.411 -0.4037 -0.3860  0.6392
 7059SOL    HW228008   2.565   1.011   1.388  0.2964  0.2246  0.2918
 7059SOL    HW328009   2.537   1.109   1.500 -0.0946 -0.0860  0.4684
 7059SOL    MW428010   2.521   1.079   1.420 -0.8683  0.1186 -0.0335
 7060SOL     OW28011   1.351   0.343   5.029 -0.2412  0.1069  0.2027
 7060SOL    HW228012   1.268   0.304   5.001 -1.0470  0.3416  2.0799
 7060SOL    HW328013   1.418   0.285   4.993 -1.1695  0.0557 -1.5791
 7060SOL    MW428014   1.349   0.330   5.021 -0.3658 -0.1142  0.0181
 7061SOL     OW28015   6.220   3.174   6.317 -0.4314 -0.3251 -0.4321
 7061SOL    HW228016   6.261   3.094   6.350  1.6133  0.9925  0.4604
 7061SOL    HW328017   6.184   3.216   6.394  0.1762  0.5085 -0.5939
 7061SOL    MW428018   6.221   3.169   6.331  0.1922 -0.4011  0.3934
 7062SOL     OW28019   3.619   1.117   1.830 -0.1311  0.1086  0.4317
 7062SOL    HW228020   3.564   1.050   1.790 -1.4319  0.1323  2.0678
 7062SOL    HW328021   3.701   1.072   1.851 -1.7657 -1.7221  3.5829
 7062SOL    MW428022   3.623   1.102   1.827 -0.4506  0.0588  0.2759
 7063SOL     OW28023   3.833   6.060   2.722  0.0693  0.1066 -0.4794
 7063SOL    HW228024   3.811   6.045   2.630 -0.5876 -2.3151  0.0036
 7063SOL    HW328025   3.898   5.993   2.742  2.2927  2.3122  0.1768
 7063SOL    MW428026   3.839   6.049   2.713 -0.2708 -0.2413 -0.0588
 7064SOL     OW28027   3.865   4.240   2.382 -0.4625  0.1049 -0.7425
 7064SOL    HW228028   3.814   4.313   2.418 -0.6285 -0.8623  1.0915
 7064SOL    HW328029   3.956   4.271   2.384 -0.6775  0.8171 -1.4566
 7064SOL    MW428030   3.871   4.254   2.387  0.6184 -0.0649 -0.5629
 7065SOL     OW28031   1.426   4.688   2.942  0.1521 -0.0018 -0.7130
 7065SOL    HW228032   1.516   4.674   2.969  0.1632  0.0268 -0.7344
 7065SOL    HW328033   1.419   4.783   2.931 -0.2711  0.1469  0.6475
 7065SOL    MW428034   1.437   4.699   2.944  0.0143  0.8930  0.2672
 7066SOL     OW28035   3.706   4.171   4.514 -0.5225 -0.1336  0.9535
 7066SOL    HW228036   3.693   4.076   4.519 -0.6544 -0.2074 -0.3326
 7066SOL    HW328037   3.630   4.203   4.465  0.6863  0.3051 -0.7418
 7066SOL    MW428038   3.694   4.163   4.508  0.4151 -0.3121 -0.3015
 7067SOL     OW28039   4.799   5.964   5.777  0.9456  0.1695 -0.3746
 7067SOL    HW228040   4.766   5.887   5.825 -0.8677  0.7549 -0.6008
 7067SOL    HW328041   4.747   6.037   5.810  2.7953  1.3745 -0.0045
 7067SOL    MW428042   4.788   5.963   5.787  0.1219 -0.3887 -0.2756
 7068SOL     OW28043   1.540   1.291   5.351 -0.0347 -0.4161  0.4211
 7068SOL    HW228044   1.516   1.282   5.444 -1.2079  0.4573  0.2215
 7068SOL    HW328045   1.530   1.202   5.316  1.5786 -1.0114  1.3650
 7068SOL    MW428046   1.535   1.278   5.359  0.4185  0.1066  0.1298
 7069SOL     OW28047   2.028   5.902   0.964 -0.0936  0.0448 -0.1578
 7069SOL    HW228048   1.979   5.836   1.014 -1.7226  0.4763 -1.1015
 7069SOL    HW328049   2.078   5.852   0.900 -0.1780 -0.3448  0.0756
 7069SOL    MW428050   2.028   5.887   0.962  0.3869 -0.2358 -0.2069
 7070SOL     OW28051   3.808   2.439   6.169  0.1158 -0.3492  0.0477
 7070SOL    HW228052   3.837   2.462   6.081 -1.4130 -0.2287 -0.4607
 7070SOL    HW328053   3.888   2.438   6.221  0.8603  1.3079 -0.9602
 7070SOL    MW428054   3.823   2.442   6.164  0.7120 -0.2534 -0.1915
 7071SOL     OW28055   1.269   0.423   4.530 -0.1156  0.2488  0.4833
 7071SOL    HW228056   1.192   0.475   4.507  0.0857  0.5924  0.5761
 7071SOL    HW328057   1.299   0.461   4.613  0.2480  0.2246  0.3632
 7071SOL    MW428058   1.263   0.435   4.538  0.7733  0.1489  0.1519
 7072SOL     OW28059   3.624   5.880   1.576 -0.0163  0.5193 -0.1138
 7072SOL    HW228060   3.569   5.822   1.628  0.7986 -1.0906 -0.9526
 7072SOL    HW328061   3.712   5.871   1.614 -0.1432  2.4941  0.7599
 7072SOL    MW428062   3.629   5.871   1.588  0.5288 -0.6619 -0.3062
 7073SOL     OW28063   5.316   5.158   3.040  0.1839  0.7956  0.2097
 7073SOL    HW228064   5.403   5.132   3.011  0.6978  1.6790  0.9394
 7073SOL    HW328065   5.322   5.252   3.056 -1.9044  1.7033 -3.3589
 7073SOL    MW428066   5.328   5.167   3.038 -0.2659  0.6410 -0.2923
 7074SOL     OW28067   5.406   2.863   2.390 -0.2290  0.2774 -0.4761
 7074SOL    HW228068   5.453   2.900   2.316  0.2898  2.4441  0.8213
 7074SOL    HW328069   5.349   2.934   2.420 -1.8217 -1.1572  0.0726
 7074SOL    MW428070   5.404   2.878   2.384 -0.1509 -0.4504  0.2522
 7075SOL     OW28071   5.350   1.530   5.614  0.0230 -0.3492 -0.1836
 7075SOL    HW228072   5.326   1.546   5.522 -1.2431 -1.3849 -0.0577
 7075SOL    HW328073   5.289   1.584   5.664 -0.9347 -1.6298  0.0875
 7075SOL    MW428074   5.339   1.540   5.608  0.1729  0.0346 -0.3654
 7076SOL     OW28075   1.790   5.854   0.520  0.0188  0.8222 -0.5259
 7076SOL    HW228076   1.753   5.790   0.580 -1.7910  2.0224 -0.2776
 7076SOL    HW328077   1.797   5.808   0.436  0.0380 -0.0781 -0.0408
 7076SOL    MW428078   1.786   5.840   0.517  0.4747 -0.3984  0.3392
 7077SOL     OW28079   5.857   5.803   3.917 -0.0932 -0.0179 -0.2006
 7077SOL    HW228080   5.917   5.748   3.867 -0.0356 -0.7248  0.6193
 7077SOL    HW328081   5.785   5.821   3.857 -0.1685 -1.0902 -0.4606
 7077SOL    MW428082   5.855   5.798   3.903 -0.6005  1.0670 -0.3431
 7078SOL     OW28083   4.594   1.692   4.587 -0.6812 -0.8280  0.2590
 7078SOL    HW228084   4.540   1.615   4.602  0.5165 -1.5191  1.1504
 7078SOL    HW328085   4.634   1.677   4.501 -0.8069 -0.9726  0.2253
 7078SOL    MW428086   4.592   1.680   4.577  0.8247  0.1862  0.1599
 7079SOL     OW28087   0.741   2.588   4.951 -0.1017 -0.2143 -0.3473
 7079SOL    HW228088   0.677   2.526   4.916  0.3270 -0.0870 -1.3935
 7079SOL    HW328089   0.694   2.671   4.956 -0.5632 -0.5133  0.6947
 7079SOL    MW428090   0.726   2.591   4.947 -0.3441  0.2011 -0.9430
 7080SOL     OW28091   6.337   1.356   4.611 -0.3045 -0.3902  0.5124
 7080SOL    HW228092   6.386   1.291   4.561  0.6961  0.2715  0.5922
 7080SOL    HW328093   6.286   1.305   4.674  1.7461 -1.0578  1.7227
 7080SOL    MW428094   6.337   1.341   4.613 -0.1121 -0.1500 -0.3369
 7081SOL     OW28095   6.250   1.627   0.766 -0.2160 -0.1342  0.8108
 7081SOL    HW228096   6.178   1.679   0.804 -0.4918  0.0721  0.0180
 7081SOL    HW328097   6.240   1.638   0.672 -0.2003 -1.5380  0.6338
 7081SOL    MW428098   6.239   1.635   0.759 -0.0587 -0.4120 -0.4568
 7082SOL     OW28099   3.695   4.152   3.744 -0.1002 -0.5189 -0.1079
 7082SOL    HW228100   3.602   4.163   3.764  0.2214 -1.3819  2.1109
 7082SOL    HW328101   3.707   4.058   3.733  0.5786 -0.4562  0.0139
 7082SOL    MW428102   3.684   4.141   3.745 -0.7731 -0.1302 -0.1132
 7083SOL     OW28103   4.173   2.330   1.278 -0.1957 -0.1752  0.3554
 7083SOL    HW228104   4.123   2.410   1.260  0.5408  0.5813  1.5302
 7083SOL    HW328105   4.250   2.338   1.223  0.3572  0.4277  1.1930
 7083SOL    MW428106   4.176   2.342   1.269 -0.2008  0.0735  0.3958
 7084SOL     OW28107   4.769   3.470   1.698 -0.0203  0.0048 -0.0887
 7084SOL    HW228108   4.837   3.509   1.753 -0.1385 -1.9839  1.6029
 7084SOL    HW328109   4.768   3.524   1.620  2.5003  0.9877  0.4407
 7084SOL    MW428110   4.778   3.482   1.695  0.7391  0.3617 -0.5684
 7085SOL     OW28111   0.918   3.897   0.451 -0.5214 -0.5338 -0.5444
 7085SOL    HW228112   0.945   3.874   0.362  0.2576  0.8950 -0.7025
 7085SOL    HW328113   0.976   3.969   0.476 -0.4834 -1.1400  1.2611
 7085SOL    MW428114   0.929   3.903   0.443 -0.1193  0.4976  0.0449
 7086SOL     OW28115   5.032   0.833   4.570  0.4575 -0.3533  0.0468
 7086SOL    HW228116   5.075   0.748   4.558  1.5850 -0.0767  1.7538
 7086SOL    HW328117   5.100   0.889   4.608 -0.8709  0.6939  0.9780
 7086SOL    MW428118   5.047   0.829   4.573 -0.5932 -0.5829  0.0860
 7087SOL     OW28119   3.162   4.755   3.518 -0.2688  0.0778  0.3710
 7087SOL    HW228120   3.225   4.815   3.479  0.5354 -1.5857 -0.9852
 7087SOL    HW328121   3.211   4.707   3.584  0.3467 -2.1650 -1.5988
 7087SOL    MW428122   3.177   4.757   3.522  0.0556  0.0139  0.0117
 7088SOL     OW28123   2.648   5.588   6.261 -0.3295 -1.3152 -0.0738
 7088SOL    HW228124   2.704   5.626   6.194 -1.2534  0.3890  0.0768
 7088SOL    HW328125   2.565   5.571   6.217 -0.7215 -0.8352  0.4632
 7088SOL    MW428126   2.645   5.590   6.247  0.1578 -0.5828 -0.2956
 7089SOL     OW28127   3.290   4.726   3.202 -0.4008  0.0433  0.0590
 7089SOL    HW228128   3.212   4.676   3.226 -0.1228  0.0745  1.0877
 7089SOL    HW328129   3.255   4.807   3.164 -0.9740  1.0908  2.5752
 7089SOL    MW428130   3.275   4.730   3.200  0.7376 -0.5948 -0.4414
 7090SOL     OW28131   1.974   0.714   2.032  0.1781 -0.2405 -0.1354
 7090SOL    HW228132   1.971   0.645   1.966  1.8711  0.9755 -1.6159
 7090SOL    HW328133   1.885   0.749   2.035  0.1372 -0.0753 -2.1151
 7090SOL    MW428134   1.962   0.710   2.023 -0.1901  0.4177 -0.0021
 7091SOL     OW28135   1.883   5.370   2.293  0.2963  0.1346 -0.1063
 7091SOL    HW228136   1.802   5.335   2.255 -0.3465  0.4179  0.9761
 7091SOL    HW328137   1.867   5.464   2.302  1.9312  0.7833 -2.7775
 7091SOL    MW428138   1.870   5.378   2.289 -0.3680  0.0823 -0.3000
 7092SOL     OW28139   1.658   0.014   5.988 -0.5124 -0.4621 -0.0294
 7092SOL    HW228140   1.657   0.109   5.989  1.8153 -0.2993 -2.5296
 7092SOL    HW328141   1.685  -0.011   6.076  0.3065  1.2672  0.2380
 7092SOL    MW428142   1.661   0.023   6.000 -0.0591 -0.1582  0.2145
 7093SOL     OW28143   5.497   3.907   0.653  0.0119  0.7304  0.1572
 7093SOL    HW228144   5.448   3.989   0.660 -0.9056  0.2656 -0.5704
 7093SOL    HW328145   5.472   3.857   0.730 -0.3036  0.6874  0.0288
 7093SOL    MW428146   5.487   3.911   0.664  0.5991 -0.1199  0.1878
 7094SOL     OW28147   3.860   3.187   2.404 -0.0205 -0.4300  0.1266
 7094SOL    HW228148   3.938   3.139   2.375 -0.0621 -1.4012  1.5490
 7094SOL    HW328149   3.856   3.263   2.345  1.0273 -1.2513 -1.0560
 7094SOL    MW428150   3.870   3.191   2.393 -0.3837  0.5018  0.1531
 7095SOL     OW28151   4.664   5.023   3.663 -0.1341  0.2624  0.2235
 7095SOL    HW228152   4.589   5.035   3.721 -0.2223  2.2352 -0.2238
 7095SOL    HW328153   4.737   5.062   3.711 -0.0558  1.2298 -0.6571
 7095SOL    MW428154   4.664   5.030   3.677  0.0739  0.4224  0.0405
 7096SOL     OW28155   4.620   5.162   0.016  0.1634 -0.1642 -0.3069
 7096SOL    HW228156   4.583   5.164  -0.072 -0.3995  0.2630 -0.0637
 7096SOL    HW328157   4.696   5.220   0.011 -1.3274  1.9438  0.1129
 7096SOL    MW428158   4.626   5.170   0.004  0.3026 -0.3595  0.0594
 7097SOL     OW28159   0.415   6.164   0.379  0.3147 -0.4350 -0.2284
 7097SOL    HW228160   0.321   6.158   0.399  0.5105  1.5150  1.6129
 7097SOL    HW328161   0.419   6.161   0.284 -1.9561  2.2205 -0.5328
 7097SOL    MW428162   0.403   6.163   0.369  0.0586  0.2145 -0.3992
 7098SOL     OW28163   5.802   1.069   2.640  0.0984 -0.1738 -0.4628
 7098SOL    HW228164   5.863   1.111   2.579  0.0160 -0.8392 -1.0273
 7098SOL    HW328165   5.796   0.979   2.608 -0.2496 -0.4289  0.3096
 7098SOL    MW428166   5.809   1.063   2.628  0.1861 -0.2499  0.1739
 7099SOL     OW28167   5.090   3.501   6.406  0.0550 -0.2141 -0.2002
 7099SOL    HW228168   5.041   3.575   6.441  0.2693  0.2123 -0.7897
 7099SOL    HW328169   5.040   3.474   6.329 -0.0467 -0.7148  0.0365
 7099SOL    MW428170   5.077   3.507   6.401  0.2353  0.0988  0.4047
 7100SOL     OW28171   1.748   4.825   2.029 -0.6066 -0.7315  0.3840
 7100SOL    HW228172   1.709   4.791   2.109 -0.5978  2.8410  2.0661
 7100SOL    HW328173   1.840   4.840   2.052 -0.0167 -1.7795 -1.1023
 7100SOL    MW428174   1.755   4.822   2.043 -0.0010 -0.6915 -0.3414
 7101SOL     OW28175   4.921   5.033   1.377  0.2372  0.1437  0.4013
 7101SOL    HW228176   4.971   5.081   1.311  0.2025  1.1779  1.1064
 7101SOL    HW328177   4.895   4.952   1.333 -0.3138  1.0787 -1.0555
 7101SOL    MW428178   4.924   5.028   1.362 -0.0843  0.2686  0.3965
 7102SOL     OW28179   4.703   0.946   2.832 -0.0518  0.1279 -0.3358
 7102SOL    HW228180   4.611   0.971   2.832  0.0737  0.8639  2.4896
 7102SOL    HW328181   4.750   1.026   2.854  0.8325 -1.1668  2.9694
 7102SOL    MW428182   4.698   0.960   2.835 -0.7265 -0.5730 -0.0200
 7103SOL     OW28183   2.692   5.486   0.395  0.4614 -0.2659 -0.1567
 7103SOL    HW228184   2.704   5.519   0.306 -0.6030  2.3505  0.5781
 7103SOL    HW328185   2.772   5.508   0.441  0.4094 -0.2264 -0.0842
 7103SOL    MW428186   2.704   5.493   0.389 -0.0346 -0.3275 -0.0241
 7104SOL     OW28187   2.598   4.719   3.000 -0.1943  0.1804  0.8931
 7104SOL    HW228188   2.555   4.677   3.074 -0.6717  2.2247  1.8338
 7104SOL    HW328189   2.594   4.813   3.019 -0.0480  0.7695 -1.5538
 7104SOL    MW428190   2.591   4.726   3.012  0.2639  0.4971 -0.4075
 7105SOL     OW28191   6.248   5.761   2.319 -0.1681 -0.3271  0.0649
 7105SOL    HW228192   6.319   5.704   2.289  1.8468  1.8810  0.3604
 7105SOL    HW328193   6.205   5.711   2.388 -0.1095 -2.4611 -1.3350
 7105SOL    MW428194   6.252   5.747   2.324  0.3156  0.5684 -0.6763
 7106SOL     OW28195   4.459   6.163   1.862 -0.6030  0.1255 -0.0187
 7106SOL    HW228196   4.435   6.112   1.785  0.0649 -3.0382  1.6965
 7106SOL    HW328197   4.378   6.170   1.913 -0.8693  1.5490 -0.5891
 7106SOL    MW428198   4.445   6.157   1.859 -0.2246 -1.1228 -0.2226
 7107SOL     OW28199   2.065   0.397   3.509  0.1191 -0.7319 -0.0401
 7107SOL    HW228200   2.098   0.484   3.532  0.3221 -0.4552 -1.2597
 7107SOL    HW328201   1.977   0.394   3.547  0.4158 -0.3114  0.6975
 7107SOL    MW428202   2.058   0.408   3.517 -0.0561 -0.3095  0.6150
 7108SOL     OW28203   3.614   0.723   2.711 -0.0810 -0.5645 -0.0290
 7108SOL    HW228204   3.705   0.753   2.713 -0.6127  1.2592 -0.9521
 7108SOL    HW328205   3.562   0.803   2.713 -1.6549 -1.5184 -0.5885
 7108SOL    MW428206   3.619   0.738   2.711 -0.1082 -0.1320 -0.0581
 7109SOL     OW28207   2.001   0.979   5.971  0.1230  0.0492 -0.4421
 7109SOL    HW228208   1.971   0.897   5.930 -0.7117  0.9615 -1.7375
 7109SOL    HW328209   2.085   0.956   6.009  0.1541 -1.3048 -1.2303
 7109SOL    MW428210   2.008   0.965   5.970  0.1644  0.2641  0.0775
 7110SOL     OW28211   5.252   3.152   5.706  0.0500  0.5599 -0.0105
 7110SOL    HW228212   5.347   3.152   5.696  0.3070 -1.6741  1.5600
 7110SOL    HW328213   5.218   3.176   5.620  2.0231  0.3869 -0.8883
 7110SOL    MW428214   5.260   3.155   5.693  0.3631 -0.2579  0.4045
 7111SOL     OW28215   3.568   1.498   6.227 -0.6075  0.0349  0.0168
 7111SOL    HW228216   3.530   1.489   6.315  0.5305 -0.2590  0.4908
 7111SOL    HW328217   3.517   1.568   6.186 -1.5942 -0.2868  0.6611
 7111SOL    MW428218   3.556   1.506   6.233  0.5996  0.0405  0.1040
 7112SOL     OW28219   4.815   0.941   3.610 -0.0541  0.4031  0.8617
 7112SOL    HW228220   4.898   0.899   3.588 -0.0647 -0.6724  2.6958
 7112SOL    HW328221   4.841   1.025   3.650  0.0645  0.7943 -0.0040
 7112SOL    MW428222   4.829   0.947   3.612  0.1187 -0.2850 -0.1356
 7113SOL     OW28223   0.261   2.944   3.465 -0.1831  0.2734 -0.1265
 7113SOL    HW228224   0.244   2.852   3.444 -1.7992 -0.1467  2.5498
 7113SOL    HW328225   0.354   2.947   3.486 -0.4890 -1.2132  1.6087
 7113SOL    MW428226   0.271   2.932   3.465  0.0839  0.1196 -0.2221
 7114SOL     OW28227   4.753   0.741   5.394  0.2395 -0.0003  0.4012
 7114SOL    HW228228   4.815   0.684   5.348  0.5393 -0.7393  1.6639
 7114SOL    HW328229   4.764   0.827   5.353 -1.2733 -1.0753 -2.6134
 7114SOL    MW428230   4.762   0.745   5.382  0.1323 -0.5319  0.2234
 7115SOL     OW28231   4.144   2.630   5.177  0.4114 -0.0120  0.2376
 7115SOL    HW228232   4.152   2.689   5.102  0.3126  0.1228  0.3328
 7115SOL    HW328233   4.094   2.680   5.242  0.5179 -0.1191  0.4023
 7115SOL    MW428234   4.138   2.644   5.175  0.3269 -0.2499 -0.2593
 7116SOL     OW28235   4.991   4.853   2.040 -0.1704  0.0290  0.5952
 7116SOL    HW228236   5.035   4.904   1.973 -1.5278 -0.0263 -0.3860
 7116SOL    HW328237   4.899   4.880   2.035 -0.6343 -1.3164  1.1662
 7116SOL    MW428238   4.985   4.863   2.031 -0.4880  0.0214  0.4831
 7117SOL     OW28239   3.334   5.546   3.003  0.0623 -0.0848  0.5262
 7117SOL    HW228240   3.361   5.467   2.956 -0.4939 -0.3918  0.6990
 7117SOL    HW328241   3.323   5.516   3.094  0.2502  0.2892  0.6718
 7117SOL    MW428242   3.336   5.531   3.009  0.0555 -0.6504  0.3443
 7118SOL     OW28243   1.129   3.674   2.689  0.2591  0.0588 -0.3891
 7118SOL    HW228244   1.125   3.720   2.605 -0.4922  0.7755  0.0195
 7118SOL    HW328245   1.215   3.631   2.689  0.5276  0.5693 -1.2555
 7118SOL    MW428246   1.140   3.675   2.678  0.5789  0.1999 -0.0251
 7119SOL     OW28247   2.746   0.852   0.402 -0.1329 -0.1970 -0.1856
 7119SOL    HW228248   2.660   0.877   0.370 -0.5320 -0.6292  0.5235
 7119SOL    HW328249   2.802   0.928   0.384 -0.4480 -0.2360 -1.4296
 7119SOL    MW428250   2.742   0.865   0.396  0.4425 -0.0120 -0.2923
 7120SOL     OW28251   1.786   2.927   3.281 -0.4275 -0.2743  0.2539
 7120SOL    HW228252   1.785   2.956   3.190  2.1218 -0.4739  0.0926
 7120SOL    HW328253   1.709   2.968   3.320  0.1941  2.5600 -1.2092
 7120SOL    MW428254   1.776   2.936   3.274 -0.6348 -0.6911  0.4771
 7121SOL     OW28255   6.177   0.972   5.029  0.2188  0.7778 -0.4395
 7121SOL    HW228256   6.182   0.906   5.098  0.6665  0.3727 -0.8555
 7121SOL    HW328257   6.089   0.963   4.993 -0.1515  1.2481  0.3221
 7121SOL    MW428258   6.166   0.962   5.033 -0.5210  0.3064  0.0380
 7122SOL     OW28259   4.975   1.024   3.948  0.9630  0.4881 -0.4188
 7122SOL    HW228260   4.953   1.117   3.940  1.4041  0.6535  0.2791
 7122SOL    HW328261   5.070   1.021   3.942  0.8667 -0.1605 -2.6853
 7122SOL    MW428262   4.984   1.036   3.946  0.2701 -0.1863 -0.2557
 7123SOL     OW28263   0.245   3.081   5.242  0.0721  0.0846 -0.2463
 7123SOL    HW228264   0.211   3.130   5.317 -2.0273 -1.0712 -0.3518
 7123SOL    HW328265   0.255   2.991   5.276  3.8057  0.4180 -0.0460
 7123SOL    MW428266   0.242   3.075   5.257 -0.4636 -0.3035 -0.0708
 7124SOL     OW28267   0.197   0.286   6.184 -0.6686 -0.0670  0.1954
 7124SOL    HW228268   0.193   0.378   6.161 -1.0677 -0.1973 -0.2610
 7124SOL    HW328269   0.224   0.285   6.276  0.3721  0.4739 -0.0899
 7124SOL    MW428270   0.200   0.298   6.193  0.0718 -0.1704 -0.0004
 7125SOL     OW28271   4.531   3.068   2.956 -0.6286  0.0395  0.0459
 7125SOL    HW228272   4.479   2.989   2.971 -0.6427  0.1034  0.3453
 7125SOL    HW328273   4.595   3.043   2.890  0.3704 -0.6670  1.2531
 7125SOL    MW428274   4.532   3.054   2.949 -0.9892 -0.2817 -0.5195
 7126SOL     OW28275   0.403   0.222   5.974 -0.4793 -0.3804  0.2681
 7126SOL    HW228276   0.357   0.232   6.057 -0.4470 -0.2347  0.2681
 7126SOL    HW328277   0.451   0.139   5.983  1.4670  0.7990  1.3253
 7126SOL    MW428278   0.403   0.212   5.986  0.3374 -0.1325 -0.0863
 7127SOL     OW28279   4.634   1.694   4.308  0.6433  0.5562  0.2988
 7127SOL    HW228280   4.655   1.715   4.217 -1.0198  0.4668 -0.1470
 7127SOL    HW328281   4.637   1.599   4.313 -0.2506  0.5029  0.0488
 7127SOL    MW428282   4.637   1.684   4.297 -0.6206  0.6456  0.2177
 7128SOL     OW28283   1.403   3.134   1.845  0.5126  0.1534  0.0969
 7128SOL    HW228284   1.482   3.158   1.796  0.7681  1.3384  1.0606
 7128SOL    HW328285   1.353   3.215   1.852 -1.7053 -0.9147 -2.0282
 7128SOL    MW428286   1.407   3.147   1.839  0.5013  0.0332 -0.3735
 7129SOL     OW28287   0.767   2.610   4.253  0.3821 -0.2539  0.2503
 7129SOL    HW228288   0.797   2.523   4.226 -0.5796 -0.9012  1.1849
 7129SOL    HW328289   0.822   2.632   4.329  1.0582  0.2527 -0.3712
 7129SOL    MW428290   0.778   2.601   4.260 -0.0008 -0.4949 -0.1792
 7130SOL     OW28291   3.376   3.069   5.155 -0.0005 -0.3565  0.0290
 7130SOL    HW228292   3.346   3.138   5.096 -0.8679 -0.3357  0.4793
 7130SOL    HW328293   3.470   3.085   5.164  0.0670 -0.0765 -0.9600
 7130SOL    MW428294   3.384   3.080   5.148 -0.2081 -0.2343 -0.1094
 7131SOL     OW28295   1.066   6.101   6.367 -0.3869  0.6013 -0.0253
 7131SOL    HW228296   1.105   6.078   6.451  0.0077  2.4200  0.3444
 7131SOL    HW328297   1.007   6.029   6.346  0.9842 -0.8216  0.8349
 7131SOL    MW428298   1.063   6.089   6.375 -0.2002 -0.1305 -0.2241
 7132SOL     OW28299   0.121   6.130   4.509 -0.0447 -0.1583  0.5631
 7132SOL    HW228300   0.177   6.207   4.519 -0.6892  0.3933  0.0430
 7132SOL    HW328301   0.102   6.127   4.415 -0.4149 -0.6684  0.6523
 7132SOL    MW428302   0.126   6.140   4.498 -0.0510  0.8521  0.2288
 7133SOL     OW28303   2.062   5.071   1.927  0.2925  0.4407  0.4462
 7133SOL    HW228304   2.076   5.136   1.995 -0.9737 -0.6380  1.8061
 7133SOL    HW328305   1.977   5.094   1.889  1.4563  1.6828 -1.6040
 7133SOL    MW428306   2.053   5.083   1.931 -0.6469  0.1731 -0.2692
 7134SOL     OW28307   1.744   5.096   4.625  0.2105 -0.2376  0.5648
 7134SOL    HW228308   1.729   5.096   4.720  1.4653 -0.3234  0.7824
 7134SOL    HW328309   1.810   5.164   4.611  0.0867 -0.2681 -0.2376
 7134SOL    MW428310   1.751   5.105   4.636  0.1426 -0.0312 -0.1493
 7135SOL     OW28311   4.237   5.772   1.316 -0.3146 -0.3838  0.5593
 7135SOL    HW228312   4.291   5.846   1.291  0.4160 -1.0433  0.1402
 7135SOL    HW328313   4.246   5.710   1.244 -1.8129 -0.4264  0.3761
 7135SOL    MW428314   4.245   5.773   1.303  0.2424 -0.3253 -0.2152
 7136SOL     OW28315   5.544   5.360   5.338  0.4517  0.3471 -0.3382
 7136SOL    HW228316   5.599   5.436   5.321  1.5719 -0.6347 -1.3300
 7136SOL    HW328317   5.485   5.387   5.408  2.0945  1.4932  0.6548
 7136SOL    MW428318   5.544   5.373   5.345 -0.2989 -0.0935  0.2706
 7137SOL     OW28319   0.319   4.059   2.673  0.3888 -0.1562 -0.2565
 7137SOL    HW228320   0.249   3.997   2.657 -1.1010  1.6893 -1.3329
 7137SOL    HW328321   0.318   4.117   2.596  0.8913  1.8965  1.1811
 7137SOL    MW428322   0.310   4.059   2.661 -0.0909  0.1774  0.8911
 7138SOL     OW28323   3.640   3.811   2.286  0.1427 -0.5296  0.2601
 7138SOL    HW228324   3.727   3.817   2.326  0.3781  2.1151 -0.4421
 7138SOL    HW328325   3.613   3.902   2.275 -1.6423 -1.2412 -1.9005
 7138SOL    MW428326   3.647   3.824   2.290 -0.5814 -0.1246  0.0593
 7139SOL     OW28327   6.418   3.407   2.154 -0.1868 -0.3539 -0.0199
 7139SOL    HW228328   6.405   3.427   2.247 -2.6894  1.7641 -0.7308
 7139SOL    HW328329   6.440   3.491   2.114 -1.3597 -0.7821 -1.6614
 7139SOL    MW428330   6.419   3.421   2.161  0.0098  0.6991  0.0034
 7140SOL     OW28331   0.911   1.763   4.884 -0.2710  0.3732 -0.1222
 7140SOL    HW228332   0.825   1.786   4.849 -0.5545 -1.1703 -0.5159
 7140SOL    HW328333   0.962   1.844   4.877 -1.5547  1.2076 -0.2564
 7140SOL    MW428334   0.906   1.777   4.879  0.0731 -0.1296  0.1548
 7141SOL     OW28335   0.043   4.731   5.664  0.3366  0.0154 -0.2361
 7141SOL    HW228336   0.091   4.731   5.581  0.5378  1.4476 -0.1424
 7141SOL    HW328337   0.039   4.823   5.690 -0.8036 -0.2747  0.7294
 7141SOL    MW428338   0.049   4.743   5.656 -0.1867 -0.0161 -0.0664
 7142SOL     OW28339   6.137   5.408   2.673 -0.0883  0.0790  0.0955
 7142SOL    HW228340   6.199   5.365   2.732  1.1602 -0.6411 -1.6541
 7142SOL    HW328341   6.057   5.356   2.682 -0.5507  1.0547  2.4199
 7142SOL    MW428342   6.135   5.395   2.682 -0.7206  0.4319 -0.2966
 7143SOL     OW28343   5.722   2.235   3.996 -0.2027 -0.3165  0.0751
 7143SOL    HW228344   5.673   2.186   4.062  0.1521  0.1781  0.7156
 7143SOL    HW328345   5.770   2.168   3.947  0.6892 -0.5859  1.2861
 7143SOL    MW428346   5.722   2.219   3.998 -0.5403  0.0854 -0.5264
 7144SOL     OW28347   5.954   6.026   5.126 -1.1022  0.0703 -0.7633
 7144SOL    HW228348   5.935   6.031   5.032 -2.3194 -0.0396 -0.5411
 7144SOL    HW328349   5.896   6.091   5.166 -0.3846  0.3193 -0.1083
 7144SOL    MW428350   5.944   6.035   5.119 -0.5303  0.5969  0.0320
 7145SOL     OW28351   1.666   2.494   5.376  0.2224  0.3672 -0.0855
 7145SOL    HW228352   1.672   2.430   5.447 -0.8051  1.4651  1.0491
 7145SOL    HW328353   1.624   2.447   5.304  1.6757 -0.8876 -0.1653
 7145SOL    MW428354   1.661   2.479   5.376  0.5051  0.3387  0.5831
 7146SOL     OW28355   3.949   3.760   1.156  0.0032  0.6754  0.3744
 7146SOL    HW228356   3.913   3.688   1.103  1.4754  0.4131 -0.3132
 7146SOL    HW328357   3.994   3.716   1.228 -0.4614  0.9854  0.8665
 7146SOL    MW428358   3.950   3.745   1.159  0.4733  0.5211  0.2304
 7147SOL     OW28359   0.841   0.763   4.249  0.2684  0.0391  0.0931
 7147SOL    HW228360   0.858   0.670   4.264  1.4442  0.1937 -0.1326
 7147SOL    HW328361   0.862   0.776   4.156 -0.9463  0.3172 -0.1575
 7147SOL    MW428362   0.846   0.753   4.238 -0.1558  0.6335  0.1048
 7148SOL     OW28363   3.043   1.797   5.291  0.3869 -0.7880  0.5184
 7148SOL    HW228364   3.073   1.888   5.293  2.5219 -1.4579  0.5691
 7148SOL    HW328365   2.997   1.785   5.374 -0.9336  0.5379  0.0209
 7148SOL    MW428366   3.041   1.807   5.302 -0.0109  0.3620 -0.1298
 7149SOL     OW28367   2.685   1.416   1.146 -0.5842 -0.6473  0.3550
 7149SOL    HW228368   2.618   1.484   1.147  0.4958  0.4405  1.3382
 7149SOL    HW328369   2.691   1.387   1.237  1.2216  0.2642  0.5734
 7149SOL    MW428370   2.677   1.421   1.158  0.4370 -0.0598 -0.2922
 7150SOL     OW28371   1.093   0.714   1.596 -0.0974 -0.0069 -0.6514
 7150SOL    HW228372   1.025   0.648   1.603  0.2841 -0.3850 -0.4821
 7150SOL    HW328373   1.099   0.733   1.502 -1.4246  1.0807 -0.5423
 7150SOL    MW428374   1.085   0.708   1.584  0.0886 -0.1324 -0.2747
 7151SOL     OW28375   5.404   6.338   0.652 -0.1582  0.5659 -0.3603
 7151SOL    HW228376   5.378   6.280   0.581 -1.5342 -1.0744  1.3846
 7151SOL    HW328377   5.362   6.422   0.631 -1.3381 -0.1594 -0.9985
 7151SOL    MW428378   5.395   6.342   0.640  0.1490 -0.2913 -0.2567
 7152SOL     OW28379   5.968   4.813   3.617  0.3846  0.5352  0.0052
 7152SOL    HW228380   5.897   4.877   3.606 -0.3576 -0.2604  0.0592
 7152SOL    HW328381   5.943   4.740   3.560  0.5696 -0.2516  0.9136
 7152SOL    MW428382   5.955   4.812   3.608 -0.2395  0.4486  0.5712
 7153SOL     OW28383   0.135   2.215   5.602 -0.1912  0.8195  0.0792
 7153SOL    HW228384   0.192   2.233   5.527  0.0572 -1.3015 -0.2834
 7153SOL    HW328385   0.192   2.176   5.668 -0.9830 -0.2802  0.1490
 7153SOL    MW428386   0.150   2.212   5.601 -0.1299  0.1618 -0.1294
 7154SOL     OW28387   1.332   3.473   2.990  0.0527  0.0140 -0.1125
 7154SOL    HW228388   1.401   3.454   3.053 -1.2444 -0.1914  1.3040
 7154SOL    HW328389   1.264   3.409   3.008 -1.0207  0.9611 -0.6558
 7154SOL    MW428390   1.332   3.462   3.001 -0.4736 -0.2771  0.2557
 7155SOL     OW28391   4.782   5.343   5.118 -0.1171 -0.0300 -0.3146
 7155SOL    HW228392   4.828   5.383   5.044  0.9127  1.3806  1.0074
 7155SOL    HW328393   4.848   5.340   5.188 -1.6581  0.8787  1.2616
 7155SOL    MW428394   4.797   5.348   5.117 -0.3385 -0.6357  0.0261
 7156SOL     OW28395   3.677   4.909   5.243  0.5669  0.8170 -0.0878
 7156SOL    HW228396   3.653   4.890   5.334  0.4983  0.2633 -0.2198
 7156SOL    HW328397   3.732   4.988   5.249  0.5542  0.7901  0.4306
 7156SOL    MW428398   3.681   4.917   5.256  0.1703  0.3390  0.4738
 7157SOL     OW28399   5.394   2.641   6.319  0.4803  0.4671  0.2296
 7157SOL    HW228400   5.446   2.711   6.359 -0.6759  1.3251  0.2941
 7157SOL    HW328401   5.421   2.641   6.227  1.8403 -0.2883  0.6106
 7157SOL    MW428402   5.404   2.650   6.312 -0.7749  0.2283 -0.2842
 7158SOL     OW28403   0.970   0.060   4.284 -0.1932  0.0552  0.2899
 7158SOL    HW228404   0.997  -0.013   4.341  2.8096  1.2336  0.6055
 7158SOL    HW328405   0.962   0.022   4.197  0.1963 -0.8749  0.6504
 7158SOL    MW428406   0.973   0.045   4.280  0.0504 -0.0250  0.3183
 7159SOL     OW28407   2.192   0.502   5.494  0.0208 -0.4034  0.4751
 7159SOL    HW228408   2.267   0.554   5.521 -1.3464  1.4531  0.9281
 7159SOL    HW328409   2.206   0.486   5.400  1.4127 -0.9005  0.7512
 7159SOL    MW428410   2.204   0.507   5.485 -0.1161 -0.2646  0.2126
 7160SOL     OW28411   2.004   5.937   5.374 -0.3353  0.0048  0.0010
 7160SOL    HW228412   1.985   6.028   5.395  0.6109  0.0916  0.5735
 7160SOL    HW328413   1.985   5.929   5.281 -1.1798  0.5730  0.1091
 7160SOL    MW428414   1.999   5.948   5.365 -0.2718  0.4816 -0.3882
 7161SOL     OW28415   3.835   2.007   2.047  0.8582 -0.2003  0.2591
 7161SOL    HW228416   3.768   1.939   2.053  0.6468  0.0477  0.8008
 7161SOL    HW328417   3.912   1.968   2.088  1.1878 -0.6462 -0.7568
 7161SOL    MW428418   3.836   1.993   2.053  0.6799 -0.5418  0.0620
 7162SOL     OW28419   0.443   4.024   1.701 -0.0637  0.6133  0.0833
 7162SOL    HW228420   0.535   4.036   1.723 -0.3079 -0.6192  1.9334
 7162SOL    HW328421   0.400   4.103   1.732  0.2894  1.0091 -0.4127
 7162SOL    MW428422   0.449   4.036   1.708  0.0462 -0.7471 -0.0513
 7163SOL     OW28423   5.881   4.610   3.420  0.1394 -0.1273  0.1565
 7163SOL    HW228424   5.826   4.665   3.364 -0.0963 -1.7031 -1.2565
 7163SOL    HW328425   5.856   4.520   3.396  0.3056 -0.8767  2.5615
 7163SOL    MW428426   5.870   4.605   3.409  0.8397  0.1828  0.3509
 7164SOL     OW28427   3.362   3.697   4.729 -0.9917  0.1756 -0.2619
 7164SOL    HW228428   3.399   3.785   4.728 -0.4464 -0.0092 -2.4924
 7164SOL    HW328429   3.332   3.683   4.639  0.5089 -2.5351 -0.4500
 7164SOL    MW428430   3.363   3.707   4.717  0.2505  0.0166  0.0085
 7165SOL     OW28431   0.724   1.246   2.203  0.0232 -0.6658 -0.5666
 7165SOL    HW228432   0.778   1.314   2.162 -0.6525 -0.1857 -0.6733
 7165SOL    HW328433   0.787   1.191   2.251  0.4371  0.9095  0.7738
 7165SOL    MW428434   0.739   1.247   2.204 -0.4663  0.0048 -0.1239
 7166SOL     OW28435   2.716   5.894   5.650  0.3366 -0.1448 -0.6950
 7166SOL    HW228436   2.690   5.802   5.658 -0.0790 -0.0785 -1.1997
 7166SOL    HW328437   2.811   5.891   5.638  0.4755 -0.4409  0.4128
 7166SOL    MW428438   2.725   5.881   5.649 -0.2485  0.2126  0.0095
 7167SOL     OW28439   3.321   5.513   5.771 -0.0737  0.2449 -0.1169
 7167SOL    HW228440   3.318   5.422   5.800  2.2657  0.1833  0.1536
 7167SOL    HW328441   3.252   5.520   5.706 -0.4248 -1.6813 -0.0033
 7167SOL    MW428442   3.312   5.502   5.766  0.2637 -0.2296 -0.2800
 7168SOL     OW28443   2.710   5.256   5.444  0.2010 -0.2020 -0.1168
 7168SOL    HW228444   2.745   5.275   5.531  2.8656 -1.2526 -0.8655
 7168SOL    HW328445   2.733   5.165   5.428 -1.4012 -0.4172 -1.4268
 7168SOL    MW428446   2.718   5.247   5.454 -0.0332 -0.6717  0.3628
 7169SOL     OW28447   2.992   4.183   5.644  0.5010  0.3767  0.7562
 7169SOL    HW228448   3.046   4.129   5.586  0.9444 -0.8582  2.2633
 7169SOL    HW328449   3.005   4.146   5.731 -2.5068  0.2312  1.2648
 7169SOL    MW428450   3.001   4.171   5.648 -0.1241 -0.1854 -0.0725
 7170SOL     OW28451   1.019   5.956   3.316  0.0067 -0.5671  0.3210
 7170SOL    HW228452   0.959   5.977   3.388  1.2742  0.1921  1.1843
 7170SOL    HW328453   0.961   5.944   3.240 -1.2975 -0.6470  1.2817
 7170SOL    MW428454   1.003   5.957   3.316  0.6873 -0.2562 -0.2089
 7171SOL     OW28455   1.078   5.815   2.326 -0.1318 -0.5211  0.1538
 7171SOL    HW228456   1.093   5.722   2.343 -2.0223 -0.6327  1.5270
 7171SOL    HW328457   0.995   5.818   2.279 -0.1970  0.4747  0.3116
 7171SOL    MW428458   1.069   5.803   2.322  0.2954 -0.0951 -0.5341
 7172SOL     OW28459   2.343   1.890   5.909 -0.5330  0.4517 -0.1606
 7172SOL    HW228460   2.329   1.978   5.873 -0.4132  0.6753  0.3231
 7172SOL    HW328461   2.314   1.897   6.000  1.3844  0.5677  0.4927
 7172SOL    MW428462   2.337   1.903   5.916  0.7714  0.0507  0.4262
 7173SOL     OW28463   3.092   4.053   0.152 -0.0423  0.7667 -0.0140
 7173SOL    HW228464   3.097   4.127   0.092  2.0456  0.3058 -0.4876
 7173SOL    HW328465   3.182   4.039   0.181 -0.4609 -1.2180  0.5078
 7173SOL    MW428466   3.104   4.061   0.148 -0.0211 -0.1208 -0.8504
 7174SOL     OW28467   2.927   1.647   0.816 -0.4456 -0.1098 -0.0012
 7174SOL    HW228468   2.969   1.628   0.733 -1.0010  0.5474 -0.4473
 7174SOL    HW328469   2.841   1.606   0.810 -0.6598  0.3200  0.0644
 7174SOL    MW428470   2.921   1.639   0.804 -0.6869 -0.1743  0.0417
 7175SOL     OW28471   5.600   1.304   6.032 -0.2378  0.4108 -0.1632
 7175SOL    HW228472   5.567   1.237   6.092  1.7637 -0.3225  0.2058
 7175SOL    HW328473   5.639   1.370   6.090 -2.1511  1.9522 -0.5220
 7175SOL    MW428474   5.601   1.304   6.048 -0.3802 -0.0994  0.3985
 7176SOL     OW28475   1.693   5.291   0.961 -0.2612  0.3709  0.3745
 7176SOL    HW228476   1.648   5.362   1.007 -1.1074 -0.3939  0.7527
 7176SOL    HW328477   1.669   5.303   0.870 -2.2242 -0.6887  0.6988
 7176SOL    MW428478   1.684   5.302   0.955  0.3092 -0.3230 -0.0104
 7177SOL     OW28479   2.870   1.677   6.061  0.6013  0.7798 -0.8627
 7177SOL    HW228480   2.802   1.744   6.056  0.0511  0.4052  0.9859
 7177SOL    HW328481   2.892   1.671   6.154  0.7122 -1.5157 -0.9815
 7177SOL    MW428482   2.864   1.685   6.073 -0.1451 -0.4502  0.4785
 7178SOL     OW28483   2.246   2.367   1.139 -0.1450 -0.2336 -0.3863
 7178SOL    HW228484   2.324   2.316   1.117 -0.1197 -0.0096 -0.8175
 7178SOL    HW328485   2.195   2.309   1.195  0.7799 -0.0350  0.7084
 7178SOL    MW428486   2.250   2.352   1.143 -0.1536  0.3352  0.2280
 7179SOL     OW28487   4.948   2.141   3.782  0.1274  0.2555  0.2052
 7179SOL    HW228488   5.018   2.095   3.828 -0.2885 -1.2520 -0.5946
 7179SOL    HW328489   4.952   2.107   3.693 -1.0852  0.7816 -0.0667
 7179SOL    MW428490   4.958   2.131   3.776  0.0718  0.1912 -0.2575
 7180SOL     OW28491   3.302   3.961   1.028  0.0423 -0.2526  0.1105
 7180SOL    HW228492   3.309   3.908   1.107 -0.7520 -1.9840 -0.9068
 7180SOL    HW328493   3.210   3.986   1.024  0.3529  0.9921  0.4224
 7180SOL    MW428494   3.291   3.957   1.038  0.3624  0.0646  0.3601
 7181SOL     OW28495   1.981   6.257   3.313  0.0849  0.0699 -0.4978
 7181SOL    HW228496   1.961   6.301   3.231  0.0502  0.7413 -0.1346
 7181SOL    HW328497   1.941   6.312   3.380  2.0027  0.7616  0.1563
 7181SOL    MW428498   1.973   6.270   3.311 -0.2849  0.5819 -0.2388
 7182SOL     OW28499   2.750   1.534   3.826  0.3845 -0.7366 -0.5243
 7182SOL    HW228500   2.756   1.571   3.914 -1.1710  2.0930 -1.4462
 7182SOL    HW328501   2.739   1.440   3.839 -2.6915 -0.1470  2.4933
 7182SOL    MW428502   2.750   1.527   3.839 -0.3083 -0.2932 -0.1232
 7183SOL     OW28503   3.895   1.466   5.931 -0.4014  0.5137  0.5767
 7183SOL    HW228504   3.828   1.426   5.987  0.5240 -0.7627  0.8151
 7183SOL    HW328505   3.846   1.522   5.872 -1.6250  0.1280  1.1857
 7183SOL    MW428506   3.880   1.468   5.930  0.0168  0.0910  0.7427
 7184SOL     OW28507   4.031   4.680   1.222 -0.2744  0.3930  0.0720
 7184SOL    HW228508   4.066   4.702   1.308 -1.0638  0.0389  0.4992
 7184SOL    HW328509   4.010   4.764   1.181 -1.6217  0.5263  0.9764
 7184SOL    MW428510   4.033   4.694   1.228 -0.1186  0.3484  0.2126
 7185SOL     OW28511   3.565   3.726   2.651 -0.0594  0.1428 -0.1646
 7185SOL    HW228512   3.602   3.807   2.615 -0.1984  0.9431  1.3776
 7185SOL    HW328513   3.563   3.665   2.578 -1.3777  2.0145 -1.7885
 7185SOL    MW428514   3.569   3.729   2.637 -0.2300 -0.3853 -0.1684
 7186SOL     OW28515   1.388   1.636   0.530 -0.1126  0.6719 -0.5454
 7186SOL    HW228516   1.437   1.647   0.448 -0.6846  1.9901 -0.7288
 7186SOL    HW328517   1.304   1.679   0.514 -0.0636  1.3531  0.8754
 7186SOL    MW428518   1.384   1.643   0.517  0.0942 -0.0240  0.4708
 7187SOL     OW28519   6.139   1.673   5.606  0.1323  0.9321  0.3326
 7187SOL    HW228520   6.078   1.676   5.680  0.5822 -0.1827  0.7784
 7187SOL    HW328521   6.225   1.662   5.647  0.3533  0.0306 -0.3464
 7187SOL    MW428522   6.142   1.672   5.622  0.4989 -0.0262 -0.1683
 7188SOL     OW28523   5.328   4.475   6.229 -0.5457  0.2884 -0.0216
 7188SOL    HW228524   5.244   4.504   6.193 -0.5577 -0.4167 -0.5941
 7188SOL    HW328525   5.310   4.388   6.264 -0.1697  0.3481  0.3297
 7188SOL    MW428526   5.315   4.467   6.229 -0.1848  0.8182  0.1196
 7189SOL     OW28527   0.803   0.745   0.029  0.1329  0.1602 -0.0935
 7189SOL    HW228528   0.755   0.768   0.108 -0.9716 -2.6457  0.1522
 7189SOL    HW328529   0.893   0.729   0.059 -0.2373 -0.7038  0.5786
 7189SOL    MW428530   0.809   0.746   0.044  0.0450 -0.7288 -0.2134
 7190SOL     OW28531   1.552   6.199   1.818  0.0962  0.1410  0.0931
 7190SOL    HW228532   1.583   6.280   1.777  0.5375 -0.6447 -1.1849
 7190SOL    HW328533   1.612   6.132   1.785 -1.2884 -0.9712 -0.2122
 7190SOL    MW428534   1.564   6.201   1.809  0.0842  0.0434  0.6033
 7191SOL     OW28535   2.773   0.712   4.385  0.4394  0.3218  0.3149
 7191SOL    HW228536   2.723   0.652   4.328  0.2978  0.5058  0.2441
 7191SOL    HW328537   2.707   0.773   4.418  0.5997  0.4940  0.3143
 7191SOL    MW428538   2.758   0.712   4.382 -0.1309  0.2788  0.1130
 7192SOL     OW28539   3.141   1.918   3.502 -0.1416 -0.0330 -0.5548
 7192SOL    HW228540   3.071   1.982   3.490 -0.8698 -0.5979  0.4617
 7192SOL    HW328541   3.189   1.949   3.579  0.9850  0.5511 -1.4611
 7192SOL    MW428542   3.138   1.931   3.510  0.1500  0.6639 -0.2911
 7193SOL     OW28543   2.381   6.355   0.992  0.1511 -0.3213 -0.4845
 7193SOL    HW228544   2.421   6.442   0.996  0.0131 -0.2155 -1.1826
 7193SOL    HW328545   2.304   6.366   0.936 -0.0619 -0.8188 -0.2970
 7193SOL    MW428546   2.376   6.368   0.985 -0.0169 -0.0971  0.1172
 7194SOL     OW28547   0.778   5.413   3.623  0.1209 -0.2542 -0.2236
 7194SOL    HW228548   0.835   5.390   3.550 -0.6846  0.6604 -1.1541
 7194SOL    HW328549   0.770   5.508   3.620 -1.6592 -0.3661 -0.2796
 7194SOL    MW428550   0.784   5.422   3.613  0.3751 -0.6983 -0.3036
 7195SOL     OW28551   2.286   0.980   4.730 -0.0234  0.0843 -0.2080
 7195SOL    HW228552   2.344   0.905   4.723 -0.6966 -0.3112 -2.1227
 7195SOL    HW328553   2.203   0.944   4.761  0.0104  0.2491  0.0808
 7195SOL    MW428554   2.283   0.965   4.733  0.2789  0.1470  0.0635
 7196SOL     OW28555   1.106   2.996   0.489  0.1310 -0.3769  0.1516
 7196SOL    HW228556   1.086   3.089   0.482 -0.2926 -0.4174  0.7994
 7196SOL    HW328557   1.105   2.978   0.583 -1.5499 -1.4112 -0.0281
 7196SOL    MW428558   1.103   3.006   0.500 -0.1096  0.0044 -0.4924
 7197SOL     OW28559   4.490   5.713   5.471 -0.0751  0.0122 -0.1728
 7197SOL    HW228560   4.431   5.746   5.538  0.7129 -0.6248  0.8575
 7197SOL    HW328561   4.555   5.782   5.459 -0.8471  0.6008 -1.1150
 7197SOL    MW428562   4.491   5.726   5.478 -0.0885 -0.5002 -0.1494
 7198SOL     OW28563   4.795   3.666   4.095 -0.0462 -0.5246  0.5613
 7198SOL    HW228564   4.708   3.668   4.055  0.3610  2.4313 -0.4702
 7198SOL    HW328565   4.780   3.695   4.185 -0.0785  1.2884  0.0243
 7198SOL    MW428566   4.781   3.670   4.102 -0.4860  0.4795  0.4093
 7199SOL     OW28567   0.099   5.271   3.717 -0.1539 -0.4645 -0.2447
 7199SOL    HW228568   0.141   5.264   3.802 -0.9337 -1.4697  0.0841
 7199SOL    HW328569   0.156   5.223   3.658 -0.0013 -0.4167 -0.1362
 7199SOL    MW428570   0.112   5.264   3.720 -0.1798  0.0102 -0.8197
 7200SOL     OW28571   0.631   2.953   1.952 -0.1488  0.4648  0.3045
 7200SOL    HW228572   0.636   2.864   1.918  1.0508  0.4953  0.3517
 7200SOL    HW328573   0.723   2.980   1.963 -0.4596  2.0149 -0.5351
 7200SOL    MW428574   0.644   2.945   1.949  0.2714  0.7709  0.1275
 7201SOL     OW28575   0.129   1.657   0.533  0.1218 -0.1479  0.2413
 7201SOL    HW228576   0.114   1.685   0.623 -1.2126  0.6037 -0.1879
 7201SOL    HW328577   0.223   1.666   0.520  0.4120 -0.7767  1.7104
 7201SOL    MW428578   0.139   1.662   0.543 -0.3373  0.1572 -0.1806
 7202SOL     OW28579   1.935   3.045   3.756 -0.1319 -0.0612  0.1089
 7202SOL    HW228580   1.881   3.124   3.765  0.4994  0.2075  1.8106
 7202SOL    HW328581   2.017   3.076   3.717  0.1303  0.1434  0.8113
 7202SOL    MW428582   1.939   3.059   3.752  0.1438 -0.0713 -0.3035
 7203SOL     OW28583   6.377   5.329   4.212 -0.0061  0.3551 -0.4431
 7203SOL    HW228584   6.385   5.236   4.233 -1.7908  0.2502 -0.0599
 7203SOL    HW328585   6.419   5.338   4.126  1.3875 -0.5179  0.1135
 7203SOL    MW428586   6.383   5.318   4.203  0.0686  0.7346  0.4378
 7204SOL     OW28587   6.346   4.030   0.754  0.0408  0.1639 -0.2099
 7204SOL    HW228588   6.276   4.088   0.725 -0.3354 -0.4671 -0.5834
 7204SOL    HW328589   6.425   4.067   0.713 -0.3153 -0.0537 -1.1273
 7204SOL    MW428590   6.347   4.043   0.745 -0.0894 -0.0073  0.0420
 7205SOL     OW28591   5.565   3.456   2.374 -0.2690  0.5817 -0.1558
 7205SOL    HW228592   5.635   3.493   2.427  0.5235 -0.0924 -0.7041
 7205SOL    HW328593   5.489   3.510   2.393  0.8410  2.5336 -0.9399
 7205SOL    MW428594   5.564   3.468   2.383 -0.2644  0.4429  0.7359
 7206SOL     OW28595   3.162   6.043   4.888  0.1886 -0.6009  0.0776
 7206SOL    HW228596   3.159   6.076   4.978  0.1907 -0.9061  0.1893
 7206SOL    HW328597   3.072   6.020   4.867 -0.0582  0.8140 -0.5039
 7206SOL    MW428598   3.150   6.044   4.897 -0.2043  0.2198 -0.0151
 7207SOL     OW28599   4.519   4.852   0.147 -0.0057  0.5043 -0.3068
 7207SOL    HW228600   4.586   4.896   0.095  0.7714 -0.8487 -0.5163
 7207SOL    HW328601   4.436   4.885   0.114  0.4569 -0.4216 -2.5529
 7207SOL    MW428602   4.517   4.862   0.136 -0.0844 -0.1420  0.5140
 7208SOL     OW28603   4.219   0.251   0.400 -0.2290  0.2821 -0.4372
 7208SOL    HW228604   4.218   0.234   0.305 -2.5565  0.4660 -0.4999
 7208SOL    HW328605   4.306   0.223   0.428 -0.4628 -2.5929 -2.1484
 7208SOL    MW428606   4.230   0.245   0.391 -0.8645  0.2025 -0.1777
 7209SOL     OW28607   4.229   4.063   5.051 -0.0381  0.0293 -0.3955
 7209SOL    HW228608   4.303   4.011   5.080  0.7811  0.4133 -1.7085
 7209SOL    HW328609   4.177   4.004   4.997  1.1693  0.6416 -2.3230
 7209SOL    MW428610   4.232   4.049   5.048 -0.0017  0.3303 -0.3486
 7210SOL     OW28611   6.159   6.372   5.626 -0.2886  0.2206 -0.1715
 7210SOL    HW228612   6.218   6.379   5.701 -1.6022 -1.8369  1.1692
 7210SOL    HW328613   6.215   6.379   5.550  1.1161  2.3500  0.9549
 7210SOL    MW428614   6.174   6.374   5.626  0.1500  0.2710  0.0139
 7211SOL     OW28615   6.405   5.712   5.154  0.2150  0.5669 -0.1015
 7211SOL    HW228616   6.381   5.694   5.064 -0.7306 -2.4049  0.6512
 7211SOL    HW328617   6.322   5.725   5.199  0.6446  1.3237  0.5213
 7211SOL    MW428618   6.391   5.712   5.148  0.2475  0.2807 -0.2016
 7212SOL     OW28619   1.613   2.381   2.289 -0.1521 -0.3247  0.4825
 7212SOL    HW228620   1.529   2.354   2.251  0.0736 -1.0932  0.5094
 7212SOL    HW328621   1.598   2.380   2.383 -0.1013 -0.5087  0.4891
 7212SOL    MW428622   1.600   2.377   2.296  0.5383 -0.8292 -0.6559
 7213SOL     OW28623   4.329   2.015   5.110 -0.2607 -0.3830 -0.0445
 7213SOL    HW228624   4.292   1.945   5.057 -1.0109  0.7303 -1.0474
 7213SOL    HW328625   4.389   2.060   5.050 -0.1633  0.1330  0.4365
 7213SOL    MW428626   4.332   2.012   5.095  0.0649 -0.7074 -0.3347
 7214SOL     OW28627   2.963   6.168   1.188 -0.1139  0.3359 -0.8595
 7214SOL    HW228628   2.984   6.218   1.109  2.1192  0.1861 -0.4456
 7214SOL    HW328629   2.957   6.234   1.257  0.5851  0.2632 -0.7161
 7214SOL    MW428630   2.965   6.183   1.186 -0.6819 -0.2433 -0.0938
 7215SOL     OW28631   4.496   4.934   1.210 -0.4105 -0.3571 -0.5827
 7215SOL    HW228632   4.510   4.849   1.168 -0.6709 -0.2218 -0.9523
 7215SOL    HW328633   4.571   4.987   1.182  0.3522 -0.7998  0.5588
 7215SOL    MW428634   4.507   4.930   1.200  0.3539  0.3170 -0.1683
 7216SOL     OW28635   1.712   4.702   3.023  0.2553  0.0443 -0.1416
 7216SOL    HW228636   1.693   4.792   3.051 -0.5594 -0.0471 -0.3714
 7216SOL    HW328637   1.754   4.713   2.937  1.1473  0.2422  0.3046
 7216SOL    MW428638   1.715   4.715   3.015 -0.1525 -0.1415 -0.8169
 7217SOL     OW28639   0.295   0.035   2.259  0.4577 -0.0707 -0.6821
 7217SOL    HW228640   0.374   0.075   2.222  1.0630 -0.0973  0.5531
 7217SOL    HW328641   0.300   0.052   2.353 -0.3025 -1.2651 -0.3945
 7217SOL    MW428642   0.306   0.042   2.266  0.7250  0.6737  0.1069
 7218SOL     OW28643   0.620   5.613   5.346 -0.1540  0.2121  0.2426
 7218SOL    HW228644   0.699   5.656   5.314  0.5749 -1.4972 -0.4055
 7218SOL    HW328645   0.598   5.658   5.427  0.5626  1.7494 -0.3933
 7218SOL    MW428646   0.627   5.624   5.352 -0.3871 -0.2368 -0.3361
 7219SOL     OW28647   2.719   0.285   5.413 -0.3185 -0.4872 -0.2367
 7219SOL    HW228648   2.679   0.291   5.326 -0.9620  3.7616  0.1812
 7219SOL    HW328649   2.808   0.255   5.396 -0.3180  0.5741 -2.4502
 7219SOL    MW428650   2.726   0.282   5.399  0.3606 -0.4588  0.3432
 7220SOL     OW28651   2.705   5.969   1.031 -0.1795 -0.4949  0.7364
 7220SOL    HW228652   2.779   6.006   1.080  0.0742  1.5667 -1.0299
 7220SOL    HW328653   2.627   5.999   1.078  0.0848 -0.3202  1.0656
 7220SOL    MW428654   2.705   5.978   1.043 -0.2952 -0.0569 -0.0912
 7221SOL     OW28655   0.102   6.048   0.705  0.1726 -0.2882  0.2825
 7221SOL    HW228656   0.190   6.060   0.668  0.3475  1.0832  1.0922
 7221SOL    HW328657   0.072   5.966   0.667  1.9725 -1.0119  0.3104
 7221SOL    MW428658   0.110   6.039   0.695 -0.2440  1.0339  0.0240
 7222SOL     OW28659   2.300   5.986   3.064 -0.1571 -0.0509  0.2987
 7222SOL    HW228660   2.345   6.028   2.990 -0.9158 -0.0057 -0.1421
 7222SOL    HW328661   2.359   6.001   3.139  0.6378 -0.1254 -0.2941
 7222SOL    MW428662   2.314   5.994   3.064 -0.2453  0.2122  0.4300
 7223SOL     OW28663   4.214   5.984   2.003  0.0748  0.4541  0.0876
 7223SOL    HW228664   4.155   5.982   2.079  1.0989 -0.4223  0.8914
 7223SOL    HW328665   4.169   5.932   1.936  0.4754 -1.3687  1.1513
 7223SOL    MW428666   4.200   5.977   2.004  0.3080 -0.1338 -0.0322
 7224SOL     OW28667   4.788   6.309   5.735  0.0943  0.3865  0.0622
 7224SOL    HW228668   4.770   6.397   5.768  0.9892 -0.0006  1.6608
 7224SOL    HW328669   4.732   6.251   5.786  0.3773 -0.0846 -0.1552
 7224SOL    MW428670   4.778   6.313   5.746 -0.0709 -0.0558 -0.5207
 7225SOL     OW28671   3.018   0.706   1.106 -0.2139  0.1084 -0.1231
 7225SOL    HW228672   3.089   0.738   1.050 -0.2004 -0.7258 -0.6046
 7225SOL    HW328673   3.062   0.647   1.168 -0.1602  1.3724  1.0832
 7225SOL    MW428674   3.033   0.702   1.107  0.4208  0.2635 -0.2972
 7226SOL     OW28675   0.479   6.062   3.227 -0.7228  0.7907 -0.1794
 7226SOL    HW228676   0.438   6.146   3.210 -0.7020  0.5140 -1.6929
 7226SOL    HW328677   0.411   6.009   3.268 -1.5415  0.7286 -1.5642
 7226SOL    MW428678   0.465   6.066   3.230 -0.0100  0.2102 -0.2802
 7227SOL     OW28679   2.146   1.983   4.396  0.4455 -0.1636  0.0546
 7227SOL    HW228680   2.224   1.927   4.397 -0.7141 -1.8583  1.3824
 7227SOL    HW328681   2.073   1.922   4.405 -0.9409  1.5205  0.6808
 7227SOL    MW428682   2.147   1.967   4.397 -0.6913  0.0283 -0.0403
 7228SOL     OW28683   3.253   4.303   0.105 -0.1502 -0.1015 -0.8588
 7228SOL    HW228684   3.230   4.372   0.044 -1.7565 -0.1832 -0.3909
 7228SOL    HW328685   3.349   4.299   0.102  0.1754  3.3086  0.3507
 7228SOL    MW428686   3.263   4.312   0.097  0.2125  0.2887 -0.2184
 7229SOL     OW28687   2.006   4.161   5.430  0.8735  0.9828  0.2804
 7229SOL    HW228688   1.986   4.188   5.520  0.0725 -0.2795  0.5151
 7229SOL    HW328689   2.095   4.192   5.414  0.8766  1.5783  1.3693
 7229SOL    MW428690   2.015   4.168   5.440  0.2731  0.2257 -0.0557
 7230SOL     OW28691   2.763   3.815   0.268 -0.8127 -0.2137  0.6842
 7230SOL    HW228692   2.847   3.788   0.231 -1.5320 -0.3918 -0.8856
 7230SOL    HW328693   2.736   3.889   0.214 -2.6874 -1.5316 -0.2591
 7230SOL    MW428694   2.771   3.822   0.256 -0.6026 -0.3630  0.2783
 7231SOL     OW28695   4.286   5.346   3.143  0.2898 -0.5540 -0.7090
 7231SOL    HW228696   4.352   5.287   3.107  0.5883  0.1579 -1.3593
 7231SOL    HW328697   4.205   5.296   3.141  0.6216 -1.0900 -0.8393
 7231SOL    MW428698   4.284   5.332   3.138 -0.1241 -0.7821  0.0571
 7232SOL     OW28699   2.782   2.426   6.058  0.1630  0.6850 -1.0754
 7232SOL    HW228700   2.876   2.407   6.055  0.0427 -0.1169 -0.2192
 7232SOL    HW328701   2.749   2.371   6.128 -0.6493  2.3186 -0.1342
 7232SOL    MW428702   2.790   2.416   6.066  0.0948  0.1671  0.2800
 7233SOL     OW28703   1.220   3.468   0.623 -0.0024  0.4011  0.1524
 7233SOL    HW228704   1.265   3.392   0.659  0.0616  1.0302  1.4577
 7233SOL    HW328705   1.159   3.431   0.559 -0.0808 -0.7632  0.8647
 7233SOL    MW428706   1.218   3.453   0.619 -0.7383  0.8585 -0.5560
 7234SOL     OW28707   4.586   4.614   1.236 -0.5519  0.4685  0.1622
 7234SOL    HW228708   4.561   4.562   1.313 -1.4279 -0.1173 -0.5000
 7234SOL    HW328709   4.507   4.618   1.183  0.1287  0.5784 -0.8791
 7234SOL    MW428710   4.573   4.608   1.239 -0.1090 -0.3240  0.2814
 7235SOL     OW28711   2.456   0.680   0.470 -0.0432  0.6738  0.3003
 7235SOL    HW228712   2.448   0.594   0.511 -1.2606  0.1667 -0.9661
 7235SOL    HW328713   2.466   0.740   0.544  0.9094 -0.5405  1.2015
 7235SOL    MW428714   2.457   0.677   0.485 -0.2544  0.5041 -0.0996
 7236SOL     OW28715   3.512   1.314   5.041  0.1845 -0.3320 -0.0953
 7236SOL    HW228716   3.471   1.263   4.971 -1.0161  1.3358 -0.6671
 7236SOL    HW328717   3.452   1.305   5.115 -0.8795  1.4494 -0.6823
 7236SOL    MW428718   3.498   1.306   5.042  0.1493 -0.1844 -0.4918
 7237SOL     OW28719   1.591   4.731   2.635  0.1682 -0.9821 -0.0855
 7237SOL    HW228720   1.641   4.711   2.556 -1.7264 -0.7876 -1.3807
 7237SOL    HW328721   1.503   4.749   2.605  0.0079  2.0669  1.7537
 7237SOL    MW428722   1.586   4.731   2.621  0.1123 -0.1201 -0.9248
 7238SOL     OW28723   2.739   3.521   3.152 -0.1629 -0.6010  0.3049
 7238SOL    HW228724   2.738   3.608   3.111 -0.4035  0.0522  1.6389
 7238SOL    HW328725   2.831   3.500   3.160 -0.0725 -0.0845  0.7223
 7238SOL    MW428726   2.751   3.530   3.148 -0.7381 -0.4844 -0.1609
 7239SOL     OW28727   6.241   4.250   2.654 -0.2453 -0.2302 -0.2006
 7239SOL    HW228728   6.225   4.179   2.716 -0.1326 -0.5382 -0.5192
 7239SOL    HW328729   6.256   4.206   2.571 -1.7555  0.2261 -0.7529
 7239SOL    MW428730   6.241   4.235   2.651 -0.1388  0.5512 -0.1897
 7240SOL     OW28731   2.921   2.220   6.345 -0.0934  0.3670 -0.4720
 7240SOL    HW228732   2.972   2.148   6.309  0.1011  2.0255 -3.8403
 7240SOL    HW328733   2.976   2.257   6.414  0.5439 -1.5596  0.0945
 7240SOL    MW428734   2.935   2.216   6.349 -0.7558  0.2886  0.0277
 7241SOL     OW28735   2.666   5.337   1.729  0.1266 -0.2439  0.7261
 7241SOL    HW228736   2.717   5.414   1.707 -0.9617  0.0401 -1.0010
 7241SOL    HW328737   2.621   5.361   1.811  1.3774  0.1333  1.3295
 7241SOL    MW428738   2.667   5.350   1.737  0.8417 -0.5370  0.1368
 7242SOL     OW28739   4.978   2.694   0.420 -0.6107 -0.0107 -0.3601
 7242SOL    HW228740   4.908   2.640   0.458  1.3068 -1.8333  0.8133
 7242SOL    HW328741   5.006   2.751   0.491 -0.8002  0.6229 -0.7858
 7242SOL    MW428742   4.972   2.694   0.434  0.2986  0.3440  0.5208
 7243SOL     OW28743   6.360   1.156   4.915  0.0267 -0.8410  0.2879
 7243SOL    HW228744   6.313   1.085   4.958 -1.8321  0.7385  1.0110
 7243SOL    HW328745   6.452   1.130   4.919 -0.2632 -1.8081  3.3191
 7243SOL    MW428746   6.366   1.143   4.921  0.3733 -0.2147 -0.2536
 7244SOL     OW28747   2.443   0.626   5.542 -0.5185 -0.0528 -0.1436
 7244SOL    HW228748   2.460   0.534   5.520  0.4716  0.1370 -0.2193
 7244SOL    HW328749   2.498   0.643   5.618 -1.4219  0.2217  0.4568
 7244SOL    MW428750   2.453   0.616   5.549  1.3848 -0.0473 -0.1518
 7245SOL     OW28751   3.334   3.020   2.743 -0.0999  0.1475  0.4316
 7245SOL    HW228752   3.244   3.037   2.717  0.0753  1.0950  0.4293
 7245SOL    HW328753   3.387   3.046   2.668  0.3284  1.8282  1.2763
 7245SOL    MW428754   3.330   3.026   2.730 -0.3871  0.3399 -0.7189
 7246SOL     OW28755   1.326   1.812   5.205 -0.6236  0.4404  0.0894
 7246SOL    HW228756   1.294   1.752   5.138 -0.8142  0.6063  0.0287
 7246SOL    HW328757   1.253   1.872   5.220 -0.2939  0.9031 -0.1374
 7246SOL    MW428758   1.312   1.812   5.198 -0.0809  0.3089 -0.0505
 7247SOL     OW28759   5.961   6.231   0.335  0.2712 -0.6159  0.0569
 7247SOL    HW228760   5.866   6.228   0.341  0.1613  1.6591  0.0949
 7247SOL    HW328761   5.983   6.167   0.267 -1.0717 -2.5785  1.3492
 7247SOL    MW428762   5.952   6.222   0.327 -0.2953  0.1413 -0.1784
 7248SOL     OW28763   0.292   5.367   5.063  0.3213  0.3847  0.5596
 7248SOL    HW228764   0.374   5.416   5.049 -0.3745  1.6944  0.8496
 7248SOL    HW328765   0.229   5.410   5.005  0.1729 -1.5949 -0.8175
 7248SOL    MW428766   0.294   5.379   5.054  0.2079  0.0777  0.0539
 7249SOL     OW28767   3.580   2.494   1.336  0.3350  0.0940 -0.1119
 7249SOL    HW228768   3.551   2.578   1.372 -0.7876  0.7556 -2.3872
 7249SOL    HW328769   3.672   2.486   1.364  0.7693  2.5614 -0.6620
 7249SOL    MW428770   3.588   2.504   1.345 -0.2466  0.3416 -0.2552
 7250SOL     OW28771   1.672   3.597   4.733 -0.0852  0.1626 -0.2996
 7250SOL    HW228772   1.603   3.655   4.764 -1.2676 -0.7714 -1.0722
 7250SOL    HW328773   1.640   3.509   4.753  2.2730 -0.2603  2.0953
 7250SOL    MW428774   1.658   3.593   4.740 -0.1942  0.8864  0.2769
 7251SOL     OW28775   5.890   0.971   0.107  0.1489 -0.5356  0.1094
 7251SOL    HW228776   5.926   1.059   0.114 -0.0267 -0.2295 -2.1332
 7251SOL    HW328777   5.805   0.977   0.150  0.5731  0.0943  0.8919
 7251SOL    MW428778   5.883   0.983   0.113  0.2787  0.0763  0.7087
 7252SOL     OW28779   5.186   3.823   2.440  0.4119  0.2387 -0.7503
 7252SOL    HW228780   5.129   3.772   2.382 -0.0157 -0.1916  0.0215
 7252SOL    HW328781   5.129   3.852   2.511  0.6212  1.9619 -1.2566
 7252SOL    MW428782   5.171   3.820   2.442  0.5596  0.1799 -0.2408
 7253SOL     OW28783   5.311   5.267   1.817 -0.0637  0.3495  0.4140
 7253SOL    HW228784   5.241   5.332   1.821 -0.2475  0.2798 -1.0304
 7253SOL    HW328785   5.290   5.205   1.887 -0.8619  0.9024  0.6790
 7253SOL    MW428786   5.299   5.267   1.827 -0.3060 -0.6718  0.3527
 7254SOL     OW28787   5.451   5.624   1.617 -0.2320  0.1761 -0.0603
 7254SOL    HW228788   5.449   5.676   1.697 -0.4531  1.9457 -1.1586
 7254SOL    HW328789   5.543   5.602   1.604 -0.3282 -1.1986  1.2892
 7254SOL    MW428790   5.463   5.628   1.625  0.0874 -0.0345 -0.3998
 7255SOL     OW28791   2.766   4.733   5.005 -0.3475 -0.0304 -0.6043
 7255SOL    HW228792   2.797   4.716   4.916  1.3820  0.5045 -0.1309
 7255SOL    HW328793   2.764   4.829   5.011  1.3467 -0.0415  0.5090
 7255SOL    MW428794   2.770   4.744   4.994  0.3811 -0.0984  0.5588
 7256SOL     OW28795   2.017   6.365   1.197 -0.3676  0.1452 -0.9151
 7256SOL    HW228796   2.004   6.440   1.138  1.4261  0.8573 -0.4805
 7256SOL    HW328797   2.109   6.372   1.224 -0.7650 -0.9662  0.8716
 7256SOL    MW428798   2.028   6.376   1.193 -0.0048 -0.5635 -0.6029
 7257SOL     OW28799   1.561   3.151   5.286 -0.3757  0.2145 -0.2540
 7257SOL    HW228800   1.597   3.207   5.218 -0.8370 -0.0538 -0.7304
 7257SOL    HW328801   1.479   3.194   5.312  0.2477  0.8024  0.7933
 7257SOL    MW428802   1.555   3.164   5.281 -0.0367  0.2325 -0.1710
 7258SOL     OW28803   3.039   4.669   2.870 -0.0073  0.3411 -0.2584
 7258SOL    HW228804   3.111   4.722   2.835 -0.8748  1.2985 -0.6374
 7258SOL    HW328805   3.010   4.716   2.948 -0.0914 -0.1498  0.0085
 7258SOL    MW428806   3.045   4.682   2.876 -0.5817 -0.1333  0.2443
 7259SOL     OW28807   4.851   0.207   5.833  0.2248  0.0215 -0.0859
 7259SOL    HW228808   4.893   0.213   5.747  0.5912 -1.0061  0.0082
 7259SOL    HW328809   4.757   0.208   5.814  0.3059 -0.3599 -0.5169
 7259SOL    MW428810   4.844   0.208   5.819  0.0614 -0.5978 -0.2503
 7260SOL     OW28811   6.205   5.781   1.884 -0.1747  0.2854 -0.9471
 7260SOL    HW228812   6.155   5.828   1.951 -1.1442 -0.4386 -1.1366
 7260SOL    HW328813   6.278   5.742   1.932 -0.3012  0.6013 -0.4861
 7260SOL    MW428814   6.208   5.782   1.899 -0.0023  0.3021  0.7246
 7261SOL     OW28815   1.615   0.654   4.788  0.3298  0.7109  0.2559
 7261SOL    HW228816   1.639   0.711   4.716  0.4530  0.5079  0.1338
 7261SOL    HW328817   1.529   0.619   4.764  0.7906 -0.0973 -0.2502
 7261SOL    MW428818   1.607   0.657   4.776  0.1669  0.3116  0.0742
 7262SOL     OW28819   1.001   0.464   2.458  0.2185  0.0435 -0.3927
 7262SOL    HW228820   1.007   0.482   2.552 -3.0767  2.0596 -0.3948
 7262SOL    HW328821   0.967   0.375   2.454 -0.2711  0.1755  0.3950
 7262SOL    MW428822   0.997   0.455   2.470  1.0435 -0.6035 -1.0813
 7263SOL     OW28823   0.719   2.399   3.781 -0.1769  0.1979 -0.0047
 7263SOL    HW228824   0.773   2.470   3.744 -0.3849  0.9368  1.0610
 7263SOL    HW328825   0.646   2.445   3.823 -0.5690 -0.6894  0.2932
 7263SOL    MW428826   0.716   2.415   3.781 -0.4538  0.3411  0.0441
 7264SOL     OW28827   3.820   1.904   2.597 -0.5931  0.0177  0.0751
 7264SOL    HW228828   3.753   1.837   2.610 -0.8025  0.2629  0.2513
 7264SOL    HW328829   3.839   1.937   2.684 -0.2685 -0.0204  0.0227
 7264SOL    MW428830   3.814   1.899   2.610 -0.3944  0.4350 -0.1844
 7265SOL     OW28831   4.484   0.192   1.540 -0.8606  0.7790  0.6715
 7265SOL    HW228832   4.549   0.203   1.609  1.5806  0.1189 -1.3775
 7265SOL    HW328833   4.473   0.097   1.531  1.1812  0.6655 -1.7392
 7265SOL    MW428834   4.491   0.181   1.548 -0.1078  0.0770  0.3992
 7266SOL     OW28835   5.019   5.214   4.089 -0.5834  0.0479  0.0976
 7266SOL    HW228836   5.090   5.246   4.145 -0.3117 -0.3099 -0.0413
 7266SOL    HW328837   5.055   5.137   4.045 -1.5044 -1.0033  1.0950
 7266SOL    MW428838   5.033   5.208   4.091  0.3166 -0.3032 -0.0927
 7267SOL     OW28839   1.637   0.512   6.373  0.0465  0.2832 -0.4436
 7267SOL    HW228840   1.718   0.528   6.422 -0.8330  1.2547  0.7481
 7267SOL    HW328841   1.651   0.558   6.290  0.3906  1.2131  0.1035
 7267SOL    MW428842   1.650   0.520   6.369 -0.3945 -0.0469  0.0533
 7268SOL     OW28843   2.020   4.934   2.561  0.1143 -0.5947 -0.1814
 7268SOL    HW228844   2.102   4.950   2.606  1.1112 -0.9199 -1.8009
 7268SOL    HW328845   1.980   5.020   2.552  0.0831 -0.4808  0.9255
 7268SOL    MW428846   2.025   4.947   2.566  0.8372  0.1368  0.2618
 7269SOL     OW28847   4.388   3.946   4.172 -1.0885 -0.2822 -0.0780
 7269SOL    HW228848   4.438   3.940   4.090 -0.1152  0.7112  0.4186
 7269SOL    HW328849   4.312   4.000   4.149 -0.4007  0.6782 -0.1460
 7269SOL    MW428850   4.384   3.952   4.158  0.6774  0.1452  0.5058
 7270SOL     OW28851   2.568   5.205   0.381  0.3637 -0.1311  0.6780
 7270SOL    HW228852   2.604   5.294   0.382  0.4584 -0.1256 -0.8352
 7270SOL    HW328853   2.556   5.183   0.473  0.6959  1.3061  1.0912
 7270SOL    MW428854   2.571   5.214   0.393  0.1967 -0.2973 -0.2149
 7271SOL     OW28855   1.266   4.224   2.843  0.3964 -0.4516  0.3133
 7271SOL    HW228856   1.273   4.317   2.820  0.6489 -0.1485  1.5303
 7271SOL    HW328857   1.188   4.194   2.798  0.8053  0.1217 -0.8248
 7271SOL    MW428858   1.257   4.233   2.834  0.0828 -0.1365 -0.1231
 7272SOL     OW28859   5.298   3.661   0.397 -0.4472  0.2128 -0.1561
 7272SOL    HW228860   5.204   3.673   0.383 -0.9417 -1.2770  1.5638
 7272SOL    HW328861   5.311   3.567   0.403  1.0714  0.4076  0.2314
 7272SOL    MW428862   5.288   3.650   0.396  0.7016  0.5342  0.4405
 7273SOL     OW28863   1.201   3.873   3.330  0.1142 -0.0609  0.1835
 7273SOL    HW228864   1.219   3.906   3.242  0.6031 -1.5729 -0.3091
 7273SOL    HW328865   1.150   3.942   3.371  0.0482  0.7633 -1.2183
 7273SOL    MW428866   1.196   3.886   3.324  0.3669  0.4756  0.2190
 7274SOL     OW28867   0.169   4.354   2.795  0.0275 -0.0184  0.0627
 7274SOL    HW228868   0.173   4.332   2.702 -0.2945 -2.8782  0.6440
 7274SOL    HW328869   0.120   4.282   2.835  1.1124  0.5534  2.6173
 7274SOL    MW428870   0.163   4.341   2.788  0.2180  0.0855 -0.9312
 7275SOL     OW28871   5.973   3.976   0.646 -0.1840 -0.4300  0.3655
 7275SOL    HW228872   5.883   4.004   0.663  0.1241 -0.4128  2.1047
 7275SOL    HW328873   6.027   4.052   0.668  0.3209 -0.7422  0.2281
 7275SOL    MW428874   5.968   3.990   0.651  0.0846  0.0071  0.0778
 7276SOL     OW28875   0.182   1.560   5.863  0.0854 -0.4201  0.2096
 7276SOL    HW228876   0.273   1.568   5.833  0.4143  1.1962  1.4494
 7276SOL    HW328877   0.161   1.647   5.897 -1.3840 -1.2121  1.4402
 7276SOL    MW428878   0.191   1.573   5.864  0.0664  0.1875 -0.6599
 7277SOL     OW28879   0.778   0.694   5.360  0.3837  0.0236  0.8174
 7277SOL    HW228880   0.831   0.705   5.281  1.5918  0.7894  1.7071
 7277SOL    HW328881   0.738   0.607   5.349 -0.8141  0.7776 -1.3760
 7277SOL    MW428882   0.780   0.684   5.348 -0.0384 -0.0616 -0.3165
 7278SOL     OW28883   2.859   5.588   5.414  0.4290  0.2582 -1.0510
 7278SOL    HW228884   2.818   5.647   5.351 -1.1084 -1.0040 -1.2998
 7278SOL    HW328885   2.903   5.522   5.360  2.5852  1.3935 -0.7835
 7278SOL    MW428886   2.860   5.587   5.399 -0.0362  0.4295 -0.3080
 7279SOL     OW28887   6.081   1.783   3.980  0.1585 -0.2975 -0.5583
 7279SOL    HW228888   6.045   1.803   4.067  1.3734 -1.5339  0.2562
 7279SOL    HW328889   6.129   1.702   3.992 -0.4501 -1.0196 -2.6330
 7279SOL    MW428890   6.082   1.775   3.993 -0.2995  0.3367  0.7479
 7280SOL     OW28891   5.361   4.777   5.664 -0.1489 -0.2956  0.0248
 7280SOL    HW228892   5.348   4.701   5.608  0.6080 -0.0123 -0.5463
 7280SOL    HW328893   5.273   4.803   5.690 -0.4740 -0.7208 -0.6358
 7280SOL    MW428894   5.348   4.770   5.660 -0.0206  0.2991 -0.2576
 7281SOL     OW28895   3.180   3.570   2.393  0.3440 -0.7905 -0.1739
 7281SOL    HW228896   3.232   3.649   2.379 -0.0927 -0.2344  1.2328
 7281SOL    HW328897   3.106   3.598   2.445 -0.6135 -1.8663 -0.8961
 7281SOL    MW428898   3.177   3.584   2.398  0.5413  0.2436 -0.1725
 7282SOL     OW28899   1.475   1.027   5.302 -0.6280  0.6215 -0.3674
 7282SOL    HW228900   1.560   0.983   5.300 -0.3278  1.0197  1.4785
 7282SOL    HW328901   1.428   0.991   5.227  0.5092 -0.9430 -0.3899
 7282SOL    MW428902   1.480   1.016   5.292  0.0036 -0.0373 -0.4907
 7283SOL     OW28903   5.466   3.698   1.306  0.3453  0.6955 -0.2876
 7283SOL    HW228904   5.552   3.704   1.347  0.4191 -0.4515 -0.2256
 7283SOL    HW328905   5.428   3.619   1.344 -0.3954  0.7324 -0.9429
 7283SOL    MW428906   5.473   3.688   1.316  0.1216  0.2893 -0.0779
 7284SOL     OW28907   0.847   6.180   1.140  0.0329  0.8281 -0.0369
 7284SOL    HW228908   0.805   6.098   1.167  0.6756  0.1086 -1.1608
 7284SOL    HW328909   0.800   6.206   1.061 -0.7185  2.0180  0.7676
 7284SOL    MW428910   0.836   6.173   1.133  0.0303  0.0965 -0.8566
 7285SOL     OW28911   2.440   2.722   0.950  0.2891 -0.2549  0.6851
 7285SOL    HW228912   2.487   2.649   0.911  0.3250  0.2621 -0.2748
 7285SOL    HW328913   2.411   2.775   0.875 -1.1246 -0.1351  1.2874
 7285SOL    MW428914   2.442   2.719   0.935  0.6143  0.1971  0.0035
 7286SOL     OW28915   3.865   3.547   4.325 -0.6149 -0.1107 -0.6367
 7286SOL    HW228916   3.928   3.526   4.394 -1.1044  0.4611 -0.0063
 7286SOL    HW328917   3.891   3.491   4.252  1.4684  1.0553 -0.8915
 7286SOL    MW428918   3.877   3.537   4.324  0.1817  0.0479 -0.2362
 7287SOL     OW28919   5.890   2.834   4.428  0.4135 -0.0768  0.0654
 7287SOL    HW228920   5.968   2.807   4.477  0.1765  0.5260  0.7964
 7287SOL    HW328921   5.913   2.818   4.337  0.8937 -1.1641  0.3498
 7287SOL    MW428922   5.903   2.828   4.423 -0.0209 -0.0395  0.6721
 7288SOL     OW28923   4.709   2.920   4.905  0.0652  0.2210 -0.1461
 7288SOL    HW228924   4.684   2.845   4.959 -1.4207  1.1253  0.5048
 7288SOL    HW328925   4.800   2.904   4.881 -0.9927 -3.2788 -2.5990
 7288SOL    MW428926   4.718   2.908   4.909  0.2909  0.0162  0.1467
 7289SOL     OW28927   3.001   1.017   0.386  0.2272  0.0869  0.2612
 7289SOL    HW228928   3.038   1.070   0.316  0.6640  0.2356  0.6042
 7289SOL    HW328929   3.072   0.960   0.414 -0.2725 -0.7666 -0.1784
 7289SOL    MW428930   3.015   1.017   0.380 -0.1061  0.1965 -0.0979
 7290SOL     OW28931   6.406   1.426   1.411 -0.5450 -0.2537 -0.0855
 7290SOL    HW228932   6.397   1.507   1.360 -1.9644  0.3342  1.0311
 7290SOL    HW328933   6.316   1.393   1.420 -0.0606 -1.6058  0.0554
 7290SOL    MW428934   6.393   1.432   1.405  0.0745 -0.2664 -1.0653
 7291SOL     OW28935   2.889   3.523   5.867 -0.1379 -0.2577  0.1186
 7291SOL    HW228936   2.951   3.593   5.846  1.7534 -1.7977  0.2894
 7291SOL    HW328937   2.879   3.475   5.785 -2.9287  1.2261 -0.5242
 7291SOL    MW428938   2.896   3.526   5.854 -0.1612 -0.1570 -0.4476
 7292SOL     OW28939   4.219   4.194   0.785  0.2318  0.2065 -0.0903
 7292SOL    HW228940   4.229   4.280   0.745 -0.5451 -0.5945 -2.1797
 7292SOL    HW328941   4.262   4.134   0.724 -1.8679 -1.2123 -0.3022
 7292SOL    MW428942   4.226   4.197   0.771  0.8092  0.1149  0.4730
 7293SOL     OW28943   2.680   1.227   0.343 -0.0619  0.1487  0.2202
 7293SOL    HW228944   2.730   1.305   0.321 -0.4958  0.3065 -0.2509
 7293SOL    HW328945   2.633   1.206   0.262 -0.9441  0.1531  0.7202
 7293SOL    MW428946   2.680   1.235   0.329  0.1495  0.2717 -0.2550
 7294SOL     OW28947   6.007   3.959   2.663 -0.7720 -0.5129  0.3585
 7294SOL    HW228948   5.960   3.879   2.638  0.1912 -1.0573  0.2567
 7294SOL    HW328949   6.094   3.948   2.626 -0.5372  0.4508  0.6159
 7294SOL    MW428950   6.012   3.947   2.655 -0.1613  0.3196 -0.7823
 7295SOL     OW28951   4.283   4.963   0.064 -0.2504 -0.0225  0.1222
 7295SOL    HW228952   4.190   4.959   0.089 -0.9959  0.4532 -2.2671
 7295SOL    HW328953   4.292   5.049   0.022  1.6995  0.5989  1.6944
 7295SOL    MW428954   4.272   4.974   0.062 -0.5160 -0.3563  0.4497
 7296SOL     OW28955   5.146   2.060   1.641 -0.3846  0.0620 -0.0828
 7296SOL    HW228956   5.088   2.015   1.702  0.6292  1.2606  1.8528
 7296SOL    HW328957   5.234   2.036   1.670  0.1456 -0.0573 -1.6698
 7296SOL    MW428958   5.150   2.051   1.653  0.7927  0.9925  0.1477
 7297SOL     OW28959   6.133   4.357   3.150 -0.4819 -0.1382 -0.4836
 7297SOL    HW228960   6.146   4.375   3.057 -0.1505 -1.5977 -0.7441
 7297SOL    HW328961   6.109   4.441   3.188 -0.7855  0.4406 -1.9182
 7297SOL    MW428962   6.132   4.370   3.143  0.2907 -0.1808 -0.1918
 7298SOL     OW28963   2.690   3.686   5.965 -0.5802 -0.0352  0.1180
 7298SOL    HW228964   2.747   3.615   5.933  0.3086  0.3417  0.8168
 7298SOL    HW328965   2.633   3.706   5.891  1.3763  0.7659 -1.2619
 7298SOL    MW428966   2.690   3.679   5.951 -0.3081  0.0248 -0.1809
 7299SOL     OW28967   5.761   3.485   5.149 -0.1264 -1.1066 -0.1594
 7299SOL    HW228968   5.820   3.480   5.073 -0.9995 -0.3045 -0.9191
 7299SOL    HW328969   5.722   3.398   5.154 -1.2625 -0.7332 -1.6618
 7299SOL    MW428970   5.764   3.473   5.140 -0.7275  0.0435  0.2883
 7300SOL     OW28971   0.778   2.993   2.253 -0.1539 -0.5751  0.0892
 7300SOL    HW228972   0.734   2.916   2.217 -2.6138  0.7878 -0.0569
 7300SOL    HW328973   0.723   3.020   2.326 -0.2174  1.8563 -0.7763
 7300SOL    MW428974   0.765   2.986   2.258  0.1009  0.1408 -0.1051
 7301SOL     OW28975   1.586   2.856   0.156 -0.0126  0.4537  0.2335
 7301SOL    HW228976   1.568   2.828   0.246 -0.7148  0.0005 -0.0386
 7301SOL    HW328977   1.536   2.937   0.146 -0.8464 -0.0894 -0.0945
 7301SOL    MW428978   1.577   2.863   0.167  0.0949 -0.1314  0.6088
 7302SOL     OW28979   0.063   0.240   0.493  0.3054  0.0664 -0.2495
 7302SOL    HW228980   0.054   0.144   0.486  0.4524  0.0913 -0.8954
 7302SOL    HW328981   0.152   0.258   0.464  0.1022  0.4437 -0.6630
 7302SOL    MW428982   0.073   0.229   0.488  0.2318  0.0399 -0.0536
 7303SOL     OW28983   0.221   0.304   3.230  0.2234 -0.2859  0.5014
 7303SOL    HW228984   0.301   0.287   3.180  0.2594 -1.7916  1.0203
 7303SOL    HW328985   0.211   0.399   3.227  0.6994 -0.2452 -1.6094
 7303SOL    MW428986   0.231   0.315   3.223  0.3174  0.3709  0.5487
 7304SOL     OW28987   1.783   1.724   6.302 -0.1287 -0.0171 -0.4554
 7304SOL    HW228988   1.803   1.688   6.388  0.1339  1.9953  0.3912
 7304SOL    HW328989   1.720   1.663   6.264 -1.6257 -0.0605  1.8967
 7304SOL    MW428990   1.778   1.711   6.308  0.5675 -0.0201 -0.3364
 7305SOL     OW28991   4.028   5.253   3.063 -0.1966 -0.4582 -0.5677
 7305SOL    HW228992   4.018   5.284   3.154  1.4401 -0.7402 -0.2567
 7305SOL    HW328993   3.997   5.163   3.065 -0.0570 -0.5013 -0.2571
 7305SOL    MW428994   4.023   5.245   3.076 -0.1880  0.2732  0.5253
 7306SOL     OW28995   5.819   6.041   0.790  0.1189 -0.4331  0.1871
 7306SOL    HW228996   5.911   6.034   0.817  0.0589  0.7972  0.7795
 7306SOL    HW328997   5.779   5.961   0.820  0.8049 -0.5791  0.7460
 7306SOL    MW428998   5.826   6.030   0.797 -0.2657 -0.2778 -0.2151
 7307SOL     OW28999   2.941   0.169   5.263 -0.3655 -0.1595  0.0894
 7307SOL    HW229000   2.939   0.074   5.253 -2.7208 -0.3293  1.4850
 7307SOL    HW329001   3.007   0.184   5.331  1.1890 -0.6079 -1.2602
 7307SOL    MW429002   2.950   0.158   5.271  0.0175 -0.5434  0.2955
 7308SOL     OW29003   4.573   4.114   0.372  0.2787 -0.2626  0.2837
 7308SOL    HW229004   4.650   4.062   0.397 -0.3970 -0.9839  0.9253
 7308SOL    HW329005   4.587   4.198   0.415  0.8519 -0.2770  0.1434
 7308SOL    MW429006   4.585   4.118   0.381 -0.3035 -0.0689 -0.3055
 7309SOL     OW29007   5.644   4.883   0.543 -0.1958 -0.0901 -0.3190
 7309SOL    HW229008   5.719   4.836   0.508 -0.6506 -0.7948 -0.3792
 7309SOL    HW329009   5.576   4.872   0.477 -0.0129  1.5482 -0.8270
 7309SOL    MW429010   5.645   4.876   0.530  0.4735 -0.2128  0.4353
 7310SOL     OW29011   5.345   3.727   0.844  0.1195 -0.2696 -0.1480
 7310SOL    HW229012   5.291   3.786   0.897  1.5725  1.1853 -0.2064
 7310SOL    HW329013   5.393   3.674   0.907 -1.2981 -1.5800 -0.0951
 7310SOL    MW429014   5.344   3.728   0.859  0.2978 -0.5697 -0.1491
 7311SOL     OW29015   5.593   4.256   4.831  0.2571 -0.0334  0.5675
 7311SOL    HW229016   5.606   4.270   4.925 -1.9234 -2.7780  1.4100
 7311SOL    HW329017   5.663   4.197   4.805  0.3410  0.0216  0.6675
 7311SOL    MW429018   5.604   4.250   4.840  0.7123 -1.1565 -0.3715
 7312SOL     OW29019   4.037   0.961   4.627 -0.0427  0.7284 -0.0793
 7312SOL    HW229020   4.039   0.932   4.718  1.9974  2.1897  0.3997
 7312SOL    HW329021   3.946   0.946   4.600 -1.1278  1.5860  2.6541
 7312SOL    MW429022   4.025   0.955   4.636  0.9894  0.2464 -0.3302
 7313SOL     OW29023   5.086   0.525   6.106  0.0524 -0.0128  0.4244
 7313SOL    HW229024   4.992   0.522   6.123 -0.6803  1.9409 -2.3717
 7313SOL    HW329025   5.103   0.451   6.048 -0.0599  0.2984 -0.0186
 7313SOL    MW429026   5.076   0.515   6.100  0.7855  0.0521 -0.2153
 7314SOL     OW29027   6.343   0.339   3.988  0.2802  0.4661  0.3539
 7314SOL    HW229028   6.248   0.343   3.985  0.3205  0.9569 -1.9329
 7314SOL    HW329029   6.363   0.247   4.003 -0.5512  0.2143 -0.0313
 7314SOL    MW429030   6.333   0.328   3.990 -0.2343  0.2230  0.2079
 7315SOL     OW29031   4.103   3.903   1.475  0.2333  0.7459 -0.1179
 7315SOL    HW229032   4.179   3.920   1.531  0.0798  1.2868 -0.0772
 7315SOL    HW329033   4.034   3.877   1.536  0.9377 -1.8643 -0.2827
 7315SOL    MW429034   4.104   3.902   1.491 -0.0109 -0.6453 -0.2061
 7316SOL     OW29035   3.423   4.213   0.359 -0.2920 -0.6315 -0.3942
 7316SOL    HW229036   3.398   4.137   0.307  0.1058 -0.1420 -1.3210
 7316SOL    HW329037   3.341   4.261   0.372 -0.2598 -0.2815 -1.3726
 7316SOL    MW429038   3.409   4.210   0.354  0.1484  0.0749 -0.3270
 7317SOL     OW29039   0.720   3.123   0.994 -0.3437  0.3565 -0.1073
 7317SOL    HW229040   0.641   3.092   1.038 -0.4916  0.0345 -0.6000
 7317SOL    HW329041   0.718   3.218   1.006 -0.9283  0.3732 -0.3277
 7317SOL    MW429042   0.709   3.131   1.002  0.0644 -0.5622 -0.1867
 7318SOL     OW29043   0.545   2.300   3.585  0.3373  0.4378  0.2434
 7318SOL    HW229044   0.599   2.278   3.509  0.8216  1.1810  0.3647
 7318SOL    HW329045   0.607   2.315   3.656 -0.0757  0.4566  0.6075
 7318SOL    MW429046   0.560   2.299   3.584  0.3554 -0.0452  0.4490
 7319SOL     OW29047   0.451   3.733   2.506  0.4101 -0.0916  0.6286
 7319SOL    HW229048   0.452   3.804   2.570 -1.1306 -0.8345  1.5239
 7319SOL    HW329049   0.518   3.758   2.442  0.3822  1.8144  1.2825
 7319SOL    MW429050   0.460   3.746   2.506 -0.2677  0.6765 -0.7794
 7320SOL     OW29051   6.097   4.505   4.576  0.1468  1.1423 -0.3097
 7320SOL    HW229052   6.049   4.586   4.596 -1.3553  0.0324  0.7691
 7320SOL    HW329053   6.029   4.441   4.557  1.2645 -0.1826  0.0243
 7320SOL    MW429054   6.081   4.507   4.576  0.0435 -0.2943 -0.8721
 7321SOL     OW29055   1.617   1.912   6.397  0.0304 -0.1150  0.5425
 7321SOL    HW229056   1.613   1.972   6.323  0.8917 -1.0064 -0.2568
 7321SOL    HW329057   1.680   1.845   6.371 -1.8315 -2.1142  0.8558
 7321SOL    MW429058   1.625   1.911   6.384  0.2941  0.5321  0.5903
 7322SOL     OW29059   1.864   0.739   5.920  0.3188 -0.3750 -0.4573
 7322SOL    HW229060   1.796   0.745   5.852 -0.5372  0.9278  0.4745
 7322SOL    HW329061   1.909   0.657   5.901 -0.1055 -0.2126 -2.4067
 7322SOL    MW429062   1.861   0.729   5.908  0.1341 -0.3422  0.3636
 7323SOL     OW29063   0.766   3.653   5.375  0.1919 -0.3516 -0.1213
 7323SOL    HW229064   0.718   3.628   5.297  0.7434 -0.4913 -0.4185
 7323SOL    HW329065   0.750   3.747   5.385  1.3020 -0.0154 -1.2476
 7323SOL    MW429066   0.758   3.662   5.366  0.0596  0.3813  0.2738
 7324SOL     OW29067   5.540   3.144   2.354 -0.3099 -0.4496 -0.0199
 7324SOL    HW229068   5.548   3.239   2.344  0.0948 -0.4882 -0.0982
 7324SOL    HW329069   5.630   3.112   2.350 -0.5126 -0.9318 -0.9684
 7324SOL    MW429070   5.553   3.152   2.352 -0.4307  0.0226 -0.3026
 7325SOL     OW29071   6.028   0.478   4.502  0.4435 -0.2617 -0.0887
 7325SOL    HW229072   6.122   0.485   4.486  0.1163  0.4307 -1.9767
 7325SOL    HW329073   6.005   0.390   4.472  0.2669  0.1111 -1.1035
 7325SOL    MW429074   6.037   0.467   4.496 -0.4266 -0.7150  0.3604
 7326SOL     OW29075   0.033   2.331   4.523  0.1874 -0.2755 -0.2982
 7326SOL    HW229076   0.106   2.348   4.582 -0.0446 -3.2872  1.0238
 7326SOL    HW329077   0.070   2.340   4.435  2.0596 -1.2410  0.3325
 7326SOL    MW429078   0.047   2.335   4.519 -0.2480 -0.0793 -0.3331
 7327SOL     OW29079   4.392   4.376   0.992 -0.0168  0.2214  0.4010
 7327SOL    HW229080   4.313   4.420   1.023 -0.3518  0.1415 -0.3415
 7327SOL    HW329081   4.368   4.283   0.988 -0.7099  0.4389 -2.2120
 7327SOL    MW429082   4.378   4.370   0.996 -0.8273  0.1393 -0.0687
 7328SOL     OW29083   6.070   6.122   2.713 -0.0953 -0.2433 -0.3668
 7328SOL    HW229084   6.078   6.176   2.634  1.0162  1.1025  0.6153
 7328SOL    HW329085   6.114   6.173   2.781 -0.8318 -1.4734  1.0829
 7328SOL    MW429086   6.077   6.136   2.711 -0.4866  0.0471  0.1989
 7329SOL     OW29087   5.819   1.138   1.313 -0.4310  0.5025  0.1125
 7329SOL    HW229088   5.895   1.097   1.273  0.6081  1.8345  0.6486
 7329SOL    HW329089   5.851   1.171   1.397 -1.7672  0.5287  0.6428
 7329SOL    MW429090   5.833   1.137   1.319 -0.2004 -0.2272  0.3121
 7330SOL     OW29091   6.238   3.766   3.459 -0.0588 -0.5757 -0.1303
 7330SOL    HW229092   6.239   3.742   3.551 -0.1733  0.0235  0.0291
 7330SOL    HW329093   6.326   3.799   3.441 -0.5410  0.9914  0.2264
 7330SOL    MW429094   6.250   3.767   3.469 -0.0328  0.1046  0.3906
 7331SOL     OW29095   2.378   4.386   1.550  0.1735  0.1509  0.4213
 7331SOL    HW229096   2.327   4.325   1.497  0.5646 -1.1938  1.5369
 7331SOL    HW329097   2.320   4.410   1.622 -1.1253  3.5758 -1.5128
 7331SOL    MW429098   2.364   4.381   1.553  0.6664  0.2001  0.3571
 7332SOL     OW29099   0.399   0.711   4.896 -0.4511  0.1077  0.1512
 7332SOL    HW229100   0.415   0.630   4.945 -0.3727  0.0545  0.0382
 7332SOL    HW329101   0.372   0.681   4.809  0.5604  0.1997 -0.2065
 7332SOL    MW429102   0.398   0.696   4.891 -0.6689  0.0076 -0.6672
 7333SOL     OW29103   1.312   5.951   3.324  0.1827  0.0675 -0.0047
 7333SOL    HW229104   1.221   5.923   3.314  0.6401 -1.5266  0.1413
 7333SOL    HW329105   1.345   5.900   3.398  1.3357  0.2961 -0.3467
 7333SOL    MW429106   1.304   5.941   3.332  1.2871 -0.2997  0.0130
 7334SOL     OW29107   3.018   2.372   1.849 -0.4688  0.1828  0.3430
 7334SOL    HW229108   3.108   2.394   1.873  0.1264  0.3299 -1.7597
 7334SOL    HW329109   2.999   2.291   1.895  1.5527 -1.0336 -0.8324
 7334SOL    MW429110   3.028   2.364   1.858  0.3599  0.1313  0.2523
 7335SOL     OW29111   5.451   6.029   4.560 -0.3366  0.1909  0.7149
 7335SOL    HW229112   5.499   6.110   4.575 -0.0233 -0.1147  1.4104
 7335SOL    HW329113   5.443   6.023   4.465  0.1834  0.7227  0.6334
 7335SOL    MW429114   5.456   6.039   4.549 -0.4201 -0.1257  0.2990
 7336SOL     OW29115   3.636   2.597   3.969 -0.1826 -0.1338  0.9567
 7336SOL    HW229116   3.684   2.598   3.886  1.9824  0.0046  2.1337
 7336SOL    HW329117   3.704   2.591   4.036 -1.8421  0.1183  2.7570
 7336SOL    MW429118   3.651   2.596   3.967 -0.0824  0.0167  0.1086
 7337SOL     OW29119   4.610   4.126   3.761  0.1850 -0.4494 -0.3528
 7337SOL    HW229120   4.652   4.045   3.789  1.7425  0.3398 -0.2802
 7337SOL    HW329121   4.520   4.120   3.795  0.9548 -1.1078  1.7232
 7337SOL    MW429122   4.603   4.115   3.769 -0.7050 -0.0061  0.5024
 7338SOL     OW29123   4.930   4.547   1.165 -0.6227 -0.9646  0.1515
 7338SOL    HW229124   4.955   4.454   1.170 -0.2815 -1.0258 -1.6913
 7338SOL    HW329125   4.848   4.546   1.116  0.5594 -0.1913 -1.9630
 7338SOL    MW429126   4.923   4.534   1.159 -0.1106  0.8360  0.1100
 7339SOL     OW29127   1.881   2.548   0.626 -0.0140 -0.4447 -0.2529
 7339SOL    HW229128   1.972   2.527   0.607 -0.2416 -2.6216  0.7602
 7339SOL    HW329129   1.885   2.607   0.702  0.5532 -1.2266  0.3380
 7339SOL    MW429130   1.893   2.553   0.634  0.3079  0.2726 -0.1516
 7340SOL     OW29131   1.482   3.881   0.903 -0.1389  0.1532  0.3924
 7340SOL    HW229132   1.556   3.907   0.847 -1.5666  0.4106 -1.4731
 7340SOL    HW329133   1.517   3.812   0.959  1.7482  0.9099  0.2166
 7340SOL    MW429134   1.496   3.875   0.903  0.1218 -0.3236 -0.5333
 7341SOL     OW29135   2.808   1.004   2.350 -0.2471 -0.0104  0.2176
 7341SOL    HW229136   2.883   1.015   2.292 -1.4628 -0.4763 -1.5015
 7341SOL    HW329137   2.828   0.925   2.400  0.6589  0.2059  0.2195
 7341SOL    MW429138   2.821   0.995   2.349 -0.1023 -0.5454  0.2182
 7342SOL     OW29139   1.437   0.131   5.501  0.0942 -1.0736  0.5681
 7342SOL    HW229140   1.359   0.143   5.556  0.5251 -1.6442  1.3200
 7342SOL    HW329141   1.499   0.084   5.556  1.3905  0.2901  0.3547
 7342SOL    MW429142   1.435   0.126   5.515 -0.3399  0.1022 -0.4369
 7343SOL     OW29143   2.236   6.181   4.810 -0.7692  0.1848  0.3403
 7343SOL    HW229144   2.222   6.210   4.720 -1.0497  0.6911  0.5453
 7343SOL    HW329145   2.181   6.103   4.819  0.0791 -0.5097 -0.2466
 7343SOL    MW429146   2.227   6.174   4.799  0.2113  0.0681 -0.4885
 7344SOL     OW29147   0.475   4.553   5.218  0.2176 -0.1997  0.0906
 7344SOL    HW229148   0.385   4.522   5.227  0.1304  0.0835  0.2117
 7344SOL    HW329149   0.529   4.479   5.244  0.0087 -0.0878  0.8693
 7344SOL    MW429150   0.470   4.539   5.222 -0.8369  0.0182  0.1488
 7345SOL     OW29151   5.987   1.338   5.830 -0.6479 -0.0511 -0.0321
 7345SOL    HW229152   5.992   1.302   5.918  0.8285  0.3337  0.0697
 7345SOL    HW329153   6.060   1.401   5.825 -0.1341 -0.7220 -1.8034
 7345SOL    MW429154   5.997   1.342   5.841 -0.6196  0.3927 -0.8722
 7346SOL     OW29155   2.317   0.050   2.470 -0.3257  0.1974  0.0092
 7346SOL    HW229156   2.352  -0.037   2.450  2.0415  0.8573  0.9149
 7346SOL    HW329157   2.393   0.100   2.501 -2.3144  1.3822  3.5181
 7346SOL    MW429158   2.331   0.045   2.471 -0.1402 -0.3803  0.3962
 7347SOL     OW29159   1.056   6.033   5.359  0.1040  0.5093 -0.0729
 7347SOL    HW229160   1.039   6.127   5.371  0.2308  0.3435  1.6485
 7347SOL    HW329161   1.137   6.030   5.309  0.4336  1.3400  0.3776
 7347SOL    MW429162   1.064   6.045   5.354 -0.4155  0.1243  0.3727
 7348SOL     OW29163   3.763   6.350   2.711  0.2895 -0.3182 -0.1236
 7348SOL    HW229164   3.827   6.356   2.640 -0.6599  0.4688 -0.9374
 7348SOL    HW329165   3.752   6.256   2.726  0.1197 -0.5174 -1.3906
 7348SOL    MW429166   3.770   6.339   2.704 -0.2537 -0.1365 -0.2280
 7349SOL     OW29167   2.750   0.496   2.079  0.4656  0.3028  0.2256
 7349SOL    HW229168   2.714   0.510   2.167 -1.5396 -0.5871 -0.3952
 7349SOL    HW329169   2.751   0.401   2.069 -0.7301  0.4079 -1.2154
 7349SOL    MW429170   2.745   0.485   2.089 -0.4365 -0.4004 -0.1794
 7350SOL     OW29171   3.637   3.111   5.187  0.1647  0.7599 -0.1732
 7350SOL    HW229172   3.650   3.181   5.251 -2.2087 -0.3532  1.6927
 7350SOL    HW329173   3.680   3.035   5.226 -0.8505  0.1946 -0.1317
 7350SOL    MW429174   3.645   3.110   5.201  0.0256  0.3881 -0.0809
 7351SOL     OW29175   3.904   3.260   4.572 -0.0371 -0.5425  0.0232
 7351SOL    HW229176   3.991   3.227   4.550 -0.3331 -1.9682  0.8545
 7351SOL    HW329177   3.854   3.250   4.490 -0.1575 -2.4224  0.2656
 7351SOL    MW429178   3.909   3.254   4.558 -0.5726  0.3465 -0.5067
 7352SOL     OW29179   1.082   4.584   5.141 -0.5055  0.6059 -0.5166
 7352SOL    HW229180   1.090   4.677   5.162 -1.7472  0.9402 -1.4117
 7352SOL    HW329181   1.161   4.563   5.092 -0.2935  1.2255 -0.4459
 7352SOL    MW429182   1.094   4.593   5.138 -0.7015 -0.3563  0.4848
 7353SOL     OW29183   2.963   2.138   2.423  0.2724 -0.1130 -0.3473
 7353SOL    HW229184   3.012   2.155   2.503 -0.2858  0.5365 -0.1345
 7353SOL    HW329185   2.890   2.082   2.450 -1.0488  1.6879  0.0006
 7353SOL    MW429186   2.960   2.133   2.437 -0.0813  0.0371  0.0803
 7354SOL     OW29187   3.891   1.008   0.478  0.1856 -0.4106 -0.2824
 7354SOL    HW229188   3.892   0.971   0.566  1.6740 -0.6413 -0.3579
 7354SOL    HW329189   3.859   0.938   0.422 -1.5918  0.0136  0.1552
 7354SOL    MW429190   3.887   0.994   0.482 -0.1370 -0.2813  0.2035
 7355SOL     OW29191   5.264   4.110   2.047 -0.3715 -0.1625 -0.1035
 7355SOL    HW229192   5.186   4.077   2.002 -0.6604  0.0066  0.2690
 7355SOL    HW329193   5.259   4.205   2.034 -0.0951 -0.1725 -0.2878
 7355SOL    MW429194   5.253   4.118   2.039 -0.6802 -0.1066 -0.1586
 7356SOL     OW29195   1.111   1.263   5.554  0.2459  0.0618 -0.0665
 7356SOL    HW229196   1.094   1.169   5.565  0.8673 -0.1401 -0.7613
 7356SOL    HW329197   1.032   1.305   5.589 -0.2450 -0.7329 -0.1707
 7356SOL    MW429198   1.098   1.256   5.560  0.0259 -0.1922  0.0400
 7357SOL     OW29199   2.944   0.339   1.138  0.3275 -0.2967 -0.4321
 7357SOL    HW229200   3.006   0.281   1.094 -0.7265 -1.4568 -0.4203
 7357SOL    HW329201   2.881   0.362   1.070  0.7335  0.8905 -0.4442
 7357SOL    MW429202   2.944   0.335   1.123  0.1050  0.4289  0.2094
 7358SOL     OW29203   3.153   6.147   3.205  0.3728  0.2799  0.4403
 7358SOL    HW229204   3.151   6.211   3.277  2.1357  2.3853 -1.2405
 7358SOL    HW329205   3.210   6.077   3.237  1.5478  1.4208  0.9531
 7358SOL    MW429206   3.160   6.146   3.219 -0.6527 -0.1889 -0.2997
 7359SOL     OW29207   4.211   2.171   6.251 -0.3099 -0.0651  0.2738
 7359SOL    HW229208   4.307   2.168   6.250 -0.2451  1.4792 -0.3427
 7359SOL    HW329209   4.186   2.112   6.322  1.3213  3.5418  4.2817
 7359SOL    MW429210   4.220   2.162   6.260 -0.1880  0.3006 -0.4813
 7360SOL     OW29211   3.780   0.023   2.968 -0.1346  0.0099  0.4255
 7360SOL    HW229212   3.701   0.058   3.009 -0.6715 -0.1747 -0.4336
 7360SOL    HW329213   3.755   0.005   2.877  0.8925 -0.0550  0.1387
 7360SOL    MW429214   3.766   0.025   2.962  0.5238  0.3115  0.5981
 7361SOL     OW29215   4.775   2.929   0.575 -0.3734  0.2907  0.3341
 7361SOL    HW229216   4.734   2.954   0.657 -1.3351 -1.7501  0.5425
 7361SOL    HW329217   4.867   2.914   0.597  0.4094  3.8047  0.0915
 7361SOL    MW429218   4.782   2.930   0.589  0.5641  0.1791  0.2033
 7362SOL     OW29219   5.078   5.398   3.830  0.1488 -0.1820  0.0723
 7362SOL    HW229220   5.013   5.397   3.760  0.9833  0.4445 -0.7305
 7362SOL    HW329221   5.049   5.330   3.890  0.4796 -2.1189 -1.8601
 7362SOL    MW429222   5.065   5.389   3.829 -0.3522  0.0420  0.2458
 7363SOL     OW29223   3.406   5.362   1.252 -0.1547 -0.2642 -0.0904
 7363SOL    HW229224   3.488   5.317   1.272  0.0942 -0.2729 -1.0603
 7363SOL    HW329225   3.339   5.295   1.261 -0.2038 -0.0383  1.6482
 7363SOL    MW429226   3.408   5.348   1.256 -0.1308 -0.1911 -0.1858
 7364SOL     OW29227   0.220   4.102   2.166  0.3832 -0.0039  0.4316
 7364SOL    HW229228   0.189   4.017   2.198 -1.1930  0.8990  1.4203
 7364SOL    HW329229   0.145   4.140   2.121  1.5850  0.1832 -1.5355
 7364SOL    MW429230   0.206   4.095   2.164 -0.5754 -0.2496  0.1526
 7365SOL     OW29231   3.925   1.195   3.485 -0.8805  0.3130  0.1276
 7365SOL    HW229232   3.864   1.157   3.422  0.6934 -1.5717 -0.3486
 7365SOL    HW329233   4.005   1.209   3.435 -0.1205  0.3747  1.3342
 7365SOL    MW429234   3.927   1.192   3.470 -0.4974  0.2293  0.1277
 7366SOL     OW29235   4.578   5.016   5.322 -0.5721 -0.1825 -0.0700
 7366SOL    HW229236   4.503   5.046   5.272 -0.2930  0.2749 -0.2254
 7366SOL    HW329237   4.649   5.012   5.258 -0.7930 -1.9934 -0.2304
 7366SOL    MW429238   4.578   5.020   5.307 -0.3382 -0.0645  0.2184
 7367SOL     OW29239   6.430   0.828   1.204 -0.5486  0.4141  0.3928
 7367SOL    HW229240   6.424   0.737   1.235  0.9855  0.2573  0.3180
 7367SOL    HW329241   6.478   0.874   1.273  0.5462  0.6660 -0.5096
 7367SOL    MW429242   6.435   0.822   1.217 -0.6820  0.2120 -0.7080
 7368SOL     OW29243   3.822   3.267   1.401  0.0030  0.4852 -0.1436
 7368SOL    HW229244   3.869   3.335   1.450 -0.4791  0.3066  0.5710
 7368SOL    HW329245   3.742   3.310   1.372 -0.1807  0.2975  0.0861
 7368SOL    MW429246   3.818   3.282   1.404  0.3239 -0.3656  0.8603
 7369SOL     OW29247   3.970   2.937   3.816  0.2829 -0.1361  0.0125
 7369SOL    HW229248   4.002   2.946   3.726  2.2005 -3.3994  0.2161
 7369SOL    HW329249   3.892   2.883   3.808 -0.0201  0.2638  0.2531
 7369SOL    MW429250   3.964   2.931   3.803  0.1299  0.1768 -0.4805
 7370SOL     OW29251   2.699   5.855   4.604 -0.2117  0.7415  0.0333
 7370SOL    HW229252   2.694   5.822   4.514 -1.1611 -0.0345  0.3487
 7370SOL    HW329253   2.636   5.801   4.653  0.8885  0.5898  1.3401
 7370SOL    MW429254   2.690   5.843   4.599  0.4175  0.2215  0.6475
 7371SOL     OW29255   2.622   2.618   3.733 -0.6414 -0.1187 -0.2055
 7371SOL    HW229256   2.649   2.687   3.672 -1.5422  0.3741 -0.0659
 7371SOL    HW329257   2.622   2.538   3.681 -0.7352  0.1894 -0.6858
 7371SOL    MW429258   2.625   2.616   3.719 -0.1340  1.1445 -0.8705
 7372SOL     OW29259   1.234   2.810   3.318  0.4538 -0.0118  0.3757
 7372SOL    HW229260   1.314   2.851   3.286  0.8868 -0.8294  0.3807
 7372SOL    HW329261   1.210   2.861   3.396 -0.7269  2.1175 -1.2847
 7372SOL    MW429262   1.241   2.822   3.324 -0.1614  0.5308 -0.2494
 7373SOL     OW29263   0.470   3.336   1.667 -0.3299  0.0755 -0.2900
 7373SOL    HW229264   0.439   3.375   1.749 -0.1797  1.6789 -0.9572
 7373SOL    HW329265   0.486   3.244   1.689  0.2765  0.5817  1.6368
 7373SOL    MW429266   0.468   3.329   1.681 -0.3213  0.2241  0.3898
 7374SOL     OW29267   5.488   5.866   5.552 -0.1455  0.3788 -0.6035
 7374SOL    HW229268   5.509   5.923   5.625  0.1430 -1.0955  0.5071
 7374SOL    HW329269   5.422   5.806   5.586  0.2579 -0.5718 -1.4275
 7374SOL    MW429270   5.482   5.866   5.566  0.3065 -0.2366 -0.3990
 7375SOL     OW29271   1.881   3.711   5.643  0.2927 -0.3270  0.5909
 7375SOL    HW229272   1.962   3.661   5.631  1.0173  1.0238 -0.4012
 7375SOL    HW329273   1.827   3.656   5.700  1.2844 -1.9535  0.0234
 7375SOL    MW429274   1.884   3.697   5.649 -0.5347 -0.5563 -0.0710
 7376SOL     OW29275   0.289   4.001   2.946  1.0091  0.0434 -0.6620
 7376SOL    HW229276   0.335   4.061   3.004 -2.4244  1.0199  1.3790
 7376SOL    HW329277   0.313   4.028   2.857  2.4196  1.9921  0.2599
 7376SOL    MW429278   0.298   4.013   2.942  0.5642  0.2307  0.0249
 7377SOL     OW29279   1.739   3.051   1.767  0.1898 -0.1942  0.2443
 7377SOL    HW229280   1.760   2.971   1.719 -0.0677 -0.7832  1.0958
 7377SOL    HW329281   1.728   3.023   1.858  1.7754  1.0517  0.8790
 7377SOL    MW429282   1.741   3.037   1.773 -0.0670  0.1168  0.4364
 7378SOL     OW29283   3.862   4.166   5.903 -0.3532 -0.1223  0.1235
 7378SOL    HW229284   3.823   4.243   5.861  3.1559  1.2582 -0.9392
 7378SOL    HW329285   3.852   4.096   5.839  0.6232  0.7405 -1.0254
 7378SOL    MW429286   3.856   4.167   5.889 -0.0072 -0.5240 -0.1036
 7379SOL     OW29287   4.167   4.623   0.310 -0.1646  0.4622  0.2395
 7379SOL    HW229288   4.093   4.631   0.369 -0.2800 -0.8483  0.2879
 7379SOL    HW329289   4.133   4.647   0.224  0.1914  3.1782  0.7551
 7379SOL    MW429290   4.153   4.627   0.306 -0.5606  0.2935 -0.4856
 7380SOL     OW29291   5.939   3.319   2.457 -0.7973  0.2491  0.4824
 7380SOL    HW229292   6.034   3.317   2.464 -0.6476 -0.4362 -1.2652
 7380SOL    HW329293   5.920   3.282   2.371 -2.6191  0.9540  0.5250
 7380SOL    MW429294   5.949   3.314   2.447  0.1155 -0.0793 -0.0609
 7381SOL     OW29295   1.038   3.718   5.770 -0.0454  0.3996 -0.2691
 7381SOL    HW229296   1.048   3.810   5.795 -0.3911  0.4026 -0.1336
 7381SOL    HW329297   0.982   3.681   5.839  0.8061 -0.1241  0.1634
 7381SOL    MW429298   1.032   3.725   5.783  0.5680  0.3184 -0.5689
 7382SOL     OW29299   3.815   3.078   3.277  0.1005  0.2342 -0.1045
 7382SOL    HW229300   3.827   3.073   3.372 -1.7076 -0.3360  0.1390
 7382SOL    HW329301   3.853   3.162   3.252 -1.3885  1.4640  1.5007
 7382SOL    MW429302   3.821   3.088   3.287  0.4488 -0.7218 -0.0017
 7383SOL     OW29303   2.008   2.269   4.762 -0.1348  0.5102 -0.4171
 7383SOL    HW229304   1.933   2.315   4.724  1.1632  2.1098 -1.1744
 7383SOL    HW329305   1.991   2.269   4.856 -1.4076  0.1910 -0.6196
 7383SOL    MW429306   1.996   2.275   4.769 -0.7128  0.3287 -0.8167
 7384SOL     OW29307   1.900   4.409   0.970  0.0161  0.1420  0.6742
 7384SOL    HW229308   1.857   4.431   1.052 -2.4150  3.2738 -1.1942
 7384SOL    HW329309   1.960   4.482   0.953  0.1555 -0.2169 -0.5257
 7384SOL    MW429310   1.903   4.421   0.978  0.5732 -0.8393 -0.8059
 7385SOL     OW29311   5.982   2.063   5.816  0.1631  0.2522 -0.0099
 7385SOL    HW229312   6.071   2.040   5.787 -0.2690 -1.1000 -0.3258
 7385SOL    HW329313   5.991   2.081   5.910  0.7856  0.2606 -0.0669
 7385SOL    MW429314   5.995   2.063   5.824  1.1963 -0.1572  0.6760
 7386SOL     OW29315   5.464   1.854   4.308 -0.7921  0.4522 -0.3281
 7386SOL    HW229316   5.482   1.769   4.269 -0.3972  0.6408 -0.5646
 7386SOL    HW329317   5.375   1.875   4.280 -0.9436  0.0467 -0.1406
 7386SOL    MW429318   5.455   1.846   4.299  0.2122 -0.3774 -0.8260
 7387SOL     OW29319   0.844   4.218   2.388 -0.9819 -0.1396 -0.4898
 7387SOL    HW229320   0.820   4.299   2.432 -1.2674 -1.2847  1.6055
 7387SOL    HW329321   0.796   4.220   2.305 -0.6496  1.9792 -0.6842
 7387SOL    MW429322   0.835   4.229   2.383 -0.1962  0.3181 -0.1222
 7388SOL     OW29323   2.568   1.736   2.232  0.2513 -0.0469 -0.1748
 7388SOL    HW229324   2.621   1.806   2.194 -0.2886  0.0205 -0.8176
 7388SOL    HW329325   2.567   1.668   2.164 -1.5872  0.4961 -0.7351
 7388SOL    MW429326   2.575   1.736   2.218  0.4331 -0.0857 -0.2381
 7389SOL     OW29327   4.219   1.010   0.513 -0.0580 -0.3531 -0.0040
 7389SOL    HW229328   4.253   0.921   0.505  0.3295 -0.1339 -0.8582
 7389SOL    HW329329   4.125   1.001   0.494  0.0247 -0.5416 -0.3248
 7389SOL    MW429330   4.211   0.997   0.509  0.1286 -0.2738  0.0264
 7390SOL     OW29331   2.141   0.646   3.657  0.2571  0.5775 -0.7264
 7390SOL    HW229332   2.105   0.732   3.636 -0.8736 -0.2578 -2.5074
 7390SOL    HW329333   2.118   0.632   3.749 -0.5169  1.7372 -0.7237
 7390SOL    MW429334   2.133   0.655   3.666 -0.2942 -0.3978  0.1117
 7391SOL     OW29335   3.936   0.354   1.307 -0.7821  0.3295 -0.1266
 7391SOL    HW229336   3.947   0.261   1.327  1.4529  0.8875  1.5592
 7391SOL    HW329337   3.865   0.382   1.365 -0.7822 -0.0833  0.0774
 7391SOL    MW429338   3.928   0.345   1.317  0.8416  0.1894 -0.1276
 7392SOL     OW29339   5.449   2.834   3.430  0.1337  0.1030  0.7820
 7392SOL    HW229340   5.525   2.792   3.390 -1.0973 -0.0311 -1.5943
 7392SOL    HW329341   5.376   2.775   3.411 -1.0264  1.5377  0.5554
 7392SOL    MW429342   5.449   2.821   3.422 -0.2515  0.3985 -1.0334
 7393SOL     OW29343   1.540   1.986   0.404  0.0207  0.1200  0.4979
 7393SOL    HW229344   1.463   2.027   0.365 -0.3769 -0.3431  0.7857
 7393SOL    HW329345   1.602   1.977   0.331 -1.3464 -2.3055 -0.4766
 7393SOL    MW429346   1.538   1.990   0.389  0.0610  0.0079 -0.2628
 7394SOL     OW29347   1.921   2.670   2.341 -0.3226 -0.2799 -0.3330
 7394SOL    HW229348   1.869   2.745   2.369 -0.1062  0.4926 -1.9421
 7394SOL    HW329349   1.937   2.621   2.422 -0.3912  1.4329  0.7597
 7394SOL    MW429350   1.916   2.673   2.356 -0.0572  0.0258  0.3691
 7395SOL     OW29351   6.004   2.759   1.256 -0.4137 -0.1553  0.5133
 7395SOL    HW229352   6.036   2.824   1.194 -1.0127 -0.0507  0.3105
 7395SOL    HW329353   5.935   2.804   1.304  0.1814 -0.1648  1.4081
 7395SOL    MW429354   5.999   2.774   1.254 -0.1968 -0.5456 -0.2404
 7396SOL     OW29355   0.364   4.883   0.611  0.1463  0.0575 -0.2418
 7396SOL    HW229356   0.378   4.849   0.700  0.1428  0.7074  0.0137
 7396SOL    HW329357   0.450   4.882   0.571  0.1062 -0.4783 -0.3221
 7396SOL    MW429358   0.377   4.878   0.617 -0.3399 -0.2875  0.5692
 7397SOL     OW29359   1.750   0.171   3.793  0.3724 -0.1213 -0.2194
 7397SOL    HW229360   1.753   0.086   3.749 -2.5192 -0.3580 -0.1595
 7397SOL    HW329361   1.686   0.159   3.863 -0.3993  2.2189 -0.4601
 7397SOL    MW429362   1.742   0.158   3.797  0.7464 -0.0377  0.5841
 7398SOL     OW29363   5.282   1.916   4.626  0.5367  0.0938 -0.4685
 7398SOL    HW229364   5.340   1.991   4.611  0.3964  0.0986 -1.0055
 7398SOL    HW329365   5.204   1.954   4.667 -0.8299  0.7560 -3.3808
 7398SOL    MW429366   5.280   1.931   4.629  0.3375 -0.1452 -0.8976
 7399SOL     OW29367   6.244   4.913   4.494  0.0034 -0.0756  0.0302
 7399SOL    HW229368   6.181   4.885   4.428  0.0242 -0.8972  0.3437
 7399SOL    HW329369   6.193   4.965   4.555 -0.0255  0.6484 -0.5975
 7399SOL    MW429370   6.229   4.916   4.493  0.2216  0.5024 -0.2292
 7400SOL     OW29371   5.507   2.121   0.235  0.1367 -0.2046  0.2522
 7400SOL    HW229372   5.485   2.040   0.189 -0.4162 -1.1334  2.0553
 7400SOL    HW329373   5.423   2.154   0.267  0.4987  0.4163  0.5865
 7400SOL    MW429374   5.493   2.115   0.234 -0.5123  0.1639  0.1680
 7401SOL     OW29375   5.594   3.943   2.579 -0.1570 -0.2559  0.1863
 7401SOL    HW229376   5.515   3.985   2.546 -0.1638 -1.4589 -1.4154
 7401SOL    HW329377   5.564   3.863   2.621  0.1172 -0.1640  0.5609
 7401SOL    MW429378   5.580   3.938   2.580 -0.7404 -0.0279  0.4097
 7402SOL     OW29379   4.372   4.142   3.937 -0.2884  0.0847  0.2126
 7402SOL    HW229380   4.300   4.149   4.000 -2.2049  0.4621 -1.9187
 7402SOL    HW329381   4.423   4.223   3.951 -1.4099  0.7774  0.4380
 7402SOL    MW429382   4.369   4.154   3.947  0.3657 -0.1208  0.8770
 7403SOL     OW29383   2.632   6.226   1.916  0.0050 -0.8300  0.0388
 7403SOL    HW229384   2.564   6.254   1.978 -0.2067 -1.4863  0.1132
 7403SOL    HW329385   2.628   6.130   1.918 -0.9255 -0.8924 -1.9842
 7403SOL    MW429386   2.623   6.217   1.925  0.4755  0.4416  0.2414
 7404SOL     OW29387   2.221   0.504   0.809  0.1070  0.1022 -0.0719
 7404SOL    HW229388   2.176   0.478   0.890  0.5985  0.6969  0.4012
 7404SOL    HW329389   2.237   0.598   0.819  0.4850  0.1122 -0.7095
 7404SOL    MW429390   2.217   0.513   0.821  0.4588 -0.1983  0.6312
 7405SOL     OW29391   1.096   3.441   1.269 -0.3538 -0.4334  0.3573
 7405SOL    HW229392   1.106   3.533   1.291 -0.1992 -0.7348  1.6886
 7405SOL    HW329393   1.009   3.434   1.230 -0.2096  0.3297 -0.1029
 7405SOL    MW429394   1.086   3.452   1.267 -0.6676  0.1469  0.6272
 7406SOL     OW29395   3.526   4.558   4.320  0.1186  0.1358 -0.1764
 7406SOL    HW229396   3.617   4.558   4.291  0.4688  0.8426  0.8585
 7406SOL    HW329397   3.506   4.466   4.339  1.1121  0.1501  1.0331
 7406SOL    MW429398   3.535   4.546   4.319 -0.1488 -0.0108 -0.0832
 7407SOL     OW29399   1.352   5.083   3.390  0.0484 -0.1188 -0.4257
 7407SOL    HW229400   1.399   5.002   3.406  2.0294  1.3170  1.7474
 7407SOL    HW329401   1.383   5.113   3.304 -2.1034 -2.4388 -2.1379
 7407SOL    MW429402   1.362   5.077   3.381 -0.1189  0.3338  0.3333
 7408SOL     OW29403   0.298   5.749   2.051  0.5889 -0.1899  0.1980
 7408SOL    HW229404   0.367   5.683   2.049  4.1583  3.1240 -1.6233
 7408SOL    HW329405   0.291   5.773   2.144  2.2447 -0.3625  0.4018
 7408SOL    MW429406   0.306   5.744   2.063  0.3310 -0.6399  0.1770
 7409SOL     OW29407   3.623   2.268   5.808 -0.3964 -0.1730  0.4499
 7409SOL    HW229408   3.632   2.337   5.742  1.1410 -1.2928 -0.5937
 7409SOL    HW329409   3.711   2.262   5.847 -0.5677 -1.3707  0.6733
 7409SOL    MW429410   3.636   2.276   5.805 -0.0307  0.1984 -0.1020
 7410SOL     OW29411   3.331   4.760   0.728 -0.1554 -0.1179  0.1792
 7410SOL    HW229412   3.307   4.721   0.644  1.0110  1.2236 -0.8296
 7410SOL    HW329413   3.403   4.820   0.707  0.2385  0.1742  2.1588
 7410SOL    MW429414   3.337   4.763   0.714 -0.2398 -0.5795 -0.1626
 7411SOL     OW29415   5.571   3.433   5.774  0.1502 -0.3944 -0.3152
 7411SOL    HW229416   5.615   3.403   5.854  1.3470  2.0322  0.0048
 7411SOL    HW329417   5.534   3.518   5.798 -1.3507 -0.5992 -1.7563
 7411SOL    MW429418   5.572   3.440   5.788  0.4312  0.3812 -0.2006
 7412SOL     OW29419   4.605   5.746   2.757 -0.4953 -0.1466 -0.2194
 7412SOL    HW229420   4.599   5.696   2.839  0.2736 -0.0012 -0.0689
 7412SOL    HW329421   4.698   5.761   2.745 -0.6894  0.9610 -0.4412
 7412SOL    MW429422   4.616   5.742   2.767  0.8056 -0.0974  0.1623
 7413SOL     OW29423   5.434   2.353   5.886  0.0738  0.3434  0.0656
 7413SOL    HW229424   5.438   2.448   5.900 -0.2140  0.3640  0.0268
 7413SOL    HW329425   5.496   2.336   5.816 -0.5543  0.6361 -0.5716
 7413SOL    MW429426   5.443   2.363   5.879 -0.1953  0.0456  0.3087
 7414SOL     OW29427   1.047   1.882   1.154  0.2724  0.0916 -0.8347
 7414SOL    HW229428   0.977   1.943   1.134  1.0207  1.2205 -0.1368
 7414SOL    HW329429   1.046   1.873   1.249 -0.1579 -1.4265 -0.9500
 7414SOL    MW429430   1.038   1.889   1.164  0.2737  0.3206  0.1416
 7415SOL     OW29431   6.398   5.695   0.265 -0.4984 -0.0784  0.3907
 7415SOL    HW229432   6.362   5.609   0.243  2.4067 -1.3457  0.0117
 7415SOL    HW329433   6.357   5.755   0.203 -3.0620 -1.0055  1.0471
 7415SOL    MW429434   6.388   5.692   0.254 -0.3517  0.1234  0.6560
 7416SOL     OW29435   4.754   0.763   0.572 -0.7656  0.1889  0.2256
 7416SOL    HW229436   4.666   0.743   0.603 -0.6412  0.2338  0.6207
 7416SOL    HW329437   4.770   0.852   0.603 -0.3170 -0.0752  0.7686
 7416SOL    MW429438   4.744   0.772   0.581 -0.3536  0.3084 -0.7517
 7417SOL     OW29439   0.093   3.854   6.172 -0.4427  0.3211 -0.3172
 7417SOL    HW229440   0.104   3.760   6.156 -0.6899  0.4513 -1.3656
 7417SOL    HW329441   0.014   3.877   6.123 -0.2071  1.1343 -0.3332
 7417SOL    MW429442   0.084   3.845   6.163  0.4022  0.3369  0.5069
 7418SOL     OW29443   4.636   4.697   0.570 -0.0488 -0.3804 -0.2708
 7418SOL    HW229444   4.546   4.722   0.549  0.0810  1.7773  1.3849
 7418SOL    HW329445   4.681   4.696   0.486 -0.6323  3.0449 -0.7731
 7418SOL    MW429446   4.630   4.700   0.556 -0.0040 -0.0135  0.1279
 7419SOL     OW29447   2.555   2.914   4.029 -0.0981 -0.0369 -0.2990
 7419SOL    HW229448   2.476   2.893   3.979 -0.0819 -1.2723  0.1592
 7419SOL    HW329449   2.616   2.947   3.964 -0.8368  0.5419 -0.7261
 7419SOL    MW429450   2.552   2.916   4.014  0.1847 -0.2329  0.1271
 7420SOL     OW29451   5.384   3.206   0.184  0.1146 -0.1113 -0.1178
 7420SOL    HW229452   5.390   3.251   0.099 -0.0958  1.7007  0.7830
 7420SOL    HW329453   5.343   3.269   0.242 -1.9876 -2.1575  0.7918
 7420SOL    MW429454   5.379   3.220   0.180  0.3823  0.0260  0.6697
 7421SOL     OW29455   2.157   0.041   3.824  0.3314 -0.1230  0.0869
 7421SOL    HW229456   2.139   0.117   3.878  0.1573  1.0293 -1.5102
 7421SOL    HW329457   2.251   0.028   3.831  0.4711  0.6891 -0.1690
 7421SOL    MW429458   2.167   0.049   3.832 -0.2660 -0.5047 -0.1918
 7422SOL     OW29459   3.435   4.926   1.788  0.1305  0.6301 -0.2754
 7422SOL    HW229460   3.436   4.957   1.879 -0.5272  4.3772 -1.4079
 7422SOL    HW329461   3.524   4.942   1.756 -0.1462  1.1590 -0.8053
 7422SOL    MW429462   3.447   4.932   1.796 -0.1017 -0.1771  0.0840
 7423SOL     OW29463   4.969   6.123   0.230  0.3060  0.7501 -0.8490
 7423SOL    HW229464   4.954   6.083   0.316  2.1233  0.7581 -0.4961
 7423SOL    HW329465   5.026   6.062   0.184  0.0654  1.1734 -1.7292
 7423SOL    MW429466   4.974   6.110   0.236 -0.1260 -0.0687 -1.4911
 7424SOL     OW29467   1.247   5.320   3.708 -0.3343  0.0036 -0.0554
 7424SOL    HW229468   1.228   5.239   3.662 -0.7782  1.0940 -1.9094
 7424SOL    HW329469   1.259   5.385   3.638  0.2902  1.4756  1.3486
 7424SOL    MW429470   1.246   5.318   3.692  0.0108 -0.7958 -0.6065
 7425SOL     OW29471   0.359   4.177   2.400  0.2632  0.2428 -0.1714
 7425SOL    HW229472   0.441   4.128   2.396 -0.4986 -1.0261 -1.7586
 7425SOL    HW329473   0.306   4.140   2.328 -2.2048  0.0434  1.6122
 7425SOL    MW429474   0.363   4.166   2.390 -0.0148 -0.0646  0.1184
 7426SOL     OW29475   0.730   4.058   1.750  0.1664  0.1488 -0.4085
 7426SOL    HW229476   0.799   4.023   1.806 -1.1022 -2.7055 -0.4697
 7426SOL    HW329477   0.752   4.026   1.662 -1.3440 -1.0671 -0.3758
 7426SOL    MW429478   0.742   4.049   1.746 -0.6420  0.1041  0.0660
 7427SOL     OW29479   5.016   0.613   1.877  0.7223 -0.7407 -0.0111
 7427SOL    HW229480   5.005   0.535   1.823  0.1069 -0.9578  0.4321
 7427SOL    HW329481   5.032   0.581   1.965 -0.7028 -0.3718  0.4046
 7427SOL    MW429482   5.017   0.599   1.881 -0.9884 -0.0019 -0.0532
 7428SOL     OW29483   4.953   2.035   2.299 -0.2772  0.0947  0.2647
 7428SOL    HW229484   5.031   2.089   2.314 -1.0130  0.6019  2.6584
 7428SOL    HW329485   4.969   1.955   2.349 -0.9839 -0.1383  0.1342
 7428SOL    MW429486   4.965   2.031   2.307 -0.5344 -0.0443 -0.1491
 7429SOL     OW29487   3.396   5.003   4.605 -0.0177 -0.2634  0.0512
 7429SOL    HW229488   3.338   4.990   4.530 -0.2558  1.5408 -0.1392
 7429SOL    HW329489   3.463   5.063   4.573 -0.2543  0.7297  1.2996
 7429SOL    MW429490   3.397   5.009   4.591  0.3204  0.1342  0.6039
 7430SOL     OW29491   2.768   5.808   0.343 -0.9390 -0.3514 -0.0562
 7430SOL    HW229492   2.855   5.848   0.354 -0.5849 -0.7427 -1.2677
 7430SOL    HW329493   2.729   5.856   0.270 -0.4071 -2.2798 -1.7322
 7430SOL    MW429494   2.774   5.820   0.335  0.1867  0.6905  0.8014
 7431SOL     OW29495   0.345   0.852   4.577 -0.2630  0.1974  0.5601
 7431SOL    HW229496   0.297   0.896   4.647  0.5322 -1.3008  2.1242
 7431SOL    HW329497   0.278   0.814   4.521 -0.9199  1.7697  0.2481
 7431SOL    MW429498   0.330   0.853   4.579 -0.0394  0.2321  0.1991
 7432SOL     OW29499   5.473   1.223   3.852 -0.2747 -0.5280  0.0765
 7432SOL    HW229500   5.481   1.315   3.879 -0.7893 -0.2728 -0.6218
 7432SOL    HW329501   5.419   1.226   3.773 -1.5394 -1.5534  0.8644
 7432SOL    MW429502   5.467   1.236   3.845 -0.2475 -0.2421  0.3954
 7433SOL     OW29503   4.565   5.231   5.552 -0.0897  0.3202  0.1906
 7433SOL    HW229504   4.472   5.214   5.566 -1.0952  3.3236 -1.9079
 7433SOL    HW329505   4.586   5.185   5.471 -0.6548  1.9853 -0.9792
 7433SOL    MW429506   4.555   5.223   5.543 -0.2506 -0.4250  0.3027
 7434SOL     OW29507   5.663   0.829   2.839  0.5970  0.4754 -0.0890
 7434SOL    HW229508   5.739   0.793   2.793  0.1642 -1.4752  0.6308
 7434SOL    HW329509   5.696   0.848   2.927  1.1375  3.1518 -0.7771
 7434SOL    MW429510   5.677   0.827   2.844  0.1977 -0.0837 -0.8733
 7435SOL     OW29511   5.554   4.840   2.698 -0.0376 -0.5471  0.3395
 7435SOL    HW229512   5.525   4.839   2.789 -1.2826  0.1035 -0.0249
 7435SOL    HW329513   5.473   4.834   2.647  0.5071  0.5951 -0.7264
 7435SOL    MW429514   5.539   4.839   2.703 -0.0010  0.3067 -0.2780
 7436SOL     OW29515   4.722   0.235   4.312  0.8589  0.6230  0.1358
 7436SOL    HW229516   4.757   0.246   4.401 -1.0829  0.2100  0.9948
 7436SOL    HW329517   4.660   0.307   4.301 -1.7235 -1.3815  0.6161
 7436SOL    MW429518   4.718   0.246   4.323 -0.0014  0.0271 -0.0675
 7437SOL     OW29519   4.940   5.766   5.423 -0.3449  0.5988  0.5034
 7437SOL    HW229520   5.021   5.809   5.449 -0.7702  0.4679  2.1525
 7437SOL    HW329521   4.900   5.825   5.360  1.5614  0.1197 -1.2654
 7437SOL    MW429522   4.945   5.779   5.418 -0.0952  0.1716  0.6360
 7438SOL     OW29523   5.983   2.967   4.942  0.4936  0.4599 -1.0969
 7438SOL    HW229524   5.991   2.920   4.859 -1.7482 -2.5283  0.2391
 7438SOL    HW329525   6.046   2.925   5.000  1.3191  1.8651 -0.9101
 7438SOL    MW429526   5.993   2.955   4.939 -0.2981  0.2270  0.2119
 7439SOL     OW29527   1.884   2.032   3.497  0.1019 -0.4497 -0.9504
 7439SOL    HW229528   1.811   2.088   3.470  1.7118  2.5218  0.3663
 7439SOL    HW329529   1.946   2.036   3.424  0.9829  1.0223 -0.1610
 7439SOL    MW429530   1.883   2.040   3.484 -0.2395  0.5656 -0.4414
 7440SOL     OW29531   6.295   6.402   4.871  0.5605 -0.1899 -0.1321
 7440SOL    HW229532   6.278   6.309   4.882 -0.8979  0.1757  1.1272
 7440SOL    HW329533   6.382   6.415   4.910  0.9390 -1.0643 -0.6587
 7440SOL    MW429534   6.305   6.392   4.878  0.1038 -0.1238 -0.2162
 7441SOL     OW29535   1.654   6.283   0.229 -0.5208  0.9390  0.0218
 7441SOL    HW229536   1.649   6.220   0.301 -0.7392  0.5926 -0.2948
 7441SOL    HW329537   1.713   6.351   0.261  2.1804 -0.8711 -0.7315
 7441SOL    MW429538   1.661   6.284   0.243  0.7041  0.4102  0.4673
 7442SOL     OW29539   3.388   1.647   3.287  0.4189 -0.0386 -0.2106
 7442SOL    HW229540   3.397   1.559   3.250  2.0723  0.4272 -1.0199
 7442SOL    HW329541   3.325   1.637   3.358 -1.7874 -1.2624 -2.2021
 7442SOL    MW429542   3.381   1.634   3.291 -0.0099  0.9327 -0.6369
 7443SOL     OW29543   1.426   0.408   6.046 -1.0135 -0.7079 -0.7107
 7443SOL    HW229544   1.402   0.381   5.957  0.7559  0.7980 -1.7289
 7443SOL    HW329545   1.435   0.503   6.040 -0.2575 -0.6470  0.9262
 7443SOL    MW429546   1.424   0.417   6.033 -0.1095 -0.0307  0.3446
 7444SOL     OW29547   1.265   5.141   0.481  0.2379 -0.4315 -0.3573
 7444SOL    HW229548   1.259   5.217   0.540 -0.8455 -1.8398  1.4714
 7444SOL    HW329549   1.352   5.147   0.443  1.3778  0.1382  2.1086
 7444SOL    MW429550   1.276   5.152   0.484 -0.0181  0.5307 -0.2091
 7445SOL     OW29551   4.193   1.736   2.901  0.4928 -0.0953  0.1928
 7445SOL    HW229552   4.103   1.705   2.917  0.6264 -0.4217  0.3261
 7445SOL    HW329553   4.230   1.747   2.989  0.2390  1.0868  0.1632
 7445SOL    MW429554   4.186   1.733   2.915 -0.2986 -0.2782 -0.0196
 7446SOL     OW29555   4.152   2.358   5.139 -0.1177  0.5643 -0.1881
 7446SOL    HW229556   4.078   2.325   5.190 -0.7229 -0.4350 -1.6448
 7446SOL    HW329557   4.153   2.452   5.157  0.9028  0.0487  3.1416
 7446SOL    MW429558   4.142   2.366   5.148  0.2417  0.5718  0.2386
 7447SOL     OW29559   0.457   5.689   0.759  0.8559  0.1991 -1.0985
 7447SOL    HW229560   0.373   5.733   0.745  1.0075  0.0429 -2.6593
 7447SOL    HW329561   0.522   5.759   0.752  0.8864  0.2680 -0.2029
 7447SOL    MW429562   0.454   5.705   0.756  0.2743 -0.0126 -0.3553
 7448SOL     OW29563   3.851   2.550   5.319  0.6462  0.8258 -0.1652
 7448SOL    HW229564   3.858   2.614   5.390  1.1422  0.4520  0.1284
 7448SOL    HW329565   3.912   2.480   5.343  0.6828  0.6058 -0.8669
 7448SOL    MW429566   3.860   2.549   5.332 -0.2690  0.0054 -0.4317
 7449SOL     OW29567   6.270   3.858   2.209 -0.2385 -0.1936 -0.2174
 7449SOL    HW229568   6.209   3.928   2.187  1.9613  1.8617 -0.2548
 7449SOL    HW329569   6.258   3.792   2.141 -1.5909  0.6772 -0.8500
 7449SOL    MW429570   6.261   3.859   2.198 -0.0169  0.7735 -0.4948
 7450SOL     OW29571   1.161   1.922   5.766 -0.1325  0.3913  0.5459
 7450SOL    HW229572   1.099   1.964   5.707  0.1440 -0.7056 -0.5630
 7450SOL    HW329573   1.155   1.973   5.847 -3.4953 -0.4489  0.9937
 7450SOL    MW429574   1.152   1.934   5.769  0.1005  0.1712  1.1599
 7451SOL     OW29575   3.715   1.788   5.821 -0.1099 -0.1325  0.4226
 7451SOL    HW229576   3.667   1.733   5.760 -0.7816  2.6127 -1.6880
 7451SOL    HW329577   3.800   1.802   5.779 -0.1963  0.9459  0.5757
 7451SOL    MW429578   3.720   1.783   5.807 -0.0462  0.3430 -0.6667
 7452SOL     OW29579   1.197   5.892   2.067 -0.0159  0.3290 -0.3078
 7452SOL    HW229580   1.289   5.869   2.061 -0.3002 -0.6544 -1.1789
 7452SOL    HW329581   1.172   5.868   2.157  1.0755  2.7243  0.7272
 7452SOL    MW429582   1.206   5.886   2.078  0.0407 -0.1963  0.1931
 7453SOL     OW29583   4.511   2.213   4.245  0.5298  0.1926 -0.1663
 7453SOL    HW229584   4.581   2.275   4.264  0.8329 -0.3464  0.5125
 7453SOL    HW329585   4.535   2.134   4.293 -0.9337  0.2461  0.7049
 7453SOL    MW429586   4.523   2.211   4.254 -0.4775  0.1898 -0.3227
 7454SOL     OW29587   2.080   4.592   0.849  0.2093 -0.0777  0.1192
 7454SOL    HW229588   2.046   4.577   0.760  0.5696 -1.6390  0.2065
 7454SOL    HW329589   2.168   4.554   0.847  1.1300  1.9461  0.5159
 7454SOL    MW429590   2.087   4.585   0.837  0.0058  0.1722 -0.0044
 7455SOL     OW29591   0.214   5.907   5.511 -0.1416  0.7257  0.4800
 7455SOL    HW229592   0.256   5.862   5.585 -0.2822  0.1155  0.1989
 7455SOL    HW329593   0.218   5.844   5.439 -0.9565  0.8997  0.2650
 7455SOL    MW429594   0.220   5.893   5.511 -0.2760  1.0238 -0.5002
 7456SOL     OW29595   5.447   4.828   2.973 -0.5963  0.0359 -0.3841
 7456SOL    HW229596   5.453   4.733   2.982  0.0190 -0.0196 -1.2614
 7456SOL    HW329597   5.526   4.860   3.016 -1.6342  0.2869  1.4478
 7456SOL    MW429598   5.458   4.819   2.980  0.5852 -0.3382 -0.7267
 7457SOL     OW29599   1.080   0.032   3.821 -0.1858 -0.0783 -0.3886
 7457SOL    HW229600   1.020   0.092   3.866  0.6145  0.6265 -0.2179
 7457SOL    HW329601   1.033   0.005   3.742 -0.6249  0.6638 -0.3934
 7457SOL    MW429602   1.066   0.037   3.817  0.5322  0.0733 -0.3177
 7458SOL     OW29603   1.848   1.806   2.641  0.2929  0.2450  0.5816
 7458SOL    HW229604   1.893   1.747   2.701 -0.8057 -1.0332  0.2017
 7458SOL    HW329605   1.773   1.756   2.610  0.6083  0.9924 -1.5688
 7458SOL    MW429606   1.844   1.792   2.645  0.4583 -0.0413 -0.2211
 7459SOL     OW29607   0.991   4.583   5.638 -0.0759 -0.0353 -0.1127
 7459SOL    HW229608   0.966   4.491   5.635  1.3787 -0.4636 -0.0626
 7459SOL    HW329609   1.040   4.592   5.720  1.2082  0.3630 -0.8803
 7459SOL    MW429610   0.994   4.572   5.649  0.1639 -0.4388  0.3887
 7460SOL     OW29611   2.275   2.688   1.875  0.3832 -0.2082 -0.6070
 7460SOL    HW229612   2.207   2.735   1.924 -0.3116 -0.3240 -1.4409
 7460SOL    HW329613   2.339   2.756   1.854  0.5610 -0.1057  0.2267
 7460SOL    MW429614   2.274   2.703   1.879 -0.5618 -0.1848 -0.0043
 7461SOL     OW29615   2.749   5.755   3.287 -0.2160  0.0403 -0.5006
 7461SOL    HW229616   2.669   5.790   3.248 -0.1488 -0.3970 -1.0523
 7461SOL    HW329617   2.813   5.825   3.278  0.1927 -0.5076 -2.4901
 7461SOL    MW429618   2.747   5.769   3.280  0.0734  0.5798  0.3694
 7462SOL     OW29619   0.607   4.739   5.871 -0.0624 -0.4374 -0.4030
 7462SOL    HW229620   0.631   4.646   5.875 -1.1017 -0.6752  1.7408
 7462SOL    HW329621   0.665   4.781   5.934 -0.0427  0.2753 -0.8926
 7462SOL    MW429622   0.618   4.732   5.880  0.5143  0.1680  0.2576
 7463SOL     OW29623   5.585   0.763   2.220  0.9020 -0.0079 -0.7615
 7463SOL    HW229624   5.527   0.720   2.157 -0.1368 -1.4319  1.0625
 7463SOL    HW329625   5.553   0.854   2.223 -0.0748 -0.3241 -1.0876
 7463SOL    MW429626   5.573   0.770   2.212 -0.3246 -0.1660  0.5150
 7464SOL     OW29627   0.961   5.878   1.313  0.1839  0.5559  0.6056
 7464SOL    HW229628   0.881   5.870   1.262  1.1365  1.7391 -1.1912
 7464SOL    HW329629   0.937   5.936   1.386 -0.7725  0.3057  0.4961
 7464SOL    MW429630   0.947   5.885   1.316  0.3718  0.4061 -0.0659
 7465SOL     OW29631   6.087   1.401   5.217 -0.5021 -0.3827  0.5149
 7465SOL    HW229632   6.057   1.438   5.300 -3.5489 -1.4409 -0.0043
 7465SOL    HW329633   6.043   1.452   5.150 -0.4799 -1.4602 -0.3558
 7465SOL    MW429634   6.077   1.412   5.219  0.3278 -0.2871 -0.1427
 7466SOL     OW29635   4.033   6.278   1.189 -0.3144 -0.2238 -0.0300
 7466SOL    HW229636   3.996   6.354   1.233 -0.0225  0.6688 -1.2852
 7466SOL    HW329637   3.967   6.209   1.201  1.3539 -1.3955  5.2841
 7466SOL    MW429638   4.019   6.279   1.197  0.1770 -0.4711  0.5381
 7467SOL     OW29639   5.470   1.183   6.228  0.0951  0.4622  0.3980
 7467SOL    HW229640   5.493   1.094   6.256  0.2887  0.5540  0.5325
 7467SOL    HW329641   5.375   1.189   6.241 -0.0077  0.0959 -0.1184
 7467SOL    MW429642   5.460   1.172   6.233 -0.8197  0.8109  0.1907
 7468SOL     OW29643   1.838   1.930   5.647 -0.0425  0.1575  0.0731
 7468SOL    HW229644   1.888   1.940   5.728 -1.0702  1.9486  0.5562
 7468SOL    HW329645   1.800   1.842   5.653  0.4972 -0.0163  1.1945
 7468SOL    MW429646   1.839   1.919   5.659 -0.1345  0.7377 -0.0088
 7469SOL     OW29647   5.104   3.166   3.448  0.3829  0.0343  0.0875
 7469SOL    HW229648   5.041   3.095   3.439  0.2338  0.2605 -0.6985
 7469SOL    HW329649   5.186   3.131   3.414  0.2804  0.2658 -0.4155
 7469SOL    MW429650   5.106   3.152   3.442 -0.0847  0.4948 -0.7480
 7470SOL     OW29651   0.099   6.026   4.938 -0.5171  0.1236  0.6892
 7470SOL    HW229652   0.167   5.968   4.906 -0.6633 -0.0231  0.6440
 7470SOL    HW329653   0.127   6.114   4.912 -0.4891  0.0350  0.4203
 7470SOL    MW429654   0.112   6.030   4.931 -0.0083  0.3087 -0.6022
 7471SOL     OW29655   3.530   0.439   5.600  0.2790 -0.1907 -0.1970
 7471SOL    HW229656   3.554   0.455   5.692  0.1998 -1.6334  0.1021
 7471SOL    HW329657   3.570   0.511   5.552 -0.9525  1.4454  1.1230
 7471SOL    MW429658   3.539   0.450   5.606 -0.1871  0.0182 -0.7725
 7472SOL     OW29659   4.437   1.929   4.605  0.3229  0.3865  0.1958
 7472SOL    HW229660   4.481   2.013   4.592 -0.9693  1.3238  1.5263
 7472SOL    HW329661   4.506   1.864   4.595  1.7537  1.7105  0.9878
 7472SOL    MW429662   4.452   1.932   4.602 -0.3339 -0.2008  0.1704
 7473SOL     OW29663   3.535   1.043   0.880  0.1489  0.2294  0.2820
 7473SOL    HW229664   3.454   1.093   0.881  0.0929  0.1381  0.2465
 7473SOL    HW329665   3.508   0.951   0.887  0.1858  0.1192 -0.8832
 7473SOL    MW429666   3.521   1.037   0.881  0.5192  0.6714  0.0174
 7474SOL     OW29667   0.445   1.567   5.770  0.6787  0.3261 -0.1680
 7474SOL    HW229668   0.435   1.630   5.698  1.8283 -1.1581 -1.6815
 7474SOL    HW329669   0.538   1.569   5.790  0.8320 -1.3134 -0.6448
 7474SOL    MW429670   0.456   1.576   5.763  0.0495  0.3126 -0.8315
 7475SOL     OW29671   3.805   2.902   3.011  0.0456  0.1069 -0.0614
 7475SOL    HW229672   3.815   2.930   3.102  0.7838 -1.0626  0.2380
 7475SOL    HW329673   3.741   2.831   3.015 -1.1538  1.1077 -0.6923
 7475SOL    MW429674   3.798   2.896   3.024  0.2358  0.0377  0.2018
 7476SOL     OW29675   4.318   1.411   4.169 -0.2162 -0.4898 -0.2222
 7476SOL    HW229676   4.325   1.444   4.259 -2.2698  0.0351 -0.2068
 7476SOL    HW329677   4.388   1.345   4.163 -0.1614 -0.7019  1.8253
 7476SOL    MW429678   4.328   1.407   4.180 -0.2250  0.6517  0.0968
 7477SOL     OW29679   6.121   5.155   5.449  0.5135 -0.0351 -0.2324
 7477SOL    HW229680   6.068   5.080   5.420  0.2433  0.4060 -0.9235
 7477SOL    HW329681   6.211   5.122   5.451  0.1586 -1.0523  1.8113
 7477SOL    MW429682   6.126   5.141   5.445  0.4915 -0.1523 -0.0497
 7478SOL     OW29683   1.739   2.522   2.836 -0.4606 -0.5443  0.3960
 7478SOL    HW229684   1.662   2.509   2.890  0.0040 -0.0130  1.2195
 7478SOL    HW329685   1.779   2.602   2.871  1.2538 -1.6043  0.9639
 7478SOL    MW429686   1.734   2.531   2.848  0.4959 -0.1743 -0.2360
 7479SOL     OW29687   2.215   4.296   0.356 -0.2372  0.4908 -0.1032
 7479SOL    HW229688   2.270   4.239   0.409  0.0436 -0.0260 -0.9172
 7479SOL    HW329689   2.132   4.301   0.403 -0.2946 -0.6686 -0.0469
 7479SOL    MW429690   2.211   4.289   0.369 -0.2146  0.0622  0.0865
 7480SOL     OW29691   1.304   0.401   1.291 -0.1544  0.5964  0.1724
 7480SOL    HW229692   1.332   0.488   1.318 -0.6033  0.9734 -0.5405
 7480SOL    HW329693   1.265   0.362   1.369  1.8274  0.2555  1.0603
 7480SOL    MW429694   1.303   0.407   1.305 -0.4599  0.0298 -0.5032
 7481SOL     OW29695   4.054   1.693   4.121 -0.5863 -0.2548  0.2848
 7481SOL    HW229696   4.039   1.670   4.212 -0.2590 -0.5215  0.2700
 7481SOL    HW329697   4.052   1.789   4.120 -2.1530 -0.2534  0.3078
 7481SOL    MW429698   4.052   1.703   4.133 -0.2390 -0.3975  0.0489
 7482SOL     OW29699   6.028   5.765   2.155 -0.2872  0.7542 -0.1810
 7482SOL    HW229700   6.022   5.669   2.150 -0.3541  0.6916  0.8099
 7482SOL    HW329701   6.104   5.780   2.212 -0.1304  1.2949 -0.5328
 7482SOL    MW429702   6.037   5.754   2.162  0.3317 -0.0465 -0.0183
 7483SOL     OW29703   2.501   1.668   1.164 -0.2657  0.2301  0.2086
 7483SOL    HW229704   2.430   1.638   1.221 -0.1578 -2.0212 -0.7289
 7483SOL    HW329705   2.564   1.710   1.224 -2.1288  1.8770  1.1095
 7483SOL    MW429706   2.500   1.670   1.180 -0.3159 -0.0213 -0.7070
 7484SOL     OW29707   5.487   0.063   2.731 -0.5986 -0.3467 -0.0766
 7484SOL    HW229708   5.562   0.005   2.744 -0.1889  0.0552 -0.5854
 7484SOL    HW329709   5.481   0.073   2.636 -0.3263  0.8649  0.0175
 7484SOL    MW429710   5.496   0.057   2.720 -0.3441  0.4162 -0.1543
 7485SOL     OW29711   5.397   2.345   2.881  0.4984 -0.3855  0.2516
 7485SOL    HW229712   5.393   2.364   2.787 -0.3186  0.5432  0.4683
 7485SOL    HW329713   5.307   2.352   2.911  0.9295  0.6450  1.3614
 7485SOL    MW429714   5.385   2.348   2.872 -0.1450  0.5843  0.3461
 7486SOL     OW29715   2.975   0.358   0.735  0.3251  0.2916  0.2853
 7486SOL    HW229716   2.905   0.389   0.793  0.2237  1.4358 -0.4269
 7486SOL    HW329717   2.956   0.399   0.650 -0.1383 -2.1804 -0.8959
 7486SOL    MW429718   2.963   0.367   0.731 -0.2808 -0.2571 -0.2925
 7487SOL     OW29719   1.345   5.250   0.818  0.8564 -0.3624 -0.2632
 7487SOL    HW229720   1.312   5.290   0.898  0.7252  1.2464 -1.0889
 7487SOL    HW329721   1.288   5.283   0.749  2.6721  0.5600 -1.3946
 7487SOL    MW429722   1.333   5.260   0.819 -0.0412 -0.2936  0.4950
 7488SOL     OW29723   4.295   2.409   1.921  0.1870  0.7443 -0.4399
 7488SOL    HW229724   4.286   2.502   1.943  1.3565  0.7435  0.1048
 7488SOL    HW329725   4.367   2.378   1.976 -1.8596 -1.1470  1.3353
 7488SOL    MW429726   4.304   2.418   1.931 -0.0152 -0.4755 -0.2976
 7489SOL     OW29727   1.424   3.538   0.302 -0.2411 -0.0691 -0.1745
 7489SOL    HW229728   1.415   3.609   0.365 -0.6801 -0.9371  0.7805
 7489SOL    HW329729   1.482   3.572   0.235 -0.0683  1.0203  0.5046
 7489SOL    MW429730   1.430   3.552   0.302  0.4264  0.5902 -0.3205
 7490SOL     OW29731   2.064   5.879   6.220  0.1117 -0.1615  0.2057
 7490SOL    HW229732   2.039   5.799   6.173 -0.4931 -0.1120  0.4337
 7490SOL    HW329733   2.001   5.945   6.192 -1.6334 -0.6568  2.6222
 7490SOL    MW429734   2.052   5.877   6.210  1.0817 -0.0981  0.3593
 7491SOL     OW29735   1.625   5.011   4.180  0.6771  0.3475  0.3714
 7491SOL    HW229736   1.607   5.081   4.243 -1.0437  0.0918  0.2197
 7491SOL    HW329737   1.660   4.939   4.233  2.0862  1.1603  0.5796
 7491SOL    MW429738   1.627   5.011   4.195 -0.0515 -0.1476  0.1689
 7492SOL     OW29739   2.390   2.890   0.734 -0.2113 -0.0746  0.4923
 7492SOL    HW229740   2.433   2.876   0.650 -0.5713 -0.8009  0.4202
 7492SOL    HW329741   2.296   2.887   0.713 -0.3023  0.5774  0.7901
 7492SOL    MW429742   2.383   2.887   0.720  0.5033 -0.1742 -0.1105
 7493SOL     OW29743   2.022   5.936   2.872  0.2326  0.5471 -0.6291
 7493SOL    HW229744   1.986   5.914   2.786 -0.3967  0.1451 -0.2787
 7493SOL    HW329745   2.052   5.852   2.907 -3.2920 -0.1230  1.2290
 7493SOL    MW429746   2.021   5.922   2.865 -0.4824 -0.3764  0.0623
 7494SOL     OW29747   4.427   4.893   2.649  0.2199  0.0211  0.0998
 7494SOL    HW229748   4.455   4.935   2.567 -1.0222 -1.8186 -1.3439
 7494SOL    HW329749   4.490   4.823   2.663 -0.1200 -0.2640  0.2025
 7494SOL    MW429750   4.439   4.890   2.640 -0.3121  0.3110 -0.0051
 7495SOL     OW29751   3.058   4.243   2.940 -0.0231  0.3889 -0.0668
 7495SOL    HW229752   3.013   4.305   2.997  0.2960 -0.4668  1.1425
 7495SOL    HW329753   3.140   4.286   2.917 -1.0115  1.5945 -1.5847
 7495SOL    MW429754   3.063   4.257   2.944 -0.0807 -0.2735 -0.4806
 7496SOL     OW29755   4.075   5.999   5.616  0.2271  0.2146  0.4411
 7496SOL    HW229756   4.167   6.007   5.590  0.1069 -0.8954 -0.4087
 7496SOL    HW329757   4.078   5.944   5.695  0.2409 -0.6691 -0.1574
 7496SOL    MW429758   4.088   5.993   5.623 -0.0230  0.1293 -0.0091
 7497SOL     OW29759   3.004   4.819   2.175  0.1574  0.2021  0.0379
 7497SOL    HW229760   2.921   4.779   2.149 -0.1630  1.3278 -0.7406
 7497SOL    HW329761   2.993   4.912   2.156  1.5419  0.3988  0.0991
 7497SOL    MW429762   2.991   4.826   2.169  0.2706 -0.6193  0.6289
 7498SOL     OW29763   2.468   6.094   1.154  0.1535 -0.2882 -0.6168
 7498SOL    HW229764   2.471   6.069   1.246  0.9793 -1.4453 -0.9235
 7498SOL    HW329765   2.464   6.189   1.154  1.0835 -0.2378  0.6023
 7498SOL    MW429766   2.468   6.103   1.166 -0.1229 -0.7115 -0.5899
 7499SOL     OW29767   1.485   3.815   3.425  0.1704  0.3110 -0.1611
 7499SOL    HW229768   1.539   3.892   3.444  1.4287 -0.3698 -0.8988
 7499SOL    HW329769   1.397   3.850   3.411  0.3019  1.4026  1.4406
 7499SOL    MW429770   1.480   3.830   3.426  0.1085 -0.1946  0.2217
 7500SOL     OW29771   5.666   1.494   2.450 -0.4323  0.4006 -0.1179
 7500SOL    HW229772   5.664   1.539   2.534 -1.7942  1.3469 -0.6125
 7500SOL    HW329773   5.648   1.562   2.385  0.4770 -0.3283 -1.1794
 7500SOL    MW429774   5.663   1.509   2.453  0.5968  0.3462  0.2492
 7501SOL     OW29775   0.078   0.510   6.274  0.0010  0.1123  0.0187
 7501SOL    HW229776   0.038   0.517   6.188 -1.6072 -2.4474  0.4508
 7501SOL    HW329777   0.072   0.598   6.311  1.4763  1.4582 -2.7251
 7501SOL    MW429778   0.072   0.523   6.268  0.5813 -0.4356  0.3927
 7502SOL     OW29779   6.255   1.847   0.057  0.2648 -0.2354  0.3830
 7502SOL    HW229780   6.338   1.858   0.012  0.5182  0.8289  1.0762
 7502SOL    HW329781   6.279   1.817   0.145 -0.0555  0.5089  0.7283
 7502SOL    MW429782   6.269   1.844   0.063 -0.2267 -0.1711 -0.3138
 7503SOL     OW29783   5.339   4.308   5.310 -0.1725 -0.3205  0.2235
 7503SOL    HW229784   5.269   4.243   5.300  0.8199 -1.4222  0.2676
 7503SOL    HW329785   5.395   4.273   5.379  0.7064  0.2904 -0.1610
 7503SOL    MW429786   5.337   4.295   5.318  0.1865  0.1871 -0.4832
 7504SOL     OW29787   0.389   4.326   5.878 -0.2327 -0.6824 -0.0738
 7504SOL    HW229788   0.379   4.411   5.921 -0.4945 -0.6860 -0.1260
 7504SOL    HW329789   0.484   4.314   5.870 -0.1950 -0.3756 -0.1036
 7504SOL    MW429790   0.401   4.335   5.882  0.2931 -0.1808  0.1247
 7505SOL     OW29791   2.937   4.869   5.648 -0.3634  0.0774 -0.5422
 7505SOL    HW229792   2.887   4.818   5.584  0.6704 -1.5556 -0.1201
 7505SOL    HW329793   2.931   4.817   5.729 -1.7005  2.1204  0.7688
 7505SOL    MW429794   2.929   4.855   5.651  0.0626 -0.8398  0.1359
 7506SOL     OW29795   0.221   1.306   0.078  0.1995  0.0312  0.3895
 7506SOL    HW229796   0.136   1.350   0.084 -0.2375 -0.5138 -1.1817
 7506SOL    HW329797   0.220   1.265  -0.009  1.5024 -1.1775  0.9097
 7506SOL    MW429798   0.210   1.306   0.067  0.5935 -0.2433 -0.3225
 7507SOL     OW29799   3.490   3.669   3.092  0.0689 -0.1674  0.0251
 7507SOL    HW229800   3.534   3.653   3.009 -0.4209 -0.8390 -0.1170
 7507SOL    HW329801   3.507   3.761   3.111 -0.3869  0.1774 -1.1591
 7507SOL    MW429802   3.498   3.679   3.084 -0.0703 -0.3745 -0.2909
 7508SOL     OW29803   2.682   1.428   1.586  0.3547  0.2422 -0.9303
 7508SOL    HW229804   2.710   1.414   1.676 -0.2497  0.4356 -0.7098
 7508SOL    HW329805   2.749   1.385   1.533  1.5048  1.3453 -0.4413
 7508SOL    MW429806   2.695   1.421   1.591 -0.0907 -0.5153  0.1232
 7509SOL     OW29807   0.785   3.027   4.643  0.4993  0.5034 -0.2145
 7509SOL    HW229808   0.832   3.025   4.560  0.2351 -1.3642 -0.3635
 7509SOL    HW329809   0.806   3.112   4.681 -0.4969  1.9984 -2.7926
 7509SOL    MW429810   0.794   3.038   4.637  0.8986  0.2338  0.0392
 7510SOL     OW29811   4.158   3.390   1.629  0.0089 -0.2719 -0.5853
 7510SOL    HW229812   4.200   3.344   1.701 -2.5125 -0.2433  1.0131
 7510SOL    HW329813   4.229   3.441   1.589  1.1636  1.7817  3.4913
 7510SOL    MW429814   4.173   3.391   1.633 -0.4923 -0.0132 -0.0387
 7511SOL     OW29815   0.851   6.313   1.497  0.5697 -0.3775  0.1853
 7511SOL    HW229816   0.861   6.219   1.487 -0.9998 -0.5275 -0.2279
 7511SOL    HW329817   0.830   6.344   1.408 -0.6403  0.0965  0.6151
 7511SOL    MW429818   0.849   6.305   1.484  0.5593 -0.2706  0.2810
 7512SOL     OW29819   2.090   2.964   2.221 -0.9558 -0.2076 -0.2223
 7512SOL    HW229820   2.163   2.961   2.282 -1.1595  2.6613  0.3056
 7512SOL    HW329821   2.068   3.057   2.214 -3.6874 -0.8341 -1.4034
 7512SOL    MW429822   2.096   2.976   2.228  0.1217  0.4128 -0.0503
 7513SOL     OW29823   1.688   2.374   1.710  0.5330 -0.1009  0.5779
 7513SOL    HW229824   1.751   2.306   1.687  1.2234  0.8652 -0.4873
 7513SOL    HW329825   1.738   2.436   1.764 -0.4771 -1.1550  2.8588
 7513SOL    MW429826   1.703   2.374   1.714 -0.1742 -0.6033  0.2226
 7514SOL     OW29827   2.846   3.838   2.398  0.5253  0.3456 -0.1880
 7514SOL    HW229828   2.844   3.754   2.444  2.3840  1.4700  2.1261
 7514SOL    HW329829   2.783   3.827   2.327 -0.7935 -2.2927  1.2357
 7514SOL    MW429830   2.838   3.825   2.395  0.3926 -0.3547 -0.1806
 7515SOL     OW29831   2.958   5.700   0.936  0.4667 -0.1636 -0.7415
 7515SOL    HW229832   2.959   5.766   1.005  0.5040  0.4726 -1.3343
 7515SOL    HW329833   2.905   5.629   0.971  0.7366  0.0119  0.0581
 7515SOL    MW429834   2.951   5.699   0.950 -0.3371  0.2881  0.0217
 7516SOL     OW29835   5.652   5.192   2.183 -0.1461 -0.3038 -0.0499
 7516SOL    HW229836   5.649   5.287   2.172 -0.8782 -0.1654  1.0661
 7516SOL    HW329837   5.640   5.156   2.095 -1.4538  0.6505 -0.2932
 7516SOL    MW429838   5.650   5.199   2.170  0.0430 -0.2972  0.1149
 7517SOL     OW29839   1.258   3.933   4.448 -0.0586  0.3567  0.2348
 7517SOL    HW229840   1.315   3.886   4.509  0.0694 -0.4530 -0.4855
 7517SOL    HW329841   1.218   3.864   4.395  0.7675  1.0884 -1.4090
 7517SOL    MW429842   1.260   3.918   4.449  0.1593 -0.3525  0.1740
 7518SOL     OW29843   3.714   0.030   6.399  0.4666 -0.4249  0.0115
 7518SOL    HW229844   3.782   0.038   6.466 -0.6740 -1.2481  1.3191
 7518SOL    HW329845   3.636   0.003   6.447 -0.4284 -0.9384 -1.6488
 7518SOL    MW429846   3.713   0.028   6.414 -0.4147  0.2761 -0.2018
 7519SOL     OW29847   5.697   2.143   1.401 -0.2259 -0.1299 -0.4665
 7519SOL    HW229848   5.623   2.181   1.448 -1.6805  0.1515 -2.8557
 7519SOL    HW329849   5.720   2.207   1.334  0.9673 -1.0306 -0.9735
 7519SOL    MW429850   5.691   2.156   1.399 -0.0661  0.0636  0.1139
 7520SOL     OW29851   0.951   5.129   4.952 -0.8293 -0.0341  0.1880
 7520SOL    HW229852   1.013   5.124   4.880  1.4870 -0.3158  2.0974
 7520SOL    HW329853   0.884   5.063   4.930 -0.2925  0.0098 -1.7327
 7520SOL    MW429854   0.950   5.119   4.939 -0.5092 -0.2044  0.2015
 7521SOL     OW29855   3.151   4.206   3.431 -0.2340  0.0558  0.7600
 7521SOL    HW229856   3.194   4.121   3.441 -0.4450  0.2025  3.9150
 7521SOL    HW329857   3.057   4.187   3.441 -0.7119  0.2416 -2.3502
 7521SOL    MW429858   3.144   4.192   3.434  0.1129 -0.3700 -0.2394
 7522SOL     OW29859   5.163   1.467   2.942  0.0549  0.3740 -0.5746
 7522SOL    HW229860   5.218   1.393   2.915  2.2508  0.8220  2.1784
 7522SOL    HW329861   5.217   1.544   2.924 -1.5621  1.2449 -1.9142
 7522SOL    MW429862   5.177   1.467   2.936 -0.0873 -0.0758 -0.1337
 7523SOL     OW29863   5.224   0.565   1.165  0.4108  0.5283  0.4728
 7523SOL    HW229864   5.282   0.495   1.134 -0.9662  0.0454 -1.1928
 7523SOL    HW329865   5.171   0.523   1.233 -0.4860 -0.1335 -0.5948
 7523SOL    MW429866   5.225   0.550   1.170  0.1915  0.0428  0.7668
 7524SOL     OW29867   2.879   2.355   1.620  0.2625  0.1068 -0.4181
 7524SOL    HW229868   2.908   2.427   1.563  0.5579  0.8421  0.6122
 7524SOL    HW329869   2.927   2.370   1.702 -0.3518 -0.7634  0.1111
 7524SOL    MW429870   2.889   2.367   1.623 -0.0280  0.5789 -0.0581
 7525SOL     OW29871   0.443   5.944   3.647 -0.1026 -0.7622 -0.2083
 7525SOL    HW229872   0.372   5.952   3.583 -0.9143  0.2675  0.7610
 7525SOL    HW329873   0.436   6.023   3.700  2.9528  0.3002 -1.1861
 7525SOL    MW429874   0.433   5.955   3.645  0.0371 -0.7106 -0.7809
 7526SOL     OW29875   0.164   2.176   1.885 -0.4565  0.0067 -0.2877
 7526SOL    HW229876   0.126   2.260   1.858  1.8054  1.5865  1.0878
 7526SOL    HW329877   0.258   2.194   1.893  0.3223 -3.0540 -1.2403
 7526SOL    MW429878   0.171   2.190   1.882  0.0805 -0.0331 -0.0485
 7527SOL     OW29879   5.860   3.108   2.945 -0.2209  0.5359  0.0208
 7527SOL    HW229880   5.947   3.077   2.972  0.3199  1.7376 -0.2813
 7527SOL    HW329881   5.859   3.096   2.850 -1.0982 -1.1580  0.2023
 7527SOL    MW429882   5.872   3.102   2.936 -0.3332  0.0669  0.1728
 7528SOL     OW29883   3.632   5.392   4.763  0.2884  0.2368  0.1434
 7528SOL    HW229884   3.625   5.360   4.853  1.9158  0.4620  0.3706
 7528SOL    HW329885   3.568   5.464   4.759 -1.4140 -1.1956  0.4199
 7528SOL    MW429886   3.622   5.397   4.775 -0.2933  0.8694  0.2740
 7529SOL     OW29887   4.493   5.736   4.761  0.3549  0.1292 -0.2561
 7529SOL    HW229888   4.408   5.753   4.720  1.1407  1.9360 -1.2616
 7529SOL    HW329889   4.539   5.820   4.757  3.0130 -1.2525 -1.6918
 7529SOL    MW429890   4.488   5.750   4.755  0.0636  0.1662 -0.0626
 7530SOL     OW29891   6.369   5.711   1.000  0.2051  0.0563 -0.1699
 7530SOL    HW229892   6.426   5.734   0.926  2.4809  1.1256  1.8062
 7530SOL    HW329893   6.314   5.788   1.013  0.1705  0.0681 -0.3697
 7530SOL    MW429894   6.369   5.724   0.992  0.5185 -0.1974  0.0798
 7531SOL     OW29895   5.517   2.699   2.578  0.1819 -0.3739 -0.5946
 7531SOL    HW229896   5.492   2.733   2.664  1.3440  0.2894 -0.4897
 7531SOL    HW329897   5.496   2.770   2.518  1.5948  0.1418 -0.5216
 7531SOL    MW429898   5.511   2.713   2.582  0.4703  0.3223  0.6883
 7532SOL     OW29899   1.477   0.615   1.401 -0.1605  0.4675  0.1071
 7532SOL    HW229900   1.485   0.669   1.322 -2.0947 -1.7549 -1.7494
 7532SOL    HW329901   1.468   0.678   1.472 -2.7388  2.6947 -1.9810
 7532SOL    MW429902   1.477   0.630   1.400  0.4406 -0.4100  0.1165
 7533SOL     OW29903   5.983   3.522   0.547 -0.1163  0.5784  0.1242
 7533SOL    HW229904   5.910   3.534   0.609  0.2568  1.2600  0.4439
 7533SOL    HW329905   6.036   3.601   0.558  0.9919 -0.1872  0.3072
 7533SOL    MW429906   5.980   3.534   0.557  0.7376 -0.1037 -0.0231
 7534SOL     OW29907   1.483   4.924   6.366  0.0174 -0.1101 -0.3825
 7534SOL    HW229908   1.577   4.936   6.362  0.2840 -1.2724  1.4931
 7534SOL    HW329909   1.451   4.961   6.284  2.0810  0.3252 -1.0459
 7534SOL    MW429910   1.491   4.931   6.355 -0.3678  0.3435 -0.0558
 7535SOL     OW29911   4.765   6.226   2.295 -0.2392 -0.7241  0.0028
 7535SOL    HW229912   4.719   6.310   2.295 -0.3838 -0.7692 -1.7154
 7535SOL    HW329913   4.856   6.249   2.310 -0.4030 -0.3585  0.4728
 7535SOL    MW429914   4.771   6.240   2.297 -0.2365 -0.5129 -0.0443
 7536SOL     OW29915   1.159   4.989   5.735  0.4847 -0.5522  0.8347
 7536SOL    HW229916   1.233   5.049   5.741  1.1247 -0.8883 -1.9776
 7536SOL    HW329917   1.196   4.903   5.755  0.1359 -0.3697  2.3666
 7536SOL    MW429918   1.173   4.986   5.738  0.2836  0.8384 -0.1640
 7537SOL     OW29919   5.523   2.889   3.768 -0.1515  0.4426  0.1736
 7537SOL    HW229920   5.617   2.905   3.760  0.1000 -1.2679 -0.8425
 7537SOL    HW329921   5.489   2.903   3.679 -0.3219 -1.8177 -0.1757
 7537SOL    MW429922   5.531   2.893   3.755 -0.5063 -0.4068  0.1794
 7538SOL     OW29923   0.359   3.857   0.100 -0.4416 -0.3847  0.2193
 7538SOL    HW229924   0.356   3.885   0.008 -2.8240 -1.3761 -0.0638
 7538SOL    HW329925   0.367   3.938   0.150  2.1175  0.1164 -0.8242
 7538SOL    MW429926   0.360   3.871   0.094 -0.4304  0.0125 -0.3220
 7539SOL     OW29927   5.511   0.843   6.019  0.0959  0.0133  0.1986
 7539SOL    HW229928   5.561   0.766   6.044 -1.0424 -0.4810  1.0168
 7539SOL    HW329929   5.423   0.810   6.001  0.3808  0.5872 -2.8984
 7539SOL    MW429930   5.506   0.829   6.020 -0.0332  0.2435  0.4555
 7540SOL     OW29931   2.998   3.972   1.365 -0.3628  0.5908  0.2000
 7540SOL    HW229932   2.995   3.978   1.269 -2.1668 -2.1742 -0.0335
 7540SOL    HW329933   3.089   3.991   1.387  0.9006 -1.6448 -2.4036
 7540SOL    MW429934   3.010   3.975   1.355  0.4522  0.0970 -0.9290
 7541SOL     OW29935   0.533   0.818   1.308  0.0085  0.1630 -0.0088
 7541SOL    HW229936   0.518   0.757   1.380 -0.1739  2.6151  2.1659
 7541SOL    HW329937   0.467   0.794   1.243 -0.7999 -1.2107  1.2568
 7541SOL    MW429938   0.522   0.807   1.309 -0.1364  0.0821  0.0879
 7542SOL     OW29939   0.388   4.314   4.411 -0.6668  0.2834  0.8111
 7542SOL    HW229940   0.378   4.409   4.411 -1.0609  0.2592 -0.4185
 7542SOL    HW329941   0.478   4.300   4.380 -0.7622  0.2520  0.5441
 7542SOL    MW429942   0.399   4.325   4.407 -0.7221  0.4266  0.6242
 7543SOL     OW29943   3.764   5.220   5.705 -0.0901 -0.2767  0.3705
 7543SOL    HW229944   3.685   5.274   5.711 -0.6804 -0.7149 -2.4144
 7543SOL    HW329945   3.825   5.273   5.653  1.1775 -0.3443  1.6967
 7543SOL    MW429946   3.762   5.234   5.699  0.3861  0.2559 -0.1001
 7544SOL     OW29947   3.027   1.402   3.853 -0.0404  0.2404  0.1128
 7544SOL    HW229948   3.039   1.493   3.824  0.3150 -0.2648 -1.4298
 7544SOL    HW329949   3.105   1.383   3.905 -0.1908  0.8579  0.5742
 7544SOL    MW429950   3.039   1.411   3.856  0.4774  0.8818  0.0059
 7545SOL     OW29951   2.218   3.359   5.099 -0.5179 -0.3314 -0.3880
 7545SOL    HW229952   2.206   3.448   5.066  0.1840 -0.4441 -0.9735
 7545SOL    HW329953   2.194   3.364   5.192 -2.1633  0.0735 -0.7986
 7545SOL    MW429954   2.213   3.371   5.107  0.5031 -0.4224 -0.1117
 7546SOL     OW29955   5.400   4.170   3.162 -0.4971 -0.0617 -0.1239
 7546SOL    HW229956   5.379   4.078   3.150 -1.4466  0.5325 -5.3140
 7546SOL    HW329957   5.495   4.171   3.173 -0.4482 -1.6587 -0.1729
 7546SOL    MW429958   5.410   4.158   3.162  0.0983 -0.1377  0.4806
 7547SOL     OW29959   4.562   5.051   2.843  0.2270  0.1109  0.5664
 7547SOL    HW229960   4.497   4.994   2.802  1.0378 -0.6213  0.2735
 7547SOL    HW329961   4.621   5.075   2.772 -0.5389  1.9999  0.5002
 7547SOL    MW429962   4.561   5.047   2.828 -0.5464  0.5400  0.2161
 7548SOL     OW29963   1.781   2.972   5.856 -0.0237 -0.5124 -0.7903
 7548SOL    HW229964   1.795   2.951   5.948 -1.2962  0.1507 -0.4255
 7548SOL    HW329965   1.861   3.019   5.829  0.7185 -1.4521 -0.2822
 7548SOL    MW429966   1.794   2.975   5.864 -0.4591 -0.0644 -0.4517
 7549SOL     OW29967   1.817   5.708   3.733  0.5553 -0.0825 -0.5199
 7549SOL    HW229968   1.894   5.656   3.711 -0.7460 -2.2239 -0.2408
 7549SOL    HW329969   1.831   5.732   3.825  0.4045 -1.4258 -0.1211
 7549SOL    MW429970   1.829   5.705   3.742  0.2731  0.2200  0.6983
 7550SOL     OW29971   5.185   4.109   2.778 -0.0711  0.2382  0.0665
 7550SOL    HW229972   5.151   4.036   2.727  0.1501 -0.2941  0.6636
 7550SOL    HW329973   5.113   4.172   2.781 -0.3334 -0.0410 -0.2907
 7550SOL    MW429974   5.171   4.108   2.772  0.1295 -0.1651  0.2715
 7551SOL     OW29975   3.284   2.018   1.416  0.7908 -0.6549  0.3332
 7551SOL    HW229976   3.245   2.053   1.496  0.2027  0.8777 -0.6027
 7551SOL    HW329977   3.319   2.094   1.370  1.2564 -1.5239 -0.8122
 7551SOL    MW429978   3.284   2.032   1.421  0.4479 -0.3533  0.0901
 7552SOL     OW29979   1.756   3.581   5.054  0.4208 -0.2253 -0.0231
 7552SOL    HW229980   1.674   3.628   5.040  0.4490 -0.1232  0.1514
 7552SOL    HW329981   1.795   3.622   5.131 -0.2827 -1.4981  1.0493
 7552SOL    MW429982   1.750   3.592   5.062 -0.3322  0.1137  0.0467
 7553SOL     OW29983   3.713   5.597   5.007  0.3584 -0.9129  0.0556
 7553SOL    HW229984   3.640   5.538   4.989  1.0408 -1.2341 -1.8558
 7553SOL    HW329985   3.782   5.540   5.040  1.1294 -1.3058 -2.0981
 7553SOL    MW429986   3.712   5.582   5.009 -0.2768 -0.6266 -0.1722
 7554SOL     OW29987   4.866   2.221   4.217 -0.1076 -0.1547 -0.3485
 7554SOL    HW229988   4.901   2.269   4.142 -0.0526 -1.5759 -1.2700
 7554SOL    HW329989   4.827   2.142   4.179 -1.1444 -0.3346  1.0110
 7554SOL    MW429990   4.866   2.217   4.202  0.0269  0.0795  0.3576
 7555SOL     OW29991   3.470   6.173   0.685 -0.3933 -0.6153  0.5730
 7555SOL    HW229992   3.470   6.260   0.724  1.7326 -0.6948  0.9000
 7555SOL    HW329993   3.481   6.188   0.591 -0.0624 -0.5292  0.6251
 7555SOL    MW429994   3.472   6.186   0.678  0.5547 -0.0866 -0.8365
 7556SOL     OW29995   4.867   4.029   6.046 -0.6806 -0.4818  0.1588
 7556SOL    HW229996   4.778   4.062   6.039 -0.6895 -0.8461 -2.0427
 7556SOL    HW329997   4.857   3.936   6.067 -0.9216 -0.9251 -1.7346
 7556SOL    MW429998   4.854   4.021   6.048  0.2044  0.0251  0.0164
 7557SOL     OW29999   0.461   2.783   5.858 -0.4123  0.1742 -0.4264
 7557SOL    HW230000   0.554   2.767   5.842 -0.2490  0.3855  0.2540
 7557SOL    HW330001   0.432   2.833   5.782  0.3656  1.2676 -0.0382
 7557SOL    MW430002   0.470   2.788   5.846  0.6457  0.2717 -0.4601
 7558SOL     OW30003   1.177   5.897   1.603  0.4371 -0.5315  0.1345
 7558SOL    HW230004   1.186   5.928   1.693  0.1385  2.5776 -0.8157
 7558SOL    HW330005   1.157   5.804   1.612  0.9591 -0.4469  3.2418
 7558SOL    MW430006   1.176   5.889   1.616  0.0020  0.1261  0.0061
 7559SOL     OW30007   4.535   2.885   2.268 -0.9497  1.0947  0.9441
 7559SOL    HW230008   4.587   2.885   2.348  1.5107 -0.0854 -0.5509
 7559SOL    HW330009   4.590   2.930   2.203 -3.2659  2.9121  0.0683
 7559SOL    MW430010   4.549   2.891   2.270  0.0575  0.7368 -0.7868
 7560SOL     OW30011   5.889   2.045   1.105  0.0301 -0.1338  0.1959
 7560SOL    HW230012   5.956   1.985   1.137 -0.1416  0.2935  1.3897
 7560SOL    HW330013   5.908   2.128   1.149 -0.4879  0.3540 -0.4780
 7560SOL    MW430014   5.901   2.048   1.115 -0.5530  0.1644 -0.2215
 7561SOL     OW30015   4.015   2.617   1.302 -0.0862  0.3506  0.4157
 7561SOL    HW230016   4.088   2.673   1.330 -0.1738 -0.0765  1.5616
 7561SOL    HW330017   3.972   2.593   1.384 -1.1879  0.1515 -0.2154
 7561SOL    MW430018   4.019   2.622   1.316 -0.0692  0.4912 -0.1675
 7562SOL     OW30019   0.238   3.545   1.569  0.6511  0.1910 -0.6629
 7562SOL    HW230020   0.298   3.494   1.624 -0.9163 -0.1039  0.8467
 7562SOL    HW330021   0.179   3.588   1.631 -0.5574  0.6647 -2.0840
 7562SOL    MW430022   0.238   3.544   1.584 -0.1065 -0.5628 -0.3687
 7563SOL     OW30023   0.079   2.079   2.356 -0.1141  0.1722  0.5623
 7563SOL    HW230024   0.151   2.035   2.401  1.8891  1.2876 -1.4029
 7563SOL    HW330025   0.068   2.161   2.403  0.0705  0.1317  0.6769
 7563SOL    MW430026   0.087   2.084   2.368  0.1056  0.2127 -0.0263
 7564SOL     OW30027   0.077   3.059   4.383  0.2107 -0.0526 -0.2693
 7564SOL    HW230028   0.129   2.991   4.340 -0.4991  0.2164 -1.5787
 7564SOL    HW330029   0.127   3.139   4.372  1.1477 -0.3359  1.4506
 7564SOL    MW430030   0.090   3.060   4.376  0.8426  0.1297 -0.6951
 7565SOL     OW30031   5.268   5.182   3.351  0.1819 -0.5158 -0.1391
 7565SOL    HW230032   5.346   5.166   3.403  0.0978  0.3266  0.2564
 7565SOL    HW330033   5.301   5.198   3.262  0.4509 -0.2811  0.0021
 7565SOL    MW430034   5.282   5.182   3.346 -0.1323  0.3431  0.0939
 7566SOL     OW30035   5.234   2.649   0.716  0.3052  0.2607 -0.0458
 7566SOL    HW230036   5.187   2.672   0.796  1.5066 -0.1386  0.8154
 7566SOL    HW330037   5.213   2.557   0.702  0.7578  0.0999  0.3021
 7566SOL    MW430038   5.225   2.640   0.725 -0.6653  0.5262 -0.2276
 7567SOL     OW30039   5.979   0.385   1.035  0.1001 -0.1080  0.2028
 7567SOL    HW230040   5.968   0.452   1.102 -1.4891  1.6703 -1.6792
 7567SOL    HW330041   5.914   0.318   1.056 -1.8548  1.4350 -0.6120
 7567SOL    MW430042   5.969   0.385   1.046  0.2847  0.5837  0.3444
 7568SOL     OW30043   2.245   3.560   0.437  0.7769 -0.1404 -0.6447
 7568SOL    HW230044   2.185   3.519   0.375  0.0619  1.1997 -0.8693
 7568SOL    HW330045   2.313   3.601   0.383  0.1485  1.0359 -0.5696
 7568SOL    MW430046   2.246   3.560   0.422 -0.4130  0.5945 -0.2231
 7569SOL     OW30047   1.095   2.631   0.681  0.4481 -0.0032  0.1552
 7569SOL    HW230048   1.086   2.721   0.712  0.0325  0.5106 -1.3989
 7569SOL    HW330049   1.171   2.633   0.622  1.1598 -0.9363  1.0010
 7569SOL    MW430050   1.104   2.643   0.677  0.5950 -0.0592  0.0001
 7570SOL     OW30051   5.559   1.097   2.777  0.2235 -0.2621  0.4483
 7570SOL    HW230052   5.570   1.008   2.811 -1.0389 -0.5354  0.2010
 7570SOL    HW330053   5.629   1.107   2.712  0.3477 -1.0959  0.4423
 7570SOL    MW430054   5.569   1.086   2.773  0.2352 -0.4227 -0.8992
 7571SOL     OW30055   0.866   2.829   3.376 -0.4587  0.8293 -0.2508
 7571SOL    HW230056   0.919   2.869   3.445 -0.8117  1.8139 -0.5275
 7571SOL    HW330057   0.801   2.777   3.422  0.7733 -0.4732  0.0972
 7571SOL    MW430058   0.865   2.828   3.391 -0.4234  0.2663  0.5714
 7572SOL     OW30059   3.901   1.970   2.872  0.3191 -0.3240  0.3070
 7572SOL    HW230060   3.986   1.968   2.828 -0.6864 -2.3561 -1.8072
 7572SOL    HW330061   3.906   1.901   2.938  0.4271 -0.1805  0.4497
 7572SOL    MW430062   3.913   1.961   2.875 -0.1012 -0.3576 -0.0872
 7573SOL     OW30063   0.169   5.970   3.133 -0.3559  0.0764 -0.0788
 7573SOL    HW230064   0.075   5.951   3.132 -0.5564  1.0475 -1.5298
 7573SOL    HW330065   0.175   6.065   3.139  0.5443  0.0158  0.1935
 7573SOL    MW430066   0.158   5.980   3.134  1.0994  0.0147 -0.5044
 7574SOL     OW30067   2.358   2.219   1.641 -0.3238 -0.7189 -0.0048
 7574SOL    HW230068   2.414   2.179   1.575  1.2718 -1.4561  1.7135
 7574SOL    HW330069   2.299   2.149   1.669 -0.7826 -0.4952 -0.3896
 7574SOL    MW430070   2.357   2.205   1.636  0.1478 -0.1004 -0.2205
 7575SOL     OW30071   4.231   1.144   4.718  0.1706 -0.4994  0.0248
 7575SOL    HW230072   4.160   1.085   4.692  0.3857 -0.2232 -1.2533
 7575SOL    HW330073   4.309   1.089   4.721  0.2226 -0.4496 -0.3585
 7575SOL    MW430074   4.232   1.129   4.715 -0.3213  0.0759 -0.0101
 7576SOL     OW30075   0.564   5.752   0.138  0.2445  0.1285 -0.0162
 7576SOL    HW230076   0.520   5.808   0.202 -0.6568 -0.7412  0.1508
 7576SOL    HW330077   0.570   5.667   0.181 -0.8206 -0.6021 -1.2496
 7576SOL    MW430078   0.559   5.748   0.152  0.4419 -0.5197  0.4212
 7577SOL     OW30079   1.012   4.404   3.637 -0.0395 -0.3445 -0.8009
 7577SOL    HW230080   0.989   4.327   3.688 -1.0784 -0.1890 -1.0077
 7577SOL    HW330081   1.056   4.369   3.559  2.4038 -0.5413  0.5616
 7577SOL    MW430082   1.015   4.389   3.634 -0.2149  0.3668 -0.4999
 7578SOL     OW30083   6.171   3.250   3.160 -0.0179 -0.1071  0.2965
 7578SOL    HW230084   6.150   3.264   3.252 -2.2601  0.1983 -0.2210
 7578SOL    HW330085   6.266   3.260   3.156 -0.0098  1.2512  2.3313
 7578SOL    MW430086   6.181   3.253   3.172  0.0830 -0.5207 -0.5047
 7579SOL     OW30087   0.598   1.269   3.489 -0.0203  0.0047  0.3235
 7579SOL    HW230088   0.525   1.330   3.482 -1.2051 -1.5170 -1.7078
 7579SOL    HW330089   0.575   1.211   3.562 -0.3513  0.1635  0.3444
 7579SOL    MW430090   0.585   1.269   3.498 -0.2984  0.5672 -0.1045
 7580SOL     OW30091   3.814   2.066   0.238 -0.3698  0.0318  0.1179
 7580SOL    HW230092   3.882   2.088   0.175 -0.8813 -0.4572 -0.6180
 7580SOL    HW330093   3.741   2.034   0.185  0.0520 -2.7528  1.0420
 7580SOL    MW430094   3.813   2.064   0.223  0.5157  0.5352 -0.7429
 7581SOL     OW30095   4.924   5.076   3.741 -0.0831  0.1425 -0.0263
 7581SOL    HW230096   4.968   5.056   3.658  0.5417  1.7085 -0.1071
 7581SOL    HW330097   4.985   5.047   3.808  1.4164  2.7020 -0.1323
 7581SOL    MW430098   4.938   5.070   3.739 -0.9765  0.4419  0.3330
 7582SOL     OW30099   5.966   4.151   2.397 -0.2076  0.0731  0.0604
 7582SOL    HW230100   5.903   4.171   2.467 -1.1540 -0.1564 -0.7128
 7582SOL    HW330101   5.955   4.223   2.335  0.7794  0.3828  0.2317
 7582SOL    MW430102   5.956   4.163   2.398  0.1927 -0.0400  0.1683
 7583SOL     OW30103   4.856   0.231   1.995  0.2327  0.2794  0.4941
 7583SOL    HW230104   4.823   0.317   2.019  0.3057  0.3812  0.2318
 7583SOL    HW330105   4.928   0.215   2.057  0.9750  0.9099 -0.1853
 7583SOL    MW430106   4.861   0.240   2.006  0.1401  0.3253 -0.1425
 7584SOL     OW30107   5.907   5.808   3.229  0.0446 -0.2354  0.3265
 7584SOL    HW230108   5.845   5.846   3.291 -0.4519 -2.2075  1.1050
 7584SOL    HW330109   5.853   5.782   3.154  0.4821  1.1297 -0.5061
 7584SOL    MW430110   5.892   5.810   3.227 -0.2797 -0.0227  0.4427
 7585SOL     OW30111   5.333   0.642   6.198  0.2949 -0.3596 -0.3496
 7585SOL    HW230112   5.255   0.611   6.152  1.4883 -3.4098 -0.5454
 7585SOL    HW330113   5.345   0.581   6.270  2.6982 -0.2536 -0.5677
 7585SOL    MW430114   5.325   0.630   6.201 -0.3143  0.3320 -0.6752
 7586SOL     OW30115   2.406   3.140   2.005  0.0325 -0.1980 -0.1849
 7586SOL    HW230116   2.466   3.106   2.072 -0.3739  0.3281  0.4505
 7586SOL    HW330117   2.420   3.234   2.006 -2.1676  0.1668  1.3386
 7586SOL    MW430118   2.416   3.148   2.014  0.6570  0.4558 -0.3662
 7587SOL     OW30119   5.293   1.966   5.731 -0.3015 -0.3423  0.0008
 7587SOL    HW230120   5.388   1.955   5.726  0.0171  1.7888  0.4700
 7587SOL    HW330121   5.266   1.982   5.641  0.0369  0.6463  0.0640
 7587SOL    MW430122   5.302   1.966   5.718  0.0132  0.1535  0.1737
 7588SOL     OW30123   6.362   5.915   4.064  0.4881 -0.0367  0.3616
 7588SOL    HW230124   6.289   5.898   4.125  0.8116 -1.4724  0.3895
 7588SOL    HW330125   6.357   6.009   4.047 -1.2026 -0.0497  0.5752
 7588SOL    MW430126   6.352   5.925   4.070 -0.0555  0.1629  0.4460
 7589SOL     OW30127   2.240   2.443   2.012 -0.0494  0.2792 -0.7746
 7589SOL    HW230128   2.257   2.520   1.957  0.4298  0.3365 -0.5584
 7589SOL    HW330129   2.322   2.431   2.061 -0.0346 -0.5159 -0.9863
 7589SOL    MW430130   2.253   2.451   2.012 -0.0137  0.5216 -0.0101
 7590SOL     OW30131   4.196   2.397   2.314  0.3083 -0.2026  0.4625
 7590SOL    HW230132   4.219   2.481   2.275  0.0591 -0.5988 -0.5851
 7590SOL    HW330133   4.101   2.393   2.310  0.3472 -0.8816 -0.3193
 7590SOL    MW430134   4.187   2.407   2.308 -0.5009  0.2158  0.0393
 7591SOL     OW30135   2.020   4.919   0.470  0.2101  0.4525  0.1437
 7591SOL    HW230136   1.962   4.874   0.531  3.3350 -1.1202  2.2400
 7591SOL    HW330137   2.051   4.996   0.517  0.2299  0.9921 -0.7257
 7591SOL    MW430138   2.016   4.923   0.484 -0.1695  0.1162  0.1768
 7592SOL     OW30139   1.950   5.291   1.309  0.1703 -0.6403  0.4992
 7592SOL    HW230140   2.012   5.346   1.262 -1.4948 -0.7545 -1.9824
 7592SOL    HW330141   1.960   5.204   1.269 -0.8268 -0.9064  0.8118
 7592SOL    MW430142   1.960   5.287   1.298 -0.0669 -0.0582 -0.0297
 7593SOL     OW30143   5.451   1.901   0.053  0.7810  0.0781 -0.1778
 7593SOL    HW230144   5.532   1.876   0.008  0.8357 -0.4692  0.2056
 7593SOL    HW330145   5.394   1.933  -0.016  0.3359 -2.0944 -0.8899
 7593SOL    MW430146   5.454   1.902   0.038 -0.5338 -0.0282 -0.1172
 7594SOL     OW30147   1.247   4.933   5.016 -0.5232  0.0586 -0.0621
 7594SOL    HW230148   1.216   4.983   4.940 -0.9652 -1.4976 -0.9575
 7594SOL    HW330149   1.294   4.859   4.978  1.3361  0.5183  1.2495
 7594SOL    MW430150   1.249   4.930   5.001  0.3137  0.2914 -0.0410
 7595SOL     OW30151   3.267   0.906   2.470  0.6596 -0.0324 -0.1965
 7595SOL    HW230152   3.242   0.979   2.526  2.3306  0.0851  0.4558
 7595SOL    HW330153   3.237   0.828   2.517  1.9708  0.0706  0.8701
 7595SOL    MW430154   3.260   0.905   2.484 -0.2152 -0.4939 -0.1867
 7596SOL     OW30155   6.208   2.594   0.368 -0.1502 -0.3690  0.0532
 7596SOL    HW230156   6.183   2.668   0.424  0.7964 -0.1034  0.1441
 7596SOL    HW330157   6.132   2.579   0.312 -1.2968 -0.9353  1.7013
 7596SOL    MW430158   6.195   2.602   0.368  0.3518 -0.0685  0.1732
 7597SOL     OW30159   4.407   4.283   3.023  0.0471  0.2391 -0.3424
 7597SOL    HW230160   4.395   4.211   2.961  1.6192 -0.8461  0.5601
 7597SOL    HW330161   4.480   4.256   3.078 -1.1274  1.2811  1.8540
 7597SOL    MW430162   4.415   4.270   3.022  0.2809  0.0755  0.7761
 7598SOL     OW30163   1.844   4.917   1.110  0.6787  0.1745 -0.0758
 7598SOL    HW230164   1.883   4.949   1.028  0.3337 -1.5813 -0.9621
 7598SOL    HW330165   1.762   4.966   1.118  0.8690  0.5888 -0.6127
 7598SOL    MW430166   1.838   4.928   1.100  0.3737  0.0962 -0.1253
 7599SOL     OW30167   1.550   3.981   1.823 -0.7771 -0.1878 -0.9346
 7599SOL    HW230168   1.622   3.918   1.817 -1.3266 -0.9220 -0.0850
 7599SOL    HW330169   1.509   3.979   1.737  0.7391  0.8983 -1.7196
 7599SOL    MW430170   1.554   3.972   1.811 -0.0612  0.2108 -0.9149
 7600SOL     OW30171   1.330   1.641   4.987 -0.5867 -0.0775 -0.6553
 7600SOL    HW230172   1.267   1.605   4.924  0.1733 -1.3698 -0.7135
 7600SOL    HW330173   1.349   1.569   5.046  0.6298  0.3706 -0.4693
 7600SOL    MW430174   1.324   1.627   4.986  0.4174 -0.4086 -0.3181
 7601SOL     OW30175   3.853   3.885   1.609 -0.5596  0.0225  0.4359
 7601SOL    HW230176   3.875   3.888   1.702  0.4751  0.1652  0.2005
 7601SOL    HW330177   3.860   3.975   1.580  1.5769 -0.3147 -0.2898
 7601SOL    MW430178   3.857   3.897   1.618 -0.3106  0.0339  0.0801
 7602SOL     OW30179   1.406   1.363   4.687 -0.6901  0.6760  0.2403
 7602SOL    HW230180   1.435   1.291   4.630  1.8874  1.1112  0.8729
 7602SOL    HW330181   1.350   1.417   4.630  0.0711 -0.0441 -1.2634
 7602SOL    MW430182   1.403   1.361   4.672  0.2175  0.3663  0.2945
 7603SOL     OW30183   6.166   5.113   1.529  0.0409 -0.2268 -0.2918
 7603SOL    HW230184   6.111   5.188   1.507 -0.6112 -0.5930  0.0658
 7603SOL    HW330185   6.167   5.060   1.449 -0.0109 -0.1526 -0.3414
 7603SOL    MW430186   6.159   5.116   1.515 -0.2664 -0.4571 -0.6825
 7604SOL     OW30187   3.116   4.291   0.980 -0.4514  0.0494  0.3915
 7604SOL    HW230188   3.026   4.287   0.946 -0.4788  0.0518  0.4634
 7604SOL    HW330189   3.105   4.310   1.073 -0.5166 -3.7341  1.2927
 7604SOL    MW430190   3.102   4.293   0.988 -0.3938  0.3041 -0.0559
 7605SOL     OW30191   2.887   3.281   3.658  0.0809  0.1228 -0.3842
 7605SOL    HW230192   2.815   3.331   3.620  1.2872  0.8882 -1.8013
 7605SOL    HW330193   2.886   3.304   3.751 -2.3991 -1.0925 -0.0225
 7605SOL    MW430194   2.878   3.291   3.665  0.1873 -0.2537 -0.5226
 7606SOL     OW30195   0.270   3.253   3.915  0.5481 -0.1588 -0.1812
 7606SOL    HW230196   0.271   3.299   3.831 -0.1364  0.6771  0.2514
 7606SOL    HW330197   0.184   3.211   3.917 -0.3950  1.7088  1.0627
 7606SOL    MW430198   0.259   3.253   3.904 -0.1567  0.1397  0.2993
 7607SOL     OW30199   2.519   0.553   1.237  0.6444  0.0304  0.0104
 7607SOL    HW230200   2.502   0.630   1.183 -0.0088 -0.1404 -0.0373
 7607SOL    HW330201   2.498   0.479   1.180  0.9642 -0.1780  0.1594
 7607SOL    MW430202   2.514   0.553   1.222  0.2756  0.3077 -0.1772
 7608SOL     OW30203   0.545   5.804   2.952  0.6346  0.2133  0.2151
 7608SOL    HW230204   0.570   5.826   3.041 -0.2755  1.8943  0.0891
 7608SOL    HW330205   0.461   5.848   2.938  0.0057 -1.2398 -0.9884
 7608SOL    MW430206   0.537   5.813   2.962  0.2951 -0.1895 -0.3138
 7609SOL     OW30207   3.150   1.277   3.355  0.5678  0.1461 -0.3651
 7609SOL    HW230208   3.167   1.230   3.437  0.5268 -1.2154 -1.0942
 7609SOL    HW330209   3.104   1.356   3.381  0.1445 -0.4873  0.8828
 7609SOL    MW430210   3.146   1.281   3.369 -0.2991 -0.1390  0.0830
 7610SOL     OW30211   1.091   2.904   2.107  0.0513 -0.9411 -0.1394
 7610SOL    HW230212   1.062   2.916   2.197 -1.6201  0.5786 -0.8331
 7610SOL    HW330213   1.186   2.910   2.112 -0.0323 -0.4560  1.4645
 7610SOL    MW430214   1.100   2.906   2.120 -0.6603 -0.2930 -0.3666
 7611SOL     OW30215   6.216   3.273   1.540  0.2920  0.3270  0.3123
 7611SOL    HW230216   6.307   3.300   1.529  0.1917 -0.0444 -1.9972
 7611SOL    HW330217   6.164   3.346   1.506 -0.2034 -0.0405  0.2493
 7611SOL    MW430218   6.221   3.286   1.534 -0.0673 -0.0857  0.7880
 7612SOL     OW30219   2.730   3.478   2.080  0.1408 -0.1742  0.0151
 7612SOL    HW230220   2.642   3.462   2.045  0.3832 -0.3262 -0.5354
 7612SOL    HW330221   2.755   3.563   2.043  0.7095 -0.6978 -0.8160
 7612SOL    MW430222   2.721   3.487   2.071  0.1486 -0.1557  0.2298
 7613SOL     OW30223   5.495   3.516   2.104  0.2999 -0.5736  0.4819
 7613SOL    HW230224   5.533   3.511   2.192 -0.0723  0.6206  0.7351
 7613SOL    HW330225   5.494   3.610   2.084  1.3156 -0.8836 -1.2224
 7613SOL    MW430226   5.500   3.528   2.113  0.2475  0.0222  0.3908
 7614SOL     OW30227   0.249   2.039   4.478 -1.0882 -0.1356 -0.4413
 7614SOL    HW230228   0.158   2.070   4.473 -1.7437 -2.0165 -1.0548
 7614SOL    HW330229   0.242   1.952   4.516  0.4738 -0.3336 -0.5593
 7614SOL    MW430230   0.236   2.032   4.483 -0.1296 -0.4617 -0.1450
 7615SOL     OW30231   2.460   0.161   3.605  0.0779 -0.4381  0.3609
 7615SOL    HW230232   2.479   0.139   3.696  0.6401  0.9400  0.6006
 7615SOL    HW330233   2.373   0.200   3.608  0.9315  1.5524  0.6698
 7615SOL    MW430234   2.451   0.163   3.617  0.3152  0.3745 -0.1092
 7616SOL     OW30235   2.579   2.505   1.967  0.1021 -0.6880  0.2388
 7616SOL    HW230236   2.538   2.464   2.044  0.7572  0.6252  1.3366
 7616SOL    HW330237   2.519   2.574   1.942  0.9089  0.2924  0.9427
 7616SOL    MW430238   2.566   2.508   1.974 -0.7293 -0.6205  0.5349
 7617SOL     OW30239   2.034   3.860   5.390 -0.1449 -0.1912  0.2767
 7617SOL    HW230240   2.027   3.951   5.417  1.8220 -0.0850  0.5963
 7617SOL    HW330241   2.005   3.810   5.466  0.2910  0.1756  0.6953
 7617SOL    MW430242   2.029   3.865   5.404 -0.1526  0.3457  0.2660
 7618SOL     OW30243   1.384   4.610   3.229  0.0843  0.2857 -0.1907
 7618SOL    HW230244   1.466   4.639   3.269  0.7984 -0.6527 -0.9245
 7618SOL    HW330245   1.382   4.653   3.143 -0.2381  0.3811 -0.1365
 7618SOL    MW430246   1.395   4.620   3.223  0.0748 -0.1550  0.4287
 7619SOL     OW30247   2.751   3.207   0.306  0.1872 -0.3315 -0.0703
 7619SOL    HW230248   2.663   3.217   0.271 -0.5319 -0.8727  1.5065
 7619SOL    HW330249   2.763   3.112   0.317  1.4970 -0.3749 -1.5146
 7619SOL    MW430250   2.741   3.196   0.303  0.5582 -0.7534  0.0887
 7620SOL     OW30251   1.005   2.488   4.400 -0.6447 -0.1040 -0.5158
 7620SOL    HW230252   1.086   2.509   4.355  0.0851 -1.3686  0.1563
 7620SOL    HW330253   0.978   2.570   4.442 -0.0526  0.4704 -1.2543
 7620SOL    MW430254   1.012   2.502   4.400  0.1308 -0.2899 -0.2345
 7621SOL     OW30255   0.392   1.831   5.676 -0.5673 -0.4359  0.3300
 7621SOL    HW230256   0.484   1.834   5.653 -0.4775 -0.6689  0.6482
 7621SOL    HW330257   0.390   1.847   5.770 -1.0008  1.4134  0.0479
 7621SOL    MW430258   0.404   1.833   5.685  0.2433 -0.5424  0.1963
 7622SOL     OW30259   0.296   1.652   0.903  0.2769  0.1859 -0.4772
 7622SOL    HW230260   0.221   1.691   0.858 -0.0895  0.4060  0.2968
 7622SOL    HW330261   0.317   1.574   0.851 -0.0395  0.5059 -1.0985
 7622SOL    MW430262   0.289   1.647   0.890 -0.2449 -0.1889  0.1740
 7623SOL     OW30263   0.557   4.054   4.571  0.4487  0.3046  0.3417
 7623SOL    HW230264   0.642   4.082   4.606  0.9596  1.3108 -1.5810
 7623SOL    HW330265   0.495   4.119   4.604  0.2651 -0.7404  2.2090
 7623SOL    MW430266   0.560   4.066   4.580 -0.0861  0.0342 -0.4256
 7624SOL     OW30267   1.881   1.402   5.541 -0.4376 -0.5836  0.6048
 7624SOL    HW230268   1.879   1.307   5.541  1.3257 -0.6763 -1.0593
 7624SOL    HW330269   1.962   1.425   5.587 -0.0812  0.0312 -0.2884
 7624SOL    MW430270   1.891   1.393   5.547  0.5527 -0.4592  0.0805
 7625SOL     OW30271   1.545   1.743   2.890 -0.4765  0.4737 -0.2158
 7625SOL    HW230272   1.630   1.738   2.933  0.0521  0.4967 -1.2262
 7625SOL    HW330273   1.565   1.735   2.797 -1.5033  1.2627 -0.5225
 7625SOL    MW430274   1.559   1.741   2.883 -0.0849 -0.1455  0.1306
 7626SOL     OW30275   1.260   3.213   2.269  0.1857 -0.1455 -0.0944
 7626SOL    HW230276   1.304   3.294   2.294 -0.0133 -0.2403  0.5612
 7626SOL    HW330277   1.251   3.164   2.350  0.0420 -0.7018 -0.4416
 7626SOL    MW430278   1.265   3.217   2.283  0.0277  0.1639 -0.2158
 7627SOL     OW30279   4.777   4.925   4.178  0.0464 -0.5484  0.0067
 7627SOL    HW230280   4.738   4.856   4.233 -0.4920  0.0974  0.4581
 7627SOL    HW330281   4.858   4.948   4.224  0.3949 -1.1048 -0.3218
 7627SOL    MW430282   4.783   4.919   4.192 -0.0834 -0.2957 -0.0223
 7628SOL     OW30283   3.817   4.950   4.836  0.1819  0.0673  0.2232
 7628SOL    HW230284   3.907   4.977   4.819 -0.0253  1.1373  0.7841
 7628SOL    HW330285   3.820   4.908   4.922  0.0023  0.8861  0.6384
 7628SOL    MW430286   3.829   4.948   4.845  0.4652  0.0446  0.2744
 7629SOL     OW30287   1.696   0.872   5.270 -0.1702  0.1251  0.6224
 7629SOL    HW230288   1.681   0.811   5.197  0.0148  0.3859  0.3647
 7629SOL    HW330289   1.777   0.917   5.247 -1.0129  1.4445  0.1379
 7629SOL    MW430290   1.705   0.870   5.257  0.0259  0.4293  0.1796
 7630SOL     OW30291   5.455   6.400   5.848 -0.3422  0.0872  0.0027
 7630SOL    HW230292   5.517   6.412   5.776  1.1763  1.5411  1.4738
 7630SOL    HW330293   5.465   6.479   5.902 -2.7760 -0.0912  0.8452
 7630SOL    MW430294   5.464   6.412   5.845 -0.5394  0.4960 -0.7691
 7631SOL     OW30295   5.702   4.540   2.161  0.4572 -0.0112  0.7704
 7631SOL    HW230296   5.752   4.595   2.221  0.1988  0.4778  0.5426
 7631SOL    HW330297   5.631   4.504   2.214  0.1789  0.4898  0.7417
 7631SOL    MW430298   5.699   4.543   2.176  0.0813  0.1706 -0.3519
 7632SOL     OW30299   5.008   3.906   5.831  0.1705 -0.2857  0.1992
 7632SOL    HW230300   4.950   3.961   5.884  1.7525  1.9476 -0.2721
 7632SOL    HW330301   4.982   3.925   5.740 -0.4207 -1.7048  0.0380
 7632SOL    MW430302   4.997   3.916   5.826  0.2559  0.8319 -0.0166
 7633SOL     OW30303   2.533   4.135   2.942  0.6434 -0.7719 -0.1113
 7633SOL    HW230304   2.589   4.072   2.896  0.5955  0.8655 -2.5626
 7633SOL    HW330305   2.503   4.195   2.874 -1.5475  0.2921  1.6783
 7633SOL    MW430306   2.536   4.134   2.927 -0.4664  0.3580  0.2410
 7634SOL     OW30307   2.794   4.207   3.502  0.0842  0.4425 -0.1934
 7634SOL    HW230308   2.797   4.119   3.465 -0.7821  1.0153 -1.6736
 7634SOL    HW330309   2.747   4.197   3.585  1.6040 -0.7594  0.5892
 7634SOL    MW430310   2.789   4.194   3.508 -0.9912  0.1098  0.3262
 7635SOL     OW30311   1.349   3.230   0.683  0.2020 -0.6956 -0.4765
 7635SOL    HW230312   1.411   3.169   0.644  1.1683  0.5647 -0.9871
 7635SOL    HW330313   1.294   3.176   0.740  0.2288 -2.2055 -1.8369
 7635SOL    MW430314   1.350   3.215   0.685  0.4725  0.1737 -0.2300
 7636SOL     OW30315   4.178   2.892   6.291 -0.1081 -0.4400 -0.2945
 7636SOL    HW230316   4.243   2.923   6.354 -2.3229  1.6974  1.1648
 7636SOL    HW330317   4.179   2.957   6.221  0.5733 -1.4303 -1.2398
 7636SOL    MW430318   4.186   2.905   6.290  0.3574  0.4583 -0.0695
 7637SOL     OW30319   3.251   5.644   4.269 -0.6540 -0.4376  0.6357
 7637SOL    HW230320   3.161   5.645   4.237 -0.0577 -0.3233 -1.0919
 7637SOL    HW330321   3.265   5.553   4.295  0.2661 -1.8301 -3.8573
 7637SOL    MW430322   3.241   5.632   4.268  0.0515  0.1534  0.2645
 7638SOL     OW30323   1.799   4.783   0.573 -0.1761 -0.2617 -0.5712
 7638SOL    HW230324   1.843   4.700   0.592  1.5457 -0.0421 -3.0104
 7638SOL    HW330325   1.729   4.760   0.512  0.5263  0.0748 -1.5283
 7638SOL    MW430326   1.796   4.769   0.567  0.1944  0.0101  0.0255
 7639SOL     OW30327   4.105   4.192   4.518 -0.2857 -0.2026  0.1418
 7639SOL    HW230328   4.030   4.224   4.569 -0.1025  1.1532 -0.3953
 7639SOL    HW330329   4.181   4.212   4.572 -0.0596  1.5603 -0.7435
 7639SOL    MW430330   4.105   4.199   4.532 -0.1959  0.0843  0.3283
 7640SOL     OW30331   2.514   3.464   4.169  0.0688 -0.2213 -0.1953
 7640SOL    HW230332   2.433   3.417   4.189 -1.9065  3.2313  0.7233
 7640SOL    HW330333   2.497   3.507   4.085  0.2439  1.7395  0.7013
 7640SOL    MW430334   2.501   3.464   4.161 -0.5587  0.2888  0.8422
 7641SOL     OW30335   0.127   3.891   4.778  0.0275  0.0181 -0.4730
 7641SOL    HW230336   0.069   3.837   4.831 -0.3063 -2.6070 -3.2453
 7641SOL    HW330337   0.069   3.934   4.715  0.8381 -1.5565 -2.3917
 7641SOL    MW430338   0.112   3.890   4.777  0.7180 -0.1546 -0.4491
 7642SOL     OW30339   3.662   4.697   6.422 -0.2583  0.3287 -0.4391
 7642SOL    HW230340   3.705   4.782   6.419 -2.0699  1.5049  2.2808
 7642SOL    HW330341   3.587   4.706   6.364 -1.1962  1.1445  0.8375
 7642SOL    MW430342   3.658   4.709   6.414  0.5143 -0.1298  0.1253
 7643SOL     OW30343   0.403   3.073   6.334  0.4279  0.1761  0.4176
 7643SOL    HW230344   0.443   3.034   6.412  0.8201  0.7963  0.5337
 7643SOL    HW330345   0.423   3.011   6.264 -1.0369 -1.0504  1.0193
 7643SOL    MW430346   0.411   3.060   6.335  0.3450  0.6528 -0.1043
 7644SOL     OW30347   5.405   5.179   6.033 -0.3322  0.5203 -0.2823
 7644SOL    HW230348   5.398   5.272   6.055 -1.6698  0.3762  0.0044
 7644SOL    HW330349   5.381   5.134   6.114 -1.2140 -0.0539 -0.8467
 7644SOL    MW430350   5.401   5.186   6.047  0.3770  0.5452 -0.8069
 7645SOL     OW30351   2.715   1.985   5.554  0.1274 -0.2016 -0.4346
 7645SOL    HW230352   2.736   2.053   5.617  2.3467 -0.9949 -0.2302
 7645SOL    HW330353   2.664   1.921   5.603  1.4169 -0.5743  0.4860
 7645SOL    MW430354   2.711   1.986   5.569  0.4283  0.0061 -0.3641
 7646SOL     OW30355   2.276   5.509   2.103 -0.0755  0.3490  0.1074
 7646SOL    HW230356   2.301   5.473   2.018  0.3572 -2.2015  1.2267
 7646SOL    HW330357   2.213   5.446   2.139 -1.0734  1.9163  1.2611
 7646SOL    MW430358   2.271   5.496   2.097 -0.2434 -0.7066 -0.2598
 7647SOL     OW30359   4.942   1.728   4.614 -0.3046 -0.3920 -0.1302
 7647SOL    HW230360   4.991   1.742   4.695 -1.3451 -0.3539  0.5153
 7647SOL    HW330361   4.893   1.810   4.601  0.4932 -0.0686 -1.2710
 7647SOL    MW430362   4.942   1.741   4.623  0.2834  0.2553  0.2443
 7648SOL     OW30363   5.185   1.226   1.645 -0.0976  0.2246  0.3133
 7648SOL    HW230364   5.256   1.289   1.630  0.5002 -0.2032  1.2893
 7648SOL    HW330365   5.175   1.224   1.740 -0.0134 -1.2640  0.3021
 7648SOL    MW430366   5.193   1.234   1.656  0.5994  0.3341 -0.1528
 7649SOL     OW30367   4.888   3.099   5.146  0.6159  0.0855  0.0833
 7649SOL    HW230368   4.853   3.014   5.119  0.4781 -0.5314  2.0200
 7649SOL    HW330369   4.945   3.126   5.074  0.2062 -1.3639 -0.8299
 7649SOL    MW430370   4.891   3.091   5.133 -0.4414  0.3624  0.2733
 7650SOL     OW30371   3.423   2.261   1.379 -0.4690 -0.1387  0.5320
 7650SOL    HW230372   3.470   2.344   1.384 -0.8064  0.0611  0.3660
 7650SOL    HW330373   3.480   2.205   1.325 -0.1018 -0.1149  0.8891
 7650SOL    MW430374   3.437   2.265   1.373 -0.0584  0.2847  0.0805
 7651SOL     OW30375   3.537   4.535   3.790 -0.6025  0.1252 -0.5541
 7651SOL    HW230376   3.599   4.528   3.717  0.2516  1.4232  0.0065
 7651SOL    HW330377   3.593   4.546   3.867 -1.5030 -0.9081  0.2601
 7651SOL    MW430378   3.553   4.536   3.790  0.2140 -0.1197  0.6741
 7652SOL     OW30379   4.137   1.950   2.726 -0.7547  0.0272  0.4116
 7652SOL    HW230380   4.167   1.876   2.779  1.3853  0.6476  0.1426
 7652SOL    HW330381   4.195   1.951   2.650 -2.0318  0.8090 -0.6117
 7652SOL    MW430382   4.148   1.940   2.723 -0.2971  0.7224  0.1209
 7653SOL     OW30383   0.432   6.226   1.083  0.4596  0.3580  0.5261
 7653SOL    HW230384   0.458   6.266   1.165 -1.6773  1.9020  0.5181
 7653SOL    HW330385   0.418   6.299   1.023 -0.3100 -0.5800 -0.4896
 7653SOL    MW430386   0.433   6.241   1.086  0.3959 -0.2417 -0.1388
 7654SOL     OW30387   4.359   4.774   0.447  0.1470 -0.5659  0.1050
 7654SOL    HW230388   4.296   4.736   0.387 -3.0620  1.0885  2.1218
 7654SOL    HW330389   4.388   4.855   0.405  0.1085 -0.8153 -0.3998
 7654SOL    MW430390   4.354   4.780   0.434 -0.2142  0.1881 -0.2305
 7655SOL     OW30391   4.690   2.867   2.518  0.3209  0.0648 -0.2048
 7655SOL    HW230392   4.743   2.791   2.540  2.5661  1.5678 -0.0288
 7655SOL    HW330393   4.691   2.921   2.597 -0.5976  0.6020 -0.5473
 7655SOL    MW430394   4.697   2.864   2.531  0.4661  0.0541 -0.5201
 7656SOL     OW30395   5.914   4.017   5.352  0.1577 -0.3769 -0.2629
 7656SOL    HW230396   5.887   3.982   5.437 -0.0174  0.1793 -0.0861
 7656SOL    HW330397   5.967   3.948   5.314 -0.4629 -0.9734 -0.0656
 7656SOL    MW430398   5.917   4.004   5.358  0.2821  0.1080  0.4529
 7657SOL     OW30399   0.605   6.172   1.704  0.0132  0.2028  0.3798
 7657SOL    HW230400   0.559   6.161   1.787 -0.8181 -0.9221 -0.2037
 7657SOL    HW330401   0.689   6.212   1.728  1.2751 -3.1396  2.2325
 7657SOL    MW430402   0.610   6.176   1.718  1.1232  0.7107 -0.0411
 7658SOL     OW30403   6.335   3.222   1.811  0.2829 -0.0537  0.0738
 7658SOL    HW230404   6.288   3.253   1.733  0.4738 -0.5644 -0.2522
 7658SOL    HW330405   6.301   3.133   1.824  0.1769  0.0700  0.6372
 7658SOL    MW430406   6.324   3.214   1.802 -0.0900 -0.0667  0.0938
 7659SOL     OW30407   2.580   5.269   5.161 -0.5195 -0.4020 -0.1451
 7659SOL    HW230408   2.626   5.282   5.243 -1.6117  1.4926  0.2130
 7659SOL    HW330409   2.549   5.178   5.165  0.0658 -0.5629  1.1929
 7659SOL    MW430410   2.582   5.258   5.172 -0.2411 -0.1894  0.9621
 7660SOL     OW30411   2.785   3.505   5.064  0.3933 -0.1330  0.2091
 7660SOL    HW230412   2.834   3.582   5.091  2.4532 -0.8436 -1.2620
 7660SOL    HW330413   2.827   3.432   5.109  0.1590 -0.6670 -0.4069
 7660SOL    MW430414   2.797   3.505   5.073  0.1528 -0.1515 -0.5304
 7661SOL     OW30415   3.479   6.338   4.501 -0.4326 -0.5347  0.1309
 7661SOL    HW230416   3.464   6.244   4.491 -2.5145 -0.5911  2.6017
 7661SOL    HW330417   3.397   6.372   4.536  0.2852  2.2259 -0.6116
 7661SOL    MW430418   3.466   6.330   4.504 -0.1462 -0.0128  0.0665
 7662SOL     OW30419   2.222   3.660   4.649  0.5233  0.4280 -0.1983
 7662SOL    HW230420   2.252   3.741   4.688  0.0356  1.6694 -2.2551
 7662SOL    HW330421   2.240   3.669   4.556 -0.9754 -1.1482 -0.7141
 7662SOL    MW430422   2.228   3.672   4.642 -0.2759 -0.1558 -0.1612
 7663SOL     OW30423   0.987   2.254   5.174  0.4015  0.4135  0.0292
 7663SOL    HW230424   0.973   2.347   5.156  0.1782  0.6428  1.2685
 7663SOL    HW330425   0.982   2.248   5.269  1.0801 -0.7678  0.0029
 7663SOL    MW430426   0.985   2.266   5.184  0.2570  0.0289 -0.2908
 7664SOL     OW30427   3.316   3.478   5.153  0.5848 -0.0479  0.0667
 7664SOL    HW230428   3.302   3.400   5.100 -1.9733  0.4661 -0.1022
 7664SOL    HW330429   3.316   3.550   5.090  1.6671  0.2390  0.3664
 7664SOL    MW430430   3.314   3.477   5.138  0.0261 -0.0716 -0.6623
 7665SOL     OW30431   2.412   4.466   2.271 -0.2282 -0.0510  0.3273
 7665SOL    HW230432   2.491   4.428   2.233  0.0141  0.1597  0.6187
 7665SOL    HW330433   2.396   4.545   2.219  0.1704  0.3014  0.7328
 7665SOL    MW430434   2.420   4.471   2.259 -0.3865  0.4964  0.1526
 7666SOL     OW30435   4.123   4.668   4.159 -0.6594 -0.5390 -0.4468
 7666SOL    HW230436   4.103   4.762   4.156 -1.3447 -0.6598  0.1750
 7666SOL    HW330437   4.069   4.630   4.089 -0.3939 -0.4816 -0.6880
 7666SOL    MW430438   4.113   4.675   4.149 -0.1579  0.2943  0.6182
 7667SOL     OW30439   0.559   3.299   2.169 -0.3766 -0.3121  0.4522
 7667SOL    HW230440   0.601   3.292   2.254  0.2903 -1.0797  0.0769
 7667SOL    HW330441   0.494   3.229   2.168 -2.4088  1.4422  1.3945
 7667SOL    MW430442   0.556   3.289   2.180 -0.6086  0.3397  0.1294
 7668SOL     OW30443   0.160   5.532   4.289  0.7084  0.1767 -0.0625
 7668SOL    HW230444   0.209   5.565   4.213  0.1376  1.7521  0.2206
 7668SOL    HW330445   0.108   5.460   4.254  0.8986  0.4958 -1.0469
 7668SOL    MW430446   0.160   5.527   4.274  0.3258  0.0187  0.5145
 7669SOL     OW30447   5.514   0.425   2.616 -0.2731 -0.5982  0.4058
 7669SOL    HW230448   5.582   0.450   2.679 -1.0166 -0.3613  1.1293
 7669SOL    HW330449   5.502   0.503   2.562  1.1691 -1.1535 -0.8214
 7669SOL    MW430450   5.521   0.439   2.617 -0.2752  0.0312  0.0966
 7670SOL     OW30451   2.486   3.962   1.725 -0.1944  0.1295 -0.1674
 7670SOL    HW230452   2.479   4.036   1.784 -1.6399 -0.4164  0.3990
 7670SOL    HW330453   2.580   3.947   1.715  0.1635  2.4053 -0.8207
 7670SOL    MW430454   2.497   3.970   1.731  0.0883 -0.7932 -0.0033
 7671SOL     OW30455   4.190   4.940   3.303 -0.1104  0.3066 -0.1518
 7671SOL    HW230456   4.127   4.872   3.327  0.8453 -0.4252  0.3218
 7671SOL    HW330457   4.191   4.939   3.207 -0.1810 -0.2700 -0.1510
 7671SOL    MW430458   4.182   4.931   3.294 -0.0235  0.3455 -0.3308
 7672SOL     OW30459   6.308   4.379   4.116  0.4907 -0.1439 -0.1015
 7672SOL    HW230460   6.244   4.356   4.184 -0.0503  1.1201 -0.1606
 7672SOL    HW330461   6.359   4.299   4.104 -0.9209 -1.1245  0.1285
 7672SOL    MW430462   6.306   4.365   4.123  0.1947  0.5275 -0.0260
 7673SOL     OW30463   1.278   5.820   1.324  0.2891  0.0419 -0.3375
 7673SOL    HW230464   1.193   5.863   1.333  0.9828  1.0294  1.9084
 7673SOL    HW330465   1.293   5.777   1.408  1.3182 -1.5100 -1.2489
 7673SOL    MW430466   1.269   5.820   1.336 -0.2720  0.0200  0.8642
 7674SOL     OW30467   0.108   1.551   4.353 -0.0702 -0.8017  0.5381
 7674SOL    HW230468   0.156   1.469   4.362  0.2151 -0.5465  1.5375
 7674SOL    HW330469   0.164   1.606   4.299 -0.2732 -1.2621 -0.1530
 7674SOL    MW430470   0.122   1.548   4.347 -0.3734  0.4529 -0.1769
 7675SOL     OW30471   2.996   5.870   4.371 -1.0881 -0.1645 -0.4564
 7675SOL    HW230472   2.955   5.820   4.301 -1.1285  0.3087 -0.7783
 7675SOL    HW330473   3.015   5.805   4.439 -3.0912 -0.2890  0.0534
 7675SOL    MW430474   2.993   5.855   4.371  0.4169  0.3438  0.3072
 7676SOL     OW30475   2.650   1.393   4.174 -0.1854  0.3456 -0.6122
 7676SOL    HW230476   2.671   1.341   4.096  3.3632 -1.7963  1.4917
 7676SOL    HW330477   2.700   1.474   4.162 -0.2185  0.3282 -0.8781
 7676SOL    MW430478   2.659   1.397   4.162  0.0123 -0.4279  0.1531
 7677SOL     OW30479   0.374   3.116   2.401 -0.0309  0.1305  0.1545
 7677SOL    HW230480   0.334   3.201   2.384  0.3825  0.2984  0.0153
 7677SOL    HW330481   0.395   3.081   2.315  0.2295  0.0934  0.2336
 7677SOL    MW430482   0.371   3.123   2.388  0.1917 -0.3533 -0.3148
 7678SOL     OW30483   5.438   4.676   4.244  0.3083  0.1658 -0.1694
 7678SOL    HW230484   5.495   4.619   4.296 -0.0814 -0.9580 -0.9433
 7678SOL    HW330485   5.363   4.692   4.302  1.3914  1.6904  0.8691
 7678SOL    MW430486   5.435   4.670   4.259 -0.5843  0.1552 -0.5384
 7679SOL     OW30487   1.341   5.799   0.097 -0.2909 -0.4668  0.3878
 7679SOL    HW230488   1.331   5.706   0.076  3.2450 -0.9672  0.2804
 7679SOL    HW330489   1.252   5.835   0.092 -1.7134 -3.7196  0.0068
 7679SOL    MW430490   1.328   5.792   0.093 -0.3550 -0.5169 -0.8699
 7680SOL     OW30491   3.467   1.319   2.375  0.4923 -0.3748 -0.9265
 7680SOL    HW230492   3.467   1.404   2.331 -0.1412 -0.6168 -1.4206
 7680SOL    HW330493   3.536   1.325   2.440  0.9633  0.2512 -1.4772
 7680SOL    MW430494   3.476   1.331   2.378 -0.5906 -0.3449  0.5110
 7681SOL     OW30495   0.508   4.510   1.666  0.3948 -0.1546 -0.5054
 7681SOL    HW230496   0.537   4.600   1.656  1.2404 -0.1697  1.3831
 7681SOL    HW330497   0.586   4.457   1.650 -0.0558 -0.5694 -1.4364
 7681SOL    MW430498   0.522   4.515   1.662 -0.0236  0.8799 -0.2268
 7682SOL     OW30499   5.603   4.072   6.035 -0.1508  0.5212 -0.4746
 7682SOL    HW230500   5.517   4.101   6.064  0.2928  0.8659  0.5200
 7682SOL    HW330501   5.647   4.151   6.005  0.2302  0.5281  0.0901
 7682SOL    MW430502   5.597   4.086   6.035  0.3853  0.8418  0.2461
 7683SOL     OW30503   1.447   1.686   4.137  0.0488  0.4633 -0.3264
 7683SOL    HW230504   1.421   1.709   4.226 -0.4513 -0.4423 -0.2198
 7683SOL    HW330505   1.540   1.707   4.132 -0.1562  1.5137  0.0596
 7683SOL    MW430506   1.456   1.692   4.148 -0.2107  0.5374 -0.3492
 7684SOL     OW30507   3.920   0.507   2.031  0.6028 -0.1945  0.0343
 7684SOL    HW230508   3.869   0.456   2.094 -0.6217  2.1300  1.0737
 7684SOL    HW330509   4.002   0.458   2.021 -0.4012 -2.2156  1.0630
 7684SOL    MW430510   3.924   0.494   2.038 -0.5712  0.0334 -0.2602
 7685SOL     OW30511   3.310   1.689   2.750 -0.2087  0.2714 -0.6450
 7685SOL    HW230512   3.328   1.774   2.710  2.5232  0.4051  0.6706
 7685SOL    HW330513   3.303   1.708   2.844 -1.4498 -0.7336 -0.5014
 7685SOL    MW430514   3.311   1.703   2.758  0.0472 -0.1915  0.1932
 7686SOL     OW30515   4.016   0.653   2.597 -0.3342 -0.5562 -0.3873
 7686SOL    HW230516   3.959   0.588   2.638  0.0141 -0.5097  0.1708
 7686SOL    HW330517   3.972   0.736   2.613 -0.3051 -0.5597 -0.2869
 7686SOL    MW430518   4.002   0.655   2.604 -0.8862 -0.8904  0.9430
 7687SOL     OW30519   4.095   2.524   5.595 -0.1676  0.0790  0.4066
 7687SOL    HW230520   4.111   2.430   5.602 -2.3153 -0.3132  0.7741
 7687SOL    HW330521   4.160   2.564   5.653  0.2089 -1.2333  0.9234
 7687SOL    MW430522   4.106   2.517   5.603 -0.7693  0.0110  0.1589
 7688SOL     OW30523   3.291   5.287   2.619  0.0990 -0.4235 -0.0160
 7688SOL    HW230524   3.205   5.262   2.654 -0.2725 -0.2050 -0.7361
 7688SOL    HW330525   3.311   5.218   2.555 -0.2909  0.3616 -1.0106
 7688SOL    MW430526   3.282   5.274   2.615 -0.2300 -0.5626 -0.2508
 7689SOL     OW30527   6.328   0.690   5.559 -0.0157 -0.3494  0.0132
 7689SOL    HW230528   6.397   0.637   5.518  1.0285 -0.1143  1.4132
 7689SOL    HW330529   6.247   0.650   5.528  0.7330 -2.0667  0.1239
 7689SOL    MW430530   6.327   0.678   5.549 -0.5423 -0.3322 -0.4833
 7690SOL     OW30531   5.556   3.154   1.909 -0.4553 -0.1181 -0.0522
 7690SOL    HW230532   5.495   3.226   1.891 -1.1144 -0.9167 -1.1902
 7690SOL    HW330533   5.511   3.100   1.974 -0.1548  0.2507  0.4682
 7690SOL    MW430534   5.542   3.156   1.915 -0.4964  0.0139 -0.3185
 7691SOL     OW30535   6.376   3.604   0.838  0.0865  0.1307  0.3827
 7691SOL    HW230536   6.375   3.659   0.916  0.2388  0.2317  0.3137
 7691SOL    HW330537   6.390   3.516   0.870 -1.4805 -0.0723  0.6220
 7691SOL    MW430538   6.377   3.600   0.852  0.3441  0.1819 -0.1958
 7692SOL     OW30539   3.975   5.490   0.541 -0.0764  0.2626  0.2877
 7692SOL    HW230540   4.009   5.427   0.605  0.5869  1.8109  1.5324
 7692SOL    HW330541   3.881   5.493   0.559  0.1788  1.0936  1.6284
 7692SOL    MW430542   3.967   5.482   0.552  0.5981  0.1903  0.0793
 7693SOL     OW30543   4.794   6.159   4.707 -0.4500 -0.1196  0.2208
 7693SOL    HW230544   4.836   6.160   4.621  1.2886  0.1732  1.0305
 7693SOL    HW330545   4.813   6.245   4.745 -2.3716  0.2797  0.3937
 7693SOL    MW430546   4.802   6.170   4.701  0.5176  0.0946  0.6754
 7694SOL     OW30547   0.393   2.880   4.509 -0.0440  0.5629 -0.0817
 7694SOL    HW230548   0.450   2.838   4.573  1.0146  0.1660 -1.2616
 7694SOL    HW330549   0.452   2.926   4.449 -0.9298 -0.0582 -1.4774
 7694SOL    MW430550   0.408   2.881   4.510 -0.2333  0.8131 -0.5457
 7695SOL     OW30551   4.423   3.475   1.483  0.6843  0.1463 -0.1016
 7695SOL    HW230552   4.462   3.531   1.550  0.8195  0.6819 -0.6191
 7695SOL    HW330553   4.443   3.519   1.400 -0.4633  0.1018 -0.4196
 7695SOL    MW430554   4.430   3.488   1.481 -0.2541  0.4591 -0.1808
 7696SOL     OW30555   2.542   5.113   4.546 -0.2983 -0.2957 -0.0528
 7696SOL    HW230556   2.581   5.038   4.589  0.0785 -0.7372 -1.1226
 7696SOL    HW330557   2.464   5.078   4.502 -0.1228 -0.0797 -0.5518
 7696SOL    MW430558   2.537   5.099   4.546  1.1430  0.2605 -0.3905
 7697SOL     OW30559   2.868   5.621   1.361 -0.4915 -0.6448  0.8344
 7697SOL    HW230560   2.957   5.584   1.361 -0.7457 -1.4273 -1.2770
 7697SOL    HW330561   2.812   5.548   1.338 -1.3960  0.3052 -0.1230
 7697SOL    MW430562   2.873   5.607   1.358  0.1248 -0.0617  0.2939
 7698SOL     OW30563   6.201   2.697   3.823 -0.5430 -0.4635  0.0234
 7698SOL    HW230564   6.114   2.697   3.863 -0.9430 -0.8522 -0.8232
 7698SOL    HW330565   6.189   2.738   3.738  0.0237 -0.8493 -0.2531
 7698SOL    MW430566   6.188   2.702   3.817 -0.1375  0.8088  0.0155
 7699SOL     OW30567   4.920   0.014   4.470  0.0381 -0.1772 -0.0347
 7699SOL    HW230568   4.830  -0.014   4.454 -0.1652  1.2275 -1.7759
 7699SOL    HW330569   4.926   0.024   4.565 -1.7763  0.0572  0.0943
 7699SOL    MW430570   4.909   0.012   4.480 -0.5081 -0.4789 -0.0311
 7700SOL     OW30571   0.699   3.473   2.963 -0.0805  0.9065  0.0053
 7700SOL    HW230572   0.633   3.454   3.030 -0.7468  1.6708 -0.4097
 7700SOL    HW330573   0.678   3.413   2.891 -0.0824  0.8782  0.0298
 7700SOL    MW430574   0.688   3.463   2.962 -0.2745 -0.5904  0.0612
 7701SOL     OW30575   3.701   5.092   2.057  0.0632 -0.4833 -0.6565
 7701SOL    HW230576   3.751   5.173   2.046  0.3841 -0.7918 -1.5057
 7701SOL    HW330577   3.752   5.025   2.011 -0.6386 -0.9986 -0.7087
 7701SOL    MW430578   3.714   5.094   2.050  0.1829 -0.1785 -0.4835
 7702SOL     OW30579   5.075   3.468   5.527 -0.9427 -0.5077 -0.0017
 7702SOL    HW230580   5.053   3.414   5.451 -0.4383 -0.0210 -0.5018
 7702SOL    HW330581   5.071   3.558   5.495 -3.3449 -0.0839  1.2076
 7702SOL    MW430582   5.071   3.473   5.513  0.0550  0.2700 -0.3259
 7703SOL     OW30583   3.087   3.980   2.402 -0.0896  0.3248  0.7173
 7703SOL    HW230584   3.026   3.908   2.384 -1.0471  1.3285 -0.2206
 7703SOL    HW330585   3.169   3.952   2.361  0.1203 -1.0182  1.9458
 7703SOL    MW430586   3.090   3.967   2.394  0.3916 -0.0599 -0.3136
 7704SOL     OW30587   4.829   2.043   0.104 -0.3147  0.0081  0.0190
 7704SOL    HW230588   4.919   2.065   0.081 -0.4214  0.8839  0.3942
 7704SOL    HW330589   4.834   2.010   0.194 -0.2634 -0.7880 -0.2639
 7704SOL    MW430590   4.841   2.042   0.113 -0.4334 -0.3892 -0.0337
 7705SOL     OW30591   1.597   1.362   2.164  0.3039 -0.1578 -0.2285
 7705SOL    HW230592   1.577   1.328   2.251  2.2053 -1.3289 -0.2136
 7705SOL    HW330593   1.553   1.302   2.104  0.2268 -0.2270 -0.1030
 7705SOL    MW430594   1.588   1.350   2.168 -0.6122 -0.6070 -0.4349
 7706SOL     OW30595   2.183   3.480   2.722 -0.1436 -0.1667  0.2842
 7706SOL    HW230596   2.192   3.555   2.782  0.4833  0.9926 -1.2008
 7706SOL    HW330597   2.248   3.417   2.753  0.5886  0.6603  0.4781
 7706SOL    MW430598   2.193   3.482   2.734  0.0031 -0.2577 -0.0803
 7707SOL     OW30599   2.308   2.436   5.814  0.6260  0.0176 -0.4479
 7707SOL    HW230600   2.391   2.447   5.770  1.0768 -0.2903  0.3043
 7707SOL    HW330601   2.296   2.516   5.865  0.6994 -0.1377 -0.1811
 7707SOL    MW430602   2.317   2.448   5.815  0.1962 -0.4875 -0.8065
 7708SOL     OW30603   0.122   2.938   4.621  0.6668 -0.2871  0.1066
 7708SOL    HW230604   0.215   2.915   4.613  0.9358  0.5332  0.7044
 7708SOL    HW330605   0.099   2.974   4.535  0.8263 -0.7609 -0.1343
 7708SOL    MW430606   0.131   2.940   4.608 -0.7568  0.3742 -0.0703
 7709SOL     OW30607   2.238   1.622   3.917  0.1832  0.2574  0.0177
 7709SOL    HW230608   2.185   1.694   3.952  0.6966 -0.3598  2.2359
 7709SOL    HW330609   2.317   1.664   3.882 -0.2096  0.8852 -0.1189
 7709SOL    MW430610   2.242   1.637   3.917 -0.5723  0.0672 -0.3315
 7710SOL     OW30611   4.603   0.624   3.042  0.3149  0.5530  0.2878
 7710SOL    HW230612   4.553   0.558   2.994  0.7533 -0.3705  1.0574
 7710SOL    HW330613   4.694   0.607   3.020  0.6539 -0.7582  2.3935
 7710SOL    MW430614   4.608   0.613   3.033  0.2116  0.0936  0.1006
 7711SOL     OW30615   3.415   0.838   6.140 -0.1274 -0.2759  0.2264
 7711SOL    HW230616   3.391   0.776   6.208 -0.1735  0.0382  0.5007
 7711SOL    HW330617   3.360   0.915   6.156  0.4849  0.1426  0.3760
 7711SOL    MW430618   3.404   0.840   6.151 -0.2820  0.1781  0.5723
 7712SOL     OW30619   0.179   5.764   0.689 -0.6414  0.2808 -0.3589
 7712SOL    HW230620   0.109   5.699   0.679 -0.0632 -0.1526 -1.9568
 7712SOL    HW330621   0.205   5.785   0.599  0.8402  0.9129  0.1846
 7712SOL    MW430622   0.173   5.758   0.675 -0.6604  0.8178 -0.3451
 7713SOL     OW30623   5.474   2.209   1.543  0.4483 -0.1091 -0.6261
 7713SOL    HW230624   5.464   2.168   1.629  0.8276  0.2460 -0.4059
 7713SOL    HW330625   5.427   2.151   1.483  0.9936 -0.8817 -0.3320
 7713SOL    MW430626   5.467   2.196   1.547  0.4922  0.0962  0.1010
 7714SOL     OW30627   3.421   4.730   6.270 -0.1427  0.0014  0.4521
 7714SOL    HW230628   3.477   4.759   6.197 -0.5004 -0.7644 -0.1411
 7714SOL    HW330629   3.334   4.765   6.249  0.1794  1.6415  1.6419
 7714SOL    MW430630   3.417   4.739   6.258  0.4815  0.0372 -0.0210
 7715SOL     OW30631   0.962   2.966   1.049  0.1835 -0.2988  0.4985
 7715SOL    HW230632   0.877   3.002   1.026  0.0959  0.0808  1.3859
 7715SOL    HW330633   0.987   3.012   1.129  1.7298  0.3901 -0.3332
 7715SOL    MW430634   0.954   2.976   1.057  0.0434  0.3595  0.2110
 7716SOL     OW30635   5.132   1.406   5.190  0.2886  0.1471  0.6658
 7716SOL    HW230636   5.114   1.349   5.264 -1.4063  0.2010  0.3509
 7716SOL    HW330637   5.190   1.474   5.225  1.0277 -0.8663  1.4405
 7716SOL    MW430638   5.137   1.408   5.204  0.5411  0.3717  0.4197
 7717SOL     OW30639   0.646   4.727   5.092  0.1731  0.3747 -0.2249
 7717SOL    HW230640   0.670   4.771   5.174 -1.6146  0.9903  0.0116
 7717SOL    HW330641   0.568   4.676   5.115 -0.9998  1.4000 -1.7725
 7717SOL    MW430642   0.639   4.726   5.106 -0.1640 -0.5800 -0.0887
 7718SOL     OW30643   0.767   4.859   6.057 -0.1314  0.1686  0.0763
 7718SOL    HW230644   0.729   4.873   6.143 -0.1408  1.7704 -0.1645
 7718SOL    HW330645   0.854   4.823   6.074 -0.3674 -0.0939  0.7302
 7718SOL    MW430646   0.773   4.856   6.070  0.0139 -0.7779 -0.3773
 7719SOL     OW30647   6.323   0.363   4.677  0.2849  0.1910  0.0331
 7719SOL    HW230648   6.417   0.352   4.659  0.1586  0.9283 -1.1829
 7719SOL    HW330649   6.298   0.441   4.627 -1.1489 -0.4462 -0.2867
 7719SOL    MW430650   6.332   0.372   4.668 -0.3209 -0.0594 -0.2282
 7720SOL     OW30651   4.231   2.527   3.880  0.5375  0.1712 -0.2394
 7720SOL    HW230652   4.271   2.582   3.814 -0.4766 -0.6640 -1.6192
 7720SOL    HW330653   4.302   2.473   3.914  1.0428  0.5212 -0.7390
 7720SOL    MW430654   4.245   2.527   3.876 -0.1754  0.1621  0.2104
 7721SOL     OW30655   3.814   1.703   0.356  0.1544 -0.5514  0.5455
 7721SOL    HW230656   3.730   1.729   0.395 -0.8324 -0.0596 -1.7416
 7721SOL    HW330657   3.818   1.752   0.274  2.6624 -0.6628  0.5231
 7721SOL    MW430658   3.803   1.713   0.350 -0.3019  0.2305 -0.8590
 7722SOL     OW30659   5.635   6.407   4.872  0.1773 -0.4707 -0.1319
 7722SOL    HW230660   5.642   6.334   4.934  1.0484 -0.6256 -0.4043
 7722SOL    HW330661   5.592   6.476   4.922 -0.0327 -0.9327  0.3424
 7722SOL    MW430662   5.630   6.406   4.887  0.2230  0.3196 -0.0379
 7723SOL     OW30663   2.212   1.121   4.052  0.4481 -0.0878  0.1298
 7723SOL    HW230664   2.262   1.098   4.130  0.6632 -1.3353 -0.3443
 7723SOL    HW330665   2.216   1.042   3.997 -2.1050 -0.2673  0.0985
 7723SOL    MW430666   2.219   1.107   4.055  0.3315  0.2719  0.3693
 7724SOL     OW30667   4.679   3.488   3.835 -0.2368  0.0549 -0.4505
 7724SOL    HW230668   4.691   3.419   3.900 -0.3684  0.4107 -0.0409
 7724SOL    HW330669   4.754   3.481   3.777 -0.2531 -0.4362 -0.4147
 7724SOL    MW430670   4.690   3.478   3.836  0.4072 -0.0997  0.0541
 7725SOL     OW30671   1.661   3.943   5.957 -0.0142 -0.3777 -0.2027
 7725SOL    HW230672   1.700   3.949   5.870  0.2997  1.7368  0.0235
 7725SOL    HW330673   1.713   3.876   6.002 -0.7377 -2.1680 -1.8573
 7725SOL    MW430674   1.673   3.935   5.952  0.2460 -0.1440  0.1888
 7726SOL     OW30675   3.938   2.869   0.760  0.1590  0.3529  0.2995
 7726SOL    HW230676   3.940   2.892   0.667 -0.8540  0.1071  0.2077
 7726SOL    HW330677   3.845   2.866   0.782  0.4027  1.6337  1.6418
 7726SOL    MW430678   3.926   2.871   0.750  0.0137  0.1256 -0.0550
 7727SOL     OW30679   5.471   2.403   0.589 -0.0699 -0.3004  0.0786
 7727SOL    HW230680   5.443   2.410   0.498 -3.1461  0.2008  0.9518
 7727SOL    HW330681   5.522   2.322   0.592 -2.6382 -2.1077 -1.5226
 7727SOL    MW430682   5.474   2.393   0.578 -0.4504  0.4318  0.4149
 7728SOL     OW30683   4.016   4.923   3.999  0.6059 -0.2459 -0.2358
 7728SOL    HW230684   3.930   4.941   4.038  0.2122 -1.5599 -0.4616
 7728SOL    HW330685   3.999   4.856   3.933  1.8285 -0.5886 -0.2277
 7728SOL    MW430686   4.002   4.917   3.995 -0.6122 -0.3303 -0.7501
 7729SOL     OW30687   1.447   5.876   0.363  0.0230 -0.2361  0.6538
 7729SOL    HW230688   1.524   5.824   0.341 -0.0832  0.0307 -0.4459
 7729SOL    HW330689   1.401   5.886   0.280 -0.6148  0.5437  1.0846
 7729SOL    MW430690   1.451   5.871   0.349  0.3449  0.3073 -0.2772
 7730SOL     OW30691   4.466   2.632   2.880  0.0259 -0.1842  0.4613
 7730SOL    HW230692   4.416   2.551   2.869 -0.5825 -0.1261  2.3416
 7730SOL    HW330693   4.557   2.604   2.881 -0.0208 -0.5145 -1.2624
 7730SOL    MW430694   4.471   2.617   2.879  0.3801 -0.2167  0.0496
 7731SOL     OW30695   5.470   4.198   5.776 -0.0606  0.1130 -0.1585
 7731SOL    HW230696   5.497   4.260   5.844 -2.8760  0.5760  0.6557
 7731SOL    HW330697   5.518   4.117   5.798  0.9560  0.9518  0.8743
 7731SOL    MW430698   5.480   4.196   5.788  0.0961 -0.0730 -0.2981
 7732SOL     OW30699   1.981   1.228   0.565 -0.1519 -0.2094  0.0964
 7732SOL    HW230700   1.953   1.282   0.639 -1.4544  0.1308 -0.5949
 7732SOL    HW330701   2.004   1.292   0.497 -1.6052 -0.4745 -0.6938
 7732SOL    MW430702   1.980   1.244   0.566  0.5354 -0.4408 -0.5472
 7733SOL     OW30703   6.129   5.276   2.182 -0.1290  0.2728 -0.1433
 7733SOL    HW230704   6.169   5.301   2.265  0.3131  0.3090 -0.3669
 7733SOL    HW330705   6.085   5.356   2.152  1.7875  1.0113 -1.1552
 7733SOL    MW430706   6.128   5.290   2.189  0.6048  0.0419 -0.1020
 7734SOL     OW30707   5.721   0.416   3.935 -0.0447 -0.0891  0.0678
 7734SOL    HW230708   5.753   0.422   4.024 -0.1106  0.2135  0.0704
 7734SOL    HW330709   5.768   0.341   3.898  0.2870  0.0391  0.2266
 7734SOL    MW430710   5.731   0.407   3.942  0.1559  0.0116 -0.1364
 7735SOL     OW30711   0.483   3.067   3.094 -0.1631  0.4248 -0.1912
 7735SOL    HW230712   0.402   3.070   3.146 -0.1773 -3.8333  0.3995
 7735SOL    HW330713   0.454   3.081   3.004 -2.0682 -2.9836 -0.2674
 7735SOL    MW430714   0.468   3.069   3.089  0.2314  0.6468 -0.9402
 7736SOL     OW30715   3.285   6.255   5.539  0.1029  0.0973 -0.1040
 7736SOL    HW230716   3.249   6.337   5.506 -1.0170 -1.1129 -2.1075
 7736SOL    HW330717   3.372   6.249   5.501  0.6895  0.8725  1.0384
 7736SOL    MW430718   3.291   6.265   5.530  0.0787  0.3771 -0.0602
 7737SOL     OW30719   5.054   4.628   4.688  0.3646 -0.0789  0.6789
 7737SOL    HW230720   5.024   4.538   4.704 -0.3960  0.2103  0.8785
 7737SOL    HW330721   5.075   4.662   4.775  2.1647 -0.5659  0.4881
 7737SOL    MW430722   5.053   4.620   4.702  0.3304  0.5395  0.1479
 7738SOL     OW30723   0.352   5.345   2.930 -0.0707  0.0069 -0.0085
 7738SOL    HW230724   0.408   5.418   2.902  0.0449 -0.0270  0.1354
 7738SOL    HW330725   0.308   5.317   2.850  0.8664 -0.6171 -0.3167
 7738SOL    MW430726   0.354   5.351   2.916 -0.2893  0.4236 -0.6790
 7739SOL     OW30727   3.714   0.050   4.554 -0.1058 -0.1019 -0.2039
 7739SOL    HW230728   3.623   0.022   4.547  0.0650 -0.3861 -1.5065
 7739SOL    HW330729   3.723   0.119   4.489  0.8456 -0.7306 -0.7657
 7739SOL    MW430730   3.703   0.055   4.545 -0.1020 -0.0716 -0.3242
 7740SOL     OW30731   4.764   0.812   0.921  0.7731 -0.1977 -0.0720
 7740SOL    HW230732   4.808   0.782   1.001 -0.8440 -1.2463  0.4842
 7740SOL    HW330733   4.754   0.906   0.933 -1.8774 -0.6429  2.3279
 7740SOL    MW430734   4.769   0.820   0.933 -0.3142  0.7145  0.4194
 7741SOL     OW30735   3.042   1.330   1.172  0.0792 -0.2003 -0.8806
 7741SOL    HW230736   3.064   1.336   1.078 -0.0795  0.2955 -0.8900
 7741SOL    HW330737   3.070   1.414   1.208 -3.3113  1.2406 -1.2133
 7741SOL    MW430738   3.049   1.342   1.164  0.6106 -0.8779  0.0280
 7742SOL     OW30739   5.242   6.376   2.061  0.4175  0.6848  0.0982
 7742SOL    HW230740   5.195   6.406   1.983 -1.6638  2.9050  2.0117
 7742SOL    HW330741   5.252   6.281   2.048 -2.1681  0.5398 -1.7411
 7742SOL    MW430742   5.237   6.367   2.049 -0.2661  0.4773  0.1114
 7743SOL     OW30743   6.268   6.343   1.687  0.7206 -0.7962 -0.6590
 7743SOL    HW230744   6.207   6.367   1.757  1.1507  0.2537 -0.6306
 7743SOL    HW330745   6.344   6.306   1.732  0.2436 -1.8202 -0.6782
 7743SOL    MW430746   6.270   6.342   1.702  0.0572  0.6663 -0.1126
 7744SOL     OW30747   5.473   5.508   4.401 -0.4412  0.2119 -0.2432
 7744SOL    HW230748   5.470   5.452   4.479  0.0679  0.5132  0.0031
 7744SOL    HW330749   5.563   5.501   4.370 -0.7559 -0.2569 -1.0765
 7744SOL    MW430750   5.485   5.500   4.407  0.6628  0.2266 -0.3291
 7745SOL     OW30751   5.044   1.802   5.394 -0.0335  0.0639  0.1113
 7745SOL    HW230752   5.039   1.806   5.298  0.4939  0.5557  0.0969
 7745SOL    HW330753   5.002   1.883   5.423  1.7731  1.0050  0.2092
 7745SOL    MW430754   5.037   1.813   5.385  0.4531 -0.1403 -0.9460
 7746SOL     OW30755   0.791   3.042   2.703  0.1767  0.7073  0.1981
 7746SOL    HW230756   0.733   3.036   2.627  0.9278 -0.6349 -0.2956
 7746SOL    HW330757   0.736   3.021   2.778  0.0611 -0.7866 -0.2881
 7746SOL    MW430758   0.776   3.039   2.702 -0.2761 -0.4175  0.7393
 7747SOL     OW30759   4.290   2.680   2.224  0.2335 -0.4992  0.0104
 7747SOL    HW230760   4.226   2.736   2.267  0.2914 -0.9733  0.7340
 7747SOL    HW330761   4.374   2.725   2.234  0.7873 -1.9405  3.0688
 7747SOL    MW430762   4.293   2.693   2.231 -0.0858 -0.1051 -0.4267
 7748SOL     OW30763   4.769   0.286   3.032  0.8424  0.1501  0.7964
 7748SOL    HW230764   4.718   0.336   3.096  1.9236  1.7325  0.4989
 7748SOL    HW330765   4.823   0.352   2.988  0.8472 -1.0158 -1.0796
 7748SOL    MW430766   4.769   0.302   3.034 -0.2868 -0.3179 -0.0385
 7749SOL     OW30767   1.094   5.609   1.590 -0.8197 -0.4490  0.8192
 7749SOL    HW230768   1.051   5.607   1.505  0.9079 -1.0502 -0.0913
 7749SOL    HW330769   1.103   5.516   1.614  0.0955 -0.3510  0.8963
 7749SOL    MW430770   1.089   5.596   1.582  0.1889 -0.2423 -0.0624
 7750SOL     OW30771   3.747   1.535   2.219 -0.7186 -0.0278  0.4333
 7750SOL    HW230772   3.740   1.440   2.212 -2.5301 -0.0438  1.6930
 7750SOL    HW330773   3.799   1.550   2.298 -0.5468  0.0128  0.3109
 7750SOL    MW430774   3.753   1.525   2.228 -1.3223 -0.1204 -0.5425
 7751SOL     OW30775   1.520   5.362   4.194 -0.1917 -0.5008  0.0222
 7751SOL    HW230776   1.472   5.436   4.231  0.7887  0.3726 -0.4019
 7751SOL    HW330777   1.532   5.302   4.268 -1.6235 -0.5952  0.2044
 7751SOL    MW430778   1.515   5.364   4.209 -0.0818 -0.5120 -0.1540
 7752SOL     OW30779   1.181   2.467   5.425  0.1386  0.2542 -0.3014
 7752SOL    HW230780   1.217   2.525   5.358 -0.4518  3.4100  1.8824
 7752SOL    HW330781   1.257   2.440   5.476  0.4602 -1.2904 -1.5352
 7752SOL    MW430782   1.196   2.471   5.423 -0.1036 -0.0356 -0.0357
 7753SOL     OW30783   1.394   5.909   2.437 -0.3135  0.0527 -0.1167
 7753SOL    HW230784   1.364   5.963   2.363 -1.0579  3.1215  2.1979
 7753SOL    HW330785   1.489   5.916   2.435 -0.3688  0.8849 -0.3140
 7753SOL    MW430786   1.403   5.917   2.427 -0.5463  0.4922 -0.2282
 7754SOL     OW30787   5.347   2.918   1.055 -0.7447 -0.5162  0.4686
 7754SOL    HW230788   5.390   2.956   0.979 -0.7846  1.0475  1.1908
 7754SOL    HW330789   5.359   2.823   1.045 -3.0847 -0.6159 -2.8563
 7754SOL    MW430790   5.354   2.910   1.044 -0.7440  0.0128  0.0280
 7755SOL     OW30791   3.347   3.957   0.220 -0.2062 -0.0107 -0.2093
 7755SOL    HW230792   3.307   3.888   0.272 -1.9016  0.2090 -1.1706
 7755SOL    HW330793   3.382   3.913   0.143 -0.3464  0.0622 -0.3149
 7755SOL    MW430794   3.347   3.942   0.217 -0.0871  0.4288 -0.1232
 7756SOL     OW30795   4.563   0.817   6.120 -0.4807  0.4366  0.1658
 7756SOL    HW230796   4.492   0.862   6.165  0.0852  0.0985  1.4547
 7756SOL    HW330797   4.627   0.885   6.101  0.8148  0.1344  2.9710
 7756SOL    MW430798   4.562   0.832   6.124  0.0341 -0.4421  0.3681
 7757SOL     OW30799   2.205   2.215   6.071 -0.3663  0.0743  0.4509
 7757SOL    HW230800   2.120   2.249   6.044  0.8241  2.9067 -0.0555
 7757SOL    HW330801   2.255   2.207   5.989  0.6003  0.7349  0.9517
 7757SOL    MW430802   2.201   2.218   6.057  0.2103  0.6115 -0.3173
 7758SOL     OW30803   2.910   0.116   3.459  0.1860  0.4722 -0.6923
 7758SOL    HW230804   2.852   0.138   3.386 -0.5383 -0.2262 -0.3438
 7758SOL    HW330805   2.853   0.118   3.536  0.6486 -0.0983 -0.3287
 7758SOL    MW430806   2.895   0.119   3.460 -0.3176  0.2140 -1.2190
 7759SOL     OW30807   3.111   0.450   5.334  0.0214  0.1134 -0.1177
 7759SOL    HW230808   3.175   0.450   5.263  0.8262 -0.2408  0.5849
 7759SOL    HW330809   3.065   0.533   5.324  2.0838  1.4474  0.6465
 7759SOL    MW430810   3.114   0.461   5.323  0.4469 -0.0925 -0.2110
 7760SOL     OW30811   1.260   2.481   2.488  0.7685  0.3713 -0.3799
 7760SOL    HW230812   1.282   2.574   2.482  1.8455  0.1101 -0.9452
 7760SOL    HW330813   1.203   2.464   2.413  0.0742  0.6907  0.0682
 7760SOL    MW430814   1.256   2.491   2.477 -0.0134  0.1175 -0.1549
 7761SOL     OW30815   5.250   4.187   1.324  0.6182 -0.2412  0.2356
 7761SOL    HW230816   5.270   4.180   1.417 -0.4890 -0.5149  0.4719
 7761SOL    HW330817   5.287   4.107   1.285  0.0857 -0.6921  0.6389
 7761SOL    MW430818   5.257   4.175   1.331 -0.2789 -0.6632  0.0055
 7762SOL     OW30819   3.966   2.244   4.163  0.6102  0.0021 -0.1581
 7762SOL    HW230820   3.948   2.294   4.083  1.9308  0.6863 -0.0676
 7762SOL    HW330821   4.059   2.260   4.180  0.3124  0.0420  1.6286
 7762SOL    MW430822   3.976   2.253   4.154 -0.3231 -0.6050 -0.3107
 7763SOL     OW30823   0.089   4.427   0.803 -0.0755 -0.3192 -0.8544
 7763SOL    HW230824   0.168   4.481   0.806 -0.2114 -0.0040 -2.3997
 7763SOL    HW330825   0.021   4.484   0.768 -0.6677 -0.9920 -0.8404
 7763SOL    MW430826   0.090   4.441   0.799  0.2767 -0.3903  0.1535
 7764SOL     OW30827   3.581   1.641   1.544 -0.6205  0.4499 -0.3235
 7764SOL    HW230828   3.555   1.592   1.466  0.4803  0.9513 -1.0386
 7764SOL    HW330829   3.501   1.682   1.576 -1.2311 -0.4434 -0.7008
 7764SOL    MW430830   3.567   1.640   1.538 -0.0124  0.1678 -0.2306
 7765SOL     OW30831   5.236   5.924   4.715 -0.4521  0.6476  0.1195
 7765SOL    HW230832   5.306   5.955   4.658 -1.0149 -0.9294 -1.5091
 7765SOL    HW330833   5.257   5.832   4.732 -0.8316  0.8211  1.6871
 7765SOL    MW430834   5.248   5.916   4.710 -0.1340  0.4754 -0.5139
 7766SOL     OW30835   4.082   5.031   0.421 -0.1908  0.2823  0.3026
 7766SOL    HW230836   4.092   4.976   0.499 -0.3114  0.8924  0.7536
 7766SOL    HW330837   4.137   5.108   0.438 -0.0939  0.3486 -0.2844
 7766SOL    MW430838   4.091   5.034   0.434 -0.4679 -0.0408  0.1116
 7767SOL     OW30839   0.599   5.298   4.279 -0.3973 -0.7142 -0.4988
 7767SOL    HW230840   0.616   5.321   4.370 -3.1868 -1.9226  0.4580
 7767SOL    HW330841   0.676   5.248   4.252  1.6939  1.8657  0.2279
 7767SOL    MW430842   0.611   5.294   4.288  0.4353 -0.2752 -0.2979
 7768SOL     OW30843   4.949   6.047   4.477  0.1437 -0.7300  0.4784
 7768SOL    HW230844   4.939   5.996   4.396 -0.4289  0.3438 -0.1473
 7768SOL    HW330845   5.035   6.087   4.469  0.5241 -1.4507  0.8932
 7768SOL    MW430846   4.959   6.045   4.465 -0.1373  0.1432  0.1321
 7769SOL     OW30847   0.482   1.243   0.561 -0.7326  0.2739 -0.1103
 7769SOL    HW230848   0.440   1.158   0.545 -2.2234  1.1856 -1.2712
 7769SOL    HW330849   0.438   1.277   0.638  1.0655 -0.6918  1.4467
 7769SOL    MW430850   0.471   1.236   0.569 -0.2045  0.5682  0.2458
 7770SOL     OW30851   5.099   4.181   5.990 -0.5380 -0.3348  0.0533
 7770SOL    HW230852   5.035   4.128   6.038  0.6481 -1.2321  0.7030
 7770SOL    HW330853   5.075   4.271   6.010  1.3990 -0.5476  4.6413
 7770SOL    MW430854   5.087   4.186   5.999  0.0297  0.8483  0.0432
 7771SOL     OW30855   3.826   1.557   5.636  0.1705 -0.7203  0.2366
 7771SOL    HW230856   3.909   1.559   5.588  0.3813 -1.0899  0.5828
 7771SOL    HW330857   3.785   1.475   5.610 -0.1318 -0.4994 -0.0000
 7771SOL    MW430858   3.831   1.547   5.626 -0.5083  0.2556  0.2754
 7772SOL     OW30859   3.319   0.684   4.756  0.5720  0.6474 -0.0343
 7772SOL    HW230860   3.316   0.732   4.839  2.5947  0.1479  0.3859
 7772SOL    HW330861   3.295   0.595   4.779  2.5457  0.1707  0.3503
 7772SOL    MW430862   3.316   0.679   4.770 -0.0087  0.7920 -0.6928
 7773SOL     OW30863   0.286   1.334   4.428 -0.5663 -0.2096 -0.2412
 7773SOL    HW230864   0.269   1.260   4.369 -2.1355 -0.7333  0.8043
 7773SOL    HW330865   0.279   1.296   4.516 -0.7250  1.0508  0.3028
 7773SOL    MW430866   0.283   1.319   4.432  0.4028  0.0653  0.3501
 7774SOL     OW30867   1.972   3.114   5.723 -0.3581  0.5124 -0.1806
 7774SOL    HW230868   2.004   3.025   5.708 -0.2812  0.1891  1.5953
 7774SOL    HW330869   1.894   3.122   5.668 -0.5493 -0.7749 -0.1157
 7774SOL    MW430870   1.966   3.103   5.714 -0.4782 -0.4448 -0.1924
 7775SOL     OW30871   0.368   2.286   2.019 -0.6446  0.7119 -0.4517
 7775SOL    HW230872   0.425   2.358   1.992  1.6534 -0.4256  1.0208
 7775SOL    HW330873   0.328   2.316   2.101 -0.0018  0.4786 -0.0493
 7775SOL    MW430874   0.370   2.300   2.026 -0.1635 -0.7581 -0.6630
 7776SOL     OW30875   1.353   1.321   2.629 -0.3281  0.0133 -0.0793
 7776SOL    HW230876   1.324   1.231   2.644  0.1934 -0.7879 -3.0605
 7776SOL    HW330877   1.387   1.320   2.539 -0.6040  3.2844 -0.3446
 7776SOL    MW430878   1.354   1.309   2.619  0.4766  0.5863 -0.3149
 7777SOL     OW30879   4.553   0.415   0.674  0.2785 -0.3560 -0.0699
 7777SOL    HW230880   4.590   0.394   0.588  0.5229 -1.0482  0.2026
 7777SOL    HW330881   4.521   0.505   0.664 -0.4543 -0.7070 -1.1413
 7777SOL    MW430882   4.553   0.424   0.661  0.2082 -0.3490  0.3289
 7778SOL     OW30883   4.826   1.842   6.340  0.3114 -0.4235  0.3791
 7778SOL    HW230884   4.841   1.905   6.411  0.2966 -0.4497  0.4054
 7778SOL    HW330885   4.902   1.785   6.343  0.2567 -0.4928  0.4452
 7778SOL    MW430886   4.838   1.843   6.350 -0.2011 -0.0896  0.2427
 7779SOL     OW30887   4.889   4.922   3.336 -0.7080  0.7429  0.1619
 7779SOL    HW230888   4.828   4.877   3.394  1.4408 -0.4491  1.6058
 7779SOL    HW330889   4.906   4.860   3.266 -0.3718  0.6551  0.3189
 7779SOL    MW430890   4.883   4.908   3.334  0.5516 -0.5832 -0.1013
 7780SOL     OW30891   3.242   0.011   5.168  0.0479  0.2750 -0.0730
 7780SOL    HW230892   3.185   0.059   5.108  0.7535  2.1594  0.7035
 7780SOL    HW330893   3.208   0.032   5.256  0.6311 -0.3183  0.3058
 7780SOL    MW430894   3.230   0.020   5.172  0.1117 -0.1064 -0.0676
 7781SOL     OW30895   0.528   5.911   0.361  0.6816  0.5877 -0.1977
 7781SOL    HW230896   0.515   6.005   0.354 -0.0814  0.6241  1.3871
 7781SOL    HW330897   0.619   5.901   0.392  0.4447  0.8557  0.6002
 7781SOL    MW430898   0.538   5.922   0.364 -0.1316 -0.2085  0.4346
 7782SOL     OW30899   3.758   5.371   0.772 -0.0613  0.6443 -0.0008
 7782SOL    HW230900   3.673   5.362   0.815 -0.2706 -1.1126 -0.7427
 7782SOL    HW330901   3.742   5.349   0.680  1.8169 -3.7051  0.4841
 7782SOL    MW430902   3.744   5.367   0.766 -0.5991  0.0638 -0.0868
 7783SOL     OW30903   1.339   6.043   1.802 -0.2768  0.1253 -0.4084
 7783SOL    HW230904   1.398   6.116   1.781 -1.2912  0.4709 -2.2284
 7783SOL    HW330905   1.345   6.036   1.898  1.0178  1.5748 -0.3224
 7783SOL    MW430906   1.348   6.052   1.812  0.0780 -0.1943 -0.5367
 7784SOL     OW30907   3.743   0.355   2.183 -0.3251  0.4791  0.2776
 7784SOL    HW230908   3.757   0.320   2.271  2.0593 -0.7776 -0.5201
 7784SOL    HW330909   3.734   0.278   2.127  0.4608  1.2063 -0.8911
 7784SOL    MW430910   3.743   0.341   2.187 -0.1300  0.8089 -0.9705
 7785SOL     OW30911   2.170   5.163   4.696 -0.1011  0.5398 -0.2510
 7785SOL    HW230912   2.208   5.111   4.624 -1.0393  0.8192 -0.9680
 7785SOL    HW330913   2.176   5.106   4.772  2.4287  0.8313 -0.1294
 7785SOL    MW430914   2.176   5.149   4.696  0.8084 -0.1067 -0.2889
 7786SOL     OW30915   3.789   3.109   6.298  0.1211  0.8592 -0.2100
 7786SOL    HW230916   3.736   3.188   6.289 -0.6043  0.4601  0.4692
 7786SOL    HW330917   3.868   3.139   6.345  0.2644  1.3439 -0.7396
 7786SOL    MW430918   3.793   3.124   6.303 -0.5210 -0.5943 -0.2719
 7787SOL     OW30919   0.163   5.902   0.028  0.1405 -0.6228  0.1098
 7787SOL    HW230920   0.202   5.832   0.080  0.1752  0.0830  1.0521
 7787SOL    HW330921   0.117   5.856  -0.043 -0.0626 -1.6207  0.8623
 7787SOL    MW430922   0.162   5.886   0.025 -0.2880  0.2204  0.2496
 7788SOL     OW30923   2.512   4.382   0.593  0.1294  0.2251 -0.0802
 7788SOL    HW230924   2.599   4.344   0.577 -1.0166 -1.6443 -2.5410
 7788SOL    HW330925   2.482   4.410   0.507 -1.9467  0.2285  0.6028
 7788SOL    MW430926   2.520   4.380   0.580 -0.1234  0.2698  0.0537
 7789SOL     OW30927   0.111   2.006   1.417  0.2600 -0.0324  0.0638
 7789SOL    HW230928   0.106   2.101   1.425  1.6430  0.0156  0.7076
 7789SOL    HW330929   0.194   1.991   1.371  0.3658 -0.9440  0.5328
 7789SOL    MW430930   0.121   2.017   1.412 -0.1360  0.1088 -0.0498
 7790SOL     OW30931   5.537   0.608   4.003  0.3959 -0.3463  0.3623
 7790SOL    HW230932   5.600   0.548   3.961 -1.4627 -1.6523 -0.7002
 7790SOL    HW330933   5.542   0.688   3.951  0.5332 -0.7693 -0.2911
 7790SOL    MW430934   5.546   0.611   3.991  0.1575  0.3670 -0.1501
 7791SOL     OW30935   5.987   2.187   1.978  0.2764 -0.1123  0.3605
 7791SOL    HW230936   6.054   2.164   2.043  0.0840  1.7114  1.2663
 7791SOL    HW330937   5.975   2.281   1.989 -0.5612  0.0444 -1.6064
 7791SOL    MW430938   5.994   2.196   1.988 -0.6005  0.1868  0.6730
 7792SOL     OW30939   3.458   2.340   1.896 -0.3806 -0.3708 -0.5941
 7792SOL    HW230940   3.413   2.424   1.908  0.4823  0.0941 -0.4980
 7792SOL    HW330941   3.471   2.307   1.985 -0.9015 -0.7163 -0.6403
 7792SOL    MW430942   3.454   2.347   1.909 -0.5224 -0.0386  0.5865
 7793SOL     OW30943   6.062   3.009   1.089  0.4113  0.1536  0.1606
 7793SOL    HW230944   6.021   3.083   1.134 -0.8707 -1.0524  1.0495
 7793SOL    HW330945   6.154   3.035   1.078  0.1699  1.5264  1.1742
 7793SOL    MW430946   6.069   3.022   1.093  0.4553  0.3166  0.2808
 7794SOL     OW30947   5.348   4.636   5.150 -0.4947  0.1075 -0.4204
 7794SOL    HW230948   5.289   4.660   5.079 -0.0822 -0.8582 -1.1087
 7794SOL    HW330949   5.341   4.541   5.157  1.1493 -0.0669 -0.6880
 7794SOL    MW430950   5.339   4.627   5.142 -0.3992 -0.2590  0.0599
 7795SOL     OW30951   5.222   0.298   3.059  0.4079 -0.4191  0.2763
 7795SOL    HW230952   5.141   0.248   3.069 -0.6278  1.1613  0.1899
 7795SOL    HW330953   5.239   0.296   2.964 -0.0435 -0.0052  0.1819
 7795SOL    MW430954   5.214   0.291   3.048 -0.1317 -0.5564  0.5076
 7796SOL     OW30955   2.137   6.213   2.865 -0.2716 -0.0556  0.0254
 7796SOL    HW230956   2.111   6.124   2.887 -0.6913 -0.0489 -0.4497
 7796SOL    HW330957   2.209   6.203   2.803 -0.4722 -0.0618 -0.2058
 7796SOL    MW430958   2.143   6.200   2.860 -0.0388 -0.1917 -0.1546
 7797SOL     OW30959   1.251   2.655   5.235  0.4976  0.8174 -0.2715
 7797SOL    HW230960   1.333   2.678   5.279  1.0250 -0.5960 -0.4462
 7797SOL    HW330961   1.278   2.626   5.148 -0.2367  0.6953 -0.4639
 7797SOL    MW430962   1.265   2.654   5.230 -0.5046  0.2585 -0.5460
 7798SOL     OW30963   6.170   2.037   3.911 -0.5273 -0.0280 -0.2849
 7798SOL    HW230964   6.240   2.073   3.965 -1.4311  1.8959 -0.3199
 7798SOL    HW330965   6.156   1.949   3.946  1.0427 -0.0020  0.5169
 7798SOL    MW430966   6.178   2.030   3.923 -0.1032  0.0579 -0.3918
 7799SOL     OW30967   3.838   0.739   5.217 -0.2431 -0.0123 -0.2678
 7799SOL    HW230968   3.785   0.662   5.196  0.8047 -0.5684 -0.9942
 7799SOL    HW330969   3.926   0.716   5.188  0.3658  0.9636  0.7183
 7799SOL    MW430970   3.843   0.726   5.211 -0.1017 -0.0242  0.2446
 7800SOL     OW30971   0.898   4.837   3.047 -0.5350  0.5063  0.0218
 7800SOL    HW230972   0.831   4.879   2.994 -0.4001 -0.7758 -1.2193
 7800SOL    HW330973   0.975   4.834   2.990 -0.0482  0.0986  0.6846
 7800SOL    MW430974   0.900   4.842   3.033 -0.5161 -0.3750 -0.2214
 7801SOL     OW30975   4.890   2.976   3.449  0.0533  1.0602  0.0197
 7801SOL    HW230976   4.820   2.937   3.396  0.2543 -0.3012  0.7236
 7801SOL    HW330977   4.849   2.999   3.532  0.4241  0.1927  0.4629
 7801SOL    MW430978   4.876   2.974   3.453 -0.2371 -0.3116 -0.3547
 7802SOL     OW30979   0.592   3.899   2.713 -0.0789 -0.0470 -0.3636
 7802SOL    HW230980   0.631   3.856   2.789  2.1416  0.7778 -0.9355
 7802SOL    HW330981   0.548   3.976   2.749 -0.8616 -0.7878  0.2821
 7802SOL    MW430982   0.592   3.904   2.728 -0.2269  0.0194  0.3187
 7803SOL     OW30983   3.372   1.265   5.288  0.5132  0.1843  0.3817
 7803SOL    HW230984   3.317   1.190   5.267  0.3186  1.1258 -3.0556
 7803SOL    HW330985   3.336   1.299   5.369 -0.4220 -2.4285  1.1629
 7803SOL    MW430986   3.360   1.260   5.296  0.2210  1.1371 -0.6661
 7804SOL     OW30987   2.239   2.447   6.231 -0.8885  0.2615 -0.1202
 7804SOL    HW230988   2.177   2.415   6.296 -1.2936  1.1301 -0.0617
 7804SOL    HW330989   2.236   2.383   6.160 -1.5928  0.1222  0.0346
 7804SOL    MW430990   2.231   2.434   6.231  0.5692  0.7340  0.5954
 7805SOL     OW30991   0.284   1.923   2.480 -0.4514 -0.3968 -0.6219
 7805SOL    HW230992   0.329   1.995   2.434  1.4963 -0.4431  1.0720
 7805SOL    HW330993   0.269   1.857   2.412  2.7843 -0.6739 -1.2062
 7805SOL    MW430994   0.288   1.924   2.465  0.5394 -0.1460 -0.3301
 7806SOL     OW30995   4.551   1.500   1.059 -0.2508  0.0288  0.2878
 7806SOL    HW230996   4.485   1.433   1.038  0.6288 -0.5020 -0.8843
 7806SOL    HW330997   4.618   1.489   0.992 -1.2077  3.7061 -1.4728
 7806SOL    MW430998   4.551   1.489   1.048  0.0341  0.3187  0.7022
 7807SOL     OW30999   5.767   3.984   2.299  0.0730  0.0528 -0.6534
 7807SOL    HW231000   5.732   4.055   2.245  1.0690  0.5075 -0.7203
 7807SOL    HW331001   5.852   4.017   2.330 -1.1130  0.4421  2.4871
 7807SOL    MW431002   5.774   3.998   2.296 -0.1821 -0.0967  0.1865
 7808SOL     OW31003   5.951   1.797   1.675 -0.6417  0.3888 -0.2751
 7808SOL    HW231004   5.936   1.792   1.769 -0.5669 -0.8079 -0.3201
 7808SOL    HW331005   6.043   1.773   1.663 -0.7977 -0.0054 -0.7062
 7808SOL    MW431006   5.961   1.793   1.686  0.4127 -0.4354  0.2730
 7809SOL     OW31007   5.859   3.335   4.218 -0.4749 -0.1900 -0.7298
 7809SOL    HW231008   5.776   3.319   4.262  0.5186  0.0929  1.3722
 7809SOL    HW331009   5.873   3.257   4.164 -2.3092 -0.0058 -1.5230
 7809SOL    MW431010   5.850   3.322   4.217 -0.0520  0.2715  0.1736
 7810SOL     OW31011   1.114   6.233   4.035  0.3555  0.5656 -0.7737
 7810SOL    HW231012   1.193   6.254   4.083  0.5129 -0.8186 -0.3732
 7810SOL    HW331013   1.145   6.182   3.960 -0.0844  0.7370 -1.0739
 7810SOL    MW431014   1.128   6.229   4.031 -0.4259 -0.2703  0.3521
 7811SOL     OW31015   2.650   2.514   0.381  0.1472  0.3195 -0.0513
 7811SOL    HW231016   2.612   2.580   0.322  0.7239  2.1277  1.4852
 7811SOL    HW331017   2.577   2.489   0.438  0.1455  0.3114 -0.0571
 7811SOL    MW431018   2.635   2.520   0.381 -0.3846  0.0244  0.0693
 7812SOL     OW31019   2.284   0.812   5.750 -0.2814 -0.5224  0.8002
 7812SOL    HW231020   2.193   0.828   5.723  0.5030  2.2968 -0.5034
 7812SOL    HW331021   2.336   0.871   5.696  2.1245 -0.0122  3.4349
 7812SOL    MW431022   2.279   0.822   5.739 -0.9069  0.2028  0.4094
 7813SOL     OW31023   4.276   1.382   3.189 -0.0528 -0.6963  0.7452
 7813SOL    HW231024   4.231   1.462   3.216  0.8661  0.0707  0.1065
 7813SOL    HW331025   4.217   1.311   3.212 -1.0891  0.2026  0.9158
 7813SOL    MW431026   4.262   1.383   3.195  1.1138  0.1742 -0.1556
 7814SOL     OW31027   3.176   5.428   4.651 -0.2345  0.3887  0.3565
 7814SOL    HW231028   3.148   5.341   4.679  1.0587  0.3253  1.5300
 7814SOL    HW331029   3.242   5.454   4.714 -1.5386  2.8290  0.8417
 7814SOL    MW431030   3.181   5.420   4.663  0.2346  0.0099  0.3025
 7815SOL     OW31031   1.995   2.703   3.413 -0.1204  0.7418 -0.0754
 7815SOL    HW231032   1.957   2.789   3.400  0.3141  1.2676  1.8629
 7815SOL    HW331033   1.923   2.642   3.398 -0.3841  1.3894 -1.6738
 7815SOL    MW431034   1.981   2.706   3.409  0.0378  0.4755  0.3208
 7816SOL     OW31035   4.604   2.434   0.441  0.5039 -0.0373 -0.4525
 7816SOL    HW231036   4.567   2.521   0.459  0.6906  0.0428 -0.4558
 7816SOL    HW331037   4.650   2.444   0.358 -0.1939 -0.3592 -0.8890
 7816SOL    MW431038   4.605   2.447   0.433 -0.2911  0.0058 -0.2092
 7817SOL     OW31039   0.146   3.274   1.953 -0.3990 -0.0843 -0.2279
 7817SOL    HW231040   0.067   3.244   1.908 -1.1653  1.4029  0.0394
 7817SOL    HW331041   0.115   3.305   2.038  0.7703 -1.2308  0.6565
 7817SOL    MW431042   0.132   3.274   1.958 -0.2633  0.9023 -0.0441
 7818SOL     OW31043   2.479   1.300   3.927  0.1274 -0.5702 -0.2756
 7818SOL    HW231044   2.394   1.266   3.957  0.2347 -1.3904 -0.8760
 7818SOL    HW331045   2.531   1.222   3.911  1.2575 -0.0615  0.7960
 7818SOL    MW431046   2.474   1.285   3.929  0.0007  0.3131 -0.0875
 7819SOL     OW31047   2.924   6.360   4.577  0.1982  0.0022  0.5309
 7819SOL    HW231048   3.019   6.344   4.578  0.2455  0.2272 -0.1983
 7819SOL    HW331049   2.888   6.285   4.531 -0.0366 -0.3284  1.2327
 7819SOL    MW431050   2.932   6.348   4.571 -0.2119  0.1817 -0.1506
 7820SOL     OW31051   0.914   6.099   3.782  0.4443 -0.4684 -0.1895
 7820SOL    HW231052   0.867   6.072   3.703 -1.5995  3.7631 -0.7244
 7820SOL    HW331053   1.006   6.101   3.756 -0.2299  1.5163 -2.8499
 7820SOL    MW431054   0.920   6.096   3.768 -0.6115 -0.0555 -0.7892
 7821SOL     OW31055   0.673   3.817   4.967  0.5980 -0.1110  0.5504
 7821SOL    HW231056   0.639   3.834   4.880  2.4136  0.3958 -0.1001
 7821SOL    HW331057   0.599   3.832   5.025 -0.5175  0.0025 -0.8542
 7821SOL    MW431058   0.659   3.821   4.963 -0.5871  0.9666 -0.1893
 7822SOL     OW31059   0.711   2.708   0.351  0.4337 -0.1742  0.0825
 7822SOL    HW231060   0.692   2.633   0.294 -2.3043  1.6806 -1.6805
 7822SOL    HW331061   0.668   2.687   0.434 -1.4671 -0.0856 -0.8316
 7822SOL    MW431062   0.703   2.695   0.354  0.3114 -0.0060  0.5083
 7823SOL     OW31063   5.940   0.956   1.858  0.0682  0.1534  0.1760
 7823SOL    HW231064   5.949   0.883   1.919  0.2510  0.9358  1.1082
 7823SOL    HW331065   5.981   1.030   1.903 -1.2914  1.1573 -0.1716
 7823SOL    MW431066   5.947   0.956   1.872  0.5474  0.0227 -0.2577
 7824SOL     OW31067   3.105   1.184   0.177 -0.5510  0.1279  0.4329
 7824SOL    HW231068   3.028   1.222   0.135  1.1379  2.5050 -0.7497
 7824SOL    HW331069   3.151   1.259   0.215  1.3038 -1.1767  0.9167
 7824SOL    MW431070   3.101   1.199   0.177 -0.0386 -0.2174  0.0749
 7825SOL     OW31071   4.228   1.967   4.432  0.0771  0.3429 -0.2766
 7825SOL    HW231072   4.262   1.901   4.371 -1.8517 -1.2679  0.3250
 7825SOL    HW331073   4.288   1.964   4.506  1.2072  0.8094 -1.1239
 7825SOL    MW431074   4.241   1.958   4.433 -0.1580  0.5735  0.5751
 7826SOL     OW31075   0.923   2.226   3.042  0.3732 -0.7454 -0.2120
 7826SOL    HW231076   0.899   2.136   3.020  0.4220 -1.4632  2.3007
 7826SOL    HW331077   0.931   2.271   2.958 -0.4192 -2.8838 -1.4976
 7826SOL    MW431078   0.921   2.220   3.028  0.1523 -0.2422 -0.0397
 7827SOL     OW31079   1.551   1.774   4.901  0.2641  0.6044  0.0841
 7827SOL    HW231080   1.583   1.819   4.979  0.2452  0.2073  0.3261
 7827SOL    HW331081   1.467   1.737   4.927 -0.3694  1.5758 -0.5281
 7827SOL    MW431082   1.544   1.775   4.915 -0.0564 -0.0009 -0.6885
 7828SOL     OW31083   2.419   0.991   5.561 -0.0995  0.7762  0.4221
 7828SOL    HW231084   2.361   1.052   5.515 -0.5247  0.1679  0.1353
 7828SOL    HW331085   2.445   0.928   5.494  0.0576  0.4447  0.7946
 7828SOL    MW431086   2.415   0.991   5.546  0.2908 -0.1127  0.0905
 7829SOL     OW31087   1.742   5.335   1.947  0.1246 -0.2022 -0.5565
 7829SOL    HW231088   1.808   5.392   1.908  1.2604 -0.1388  1.3200
 7829SOL    HW331089   1.774   5.246   1.931 -0.6462 -0.2784 -1.7913
 7829SOL    MW431090   1.755   5.331   1.940 -0.3114  0.5668 -0.0847
 7830SOL     OW31091   0.145   2.714   1.079 -0.0691  0.1420  0.0901
 7830SOL    HW231092   0.126   2.697   0.986  2.5216 -2.2897 -0.1377
 7830SOL    HW331093   0.062   2.698   1.124 -1.4613  1.6647 -1.7572
 7830SOL    MW431094   0.132   2.710   1.072 -0.9704  0.0438 -0.1882
 7831SOL     OW31095   5.817   1.205   5.099 -0.1995  0.3282 -0.2082
 7831SOL    HW231096   5.794   1.114   5.118  1.0265 -0.1108 -0.7565
 7831SOL    HW331097   5.908   1.214   5.129 -1.4793  2.5914  3.9095
 7831SOL    MW431098   5.826   1.194   5.106  0.0581  0.3049  0.1673
 7832SOL     OW31099   1.994   2.655   4.588  0.5742 -0.4658  0.1398
 7832SOL    HW231100   2.077   2.699   4.568 -0.0539  0.7056  0.0440
 7832SOL    HW331101   1.975   2.604   4.509  1.0593 -0.5331  0.0589
 7832SOL    MW431102   2.003   2.654   4.575  0.0567  0.1188  0.0916
 7833SOL     OW31103   2.921   1.373   5.172 -0.5454 -0.4083 -0.3042
 7833SOL    HW231104   2.926   1.279   5.153 -0.6963 -0.3602 -0.5902
 7833SOL    HW331105   2.932   1.379   5.267 -1.0786 -0.7575 -0.2164
 7833SOL    MW431106   2.923   1.362   5.182 -0.0919  0.0715  0.0729
 7834SOL     OW31107   1.687   0.289   5.991  0.9182  0.2724  0.0950
 7834SOL    HW231108   1.595   0.314   5.992  0.2029 -1.9162 -1.7660
 7834SOL    HW331109   1.722   0.328   5.911  0.5785 -1.8050 -1.1606
 7834SOL    MW431110   1.679   0.297   5.981  0.4807  0.5096  0.1969
 7835SOL     OW31111   4.673   3.332   4.109 -0.1228 -0.4710  0.4151
 7835SOL    HW231112   4.712   3.400   4.163  0.5774 -0.6329  0.1213
 7835SOL    HW331113   4.747   3.280   4.078 -0.2884  0.7615 -2.3016
 7835SOL    MW431114   4.688   3.334   4.112 -0.2658 -0.2350 -0.2108
 7836SOL     OW31115   2.283   5.068   2.584 -0.1222 -0.0151  0.2603
 7836SOL    HW231116   2.292   5.090   2.676  0.1892 -0.8826  0.4430
 7836SOL    HW331117   2.288   5.152   2.539  0.3229  0.3575  0.9872
 7836SOL    MW431118   2.284   5.082   2.590 -0.3346 -0.2755  0.1256
 7837SOL     OW31119   3.359   0.729   3.490 -0.3682 -0.3489 -0.3706
 7837SOL    HW231120   3.351   0.821   3.516 -0.9879 -0.3925 -0.4124
 7837SOL    HW331121   3.379   0.683   3.571 -1.7695 -0.4117 -0.0393
 7837SOL    MW431122   3.361   0.735   3.504  0.4941  0.3530  0.0668
 7838SOL     OW31123   0.993   4.923   3.967 -0.3544  0.6531  0.3828
 7838SOL    HW231124   1.067   4.891   4.017 -1.5432  0.1699  1.9222
 7838SOL    HW331125   0.988   5.017   3.988  1.4142  1.3434 -1.8940
 7838SOL    MW431126   1.002   4.931   3.976  0.1692 -0.0505  0.1663
 7839SOL     OW31127   1.730   2.090   2.271 -0.2782  0.0025  0.2206
 7839SOL    HW231128   1.692   2.178   2.270  1.5084  0.8017 -0.6522
 7839SOL    HW331129   1.654   2.032   2.271 -1.5025  1.5305  0.1543
 7839SOL    MW431130   1.715   2.094   2.271 -0.3066 -0.1239  0.3057
 7840SOL     OW31131   3.493   2.967   6.012 -0.3176 -0.0210 -0.3643
 7840SOL    HW231132   3.490   2.881   5.971  1.1527  0.2465 -1.0943
 7840SOL    HW331133   3.519   2.950   6.103  1.2960 -0.2794 -0.8461
 7840SOL    MW431134   3.496   2.953   6.019 -0.0911  0.0128  0.1435
 7841SOL     OW31135   3.044   5.154   1.815  0.0604  0.2533  0.5945
 7841SOL    HW231136   3.061   5.063   1.790  1.4052  0.3791  0.9839
 7841SOL    HW331137   3.074   5.206   1.741  0.8372  0.4481  1.0308
 7841SOL    MW431138   3.050   5.149   1.802 -0.1750  0.3193 -0.2093
 7842SOL     OW31139   5.684   2.359   1.215  0.1077  0.4458 -0.4963
 7842SOL    HW231140   5.735   2.439   1.230 -0.4781  0.9413 -1.0837
 7842SOL    HW331141   5.667   2.359   1.121 -0.7836  0.1811 -0.3434
 7842SOL    MW431142   5.689   2.370   1.205  0.4733 -0.0069 -0.2428
 7843SOL     OW31143   1.466   0.979   2.915  0.5693 -0.1467  0.0886
 7843SOL    HW231144   1.453   1.074   2.915 -0.6430 -0.2979  0.1767
 7843SOL    HW331145   1.413   0.947   2.988 -0.9825 -1.1189 -1.3941
 7843SOL    MW431146   1.457   0.987   2.924 -0.1944 -0.0999  0.2598
 7844SOL     OW31147   3.797   5.212   4.958 -0.2528  0.2996  0.1530
 7844SOL    HW231148   3.774   5.176   5.044 -1.2742 -0.5087 -0.4265
 7844SOL    HW331149   3.775   5.142   4.897 -0.6382  1.2824 -0.8651
 7844SOL    MW431150   3.791   5.198   4.962  1.1848 -0.0113 -0.5399
 7845SOL     OW31151   1.510   3.323   5.539  0.3275  0.2870  0.3485
 7845SOL    HW231152   1.427   3.276   5.541  0.2469  0.2268 -1.8458
 7845SOL    HW331153   1.575   3.258   5.568 -0.4990  0.8991  4.0811
 7845SOL    MW431154   1.508   3.308   5.543  0.3295  0.0988 -0.3350
 7846SOL     OW31155   2.534   4.218   4.213 -0.2343 -0.5201 -0.1119
 7846SOL    HW231156   2.482   4.223   4.132 -0.3537  3.8850 -0.0166
 7846SOL    HW331157   2.624   4.211   4.184 -0.3142  0.5664 -0.6782
 7846SOL    MW431158   2.539   4.218   4.198  0.0449  0.0675  0.0083
 7847SOL     OW31159   0.379   3.367   0.244  0.3429  0.4990  0.6659
 7847SOL    HW231160   0.471   3.383   0.223  0.3445  2.2854  1.7617
 7847SOL    HW331161   0.338   3.453   0.234 -1.0284 -0.1036  1.0173
 7847SOL    MW431162   0.386   3.381   0.240  0.0926  0.0550 -0.2683
 7848SOL     OW31163   5.968   0.535   1.272  0.6035 -0.0408  0.0701
 7848SOL    HW231164   6.059   0.545   1.301  0.7138 -1.8694  0.4423
 7848SOL    HW331165   5.923   0.612   1.307  1.8663  0.5437  0.4536
 7848SOL    MW431166   5.974   0.547   1.281  0.0262  0.2328 -0.4484
 7849SOL     OW31167   2.058   4.618   3.896 -0.7335  0.2182 -0.0492
 7849SOL    HW231168   2.096   4.574   3.821  0.4404  0.1444  0.5705
 7849SOL    HW331169   2.108   4.699   3.906 -2.3452  1.3625 -0.6922
 7849SOL    MW431170   2.069   4.623   3.888 -0.3591 -0.2385  0.0489
 7850SOL     OW31171   2.560   0.179   6.252 -0.4461  0.2665  0.1076
 7850SOL    HW231172   2.497   0.241   6.215 -0.9607 -0.4625 -0.2688
 7850SOL    HW331173   2.586   0.125   6.178 -2.0438 -1.7069  0.8644
 7850SOL    MW431174   2.555   0.180   6.237 -0.0741  0.4081 -0.2884
 7851SOL     OW31175   0.252   4.009   3.515 -0.1008 -0.1765 -0.4707
 7851SOL    HW231176   0.286   4.098   3.519  2.8191 -1.2319  0.6855
 7851SOL    HW331177   0.233   3.987   3.606  0.1246 -1.0400 -0.6252
 7851SOL    MW431178   0.254   4.018   3.527  0.1715  0.3666  0.6798
 7852SOL     OW31179   2.291   5.033   3.255  0.0024 -0.0547  0.0433
 7852SOL    HW231180   2.253   5.105   3.205  1.3420  1.4917  1.1312
 7852SOL    HW331181   2.311   4.966   3.190 -1.2764  0.5483 -1.0088
 7852SOL    MW431182   2.289   5.034   3.240 -0.2713  0.3018  0.2513
 7853SOL     OW31183   3.964   0.664   4.476  0.0296  0.3845 -0.4147
 7853SOL    HW231184   3.936   0.754   4.494 -1.5045  0.1012 -1.2074
 7853SOL    HW331185   3.943   0.650   4.383  0.5744 -0.6755 -0.3949
 7853SOL    MW431186   3.957   0.674   4.466 -0.0248 -0.1819 -0.5166
 7854SOL     OW31187   6.183   2.820   5.097 -0.2864 -0.1945  0.1127
 7854SOL    HW231188   6.229   2.740   5.071  0.3457 -0.2810  1.4181
 7854SOL    HW331189   6.252   2.885   5.106 -0.8254  0.5973 -1.1815
 7854SOL    MW431190   6.198   2.818   5.094 -1.1005 -0.8559  0.0236
 7855SOL     OW31191   5.467   4.804   4.638  0.1794  0.0581  0.7303
 7855SOL    HW231192   5.447   4.885   4.685 -1.0194 -0.1559  0.6147
 7855SOL    HW331193   5.437   4.734   4.696  1.2979 -0.3231  0.8762
 7855SOL    MW431194   5.461   4.805   4.652  0.0473  0.4141  0.1040
 7856SOL     OW31195   2.402   3.824   2.084 -0.8505  0.0266  0.3380
 7856SOL    HW231196   2.370   3.824   1.994 -3.0732  0.5504  1.0571
 7856SOL    HW331197   2.362   3.746   2.124 -0.1560 -0.0238  0.9585
 7856SOL    MW431198   2.392   3.813   2.078 -0.2577  0.4723  0.0750
 7857SOL     OW31199   2.598   0.460   1.505  0.0188 -0.1589 -0.2407
 7857SOL    HW231200   2.606   0.472   1.410 -0.7263 -2.0437 -0.6012
 7857SOL    HW331201   2.528   0.520   1.530  1.7205  2.0403 -0.4254
 7857SOL    MW431202   2.590   0.469   1.496  0.3164 -0.4395  0.6441
 7858SOL     OW31203   0.922   2.924   5.084 -0.0754  0.7248  0.3722
 7858SOL    HW231204   0.940   2.916   4.991 -4.1951 -1.0397 -0.4950
 7858SOL    HW331205   0.846   2.983   5.089  0.1163  0.8705  2.6393
 7858SOL    MW431206   0.914   2.931   5.073  0.1743 -0.5290 -1.0276
 7859SOL     OW31207   4.123   0.584   1.387 -0.3411  0.3894  0.2993
 7859SOL    HW231208   4.062   0.510   1.378 -0.2742  0.2641  0.8608
 7859SOL    HW331209   4.209   0.547   1.373 -0.4016  0.6082 -0.7168
 7859SOL    MW431210   4.126   0.570   1.384  0.1334 -0.1580 -0.1946
 7860SOL     OW31211   4.043   6.375   0.934 -0.7731 -0.4362 -0.0096
 7860SOL    HW231212   4.053   6.346   1.025 -2.1035  0.0314  0.2996
 7860SOL    HW331213   4.132   6.372   0.899 -0.2864 -0.9646  1.1999
 7860SOL    MW431214   4.056   6.371   0.941  0.3908 -0.1707 -0.1757
 7861SOL     OW31215   3.148   4.359   6.063 -0.0238 -0.6649 -0.5946
 7861SOL    HW231216   3.233   4.390   6.093 -1.1125 -0.1135  2.2842
 7861SOL    HW331217   3.167   4.279   6.014  2.1088 -0.9612  0.6187
 7861SOL    MW431218   3.161   4.352   6.061  0.1301 -0.2504  0.6828
 7862SOL     OW31219   5.407   3.019   2.081  0.2938  0.5718 -0.2466
 7862SOL    HW231220   5.393   3.078   2.155  2.0824  0.3359  0.3464
 7862SOL    HW331221   5.321   2.981   2.063 -0.3671  1.3717  1.0784
 7862SOL    MW431222   5.394   3.022   2.088 -0.5195  0.3934 -0.4722
 7863SOL     OW31223   0.015   6.237   0.882  0.8103  0.0600 -0.6868
 7863SOL    HW231224   0.012   6.161   0.824  0.9191 -0.8870  0.5084
 7863SOL    HW331225  -0.073   6.274   0.879  0.2210 -1.2070  0.0995
 7863SOL    MW431226   0.003   6.232   0.874 -0.4947 -0.3118  0.2870
 7864SOL     OW31227   1.970   2.620   0.034  0.4075  0.2067  0.3951
 7864SOL    HW231228   1.887   2.647   0.075 -0.4777 -1.6234 -0.0662
 7864SOL    HW331229   2.004   2.553   0.092  1.9512  1.3908  0.9136
 7864SOL    MW431230   1.963   2.615   0.047  0.4472 -0.2093 -0.5385
 7865SOL     OW31231   5.148   4.249   4.489 -0.0011 -0.0411 -0.0272
 7865SOL    HW231232   5.159   4.171   4.434  1.2458  0.9094 -1.2051
 7865SOL    HW331233   5.236   4.267   4.522 -0.5286  0.0829  1.3716
 7865SOL    MW431234   5.161   4.241   4.486 -0.2156 -0.7289 -0.3818
 7866SOL     OW31235   2.144   4.081   4.762  0.5220  0.0878  0.4768
 7866SOL    HW231236   2.122   4.153   4.821  0.8161  0.4864  0.1070
 7866SOL    HW331237   2.179   4.124   4.684  0.3231 -0.4406  0.0913
 7866SOL    MW431238   2.146   4.096   4.759  0.0900 -0.4956  0.3997
 7867SOL     OW31239   1.064   1.839   6.132 -0.2502  0.4542 -0.0271
 7867SOL    HW231240   1.144   1.786   6.130 -1.5224 -1.5463 -1.0371
 7867SOL    HW331241   1.012   1.806   6.058 -2.1562  1.4646  0.8042
 7867SOL    MW431242   1.068   1.828   6.122  0.2952 -0.3959 -0.3291
 7868SOL     OW31243   3.754   5.301   0.253 -0.9306 -0.6689 -0.2009
 7868SOL    HW231244   3.802   5.290   0.170  0.1536  0.7422  0.2017
 7868SOL    HW331245   3.777   5.223   0.304  0.0340 -0.5694 -0.4613
 7868SOL    MW431246   3.763   5.289   0.249  0.4100  0.2991  0.2626
 7869SOL     OW31247   6.422   0.374   5.803 -0.1765 -0.1192  0.0833
 7869SOL    HW231248   6.360   0.340   5.739  0.5341  1.6824 -1.6739
 7869SOL    HW331249   6.503   0.325   5.786 -0.7132 -1.5772  1.5220
 7869SOL    MW431250   6.425   0.363   5.793 -0.2637 -0.2549  0.6281
 7870SOL     OW31251   0.666   2.487   1.659  0.2870  0.7043  0.2678
 7870SOL    HW231252   0.609   2.431   1.607  1.0645  0.4973 -0.3658
 7870SOL    HW331253   0.742   2.433   1.678  0.8163  1.3783  0.0779
 7870SOL    MW431254   0.668   2.473   1.655  0.2580 -0.7522 -0.7656
 7871SOL     OW31255   0.510   4.999   2.463  0.0747  0.6113  0.4461
 7871SOL    HW231256   0.603   4.977   2.454 -0.0851 -0.0396  0.2967
 7871SOL    HW331257   0.466   4.946   2.397 -0.8748 -2.6239  3.3508
 7871SOL    MW431258   0.517   4.989   2.453 -0.0622 -0.0792  0.2564
 7872SOL     OW31259   2.195   2.923   5.986 -0.6339 -0.5142  0.2837
 7872SOL    HW231260   2.242   2.842   6.007 -0.2059  0.1932  2.1982
 7872SOL    HW331261   2.147   2.944   6.066 -1.1965  0.8443 -0.3848
 7872SOL    MW431262   2.195   2.915   5.999  0.3681  0.2056 -0.1131
 7873SOL     OW31263   5.242   4.238   3.382 -0.4153  0.4850  0.5511
 7873SOL    HW231264   5.312   4.195   3.334 -2.9019 -0.4702 -2.5222
 7873SOL    HW331265   5.183   4.168   3.407 -1.7828  1.5138  0.3537
 7873SOL    MW431266   5.243   4.223   3.379  0.6972  0.2782  0.5933
 7874SOL     OW31267   1.075   1.194   0.180  0.0079 -0.2546 -0.4771
 7874SOL    HW231268   1.128   1.139   0.123 -0.3727 -1.0977 -0.0340
 7874SOL    HW331269   0.984   1.174   0.156 -0.1409 -0.1128 -0.0452
 7874SOL    MW431270   1.070   1.184   0.169  0.2961 -0.6395  0.2088
 7875SOL     OW31271   0.027   4.920   2.608  0.0864 -0.0308 -0.1375
 7875SOL    HW231272   0.053   4.961   2.691  0.9689  0.0518 -0.4370
 7875SOL    HW331273  -0.068   4.928   2.606 -0.0676 -1.0066  1.3663
 7875SOL    MW431274   0.018   4.927   2.619 -0.4702  0.1609  0.4378
 7876SOL     OW31275   1.598   5.376   1.590 -0.2042  0.3246 -0.2679
 7876SOL    HW231276   1.550   5.393   1.671 -0.3594 -0.2893 -0.2235
 7876SOL    HW331277   1.628   5.462   1.561  0.2507  0.5114  0.6884
 7876SOL    MW431278   1.596   5.390   1.597  0.2066 -0.8873  0.1048
 7877SOL     OW31279   3.670   0.260   3.425 -0.5048 -0.1546  0.0054
 7877SOL    HW231280   3.721   0.252   3.506  0.6833 -0.7393 -0.7729
 7877SOL    HW331281   3.733   0.290   3.360 -1.3911  0.0590 -0.7639
 7877SOL    MW431282   3.685   0.263   3.427 -0.1530  0.1972 -0.1504
 7878SOL     OW31283   4.722   2.915   1.615 -0.8232 -0.2229  0.0671
 7878SOL    HW231284   4.726   3.006   1.587  0.2898 -1.2727 -3.7720
 7878SOL    HW331285   4.645   2.880   1.570  0.3284 -1.7619 -0.8073
 7878SOL    MW431286   4.712   2.922   1.606 -0.1674 -0.1620 -0.0342
 7879SOL     OW31287   0.472   6.273   2.546  0.2364  0.0259 -0.1874
 7879SOL    HW231288   0.419   6.216   2.491 -0.9758 -0.8008  1.7364
 7879SOL    HW331289   0.454   6.244   2.636  3.2950  0.2766  0.6375
 7879SOL    MW431290   0.463   6.262   2.551 -0.0942  0.1110  0.6835
 7880SOL     OW31291   4.910   0.289   3.886 -0.3274  0.4990 -0.0079
 7880SOL    HW231292   4.997   0.255   3.867 -0.7657  0.1803 -1.5191
 7880SOL    HW331293   4.869   0.222   3.940  0.8312  1.2923  1.9837
 7880SOL    MW431294   4.916   0.276   3.891 -0.5635  0.2608 -0.1912
 7881SOL     OW31295   2.965   1.901   0.576  0.6515 -0.1768 -0.2452
 7881SOL    HW231296   2.872   1.884   0.566  0.7894 -1.1873  0.0693
 7881SOL    HW331297   2.970   1.974   0.638  0.0758 -0.4393  0.1177
 7881SOL    MW431298   2.954   1.908   0.583  0.1986 -0.1339  0.0945
 7882SOL     OW31299   1.178   5.023   3.730  0.3820 -0.0840  0.0281
 7882SOL    HW231300   1.255   4.968   3.717 -0.7536 -1.3735 -1.6239
 7882SOL    HW331301   1.129   4.979   3.799  0.2396 -0.2888 -0.2014
 7882SOL    MW431302   1.182   5.010   3.737 -0.5800 -0.6198  0.2504
 7883SOL     OW31303   4.840   4.407   0.504  0.1040  0.3170  0.1606
 7883SOL    HW231304   4.846   4.483   0.561  0.7554 -0.8142  1.6693
 7883SOL    HW331305   4.746   4.391   0.493 -0.0413  0.1221  1.5499
 7883SOL    MW431306   4.829   4.415   0.510 -0.0004  0.0094  0.3937
 7884SOL     OW31307   3.561   0.116   1.753 -0.3856 -0.2991 -0.0161
 7884SOL    HW231308   3.515   0.032   1.762  0.6202 -1.0241 -1.3042
 7884SOL    HW331309   3.542   0.143   1.663 -1.0493  1.0927  0.5248
 7884SOL    MW431310   3.552   0.108   1.742 -0.1722  0.4798 -0.0840
 7885SOL     OW31311   3.032   1.304   4.193  0.8490 -0.2549  0.0142
 7885SOL    HW231312   3.023   1.399   4.188  0.8425 -0.2599 -0.0715
 7885SOL    HW331313   3.084   1.280   4.116  0.8732 -0.3180  0.0494
 7885SOL    MW431314   3.038   1.313   4.182 -0.2024 -0.2291 -0.3458
 7886SOL     OW31315   5.397   0.364   1.080 -0.5607  0.5968  0.1339
 7886SOL    HW231316   5.361   0.282   1.114 -0.5331  0.0755 -1.0541
 7886SOL    HW331317   5.366   0.368   0.989 -1.6768  2.5599  0.5520
 7886SOL    MW431318   5.388   0.354   1.072 -0.6824 -0.1880 -0.0074
 7887SOL     OW31319   4.042   5.495   2.678  0.2655  0.3289  0.2777
 7887SOL    HW231320   4.012   5.462   2.593 -1.1289  0.5666  0.6534
 7887SOL    HW331321   4.073   5.418   2.724 -2.2516 -0.4248  0.8549
 7887SOL    MW431322   4.042   5.481   2.673 -0.3275  0.2435  0.1305
 7888SOL     OW31323   3.005   2.963   0.640 -0.1549  0.1325  0.2551
 7888SOL    HW231324   2.919   2.932   0.614  0.3076  0.7127 -2.1721
 7888SOL    HW331325   3.065   2.893   0.617  0.1116 -0.1097  1.5768
 7888SOL    MW431326   3.002   2.950   0.634 -0.0440 -0.0988 -0.1189
 7889SOL     OW31327   2.082   3.413   3.591 -0.0847 -0.1893 -0.0672
 7889SOL    HW231328   2.022   3.456   3.531  2.5884 -0.5441 -3.2702
 7889SOL    HW331329   2.111   3.482   3.650 -0.4255  0.9537 -1.1979
 7889SOL    MW431330   2.078   3.428   3.591 -0.4955  0.3115 -0.0776
 7890SOL     OW31331   2.305   0.222   4.423 -0.6349 -0.2792  0.7854
 7890SOL    HW231332   2.282   0.303   4.470  3.4344  0.7891  1.3222
 7890SOL    HW331333   2.356   0.172   4.487  0.7997 -1.1281 -0.9684
 7890SOL    MW431334   2.309   0.226   4.438  0.2174  0.5524  0.6718
 7891SOL     OW31335   5.877   4.749   0.435 -0.5145  0.4348  0.3332
 7891SOL    HW231336   5.968   4.777   0.423 -0.0284 -1.1258  0.2322
 7891SOL    HW331337   5.877   4.700   0.517 -1.1349 -0.1297  0.0049
 7891SOL    MW431338   5.889   4.746   0.444  0.0955  0.0498  0.2021
 7892SOL     OW31339   4.529   3.004   4.397  0.2320  0.3892  0.2793
 7892SOL    HW231340   4.519   3.047   4.482  0.0918 -1.7983  1.4323
 7892SOL    HW331341   4.452   2.949   4.389  1.6362 -1.6839  0.1502
 7892SOL    MW431342   4.518   3.002   4.407  1.1325  0.6269 -0.2292
 7893SOL     OW31343   3.577   4.440   2.385 -0.0492  0.8109 -0.2542
 7893SOL    HW231344   3.629   4.448   2.305  0.6836  0.5806  0.1920
 7893SOL    HW331345   3.492   4.408   2.355  0.2145  0.7500 -0.9465
 7893SOL    MW431346   3.573   4.437   2.371 -0.7537 -0.1944  0.2289
 7894SOL     OW31347   5.016   1.881   0.716 -0.1115 -0.3396  0.7446
 7894SOL    HW231348   4.923   1.903   0.719 -0.3492 -1.1351 -0.4860
 7894SOL    HW331349   5.060   1.966   0.718 -0.9820  0.3388 -2.6752
 7894SOL    MW431350   5.010   1.895   0.717  0.4340 -0.3220 -0.0973
 7895SOL     OW31351   3.331   4.493   4.669 -0.2616  0.0041  0.1546
 7895SOL    HW231352   3.416   4.524   4.636 -1.1909  1.2568 -1.2201
 7895SOL    HW331353   3.353   4.427   4.734  1.7545 -0.7182 -1.1666
 7895SOL    MW431354   3.345   4.488   4.673  0.5154  0.2417  0.0730
 7896SOL     OW31355   1.664   2.136   0.878 -0.2763  0.0185  0.4016
 7896SOL    HW231356   1.730   2.096   0.821 -0.1256  0.8183  0.0028
 7896SOL    HW331357   1.593   2.161   0.818 -0.6485 -0.2115  0.7367
 7896SOL    MW431358   1.663   2.134   0.862  0.3623  0.1142 -0.0332
 7897SOL     OW31359   5.333   1.683   2.795  0.1008  0.1787 -0.0488
 7897SOL    HW231360   5.314   1.744   2.866 -0.4067  0.4909 -0.4382
 7897SOL    HW331361   5.249   1.672   2.750  0.5366  0.4526 -0.9503
 7897SOL    MW431362   5.319   1.690   2.798 -0.0990 -0.2617 -0.9674
 7898SOL     OW31363   1.488   3.396   4.509  0.0482 -0.2409  0.0631
 7898SOL    HW231364   1.564   3.348   4.475  0.9782  0.7151  0.7048
 7898SOL    HW331365   1.471   3.463   4.442 -1.4993 -1.6458 -1.0258
 7898SOL    MW431366   1.496   3.398   4.496 -0.0435 -0.5312 -0.4711
 7899SOL     OW31367   5.100   3.821   1.268  0.1040  0.1844  0.3243
 7899SOL    HW231368   5.142   3.843   1.185  1.6583 -1.4466  0.6153
 7899SOL    HW331369   5.109   3.726   1.275 -1.5889  0.0776  1.5425
 7899SOL    MW431370   5.107   3.812   1.258 -0.6393 -0.1819  0.0495
 7900SOL     OW31371   2.903   4.490   1.453  0.3974 -0.4353 -0.0010
 7900SOL    HW231372   2.809   4.482   1.436  0.7318 -0.3873 -2.2054
 7900SOL    HW331373   2.914   4.582   1.478 -0.1223 -0.4085  0.1558
 7900SOL    MW431374   2.892   4.501   1.454  0.7495 -0.2572 -0.0360
 7901SOL     OW31375   5.823   1.803   2.866  0.7682  0.1377 -0.5938
 7901SOL    HW231376   5.836   1.855   2.787  0.7832  0.9287 -0.0823
 7901SOL    HW331377   5.911   1.772   2.889  0.8674  0.5116 -0.4746
 7901SOL    MW431378   5.837   1.806   2.858  0.0076 -0.3117 -0.0851
 7902SOL     OW31379   6.200   1.817   5.397  0.9101 -0.1037  0.7142
 7902SOL    HW231380   6.186   1.776   5.483  0.7988 -0.2056  0.6472
 7902SOL    HW331381   6.256   1.892   5.416 -0.6079  0.9520  1.1259
 7902SOL    MW431382   6.206   1.821   5.411  1.0351 -0.1309 -0.5873
 7903SOL     OW31383   4.446   3.804   4.504 -0.3843 -0.2296  0.0535
 7903SOL    HW231384   4.405   3.790   4.589 -0.3308  1.7330  0.4417
 7903SOL    HW331385   4.377   3.786   4.441 -1.0398  0.3255  0.5982
 7903SOL    MW431386   4.432   3.800   4.507  0.1090 -0.2253 -0.4388
 7904SOL     OW31387   5.896   1.690   3.799  0.1015 -0.0972  0.7010
 7904SOL    HW231388   5.955   1.714   3.871  0.8529  2.0302 -0.5145
 7904SOL    HW331389   5.933   1.735   3.723 -1.3693 -1.2653 -0.7573
 7904SOL    MW431390   5.908   1.699   3.799 -0.4066  0.0810 -0.2241
 7905SOL     OW31391   0.038   1.953   6.257 -0.0418 -0.6131 -0.2988
 7905SOL    HW231392  -0.053   1.942   6.227  0.2995 -0.3904 -1.4741
 7905SOL    HW331393   0.071   1.864   6.264 -0.0566 -0.6682 -0.8546
 7905SOL    MW431394   0.030   1.940   6.254 -0.3861 -0.9683  0.3711
 7906SOL     OW31395   6.307   2.934   1.855  0.5310 -0.4021  0.0121
 7906SOL    HW231396   6.297   2.943   1.949 -1.8461  0.5743 -0.2796
 7906SOL    HW331397   6.220   2.908   1.823  1.6090 -2.1351 -1.7816
 7906SOL    MW431398   6.294   2.932   1.863 -0.5323  0.0072 -0.3598
 7907SOL     OW31399   4.630   1.127   0.425 -0.3300  0.6995 -0.1898
 7907SOL    HW231400   4.562   1.063   0.448 -0.0867  0.5792  0.1961
 7907SOL    HW331401   4.681   1.084   0.357  0.9956 -0.3098  1.3577
 7907SOL    MW431402   4.628   1.113   0.419  0.3641  0.8660  0.3856
 7908SOL     OW31403   1.782   4.957   5.222  0.2480 -0.2467 -0.2758
 7908SOL    HW231404   1.689   4.977   5.217  0.5529  1.0677 -1.0778
 7908SOL    HW331405   1.800   4.950   5.316 -0.5647 -0.1331 -0.1025
 7908SOL    MW431406   1.772   4.958   5.234 -0.1176  0.1947  0.4201
 7909SOL     OW31407   5.647   3.109   4.011  0.3999 -0.2660  0.2725
 7909SOL    HW231408   5.741   3.110   3.995  0.4999 -0.9534  0.7667
 7909SOL    HW331409   5.608   3.128   3.926  0.9198 -3.1052 -0.6807
 7909SOL    MW431410   5.654   3.112   3.998  0.3867 -0.0985 -0.6269
 7910SOL     OW31411   5.246   5.842   1.438  0.2479 -0.4673  0.1030
 7910SOL    HW231412   5.186   5.856   1.511  0.3646  2.2042 -0.1905
 7910SOL    HW331413   5.201   5.781   1.380 -0.5731 -1.3205  1.5856
 7910SOL    MW431414   5.232   5.836   1.440  0.1612 -0.3954 -0.0709
 7911SOL     OW31415   3.537   2.163   1.659  0.1122  0.0638 -0.0611
 7911SOL    HW231416   3.514   2.169   1.567 -1.0966  2.1346  0.3217
 7911SOL    HW331417   3.497   2.240   1.700  1.6845 -0.0912  1.9702
 7911SOL    MW431418   3.529   2.174   1.652  0.5062  0.1931 -0.3030
 7912SOL     OW31419   4.860   2.462   0.559 -0.4215  0.3676 -0.7990
 7912SOL    HW231420   4.879   2.416   0.641 -0.8992  0.4186 -0.6587
 7912SOL    HW331421   4.769   2.439   0.538 -0.9532  1.8952 -0.2935
 7912SOL    MW431422   4.851   2.453   0.567 -0.0782 -0.1348 -0.0767
 7913SOL     OW31423   3.269   5.725   3.281  0.0546  0.2170 -0.2901
 7913SOL    HW231424   3.293   5.633   3.292 -0.7855 -0.0543 -0.6935
 7913SOL    HW331425   3.267   5.759   3.371 -0.4771 -0.3817 -0.0600
 7913SOL    MW431426   3.272   5.717   3.295 -0.1053 -0.1266  0.7267
 7914SOL     OW31427   5.622   4.844   1.310  0.5151  0.3560  0.0108
 7914SOL    HW231428   5.659   4.849   1.221 -1.9225  1.1526 -1.0426
 7914SOL    HW331429   5.641   4.930   1.348 -1.0208  1.1452 -0.9038
 7914SOL    MW431430   5.629   4.856   1.303  0.0821 -0.4305 -0.1268
 7915SOL     OW31431   5.493   2.486   2.408  0.4163 -0.1471  0.2425
 7915SOL    HW231432   5.507   2.549   2.478  1.0025 -0.0921  0.0870
 7915SOL    HW331433   5.545   2.409   2.433  0.2236 -0.3206  0.1175
 7915SOL    MW431434   5.502   2.484   2.420 -0.0537  0.2804  1.0838
 7916SOL     OW31435   1.241   0.900   1.753 -0.4477  0.5354  0.1028
 7916SOL    HW231436   1.163   0.865   1.708 -1.3979  0.3417  1.8149
 7916SOL    HW331437   1.220   0.992   1.769 -0.3210  0.4891  0.5485
 7916SOL    MW431438   1.228   0.907   1.749  0.0175 -0.2643  0.4133
 7917SOL     OW31439   5.378   4.787   0.401 -0.1716  0.5536  0.6617
 7917SOL    HW231440   5.343   4.874   0.379  1.2375  0.8149 -0.7070
 7917SOL    HW331441   5.442   4.769   0.333  2.2723  0.0574  2.9127
 7917SOL    MW431442   5.382   4.796   0.389 -0.4115 -0.0097  0.0889
 7918SOL     OW31443   2.143   0.836   5.374 -0.5506 -0.1062 -0.1872
 7918SOL    HW231444   2.143   0.913   5.316 -1.7080 -0.0820 -0.1813
 7918SOL    HW331445   2.099   0.768   5.323 -1.1983 -0.2116  0.4956
 7918SOL    MW431446   2.137   0.837   5.360  0.4703 -0.2020 -0.0656
 7919SOL     OW31447   0.679   0.293   4.897 -0.7577  0.6474  0.2649
 7919SOL    HW231448   0.722   0.331   4.974 -2.3482  0.9914  1.0284
 7919SOL    HW331449   0.682   0.199   4.913  1.4393  0.5023 -0.6757
 7919SOL    MW431450   0.685   0.286   4.909  0.3351  0.0709  0.5125
 7920SOL     OW31451   3.682   0.510   4.503 -0.6509  0.2854 -0.4269
 7920SOL    HW231452   3.681   0.429   4.451  0.7381  0.0587 -0.1469
 7920SOL    HW331453   3.764   0.553   4.478 -0.6318  0.8426  0.5752
 7920SOL    MW431454   3.693   0.505   4.493  0.3208 -0.3524  0.1109
 7921SOL     OW31455   4.716   1.950   3.222  0.0313  0.6051 -0.2472
 7921SOL    HW231456   4.748   1.875   3.274  2.4270  1.9292  0.3704
 7921SOL    HW331457   4.648   1.913   3.166  2.2498 -2.4820 -1.2342
 7921SOL    MW431458   4.712   1.935   3.222  0.2784  0.6261  0.5369
 7922SOL     OW31459   1.258   1.853   3.625  1.2224  0.5702  0.9090
 7922SOL    HW231460   1.353   1.859   3.617  1.1317  1.1699  0.0891
 7922SOL    HW331461   1.225   1.929   3.576  0.2939 -0.1999  0.2920
 7922SOL    MW431462   1.266   1.864   3.617 -0.5323 -0.3345 -0.8086
 7923SOL     OW31463   5.201   1.282   3.282 -0.0918 -0.4215  0.4055
 7923SOL    HW231464   5.158   1.235   3.354  2.2561 -0.0447  2.1862
 7923SOL    HW331465   5.289   1.302   3.316  0.7084  0.8278 -2.1645
 7923SOL    MW431466   5.207   1.279   3.296  0.4436 -0.0156 -0.0353
 7924SOL     OW31467   2.634   4.084   2.103  0.3887 -0.0104 -0.1011
 7924SOL    HW231468   2.692   4.121   2.036  0.3847  0.4494  0.1501
 7924SOL    HW331469   2.662   3.992   2.110  0.0047 -0.2204 -1.1436
 7924SOL    MW431470   2.646   4.077   2.095 -0.3160  0.0445  0.7173
 7925SOL     OW31471   0.980   1.604   3.285 -0.2957 -0.1492  0.1488
 7925SOL    HW231472   0.941   1.538   3.343  0.1648 -0.2634  0.3339
 7925SOL    HW331473   0.946   1.583   3.198 -0.2034 -0.5954  0.2178
 7925SOL    MW431474   0.970   1.592   3.281 -0.1096  0.0630 -0.6222
 7926SOL     OW31475   6.059   1.138   5.232 -0.3058  0.0728  0.0297
 7926SOL    HW231476   6.086   1.230   5.222 -0.2467  0.1451  0.8446
 7926SOL    HW331477   6.115   1.091   5.170  0.1008  0.5067  0.0542
 7926SOL    MW431478   6.070   1.144   5.222 -0.2129  0.0992  0.4534
 7927SOL     OW31479   1.567   0.136   1.939 -0.1069 -0.1214  0.4101
 7927SOL    HW231480   1.488   0.085   1.956  0.0375 -0.9788 -1.2329
 7927SOL    HW331481   1.537   0.227   1.938 -0.9591 -0.3942  0.3700
 7927SOL    MW431482   1.553   0.141   1.941 -0.2743  0.3433 -0.6015
 7928SOL     OW31483   2.206   4.390   5.153 -0.1987 -0.4611  0.3343
 7928SOL    HW231484   2.221   4.332   5.227 -0.4203 -0.2117  0.5745
 7928SOL    HW331485   2.288   4.440   5.145 -0.5013  0.1577  0.9906
 7928SOL    MW431486   2.219   4.389   5.161 -0.3753  0.3372 -0.1080
 7929SOL     OW31487   4.506   3.604   0.823  0.5827  0.8092  0.0071
 7929SOL    HW231488   4.420   3.644   0.812  0.2872  0.1193 -0.2352
 7929SOL    HW331489   4.564   3.677   0.845 -0.5143  0.9822  2.7738
 7929SOL    MW431490   4.503   3.619   0.825 -0.6351  0.4408  0.0749
 7930SOL     OW31491   2.054   3.020   5.342 -0.0068  0.3641  0.0653
 7930SOL    HW231492   2.009   2.939   5.319  0.6265  0.2392 -0.8182
 7930SOL    HW331493   1.991   3.089   5.324 -0.4169  0.0928  0.4478
 7930SOL    MW431494   2.040   3.018   5.337 -0.3843 -0.1646 -0.0838
 7931SOL     OW31495   5.617   5.537   0.909  0.5010  0.1924 -0.0205
 7931SOL    HW231496   5.585   5.539   0.819  2.7743 -1.3179 -0.9540
 7931SOL    HW331497   5.669   5.617   0.917  2.5928 -0.9999 -1.0486
 7931SOL    MW431498   5.620   5.548   0.898 -0.2864  0.0555 -0.6017
 7932SOL     OW31499   0.230   5.320   2.668 -0.2393  0.6523 -0.4821
 7932SOL    HW231500   0.150   5.317   2.721  1.0631 -1.5855  1.5380
 7932SOL    HW331501   0.198   5.321   2.578 -2.5833 -1.3890  0.2207
 7932SOL    MW431502   0.215   5.320   2.663  0.6024  0.5241 -0.4991
 7933SOL     OW31503   6.436   3.820   5.689 -0.4409 -0.8681  0.5790
 7933SOL    HW231504   6.345   3.792   5.703 -0.4749 -1.3111 -0.5083
 7933SOL    HW331505   6.440   3.906   5.730 -1.5014 -0.6140  0.1876
 7933SOL    MW431506   6.424   3.828   5.697 -0.0494 -0.2269  0.2326
 7934SOL     OW31507   5.946   3.993   1.891 -0.4015  0.0501 -0.3598
 7934SOL    HW231508   5.909   3.909   1.916  0.4439 -0.0418  0.6620
 7934SOL    HW331509   6.022   3.971   1.837 -0.1965  0.1518 -0.1163
 7934SOL    MW431510   5.951   3.979   1.887 -0.0727 -0.1598  0.1517
 7935SOL     OW31511   3.593   1.918   5.022 -0.2889  0.0971 -0.0210
 7935SOL    HW231512   3.571   1.932   4.930 -0.1174  0.6152  0.0113
 7935SOL    HW331513   3.512   1.935   5.069 -0.2086  0.4889 -0.0236
 7935SOL    MW431514   3.580   1.922   5.016 -0.1975  0.2680 -0.0609
 7936SOL     OW31515   6.021   2.271   2.708 -0.8217  0.3484  0.2061
 7936SOL    HW231516   5.957   2.325   2.753 -1.5767 -0.5211  0.2115
 7936SOL    HW331517   6.099   2.274   2.763 -1.7723 -0.8430  1.7204
 7936SOL    MW431518   6.022   2.278   2.721  0.3565 -0.6129  0.0142
 7937SOL     OW31519   2.169   3.973   3.133  0.4351  0.5107  0.0778
 7937SOL    HW231520   2.251   3.971   3.181 -0.7857 -0.6854  2.2847
 7937SOL    HW331521   2.108   4.018   3.191 -1.1024 -0.9427 -0.3256
 7937SOL    MW431522   2.171   3.978   3.147  0.1018 -0.1190  0.8862
 7938SOL     OW31523   1.999   2.323   5.743  0.5002 -0.3901 -0.7821
 7938SOL    HW231524   1.914   2.319   5.700 -0.0699  1.1967  0.1121
 7938SOL    HW331525   2.016   2.417   5.753  0.9741 -0.6761  1.6848
 7938SOL    MW431526   1.990   2.335   5.738 -0.0951 -0.3014 -0.6385
 7939SOL     OW31527   4.366   3.780   3.306 -0.0723  0.2926  0.2883
 7939SOL    HW231528   4.361   3.849   3.240  0.3911 -0.6585 -0.7764
 7939SOL    HW331529   4.412   3.709   3.263 -0.4565 -0.6589  1.3887
 7939SOL    MW431530   4.371   3.780   3.291 -0.1603 -0.1956  0.5936
 7940SOL     OW31531   5.884   0.112   5.365  0.1190 -0.1815 -0.0238
 7940SOL    HW231532   5.901   0.149   5.451 -0.3995 -1.9009  0.8752
 7940SOL    HW331533   5.959   0.055   5.348 -1.1808 -2.2260  0.7283
 7940SOL    MW431534   5.896   0.109   5.374 -0.4331 -0.3140 -0.1372
 7941SOL     OW31535   4.004   4.747   3.354  0.1322 -0.2168  0.3070
 7941SOL    HW231536   3.994   4.671   3.297 -0.3813 -0.6096  0.9060
 7941SOL    HW331537   3.918   4.788   3.355  0.2915  0.1173  0.3385
 7941SOL    MW431538   3.992   4.742   3.347  0.0407  1.0155  0.5151
 7942SOL     OW31539   6.195   3.571   4.295  0.3880  0.2809 -0.5819
 7942SOL    HW231540   6.128   3.525   4.346 -0.5845  2.6485  0.4275
 7942SOL    HW331541   6.150   3.596   4.214  0.1722  1.4655 -0.1071
 7942SOL    MW431542   6.180   3.568   4.291 -0.1880 -0.4376  0.0944
 7943SOL     OW31543   1.110   3.899   1.609 -0.6145  1.0145  0.1636
 7943SOL    HW231544   1.060   3.932   1.534 -0.9048  1.5250  0.5757
 7943SOL    HW331545   1.201   3.910   1.583 -0.7104  0.8338 -0.2665
 7943SOL    MW431546   1.115   3.905   1.595 -0.2951 -0.1860 -0.0199
 7944SOL     OW31547   5.456   0.133   4.060 -0.3990  0.7122 -0.6271
 7944SOL    HW231548   5.443   0.041   4.039  0.3919  0.4276  0.0753
 7944SOL    HW331549   5.370   0.164   4.087 -0.1991 -0.4524  1.5112
 7944SOL    MW431550   5.443   0.125   4.061 -0.5269 -0.1166 -0.2616
 7945SOL     OW31551   0.068   1.684   2.094  0.2993 -0.4627 -0.0955
 7945SOL    HW231552   0.079   1.612   2.032 -3.8763 -1.9488  0.6193
 7945SOL    HW331553   0.063   1.763   2.039 -1.7148 -1.5464 -1.5622
 7945SOL    MW431554   0.069   1.685   2.079 -0.0280 -0.1856  0.0365
 7946SOL     OW31555   3.317   1.891   4.599  0.4787 -0.4892 -0.2369
 7946SOL    HW231556   3.335   1.959   4.534  0.0121 -0.9358 -0.8490
 7946SOL    HW331557   3.246   1.927   4.652  0.7420 -0.1941 -0.0827
 7946SOL    MW431558   3.310   1.905   4.598  0.1709 -0.4216 -0.1860
 7947SOL     OW31559   4.026   2.529   1.750  0.3846 -0.2180 -0.0779
 7947SOL    HW231560   4.074   2.533   1.833  1.4453  0.4572 -0.6940
 7947SOL    HW331561   4.030   2.437   1.725  0.8493 -0.2736  0.1803
 7947SOL    MW431562   4.033   2.517   1.758 -0.0184  0.8802  0.4746
 7948SOL     OW31563   3.940   1.135   1.150 -0.0686 -0.3932  0.4542
 7948SOL    HW231564   3.988   1.199   1.098  0.4303 -2.2519 -1.5073
 7948SOL    HW331565   3.929   1.060   1.092 -2.0285 -1.4954  2.1249
 7948SOL    MW431566   3.945   1.134   1.136  0.4650  0.1784 -0.5051
 7949SOL     OW31567   4.724   2.463   2.924  0.4792  0.4505 -0.4309
 7949SOL    HW231568   4.750   2.465   2.832  2.0003  1.1016 -0.0096
 7949SOL    HW331569   4.784   2.523   2.967 -0.7531  0.8071  0.8668
 7949SOL    MW431570   4.735   2.471   2.917 -0.0405  0.3923  0.3701
 7950SOL     OW31571   5.300   5.719   4.300  0.4722 -0.5406 -0.4054
 7950SOL    HW231572   5.363   5.660   4.341 -0.7196 -1.9983 -0.6157
 7950SOL    HW331573   5.223   5.715   4.356  0.4694  1.1261 -0.2297
 7950SOL    MW431574   5.298   5.711   4.313 -0.0363 -0.4566  0.0275
 7951SOL     OW31575   3.125   3.588   5.330  0.1554 -0.3043 -0.9083
 7951SOL    HW231576   3.119   3.506   5.379  0.1413 -0.0184 -0.4209
 7951SOL    HW331577   3.172   3.565   5.250  0.6567 -0.6735 -0.5154
 7951SOL    MW431578   3.130   3.574   5.326  0.0403 -0.1157  0.5765
 7952SOL     OW31579   2.373   6.400   4.943  0.0902 -0.3391  0.3931
 7952SOL    HW231580   2.316   6.461   4.990 -1.2217 -1.6819  0.5954
 7952SOL    HW331581   2.314   6.347   4.890  1.2491 -1.1294 -0.1607
 7952SOL    MW431582   2.358   6.401   4.942  0.1218  0.2223  0.1673
 7953SOL     OW31583   1.201   5.388   0.591 -0.5912  0.1233 -0.1429
 7953SOL    HW231584   1.216   5.417   0.501 -1.5264  0.4114 -0.2205
 7953SOL    HW331585   1.106   5.374   0.596 -0.4379 -0.7754  0.5388
 7953SOL    MW431586   1.190   5.390   0.580 -0.2061 -0.1228  0.2106
 7954SOL     OW31587   5.956   0.264   6.365  0.4008  0.4649 -0.4609
 7954SOL    HW231588   6.002   0.240   6.445 -0.0074 -2.7743 -1.0560
 7954SOL    HW331589   5.864   0.265   6.389  0.3126 -0.0461 -0.7541
 7954SOL    MW431590   5.950   0.261   6.379  0.6586 -0.2674 -0.3119
 7955SOL     OW31591   3.377   2.885   3.616  0.0898  0.2793  0.0201
 7955SOL    HW231592   3.395   2.976   3.640  1.5200 -0.3586  1.5734
 7955SOL    HW331593   3.429   2.870   3.537 -1.4103  1.2072 -1.2273
 7955SOL    MW431594   3.386   2.895   3.609 -0.6092 -0.2625 -0.0150
 7956SOL     OW31595   4.845   5.322   6.397  0.2777 -0.0299 -0.0864
 7956SOL    HW231596   4.927   5.273   6.390 -0.1882 -0.7514 -0.6804
 7956SOL    HW331597   4.818   5.335   6.306 -0.3335  0.0841  0.1117
 7956SOL    MW431598   4.852   5.317   6.384 -0.0908 -0.1066  0.6766
 7957SOL     OW31599   1.455   0.399   1.907  0.6897 -0.1804 -0.2350
 7957SOL    HW231600   1.371   0.403   1.952  0.8530  0.4284  0.0202
 7957SOL    HW331601   1.436   0.432   1.819  0.6063 -0.3118 -0.2673
 7957SOL    MW431602   1.441   0.403   1.901  0.2610  0.6226 -0.1960
 7958SOL     OW31603   4.576   5.915   5.115 -0.2043  0.6424  0.3351
 7958SOL    HW231604   4.578   5.935   5.021  0.9076 -1.1108 -0.0632
 7958SOL    HW331605   4.505   5.969   5.149 -3.9446 -2.0588 -2.3684
 7958SOL    MW431606   4.567   5.925   5.107 -0.1392  0.1360 -0.0458
 7959SOL     OW31607   3.849   1.946   4.757  0.3108 -0.2494 -0.1358
 7959SOL    HW231608   3.908   1.907   4.693  0.6099  0.3864 -0.2510
 7959SOL    HW331609   3.766   1.899   4.746  0.3124 -0.0453 -1.0853
 7959SOL    MW431610   3.846   1.934   4.747 -0.5483  0.0929 -0.2025
 7960SOL     OW31611   0.829   3.952   5.741 -0.3159  0.8466  0.5837
 7960SOL    HW231612   0.777   3.876   5.767 -2.0070  1.7036 -0.1533
 7960SOL    HW331613   0.886   3.969   5.816  0.0120 -1.0543  0.8069
 7960SOL    MW431614   0.830   3.944   5.754 -0.2811 -0.1143  0.0974
 7961SOL     OW31615   3.915   2.329   3.918  0.2390 -0.1175  1.2605
 7961SOL    HW231616   3.859   2.380   3.860  3.7013  2.2372 -0.3482
 7961SOL    HW331617   3.893   2.238   3.900  0.8725  0.4595 -3.6685
 7961SOL    MW431618   3.905   2.324   3.908  0.1422 -0.2732  0.2744
 7962SOL     OW31619   2.731   2.537   4.622 -0.1109 -1.2069 -0.3136
 7962SOL    HW231620   2.685   2.512   4.702  0.6956 -0.3384  0.4614
 7962SOL    HW331621   2.777   2.619   4.646 -0.7649 -0.3027 -2.0075
 7962SOL    MW431622   2.731   2.545   4.636 -0.6219  0.2337 -0.2254
 7963SOL     OW31623   3.789   0.957   0.208  0.0579 -0.5101 -0.1560
 7963SOL    HW231624   3.817   0.877   0.162  0.7778 -1.5695  1.9732
 7963SOL    HW331625   3.867   1.013   0.207  0.0160 -0.4586 -0.4114
 7963SOL    MW431626   3.803   0.954   0.202 -0.1311 -0.1378  0.2472
 7964SOL     OW31627   1.793   4.197   2.258 -0.6400  0.3620  0.6030
 7964SOL    HW231628   1.701   4.194   2.283 -0.7866  1.8329  0.3162
 7964SOL    HW331629   1.809   4.288   2.232  0.6657 -0.0656 -0.2404
 7964SOL    MW431630   1.783   4.209   2.258  0.1715 -0.2187 -0.4763
 7965SOL     OW31631   3.080   0.533   1.319  0.0975  0.0000 -0.5486
 7965SOL    HW231632   3.036   0.530   1.404  0.2804  0.8417 -0.4137
 7965SOL    HW331633   3.033   0.469   1.265  0.1799 -0.7756  0.2668
 7965SOL    MW431634   3.068   0.524   1.323 -0.0689  0.0423  0.3976
 7966SOL     OW31635   2.105   3.472   6.252 -0.6319 -0.7324 -0.1052
 7966SOL    HW231636   2.132   3.464   6.343 -0.9045  0.3477  0.0823
 7966SOL    HW331637   2.186   3.478   6.202 -0.4433  1.9734  0.3997
 7966SOL    MW431638   2.119   3.472   6.257  0.0192  0.1433 -0.4415
 7967SOL     OW31639   0.323   4.001   5.463 -0.2099  0.4451 -0.1027
 7967SOL    HW231640   0.374   4.029   5.387  1.0204  1.2232  0.9673
 7967SOL    HW331641   0.345   4.064   5.532 -0.3114 -0.9587  1.2756
 7967SOL    MW431642   0.332   4.013   5.462  0.5846  0.8270  0.4894
 7968SOL     OW31643   6.272   4.149   3.716  0.4701  0.2169  0.2270
 7968SOL    HW231644   6.289   4.065   3.759  0.0154 -0.0663 -0.1397
 7968SOL    HW331645   6.177   4.154   3.711  0.2956  2.1171  2.9599
 7968SOL    MW431646   6.262   4.139   3.721 -0.5740  0.2174  0.0024
 7969SOL     OW31647   2.516   5.528   3.044  0.3437  0.3260  0.1184
 7969SOL    HW231648   2.524   5.624   3.047 -3.1149  0.8360 -1.7292
 7969SOL    HW331649   2.569   5.502   2.969 -1.7243  1.4246 -1.8676
 7969SOL    MW431650   2.524   5.538   3.035  0.0190 -0.3561  0.5876
 7970SOL     OW31651   3.856   0.836   4.877 -0.3721  0.0966 -0.0685
 7970SOL    HW231652   3.924   0.900   4.897 -1.0143  0.8818 -0.3096
 7970SOL    HW331653   3.898   0.751   4.886  0.2864  0.5242  1.1056
 7970SOL    MW431654   3.870   0.833   4.881  0.4899 -0.2384 -0.2270
 7971SOL     OW31655   4.926   2.705   5.674  0.2607  0.0858  0.0631
 7971SOL    HW231656   4.924   2.749   5.759 -0.9031 -0.1991  0.1936
 7971SOL    HW331657   4.982   2.628   5.689 -0.9610 -0.6706  0.9410
 7971SOL    MW431658   4.933   2.700   5.687  0.7673 -0.0321 -0.2939
 7972SOL     OW31659   2.844   5.656   0.674  0.2307 -0.1165  0.2134
 7972SOL    HW231660   2.918   5.712   0.649  0.1711 -0.2990 -0.3864
 7972SOL    HW331661   2.821   5.684   0.762 -1.9472  3.0911 -1.2091
 7972SOL    MW431662   2.851   5.667   0.682 -0.0880 -0.0763  0.1702
 7973SOL     OW31663   1.053   4.135   0.555 -0.4557 -0.2987  0.2693
 7973SOL    HW231664   1.122   4.148   0.621  1.9849 -2.6397 -1.5826
 7973SOL    HW331665   1.045   4.220   0.512  0.1967  0.4139  1.4809
 7973SOL    MW431666   1.061   4.148   0.558  0.6904  0.2332  0.5007
 7974SOL     OW31667   2.823   2.720   5.900  0.2110  0.3318  0.3550
 7974SOL    HW231668   2.833   2.807   5.861 -0.3565  0.8532  1.3172
 7974SOL    HW331669   2.874   2.725   5.981  2.1154 -1.0171 -0.6810
 7974SOL    MW431670   2.831   2.732   5.906  0.0469  0.0630 -0.0952
 7975SOL     OW31671   1.756   4.342   6.290  0.3345  0.0034 -0.3513
 7975SOL    HW231672   1.751   4.293   6.208  2.3678 -0.2617 -0.3754
 7975SOL    HW331673   1.784   4.430   6.263  1.4997 -0.2219  0.0717
 7975SOL    MW431674   1.759   4.347   6.276 -0.1453 -0.2305  0.0108
 7976SOL     OW31675   2.251   3.664   5.299 -0.6069 -0.2656  0.1329
 7976SOL    HW231676   2.213   3.740   5.342  0.1492  0.9052 -1.1813
 7976SOL    HW331677   2.213   3.663   5.211 -0.0879 -0.9935 -0.1004
 7976SOL    MW431678   2.241   3.674   5.293 -0.1820  0.4712 -0.7911
 7977SOL     OW31679   6.300   5.152   0.282 -0.0203 -0.5404 -0.2904
 7977SOL    HW231680   6.324   5.095   0.208 -1.2869 -0.7831 -0.5380
 7977SOL    HW331681   6.318   5.099   0.360  0.3442 -0.6700 -0.4618
 7977SOL    MW431682   6.306   5.137   0.282 -0.6620 -0.2994 -0.3124
 7978SOL     OW31683   5.030   2.204   4.618  0.5828  0.1763 -0.2804
 7978SOL    HW231684   5.018   2.297   4.601  0.6599  0.4114  0.8148
 7978SOL    HW331685   5.073   2.170   4.540 -2.4892  0.3118 -2.1706
 7978SOL    MW431686   5.034   2.212   4.606 -0.4629  0.4463  0.5058
 7979SOL     OW31687   6.221   4.686   5.553  0.3206  0.4662 -0.0927
 7979SOL    HW231688   6.237   4.685   5.459 -0.7072  0.4414 -0.2802
 7979SOL    HW331689   6.307   4.699   5.592  0.7122  0.8226 -1.0487
 7979SOL    MW431690   6.234   4.688   5.546 -0.1614 -0.1483  0.0433
 7980SOL     OW31691   1.847   5.250   3.280 -1.2241 -0.6235  0.1157
 7980SOL    HW231692   1.754   5.266   3.298 -1.4741 -1.5085 -0.3438
 7980SOL    HW331693   1.853   5.156   3.264 -0.3662 -0.4775 -0.5409
 7980SOL    MW431694   1.835   5.240   3.280  0.0343  0.1279 -0.6553
 7981SOL     OW31695   5.592   5.649   2.794 -0.4721 -0.1102  0.1163
 7981SOL    HW231696   5.631   5.585   2.735  0.3840  0.3974  0.1080
 7981SOL    HW331697   5.611   5.734   2.753 -4.5344  0.1376 -1.7260
 7981SOL    MW431698   5.600   5.652   2.781 -0.2854  0.5784 -0.1945
 7982SOL     OW31699   4.512   5.996   2.376  0.2341  0.0162 -0.0464
 7982SOL    HW231700   4.437   5.940   2.357  0.5929 -0.5299  0.1412
 7982SOL    HW331701   4.475   6.084   2.383 -0.1939 -0.0380 -1.3228
 7982SOL    MW431702   4.497   6.000   2.374 -0.1484  0.0743 -0.1534
 7983SOL     OW31703   1.128   4.303   5.253  0.2283  0.0852  0.2455
 7983SOL    HW231704   1.125   4.398   5.241 -0.6426  0.0808  0.3756
 7983SOL    HW331705   1.198   4.273   5.194 -0.6814  0.6095 -1.1488
 7983SOL    MW431706   1.137   4.311   5.244  0.4759 -0.3748  0.6804
 7984SOL     OW31707   0.082   4.634   4.313  0.4799  0.0876 -0.0834
 7984SOL    HW231708   0.024   4.558   4.310  1.9293 -1.0508 -0.3526
 7984SOL    HW331709   0.068   4.678   4.229 -0.6779  0.3847  0.2456
 7984SOL    MW431710   0.072   4.630   4.302 -0.3555  0.3439  0.1778
 7985SOL     OW31711   5.089   3.247   0.083  0.1500  0.1996  0.0484
 7985SOL    HW231712   5.020   3.203   0.033  1.6431 -1.1483 -0.9294
 7985SOL    HW331713   5.095   3.334   0.044 -0.0208 -0.1708 -0.8280
 7985SOL    MW431714   5.081   3.253   0.071  0.6119  0.0704  0.2653
 7986SOL     OW31715   1.886   3.314   5.920  0.2048  0.2860  0.3032
 7986SOL    HW231716   1.955   3.380   5.912  0.8676 -0.4796 -0.6608
 7986SOL    HW331717   1.918   3.240   5.867 -1.5251  0.0458 -0.4639
 7986SOL    MW431718   1.899   3.313   5.912  0.4337  0.3176  0.2188
 7987SOL     OW31719   0.056   0.563   5.352  0.0009 -0.4708  0.4942
 7987SOL    HW231720   0.033   0.623   5.281  0.1949 -1.3785 -0.3493
 7987SOL    HW331721   0.151   0.552   5.345 -0.0503 -0.9893  0.5473
 7987SOL    MW431722   0.065   0.569   5.342  0.2314 -0.8117  0.1492
 7988SOL     OW31723   3.732   4.966   4.094  0.1411  0.4571 -0.1072
 7988SOL    HW231724   3.718   5.061   4.091 -0.4045  0.3939  0.2918
 7988SOL    HW331725   3.737   4.946   4.187  0.7107  0.1544 -0.2002
 7988SOL    MW431726   3.731   4.976   4.106 -0.3226  0.7679  0.1321
 7989SOL     OW31727   0.358   5.823   5.719 -0.4600  0.3568  0.0091
 7989SOL    HW231728   0.385   5.879   5.791 -0.0076 -1.0458  0.9695
 7989SOL    HW331729   0.335   5.740   5.760  0.3364 -0.6670 -1.5147
 7989SOL    MW431730   0.358   5.819   5.734  0.6475 -0.0661  0.1096
 7990SOL     OW31731   5.704   3.527   2.971 -0.2028  0.4705  0.1959
 7990SOL    HW231732   5.667   3.579   3.043 -0.4988  0.7164 -0.1335
 7990SOL    HW331733   5.732   3.446   3.013 -0.3236  0.6344  0.6023
 7990SOL    MW431734   5.703   3.523   2.986 -0.3178 -0.1016  0.5873
 7991SOL     OW31735   3.290   1.435   6.060 -0.2178 -0.0292  0.6065
 7991SOL    HW231736   3.357   1.415   5.995  0.2560  1.7364  0.5139
 7991SOL    HW331737   3.209   1.444   6.009 -0.0009  0.5450  0.3582
 7991SOL    MW431738   3.288   1.433   6.045  0.0490  0.3887  0.2274
 7992SOL     OW31739   3.418   4.184   3.753  0.3253  0.4096 -0.3580
 7992SOL    HW231740   3.346   4.163   3.813 -0.9801 -0.5573 -2.1632
 7992SOL    HW331741   3.378   4.239   3.686  1.4786  0.5602 -0.9383
 7992SOL    MW431742   3.403   4.189   3.752 -0.4207  0.4921 -0.0457
 7993SOL     OW31743   3.809   1.418   0.341 -0.6590 -0.1634  0.2909
 7993SOL    HW231744   3.903   1.400   0.335 -0.5036  0.8541 -0.8112
 7993SOL    HW331745   3.804   1.512   0.359 -1.4503  0.3837 -2.3772
 7993SOL    MW431746   3.821   1.428   0.343  0.1655  0.2903 -0.3926
 7994SOL     OW31747   2.238   1.107   2.913  0.2813  0.1506 -0.3719
 7994SOL    HW231748   2.219   1.037   2.976 -2.6507 -1.2458 -2.5946
 7994SOL    HW331749   2.177   1.178   2.937  0.9558  0.6485 -0.1077
 7994SOL    MW431750   2.227   1.107   2.925 -0.6184 -0.5911 -0.8260
 7995SOL     OW31751   5.594   4.498   4.403  1.0802  0.3856  0.3595
 7995SOL    HW231752   5.518   4.460   4.448 -0.6851  1.9603 -1.1464
 7995SOL    HW331753   5.633   4.558   4.467  0.0544  0.8140  0.5873
 7995SOL    MW431754   5.589   4.501   4.417  0.2245 -0.1238  0.2037
 7996SOL     OW31755   5.996   3.114   1.608 -0.5036 -0.2872  0.7775
 7996SOL    HW231756   6.079   3.151   1.578 -1.1638  1.6955  1.2124
 7996SOL    HW331757   5.948   3.189   1.643 -2.8197 -1.2365 -0.1699
 7996SOL    MW431758   6.001   3.129   1.609  0.1338  0.8926 -0.8386
 7997SOL     OW31759   5.938   3.747   0.852 -0.4065  0.4315  0.3267
 7997SOL    HW231760   5.953   3.773   0.761 -1.1041  0.0856  0.1057
 7997SOL    HW331761   6.005   3.679   0.868  0.0321  0.8358  0.2317
 7997SOL    MW431762   5.949   3.741   0.842  0.2869 -0.2401  0.6373
 7998SOL     OW31763   6.402   1.756   1.397 -0.2854  0.7838 -0.5995
 7998SOL    HW231764   6.335   1.740   1.463  0.0402 -0.5058 -0.5651
 7998SOL    HW331765   6.417   1.851   1.401 -0.7008  0.8097  0.7477
 7998SOL    MW431766   6.395   1.767   1.406 -0.2715 -0.7965 -0.1437
 7999SOL     OW31767   5.948   5.299   6.266 -0.3610 -0.3701  0.0899
 7999SOL    HW231768   5.870   5.249   6.287 -0.0012 -0.3005  1.7142
 7999SOL    HW331769   6.016   5.233   6.251 -0.0951 -0.4118  1.3793
 7999SOL    MW431770   5.947   5.284   6.267 -0.3142 -0.1783 -0.0066
 8000SOL     OW31771   4.572   0.393   1.322  0.6589 -0.0520 -0.1475
 8000SOL    HW231772   4.538   0.380   1.233 -1.4528 -0.3024  0.6570
 8000SOL    HW331773   4.552   0.311   1.368 -0.5238  0.9450  1.2130
 8000SOL    MW431774   4.565   0.380   1.316 -0.2178  0.2642 -0.2124
 8001SOL     OW31775   3.051   0.652   6.341  0.0347 -0.2414  0.1882
 8001SOL    HW231776   3.017   0.568   6.312  1.6601 -0.9850  0.3292
 8001SOL    HW331777   2.989   0.716   6.306 -0.1256 -1.3511 -1.7051
 8001SOL    MW431778   3.039   0.649   6.332 -0.5973  0.3692 -0.2412
 8002SOL     OW31779   2.065   0.742   4.718 -0.1166  0.1165  0.2579
 8002SOL    HW231780   2.155   0.712   4.710 -0.3410 -0.6520  0.4758
 8002SOL    HW331781   2.016   0.685   4.659 -0.2591  1.4995 -0.9885
 8002SOL    MW431782   2.070   0.731   4.709  0.2651  0.1618 -0.2298
 8003SOL     OW31783   2.225   3.706   2.888  0.2723  0.2878  0.1151
 8003SOL    HW231784   2.132   3.728   2.882  0.1116 -0.3400  0.2070
 8003SOL    HW331785   2.266   3.754   2.816 -0.1247  0.5575  0.0655
 8003SOL    MW431786   2.218   3.715   2.878  0.4311  0.3167 -0.1691
 8004SOL     OW31787   4.623   5.497   5.586  0.1583 -0.2492  0.0566
 8004SOL    HW231788   4.589   5.412   5.558  1.9084 -1.2880  0.9373
 8004SOL    HW331789   4.571   5.561   5.537 -0.2058 -1.8549 -1.7700
 8004SOL    MW431790   4.612   5.494   5.576  0.3446 -0.7390  0.0799
 8005SOL     OW31791   4.578   0.202   4.644 -0.1002  0.2546  0.1382
 8005SOL    HW231792   4.595   0.121   4.692  4.2212  1.3243  0.8179
 8005SOL    HW331793   4.548   0.264   4.711 -0.8023 -0.0529  0.1148
 8005SOL    MW431794   4.576   0.200   4.659 -0.0160  0.1479  0.4129
 8006SOL     OW31795   0.202   4.697   2.878  0.2789  0.0853 -0.0969
 8006SOL    HW231796   0.173   4.632   2.942 -1.9903 -0.0299 -1.1418
 8006SOL    HW331797   0.165   4.779   2.909  0.3436  0.2759 -0.5162
 8006SOL    MW431798   0.194   4.699   2.891  0.4933  0.8867  0.0992
 8007SOL     OW31799   1.097   3.090   5.635  0.2879  0.1616  0.0605
 8007SOL    HW231800   1.089   3.164   5.575  0.7946 -0.2542 -0.5331
 8007SOL    HW331801   1.035   3.109   5.705 -1.4718 -0.0661 -1.3600
 8007SOL    MW431802   1.088   3.102   5.636  0.2615 -0.2277 -0.5794
 8008SOL     OW31803   4.880   4.929   1.038  0.0248 -0.0526 -0.5869
 8008SOL    HW231804   4.908   5.012   1.076 -1.1630  0.7614 -1.4057
 8008SOL    HW331805   4.855   4.876   1.113  1.4391  0.0596 -0.0089
 8008SOL    MW431806   4.880   4.933   1.053  0.2262  0.5316  0.3428
 8009SOL     OW31807   0.493   2.793   0.984  0.4210 -0.4559 -0.5122
 8009SOL    HW231808   0.484   2.879   1.023 -1.2561 -0.0558 -1.6859
 8009SOL    HW331809   0.576   2.797   0.936  0.5162  0.3803 -0.2863
 8009SOL    MW431810   0.503   2.805   0.983 -0.2225  0.5720 -0.0020
 8010SOL     OW31811   0.895   5.068   4.276 -0.0120 -0.3155 -0.0259
 8010SOL    HW231812   0.945   4.990   4.250  0.1645 -0.1051 -0.3247
 8010SOL    HW331813   0.953   5.115   4.335  0.5439  0.4340 -1.1469
 8010SOL    MW431814   0.909   5.064   4.281 -0.3478  0.3851 -0.6318
 8011SOL     OW31815   1.313   5.165   1.712 -0.7386 -0.0730 -0.0682
 8011SOL    HW231816   1.384   5.226   1.733 -0.5332 -0.5561  0.6748
 8011SOL    HW331817   1.358   5.087   1.679 -0.8391 -0.8205  1.4876
 8011SOL    MW431818   1.328   5.163   1.710  0.0711  0.4796 -0.1674
 8012SOL     OW31819   0.149   1.855   5.499  0.0100  0.4026  0.3430
 8012SOL    HW231820   0.165   1.806   5.418 -1.7847 -1.1350  0.8553
 8012SOL    HW331821   0.236   1.869   5.536  0.8951  1.3463 -1.9296
 8012SOL    MW431822   0.163   1.851   5.493  0.4292 -0.2233  0.0263
 8013SOL     OW31823   5.598   5.544   3.180 -0.0645 -0.2018 -0.0676
 8013SOL    HW231824   5.570   5.576   3.266 -0.9477  0.7035 -0.6726
 8013SOL    HW331825   5.666   5.605   3.152  1.2981 -1.3635  0.6180
 8013SOL    MW431826   5.603   5.556   3.188  0.3646  1.1610  0.0288
 8014SOL     OW31827   0.935   1.846   2.694  0.1477  0.3585  0.1224
 8014SOL    HW231828   0.900   1.890   2.617 -4.7510 -1.2123  1.0958
 8014SOL    HW331829   0.926   1.753   2.675 -0.5008 -0.0791  2.2468
 8014SOL    MW431830   0.929   1.840   2.681  0.4418 -0.5140 -0.9094
 8015SOL     OW31831   0.366   4.762   2.642  0.1789 -0.4528 -0.1427
 8015SOL    HW231832   0.295   4.740   2.582 -0.9674  0.8729  0.6808
 8015SOL    HW331833   0.325   4.765   2.728  1.0154  1.2034  0.2359
 8015SOL    MW431834   0.351   4.760   2.645  0.3258 -0.4711 -0.7084
 8016SOL     OW31835   5.290   2.270   1.079 -0.3861  0.4805  0.6245
 8016SOL    HW231836   5.311   2.221   1.000  0.1001  1.5395  0.0610
 8016SOL    HW331837   5.311   2.211   1.151 -1.5327 -0.7671 -0.0232
 8016SOL    MW431838   5.296   2.256   1.078  0.0818  0.3218 -0.8258
 8017SOL     OW31839   2.196   3.834   2.488 -0.1097  0.0861 -0.9367
 8017SOL    HW231840   2.216   3.889   2.412 -0.1480  1.9740  0.3638
 8017SOL    HW331841   2.101   3.845   2.501  0.2343  1.5975  0.6745
 8017SOL    MW431842   2.186   3.843   2.479  0.0716 -0.5349  0.2269
 8018SOL     OW31843   2.203   3.458   0.098  0.0075 -0.2378 -0.3561
 8018SOL    HW231844   2.199   3.365   0.119 -0.0967  0.2248  1.9801
 8018SOL    HW331845   2.148   3.500   0.164  1.4409  1.6376 -0.2589
 8018SOL    MW431846   2.195   3.451   0.109 -0.2858  0.2719  1.4148
 8019SOL     OW31847   4.834   3.205   4.652  0.1276  0.3251 -0.1611
 8019SOL    HW231848   4.877   3.199   4.567  0.4167  0.7951 -0.0528
 8019SOL    HW331849   4.743   3.180   4.635  0.1954  0.3669 -0.5966
 8019SOL    MW431850   4.828   3.201   4.639  0.5226  0.1911  0.2438
 8020SOL     OW31851   1.753   5.034   3.951  0.3947  0.2188 -0.4631
 8020SOL    HW231852   1.699   5.041   4.029  1.2813 -0.3941  0.2338
 8020SOL    HW331853   1.797   4.949   3.960  0.3535  0.0390 -1.7351
 8020SOL    MW431854   1.752   5.023   3.962 -0.1689  0.2986 -0.2037
 8021SOL     OW31855   1.545   4.294   3.330  0.0845 -0.3100 -0.1090
 8021SOL    HW231856   1.480   4.297   3.259  1.2288  1.2272 -1.1699
 8021SOL    HW331857   1.627   4.320   3.288  1.4126 -2.1039  1.2134
 8021SOL    MW431858   1.547   4.298   3.315 -0.0148  0.4366 -0.0776
 8022SOL     OW31859   5.921   0.552   4.774 -0.1204 -0.1598 -0.2879
 8022SOL    HW231860   5.968   0.623   4.818  0.0228  0.4953 -1.4422
 8022SOL    HW331861   5.973   0.534   4.696 -0.7921 -0.7163 -0.6216
 8022SOL    MW431862   5.934   0.559   4.769 -0.1587  0.3466  0.0488
 8023SOL     OW31863   5.038   0.828   2.145  0.4129  0.2907  0.0825
 8023SOL    HW231864   4.999   0.892   2.086 -0.3705 -1.0423 -0.9060
 8023SOL    HW331865   4.963   0.790   2.191  0.4034 -2.3776 -1.9024
 8023SOL    MW431866   5.023   0.831   2.144  0.0307 -0.7908  0.3790
 8024SOL     OW31867   5.755   6.189   3.321 -0.6653 -0.2839 -0.0787
 8024SOL    HW231868   5.845   6.214   3.298  0.1427 -1.4849  1.6266
 8024SOL    HW331869   5.718   6.267   3.361 -0.0258 -0.0973  0.1630
 8024SOL    MW431870   5.762   6.203   3.323  0.3336 -0.4039  0.3272
 8025SOL     OW31871   5.796   5.717   3.496 -0.3674 -0.8942 -0.1281
 8025SOL    HW231872   5.854   5.793   3.494 -0.6348 -0.5970  1.6339
 8025SOL    HW331873   5.849   5.645   3.463  0.6781 -0.4055  0.4445
 8025SOL    MW431874   5.810   5.717   3.492 -0.4680  0.0416 -0.4608
 8026SOL     OW31875   1.214   1.779   3.895 -0.2096  0.1707 -0.1948
 8026SOL    HW231876   1.226   1.805   3.803 -1.0289  0.0027 -0.3558
 8026SOL    HW331877   1.264   1.843   3.945  0.1695  0.3168 -0.7550
 8026SOL    MW431878   1.222   1.791   3.889 -0.2730 -0.2652  0.2803
 8027SOL     OW31879   3.031   3.987   5.409 -0.5764  0.1013 -0.0019
 8027SOL    HW231880   2.939   3.966   5.397 -0.4750  0.9580 -2.8949
 8027SOL    HW331881   3.056   4.034   5.330  3.1213 -2.8684 -0.9025
 8027SOL    MW431882   3.022   3.990   5.397 -0.0729  0.3908 -0.3780
 8028SOL     OW31883   0.650   3.319   2.470 -0.5758 -0.3718  0.0837
 8028SOL    HW231884   0.743   3.302   2.452 -0.8258 -1.8281  0.0277
 8028SOL    HW331885   0.648   3.410   2.501  0.9870 -0.5882  0.9468
 8028SOL    MW431886   0.662   3.329   2.471 -0.0889 -0.2129  1.3325
 8029SOL     OW31887   5.770   4.484   2.469 -0.5323 -0.0230  0.9079
 8029SOL    HW231888   5.859   4.449   2.481 -0.5165 -0.7206 -0.8049
 8029SOL    HW331889   5.713   4.408   2.476 -0.4532 -0.7752 -3.4572
 8029SOL    MW431890   5.774   4.469   2.471 -0.3742 -0.2958 -0.4635
 8030SOL     OW31891   3.413   4.267   5.300  0.0849 -0.0713  0.6118
 8030SOL    HW231892   3.394   4.359   5.280  0.8582 -0.0199  0.0645
 8030SOL    HW331893   3.369   4.251   5.384 -2.0873  0.1086 -0.4175
 8030SOL    MW431894   3.404   4.277   5.309  0.1192  0.0897  0.1065
 8031SOL     OW31895   6.195   6.339   1.183 -0.1649 -0.2394 -0.1280
 8031SOL    HW231896   6.253   6.415   1.186  0.0329 -0.4180  1.7969
 8031SOL    HW331897   6.109   6.376   1.162 -0.0114  0.4805  0.4587
 8031SOL    MW431898   6.191   6.354   1.181 -0.6499  0.0331  0.4214
 8032SOL     OW31899   2.654   4.401   5.898 -0.3603 -0.2519  0.1368
 8032SOL    HW231900   2.691   4.461   5.833 -1.3731  0.4518  0.1880
 8032SOL    HW331901   2.719   4.399   5.968  0.2861 -0.2444 -0.4487
 8032SOL    MW431902   2.667   4.409   5.898  0.3581  0.2576  0.4474
 8033SOL     OW31903   3.781   2.668   1.689  0.6892  0.2414  0.2141
 8033SOL    HW231904   3.762   2.756   1.723  1.1529  0.7495 -0.8109
 8033SOL    HW331905   3.875   2.658   1.700  0.8884  0.5118 -1.1045
 8033SOL    MW431906   3.791   2.678   1.695  0.7314 -0.0180 -0.2502
 8034SOL     OW31907   1.540   6.284   1.305  0.4802 -0.4430  0.4052
 8034SOL    HW231908   1.628   6.291   1.342  0.8421  0.0441 -0.5225
 8034SOL    HW331909   1.524   6.190   1.298  1.2412 -0.5413 -0.1305
 8034SOL    MW431910   1.550   6.272   1.309 -0.0721  0.4043  0.1609
 8035SOL     OW31911   4.611   4.130   6.005 -0.4370 -0.4295 -0.3588
 8035SOL    HW231912   4.629   4.147   5.913 -0.1223  0.5856 -0.1146
 8035SOL    HW331913   4.536   4.069   6.004 -0.5726 -0.2528 -1.2717
 8035SOL    MW431914   4.603   4.124   5.993  0.3205  0.3821  0.2378
 8036SOL     OW31915   4.164   0.131   0.120  0.1447 -0.0631 -0.2427
 8036SOL    HW231916   4.151   0.175   0.036  2.3189 -0.2654 -0.7364
 8036SOL    HW331917   4.222   0.057   0.100  1.2522  0.2716  1.5295
 8036SOL    MW431918   4.170   0.127   0.106 -0.1864  0.1433  0.2707
 8037SOL     OW31919   4.249   3.426   3.641  0.3853 -0.5122 -0.2340
 8037SOL    HW231920   4.341   3.436   3.616  0.1588 -1.7215 -1.7191
 8037SOL    HW331921   4.250   3.360   3.711  0.6028 -0.9069 -0.6080
 8037SOL    MW431922   4.261   3.418   3.647 -0.1719 -0.2825 -0.3125
 8038SOL     OW31923   0.566   2.339   4.957 -0.0804  0.2358 -0.0881
 8038SOL    HW231924   0.510   2.296   4.892 -0.9331  1.7126 -0.3777
 8038SOL    HW331925   0.653   2.302   4.942 -0.4362 -0.0744 -1.5154
 8038SOL    MW431926   0.570   2.329   4.946  0.2827 -0.3193  0.0121
 8039SOL     OW31927   0.848   4.981   0.185 -0.7211 -0.0917 -0.6119
 8039SOL    HW231928   0.939   5.012   0.191 -0.6863  0.3264 -2.5818
 8039SOL    HW331929   0.837   4.925   0.262 -0.3994  3.7394  2.5711
 8039SOL    MW431930   0.859   4.978   0.196  0.0725 -0.3634  0.4916
 8040SOL     OW31931   3.746   5.636   5.620 -0.2150 -0.1346 -0.0956
 8040SOL    HW231932   3.748   5.589   5.537 -1.3006 -1.9795  0.8500
 8040SOL    HW331933   3.710   5.722   5.599  2.6028  0.7279 -2.0324
 8040SOL    MW431934   3.741   5.641   5.606 -0.8207 -0.5368  0.1954
 8041SOL     OW31935   1.013   2.263   6.067 -0.2342  0.7033  0.3408
 8041SOL    HW231936   1.060   2.346   6.079 -0.3875  0.6467  1.4114
 8041SOL    HW331937   0.945   2.264   6.134  0.7871 -1.0289  1.4655
 8041SOL    MW431938   1.010   2.274   6.077 -0.6347  0.3931  0.6836
 8042SOL     OW31939   3.613   5.672   3.333  0.3641  0.0207  0.2277
 8042SOL    HW231940   3.628   5.708   3.420 -0.3804 -1.0997  0.8405
 8042SOL    HW331941   3.698   5.637   3.306  0.5312  0.1225  0.6281
 8042SOL    MW431942   3.626   5.672   3.341 -0.6786 -0.1006  0.3435
 8043SOL     OW31943   4.672   4.887   5.839  0.3099  0.0002  0.1930
 8043SOL    HW231944   4.689   4.793   5.836  0.5072 -0.0127  1.3159
 8043SOL    HW331945   4.577   4.895   5.841  0.2410 -0.0986 -1.5880
 8043SOL    MW431946   4.662   4.876   5.839  0.2685  0.5841  0.0332
 8044SOL     OW31947   0.129   5.235   6.090 -0.3056 -0.6445  0.5449
 8044SOL    HW231948   0.054   5.181   6.114 -0.0180 -0.5668  1.6903
 8044SOL    HW331949   0.106   5.272   6.005 -1.1885 -1.2982  0.4801
 8044SOL    MW431950   0.116   5.233   6.082 -0.5868 -0.6889  0.4748
 8045SOL     OW31951   2.390   5.441   0.061  0.2246  0.1719 -0.2749
 8045SOL    HW231952   2.317   5.387   0.091 -0.5246  0.4503 -1.5260
 8045SOL    HW331953   2.417   5.491   0.138 -0.1680 -0.7522  0.4760
 8045SOL    MW431954   2.384   5.440   0.075 -0.0487 -0.0370 -0.3632
 8046SOL     OW31955   3.682   3.862   4.488 -0.1708 -0.4097 -0.1755
 8046SOL    HW231956   3.755   3.847   4.548  0.9804  0.4347 -1.3123
 8046SOL    HW331957   3.642   3.776   4.476  1.7212 -1.2384 -0.8536
 8046SOL    MW431958   3.686   3.849   4.494 -0.6171  0.3437  0.2771
 8047SOL     OW31959   5.632   1.955   4.500 -0.6371 -0.3844  0.0285
 8047SOL    HW231960   5.672   1.870   4.517  0.6353  0.0184 -0.7303
 8047SOL    HW331961   5.558   1.936   4.443 -1.8659 -1.2015  1.8334
 8047SOL    MW431962   5.628   1.942   4.495  0.4405 -0.1382 -0.0881
 8048SOL     OW31963   1.703   5.727   0.779 -0.1163 -0.0407 -0.5520
 8048SOL    HW231964   1.615   5.691   0.765 -0.4596 -0.4334  2.0875
 8048SOL    HW331965   1.688   5.820   0.796 -0.0493 -0.1348  0.0349
 8048SOL    MW431966   1.689   5.735   0.779 -0.2965 -0.0992 -0.1543
 8049SOL     OW31967   4.560   1.114   2.081 -0.6821 -0.1424  0.0794
 8049SOL    HW231968   4.528   1.029   2.112  1.2361 -0.1788  2.1980
 8049SOL    HW331969   4.514   1.178   2.137  0.9627 -0.0774  1.4424
 8049SOL    MW431970   4.549   1.111   2.093 -0.3677  0.1503 -0.5059
 8050SOL     OW31971   3.075   0.457   4.962  0.0595  0.9916 -0.1474
 8050SOL    HW231972   3.086   0.437   4.869 -1.2263 -0.0512 -0.1133
 8050SOL    HW331973   3.156   0.425   5.003  0.4040  0.9681 -0.8283
 8050SOL    MW431974   3.087   0.450   4.955 -0.3390 -0.7145 -0.3545
 8051SOL     OW31975   1.961   3.129   4.157 -0.5617  0.2416  0.1992
 8051SOL    HW231976   1.946   3.210   4.108 -0.7158  0.1104  0.0297
 8051SOL    HW331977   2.010   3.073   4.096 -0.6284  0.1310  0.2470
 8051SOL    MW431978   1.966   3.132   4.142 -0.0949 -0.5956  0.2489
 8052SOL     OW31979   0.987   2.627   1.831 -0.1372  0.4666 -0.2682
 8052SOL    HW231980   0.940   2.619   1.914 -0.4580 -0.2286 -0.5095
 8052SOL    HW331981   1.079   2.617   1.855 -0.1962  0.6552  0.0510
 8052SOL    MW431982   0.993   2.624   1.845 -0.4396 -0.1425  0.3076
 8053SOL     OW31983   3.521   5.525   5.975  0.1633 -0.1248 -0.3596
 8053SOL    HW231984   3.461   5.531   5.900  0.5551 -0.3404 -0.6954
 8053SOL    HW331985   3.475   5.469   6.037  0.2340 -0.7270 -0.8369
 8053SOL    MW431986   3.507   5.518   5.973  0.1630 -0.1601 -0.1099
 8054SOL     OW31987   0.788   0.036   2.927 -0.2269  0.7102 -0.1702
 8054SOL    HW231988   0.843  -0.028   2.882  0.5513  0.2596  1.3470
 8054SOL    HW331989   0.841   0.116   2.930 -0.4624  0.8798 -0.4490
 8054SOL    MW431990   0.802   0.038   2.921 -0.1557 -0.1146  0.2940
 8055SOL     OW31991   1.871   4.772   4.024 -0.2246  0.1845 -0.1513
 8055SOL    HW231992   1.929   4.705   3.987  0.7250  1.1669 -0.5205
 8055SOL    HW331993   1.923   4.811   4.094 -0.9071  0.2905  0.2980
 8055SOL    MW431994   1.886   4.768   4.028 -0.0694  0.0607 -0.1722
 8056SOL     OW31995   3.837   1.122   2.708 -0.0410 -0.8437 -0.3103
 8056SOL    HW231996   3.820   1.215   2.724  1.1910 -0.7830  0.7973
 8056SOL    HW331997   3.760   1.091   2.660 -0.0183  0.9740 -1.6136
 8056SOL    MW431998   3.825   1.130   2.704  0.3758  0.6655 -0.5975
 8057SOL     OW31999   3.656   1.481   5.240  0.1450 -0.1096  0.8399
 8057SOL    HW232000   3.592   1.484   5.310  0.1858 -0.3482  0.8878
 8057SOL    HW332001   3.627   1.411   5.182  0.1834 -0.0023  0.6874
 8057SOL    MW432002   3.644   1.472   5.242 -0.2357 -0.1030  0.1130
 8058SOL     OW32003   5.188   1.450   4.648  0.0956  0.7319 -0.1176
 8058SOL    HW232004   5.156   1.493   4.727  1.9383  0.6210  0.7305
 8058SOL    HW332005   5.219   1.522   4.593  2.5493  0.6529  1.0178
 8058SOL    MW432006   5.188   1.465   4.651 -0.3319  0.3401 -0.6575
 8059SOL     OW32007   3.513   4.722   2.734 -0.1448  0.2949 -0.1745
 8059SOL    HW232008   3.477   4.732   2.822  0.4855  2.0890 -0.0851
 8059SOL    HW332009   3.438   4.700   2.679 -0.2713 -2.9893  1.0651
 8059SOL    MW432010   3.498   4.721   2.738 -0.1843 -0.0265 -0.4711
 8060SOL     OW32011   0.208   4.742   5.430  0.0726 -0.1725  0.3873
 8060SOL    HW232012   0.286   4.788   5.401 -0.1935 -0.8602 -1.5932
 8060SOL    HW332013   0.215   4.655   5.390 -1.6160 -0.3005  0.2858
 8060SOL    MW432014   0.219   4.737   5.421 -0.0394  0.8005  0.1906
 8061SOL     OW32015   5.709   1.527   6.216  0.0028  0.1145 -0.1333
 8061SOL    HW232016   5.653   1.604   6.224 -0.1257  0.2611 -2.0156
 8061SOL    HW332017   5.792   1.561   6.185  1.1591 -0.1362  2.3872
 8061SOL    MW432018   5.712   1.542   6.213  0.3149 -0.4856  0.1364
 8062SOL     OW32019   1.917   2.796   5.217  0.2229 -0.5891 -0.1024
 8062SOL    HW232020   1.828   2.818   5.244 -0.3125 -1.8974 -0.6843
 8062SOL    HW332021   1.910   2.707   5.182  1.1625  0.3351 -2.9453
 8062SOL    MW432022   1.904   2.787   5.216 -0.7063  0.1255 -0.1135
 8063SOL     OW32023   0.354   0.999   3.858  0.1519  0.3750  0.1718
 8063SOL    HW232024   0.419   1.046   3.804 -0.1744  0.0067 -0.5535
 8063SOL    HW332025   0.330   1.063   3.925  0.4163  0.9225 -0.2363
 8063SOL    MW432026   0.360   1.014   3.859 -0.4544 -0.0380 -0.2231
 8064SOL     OW32027   3.922   3.069   2.125 -0.5261  0.7317  0.0712
 8064SOL    HW232028   3.913   3.164   2.114 -1.9164  0.7140  0.8218
 8064SOL    HW332029   3.834   3.039   2.146  0.3014 -0.3739  2.3260
 8064SOL    MW432030   3.909   3.078   2.126 -0.2679 -0.3902 -0.2074
 8065SOL     OW32031   2.073   2.397   5.290 -0.1800 -0.2251 -0.1737
 8065SOL    HW232032   2.006   2.331   5.271 -1.9297  1.0411  1.2839
 8065SOL    HW332033   2.126   2.359   5.360 -0.6981 -0.4015  0.1264
 8065SOL    MW432034   2.071   2.384   5.296 -0.0901 -0.2656 -0.0603
 8066SOL     OW32035   2.508   2.449   1.259  0.3955  0.1870  0.0613
 8066SOL    HW232036   2.538   2.441   1.350 -0.7893 -0.0515  0.4411
 8066SOL    HW332037   2.420   2.412   1.259  0.8929 -1.0888 -1.4849
 8066SOL    MW432038   2.501   2.443   1.271 -0.0345 -0.1818  0.1330
 8067SOL     OW32039   5.426   0.138   3.163 -0.1791 -0.4464  0.1944
 8067SOL    HW232040   5.511   0.174   3.140  0.4365 -0.8623  1.7145
 8067SOL    HW332041   5.365   0.179   3.102  1.0022  0.4222 -0.4299
 8067SOL    MW432042   5.429   0.148   3.152  0.6334 -0.2652 -0.1136
 8068SOL     OW32043   4.514   3.465   3.590 -0.2591  0.2901  0.1713
 8068SOL    HW232044   4.562   3.450   3.671  1.0772 -2.7798 -0.9989
 8068SOL    HW332045   4.567   3.528   3.541  0.4728 -0.0491  0.5181
 8068SOL    MW432046   4.527   3.471   3.594 -0.4340  0.3461  0.0473
 8069SOL     OW32047   5.127   5.636   3.999  0.1898 -0.3327 -0.2632
 8069SOL    HW232048   5.118   5.553   3.953  1.9902 -0.2907 -0.7654
 8069SOL    HW332049   5.220   5.657   3.993 -0.1895  1.6369  0.0081
 8069SOL    MW432050   5.138   5.628   3.992 -0.2091 -0.2364 -0.4862
 8070SOL     OW32051   3.319   3.246   3.447 -0.2148 -0.3573 -0.2454
 8070SOL    HW232052   3.349   3.336   3.433  0.3048 -0.7717 -2.1652
 8070SOL    HW332053   3.386   3.192   3.407  0.7193 -1.8047  2.9692
 8070SOL    MW432054   3.331   3.251   3.440  0.1595 -0.0321  0.4197
 8071SOL     OW32055   4.148   2.182   4.825 -0.1787  0.0693 -0.0484
 8071SOL    HW232056   4.080   2.220   4.879  0.1097 -0.5560  0.7756
 8071SOL    HW332057   4.216   2.249   4.821 -0.2414  0.1531  0.2850
 8071SOL    MW432058   4.148   2.196   4.832 -0.1511 -0.2407  0.0502
 8072SOL     OW32059   5.812   2.239   4.993 -0.5328 -0.0823 -0.0714
 8072SOL    HW232060   5.867   2.165   5.017  0.9030  0.3433 -1.8189
 8072SOL    HW332061   5.770   2.265   5.075 -0.6642 -2.4545  0.6907
 8072SOL    MW432062   5.814   2.233   5.007  0.3564  0.2595  0.3688
 8073SOL     OW32063   2.495   3.802   5.782 -0.0358 -0.0131 -0.3369
 8073SOL    HW232064   2.424   3.849   5.825  0.3711  1.0876 -0.8226
 8073SOL    HW332065   2.452   3.728   5.739 -0.5698 -0.5821  1.1291
 8073SOL    MW432066   2.480   3.798   5.782 -0.0251 -0.1619 -0.1298
 8074SOL     OW32067   4.721   2.195   2.289  0.0885  0.0327  0.1187
 8074SOL    HW232068   4.657   2.198   2.218  2.0452  1.2792 -1.7224
 8074SOL    HW332069   4.788   2.134   2.257 -0.0614 -1.2041  1.9702
 8074SOL    MW432070   4.721   2.187   2.275 -0.3552 -0.1887 -0.0214
 8075SOL     OW32071   0.309   5.954   2.905 -0.1329  0.3184 -0.4433
 8075SOL    HW232072   0.266   5.879   2.863 -1.1879  1.7833 -2.1645
 8075SOL    HW332073   0.259   5.968   2.986  0.3356 -1.0524  0.1015
 8075SOL    MW432074   0.296   5.946   2.910 -0.3238  0.5138 -0.0314
 8076SOL     OW32075   3.669   0.627   0.263 -0.4099  0.4176  0.3224
 8076SOL    HW232076   3.709   0.668   0.339 -1.2260 -0.5718  1.3087
 8076SOL    HW332077   3.598   0.686   0.237  1.2328  1.8845 -1.0794
 8076SOL    MW432078   3.665   0.640   0.269 -0.0316  0.4902  0.4469
 8077SOL     OW32079   2.960   0.014   5.597  0.2011  0.4689  0.0618
 8077SOL    HW232080   2.945   0.084   5.660  0.0008  0.6340 -0.1710
 8077SOL    HW332081   2.974  -0.064   5.652  0.0789  0.6208  0.3121
 8077SOL    MW432082   2.960   0.013   5.613  0.2684 -0.1661  0.2353
 8078SOL     OW32083   4.624   4.128   1.602 -0.0966  0.2016  0.5332
 8078SOL    HW232084   4.664   4.138   1.688  0.3455 -1.3277  0.5355
 8078SOL    HW332085   4.683   4.173   1.542 -0.4301  1.3129  1.0121
 8078SOL    MW432086   4.637   4.135   1.606  0.1818  0.5131 -0.2838
 8079SOL     OW32087   2.808   5.005   5.328  0.9313  0.0508 -0.0017
 8079SOL    HW232088   2.881   5.011   5.267  1.1021  0.1176  0.2108
 8079SOL    HW332089   2.821   4.923   5.375  1.3756  0.5079  0.6853
 8079SOL    MW432090   2.819   4.995   5.326 -0.0025  0.0227 -0.2265
 8080SOL     OW32091   0.791   0.688   5.741 -0.1215  0.3162 -0.2335
 8080SOL    HW232092   0.750   0.773   5.727 -1.0235 -0.1143 -0.2451
 8080SOL    HW332093   0.721   0.624   5.724  0.1256 -0.3785  1.2490
 8080SOL    MW432094   0.776   0.691   5.737 -0.3574  0.5760 -0.1177
 8081SOL     OW32095   5.660   0.007   6.339  0.2209 -0.2362  0.0733
 8081SOL    HW232096   5.618   0.059   6.407 -0.0764  0.3081 -0.5189
 8081SOL    HW332097   5.604  -0.070   6.329  0.5492 -0.5803  0.8005
 8081SOL    MW432098   5.647   0.004   6.346 -0.2281 -0.4219 -0.9802
 8082SOL     OW32099   5.591   6.391   5.622 -0.1574  0.0285 -0.0786
 8082SOL    HW232100   5.676   6.363   5.589 -0.2504  2.3022 -2.5615
 8082SOL    HW332101   5.528   6.333   5.578  0.0169 -1.2487  1.2878
 8082SOL    MW432102   5.594   6.380   5.612 -0.3224 -0.2667 -0.4575
 8083SOL     OW32103   3.295   0.751   3.967  0.3599  0.3093  0.2209
 8083SOL    HW232104   3.370   0.783   3.916  0.9370  0.4323  1.1308
 8083SOL    HW332105   3.271   0.825   4.023 -0.3272  0.2029  0.0789
 8083SOL    MW432106   3.302   0.765   3.967  0.2375 -0.5535 -0.0740
 8084SOL     OW32107   5.371   6.181   6.022  0.3436  0.2086  0.0293
 8084SOL    HW232108   5.406   6.253   5.968  0.5311  0.5744  0.6338
 8084SOL    HW332109   5.395   6.102   5.975  2.7229  0.3953  0.8339
 8084SOL    MW432110   5.379   6.180   6.008 -0.0029 -0.1235  0.2905
 8085SOL     OW32111   4.492   0.977   5.647  0.3638 -0.1108  0.1247
 8085SOL    HW232112   4.585   0.985   5.670 -0.1133  0.2845  2.0378
 8085SOL    HW332113   4.488   1.006   5.555  1.7206  2.5532  0.7996
 8085SOL    MW432114   4.504   0.982   5.638 -0.1204 -0.2221  0.4838
 8086SOL     OW32115   5.655   3.703   5.942  0.4351 -0.2970  0.3339
 8086SOL    HW232116   5.578   3.718   5.998 -1.9117 -1.6973 -2.2519
 8086SOL    HW332117   5.640   3.759   5.866  1.5763 -1.1777 -0.5603
 8086SOL    MW432118   5.643   3.712   5.940  0.3289 -0.0889 -0.3832
 8087SOL     OW32119   3.478   1.004   2.911 -0.0513  0.4192 -0.5679
 8087SOL    HW232120   3.486   1.076   2.973 -0.9164 -0.3889  0.5240
 8087SOL    HW332121   3.388   0.973   2.921  1.1599 -2.9332  1.4485
 8087SOL    MW432122   3.467   1.009   2.920  0.1403  0.2355 -0.2534
 8088SOL     OW32123   4.918   3.335   6.218  0.2548  0.0897 -0.7999
 8088SOL    HW232124   4.887   3.304   6.133 -0.7589 -2.0506  0.2682
 8088SOL    HW332125   4.901   3.263   6.278  1.2228  1.4060  1.1946
 8088SOL    MW432126   4.912   3.322   6.215  0.1523 -0.2941 -0.0119
 8089SOL     OW32127   3.184   6.140   2.194 -0.7201  0.6383 -0.1372
 8089SOL    HW232128   3.249   6.187   2.141  0.4634 -0.0149  0.6930
 8089SOL    HW332129   3.100   6.174   2.164  0.0145  1.7860 -0.9801
 8089SOL    MW432130   3.181   6.151   2.183 -0.3941  0.0745  0.9912
 8090SOL     OW32131   4.273   0.540   0.625  0.1710  0.3401 -0.5731
 8090SOL    HW232132   4.224   0.588   0.692  0.3812  1.0710 -0.9302
 8090SOL    HW332133   4.207   0.516   0.560  0.0374 -0.0093 -0.3134
 8090SOL    MW432134   4.258   0.543   0.625  0.5478  0.3444  0.1403
 8091SOL     OW32135   3.044   4.550   6.384 -0.3925 -0.0065 -0.2243
 8091SOL    HW232136   3.065   4.591   6.468 -0.2607 -0.3169 -0.1044
 8091SOL    HW332137   2.950   4.538   6.387 -0.5411  0.9929 -0.5828
 8091SOL    MW432138   3.035   4.554   6.396 -0.0053  0.1819  0.5923
 8092SOL     OW32139   0.215   0.500   1.106 -0.0915  0.0624 -0.3223
 8092SOL    HW232140   0.263   0.583   1.106  0.4125 -0.2259 -0.0805
 8092SOL    HW332141   0.193   0.485   1.014 -1.5461  1.2335 -0.2045
 8092SOL    MW432142   0.218   0.509   1.094  0.0120  0.1387 -0.0529
 8093SOL     OW32143   5.182   1.755   2.245  0.1963 -0.6904  0.3400
 8093SOL    HW232144   5.127   1.728   2.318  0.3579 -0.7224  0.4503
 8093SOL    HW332145   5.253   1.692   2.243  0.6147 -0.2381  0.6454
 8093SOL    MW432146   5.184   1.743   2.254  0.0756  0.4810  0.1804
 8094SOL     OW32147   5.712   2.586   2.238  0.3773 -0.0261 -0.9997
 8094SOL    HW232148   5.636   2.572   2.182 -1.6329  4.0986  0.3049
 8094SOL    HW332149   5.687   2.549   2.323  0.9401 -0.9514 -1.2263
 8094SOL    MW432150   5.699   2.579   2.242 -0.1363 -0.1113 -0.2177
 8095SOL     OW32151   0.342   1.902   0.129 -0.4308 -0.3209  0.2173
 8095SOL    HW232152   0.273   1.936   0.186 -0.1371  1.2265 -0.2891
 8095SOL    HW332153   0.309   1.914   0.040  0.5428  0.7007 -0.0471
 8095SOL    MW432154   0.329   1.908   0.125 -0.1737 -0.0673  0.5400
 8096SOL     OW32155   1.636   0.863   4.586 -0.4796 -0.3668 -0.6576
 8096SOL    HW232156   1.631   0.851   4.491 -1.6429  0.1106 -0.6675
 8096SOL    HW332157   1.559   0.915   4.608 -0.1289 -0.3265  0.5315
 8096SOL    MW432158   1.625   0.868   4.576  0.0502 -0.4836  0.6621
 8097SOL     OW32159   4.712   4.097   2.676 -0.2259  0.2116 -0.3404
 8097SOL    HW232160   4.785   4.059   2.627  0.3096  0.6332  0.1347
 8097SOL    HW332161   4.732   4.078   2.768 -0.9180 -0.0249 -0.2297
 8097SOL    MW432162   4.724   4.089   2.682  0.0133 -0.1400  0.0875
 8098SOL     OW32163   2.795   1.079   5.578 -0.1638 -0.3329  0.1165
 8098SOL    HW232164   2.792   1.022   5.501 -0.8675 -2.2718  1.4793
 8098SOL    HW332165   2.841   1.026   5.644  1.1232  1.5684  0.8237
 8098SOL    MW432166   2.801   1.064   5.577 -0.0990 -0.3343 -0.1888
 8099SOL     OW32167   4.258   5.048   1.092  0.1890  0.2976  0.5678
 8099SOL    HW232168   4.294   5.033   1.004 -0.7139 -0.5087  0.3214
 8099SOL    HW332169   4.329   5.024   1.151  0.6610  0.4330  0.0616
 8099SOL    MW432170   4.272   5.043   1.088 -0.3290  0.1755  0.5838
 8100SOL     OW32171   1.459   4.969   3.969 -0.0165 -0.3202  0.6468
 8100SOL    HW232172   1.519   4.964   4.043  0.7574  1.1801  0.1500
 8100SOL    HW332173   1.472   5.056   3.933  0.6900 -1.4738 -2.1517
 8100SOL    MW432174   1.469   4.980   3.974 -0.2960  0.0056 -0.9263
 8101SOL     OW32175   4.336   3.835   4.772  0.3641 -0.3751  0.2364
 8101SOL    HW232176   4.247   3.869   4.783  0.2918 -0.5363  0.1550
 8101SOL    HW332177   4.356   3.794   4.856 -0.4134 -2.1355 -0.3931
 8101SOL    MW432178   4.327   3.834   4.784  0.2188 -0.2182 -0.9804
 8102SOL     OW32179   4.883   6.375   5.075 -0.0888  0.4006  0.1007
 8102SOL    HW232180   4.909   6.394   4.985 -0.0001  0.1829  0.0792
 8102SOL    HW332181   4.860   6.460   5.112  1.6444  0.7561  0.4480
 8102SOL    MW432182   4.883   6.389   5.068  0.2294  0.2307 -0.2074
 8103SOL     OW32183   0.052   3.323   3.552  0.0373  0.4976 -0.6387
 8103SOL    HW232184   0.094   3.393   3.603  2.0762 -0.6444 -0.6541
 8103SOL    HW332185  -0.005   3.279   3.615  0.6684  0.6192  0.0350
 8103SOL    MW432186   0.050   3.326   3.567 -0.2713 -0.1240  0.3486
 8104SOL     OW32187   4.649   4.748   2.715  0.1680  0.4111 -0.1291
 8104SOL    HW232188   4.735   4.789   2.705  0.5231  0.0143  1.0998
 8104SOL    HW332189   4.645   4.722   2.807 -0.2530 -1.8140 -0.7028
 8104SOL    MW432190   4.660   4.750   2.726 -0.1861 -0.1145  0.0368
 8105SOL     OW32191   2.313   4.809   0.091 -0.1509 -0.1569  0.1560
 8105SOL    HW232192   2.228   4.803   0.047  0.0190  0.8189 -0.3331
 8105SOL    HW332193   2.297   4.779   0.180 -0.6809 -1.4129 -0.3422
 8105SOL    MW432194   2.300   4.804   0.097 -0.3288 -0.0685  0.2417
 8106SOL     OW32195   1.158   4.088   3.514 -0.0966 -0.0522  0.4037
 8106SOL    HW232196   1.121   4.025   3.576 -1.0619  1.0056  0.9454
 8106SOL    HW332197   1.237   4.121   3.559  2.1472 -2.9034 -1.0939
 8106SOL    MW432198   1.164   4.084   3.528 -0.2143 -0.4833  0.6342
 8107SOL     OW32199   5.625   5.155   4.887 -0.4724 -0.1327  0.3114
 8107SOL    HW232200   5.703   5.194   4.926  0.5059  0.5788 -2.1785
 8107SOL    HW332201   5.641   5.157   4.793 -2.7394 -1.6414 -0.2037
 8107SOL    MW432202   5.638   5.160   4.880  0.5237 -0.2650  0.2750
 8108SOL     OW32203   1.187   5.960   4.694  0.3447 -0.2504  0.0259
 8108SOL    HW232204   1.279   5.984   4.706  0.7131 -2.1470  1.4933
 8108SOL    HW332205   1.175   5.955   4.599  1.8388 -0.2553 -0.1805
 8108SOL    MW432206   1.198   5.963   4.683 -0.7450  0.6173 -0.5458
 8109SOL     OW32207   5.043   0.828   0.813  0.3025  0.0622 -0.3111
 8109SOL    HW232208   4.947   0.829   0.813  0.2113  0.5092 -3.1459
 8109SOL    HW332209   5.067   0.833   0.905 -2.3871  1.0173  0.4354
 8109SOL    MW432210   5.034   0.829   0.825 -0.0806 -0.1524 -0.3208
 8110SOL     OW32211   4.763   2.259   3.503  0.3566  0.1921  0.3438
 8110SOL    HW232212   4.803   2.332   3.456 -2.5924  0.5134 -1.9756
 8110SOL    HW332213   4.715   2.300   3.574 -0.2442  0.4085 -0.1765
 8110SOL    MW432214   4.762   2.274   3.506 -0.0695 -0.4275  0.7026
 8111SOL     OW32215   1.591   3.679   1.112 -0.3052  0.4621  0.3938
 8111SOL    HW232216   1.587   3.585   1.130 -0.5821  0.3635 -0.1596
 8111SOL    HW332217   1.673   3.708   1.152  0.2173 -0.1782 -0.2041
 8111SOL    MW432218   1.601   3.670   1.120 -0.0904 -0.3135 -0.5918
 8112SOL     OW32219   2.704   2.740   2.241  0.2437 -0.1682  0.3501
 8112SOL    HW232220   2.677   2.651   2.265 -1.0766  0.4664  1.4080
 8112SOL    HW332221   2.799   2.739   2.248  0.1760 -1.1704  1.6011
 8112SOL    MW432222   2.713   2.728   2.245 -1.0169 -0.2746  0.7958
 8113SOL     OW32223   0.537   1.727   0.213  0.1669  0.2586  0.7244
 8113SOL    HW232224   0.474   1.787   0.173 -0.5716 -0.0600  1.3769
 8113SOL    HW332225   0.601   1.784   0.256  0.7480  0.5957 -0.5565
 8113SOL    MW432226   0.537   1.742   0.214 -0.4418 -0.0013  0.2706
 8114SOL     OW32227   2.759   2.091   0.102 -0.0633 -0.3129  0.7978
 8114SOL    HW232228   2.771   2.165   0.162 -0.0421  0.3287  0.0104
 8114SOL    HW332229   2.806   2.116   0.023 -0.5473 -0.9270  0.3065
 8114SOL    MW432230   2.767   2.104   0.100  0.4055 -0.0309 -0.0035
 8115SOL     OW32231   1.299   0.128   2.247 -0.5779 -0.6582 -0.3868
 8115SOL    HW232232   1.277   0.221   2.258  0.4622 -0.3839 -0.4665
 8115SOL    HW332233   1.248   0.083   2.314 -3.6286 -0.4597 -2.3752
 8115SOL    MW432234   1.289   0.135   2.257  0.7355 -0.3405  0.0492
 8116SOL     OW32235   6.275   2.039   0.561 -0.4079  0.7838 -0.2819
 8116SOL    HW232236   6.275   2.089   0.642  3.8766  0.7921 -0.0570
 8116SOL    HW332237   6.242   1.953   0.585 -1.0172  1.3399  0.9666
 8116SOL    MW432238   6.271   2.034   0.575  0.3742  0.3772  0.6439
 8117SOL     OW32239   5.789   5.951   2.462 -0.0119 -0.0261  0.1610
 8117SOL    HW232240   5.782   5.933   2.369 -1.6139  2.2829 -0.2645
 8117SOL    HW332241   5.770   6.045   2.470  0.3130 -0.0995  2.7776
 8117SOL    MW432242   5.785   5.961   2.451  0.3424 -0.1331  0.2116
 8118SOL     OW32243   2.421   3.674   0.276  0.4606 -0.5876  0.4547
 8118SOL    HW232244   2.402   3.708   0.189  1.4900  1.7123  1.0430
 8118SOL    HW332245   2.512   3.646   0.272  0.5243 -0.4389  0.7865
 8118SOL    MW432246   2.430   3.675   0.264 -0.1609  0.8395  0.1742
 8119SOL     OW32247   5.402   5.159   1.139  0.5599 -0.0122  0.3043
 8119SOL    HW232248   5.375   5.082   1.188 -1.6208 -0.0238 -0.8017
 8119SOL    HW332249   5.488   5.137   1.104  0.9033 -1.0767  1.7566
 8119SOL    MW432250   5.410   5.146   1.141 -0.0962 -0.6285  0.1302
 8120SOL     OW32251   1.072   4.604   4.339 -0.1414  0.2918 -0.1904
 8120SOL    HW232252   1.081   4.693   4.306  0.3527 -0.1303 -1.2228
 8120SOL    HW332253   1.048   4.552   4.262  0.0653 -0.5506  0.3012
 8120SOL    MW432254   1.070   4.609   4.324  0.6883  0.1087  0.5516
 8121SOL     OW32255   2.761   4.828   3.563 -0.1639 -0.0452  0.1608
 8121SOL    HW232256   2.699   4.881   3.612 -0.1408  0.1470 -0.0216
 8121SOL    HW332257   2.812   4.890   3.512  0.2493 -0.1933  0.3885
 8121SOL    MW432258   2.760   4.843   3.563  0.0277  0.0910 -0.2153
 8122SOL     OW32259   6.379   2.532   4.017 -0.0571 -0.5367  0.3997
 8122SOL    HW232260   6.339   2.560   3.934 -2.3627 -0.0870  1.5636
 8122SOL    HW332261   6.468   2.568   4.014 -0.9041  1.6570 -0.8170
 8122SOL    MW432262   6.385   2.541   4.005 -0.8437 -0.0006  0.2212
 8123SOL     OW32263   3.520   0.331   2.570 -0.6244 -0.3355 -0.0289
 8123SOL    HW232264   3.470   0.360   2.494  0.6229 -0.6867 -1.0144
 8123SOL    HW332265   3.536   0.237   2.555  1.1249 -0.0502 -0.2613
 8123SOL    MW432266   3.516   0.322   2.558  0.4445 -0.5436 -0.1120
 8124SOL     OW32267   0.452   1.136   6.328 -0.5662 -0.4326 -0.0676
 8124SOL    HW232268   0.489   1.095   6.250 -1.7432  0.8622 -1.3610
 8124SOL    HW332269   0.506   1.214   6.343  0.9830 -1.7499  1.7351
 8124SOL    MW432270   0.464   1.141   6.320 -0.1753 -0.0381  0.3976
 8125SOL     OW32271   4.248   1.380   5.234 -0.5512 -0.3138  0.1919
 8125SOL    HW232272   4.234   1.472   5.252 -0.4282 -0.0061 -1.1576
 8125SOL    HW332273   4.290   1.346   5.313 -2.1317  0.3807  1.3768
 8125SOL    MW432274   4.252   1.387   5.247 -0.9387 -0.2733 -0.2425
 8126SOL     OW32275   5.603   5.984   4.843  0.4362  0.4499  0.1313
 8126SOL    HW232276   5.670   6.052   4.843 -0.3892  1.3151 -1.3978
 8126SOL    HW332277   5.635   5.920   4.779 -0.0588  0.7481 -0.4267
 8126SOL    MW432278   5.616   5.984   4.834 -0.3792 -0.2004 -0.2157
 8127SOL     OW32279   2.745   6.361   2.200  0.1320 -0.0549  0.3122
 8127SOL    HW232280   2.741   6.448   2.161 -1.3538  0.8656  2.3130
 8127SOL    HW332281   2.659   6.323   2.182  0.5465 -0.8657  0.0033
 8127SOL    MW432282   2.733   6.368   2.193  0.2810 -0.0428 -0.3989
 8128SOL     OW32283   1.708   2.146   5.002  0.0612  0.1790 -0.2352
 8128SOL    HW232284   1.691   2.065   5.049  0.9087 -0.2712 -0.6780
 8128SOL    HW332285   1.666   2.134   4.917 -0.0145  0.3010 -0.2148
 8128SOL    MW432286   1.700   2.134   4.997  0.2227 -0.0176  0.0706
 8129SOL     OW32287   3.491   2.989   0.514  0.5374  0.1535  0.2163
 8129SOL    HW232288   3.444   3.045   0.575  1.2916  2.3670 -1.1274
 8129SOL    HW332289   3.434   2.913   0.503 -0.2312  0.3015  2.5869
 8129SOL    MW432290   3.477   2.986   0.521  0.0309 -0.2291 -0.0273
 8130SOL     OW32291   2.905   3.449   0.439 -0.3775  0.3066 -0.0386
 8130SOL    HW232292   2.838   3.452   0.371 -1.1057  2.7285  0.6865
 8130SOL    HW332293   2.886   3.368   0.488 -0.1123 -1.2360 -2.3358
 8130SOL    MW432294   2.894   3.439   0.437 -0.0844  0.3208 -0.4288
 8131SOL     OW32295   3.614   1.457   2.614  0.1845 -0.5789 -0.1267
 8131SOL    HW232296   3.544   1.444   2.679 -0.1309 -0.5022 -0.4508
 8131SOL    HW332297   3.631   1.551   2.615  0.8895 -0.6968  0.5727
 8131SOL    MW432298   3.607   1.467   2.623 -0.3055  0.1134  0.1666
 8132SOL     OW32299   4.883   3.088   6.412  0.5303  0.5222  0.0759
 8132SOL    HW232300   4.873   3.045   6.498  1.0490  1.4915  0.6337
 8132SOL    HW332301   4.880   3.015   6.349  2.9416 -0.5821  1.0806
 8132SOL    MW432302   4.881   3.072   6.415 -0.0685  0.1227 -0.2651
 8133SOL     OW32303   2.218   3.015   1.839  0.3781 -0.0804  0.1992
 8133SOL    HW232304   2.286   3.050   1.895  0.4069 -0.1732  0.2217
 8133SOL    HW332305   2.177   2.946   1.890  0.7173 -0.4867 -0.0737
 8133SOL    MW432306   2.221   3.011   1.853  0.0502 -0.4902 -0.4103
 8134SOL     OW32307   4.516   0.783   0.256 -0.3963  0.2034  0.1490
 8134SOL    HW232308   4.554   0.700   0.229 -2.5399 -1.0566  0.7159
 8134SOL    HW332309   4.469   0.815   0.179 -1.8943 -0.5866  0.6846
 8134SOL    MW432310   4.515   0.777   0.243 -0.3065  0.4908 -0.4224
 8135SOL     OW32311   2.139   2.823   0.103  0.6712 -0.6848 -0.1046
 8135SOL    HW232312   2.083   2.745   0.097 -0.2325 -0.5389  3.8697
 8135SOL    HW332313   2.083   2.890   0.140  2.7848  0.2235  1.6698
 8135SOL    MW432314   2.124   2.821   0.107 -0.3687 -0.4971  0.4232
 8136SOL     OW32315   5.961   6.005   2.985  0.3754 -0.1547  0.2081
 8136SOL    HW232316   5.982   6.096   2.965 -1.3586  0.5995  1.5321
 8136SOL    HW332317   6.041   5.956   2.965  1.3421  1.6460 -0.5181
 8136SOL    MW432318   5.974   6.010   2.980 -0.3182  0.5729 -0.6209
 8137SOL     OW32319   5.735   0.120   4.117 -0.0012  0.0311 -0.3883
 8137SOL    HW232320   5.761   0.208   4.142  0.4909  0.4690 -2.2703
 8137SOL    HW332321   5.645   0.128   4.086 -0.6943 -0.5472  1.3595
 8137SOL    MW432322   5.727   0.132   4.116  0.1819 -0.8244 -0.6032
 8138SOL     OW32323   0.281   2.433   4.659 -0.5415  0.2290 -0.3495
 8138SOL    HW232324   0.347   2.495   4.628 -0.8869  1.4973  1.3142
 8138SOL    HW332325   0.332   2.357   4.689  0.2147  1.2097  0.9734
 8138SOL    MW432326   0.297   2.431   4.659 -0.2962 -0.4770 -0.1014
 8139SOL     OW32327   5.998   2.055   1.520 -0.2438 -0.0343  0.0221
 8139SOL    HW232328   5.986   1.964   1.548  0.4564 -0.6837 -1.6847
 8139SOL    HW332329   5.911   2.085   1.495 -0.2281 -0.7904 -0.9731
 8139SOL    MW432330   5.985   2.047   1.521  0.3480 -0.5424  0.5031
 8140SOL     OW32331   5.299   4.402   2.086 -0.2412  0.3038 -0.2299
 8140SOL    HW232332   5.374   4.417   2.144 -0.1964 -0.0710 -0.1875
 8140SOL    HW332333   5.323   4.443   2.003 -0.9232  2.1944  0.4540
 8140SOL    MW432334   5.312   4.409   2.083 -0.3133 -0.3945 -0.1620
 8141SOL     OW32335   0.667   4.483   5.844 -0.2186 -0.0948  0.1709
 8141SOL    HW232336   0.736   4.419   5.862  0.3543  0.5885  0.4670
 8141SOL    HW332337   0.659   4.483   5.749  0.8261  0.4424  0.0608
 8141SOL    MW432338   0.675   4.474   5.834  0.5845 -0.5403  0.3349
 8142SOL     OW32339   6.435   4.846   1.676  0.6752  0.1613 -0.0321
 8142SOL    HW232340   6.446   4.937   1.649  1.2944 -0.1793 -0.9705
 8142SOL    HW332341   6.436   4.849   1.772  2.9166  0.8889 -0.0370
 8142SOL    MW432342   6.436   4.858   1.685  0.6688 -0.4408  0.5156
 8143SOL     OW32343   5.561   1.642   5.798 -0.2230 -0.4451 -0.1431
 8143SOL    HW232344   5.502   1.599   5.736 -0.8686  3.3121 -2.4635
 8143SOL    HW332345   5.648   1.608   5.776 -0.6601 -0.4608 -1.9639
 8143SOL    MW432346   5.564   1.632   5.787  0.3475  0.2919 -0.0346
 8144SOL     OW32347   0.425   0.990   0.901 -0.0543  0.4065 -0.0714
 8144SOL    HW232348   0.474   1.069   0.925 -0.3761  1.3368 -2.2123
 8144SOL    HW332349   0.491   0.921   0.896  0.3912  0.7512  0.8823
 8144SOL    MW432350   0.440   0.992   0.904  0.6073 -0.2928 -0.0927
 8145SOL     OW32351   4.181   1.086   2.907  0.1385 -0.3523  1.0452
 8145SOL    HW232352   4.195   1.181   2.908 -0.2873 -0.2810  0.6789
 8145SOL    HW332353   4.104   1.073   2.963 -0.4603 -0.3614  0.2378
 8145SOL    MW432354   4.173   1.097   2.915 -0.1647  0.0970 -0.0328
 8146SOL     OW32355   3.296   4.545   0.928  0.1887  0.1976 -0.4246
 8146SOL    HW232356   3.293   4.625   0.875 -0.9731 -0.8498 -2.0395
 8146SOL    HW332357   3.204   4.528   0.950  0.0747 -1.9706 -2.2127
 8146SOL    MW432358   3.283   4.554   0.924 -0.7114 -0.3648  0.1136
 8147SOL     OW32359   5.751   3.568   4.575 -0.0994 -0.0142 -0.1075
 8147SOL    HW232360   5.756   3.533   4.664  1.5945  0.0345 -0.1395
 8147SOL    HW332361   5.663   3.604   4.567 -0.5318 -0.7101  1.2797
 8147SOL    MW432362   5.740   3.568   4.586 -0.7108 -0.2493  0.6470
 8148SOL     OW32363   0.428   6.073   5.049  0.6898 -0.0539  0.1588
 8148SOL    HW232364   0.440   6.103   4.959 -0.8365  1.2359  0.3234
 8148SOL    HW332365   0.356   6.127   5.082  2.0748  0.4522  2.5933
 8148SOL    MW432366   0.420   6.084   5.042  0.0006  1.0564 -0.1070
 8149SOL     OW32367   6.174   4.633   1.028  0.4791  0.2354 -0.8537
 8149SOL    HW232368   6.247   4.627   1.089  0.9787 -0.3086 -1.4915
 8149SOL    HW332369   6.132   4.717   1.049 -1.8619 -1.5926  3.0166
 8149SOL    MW432370   6.178   4.643   1.039  0.4814  0.4823  0.2379
 8150SOL     OW32371   4.831   5.716   4.061  0.7764  1.0298  0.0782
 8150SOL    HW232372   4.766   5.725   3.991 -1.1196 -1.7148  1.2967
 8150SOL    HW332373   4.907   5.676   4.019 -0.2101 -0.2812 -0.5477
 8150SOL    MW432374   4.832   5.712   4.046  0.1555 -0.1782  0.2084
 8151SOL     OW32375   1.106   4.490   3.026  0.4140  0.1305 -0.5037
 8151SOL    HW232376   1.067   4.459   2.944  0.2220  1.4790 -0.9463
 8151SOL    HW332377   1.185   4.437   3.037  0.1170 -0.4800 -1.2378
 8151SOL    MW432378   1.111   4.479   3.017 -0.0043 -0.3318 -0.2272
 8152SOL     OW32379   6.436   0.843   0.689  0.6176 -0.3587 -0.2478
 8152SOL    HW232380   6.363   0.885   0.643  0.4026 -0.6652 -0.1903
 8152SOL    HW332381   6.416   0.750   0.686  0.6159 -0.3862  0.4347
 8152SOL    MW432382   6.424   0.837   0.683 -0.6834 -0.2808  0.0704
 8153SOL     OW32383   3.926   4.818   5.863  0.2891 -0.1864 -0.2102
 8153SOL    HW232384   3.945   4.727   5.838 -0.7548 -0.5456  0.2462
 8153SOL    HW332385   3.998   4.842   5.921 -0.7013 -1.6120  1.7331
 8153SOL    MW432386   3.938   4.809   5.867  0.4320  0.0202  0.0421
 8154SOL     OW32387   5.902   2.877   1.709  0.1670  0.2891  0.0215
 8154SOL    HW232388   5.813   2.894   1.742  0.2773 -0.1030  0.5277
 8154SOL    HW332389   5.935   2.963   1.683 -1.7524  0.0939 -3.7803
 8154SOL    MW432390   5.894   2.891   1.710  0.0869  0.0645  0.4142
 8155SOL     OW32391   3.892   1.393   6.303  0.0382  0.2694 -0.2797
 8155SOL    HW232392   3.918   1.306   6.272 -1.2796  0.3262 -1.6824
 8155SOL    HW332393   3.825   1.375   6.370  0.1052  0.1987 -0.2315
 8155SOL    MW432394   3.886   1.379   6.308  0.3179 -0.3457 -0.3286
 8156SOL     OW32395   1.513   3.580   6.223  0.0919  0.8338  0.2365
 8156SOL    HW232396   1.477   3.559   6.136  1.5049 -0.2863 -0.1021
 8156SOL    HW332397   1.573   3.652   6.207 -0.8584  1.7386  0.5824
 8156SOL    MW432398   1.516   3.587   6.209 -0.1152 -0.0931  0.1058
 8157SOL     OW32399   1.522   6.031   3.745 -0.3281  0.0275 -0.1432
 8157SOL    HW232400   1.540   6.100   3.809 -2.2560  0.3542  0.1009
 8157SOL    HW332401   1.604   6.024   3.695 -0.4847  3.6797 -1.2788
 8157SOL    MW432402   1.535   6.039   3.747  0.1502  0.3235 -0.1958
 8158SOL     OW32403   0.363   0.748   6.254  0.1737  0.0449 -0.7910
 8158SOL    HW232404   0.417   0.779   6.326 -0.5788  0.0433 -0.2081
 8158SOL    HW332405   0.277   0.732   6.294 -0.3449  0.3505 -1.7480
 8158SOL    MW432406   0.359   0.750   6.269 -0.2961  0.5117  0.3393
 8159SOL     OW32407   1.214   3.486   5.781 -0.2119 -0.1070 -0.1797
 8159SOL    HW232408   1.166   3.567   5.763  0.6380  0.1255 -1.6556
 8159SOL    HW332409   1.195   3.430   5.706  0.0906 -0.8439  0.2834
 8159SOL    MW432410   1.205   3.489   5.768  0.1421  0.4628  0.2842
 8160SOL     OW32411   3.876   5.183   1.097  0.1678 -0.1940  0.3701
 8160SOL    HW232412   3.934   5.108   1.111  1.4600  0.5393 -0.8842
 8160SOL    HW332413   3.934   5.255   1.072 -1.1711  0.8843  0.2506
 8160SOL    MW432414   3.891   5.182   1.096 -0.6412  0.2538  0.0538
 8161SOL     OW32415   4.185   6.203   6.039  0.2644  0.0191 -0.4019
 8161SOL    HW232416   4.257   6.144   6.022  0.8464  0.1112  1.4855
 8161SOL    HW332417   4.112   6.169   5.986  1.5114 -0.3483 -1.9617
 8161SOL    MW432418   4.185   6.191   6.030  0.0596  0.0975 -0.0096
 8162SOL     OW32419   0.534   0.519   5.060 -0.2010  0.4284  0.0671
 8162SOL    HW232420   0.601   0.587   5.054 -1.1541  1.3789 -0.1309
 8162SOL    HW332421   0.556   0.458   4.989 -0.2926  1.4215 -0.8484
 8162SOL    MW432422   0.546   0.520   5.050 -0.3592 -0.3322 -0.0912
 8163SOL     OW32423   5.354   3.041   4.906 -0.2034  0.4977 -0.0501
 8163SOL    HW232424   5.355   3.056   5.001 -1.7409 -2.5762  0.5641
 8163SOL    HW332425   5.436   2.996   4.888 -0.9622 -1.1106  0.3259
 8163SOL    MW432426   5.365   3.037   4.916 -0.0626 -0.1089  0.9049
 8164SOL     OW32427   1.887   4.967   3.256  0.6665 -0.1436  0.6002
 8164SOL    HW232428   1.956   4.908   3.225  0.5061 -0.7662  1.3900
 8164SOL    HW332429   1.871   4.940   3.346 -1.5269 -0.8795  0.0524
 8164SOL    MW432430   1.894   4.956   3.264  0.5856 -0.1149 -0.3105
 8165SOL     OW32431   0.240   4.596   0.319  0.0120  0.1561 -0.3488
 8165SOL    HW232432   0.313   4.612   0.259  1.4194  0.8368  1.4279
 8165SOL    HW332433   0.282   4.563   0.398 -1.3557  2.4723  1.4760
 8165SOL    MW432434   0.255   4.594   0.322 -0.1279  0.4356  0.4573
 8166SOL     OW32435   5.108   4.975   3.511  0.1396 -0.2408 -0.4002
 8166SOL    HW232436   5.156   5.036   3.455  1.3929 -0.9299 -0.1179
 8166SOL    HW332437   5.042   4.936   3.454  0.8472 -0.3045 -1.1894
 8166SOL    MW432438   5.106   4.978   3.496  0.3468 -0.4001 -0.2128
 8167SOL     OW32439   1.506   2.572   4.485 -0.2077  0.1434  0.6467
 8167SOL    HW232440   1.537   2.490   4.445  4.2145  2.7411 -1.9982
 8167SOL    HW332441   1.568   2.589   4.556  0.5996  2.3287 -0.4974
 8167SOL    MW432442   1.518   2.563   4.489  0.2407 -0.1960 -0.5749
 8168SOL     OW32443   3.054   2.099   0.293 -0.2321  0.1271 -0.1127
 8168SOL    HW232444   3.065   2.181   0.244 -1.0162 -1.4825 -3.2011
 8168SOL    HW332445   2.968   2.106   0.334 -0.1844  0.9171 -0.1312
 8168SOL    MW432446   3.044   2.111   0.292  0.1721 -0.4363  0.4709
 8169SOL     OW32447   3.039   4.455   2.355 -0.5038  0.2481  0.2722
 8169SOL    HW232448   3.023   4.369   2.395 -0.0571  0.8614  1.8436
 8169SOL    HW332449   2.975   4.512   2.397  0.1521  0.9744  0.2859
 8169SOL    MW432450   3.028   4.451   2.366 -0.8380  0.3163  0.0838
 8170SOL     OW32451   5.637   5.069   1.077 -0.9453  0.4602 -0.5467
 8170SOL    HW232452   5.650   5.119   0.996  0.4552 -2.0336 -1.9808
 8170SOL    HW332453   5.582   4.995   1.051 -1.5833  0.3131  1.1152
 8170SOL    MW432454   5.631   5.066   1.063 -0.0064 -0.6432  0.1808
 8171SOL     OW32455   5.075   3.480   1.485  0.0626  0.7262  0.3385
 8171SOL    HW232456   5.055   3.386   1.482  0.3692  0.6269  1.0455
 8171SOL    HW332457   5.164   3.486   1.450 -0.5880  0.9794 -1.3549
 8171SOL    MW432458   5.084   3.468   1.480  0.6920 -0.2478 -0.2204
 8172SOL     OW32459   2.851   0.854   2.917  1.1548 -0.0593  0.0448
 8172SOL    HW232460   2.770   0.806   2.930  0.8806 -0.3852 -2.3799
 8172SOL    HW332461   2.915   0.809   2.973  0.4888 -2.1741 -0.7858
 8172SOL    MW432462   2.849   0.842   2.926 -0.4308 -0.0072 -0.3997
 8173SOL     OW32463   5.620   2.341   4.472  0.6307  0.3202  0.3946
 8173SOL    HW232464   5.651   2.428   4.498 -0.8774  0.9149  0.2809
 8173SOL    HW332465   5.562   2.357   4.398  1.5835 -0.9587 -0.7013
 8173SOL    MW432466   5.617   2.354   4.465  0.2188 -0.2332 -0.1262
 8174SOL     OW32467   5.470   0.476   1.518 -0.3176  0.1775 -0.2512
 8174SOL    HW232468   5.452   0.521   1.435  1.0120  0.8316 -0.2144
 8174SOL    HW332469   5.384   0.453   1.552 -0.8815 -1.9805 -2.7954
 8174SOL    MW432470   5.457   0.479   1.511 -0.0456  0.3252  0.1935
 8175SOL     OW32471   5.525   2.532   2.036 -0.3990  0.7102  0.0940
 8175SOL    HW232472   5.535   2.440   2.013 -1.4896  0.5537  0.2009
 8175SOL    HW332473   5.438   2.556   2.004 -0.0264  1.7852 -0.1830
 8175SOL    MW432474   5.515   2.523   2.029  0.0978  0.1601  0.1141
 8176SOL     OW32475   2.371   4.287   0.933 -0.1831 -0.1586 -0.2093
 8176SOL    HW232476   2.454   4.243   0.918 -0.9562 -1.3625 -1.0866
 8176SOL    HW332477   2.304   4.228   0.898 -1.5370  0.1894  1.6054
 8176SOL    MW432478   2.373   4.274   0.926  0.2102  0.3039 -0.1828
 8177SOL     OW32479   5.753   5.572   5.346 -0.2131 -0.0811 -0.1041
 8177SOL    HW232480   5.771   5.554   5.254 -1.8882  0.4596 -0.5727
 8177SOL    HW332481   5.837   5.560   5.390  0.1786 -2.5831 -1.3341
 8177SOL    MW432482   5.766   5.568   5.340 -0.1695  0.2964  0.4474
 8178SOL     OW32483   2.376   3.109   4.821  0.7821 -0.5841  0.4893
 8178SOL    HW232484   2.397   3.020   4.793 -0.2246 -0.7808  0.3145
 8178SOL    HW332485   2.321   3.097   4.899 -1.6406 -0.2369 -1.0497
 8178SOL    MW432486   2.371   3.095   4.828 -0.0334  0.0335  0.8501
 8179SOL     OW32487   2.721   5.026   4.096  0.2288 -0.6619  0.2181
 8179SOL    HW232488   2.636   5.057   4.064  0.7373  0.2656 -0.2877
 8179SOL    HW332489   2.701   4.946   4.145 -0.7698 -1.2247 -1.0495
 8179SOL    MW432490   2.707   5.020   4.098  0.7086 -0.1760 -0.2182
 8180SOL     OW32491   2.335   0.603   4.375  0.3987  0.3964 -0.2350
 8180SOL    HW232492   2.286   0.567   4.449  0.0378  0.9404 -0.2032
 8180SOL    HW332493   2.309   0.695   4.371  1.1158  0.5953 -0.4711
 8180SOL    MW432494   2.325   0.611   4.384 -0.0927 -0.5723  0.3142
 8181SOL     OW32495   5.793   6.264   4.287 -0.0599  0.3935 -0.3832
 8181SOL    HW232496   5.850   6.229   4.355 -1.1925  1.7740  1.3706
 8181SOL    HW332497   5.844   6.332   4.245  0.3323  0.1614 -0.2842
 8181SOL    MW432498   5.807   6.268   4.290 -0.5392  0.8639  0.0868
 8182SOL     OW32499   1.352   6.278   5.411  0.4170 -0.1400  0.0442
 8182SOL    HW232500   1.351   6.183   5.394 -0.1275 -0.4762  1.7651
 8182SOL    HW332501   1.415   6.289   5.482 -1.8485  0.3164  2.1054
 8182SOL    MW432502   1.360   6.267   5.418 -0.3738  0.9358  0.1724
 8183SOL     OW32503   6.230   2.222   2.909  0.1147 -0.1144  0.1395
 8183SOL    HW232504   6.176   2.266   2.976 -1.2750  0.3769 -1.2428
 8183SOL    HW332505   6.218   2.129   2.928 -1.4324 -0.0276 -0.2348
 8183SOL    MW432506   6.221   2.215   2.921 -0.2521 -0.3961  0.5101
 8184SOL     OW32507   5.379   0.110   6.355 -0.6220 -0.0360  0.4392
 8184SOL    HW232508   5.436   0.158   6.296  1.9391 -1.0724  1.8671
 8184SOL    HW332509   5.415   0.127   6.442 -2.2883 -1.0790  1.3961
 8184SOL    MW432510   5.391   0.118   6.359  0.5544  0.0238 -0.6629
 8185SOL     OW32511   4.729   2.996   3.680  0.8360  0.3323 -0.3613
 8185SOL    HW232512   4.774   2.938   3.741 -1.0227 -0.3877  0.4099
 8185SOL    HW332513   4.661   3.038   3.733  0.5464  1.3365 -1.4765
 8185SOL    MW432514   4.726   2.994   3.695 -0.0236  0.0071  0.1188
 8186SOL     OW32515   5.690   5.091   2.448  0.3836 -0.0543 -1.1506
 8186SOL    HW232516   5.678   5.142   2.368  0.2348 -0.0903 -1.1512
 8186SOL    HW332517   5.663   5.003   2.425 -0.0160  0.0153 -0.9571
 8186SOL    MW432518   5.685   5.086   2.435 -0.2392  0.1837  0.5044
 8187SOL     OW32519   3.261   5.416   4.385  0.1173 -0.1217 -0.0961
 8187SOL    HW232520   3.350   5.418   4.419  0.0269 -0.8747  0.2186
 8187SOL    HW332521   3.205   5.424   4.462 -0.0859 -0.0766 -0.2451
 8187SOL    MW432522   3.265   5.417   4.399  0.4551 -0.3033  0.1102
 8188SOL     OW32523   0.443   2.696   2.016  0.5914 -0.0233 -0.2844
 8188SOL    HW232524   0.504   2.631   1.983  1.5540  1.1776 -0.9662
 8188SOL    HW332525   0.369   2.693   1.956  2.1162  1.8222 -2.4237
 8188SOL    MW432526   0.441   2.687   2.004  0.1704 -0.3582 -0.6387
 8189SOL     OW32527   2.213   3.220   2.475  0.2863  0.2945  0.4153
 8189SOL    HW232528   2.177   3.309   2.472 -0.6192 -0.0711 -2.1355
 8189SOL    HW332529   2.306   3.231   2.456  0.2194  0.7278  0.3222
 8189SOL    MW432530   2.220   3.233   2.472  0.1001  0.1428  0.2561
 8190SOL     OW32531   5.396   0.795   5.014  0.2146 -0.3068 -0.0073
 8190SOL    HW232532   5.429   0.706   4.999  0.1904  0.0505 -2.6985
 8190SOL    HW332533   5.311   0.796   4.970  0.8495  1.3941 -1.3068
 8190SOL    MW432534   5.389   0.783   5.006 -0.6035  0.4349 -0.0215
 8191SOL     OW32535   2.451   2.844   4.762 -0.2304  0.5998 -0.5778
 8191SOL    HW232536   2.386   2.824   4.696  1.1341 -1.2348 -1.4551
 8191SOL    HW332537   2.432   2.784   4.834 -0.2664  0.9392 -0.2994
 8191SOL    MW432538   2.440   2.833   4.763 -0.4011 -0.5162 -0.0902
 8192SOL     OW32539   5.346   0.430   0.103 -0.1924  0.2493 -0.0644
 8192SOL    HW232540   5.424   0.416   0.050  0.4740 -0.0508  0.9732
 8192SOL    HW332541   5.275   0.390   0.053 -0.0021  1.9076 -1.7988
 8192SOL    MW432542   5.347   0.423   0.089 -0.1111  0.2696  0.1964
 8193SOL     OW32543   4.459   1.430   4.600  0.2151 -0.1406  0.4492
 8193SOL    HW232544   4.493   1.358   4.652 -0.2558 -1.1148 -0.5578
 8193SOL    HW332545   4.366   1.410   4.588 -0.9327  2.5697  3.3321
 8193SOL    MW432546   4.451   1.418   4.605 -0.1300 -0.8029  0.4285
 8194SOL     OW32547   5.516   1.037   3.198  0.1470 -0.0159  0.6621
 8194SOL    HW232548   5.453   0.965   3.191  0.6348 -0.4673  0.8940
 8194SOL    HW332549   5.601   0.996   3.185  0.4966  0.3752  1.6587
 8194SOL    MW432550   5.519   1.022   3.196 -0.1011 -0.0589  0.6938
 8195SOL     OW32551   0.369   4.513   4.038  0.2582 -0.0938  0.0169
 8195SOL    HW232552   0.373   4.529   4.132  1.0416  0.1288 -0.0488
 8195SOL    HW332553   0.277   4.527   4.015 -0.1637 -1.2186  0.9233
 8195SOL    MW432554   0.357   4.517   4.047  0.3590 -0.6551 -0.2093
 8196SOL     OW32555   1.627   5.064   2.539  0.0177  0.2695 -0.5782
 8196SOL    HW232556   1.709   5.106   2.516  1.4170 -2.3467 -0.7267
 8196SOL    HW332557   1.639   5.033   2.629 -1.1685  0.6404 -0.2679
 8196SOL    MW432558   1.639   5.065   2.548  0.0600 -0.9811 -0.4620
 8197SOL     OW32559   0.461   5.519   0.524  0.1202 -0.0323  0.0860
 8197SOL    HW232560   0.407   5.575   0.470  0.9740  1.3682  0.6116
 8197SOL    HW332561   0.415   5.514   0.608 -0.2308 -0.5912 -0.1352
 8197SOL    MW432562   0.448   5.526   0.528 -0.2208  0.1410 -0.9079
 8198SOL     OW32563   5.967   0.150   5.621  0.5081  0.1680 -0.3405
 8198SOL    HW232564   5.915   0.152   5.702 -0.0017 -0.1759 -0.6451
 8198SOL    HW332565   6.026   0.075   5.633  0.2618 -0.0365 -0.3820
 8198SOL    MW432566   5.968   0.140   5.633  0.3072  0.3152 -0.0316
 8199SOL     OW32567   5.082   0.762   3.680  0.1303 -0.0597  0.3989
 8199SOL    HW232568   5.101   0.722   3.765 -1.0447 -0.4449  0.5027
 8199SOL    HW332569   5.090   0.691   3.618 -0.0155 -0.0101  0.3229
 8199SOL    MW432570   5.085   0.748   3.683  0.1541  0.3041 -0.0090
 8200SOL     OW32571   2.012   2.483   0.256 -0.1450 -0.3501  0.2701
 8200SOL    HW232572   1.936   2.425   0.246 -0.9732  0.9180 -1.4053
 8200SOL    HW332573   1.977   2.562   0.298 -0.1678  0.8564 -1.8524
 8200SOL    MW432574   1.997   2.486   0.260 -0.4070 -0.2746  0.5625
 8201SOL     OW32575   4.827   4.906   5.566  0.0216 -0.6055 -0.5482
 8201SOL    HW232576   4.908   4.950   5.541 -0.7840  0.8813 -0.6689
 8201SOL    HW332577   4.855   4.839   5.628  1.3004  0.1703 -0.2303
 8201SOL    MW432578   4.842   4.903   5.571  0.0421  0.1780 -0.7601
 8202SOL     OW32579   3.047   3.333   5.437  0.1689  0.9354 -0.4123
 8202SOL    HW232580   3.003   3.319   5.353  0.5349 -0.3107 -0.4222
 8202SOL    HW332581   3.132   3.289   5.427  0.5593  1.5062  0.3229
 8202SOL    MW432582   3.053   3.325   5.424 -0.5296 -0.3275  1.1759
 8203SOL     OW32583   0.247   2.470   0.536 -0.6462 -0.3028  0.0666
 8203SOL    HW232584   0.288   2.465   0.623  1.8916 -1.7367 -1.0917
 8203SOL    HW332585   0.250   2.563   0.513 -2.7136  0.3358  2.0365
 8203SOL    MW432586   0.253   2.482   0.545 -0.4601  0.0522  0.4581
 8204SOL     OW32587   2.497   3.710   3.435 -0.1370  0.5124  0.8764
 8204SOL    HW232588   2.480   3.791   3.388 -0.2099  1.2138  2.0602
 8204SOL    HW332589   2.591   3.694   3.423  0.5108  2.3265  2.9150
 8204SOL    MW432590   2.507   3.718   3.427  0.0776  0.3146  0.3776
 8205SOL     OW32591   3.066   4.209   6.293 -0.1937 -0.0867 -0.3459
 8205SOL    HW232592   3.087   4.279   6.232  0.0240  0.8113  0.7159
 8205SOL    HW332593   2.989   4.167   6.257  0.3899 -0.0861 -1.6330
 8205SOL    MW432594   3.059   4.213   6.280  0.4502  0.2137  0.5535
 8206SOL     OW32595   5.613   3.151   0.381 -0.2959  0.7080  0.0470
 8206SOL    HW232596   5.579   3.085   0.441  0.2631 -1.3284 -1.7739
 8206SOL    HW332597   5.544   3.162   0.316 -0.4309  2.0547  0.3886
 8206SOL    MW432598   5.599   3.144   0.380 -0.7136 -0.7096 -0.2217
 8207SOL     OW32599   1.605   4.262   5.585  0.2785  0.4946 -0.1724
 8207SOL    HW232600   1.561   4.313   5.517  0.0573 -0.4051 -0.7281
 8207SOL    HW332601   1.676   4.217   5.539 -0.2172 -0.5645  0.0509
 8207SOL    MW432602   1.608   4.263   5.570  0.8060  0.1687 -0.7116
 8208SOL     OW32603   6.003   2.799   4.698  0.2342  0.6237 -0.3225
 8208SOL    HW232604   6.066   2.735   4.731  0.9774  0.6404 -1.6206
 8208SOL    HW332605   5.917   2.764   4.722  0.7049  0.1854  0.7674
 8208SOL    MW432606   6.000   2.786   4.706 -0.0616  0.3184 -0.0181
 8209SOL     OW32607   1.867   0.767   3.012 -0.1271 -0.1147  0.2450
 8209SOL    HW232608   1.829   0.795   2.929 -0.4685  0.3272  0.5468
 8209SOL    HW332609   1.927   0.696   2.988  0.2088  0.3926 -0.4423
 8209SOL    MW432610   1.870   0.761   2.998  0.2322  0.3806  0.1166
 8210SOL     OW32611   1.887   2.719   0.853 -0.2936 -0.2504  0.2661
 8210SOL    HW232612   1.979   2.726   0.878 -0.0227  1.2234 -0.9421
 8210SOL    HW332613   1.839   2.713   0.936  0.8650 -0.8316  0.9108
 8210SOL    MW432614   1.892   2.719   0.867  0.1393  0.2881 -0.1212
 8211SOL     OW32615   5.818   5.150   1.700 -0.1641 -0.4170  0.0142
 8211SOL    HW232616   5.773   5.146   1.615 -0.0681 -0.6626 -0.0255
 8211SOL    HW332617   5.848   5.061   1.715  0.2905 -0.2578  0.0531
 8211SOL    MW432618   5.816   5.138   1.691  0.3428 -0.0021  0.2051
 8212SOL     OW32619   4.696   0.288   6.189  0.2365 -0.3495 -0.0263
 8212SOL    HW232620   4.608   0.326   6.184  0.7100  0.9257  0.7665
 8212SOL    HW332621   4.700   0.252   6.278  0.7714  0.2999  0.2203
 8212SOL    MW432622   4.685   0.288   6.200 -0.2697  0.7994  0.5617
 8213SOL     OW32623   4.198   3.523   5.947 -0.1713  0.6655 -0.1590
 8213SOL    HW232624   4.121   3.576   5.965 -2.5020 -2.2930 -0.6093
 8213SOL    HW332625   4.207   3.525   5.852  0.1451  0.7682 -0.1286
 8213SOL    MW432626   4.189   3.530   5.937  0.1983  0.3036  1.0382
 8214SOL     OW32627   0.397   4.348   3.740 -0.2763  0.4438 -0.1259
 8214SOL    HW232628   0.305   4.322   3.737 -0.4382  0.9731  0.0905
 8214SOL    HW332629   0.405   4.415   3.673  0.4490 -1.0881 -1.6390
 8214SOL    MW432630   0.386   4.353   3.731  0.3483 -0.3921  0.1185
 8215SOL     OW32631   0.527   0.683   3.454  0.0340 -0.0757 -0.3794
 8215SOL    HW232632   0.451   0.626   3.471 -0.9488  1.1496 -0.5254
 8215SOL    HW332633   0.498   0.770   3.483  2.1833  0.0442  1.7100
 8215SOL    MW432634   0.513   0.687   3.460 -0.2641  0.6873 -0.0199
 8216SOL     OW32635   2.772   6.350   1.511 -0.0627  0.3228  0.5898
 8216SOL    HW232636   2.693   6.367   1.458  0.3679  0.2761 -0.0806
 8216SOL    HW332637   2.745   6.369   1.600 -0.9678 -0.1162  0.4238
 8216SOL    MW432638   2.758   6.355   1.516 -0.5940 -0.3636  0.6330
 8217SOL     OW32639   0.837   4.786   0.383 -0.7604  0.2718  0.3515
 8217SOL    HW232640   0.762   4.801   0.441 -1.6057 -2.3523  0.0838
 8217SOL    HW332641   0.900   4.738   0.437 -0.5802 -0.1956 -0.2567
 8217SOL    MW432642   0.836   4.782   0.398 -0.0539  0.1521 -0.4528
 8218SOL     OW32643   2.334   4.129   0.540 -0.1053  0.3074 -0.4209
 8218SOL    HW232644   2.406   4.184   0.572 -0.8959  1.2006 -0.1073
 8218SOL    HW332645   2.377   4.056   0.495  1.0612 -0.8528  2.3904
 8218SOL    MW432646   2.350   4.127   0.538 -0.1445 -0.4902 -0.5001
 8219SOL     OW32647   3.487   5.322   5.649 -0.1965  0.1464  0.3059
 8219SOL    HW232648   3.494   5.314   5.553 -1.8465  1.4114  0.0277
 8219SOL    HW332649   3.438   5.403   5.662  2.0967  1.3157  2.3395
 8219SOL    MW432650   3.481   5.332   5.638 -0.0614  0.2890 -0.0034
 8220SOL     OW32651   5.002   4.871   5.141  0.4892  0.2121 -0.2257
 8220SOL    HW232652   4.950   4.848   5.218  0.9788 -0.7590 -0.1680
 8220SOL    HW332653   5.064   4.936   5.173 -0.1237  0.7465 -0.0996
 8220SOL    MW432654   5.004   4.876   5.155 -0.1775  0.2558 -0.1423
 8221SOL     OW32655   0.141   1.698   1.669  0.2018  0.3257 -0.3258
 8221SOL    HW232656   0.133   1.718   1.576  0.9181 -1.4635 -0.8007
 8221SOL    HW332657   0.119   1.606   1.677 -1.6319  0.8307  1.5861
 8221SOL    MW432658   0.137   1.689   1.658 -0.3987  0.3392 -0.2034
 8222SOL     OW32659   3.607   0.548   3.839 -0.2185  0.2845 -0.0999
 8222SOL    HW232660   3.640   0.471   3.792  0.7938  0.8714 -0.3711
 8222SOL    HW332661   3.612   0.523   3.931 -0.7894 -0.3145 -0.2188
 8222SOL    MW432662   3.612   0.535   3.845 -0.1041 -0.3765 -0.7137
 8223SOL     OW32663   2.131   3.605   5.620 -0.2259 -0.1998  0.1871
 8223SOL    HW232664   2.136   3.521   5.666  1.6306  0.7212  1.8042
 8223SOL    HW332665   2.138   3.671   5.689 -0.9710  1.3139 -1.1052
 8223SOL    MW432666   2.132   3.603   5.635  0.2496 -0.1128  0.5483
 8224SOL     OW32667   0.854   3.698   0.624 -0.1755  0.2874 -0.0076
 8224SOL    HW232668   0.857   3.743   0.708  2.1501 -0.5632  0.4157
 8224SOL    HW332669   0.876   3.766   0.560 -0.4017  0.5795  0.2202
 8224SOL    MW432670   0.857   3.713   0.627 -0.9267 -0.2747 -0.9866
 8225SOL     OW32671   5.304   2.397   6.414 -0.4440 -0.2136 -0.2102
 8225SOL    HW232672   5.338   2.485   6.401  0.6347 -0.7484 -1.2259
 8225SOL    HW332673   5.209   2.406   6.409 -0.2992  0.6737 -1.7245
 8225SOL    MW432674   5.296   2.409   6.412 -0.1759 -0.2909  0.3903
 8226SOL     OW32675   3.903   6.087   1.758 -0.5658 -0.5422 -0.6944
 8226SOL    HW232676   3.969   6.142   1.801 -0.7286  0.1039 -1.2581
 8226SOL    HW332677   3.934   5.997   1.772 -1.0192 -0.4073  1.4225
 8226SOL    MW432678   3.916   6.082   1.765 -0.6335 -0.0786 -0.7460
 8227SOL     OW32679   0.665   2.493   4.648 -0.3524 -0.8264 -0.2120
 8227SOL    HW232680   0.642   2.522   4.560 -1.6797  0.3578  0.4878
 8227SOL    HW332681   0.741   2.436   4.636 -1.5950 -2.1394 -2.2918
 8227SOL    MW432682   0.672   2.490   4.635  0.0508 -0.9405 -0.0596
 8228SOL     OW32683   1.160   5.574   5.434 -0.1228  0.0942  0.7559
 8228SOL    HW232684   1.064   5.564   5.432 -0.1554  0.5076  0.1500
 8228SOL    HW332685   1.181   5.622   5.354  0.5711  0.2290  1.0132
 8228SOL    MW432686   1.150   5.579   5.423 -0.1544 -0.1000 -0.2390
 8229SOL     OW32687   3.714   6.402   4.942 -0.1616 -0.1654  0.4646
 8229SOL    HW232688   3.771   6.442   4.875 -1.4630 -0.2259 -0.7142
 8229SOL    HW332689   3.769   6.399   5.020  0.5470  2.4409  0.1744
 8229SOL    MW432690   3.729   6.407   4.943 -0.2603  0.3588  0.4522
 8230SOL     OW32691   2.473   3.478   3.777 -0.2516 -0.3328 -0.2127
 8230SOL    HW232692   2.469   3.405   3.838  0.5456  1.3124  1.9477
 8230SOL    HW332693   2.536   3.450   3.710 -0.2887 -1.7432  0.3107
 8230SOL    MW432694   2.481   3.465   3.776 -0.0719 -0.3545 -0.3676
 8231SOL     OW32695   5.480   3.633   2.743 -1.0651 -0.1609  0.0929
 8231SOL    HW232696   5.543   3.563   2.725  0.1989  0.8565  0.4732
 8231SOL    HW332697   5.461   3.625   2.836 -3.1556 -1.7677 -0.3914
 8231SOL    MW432698   5.486   3.622   2.753  0.2925 -0.3176 -0.6662
 8232SOL     OW32699   1.138   6.220   1.235 -0.4589  0.4512 -0.5266
 8232SOL    HW232700   1.154   6.314   1.223 -1.6753  0.5078 -1.9493
 8232SOL    HW332701   1.044   6.210   1.221 -0.3750 -0.9719 -0.1884
 8232SOL    MW432702   1.127   6.231   1.232 -0.4162 -0.0447  0.1299
 8233SOL     OW32703   0.922  -0.005   0.845 -0.0085  0.3035 -0.1865
 8233SOL    HW232704   0.969  -0.004   0.928 -0.9505  1.2213  0.3450
 8233SOL    HW332705   0.850  -0.066   0.859 -1.6703  2.3351  0.5517
 8233SOL    MW432706   0.919  -0.013   0.857 -0.0904  0.0618  0.5477
 8234SOL     OW32707   1.403   6.324   0.863 -0.0851  0.5394 -0.5906
 8234SOL    HW232708   1.449   6.319   0.780  0.5821 -0.9996 -0.1592
 8234SOL    HW332709   1.465   6.365   0.923  1.5069 -2.9255  0.3961
 8234SOL    MW432710   1.417   6.329   0.860  0.2770  0.5064  0.0654
 8235SOL     OW32711   5.272   5.723   0.685  0.0023 -0.1443  0.2677
 8235SOL    HW232712   5.230   5.705   0.601  1.9277  0.7779 -0.9794
 8235SOL    HW332713   5.222   5.795   0.722 -0.0570  0.3543 -0.7449
 8235SOL    MW432714   5.260   5.730   0.679  0.1167  0.5773 -0.5167
 8236SOL     OW32715   5.515   2.389   5.176 -0.2992 -0.0544  0.0648
 8236SOL    HW232716   5.498   2.297   5.197  1.2376 -0.5749 -0.8417
 8236SOL    HW332717   5.454   2.438   5.232 -0.4392 -1.5781  1.3137
 8236SOL    MW432718   5.505   2.383   5.186 -0.2062 -0.0118  0.6532
 8237SOL     OW32719   0.171   2.237   4.983  0.4638 -0.0607  0.0564
 8237SOL    HW232720   0.086   2.238   4.939  1.7248 -2.5372 -2.7245
 8237SOL    HW332721   0.151   2.208   5.073 -1.7113  0.5412 -0.1869
 8237SOL    MW432722   0.157   2.233   4.989 -0.7055  0.4597  0.1425
 8238SOL     OW32723   5.278   6.319   2.870  0.7290  0.2893 -0.2259
 8238SOL    HW232724   5.265   6.239   2.820 -0.0213  1.3702 -1.8817
 8238SOL    HW332725   5.351   6.363   2.826  2.5680 -0.4127  1.9671
 8238SOL    MW432726   5.286   6.315   2.857 -0.5610  0.2799  0.3173
 8239SOL     OW32727   0.367   5.553   3.171 -0.6812 -0.0795 -0.6653
 8239SOL    HW232728   0.275   5.565   3.145 -0.0731  1.6277 -2.1941
 8239SOL    HW332729   0.415   5.548   3.089  0.3994 -3.7024  0.0018
 8239SOL    MW432730   0.361   5.554   3.157  0.1554 -0.2443  0.0700
 8240SOL     OW32731   1.962   4.126   3.240 -0.3520  0.2508 -0.3719
 8240SOL    HW232732   1.913   4.052   3.202 -0.3675 -0.4080  0.8872
 8240SOL    HW332733   1.919   4.141   3.324  1.0310  0.2701  0.3439
 8240SOL    MW432734   1.950   4.118   3.246  0.0582  0.4352  0.3871
 8241SOL     OW32735   5.672   1.764   3.491  0.1751 -0.4512  0.1412
 8241SOL    HW232736   5.746   1.703   3.488  0.7316  0.2453 -1.6982
 8241SOL    HW332737   5.689   1.826   3.420 -0.3743  1.8596  1.8905
 8241SOL    MW432738   5.684   1.764   3.481  0.5802  0.0235 -0.3719
 8242SOL     OW32739   2.718   4.394   1.722 -0.7357  0.3759 -0.2407
 8242SOL    HW232740   2.728   4.364   1.632  0.3526 -0.0599  0.0047
 8242SOL    HW332741   2.753   4.483   1.722 -1.6674  0.7408 -0.4578
 8242SOL    MW432742   2.724   4.402   1.710 -0.3481  0.6787  0.0081
 8243SOL     OW32743   2.479   0.437   2.986  0.2577 -0.4122 -0.0700
 8243SOL    HW232744   2.571   0.455   2.965  0.7110 -0.9107  1.3616
 8243SOL    HW332745   2.431   0.462   2.907  1.3644  2.0920 -0.0444
 8243SOL    MW432746   2.485   0.442   2.973  0.0010  0.5208 -0.2768
 8244SOL     OW32747   0.663   2.078   4.646 -0.9183  0.1015  0.3994
 8244SOL    HW232748   0.689   2.086   4.554  3.5144  0.9662  1.4756
 8244SOL    HW332749   0.685   1.988   4.668 -0.6162  0.2949  0.9036
 8244SOL    MW432750   0.670   2.067   4.636 -0.2987  0.5818 -0.0266
 8245SOL     OW32751   1.659   0.279   3.376 -0.0845 -0.5930  0.3714
 8245SOL    HW232752   1.738   0.313   3.417  0.1423  0.4727 -0.8703
 8245SOL    HW332753   1.602   0.253   3.449  0.1127  1.6132  1.3651
 8245SOL    MW432754   1.662   0.280   3.391 -0.1950 -0.3577  1.4204
 8246SOL     OW32755   0.752   0.474   4.550 -0.3561  0.2347 -0.3286
 8246SOL    HW232756   0.703   0.391   4.554  1.1259 -0.8895 -2.7280
 8246SOL    HW332757   0.699   0.530   4.493 -1.2128  0.8755  1.0572
 8246SOL    MW432758   0.738   0.470   4.543  0.2340  0.3180 -0.2410
 8247SOL     OW32759   3.063   5.517   2.030  0.4325 -0.0279 -0.0487
 8247SOL    HW232760   3.069   5.423   2.041 -1.8430 -0.3792 -1.1628
 8247SOL    HW332761   2.977   5.540   2.066  0.6488  1.5102 -0.4303
 8247SOL    MW432762   3.052   5.508   2.037 -0.0230  0.4337 -0.0320
 8248SOL     OW32763   4.887   1.536   2.161  0.4836 -0.1053  0.2112
 8248SOL    HW232764   4.867   1.564   2.072  0.7828  0.2925  0.2651
 8248SOL    HW332765   4.925   1.613   2.203 -1.7726  0.4509  1.4114
 8248SOL    MW432766   4.889   1.550   2.155  0.4468  0.1764 -0.5472
 8249SOL     OW32767   4.475   5.026   0.353  0.0537 -0.0122 -0.3326
 8249SOL    HW232768   4.501   4.988   0.270  2.5028  1.6272 -0.4124
 8249SOL    HW332769   4.550   5.079   0.380 -0.6522 -0.4658  2.9344
 8249SOL    MW432770   4.488   5.028   0.346  0.4352  0.1968  0.1851
 8250SOL     OW32771   5.985   4.067   0.352 -0.1673  0.3731  0.6610
 8250SOL    HW232772   5.916   4.008   0.321  0.5132  0.1447 -0.4859
 8250SOL    HW332773   6.001   4.041   0.443 -0.1146 -1.0047  0.2768
 8250SOL    MW432774   5.978   4.056   0.360  0.1986 -0.3689  0.1849
 8251SOL     OW32775   4.912   4.559   5.309 -0.1252 -0.2362  0.3441
 8251SOL    HW232776   4.879   4.649   5.309  1.9768  0.5879 -0.4189
 8251SOL    HW332777   4.946   4.546   5.397 -0.2339 -0.2059  0.3907
 8251SOL    MW432778   4.912   4.569   5.320 -0.0566  0.1320 -0.8437
 8252SOL     OW32779   2.129   4.137   0.154  0.1978 -0.2559  0.5095
 8252SOL    HW232780   2.151   4.204   0.218  0.5941 -1.1096  1.2918
 8252SOL    HW332781   2.033   4.139   0.148  0.2536  1.2756 -0.4915
 8252SOL    MW432782   2.119   4.146   0.162  0.2819 -0.0763  0.2587
 8253SOL     OW32783   3.051   3.548   4.179 -0.5153  0.8743  0.7198
 8253SOL    HW232784   3.139   3.520   4.154 -0.8010  1.3828 -1.0455
 8253SOL    HW332785   3.055   3.644   4.174 -1.4401  0.8821 -0.5701
 8253SOL    MW432786   3.063   3.557   4.175 -0.0725 -0.2998  0.3471
 8254SOL     OW32787   3.834   0.308   4.121 -0.1361  0.1020 -0.4414
 8254SOL    HW232788   3.762   0.372   4.113 -0.3153  0.3420  2.1415
 8254SOL    HW332789   3.807   0.235   4.065 -1.8131  0.7245 -0.5245
 8254SOL    MW432790   3.821   0.307   4.113  0.1366 -0.0853 -0.1903
 8255SOL     OW32791   3.990   0.120   3.547  0.2071 -0.1691  0.1747
 8255SOL    HW232792   3.992   0.187   3.615 -0.5885 -0.6051  0.6410
 8255SOL    HW332793   4.039   0.159   3.474 -0.2094  0.9033  0.4473
 8255SOL    MW432794   3.997   0.134   3.546 -0.3252  0.1476  0.4471
 8256SOL     OW32795   2.506   1.209   0.080  0.3478  0.0874  0.8842
 8256SOL    HW232796   2.476   1.147   0.013 -0.9019  0.6712  0.8804
 8256SOL    HW332797   2.550   1.278   0.030 -0.0346  0.2114  0.7201
 8256SOL    MW432798   2.508   1.210   0.064  0.3060 -0.1534  0.2591
 8257SOL     OW32799   1.747   2.911   1.993 -0.0852 -0.0598  0.4175
 8257SOL    HW232800   1.668   2.857   1.990 -0.1430  0.0545 -1.6699
 8257SOL    HW332801   1.723   2.985   2.049 -0.9840 -0.7161  0.9256
 8257SOL    MW432802   1.733   2.914   2.000 -0.5335 -0.4976 -0.0770
 8258SOL     OW32803   5.386   0.876   5.342 -0.1324  0.0250  0.2523
 8258SOL    HW232804   5.335   0.942   5.294 -2.9673 -0.5585  2.1562
 8258SOL    HW332805   5.361   0.793   5.301  2.0589 -0.0739 -0.9979
 8258SOL    MW432806   5.376   0.873   5.330 -0.6897 -0.4393  0.4651
 8259SOL     OW32807   2.465   5.749   3.833  0.3779  0.8095 -0.2265
 8259SOL    HW232808   2.407   5.707   3.769  0.5690  0.4766 -0.1831
 8259SOL    HW332809   2.514   5.677   3.873 -0.1372  0.9551  0.6992
 8259SOL    MW432810   2.464   5.734   3.830  0.8623  0.6341  0.6706
 8260SOL     OW32811   0.672   1.948   2.004 -0.1603  0.0056 -0.1892
 8260SOL    HW232812   0.695   1.855   2.003  0.0753  0.0637 -0.2248
 8260SOL    HW332813   0.749   1.992   1.969 -0.8746  0.0936 -1.7065
 8260SOL    MW432814   0.686   1.941   1.999 -0.2460  0.0229  0.2028
 8261SOL     OW32815   4.782   4.699   0.318  0.0029  0.3789  0.5964
 8261SOL    HW232816   4.874   4.694   0.294 -0.0982 -1.0117  0.4175
 8261SOL    HW332817   4.750   4.780   0.277  0.3631 -0.7686 -2.1509
 8261SOL    MW432818   4.790   4.709   0.310  0.4674 -0.1660  0.1409
 8262SOL     OW32819   3.496   5.401   5.373  0.0542 -0.1150 -0.1097
 8262SOL    HW232820   3.489   5.497   5.378 -0.1265  0.1077 -2.8460
 8262SOL    HW332821   3.406   5.372   5.358  0.0201 -0.8038  1.3170
 8262SOL    MW432822   3.483   5.410   5.372 -0.2180 -0.0228  0.0478
 8263SOL     OW32823   1.724   3.683   4.393 -0.1952  0.3452  0.0184
 8263SOL    HW232824   1.788   3.707   4.460 -0.3227  1.8065 -0.3381
 8263SOL    HW332825   1.649   3.648   4.441 -0.0524  0.8291  0.5977
 8263SOL    MW432826   1.723   3.682   4.408 -0.4248 -0.0726 -1.0293
 8264SOL     OW32827   3.239   1.289   1.596 -0.1124 -0.6356  0.2990
 8264SOL    HW232828   3.247   1.326   1.508  0.7082  2.0714  1.4143
 8264SOL    HW332829   3.327   1.296   1.634 -0.3269 -2.2490  1.1773
 8264SOL    MW432830   3.251   1.295   1.590  0.3565  0.3850  0.0365
 8265SOL     OW32831   4.894   5.858   0.855  0.3182 -0.1444 -0.1624
 8265SOL    HW232832   4.858   5.942   0.829  0.7734  0.6981  1.7572
 8265SOL    HW332833   4.989   5.866   0.843  0.3979 -0.2484  0.3621
 8265SOL    MW432834   4.902   5.870   0.850  0.3852  0.8422  0.0609
 8266SOL     OW32835   5.970   1.214   0.453 -0.0963  0.3647  0.3852
 8266SOL    HW232836   6.055   1.230   0.494 -1.3374 -1.4007  4.0233
 8266SOL    HW332837   5.908   1.266   0.503 -1.3057  1.6066 -2.1903
 8266SOL    MW432838   5.973   1.223   0.465  0.4774 -0.3092 -0.0629
 8267SOL     OW32839   6.041   5.545   1.785 -0.5510 -0.0204 -0.3828
 8267SOL    HW232840   6.068   5.611   1.848  1.3605 -0.6775 -0.4488
 8267SOL    HW332841   6.099   5.471   1.801  0.0727 -0.1970 -2.9415
 8267SOL    MW432842   6.052   5.544   1.795 -0.6397  0.0933  0.2204
 8268SOL     OW32843   3.560   1.388   3.818 -0.2851 -0.5224  0.4812
 8268SOL    HW232844   3.517   1.368   3.735 -2.5218 -2.6061  2.0047
 8268SOL    HW332845   3.515   1.467   3.850  0.0185 -0.1970  0.1213
 8268SOL    MW432846   3.549   1.396   3.812 -0.3998 -0.3254  0.4970
 8269SOL     OW32847   6.130   2.652   2.106 -0.2156 -0.1432 -0.0467
 8269SOL    HW232848   6.047   2.604   2.107 -0.6431  0.4405 -1.9735
 8269SOL    HW332849   6.106   2.742   2.126 -0.6975  0.7239 -3.7010
 8269SOL    MW432850   6.116   2.657   2.109  0.2806 -0.5086 -0.2453
 8270SOL     OW32851   1.035   1.873   4.214 -0.0962 -0.0094 -0.4290
 8270SOL    HW232852   1.083   1.829   4.284  0.0160  0.9926  0.1370
 8270SOL    HW332853   0.944   1.846   4.227 -0.0923  0.2411  0.1688
 8270SOL    MW432854   1.029   1.863   4.225  0.8429  0.9277  0.2711
 8271SOL     OW32855   2.766   4.524   2.416  0.3237 -0.5758  0.0220
 8271SOL    HW232856   2.690   4.582   2.423  1.1117  0.5757 -0.5508
 8271SOL    HW332857   2.762   4.469   2.494 -1.2358 -0.7106 -0.1350
 8271SOL    MW432858   2.756   4.525   2.427  0.4745  0.1655 -0.6143
 8272SOL     OW32859   4.925   1.675   1.317 -0.2043  0.0138  0.0847
 8272SOL    HW232860   4.953   1.729   1.390 -0.6176 -0.3681  0.5339
 8272SOL    HW332861   4.964   1.589   1.334  0.5654  0.1992 -0.6942
 8272SOL    MW432862   4.934   1.671   1.329 -0.1938  0.5107 -0.0059
 8273SOL     OW32863   1.303   2.531   3.210 -0.1719  0.3506 -0.7956
 8273SOL    HW232864   1.253   2.600   3.255 -0.9971 -1.0962  0.6525
 8273SOL    HW332865   1.246   2.454   3.215  1.5738 -0.9838 -0.4389
 8273SOL    MW432866   1.288   2.530   3.217  0.0942 -0.2458  0.0497
 8274SOL     OW32867   0.929   1.770   0.852  0.3042  0.0706 -1.1850
 8274SOL    HW232868   0.869   1.844   0.850  1.5090  1.0864 -3.3457
 8274SOL    HW332869   1.012   1.807   0.883 -0.0281 -1.2782  1.6232
 8274SOL    MW432870   0.932   1.784   0.856  0.3666  0.1100  0.1890
 8275SOL     OW32871   4.649   0.370   0.395  0.6934  0.4991 -0.0695
 8275SOL    HW232872   4.719   0.319   0.355  1.1115  1.3976 -0.5166
 8275SOL    HW332873   4.570   0.345   0.346  0.7800 -0.1652  0.1233
 8275SOL    MW432874   4.648   0.360   0.383 -0.1395  0.0314  0.9621
 8276SOL     OW32875   4.137   6.109   2.452 -0.0211  0.3574 -0.2176
 8276SOL    HW232876   4.121   6.025   2.496 -0.1740 -0.1291 -1.1777
 8276SOL    HW332877   4.108   6.095   2.362  2.8526  0.4441 -1.2592
 8276SOL    MW432878   4.131   6.096   2.446 -0.5338  0.6766 -0.0767
 8277SOL     OW32879   0.191   5.327   2.401 -0.4945 -0.1033 -0.0768
 8277SOL    HW232880   0.135   5.250   2.402  0.0302 -0.5054  1.3015
 8277SOL    HW332881   0.257   5.309   2.334 -1.1036 -0.2906 -0.6337
 8277SOL    MW432882   0.193   5.314   2.393  0.2869 -0.8551  0.4143
 8278SOL     OW32883   3.887   2.804   4.910  0.4219  0.2516  0.2066
 8278SOL    HW232884   3.930   2.881   4.873  1.8956 -1.0712 -0.9443
 8278SOL    HW332885   3.819   2.781   4.846  0.1034  0.4731  0.4608
 8278SOL    MW432886   3.883   2.811   4.897 -0.3031 -0.2462  0.0379
 8279SOL     OW32887   0.941   2.581   1.546  0.0502 -0.4803  0.5225
 8279SOL    HW232888   0.974   2.581   1.636  0.4971  0.6110  0.3688
 8279SOL    HW332889   0.894   2.664   1.538  0.9280 -0.0768 -0.5802
 8279SOL    MW432890   0.939   2.592   1.557 -0.1511  0.0904  0.0530
 8280SOL     OW32891   4.429   5.728   3.999 -0.1360  0.2782 -0.6349
 8280SOL    HW232892   4.513   5.703   3.960  0.1339 -1.0028  0.6920
 8280SOL    HW332893   4.374   5.753   3.924  0.7177 -1.0055 -1.7378
 8280SOL    MW432894   4.433   5.728   3.984  0.4971  0.6112  0.3811
 8281SOL     OW32895   4.858   3.550   1.023 -0.0162 -0.0761  0.4411
 8281SOL    HW232896   4.933   3.542   1.081 -0.3469 -0.5244  0.8224
 8281SOL    HW332897   4.782   3.540   1.081 -0.3753  0.6156  0.1001
 8281SOL    MW432898   4.858   3.547   1.038  0.6891  0.4706 -0.2230
 8282SOL     OW32899   0.912   1.394   3.747 -0.0841 -0.2000 -0.0816
 8282SOL    HW232900   0.820   1.392   3.773 -0.4312  1.0843 -1.1211
 8282SOL    HW332901   0.909   1.395   3.651  1.0327 -0.3692 -0.1283
 8282SOL    MW432902   0.899   1.394   3.737 -0.0293 -0.6525 -1.0050
 8283SOL     OW32903   4.036   0.186   5.448  0.0499 -0.2624  0.0479
 8283SOL    HW232904   4.017   0.099   5.482  0.5482 -0.2168  0.4592
 8283SOL    HW332905   4.093   0.226   5.514  0.4978  0.0670 -0.5234
 8283SOL    MW432906   4.041   0.179   5.461 -0.5410  0.2867 -0.3748
 8284SOL     OW32907   1.258   3.845   2.035 -0.0324 -0.2093  0.0925
 8284SOL    HW232908   1.293   3.785   1.969 -1.0468 -1.8884  1.0029
 8284SOL    HW332909   1.327   3.849   2.102 -0.0504 -0.5206  0.1299
 8284SOL    MW432910   1.272   3.838   2.035  0.0020  0.4228 -0.1790
 8285SOL     OW32911   1.141   6.407   5.036 -0.0542 -0.4192  0.2917
 8285SOL    HW232912   1.054   6.382   5.066 -0.2111 -0.0606  0.1332
 8285SOL    HW332913   1.186   6.438   5.115 -0.2971  0.0451  0.2447
 8285SOL    MW432914   1.136   6.407   5.051 -0.7952 -0.4890  0.3943
 8286SOL     OW32915   1.975   3.812   3.691 -0.1311  0.2379 -0.0183
 8286SOL    HW232916   1.971   3.810   3.595 -3.2304  0.2777 -0.0171
 8286SOL    HW332917   2.016   3.896   3.712 -1.2144  1.1479 -1.3686
 8286SOL    MW432918   1.980   3.823   3.681 -0.3313  0.4477  0.4646
 8287SOL     OW32919   2.139   2.705   0.999  0.1887  0.0534 -0.2787
 8287SOL    HW232920   2.146   2.618   0.959 -0.9789  1.0951 -2.9704
 8287SOL    HW332921   2.230   2.730   1.018  0.5549 -1.6345  0.3783
 8287SOL    MW432922   2.152   2.696   0.996  0.4063 -0.5681  0.3683
 8288SOL     OW32923   1.834   4.373   1.385 -0.0338 -0.2362  0.3210
 8288SOL    HW232924   1.910   4.417   1.348 -0.1071 -1.7722 -1.7837
 8288SOL    HW332925   1.770   4.371   1.314 -2.0984  0.9694  2.0065
 8288SOL    MW432926   1.835   4.379   1.371 -0.0764 -0.4301 -0.1903
 8289SOL     OW32927   2.603   4.891   4.729 -0.1364 -0.2878  0.1686
 8289SOL    HW232928   2.514   4.868   4.703  0.3012 -1.3626 -0.4456
 8289SOL    HW332929   2.659   4.831   4.679  0.9217  0.2483  0.6776
 8289SOL    MW432930   2.598   4.880   4.719 -0.4263  0.1822 -0.3527
 8290SOL     OW32931   3.239   5.125   1.171 -0.1420 -0.1418  0.0664
 8290SOL    HW232932   3.176   5.055   1.154 -0.0199 -0.3664  0.5168
 8290SOL    HW332933   3.301   5.119   1.098 -0.2987 -0.3107 -0.0555
 8290SOL    MW432934   3.239   5.115   1.159 -0.1435 -0.7080 -0.3557
 8291SOL     OW32935   0.676   6.358   5.447 -0.6043  0.5849  0.8104
 8291SOL    HW232936   0.603   6.296   5.459 -1.0646  0.6035 -1.4708
 8291SOL    HW332937   0.671   6.415   5.524 -0.8018 -1.5509  2.4665
 8291SOL    MW432938   0.665   6.357   5.459  0.0066 -0.3976 -0.8417
 8292SOL     OW32939   3.552   0.162   3.084  0.0915  0.6063  0.0800
 8292SOL    HW232940   3.531   0.128   3.171  0.2476  0.0009 -0.1116
 8292SOL    HW332941   3.591   0.247   3.101  1.9341 -0.3199  0.7456
 8292SOL    MW432942   3.554   0.169   3.098 -0.1137  0.0502 -0.3565
 8293SOL     OW32943   3.721   1.888   3.519 -0.4644  0.2487 -0.5291
 8293SOL    HW232944   3.663   1.964   3.530 -0.7771 -0.1405  0.6820
 8293SOL    HW332945   3.711   1.839   3.601  1.8350  0.3411 -0.1467
 8293SOL    MW432946   3.712   1.892   3.531 -0.2305 -0.5854  0.1360
 8294SOL     OW32947   0.805   5.491   0.290 -0.1681  0.5128 -0.0257
 8294SOL    HW232948   0.716   5.491   0.255 -0.2658  0.5599  0.2232
 8294SOL    HW332949   0.801   5.549   0.366 -0.1230 -0.1482  0.4896
 8294SOL    MW432950   0.793   5.498   0.296  0.2690 -0.4922  0.1729
 8295SOL     OW32951   0.315   4.743   1.357  0.3906  0.2474 -0.4097
 8295SOL    HW232952   0.404   4.752   1.321  1.3046 -0.7221  1.4800
 8295SOL    HW332953   0.282   4.832   1.362  0.7383  0.5329 -2.2694
 8295SOL    MW432954   0.322   4.756   1.353 -0.7814  0.3638  0.4341
 8296SOL     OW32955   4.787   3.567   5.567  0.2190 -0.4288 -0.1976
 8296SOL    HW232956   4.807   3.626   5.494  0.1810  1.0528  0.9270
 8296SOL    HW332957   4.866   3.514   5.577  2.0255  2.2796  1.3268
 8296SOL    MW432958   4.800   3.568   5.559  0.0462 -0.0350 -0.7171
 8297SOL     OW32959   6.058   5.271   4.180  0.0729 -0.4985 -0.4194
 8297SOL    HW232960   6.080   5.222   4.100 -0.4945  0.8436 -1.4316
 8297SOL    HW332961   6.057   5.362   4.153 -0.4505 -0.0382  1.0609
 8297SOL    MW432962   6.060   5.276   4.166  0.0977 -0.3333 -0.6462
 8298SOL     OW32963   0.919   5.454   4.431 -0.0049 -0.8654  0.2745
 8298SOL    HW232964   0.947   5.538   4.467  1.8700 -0.7629 -1.2764
 8298SOL    HW332965   0.838   5.434   4.478  0.8249  0.5683  2.4728
 8298SOL    MW432966   0.912   5.463   4.442 -0.1304  0.3433 -0.2911
 8299SOL     OW32967   4.417   3.855   3.836  0.1499  0.0365  0.2459
 8299SOL    HW232968   4.388   3.946   3.840  0.1162  0.0109  0.6317
 8299SOL    HW332969   4.478   3.853   3.762  0.9168  0.5944  0.8388
 8299SOL    MW432970   4.421   3.867   3.826  0.2950  0.0102  0.1042
 8300SOL     OW32971   4.049   3.328   0.801  0.7324 -0.5887  0.2987
 8300SOL    HW232972   3.980   3.327   0.867 -1.1844  0.8569 -1.5818
 8300SOL    HW332973   4.088   3.240   0.807 -1.7214 -1.7228  0.9453
 8300SOL    MW432974   4.045   3.316   0.811  0.4530  0.1589  0.6838
 8301SOL     OW32975   5.148   4.851   2.945 -0.3592  0.0574  0.1374
 8301SOL    HW232976   5.241   4.873   2.944 -0.3932  0.2250 -1.8380
 8301SOL    HW332977   5.103   4.935   2.954 -0.3444  0.0866 -0.0662
 8301SOL    MW432978   5.155   4.865   2.946 -0.6613 -0.0088 -0.0167
 8302SOL     OW32979   2.290   5.649   4.952  0.1969 -0.6281  0.0956
 8302SOL    HW232980   2.236   5.669   5.028 -2.8469 -0.3088 -1.9902
 8302SOL    HW332981   2.243   5.579   4.906  2.3775 -1.4255 -1.1095
 8302SOL    MW432982   2.277   5.642   4.956 -0.1339 -0.1161 -0.0914
 8303SOL     OW32983   0.422   5.212   4.042 -0.2326 -0.2937 -0.1153
 8303SOL    HW232984   0.428   5.201   4.137  0.7493 -0.0744 -0.1488
 8303SOL    HW332985   0.441   5.125   4.006  2.0157  0.1652 -0.1817
 8303SOL    MW432986   0.425   5.199   4.050  0.7074  0.2632  0.6265
 8304SOL     OW32987   0.188   2.858   5.418  0.5520 -0.4655 -0.0569
 8304SOL    HW232988   0.237   2.882   5.497  1.2794 -2.1658  0.0559
 8304SOL    HW332989   0.254   2.823   5.359 -0.1897 -0.5100 -0.8738
 8304SOL    MW432990   0.203   2.856   5.421 -0.4653 -0.1768  0.0962
 8305SOL     OW32991   4.127   5.664   2.190 -0.2476 -0.4747  0.2027
 8305SOL    HW232992   4.047   5.681   2.239 -0.4153  0.4690 -0.3589
 8305SOL    HW332993   4.190   5.729   2.223 -1.1433  2.0193 -2.5711
 8305SOL    MW432994   4.125   5.675   2.201  0.2304  0.1584 -0.0664
 8306SOL     OW32995   3.742   6.148   1.231 -0.1844  0.5573 -0.5666
 8306SOL    HW232996   3.732   6.181   1.142 -0.6476 -0.1495 -0.7887
 8306SOL    HW332997   3.765   6.056   1.220 -0.3131  0.4459  0.0402
 8306SOL    MW432998   3.743   6.140   1.218  0.1312 -0.1334  0.3423
 8307SOL     OW32999   6.279   2.659   5.597  0.6745  0.0729 -0.0520
 8307SOL    HW233000   6.239   2.723   5.656  0.6836  0.3048 -0.2948
 8307SOL    HW333001   6.361   2.634   5.641  0.3515 -0.2726  0.3603
 8307SOL    MW433002   6.285   2.664   5.611  0.6892 -0.3996  0.1547
 8308SOL     OW33003   4.571   4.153   3.499 -0.2616 -0.1541 -0.2833
 8308SOL    HW233004   4.592   4.146   3.592 -0.4350 -1.2489 -0.3089
 8308SOL    HW333005   4.515   4.231   3.492  0.8697  0.7399  0.3079
 8308SOL    MW433006   4.566   4.162   3.510  0.1466 -0.6922 -0.3663
 8309SOL     OW33007   0.742   1.795   1.285 -0.5341 -0.0170  0.0958
 8309SOL    HW233008   0.723   1.746   1.365  1.4864 -0.4272  0.3938
 8309SOL    HW333009   0.674   1.768   1.224 -1.5242 -0.4780  1.3595
 8309SOL    MW433010   0.731   1.785   1.288  0.2341  0.1749  0.4895
 8310SOL     OW33011   4.685   3.248   1.323 -0.2227 -0.0853  0.0712
 8310SOL    HW233012   4.594   3.230   1.298 -0.0052 -0.1257 -0.7304
 8310SOL    HW333013   4.736   3.197   1.260  0.3526 -0.8745  1.1480
 8310SOL    MW433014   4.679   3.239   1.311  0.0476 -0.0393 -0.1169
 8311SOL     OW33015   3.052   6.296   2.496  0.0599  0.3900  0.0439
 8311SOL    HW233016   3.077   6.319   2.586 -1.3661 -0.2889  0.6563
 8311SOL    HW333017   3.134   6.277   2.452  0.8663  1.6917  0.9282
 8311SOL    MW433018   3.066   6.296   2.502 -0.0038  0.5909 -0.5730
 8312SOL     OW33019   5.126   2.510   5.715  0.4303  0.2821  0.3193
 8312SOL    HW233020   5.134   2.425   5.759 -0.7124  0.3614  0.7252
 8312SOL    HW333021   5.119   2.488   5.622 -1.6022 -0.2306  0.5441
 8312SOL    MW433022   5.126   2.496   5.708 -0.1710  0.1832  0.4703
 8313SOL     OW33023   3.129   3.094   4.197  0.3266  0.3229  0.3388
 8313SOL    HW233024   3.213   3.049   4.211 -0.9438 -3.6106 -2.8899
 8313SOL    HW333025   3.152   3.171   4.145  2.0711  0.2569  0.9452
 8313SOL    MW433026   3.143   3.099   4.192  0.0905 -0.0761  0.2020
 8314SOL     OW33027   2.433   6.305   3.504 -0.5106  0.0631  0.1626
 8314SOL    HW233028   2.428   6.400   3.515 -0.5797  0.0800 -0.0042
 8314SOL    HW333029   2.526   6.286   3.493 -0.3589 -0.0439  1.5313
 8314SOL    MW433030   2.445   6.315   3.504  0.4402  0.7086 -0.2745
 8315SOL     OW33031   0.490   4.359   0.183  0.2203  0.0436 -0.2299
 8315SOL    HW233032   0.530   4.316   0.108 -1.0255 -1.1073 -0.2701
 8315SOL    HW333033   0.487   4.452   0.159  1.7221 -0.0113 -0.7094
 8315SOL    MW433034   0.494   4.365   0.170 -0.0440 -0.0577  0.7403
 8316SOL     OW33035   3.437   3.126   5.586 -0.1650  0.5583 -0.6808
 8316SOL    HW233036   3.517   3.077   5.606 -1.1869 -1.2393 -0.8349
 8316SOL    HW333037   3.438   3.199   5.648 -0.6095 -1.9128  2.4615
 8316SOL    MW433038   3.448   3.130   5.597  0.0119  0.1982  0.6342
 8317SOL     OW33039   2.500   4.543   0.007 -0.0986  0.2683 -0.2401
 8317SOL    HW233040   2.499   4.597  -0.071  1.6302  2.0462  0.8780
 8317SOL    HW333041   2.515   4.604   0.079 -2.4962 -1.1773  1.6492
 8317SOL    MW433042   2.502   4.558   0.007  0.0487 -0.1568 -0.0539
 8318SOL     OW33043   2.192   0.436   2.549  0.3901 -0.0307 -0.2530
 8318SOL    HW233044   2.133   0.511   2.559  1.4039  0.5221  2.7804
 8318SOL    HW333045   2.135   0.365   2.519 -1.1611  1.2673 -0.5554
 8318SOL    MW433046   2.176   0.437   2.547 -0.2790  0.2576 -0.0714
 8319SOL     OW33047   5.158   3.069   2.356  0.1891 -0.3313 -0.5586
 8319SOL    HW233048   5.133   3.130   2.425  0.4287 -0.3061 -0.4922
 8319SOL    HW333049   5.078   3.022   2.334  0.2126 -0.6519  0.0450
 8319SOL    MW433050   5.144   3.071   2.362 -0.0429  0.9954 -0.2693
 8320SOL     OW33051   1.412   1.197   4.054  0.1202 -0.4098 -0.2586
 8320SOL    HW233052   1.344   1.139   4.087 -0.0833 -0.1815 -0.2778
 8320SOL    HW333053   1.423   1.171   3.962 -1.7000  1.1949 -0.9883
 8320SOL    MW433054   1.405   1.186   4.046 -0.1250 -0.0869  0.7444
 8321SOL     OW33055   1.538   5.136   0.368  0.0935  0.1589  0.2315
 8321SOL    HW233056   1.554   5.085   0.447 -0.8792  1.1785  1.1249
 8321SOL    HW333057   1.522   5.071   0.300 -0.2749 -0.7357  1.1491
 8321SOL    MW433058   1.538   5.121   0.370 -0.0169 -0.7411  0.0995
 8322SOL     OW33059   1.345   4.089   6.214 -0.2971 -0.4825  0.2536
 8322SOL    HW233060   1.297   4.105   6.295  1.9761  1.6899  1.3343
 8322SOL    HW333061   1.430   4.056   6.243  0.4079 -0.0730 -1.2551
 8322SOL    MW433062   1.350   4.087   6.229  0.4254 -0.3337  0.3502
 8323SOL     OW33063   5.771   3.532   2.533  0.2115 -0.4309  0.1484
 8323SOL    HW233064   5.819   3.462   2.489  0.7599  0.0740 -0.0670
 8323SOL    HW333065   5.772   3.605   2.471 -0.1398 -0.1515  0.4673
 8323SOL    MW433066   5.778   3.532   2.519  0.1851 -0.4771 -0.0503
 8324SOL     OW33067   5.525   1.813   1.430 -0.4097  0.2194 -1.3224
 8324SOL    HW233068   5.587   1.755   1.385 -0.1186 -0.1128 -0.5197
 8324SOL    HW333069   5.568   1.899   1.428  3.0786 -0.8684  4.1465
 8324SOL    MW433070   5.539   1.817   1.424 -0.1500  0.1102 -0.3559
 8325SOL     OW33071   3.392   4.941   3.436  0.2825 -0.2665 -0.0924
 8325SOL    HW233072   3.440   4.882   3.494 -3.4293 -2.8457  0.6809
 8325SOL    HW333073   3.421   4.917   3.348  2.1822  0.1006  0.3784
 8325SOL    MW433074   3.403   4.930   3.432 -0.2510  0.1267  0.5239
 8326SOL     OW33075   4.760   3.780   6.200  0.0522  0.1053 -0.1173
 8326SOL    HW233076   4.855   3.779   6.195  0.0670 -1.4723 -0.1969
 8326SOL    HW333077   4.739   3.847   6.265  1.1715  0.8565 -0.5027
 8326SOL    MW433078   4.770   3.789   6.208  0.1366 -0.2469  0.0985
 8327SOL     OW33079   4.549   3.493   5.739  0.0946 -0.0746 -0.6144
 8327SOL    HW233080   4.559   3.492   5.834  0.3984 -1.3636 -0.6390
 8327SOL    HW333081   4.638   3.482   5.705 -0.0114  0.3943 -1.0558
 8327SOL    MW433082   4.562   3.491   5.747 -0.6356  0.5025  0.3838
 8328SOL     OW33083   5.643   4.545   3.168  0.4701 -0.5046 -0.0809
 8328SOL    HW233084   5.676   4.547   3.078  0.9204 -0.9742  0.0726
 8328SOL    HW333085   5.659   4.634   3.201  2.4932 -0.9587  0.3047
 8328SOL    MW433086   5.649   4.557   3.161 -0.9021  0.5886 -0.1345
 8329SOL     OW33087   0.348   2.164   5.800 -0.5932  0.3833 -0.4138
 8329SOL    HW233088   0.303   2.220   5.863 -2.2075  0.1816 -1.3373
 8329SOL    HW333089   0.394   2.225   5.742 -1.6453  0.7322 -0.9018
 8329SOL    MW433090   0.349   2.179   5.800  0.3490 -0.5854 -0.0664
 8330SOL     OW33091   5.786   4.768   1.060  0.1205  0.6991 -0.8141
 8330SOL    HW233092   5.813   4.678   1.041  0.9040  1.0871 -1.6016
 8330SOL    HW333093   5.766   4.806   0.974 -2.0475  0.7381 -0.3573
 8330SOL    MW433094   5.787   4.761   1.046 -0.4125 -0.2933  0.3048
 8331SOL     OW33095   6.377   5.429   5.245  0.2367 -0.1515  0.2514
 8331SOL    HW233096   6.347   5.423   5.336  0.5291 -0.5127  0.3277
 8331SOL    HW333097   6.361   5.520   5.220 -1.1971 -0.3998  0.1894
 8331SOL    MW433098   6.371   5.440   5.254 -0.8585 -0.5309 -0.1413
 8332SOL     OW33099   1.442   4.037   5.661  0.3165 -0.5048  0.5454
 8332SOL    HW233100   1.418   4.037   5.754  2.1011 -1.3299  1.0630
 8332SOL    HW333101   1.490   4.120   5.649 -1.6369  0.5797 -0.1888
 8332SOL    MW433102   1.445   4.048   5.672 -0.1652  1.0707  0.0484
 8333SOL     OW33103   2.135   4.761   1.366 -0.4718  0.3966  0.6688
 8333SOL    HW233104   2.228   4.749   1.388 -0.4546 -0.2245  0.2827
 8333SOL    HW333105   2.129   4.852   1.337  0.4604 -0.1254 -1.3449
 8333SOL    MW433106   2.147   4.771   1.365 -0.1380  0.3397 -0.8231
 8334SOL     OW33107   3.539   3.360   3.808 -0.2280  0.0850  0.0108
 8334SOL    HW233108   3.514   3.428   3.746 -1.9759  2.4549  3.0344
 8334SOL    HW333109   3.629   3.337   3.784  0.0057  2.5827 -1.8986
 8334SOL    MW433110   3.547   3.366   3.797  0.4785  0.1774 -0.0717
 8335SOL     OW33111   3.562   3.361   2.740  0.1497 -0.4443 -0.1650
 8335SOL    HW233112   3.584   3.272   2.769  1.2909 -1.0623 -2.6480
 8335SOL    HW333113   3.467   3.365   2.745  0.0571 -1.9033 -0.2575
 8335SOL    MW433114   3.553   3.350   2.745  0.1763 -0.1844  0.1435
 8336SOL     OW33115   5.205   1.156   1.912 -0.8159 -0.1110 -0.4069
 8336SOL    HW233116   5.165   1.069   1.905  1.5514 -1.1619 -2.5014
 8336SOL    HW333117   5.284   1.141   1.965 -0.3478  0.7487 -0.8519
 8336SOL    MW433118   5.210   1.142   1.918  0.6006  0.3705  0.0547
 8337SOL     OW33119   6.180   5.996   0.362  0.7254 -0.0298  0.2060
 8337SOL    HW233120   6.200   6.039   0.278  1.8667 -0.3726  0.2753
 8337SOL    HW333121   6.180   6.067   0.426  1.3454  0.0488  0.1277
 8337SOL    MW433122   6.183   6.011   0.359 -0.4434 -0.1644 -0.0253
 8338SOL     OW33123   1.844   5.366   3.016  0.6121 -0.2083  0.2475
 8338SOL    HW233124   1.875   5.315   3.091 -0.2730 -0.4233  0.4802
 8338SOL    HW333125   1.749   5.362   3.023  0.5316  0.5128 -0.3939
 8338SOL    MW433126   1.836   5.359   3.027 -0.7564  1.1152 -0.3769
 8339SOL     OW33127   4.424   3.690   4.988 -0.4095  0.3829 -0.5764
 8339SOL    HW233128   4.345   3.658   5.031 -0.1515  0.1983 -0.2393
 8339SOL    HW333129   4.484   3.615   4.990  0.0985  0.7994 -0.0391
 8339SOL    MW433130   4.421   3.676   4.994  0.0412 -0.3789  0.3111
 8340SOL     OW33131   5.040   6.276   3.497  0.3868  0.5161 -0.0077
 8340SOL    HW233132   5.038   6.182   3.477  3.4162  0.4564 -0.5097
 8340SOL    HW333133   5.019   6.282   3.590 -1.0309 -0.4876 -0.2230
 8340SOL    MW433134   5.037   6.264   3.506  0.0860  0.1800 -0.8567
 8341SOL     OW33135   4.928   4.760   3.976 -0.4891  0.2838  0.3038
 8341SOL    HW233136   4.886   4.745   3.891 -0.0043  1.5909 -0.1814
 8341SOL    HW333137   4.859   4.743   4.040 -0.7586 -1.0933 -0.3144
 8341SOL    MW433138   4.914   4.755   3.973 -0.5057 -0.6257 -0.1626
 8342SOL     OW33139   6.245   3.937   5.463  0.2947 -0.0446  0.0644
 8342SOL    HW233140   6.319   3.952   5.522 -0.3546  0.2404  0.8185
 8342SOL    HW333141   6.174   3.989   5.500 -0.8455 -1.7776  0.4452
 8342SOL    MW433142   6.245   3.946   5.476 -0.0526  0.3325 -0.1570
 8343SOL     OW33143   2.725   5.370   3.282  0.0555 -0.1002 -0.5429
 8343SOL    HW233144   2.694   5.443   3.228  0.0244  2.0225  2.1193
 8343SOL    HW333145   2.648   5.314   3.292 -0.1333 -0.1629 -2.0062
 8343SOL    MW433146   2.711   5.372   3.276  0.2848 -0.0882  0.0387
 8344SOL     OW33147   0.274   2.475   5.307 -0.0709  0.9142 -0.0301
 8344SOL    HW233148   0.179   2.469   5.297  0.0014 -0.7803  0.0422
 8344SOL    HW333149   0.308   2.453   5.220  0.2902 -1.6486  0.6927
 8344SOL    MW433150   0.266   2.472   5.294  0.2074 -0.2634  0.1808
 8345SOL     OW33151   3.001   4.805   1.371  0.1544 -0.3939  0.4075
 8345SOL    HW233152   3.033   4.791   1.282  0.6557  0.0549  0.5124
 8345SOL    HW333153   2.915   4.846   1.359  0.8832  1.1460  0.1115
 8345SOL    MW433154   2.994   4.809   1.358 -0.4357 -0.5139 -0.2326
 8346SOL     OW33155   0.280   1.621   1.429  0.3654  0.4051  0.5984
 8346SOL    HW233156   0.232   1.658   1.355 -0.4412  1.2196  1.5014
 8346SOL    HW333157   0.226   1.547   1.458  1.8000 -1.3848 -0.9862
 8346SOL    MW433158   0.266   1.616   1.423  1.0127  0.3277  0.2391
 8347SOL     OW33159   2.324   5.918   6.147 -0.1869 -0.0060 -0.2763
 8347SOL    HW233160   2.232   5.909   6.172  0.1063 -0.1751  0.8285
 8347SOL    HW333161   2.361   5.977   6.214  0.2542  1.0124 -1.3790
 8347SOL    MW433162   2.317   5.925   6.159 -0.4708 -0.1141 -1.2173
 8348SOL     OW33163   5.318   3.258   0.702  0.7636 -0.4488 -0.3351
 8348SOL    HW233164   5.240   3.277   0.754 -0.7584 -1.2354 -2.1850
 8348SOL    HW333165   5.387   3.243   0.767 -0.5934  0.2956  1.3735
 8348SOL    MW433166   5.317   3.259   0.717 -0.2768 -0.6422 -0.3238
 8349SOL     OW33167   4.185   5.856   3.039  0.2470 -0.2143  0.4602
 8349SOL    HW233168   4.211   5.869   2.948 -0.7617 -1.3475 -0.0219
 8349SOL    HW333169   4.216   5.768   3.061 -2.1147 -1.1816  0.2018
 8349SOL    MW433170   4.192   5.846   3.030  0.0061  0.6456 -0.2902
 8350SOL     OW33171   4.062   5.648   3.829 -0.4464  0.2606  0.0485
 8350SOL    HW233172   4.094   5.569   3.785 -2.5756 -0.4984 -0.2621
 8350SOL    HW333173   4.136   5.708   3.828  1.4723 -1.9446  0.8573
 8350SOL    MW433174   4.076   5.646   3.823 -0.5172  0.2674  0.0914
 8351SOL     OW33175   3.053   2.348   6.020 -0.0484 -0.0280  0.4683
 8351SOL    HW233176   3.141   2.358   6.057 -0.6788  1.1670  1.7312
 8351SOL    HW333177   3.044   2.254   6.006  1.4281 -0.1743  0.3032
 8351SOL    MW433178   3.063   2.337   6.023 -0.5902 -0.0953  0.0325
 8352SOL     OW33179   0.270   1.514   5.117  0.7098 -0.3236 -0.0015
 8352SOL    HW233180   0.305   1.495   5.204  0.9220 -0.7251 -0.1715
 8352SOL    HW333181   0.221   1.435   5.094  0.8257 -0.3011 -0.3319
 8352SOL    MW433182   0.268   1.501   5.125 -0.2392 -0.0624  0.1492
 8353SOL     OW33183   3.570   4.263   3.403  0.0883  0.2831  0.6833
 8353SOL    HW233184   3.555   4.316   3.481  1.0696  1.0938  0.3409
 8353SOL    HW333185   3.640   4.308   3.356  0.0097 -0.5830 -0.3088
 8353SOL    MW433186   3.577   4.276   3.407  0.4792 -0.3908 -0.3872
 8354SOL     OW33187   2.782   3.153   1.477  0.2439 -0.2568 -0.4019
 8354SOL    HW233188   2.718   3.082   1.478  0.1088 -0.1355 -0.4048
 8354SOL    HW333189   2.733   3.229   1.444  0.5077 -0.2812 -0.8565
 8354SOL    MW433190   2.767   3.154   1.472  0.3338  0.1399 -0.3402
 8355SOL     OW33191   6.235   4.758   5.288 -0.3930  0.0857  0.3910
 8355SOL    HW233192   6.299   4.824   5.260 -0.6895 -0.8558 -2.9502
 8355SOL    HW333193   6.160   4.810   5.317  0.4125  1.2199  0.5227
 8355SOL    MW433194   6.234   4.774   5.288 -0.2863  0.0175 -0.0147
 8356SOL     OW33195   0.534  -0.003   0.446 -0.0149 -0.2737  0.5600
 8356SOL    HW233196   0.548   0.050   0.367 -0.1487  1.0975  1.4150
 8356SOL    HW333197   0.491  -0.082   0.414 -0.2818  0.3552 -0.7217
 8356SOL    MW433198   0.530  -0.006   0.431  0.6850  0.6552 -0.1039
 8357SOL     OW33199   4.121   0.790   6.127 -0.1416  0.2758  0.5682
 8357SOL    HW233200   4.193   0.836   6.170 -0.4622  0.3582  1.0237
 8357SOL    HW333201   4.148   0.783   6.036  0.5043  0.1873  0.7599
 8357SOL    MW433202   4.134   0.795   6.121 -0.2550  0.0337  0.4390
 8358SOL     OW33203   3.076   4.943   2.621  0.7934  0.1323 -0.0406
 8358SOL    HW233204   3.103   4.901   2.539 -1.1402 -0.1819 -0.5686
 8358SOL    HW333205   3.068   5.036   2.598  1.7333  0.2920  0.2246
 8358SOL    MW433206   3.078   4.950   2.607  0.0810  0.3331 -0.2919
 8359SOL     OW33207   4.325   0.218   1.861 -0.0102 -1.0262 -0.1795
 8359SOL    HW233208   4.393   0.178   1.915  0.0040 -1.4489 -0.5021
 8359SOL    HW333209   4.275   0.144   1.825 -0.7091 -0.7197  0.1362
 8359SOL    MW433210   4.327   0.203   1.863 -0.1148  0.7353 -0.2133
 8360SOL     OW33211   4.211   3.651   5.191 -0.2125 -0.0239 -0.3416
 8360SOL    HW233212   4.176   3.586   5.252  0.2086  1.7794  1.9695
 8360SOL    HW333213   4.292   3.682   5.233 -0.5025  2.1274 -1.2215
 8360SOL    MW433214   4.217   3.647   5.205 -0.0695  0.4733  0.6348
 8361SOL     OW33215   3.872   4.069   0.153  0.1249 -0.2334 -0.5752
 8361SOL    HW233216   3.867   4.010   0.229 -1.0755 -0.8423 -1.0817
 8361SOL    HW333217   3.880   4.156   0.190  0.4775 -0.6024  0.2348
 8361SOL    MW433218   3.872   4.073   0.168 -0.1702 -0.0055  0.0140
 8362SOL     OW33219   6.263   4.791   2.311 -0.2627 -0.3613  0.4554
 8362SOL    HW233220   6.171   4.818   2.314 -0.0994  0.1774  0.8615
 8362SOL    HW333221   6.308   4.866   2.272  0.0960 -0.3434  0.8962
 8362SOL    MW433222   6.257   4.804   2.306 -0.2094  0.1994  0.6812
 8363SOL     OW33223   4.424   2.923   1.902  0.1490  0.0339 -0.5038
 8363SOL    HW233224   4.401   2.886   1.818 -0.0033  0.9049 -0.8585
 8363SOL    HW333225   4.342   2.958   1.937 -0.4695 -3.0755  1.4827
 8363SOL    MW433226   4.410   2.923   1.896 -0.1925  0.1927 -0.5789
 8364SOL     OW33227   2.149   5.913   4.812 -0.4767 -0.3745 -0.0415
 8364SOL    HW233228   2.192   5.837   4.852  0.6499 -0.8123 -1.9314
 8364SOL    HW333229   2.056   5.891   4.811 -0.2769 -1.2737  0.3716
 8364SOL    MW433230   2.143   5.900   4.817 -0.1562 -0.0827 -0.0087
 8365SOL     OW33231   4.467   4.472   3.642  0.0647  0.4947  0.4270
 8365SOL    HW233232   4.448   4.562   3.615 -1.0624  0.4580  1.0554
 8365SOL    HW333233   4.432   4.418   3.572 -0.6760  0.5018  0.7734
 8365SOL    MW433234   4.460   4.477   3.629  0.0949 -0.1204 -0.4497
 8366SOL     OW33235   2.034   5.042   5.112 -0.2030  0.1951  0.5788
 8366SOL    HW233236   2.092   4.995   5.052  1.9209 -0.7262  3.1397
 8366SOL    HW333237   1.946   5.024   5.080  0.7146 -2.3904 -0.7720
 8366SOL    MW433238   2.030   5.034   5.100 -0.4597  0.4719 -0.1296
 8367SOL     OW33239   1.989   2.170   0.285  0.1452  0.6651  0.7721
 8367SOL    HW233240   2.062   2.163   0.224 -1.4059  1.8459 -1.3522
 8367SOL    HW333241   1.926   2.106   0.254 -0.4993  0.9818  1.4138
 8367SOL    MW433242   1.991   2.161   0.273  0.5334  0.6073  0.2588
 8368SOL     OW33243   2.353   5.478   5.316 -0.1693  0.3182 -0.1883
 8368SOL    HW233244   2.307   5.414   5.261 -1.3265  0.1627  0.9138
 8368SOL    HW333245   2.416   5.520   5.257  0.4408 -1.6386 -0.9946
 8368SOL    MW433246   2.355   5.475   5.301 -0.2545 -0.0119 -0.3534
 8369SOL     OW33247   2.548   1.342   0.712  0.2131  0.0565  0.0553
 8369SOL    HW233248   2.509   1.304   0.791  3.1409 -1.9356  0.6700
 8369SOL    HW333249   2.600   1.271   0.674  2.8498  2.3289 -0.9070
 8369SOL    MW433250   2.549   1.328   0.717 -0.4266 -0.4552  0.5806
 8370SOL     OW33251   4.318   4.467   3.223 -0.0312 -0.0785 -0.6101
 8370SOL    HW233252   4.314   4.405   3.150 -1.2049  2.1821 -2.5883
 8370SOL    HW333253   4.232   4.508   3.225  0.4627  0.9704  1.1280
 8370SOL    MW433254   4.306   4.464   3.214  0.3788  0.5119 -0.7585
 8371SOL     OW33255   4.138   4.898   1.840  0.0645  0.1348 -0.1823
 8371SOL    HW233256   4.204   4.963   1.814  1.6725 -1.2183  0.3357
 8371SOL    HW333257   4.057   4.948   1.845  1.0969  1.9610 -0.4970
 8371SOL    MW433258   4.136   4.913   1.837  0.1404 -0.1049  0.3368
 8372SOL     OW33259   0.210   1.980   4.891  0.1435  0.4314 -0.0439
 8372SOL    HW233260   0.154   1.959   4.816  0.6701  1.1333 -0.6490
 8372SOL    HW333261   0.196   2.074   4.905 -0.2639  0.2269  1.0069
 8372SOL    MW433262   0.201   1.990   4.883  0.2716 -0.3675  0.5760
 8373SOL     OW33263   3.886   3.540   5.745 -0.2124  0.4101 -0.0902
 8373SOL    HW233264   3.949   3.572   5.680 -0.8951  0.5632 -0.6988
 8373SOL    HW333265   3.879   3.446   5.727  2.2179 -0.2777  2.0649
 8373SOL    MW433266   3.893   3.531   5.734  0.0242 -0.1568 -0.3972
 8374SOL     OW33267   4.714   0.071   2.258 -0.5409 -0.1725 -0.3620
 8374SOL    HW233268   4.663   0.117   2.324  0.2215  0.1430  0.0183
 8374SOL    HW333269   4.785   0.132   2.236  0.0844 -0.8801 -0.3465
 8374SOL    MW433270   4.717   0.085   2.264  0.1249 -0.2254  0.7524
 8375SOL     OW33271   3.781   4.446   2.578 -0.2837  0.1843  0.5035
 8375SOL    HW233272   3.765   4.430   2.671 -0.4348 -0.2482  0.4032
 8375SOL    HW333273   3.693   4.451   2.539 -0.3055  2.3652  0.7034
 8375SOL    MW433274   3.767   4.445   2.586 -0.0515  0.6427 -0.0293
 8376SOL     OW33275   0.555   0.649   4.498  0.3327 -0.2751 -0.4895
 8376SOL    HW233276   0.545   0.653   4.403 -0.5559  0.9337 -0.3653
 8376SOL    HW333277   0.477   0.693   4.533  0.2374 -1.4157  0.8210
 8376SOL    MW433278   0.544   0.655   4.490 -0.3233  0.0959  0.2206
 8377SOL     OW33279   4.747   3.891   3.810  0.0821  0.0290 -0.1035
 8377SOL    HW233280   4.795   3.885   3.893  0.8953 -0.1638 -0.5765
 8377SOL    HW333281   4.804   3.847   3.747 -0.7222 -0.1911 -0.6837
 8377SOL    MW433282   4.761   3.885   3.813  0.1614 -0.1811  0.2962
 8378SOL     OW33283   2.091   2.671   2.775  0.1765  0.3956  0.2272
 8378SOL    HW233284   2.086   2.664   2.870  0.1373  2.5436  0.4174
 8378SOL    HW333285   2.078   2.581   2.744  1.8254 -0.6396  2.2890
 8378SOL    MW433286   2.089   2.658   2.784 -0.5790 -0.8686  0.1972
 8379SOL     OW33287   5.087   5.158   0.193  0.5148 -0.0186 -0.2737
 8379SOL    HW233288   5.159   5.214   0.165 -0.2482  1.1887  0.1133
 8379SOL    HW333289   5.058   5.115   0.112  1.2856 -0.0835 -0.5279
 8379SOL    MW433290   5.093   5.160   0.178 -0.0404 -0.0297  0.2794
 8380SOL     OW33291   2.955   3.999   3.281  0.1480  0.3301  0.1301
 8380SOL    HW233292   3.005   3.918   3.282 -2.6008 -1.6261 -2.6897
 8380SOL    HW333293   2.957   4.028   3.190 -2.6076  0.8700  0.1386
 8380SOL    MW433294   2.962   3.992   3.269  0.2551 -0.1460  0.5294
 8381SOL     OW33295   3.631   6.113   1.716 -0.2720 -0.4237  0.6178
 8381SOL    HW233296   3.721   6.097   1.745 -0.3965 -0.3798  1.0220
 8381SOL    HW333297   3.601   6.027   1.686 -0.1046 -0.4425  0.4995
 8381SOL    MW433298   3.639   6.099   1.716 -0.1054 -0.8372 -0.2049
 8382SOL     OW33299   2.399   6.153   3.748 -0.1543  0.4695 -0.1293
 8382SOL    HW233300   2.397   6.221   3.681 -2.1324  0.4476 -0.1630
 8382SOL    HW333301   2.358   6.077   3.707 -0.9687  0.3072  0.9246
 8382SOL    MW433302   2.393   6.152   3.734  0.2437 -0.1949  0.2886
 8383SOL     OW33303   1.160   5.072   1.921 -0.2930 -0.2518 -0.2870
 8383SOL    HW233304   1.217   5.120   1.861 -0.7760  0.3034 -0.3072
 8383SOL    HW333305   1.152   4.985   1.882 -0.5178  0.0719 -0.9747
 8383SOL    MW433306   1.166   5.067   1.908  0.1100 -0.2997 -0.1758
 8384SOL     OW33307   2.012   5.351   3.518 -0.4639  0.2181 -0.0182
 8384SOL    HW233308   1.957   5.349   3.440  1.6000  2.4714 -1.6846
 8384SOL    HW333309   2.065   5.272   3.512 -1.2378 -0.2951 -0.1707
 8384SOL    MW433310   2.012   5.341   3.507 -0.3404 -0.0175 -0.9451
 8385SOL     OW33311   1.446   3.056   0.032  0.1976 -0.0710  0.0776
 8385SOL    HW233312   1.492   3.132  -0.003 -0.9590  0.5467 -0.1339
 8385SOL    HW333313   1.455   2.989  -0.036 -1.1623  0.7889 -0.9951
 8385SOL    MW433314   1.453   3.057   0.019  0.2664  0.4482  0.4518
 8386SOL     OW33315   0.178   5.857   1.383 -0.4337 -0.0212 -0.1675
 8386SOL    HW233316   0.099   5.803   1.382  0.8284 -1.9762 -0.9310
 8386SOL    HW333317   0.227   5.828   1.307  1.9876 -0.3472  1.4276
 8386SOL    MW433318   0.174   5.846   1.373 -0.1716  0.1666 -0.1785
 8387SOL     OW33319   1.777   1.593   2.410  0.0009  0.4218  0.5159
 8387SOL    HW233320   1.871   1.586   2.426 -0.0622 -1.4227  0.2667
 8387SOL    HW333321   1.746   1.502   2.410 -1.9835  1.0373  1.7738
 8387SOL    MW433322   1.785   1.580   2.412 -0.1487  0.1219  0.2812
 8388SOL     OW33323   5.756   0.682   4.988 -0.1915  0.0604 -0.4152
 8388SOL    HW233324   5.752   0.748   4.918  0.2152 -0.4153 -0.8966
 8388SOL    HW333325   5.768   0.599   4.942 -1.5171 -0.4674  0.1407
 8388SOL    MW433326   5.757   0.680   4.972  0.3859 -0.4281 -0.0931
 8389SOL     OW33327   4.278   5.124   6.105  0.1427 -0.4658  0.4192
 8389SOL    HW233328   4.258   5.174   6.026 -0.5085 -2.2261 -0.6009
 8389SOL    HW333329   4.251   5.180   6.177 -0.7822  0.5460 -0.6821
 8389SOL    MW433330   4.272   5.138   6.104 -0.0456 -0.0668 -0.3396
 8390SOL     OW33331   0.024   0.945   5.568 -0.5585 -0.2384  0.0976
 8390SOL    HW233332  -0.009   0.995   5.643 -0.3066 -0.4490  0.3509
 8390SOL    HW333333  -0.027   0.864   5.569  1.5294 -1.6325  1.9135
 8390SOL    MW433334   0.013   0.941   5.578 -0.0015 -0.1349  0.0686
 8391SOL     OW33335   3.140   2.059   5.298  0.5247 -0.3564 -0.0596
 8391SOL    HW233336   3.129   2.103   5.214  3.6253  1.0304  0.1279
 8391SOL    HW333337   3.118   2.126   5.364  0.7245 -0.5849  0.2412
 8391SOL    MW433338   3.135   2.074   5.296  0.2933  0.0000  0.0376
 8392SOL     OW33339   1.513   0.653   5.182 -0.9199 -0.3121  0.4586
 8392SOL    HW233340   1.499   0.634   5.275  2.2849 -1.4792  0.8515
 8392SOL    HW333341   1.546   0.570   5.146 -1.4643  0.3157 -1.5609
 8392SOL    MW433342   1.516   0.639   5.190  0.0633 -0.8559 -0.3314
 8393SOL     OW33343   4.812   4.268   6.222 -0.3362 -0.4077 -0.0716
 8393SOL    HW233344   4.799   4.330   6.294 -1.8184 -0.3285 -0.3774
 8393SOL    HW333345   4.889   4.218   6.248  0.2191  0.8031  0.7143
 8393SOL    MW433346   4.820   4.269   6.235 -0.2690  0.2192  0.0106
 8394SOL     OW33347   1.713   0.480   0.412 -0.0004 -0.4748 -0.0019
 8394SOL    HW233348   1.794   0.452   0.371 -1.2355 -2.7445 -1.1171
 8394SOL    HW333349   1.709   0.430   0.494  0.0947  0.2512  0.4552
 8394SOL    MW433350   1.723   0.470   0.417 -0.0233  0.2252  0.0759
 8395SOL     OW33351   0.909   4.696   4.678 -0.5007 -0.4916  0.2342
 8395SOL    HW233352   0.882   4.748   4.754 -0.1631  0.8364 -0.5218
 8395SOL    HW333353   0.947   4.617   4.716 -0.1698  0.2231  1.4615
 8395SOL    MW433354   0.910   4.692   4.693 -0.2851 -0.3259 -0.2030
 8396SOL     OW33355   4.680   4.932   4.771 -0.0968 -0.2063  0.5412
 8396SOL    HW233356   4.684   4.866   4.841  0.0856 -1.2502 -0.4222
 8396SOL    HW333357   4.682   5.016   4.817 -1.1804 -0.8550  1.8531
 8396SOL    MW433358   4.681   4.934   4.786 -0.4579  0.1618  0.6738
 8397SOL     OW33359   3.082   6.316   2.777  0.5780  0.3142  0.7440
 8397SOL    HW233360   3.032   6.250   2.824  0.8390  1.1250  2.2224
 8397SOL    HW333361   3.171   6.309   2.813  0.4716  1.8546  1.3555
 8397SOL    MW433362   3.087   6.306   2.788  0.4805  0.8476  0.1255
 8398SOL     OW33363   5.857   4.359   1.621 -0.1032  0.0939 -0.4000
 8398SOL    HW233364   5.813   4.442   1.639 -0.6647  0.2790 -2.4323
 8398SOL    HW333365   5.786   4.295   1.617  0.2008 -0.2685 -0.0683
 8398SOL    MW433366   5.842   4.361   1.623  0.0221  0.0245  0.6241
 8399SOL     OW33367   1.021   2.628   2.961 -0.0853  0.8044 -0.0808
 8399SOL    HW233368   1.096   2.570   2.957 -0.2131  0.4274  1.9487
 8399SOL    HW333369   0.998   2.632   3.054 -1.6323  2.1150 -0.4634
 8399SOL    MW433370   1.028   2.621   2.972  0.2160  0.2163  0.4050
 8400SOL     OW33371   5.730   5.586   1.569  0.9795  0.7042  0.0431
 8400SOL    HW233372   5.794   5.552   1.506 -0.3637 -1.4825 -0.2438
 8400SOL    HW333373   5.738   5.528   1.644 -0.9474  0.0835 -0.1908
 8400SOL    MW433374   5.740   5.574   1.570 -0.8438  0.6923  0.0173
 8401SOL     OW33375   2.298   0.450   1.890  0.6606  0.1686 -0.3338
 8401SOL    HW233376   2.366   0.401   1.936  0.7257  0.5913  0.0361
 8401SOL    HW333377   2.339   0.534   1.869  0.5958  0.0201 -1.0786
 8401SOL    MW433378   2.313   0.455   1.893 -0.8328  0.6125 -0.9201
 8402SOL     OW33379   3.346   0.989   3.561  0.3141  0.3374  0.5807
 8402SOL    HW233380   3.413   1.041   3.518  2.1205 -2.1376  0.2065
 8402SOL    HW333381   3.269   0.997   3.505  1.4676  0.2261 -1.0804
 8402SOL    MW433382   3.344   0.997   3.548  0.3943 -0.0808 -1.1962
 8403SOL     OW33383   2.396   0.453   2.349 -0.5752  0.1587 -0.0222
 8403SOL    HW233384   2.338   0.499   2.288 -0.4489  0.2513 -0.0734
 8403SOL    HW333385   2.344   0.445   2.430 -0.3121  1.1212  0.2609
 8403SOL    MW433386   2.381   0.458   2.352  0.5720  0.1695  0.0619
 8404SOL     OW33387   2.221   5.406   0.469 -0.8120  0.1640 -0.0650
 8404SOL    HW233388   2.294   5.395   0.408 -1.4605 -1.2081 -0.6316
 8404SOL    HW333389   2.171   5.479   0.434 -0.3870  0.3097 -0.3678
 8404SOL    MW433390   2.224   5.414   0.457 -0.3261  0.2574 -1.0407
 8405SOL     OW33391   4.500   3.856   3.549 -0.0867  0.1157 -0.4359
 8405SOL    HW233392   4.450   3.842   3.469  1.4970  0.0236 -1.4469
 8405SOL    HW333393   4.547   3.938   3.534  2.0301 -1.0492 -0.6134
 8405SOL    MW433394   4.499   3.865   3.537 -0.0924  0.1462  0.2984
 8406SOL     OW33395   6.095   1.940   1.259 -0.4495  0.4977  0.0199
 8406SOL    HW233396   6.098   1.992   1.340  0.9639  1.1924 -0.4515
 8406SOL    HW333397   6.174   1.965   1.211  0.1165 -1.8335 -0.3993
 8406SOL    MW433398   6.105   1.950   1.264 -0.7461 -0.0697 -0.7467
 8407SOL     OW33399   4.783   5.924   1.629  0.1961  0.5241 -0.8671
 8407SOL    HW233400   4.873   5.897   1.642 -0.3668 -1.2509 -0.4477
 8407SOL    HW333401   4.788   6.019   1.615  2.0219  0.5944  0.0417
 8407SOL    MW433402   4.795   5.933   1.629 -0.0376 -0.2297 -0.7638
 8408SOL     OW33403   1.313   2.741   2.744  0.1110  0.4481 -0.0804
 8408SOL    HW233404   1.314   2.662   2.798 -1.2144  0.0324 -0.6237
 8408SOL    HW333405   1.375   2.723   2.674 -0.6983 -0.4198 -0.5962
 8408SOL    MW433406   1.322   2.729   2.742  0.6147  0.0166  0.3619
 8409SOL     OW33407   0.996   2.774   5.310  0.3207 -0.0740  0.1867
 8409SOL    HW233408   0.964   2.829   5.239  1.3252 -0.3835 -0.5154
 8409SOL    HW333409   1.078   2.736   5.278  0.3937 -0.8462  1.2013
 8409SOL    MW433410   1.002   2.776   5.297 -0.0797  0.5426  0.3057
 8410SOL     OW33411   0.786   1.000   6.314  0.0166  0.0537 -0.2000
 8410SOL    HW233412   0.786   0.919   6.365  1.8134  0.0497 -0.1343
 8410SOL    HW333413   0.800   1.069   6.379 -0.1649  0.2852 -0.4042
 8410SOL    MW433414   0.788   0.998   6.329 -0.3394 -0.4055  0.4519
 8411SOL     OW33415   2.737   5.075   5.683  0.3562  0.0440  0.3933
 8411SOL    HW233416   2.751   5.129   5.761  0.6701 -1.2039  1.2330
 8411SOL    HW333417   2.789   4.996   5.699 -2.0930 -1.6537  0.4047
 8411SOL    MW433418   2.746   5.071   5.696 -0.4712 -0.4246 -0.2632
 8412SOL     OW33419   3.343   5.759   0.618  0.2216  0.1725 -0.2729
 8412SOL    HW233420   3.390   5.802   0.546  0.9634 -0.4162 -0.1540
 8412SOL    HW333421   3.251   5.765   0.594  0.4895 -0.4695 -1.5352
 8412SOL    MW433422   3.337   5.766   0.605 -0.2073  0.3301 -0.1556
 8413SOL     OW33423   3.686   4.515   2.843  0.2184 -0.0471 -0.5458
 8413SOL    HW233424   3.621   4.452   2.811 -1.2087 -0.9546  3.5820
 8413SOL    HW333425   3.654   4.600   2.812 -2.4615 -0.5784  0.5013
 8413SOL    MW433426   3.673   4.518   2.834  0.4430 -1.1251 -0.1931
 8414SOL     OW33427   4.357   2.402   3.213  0.0470  0.1347  0.9113
 8414SOL    HW233428   4.284   2.390   3.152 -1.0120  0.9562  1.9589
 8414SOL    HW333429   4.376   2.315   3.246  0.2501 -0.2345 -0.1269
 8414SOL    MW433430   4.350   2.389   3.209  0.1516 -0.0448  0.2669
 8415SOL     OW33431   1.408   6.399   1.528  0.4439 -0.5315 -0.3513
 8415SOL    HW233432   1.349   6.327   1.548  1.1077 -0.9076  0.2927
 8415SOL    HW333433   1.449   6.374   1.445 -1.1360  0.2829 -1.4254
 8415SOL    MW433434   1.406   6.386   1.520  0.3167  0.0586 -0.7426
 8416SOL     OW33435   2.870   3.513   1.228  0.5821  0.4294  0.1888
 8416SOL    HW233436   2.866   3.428   1.185  1.8163  0.1723  0.5499
 8416SOL    HW333437   2.921   3.568   1.169 -1.8295  1.5494 -1.0024
 8416SOL    MW433438   2.876   3.509   1.215 -0.0027  0.2030 -0.2745
 8417SOL     OW33439   4.333   6.121   4.056  0.5571 -0.6703 -0.1469
 8417SOL    HW233440   4.373   6.046   4.100  1.1218  0.5391  1.4817
 8417SOL    HW333441   4.370   6.119   3.968  0.8901 -2.0541 -0.0019
 8417SOL    MW433442   4.343   6.111   4.050 -0.0402  0.7123  0.6762
 8418SOL     OW33443   2.779   4.180   4.052 -0.1049  0.0589 -0.2877
 8418SOL    HW233444   2.761   4.111   3.988 -0.0361  0.1491 -0.4030
 8418SOL    HW333445   2.821   4.250   4.002 -1.1230  0.6273 -0.3700
 8418SOL    MW433446   2.782   4.180   4.037 -0.2811 -0.3511  0.0884
 8419SOL     OW33447   0.714   1.328   6.317 -0.2564  0.2879 -0.1096
 8419SOL    HW233448   0.722   1.411   6.364  1.0889 -0.4410  1.0234
 8419SOL    HW333449   0.799   1.315   6.275 -0.2586 -0.7649  0.1781
 8419SOL    MW433450   0.726   1.337   6.318 -0.4834  0.8090 -0.4708
 8420SOL     OW33451   0.274   1.189   4.971  0.0934 -0.1909 -0.2536
 8420SOL    HW233452   0.268   1.205   5.065  2.4069 -2.6480  0.4267
 8420SOL    HW333453   0.323   1.264   4.937 -1.4133  1.0971  0.3087
 8420SOL    MW433454   0.280   1.201   4.979  0.4752 -0.2061 -0.3822
 8421SOL     OW33455   5.558   3.745   4.231 -0.4539 -0.3343  0.0614
 8421SOL    HW233456   5.568   3.651   4.249  2.4495  0.0066  0.6849
 8421SOL    HW333457   5.517   3.748   4.144 -1.1584 -2.1520  0.2813
 8421SOL    MW433458   5.554   3.733   4.222  0.2237 -0.6442 -0.0295
 8422SOL     OW33459   0.708   0.352   4.079  0.0283  0.2087  0.1304
 8422SOL    HW233460   0.631   0.383   4.032  0.3976 -0.1872 -0.7626
 8422SOL    HW333461   0.678   0.272   4.123  0.6855 -1.8489 -2.8731
 8422SOL    MW433462   0.694   0.346   4.079  0.1988  0.5069  0.0946
 8423SOL     OW33463   6.155   1.200   0.879 -0.3111  0.1591  0.1017
 8423SOL    HW233464   6.176   1.125   0.936 -0.3907  0.5596  0.6743
 8423SOL    HW333465   6.210   1.271   0.913 -2.3144  1.1651  1.4657
 8423SOL    MW433466   6.165   1.200   0.891 -0.4747  0.4884 -0.7251
 8424SOL     OW33467   3.869   4.564   6.215  0.1496  0.7027  0.8673
 8424SOL    HW233468   3.859   4.485   6.267  0.5647  0.5263  0.6857
 8424SOL    HW333469   3.819   4.631   6.262 -1.5359 -0.0224  0.2197
 8424SOL    MW433470   3.861   4.563   6.228 -0.6757  0.8018  0.1384
 8425SOL     OW33471   1.680   6.357   2.921  0.4489 -0.1806 -0.0548
 8425SOL    HW233472   1.614   6.372   2.988  0.1059  0.5540 -0.5389
 8425SOL    HW333473   1.707   6.266   2.933  0.1391 -0.1598  0.8400
 8425SOL    MW433474   1.675   6.347   2.931 -0.7284 -0.0887  0.2156
 8426SOL     OW33475   3.372   1.912   5.201 -0.0997 -0.1272  0.3029
 8426SOL    HW233476   3.302   1.959   5.246  1.1692  3.1340 -0.7833
 8426SOL    HW333477   3.444   1.910   5.265  0.0348 -0.1039  0.1528
 8426SOL    MW433478   3.373   1.918   5.215  0.2675 -0.1136 -0.2583
 8427SOL     OW33479   2.179   2.038   1.328 -0.3430  0.1723  0.4619
 8427SOL    HW233480   2.272   2.043   1.347 -0.0243  0.6289 -1.1060
 8427SOL    HW333481   2.144   2.122   1.359 -0.4402 -0.3819  1.9428
 8427SOL    MW433482   2.186   2.050   1.335 -0.3171  0.3443 -0.0677
 8428SOL     OW33483   2.597   5.534   1.972 -0.2973 -0.0084 -0.1930
 8428SOL    HW233484   2.568   5.602   1.911 -0.1496 -0.7535 -1.1034
 8428SOL    HW333485   2.673   5.572   2.017 -1.2733  1.0988  0.5972
 8428SOL    MW433486   2.603   5.548   1.970 -0.7352 -0.3447  0.0207
 8429SOL     OW33487   5.526   0.540   2.945  0.1499 -0.0408  0.1733
 8429SOL    HW233488   5.480   0.599   2.884 -0.7348  0.8958  1.6664
 8429SOL    HW333489   5.472   0.542   3.024  1.2550 -1.2363  0.9845
 8429SOL    MW433490   5.513   0.548   2.947  0.3002 -0.1271 -1.0332
 8430SOL     OW33491   0.094   3.566   5.711 -0.3825 -0.4448 -0.3282
 8430SOL    HW233492   0.007   3.528   5.725  0.2073 -2.0649 -0.8573
 8430SOL    HW333493   0.082   3.659   5.729 -2.0103 -0.7756  0.5341
 8430SOL    MW433494   0.081   3.573   5.716  0.4676 -0.4508 -0.0402
 8431SOL     OW33495   5.456   2.596   5.661  0.0938 -0.1898  0.3397
 8431SOL    HW233496   5.435   2.684   5.690 -2.0320 -1.1114  1.8992
 8431SOL    HW333497   5.371   2.557   5.638  1.1193 -1.3894 -1.7923
 8431SOL    MW433498   5.442   2.602   5.662  0.0753  0.1970 -0.3073
 8432SOL     OW33499   4.855   5.298   4.304  0.4820  0.1890  0.3448
 8432SOL    HW233500   4.919   5.268   4.239  1.5161  1.2737  0.8317
 8432SOL    HW333501   4.803   5.364   4.258 -0.8774 -1.2635 -0.3009
 8432SOL    MW433502   4.857   5.303   4.290  0.4291 -0.2047  0.0766
 8433SOL     OW33503   1.340   1.734   3.262  0.3717 -0.1893 -0.0579
 8433SOL    HW233504   1.411   1.797   3.248 -1.4576  1.7199 -1.4077
 8433SOL    HW333505   1.267   1.787   3.293 -0.9275 -1.8716 -0.1081
 8433SOL    MW433506   1.340   1.749   3.264 -0.1069  0.4921 -0.1999
 8434SOL     OW33507   2.960   3.999   0.658  0.7659 -0.0192 -0.2725
 8434SOL    HW233508   2.960   3.908   0.630  0.5898  0.1484 -0.8323
 8434SOL    HW333509   3.052   4.022   0.667  0.9001  0.3159 -2.0613
 8434SOL    MW433510   2.972   3.990   0.655 -0.0946  0.1570 -0.3904
 8435SOL     OW33511   3.776   6.315   0.975  0.1557  0.1102  0.1889
 8435SOL    HW233512   3.864   6.336   0.943  0.6208  1.0012  1.9191
 8435SOL    HW333513   3.748   6.241   0.921  0.9051  1.4362 -2.1243
 8435SOL    MW433514   3.784   6.308   0.964  0.1225  0.3728 -0.2575
 8436SOL     OW33515   1.090   3.830   4.994  0.0174  0.6442  0.7235
 8436SOL    HW233516   1.062   3.835   5.085  0.4432  1.9950  0.8088
 8436SOL    HW333517   1.030   3.769   4.953 -1.6037  1.7188  1.4155
 8436SOL    MW433518   1.079   3.823   5.000  0.3943 -0.7756 -0.6167
 8437SOL     OW33519   1.253   6.131   6.131 -0.3517 -1.2325 -0.0264
 8437SOL    HW233520   1.336   6.172   6.159 -0.3770 -1.6148  0.6420
 8437SOL    HW333521   1.214   6.100   6.213 -1.2025 -0.9798 -0.3333
 8437SOL    MW433522   1.259   6.132   6.146  0.7063 -0.0885 -0.2221
 8438SOL     OW33523   6.263   4.733   3.336  0.1820  0.0701  0.0497
 8438SOL    HW233524   6.230   4.796   3.400  1.4559  1.1880 -0.3360
 8438SOL    HW333525   6.292   4.658   3.388 -0.9449 -0.0331  0.5527
 8438SOL    MW433526   6.263   4.731   3.351 -0.1876  0.1880 -0.1993
 8439SOL     OW33527   3.953   4.149   4.932 -0.0237 -0.2380  0.2445
 8439SOL    HW233528   3.942   4.216   4.865 -0.5261  0.7209  1.2453
 8439SOL    HW333529   3.874   4.096   4.926 -0.0487 -0.1802  0.0568
 8439SOL    MW433530   3.941   4.150   4.923  0.0155  0.1901 -0.3362
 8440SOL     OW33531   2.646   3.338   6.083  0.2395  0.1117 -0.5378
 8440SOL    HW233532   2.590   3.411   6.108 -0.9591 -1.1837  0.7246
 8440SOL    HW333533   2.590   3.260   6.093  1.5889 -1.0313 -1.4496
 8440SOL    MW433534   2.631   3.337   6.087 -0.0240 -0.4751  0.6656
 8441SOL     OW33535   3.826   0.306   2.445 -0.2144 -0.4930 -0.1890
 8441SOL    HW233536   3.773   0.239   2.488  1.4077 -0.5504  1.9107
 8441SOL    HW333537   3.862   0.358   2.517  1.1678  0.5947 -1.5947
 8441SOL    MW433538   3.824   0.304   2.460 -0.5209  0.1865 -0.6321
 8442SOL     OW33539   1.181   5.399   2.676 -0.7856  0.3604  0.2928
 8442SOL    HW233540   1.210   5.420   2.587 -0.0121  1.2218  0.7319
 8442SOL    HW333541   1.086   5.389   2.669 -0.7595  0.6320 -0.5813
 8442SOL    MW433542   1.173   5.400   2.664 -0.0831 -0.7908  0.1045
 8443SOL     OW33543   3.860   2.663   4.440 -0.5076 -0.0518  0.1611
 8443SOL    HW233544   3.869   2.619   4.355  1.4297  2.1132 -0.8452
 8443SOL    HW333545   3.876   2.594   4.504 -0.7307 -1.4667 -1.2342
 8443SOL    MW433546   3.863   2.648   4.437 -0.1040  0.5821  0.5230
 8444SOL     OW33547   0.629   6.209   5.714  0.1632  0.2439  0.3765
 8444SOL    HW233548   0.718   6.176   5.730 -0.1419 -1.2346 -0.7342
 8444SOL    HW333549   0.572   6.147   5.760 -0.3627  0.2457 -0.2659
 8444SOL    MW433550   0.633   6.197   5.723  0.1077 -0.3692 -0.0024
 8445SOL     OW33551   0.142   3.085   1.486  0.2406  0.1784  0.5363
 8445SOL    HW233552   0.207   3.050   1.546  2.7241  2.2446 -0.7707
 8445SOL    HW333553   0.124   3.173   1.518 -1.1776  0.0249  0.2565
 8445SOL    MW433554   0.148   3.092   1.498  0.9320  0.2871 -0.3077
 8446SOL     OW33555   0.673   4.421   4.674 -0.6826 -0.3296  0.2334
 8446SOL    HW233556   0.742   4.355   4.663  0.1306  0.7833 -2.1198
 8446SOL    HW333557   0.640   4.436   4.585 -0.1601  3.0866  0.4747
 8446SOL    MW433558   0.677   4.414   4.661  0.1596  0.1238  0.4278
 8447SOL     OW33559   1.119   5.819   4.172 -0.1478 -0.4949 -0.5373
 8447SOL    HW233560   1.065   5.759   4.120  0.5526 -0.2108 -1.6165
 8447SOL    HW333561   1.168   5.869   4.107  3.1063 -2.2255  0.4115
 8447SOL    MW433562   1.118   5.818   4.156 -0.2448 -0.0541  0.2274
 8448SOL     OW33563   2.953   2.678   3.006  0.0057 -0.5328 -0.3888
 8448SOL    HW233564   2.922   2.620   3.075 -0.1858  0.5230  0.4426
 8448SOL    HW333565   3.011   2.740   3.051  2.4594 -1.7190 -1.6786
 8448SOL    MW433566   2.957   2.678   3.021 -0.2799  0.4635 -0.2311
 8449SOL     OW33567   3.350   6.234   3.720  0.0576  0.2831 -0.1969
 8449SOL    HW233568   3.283   6.301   3.731 -0.4523 -0.5525  2.8279
 8449SOL    HW333569   3.306   6.152   3.743  1.8322 -0.4089  0.9989
 8449SOL    MW433570   3.335   6.232   3.725  0.3828 -0.6015  0.3478
 8450SOL     OW33571   2.386   6.147   5.277  0.4900 -0.3870  0.2196
 8450SOL    HW233572   2.367   6.082   5.210 -1.4688  0.4392 -0.0763
 8450SOL    HW333573   2.468   6.117   5.316  0.8657 -1.7408 -1.4700
 8450SOL    MW433574   2.395   6.135   5.273 -0.4283  0.2954 -0.2774
 8451SOL     OW33575   2.291   1.663   4.824  0.6249 -0.3764  0.4468
 8451SOL    HW233576   2.372   1.714   4.829 -0.1867  0.9269  0.4510
 8451SOL    HW333577   2.282   1.625   4.912  1.1902 -0.4870  0.4644
 8451SOL    MW433578   2.301   1.665   4.837 -0.1247  0.5398  0.5161
 8452SOL     OW33579   1.752   0.867   2.113  0.6714 -0.0246  0.2338
 8452SOL    HW233580   1.793   0.949   2.085 -1.2751  0.4839 -1.3650
 8452SOL    HW333581   1.659   0.879   2.094  0.4859 -3.1186 -1.5578
 8452SOL    MW433582   1.745   0.879   2.107 -0.3537  0.5056  0.1276
 8453SOL     OW33583   1.099   1.557   1.987  0.1545 -0.0942  0.6670
 8453SOL    HW233584   1.049   1.574   1.908 -1.6977 -1.9137  1.3659
 8453SOL    HW333585   1.157   1.484   1.964  2.8619  2.1228 -0.2035
 8453SOL    MW433586   1.100   1.550   1.974 -0.6565  0.0763  0.6376
 8454SOL     OW33587   5.161   5.445   5.858 -0.7010  0.2806 -0.4316
 8454SOL    HW233588   5.177   5.498   5.779 -1.8441  2.0803  0.4722
 8454SOL    HW333589   5.127   5.362   5.824  2.6153 -0.6232 -1.9801
 8454SOL    MW433590   5.158   5.441   5.843 -0.3420  0.3675 -0.8282
 8455SOL     OW33591   3.021   3.571   3.521  0.1824  0.1039  0.2841
 8455SOL    HW233592   3.088   3.591   3.586  0.8520 -0.9995 -0.0322
 8455SOL    HW333593   3.038   3.480   3.497 -0.5770  0.2368 -0.8178
 8455SOL    MW433594   3.032   3.561   3.526 -0.3738  0.0310 -0.0437
 8456SOL     OW33595   4.888   5.495   5.497  0.3231 -0.2159 -0.0869
 8456SOL    HW233596   4.798   5.504   5.529  0.7630 -0.0043  1.1042
 8456SOL    HW333597   4.912   5.583   5.469  0.2736 -0.2094 -0.1098
 8456SOL    MW433598   4.879   5.508   5.497 -0.3635 -0.0322  0.3884
 8457SOL     OW33599   1.507   5.515   5.955 -0.5789 -0.5138 -0.2550
 8457SOL    HW233600   1.433   5.576   5.949 -2.0417 -1.8768  2.2503
 8457SOL    HW333601   1.582   5.570   5.976 -1.4239  0.6352 -0.1447
 8457SOL    MW433602   1.507   5.530   5.957  0.3897  0.5939 -0.3056
 8458SOL     OW33603   4.623   0.381   2.697  0.2629 -0.0180 -0.1208
 8458SOL    HW233604   4.709   0.423   2.688  0.2905  0.3458  1.5974
 8458SOL    HW333605   4.636   0.292   2.664  1.8265 -0.5776  1.8303
 8458SOL    MW433606   4.636   0.375   2.691  0.8004  0.5487 -0.0565
 8459SOL     OW33607   2.080   1.122   4.529  0.1169  0.9276  0.6674
 8459SOL    HW233608   2.051   1.163   4.447  0.7028  1.1942  0.5804
 8459SOL    HW333609   2.000   1.092   4.571 -0.1142 -0.3342 -0.5848
 8459SOL    MW433610   2.066   1.124   4.523 -0.7906  0.0869 -0.1823
 8460SOL     OW33611   3.574   1.086   5.418  0.2555  0.3629  0.3068
 8460SOL    HW233612   3.502   1.114   5.362 -1.6390 -2.2367  1.2340
 8460SOL    HW333613   3.643   1.059   5.357 -0.2827  1.1068 -0.6521
 8460SOL    MW433614   3.574   1.086   5.403  0.0125 -0.2752 -0.7662
 8461SOL     OW33615   1.722   4.139   5.361  0.0599 -0.0088  0.9182
 8461SOL    HW233616   1.692   4.049   5.373  0.7217 -0.2492  0.8395
 8461SOL    HW333617   1.818   4.131   5.355  0.1094  0.6811  0.7464
 8461SOL    MW433618   1.731   4.126   5.362 -0.1340 -0.0271  0.1955
 8462SOL     OW33619   2.382   1.934   6.206  0.0658 -0.0129 -0.1844
 8462SOL    HW233620   2.338   2.016   6.227 -0.6762 -0.4072 -0.1762
 8462SOL    HW333621   2.458   1.931   6.264 -1.9113 -1.0719  2.5438
 8462SOL    MW433622   2.386   1.944   6.216  0.5273 -0.5910  0.2513
 8463SOL     OW33623   3.235   4.883   2.849 -0.3435 -0.3357  0.3243
 8463SOL    HW233624   3.190   4.910   2.768 -1.7091 -2.2227  0.3831
 8463SOL    HW333625   3.197   4.939   2.917 -1.1018 -0.4790  0.0354
 8463SOL    MW433626   3.224   4.894   2.847 -0.0739 -0.2320  0.5212
 8464SOL     OW33627   3.491   1.806   0.334  0.5016  0.4018  0.1470
 8464SOL    HW233628   3.473   1.729   0.388  2.0543  0.1049  0.2943
 8464SOL    HW333629   3.476   1.880   0.393 -0.0215  0.1779  0.3036
 8464SOL    MW433630   3.487   1.805   0.349  0.5303 -0.5435  0.3201
 8465SOL     OW33631   0.795   0.813   4.506  0.0311  0.4361 -0.1612
 8465SOL    HW233632   0.811   0.808   4.412 -0.8330  1.1280 -0.3583
 8465SOL    HW333633   0.700   0.811   4.514  0.1114 -0.4877  0.7656
 8465SOL    MW433634   0.785   0.812   4.495 -0.4979  0.5010 -0.2072
 8466SOL     OW33635   4.953   3.544   1.916  0.1792  0.5241 -0.0111
 8466SOL    HW233636   4.899   3.623   1.916  1.0271  1.2455  2.8541
 8466SOL    HW333637   4.912   3.488   1.982  1.3506 -0.0918  0.2141
 8466SOL    MW433638   4.940   3.547   1.925  0.5776  0.4979 -0.1435
 8467SOL     OW33639   1.600   3.098   3.422  0.2204  0.0379  0.0631
 8467SOL    HW233640   1.563   3.038   3.487  0.4513  0.1492  0.2993
 8467SOL    HW333641   1.547   3.085   3.344 -1.2179  1.1948  0.8081
 8467SOL    MW433642   1.588   3.088   3.421 -0.7874  0.4307  0.5810
 8468SOL     OW33643   2.679   6.029   0.773 -0.3992 -0.0592 -0.2313
 8468SOL    HW233644   2.706   6.009   0.862  0.3511  0.1687 -0.4006
 8468SOL    HW333645   2.667   6.124   0.772 -1.1159 -0.1453 -0.1856
 8468SOL    MW433646   2.681   6.039   0.784  0.3673  0.2257 -0.4893
 8469SOL     OW33647   6.404   0.734   5.145 -0.4693  0.1790  0.1231
 8469SOL    HW233648   6.364   0.676   5.079  0.2892 -2.2603  1.6520
 8469SOL    HW333649   6.482   0.768   5.102 -1.5162  1.0581 -1.2011
 8469SOL    MW433650   6.409   0.731   5.130 -0.4900  0.4996 -0.2045
 8470SOL     OW33651   2.791   2.458   4.965 -0.2779  0.0118  0.8102
 8470SOL    HW233652   2.699   2.454   4.939 -0.0239 -1.2583  0.0449
 8470SOL    HW333653   2.788   2.480   5.058 -1.3710 -0.4090  0.8891
 8470SOL    MW433654   2.778   2.461   4.974 -0.3066 -0.5410  0.3299
 8471SOL     OW33655   3.625   3.079   0.246 -0.3257 -0.6684  0.2154
 8471SOL    HW233656   3.580   3.049   0.324 -1.0240 -1.3618 -0.4318
 8471SOL    HW333657   3.557   3.084   0.179  0.4052 -0.9526 -0.5768
 8471SOL    MW433658   3.610   3.075   0.247 -0.2905 -0.0086  0.2986
 8472SOL     OW33659   3.925   1.548   2.417 -0.1808 -0.1646 -0.3263
 8472SOL    HW233660   3.942   1.455   2.432 -1.7446 -0.7655 -1.9038
 8472SOL    HW333661   3.997   1.578   2.361  0.2135 -0.4734  0.0138
 8472SOL    MW433662   3.937   1.540   2.412  0.7085  0.1083  0.2599
 8473SOL     OW33663   2.700   6.094   4.953  0.3158  0.2372  0.5386
 8473SOL    HW233664   2.686   6.187   4.968 -1.5215 -0.0094  0.5735
 8473SOL    HW333665   2.717   6.057   5.039  2.9663  0.7649  0.3348
 8473SOL    MW433666   2.701   6.101   4.966  0.0007  0.0033 -0.4018
 8474SOL     OW33667   6.368   3.523   2.412  0.2847  0.2949  0.0661
 8474SOL    HW233668   6.449   3.568   2.433  1.0017 -1.2276  0.6822
 8474SOL    HW333669   6.308   3.546   2.483  0.8151 -0.1300  0.6568
 8474SOL    MW433670   6.371   3.532   2.424 -0.2371  0.7194  0.0257
 8475SOL     OW33671   0.767   3.546   3.712 -0.2347  0.0118 -0.1108
 8475SOL    HW233672   0.690   3.531   3.767  0.2176 -0.0077  0.5164
 8475SOL    HW333673   0.769   3.469   3.654  0.1050 -0.6791  0.8001
 8475SOL    MW433674   0.757   3.534   3.711  0.0684 -0.0810  0.3864
 8476SOL     OW33675   3.745   0.391   1.492  0.3860  0.0776 -0.5405
 8476SOL    HW233676   3.804   0.361   1.561 -0.8956  0.1067  0.5840
 8476SOL    HW333677   3.694   0.314   1.469  2.2162 -0.5408 -3.0323
 8476SOL    MW433678   3.746   0.377   1.498  0.1142  0.0939  0.0783
 8477SOL     OW33679   3.173   4.755   5.036  0.3047 -0.0926 -0.0953
 8477SOL    HW233680   3.265   4.779   5.048  0.4635 -1.5617  2.2522
 8477SOL    HW333681   3.160   4.757   4.941  2.9216 -0.3473 -0.5333
 8477SOL    MW433682   3.183   4.758   5.025 -0.0308  0.0532  0.7699
 8478SOL     OW33683   5.203   2.087   3.531 -0.1988  0.0343 -0.0440
 8478SOL    HW233684   5.166   2.058   3.448  2.3738 -0.1948 -1.2039
 8478SOL    HW333685   5.209   2.007   3.583 -1.7130  0.1597  0.3702
 8478SOL    MW433686   5.199   2.072   3.527  0.2320 -0.0892  0.3767
 8479SOL     OW33687   0.742   0.749   1.139  0.4542 -0.0626  0.3806
 8479SOL    HW233688   0.673   0.756   1.206  1.5533  2.5932  1.3463
 8479SOL    HW333689   0.695   0.729   1.058 -1.1859 -0.6905  1.4365
 8479SOL    MW433690   0.726   0.747   1.137 -0.4657 -0.1988  0.1608
 8480SOL     OW33691   4.416   0.459   0.208 -0.1363  0.0568  0.3475
 8480SOL    HW233692   4.367   0.480   0.129  2.1483  0.5373 -1.0270
 8480SOL    HW333693   4.503   0.496   0.193  0.2892  0.4776  3.2463
 8480SOL    MW433694   4.421   0.467   0.196  0.1742  0.6523 -0.2098
 8481SOL     OW33695   1.871   2.171   3.074  0.0037 -0.6850 -0.4098
 8481SOL    HW233696   1.839   2.115   3.004 -0.7101 -1.2325  0.3321
 8481SOL    HW333697   1.928   2.114   3.126  0.3989 -0.3279 -0.4474
 8481SOL    MW433698   1.874   2.156   3.072 -0.3936  0.2238  0.1681
 8482SOL     OW33699   0.087   1.287   0.699  0.6201 -0.1695 -0.3647
 8482SOL    HW233700   0.119   1.198   0.712 -0.3145 -0.2887  1.4159
 8482SOL    HW333701   0.102   1.304   0.606  1.6796 -1.8261 -0.5420
 8482SOL    MW433702   0.093   1.277   0.688  0.3007 -0.5496  0.1760
 8483SOL     OW33703   1.121   4.736   2.892 -0.0479 -0.1034  0.2363
 8483SOL    HW233704   1.128   4.707   2.801 -0.9287 -0.1384  0.1741
 8483SOL    HW333705   1.138   4.656   2.944 -2.5560 -0.8251  0.0649
 8483SOL    MW433706   1.124   4.721   2.887 -1.1303  0.0303  1.0556
 8484SOL     OW33707   0.829   5.620   0.789 -0.1465  0.1065 -0.1008
 8484SOL    HW233708   0.915   5.634   0.750 -0.1126 -1.8356 -0.8337
 8484SOL    HW333709   0.791   5.708   0.796  1.2373  0.8358 -1.2795
 8484SOL    MW433710   0.835   5.633   0.785 -0.4009  0.0171 -0.5754
 8485SOL     OW33711   4.072   5.753   4.919 -0.4953  0.2372  0.3824
 8485SOL    HW233712   4.060   5.692   4.992 -1.4422  0.7238  0.6466
 8485SOL    HW333713   3.986   5.792   4.906  0.2517  2.0556  0.6833
 8485SOL    MW433714   4.059   5.750   4.927 -0.3614  0.0071  0.5655
 8486SOL     OW33715   0.147   0.297   4.523 -0.4924 -0.4562 -0.0258
 8486SOL    HW233716   0.096   0.224   4.558 -1.4428  0.9943  1.7205
 8486SOL    HW333717   0.119   0.304   4.431  0.8628 -3.2903 -0.7680
 8486SOL    MW433718   0.137   0.288   4.515 -0.0821  0.2366 -0.2777
 8487SOL     OW33719   0.671   4.950   1.214 -0.1254 -0.0279 -0.0780
 8487SOL    HW233720   0.766   4.939   1.214 -0.1613 -0.6019 -2.0734
 8487SOL    HW333721   0.656   5.037   1.177 -0.4063 -0.9829 -2.3708
 8487SOL    MW433722   0.681   4.960   1.209  0.4570 -0.4192  0.4334
 8488SOL     OW33723   1.390   4.510   4.249  0.1784 -0.4303 -0.5795
 8488SOL    HW233724   1.357   4.596   4.274 -0.7151 -0.8294 -0.3429
 8488SOL    HW333725   1.358   4.451   4.317 -1.2509 -1.3331 -1.9734
 8488SOL    MW433726   1.382   4.513   4.261  0.2038 -0.0991  0.1693
 8489SOL     OW33727   3.319   0.877   4.960 -0.1016 -0.6485  0.2811
 8489SOL    HW233728   3.315   0.919   5.046  0.5664  0.2578 -0.1128
 8489SOL    HW333729   3.328   0.950   4.898  0.9133 -1.3657 -0.4404
 8489SOL    MW433730   3.319   0.892   4.963  0.1932  0.1558 -0.6069
 8490SOL     OW33731   0.721   6.215   0.877  0.2729 -0.2236  0.5165
 8490SOL    HW233732   0.640   6.210   0.826  0.5135  0.8234  0.0020
 8490SOL    HW333733   0.782   6.158   0.831  0.3014  0.2348 -0.0212
 8490SOL    MW433734   0.718   6.207   0.864  0.2459  0.5116 -0.7420
 8491SOL     OW33735   4.371   0.747   3.396 -0.2459  0.2538  0.3321
 8491SOL    HW233736   4.315   0.812   3.439 -0.8738 -0.6944  1.0157
 8491SOL    HW333737   4.340   0.663   3.431  0.4981 -0.4146 -0.5727
 8491SOL    MW433738   4.360   0.744   3.406  0.1571 -0.8001  0.5032
 8492SOL     OW33739   1.375   1.585   1.049  0.3157  0.4311  0.2296
 8492SOL    HW233740   1.359   1.559   0.958 -0.0080  1.4720 -0.0219
 8492SOL    HW333741   1.355   1.678   1.051 -0.9039  0.1645  1.6597
 8492SOL    MW433742   1.370   1.594   1.037 -0.3010 -0.0547  0.1969
 8493SOL     OW33743   2.623   5.102   2.272  0.1723 -0.4298 -0.2462
 8493SOL    HW233744   2.679   5.038   2.227 -1.1195 -1.3056 -0.6580
 8493SOL    HW333745   2.598   5.164   2.203  1.0003  0.2530  0.0437
 8493SOL    MW433746   2.627   5.102   2.257  0.0227 -0.6623 -0.3074
 8494SOL     OW33747   3.764   5.390   2.960  0.2068  0.0853 -0.5598
 8494SOL    HW233748   3.852   5.418   2.982 -0.3896  0.3812  1.6913
 8494SOL    HW333749   3.777   5.312   2.905  1.9781 -2.3643  2.9607
 8494SOL    MW433750   3.777   5.383   2.955 -0.5661 -0.3410 -0.0663
 8495SOL     OW33751   0.979   5.632   3.864  0.2627 -0.4993  0.8787
 8495SOL    HW233752   0.893   5.668   3.885  0.9454  1.2892  0.7916
 8495SOL    HW333753   0.970   5.538   3.878 -1.7065 -0.3524  0.8204
 8495SOL    MW433754   0.967   5.625   3.869 -0.1135 -0.0951 -0.1328
 8496SOL     OW33755   1.861   5.080   2.943 -0.2173 -0.2314  0.3387
 8496SOL    HW233756   1.850   5.175   2.945  1.1027  0.0105 -1.5687
 8496SOL    HW333757   1.797   5.050   2.879  0.5297 -0.4157 -0.3337
 8496SOL    MW433758   1.851   5.089   2.935 -0.0447  0.2846 -0.1197
 8497SOL     OW33759   0.450   0.260   3.081 -1.3660  0.7130 -0.1827
 8497SOL    HW233760   0.492   0.340   3.050 -0.5457  0.5242  0.3940
 8497SOL    HW333761   0.463   0.197   3.009 -1.4391  0.9041 -0.3658
 8497SOL    MW433762   0.458   0.262   3.067 -0.5609  0.2033  0.2606
 8498SOL     OW33763   4.624   1.129   3.203  0.1986  0.7119 -0.2014
 8498SOL    HW233764   4.594   1.169   3.121  2.3584  1.3064 -0.7675
 8498SOL    HW333765   4.720   1.133   3.198  0.4145 -0.8199  1.5964
 8498SOL    MW433766   4.633   1.135   3.191 -0.5634 -0.2170  0.3285
 8499SOL     OW33767   2.109   2.273   5.028  0.0117  0.5268 -0.2548
 8499SOL    HW233768   2.156   2.218   4.965  1.0301 -0.7790  1.5284
 8499SOL    HW333769   2.063   2.211   5.085 -0.8105  1.6414  0.3488
 8499SOL    MW433770   2.109   2.257   5.027  0.1116  0.1083  0.6098
 8500SOL     OW33771   3.102   3.893   3.653  0.0874 -0.0319 -0.2869
 8500SOL    HW233772   3.009   3.885   3.635  0.1671 -0.4754 -0.5114
 8500SOL    HW333773   3.108   3.908   3.747 -0.0577 -3.0266  0.2710
 8500SOL    MW433774   3.091   3.894   3.663 -0.1926 -0.0055  0.5979
 8501SOL     OW33775   4.502   4.359   6.153  0.0877 -0.0488  0.3537
 8501SOL    HW233776   4.542   4.287   6.104 -1.1696 -1.1047  0.8245
 8501SOL    HW333777   4.423   4.321   6.191  0.8853  0.7583  3.0599
 8501SOL    MW433778   4.497   4.344   6.151  0.2499  0.9431  0.0133
 8502SOL     OW33779   5.931   1.984   2.685  0.1783  0.7572  0.0119
 8502SOL    HW233780   5.959   1.931   2.610 -1.2286 -0.0012 -0.0023
 8502SOL    HW333781   5.978   2.067   2.674  1.0563  0.1641 -0.9378
 8502SOL    MW433782   5.941   1.988   2.673 -0.0843 -0.0592  0.0957
 8503SOL     OW33783   1.201   0.151   1.414  0.2189 -0.9572 -0.0395
 8503SOL    HW233784   1.218   0.092   1.488 -0.6020  0.0067  0.9491
 8503SOL    HW333785   1.110   0.178   1.425  0.3233 -0.1679 -0.9616
 8503SOL    MW433786   1.191   0.147   1.425  0.0124  0.1517  0.0103
 8504SOL     OW33787   0.103   0.888   1.479 -0.6356  0.0595  0.7370
 8504SOL    HW233788   0.133   0.933   1.557 -1.1069 -1.1668  1.6659
 8504SOL    HW333789   0.009   0.876   1.492 -0.7733  0.0701 -0.1407
 8504SOL    MW433790   0.094   0.892   1.491 -0.3226 -0.4152 -0.0305
 8505SOL     OW33791   5.470   1.033   1.963 -0.1251 -0.0927 -0.3125
 8505SOL    HW233792   5.546   0.980   1.939 -0.6133 -0.6208 -0.7215
 8505SOL    HW333793   5.495   1.075   2.046  0.8466  0.2363 -0.7483
 8505SOL    MW433794   5.483   1.032   1.971  0.1104 -0.5891 -0.1274
 8506SOL     OW33795   5.510   1.248   0.084  0.0379 -0.1060  0.5565
 8506SOL    HW233796   5.485   1.237  -0.008 -1.4853 -3.5347  1.2290
 8506SOL    HW333797   5.487   1.339   0.105 -0.1702  0.5645 -2.2389
 8506SOL    MW433798   5.503   1.259   0.075  0.0020  0.5392  0.0644
 8507SOL     OW33799   3.088   5.923   1.115 -0.0556 -0.2281  0.3835
 8507SOL    HW233800   3.153   5.943   1.048  0.5729 -2.5435  0.1975
 8507SOL    HW333801   3.057   6.008   1.145  1.2891  0.9043 -1.2402
 8507SOL    MW433802   3.093   5.937   1.110 -0.1032 -0.6037  0.0500
 8508SOL     OW33803   2.193   6.108   4.202  0.0363  0.1055 -0.3072
 8508SOL    HW233804   2.103   6.134   4.221 -0.3009 -2.1019  1.4832
 8508SOL    HW333805   2.240   6.191   4.194 -1.9856  1.3026 -0.5968
 8508SOL    MW433806   2.187   6.123   4.203 -0.5360  0.2686  0.0026
 8509SOL     OW33807   4.900   3.768   3.160  0.2686 -0.3969 -0.1646
 8509SOL    HW233808   4.820   3.788   3.112  0.0614 -0.8072  0.0042
 8509SOL    HW333809   4.970   3.803   3.106 -0.0086 -0.2831 -0.4502
 8509SOL    MW433810   4.899   3.775   3.147 -0.4384 -0.1960  0.2040
 8510SOL     OW33811   5.680   3.725   0.436  0.1560  0.4564  0.3473
 8510SOL    HW233812   5.664   3.659   0.504 -0.2666 -0.5000 -0.6420
 8510SOL    HW333813   5.612   3.791   0.451  0.1584  0.3356  0.9376
 8510SOL    MW433814   5.669   3.725   0.447  0.6238  0.1079  0.1770
 8511SOL     OW33815   0.410   3.175   5.043 -0.2425 -0.1142 -0.2679
 8511SOL    HW233816   0.373   3.264   5.046  0.2016  0.0552  2.6079
 8511SOL    HW333817   0.347   3.121   5.090  0.1895 -1.0762 -0.7582
 8511SOL    MW433818   0.396   3.180   5.049 -0.2045  0.2553 -0.8815
 8512SOL     OW33819   6.195   6.403   2.784  0.1834  0.0056 -0.0299
 8512SOL    HW233820   6.155   6.487   2.763 -0.4121 -0.2079  0.2022
 8512SOL    HW333821   6.140   6.368   2.854  1.1918  0.0040  0.7920
 8512SOL    MW433822   6.182   6.409   2.791  0.7183  0.0129 -0.1474
 8513SOL     OW33823   2.887   4.864   0.262  0.1721  0.5654  0.2168
 8513SOL    HW233824   2.813   4.878   0.203 -0.7385 -0.4173  1.0933
 8513SOL    HW333825   2.919   4.952   0.281 -1.7997  1.1383  1.1123
 8513SOL    MW433826   2.881   4.878   0.257  0.0380 -0.1994  0.1534
 8514SOL     OW33827   3.580   2.530   2.420  0.0497 -0.1786  0.3945
 8514SOL    HW233828   3.526   2.512   2.343 -0.8207 -0.7238  1.1155
 8514SOL    HW333829   3.520   2.570   2.483 -0.1685 -2.9145  2.0972
 8514SOL    MW433830   3.565   2.533   2.418  0.2675  0.0184  0.1684
 8515SOL     OW33831   0.751   4.506   6.145 -0.0968 -0.3556  0.1043
 8515SOL    HW233832   0.752   4.529   6.052  2.4524  0.1636  0.1893
 8515SOL    HW333833   0.809   4.430   6.152  0.6009  0.2563  1.3836
 8515SOL    MW433834   0.759   4.499   6.134 -0.2146  0.3412  0.0727
 8516SOL     OW33835   1.014   3.666   5.239  0.0323 -0.4421 -0.6108
 8516SOL    HW233836   0.939   3.661   5.297 -0.9134  0.0820 -1.7433
 8516SOL    HW333837   1.090   3.667   5.297 -0.8945  0.6912  0.6249
 8516SOL    MW433838   1.014   3.665   5.254  0.4766 -0.0890 -0.4600
 8517SOL     OW33839   3.818   3.961   5.267  0.4101  0.1324  0.1634
 8517SOL    HW233840   3.787   4.048   5.242  1.3537  0.6210  0.6011
 8517SOL    HW333841   3.746   3.923   5.317 -0.0029  0.6778 -0.0088
 8517SOL    MW433842   3.805   3.968   5.270  0.3516 -0.5359  0.0101
 8518SOL     OW33843   1.111   4.590   5.881  0.3300 -0.3125 -0.5911
 8518SOL    HW233844   1.190   4.642   5.867 -0.0641  0.5305  0.2078
 8518SOL    HW333845   1.143   4.505   5.910  0.9383  0.0664 -0.1326
 8518SOL    MW433846   1.126   4.586   5.883 -0.8828 -0.2487  0.9481
 8519SOL     OW33847   0.363   6.014   0.625 -0.3273  0.3295 -0.0301
 8519SOL    HW233848   0.395   6.101   0.648 -0.4977  0.3547  0.1161
 8519SOL    HW333849   0.409   5.991   0.545  0.2965  0.2392  0.3460
 8519SOL    MW433850   0.373   6.022   0.618 -0.6534  0.5654 -0.3254
 8520SOL     OW33851   5.631   4.745   5.364 -0.0638  0.2256 -0.6159
 8520SOL    HW233852   5.701   4.775   5.422 -2.2561  0.8326  1.9122
 8520SOL    HW333853   5.667   4.668   5.320  2.3254  0.8019  0.1974
 8520SOL    MW433854   5.645   4.739   5.366 -0.1646 -0.1680  0.4666
 8521SOL     OW33855   1.798   3.719   0.846  0.2149 -0.3911 -0.3483
 8521SOL    HW233856   1.807   3.813   0.837 -0.4019 -0.2702  0.2313
 8521SOL    HW333857   1.781   3.705   0.939 -0.1172 -1.0404 -0.5008
 8521SOL    MW433858   1.797   3.729   0.857  0.1037 -0.4472  0.2823
 8522SOL     OW33859   6.207   0.366   1.783  0.4745  0.1651  0.0200
 8522SOL    HW233860   6.205   0.297   1.716 -2.2656  0.3425 -0.1808
 8522SOL    HW333861   6.161   0.328   1.858  0.4477  1.1996  0.5402
 8522SOL    MW433862   6.201   0.352   1.784  0.2952  0.0475 -0.3182
 8523SOL     OW33863   2.559   1.878   2.709 -0.4660 -0.5065 -0.6983
 8523SOL    HW233864   2.566   1.786   2.737  2.1718  0.0865  0.9527
 8523SOL    HW333865   2.508   1.920   2.778 -0.8981 -0.5370 -0.9935
 8523SOL    MW433866   2.553   1.871   2.722  0.3826  0.3345 -0.0550
 8524SOL     OW33867   2.031   3.526   1.130  0.7519 -0.1301 -0.1814
 8524SOL    HW233868   2.113   3.566   1.104  2.1898 -3.4276 -1.2804
 8524SOL    HW333869   2.001   3.479   1.052 -1.3587 -0.3196  0.6671
 8524SOL    MW433870   2.038   3.525   1.117 -0.0890  0.0543  0.0164
 8525SOL     OW33871   1.197   5.671   5.157  0.0134 -0.7462 -0.1381
 8525SOL    HW233872   1.109   5.637   5.144  0.0220 -1.5700  1.6640
 8525SOL    HW333873   1.251   5.623   5.094 -0.1037 -3.6164  1.7716
 8525SOL    MW433874   1.193   5.661   5.147 -0.7747  0.2918  0.0284
 8526SOL     OW33875   4.633   3.109   6.167 -0.2309  0.6670  0.5645
 8526SOL    HW233876   4.672   3.071   6.088 -1.3821  0.7317 -0.0689
 8526SOL    HW333877   4.598   3.194   6.138 -1.4713  0.2995  0.8936
 8526SOL    MW433878   4.633   3.115   6.153  0.3980 -0.1740  0.6824
 8527SOL     OW33879   6.007   1.377   1.891 -0.3029  0.1379  0.5158
 8527SOL    HW233880   5.978   1.444   1.952 -1.2627  1.2169 -1.0394
 8527SOL    HW333881   6.053   1.313   1.945  0.9771  2.2128  2.0364
 8527SOL    MW433882   6.009   1.377   1.906  0.4783  0.3387  0.3040
 8528SOL     OW33883   1.086   0.117   2.722 -0.4502  0.3530  0.7210
 8528SOL    HW233884   1.095   0.087   2.632 -0.4592 -0.9326  1.1233
 8528SOL    HW333885   1.031   0.050   2.764  0.8430  0.0799  2.0597
 8528SOL    MW433886   1.080   0.104   2.716 -0.2771  0.0154  0.2328
 8529SOL     OW33887   3.509   3.926   0.547  0.5817  0.3743  0.5400
 8529SOL    HW233888   3.531   4.017   0.566 -0.6318  0.8748 -0.2728
 8529SOL    HW333889   3.537   3.913   0.457 -2.6274  1.2006 -0.7252
 8529SOL    MW433890   3.515   3.937   0.538 -0.1472 -0.0417 -0.3006
 8530SOL     OW33891   5.173   0.999   1.491  0.2746  0.1591 -0.2564
 8530SOL    HW233892   5.167   1.081   1.541  1.5042 -0.6732  1.3190
 8530SOL    HW333893   5.166   0.930   1.557 -1.1305 -1.0447 -1.6029
 8530SOL    MW433894   5.171   1.001   1.506 -0.8897 -0.0656 -0.0933
 8531SOL     OW33895   4.618   1.828   0.268 -0.2218 -0.2760 -0.1409
 8531SOL    HW233896   4.597   1.787   0.184  0.5043  0.5317 -0.7219
 8531SOL    HW333897   4.553   1.898   0.277 -0.1632 -0.2238 -0.1290
 8531SOL    MW433898   4.606   1.832   0.258 -0.2333  1.2322 -0.0364
 8532SOL     OW33899   0.337   2.222   3.353 -0.0200 -0.3588  0.1099
 8532SOL    HW233900   0.407   2.239   3.416  1.3323 -0.4242 -1.3083
 8532SOL    HW333901   0.258   2.213   3.407  0.6034  2.0533  1.6096
 8532SOL    MW433902   0.336   2.223   3.369 -0.0809  0.5361 -0.1948
 8533SOL     OW33903   6.005   1.810   3.582  0.1639 -0.1564 -0.3656
 8533SOL    HW233904   6.088   1.846   3.615  1.1037 -0.5266 -2.2271
 8533SOL    HW333905   5.978   1.872   3.514 -2.0913  0.9540  1.4197
 8533SOL    MW433906   6.013   1.823   3.578  0.2130 -0.0703  0.1298
 8534SOL     OW33907   0.603   3.716   2.228  0.6670 -0.1939 -0.3628
 8534SOL    HW233908   0.674   3.654   2.248 -0.6168 -1.1008  1.7552
 8534SOL    HW333909   0.648   3.791   2.188  2.9045 -0.5121  1.3291
 8534SOL    MW433910   0.619   3.718   2.225 -0.3553 -0.3640 -0.1817
 8535SOL     OW33911   5.027   4.445   5.560  0.0171 -0.3464  0.5566
 8535SOL    HW233912   5.118   4.469   5.541  0.1123 -0.8091  0.4264
 8535SOL    HW333913   4.989   4.526   5.595  0.0698  0.2865 -0.7674
 8535SOL    MW433914   5.034   4.459   5.562  0.3328  0.6540  0.2526
 8536SOL     OW33915   1.769   2.996   3.007  0.0911 -0.1256  0.3050
 8536SOL    HW233916   1.686   3.030   2.971  0.4574  2.5425  1.7019
 8536SOL    HW333917   1.836   3.034   2.951  0.4547 -0.7107  0.3387
 8536SOL    MW433918   1.767   3.006   2.995 -0.2291 -0.2123  0.2326
 8537SOL     OW33919   1.010   2.399   3.935  0.0714 -0.1637  0.2888
 8537SOL    HW233920   1.103   2.392   3.913 -0.4898 -1.9861 -1.8706
 8537SOL    HW333921   0.976   2.464   3.873 -0.2818 -0.1576  0.4854
 8537SOL    MW433922   1.018   2.407   3.924  0.1397  0.0203  0.3399
 8538SOL     OW33923   5.257   4.701   4.494 -0.1461 -0.1889  0.2475
 8538SOL    HW233924   5.333   4.748   4.529 -0.4684  0.3882  0.1899
 8538SOL    HW333925   5.218   4.658   4.570 -0.9003  1.1332  0.6379
 8538SOL    MW433926   5.262   4.701   4.508  0.0004  0.0403  0.3670
 8539SOL     OW33927   0.592   5.822   2.181  0.1312  0.5390  0.8280
 8539SOL    HW233928   0.593   5.794   2.090 -2.3035 -0.4207  1.0035
 8539SOL    HW333929   0.558   5.912   2.178 -3.5183 -0.6749  0.8705
 8539SOL    MW433930   0.587   5.830   2.169 -0.1110 -0.5001  0.1056
 8540SOL     OW33931   5.644   0.257   4.980 -0.3586  0.3390 -0.0255
 8540SOL    HW233932   5.695   0.278   4.902  0.3896 -1.0203  0.0729
 8540SOL    HW333933   5.698   0.288   5.053 -0.3748  0.2756  0.0134
 8540SOL    MW433934   5.658   0.264   4.979 -0.1311  0.6336  0.4638
 8541SOL     OW33935   6.385   6.010   2.775  0.0689 -0.0716  0.0532
 8541SOL    HW233936   6.454   5.944   2.770  0.9333  0.7762  0.6799
 8541SOL    HW333937   6.343   6.007   2.689  1.1283 -0.3246 -0.4640
 8541SOL    MW433938   6.388   6.001   2.763 -0.1225  0.4886  0.4215
 8542SOL     OW33939   2.714   3.780   4.058  0.4185 -0.8022 -0.5603
 8542SOL    HW233940   2.619   3.769   4.057  0.6097 -2.6790 -2.0182
 8542SOL    HW333941   2.740   3.751   4.145 -0.3577  0.2430  0.0515
 8542SOL    MW433942   2.705   3.775   4.069  0.4774  0.4473 -0.0761
 8543SOL     OW33943   3.422   2.651   2.592 -0.6576  0.4671 -0.2357
 8543SOL    HW233944   3.436   2.700   2.673  1.4830 -0.2534 -0.1027
 8543SOL    HW333945   3.332   2.671   2.567 -1.2914  0.9028  2.1705
 8543SOL    MW433946   3.412   2.660   2.600 -0.5143  0.1181 -0.6575
 8544SOL     OW33947   2.688   4.029   0.640 -0.1602 -0.2414  0.1283
 8544SOL    HW233948   2.658   3.943   0.667  1.1007 -0.9257 -0.5585
 8544SOL    HW333949   2.780   4.032   0.667  0.0212  0.5911 -0.5281
 8544SOL    MW433950   2.696   4.018   0.647 -0.1153  0.3021 -0.2145
 8545SOL     OW33951   4.321   5.822   0.151  0.0473 -0.5796 -0.8790
 8545SOL    HW233952   4.363   5.775   0.223  1.2251  0.9797 -0.4915
 8545SOL    HW333953   4.317   5.913   0.181 -1.4996 -0.2705 -1.8930
 8545SOL    MW433954   4.326   5.828   0.165  0.6121  0.0945 -0.3738
 8546SOL     OW33955   2.160   0.074   5.369  0.1662  0.4352  0.1413
 8546SOL    HW233956   2.095   0.004   5.373 -1.1840  1.5936 -0.6584
 8546SOL    HW333957   2.150   0.121   5.452  0.0202  0.5708  0.0482
 8546SOL    MW433958   2.150   0.071   5.380  0.1820 -0.2606  0.6416
 8547SOL     OW33959   2.063   5.633   4.647 -0.0788  0.2854 -0.5795
 8547SOL    HW233960   2.005   5.692   4.696  1.4929 -0.3987  2.3474
 8547SOL    HW333961   2.122   5.691   4.599 -1.2170  1.0068 -1.1325
 8547SOL    MW433962   2.063   5.648   4.648  0.5017  0.2042  0.5057
 8548SOL     OW33963   0.587   4.140   3.665 -0.2620 -0.0849  0.4602
 8548SOL    HW233964   0.656   4.191   3.622 -0.8014  0.7298  0.5374
 8548SOL    HW333965   0.524   4.206   3.695 -0.9580 -0.8020  0.5970
 8548SOL    MW433966   0.588   4.156   3.663 -0.4291 -0.8258  0.3236
 8549SOL     OW33967   1.724   3.145   5.569  0.5794  0.8079  0.2823
 8549SOL    HW233968   1.711   3.050   5.564  1.2873  0.7409 -0.4678
 8549SOL    HW333969   1.759   3.169   5.483  0.5812  1.7238  0.5306
 8549SOL    MW433970   1.727   3.136   5.557  0.1626  0.4567 -0.1628
 8550SOL     OW33971   5.429   2.182   4.598  0.0781 -0.3295 -0.0063
 8550SOL    HW233972   5.463   2.201   4.685 -0.1780 -0.5258  0.1355
 8550SOL    HW333973   5.490   2.226   4.539 -0.0184  0.2191  0.2899
 8550SOL    MW433974   5.441   2.191   4.601  0.0002 -0.0270  0.0170
 8551SOL     OW33975   3.927   1.485   4.880 -0.2508 -0.3908  0.2249
 8551SOL    HW233976   3.900   1.481   4.788  0.7847  2.0280 -0.2665
 8551SOL    HW333977   3.851   1.521   4.926  0.4324  2.0305 -0.3908
 8551SOL    MW433978   3.913   1.489   4.874 -0.1986 -0.3322  0.0789
 8552SOL     OW33979   2.664   4.118   4.553  0.3567 -0.3280 -0.7870
 8552SOL    HW233980   2.730   4.107   4.621 -1.4442  1.2313  1.3620
 8552SOL    HW333981   2.708   4.167   4.484  2.1383 -1.6571 -0.6725
 8552SOL    MW433982   2.679   4.123   4.553  0.4274  0.1421  0.6681
 8553SOL     OW33983   2.439   5.789   5.294 -0.0597  0.3291  0.1196
 8553SOL    HW233984   2.402   5.822   5.212  2.1038  0.3317 -0.9214
 8553SOL    HW333985   2.515   5.737   5.267 -0.8388 -1.9654  1.9891
 8553SOL    MW433986   2.444   5.787   5.280 -0.5395 -0.2345  0.3323
 8554SOL     OW33987   4.765   4.283   5.208  0.1460  0.1874 -0.0922
 8554SOL    HW233988   4.793   4.373   5.187  0.3464  0.3316  0.7786
 8554SOL    HW333989   4.697   4.294   5.274  0.1693 -0.3067  0.0141
 8554SOL    MW433990   4.760   4.297   5.214 -0.0243  0.0098 -0.0556
 8555SOL     OW33991   3.691   2.198   6.096 -0.2642 -0.8213 -0.0594
 8555SOL    HW233992   3.675   2.169   6.186  2.3677 -0.8638  0.4702
 8555SOL    HW333993   3.734   2.282   6.106 -1.0780 -0.2200 -1.3668
 8555SOL    MW433994   3.694   2.205   6.110 -0.4133  0.2595  0.3950
 8556SOL     OW33995   3.956   5.475   4.434 -0.2471  0.2009 -0.7492
 8556SOL    HW233996   3.942   5.394   4.386  0.2390 -0.5860  0.3926
 8556SOL    HW333997   4.005   5.531   4.374  0.7833 -0.9344 -0.9999
 8556SOL    MW433998   3.960   5.472   4.420 -0.0095  0.5349 -1.1502
 8557SOL     OW33999   5.827   4.285   2.184 -0.6595  0.1131  0.5059
 8557SOL    HW234000   5.857   4.286   2.093 -1.2888 -0.6935  0.2773
 8557SOL    HW334001   5.770   4.362   2.192  1.1837  1.5212  0.8776
 8557SOL    MW434002   5.823   4.295   2.173  0.0807  0.5935  0.2433
 8558SOL     OW34003   0.889   2.374   4.175  0.2704  0.5285  0.1622
 8558SOL    HW234004   0.938   2.390   4.095 -1.2895 -0.3126 -1.0110
 8558SOL    HW334005   0.956   2.369   4.244  1.8309 -0.6696 -1.3718
 8558SOL    MW434006   0.904   2.376   4.174 -0.1290 -0.4218  0.2848
 8559SOL     OW34007   2.778   1.472   3.154 -0.2694 -0.0022 -0.4169
 8559SOL    HW234008   2.827   1.470   3.072  0.2372 -0.5610 -0.1034
 8559SOL    HW334009   2.715   1.400   3.146  1.3596 -1.6113  0.6388
 8559SOL    MW434010   2.776   1.463   3.142 -0.3519  0.2099 -0.0516
 8560SOL     OW34011   5.894   5.358   4.594  0.3311 -0.2416 -0.0362
 8560SOL    HW234012   5.817   5.302   4.608 -0.6287  0.9842 -0.2331
 8560SOL    HW334013   5.964   5.297   4.570 -0.2759 -1.5038  1.2142
 8560SOL    MW434014   5.893   5.343   4.593  0.5439 -0.3422 -0.1743
 8561SOL     OW34015   2.211   2.063   0.109  0.1076  0.3402  0.3315
 8561SOL    HW234016   2.287   2.121   0.107  0.2322  0.1878  0.5308
 8561SOL    HW334017   2.170   2.073   0.024  1.3481 -0.8976 -0.4563
 8561SOL    MW434018   2.216   2.072   0.098  0.1786 -0.1223 -0.5655
 8562SOL     OW34019   4.125   3.016   4.744 -0.3533 -0.2100 -0.0646
 8562SOL    HW234020   4.066   2.994   4.672  0.4671  0.7089 -1.0622
 8562SOL    HW334021   4.203   2.962   4.728  0.4431  1.1046 -0.7733
 8562SOL    MW434022   4.128   3.006   4.732  0.1249  0.2431 -0.1174
 8563SOL     OW34023   2.837   5.089   6.325 -0.0292 -0.4769 -0.4123
 8563SOL    HW234024   2.900   5.160   6.335 -0.3308 -0.2683 -0.0010
 8563SOL    HW334025   2.751   5.130   6.334 -0.2087 -1.2630  2.7403
 8563SOL    MW434026   2.834   5.103   6.328 -0.1396  0.2858  0.4465
 8564SOL     OW34027   5.815   5.996   5.999  0.4282 -0.6097 -0.6458
 8564SOL    HW234028   5.730   5.968   6.034  0.9717  0.3284  1.5616
 8564SOL    HW334029   5.793   6.063   5.934 -0.5299 -0.7144 -0.4458
 8564SOL    MW434030   5.801   6.001   5.995  1.1273 -0.1071  0.1593
 8565SOL     OW34031   6.054   4.457   2.868 -0.6716  0.1788 -0.5535
 8565SOL    HW234032   6.082   4.473   2.779  0.8516  2.7900  0.3040
 8565SOL    HW334033   6.101   4.521   2.921 -1.8089 -1.0010  2.1043
 8565SOL    MW434034   6.064   4.467   2.863 -0.6451 -0.1687 -0.2577
 8566SOL     OW34035   2.207   1.470   1.018 -0.1282  0.0298  0.0997
 8566SOL    HW234036   2.207   1.472   1.114 -0.8439  0.5108  0.1005
 8566SOL    HW334037   2.276   1.408   0.995 -0.7555 -1.0298  0.9521
 8566SOL    MW434038   2.216   1.462   1.028  0.1967  0.6114 -0.0068
 8567SOL     OW34039   4.336   3.940   1.669  0.3486  0.0738 -0.3436
 8567SOL    HW234040   4.358   3.847   1.660  0.0481  0.1364 -2.1290
 8567SOL    HW334041   4.365   3.964   1.757 -1.1961 -2.1525  0.8738
 8567SOL    MW434042   4.343   3.931   1.679 -0.1524 -0.5348  0.1045
 8568SOL     OW34043   4.105   4.356   4.283 -0.3314  0.0092  0.0227
 8568SOL    HW234044   4.149   4.441   4.279 -1.0316  0.3416 -1.0675
 8568SOL    HW334045   4.122   4.324   4.371  2.0685  0.1206 -0.3367
 8568SOL    MW434046   4.113   4.363   4.294 -0.1380  0.0457 -0.2212
 8569SOL     OW34047   4.481   4.535   2.880  0.4532  0.1358  0.0076
 8569SOL    HW234048   4.486   4.603   2.947  2.6138 -0.6448  0.7239
 8569SOL    HW334049   4.458   4.455   2.927 -1.1409  0.1615 -0.6830
 8569SOL    MW434050   4.479   4.533   2.895 -0.4005 -0.1697  0.0405
 8570SOL     OW34051   1.028   3.016   1.696  0.1117 -0.7079 -0.1590
 8570SOL    HW234052   1.047   3.097   1.649 -3.6652  1.1063  1.0199
 8570SOL    HW334053   1.114   2.980   1.719  1.9919  1.2293 -3.4081
 8570SOL    MW434054   1.042   3.022   1.693  0.6330 -0.1615 -0.2848
 8571SOL     OW34055   1.237   3.320   3.694  0.3835  0.2517  0.0267
 8571SOL    HW234056   1.320   3.351   3.732  0.3777 -0.9517  1.0667
 8571SOL    HW334057   1.260   3.294   3.605  1.1750 -0.2502  0.3682
 8571SOL    MW434058   1.251   3.321   3.688  0.1593  0.2856  0.7253
 8572SOL     OW34059   1.429   0.670   5.986 -0.7552 -0.0911  0.1125
 8572SOL    HW234060   1.521   0.690   6.004 -1.3861  0.7777  2.7333
 8572SOL    HW334061   1.420   0.682   5.891  1.3598  1.7888  0.0714
 8572SOL    MW434062   1.440   0.674   5.976  0.4598 -0.8542  0.1397
 8573SOL     OW34063   5.601   3.215   5.218 -0.3091 -0.1039  0.7389
 8573SOL    HW234064   5.622   3.164   5.296 -2.9892  1.2797  2.4953
 8573SOL    HW334065   5.636   3.163   5.146 -0.6917 -3.1687  2.5848
 8573SOL    MW434066   5.609   3.201   5.219 -0.3038 -0.3934  0.1177
 8574SOL     OW34067   4.979   0.118   0.558 -0.1171 -0.2852  0.4131
 8574SOL    HW234068   5.036   0.141   0.485 -0.7980  1.7991  0.4642
 8574SOL    HW334069   5.033   0.133   0.636 -0.5710  1.4425  0.4505
 8574SOL    MW434070   4.994   0.123   0.558  0.3677 -1.0070 -0.1264
 8575SOL     OW34071   2.960   0.659   4.107  0.9544 -0.5965  0.2437
 8575SOL    HW234072   3.028   0.596   4.131 -0.2183 -2.0164 -0.0482
 8575SOL    HW334073   2.888   0.640   4.168  0.6985  0.6930  0.3606
 8575SOL    MW434074   2.960   0.648   4.119  0.2052 -0.1419  0.3835
 8576SOL     OW34075   0.759   5.904   2.799  0.1595  0.2001 -0.0861
 8576SOL    HW234076   0.673   5.892   2.840  1.2034 -0.0557  2.2048
 8576SOL    HW334077   0.793   5.986   2.837  1.6641 -0.6549  0.5080
 8576SOL    MW434078   0.752   5.914   2.810  0.3293  0.3578 -0.4171
 8577SOL     OW34079   1.292   4.114   5.368  0.6741 -0.4797 -0.1989
 8577SOL    HW234080   1.249   4.076   5.445  0.2624 -1.8943 -1.0928
 8577SOL    HW334081   1.221   4.157   5.320  1.0278  0.9062  0.4692
 8577SOL    MW434082   1.277   4.114   5.372  0.1358 -0.1756 -0.0582
 8578SOL     OW34083   4.155   1.388   4.581 -0.0574 -0.4160  0.3683
 8578SOL    HW234084   4.140   1.456   4.647 -1.7103 -0.9725  0.6145
 8578SOL    HW334085   4.170   1.308   4.632 -0.2674 -0.6427  0.0763
 8578SOL    MW434086   4.155   1.386   4.597  0.8609  0.3969  0.3873
 8579SOL     OW34087   3.176   5.046   3.739  0.2184 -0.1601  0.0192
 8579SOL    HW234088   3.120   5.118   3.768 -1.2758 -1.0629 -0.4944
 8579SOL    HW334089   3.231   5.084   3.670 -1.2349  0.3013 -0.9451
 8579SOL    MW434090   3.176   5.061   3.733 -0.5868  0.2729 -0.1395
 8580SOL     OW34091   1.576   6.293   3.388  0.0661  0.8799 -0.1757
 8580SOL    HW234092   1.594   6.323   3.477 -2.7123  1.7406  0.1753
 8580SOL    HW334093   1.637   6.220   3.375  2.3292  2.3546  1.4276
 8580SOL    MW434094   1.587   6.287   3.398 -0.2082 -0.0141 -0.4736
 8581SOL     OW34095   5.883   1.537   4.704 -0.4518 -0.4259 -0.9703
 8581SOL    HW234096   5.972   1.573   4.703 -1.2417  1.7684  0.3360
 8581SOL    HW334097   5.879   1.485   4.784 -0.5709  0.2159 -0.5463
 8581SOL    MW434098   5.894   1.535   4.715 -0.1377 -0.1924 -0.0818
 8582SOL     OW34099   5.255   5.730   5.055 -0.3670  0.4755  0.4314
 8582SOL    HW234100   5.327   5.790   5.075 -0.2326  0.2244  0.7017
 8582SOL    HW334101   5.176   5.784   5.063 -0.1532  1.0865 -1.1121
 8582SOL    MW434102   5.254   5.745   5.059 -0.8302 -0.5288  0.2224
 8583SOL     OW34103   4.679   6.084   4.256  0.1411 -0.0887 -0.2473
 8583SOL    HW234104   4.756   6.028   4.265 -0.9336 -1.7138 -0.6484
 8583SOL    HW334105   4.607   6.023   4.242 -1.2152  1.3839  0.0011
 8583SOL    MW434106   4.680   6.069   4.255 -0.1406  0.2514 -0.0433
 8584SOL     OW34107   5.472   4.863   3.469 -0.2453 -0.1008  0.0112
 8584SOL    HW234108   5.463   4.951   3.505  3.5790  0.8950 -0.9516
 8584SOL    HW334109   5.509   4.812   3.541 -3.0138 -1.2164  0.7607
 8584SOL    MW434110   5.476   4.868   3.483  0.0316 -0.1180 -0.0388
 8585SOL     OW34111   3.815   2.539   0.886 -0.1737  0.5455  0.2810
 8585SOL    HW234112   3.896   2.538   0.834 -0.5123  0.3097 -0.2527
 8585SOL    HW334113   3.754   2.484   0.836 -1.3806  2.4632 -0.4971
 8585SOL    MW434114   3.818   2.532   0.872 -0.1111 -0.0990 -0.5177
 8586SOL     OW34115   2.342   2.713   3.752  0.2193 -0.4656  0.5257
 8586SOL    HW234116   2.433   2.695   3.728 -0.2162 -1.0299 -0.7501
 8586SOL    HW334117   2.305   2.758   3.676 -0.3736  0.4744  1.3372
 8586SOL    MW434118   2.349   2.717   3.739  0.1170  0.3229  0.4395
 8587SOL     OW34119   3.252   0.080   3.854  0.3672 -0.1682  1.2276
 8587SOL    HW234120   3.310   0.128   3.795  1.4865  0.3068  2.6584
 8587SOL    HW334121   3.165   0.115   3.837  0.3124 -1.3785 -1.4686
 8587SOL    MW434122   3.249   0.091   3.844 -0.0431  0.0727  0.2670
 8588SOL     OW34123   3.161   3.168   1.489 -0.2379  0.3280  0.1168
 8588SOL    HW234124   3.095   3.217   1.439 -0.1959  1.9833  1.5921
 8588SOL    HW334125   3.241   3.218   1.479 -0.0404  0.2419  1.1549
 8588SOL    MW434126   3.163   3.181   1.481  0.6291  0.1044 -0.1992
 8589SOL     OW34127   0.037   5.396   0.905  0.3224  0.3169 -0.2195
 8589SOL    HW234128   0.057   5.416   0.997  0.2197 -0.4983 -0.0027
 8589SOL    HW334129  -0.007   5.311   0.909  1.0717 -0.1254 -1.0961
 8589SOL    MW434130   0.034   5.387   0.918  0.1559  0.5273 -0.2419
 8590SOL     OW34131   3.124   4.493   5.057 -0.0431  0.2674 -0.1019
 8590SOL    HW234132   3.151   4.584   5.052 -1.5957  0.7272 -0.9252
 8590SOL    HW334133   3.082   4.486   5.143  0.3770  0.2409  0.1006
 8590SOL    MW434134   3.122   4.504   5.068 -0.7475  0.1483  0.3246
 8591SOL     OW34135   5.827   3.859   0.238 -0.1214 -0.0044  0.0798
 8591SOL    HW234136   5.920   3.838   0.230  0.4340  2.2136  0.2590
 8591SOL    HW334137   5.799   3.814   0.318  1.0673  0.2151  0.6366
 8591SOL    MW434138   5.836   3.850   0.247 -0.0388  1.1547 -0.3089
 8592SOL     OW34139   6.161   0.236   4.948  0.7275 -0.1441  0.8715
 8592SOL    HW234140   6.193   0.287   4.873 -0.8428 -1.3989 -0.7594
 8592SOL    HW334141   6.203   0.151   4.939  0.2754 -0.4124  1.2146
 8592SOL    MW434142   6.171   0.232   4.937  0.2037  0.0249 -0.5406
 8593SOL     OW34143   1.640   2.895   5.214 -0.1927  0.0428  0.0591
 8593SOL    HW234144   1.609   2.968   5.267  1.5231  0.6668  0.2761
 8593SOL    HW334145   1.613   2.917   5.125 -0.7732  0.3029  0.2920
 8593SOL    MW434146   1.632   2.908   5.209  0.1046 -0.2546 -0.1157
 8594SOL     OW34147   0.468   1.259   5.892 -0.4719 -0.4055  0.5857
 8594SOL    HW234148   0.530   1.226   5.827  0.2281  0.8413  0.5864
 8594SOL    HW334149   0.521   1.315   5.950 -1.5872  0.7422  0.5417
 8594SOL    MW434150   0.483   1.262   5.891 -0.5401  0.5288  0.0631
 8595SOL     OW34151   4.706   5.080   2.621 -0.1885  0.1549 -0.5273
 8595SOL    HW234152   4.799   5.099   2.635 -0.6156  1.8409  0.2701
 8595SOL    HW334153   4.669   5.164   2.594 -1.0816 -1.0005 -3.2213
 8595SOL    MW434154   4.714   5.094   2.619 -0.3605  0.3877 -0.0442
 8596SOL     OW34155   3.519   4.843   3.913  0.0851  0.1809 -0.3497
 8596SOL    HW234156   3.477   4.775   3.964  0.3048 -1.1414 -1.8493
 8596SOL    HW334157   3.608   4.848   3.948  0.3543 -0.9860 -0.8264
 8596SOL    MW434158   3.525   4.835   3.924  0.7568 -0.1390 -0.1312
 8597SOL     OW34159   1.522   3.452   0.840 -0.0220 -0.2641  0.3270
 8597SOL    HW234160   1.608   3.432   0.878  0.1067 -0.3161  0.0123
 8597SOL    HW334161   1.508   3.382   0.775 -0.6726 -0.7344  0.9581
 8597SOL    MW434162   1.532   3.440   0.836 -0.3247 -0.6157  0.0432
 8598SOL     OW34163   5.314   3.908   5.794  0.1009 -0.2457  0.1854
 8598SOL    HW234164   5.292   3.938   5.706  0.6902 -0.6326 -0.0974
 8598SOL    HW334165   5.234   3.922   5.844 -0.0562  0.5297 -0.2642
 8598SOL    MW434166   5.301   3.913   5.789  0.1837  0.0737 -0.1441
 8599SOL     OW34167   5.318   5.297   3.748  1.0142 -0.0523 -0.0844
 8599SOL    HW234168   5.343   5.256   3.832 -0.4078 -0.4456  0.1762
 8599SOL    HW334169   5.241   5.350   3.770  0.4194 -0.4291 -1.1982
 8599SOL    MW434170   5.311   5.299   3.762 -0.1217  0.1673  0.0164
 8600SOL     OW34171   3.893   6.383   2.077  0.0525  0.1294  0.0440
 8600SOL    HW234172   3.833   6.450   2.046  0.0202 -0.2445 -0.7182
 8600SOL    HW334173   3.946   6.428   2.143  0.0995  0.9387 -0.5184
 8600SOL    MW434174   3.892   6.398   2.082  0.1675  0.1971  0.5756
 8601SOL     OW34175   0.834   4.478   2.490 -0.4469  0.4131  0.0099
 8601SOL    HW234176   0.853   4.530   2.412 -1.1150 -0.2599 -0.6184
 8601SOL    HW334177   0.743   4.497   2.511 -0.8609 -0.8714 -0.5361
 8601SOL    MW434178   0.825   4.487   2.483  0.0395  0.4163 -0.3737
 8602SOL     OW34179   3.539   2.427   5.581 -0.3252  0.1286  0.1631
 8602SOL    HW234180   3.517   2.360   5.516 -1.4562  0.0159  0.6512
 8602SOL    HW334181   3.461   2.435   5.636 -0.4422  2.2734 -0.2367
 8602SOL    MW434182   3.526   2.419   5.580  0.3247 -0.0777 -0.1194
 8603SOL     OW34183   4.082   3.042   2.689 -0.2039 -0.0507  0.2850
 8603SOL    HW234184   4.023   2.985   2.641  1.2536 -3.1599  1.8760
 8603SOL    HW334185   4.161   3.047   2.635 -0.0721 -0.1293  0.4687
 8603SOL    MW434186   4.085   3.035   2.676 -0.2122 -0.2688  0.0243
 8604SOL     OW34187   2.575   6.360   0.520  0.1537 -0.3145 -0.4111
 8604SOL    HW234188   2.619   6.445   0.513 -1.1857  0.4908  0.5547
 8604SOL    HW334189   2.572   6.343   0.614 -2.1614  0.0034 -0.3723
 8604SOL    MW434190   2.580   6.369   0.531 -0.0647  0.5906  0.0716
 8605SOL     OW34191   3.250   0.131   2.686 -0.9451  0.7584 -0.3529
 8605SOL    HW234192   3.160   0.131   2.654 -0.7460 -1.1831 -1.0358
 8605SOL    HW334193   3.304   0.127   2.606 -0.3165  0.0636  0.0967
 8605SOL    MW434194   3.246   0.130   2.671 -0.2044 -0.1381  0.2193
 8606SOL     OW34195   3.684   3.582   2.874 -0.0848 -0.1785  0.2952
 8606SOL    HW234196   3.649   3.495   2.854 -2.4269  0.7742 -0.0100
 8606SOL    HW334197   3.673   3.632   2.793  2.9230 -0.0057 -0.1401
 8606SOL    MW434198   3.678   3.577   2.861 -0.2467 -0.0435  0.0258
 8607SOL     OW34199   2.698   6.296   5.250 -0.0814 -0.0869 -0.3172
 8607SOL    HW234200   2.704   6.216   5.303  0.7385  1.2002  1.6851
 8607SOL    HW334201   2.675   6.364   5.314  0.0658  1.4188 -1.8152
 8607SOL    MW434202   2.696   6.295   5.266 -0.3288 -0.0614 -0.3485
 8608SOL     OW34203   2.778   1.849   0.258 -0.2645  0.0654 -0.0428
 8608SOL    HW234204   2.772   1.936   0.219 -0.3123 -0.3890 -1.0807
 8608SOL    HW334205   2.870   1.824   0.249 -0.3673 -0.2330 -0.2993
 8608SOL    MW434206   2.789   1.857   0.252 -0.4774  0.5425  0.6859
 8609SOL     OW34207   5.038   3.824   6.198 -0.4906 -0.6572  0.8956
 8609SOL    HW234208   5.081   3.786   6.121 -2.6841 -0.9343 -0.2790
 8609SOL    HW334209   5.107   3.831   6.263  1.5670  0.0287 -1.2340
 8609SOL    MW434210   5.052   3.820   6.196 -0.2484 -0.2106 -0.3654
 8610SOL     OW34211   5.098   2.231   6.163 -0.0865  0.4993 -0.4164
 8610SOL    HW234212   5.078   2.315   6.123  0.1151  1.3481  1.2071
 8610SOL    HW334213   5.193   2.231   6.173 -0.2683  1.1523  1.7790
 8610SOL    MW434214   5.108   2.242   6.159 -0.0568 -0.0784  0.6240
 8611SOL     OW34215   1.268   0.427   2.339  0.3570 -0.1188 -0.3763
 8611SOL    HW234216   1.181   0.439   2.379 -0.4307 -0.7175 -1.8320
 8611SOL    HW334217   1.328   0.428   2.413 -0.9804 -0.5754  0.7678
 8611SOL    MW434218   1.264   0.429   2.354  0.0299  0.2038 -0.5329
 8612SOL     OW34219   0.618   6.268   2.221 -0.3094 -0.3765  0.3214
 8612SOL    HW234220   0.602   6.347   2.271 -0.7408 -1.0553  1.2818
 8612SOL    HW334221   0.693   6.227   2.265  1.4897  0.6697 -1.6042
 8612SOL    MW434222   0.626   6.273   2.233  0.1506 -0.7530 -0.2818
 8613SOL     OW34223   2.184   4.477   5.898 -0.2441 -0.0711 -0.4833
 8613SOL    HW234224   2.269   4.434   5.910 -0.6084 -0.6602  0.0212
 8613SOL    HW334225   2.181   4.497   5.804 -0.7272 -2.6249 -1.1064
 8613SOL    MW434226   2.195   4.474   5.887 -0.1958  0.0296  0.6815
 8614SOL     OW34227   6.388   6.182   3.983  1.1371  0.0521  0.1017
 8614SOL    HW234228   6.302   6.175   3.942  0.6177  0.9048  1.0021
 8614SOL    HW334229   6.449   6.146   3.917  0.1379 -0.3238 -0.6468
 8614SOL    MW434230   6.385   6.176   3.969 -0.0463  0.0154  0.0773
 8615SOL     OW34231   4.258   5.958   2.784 -0.2526  0.4204  0.0640
 8615SOL    HW234232   4.223   6.039   2.820  0.0877  1.5311 -1.9978
 8615SOL    HW334233   4.348   5.979   2.760 -0.0575 -0.6627 -0.2341
 8615SOL    MW434234   4.266   5.971   2.786  0.1211  0.2011  0.4790
 8616SOL     OW34235   5.936   5.157   2.518  0.5325 -0.5342 -0.0391
 8616SOL    HW234236   5.846   5.129   2.498 -0.0512  0.8409  0.5545
 8616SOL    HW334237   5.980   5.078   2.547 -0.4856 -1.2305 -0.3452
 8616SOL    MW434238   5.930   5.143   2.519  0.3315 -0.2822 -0.1000
 8617SOL     OW34239   2.876   1.059   4.181 -0.4643  0.4985  0.5475
 8617SOL    HW234240   2.921   1.139   4.209  0.2711  0.6934 -1.0999
 8617SOL    HW334241   2.885   1.058   4.086 -3.2114  0.0770  0.2197
 8617SOL    MW434242   2.883   1.069   4.172 -0.0131  0.4259 -0.0598
 8618SOL     OW34243   2.687   5.922   6.251  0.3229 -0.3537  0.0842
 8618SOL    HW234244   2.598   5.948   6.276 -0.5373 -0.5762 -2.4363
 8618SOL    HW334245   2.679   5.830   6.228  1.0924 -0.2444 -0.6369
 8618SOL    MW434246   2.674   5.913   6.252  0.1571  0.4586 -0.0468
 8619SOL     OW34247   1.344   1.456   5.595  0.5021  0.3016 -0.3805
 8619SOL    HW234248   1.325   1.529   5.536  0.8961  1.1952  0.5832
 8619SOL    HW334249   1.269   1.397   5.584 -1.0441  1.9748  0.5865
 8619SOL    MW434250   1.332   1.458   5.585 -0.1163 -0.2910  0.1788
 8620SOL     OW34251   4.693   2.584   4.264  0.5390 -0.0605  0.1584
 8620SOL    HW234252   4.691   2.680   4.266 -1.7532 -0.0651 -0.0140
 8620SOL    HW334253   4.672   2.561   4.174 -1.2806 -0.7048  0.7026
 8620SOL    MW434254   4.690   2.594   4.252 -0.1407  0.1539  0.9038
 8621SOL     OW34255   2.341   6.174   2.666 -0.1313 -0.3505 -0.3220
 8621SOL    HW234256   2.386   6.234   2.607 -1.2318  0.4766 -0.3636
 8621SOL    HW334257   2.362   6.087   2.633 -2.4106  0.0764 -3.3498
 8621SOL    MW434258   2.350   6.171   2.654 -0.4638  0.1006  0.2279
 8622SOL     OW34259   4.452   3.375   5.189 -0.3822 -0.2006  0.0380
 8622SOL    HW234260   4.518   3.323   5.143 -0.3280 -0.7486  0.7145
 8622SOL    HW334261   4.503   3.430   5.249 -0.5157 -0.4396  0.3757
 8622SOL    MW434262   4.468   3.375   5.191 -0.4639  0.2518 -0.1135
 8623SOL     OW34263   2.916   4.032   6.131 -0.1223  0.1185  0.3715
 8623SOL    HW234264   2.955   3.955   6.172 -3.0258 -2.1843 -0.8560
 8623SOL    HW334265   2.958   4.037   6.045  0.2513  0.0836  0.5500
 8623SOL    MW434266   2.927   4.022   6.125 -0.0081  0.0089  0.0144
 8624SOL     OW34267   4.694   4.930   2.042 -0.2903  0.5244 -0.2973
 8624SOL    HW234268   4.663   4.889   1.961 -0.4808  0.3869 -0.1569
 8624SOL    HW334269   4.686   4.862   2.108 -0.2038  0.6585 -0.1480
 8624SOL    MW434270   4.689   4.916   2.040 -0.0539  0.1207  0.3695
 8625SOL     OW34271   5.616   2.780   0.038 -0.0986 -0.4162  0.2389
 8625SOL    HW234272   5.618   2.732   0.121  1.5222 -2.2353 -0.7641
 8625SOL    HW334273   5.607   2.872   0.064 -1.2807 -1.0546  2.3350
 8625SOL    MW434274   5.615   2.786   0.052 -0.0278  0.0549 -0.3297
 8626SOL     OW34275   0.797   3.710   1.259 -0.1985  0.0437  0.5632
 8626SOL    HW234276   0.721   3.736   1.310  0.5621  2.8361  0.4128
 8626SOL    HW334277   0.823   3.789   1.212  1.4396 -1.4241 -1.1835
 8626SOL    MW434278   0.791   3.724   1.259  0.0157  0.1734 -0.8545
 8627SOL     OW34279   1.401   1.704   5.444  0.1047 -0.0900  0.1903
 8627SOL    HW234280   1.368   1.743   5.364 -1.5110 -0.7927  0.4811
 8627SOL    HW334281   1.489   1.674   5.422  0.0415  0.5863 -1.0311
 8627SOL    MW434282   1.408   1.705   5.431 -0.3868  0.4910 -0.3375
 8628SOL     OW34283   3.454   3.794   0.809 -0.2143 -0.4111 -0.4017
 8628SOL    HW234284   3.428   3.863   0.871 -2.0077 -0.9845 -0.4575
 8628SOL    HW334285   3.473   3.842   0.728  0.0726  0.1601 -0.0048
 8628SOL    MW434286   3.453   3.810   0.806 -0.2672 -0.0989 -0.2450
 8629SOL     OW34287   5.040   1.532   0.785 -0.0378  0.2314  0.2544
 8629SOL    HW234288   5.019   1.439   0.776 -0.9206  0.4048  0.4728
 8629SOL    HW334289   5.019   1.570   0.700  1.6136  0.0113 -0.2928
 8629SOL    MW434290   5.035   1.525   0.772  0.3876  0.3663  0.2148
 8630SOL     OW34291   5.990   2.266   3.067  0.0065  0.2959  0.1679
 8630SOL    HW234292   5.959   2.176   3.060 -2.1889  0.9751  0.4498
 8630SOL    HW334293   5.948   2.312   2.995  1.1333  1.1238  0.0027
 8630SOL    MW434294   5.981   2.260   3.057  0.9134 -0.1581  0.2878
 8631SOL     OW34295   3.189   3.761   0.381  0.0943  0.1289  0.2925
 8631SOL    HW234296   3.144   3.729   0.303  0.9869  0.4350 -0.3661
 8631SOL    HW334297   3.119   3.783   0.442 -0.6033 -0.4377 -0.2944
 8631SOL    MW434298   3.174   3.760   0.379 -0.3989  0.0651  0.7317
 8632SOL     OW34299   2.857   4.675   0.514  0.1017 -0.1515 -0.0548
 8632SOL    HW234300   2.843   4.599   0.457 -1.6196  0.2074 -0.1709
 8632SOL    HW334301   2.875   4.747   0.454  2.0232 -0.4899  0.0686
 8632SOL    MW434302   2.858   4.675   0.499 -0.0427  0.0434  0.5089
 8633SOL     OW34303   0.385   6.059   4.768 -0.2128 -0.4861 -1.1826
 8633SOL    HW234304   0.315   6.122   4.749  0.3324 -0.0111 -1.6410
 8633SOL    HW334305   0.447   6.069   4.696  0.4454 -0.7403 -0.6618
 8633SOL    MW434306   0.384   6.069   4.756  0.4515 -0.1023  0.0868
 8634SOL     OW34307   5.752   3.718   2.330  0.4063  0.2076  0.0279
 8634SOL    HW234308   5.797   3.681   2.254  0.5624 -0.8341  0.6106
 8634SOL    HW334309   5.763   3.812   2.320  1.6728  0.0321 -0.4862
 8634SOL    MW434310   5.760   3.725   2.319 -0.1617 -0.2099  0.1532
 8635SOL     OW34311   4.987   3.202   5.771  0.4868  0.0142 -0.1707
 8635SOL    HW234312   4.939   3.178   5.691  0.6686  0.5357 -0.4450
 8635SOL    HW334313   5.078   3.181   5.752  0.6268  0.7401 -0.3581
 8635SOL    MW434314   4.992   3.196   5.758 -0.5045  0.1991  0.0699
 8636SOL     OW34315   0.977   4.226   4.151 -0.3200  0.4970 -0.1244
 8636SOL    HW234316   0.890   4.204   4.184 -1.2744  1.7367 -1.6527
 8636SOL    HW334317   0.969   4.317   4.122  0.9653  0.0818 -1.9440
 8636SOL    MW434318   0.964   4.235   4.151 -0.1836  0.6652 -0.4467
 8637SOL     OW34319   3.597   4.935   3.191  0.7655  0.3071  0.2750
 8637SOL    HW234320   3.550   4.995   3.133 -1.5740 -1.0110  0.7266
 8637SOL    HW334321   3.591   4.850   3.148 -1.2747 -0.7713  2.4865
 8637SOL    MW434322   3.590   4.932   3.177 -0.3103 -0.3723 -0.1871
 8638SOL     OW34323   4.122   6.173   0.384  0.2750 -0.6482  0.1543
 8638SOL    HW234324   4.134   6.106   0.450 -0.7058 -0.6378  0.3596
 8638SOL    HW334325   4.125   6.256   0.432  0.4646 -0.5937  0.0508
 8638SOL    MW434326   4.124   6.175   0.399 -0.1360  0.2650  0.3971
 8639SOL     OW34327   0.049   2.703   0.817 -0.2550  0.2750  0.2526
 8639SOL    HW234328   0.052   2.776   0.755  0.2089  0.0156 -0.0423
 8639SOL    HW334329   0.035   2.626   0.761  1.8711 -0.1877  0.2435
 8639SOL    MW434330   0.048   2.702   0.801 -0.3145  0.0026  0.5431
 8640SOL     OW34331   3.061   4.669   0.213 -0.0694 -0.1433  0.0049
 8640SOL    HW234332   3.141   4.700   0.255 -1.0995 -0.9601  2.7641
 8640SOL    HW334333   2.999   4.742   0.223 -0.8829 -1.0156  1.6906
 8640SOL    MW434334   3.063   4.683   0.220 -0.3544 -0.3347 -0.4956
 8641SOL     OW34335   2.218   2.309   5.546 -0.1208 -0.2362 -1.0918
 8641SOL    HW234336   2.179   2.314   5.634  1.3465 -2.2105 -0.2473
 8641SOL    HW334337   2.255   2.221   5.542  1.2266  0.3678 -3.1186
 8641SOL    MW434338   2.217   2.298   5.557  0.6435 -0.0959  0.0856
 8642SOL     OW34339   3.202   3.561   4.496 -0.4285 -0.5755 -0.3073
 8642SOL    HW234340   3.261   3.603   4.434 -0.5543 -0.5434 -0.4036
 8642SOL    HW334341   3.193   3.471   4.464 -1.3005 -0.2853 -0.9096
 8642SOL    MW434342   3.209   3.554   4.484 -0.0622  0.0156  0.0604
 8643SOL     OW34343   2.408   5.406   0.941 -0.0161 -0.4718 -0.2534
 8643SOL    HW234344   2.351   5.375   0.871 -0.0184 -1.4880  0.1847
 8643SOL    HW334345   2.466   5.470   0.898 -1.9618  1.1981 -0.5379
 8643SOL    MW434346   2.408   5.410   0.926 -1.0621 -0.6399 -0.1437
 8644SOL     OW34347   4.589   0.783   2.565  0.5416 -0.1797 -0.0106
 8644SOL    HW234348   4.586   0.878   2.555  1.7572 -0.1282 -0.0535
 8644SOL    HW334349   4.587   0.768   2.660 -0.9871 -0.1885 -0.0287
 8644SOL    MW434350   4.589   0.793   2.576  0.1546 -0.5065 -0.3899
 8645SOL     OW34351   0.639   0.745   2.806 -0.5804 -0.2513  0.2766
 8645SOL    HW234352   0.547   0.766   2.789 -1.3721 -2.0807  1.9051
 8645SOL    HW334353   0.644   0.738   2.902  1.2899 -0.0766  0.2175
 8645SOL    MW434354   0.627   0.747   2.817  0.7239  0.4215 -0.0725
 8646SOL     OW34355   3.555   0.662   5.450  0.1718 -1.2515 -0.2934
 8646SOL    HW234356   3.505   0.733   5.492 -0.7397 -1.4999 -0.9212
 8646SOL    HW334357   3.645   0.677   5.476  0.0447  0.3459 -0.6877
 8646SOL    MW434358   3.560   0.673   5.459  0.0627  0.2754 -0.1976
 8647SOL     OW34359   6.008   4.798   2.715 -0.4984  0.2971  0.2609
 8647SOL    HW234360   5.932   4.805   2.657  0.4673  0.9245 -0.9726
 8647SOL    HW334361   6.079   4.766   2.659  0.3445  0.4531  1.2082
 8647SOL    MW434362   6.007   4.795   2.700  0.3105  0.2834  0.2329
 8648SOL     OW34363   4.350   2.475   5.872  0.3084 -0.1079 -0.1818
 8648SOL    HW234364   4.329   2.561   5.836 -0.9313 -0.6199 -0.7412
 8648SOL    HW334365   4.281   2.418   5.839  2.1837 -1.7501 -1.4044
 8648SOL    MW434366   4.338   2.479   5.863  0.1572 -0.3047 -1.0417
 8649SOL     OW34367   1.236   1.375   5.927 -0.9452  0.5595 -0.0713
 8649SOL    HW234368   1.297   1.351   5.858  0.5475 -0.3348  1.4775
 8649SOL    HW334369   1.227   1.296   5.981 -2.0613  1.2132  0.7680
 8649SOL    MW434370   1.243   1.362   5.925  0.0331 -0.4239  0.3453
 8650SOL     OW34371   1.282   3.247   1.331  0.1703 -0.0394 -0.7716
 8650SOL    HW234372   1.229   3.299   1.393  0.3967 -0.1391 -0.4923
 8650SOL    HW334373   1.312   3.311   1.267 -0.1739  0.0433 -0.8557
 8650SOL    MW434374   1.279   3.263   1.331  0.6898 -0.7807  0.0659
 8651SOL     OW34375   0.299   0.290   3.506  0.3221  0.6833 -0.1292
 8651SOL    HW234376   0.266   0.271   3.418 -2.0056 -1.4772  1.0778
 8651SOL    HW334377   0.383   0.245   3.510 -0.0130 -0.0496 -0.9471
 8651SOL    MW434378   0.306   0.281   3.495  0.2899  0.7878  0.0415
 8652SOL     OW34379   6.074   3.607   4.059 -0.1573  0.3705 -0.9006
 8652SOL    HW234380   6.057   3.530   4.005  0.7075  0.3205 -1.1105
 8652SOL    HW334381   6.140   3.657   4.011  1.3861 -0.1625  0.5409
 8652SOL    MW434382   6.081   3.604   4.046 -0.2882  0.7560  0.3182
 8653SOL     OW34383   2.757   0.908   3.735 -0.7164 -0.6223  0.0833
 8653SOL    HW234384   2.803   0.979   3.690 -1.1338  0.2877  1.0233
 8653SOL    HW334385   2.770   0.831   3.680 -0.6525  0.2930 -1.2244
 8653SOL    MW434386   2.765   0.907   3.722  0.7000  0.8403 -0.1398
 8654SOL     OW34387   0.046   5.677   1.972  0.2821 -0.1015  0.4357
 8654SOL    HW234388   0.061   5.667   1.878  1.1806 -0.7378  0.6362
 8654SOL    HW334389   0.126   5.718   2.005  0.2320 -0.4618  1.0227
 8654SOL    MW434390   0.058   5.681   1.964  0.3440 -0.0921  0.1181
 8655SOL     OW34391   1.702   5.709   6.036  0.0311 -0.0734 -0.0821
 8655SOL    HW234392   1.678   5.801   6.025 -0.2072 -0.1944 -0.6291
 8655SOL    HW334393   1.780   5.698   5.981  0.4876 -0.0265  0.5528
 8655SOL    MW434394   1.709   5.720   6.027 -0.2530 -0.0230 -0.2235
 8656SOL     OW34395   5.718   0.753   0.661  0.0426 -0.3683 -0.0107
 8656SOL    HW234396   5.736   0.661   0.642  1.0123 -0.3861  0.8467
 8656SOL    HW334397   5.805   0.795   0.659 -0.3264  0.4206  0.1210
 8656SOL    MW434398   5.732   0.747   0.658  0.4975  0.1937 -0.1910
 8657SOL     OW34399   2.121   2.915   0.725  0.3384 -0.0429 -0.1106
 8657SOL    HW234400   2.098   2.975   0.796  1.5977  0.1017  0.2045
 8657SOL    HW334401   2.046   2.918   0.666 -0.3190  0.5760  0.7334
 8657SOL    MW434402   2.108   2.924   0.727 -0.0767  0.4003  0.0828
 8658SOL     OW34403   4.402   4.603   2.451  0.2043 -0.4391  0.2669
 8658SOL    HW234404   4.489   4.572   2.476 -0.3960 -3.7685 -1.1964
 8658SOL    HW334405   4.348   4.586   2.528  0.5299  0.3391  0.6863
 8658SOL    MW434406   4.407   4.597   2.464 -0.5037  0.1823 -0.2005
 8659SOL     OW34407   2.465   3.467   2.000 -0.1074  0.4236 -0.4540
 8659SOL    HW234408   2.417   3.461   1.918 -2.1336 -1.1976  0.7545
 8659SOL    HW334409   2.407   3.517   2.058  0.1344 -0.6168  0.7269
 8659SOL    MW434410   2.451   3.473   1.997  0.0053  0.2707 -0.2051
 8660SOL     OW34411   0.262   3.194   1.272  0.6633  0.0428 -0.4547
 8660SOL    HW234412   0.229   3.140   1.344  2.0845 -1.5054 -0.9153
 8660SOL    HW334413   0.215   3.163   1.195  0.1441  0.7582 -0.4389
 8660SOL    MW434414   0.251   3.183   1.271  0.4297 -0.0129  0.2810
 8661SOL     OW34415   1.813   2.883   4.615  0.1078  0.7391  0.7792
 8661SOL    HW234416   1.868   2.804   4.616  1.1123  1.4116  0.0637
 8661SOL    HW334417   1.829   2.922   4.529 -1.9816  0.6276  0.3036
 8661SOL    MW434418   1.823   2.878   4.604 -0.3059  0.5748 -0.0547
 8662SOL     OW34419   6.350   5.075   6.206  0.0528  0.4487  0.1606
 8662SOL    HW234420   6.403   5.006   6.166  0.0932  0.4696  0.1783
 8662SOL    HW334421   6.366   5.066   6.300 -0.3782  0.1244  0.2042
 8662SOL    MW434422   6.359   5.065   6.213  0.4206 -0.1628  0.4656
 8663SOL     OW34423   4.586   3.075   0.238 -0.0946  0.3153 -0.1963
 8663SOL    HW234424   4.540   3.063   0.320 -1.6616 -0.8694 -1.1846
 8663SOL    HW334425   4.575   3.167   0.216 -0.5794  0.4000  0.3940
 8663SOL    MW434426   4.579   3.085   0.246  0.5552 -0.4337  0.0025
 8664SOL     OW34427   1.737   0.198   0.924  0.5467  0.4468  0.2179
 8664SOL    HW234428   1.828   0.193   0.951  0.5702  1.3676  0.3293
 8664SOL    HW334429   1.701   0.112   0.946  1.2846  0.2100  0.5271
 8664SOL    MW434430   1.744   0.186   0.931 -0.4736 -0.0743  0.4382
 8665SOL     OW34431   4.449   1.485   3.721 -0.8907 -0.0855 -0.6550
 8665SOL    HW234432   4.399   1.404   3.710 -0.5170 -0.3368 -0.5265
 8665SOL    HW334433   4.411   1.526   3.799 -0.1252 -0.8623  0.1438
 8665SOL    MW434434   4.437   1.480   3.730  0.0194  0.1844  0.1653
 8666SOL     OW34435   0.742   4.179   0.912  0.0227 -0.0479 -0.1367
 8666SOL    HW234436   0.657   4.211   0.942 -1.5126 -0.4937 -3.5866
 8666SOL    HW334437   0.752   4.094   0.956 -1.1895  0.1101  0.4965
 8666SOL    MW434438   0.732   4.172   0.922 -0.1925 -0.2712  0.5091
 8667SOL     OW34439   4.041   4.531   5.529 -0.2811  0.5826 -0.1183
 8667SOL    HW234440   4.124   4.515   5.484 -0.3901  0.5068 -0.2952
 8667SOL    HW334441   4.001   4.604   5.481  0.5642  1.9365  1.1575
 8667SOL    MW434442   4.046   4.539   5.517  0.3960  0.8306  0.1243
 8668SOL     OW34443   0.461   3.986   0.423  0.7414  0.2269  0.0106
 8668SOL    HW234444   0.548   3.967   0.458  0.7718 -0.1504 -0.2610
 8668SOL    HW334445   0.409   3.908   0.444  0.5072  0.3877  0.0422
 8668SOL    MW434446   0.465   3.973   0.430 -0.2289  0.1246 -0.4414
 8669SOL     OW34447   2.059   4.158   4.157  0.0112 -0.3617 -0.2032
 8669SOL    HW234448   1.976   4.144   4.113 -0.4748 -0.4244  0.7015
 8669SOL    HW334449   2.035   4.184   4.246  0.7771  4.8654 -1.2030
 8669SOL    MW434450   2.045   4.160   4.163  0.1530  0.2752 -0.2976
 8670SOL     OW34451   0.040   0.798   0.393 -0.3315 -0.1164  0.2045
 8670SOL    HW234452   0.106   0.732   0.416  0.3563 -0.0506 -1.4743
 8670SOL    HW334453   0.024   0.845   0.475  2.6863  0.7198  0.4313
 8670SOL    MW434454   0.047   0.796   0.407  0.1543 -0.1026  0.4163
 8671SOL     OW34455   5.067   3.873   2.705 -0.2745  0.5018  0.1626
 8671SOL    HW234456   5.082   3.852   2.797 -1.2631 -1.2824 -0.0249
 8671SOL    HW334457   4.976   3.849   2.690  0.2389 -0.5683 -1.5841
 8671SOL    MW434458   5.057   3.867   2.715  0.2206  0.0873  0.1472
 8672SOL     OW34459   6.168   2.969   1.393  0.3027  0.1551  0.0556
 8672SOL    HW234460   6.115   2.895   1.362  1.7071 -0.6952 -0.4170
 8672SOL    HW334461   6.252   2.930   1.417  0.3134  1.2767  2.0162
 8672SOL    MW434462   6.172   2.954   1.392  0.7375  0.0360  0.0017
 8673SOL     OW34463   1.781   4.103   4.050 -0.0238  0.4687 -0.0885
 8673SOL    HW234464   1.771   4.031   3.988 -1.1232  0.1353  0.4598
 8673SOL    HW334465   1.762   4.065   4.135  1.0317  1.0283  0.4189
 8673SOL    MW434466   1.777   4.089   4.053 -0.9848  0.0798  0.2728
 8674SOL     OW34467   4.123   5.142   2.143 -0.2149 -0.2950  0.4067
 8674SOL    HW234468   4.165   5.223   2.171  2.8174 -1.5495 -0.1550
 8674SOL    HW334469   4.086   5.163   2.057 -1.7274  1.0926  1.3279
 8674SOL    MW434470   4.123   5.155   2.135  0.1343 -0.3672  0.1560
 8675SOL     OW34471   4.873   3.448   3.637 -0.3002 -0.0992  0.4518
 8675SOL    HW234472   4.922   3.366   3.640 -0.3855 -0.1704  0.0491
 8675SOL    HW334473   4.872   3.472   3.544  1.0439  1.1693  0.7162
 8675SOL    MW434474   4.879   3.441   3.625 -0.0542  0.5000  0.4575
 8676SOL     OW34475   5.750   1.274   2.299 -0.3396  0.3550 -0.6155
 8676SOL    HW234476   5.719   1.332   2.368  0.7988  1.1485 -0.7428
 8676SOL    HW334477   5.837   1.246   2.329 -0.1042  0.2047 -1.4181
 8676SOL    MW434478   5.758   1.278   2.312  0.1626  0.2854 -0.0350
 8677SOL     OW34479   0.337   4.799   5.016  0.7028  0.4880  0.6805
 8677SOL    HW234480   0.383   4.812   4.934 -0.4010 -0.1444 -0.0607
 8677SOL    HW334481   0.263   4.860   5.012 -0.2959 -0.6946  0.4483
 8677SOL    MW434482   0.333   4.809   5.005  0.2247  0.0018 -0.3539
 8678SOL     OW34483   3.823   6.141   2.226 -0.3343 -0.4172  0.2068
 8678SOL    HW234484   3.756   6.103   2.170 -0.2032  0.4974 -0.5875
 8678SOL    HW334485   3.863   6.210   2.173  0.6785 -0.4014  0.9594
 8678SOL    MW434486   3.819   6.145   2.212  0.0788  0.6590 -0.4068
 8679SOL     OW34487   6.369   5.843   3.187 -0.1693  0.2656  0.1299
 8679SOL    HW234488   6.304   5.774   3.192 -0.1676  0.1816 -0.7619
 8679SOL    HW334489   6.352   5.899   3.262 -0.3051 -0.5859  0.7407
 8679SOL    MW434490   6.358   5.841   3.197 -0.0304 -0.8838 -0.5089
 8680SOL     OW34491   4.952   2.360   2.375  0.2366 -0.0302 -0.9435
 8680SOL    HW234492   4.877   2.311   2.341 -0.4101  0.3770 -0.1208
 8680SOL    HW334493   5.018   2.293   2.392 -1.0052 -0.7942  1.1752
 8680SOL    MW434494   4.951   2.345   2.373  0.2634  0.1397 -0.9954
 8681SOL     OW34495   4.036   0.866   3.306  0.2625 -0.0270  0.1316
 8681SOL    HW234496   3.948   0.832   3.287  0.1489  0.3983 -0.1012
 8681SOL    HW334497   4.088   0.840   3.230  0.3201 -0.2060  0.2314
 8681SOL    MW434498   4.031   0.858   3.293 -0.4871  0.2815 -0.1075
 8682SOL     OW34499   2.417   4.560   2.804  0.1902 -0.2828 -0.2186
 8682SOL    HW234500   2.435   4.589   2.715  1.0195  0.1757  0.0898
 8682SOL    HW334501   2.479   4.608   2.858 -1.9149  1.3449  0.9075
 8682SOL    MW434502   2.427   4.570   2.799  0.5934 -0.5705 -0.0255
 8683SOL     OW34503   3.540   6.206   0.414 -0.3873  0.0827 -0.2442
 8683SOL    HW234504   3.635   6.218   0.425  0.1642 -1.2766 -2.8490
 8683SOL    HW334505   3.528   6.112   0.404 -1.9181  0.3102 -0.8248
 8683SOL    MW434506   3.551   6.195   0.414  0.0820  0.3112  0.1082
 8684SOL     OW34507   3.118   2.584   4.636 -1.0645 -0.2575  0.1233
 8684SOL    HW234508   3.124   2.647   4.565  0.3251 -0.8189 -0.2901
 8684SOL    HW334509   3.057   2.623   4.698 -2.9750 -0.1300 -1.7292
 8684SOL    MW434510   3.111   2.597   4.635 -0.0271 -0.4986 -0.0682
 8685SOL     OW34511   0.455   4.718   6.109  0.0803  0.6124 -0.3708
 8685SOL    HW234512   0.509   4.767   6.172  0.8168 -0.4908 -0.1186
 8685SOL    HW334513   0.517   4.694   6.040 -0.8522  2.3918 -1.9123
 8685SOL    MW434514   0.471   4.722   6.108 -0.5753  0.4083 -0.3920
 8686SOL     OW34515   6.270   4.608   2.963  0.3357  0.3024 -0.4417
 8686SOL    HW234516   6.341   4.604   3.027  0.9378 -1.4180 -1.1512
 8686SOL    HW334517   6.314   4.613   2.879 -0.3573 -0.7446 -0.8921
 8686SOL    MW434518   6.285   4.608   2.960 -0.0498 -0.2557 -0.3646
 8687SOL     OW34519   3.265   4.059   2.612  0.3509 -0.4659  0.4073
 8687SOL    HW234520   3.212   4.006   2.552  1.3008 -0.7854 -0.1647
 8687SOL    HW334521   3.255   4.015   2.697 -2.6776  1.1439  1.0575
 8687SOL    MW434522   3.256   4.046   2.615 -0.3634  0.5784  0.1142
 8688SOL     OW34523   2.826   0.485   0.541  0.5126  0.0552  0.0466
 8688SOL    HW234524   2.793   0.396   0.548  0.7950 -0.1004 -0.5492
 8688SOL    HW334525   2.792   0.518   0.458  2.7510 -0.5180 -1.1754
 8688SOL    MW434526   2.818   0.478   0.531 -0.1229 -0.1725 -0.3233
 8689SOL     OW34527   2.072   1.619   2.437 -0.5588 -0.5475 -0.4527
 8689SOL    HW234528   2.112   1.685   2.381 -1.7338 -0.8616 -1.7043
 8689SOL    HW334529   2.137   1.604   2.506  0.6451  0.3110 -1.3572
 8689SOL    MW434530   2.086   1.626   2.439  0.2065 -0.4755  0.3035
 8690SOL     OW34531   2.198   5.481   2.703  0.1447 -0.2203  0.4376
 8690SOL    HW234532   2.106   5.465   2.724 -0.0032 -0.0341 -0.0617
 8690SOL    HW334533   2.246   5.452   2.781 -0.2509 -1.2992  0.2839
 8690SOL    MW434534   2.193   5.475   2.716  0.0040 -0.8488 -0.1461
 8691SOL     OW34535   3.110   2.229   3.016  0.1154  0.2491 -0.2367
 8691SOL    HW234536   3.173   2.157   3.026  0.1002 -0.3050 -3.2941
 8691SOL    HW334537   3.025   2.185   3.017  0.1375 -0.1251 -3.3652
 8691SOL    MW434538   3.107   2.214   3.018 -0.1537 -0.1774  0.3937
 8692SOL     OW34539   3.928   2.526   4.912  0.0652 -0.1400  0.1491
 8692SOL    HW234540   3.986   2.483   4.975  0.0649  0.7590  0.7744
 8692SOL    HW334541   3.936   2.619   4.931 -1.6305  0.0054  0.2829
 8692SOL    MW434542   3.937   2.532   4.923 -0.7244 -0.6428  0.1334
 8693SOL     OW34543   2.405   4.572   4.958 -0.0671 -0.3966  0.4707
 8693SOL    HW234544   2.494   4.544   4.977 -0.7003 -3.0415 -0.0669
 8693SOL    HW334545   2.381   4.629   5.031  0.8522 -2.5221  2.5417
 8693SOL    MW434546   2.413   4.576   4.970  0.5121  0.1439 -0.1142
 8694SOL     OW34547   3.949   0.568   4.906  0.2550  0.4606  0.4002
 8694SOL    HW234548   3.881   0.521   4.954  0.1625  0.0459 -0.1249
 8694SOL    HW334549   4.029   0.554   4.958  0.8377 -2.6324 -1.0844
 8694SOL    MW434550   3.951   0.560   4.919 -0.4433  0.6703  0.1715
 8695SOL     OW34551   4.350   0.503   2.380 -0.0799 -0.2532  0.2834
 8695SOL    HW234552   4.445   0.505   2.370 -0.1371 -0.6225 -0.3712
 8695SOL    HW334553   4.316   0.517   2.291 -0.6808  2.7467  0.8669
 8695SOL    MW434554   4.358   0.505   2.367  0.2818 -0.1333 -0.0448
 8696SOL     OW34555   3.482   4.993   2.745  0.0817  0.2105 -0.1827
 8696SOL    HW234556   3.414   5.008   2.811  0.7143  1.5519  0.2087
 8696SOL    HW334557   3.506   4.901   2.754 -0.8457  0.0254  0.4801
 8696SOL    MW434558   3.476   4.983   2.755 -0.0823 -0.2277 -0.2633
 8697SOL     OW34559   3.901   5.405   5.498  0.3380  0.6422  0.1125
 8697SOL    HW234560   3.914   5.410   5.403 -0.6761  0.2413 -0.0640
 8697SOL    HW334561   3.960   5.471   5.534 -0.0321  1.5343 -0.8652
 8697SOL    MW434562   3.911   5.414   5.490  0.6172  0.4844  0.5103
 8698SOL     OW34563   3.365   0.228   3.670  0.6360 -0.4826  0.4847
 8698SOL    HW234564   3.392   0.310   3.629  0.7089 -1.6549 -2.0206
 8698SOL    HW334565   3.434   0.165   3.647 -0.5512 -1.7864  0.3144
 8698SOL    MW434566   3.378   0.230   3.662  0.0653  0.2434  0.2057
 8699SOL     OW34567   2.973   4.247   1.270  0.5858 -0.9247 -0.3477
 8699SOL    HW234568   2.916   4.287   1.336  0.1554  0.4768 -1.5219
 8699SOL    HW334569   3.017   4.176   1.317  1.3611  0.8683  1.8413
 8699SOL    MW434570   2.971   4.243   1.285 -0.0793 -0.1749 -0.5347
 8700SOL     OW34571   4.377   2.921   5.863  0.1014  0.2945  0.1646
 8700SOL    HW234572   4.419   2.915   5.949  1.3049  0.5148 -0.3875
 8700SOL    HW334573   4.356   3.014   5.854 -0.0227  0.2720  0.2252
 8700SOL    MW434574   4.380   2.933   5.874 -0.2085 -0.2437  0.3105
 8701SOL     OW34575   4.337   0.547   2.098 -0.5875 -0.0043  0.2955
 8701SOL    HW234576   4.421   0.529   2.054 -0.4991 -0.8754  0.7949
 8701SOL    HW334577   4.317   0.638   2.075 -0.2407 -0.2381 -1.0394
 8701SOL    MW434578   4.346   0.557   2.089 -0.2207 -0.4821 -0.3914
 8702SOL     OW34579   3.689   0.913   3.610  0.2516 -0.2627 -0.6436
 8702SOL    HW234580   3.655   0.994   3.571  0.5500  0.9193  1.4101
 8702SOL    HW334581   3.759   0.942   3.668 -1.8533 -1.5132  2.8309
 8702SOL    MW434582   3.694   0.928   3.612 -0.0608  0.4650 -0.3748
 8703SOL     OW34583   4.273   0.289   3.920  0.4061  0.8888 -0.0650
 8703SOL    HW234584   4.321   0.349   3.864  0.3624  1.1675  0.1981
 8703SOL    HW334585   4.335   0.217   3.936  0.6640  1.1480  0.1075
 8703SOL    MW434586   4.288   0.287   3.915 -0.2004  0.3350  0.4889
 8704SOL     OW34587   6.170   2.293   2.391  0.5822  0.0854 -0.2203
 8704SOL    HW234588   6.179   2.348   2.469 -0.0565  0.0133 -0.0944
 8704SOL    HW334589   6.094   2.329   2.345  0.6059 -0.2369 -0.5135
 8704SOL    MW434590   6.162   2.305   2.395 -0.3259  0.1441  0.0471
 8705SOL     OW34591   5.384   6.006   2.531  0.0926  1.1487  0.1311
 8705SOL    HW234592   5.397   6.097   2.506  1.8863  1.6081  2.3947
 8705SOL    HW334593   5.472   5.974   2.552  0.1177 -2.2549 -3.8455
 8705SOL    MW434594   5.398   6.014   2.530  0.7213  0.0522 -0.5689
 8706SOL     OW34595   5.312   5.756   0.101  0.6417 -0.7253 -0.1881
 8706SOL    HW234596   5.377   5.795   0.042  0.2905 -0.0210 -0.1229
 8706SOL    HW334597   5.363   5.696   0.155  1.3750  0.2664  0.2702
 8706SOL    MW434598   5.328   5.753   0.101 -0.1198  0.5927 -0.0868
 8707SOL     OW34599   2.770   2.090   5.199  0.2264  0.6189 -0.1972
 8707SOL    HW234600   2.794   1.998   5.202  1.2779  0.8783 -0.5006
 8707SOL    HW334601   2.791   2.124   5.287  1.6461  0.9992 -0.6638
 8707SOL    MW434602   2.776   2.082   5.211 -0.2172  0.7003 -0.0304
 8708SOL     OW34603   2.324   3.088   0.416  0.3147  0.4191  0.1345
 8708SOL    HW234604   2.289   3.142   0.487  0.6020  1.1739 -0.2953
 8708SOL    HW334605   2.389   3.143   0.374  0.2660 -0.0894 -0.6106
 8708SOL    MW434606   2.328   3.102   0.420 -0.1113  0.3222 -0.7379
 8709SOL     OW34607   2.774   1.392   0.861 -0.3722  0.5582  0.0964
 8709SOL    HW234608   2.744   1.372   0.949 -0.5457 -0.9388 -0.2698
 8709SOL    HW334609   2.694   1.401   0.809 -0.2648  0.3581 -0.1097
 8709SOL    MW434610   2.760   1.390   0.866  0.2039  0.2688  0.5361
 8710SOL     OW34611   5.119   4.707   4.189  0.0747  0.5688 -0.0827
 8710SOL    HW234612   5.068   4.763   4.247 -0.7890  0.5288 -0.8064
 8710SOL    HW334613   5.084   4.722   4.102  0.1561 -0.7156 -0.3626
 8710SOL    MW434614   5.108   4.716   4.185  0.2488 -0.4218 -0.4573
 8711SOL     OW34615   1.163   4.775   0.295  0.1369 -0.2185  0.1362
 8711SOL    HW234616   1.140   4.718   0.368  2.4786 -2.0101 -0.3851
 8711SOL    HW334617   1.156   4.720   0.217 -1.9497  1.5433 -1.0340
 8711SOL    MW434618   1.159   4.760   0.294  0.4985  0.5432  0.1052
 8712SOL     OW34619   0.434   5.821   6.312  0.3844  0.3728 -0.3968
 8712SOL    HW234620   0.464   5.777   6.391  1.8746  2.3107  0.1768
 8712SOL    HW334621   0.363   5.765   6.279  0.3424 -0.9580  1.7738
 8712SOL    MW434622   0.429   5.808   6.318  0.3993  0.1358  0.1753
 8713SOL     OW34623   2.105   0.081   4.609  0.0301 -0.1026  0.3952
 8713SOL    HW234624   2.044   0.153   4.619 -0.6329 -0.5949  0.0035
 8713SOL    HW334625   2.177   0.117   4.557  2.1813  1.6906  4.2036
 8713SOL    MW434626   2.107   0.095   4.603 -0.2970  0.9102 -0.1481
 8714SOL     OW34627   5.274   1.672   0.769 -0.1585 -0.4297 -0.0703
 8714SOL    HW234628   5.186   1.635   0.778 -0.0988 -0.6498 -0.3999
 8714SOL    HW334629   5.287   1.721   0.850 -0.4635 -0.6515  0.1152
 8714SOL    MW434630   5.264   1.674   0.781  0.2482  0.1774 -0.4659
 8715SOL     OW34631   6.077   6.006   0.857  0.1614 -1.3918  0.1462
 8715SOL    HW234632   6.109   5.973   0.941  0.0140 -3.5832 -0.5809
 8715SOL    HW334633   6.145   5.981   0.795  1.3168  2.0886 -0.1827
 8715SOL    MW434634   6.090   5.998   0.860 -0.7472  0.3988  0.5042
 8716SOL     OW34635   5.707   5.448   2.659 -0.2908 -0.3814  0.7403
 8716SOL    HW234636   5.652   5.407   2.592 -0.1472  0.6147 -0.0195
 8716SOL    HW334637   5.756   5.376   2.698  0.2793 -0.9021 -0.8584
 8716SOL    MW434638   5.707   5.433   2.655  0.0094 -0.0310  0.7608
 8717SOL     OW34639   5.000   3.812   3.952 -0.4812 -0.0234 -0.3009
 8717SOL    HW234640   4.966   3.738   4.002 -1.2210 -0.6287 -1.6164
 8717SOL    HW334641   4.994   3.782   3.861  1.3503  0.8048 -0.7166
 8717SOL    MW434642   4.994   3.798   3.946  0.0739 -0.1248  0.0943
 8718SOL     OW34643   4.140   5.852   2.562 -0.7104  0.0998  0.3869
 8718SOL    HW234644   4.187   5.863   2.644 -0.9876 -2.7749  1.0386
 8718SOL    HW334645   4.065   5.796   2.584 -0.4896 -1.2312 -1.8903
 8718SOL    MW434646   4.136   5.846   2.576  0.0701  0.3108  0.1492
 8719SOL     OW34647   1.678   0.066   5.629  0.6394 -0.1188 -0.1833
 8719SOL    HW234648   1.702  -0.019   5.592  0.2845 -0.8544  1.2101
 8719SOL    HW334649   1.746   0.084   5.694 -0.8900 -0.8274  1.7086
 8719SOL    MW434650   1.690   0.057   5.633 -0.2498 -0.1649  0.2276
 8720SOL     OW34651   0.885   6.382   2.393  0.0424 -0.5621  0.5807
 8720SOL    HW234652   0.834   6.462   2.405  0.1644 -0.4133  0.1340
 8720SOL    HW334653   0.858   6.325   2.465  1.0170  0.4275  1.7648
 8720SOL    MW434654   0.875   6.385   2.404  0.1621  0.0164 -0.2904
 8721SOL     OW34655   1.995   3.720   4.200  0.2228  0.2602 -0.1329
 8721SOL    HW234656   1.939   3.691   4.272  2.1893  2.4046  2.4731
 8721SOL    HW334657   2.083   3.721   4.236  1.4674  0.6532 -2.8811
 8721SOL    MW434658   1.999   3.716   4.214  0.1716  0.3991 -0.0308
 8722SOL     OW34659   2.760   3.928   1.707 -0.1444 -0.4099  0.0488
 8722SOL    HW234660   2.770   4.017   1.674  0.3948 -0.1297  0.9523
 8722SOL    HW334661   2.807   3.874   1.642  1.0374  0.1513  0.4055
 8722SOL    MW434662   2.768   3.932   1.694  0.4819 -0.0584  0.2889
 8723SOL     OW34663   3.278   3.706   4.991  0.7115 -0.5789  0.2679
 8723SOL    HW234664   3.356   3.754   5.018  0.4923  0.1766 -0.4013
 8723SOL    HW334665   3.286   3.699   4.896  0.8689 -2.1120  0.3717
 8723SOL    MW434666   3.289   3.711   4.982 -0.3798  0.1626 -0.4159
 8724SOL     OW34667   3.445   1.559   2.244 -0.4264  0.0079 -0.2006
 8724SOL    HW234668   3.529   1.545   2.201 -0.7727  0.5849 -1.0866
 8724SOL    HW334669   3.380   1.536   2.178 -0.9972 -1.9898  0.9811
 8724SOL    MW434670   3.448   1.554   2.230 -0.3332 -0.0229  0.0108
 8725SOL     OW34671   2.284   1.680   5.109  0.5766  0.5525 -0.3107
 8725SOL    HW234672   2.273   1.771   5.137  1.1956  0.7233 -0.5970
 8725SOL    HW334673   2.230   1.629   5.170 -0.2090  1.1560 -0.4961
 8725SOL    MW434674   2.275   1.685   5.121  0.0527  0.1502  0.9248
 8726SOL     OW34675   1.422   4.416   6.071 -0.5115  0.7755  0.1947
 8726SOL    HW234676   1.477   4.406   5.993 -0.5309  0.2493  0.2389
 8726SOL    HW334677   1.431   4.508   6.096  0.0500  0.7835 -0.0187
 8726SOL    MW434678   1.430   4.426   6.064 -0.3180 -0.9474  0.1365
 8727SOL     OW34679   6.051   2.820   2.455 -0.3893  0.1299 -0.1274
 8727SOL    HW234680   5.985   2.752   2.467 -0.1788 -0.0200  0.1856
 8727SOL    HW334681   6.135   2.775   2.467 -0.2779  0.7895  1.9689
 8727SOL    MW434682   6.054   2.806   2.458 -0.3159  0.2738  0.1122
 8728SOL     OW34683   5.976   1.992   5.044  0.0524  0.4508  0.4379
 8728SOL    HW234684   6.069   1.976   5.029  0.0939  2.0669 -1.4197
 8728SOL    HW334685   5.965   1.982   5.139  2.0577  0.0486  0.6758
 8728SOL    MW434686   5.987   1.988   5.055  0.3937 -0.1413 -0.2853
 8729SOL     OW34687   0.966   2.596   3.715 -0.1217 -0.1970 -0.3115
 8729SOL    HW234688   0.929   2.678   3.748  0.0484  0.2291 -1.1472
 8729SOL    HW334689   0.941   2.594   3.622 -0.7903 -1.4734 -0.1201
 8729SOL    MW434690   0.958   2.607   3.707 -0.7068  0.0155  0.1682
 8730SOL     OW34691   3.148   2.730   4.387  0.5097  0.1337 -0.4603
 8730SOL    HW234692   3.223   2.769   4.342  0.7218 -0.2757 -0.4651
 8730SOL    HW334693   3.073   2.779   4.354  0.6139 -0.4065 -1.5648
 8730SOL    MW434694   3.148   2.741   4.377  0.1555  0.2272  0.0102
 8731SOL     OW34695   5.568   3.933   1.636 -0.2504  0.5608  0.2375
 8731SOL    HW234696   5.547   3.842   1.616  0.9762  0.0298  1.2381
 8731SOL    HW334697   5.558   3.979   1.553 -1.0982 -0.4385 -0.2324
 8731SOL    MW434698   5.564   3.927   1.622  0.0934 -0.0673 -0.1265
 8732SOL     OW34699   2.130   0.979   5.083 -0.2483  0.6595  0.1413
 8732SOL    HW234700   2.109   1.036   5.157  0.6458 -0.1078  1.0113
 8732SOL    HW334701   2.223   0.994   5.066 -0.1368 -0.1378  0.0286
 8732SOL    MW434702   2.139   0.988   5.090  0.0898  0.3722  0.7988
 8733SOL     OW34703   1.056   6.105   1.803  0.3536  0.1443 -0.1689
 8733SOL    HW234704   1.028   6.190   1.770 -1.7081  0.2809  1.6695
 8733SOL    HW334705   1.142   6.121   1.841 -0.7519  1.9679  1.8422
 8733SOL    MW434706   1.064   6.118   1.804  0.3774 -0.5838 -0.0885
 8734SOL     OW34707   2.161   3.623   3.744  0.2878 -0.3815 -0.5734
 8734SOL    HW234708   2.088   3.684   3.733  1.6439  1.7932  1.4293
 8734SOL    HW334709   2.162   3.603   3.838  2.4075 -0.1022 -0.4933
 8734SOL    MW434710   2.151   3.628   3.755 -0.1563 -0.1801 -0.3372
 8735SOL     OW34711   2.738   0.711   3.198 -0.1937  0.5524 -0.2589
 8735SOL    HW234712   2.797   0.787   3.203  1.5065 -0.6670 -0.7706
 8735SOL    HW334713   2.784   0.649   3.142 -1.1536 -1.1996  0.8182
 8735SOL    MW434714   2.752   0.713   3.191  0.6090  0.0474 -0.9359
 8736SOL     OW34715   2.947   6.026   0.429  0.3647  0.0501  0.2419
 8736SOL    HW234716   3.026   6.049   0.380  0.1676  2.7317  1.0059
 8736SOL    HW334717   2.882   6.090   0.401 -0.4658  0.1155  2.1580
 8736SOL    MW434718   2.949   6.037   0.419 -0.4624 -0.9007  0.2409
 8737SOL     OW34719   3.666   2.409   4.881 -0.3798 -0.5515  0.6493
 8737SOL    HW234720   3.674   2.316   4.859  0.8186 -0.0585 -1.1626
 8737SOL    HW334721   3.749   2.431   4.923  0.8420  0.4461 -2.0669
 8737SOL    MW434722   3.678   2.400   4.884 -0.0211 -0.0848  0.4092
 8738SOL     OW34723   0.841   2.732   4.016  0.2152  0.6527  0.1362
 8738SOL    HW234724   0.760   2.712   3.969 -0.9092  3.4714  0.6222
 8738SOL    HW334725   0.826   2.699   4.105 -0.3055  0.8518  0.1301
 8738SOL    MW434726   0.828   2.725   4.022 -0.1660  0.4687  0.0919
 8739SOL     OW34727   0.094   2.625   4.276  0.1893  0.1856  0.2253
 8739SOL    HW234728   0.153   2.550   4.270 -0.3832 -0.3298  0.9649
 8739SOL    HW334729   0.149   2.700   4.256  0.6410 -0.4744 -1.1598
 8739SOL    MW434730   0.109   2.625   4.272  0.1673  0.4776  0.3886
 8740SOL     OW34731   4.703   3.289   0.036 -0.2672 -0.1997  0.0487
 8740SOL    HW234732   4.753   3.216   0.001 -1.2163 -0.0365 -1.7947
 8740SOL    HW334733   4.627   3.296  -0.022 -0.1198  2.3654  0.0267
 8740SOL    MW434734   4.699   3.280   0.024 -0.1799  0.3199  0.2124
 8741SOL     OW34735   6.120   3.552   5.219 -0.2406  0.2456  0.1994
 8741SOL    HW234736   6.090   3.491   5.286 -0.7945 -0.8521 -0.9925
 8741SOL    HW334737   6.197   3.595   5.257 -0.0684 -0.9221  1.2205
 8741SOL    MW434738   6.126   3.549   5.233 -0.0631 -0.3920 -0.0415
 8742SOL     OW34739   1.954   0.779   0.096 -0.0509  0.0364  0.2382
 8742SOL    HW234740   1.954   0.771   0.192 -1.1928  2.8238  0.5621
 8742SOL    HW334741   1.986   0.867   0.079 -1.7821  0.3579 -1.8371
 8742SOL    MW434742   1.958   0.789   0.107 -0.1356 -0.6696 -0.4391
 8743SOL     OW34743   2.638   1.674   4.281 -0.4632  0.5742 -0.0513
 8743SOL    HW234744   2.551   1.647   4.254 -0.6073 -0.7947  1.6121
 8743SOL    HW334745   2.641   1.656   4.375  1.3545  1.2937  0.0737
 8743SOL    MW434746   2.627   1.668   4.290 -0.1215 -0.4500  0.2821
 8744SOL     OW34747   2.880   1.692   1.102  0.2793  0.2803 -0.3358
 8744SOL    HW234748   2.880   1.606   1.143  3.8139 -0.1452 -0.9215
 8744SOL    HW334749   2.864   1.674   1.009 -1.9639  0.6451 -0.0676
 8744SOL    MW434750   2.878   1.678   1.095  0.1623  0.7116 -0.0987
 8745SOL     OW34751   3.669   5.400   2.586 -0.3616 -0.1296 -0.2545
 8745SOL    HW234752   3.730   5.329   2.566  0.8699  0.8850 -0.2220
 8745SOL    HW334753   3.614   5.407   2.507 -1.4111 -1.9508  0.2347
 8745SOL    MW434754   3.670   5.391   2.573 -0.1734  0.4590 -0.0583
 8746SOL     OW34755   6.374   3.727   0.375 -0.5745 -0.0352  0.6424
 8746SOL    HW234756   6.445   3.790   0.368 -0.7498  0.0121 -1.0847
 8746SOL    HW334757   6.416   3.647   0.405  0.1221  0.1416  0.1676
 8746SOL    MW434758   6.389   3.725   0.378 -0.5616  0.0855  0.5053
 8747SOL     OW34759   4.837   5.911   5.192 -0.3737  0.6924  0.3012
 8747SOL    HW234760   4.872   6.000   5.203 -1.1518  0.8276  1.9690
 8747SOL    HW334761   4.745   5.924   5.168 -0.4493  0.3353  0.3959
 8747SOL    MW434762   4.830   5.924   5.190 -0.1674  0.3978  0.3000
 8748SOL     OW34763   3.122   1.078   1.285 -0.4626  0.3764 -0.2560
 8748SOL    HW234764   3.086   1.164   1.262  1.9728  1.1737 -1.4515
 8748SOL    HW334765   3.159   1.045   1.203 -0.1040 -1.1893  0.4985
 8748SOL    MW434766   3.122   1.085   1.271 -0.5268 -0.7766 -0.4114
 8749SOL     OW34767   2.374   5.815   0.371  0.2982  0.3371  0.0475
 8749SOL    HW234768   2.302   5.809   0.434  0.6981  1.8180  0.7029
 8749SOL    HW334769   2.452   5.830   0.425  1.0167 -0.6221 -0.6908
 8749SOL    MW434770   2.375   5.817   0.387 -0.0830  0.6210  0.2589
 8750SOL     OW34771   4.015   3.521   4.603  0.3094  0.0148 -0.0300
 8750SOL    HW234772   4.062   3.520   4.687  0.0554 -1.9281  0.1163
 8750SOL    HW334773   3.962   3.442   4.604 -0.1210  0.2411 -1.8185
 8750SOL    MW434774   4.014   3.511   4.614 -0.0644  0.0049  0.1906
 8751SOL     OW34775   3.782   5.855   1.196 -0.1058 -0.1257  0.0587
 8751SOL    HW234776   3.864   5.859   1.245 -0.6139  1.3710  0.8701
 8751SOL    HW334777   3.729   5.791   1.243 -0.5069  1.1356  1.4040
 8751SOL    MW434778   3.786   5.847   1.208  0.0642  0.0189  0.0801
 8752SOL     OW34779   2.934   4.390   2.115  0.2809 -0.1312 -0.0808
 8752SOL    HW234780   2.964   4.429   2.197  1.5711  0.4406 -0.7939
 8752SOL    HW334781   2.937   4.461   2.052 -1.3086 -0.4149 -0.5085
 8752SOL    MW434782   2.938   4.404   2.118 -0.1942 -0.0250 -0.3196
 8753SOL     OW34783   2.049   3.967   5.058 -0.3638  0.7881 -0.5113
 8753SOL    HW234784   1.958   3.948   5.082 -0.1858 -0.5497 -0.8273
 8753SOL    HW334785   2.077   3.891   5.007  1.2785  0.6610  0.5141
 8753SOL    MW434786   2.041   3.954   5.054  0.0112 -0.0330 -0.0404
 8754SOL     OW34787   0.593   3.692   4.032 -0.0153  0.7155 -0.2212
 8754SOL    HW234788   0.626   3.691   4.121  1.2092 -0.1789 -0.6587
 8754SOL    HW334789   0.597   3.784   4.005 -0.0099  0.9282  0.4971
 8754SOL    MW434790   0.598   3.704   4.040 -0.5178 -0.0421 -0.0454
 8755SOL     OW34791   3.982   0.594   3.778  0.1870  0.0903  0.0054
 8755SOL    HW234792   3.970   0.634   3.693  0.5562  3.1697  1.2854
 8755SOL    HW334793   3.915   0.634   3.834  0.3075 -1.4231  1.3183
 8755SOL    MW434794   3.972   0.604   3.774  0.6760  0.2280 -0.7211
 8756SOL     OW34795   5.740   4.247   1.043 -0.5150 -0.2856 -0.1686
 8756SOL    HW234796   5.664   4.203   1.004 -2.7446  2.1144  1.1945
 8756SOL    HW334797   5.764   4.191   1.117 -1.0713 -0.9507 -0.4733
 8756SOL    MW434798   5.733   4.234   1.047  0.0617 -0.0614 -0.3310
 8757SOL     OW34799   1.022   0.979   5.454  0.2326 -0.5354  0.2171
 8757SOL    HW234800   1.096   0.919   5.467  1.2414  0.7390  0.6075
 8757SOL    HW334801   0.949   0.937   5.499  1.4072 -0.5807  2.2306
 8757SOL    MW434802   1.022   0.966   5.462  0.9137 -0.3783  0.7929
 8758SOL     OW34803   2.194   0.859   3.927  0.3688 -0.1404  0.6499
 8758SOL    HW234804   2.205   0.764   3.917  2.7982  0.1247  0.1916
 8758SOL    HW334805   2.148   0.886   3.848  2.5987 -0.5817 -0.9084
 8758SOL    MW434806   2.190   0.850   3.915  0.1064  0.3379  0.2336
 8759SOL     OW34807   5.885   2.918   5.652  0.4231 -0.1515  0.1917
 8759SOL    HW234808   5.956   2.857   5.670  0.6390  0.2563  0.7627
 8759SOL    HW334809   5.817   2.864   5.611  1.0333 -0.5525 -0.3006
 8759SOL    MW434810   5.885   2.903   5.649  0.0935  0.4715 -0.1604
 8760SOL     OW34811   3.671   4.025   1.036  0.0620  0.4568  0.0012
 8760SOL    HW234812   3.762   4.008   1.013  0.4950 -0.4321  2.0954
 8760SOL    HW334813   3.676   4.077   1.116 -1.3180  2.5923 -1.2140
 8760SOL    MW434814   3.684   4.029   1.043  0.5860  0.1627  0.2257
 8761SOL     OW34815   1.773   5.583   3.302 -0.0799  0.4033  0.1736
 8761SOL    HW234816   1.796   5.592   3.209  2.1704 -2.1147  0.3916
 8761SOL    HW334817   1.729   5.498   3.307 -0.1255  0.4933  1.4275
 8761SOL    MW434818   1.770   5.573   3.290 -0.2866  0.6052  0.2870
 8762SOL     OW34819   1.251   2.378   5.068 -0.1063  0.1650  0.3140
 8762SOL    HW234820   1.203   2.414   4.993  0.4971 -0.7235 -0.5248
 8762SOL    HW334821   1.186   2.375   5.138 -0.9725  0.0341 -0.4691
 8762SOL    MW434822   1.236   2.383   5.067  0.0367 -0.1726  0.3577
 8763SOL     OW34823   3.412   3.173   4.299 -0.1133  0.0258  0.0479
 8763SOL    HW234824   3.425   3.230   4.224  2.2815  0.9040  1.0284
 8763SOL    HW334825   3.444   3.087   4.270  0.2855  0.2269 -0.1098
 8763SOL    MW434826   3.418   3.169   4.285 -0.0610 -0.8287 -0.3491
 8764SOL     OW34827   0.992   2.510   0.053 -0.1704  0.5011  0.1298
 8764SOL    HW234828   0.969   2.434   0.107  0.8287 -0.6188 -0.9688
 8764SOL    HW334829   1.033   2.572   0.114  0.5068 -0.5382  0.7535
 8764SOL    MW434830   0.994   2.508   0.068  0.3481 -0.0717  0.1348
 8765SOL     OW34831   2.507   2.456   6.333 -0.4492 -0.2151  0.5084
 8765SOL    HW234832   2.415   2.440   6.315 -0.4700  0.3378  0.0890
 8765SOL    HW334833   2.522   2.546   6.304  0.7464 -1.0091 -1.6089
 8765SOL    MW434834   2.497   2.466   6.327  0.0956 -0.4174 -0.2767
 8766SOL     OW34835   1.882   1.664   3.851 -0.6953  0.8530 -0.0980
 8766SOL    HW234836   1.787   1.667   3.866 -1.1826 -3.5249 -0.7834
 8766SOL    HW334837   1.892   1.678   3.757 -0.9346 -0.4866 -0.3437
 8766SOL    MW434838   1.871   1.666   3.840  0.3604 -0.2702  0.5935
 8767SOL     OW34839   1.337   2.863   0.334 -0.3314 -0.0430  0.0062
 8767SOL    HW234840   1.290   2.802   0.277  1.5390 -0.4692 -1.1403
 8767SOL    HW334841   1.268   2.916   0.373 -1.7220  0.3644 -2.7399
 8767SOL    MW434842   1.322   2.862   0.332  0.2153  0.0143 -0.4570
 8768SOL     OW34843   4.736   1.898   0.742  0.5466 -0.2515 -0.1426
 8768SOL    HW234844   4.751   1.855   0.827  1.1910 -0.8618 -0.5500
 8768SOL    HW334845   4.657   1.855   0.708  1.9581 -2.2100 -1.1783
 8768SOL    MW434846   4.728   1.886   0.749 -0.1843 -0.2298  0.2582
 8769SOL     OW34847   5.094   3.517   2.498  0.1662  0.4872 -0.3801
 8769SOL    HW234848   5.164   3.482   2.442 -0.8626 -1.6800 -0.4126
 8769SOL    HW334849   5.031   3.554   2.436  1.2598  2.5165 -0.3472
 8769SOL    MW434850   5.095   3.517   2.482  0.2665 -0.5608  0.1639
 8770SOL     OW34851   6.269   6.126   4.890  0.1408  0.3314  0.1916
 8770SOL    HW234852   6.279   6.120   4.795 -0.8285  1.0797  0.0304
 8770SOL    HW334853   6.355   6.102   4.925  0.2483 -0.8449 -0.8371
 8770SOL    MW434854   6.282   6.122   4.882  0.1523  0.1064 -0.7684
 8771SOL     OW34855   4.376   1.856   6.230  0.3814  0.0519 -0.0858
 8771SOL    HW234856   4.403   1.942   6.262  0.9751  0.2754 -1.1482
 8771SOL    HW334857   4.285   1.847   6.259  0.1230  1.2946 -0.4448
 8771SOL    MW434858   4.368   1.866   6.238 -0.4234  0.1834 -0.0222
 8772SOL     OW34859   5.111   3.881   3.003  0.1416 -0.6025  0.3802
 8772SOL    HW234860   5.176   3.872   3.072  0.2113  0.0782  0.4069
 8772SOL    HW334861   5.074   3.968   3.015 -0.3108 -0.7276 -0.0421
 8772SOL    MW434862   5.114   3.891   3.014 -0.0962 -0.0455 -0.0456
 8773SOL     OW34863   3.910   4.172   2.653  0.4400  0.2468  0.2503
 8773SOL    HW234864   3.819   4.153   2.676  0.5977 -1.7922 -0.5299
 8773SOL    HW334865   3.908   4.184   2.558  1.1971 -1.7166 -0.0660
 8773SOL    MW434866   3.898   4.171   2.643 -0.1315  0.6805 -0.1579
 8774SOL     OW34867   1.528   4.068   4.743 -0.0512 -0.1477  0.0330
 8774SOL    HW234868   1.595   4.075   4.675  0.2115  0.8611  0.3787
 8774SOL    HW334869   1.482   4.152   4.740 -0.4362 -0.3277  0.6948
 8774SOL    MW434870   1.531   4.080   4.734 -1.0270 -0.5555 -0.7789
 8775SOL     OW34871   5.221   3.451   3.442 -0.1201  0.7301 -0.3556
 8775SOL    HW234872   5.183   3.520   3.496 -1.6309  0.2758 -0.7976
 8775SOL    HW334873   5.185   3.370   3.477  0.6797  0.2440 -0.6174
 8775SOL    MW434874   5.211   3.449   3.454  0.0188 -0.6246  0.1008
 8776SOL     OW34875   0.616   4.879   0.504 -0.1091  0.1863  0.0671
 8776SOL    HW234876   0.594   4.889   0.411 -1.2865 -0.1980  0.2949
 8776SOL    HW334877   0.643   4.966   0.531  0.3551  0.2800 -0.6596
 8776SOL    MW434878   0.617   4.892   0.495 -0.7564 -0.6293 -0.1567
 8777SOL     OW34879   4.288   0.013   6.190 -0.2852  0.6241  0.1155
 8777SOL    HW234880   4.281  -0.059   6.127 -0.1782 -0.1920  1.0072
 8777SOL    HW334881   4.287  -0.030   6.275 -0.7829  1.7261  0.6929
 8777SOL    MW434882   4.287  -0.002   6.193 -0.1169  0.3863 -0.0142
 8778SOL     OW34883   1.879   0.978   4.718 -0.0970  0.2917 -0.1215
 8778SOL    HW234884   1.803   0.941   4.673  0.0793 -1.4766  0.9385
 8778SOL    HW334885   1.939   0.904   4.727 -0.4364  0.2817  3.6215
 8778SOL    MW434886   1.877   0.963   4.713 -0.4233 -0.1372 -0.3948
 8779SOL     OW34887   4.594   2.358   3.728 -0.1737  0.1611 -0.0154
 8779SOL    HW234888   4.661   2.387   3.790  0.9495 -0.1637 -1.0472
 8779SOL    HW334889   4.597   2.262   3.732 -0.5482  0.1452 -0.0870
 8779SOL    MW434890   4.603   2.349   3.737 -0.2364  0.2172 -0.1955
 8780SOL     OW34891   0.521   4.496   6.322  0.3163 -0.7671 -0.2373
 8780SOL    HW234892   0.592   4.510   6.260  0.4675 -2.9438 -0.6286
 8780SOL    HW334893   0.445   4.474   6.268  0.6958 -3.7210  0.2624
 8780SOL    MW434894   0.520   4.495   6.307 -0.3581  0.1994 -0.2090
 8781SOL     OW34895   3.484   1.607   5.719  0.3011  0.4073 -0.2571
 8781SOL    HW234896   3.408   1.649   5.760  0.4411  0.0849  0.3307
 8781SOL    HW334897   3.501   1.529   5.772  0.1069 -0.3557 -1.2707
 8781SOL    MW434898   3.476   1.602   5.731 -0.1806 -0.3058 -1.2122
 8782SOL     OW34899   1.812   0.370   3.592 -0.2917  0.1702  0.1724
 8782SOL    HW234900   1.797   0.447   3.647 -0.2777  1.1303 -1.1191
 8782SOL    HW334901   1.824   0.298   3.654  0.7446  1.3859  1.4529
 8782SOL    MW434902   1.812   0.370   3.607 -0.2243 -0.0088  0.0137
 8783SOL     OW34903   0.287   0.450   0.200  0.3503 -0.6310  0.8060
 8783SOL    HW234904   0.374   0.457   0.160 -0.9300  1.6671 -1.8791
 8783SOL    HW334905   0.246   0.376   0.156  0.0600 -0.0624  0.0922
 8783SOL    MW434906   0.293   0.441   0.189  0.0442  0.0985 -0.1953
 8784SOL     OW34907   6.221   0.578   1.441  0.3976  0.4278 -0.0907
 8784SOL    HW234908   6.280   0.552   1.371 -1.5043  0.8302 -1.9293
 8784SOL    HW334909   6.231   0.673   1.447 -1.0107  0.7034 -1.4085
 8784SOL    MW434910   6.230   0.587   1.433 -0.0966 -0.9344 -0.1873
 8785SOL     OW34911   1.074   4.698   1.384 -0.2172  0.1568  0.1110
 8785SOL    HW234912   1.168   4.704   1.401 -0.2487 -0.6832  0.5720
 8785SOL    HW334913   1.053   4.781   1.341  0.5704  0.7055  0.7588
 8785SOL    MW434914   1.084   4.710   1.380  0.2576  0.3624  0.6559
 8786SOL     OW34915   1.509   2.384   4.112  0.2976  0.5585  0.6008
 8786SOL    HW234916   1.416   2.358   4.112  0.1948  0.7921  2.1850
 8786SOL    HW334917   1.554   2.312   4.068 -0.5156 -0.1279  0.8478
 8786SOL    MW434918   1.502   2.371   4.106 -0.2529  0.1427  0.9493
 8787SOL     OW34919   6.038   1.322   3.143 -0.6743 -0.2734 -0.5656
 8787SOL    HW234920   6.088   1.378   3.203 -0.3016  1.2484 -2.2065
 8787SOL    HW334921   5.967   1.378   3.112 -0.3765 -0.7382 -2.1618
 8787SOL    MW434922   6.035   1.337   3.147  0.0984 -0.1222 -0.1701
 8788SOL     OW34923   4.778   4.951   0.580  0.7233  0.7444  0.6643
 8788SOL    HW234924   4.872   4.931   0.577  0.6483  0.4999 -2.0362
 8788SOL    HW334925   4.735   4.866   0.578  0.3853  0.8446  2.1550
 8788SOL    MW434926   4.785   4.937   0.580 -0.3375  0.3523  0.4056
 8789SOL     OW34927   1.527   3.374   2.116  0.0828  0.0714 -0.2191
 8789SOL    HW234928   1.514   3.374   2.211  0.5791 -0.3692 -0.1381
 8789SOL    HW334929   1.564   3.460   2.097 -2.6415  1.2724 -0.4391
 8789SOL    MW434930   1.530   3.385   2.126 -0.0485  0.1126 -0.0565
 8790SOL     OW34931   3.413   6.053   4.496  0.1327  0.0231  0.1171
 8790SOL    HW234932   3.388   5.991   4.566  2.1407 -2.4635 -1.1915
 8790SOL    HW334933   3.422   5.998   4.418  1.5872  2.0840 -1.2519
 8790SOL    MW434934   3.411   6.037   4.495  0.0386  0.7844  0.6156
 8791SOL     OW34935   2.796   0.753   0.636  0.8025  0.6025 -0.3151
 8791SOL    HW234936   2.776   0.787   0.549  0.7187  0.8490 -0.1999
 8791SOL    HW334937   2.800   0.658   0.624 -0.6306  0.5262 -0.3074
 8791SOL    MW434938   2.794   0.745   0.623 -0.3748 -0.8090  0.2234
 8792SOL     OW34939   3.065   4.252   1.829  0.4757 -0.2721  0.2755
 8792SOL    HW234940   3.090   4.291   1.745 -1.3230 -1.3045 -0.8249
 8792SOL    HW334941   3.089   4.160   1.820  1.6753 -0.1050  1.5329
 8792SOL    MW434942   3.071   4.245   1.817 -0.3818  0.3543  0.3217
 8793SOL     OW34943   5.346   6.257   2.460  0.2114  0.7219 -0.8493
 8793SOL    HW234944   5.250   6.249   2.454 -0.2495  0.2186  3.8550
 8793SOL    HW334945   5.362   6.351   2.462 -0.3318  0.8073 -0.2710
 8793SOL    MW434946   5.335   6.268   2.459 -0.1459  0.0212 -0.0300
 8794SOL     OW34947   0.023   5.760   6.246 -0.7783 -0.5212  0.0940
 8794SOL    HW234948  -0.040   5.763   6.319 -1.9052  1.1906 -0.8961
 8794SOL    HW334949  -0.029   5.780   6.169  1.0133  1.1417 -0.7428
 8794SOL    MW434950   0.008   5.763   6.246 -0.0527  0.2829 -1.0826
 8795SOL     OW34951   4.516   1.179   2.949  0.5045 -0.2469  0.0566
 8795SOL    HW234952   4.459   1.102   2.944  1.1725 -0.8230  1.0049
 8795SOL    HW334953   4.457   1.253   2.934 -0.3603 -0.8739  0.2530
 8795SOL    MW434954   4.500   1.179   2.947  0.0439 -0.4754  0.0365
 8796SOL     OW34955   5.170   1.226   4.480 -1.0348 -0.1362  0.1840
 8796SOL    HW234956   5.154   1.297   4.543 -0.0089  0.9557 -0.7320
 8796SOL    HW334957   5.200   1.153   4.534  2.2809  1.5350  0.8620
 8796SOL    MW434958   5.171   1.226   4.496 -0.3192 -0.0755 -0.3950
 8797SOL     OW34959   0.580   5.737   5.589 -0.1328  0.0293  0.8117
 8797SOL    HW234960   0.501   5.739   5.643 -0.7629  1.4865 -0.0882
 8797SOL    HW334961   0.618   5.824   5.599 -0.7265  0.6563 -1.6736
 8797SOL    MW434962   0.574   5.749   5.597 -0.0938  0.0791  0.1530
 8798SOL     OW34963   0.946   5.052   0.729  0.3487  0.8357 -0.0214
 8798SOL    HW234964   0.935   5.010   0.814  0.5774 -0.2369 -0.4930
 8798SOL    HW334965   1.007   4.995   0.682 -0.8877  0.5944 -1.4187
 8798SOL    MW434966   0.952   5.039   0.734 -0.1732  0.8505 -0.2600
 8799SOL     OW34967   1.169   4.634   0.042  0.2527 -0.1191  0.4503
 8799SOL    HW234968   1.231   4.579   0.088  0.0691 -0.3785  0.3865
 8799SOL    HW334969   1.101   4.574   0.011 -0.1341  0.1891  0.6927
 8799SOL    MW434970   1.168   4.619   0.044  0.4393  0.1817  0.0156
 8800SOL     OW34971   3.364   0.648   5.930 -0.2030 -0.1961  0.2366
 8800SOL    HW234972   3.447   0.635   5.883  0.5279 -1.6851  1.8273
 8800SOL    HW334973   3.383   0.719   5.992 -0.5681  0.4336 -0.3644
 8800SOL    MW434974   3.378   0.656   5.932  0.3733 -0.5189 -0.2681
 8801SOL     OW34975   4.010   4.960   5.550  0.3265 -0.0545 -0.2192
 8801SOL    HW234976   4.084   4.911   5.586  0.9713 -0.1551 -1.6110
 8801SOL    HW334977   3.947   4.965   5.622  1.6968  0.0854  1.0219
 8801SOL    MW434978   4.011   4.954   5.564  0.1761  0.2954  0.0089
 8802SOL     OW34979   1.654   4.601   3.886  0.4358  0.0969 -0.1641
 8802SOL    HW234980   1.715   4.644   3.945 -0.4893 -1.1294  1.7846
 8802SOL    HW334981   1.687   4.512   3.876 -0.0598 -0.0546 -0.5580
 8802SOL    MW434982   1.666   4.595   3.892  0.5902  0.0528  0.1406
 8803SOL     OW34983   4.794   3.776   1.924  0.1407  0.2855 -0.6937
 8803SOL    HW234984   4.747   3.801   2.003 -0.0460 -0.2461 -0.6374
 8803SOL    HW334985   4.726   3.772   1.856 -0.0724 -1.4186 -0.4149
 8803SOL    MW434986   4.779   3.779   1.925  0.1449  0.1703  0.3214
 8804SOL     OW34987   4.845   5.691   3.638 -0.4545 -0.1448  0.1023
 8804SOL    HW234988   4.911   5.727   3.697  2.4052 -0.5003 -2.6471
 8804SOL    HW334989   4.817   5.765   3.585 -0.9819 -0.3487  0.0850
 8804SOL    MW434990   4.850   5.705   3.639 -0.1959  0.1911  0.3576
 8805SOL     OW34991   1.604   4.677   5.467 -0.0479  0.9540  0.3158
 8805SOL    HW234992   1.636   4.615   5.402  2.2556  1.1689  1.1518
 8805SOL    HW334993   1.572   4.623   5.539 -0.0191  0.7272  0.1586
 8805SOL    MW434994   1.604   4.662   5.468 -0.0011  0.7599  0.5247
 8806SOL     OW34995   2.056   4.345   4.390  0.2969  0.6735  0.1764
 8806SOL    HW234996   2.041   4.385   4.475  1.4068  0.4820  0.4685
 8806SOL    HW334997   2.110   4.407   4.342  0.0887  0.5605 -0.2168
 8806SOL    MW434998   2.061   4.358   4.395  0.3430 -0.4021 -1.1199
 8807SOL     OW34999   4.649   5.554   0.904 -0.1168 -0.2456  0.1258
 8807SOL    HW235000   4.728   5.565   0.956  0.3279 -0.4614 -0.4950
 8807SOL    HW335001   4.664   5.474   0.854 -1.1381 -0.8411  0.7299
 8807SOL    MW435002   4.661   5.545   0.904  0.4068  0.5196 -0.2021
 8808SOL     OW35003   5.752   0.359   0.123  0.1751 -0.9504 -0.1540
 8808SOL    HW235004   5.775   0.319   0.207 -0.7029 -0.0758  0.5267
 8808SOL    HW335005   5.765   0.453   0.136  1.8511 -0.9263 -1.6149
 8808SOL    MW435006   5.757   0.366   0.136  0.5939  0.8644  0.2348
 8809SOL     OW35007   2.299   3.582   2.469  0.0504  0.2317 -0.3138
 8809SOL    HW235008   2.284   3.530   2.548  3.7453 -0.5399  0.0204
 8809SOL    HW335009   2.251   3.664   2.486 -1.1321 -0.7785  1.6672
 8809SOL    MW435010   2.290   3.586   2.482 -0.3377  0.1639  0.0167
 8810SOL     OW35011   0.293   0.433   0.638  0.8838  0.1652  0.3488
 8810SOL    HW235012   0.359   0.493   0.673 -0.2484  0.9896  1.1739
 8810SOL    HW335013   0.337   0.349   0.632  2.3195  0.9281 -0.1721
 8810SOL    MW435014   0.307   0.430   0.642 -0.6099  0.0853 -0.5073
 8811SOL     OW35015   2.104   5.256   2.139  0.1413 -0.5499  0.4071
 8811SOL    HW235016   2.141   5.189   2.196  0.5373 -0.4423  0.2783
 8811SOL    HW335017   2.031   5.292   2.189  0.8911 -0.0019  1.1226
 8811SOL    MW435018   2.099   5.252   2.153  0.1717  0.9054 -0.0514
 8812SOL     OW35019   4.947   4.327   0.249  0.1962  1.0313  0.1628
 8812SOL    HW235020   4.878   4.376   0.204 -0.1351  0.0577 -0.4198
 8812SOL    HW335021   4.933   4.346   0.342 -2.5620 -1.1540  0.3461
 8812SOL    MW435022   4.936   4.336   0.256  0.4894 -0.2760 -0.2782
 8813SOL     OW35023   2.072   3.533   5.889 -0.4344 -0.0058  0.1097
 8813SOL    HW235024   2.047   3.612   5.937 -0.5442 -0.4393  0.7801
 8813SOL    HW335025   2.160   3.512   5.923  0.2386  0.6673 -1.1543
 8813SOL    MW435026   2.081   3.541   5.900  0.1082  0.0653  0.8131
 8814SOL     OW35027   4.173   4.588   1.942  0.0880  0.3560 -0.3645
 8814SOL    HW235028   4.189   4.587   2.036  2.3440 -0.3893 -0.7070
 8814SOL    HW335029   4.156   4.680   1.921  0.8121  0.7136  0.5911
 8814SOL    MW435030   4.172   4.600   1.951 -0.4082 -0.0424 -0.1556
 8815SOL     OW35031   4.636   6.336   1.099  0.4654  0.3352 -0.6374
 8815SOL    HW235032   4.628   6.342   1.004 -0.9927  1.2022 -0.4798
 8815SOL    HW335033   4.562   6.385   1.133  1.8969  1.4893  0.9769
 8815SOL    MW435034   4.625   6.343   1.091 -0.2223  0.4144 -0.2134
 8816SOL     OW35035   4.090   2.896   2.933 -0.5553  0.1297  0.2014
 8816SOL    HW235036   4.089   2.956   2.859  0.9970  1.7463  1.4064
 8816SOL    HW335037   4.000   2.896   2.965 -1.0075  0.2303 -1.0129
 8816SOL    MW435038   4.078   2.904   2.928 -0.5668  0.0639 -0.1745
 8817SOL     OW35039   1.969   3.775   4.522 -0.2465 -0.8869  0.3724
 8817SOL    HW235040   2.051   3.727   4.539  0.2490 -0.2006 -0.0215
 8817SOL    HW335041   1.976   3.854   4.575 -1.2398 -1.4094  1.3276
 8817SOL    MW435042   1.981   3.779   4.532  0.3507  0.8151  0.1577
 8818SOL     OW35043   5.268   3.389   4.479 -0.3821 -0.0059  0.7515
 8818SOL    HW235044   5.228   3.308   4.448 -0.2608 -0.1805  1.0437
 8818SOL    HW335045   5.340   3.360   4.534 -0.8581  0.2865  1.5472
 8818SOL    MW435046   5.272   3.375   4.482 -0.1164  0.2353  0.4106
 8819SOL     OW35047   0.328   2.744   5.218 -0.1087  0.2033 -0.2650
 8819SOL    HW235048   0.301   2.772   5.130  1.0244 -0.1791 -0.7526
 8819SOL    HW335049   0.301   2.653   5.223 -0.8671  0.4412  0.0865
 8819SOL    MW435050   0.321   2.736   5.207 -0.0320 -0.7563 -0.4822
 8820SOL     OW35051   2.603   3.010   3.591 -0.6145 -0.3488 -0.5891
 8820SOL    HW235052   2.619   2.931   3.539 -0.8164  0.1294 -1.3895
 8820SOL    HW335053   2.629   3.082   3.534  1.2755  0.1201  0.7663
 8820SOL    MW435054   2.609   3.009   3.577 -0.0825 -0.6569  0.5540
 8821SOL     OW35055   4.107   4.280   5.963 -0.9154  0.0900  0.1423
 8821SOL    HW235056   4.171   4.267   5.892 -1.4886  0.6393 -0.4844
 8821SOL    HW335057   4.027   4.239   5.931 -1.4211  1.0929  0.1011
 8821SOL    MW435058   4.105   4.273   5.949  0.1019  0.7164 -0.6764
 8822SOL     OW35059   0.741   4.355   3.542 -0.6727  0.5952 -0.3339
 8822SOL    HW235060   0.836   4.365   3.548 -0.7357  0.4187  2.2321
 8822SOL    HW335061   0.725   4.328   3.451  1.4325  3.1906 -1.6118
 8822SOL    MW435062   0.751   4.352   3.531 -0.0321 -0.6880 -0.6390
 8823SOL     OW35063   5.069   1.289   2.272  0.1730  0.1909  0.0633
 8823SOL    HW235064   5.000   1.351   2.251  0.7813  0.6744 -0.5624
 8823SOL    HW335065   5.105   1.320   2.355  0.0931  0.3334  0.0445
 8823SOL    MW435066   5.065   1.301   2.280  0.1209 -0.8430 -0.0298
 8824SOL     OW35067   3.531   6.298   3.950  0.4464  0.2266 -0.3372
 8824SOL    HW235068   3.507   6.242   3.877 -0.8511  0.6186 -0.2401
 8824SOL    HW335069   3.449   6.312   3.998  1.1714  0.3745  0.9192
 8824SOL    MW435070   3.517   6.293   3.947  0.1492 -0.2607 -0.1576
 8825SOL     OW35071   3.033   2.356   1.108 -0.0332 -0.3903 -0.1962
 8825SOL    HW235072   2.958   2.299   1.094  0.0318 -0.5735  0.1615
 8825SOL    HW335073   3.100   2.324   1.047 -0.6216  0.5053 -1.3347
 8825SOL    MW435074   3.032   2.344   1.098 -0.0101 -0.0723  0.4486
 8826SOL     OW35075   5.239   1.117   0.981  0.0008  0.1123  0.0468
 8826SOL    HW235076   5.272   1.031   0.958  2.5640  0.9998  0.0484
 8826SOL    HW335077   5.212   1.110   1.073 -0.6612 -0.8698 -0.2113
 8826SOL    MW435078   5.239   1.105   0.990  0.1766  0.3909  0.2540
 8827SOL     OW35079   6.379   6.368   5.801  0.2773  0.3015 -0.0849
 8827SOL    HW235080   6.392   6.420   5.880 -2.2108  0.6687  0.1710
 8827SOL    HW335081   6.402   6.427   5.729  1.4449  0.3481  0.3071
 8827SOL    MW435082   6.384   6.383   5.802  0.2295 -0.0457  0.7789
 8828SOL     OW35083   1.648   2.540   4.990 -0.0326  0.2153 -0.2480
 8828SOL    HW235084   1.597   2.471   5.033 -0.5046 -0.5007 -1.8891
 8828SOL    HW335085   1.739   2.514   5.004 -0.2005 -0.6793 -0.7186
 8828SOL    MW435086   1.654   2.527   4.997 -0.5096 -0.1142 -0.2110
 8829SOL     OW35087   1.513   2.870   2.319 -0.0895 -0.0926 -0.0450
 8829SOL    HW235088   1.603   2.901   2.307 -0.1845  0.1765 -0.0587
 8829SOL    HW335089   1.467   2.898   2.240  0.2874 -1.9733 -1.0024
 8829SOL    MW435090   1.519   2.878   2.307  0.2288 -0.0481 -0.3131
 8830SOL     OW35091   1.211   6.091   3.788  0.1124 -0.3650 -0.2352
 8830SOL    HW235092   1.303   6.109   3.768 -0.1592  0.0096 -1.2070
 8830SOL    HW335093   1.184   6.027   3.723 -0.0130 -1.3656  0.7732
 8830SOL    MW435094   1.219   6.085   3.777 -0.6042 -0.3405  0.3085
 8831SOL     OW35095   5.433   1.380   1.995 -0.0377 -0.5315 -0.5135
 8831SOL    HW235096   5.440   1.454   1.934 -0.8150  0.4868  0.5858
 8831SOL    HW335097   5.339   1.369   2.008  0.1100 -0.8388  0.3517
 8831SOL    MW435098   5.422   1.389   1.988 -0.3482  0.3626 -0.4123
 8832SOL     OW35099   3.414   3.087   0.024 -0.0488 -0.2534  0.0857
 8832SOL    HW235100   3.388   3.142  -0.050  0.7835 -1.6655 -1.3426
 8832SOL    HW335101   3.334   3.041   0.049 -0.7416  1.5077  1.2675
 8832SOL    MW435102   3.400   3.088   0.017 -0.8718  0.5512 -0.1000
 8833SOL     OW35103   2.937   6.013   3.554 -0.4193 -0.3003 -0.2574
 8833SOL    HW235104   2.844   6.002   3.569 -0.2326 -1.8541 -0.0409
 8833SOL    HW335105   2.947   6.006   3.459 -0.6841  1.5479 -0.4584
 8833SOL    MW435106   2.926   6.011   3.543  0.3736 -0.0425  0.3146
 8834SOL     OW35107   0.770   5.840   3.158 -0.3595 -0.2487 -0.0964
 8834SOL    HW235108   0.803   5.759   3.119 -2.0098  0.1230 -2.5244
 8834SOL    HW335109   0.719   5.812   3.234 -0.4018 -1.4215 -0.5486
 8834SOL    MW435110   0.767   5.826   3.163 -0.1545  0.0207  0.5823
 8835SOL     OW35111   3.715   6.084   2.460  0.1174  0.0054 -0.4555
 8835SOL    HW235112   3.685   6.001   2.423  2.1445 -0.9974  0.0145
 8835SOL    HW335113   3.769   6.123   2.391  0.4518  0.1578 -0.1150
 8835SOL    MW435114   3.718   6.078   2.446 -0.5216  0.7305  0.1000
 8836SOL     OW35115   0.615   0.802   0.874  0.1148  0.3970 -0.6503
 8836SOL    HW235116   0.693   0.814   0.819  0.3281 -2.0545 -0.9885
 8836SOL    HW335117   0.561   0.740   0.825  0.3061 -1.9021  1.8477
 8836SOL    MW435118   0.618   0.795   0.860 -0.0968 -0.0713  0.5486
 8837SOL     OW35119   0.604   0.353   2.306 -0.0111 -0.1406 -0.4209
 8837SOL    HW235120   0.592   0.436   2.259 -0.3513 -0.8128 -1.5765
 8837SOL    HW335121   0.539   0.356   2.376 -0.5624  0.2454 -0.9364
 8837SOL    MW435122   0.594   0.364   2.309  0.3730 -0.1708 -0.2706
 8838SOL     OW35123   2.660   5.001   2.769 -0.0458  0.5927  0.3611
 8838SOL    HW235124   2.568   4.984   2.787 -0.0274  0.9835  0.8565
 8838SOL    HW335125   2.691   4.923   2.723 -0.5331  0.3134  0.5031
 8838SOL    MW435126   2.652   4.989   2.765 -0.2141 -0.0157 -0.2591
 8839SOL     OW35127   0.154   5.896   2.314  0.0420  0.3705  0.0028
 8839SOL    HW235128   0.210   5.946   2.373 -0.5404  2.3732 -1.0513
 8839SOL    HW335129   0.087   5.857   2.370  0.2908  1.0756  0.8045
 8839SOL    MW435130   0.153   5.897   2.329 -0.4102 -0.4552 -0.7248
 8840SOL     OW35131   6.231   2.155   1.631 -0.4936 -0.5294  0.3503
 8840SOL    HW235132   6.152   2.129   1.584 -0.0539 -0.1992 -0.6089
 8840SOL    HW335133   6.234   2.251   1.622 -0.3249 -0.4729  0.9403
 8840SOL    MW435134   6.221   2.164   1.624 -0.2836  0.3361 -0.1370
 8841SOL     OW35135   5.328   0.827   3.226  0.0528 -0.4369 -0.1013
 8841SOL    HW235136   5.348   0.748   3.175 -0.6681 -1.6386  1.3760
 8841SOL    HW335137   5.233   0.824   3.238  0.1168  0.2533  0.6231
 8841SOL    MW435138   5.318   0.816   3.221  0.0932 -0.2543  0.3763
 8842SOL     OW35139   3.751   1.012   5.189  0.6185  0.1369 -0.7424
 8842SOL    HW235140   3.745   1.064   5.108  0.1867 -1.1594 -1.5785
 8842SOL    HW335141   3.780   0.926   5.159  0.4512 -0.3637  0.5066
 8842SOL    MW435142   3.754   1.008   5.174 -0.2831 -0.0207  0.5782
 8843SOL     OW35143   3.673   4.180   5.170  0.7216 -0.0748 -0.5881
 8843SOL    HW235144   3.726   4.260   5.174  1.1253 -0.3751  1.7968
 8843SOL    HW335145   3.604   4.195   5.235 -0.9459 -0.5371 -2.1741
 8843SOL    MW435146   3.671   4.192   5.179 -0.1158  0.1044  0.0499
 8844SOL     OW35147   5.365   4.488   4.011 -0.2346 -0.3620 -0.1037
 8844SOL    HW235148   5.308   4.555   3.974  0.3740  0.7000  0.8287
 8844SOL    HW335149   5.331   4.473   4.099  0.6156 -0.0846  0.2814
 8844SOL    MW435150   5.353   4.495   4.017 -0.3817 -0.6237 -0.2609
 8845SOL     OW35151   4.151   0.688   5.171 -0.3225 -0.2250 -0.0998
 8845SOL    HW235152   4.162   0.748   5.244 -1.8646  1.4626 -1.1577
 8845SOL    HW335153   4.161   0.601   5.210  0.2323  0.6400  1.8307
 8845SOL    MW435154   4.154   0.684   5.186  0.3204 -0.3553  0.8554
 8846SOL     OW35155   0.548   5.475   3.365  0.2244 -0.3091 -0.2282
 8846SOL    HW235156   0.626   5.469   3.308  0.7530  0.2227  0.4274
 8846SOL    HW335157   0.476   5.493   3.305  0.1811 -3.0151 -1.1490
 8846SOL    MW435158   0.549   5.477   3.349 -0.1777  0.1667  0.2094
 8847SOL     OW35159   4.169   2.005   5.610 -0.0312  0.1550  0.1863
 8847SOL    HW235160   4.182   2.036   5.521 -0.3717  1.5133  0.5900
 8847SOL    HW335161   4.074   1.995   5.619 -0.2196  2.3034  1.0947
 8847SOL    MW435162   4.158   2.007   5.599 -0.1297  0.0490  0.3197
 8848SOL     OW35163   3.512   0.548   1.614  0.3053 -0.2360  0.2445
 8848SOL    HW235164   3.565   0.492   1.671  1.0740 -0.1821 -0.4022
 8848SOL    HW335165   3.505   0.499   1.532  0.3340  0.2663 -0.0607
 8848SOL    MW435166   3.518   0.534   1.611 -0.4901  0.4016 -0.2106
 8849SOL     OW35167   2.548   4.739   5.756 -0.0619  0.3706 -0.1191
 8849SOL    HW235168   2.526   4.785   5.675 -1.6505  0.5683  0.3911
 8849SOL    HW335169   2.476   4.760   5.816 -0.6607 -2.4205  0.2896
 8849SOL    MW435170   2.536   4.748   5.753 -0.2883  0.5228  0.4396
 8850SOL     OW35171   1.885   3.824   3.402 -0.1664  0.2768  0.2806
 8850SOL    HW235172   1.834   3.869   3.334 -0.3672 -2.4128 -1.5152
 8850SOL    HW335173   1.976   3.844   3.380 -0.1902 -1.0636 -1.2839
 8850SOL    MW435174   1.890   3.833   3.390  0.1342 -0.0700  0.1357
 8851SOL     OW35175   2.516   5.435   4.354  0.2940 -0.3181  0.3521
 8851SOL    HW235176   2.505   5.421   4.448  1.2970  0.5982  0.6296
 8851SOL    HW335177   2.473   5.518   4.337  0.3634 -0.3398  0.0594
 8851SOL    MW435178   2.509   5.444   4.365  0.3999  0.3241 -0.2887
 8852SOL     OW35179   1.912   4.449   4.149 -0.1795 -0.0039  0.7695
 8852SOL    HW235180   1.950   4.403   4.224  0.5433 -1.1931 -0.2796
 8852SOL    HW335181   1.826   4.478   4.179  0.3562  0.1535  2.2604
 8852SOL    MW435182   1.906   4.447   4.163 -0.2225  0.5888 -0.2915
 8853SOL     OW35183   4.268   5.976   5.382 -0.3637  0.0020 -0.0860
 8853SOL    HW235184   4.197   6.017   5.332 -0.0245  0.0680 -0.5246
 8853SOL    HW335185   4.279   5.890   5.342 -0.3506 -0.0962  0.1291
 8853SOL    MW435186   4.260   5.970   5.370  0.7124  0.0759 -0.3587
 8854SOL     OW35187   5.194   3.431   5.794 -0.0473 -0.6552 -0.1321
 8854SOL    HW235188   5.252   3.356   5.779  1.9859  0.8712 -0.3853
 8854SOL    HW335189   5.131   3.428   5.722  0.4434 -1.7211 -0.5290
 8854SOL    MW435190   5.193   3.421   5.782  1.0166  0.6040  0.0068
 8855SOL     OW35191   5.417   2.892   0.743 -0.3681 -0.1005 -0.3572
 8855SOL    HW235192   5.511   2.877   0.749 -0.5952 -1.0646  2.0010
 8855SOL    HW335193   5.382   2.813   0.703 -0.2821 -0.2755 -0.0902
 8855SOL    MW435194   5.424   2.880   0.739 -0.3048  0.0647 -0.0680
 8856SOL     OW35195   3.904   1.795   1.787 -0.4244 -0.3300  0.3143
 8856SOL    HW235196   3.914   1.860   1.717 -1.6417 -1.0215 -0.5571
 8856SOL    HW335197   3.865   1.844   1.859  1.6049  0.5780  0.8669
 8856SOL    MW435198   3.900   1.810   1.787  0.2219 -0.6165 -0.6274
 8857SOL     OW35199   2.953   0.478   2.720 -0.1233  0.1221  0.0621
 8857SOL    HW235200   2.945   0.573   2.725 -0.3728  0.1980 -1.2979
 8857SOL    HW335201   3.037   0.464   2.675 -0.8609 -0.2270 -1.2778
 8857SOL    MW435202   2.963   0.489   2.715  0.2073 -0.2003 -0.1180
 8858SOL     OW35203   0.942   1.075   1.956 -0.4615  0.0369  0.3352
 8858SOL    HW235204   0.890   1.154   1.973 -0.6901 -0.0940  0.2583
 8858SOL    HW335205   0.881   1.002   1.970 -0.4206 -0.1042 -0.1720
 8858SOL    MW435206   0.927   1.076   1.960 -0.7711 -0.3321 -1.0203
 8859SOL     OW35207   3.386   2.230   3.468  0.1043  0.5069  0.5735
 8859SOL    HW235208   3.371   2.310   3.418 -1.4807 -0.2762 -0.3230
 8859SOL    HW335209   3.379   2.160   3.403 -1.1765 -0.4991  1.7164
 8859SOL    MW435210   3.383   2.231   3.453 -0.3343 -0.2715 -0.4213
 8860SOL     OW35211   2.797   1.594   4.938 -0.0142  0.4164 -0.2176
 8860SOL    HW235212   2.739   1.574   5.012 -0.2791 -1.7354 -0.9332
 8860SOL    HW335213   2.883   1.608   4.977  0.0613 -1.6389  0.4905
 8860SOL    MW435214   2.800   1.593   4.952 -0.4568  0.0536  0.2893
 8861SOL     OW35215   3.087   1.583   0.375  0.0936  0.1736  0.1346
 8861SOL    HW235216   3.017   1.561   0.437 -0.7469 -2.2064 -1.4994
 8861SOL    HW335217   3.070   1.674   0.351 -2.0808 -0.1189  0.3123
 8861SOL    MW435218   3.075   1.592   0.380  0.8117 -0.6473 -0.0713
 8862SOL     OW35219   3.278   2.043   2.368  0.0482  0.1834 -0.4378
 8862SOL    HW235220   3.339   2.116   2.383  0.8820 -0.6793  0.5919
 8862SOL    HW335221   3.196   2.072   2.407  0.2296  0.7844 -0.4942
 8862SOL    MW435222   3.276   2.056   2.375  1.2349  0.0020 -0.4453
 8863SOL     OW35223   6.090   0.853   2.463 -0.1140 -0.6676 -0.2041
 8863SOL    HW235224   6.145   0.859   2.385  0.8068 -2.4878  0.2500
 8863SOL    HW335225   6.152   0.864   2.536 -1.0478  1.6672  0.3209
 8863SOL    MW435226   6.105   0.855   2.462 -0.5336  0.0395  0.1629
 8864SOL     OW35227   6.115   0.296   2.404  0.1631 -0.1844  0.1700
 8864SOL    HW235228   6.097   0.362   2.337  0.2087 -0.7412 -0.4062
 8864SOL    HW335229   6.172   0.233   2.360 -0.3951 -0.9370  0.5022
 8864SOL    MW435230   6.120   0.296   2.389 -0.0812  0.1200 -0.5876
 8865SOL     OW35231   4.334   1.330   1.003  0.5160 -0.1532  0.7194
 8865SOL    HW235232   4.241   1.354   1.014  1.1377  1.5877  3.1460
 8865SOL    HW335233   4.334   1.269   0.930 -2.1435  2.3087 -1.6205
 8865SOL    MW435234   4.322   1.325   0.995 -0.1550  0.0625 -0.5032
 8866SOL     OW35235   5.730   1.332   3.468  0.2757  0.3852 -0.0715
 8866SOL    HW235236   5.777   1.249   3.467 -2.2466 -1.1311 -0.4397
 8866SOL    HW335237   5.799   1.398   3.472  2.3624 -1.7018  0.7551
 8866SOL    MW435238   5.745   1.330   3.468  0.2280  0.2950  0.0932
 8867SOL     OW35239   5.418   0.087   2.475 -0.1751  0.3105  0.1473
 8867SOL    HW235240   5.347   0.148   2.458 -0.0663  0.4012  0.0159
 8867SOL    HW335241   5.466   0.082   2.392 -0.2277 -0.0096  0.1358
 8867SOL    MW435242   5.415   0.094   2.462 -0.0264  0.7251 -0.2869
 8868SOL     OW35243   4.692   2.859   4.232  0.2783 -0.2153  0.4569
 8868SOL    HW235244   4.624   2.901   4.284 -0.0919 -0.2827  0.0380
 8868SOL    HW335245   4.658   2.861   4.142  0.6233 -0.6642  0.3110
 8868SOL    MW435246   4.678   2.865   4.227  0.3494 -0.8043  0.1574
 8869SOL     OW35247   0.037   5.507   0.667  0.3337  0.1856 -0.5180
 8869SOL    HW235248   0.045   5.479   0.758  0.5456  1.5736 -0.0853
 8869SOL    HW335249  -0.023   5.443   0.628 -2.6120  1.4947  1.5017
 8869SOL    MW435250   0.030   5.495   0.674 -0.1419 -0.0288 -0.4291
 8870SOL     OW35251   6.016   5.657   4.889  0.0080  0.0844  0.2198
 8870SOL    HW235252   5.947   5.638   4.825 -0.8708  1.4569  0.7024
 8870SOL    HW335253   6.024   5.753   4.886  0.7211  0.0648  1.3723
 8870SOL    MW435254   6.008   5.667   4.880 -0.3042 -0.1313  0.9206
 8871SOL     OW35255   2.113   4.252   6.320  0.0040 -0.4450 -0.2387
 8871SOL    HW235256   2.168   4.330   6.315  1.4030 -1.3515  0.3402
 8871SOL    HW335257   2.156   4.197   6.385 -0.6680 -1.9202 -1.0000
 8871SOL    MW435258   2.126   4.255   6.328 -0.3764  0.2285 -0.2844
 8872SOL     OW35259   1.605   1.237   0.539  0.2002 -0.0143 -0.0591
 8872SOL    HW235260   1.514   1.264   0.532 -0.6221 -2.2304  1.2244
 8872SOL    HW335261   1.612   1.161   0.481  1.1406 -0.1199  0.1822
 8872SOL    MW435262   1.594   1.231   0.530  0.9292 -0.1073 -0.2582
 8873SOL     OW35263   2.382   5.480   6.221 -0.2331 -0.8505 -0.3106
 8873SOL    HW235264   2.392   5.458   6.314 -1.3567 -0.0276  0.0347
 8873SOL    HW335265   2.330   5.408   6.185 -1.0131 -0.4754  0.0402
 8873SOL    MW435266   2.376   5.468   6.229  1.1973  0.4102 -0.1398
 8874SOL     OW35267   1.871   4.177   3.508  0.2624  0.2448  0.4689
 8874SOL    HW235268   1.916   4.261   3.505  0.7608 -0.0305 -2.1679
 8874SOL    HW335269   1.786   4.196   3.548  0.5955  1.8867  0.4450
 8874SOL    MW435270   1.866   4.191   3.513 -0.9824 -0.1496  0.7804
 8875SOL     OW35271   2.107   4.382   2.583  0.9603 -0.7724 -0.1514
 8875SOL    HW235272   2.183   4.350   2.535  1.1075 -1.3635  0.4725
 8875SOL    HW335273   2.084   4.464   2.538  2.8002  0.1553  0.4879
 8875SOL    MW435274   2.114   4.389   2.570  0.3533 -0.1046  0.2528
 8876SOL     OW35275   0.430   1.380   0.274 -0.5825  0.5031 -0.5140
 8876SOL    HW235276   0.463   1.297   0.309  0.1104  0.7312 -0.6223
 8876SOL    HW335277   0.375   1.354   0.200 -1.7022  0.0464  0.4484
 8876SOL    MW435278   0.427   1.366   0.268  0.5507  0.0361 -0.4087
 8877SOL     OW35279   2.525   5.256   4.791  0.3237  0.4226 -0.3142
 8877SOL    HW235280   2.608   5.232   4.832 -0.1396  0.2832  0.5691
 8877SOL    HW335281   2.523   5.207   4.709  1.9072  1.7824 -1.2226
 8877SOL    MW435282   2.536   5.246   4.786  0.3195  0.2064  0.3382
 8878SOL     OW35283   4.473   3.714   5.998  0.1490 -0.2008 -0.1566
 8878SOL    HW235284   4.455   3.735   6.090  0.8625  0.0898 -0.0796
 8878SOL    HW335285   4.412   3.643   5.978  0.4704 -0.7645  0.7536
 8878SOL    MW435286   4.462   3.707   6.008 -0.3483  0.2553 -0.0323
 8879SOL     OW35287   0.166   1.080   0.250  0.7356 -0.0907 -0.0854
 8879SOL    HW235288   0.171   1.160   0.197  1.1997  0.7242  1.1417
 8879SOL    HW335289   0.160   1.010   0.186  0.3744  0.9168 -1.2048
 8879SOL    MW435290   0.166   1.082   0.234 -0.2390  0.3082 -0.3240
 8880SOL     OW35291   4.525   6.053   0.400 -0.0119  0.2258  0.2040
 8880SOL    HW235292   4.496   6.080   0.487  1.7271  1.2443  0.5220
 8880SOL    HW335293   4.589   6.119   0.374  0.5804 -0.8404 -1.2454
 8880SOL    MW435294   4.530   6.065   0.408  0.2685  0.1576 -0.5323
 8881NA      NA35295   3.486   5.834   3.159 -0.1763  0.1558 -0.5323
 8882NA      NA35296   1.281   1.555   3.962 -0.0859  0.2041 -0.0450
 8883NA      NA35297   0.380   2.610   1.137  0.3985  0.3719  0.3005
 8884NA      NA35298   4.588   5.311   4.688 -0.2627 -0.2275  0.2933
 8885NA      NA35299   6.260   2.632   4.232  0.1655  0.1399 -0.2447
 8886NA      NA35300   1.922   3.077   4.767  0.7025 -0.3987  0.2073
 8887NA      NA35301   2.260   1.225   4.663  0.2077 -0.4174  0.2051
   6.42840   6.42840   6.42840
