A-SYNC WITH LIG-47 in water
35301
  121NASP     N    1   1.395   4.240   5.391  0.2468 -0.1748 -0.4005
  121NASP    H1    2   1.414   4.258   5.294 -0.2283  0.4446 -0.3881
  121NASP    H2    3   1.448   4.315   5.434  0.5954  0.4251 -1.8236
  121NASP    H3    4   1.296   4.247   5.410  0.1472  0.0977 -0.9989
  121NASP    CA    5   1.439   4.108   5.435  0.1748  0.2118  0.2861
  121NASP    HA    6   1.429   4.105   5.543  0.9154  0.6148  0.3756
  121NASP    CB    7   1.353   3.991   5.382 -0.1170  0.3471  0.0057
  121NASP   HB1    8   1.379   3.898   5.434  0.9938  1.9205  2.4882
  121NASP   HB2    9   1.372   3.984   5.275 -0.3849 -0.2616 -0.0038
  121NASP    CG   10   1.208   4.010   5.400  0.0771  0.0899 -0.5439
  121NASP   OD1   11   1.161   4.114   5.455  0.3045 -0.3699 -0.0380
  121NASP   OD2   12   1.140   3.914   5.369 -0.0452  0.1377 -0.0993
  121NASP     C   13   1.584   4.099   5.397  0.0336  1.0488  0.9459
  121NASP     O   14   1.615   4.107   5.277 -0.6085 -0.1271  0.1206
  122ASN      N   15   1.677   4.076   5.491  0.6652  0.5638  0.5439
  122ASN      H   16   1.648   4.059   5.586  1.1417 -0.7211  0.4794
  122ASN     CA   17   1.819   4.089   5.470  0.2460  1.3509 -0.7154
  122ASN     HA   18   1.846   4.028   5.383 -0.6053 -1.9635  1.1743
  122ASN     CB   19   1.865   4.233   5.446 -0.2431  0.8077  0.4553
  122ASN    HB1   20   1.808   4.289   5.371  0.8589  1.4578  0.0845
  122ASN    HB2   21   1.962   4.224   5.399 -0.6499 -0.4091 -0.1944
  122ASN     CG   22   1.872   4.316   5.570  0.4444 -0.1051 -0.3761
  122ASN    OD1   23   1.773   4.351   5.639  0.1070 -0.1269 -0.5226
  122ASN    ND2   24   1.994   4.359   5.601 -0.7561  0.0481  0.4314
  122ASN   HD21   25   2.010   4.426   5.675 -0.5459  1.9785 -1.2657
  122ASN   HD22   26   2.074   4.321   5.554  1.3080  2.3515  1.8129
  122ASN      C   27   1.888   4.016   5.582  0.6084  0.1561 -0.2555
  122ASN      O   28   1.839   4.005   5.697 -0.0445 -0.3592 -0.1165
  123GLU      N   29   1.996   3.959   5.543 -0.2110  0.1429 -0.0182
  123GLU      H   30   2.016   3.956   5.445 -1.3087 -2.5452 -0.2538
  123GLU     CA   31   2.075   3.872   5.635  0.1246  0.7280 -0.2340
  123GLU     HA   32   2.001   3.816   5.692 -1.3419  1.9807 -0.8328
  123GLU     CB   33   2.162   3.775   5.559  0.6180  0.1533 -0.1839
  123GLU    HB1   34   2.093   3.736   5.485  1.3055 -1.4492 -0.0138
  123GLU    HB2   35   2.192   3.692   5.623 -0.6417 -2.4912 -2.7971
  123GLU     CG   36   2.273   3.837   5.478  0.1982 -0.4936  0.2879
  123GLU    HG1   37   2.347   3.897   5.531  0.2981  0.7738 -1.2112
  123GLU    HG2   38   2.231   3.919   5.419  0.8198  1.0040  1.8396
  123GLU     CD   39   2.353   3.730   5.399  0.6686  0.6006  0.3345
  123GLU    OE1   40   2.331   3.606   5.419 -0.6028  0.1192 -0.3424
  123GLU    OE2   41   2.426   3.774   5.303  0.2094  0.6047 -0.4030
  123GLU      C   42   2.159   3.951   5.737  0.1530 -0.3771 -0.6251
  123GLU      O   43   2.235   4.044   5.701  0.1306  0.2018 -0.3272
  124ALA      N   44   2.151   3.899   5.855  0.3035 -0.1243  0.0629
  124ALA      H   45   2.079   3.830   5.873 -0.8399  0.9991 -0.0999
  124ALA     CA   46   2.242   3.939   5.966 -0.5890  1.0219  0.0998
  124ALA     HA   47   2.323   3.993   5.918 -2.4071  3.8006 -0.0300
  124ALA     CB   48   2.174   4.034   6.061 -0.5960 -0.1344  0.5004
  124ALA    HB1   49   2.136   4.105   5.988 -1.8046 -0.0271  1.2013
  124ALA    HB2   50   2.246   4.090   6.120 -0.1365  1.1906 -1.2566
  124ALA    HB3   51   2.092   3.994   6.121 -1.1386  0.3486  0.0944
  124ALA      C   52   2.315   3.825   6.037  0.2044  0.2229 -0.1675
  124ALA      O   53   2.269   3.711   6.059 -0.0101  0.3627 -0.4102
  125TYR      N   54   2.432   3.866   6.089 -0.0427 -0.4317 -0.0554
  125TYR      H   55   2.452   3.965   6.078  0.8176 -0.2882  2.3054
  125TYR     CA   56   2.532   3.780   6.162 -0.1124  0.1354 -0.4646
  125TYR     HA   57   2.474   3.700   6.209  0.6200 -0.5683 -0.7255
  125TYR     CB   58   2.637   3.735   6.057 -0.0199 -0.3813 -0.1415
  125TYR    HB1   59   2.702   3.659   6.100 -0.7452 -1.1848 -0.4335
  125TYR    HB2   60   2.687   3.825   6.021  1.4234 -0.6600  1.0580
  125TYR     CG   61   2.583   3.665   5.938 -0.1449 -0.2349  0.2619
  125TYR    CD1   62   2.547   3.532   5.953  0.2203  0.4637 -0.1171
  125TYR    HD1   63   2.553   3.481   6.048  1.2243  1.9743  0.6547
  125TYR    CE1   64   2.481   3.459   5.843 -0.3613 -0.3688 -0.6020
  125TYR    HE1   65   2.441   3.361   5.866  0.9533 -1.2671 -2.0357
  125TYR     CZ   66   2.479   3.519   5.714  0.1834  0.7896  0.0706
  125TYR     OH   67   2.434   3.452   5.610  0.4243 -0.3764  0.3966
  125TYR     HH   68   2.413   3.511   5.537 -0.1633 -1.3702 -0.2729
  125TYR    CE2   69   2.533   3.651   5.696  0.4093 -0.0308 -0.2108
  125TYR    HE2   70   2.543   3.688   5.595 -0.3982 -2.1670 -1.1256
  125TYR    CD2   71   2.588   3.718   5.810  1.1121  0.4643 -0.0621
  125TYR    HD2   72   2.627   3.819   5.804 -2.3918  1.8734 -1.6782
  125TYR      C   73   2.609   3.860   6.272  0.6213  0.1751  0.0082
  125TYR      O   74   2.611   3.986   6.279  0.0778 -0.1378 -0.5198
  126GLU      N   75   2.659   3.789   6.372  0.1577 -0.0105 -0.5676
  126GLU      H   76   2.647   3.689   6.364 -1.9951  0.2804 -1.7423
  126GLU     CA   77   2.721   3.835   6.495  0.1913 -0.1438 -0.6707
  126GLU     HA   78   2.734   3.943   6.488  1.0276 -0.1803  0.0502
  126GLU     CB   79   2.634   3.809   6.615  0.8949 -0.6457 -0.4851
  126GLU    HB1   80   2.537   3.858   6.607  0.0449 -1.6678  2.2027
  126GLU    HB2   81   2.670   3.848   6.711 -1.3720  0.3830  0.0085
  126GLU     CG   82   2.612   3.655   6.635 -0.8771  0.1646  0.4394
  126GLU    HG1   83   2.703   3.605   6.666  0.3895  0.8081 -2.0330
  126GLU    HG2   84   2.586   3.614   6.538  0.1529  1.1432 -0.2774
  126GLU     CD   85   2.504   3.621   6.737  0.2112  0.6738 -1.1434
  126GLU    OE1   86   2.465   3.507   6.750 -0.1753  0.2890  0.4683
  126GLU    OE2   87   2.442   3.706   6.797 -0.2093 -0.7327  0.0412
  126GLU      C   88   2.856   3.777   6.513  1.2507 -0.2518  0.0552
  126GLU      O   89   2.900   3.680   6.446  0.1261  0.0713 -0.0036
  127MET      N   90   2.927   3.827   6.611 -0.7222 -0.2543 -0.8857
  127MET      H   91   2.894   3.903   6.669 -0.0733 -0.8854  0.3525
  127MET     CA   92   3.063   3.780   6.652 -0.2578  0.3202  0.1578
  127MET     HA   93   3.111   3.722   6.572  0.5869  0.2311  0.7216
  127MET     CB   94   3.152   3.899   6.677  0.0127  0.5070 -0.5792
  127MET    HB1   95   3.233   3.862   6.740  1.8613  0.2907 -2.9581
  127MET    HB2   96   3.098   3.979   6.727  0.9744  1.4109 -0.9477
  127MET     CG   97   3.212   3.946   6.546  0.1644  0.0925  0.1198
  127MET    HG1   98   3.246   4.048   6.563  1.4693 -0.2592 -0.2915
  127MET    HG2   99   3.147   3.920   6.463  0.9218 -3.5524  0.5185
  127MET     SD  100   3.363   3.850   6.502  0.0829  0.0776  0.0140
  127MET     CE  101   3.388   3.908   6.331  0.3585  0.0978  0.3013
  127MET    HE1  102   3.414   4.014   6.334  2.0762 -0.2735 -0.4357
  127MET    HE2  103   3.293   3.899   6.278  0.1736  1.1931  0.4253
  127MET    HE3  104   3.458   3.846   6.275 -0.6977 -1.6510  0.8107
  127MET      C  105   3.049   3.683   6.770 -0.1300 -0.4978 -0.4887
  127MET      O  106   2.959   3.707   6.851 -0.2910 -0.2283 -0.3897
  128PRO      N  107   3.136   3.579   6.792  0.0875 -0.0549 -0.1004
  128PRO     CD  108   3.241   3.540   6.704 -0.1276  0.6072 -0.2617
  128PRO    HD1  109   3.306   3.621   6.671  0.9645 -0.6509 -1.3430
  128PRO    HD2  110   3.194   3.495   6.616  1.1192 -1.1566 -0.0978
  128PRO     CG  111   3.328   3.431   6.768 -0.4957  0.1635 -0.2535
  128PRO    HG1  112   3.403   3.481   6.829  0.7588  0.1237 -1.7113
  128PRO    HG2  113   3.374   3.361   6.698 -0.3471  1.2561 -1.2903
  128PRO     CB  114   3.218   3.356   6.851 -0.6338 -0.1214 -0.2693
  128PRO    HB1  115   3.172   3.278   6.790 -1.5773  0.8167 -0.7994
  128PRO    HB2  116   3.265   3.329   6.945 -0.8270 -1.0183 -0.4134
  128PRO     CA  117   3.110   3.468   6.880 -0.0658  0.1950 -0.5782
  128PRO     HA  118   3.012   3.429   6.849 -0.1078  0.5171 -0.8565
  128PRO      C  119   3.104   3.510   7.026  0.3995 -0.0942 -0.9628
  128PRO      O  120   3.167   3.608   7.072  0.3083 -0.0746 -0.4454
  129SER      N  121   3.026   3.444   7.101  0.6748 -0.8282  0.2429
  129SER      H  122   2.988   3.356   7.069 -1.3698 -0.9498  2.7006
  129SER     CA  123   2.974   3.494   7.232 -0.0704 -0.0383 -0.0276
  129SER     HA  124   2.933   3.595   7.226  0.4004  0.1358 -0.3588
  129SER     CB  125   2.850   3.412   7.272 -0.2162  0.6056  0.3438
  129SER    HB1  126   2.810   3.444   7.368  1.0419 -1.2401  1.5308
  129SER    HB2  127   2.887   3.310   7.275 -1.2106  0.2330  0.0069
  129SER     OG  128   2.745   3.419   7.179  0.1635 -0.1676  0.1756
  129SER    HG1  129   2.679   3.354   7.203  1.6040 -1.5008  0.6329
  129SER      C  130   3.075   3.496   7.339 -0.3189  0.2236  0.1128
  129SER      O  131   3.131   3.392   7.362  0.3758  0.0522 -0.2343
  130GLU      N  132   3.105   3.611   7.401 -0.3412  0.6202 -0.3973
  130GLU      H  133   3.057   3.692   7.365  1.7315  2.2450  0.3137
  130GLU     CA  134   3.211   3.627   7.501  0.1245  0.8828  0.1809
  130GLU     HA  135   3.272   3.537   7.493 -1.5422 -0.1241 -2.5519
  130GLU     CB  136   3.290   3.752   7.476  0.0661 -0.2385  0.6634
  130GLU    HB1  137   3.372   3.770   7.545 -0.5491  0.9778  1.1106
  130GLU    HB2  138   3.216   3.831   7.486 -0.1542 -0.3438 -0.0558
  130GLU     CG  139   3.336   3.758   7.332 -0.2999  0.6848  0.5274
  130GLU    HG1  140   3.251   3.749   7.266 -1.3935  1.6969  1.7361
  130GLU    HG2  141   3.390   3.665   7.317 -0.9004  0.4195  0.0258
  130GLU     CD  142   3.416   3.879   7.299  0.3042  0.4213 -0.8174
  130GLU    OE1  143   3.437   3.966   7.384 -0.5081 -0.0039  0.0136
  130GLU    OE2  144   3.464   3.892   7.184 -0.0427  0.1285  0.1497
  130GLU      C  145   3.158   3.629   7.643 -0.0207 -0.6923 -0.2638
  130GLU      O  146   3.039   3.623   7.671 -0.3455  0.4346 -0.3044
  131GLU      N  147   3.253   3.639   7.736  0.4471  0.1011 -0.4620
  131GLU      H  148   3.344   3.666   7.701 -0.1874  1.9741 -0.8182
  131GLU     CA  149   3.238   3.645   7.885  0.4956 -0.3443 -0.3059
  131GLU     HA  150   3.197   3.550   7.918 -0.2967  0.7025  1.9344
  131GLU     CB  151   3.376   3.655   7.953 -0.9640 -0.5847  0.4100
  131GLU    HB1  152   3.433   3.566   7.929  1.0533  0.2710  1.7273
  131GLU    HB2  153   3.367   3.661   8.062 -0.9302 -0.8375  0.4277
  131GLU     CG  154   3.465   3.775   7.910  0.1363 -0.1668 -0.7839
  131GLU    HG1  155   3.514   3.806   8.003 -1.1831 -0.2989 -0.0273
  131GLU    HG2  156   3.412   3.858   7.863  0.3875 -0.2281 -1.1793
  131GLU     CD  157   3.569   3.745   7.803 -0.4088  0.1628 -0.4473
  131GLU    OE1  158   3.641   3.840   7.772 -0.0527  0.5106 -0.1660
  131GLU    OE2  159   3.561   3.643   7.732  0.3010 -0.2633 -0.2289
  131GLU      C  160   3.136   3.742   7.954 -0.2722  0.4362  0.2078
  131GLU      O  161   3.105   3.738   8.074  0.0355 -0.3647 -0.1187
  132GLY      N  162   3.087   3.836   7.872 -0.3786  0.4155 -0.2290
  132GLY      H  163   3.136   3.858   7.786  2.4766 -0.5311  1.0238
  132GLY     CA  164   2.980   3.926   7.918 -0.0753 -0.2099  0.4511
  132GLY    HA1  165   2.968   4.013   7.854 -2.0937 -0.3062  0.6527
  132GLY    HA2  166   3.006   3.959   8.019  1.8511 -0.4319  0.0677
  132GLY      C  167   2.845   3.857   7.922  0.4094  0.3662  0.2044
  132GLY      O  168   2.772   3.873   8.018  0.1990 -0.0853 -0.1487
  133TYR      N  169   2.803   3.784   7.815 -0.5446 -0.3102  0.1268
  133TYR      H  170   2.861   3.785   7.733 -0.5224 -0.1606  0.1435
  133TYR     CA  171   2.692   3.691   7.825  0.5029  0.3732 -0.2417
  133TYR     HA  172   2.608   3.754   7.853  1.0276  0.7879  0.4093
  133TYR     CB  173   2.667   3.622   7.690 -0.0691 -0.2339  0.4897
  133TYR    HB1  174   2.593   3.547   7.717 -0.9519  0.4748  0.0994
  133TYR    HB2  175   2.753   3.564   7.660 -0.9283 -1.4134  0.2512
  133TYR     CG  176   2.620   3.701   7.568 -0.4760 -0.1334 -0.2209
  133TYR    CD1  177   2.708   3.709   7.459  0.2372  0.2203 -0.3507
  133TYR    HD1  178   2.801   3.654   7.457  0.1563  0.0725 -2.4109
  133TYR    CE1  179   2.684   3.794   7.352  0.3096  0.4669 -0.2445
  133TYR    HE1  180   2.753   3.809   7.271 -1.3436  2.3265 -1.4104
  133TYR     CZ  181   2.566   3.868   7.352  0.0800 -0.1059 -0.3557
  133TYR     OH  182   2.531   3.952   7.251  0.0272  0.0440 -0.5453
  133TYR     HH  183   2.610   3.988   7.211 -0.1249  2.7957  1.3475
  133TYR    CE2  184   2.468   3.845   7.452 -0.5196 -0.3104  0.0436
  133TYR    HE2  185   2.380   3.909   7.452  0.2952  0.8500  0.0346
  133TYR    CD2  186   2.496   3.760   7.560  0.3976 -0.0439  0.3803
  133TYR    HD2  187   2.426   3.754   7.642  0.0995 -1.1326  0.0637
  133TYR      C  188   2.710   3.575   7.923  0.1987 -0.2022  0.0710
  133TYR      O  189   2.819   3.534   7.957 -0.0492 -0.5162 -0.3841
  134GLN      N  190   2.600   3.517   7.982 -0.1528 -0.6074 -0.4682
  134GLN      H  191   2.508   3.548   7.954  0.1940  1.4360  0.4343
  134GLN     CA  192   2.602   3.387   8.053  0.1259  0.3513  0.0760
  134GLN     HA  193   2.669   3.387   8.139 -1.1139 -2.5484  1.1337
  134GLN     CB  194   2.466   3.381   8.123 -0.5365  0.0897 -0.1062
  134GLN    HB1  195   2.458   3.291   8.184  0.3004 -0.4294 -0.7451
  134GLN    HB2  196   2.387   3.386   8.048 -1.1864 -0.3942  0.5280
  134GLN     CG  197   2.426   3.498   8.212 -0.1623  0.2001 -0.3948
  134GLN    HG1  198   2.339   3.465   8.270 -0.4441  1.2711 -0.1948
  134GLN    HG2  199   2.406   3.587   8.153  0.7707  2.7536  2.8609
  134GLN     CD  200   2.534   3.545   8.308  0.1398  0.0236 -0.2049
  134GLN    OE1  201   2.555   3.660   8.323 -0.4895 -0.7364 -0.0638
  134GLN    NE2  202   2.622   3.465   8.369  0.0638  0.9280  0.6148
  134GLN   HE21  203   2.698   3.501   8.424  0.2598  0.3835  0.7042
  134GLN   HE22  204   2.609   3.365   8.373 -0.0612  0.9805  1.6957
  134GLN      C  205   2.617   3.262   7.958 -0.6579  0.6053  0.2969
  134GLN      O  206   2.604   3.271   7.841  0.5212 -0.4429  0.4205
  135ASP      N  207   2.655   3.145   8.013  0.8111 -0.5626 -0.2168
  135ASP      H  208   2.669   3.141   8.113  0.1390 -1.5179 -0.1477
  135ASP     CA  209   2.692   3.024   7.936 -0.0301  0.2656 -0.2149
  135ASP     HA  210   2.743   3.053   7.844  0.2442  0.9148  0.1339
  135ASP     CB  211   2.788   2.926   8.018  0.0241 -0.8125 -0.3334
  135ASP    HB1  212   2.890   2.960   8.002 -0.6194  0.3453 -2.2903
  135ASP    HB2  213   2.785   2.828   7.970  0.9187 -0.5874 -0.8682
  135ASP     CG  214   2.749   2.905   8.167 -0.6974  0.8541  0.7661
  135ASP    OD1  215   2.656   2.962   8.217  0.3608 -0.3138 -0.1907
  135ASP    OD2  216   2.819   2.827   8.236  0.5756 -0.3317 -0.5394
  135ASP      C  217   2.569   2.945   7.891 -0.5423  0.1221 -0.0316
  135ASP      O  218   2.573   2.895   7.782 -0.2703 -0.1550  0.4556
  136TYR      N  219   2.473   2.928   7.979  0.0661 -0.1510  0.1998
  136TYR      H  220   2.496   2.967   8.069  0.1045 -0.3984  0.2968
  136TYR     CA  221   2.364   2.833   7.974 -0.9809  0.7533  0.0340
  136TYR     HA  222   2.408   2.733   7.972 -0.8689  0.7392  1.6520
  136TYR     CB  223   2.281   2.855   8.099  0.0437  0.4102  0.0541
  136TYR    HB1  224   2.273   2.963   8.114 -0.8365  0.8890 -3.0998
  136TYR    HB2  225   2.336   2.822   8.187 -0.7390  2.5593  1.4290
  136TYR     CG  226   2.141   2.784   8.099  0.5486  0.2629  0.0948
  136TYR    CD1  227   2.125   2.648   8.107  0.5707  0.1346  0.5839
  136TYR    HD1  228   2.211   2.585   8.125  0.6292 -0.4774 -1.6001
  136TYR    CE1  229   2.000   2.587   8.085 -0.3414  0.5564 -0.1925
  136TYR    HE1  230   1.984   2.480   8.095 -0.5862  0.5208 -0.8875
  136TYR     CZ  231   1.884   2.667   8.062 -0.2526  0.1951  0.5945
  136TYR     OH  232   1.758   2.617   8.059 -0.1034 -0.2080 -0.3076
  136TYR     HH  233   1.751   2.531   8.100 -1.7450  0.4979  1.0229
  136TYR    CE2  234   1.901   2.811   8.055 -0.0765  0.7895  0.0445
  136TYR    HE2  235   1.815   2.873   8.036 -0.2178  0.2550 -1.1841
  136TYR    CD2  236   2.031   2.866   8.062 -0.3901  0.3241  0.7224
  136TYR    HD2  237   2.037   2.972   8.046 -2.1247  0.3958  0.3409
  136TYR      C  238   2.290   2.852   7.838 -0.2088  0.6032  0.3608
  136TYR      O  239   2.260   2.969   7.800 -0.2744 -0.3065 -0.0755
  137GLU      N  240   2.245   2.738   7.779  0.6566  0.3531 -0.0994
  137GLU      H  241   2.263   2.652   7.828 -1.2217 -1.3005 -2.1369
  137GLU     CA  242   2.173   2.723   7.656 -0.0142 -0.5283  0.4017
  137GLU     HA  243   2.181   2.818   7.604 -1.6618  0.5658  2.0109
  137GLU     CB  244   2.238   2.605   7.576 -0.1889  0.2305 -0.0991
  137GLU    HB1  245   2.193   2.507   7.595  3.2753 -1.8057 -1.4027
  137GLU    HB2  246   2.337   2.584   7.617  0.4950  3.3894  0.1223
  137GLU     CG  247   2.245   2.645   7.433  0.6395 -0.7895  0.5895
  137GLU    HG1  248   2.315   2.728   7.421 -1.0137  0.7123  0.8489
  137GLU    HG2  249   2.148   2.677   7.395 -0.1685 -4.0280 -0.3265
  137GLU     CD  250   2.292   2.544   7.341  0.2188 -0.8152 -0.3158
  137GLU    OE1  251   2.376   2.460   7.376 -0.2869 -0.3330  0.6675
  137GLU    OE2  252   2.277   2.563   7.216  0.0343 -0.5169 -0.4117
  137GLU      C  253   2.022   2.701   7.680 -0.4978 -0.0020 -0.3997
  137GLU      O  254   1.987   2.595   7.730  0.2113 -0.3931  0.2620
  138PRO      N  255   1.931   2.802   7.656 -0.2625  0.0435 -0.4965
  138PRO     CD  256   1.955   2.939   7.615  0.6455  0.0264  0.0224
  138PRO    HD1  257   1.964   2.944   7.507 -0.7198  0.1821 -0.0988
  138PRO    HD2  258   2.051   2.970   7.656  1.3129 -3.8726  1.8483
  138PRO     CG  259   1.839   3.021   7.665  0.0172  0.3136 -0.2309
  138PRO    HG1  260   1.806   3.099   7.595 -2.6342 -0.8401 -0.3723
  138PRO    HG2  261   1.859   3.059   7.765  0.0327 -0.1577 -0.0525
  138PRO     CB  262   1.727   2.920   7.675  0.0616  0.4999  0.3578
  138PRO    HB1  263   1.656   2.940   7.755 -1.4146 -1.5511 -0.3704
  138PRO    HB2  264   1.680   2.923   7.577 -0.1350  1.3627  0.4733
  138PRO     CA  265   1.792   2.787   7.697 -0.1036  0.0098  0.0732
  138PRO     HA  266   1.794   2.773   7.805  1.0737  4.0868  0.7607
  138PRO      C  267   1.724   2.677   7.614  0.2677  0.1420 -0.5301
  138PRO      O  268   1.773   2.627   7.505  0.2566  0.0181  0.3361
  139GLU      N  269   1.628   2.611   7.681  0.4073  0.6917  0.6059
  139GLU      H  270   1.599   2.652   7.769  0.5781  0.8801  0.5756
  139GLU     CA  271   1.582   2.475   7.644 -1.1253 -0.2948 -0.7314
  139GLU     HA  272   1.644   2.436   7.564  2.5147  1.3195  1.0738
  139GLU     CB  273   1.603   2.378   7.766  0.3638 -0.2009  0.4451
  139GLU    HB1  274   1.565   2.284   7.727  0.6263  0.5364 -1.7296
  139GLU    HB2  275   1.546   2.424   7.846  0.8903  0.4938  0.4309
  139GLU     CG  276   1.747   2.357   7.804 -0.1640  0.2672  0.3818
  139GLU    HG1  277   1.785   2.452   7.841  0.6235 -0.5278  1.6902
  139GLU    HG2  278   1.795   2.328   7.710 -0.7009  0.0018  0.1831
  139GLU     CD  279   1.767   2.237   7.899  0.1411  0.8329 -0.3535
  139GLU    OE1  280   1.671   2.210   7.974 -0.2468  0.0567 -0.0683
  139GLU    OE2  281   1.877   2.174   7.900  0.6242  0.4361 -0.0254
  139GLU      C  282   1.436   2.485   7.600 -0.6897  0.1441  0.6371
  139GLU      O  283   1.355   2.561   7.652  0.2800  0.5572 -0.5412
  140CALA     N  284   1.399   2.401   7.509  0.0980 -0.6937  0.7947
  140CALA     H  285   1.466   2.335   7.474 -1.9200 -1.6778 -1.5629
  140CALA    CA  286   1.265   2.401   7.440  0.3463 -0.3223 -0.3596
  140CALA    HA  287   1.224   2.500   7.420  0.3852 -0.5330 -1.5360
  140CALA    CB  288   1.281   2.334   7.311 -0.3378  0.0369  0.8853
  140CALA   HB1  289   1.183   2.325   7.262  0.2082  1.1162 -0.4741
  140CALA   HB2  290   1.324   2.236   7.330 -1.5695 -0.3069  2.0701
  140CALA   HB3  291   1.349   2.387   7.244  1.9941 -0.4998  2.7223
  140CALA     C  292   1.159   2.326   7.529 -0.7869 -0.0587  0.5904
  140CALA   OC1  293   1.038   2.324   7.499 -0.0214 -0.3805 -0.7545
  140CALA   OC2  294   1.204   2.266   7.631  0.7641 -0.4471 -1.0154
  141L47      C  295   0.333   6.376   0.988 -0.2293  0.2824  0.1250
  141L47      H  296   0.295   6.412   0.891  1.6000 -1.2899 -1.2478
  141L47     H1  297   0.276   6.435   1.061 -0.6905  0.0632 -0.0550
  141L47     H2  298   0.317   6.268   0.990  1.0666  0.0407 -1.2812
  141L47     C1  299   0.477   6.407   0.991 -1.2562 -0.2830 -0.3966
  141L47      O  300   0.516   6.523   0.969  0.3542  0.4865  0.6019
  141L47      N  301   0.569   6.307   1.026 -0.1108  0.3410 -0.6704
  141L47     C2  302   0.525   6.167   1.055  0.3028  0.2152  0.2716
  141L47     H3  303   0.463   6.117   0.979  0.7246 -1.4851  0.9958
  141L47     H4  304   0.465   6.159   1.147 -0.4875 -1.3457 -0.3356
  141L47     C3  305   0.653   6.080   1.056 -0.0900 -0.6514 -0.1562
  141L47     H5  306   0.652   5.995   0.987  0.3717 -2.9954  2.5092
  141L47     H6  307   0.672   6.052   1.161 -1.4057  0.1614  0.3258
  141L47     C4  308   0.754   6.183   1.013  0.4754  0.1741  0.4528
  141L47     C5  309   0.706   6.313   1.010  0.4279 -1.0175 -0.6695
  141L47     C6  310   0.789   6.423   0.984  0.7772 -0.2264 -0.5487
  141L47     H7  311   0.749   6.524   0.980  0.5618 -0.3317 -1.2126
  141L47     C7  312   0.929   6.398   0.970  1.6698 -0.8672  0.2251
  141L47     H8  313   0.989   6.484   0.943  0.1041  1.0457  2.4910
  141L47     C8  314   0.977   6.264   0.969 -0.2454  0.4151  0.3792
  141L47     C9  315   0.888   6.151   0.989  0.2918 -0.2373 -0.2376
  141L47     H9  316   0.930   6.052   0.973  0.2665 -0.2936  0.0291
  141L47      S  317   1.151   6.232   0.937 -0.1085 -0.1450  0.2566
  141L47     O1  318   1.172   6.126   1.036  0.8912  0.0730 -0.5604
  141L47     O2  319   1.227   6.353   0.926 -0.3606 -0.3868  0.3259
  141L47     N1  320   1.150   6.150   0.784 -0.1708 -0.1777 -0.6843
  141L47    C10  321   1.281   6.108   0.734  0.8177 -0.3250 -0.4688
  141L47    H10  322   1.341   6.093   0.825 -1.0104 -2.1632  0.5045
  141L47    H11  323   1.321   6.176   0.658 -0.0241  0.4140 -0.2635
  141L47    C11  324   1.275   5.973   0.665  0.2188  0.7167 -0.7338
  141L47    H12  325   1.240   5.896   0.734  0.7806  1.9580  1.0249
  141L47    H13  326   1.380   5.944   0.650  0.9628  0.6488  3.5266
  141L47    C12  327   1.188   5.961   0.542 -0.7573 -0.1869  0.0539
  141L47    H14  328   1.183   5.857   0.512 -0.4726 -0.7668  1.8759
  141L47    H15  329   1.240   6.013   0.461 -0.4166 -0.3109  0.1909
  141L47     N2  330   1.051   6.020   0.555  0.0926  0.3563 -0.1607
  141L47    H16  331   0.981   5.979   0.491  0.1324 -0.7980  0.5202
  141L47    H17  332   1.016   5.998   0.649 -0.6109  1.2672 -0.1959
  141L47    C13  333   1.051   6.172   0.552  0.0177 -0.1791 -0.1512
  141L47    H18  334   0.954   6.209   0.520 -0.1555 -2.2101 -2.1992
  141L47    H19  335   1.118   6.223   0.482  0.4177  0.4855  0.6914
  141L47    C14  336   1.083   6.239   0.690  0.8740 -0.1925  0.3879
  141L47    H20  337   1.125   6.339   0.677  0.7225 -0.3916 -1.9934
  141L47    H21  338   0.982   6.244   0.732 -0.0773  0.6258 -1.8627
  142SOL     OW  339   5.718   4.486   6.271 -0.1093  0.2371 -0.1523
  142SOL    HW2  340   5.642   4.508   6.217 -0.0872 -0.9969 -0.7365
  142SOL    HW3  341   5.771   4.428   6.216 -0.2356 -1.3187  1.2514
  142SOL    MW4  342   5.715   4.481   6.257 -0.4157 -0.0497 -0.1122
  143SOL     OW  343   2.957   2.029   0.552  0.5853 -0.1815 -0.0015
  143SOL    HW2  344   3.011   1.971   0.499  1.9436 -0.2971  1.4675
  143SOL    HW3  345   3.018   2.094   0.588 -0.3242  0.0278  1.2339
  143SOL    MW4  346   2.972   2.030   0.549 -0.5133 -0.2334 -0.2446
  144SOL     OW  347   5.561   3.616   5.822 -0.6698 -0.2342 -0.2287
  144SOL    HW2  348   5.514   3.574   5.751 -1.0610  0.1986 -0.2278
  144SOL    HW3  349   5.500   3.617   5.895 -0.0399 -1.2933  0.3432
  144SOL    MW4  350   5.547   3.611   5.822  0.2651 -0.0121  0.7452
  145SOL     OW  351   1.311   5.931   5.086  0.3587  0.0704 -0.0111
  145SOL    HW2  352   1.378   5.877   5.128  1.9264 -1.3007 -3.7357
  145SOL    HW3  353   1.247   5.868   5.053 -0.7567  1.0413  0.2485
  145SOL    MW4  354   1.312   5.916   5.087  0.3916  0.1802 -0.5136
  146SOL     OW  355   3.777   2.552   4.273 -0.0285  0.4140 -0.1207
  146SOL    HW2  356   3.818   2.469   4.299  0.0708  0.4231 -0.2490
  146SOL    HW3  357   3.760   2.597   4.356 -0.8960 -0.1156  0.0017
  146SOL    MW4  358   3.780   2.547   4.288  0.2285  0.3878 -0.4483
  147SOL     OW  359   1.054   0.789   2.199 -0.1400  0.2763 -0.3524
  147SOL    HW2  360   0.982   0.834   2.243  0.1228  0.9158 -0.5600
  147SOL    HW3  361   1.015   0.756   2.118 -0.2463  0.4617 -0.3786
  147SOL    MW4  362   1.039   0.791   2.194  0.4128  0.1245 -0.4386
  148SOL     OW  363   4.930   3.935   5.614 -0.0828  0.7195  0.1762
  148SOL    HW2  364   4.942   4.020   5.572 -0.1519  0.4750 -0.3501
  148SOL    HW3  365   4.940   3.872   5.543 -1.8480  0.3733  0.2046
  148SOL    MW4  366   4.933   3.938   5.599  0.1855 -0.1746  0.4767
  149SOL     OW  367   4.764   2.497   2.402  0.2094 -0.3610  0.0757
  149SOL    HW2  368   4.851   2.474   2.368  0.0223  0.8404 -1.2868
  149SOL    HW3  369   4.771   2.482   2.496  1.9590 -0.0989  0.0203
  149SOL    MW4  370   4.777   2.492   2.410 -0.1912  0.4373  0.2003
  150SOL     OW  371   0.754   3.274   0.378  0.1112  0.5235 -0.5808
  150SOL    HW2  372   0.800   3.190   0.386  1.5766  1.2078 -1.4153
  150SOL    HW3  373   0.778   3.306   0.291  0.5595  2.3538  0.1767
  150SOL    MW4  374   0.763   3.267   0.368  0.1838 -0.1594 -0.0164
  151SOL     OW  375   0.407   4.071   2.747 -0.3128 -0.0927  0.3700
  151SOL    HW2  376   0.473   4.061   2.678 -1.7747 -0.7346 -0.9883
  151SOL    HW3  377   0.409   3.988   2.795  0.9935  0.5052  1.4199
  151SOL    MW4  378   0.416   4.059   2.744  0.1858 -0.0543  0.7090
  152SOL     OW  379   6.107   4.382   0.068  0.6001  0.6617 -0.1093
  152SOL    HW2  380   6.202   4.375   0.065  0.5559  0.3269 -0.8220
  152SOL    HW3  381   6.081   4.402  -0.022 -0.1378 -1.0849 -0.3131
  152SOL    MW4  382   6.116   4.384   0.056 -0.0044 -0.3419  0.2476
  153SOL     OW  383   0.888   0.140   0.717 -0.2928 -0.3419 -0.5977
  153SOL    HW2  384   0.797   0.110   0.720 -0.2839 -0.2820  1.1248
  153SOL    HW3  385   0.896   0.203   0.788  1.1664 -0.5466 -0.5386
  153SOL    MW4  386   0.877   0.144   0.726 -0.2313  0.6620  0.0449
  154SOL     OW  387   6.231   3.687   4.377  0.3491 -0.0188  0.2486
  154SOL    HW2  388   6.169   3.760   4.374  0.1009 -0.2231  0.3569
  154SOL    HW3  389   6.175   3.609   4.375  0.6519 -0.2333 -1.3734
  154SOL    MW4  390   6.215   3.686   4.377 -0.6464  0.3650  0.2522
  155SOL     OW  391   2.575   3.802   3.690  0.0564 -0.3595  0.4646
  155SOL    HW2  392   2.525   3.882   3.672  1.0696  0.2084  0.1102
  155SOL    HW3  393   2.518   3.752   3.748 -0.7761  0.4286  0.3652
  155SOL    MW4  394   2.561   3.806   3.695 -0.6891 -0.0616 -0.1145
  156SOL     OW  395   0.842   3.030   0.442 -0.4509  0.3161 -0.1700
  156SOL    HW2  396   0.774   2.995   0.500  0.6064 -1.2795  0.1726
  156SOL    HW3  397   0.812   3.007   0.354  0.1703 -1.4562  0.0450
  156SOL    MW4  398   0.829   3.022   0.438  0.2775 -0.7522  0.1184
  157SOL     OW  399   4.121   6.039   4.351  0.5758 -0.1121  0.1136
  157SOL    HW2  400   4.139   5.990   4.432 -1.2806  0.0557  0.6650
  157SOL    HW3  401   4.107   6.129   4.380 -0.6381 -0.1529 -0.3144
  157SOL    MW4  402   4.122   6.044   4.366  0.2589  0.2808  0.4111
  158SOL     OW  403   1.268   1.222   4.893  0.1550  0.8792  0.4113
  158SOL    HW2  404   1.261   1.225   4.988 -0.3285  0.1025  0.4038
  158SOL    HW3  405   1.234   1.136   4.868  1.8144  0.3818 -0.3342
  158SOL    MW4  406   1.263   1.211   4.902  1.1521 -0.6372 -0.2074
  159SOL     OW  407   4.969   1.699   3.948 -0.2210  0.4065 -0.3089
  159SOL    HW2  408   4.962   1.794   3.946 -2.8698  0.2840 -0.0693
  159SOL    HW3  409   4.994   1.679   4.039  1.7303  0.8838 -0.7054
  159SOL    MW4  410   4.972   1.709   3.960 -0.0172  0.5251 -0.7174
  160SOL     OW  411   2.686   1.555   0.746  0.6710 -0.2666  0.2953
  160SOL    HW2  412   2.741   1.631   0.723  1.3101 -0.8578 -0.1819
  160SOL    HW3  413   2.744   1.501   0.800 -0.2974  0.3364  2.0125
  160SOL    MW4  414   2.701   1.558   0.750 -0.5782  0.8691 -0.3288
  161SOL     OW  415   3.766   5.481   0.011 -0.3095 -0.3484 -0.2897
  161SOL    HW2  416   3.716   5.452  -0.066  1.4546  2.0440 -2.5057
  161SOL    HW3  417   3.721   5.440   0.085 -2.8323 -1.8534 -2.4602
  161SOL    MW4  418   3.753   5.471   0.011  0.6163 -0.5714  0.3008
  162SOL     OW  419   4.304   3.673   0.994  0.2095 -0.1027  0.6168
  162SOL    HW2  420   4.359   3.751   0.983 -1.6610  1.0539 -1.5436
  162SOL    HW3  421   4.331   3.636   1.079  1.0358  3.0253  1.8744
  162SOL    MW4  422   4.315   3.679   1.004  0.5210 -0.5354  0.5897
  163SOL     OW  423   0.024   3.939   4.776  0.0494 -0.0076 -0.0674
  163SOL    HW2  424   0.047   4.028   4.800 -0.7515  0.0389  0.5646
  163SOL    HW3  425   0.096   3.910   4.719  0.2011  1.1121 -0.4744
  163SOL    MW4  426   0.037   3.947   4.772  0.1486  0.1637  0.3063
  164SOL     OW  427   4.795   1.458   5.576  0.3162 -0.6159  0.0953
  164SOL    HW2  428   4.841   1.516   5.515  0.9556 -0.8823  0.3200
  164SOL    HW3  429   4.703   1.463   5.548  0.1154  1.5943  0.9655
  164SOL    MW4  430   4.789   1.466   5.564 -0.4508  0.1791 -0.1926
  165SOL     OW  431   5.519   2.654   2.760 -0.2474 -0.4290 -0.2003
  165SOL    HW2  432   5.526   2.566   2.797 -0.2473 -0.4025 -0.1367
  165SOL    HW3  433   5.525   2.712   2.836  2.3169 -0.2508 -0.4597
  165SOL    MW4  434   5.521   2.650   2.775  0.1991  0.3607 -0.1181
  166SOL     OW  435   2.849   3.618   5.532  0.0654  0.0343 -0.1448
  166SOL    HW2  436   2.768   3.640   5.487 -0.5599 -2.2600 -0.2604
  166SOL    HW3  437   2.821   3.585   5.617  0.9328 -0.0187  0.1315
  166SOL    MW4  438   2.835   3.617   5.537 -0.0991 -0.0852 -0.1698
  167SOL     OW  439   3.815   0.211   3.607  0.0906 -0.7450  0.3504
  167SOL    HW2  440   3.910   0.211   3.615  0.2433  1.8904 -0.6764
  167SOL    HW3  441   3.795   0.126   3.568  2.2853 -0.4214 -1.7311
  167SOL    MW4  442   3.825   0.199   3.603  0.6137  0.6900 -0.0143
  168SOL     OW  443   6.108   5.121   2.357  0.3057 -0.3458  0.2348
  168SOL    HW2  444   6.025   5.074   2.355 -1.1591  1.8957  2.0741
  168SOL    HW3  445   6.089   5.205   2.316  1.3284  0.6134  1.6172
  168SOL    MW4  446   6.095   5.126   2.352  0.2150 -0.6338  0.1321
  169SOL     OW  447   2.611   5.616   1.004 -0.1752  0.2096 -0.3384
  169SOL    HW2  448   2.529   5.596   1.050  1.0138  0.0857  1.8927
  169SOL    HW3  449   2.649   5.531   0.984  0.7884  0.1742  1.3916
  169SOL    MW4  450   2.605   5.602   1.008  0.3050 -0.1267 -0.6278
  170SOL     OW  451   2.736   0.053   1.604  0.0090 -0.0484 -0.7898
  170SOL    HW2  452   2.732   0.083   1.695 -1.0174 -0.0849 -0.8141
  170SOL    HW3  453   2.788   0.119   1.559 -0.1594  0.3940 -0.3404
  170SOL    MW4  454   2.742   0.065   1.610 -0.0573  0.1695 -0.1938
  171SOL     OW  455   4.493   6.136   5.400  0.3016 -0.5494  0.0380
  171SOL    HW2  456   4.447   6.082   5.464 -1.1898  0.6762  0.0586
  171SOL    HW3  457   4.493   6.224   5.438 -0.1634  0.1026 -1.3835
  171SOL    MW4  458   4.487   6.140   5.413  1.1823 -0.3279  0.3512
  172SOL     OW  459   2.786   4.579   2.820  0.4528  0.3349  0.0743
  172SOL    HW2  460   2.724   4.547   2.754  0.7163  0.0635 -0.0430
  172SOL    HW3  461   2.745   4.558   2.904  1.0766 -1.2474  0.0165
  172SOL    MW4  462   2.772   4.572   2.822 -0.5780 -0.0622 -0.9411
  173SOL     OW  463   0.447   2.257   4.534  0.0532  0.0812 -0.0557
  173SOL    HW2  464   0.412   2.178   4.576  0.2402  0.1108  0.1580
  173SOL    HW3  465   0.382   2.280   4.468 -1.1825  1.0910  1.4415
  173SOL    MW4  466   0.434   2.249   4.531  0.4644 -0.1786 -0.0350
  174SOL     OW  467   2.118   1.172   0.590 -0.1127  0.4013  0.3158
  174SOL    HW2  468   2.122   1.267   0.595 -0.5533  0.3765  1.4349
  174SOL    HW3  469   2.203   1.143   0.623  1.3530  0.4137 -2.9934
  174SOL    MW4  470   2.130   1.180   0.595  0.5007  0.8130  0.4420
  175SOL     OW  471   0.294   1.096   3.915 -0.4306  0.1232  0.1086
  175SOL    HW2  472   0.228   1.055   3.970  0.2502 -2.4992 -0.8528
  175SOL    HW3  473   0.267   1.073   3.825  1.1533 -0.0609 -0.3492
  175SOL    MW4  474   0.282   1.087   3.910 -0.3067 -0.1665 -0.1248
  176SOL     OW  475   5.228   6.334   4.382  0.0164 -0.2672  0.3255
  176SOL    HW2  476   5.193   6.412   4.338 -1.6170  0.0216  2.0104
  176SOL    HW3  477   5.292   6.367   4.445 -0.1341 -0.3504  0.5237
  176SOL    MW4  478   5.232   6.348   4.384  0.9276  0.4098 -0.0150
  177SOL     OW  479   3.768   5.926   0.601 -0.0968 -0.1145  0.7797
  177SOL    HW2  480   3.720   5.846   0.621  2.0825 -0.9175  3.5181
  177SOL    HW3  481   3.831   5.900   0.534 -0.0102 -0.4629  0.9922
  177SOL    MW4  482   3.770   5.912   0.595 -0.3350 -0.2612 -0.0786
  178SOL     OW  483   2.197   4.249   0.982  0.1288 -0.3755  0.6789
  178SOL    HW2  484   2.270   4.243   0.921 -0.9794 -2.3644 -0.5823
  178SOL    HW3  485   2.230   4.301   1.055  1.7078  1.5862 -1.3267
  178SOL    MW4  486   2.211   4.255   0.984 -0.0156  0.0397  0.2107
  179SOL     OW  487   4.347   5.343   0.579 -0.4030  0.5109  0.5261
  179SOL    HW2  488   4.389   5.260   0.558 -0.7077 -0.4396  3.3633
  179SOL    HW3  489   4.405   5.410   0.540  0.3851 -0.9361 -0.9128
  179SOL    MW4  490   4.360   5.341   0.571 -0.6829 -0.1927  0.0548
  180SOL     OW  491   5.888   0.034   2.646 -0.1446  0.2595 -0.2557
  180SOL    HW2  492   5.888   0.106   2.710  0.2482 -1.7620  2.1492
  180SOL    HW3  493   5.980   0.013   2.635 -0.2061  0.6478 -1.6287
  180SOL    MW4  494   5.900   0.041   2.653  0.7318 -0.0093 -0.3284
  181SOL     OW  495   3.883   3.647   2.114 -0.4600 -0.1028 -0.2629
  181SOL    HW2  496   3.804   3.594   2.123 -1.5129  1.3863 -0.4295
  181SOL    HW3  497   3.852   3.731   2.079  1.0049  1.0057  0.9873
  181SOL    MW4  498   3.868   3.651   2.110 -0.2667  0.2409 -0.2323
  182SOL     OW  499   3.442   0.399   1.239 -0.5372 -0.1821  0.3611
  182SOL    HW2  500   3.371   0.347   1.202 -1.8668  1.7164  0.0758
  182SOL    HW3  501   3.469   0.457   1.168  1.3608 -0.8602  0.4603
  182SOL    MW4  502   3.436   0.400   1.225 -0.4043  0.4303 -0.3056
  183SOL     OW  503   2.113   4.649   1.882  0.1337  0.0428 -0.1888
  183SOL    HW2  504   2.161   4.728   1.857 -1.0062  0.5629 -0.8240
  183SOL    HW3  505   2.176   4.578   1.869  1.3912  0.8825  1.0395
  183SOL    MW4  506   2.128   4.650   1.877 -0.2437 -0.3436  0.3489
  184SOL     OW  507   1.532   1.647   6.343 -0.1909 -0.3246  0.3250
  184SOL    HW2  508   1.581   1.565   6.331 -1.7390 -1.3244  0.5857
  184SOL    HW3  509   1.543   1.693   6.259  0.6312 -0.8249  0.1428
  184SOL    MW4  510   1.540   1.642   6.330 -0.2393 -0.7633 -0.0331
  185SOL     OW  511   5.353   6.084   1.631  0.6885  0.6982 -0.0880
  185SOL    HW2  512   5.322   6.104   1.542  1.6384  1.2320 -0.3134
  185SOL    HW3  513   5.323   6.157   1.684 -1.0357 -0.2679  0.3230
  185SOL    MW4  514   5.345   6.096   1.626 -0.2517  0.5593  0.2713
  186SOL     OW  515   6.159   2.140   5.668 -0.3920 -0.9348  0.1580
  186SOL    HW2  516   6.143   2.234   5.661 -0.4801 -0.9756 -0.1670
  186SOL    HW3  517   6.172   2.110   5.578  2.4089 -0.7433  0.4038
  186SOL    MW4  518   6.159   2.148   5.656 -0.3062  0.1186 -0.5218
  187SOL     OW  519   4.217   0.770   1.997 -0.8677 -0.0782 -0.3759
  187SOL    HW2  520   4.142   0.730   1.955 -0.7589  2.1342 -2.9454
  187SOL    HW3  521   4.264   0.815   1.926  1.5195  0.6741  1.5201
  187SOL    MW4  522   4.214   0.771   1.982 -0.1003  0.5544 -0.0491
  188SOL     OW  523   3.137   2.936   4.576 -0.2889 -0.0118  0.2564
  188SOL    HW2  524   3.193   2.991   4.631 -1.6342  2.2828 -0.5149
  188SOL    HW3  525   3.154   2.965   4.487 -1.0571 -0.8466 -0.1825
  188SOL    MW4  526   3.147   2.947   4.572  0.0927 -0.0294  0.4293
  189SOL     OW  527   2.206   0.482   2.777 -0.0883  0.0962  0.0861
  189SOL    HW2  528   2.300   0.480   2.797  0.2072 -1.1701 -1.2493
  189SOL    HW3  529   2.168   0.417   2.836  0.0452 -0.1853 -0.1365
  189SOL    MW4  530   2.213   0.473   2.788  0.0902 -0.3621 -0.6974
  190SOL     OW  531   0.918   5.595   4.959  0.0953 -0.3652  0.6674
  190SOL    HW2  532   0.830   5.627   4.980 -0.0224  0.0987 -0.4711
  190SOL    HW3  533   0.921   5.594   4.863  0.9948 -1.3217  0.6854
  190SOL    MW4  534   0.907   5.599   4.949 -0.1806 -0.5253  0.1522
  191SOL     OW  535   4.010   3.447   2.972  0.2133 -0.3622 -0.3054
  191SOL    HW2  536   3.934   3.490   3.011 -0.4118 -1.3792 -0.3698
  191SOL    HW3  537   3.973   3.380   2.914  1.1405 -2.1961  1.1182
  191SOL    MW4  538   3.995   3.444   2.970  0.1774  0.2023  0.4289
  192SOL     OW  539   1.263   0.547   5.654 -0.6690 -0.3734 -0.1187
  192SOL    HW2  540   1.264   0.457   5.685 -1.5510  0.2740  1.9534
  192SOL    HW3  541   1.325   0.548   5.581 -0.5429 -2.6034 -0.1120
  192SOL    MW4  542   1.271   0.536   5.648 -0.3810 -0.0865 -0.2808
  193SOL     OW  543   5.414   4.490   5.320 -0.1062 -0.1995 -0.2152
  193SOL    HW2  544   5.431   4.450   5.405 -1.1535  0.6129  0.4012
  193SOL    HW3  545   5.351   4.432   5.278 -1.8494  0.8803  0.7986
  193SOL    MW4  546   5.408   4.477   5.326 -0.2732 -0.1499  0.3652
  194SOL     OW  547   4.348   6.093   0.649 -0.2481 -0.7712 -0.2990
  194SOL    HW2  548   4.327   6.178   0.609 -1.5327 -0.8849  0.0823
  194SOL    HW3  549   4.429   6.066   0.606  0.2452  0.6844 -0.3628
  194SOL    MW4  550   4.356   6.101   0.638  0.4213  0.4845 -0.2134
  195SOL     OW  551   5.371   0.691   6.287 -0.6057 -0.0629 -0.1937
  195SOL    HW2  552   5.414   0.776   6.300  1.2766 -0.9858 -0.0880
  195SOL    HW3  553   5.345   0.664   6.376  0.0531 -0.2146 -0.0408
  195SOL    MW4  554   5.373   0.699   6.301 -0.5688  0.3677 -0.2888
  196SOL     OW  555   4.937   6.357   2.696  0.8481  0.4928 -0.1520
  196SOL    HW2  556   4.910   6.295   2.764  1.6769 -0.7753 -0.9329
  196SOL    HW3  557   5.032   6.360   2.703  0.8259  1.6289 -0.1988
  196SOL    MW4  558   4.946   6.349   2.706 -0.2403  0.5354 -0.3471
  197SOL     OW  559   2.936   4.348   2.787  0.2866  0.2796  0.2658
  197SOL    HW2  560   2.917   4.302   2.868  0.2535  0.1205  0.1680
  197SOL    HW3  561   2.877   4.423   2.788 -0.8826 -0.6051 -0.3811
  197SOL    MW4  562   2.926   4.352   2.798 -0.5935 -0.0935  0.0188
  198SOL     OW  563   3.924   2.698   4.101  0.0097  0.2608 -0.1211
  198SOL    HW2  564   3.875   2.652   4.170  0.9361 -0.4295  0.0939
  198SOL    HW3  565   4.015   2.689   4.127  0.2688  1.5399 -0.5145
  198SOL    MW4  566   3.929   2.691   4.114 -0.1672  0.0024  0.2733
  199SOL     OW  567   4.855   4.173   2.459 -0.3648 -0.3461 -0.3815
  199SOL    HW2  568   4.771   4.161   2.503 -0.0086 -2.2336 -0.1427
  199SOL    HW3  569   4.832   4.203   2.371 -1.2976 -0.7419 -0.2821
  199SOL    MW4  570   4.841   4.175   2.453 -0.1056  0.6095  0.4065
  200SOL     OW  571   5.915   1.055   3.803  0.1510 -0.0002  0.4736
  200SOL    HW2  572   5.941   1.122   3.866  1.8292 -0.6620  0.5355
  200SOL    HW3  573   5.916   1.100   3.718  0.7712  0.1654  0.5698
  200SOL    MW4  574   5.918   1.070   3.800  0.3321 -0.7085  0.8833
  201SOL     OW  575   3.452   0.508   0.043  0.1980 -0.6573  0.0720
  201SOL    HW2  576   3.542   0.504   0.011 -0.5594 -0.8012 -2.2510
  201SOL    HW3  577   3.423   0.597   0.021 -0.7671 -1.1914 -0.9486
  201SOL    MW4  578   3.460   0.519   0.035 -0.6467 -0.4268 -0.0827
  202SOL     OW  579   5.964   5.819   2.741  0.3234  0.6919  0.1002
  202SOL    HW2  580   5.997   5.763   2.812 -1.5544  0.2986  0.7357
  202SOL    HW3  581   5.939   5.900   2.784 -0.4121  0.6179 -0.1692
  202SOL    MW4  582   5.965   5.822   2.756  0.5363 -0.7668 -0.3867
  203SOL     OW  583   2.575   3.214   0.814 -0.0933 -0.1077 -0.7632
  203SOL    HW2  584   2.481   3.199   0.823 -0.1668  0.2738 -0.8828
  203SOL    HW3  585   2.612   3.190   0.899 -0.2583 -0.5454 -0.8113
  203SOL    MW4  586   2.568   3.209   0.826  0.7671  0.4138 -0.1049
  204SOL     OW  587   3.301   1.544   6.340 -0.5583  0.1052 -0.6001
  204SOL    HW2  588   3.215   1.530   6.379 -0.4515  0.8761 -0.0647
  204SOL    HW3  589   3.307   1.639   6.328  0.2414  0.0676 -0.5656
  204SOL    MW4  590   3.290   1.555   6.343 -0.0320  0.3023  0.3763
  205SOL     OW  591   3.245   4.053   1.611 -0.1534  0.8265 -0.0705
  205SOL    HW2  592   3.268   4.018   1.697 -1.4684 -0.3859 -0.1822
  205SOL    HW3  593   3.168   4.107   1.627 -0.7671  0.1176 -0.5500
  205SOL    MW4  594   3.238   4.056   1.624  0.0508  0.0697  0.4176
  206SOL     OW  595   0.740   5.913   1.761 -0.1458 -0.3878  0.2759
  206SOL    HW2  596   0.778   5.864   1.688 -0.8725  0.2140 -0.5379
  206SOL    HW3  597   0.656   5.869   1.778 -0.2524 -0.1624  0.3411
  206SOL    MW4  598   0.734   5.901   1.754  0.2427  0.3365 -0.0225
  207SOL     OW  599   0.881   0.473   4.692 -0.3701  0.0643 -0.1962
  207SOL    HW2  600   0.919   0.454   4.777  1.6864 -0.1955 -1.1058
  207SOL    HW3  601   0.851   0.564   4.698  0.8354  0.4346  0.4418
  207SOL    MW4  602   0.882   0.482   4.704 -0.5394  0.3382  0.1855
  208SOL     OW  603   4.149   4.899   3.060 -0.1288  0.0391  0.0825
  208SOL    HW2  604   4.225   4.942   3.099  0.4732  2.2567 -3.1426
  208SOL    HW3  605   4.074   4.949   3.092  0.3950  2.2007 -1.8008
  208SOL    MW4  606   4.149   4.911   3.069 -0.3347  0.5561  0.2490
  209SOL     OW  607   6.357   3.619   6.155  0.2120  0.1189  0.3845
  209SOL    HW2  608   6.361   3.714   6.145  0.1215  0.0286 -0.5463
  209SOL    HW3  609   6.366   3.605   6.250 -1.3464  1.1431  0.7388
  209SOL    MW4  610   6.358   3.630   6.166  0.2829 -0.3899 -0.1182
  210SOL     OW  611   3.360   3.639   2.011 -0.3100  0.1136 -0.2525
  210SOL    HW2  612   3.329   3.574   1.948 -0.9283 -0.1652  0.3335
  210SOL    HW3  613   3.288   3.650   2.072 -0.1522  1.2403 -0.2486
  210SOL    MW4  614   3.347   3.632   2.010 -0.5547 -0.5185 -0.4300
  211SOL     OW  615   3.686   1.596   2.676  0.3497  0.2163 -0.0298
  211SOL    HW2  616   3.648   1.683   2.666  1.8084  1.0944  1.5005
  211SOL    HW3  617   3.614   1.542   2.707 -1.0630  0.3486 -2.8023
  211SOL    MW4  618   3.672   1.601   2.679  0.4288  0.4142 -0.7656
  212SOL     OW  619   4.229   2.838   1.820  0.0552 -0.3946 -0.1242
  212SOL    HW2  620   4.310   2.878   1.788  0.3852 -0.0970  1.0223
  212SOL    HW3  621   4.187   2.802   1.742 -0.3363  2.3171 -1.2668
  212SOL    MW4  622   4.234   2.839   1.806 -0.1158  0.0238 -0.5083
  213SOL     OW  623   0.437   5.049   2.779 -0.3747 -0.0964 -0.1697
  213SOL    HW2  624   0.422   5.072   2.687  0.2263  2.0007  0.1886
  213SOL    HW3  625   0.413   5.128   2.827 -0.4251 -1.0713  1.4676
  213SOL    MW4  626   0.432   5.063   2.773 -0.2553  0.1551 -0.4040
  214SOL     OW  627   3.594   5.805   5.912 -0.4107 -0.0788  0.1961
  214SOL    HW2  628   3.544   5.752   5.850  1.0308  0.4095 -1.4452
  214SOL    HW3  629   3.651   5.859   5.858  1.3915 -0.0927  1.9411
  214SOL    MW4  630   3.595   5.805   5.897 -0.0457  0.4203  0.0216
  215SOL     OW  631   4.867   5.227   1.076 -0.4556  0.1886  0.1067
  215SOL    HW2  632   4.945   5.201   1.027 -1.4990 -2.4998 -0.2838
  215SOL    HW3  633   4.796   5.226   1.012 -0.8205  3.2104  0.3131
  215SOL    MW4  634   4.868   5.223   1.061 -0.1419  0.1960 -0.1321
  216SOL     OW  635   5.411   4.330   5.982 -0.2310 -0.3645 -0.2793
  216SOL    HW2  636   5.327   4.304   5.944 -0.8064 -0.9455  1.3180
  216SOL    HW3  637   5.476   4.282   5.930 -0.9282 -0.4170 -1.1164
  216SOL    MW4  638   5.408   4.320   5.970  0.0085 -0.7686  0.0402
  217SOL     OW  639   4.657   0.852   5.962  0.0445 -0.2163 -0.3138
  217SOL    HW2  640   4.734   0.796   5.969 -0.9681 -1.5400  0.6935
  217SOL    HW3  641   4.629   0.843   5.871  2.1650  1.8588 -1.2918
  217SOL    MW4  642   4.664   0.844   5.951 -0.2104  0.4061 -0.9170
  218SOL     OW  643   1.478   3.313   6.294 -0.0818 -0.4467 -0.0625
  218SOL    HW2  644   1.545   3.250   6.266  0.7016  0.7134 -0.9260
  218SOL    HW3  645   1.520   3.363   6.364  0.6947  1.5036 -1.8341
  218SOL    MW4  646   1.492   3.311   6.299 -0.4716  0.2905  0.0912
  219SOL     OW  647   1.056   0.318   3.266  0.0855 -0.3120 -0.2691
  219SOL    HW2  648   1.098   0.286   3.346 -0.6602 -1.3276 -0.2651
  219SOL    HW3  649   0.987   0.255   3.248 -1.4785  1.3163 -0.2599
  219SOL    MW4  650   1.052   0.306   3.274 -0.0440  0.5915 -0.1551
  220SOL     OW  651   4.050   5.284   4.981  0.1074 -0.3281  0.2883
  220SOL    HW2  652   4.113   5.320   4.918  1.6870 -0.8282  1.5058
  220SOL    HW3  653   4.105   5.239   5.045 -1.5374 -0.9076  1.3258
  220SOL    MW4  654   4.066   5.283   4.981 -0.0578 -0.6372  0.6631
  221SOL     OW  655   2.939   5.900   1.805  0.3165 -0.2244 -0.4374
  221SOL    HW2  656   2.881   5.969   1.773  0.0802 -0.7219 -1.1118
  221SOL    HW3  657   2.994   5.878   1.730 -1.2585 -2.4768 -1.0713
  221SOL    MW4  658   2.938   5.906   1.791 -0.6373 -0.1354 -0.3282
  222SOL     OW  659   3.920   0.624   1.562  0.6533  0.1963 -0.7306
  222SOL    HW2  660   3.901   0.663   1.476 -1.9653  2.1454  0.5889
  222SOL    HW3  661   3.919   0.529   1.546 -0.6848  0.4806 -2.7068
  222SOL    MW4  662   3.918   0.616   1.548  0.2372 -0.8215  0.5545
  223SOL     OW  663   4.670   3.008   5.867 -0.6034  0.1828 -0.3322
  223SOL    HW2  664   4.751   2.959   5.855  0.3046  1.1190  1.6319
  223SOL    HW3  665   4.642   2.987   5.956 -0.8080  2.2797  0.1592
  223SOL    MW4  666   4.677   2.999   5.877  0.1320 -0.6434  0.2175
  224SOL     OW  667   2.679   5.917   5.234  0.5782  0.4782  0.2153
  224SOL    HW2  668   2.737   5.886   5.164  1.1940  0.3855  0.7580
  224SOL    HW3  669   2.691   5.855   5.305 -0.3589  0.3390  0.2615
  224SOL    MW4  670   2.689   5.905   5.234 -0.6856  0.5140  0.4999
  225SOL     OW  671   2.520   4.133   5.995  0.2360 -0.5745 -0.1117
  225SOL    HW2  672   2.531   4.201   6.061  0.1165 -1.6054  1.0009
  225SOL    HW3  673   2.482   4.178   5.920 -1.0056  0.3784  1.0396
  225SOL    MW4  674   2.516   4.148   5.994 -0.2504  0.6812 -0.2164
  226SOL     OW  675   2.778   4.501   0.168 -0.2814  0.5726  0.3446
  226SOL    HW2  676   2.801   4.589   0.138 -0.0803  0.6335  0.6713
  226SOL    HW3  677   2.760   4.452   0.088 -1.0132  1.0837  0.1920
  226SOL    MW4  678   2.779   4.506   0.154 -0.4142 -0.7746  0.3540
  227SOL     OW  679   1.396   1.273   0.362 -0.0900 -0.8355  0.1322
  227SOL    HW2  680   1.424   1.364   0.363 -2.4938  0.0228 -1.4744
  227SOL    HW3  681   1.304   1.276   0.334  0.0981 -3.8165 -1.2373
  227SOL    MW4  682   1.387   1.285   0.358  0.3245 -0.5445 -0.3671
  228SOL     OW  683   0.070   1.578   4.259  0.1173  0.3189 -0.1508
  228SOL    HW2  684   0.009   1.622   4.200  1.3742  2.2945 -0.0645
  228SOL    HW3  685   0.157   1.603   4.228  0.8603 -0.5514  1.1155
  228SOL    MW4  686   0.074   1.587   4.247  0.3586  0.2886 -0.0324
  229SOL     OW  687   2.275   3.176   3.710 -0.0804 -0.0074  0.5809
  229SOL    HW2  688   2.235   3.127   3.638  2.1799  0.4640 -1.1393
  229SOL    HW3  689   2.264   3.268   3.684  0.7094  0.1688  0.8509
  229SOL    MW4  690   2.268   3.182   3.697 -0.9698  0.4345  0.8200
  230SOL     OW  691   1.922   6.095   5.251 -0.8973 -0.3746 -0.1948
  230SOL    HW2  692   1.944   6.110   5.343  1.1880  0.1360 -0.7122
  230SOL    HW3  693   1.997   6.132   5.203 -2.0476 -0.4193 -2.1050
  230SOL    MW4  694   1.935   6.102   5.257 -0.0339  0.1544 -0.1049
  231SOL     OW  695   0.747   4.125   3.363 -0.0211 -0.0775 -0.3678
  231SOL    HW2  696   0.824   4.100   3.414 -0.1588 -2.6535 -1.2547
  231SOL    HW3  697   0.672   4.099   3.417 -0.2062 -0.4182 -0.7792
  231SOL    MW4  698   0.747   4.118   3.377 -0.1478  0.4914  0.2313
  232SOL     OW  699   5.235   6.331   2.742 -0.0015  0.2510  0.2638
  232SOL    HW2  700   5.234   6.413   2.791 -0.8125 -0.2937  1.1971
  232SOL    HW3  701   5.304   6.279   2.783  0.3500  0.3663 -0.1717
  232SOL    MW4  702   5.244   6.335   2.754 -0.6932 -0.2916 -0.3082
  233SOL     OW  703   1.680   4.989   1.534  0.5112 -0.3252  0.3361
  233SOL    HW2  704   1.730   4.930   1.477  2.5585  1.6819 -0.1266
  233SOL    HW3  705   1.735   4.999   1.611  0.1231  0.8231  0.4776
  233SOL    MW4  706   1.694   4.982   1.537 -0.2712  0.0991 -0.0072
  234SOL     OW  707   4.529   6.020   5.773 -0.0300  0.1218 -0.2567
  234SOL    HW2  708   4.608   5.970   5.753  1.0564  1.9561 -0.8573
  234SOL    HW3  709   4.562   6.107   5.796 -1.8348  0.6249  0.5695
  234SOL    MW4  710   4.544   6.025   5.773 -0.4306 -0.4619 -0.1315
  235SOL     OW  711   4.601   3.596   5.513  0.0899  0.1052 -0.7775
  235SOL    HW2  712   4.516   3.585   5.555  0.6188 -0.1475  0.2621
  235SOL    HW3  713   4.614   3.691   5.511  0.4710  0.1042  0.5367
  235SOL    MW4  714   4.591   3.607   5.518 -0.9332 -0.2420  0.4545
  236SOL     OW  715   0.324   2.289   5.163 -0.4295  0.0589  0.2293
  236SOL    HW2  716   0.230   2.287   5.146 -0.5855 -0.0707  1.0582
  236SOL    HW3  717   0.347   2.382   5.158 -0.5927  0.0895  0.0076
  236SOL    MW4  718   0.314   2.301   5.160 -0.1824 -0.6858 -0.2275
  237SOL     OW  719   4.948   2.796   2.195  0.2212 -0.0962  0.4083
  237SOL    HW2  720   4.868   2.819   2.240 -0.6213 -2.3756  0.2215
  237SOL    HW3  721   4.971   2.874   2.144 -0.6810  1.3173  2.0821
  237SOL    MW4  722   4.941   2.809   2.194  0.2167  0.6044 -0.0541
  238SOL     OW  723   2.234   3.326   4.905 -0.3286 -0.4464 -0.1560
  238SOL    HW2  724   2.298   3.395   4.889  0.5208 -1.3006 -0.5503
  238SOL    HW3  725   2.228   3.279   4.822  0.3055 -1.8186  0.5393
  238SOL    MW4  726   2.242   3.329   4.892 -0.7390 -0.6032  0.2036
  239SOL     OW  727   2.511   5.244   2.521  0.2792 -0.2172 -0.2431
  239SOL    HW2  728   2.492   5.317   2.461 -0.8218  0.0536  0.4057
  239SOL    HW3  729   2.533   5.171   2.463  2.2662  0.8035 -0.9090
  239SOL    MW4  730   2.512   5.244   2.505  0.0203 -0.1377  0.2791
  240SOL     OW  731   2.596   0.884   1.064 -0.5148  0.3170  0.0112
  240SOL    HW2  732   2.514   0.841   1.039  1.0477 -1.1435 -3.0878
  240SOL    HW3  733   2.647   0.814   1.106  0.4888  0.1701 -1.3898
  240SOL    MW4  734   2.592   0.869   1.066  0.4029 -0.1760 -0.0255
  241SOL     OW  735   3.931   2.380   5.643 -0.5976 -0.4045  0.2349
  241SOL    HW2  736   3.959   2.332   5.722  1.9269  0.3140 -0.1157
  241SOL    HW3  737   3.944   2.317   5.572 -1.5468 -0.6050  0.2335
  241SOL    MW4  738   3.937   2.365   5.644 -0.0147 -0.0298  0.3991
  242SOL     OW  739   0.066   5.678   5.466 -0.0267 -0.5228  0.1382
  242SOL    HW2  740   0.110   5.616   5.524 -1.3157 -1.0940  0.5479
  242SOL    HW3  741   0.039   5.750   5.524  0.5949 -0.0389 -0.1605
  242SOL    MW4  742   0.069   5.679   5.482  0.1652 -0.7765  0.4722
  243SOL     OW  743   0.546   5.481   6.201  0.0561 -0.0518 -0.1162
  243SOL    HW2  744   0.641   5.490   6.212 -0.1414  0.2210  1.7778
  243SOL    HW3  745   0.524   5.401   6.249 -0.5203 -0.9266 -1.7557
  243SOL    MW4  746   0.556   5.472   6.209  0.2198 -0.4973  0.5248
  244SOL     OW  747   6.297   2.936   3.525 -0.2685 -0.2857  0.0398
  244SOL    HW2  748   6.271   3.025   3.548 -0.0435  0.3243 -1.9017
  244SOL    HW3  749   6.392   2.941   3.513 -0.2065 -0.8730  0.2661
  244SOL    MW4  750   6.306   2.948   3.527 -0.3723  0.2302  0.0516
  245SOL     OW  751   6.186   4.613   5.353  0.0105  0.1995 -0.4369
  245SOL    HW2  752   6.155   4.662   5.430 -2.4050 -1.3818 -0.2837
  245SOL    HW3  753   6.221   4.680   5.294  0.1693  1.6693  1.2404
  245SOL    MW4  754   6.187   4.629   5.356  0.1343 -0.2565 -0.6239
  246SOL     OW  755   4.575   2.961   6.135  0.1471  0.2124  0.2890
  246SOL    HW2  756   4.610   2.882   6.178  0.0852  0.2922  0.4886
  246SOL    HW3  757   4.515   2.998   6.200 -0.9353 -0.3724 -0.3479
  246SOL    MW4  758   4.572   2.955   6.149 -0.6354 -0.0021  0.6249
  247SOL     OW  759   2.446   5.479   5.263  0.3504  0.1232 -0.0772
  247SOL    HW2  760   2.480   5.482   5.352  0.3076  1.4978 -0.0749
  247SOL    HW3  761   2.515   5.522   5.211  0.0508 -0.0095 -0.5880
  247SOL    MW4  762   2.460   5.485   5.268 -0.3638  0.1803 -0.1139
  248SOL     OW  763   1.880   5.850   4.746  0.3392  0.4740 -0.4382
  248SOL    HW2  764   1.880   5.801   4.828 -0.4822 -2.7423 -2.1476
  248SOL    HW3  765   1.835   5.932   4.766 -1.1337 -0.8088  2.0109
  248SOL    MW4  766   1.874   5.854   4.759  0.5540  0.2693  0.3358
  249SOL     OW  767   4.772   0.653   4.542  0.0601  0.0415 -0.3179
  249SOL    HW2  768   4.746   0.657   4.450 -0.7526  0.9514 -0.0580
  249SOL    HW3  769   4.864   0.624   4.540 -0.2471 -0.9263 -1.3534
  249SOL    MW4  770   4.781   0.650   4.530 -0.6919 -0.2094  0.1953
  250SOL     OW  771   0.584   2.119   6.240  0.8822  0.3272  0.2196
  250SOL    HW2  772   0.501   2.137   6.196 -0.3573 -0.6607  2.0195
  250SOL    HW3  773   0.650   2.125   6.171 -0.9310 -0.9746 -1.7537
  250SOL    MW4  774   0.582   2.122   6.225  0.5218  0.0448 -0.7759
  251SOL     OW  775   0.050   2.548   3.024 -0.6208  0.0458  0.1313
  251SOL    HW2  776   0.073   2.466   3.067 -2.1459 -0.0259  0.8738
  251SOL    HW3  777   0.100   2.615   3.072  0.1410 -0.3616 -0.0751
  251SOL    MW4  778   0.060   2.546   3.036 -0.3589 -0.0594  0.1414
  252SOL     OW  779   1.805   5.766   6.121  0.1721 -0.2115 -0.9407
  252SOL    HW2  780   1.874   5.701   6.109  0.5152 -0.0426  0.0090
  252SOL    HW3  781   1.850   5.841   6.160 -0.8934 -0.9336  1.8804
  252SOL    MW4  782   1.820   5.768   6.125 -0.1031  0.6807  0.4284
  253SOL     OW  783   0.378   3.929   1.155 -0.1714 -0.4638 -0.1193
  253SOL    HW2  784   0.287   3.958   1.149  0.9884  3.7328 -0.0582
  253SOL    HW3  785   0.414   3.941   1.068  0.7484 -0.3855  0.2556
  253SOL    MW4  786   0.371   3.934   1.143  0.5211  0.1054  0.1303
  254SOL     OW  787   4.223   3.893   3.631 -0.0036 -0.2210 -0.1694
  254SOL    HW2  788   4.238   3.817   3.687 -1.4041 -0.8678 -0.6080
  254SOL    HW3  789   4.304   3.905   3.582  1.3354  0.5023  2.1267
  254SOL    MW4  790   4.235   3.884   3.632  0.3175 -0.0483 -0.4405
  255SOL     OW  791   0.576   3.198   1.709  0.4558  0.4916 -0.1973
  255SOL    HW2  792   0.495   3.238   1.676 -0.3624 -0.8404  0.1290
  255SOL    HW3  793   0.606   3.142   1.637  0.5960  0.2840  0.0224
  255SOL    MW4  794   0.569   3.196   1.695  0.2147  0.0677  0.1425
  256SOL     OW  795   3.748   5.579   1.887 -0.1876  0.6392  0.0886
  256SOL    HW2  796   3.835   5.561   1.850  0.1795  0.1504  1.1422
  256SOL    HW3  797   3.700   5.621   1.816  0.5229 -0.1690 -0.9071
  256SOL    MW4  798   3.753   5.582   1.873  0.0431  0.9107 -0.2076
  257SOL     OW  799   2.428   3.295   4.122 -0.1787 -0.1421 -0.0006
  257SOL    HW2  800   2.333   3.284   4.129 -0.1288 -0.4119  0.3295
  257SOL    HW3  801   2.443   3.317   4.030 -0.5706  0.0046 -0.0318
  257SOL    MW4  802   2.417   3.296   4.111 -0.0523 -0.1341 -0.5285
  258SOL     OW  803   0.423   4.274   3.768  0.6917 -0.1744 -0.3163
  258SOL    HW2  804   0.333   4.270   3.734  0.4619 -0.9910  0.3547
  258SOL    HW3  805   0.421   4.221   3.848  1.6092  0.3750  0.0868
  258SOL    MW4  806   0.411   4.267   3.774 -0.5077  0.4860 -0.6583
  259SOL     OW  807   3.794   4.544   3.073 -0.2016  0.4338  0.5223
  259SOL    HW2  808   3.776   4.456   3.038  0.6486 -0.0135  1.1690
  259SOL    HW3  809   3.877   4.535   3.118 -0.8408  1.2178  1.9077
  259SOL    MW4  810   3.802   4.531   3.074  0.2895  0.1600  0.3342
  260SOL     OW  811   3.720   2.012   2.985  0.0859 -0.2207 -0.1093
  260SOL    HW2  812   3.799   2.019   2.931 -0.4631  0.8917 -0.8253
  260SOL    HW3  813   3.675   1.934   2.952  0.0162  0.1531 -0.9219
  260SOL    MW4  814   3.725   2.003   2.973  0.0743 -0.5129 -0.4509
  261SOL     OW  815   2.012   0.648   3.121 -0.3806 -0.0208  0.2423
  261SOL    HW2  816   2.028   0.732   3.078  1.3367  0.2129  1.2537
  261SOL    HW3  817   1.960   0.671   3.198 -1.7942 -0.2031 -0.6122
  261SOL    MW4  818   2.007   0.662   3.125  0.3312  0.1597  0.7352
  262SOL     OW  819   1.076   3.195   3.646  0.3100  0.1555  0.6912
  262SOL    HW2  820   1.170   3.181   3.647  0.6108  1.2685 -2.1080
  262SOL    HW3  821   1.065   3.290   3.649 -0.5311  0.1776 -1.2750
  262SOL    MW4  822   1.087   3.206   3.646 -0.5292 -0.6303 -0.4519
  263SOL     OW  823   0.112   4.448   0.947  0.2823  0.7870  0.9574
  263SOL    HW2  824   0.102   4.478   0.857  0.3695 -0.2294  0.6044
  263SOL    HW3  825   0.172   4.512   0.987 -0.4470  1.7473  0.5620
  263SOL    MW4  826   0.118   4.460   0.941  0.2301 -0.3886  1.0024
  264SOL     OW  827   5.583   0.883   1.043  0.2860 -0.0524  0.7440
  264SOL    HW2  828   5.492   0.854   1.048  0.5298 -0.8555  0.6663
  264SOL    HW3  829   5.577   0.977   1.024 -0.5343  0.3463  2.7463
  264SOL    MW4  830   5.570   0.891   1.041  0.0010 -0.5708  0.2304
  265SOL     OW  831   2.263   1.191   5.718 -0.3191 -0.6178 -0.4348
  265SOL    HW2  832   2.234   1.271   5.761 -0.6293 -0.3603 -1.1023
  265SOL    HW3  833   2.206   1.123   5.754 -0.3208 -0.4750 -0.1602
  265SOL    MW4  834   2.252   1.193   5.728 -0.0247  0.0936  0.1252
  266SOL     OW  835   5.068   0.030   3.022  0.1675 -0.1643 -0.2262
  266SOL    HW2  836   5.110   0.061   3.102 -0.7612 -0.7616  0.5115
  266SOL    HW3  837   4.976   0.057   3.031 -0.0287 -0.5690 -0.9255
  266SOL    MW4  838   5.062   0.038   3.033 -0.4653 -0.1544  0.2820
  267SOL     OW  839   5.139   5.360   1.413  0.1516  0.2719  0.1954
  267SOL    HW2  840   5.088   5.403   1.344 -0.2275 -1.0835 -0.4165
  267SOL    HW3  841   5.184   5.431   1.458  0.8805  1.1549 -1.8161
  267SOL    MW4  842   5.138   5.375   1.410 -0.4823  0.0573 -0.0099
  268SOL     OW  843   5.513   4.365   0.279  0.5488  0.3128  0.0167
  268SOL    HW2  844   5.529   4.331   0.367  1.1459  1.9635  0.5993
  268SOL    HW3  845   5.463   4.297   0.235  3.3155 -2.1753  0.4247
  268SOL    MW4  846   5.509   4.352   0.285 -0.0043 -0.5827 -0.3074
  269SOL     OW  847   1.572   4.727   3.444  0.1255 -0.2288 -0.4660
  269SOL    HW2  848   1.664   4.701   3.451  0.0998 -0.7633 -1.8108
  269SOL    HW3  849   1.555   4.730   3.350 -1.0504  0.5463 -0.2487
  269SOL    MW4  850   1.582   4.724   3.432 -0.0247  0.2954  0.4446
  270SOL     OW  851   0.720   5.577   0.718  0.5699 -0.2620 -0.6476
  270SOL    HW2  852   0.650   5.626   0.676  0.4427 -0.6059 -0.8362
  270SOL    HW3  853   0.773   5.543   0.646  0.7391 -0.2834 -0.5140
  270SOL    MW4  854   0.718   5.579   0.703 -0.3710 -0.1627  0.0028
  271SOL     OW  855   1.399   5.113   1.511  0.3528 -0.2715 -0.4049
  271SOL    HW2  856   1.483   5.074   1.535  2.5625  4.2444  0.2054
  271SOL    HW3  857   1.354   5.128   1.594  0.1128 -0.3234 -0.5239
  271SOL    MW4  858   1.404   5.109   1.525  0.9328  0.0705  0.2377
  272SOL     OW  859   0.040   6.194   3.563  0.2669  0.1171  0.0690
  272SOL    HW2  860  -0.012   6.147   3.498  0.2723 -0.5722  0.5617
  272SOL    HW3  861   0.038   6.139   3.641 -0.0633  1.1210  0.7945
  272SOL    MW4  862   0.033   6.181   3.565 -0.1169  0.5201 -0.4622
  273SOL     OW  863   0.532   0.478   4.471  0.0247  0.2340 -0.0786
  273SOL    HW2  864   0.598   0.507   4.408  0.6579 -0.3275  0.3112
  273SOL    HW3  865   0.484   0.410   4.425  1.3688 -1.1460  0.4663
  273SOL    MW4  866   0.535   0.473   4.457  0.2143 -0.4016 -0.0774
  274SOL     OW  867   2.498   4.971   2.410  0.5098  0.2357 -0.2593
  274SOL    HW2  868   2.415   4.954   2.365  0.0888 -0.0458  0.6070
  274SOL    HW3  869   2.565   4.950   2.345 -0.0284 -2.4060 -0.0787
  274SOL    MW4  870   2.496   4.966   2.395 -0.3908  0.1323 -0.2095
  275SOL     OW  871   2.299   2.737   2.084 -0.4065  0.4191 -0.3226
  275SOL    HW2  872   2.376   2.779   2.045 -1.6884  2.2571 -1.0299
  275SOL    HW3  873   2.258   2.806   2.136  0.0219 -1.3727  2.6083
  275SOL    MW4  874   2.304   2.752   2.085  0.3352 -0.4341  0.0180
  276SOL     OW  875   0.443   5.315   4.968 -0.5381 -0.0468 -0.1985
  276SOL    HW2  876   0.526   5.345   5.004 -0.0405 -0.1327 -1.2130
  276SOL    HW3  877   0.419   5.240   5.022  0.2467 -0.2519 -0.1178
  276SOL    MW4  878   0.451   5.309   4.980 -0.2715 -1.0925 -0.0945
  277SOL     OW  879   4.504   4.559   2.627  0.3743  0.7393  0.0034
  277SOL    HW2  880   4.589   4.542   2.586  0.0664  1.2450 -0.8712
  277SOL    HW3  881   4.453   4.604   2.559 -0.9617 -0.4800  0.1510
  277SOL    MW4  882   4.508   4.563   2.613  0.4101 -0.1258  0.5973
  278SOL     OW  883   1.538   5.573   1.908  0.1277  0.0279  0.0654
  278SOL    HW2  884   1.488   5.624   1.972 -1.3550 -0.9262 -0.2752
  278SOL    HW3  885   1.487   5.492   1.897  0.9646 -0.3315 -1.4491
  278SOL    MW4  886   1.524   5.569   1.915  0.9936 -0.1221 -0.1890
  279SOL     OW  887   5.671   4.033   3.093  0.2038 -0.3230 -0.4341
  279SOL    HW2  888   5.613   4.109   3.095  1.3386  0.5769 -0.3778
  279SOL    HW3  889   5.627   3.971   3.036 -0.1785  0.8753 -1.4998
  279SOL    MW4  890   5.657   4.035   3.086 -0.5600  0.1695 -0.7476
  280SOL     OW  891   2.211   1.391   0.134 -0.0366  0.6498 -0.0293
  280SOL    HW2  892   2.171   1.471   0.166  0.4480  0.8078  0.1924
  280SOL    HW3  893   2.239   1.345   0.214 -0.5282  0.1436 -0.1393
  280SOL    MW4  894   2.209   1.395   0.149  0.2775  0.1295  0.4847
  281SOL     OW  895   5.833   2.316   3.157 -0.1467  0.0832  0.2030
  281SOL    HW2  896   5.834   2.410   3.171  1.1332  0.2935 -1.1172
  281SOL    HW3  897   5.925   2.290   3.155 -0.4522 -1.0267 -0.4583
  281SOL    MW4  898   5.845   2.325   3.159  0.9039  0.0767  0.4158
  282SOL     OW  899   0.027   4.715   1.380  0.5223 -0.3836 -1.0829
  282SOL    HW2  900  -0.007   4.631   1.411  0.3472 -0.1481 -0.6377
  282SOL    HW3  901  -0.048   4.757   1.337 -0.2742  0.8701  1.3519
  282SOL    MW4  902   0.012   4.709   1.378  0.1055  0.4850 -0.3645
  283SOL     OW  903   5.366   5.796   6.325 -0.2510  0.4359  0.0237
  283SOL    HW2  904   5.297   5.732   6.341  0.5252 -0.4069  0.0669
  283SOL    HW3  905   5.330   5.879   6.356 -1.0558 -0.0814  0.4863
  283SOL    MW4  906   5.352   5.799   6.331 -0.3149  0.2905 -0.4388
  284SOL     OW  907   6.167   3.801   4.940  0.4865  0.2519  0.0938
  284SOL    HW2  908   6.216   3.802   4.858  0.4958 -1.0485  0.0601
  284SOL    HW3  909   6.108   3.876   4.934  0.6128  0.2717 -1.0255
  284SOL    MW4  910   6.166   3.811   4.929  0.3845  0.0137  0.2818
  285SOL     OW  911   4.991   1.347   3.378 -0.2503 -0.6945  0.0438
  285SOL    HW2  912   4.982   1.440   3.355  2.5290 -0.2528  0.4065
  285SOL    HW3  913   4.990   1.301   3.294  1.8115  0.0673 -0.4411
  285SOL    MW4  914   4.989   1.353   3.364 -0.6927  0.2383  0.2540
  286SOL     OW  915   5.093   2.620   6.363 -0.5169  0.4716 -0.2559
  286SOL    HW2  916   5.062   2.559   6.296 -0.6554 -1.2551  1.3008
  286SOL    HW3  917   5.180   2.647   6.332 -0.1048 -1.1753 -0.6055
  286SOL    MW4  918   5.101   2.616   6.350 -0.4686 -0.3421  0.0753
  287SOL     OW  919   5.188   3.330   3.032 -0.3336  0.7503 -0.2693
  287SOL    HW2  920   5.194   3.292   2.945 -0.2291  0.7445 -0.2599
  287SOL    HW3  921   5.221   3.261   3.090 -1.4265  0.3360 -0.1103
  287SOL    MW4  922   5.193   3.316   3.028 -0.2938  0.1563 -0.1985
  288SOL     OW  923   3.110   2.394   4.251  0.2509  0.1200 -0.5419
  288SOL    HW2  924   3.021   2.377   4.219  0.3462 -1.3563 -0.0840
  288SOL    HW3  925   3.120   2.489   4.243 -1.0936  0.2269 -1.2997
  288SOL    MW4  926   3.099   2.404   4.246  0.4477  0.5269  0.6895
  289SOL     OW  927   3.190   0.809   4.303 -0.1879 -0.0617  0.4380
  289SOL    HW2  928   3.098   0.801   4.328 -0.0042 -2.0467  0.6612
  289SOL    HW3  929   3.190   0.873   4.232 -1.5917  0.7438  1.1155
  289SOL    MW4  930   3.178   0.817   4.297  0.2607  0.3284 -0.6566
  290SOL     OW  931   5.530   1.461   5.089  0.0953  0.2869 -0.2765
  290SOL    HW2  932   5.517   1.551   5.056  1.6364  0.6260 -0.0343
  290SOL    HW3  933   5.565   1.473   5.177  2.1463 -0.4871 -0.9352
  290SOL    MW4  934   5.533   1.475   5.096 -0.3990 -0.2792 -0.2020
  291SOL     OW  935   3.094   3.995   2.076 -0.3314  0.3254 -0.3204
  291SOL    HW2  936   3.082   4.076   2.026  1.0378  0.4744 -0.4333
  291SOL    HW3  937   3.154   3.943   2.023 -0.2685 -0.2631  0.3208
  291SOL    MW4  938   3.100   3.999   2.062 -0.4360 -0.2753 -0.4661
  292SOL     OW  939   1.669   3.134   5.799 -0.2880 -0.0540 -0.4026
  292SOL    HW2  940   1.636   3.109   5.713  1.3265 -0.8889 -0.8167
  292SOL    HW3  941   1.660   3.054   5.852  0.6703 -0.1894 -0.4210
  292SOL    MW4  942   1.663   3.120   5.795  0.3140  0.4185 -0.4404
  293SOL     OW  943   2.144   1.129   4.513  0.0594 -0.1847  0.9608
  293SOL    HW2  944   2.162   1.223   4.508  0.7509 -0.2635  1.8427
  293SOL    HW3  945   2.209   1.095   4.573 -1.1516 -0.9826  1.8747
  293SOL    MW4  946   2.155   1.137   4.520 -0.2309  0.2286 -0.0143
  294SOL     OW  947   5.424   5.410   2.254 -0.4740 -0.1504 -0.2709
  294SOL    HW2  948   5.380   5.327   2.276 -0.0196 -0.6928 -1.3339
  294SOL    HW3  949   5.432   5.455   2.337 -0.7651 -1.1606  0.3285
  294SOL    MW4  950   5.419   5.405   2.268 -0.4477  0.3595 -0.4903
  295SOL     OW  951   3.063   0.164   4.979 -0.3760  0.2639  0.1083
  295SOL    HW2  952   3.050   0.105   5.053 -1.6703  1.1303  0.5925
  295SOL    HW3  953   3.042   0.250   5.013  0.2619  0.8499 -0.9371
  295SOL    MW4  954   3.059   0.167   4.993  0.3025 -0.1028 -0.3451
  296SOL     OW  955   0.598   2.886   1.176 -0.3417 -0.9993 -0.2457
  296SOL    HW2  956   0.540   2.951   1.136 -0.1292 -1.4278 -1.2696
  296SOL    HW3  957   0.658   2.861   1.106  1.8963  0.3255  1.0816
  296SOL    MW4  958   0.598   2.891   1.162 -0.8250  0.2073  0.2979
  297SOL     OW  959   5.227   2.182   0.588 -0.3472 -0.6743 -0.1668
  297SOL    HW2  960   5.159   2.213   0.528  1.0465 -0.8440 -1.9119
  297SOL    HW3  961   5.230   2.249   0.657  0.1782  1.3309 -2.0028
  297SOL    MW4  962   5.219   2.195   0.589  0.1123 -0.3587 -0.0918
  298SOL     OW  963   6.226   1.810   0.776 -0.0848 -0.8527  0.4684
  298SOL    HW2  964   6.268   1.889   0.809 -1.1427 -1.0722  2.5415
  298SOL    HW3  965   6.208   1.828   0.684 -0.9620  1.6435  1.0545
  298SOL    MW4  966   6.229   1.822   0.768 -0.1491  0.0799  0.0721
  299SOL     OW  967   0.040   5.554   3.182 -0.3796  0.0055 -0.2917
  299SOL    HW2  968  -0.003   5.634   3.215  0.4906  0.6195 -0.6209
  299SOL    HW3  969   0.037   5.493   3.256 -0.7010  0.4748  0.0902
  299SOL    MW4  970   0.034   5.557   3.196  0.3220  0.3710  0.1271
  300SOL     OW  971   3.252   1.039   1.481 -0.1481 -0.1457 -0.6231
  300SOL    HW2  972   3.284   0.951   1.458 -0.5047 -0.1863 -0.9817
  300SOL    HW3  973   3.329   1.085   1.513 -0.5822 -1.8087  3.4638
  300SOL    MW4  974   3.266   1.033   1.482 -0.2711  0.2658 -0.5081
  301SOL     OW  975   1.430   2.436   5.881 -0.5299 -0.0757  0.4735
  301SOL    HW2  976   1.420   2.341   5.885 -1.4178  0.0101  0.3461
  301SOL    HW3  977   1.408   2.459   5.791 -1.7228  0.4026  0.8663
  301SOL    MW4  978   1.426   2.426   5.870 -0.0478 -0.7077 -0.1942
  302SOL     OW  979   4.678   4.730   2.158  1.0264 -0.0105  0.0298
  302SOL    HW2  980   4.638   4.648   2.188 -0.2324 -0.0330 -1.5810
  302SOL    HW3  981   4.722   4.706   2.076 -0.3319  1.1001 -1.0846
  302SOL    MW4  982   4.679   4.716   2.151 -0.2557 -0.3292 -0.2037
  303SOL     OW  983   4.443   0.949   4.703 -0.1442 -0.5462  0.5068
  303SOL    HW2  984   4.406   0.863   4.724 -0.9307 -0.4617 -0.4645
  303SOL    HW3  985   4.429   0.959   4.609  0.9700  0.1674  0.3947
  303SOL    MW4  986   4.436   0.939   4.693 -0.1159 -0.7052 -0.6796
  304SOL     OW  987   0.840   5.584   0.243  0.2321 -0.6721  1.0768
  304SOL    HW2  988   0.838   5.510   0.182  0.2257 -1.5306  2.0688
  304SOL    HW3  989   0.768   5.641   0.215 -0.7619 -1.8208  1.1849
  304SOL    MW4  990   0.830   5.581   0.231  0.0963 -0.4692 -0.4095
  305SOL     OW  991   0.972   1.293   6.003  0.0272  0.3265  0.0574
  305SOL    HW2  992   1.062   1.324   6.013 -0.1294  1.2796 -1.2540
  305SOL    HW3  993   0.932   1.307   6.089  0.5702  1.8162  0.0928
  305SOL    MW4  994   0.979   1.299   6.016 -0.8135 -1.2951  0.1904
  306SOL     OW  995   4.720   5.200   3.190 -0.3304 -0.0020 -0.1824
  306SOL    HW2  996   4.798   5.165   3.232  0.4513  1.2398 -0.5297
  306SOL    HW3  997   4.721   5.163   3.102  0.1779  0.4244 -0.3631
  306SOL    MW4  998   4.730   5.191   3.184  0.0323 -0.3574 -0.0818
  307SOL     OW  999   2.816   5.759   5.693 -0.2774 -0.1405 -0.0765
  307SOL    HW2 1000   2.762   5.769   5.615  0.8908  0.9849 -0.7774
  307SOL    HW3 1001   2.880   5.830   5.688  0.1172 -0.3063  1.6783
  307SOL    MW4 1002   2.817   5.770   5.682 -0.1387  0.2465 -0.3664
  308SOL     OW 1003   0.090   2.842   6.381 -0.4401  0.1145  0.7647
  308SOL    HW2 1004   0.111   2.932   6.355  0.6748 -0.1734  0.6362
  308SOL    HW3 1005   0.140   2.828   6.461  0.6243 -0.8978 -0.0465
  308SOL    MW4 1006   0.099   2.852   6.388  0.3165  0.0688 -0.0951
  309SOL     OW 1007   0.398   2.923   2.024 -0.7743  0.2527 -0.6666
  309SOL    HW2 1008   0.361   2.842   1.989 -0.4607 -1.5889  2.7990
  309SOL    HW3 1009   0.322   2.972   2.057 -0.7515 -0.0211 -0.1956
  309SOL    MW4 1010   0.383   2.919   2.024  0.6628 -0.2682  0.2092
  310SOL     OW 1011   1.615   4.153   1.001 -0.6085 -0.1968 -0.0617
  310SOL    HW2 1012   1.567   4.223   0.957 -1.5321 -1.1784 -0.6789
  310SOL    HW3 1013   1.552   4.081   1.007  0.3665 -1.0447  0.3761
  310SOL    MW4 1014   1.600   4.153   0.996  0.1554 -0.4395 -0.1702
  311SOL     OW 1015   0.981   3.473   5.349  0.0667  0.0064 -0.4599
  311SOL    HW2 1016   1.050   3.438   5.292 -0.9910  0.0315 -1.7941
  311SOL    HW3 1017   1.025   3.540   5.401  1.4303 -1.1702 -0.0391
  311SOL    MW4 1018   0.996   3.477   5.349  0.1952  0.3446  0.2051
  312SOL     OW 1019   3.789   2.755   2.747  0.1149 -0.2276 -0.1538
  312SOL    HW2 1020   3.868   2.701   2.748  0.0015 -0.5152 -2.1462
  312SOL    HW3 1021   3.724   2.703   2.795  0.3494 -1.3444 -0.9966
  312SOL    MW4 1022   3.790   2.741   2.753  0.1004 -0.7994  0.2034
  313SOL     OW 1023   6.228   6.191   4.570 -0.5007  0.2178 -0.1372
  313SOL    HW2 1024   6.198   6.208   4.659 -0.6866  1.6969 -0.4446
  313SOL    HW3 1025   6.178   6.115   4.541  0.1489 -0.8019  1.2808
  313SOL    MW4 1026   6.217   6.183   4.578 -0.0289  0.0533  0.1395
  314SOL     OW 1027   4.675   6.359   0.640  0.0984  0.1377  0.2500
  314SOL    HW2 1028   4.636   6.300   0.576 -0.8635  0.2302  0.7329
  314SOL    HW3 1029   4.633   6.335   0.723  1.1577  0.1640  0.8149
  314SOL    MW4 1030   4.664   6.348   0.643  0.1462  0.0134 -0.2670
  315SOL     OW 1031   1.138   0.010   6.264 -0.2367 -0.2328  0.2941
  315SOL    HW2 1032   1.212  -0.006   6.322  0.6382 -0.3818 -0.8292
  315SOL    HW3 1033   1.174   0.066   6.195 -1.6977  1.4847  0.8298
  315SOL    MW4 1034   1.152   0.016   6.263  0.4576 -0.1007  0.5882
  316SOL     OW 1035   2.592   2.287   0.687  0.4661 -0.2332 -0.2790
  316SOL    HW2 1036   2.601   2.229   0.763 -0.7659 -0.3786 -0.2115
  316SOL    HW3 1037   2.645   2.245   0.619 -0.1247 -1.2787 -0.1261
  316SOL    MW4 1038   2.600   2.274   0.688  0.1432 -0.4385 -0.0146
  317SOL     OW 1039   5.942   4.526   1.883  0.2101 -0.0450  0.1648
  317SOL    HW2 1040   5.900   4.441   1.867 -1.1334  0.5845  0.2721
  317SOL    HW3 1041   5.905   4.556   1.966 -0.9721  1.6127 -0.9072
  317SOL    MW4 1042   5.932   4.519   1.892  0.2061  0.1667  0.2185
  318SOL     OW 1043   4.449   1.957   5.713 -0.2112 -0.0985 -0.0259
  318SOL    HW2 1044   4.498   2.015   5.656 -1.0739 -0.5460 -1.2614
  318SOL    HW3 1045   4.511   1.933   5.782  0.8598  0.4382 -0.7820
  318SOL    MW4 1046   4.464   1.961   5.715  0.0364 -0.1336  0.1825
  319SOL     OW 1047   4.080   1.912   6.369  0.5359 -0.0579  0.0814
  319SOL    HW2 1048   4.051   1.826   6.399  0.8568 -0.9451 -1.9619
  319SOL    HW3 1049   4.146   1.939   6.433  1.6868 -2.1499 -0.1434
  319SOL    MW4 1050   4.085   1.904   6.381  0.1330  0.3723  0.2972
  320SOL     OW 1051   6.018   4.451   5.759 -0.4586 -0.0520  0.5227
  320SOL    HW2 1052   5.927   4.472   5.739 -0.4269 -0.1692  0.2521
  320SOL    HW3 1053   6.060   4.536   5.771 -0.7549 -0.0055  1.3446
  320SOL    MW4 1054   6.011   4.465   5.758 -0.1261  0.1848 -0.4490
  321SOL     OW 1055   0.633   1.266   5.518  0.3195 -0.1806  0.2267
  321SOL    HW2 1056   0.657   1.260   5.611  0.0059 -0.5994  0.2825
  321SOL    HW3 1057   0.715   1.289   5.474  0.5570 -0.3729  0.5630
  321SOL    MW4 1058   0.647   1.268   5.525 -0.0206  0.1560  0.1730
  322SOL     OW 1059   5.624   2.815   4.090  0.2559 -0.0632 -0.3362
  322SOL    HW2 1060   5.585   2.853   4.169 -0.2154  1.3258 -1.2035
  322SOL    HW3 1061   5.719   2.821   4.105  0.1945 -1.4370  0.8452
  322SOL    MW4 1062   5.632   2.821   4.103  0.1134  0.4123  0.0542
  323SOL     OW 1063   5.068   1.189   2.266 -0.0981  0.1207 -0.1654
  323SOL    HW2 1064   5.092   1.097   2.280  0.2274  0.0117 -1.3855
  323SOL    HW3 1065   5.021   1.213   2.346  0.9982 -0.6953  0.7584
  323SOL    MW4 1066   5.065   1.180   2.279 -0.3750 -0.2710 -0.4177
  324SOL     OW 1067   3.475   4.499   3.000  0.0330 -0.1706  0.2324
  324SOL    HW2 1068   3.379   4.506   2.999 -0.2966 -2.9439  2.2097
  324SOL    HW3 1069   3.503   4.554   2.927 -3.0015  1.2526 -0.0325
  324SOL    MW4 1070   3.466   4.507   2.990  0.4473 -0.2353  0.2698
  325SOL     OW 1071   3.270   1.370   4.093  0.5795 -0.6034  0.6811
  325SOL    HW2 1072   3.357   1.375   4.053  0.3639 -0.1983  0.2525
  325SOL    HW3 1073   3.286   1.385   4.186  0.7678  1.6536  0.3505
  325SOL    MW4 1074   3.284   1.373   4.100 -0.1241 -0.0796 -0.0061
  326SOL     OW 1075   1.258   1.581   0.189  0.5429  0.3278 -0.3273
  326SOL    HW2 1076   1.231   1.556   0.100 -0.7954  0.3105  0.0599
  326SOL    HW3 1077   1.192   1.644   0.217  0.1117 -0.7654  1.2005
  326SOL    MW4 1078   1.246   1.586   0.181 -0.2525  0.4577 -0.0996
  327SOL     OW 1079   0.563   3.481   4.369  0.7374  0.0074  0.1073
  327SOL    HW2 1080   0.543   3.565   4.411 -1.0013 -0.6043  0.6321
  327SOL    HW3 1081   0.563   3.500   4.276 -0.4560  0.4747  0.1805
  327SOL    MW4 1082   0.560   3.495   4.363 -0.4993 -0.2157 -0.0388
  328SOL     OW 1083   4.098   4.129   3.540  0.2957  0.2495  0.3240
  328SOL    HW2 1084   4.150   4.209   3.546 -1.2392  1.4347 -1.2489
  328SOL    HW3 1085   4.158   4.059   3.567  2.3574  1.6654 -0.3701
  328SOL    MW4 1086   4.112   4.130   3.545 -0.0898  0.0967 -0.2420
  329SOL     OW 1087   3.989   1.463   1.751 -0.1610  0.0254 -0.2645
  329SOL    HW2 1088   3.982   1.549   1.709 -1.3420 -0.6523 -1.5442
  329SOL    HW3 1089   4.008   1.483   1.843 -1.4388  1.6964 -0.2994
  329SOL    MW4 1090   3.990   1.477   1.758  0.2975  0.2254 -0.1763
  330SOL     OW 1091   0.092   3.140   4.353  0.3036  0.3111 -0.3720
  330SOL    HW2 1092   0.063   3.097   4.272  2.0331  0.6860 -1.2474
  330SOL    HW3 1093   0.172   3.095   4.377 -0.3255  0.0240  1.3358
  330SOL    MW4 1094   0.099   3.129   4.345 -0.3451  0.2707  0.2531
  331SOL     OW 1095   4.643   2.774   4.642  0.5034  0.3785 -0.0406
  331SOL    HW2 1096   4.585   2.818   4.580 -1.1045 -0.6853  0.6379
  331SOL    HW3 1097   4.726   2.765   4.595 -0.6243 -0.3054 -2.0320
  331SOL    MW4 1098   4.646   2.779   4.627 -0.2988 -0.1217 -0.0993
  332SOL     OW 1099   1.119   1.404   4.746 -0.4910  0.8106  0.7426
  332SOL    HW2 1100   1.179   1.346   4.793 -1.4293 -0.3485  0.5637
  332SOL    HW3 1101   1.059   1.436   4.814  0.0917  1.6900  0.8610
  332SOL    MW4 1102   1.119   1.401   4.761 -0.5314  0.4755 -0.4690
  333SOL     OW 1103   1.214   5.348   4.749 -0.2046 -0.0640 -0.4715
  333SOL    HW2 1104   1.277   5.368   4.817 -0.3474  0.7271 -0.5589
  333SOL    HW3 1105   1.199   5.432   4.705 -2.7200  0.2222  0.7275
  333SOL    MW4 1106   1.220   5.361   4.752 -0.1391  0.0123  0.6610
  334SOL     OW 1107   2.915   0.512   1.349 -0.0651  0.7811  0.3168
  334SOL    HW2 1108   2.889   0.452   1.419 -1.4421  0.7822 -0.1732
  334SOL    HW3 1109   2.840   0.570   1.338 -0.9390 -0.7003 -2.7615
  334SOL    MW4 1110   2.902   0.511   1.357 -0.3268 -0.0793  0.2100
  335SOL     OW 1111   3.075   1.736   6.299 -0.0040  0.8320  0.2296
  335SOL    HW2 1112   3.156   1.787   6.299  1.5821 -1.3565  3.2601
  335SOL    HW3 1113   3.023   1.773   6.370 -0.1686  0.1805  0.4600
  335SOL    MW4 1114   3.078   1.747   6.309 -0.4554  0.0078 -0.6221
  336SOL     OW 1115   3.371   6.340   2.311  0.1279  0.5452 -0.1768
  336SOL    HW2 1116   3.464   6.363   2.323  0.4870  0.0289 -1.7077
  336SOL    HW3 1117   3.372   6.270   2.246 -1.2609 -0.5662  0.9471
  336SOL    MW4 1118   3.384   6.334   2.304  0.0423 -0.0943 -0.5146
  337SOL     OW 1119   3.572   3.295   5.308  0.0464  0.4177  0.1887
  337SOL    HW2 1120   3.637   3.363   5.326  0.9786  0.2662 -2.2425
  337SOL    HW3 1121   3.490   3.343   5.294  1.2065  1.5755 -4.3367
  337SOL    MW4 1122   3.570   3.310   5.308  0.1569 -0.5793 -0.2396
  338SOL     OW 1123   5.403   2.205   5.498  0.1791  0.3269 -0.1968
  338SOL    HW2 1124   5.437   2.124   5.537  4.1136  2.5202  1.5303
  338SOL    HW3 1125   5.388   2.262   5.573 -0.8906  1.7940 -1.4763
  338SOL    MW4 1126   5.406   2.201   5.513 -0.6724 -0.1448 -0.1973
  339SOL     OW 1127   4.032   0.225   0.510 -0.5347 -0.2685  0.4095
  339SOL    HW2 1128   4.116   0.191   0.541 -0.7544 -0.1094  1.1996
  339SOL    HW3 1129   3.971   0.207   0.582 -1.2190 -0.5410 -0.2250
  339SOL    MW4 1130   4.035   0.218   0.524 -0.6269  0.0523 -0.3326
  340SOL     OW 1131   1.072   1.313   0.005  0.6387  0.2474 -0.6212
  340SOL    HW2 1132   1.098   1.227  -0.027  0.8707 -0.1264  0.5291
  340SOL    HW3 1133   1.137   1.373  -0.030  2.1570 -0.4535  0.8667
  340SOL    MW4 1134   1.084   1.309  -0.004  0.2488 -0.4120  0.0708
  341SOL     OW 1135   4.904   3.236   5.578 -0.2126 -0.7501 -0.3598
  341SOL    HW2 1136   4.909   3.301   5.508  1.4203 -1.8403 -1.3122
  341SOL    HW3 1137   4.970   3.265   5.641 -1.6487  0.2085  0.7848
  341SOL    MW4 1138   4.914   3.249   5.577 -0.0520  0.2775  0.1923
  342SOL     OW 1139   3.619   5.709   6.373  0.2936 -0.2795 -0.1920
  342SOL    HW2 1140   3.673   5.644   6.418  0.0802  0.4986  1.2434
  342SOL    HW3 1141   3.529   5.685   6.397  0.2196  0.5829  0.4251
  342SOL    MW4 1142   3.614   5.697   6.382  0.2214 -0.1727 -0.0122
  343SOL     OW 1143   0.334   0.356   0.886  0.0581 -0.3792 -0.7198
  343SOL    HW2 1144   0.404   0.422   0.885  0.9376 -1.2450  0.8289
  343SOL    HW3 1145   0.300   0.358   0.975 -2.1254  0.1967 -1.5071
  343SOL    MW4 1146   0.339   0.365   0.897  0.4751  0.0889  0.2939
  344SOL     OW 1147   6.192   4.250   1.125 -1.1476  0.3231 -0.2418
  344SOL    HW2 1148   6.145   4.298   1.056  1.7854  1.0832 -1.8927
  344SOL    HW3 1149   6.267   4.305   1.146  0.3466 -1.8343  0.4868
  344SOL    MW4 1150   6.196   4.263   1.118  0.2135  0.6537  0.0383
  345SOL     OW 1151   2.318   3.620   1.422  0.5005  0.3289  0.5132
  345SOL    HW2 1152   2.275   3.706   1.429  0.7481  0.4893  0.1442
  345SOL    HW3 1153   2.288   3.586   1.338  0.0614 -0.1449  0.8564
  345SOL    MW4 1154   2.308   3.627   1.412  0.2804 -0.3326 -0.0312
  346SOL     OW 1155   5.090   3.853   1.523  0.5590 -0.4986  0.2125
  346SOL    HW2 1156   5.015   3.800   1.550 -0.0005 -0.1895 -0.6993
  346SOL    HW3 1157   5.160   3.828   1.584 -0.2528 -0.8555  1.0173
  346SOL    MW4 1158   5.090   3.842   1.535 -0.1885 -0.4002 -0.2441
  347SOL     OW 1159   5.193   3.527   5.865 -0.2641  0.3752  0.5460
  347SOL    HW2 1160   5.119   3.547   5.807  1.2880  2.7666 -0.8115
  347SOL    HW3 1161   5.174   3.576   5.945  0.0196  1.3780  0.0201
  347SOL    MW4 1162   5.180   3.536   5.868 -0.4466 -0.3440  0.4017
  348SOL     OW 1163   5.778   1.852   4.540 -0.5583  0.0055 -0.4138
  348SOL    HW2 1164   5.744   1.932   4.500 -2.5576  0.4331  1.9403
  348SOL    HW3 1165   5.718   1.783   4.510  0.3497 -0.4037 -1.3403
  348SOL    MW4 1166   5.765   1.853   4.530  0.0781 -0.2286  0.3093
  349SOL     OW 1167   5.309   6.156   6.142 -0.1147 -0.1549  0.2773
  349SOL    HW2 1168   5.251   6.081   6.129 -0.4919  0.4490 -2.1354
  349SOL    HW3 1169   5.397   6.121   6.127 -0.0982 -0.4775  1.0698
  349SOL    MW4 1170   5.313   6.141   6.138  0.1786 -0.4937  0.1963
  350SOL     OW 1171   3.689   1.366   0.699 -0.4000  0.1182 -0.9979
  350SOL    HW2 1172   3.691   1.456   0.667 -1.3909  1.6277  2.7043
  350SOL    HW3 1173   3.777   1.352   0.736  0.0199 -0.8035 -2.2687
  350SOL    MW4 1174   3.701   1.376   0.700 -0.4573  0.0381  0.0039
  351SOL     OW 1175   1.096   1.031   0.301 -0.6088 -0.2921 -0.0567
  351SOL    HW2 1176   1.040   0.955   0.320 -0.7220  0.1476  1.4790
  351SOL    HW3 1177   1.184   1.003   0.326 -0.8256  0.4419  1.6511
  351SOL    MW4 1178   1.100   1.017   0.307 -0.4349  0.2144  0.4112
  352SOL     OW 1179   3.618   4.823   5.189 -0.8272  0.9382 -0.1862
  352SOL    HW2 1180   3.683   4.883   5.153  0.7418  0.4879  1.6993
  352SOL    HW3 1181   3.630   4.742   5.140  0.4962  0.6786  0.5131
  352SOL    MW4 1182   3.628   4.820   5.178  0.2146 -0.2216 -0.1417
  353SOL     OW 1183   3.419   3.060   0.770  0.0490 -0.2210  0.5955
  353SOL    HW2 1184   3.433   2.970   0.800  1.4944  0.2472  1.4652
  353SOL    HW3 1185   3.374   3.103   0.843  0.3277  0.0211  0.6266
  353SOL    MW4 1186   3.415   3.054   0.783  0.4028  0.0521 -0.3657
  354SOL     OW 1187   4.598   4.928   3.031 -0.5168 -0.0632 -0.5107
  354SOL    HW2 1188   4.613   5.010   2.984 -0.6058 -0.7596 -1.7945
  354SOL    HW3 1189   4.557   4.870   2.966 -0.8809 -0.9724  0.5024
  354SOL    MW4 1190   4.595   4.931   3.016 -0.1937  1.0523 -0.0702
  355SOL     OW 1191   3.134   0.770   0.112  0.6757  0.4387 -1.0722
  355SOL    HW2 1192   3.103   0.861   0.109 -2.0518 -0.4220 -2.4108
  355SOL    HW3 1193   3.218   0.771   0.067  0.0850  2.0948 -2.2219
  355SOL    MW4 1194   3.141   0.782   0.106 -0.0474  0.3151  0.0526
  356SOL     OW 1195   3.382   4.271   0.035  0.2841  0.5020 -0.2547
  356SOL    HW2 1196   3.310   4.333   0.022  0.0201  0.3943  0.6119
  356SOL    HW3 1197   3.459   4.326   0.048  0.2485  0.6291 -0.5758
  356SOL    MW4 1198   3.383   4.287   0.035  0.1870 -0.2993  0.5195
  357SOL     OW 1199   4.058   1.281   5.532  0.1835  0.0636  0.5179
  357SOL    HW2 1200   4.017   1.366   5.548 -1.3522 -0.2386 -1.4370
  357SOL    HW3 1201   4.143   1.301   5.494 -1.5570  0.8882 -3.3521
  357SOL    MW4 1202   4.063   1.295   5.529  0.1508  0.4144  0.5915
  358SOL     OW 1203   2.154   1.894   6.306 -0.2136  0.1754  0.0357
  358SOL    HW2 1204   2.105   1.870   6.385 -1.1946  0.3051 -0.5172
  358SOL    HW3 1205   2.113   1.844   6.236 -0.0015  0.8117 -0.5545
  358SOL    MW4 1206   2.142   1.885   6.307 -0.4759  0.1446 -0.7336
  359SOL     OW 1207   5.807   0.400   3.240 -0.0926  0.2098 -0.0733
  359SOL    HW2 1208   5.884   0.426   3.190 -0.7862 -0.6180 -1.6444
  359SOL    HW3 1209   5.801   0.464   3.311  3.2753 -0.9804  1.4521
  359SOL    MW4 1210   5.816   0.412   3.243  0.1460 -0.4751  0.1533
  360SOL     OW 1211   0.095   5.344   6.250  0.0123  0.1768 -0.3001
  360SOL    HW2 1212   0.044   5.275   6.207 -0.5162  2.0095 -2.8814
  360SOL    HW3 1213   0.030   5.396   6.297  0.3814 -0.8757  1.4560
  360SOL    MW4 1214   0.080   5.342   6.250  0.2010 -0.2112 -0.2102
  361SOL     OW 1215   6.153   1.277   1.813  0.1327 -0.3018 -0.4517
  361SOL    HW2 1216   6.140   1.260   1.720 -0.2511  0.1236 -0.4809
  361SOL    HW3 1217   6.208   1.355   1.816  0.1688 -0.3317 -0.3217
  361SOL    MW4 1218   6.159   1.285   1.802  0.0683  0.1416  0.0579
  362SOL     OW 1219   4.039   1.515   2.028  0.0501 -0.1247  0.4458
  362SOL    HW2 1220   4.072   1.435   2.068 -0.4298 -1.5456 -1.8162
  362SOL    HW3 1221   3.999   1.564   2.100 -0.7274 -2.4928  1.7183
  362SOL    MW4 1222   4.038   1.511   2.042  0.0143 -0.0448 -0.4931
  363SOL     OW 1223   4.807   3.897   3.872  0.1298  0.1486  0.4897
  363SOL    HW2 1224   4.838   3.982   3.903  0.4478 -0.2468  1.2948
  363SOL    HW3 1225   4.747   3.918   3.800  1.8834  0.9680 -0.8231
  363SOL    MW4 1226   4.803   3.911   3.867  0.4629 -0.1393 -0.2455
  364SOL     OW 1227   1.952   5.796  -0.006 -0.2725 -0.1753 -0.0733
  364SOL    HW2 1228   1.958   5.707  -0.040  2.6468 -0.5023  1.0696
  364SOL    HW3 1229   1.908   5.787   0.079 -0.6843 -0.3892 -0.3046
  364SOL    MW4 1230   1.947   5.783   0.001 -0.0929  0.0592 -0.0510
  365SOL     OW 1231   2.906   3.093   1.252 -0.5372 -0.1769  0.2956
  365SOL    HW2 1232   2.926   3.177   1.294 -0.0465 -0.3746  0.4583
  365SOL    HW3 1233   2.840   3.115   1.187 -3.8384 -0.3175  3.2680
  365SOL    MW4 1234   2.900   3.107   1.249  0.0857 -0.8179  0.1692
  366SOL     OW 1235   3.753   2.180   6.061  0.2335 -0.1873  0.1631
  366SOL    HW2 1236   3.841   2.216   6.058  0.5097 -0.8385  0.2960
  366SOL    HW3 1237   3.698   2.252   6.092  0.5843  0.4647 -0.6864
  366SOL    MW4 1238   3.757   2.195   6.065 -0.1206  0.1461  0.1274
  367SOL     OW 1239   0.060   2.004   1.983  0.7741 -0.7730 -0.4438
  367SOL    HW2 1240   0.124   2.060   1.939 -1.2611  0.2293 -2.3365
  367SOL    HW3 1241   0.105   1.920   1.993  3.2521  0.5634  0.7389
  367SOL    MW4 1242   0.075   2.000   1.979  0.4313  0.0858 -0.2274
  368SOL     OW 1243   1.988   5.779   1.211 -0.2958  0.5049  0.1348
  368SOL    HW2 1244   2.023   5.833   1.282 -3.0382  1.0126  1.2091
  368SOL    HW3 1245   2.028   5.815   1.132  2.4217  0.2632  1.2987
  368SOL    MW4 1246   1.998   5.791   1.210 -0.1773 -0.2622  0.2768
  369SOL     OW 1247   4.531   2.337   1.285 -0.4897 -0.1873  0.4751
  369SOL    HW2 1248   4.568   2.387   1.357  0.8530  0.9968 -0.9625
  369SOL    HW3 1249   4.442   2.370   1.276 -0.2173  0.6211  0.7296
  369SOL    MW4 1250   4.524   2.348   1.293 -0.1504 -0.9310 -0.0992
  370SOL     OW 1251   1.125   1.303   0.277  0.3820 -0.1367 -0.4539
  370SOL    HW2 1252   1.129   1.207   0.279  2.8768 -0.1299 -1.0726
  370SOL    HW3 1253   1.092   1.324   0.190 -2.6863 -0.3566  0.5449
  370SOL    MW4 1254   1.121   1.293   0.266  0.3920  0.5133 -0.1107
  371SOL     OW 1255   2.358   1.753  -0.009  0.1771  0.0270  0.0086
  371SOL    HW2 1256   2.306   1.822  -0.050  0.8079  0.2377 -0.4607
  371SOL    HW3 1257   2.355   1.772   0.085 -0.6511 -0.0147 -0.0067
  371SOL    MW4 1258   2.351   1.764  -0.002 -0.2965 -0.3870  0.0180
  372SOL     OW 1259   3.633   5.988   2.227  0.3277  0.4686 -0.2584
  372SOL    HW2 1260   3.686   6.044   2.283 -1.2637  1.2999  0.4912
  372SOL    HW3 1261   3.692   5.917   2.201  1.2453  0.2369  2.1781
  372SOL    MW4 1262   3.647   5.986   2.231  0.0026 -0.2683 -0.7555
  373SOL     OW 1263   4.138   2.371   1.553  0.0678  0.2848 -0.0298
  373SOL    HW2 1264   4.181   2.368   1.638  1.1993 -1.2989 -0.6223
  373SOL    HW3 1265   4.170   2.451   1.512  0.6321  0.3150  0.4625
  373SOL    MW4 1266   4.148   2.381   1.558 -0.0021 -0.0907  0.0303
  374SOL     OW 1267   5.673   2.232   4.211  0.4037  0.1895 -0.1550
  374SOL    HW2 1268   5.700   2.162   4.151 -0.3166 -0.9145  0.7702
  374SOL    HW3 1269   5.595   2.269   4.169  1.5024  1.3358 -1.2844
  374SOL    MW4 1270   5.666   2.227   4.197  0.1887 -0.4864  0.7340
  375SOL     OW 1271   1.732   1.678   0.440  0.2888 -0.6020  0.2951
  375SOL    HW2 1272   1.710   1.692   0.348  1.6778 -0.7811 -0.0886
  375SOL    HW3 1273   1.680   1.744   0.487 -1.4784 -1.3960 -0.4491
  375SOL    MW4 1274   1.722   1.689   0.434 -0.2279  0.1468  0.0140
  376SOL     OW 1275   3.111   1.038   3.377 -0.2771 -0.5105 -0.3219
  376SOL    HW2 1276   3.161   1.060   3.455  0.0002 -2.5496  0.1085
  376SOL    HW3 1277   3.025   1.010   3.410 -0.0333 -1.7426 -0.7127
  376SOL    MW4 1278   3.106   1.037   3.392  0.8251  0.0463 -0.5424
  377SOL     OW 1279   0.675   5.711   3.217 -0.1762 -0.2593  0.4228
  377SOL    HW2 1280   0.670   5.796   3.261 -0.2456 -0.1494  0.2054
  377SOL    HW3 1281   0.589   5.701   3.174  0.2296  0.0799 -0.5019
  377SOL    MW4 1282   0.663   5.721   3.217 -0.5450 -0.4157  0.2708
  378SOL     OW 1283   5.976   1.622   4.482 -0.4256 -0.1634  0.2370
  378SOL    HW2 1284   5.947   1.711   4.504 -0.0311 -0.2237  1.0166
  378SOL    HW3 1285   5.897   1.569   4.491 -0.6446  0.0897 -0.1487
  378SOL    MW4 1286   5.962   1.627   4.486  0.2788 -0.2812 -0.4017
  379SOL     OW 1287   5.985   6.036   4.544  0.2739 -0.0839  0.0197
  379SOL    HW2 1288   6.026   5.950   4.549 -1.0716 -0.6963  1.0683
  379SOL    HW3 1289   5.901   6.026   4.589  0.0354  1.7498  0.0719
  379SOL    MW4 1290   5.979   6.024   4.551 -1.1496 -0.0155 -0.7268
  380SOL     OW 1291   0.521   2.347   2.463  0.2996  0.2291  0.3632
  380SOL    HW2 1292   0.532   2.272   2.405 -2.7337 -0.3960  0.4273
  380SOL    HW3 1293   0.433   2.380   2.443  0.7038  2.4185  1.8854
  380SOL    MW4 1294   0.511   2.341   2.453  0.3329  0.1432 -0.1883
  381SOL     OW 1295   4.182   1.589   4.974  0.2962 -0.0083  0.0810
  381SOL    HW2 1296   4.133   1.670   4.965  2.4199  1.7090  2.3438
  381SOL    HW3 1297   4.184   1.572   5.069  3.5742 -0.1583  0.1150
  381SOL    MW4 1298   4.176   1.597   4.986  0.1385  0.6164 -0.1079
  382SOL     OW 1299   5.430   4.572   5.829  0.4385 -0.7096 -0.3266
  382SOL    HW2 1300   5.420   4.504   5.896 -0.7831 -2.1436 -1.8862
  382SOL    HW3 1301   5.349   4.623   5.835  0.7353 -0.2559 -0.1113
  382SOL    MW4 1302   5.418   4.569   5.839  0.1883 -0.3794 -0.0960
  383SOL     OW 1303   0.556   1.892   0.553 -0.0834  1.1580 -0.0553
  383SOL    HW2 1304   0.646   1.867   0.534 -0.4841 -0.4333 -0.0890
  383SOL    HW3 1305   0.506   1.812   0.536 -1.1681  1.2360  2.4219
  383SOL    MW4 1306   0.561   1.878   0.548  0.0698  0.0865 -0.8896
  384SOL     OW 1307   5.750   2.796   6.375 -0.4319  0.7563 -0.4821
  384SOL    HW2 1308   5.740   2.885   6.408 -0.3885  0.2075  1.0651
  384SOL    HW3 1309   5.662   2.759   6.376 -0.4200  0.7069 -0.9246
  384SOL    MW4 1310   5.737   2.803   6.379 -0.2096 -0.9460 -0.3064
  385SOL     OW 1311   4.245   2.367   6.257  0.1628  0.1964  0.3009
  385SOL    HW2 1312   4.289   2.344   6.339 -0.6347  0.1036  0.7104
  385SOL    HW3 1313   4.220   2.459   6.267  1.0066  0.5074 -0.2796
  385SOL    MW4 1314   4.247   2.376   6.269 -0.4434  0.1127  0.1615
  386SOL     OW 1315   4.540   4.169   2.079  0.1239  0.0070 -0.0472
  386SOL    HW2 1316   4.468   4.158   2.016  1.0700 -2.1297 -0.8561
  386SOL    HW3 1317   4.501   4.150   2.164 -0.2694 -1.2983 -0.4957
  386SOL    MW4 1318   4.525   4.165   2.082  0.0820  0.1139  0.1686
  387SOL     OW 1319   4.840   2.662   4.995 -0.1924 -0.4507  0.2653
  387SOL    HW2 1320   4.770   2.722   4.973 -0.7743 -0.6338  1.5426
  387SOL    HW3 1321   4.848   2.604   4.918 -0.5629  0.3607 -0.3933
  387SOL    MW4 1322   4.832   2.662   4.982 -0.0186 -0.0266  0.3786
  388SOL     OW 1323   0.541   2.896   3.333 -0.0347  0.2041  0.2040
  388SOL    HW2 1324   0.471   2.869   3.274 -1.4069  3.3059  0.1832
  388SOL    HW3 1325   0.600   2.948   3.278  1.4958 -1.0625  0.5673
  388SOL    MW4 1326   0.540   2.900   3.318  0.0447 -0.2867 -0.0880
  389SOL     OW 1327   4.510   0.590   2.857 -0.5112 -0.3416  0.3777
  389SOL    HW2 1328   4.540   0.659   2.916  1.2007  1.0247 -1.9049
  389SOL    HW3 1329   4.504   0.632   2.772 -0.2683 -2.8157 -0.9684
  389SOL    MW4 1330   4.513   0.604   2.854  0.2707  0.4102  0.1626
  390SOL     OW 1331   0.755   2.515   0.616 -0.0861 -0.0201  0.5955
  390SOL    HW2 1332   0.808   2.551   0.687  0.9228  0.6339 -0.4581
  390SOL    HW3 1333   0.810   2.523   0.538 -2.3378  2.3124 -0.9091
  390SOL    MW4 1334   0.769   2.521   0.615 -0.0210  0.5494  0.7566
  391SOL     OW 1335   3.899   3.086   0.212 -0.4408  0.0441  0.4019
  391SOL    HW2 1336   3.951   3.053   0.139  0.6135  1.0957  0.6435
  391SOL    HW3 1337   3.861   3.168   0.179 -1.4305 -0.3770  0.4514
  391SOL    MW4 1338   3.901   3.093   0.198  0.1078 -0.5033 -0.0398
  392SOL     OW 1339   3.562   3.493   2.955  0.3027 -0.2680  0.5089
  392SOL    HW2 1340   3.597   3.481   2.866 -0.2449 -0.5412  0.3272
  392SOL    HW3 1341   3.636   3.527   3.005  1.7824 -3.5262  0.8579
  392SOL    MW4 1342   3.576   3.496   2.950 -0.5659 -0.3649 -0.2364
  393SOL     OW 1343   2.084   1.459   2.214  0.0025  0.0614  0.6647
  393SOL    HW2 1344   2.177   1.473   2.232  0.0317  1.0541 -0.1450
  393SOL    HW3 1345   2.040   1.528   2.265 -0.3924 -1.0139  1.8417
  393SOL    MW4 1346   2.091   1.470   2.223 -0.6231 -0.3318 -1.0569
  394SOL     OW 1347   0.092   5.105   3.459  0.3085  0.2122 -0.0596
  394SOL    HW2 1348   0.183   5.078   3.471  0.4304  0.7330  0.1728
  394SOL    HW3 1349   0.057   5.111   3.548  0.7165  2.3281 -0.0065
  394SOL    MW4 1350   0.100   5.102   3.472  0.0438 -0.0939 -0.4736
  395SOL     OW 1351   5.486   6.351   5.827  0.2965  0.1462 -0.2473
  395SOL    HW2 1352   5.501   6.277   5.886  1.9099  1.3691  0.9855
  395SOL    HW3 1353   5.553   6.415   5.852  0.0507  1.3389 -2.4283
  395SOL    MW4 1354   5.496   6.350   5.838  0.1351  0.2447  0.2418
  396SOL     OW 1355   4.589   6.202   3.040 -0.2900 -0.2001  0.0352
  396SOL    HW2 1356   4.666   6.180   2.988 -0.6734  0.6933 -0.9471
  396SOL    HW3 1357   4.558   6.118   3.075  0.3339 -0.7308 -0.6683
  396SOL    MW4 1358   4.595   6.188   3.038 -0.1183 -0.1571 -0.2977
  397SOL     OW 1359   2.813   3.515   3.816 -0.0915 -0.4212  0.0025
  397SOL    HW2 1360   2.820   3.520   3.721 -0.4280 -0.6369 -0.0345
  397SOL    HW3 1361   2.875   3.447   3.841 -0.0239 -0.3856 -0.0686
  397SOL    MW4 1362   2.822   3.507   3.807 -0.4420  0.3603 -0.7137
  398SOL     OW 1363   2.547   3.172   6.086 -0.5912  0.2294 -0.2615
  398SOL    HW2 1364   2.627   3.139   6.046 -0.5978 -1.2640  0.8748
  398SOL    HW3 1365   2.480   3.162   6.018 -0.3273 -0.9756 -0.3641
  398SOL    MW4 1366   2.549   3.167   6.072 -0.2869 -0.2346 -0.3132
  399SOL     OW 1367   5.036   5.487   6.099 -0.3128 -0.4101 -0.2421
  399SOL    HW2 1368   5.087   5.514   6.176 -1.2347  0.2132  0.1695
  399SOL    HW3 1369   4.962   5.438   6.134 -0.3598 -0.7364 -0.7824
  399SOL    MW4 1370   5.033   5.484   6.114 -0.0797 -0.5402 -0.1164
  400SOL     OW 1371   0.604   4.040   6.092  0.1813 -0.1023  0.2576
  400SOL    HW2 1372   0.670   4.071   6.154  0.1782 -0.3506  0.3840
  400SOL    HW3 1373   0.582   3.952   6.122  1.0682 -0.7120 -0.8103
  400SOL    MW4 1374   0.610   4.033   6.104 -0.7366  0.1153  0.1146
  401SOL     OW 1375   6.207   4.771   6.338 -1.1632 -0.1668 -0.9708
  401SOL    HW2 1376   6.166   4.699   6.291  1.8311 -2.1854 -0.6861
  401SOL    HW3 1377   6.267   4.811   6.276 -1.4639  0.9843 -0.5678
  401SOL    MW4 1378   6.209   4.767   6.324 -0.4949  0.2152  0.1629
  402SOL     OW 1379   3.686   1.883   1.292  0.2320  0.5223  0.2001
  402SOL    HW2 1380   3.760   1.940   1.275 -0.6753  1.1499 -2.0141
  402SOL    HW3 1381   3.713   1.797   1.257  1.8043 -0.7285  3.9985
  402SOL    MW4 1382   3.699   1.879   1.285 -0.3161 -0.3547 -0.0440
  403SOL     OW 1383   1.784   0.697   1.446 -0.0647 -0.0247  0.8888
  403SOL    HW2 1384   1.800   0.782   1.404  0.2628 -0.8314 -0.6568
  403SOL    HW3 1385   1.697   0.707   1.487  0.1599  1.1830  1.1098
  403SOL    MW4 1386   1.774   0.710   1.446  0.2550 -0.1686  0.2702
  404SOL     OW 1387   1.428   1.556   5.013 -0.2470  0.1860  0.3223
  404SOL    HW2 1388   1.453   1.503   4.938  0.1004  0.4656  0.2402
  404SOL    HW3 1389   1.417   1.493   5.085  0.0970 -0.0004  0.2081
  404SOL    MW4 1390   1.430   1.540   5.013 -0.1414 -0.3560 -0.6908
  405SOL     OW 1391   1.273   5.718   5.965  0.2385 -0.5733  0.3682
  405SOL    HW2 1392   1.177   5.721   5.969  0.2098  0.0306 -0.4512
  405SOL    HW3 1393   1.302   5.796   6.012  0.2574  0.1525 -0.7982
  405SOL    MW4 1394   1.264   5.729   5.972  0.1351  0.0809 -0.0295
  406SOL     OW 1395   0.469   2.870   0.321 -0.3072 -0.7523 -0.1203
  406SOL    HW2 1396   0.455   2.839   0.232 -0.5237  0.7705 -0.6512
  406SOL    HW3 1397   0.564   2.868   0.333 -0.3177 -1.7001 -0.0773
  406SOL    MW4 1398   0.480   2.866   0.311  0.8684 -0.1843 -0.1132
  407SOL     OW 1399   4.759   4.829   1.635  0.0238 -0.2970 -0.1242
  407SOL    HW2 1400   4.695   4.786   1.692 -1.6268 -0.6603 -2.1661
  407SOL    HW3 1401   4.712   4.847   1.554  2.1998  0.4903 -1.3030
  407SOL    MW4 1402   4.744   4.826   1.632  0.3784  0.1279 -0.5665
  408SOL     OW 1403   4.421   3.155   0.983 -0.0516  0.0437 -0.2799
  408SOL    HW2 1404   4.516   3.156   0.987  0.0399  2.3726 -1.2872
  408SOL    HW3 1405   4.399   3.075   0.935  1.2415 -1.3733  1.3421
  408SOL    MW4 1406   4.431   3.144   0.977  0.1036 -0.1261 -0.1110
  409SOL     OW 1407   0.938   5.644   2.155 -0.5623  0.0459  0.1081
  409SOL    HW2 1408   0.886   5.711   2.112 -1.0382 -0.6926 -0.4825
  409SOL    HW3 1409   0.978   5.689   2.230 -2.0015  0.6387  0.5450
  409SOL    MW4 1410   0.937   5.659   2.160 -0.0954  0.2242 -0.4920
  410SOL     OW 1411   4.252   6.399   0.173 -0.1374 -0.4728  0.0875
  410SOL    HW2 1412   4.163   6.364   0.175 -0.0465 -0.7969  2.8457
  410SOL    HW3 1413   4.309   6.322   0.182  0.4521 -0.2509 -1.4300
  410SOL    MW4 1414   4.248   6.384   0.175 -0.5985  0.6337  0.4122
  411SOL     OW 1415   2.359   5.787   4.068 -0.2981  0.0754  0.0698
  411SOL    HW2 1416   2.268   5.810   4.053 -1.1525 -1.2000  2.5682
  411SOL    HW3 1417   2.410   5.859   4.032 -2.3202  1.0287 -0.9630
  411SOL    MW4 1418   2.354   5.799   4.062 -0.4001  0.0711  0.3655
  412SOL     OW 1419   4.378   6.066   3.801 -0.1115  0.0162 -0.1663
  412SOL    HW2 1420   4.325   6.011   3.743 -1.7743  0.4301  0.8925
  412SOL    HW3 1421   4.355   6.156   3.776 -1.6754  0.2132  1.7878
  412SOL    MW4 1422   4.368   6.071   3.790 -0.4773  0.0904  0.0971
  413SOL     OW 1423   0.997   5.303   0.730  0.0964  0.2138  0.7869
  413SOL    HW2 1424   0.970   5.354   0.653 -0.5201  2.0139  2.1293
  413SOL    HW3 1425   0.915   5.270   0.767  0.1853  0.9182  1.6687
  413SOL    MW4 1426   0.983   5.306   0.725  0.3223  0.1352 -0.0163
  414SOL     OW 1427   6.366   4.308   4.510  0.4250 -0.1331 -0.0269
  414SOL    HW2 1428   6.378   4.346   4.597 -0.1578 -1.9402  0.8780
  414SOL    HW3 1429   6.290   4.354   4.475  0.3020  0.1897  0.6427
  414SOL    MW4 1430   6.358   4.319   4.517  0.0565 -0.1414  0.8194
  415SOL     OW 1431   3.732   2.571   5.418  0.3217 -0.3914  0.5532
  415SOL    HW2 1432   3.737   2.523   5.336 -0.6900  0.8129 -0.2527
  415SOL    HW3 1433   3.763   2.509   5.485  1.1627 -1.3857 -0.7160
  415SOL    MW4 1434   3.737   2.557   5.416 -0.1280  0.8367 -0.1373
  416SOL     OW 1435   5.381   0.729   5.186  0.0675  0.5888  0.0039
  416SOL    HW2 1436   5.348   0.726   5.276  0.2817 -0.6743  0.0593
  416SOL    HW3 1437   5.321   0.672   5.137  1.8557 -1.4377  0.0312
  416SOL    MW4 1438   5.368   0.721   5.191 -0.5100 -0.5341  0.0932
  417SOL     OW 1439   5.202   4.134   1.810 -0.4342 -0.0993  0.2019
  417SOL    HW2 1440   5.154   4.199   1.860 -1.3232 -0.3524 -0.2874
  417SOL    HW3 1441   5.208   4.171   1.722 -0.9241 -0.6524 -0.0736
  417SOL    MW4 1442   5.196   4.147   1.805 -0.8980  0.0291 -0.4254
  418SOL     OW 1443   6.172   0.911   2.824  0.7333 -0.6248 -0.5643
  418SOL    HW2 1444   6.198   0.835   2.772 -1.7965 -1.5076 -0.6623
  418SOL    HW3 1445   6.198   0.986   2.771  1.1589 -1.4417 -1.5622
  418SOL    MW4 1446   6.179   0.911   2.810  0.5656  0.4849 -0.7435
  419SOL     OW 1447   4.267   6.099   2.932 -0.3853  0.4802  0.1783
  419SOL    HW2 1448   4.287   6.187   2.966  0.2609  0.7331 -0.8195
  419SOL    HW3 1449   4.284   6.105   2.838 -1.9641 -0.2548 -0.1950
  419SOL    MW4 1450   4.272   6.111   2.924  0.9801 -0.3744 -0.0368
  420SOL     OW 1451   5.239   2.591   4.495  0.1927 -0.0143 -0.1953
  420SOL    HW2 1452   5.334   2.598   4.503  0.1206 -0.5339  1.3351
  420SOL    HW3 1453   5.210   2.681   4.479  0.7617  0.5080  1.5492
  420SOL    MW4 1454   5.248   2.604   4.494 -0.0000 -0.5667  0.2125
  421SOL     OW 1455   1.272   0.315   3.095  0.0737 -0.3134 -0.1771
  421SOL    HW2 1456   1.245   0.370   3.022  1.4634  0.5025 -0.1105
  421SOL    HW3 1457   1.190   0.284   3.133 -0.7685  1.7703 -0.1557
  421SOL    MW4 1458   1.258   0.318   3.090 -0.1351 -0.1681  0.4400
  422SOL     OW 1459   5.624   4.523   3.485 -0.5817  0.0069 -0.0155
  422SOL    HW2 1460   5.531   4.516   3.462 -0.4107 -0.9148 -0.4929
  422SOL    HW3 1461   5.633   4.610   3.523 -1.0212  1.4684 -2.9582
  422SOL    MW4 1462   5.613   4.534   3.487  0.8599  0.1395 -0.0894
  423SOL     OW 1463   3.978   0.550   4.504  0.5362  0.7295  0.1502
  423SOL    HW2 1464   3.999   0.561   4.597  1.1002 -1.0250  0.2563
  423SOL    HW3 1465   3.882   0.553   4.501  0.5439  2.0682  0.5888
  423SOL    MW4 1466   3.968   0.552   4.516 -0.8459 -0.1597  0.4806
  424SOL     OW 1467   5.757   4.957   4.120 -0.7799 -0.3370 -0.2026
  424SOL    HW2 1468   5.699   5.020   4.162  1.5590  2.3299 -0.6664
  424SOL    HW3 1469   5.799   4.911   4.193 -1.6390 -0.5538  0.1707
  424SOL    MW4 1470   5.755   4.959   4.135  0.8083  0.1478  0.0290
  425SOL     OW 1471   1.973   5.494   1.077  0.2234 -0.4175  0.6984
  425SOL    HW2 1472   2.003   5.581   1.104 -0.2371  0.4023 -1.2133
  425SOL    HW3 1473   1.878   5.496   1.095  0.6330 -1.7343  3.5334
  425SOL    MW4 1474   1.964   5.506   1.083  0.2583  0.5034  0.4988
  426SOL     OW 1475   6.019   4.805   2.207 -0.6621  0.3271 -0.2908
  426SOL    HW2 1476   6.104   4.781   2.244 -0.6823  0.6495 -0.0346
  426SOL    HW3 1477   6.040   4.854   2.128 -0.5737  1.5793  0.4736
  426SOL    MW4 1478   6.033   4.808   2.202 -0.1840 -0.6261 -0.2494
  427SOL     OW 1479   2.099   5.743   1.672 -0.3579 -0.0623  0.0490
  427SOL    HW2 1480   2.019   5.697   1.647 -0.3426 -0.9054  1.4591
  427SOL    HW3 1481   2.070   5.828   1.703 -0.9924 -1.0456  2.4106
  427SOL    MW4 1482   2.085   5.748   1.673 -0.1358 -0.2587 -0.6253
  428SOL     OW 1483   3.222   2.508   5.071  0.2532 -0.0568  0.6184
  428SOL    HW2 1484   3.171   2.438   5.030  0.2152 -0.1607  0.8426
  428SOL    HW3 1485   3.278   2.463   5.134  2.3929 -0.2504 -1.3024
  428SOL    MW4 1486   3.223   2.493   5.074 -0.4215 -0.2844 -0.3417
  429SOL     OW 1487   0.040   5.909   5.626 -0.1312 -0.2969  0.1670
  429SOL    HW2 1488  -0.020   5.977   5.596 -0.2124 -0.4841 -0.0994
  429SOL    HW3 1489   0.101   5.955   5.685  0.1952  0.1350 -0.4905
  429SOL    MW4 1490   0.040   5.924   5.630  0.2038 -0.3771  0.7269
  430SOL     OW 1491   2.264   6.401   3.300 -0.1545  0.1120 -0.4499
  430SOL    HW2 1492   2.208   6.371   3.228 -0.7261 -0.9901  0.4391
  430SOL    HW3 1493   2.298   6.485   3.269 -1.7930  0.5148 -1.2781
  430SOL    MW4 1494   2.261   6.408   3.286 -0.7418 -0.2204 -0.0025
  431SOL     OW 1495   0.515   4.046   2.497 -0.0381 -0.4216  0.1108
  431SOL    HW2 1496   0.475   4.056   2.410 -1.1747 -2.6226  0.3039
  431SOL    HW3 1497   0.593   3.992   2.481  1.1508  1.1905  0.1843
  431SOL    MW4 1498   0.520   4.040   2.483 -0.1196  0.5200 -0.5051
  432SOL     OW 1499   0.185   0.161   5.470 -0.1468  0.2657  0.8353
  432SOL    HW2 1500   0.139   0.211   5.403 -0.5037 -1.5435 -0.3394
  432SOL    HW3 1501   0.278   0.175   5.452 -0.1942 -1.4426 -1.1286
  432SOL    MW4 1502   0.191   0.169   5.459 -0.9777 -0.4031  0.3103
  433SOL     OW 1503   2.632   4.162   4.006 -0.6809  0.1373  0.3357
  433SOL    HW2 1504   2.672   4.096   3.949 -2.4283  0.2193 -1.0507
  433SOL    HW3 1505   2.704   4.220   4.029  0.4127 -0.8837 -0.3842
  433SOL    MW4 1506   2.647   4.161   4.002 -0.4948  0.0132  0.4596
  434SOL     OW 1507   4.479   3.758   4.960 -0.1855 -0.1050  0.2362
  434SOL    HW2 1508   4.489   3.706   5.040  0.2778 -1.6191 -0.7706
  434SOL    HW3 1509   4.401   3.810   4.975 -2.1935 -2.9185  0.3511
  434SOL    MW4 1510   4.470   3.758   4.973 -0.2090  0.2032 -0.2885
  435SOL     OW 1511   0.126   5.407   0.131 -0.0774 -0.2765  0.1933
  435SOL    HW2 1512   0.134   5.352   0.053 -0.9834 -0.6796  0.3737
  435SOL    HW3 1513   0.038   5.388   0.165  0.4006 -0.3227  1.4649
  435SOL    MW4 1514   0.115   5.397   0.125  0.3160  0.1667  0.6621
  436SOL     OW 1515   3.315   2.126   6.252  0.3072  0.0177 -0.4879
  436SOL    HW2 1516   3.404   2.162   6.257  0.6291 -0.4222 -2.3910
  436SOL    HW3 1517   3.262   2.190   6.300  1.4797  0.8341 -0.2021
  436SOL    MW4 1518   3.320   2.140   6.259  0.0464 -0.1043 -0.1239
  437SOL     OW 1519   1.171   4.313   0.630  0.3722  0.1352  0.5425
  437SOL    HW2 1520   1.242   4.256   0.660  0.5108  0.1246  0.1928
  437SOL    HW3 1521   1.208   4.363   0.558 -0.0559 -0.0752  0.1628
  437SOL    MW4 1522   1.185   4.312   0.625  0.6043 -0.3585  0.3799
  438SOL     OW 1523   4.367   3.549   4.814 -0.2900 -0.5054  0.5761
  438SOL    HW2 1524   4.380   3.573   4.722 -0.3103 -0.6666  0.5320
  438SOL    HW3 1525   4.409   3.620   4.863  0.1401 -0.6629  0.4411
  438SOL    MW4 1526   4.374   3.562   4.808 -0.5781 -0.0854 -0.3444
  439SOL     OW 1527   6.186   0.970   1.255 -0.2105 -0.2380 -0.1133
  439SOL    HW2 1528   6.154   0.934   1.338  1.8164 -1.1244  0.3317
  439SOL    HW3 1529   6.114   1.024   1.224 -0.8324  0.5844  2.4829
  439SOL    MW4 1530   6.172   0.972   1.262 -0.0682 -0.1854  0.1770
  440SOL     OW 1531   3.485   4.418   6.048 -0.0330 -0.3694  0.2243
  440SOL    HW2 1532   3.390   4.433   6.056 -0.3659 -1.8700 -0.4493
  440SOL    HW3 1533   3.524   4.478   6.110 -1.4981 -0.4777  1.3176
  440SOL    MW4 1534   3.477   4.428   6.057  0.3682 -0.1044  0.8285
  441SOL     OW 1535   0.597   0.454   5.493 -0.2472  0.3216 -1.0017
  441SOL    HW2 1536   0.543   0.518   5.538  0.3938  0.3534 -0.2661
  441SOL    HW3 1537   0.670   0.438   5.552  1.0490  0.9739 -2.3815
  441SOL    MW4 1538   0.599   0.460   5.507 -0.0750  0.1305 -0.3145
  442SOL     OW 1539   2.062   3.161   0.396 -0.4280  0.3433 -0.4979
  442SOL    HW2 1540   2.157   3.153   0.398 -0.2742  1.9288  0.3139
  442SOL    HW3 1541   2.030   3.079   0.434  0.6647  0.4113  0.6433
  442SOL    MW4 1542   2.070   3.149   0.401  0.1344  0.3399 -0.3697
  443SOL     OW 1543   3.408   0.803   2.422  0.2088  0.2459 -0.3027
  443SOL    HW2 1544   3.364   0.786   2.506  1.2189 -1.1474 -0.0186
  443SOL    HW3 1545   3.501   0.790   2.441  0.5196  0.6296 -1.4801
  443SOL    MW4 1546   3.414   0.799   2.436  0.2262  0.0046  0.4479
  444SOL     OW 1547   2.590   6.334   5.985  0.4376  0.5080  0.5354
  444SOL    HW2 1548   2.672   6.355   6.029 -0.0680  0.6840  1.4167
  444SOL    HW3 1549   2.584   6.397   5.913  0.4643  1.3260  1.2367
  444SOL    MW4 1550   2.600   6.345   5.981 -0.1018 -0.0129 -0.0203
  445SOL     OW 1551   2.784   0.457   2.407 -0.5782 -0.2062 -0.8393
  445SOL    HW2 1552   2.734   0.384   2.370 -0.5236  0.0515 -1.4286
  445SOL    HW3 1553   2.874   0.440   2.381 -0.8484  1.2729 -3.0447
  445SOL    MW4 1554   2.789   0.445   2.399 -0.6172 -0.3616  0.1060
  446SOL     OW 1555   2.174   0.683   6.122 -0.4790 -0.1714  0.1545
  446SOL    HW2 1556   2.239   0.728   6.069  0.2849  0.2761  1.4299
  446SOL    HW3 1557   2.124   0.753   6.165  0.0807 -0.4891  1.3885
  446SOL    MW4 1558   2.176   0.698   6.121 -0.2074  0.2745 -0.7040
  447SOL     OW 1559   6.158   0.258   4.690  0.1540 -0.5559 -0.2044
  447SOL    HW2 1560   6.181   0.189   4.629  3.5793 -0.0458  0.3101
  447SOL    HW3 1561   6.137   0.213   4.772 -1.5526 -1.0854 -0.8897
  447SOL    MW4 1562   6.158   0.243   4.693 -0.1552  0.4562 -0.6523
  448SOL     OW 1563   5.919   0.008   1.669  0.4810 -0.1483  0.3304
  448SOL    HW2 1564   5.932   0.086   1.724  0.1095  0.2304 -0.1186
  448SOL    HW3 1565   5.854   0.034   1.604  0.3272 -0.8449  0.1929
  448SOL    MW4 1566   5.912   0.022   1.668 -0.2577 -0.3695 -0.8162
  449SOL     OW 1567   1.613   2.523   6.073 -0.2059  0.6919  0.0762
  449SOL    HW2 1568   1.699   2.501   6.037 -0.3392 -1.5499  0.9493
  449SOL    HW3 1569   1.551   2.487   6.009 -0.4498 -3.4516  2.2795
  449SOL    MW4 1570   1.616   2.515   6.060  0.0888 -0.1526 -0.2035
  450SOL     OW 1571   5.155   1.294   0.263 -0.7655 -0.5954 -0.1964
  450SOL    HW2 1572   5.143   1.248   0.345 -2.7406 -1.9983 -1.2072
  450SOL    HW3 1573   5.184   1.382   0.289  0.4934 -1.5402  1.8694
  450SOL    MW4 1574   5.157   1.300   0.277 -0.1530 -0.1386  0.0381
  451SOL     OW 1575   5.996   1.440   4.867  0.6139  0.0153  0.1091
  451SOL    HW2 1576   6.081   1.464   4.830  1.4378  0.3894  2.1189
  451SOL    HW3 1577   6.017   1.405   4.953 -1.2239 -0.7410  0.2867
  451SOL    MW4 1578   6.010   1.438   4.873  0.1201 -0.1304  1.0278
  452SOL     OW 1579   1.234   5.225   3.933 -0.4845 -0.3238 -0.1062
  452SOL    HW2 1580   1.173   5.295   3.912 -1.0747 -0.4274  1.1390
  452SOL    HW3 1581   1.231   5.218   4.029  0.4944 -1.2181 -0.1121
  452SOL    MW4 1582   1.226   5.233   3.943 -0.1421  0.1063  0.2350
  453SOL     OW 1583   5.223   5.633   2.573  0.5192 -0.2411 -0.5071
  453SOL    HW2 1584   5.210   5.572   2.501 -1.1596 -0.7259  0.1445
  453SOL    HW3 1585   5.202   5.719   2.536  0.7344 -0.3498 -0.8781
  453SOL    MW4 1586   5.218   5.636   2.559  0.3355 -0.0952 -0.4439
  454SOL     OW 1587   4.111   4.294   1.028  0.3967 -1.1442 -0.5585
  454SOL    HW2 1588   4.036   4.300   0.969 -1.5624 -1.6388  1.7653
  454SOL    HW3 1589   4.075   4.305   1.115  3.1173 -0.9708  0.6491
  454SOL    MW4 1590   4.097   4.296   1.032 -0.0498 -0.3261 -0.4962
  455SOL     OW 1591   2.683   5.024   1.048 -0.1054  0.0049 -0.1321
  455SOL    HW2 1592   2.616   4.987   0.991 -0.3533  0.0391  0.1345
  455SOL    HW3 1593   2.634   5.064   1.120  0.2048 -0.2321  0.2207
  455SOL    MW4 1594   2.668   5.024   1.050  0.0363  0.5460  0.0563
  456SOL     OW 1595   5.650   0.891   1.437  0.0096  0.3210 -0.2759
  456SOL    HW2 1596   5.558   0.865   1.428 -0.0905  0.3227  0.6585
  456SOL    HW3 1597   5.667   0.889   1.531  0.8184  0.8465 -0.3976
  456SOL    MW4 1598   5.640   0.887   1.448  0.1429 -0.0298  0.6433
  457SOL     OW 1599   5.733   3.944   6.338  0.0901  0.5349  0.2458
  457SOL    HW2 1600   5.675   4.019   6.323  0.8505  1.2930  0.9833
  457SOL    HW3 1601   5.822   3.981   6.329  0.4728 -0.5696 -0.7305
  457SOL    MW4 1602   5.737   3.959   6.335  0.1112 -0.6837 -0.0844
  458SOL     OW 1603   5.860   1.349   1.638  0.6114  0.1945  0.1256
  458SOL    HW2 1604   5.935   1.291   1.625  0.9433  1.0074 -1.9841
  458SOL    HW3 1605   5.865   1.373   1.731  2.8679  0.0850  0.0933
  458SOL    MW4 1606   5.870   1.345   1.649  0.4218 -0.1991 -0.5289
  459SOL     OW 1607   5.917   2.688   4.642  0.1093 -0.7654  0.3797
  459SOL    HW2 1608   5.862   2.754   4.600  2.1699  0.0669 -1.2000
  459SOL    HW3 1609   5.988   2.739   4.683 -0.0906 -1.8082  2.1499
  459SOL    MW4 1610   5.919   2.704   4.642  0.2290 -0.2376 -0.3621
  460SOL     OW 1611   3.707   3.086   2.415 -0.4644 -0.1576 -0.4400
  460SOL    HW2 1612   3.758   3.069   2.336 -1.0974 -3.0297 -0.3368
  460SOL    HW3 1613   3.622   3.117   2.384 -0.9625 -1.9592 -0.9996
  460SOL    MW4 1614   3.703   3.088   2.401 -0.6208 -0.0644  0.3340
  461SOL     OW 1615   3.425   3.555   4.070 -0.0896 -0.3587  0.1135
  461SOL    HW2 1616   3.401   3.647   4.084 -0.5649 -0.3004 -0.9247
  461SOL    HW3 1617   3.518   3.557   4.047  0.2286 -0.2813  1.3637
  461SOL    MW4 1618   3.434   3.567   4.069  0.0116 -0.0341 -0.1091
  462SOL     OW 1619   5.938   0.442   5.427 -0.4804  0.1164  0.0665
  462SOL    HW2 1620   5.892   0.482   5.353 -0.7575 -1.3327 -0.5728
  462SOL    HW3 1621   5.912   0.494   5.503 -2.0937  0.1664 -0.4874
  462SOL    MW4 1622   5.929   0.454   5.427 -0.2788 -0.4870 -1.0713
  463SOL     OW 1623   4.280   2.435   1.237  0.0142 -0.5613  0.7655
  463SOL    HW2 1624   4.209   2.371   1.229 -0.7376  0.4543 -1.2165
  463SOL    HW3 1625   4.240   2.508   1.286  0.2043 -0.6631  1.0770
  463SOL    MW4 1626   4.265   2.436   1.243  0.1562  0.3190 -0.7374
  464SOL     OW 1627   2.363   4.648   3.393 -0.4331 -0.8781  0.1927
  464SOL    HW2 1628   2.379   4.730   3.347 -2.0193 -1.4647 -1.5543
  464SOL    HW3 1629   2.434   4.590   3.364 -0.6319 -0.8150 -0.4399
  464SOL    MW4 1630   2.374   4.651   3.383 -0.0293  0.2775  0.2914
  465SOL     OW 1631   2.778   4.106   0.720  0.1839 -0.0689 -0.1489
  465SOL    HW2 1632   2.857   4.157   0.737 -0.4675  0.9102  0.1031
  465SOL    HW3 1633   2.795   4.061   0.638 -0.0675  2.4499 -1.7098
  465SOL    MW4 1634   2.790   4.107   0.712  0.1391 -0.1402  0.0059
  466SOL     OW 1635   6.380   4.850   2.717  0.0255  0.2507 -0.1022
  466SOL    HW2 1636   6.411   4.935   2.747 -0.2891 -0.3549  2.1307
  466SOL    HW3 1637   6.438   4.787   2.760 -0.4074 -0.6939 -0.8682
  466SOL    MW4 1638   6.392   4.853   2.726  0.0954  0.4368  0.2576
  467SOL     OW 1639   4.917   1.165   3.581  0.5717 -0.3524 -0.3778
  467SOL    HW2 1640   4.841   1.195   3.630  1.9488  0.6537  1.2712
  467SOL    HW3 1641   4.929   1.230   3.512 -2.4148 -2.6747 -3.4498
  467SOL    MW4 1642   4.909   1.178   3.578  0.7326  0.2188 -0.0290
  468SOL     OW 1643   0.108   5.636   4.651  0.3701 -0.0987 -0.0478
  468SOL    HW2 1644   0.177   5.663   4.712  0.0882  0.3911  0.0549
  468SOL    HW3 1645   0.030   5.681   4.682 -0.1908 -1.2768  0.3145
  468SOL    MW4 1646   0.107   5.646   4.663 -0.5027 -0.7893  0.9149
  469SOL     OW 1647   4.765   5.724   1.693 -0.2965  0.3356  0.2741
  469SOL    HW2 1648   4.776   5.817   1.714 -0.6699  0.5543 -0.4840
  469SOL    HW3 1649   4.671   5.711   1.692 -0.2561  0.0848 -0.2086
  469SOL    MW4 1650   4.754   5.735   1.696 -0.2018  0.7457 -0.1201
  470SOL     OW 1651   2.144   4.656   4.285  0.0895 -0.2308  0.1663
  470SOL    HW2 1652   2.219   4.709   4.312 -0.6789  0.1077  1.7411
  470SOL    HW3 1653   2.179   4.569   4.272  0.5385 -0.4313  2.3815
  470SOL    MW4 1654   2.158   4.652   4.287  0.5441 -0.5289  0.0237
  471SOL     OW 1655   6.409   4.059   1.439  0.1272  0.0209  0.6585
  471SOL    HW2 1656   6.406   4.042   1.533  1.3309  0.3894  0.7761
  471SOL    HW3 1657   6.490   4.107   1.425  0.3721 -0.7182 -0.6843
  471SOL    MW4 1658   6.419   4.063   1.450  0.5336 -0.0250 -0.2460
  472SOL     OW 1659   3.425   3.632   5.212 -0.3091 -0.5386 -0.1508
  472SOL    HW2 1660   3.370   3.701   5.175  1.8160  0.9817 -0.6286
  472SOL    HW3 1661   3.362   3.569   5.248 -2.3520  1.1209 -0.5903
  472SOL    MW4 1662   3.410   3.633   5.212 -0.3060 -0.1303  0.0964
  473SOL     OW 1663   6.157   3.531   2.045  0.0942 -0.0851  0.4651
  473SOL    HW2 1664   6.100   3.478   1.990 -0.7994  1.0400  0.2795
  473SOL    HW3 1665   6.124   3.620   2.035  0.8008  0.3377  1.7218
  473SOL    MW4 1666   6.145   3.536   2.036 -0.5573  0.2395 -0.6469
  474SOL     OW 1667   1.190   1.066   2.386 -0.1081 -0.5069 -0.0225
  474SOL    HW2 1668   1.198   1.059   2.291 -1.1216 -0.7887 -0.1037
  474SOL    HW3 1669   1.248   0.999   2.421  0.1365 -0.5146 -0.4404
  474SOL    MW4 1670   1.199   1.057   2.378 -0.1696  0.0032 -0.2711
  475SOL     OW 1671   1.914   5.102   4.019 -0.2249  0.3032  0.4235
  475SOL    HW2 1672   1.844   5.117   3.955 -0.2861  0.1181  0.4490
  475SOL    HW3 1673   1.968   5.181   4.013  0.3293 -0.1329 -0.5701
  475SOL    MW4 1674   1.912   5.115   4.010 -0.9417  0.1452 -0.0201
  476SOL     OW 1675   2.452   3.016   3.841 -0.4968 -0.2363 -0.1972
  476SOL    HW2 1676   2.400   3.068   3.779 -0.2069  0.6107  0.2626
  476SOL    HW3 1677   2.539   3.013   3.802 -0.8972 -1.8582 -1.0879
  476SOL    MW4 1678   2.456   3.022   3.827 -0.4246  0.3692  0.1590
  477SOL     OW 1679   2.991   5.603   1.993  0.2058 -0.4075  0.3878
  477SOL    HW2 1680   2.897   5.609   1.977  0.3205  0.7702  0.0568
  477SOL    HW3 1681   3.005   5.512   2.018 -0.7951 -0.9862 -1.0175
  477SOL    MW4 1682   2.980   5.592   1.994 -0.2062  0.1742  0.0645
  478SOL     OW 1683   3.866   2.346   1.600 -0.2641  0.0727 -0.8306
  478SOL    HW2 1684   3.820   2.420   1.639 -1.0734 -0.3058 -1.0587
  478SOL    HW3 1685   3.957   2.376   1.592  0.5458 -0.6389  3.4897
  478SOL    MW4 1686   3.872   2.360   1.604 -0.2530  0.0404  0.8101
  479SOL     OW 1687   6.053   4.830   3.902 -0.7951  0.1322 -0.2757
  479SOL    HW2 1688   6.090   4.846   3.815 -1.8624 -1.4673 -1.0635
  479SOL    HW3 1689   6.032   4.918   3.935  2.5018  1.0468 -0.2423
  479SOL    MW4 1690   6.055   4.844   3.895  0.0102  0.1234  0.3870
  480SOL     OW 1691   5.795   4.236   3.604 -0.7404  0.2492 -0.3493
  480SOL    HW2 1692   5.820   4.322   3.638  0.0587  0.1082 -0.5687
  480SOL    HW3 1693   5.769   4.253   3.514 -0.6702  0.2693 -0.3655
  480SOL    MW4 1694   5.795   4.250   3.597 -0.0701 -0.0031  0.3362
  481SOL     OW 1695   5.887   0.266   5.942 -0.6896 -0.0222  0.0286
  481SOL    HW2 1696   5.875   0.268   6.037 -0.1439  2.8120  0.1122
  481SOL    HW3 1697   5.935   0.346   5.922 -1.9807  0.1653 -2.8134
  481SOL    MW4 1698   5.892   0.277   5.952  0.3450  0.1244 -0.1932
  482SOL     OW 1699   5.849   3.786   3.276 -0.0169  0.2431  0.1623
  482SOL    HW2 1700   5.838   3.871   3.319 -1.1975  0.3152 -0.2681
  482SOL    HW3 1701   5.760   3.754   3.261  0.3982 -0.6133 -0.5905
  482SOL    MW4 1702   5.836   3.793   3.280  0.7333 -0.0394  0.1568
  483SOL     OW 1703   1.522   1.800   2.255 -0.1789 -0.1022  0.1720
  483SOL    HW2 1704   1.595   1.793   2.194  1.2814  2.7779  1.3912
  483SOL    HW3 1705   1.553   1.756   2.335  0.1267  0.8298  0.5791
  483SOL    MW4 1706   1.536   1.793   2.258 -0.4569 -0.0503  0.8282
  484SOL     OW 1707   0.272   0.099   2.099 -0.2800  0.4613 -0.0968
  484SOL    HW2 1708   0.289   0.184   2.058  0.2773  0.8504  0.8968
  484SOL    HW3 1709   0.359   0.061   2.112 -0.5691 -0.9413 -1.8415
  484SOL    MW4 1710   0.285   0.105   2.095 -0.1900  0.0259 -0.1069
  485SOL     OW 1711   5.630   2.992   0.825 -0.1849  0.2878 -0.1096
  485SOL    HW2 1712   5.689   3.067   0.837  0.7298 -0.4834  0.3040
  485SOL    HW3 1713   5.578   3.014   0.748 -1.3565  2.2763  1.1429
  485SOL    MW4 1714   5.631   3.005   0.817  0.1957  0.0684  0.6229
  486SOL     OW 1715   4.209   2.732   3.587 -0.8904 -0.2130 -0.2191
  486SOL    HW2 1716   4.180   2.679   3.661 -1.3108 -0.9683 -0.9116
  486SOL    HW3 1717   4.151   2.707   3.515 -1.0746  1.1625 -0.5737
  486SOL    MW4 1718   4.198   2.722   3.587  0.2848  0.0994  0.5877
  487SOL     OW 1719   1.858   3.901   0.087  0.3577 -0.4383  0.1425
  487SOL    HW2 1720   1.792   3.851   0.039 -0.0199  0.2244 -0.0562
  487SOL    HW3 1721   1.929   3.914   0.024  0.7050 -1.1888  0.3696
  487SOL    MW4 1722   1.858   3.896   0.072 -0.1670  0.0348 -0.3250
  488SOL     OW 1723   3.666   2.318   2.864 -0.0131  0.1558 -0.4851
  488SOL    HW2 1724   3.669   2.223   2.858  2.8845 -0.1584  2.5831
  488SOL    HW3 1725   3.587   2.337   2.915 -0.3803 -0.6532 -0.7484
  488SOL    MW4 1726   3.656   2.308   2.870 -0.1249 -0.7625  0.2097
  489SOL     OW 1727   4.470   0.056   4.678  0.6969 -0.4126 -0.1568
  489SOL    HW2 1728   4.552   0.014   4.707  1.2153  0.1742 -0.7438
  489SOL    HW3 1729   4.487   0.081   4.587 -0.2665 -0.5929 -0.3886
  489SOL    MW4 1730   4.483   0.053   4.670 -0.1538  0.0585 -0.1608
  490SOL     OW 1731   3.267   5.737   0.520 -0.1506  0.2481 -0.6047
  490SOL    HW2 1732   3.276   5.643   0.507 -1.9431 -0.4544  2.2797
  490SOL    HW3 1733   3.183   5.759   0.479 -0.4070  0.3045 -0.0494
  490SOL    MW4 1734   3.257   5.728   0.513 -0.0447 -0.6611 -0.1974
  491SOL     OW 1735   1.900   0.832   2.255 -0.1544  0.0560  0.2749
  491SOL    HW2 1736   1.809   0.807   2.241  0.2937 -2.6616  1.5836
  491SOL    HW3 1737   1.943   0.816   2.171 -0.7274  0.8212 -0.1840
  491SOL    MW4 1738   1.894   0.827   2.242 -0.1633 -0.4247 -0.4265
  492SOL     OW 1739   4.319   2.960   5.186  0.6626  0.0627  0.6772
  492SOL    HW2 1740   4.400   3.009   5.179  1.4230 -1.2590 -0.0240
  492SOL    HW3 1741   4.295   2.966   5.279  0.8352  1.5653  0.6389
  492SOL    MW4 1742   4.326   2.967   5.197 -0.1837  0.2829  0.0187
  493SOL     OW 1743   1.552   5.541   1.215  0.1274  0.1688  0.5582
  493SOL    HW2 1744   1.531   5.466   1.271 -0.6993  0.4653  0.6470
  493SOL    HW3 1745   1.468   5.569   1.179  0.0291  2.6227  2.4803
  493SOL    MW4 1746   1.538   5.534   1.217 -0.0905  0.5474  0.3464
  494SOL     OW 1747   4.305   1.836   5.356  0.7285  0.4956 -0.1412
  494SOL    HW2 1748   4.379   1.812   5.413  0.0979 -0.0268  0.4821
  494SOL    HW3 1749   4.314   1.777   5.281  0.3488 -0.3160  0.4342
  494SOL    MW4 1750   4.316   1.825   5.354  0.3886 -0.5763  0.4121
  495SOL     OW 1751   1.152   4.252   1.664  0.1464 -0.2909  0.0664
  495SOL    HW2 1752   1.060   4.274   1.677 -0.3185 -0.5219 -2.2853
  495SOL    HW3 1753   1.152   4.193   1.589  2.0720 -1.9205  1.2504
  495SOL    MW4 1754   1.140   4.247   1.656 -0.0995  0.5853 -0.3672
  496SOL     OW 1755   1.167   4.147   3.826  0.0233 -0.3635  0.4515
  496SOL    HW2 1756   1.206   4.150   3.739  1.2204 -0.1300  0.9714
  496SOL    HW3 1757   1.103   4.076   3.822  0.3711 -0.6350 -0.4913
  496SOL    MW4 1758   1.164   4.138   3.814  0.2161  0.5076 -0.1598
  497SOL     OW 1759   1.187   4.519   5.011  0.8697 -0.2200  0.2935
  497SOL    HW2 1760   1.171   4.469   4.932  2.3881 -0.7321  0.2764
  497SOL    HW3 1761   1.103   4.520   5.057 -0.6811  1.9655 -2.3040
  497SOL    MW4 1762   1.174   4.513   5.007  0.3572  0.0074 -0.3076
  498SOL     OW 1763   4.592   6.157   2.715 -0.1079  0.0203  0.1159
  498SOL    HW2 1764   4.681   6.142   2.749  0.8873  0.5303 -2.0887
  498SOL    HW3 1765   4.568   6.244   2.746  0.4331  0.1343  0.2186
  498SOL    MW4 1766   4.601   6.166   2.723 -0.3738 -0.2144 -0.5603
  499SOL     OW 1767   2.131   6.114   1.431 -0.0041 -0.2782  0.3075
  499SOL    HW2 1768   2.090   6.161   1.504  1.6379 -1.1023  1.8553
  499SOL    HW3 1769   2.076   6.134   1.356 -0.9725  1.8058  1.4587
  499SOL    MW4 1770   2.119   6.123   1.431  0.2060 -0.8681  0.4558
  500SOL     OW 1771   5.408   1.209   4.370 -0.5159 -0.2510 -0.5962
  500SOL    HW2 1772   5.341   1.167   4.315 -2.1056 -0.5549  1.4443
  500SOL    HW3 1773   5.434   1.287   4.321 -0.8394 -1.2124 -2.3816
  500SOL    MW4 1774   5.403   1.214   4.356  0.2958 -0.0144  0.3884
  501SOL     OW 1775   4.940   3.134   4.690 -0.3613  0.4347  0.5041
  501SOL    HW2 1776   5.005   3.065   4.703  0.5725  0.7268 -2.1313
  501SOL    HW3 1777   4.915   3.160   4.779  1.5829 -1.1091  1.5830
  501SOL    MW4 1778   4.945   3.129   4.704  0.3516 -0.0233  0.4122
  502SOL     OW 1779   1.217   5.486   5.594  0.3880  0.2623  0.6145
  502SOL    HW2 1780   1.211   5.447   5.682  1.1274  0.9609  0.9822
  502SOL    HW3 1781   1.133   5.465   5.553 -0.2156  0.4487  1.7123
  502SOL    MW4 1782   1.205   5.478   5.600  0.4555  0.0618  0.0113
  503SOL     OW 1783   5.167   2.633   2.298  0.1703 -0.1989  0.2354
  503SOL    HW2 1784   5.091   2.673   2.255  0.5501 -0.4408 -0.7031
  503SOL    HW3 1785   5.227   2.706   2.312 -0.6287  0.1750  1.9224
  503SOL    MW4 1786   5.165   2.648   2.294  0.1785  0.4423 -0.8312
  504SOL     OW 1787   5.304   5.420   2.925  0.3611  0.4426  0.2347
  504SOL    HW2 1788   5.216   5.399   2.957 -0.0018  2.5108  0.7026
  504SOL    HW3 1789   5.320   5.509   2.956  1.8486  0.8223 -1.4889
  504SOL    MW4 1790   5.294   5.429   2.934 -0.3173  0.2624 -0.7012
  505SOL     OW 1791   6.312   0.694   2.008 -0.0682 -0.4405  0.3780
  505SOL    HW2 1792   6.256   0.632   1.961  0.7510  0.1922 -1.5085
  505SOL    HW3 1793   6.257   0.771   2.023 -0.0865 -0.3098 -0.3426
  505SOL    MW4 1794   6.297   0.696   2.004  0.0175  0.7112 -0.7756
  506SOL     OW 1795   5.541   4.598   4.985  0.6042 -0.9987  0.1507
  506SOL    HW2 1796   5.503   4.558   4.907 -0.4687  1.6954 -0.8140
  506SOL    HW3 1797   5.495   4.555   5.058 -2.0618 -0.1317 -0.8889
  506SOL    MW4 1798   5.530   4.587   4.985  0.4161 -0.1149  0.4606
  507SOL     OW 1799   4.142   3.655   0.518  0.0414  0.4539 -0.7704
  507SOL    HW2 1800   4.063   3.700   0.489  0.6289  3.7185  2.0609
  507SOL    HW3 1801   4.206   3.725   0.531  2.4652 -1.7358 -0.0777
  507SOL    MW4 1802   4.140   3.670   0.516  0.2856  0.1163  0.1474
  508SOL     OW 1803   4.476   3.640   5.208 -0.2158  0.3792 -0.1870
  508SOL    HW2 1804   4.391   3.645   5.252  0.0057 -0.9282  0.4428
  508SOL    HW3 1805   4.534   3.692   5.264 -0.9095  2.7925 -1.5572
  508SOL    MW4 1806   4.472   3.648   5.221  0.2354 -0.3313  0.0485
  509SOL     OW 1807   3.297   3.095   3.174  0.4989  0.4815 -0.3031
  509SOL    HW2 1808   3.230   3.079   3.108  0.2354  0.7598 -0.1050
  509SOL    HW3 1809   3.367   3.140   3.127  0.6107  0.0630 -0.5418
  509SOL    MW4 1810   3.297   3.099   3.159  0.0982 -0.6701 -0.2168
  510SOL     OW 1811   5.909   3.741   0.059  0.0950 -0.0428  0.2306
  510SOL    HW2 1812   5.865   3.664   0.096  2.1582 -0.3233  2.3474
  510SOL    HW3 1813   5.842   3.784   0.006 -2.6129 -0.6583  2.8781
  510SOL    MW4 1814   5.895   3.736   0.057 -0.3566 -0.2847  0.0026
  511SOL     OW 1815   2.876   3.243   2.101 -0.0123  0.2630  0.2365
  511SOL    HW2 1816   2.910   3.246   2.191  1.2067 -3.7651  0.0806
  511SOL    HW3 1817   2.931   3.304   2.053  0.8960  0.7028  1.7665
  511SOL    MW4 1818   2.888   3.251   2.107 -0.4637 -0.3552  0.1399
  512SOL     OW 1819   1.920   4.382   0.033  0.0122 -0.2944 -0.0314
  512SOL    HW2 1820   1.970   4.310  -0.005  1.2700  1.2694 -1.5335
  512SOL    HW3 1821   1.847   4.340   0.079  1.0086 -2.5130 -0.3748
  512SOL    MW4 1822   1.917   4.367   0.034 -0.1973  0.8469 -0.2133
  513SOL     OW 1823   1.984   4.257   5.081  0.2174 -0.2003  0.4311
  513SOL    HW2 1824   2.002   4.283   4.991  0.1797  0.1698  0.5271
  513SOL    HW3 1825   1.899   4.213   5.077 -1.0411  2.0718  0.6508
  513SOL    MW4 1826   1.975   4.255   5.069 -0.1061  0.3731 -0.2682
  514SOL     OW 1827   1.723   3.665   4.916 -0.4031  0.5121  0.4304
  514SOL    HW2 1828   1.725   3.645   5.009 -0.2190 -1.2628  0.0924
  514SOL    HW3 1829   1.634   3.696   4.900 -0.8838 -0.5612  0.9560
  514SOL    MW4 1830   1.711   3.666   4.926  0.0397  0.2606  0.2826
  515SOL     OW 1831   5.782   5.318   0.895 -0.2338  0.1701 -0.3941
  515SOL    HW2 1832   5.773   5.232   0.855 -0.5229  0.0303 -0.0285
  515SOL    HW3 1833   5.872   5.321   0.926 -0.0336  0.2433 -0.9680
  515SOL    MW4 1834   5.793   5.307   0.893 -0.2264  0.1929 -0.1091
  516SOL     OW 1835   5.461   5.559   6.002  0.5013  0.2493  0.0282
  516SOL    HW2 1836   5.513   5.522   5.931 -2.2376 -0.9550 -1.5185
  516SOL    HW3 1837   5.467   5.493   6.072 -0.7911 -1.0927 -1.0560
  516SOL    MW4 1838   5.468   5.545   6.002 -0.3280 -1.1444  0.2354
  517SOL     OW 1839   2.940   1.500   4.880 -0.4241  0.3517  0.0234
  517SOL    HW2 1840   2.951   1.586   4.839  0.0264 -0.2986 -1.3012
  517SOL    HW3 1841   2.857   1.505   4.927 -1.1257  1.0642 -1.2400
  517SOL    MW4 1842   2.931   1.512   4.881 -0.2773 -0.3227 -0.8043
  518SOL     OW 1843   3.628   3.088   5.765 -0.3045  0.3238  0.0796
  518SOL    HW2 1844   3.586   3.105   5.849 -1.1901  1.5018 -0.5770
  518SOL    HW3 1845   3.612   3.167   5.713  3.6484  1.3829  0.1255
  518SOL    MW4 1846   3.621   3.100   5.769 -0.2904  0.9272  0.0770
  519SOL     OW 1847   6.312   3.379   2.345  0.0851  0.3115  0.6144
  519SOL    HW2 1848   6.219   3.391   2.328 -0.4070 -2.2774  1.0262
  519SOL    HW3 1849   6.351   3.464   2.325 -2.1893  1.1702 -0.6091
  519SOL    MW4 1850   6.305   3.392   2.340  0.2696  0.5172  0.3409
  520SOL     OW 1851   5.176   6.015   0.010 -0.2854 -0.0603  0.2463
  520SOL    HW2 1852   5.123   6.094   0.021 -1.0443 -0.4246 -0.6757
  520SOL    HW3 1853   5.233   6.014   0.087  0.4926  1.9470 -0.2322
  520SOL    MW4 1854   5.177   6.026   0.022  0.0832  0.2407 -0.4151
  521SOL     OW 1855   5.141   4.596   3.041  0.4603  0.0903  0.0290
  521SOL    HW2 1856   5.217   4.538   3.035 -1.0779 -1.9274 -1.5166
  521SOL    HW3 1857   5.067   4.537   3.058 -0.9514  1.8085  0.0814
  521SOL    MW4 1858   5.141   4.580   3.042  0.1190 -0.4249  0.5615
  522SOL     OW 1859   4.082   0.213   4.442 -0.0067  0.3010 -0.2595
  522SOL    HW2 1860   4.118   0.249   4.523 -0.8038  0.0812  0.2028
  522SOL    HW3 1861   4.159   0.184   4.393  0.7412  3.0012 -0.8713
  522SOL    MW4 1862   4.097   0.214   4.446  0.3607 -0.8908  0.5973
  523SOL     OW 1863   4.475   5.731   2.777  0.5445  0.0975 -0.4367
  523SOL    HW2 1864   4.408   5.720   2.844  0.9369  0.8023  0.0882
  523SOL    HW3 1865   4.550   5.767   2.824  1.0747 -0.0742 -1.1316
  523SOL    MW4 1866   4.476   5.734   2.792  0.1577 -0.8828 -0.0614
  524SOL     OW 1867   1.703   1.298   2.509  0.9346 -0.0975  0.2986
  524SOL    HW2 1868   1.629   1.294   2.569  1.1780 -0.8374  0.5634
  524SOL    HW3 1869   1.770   1.243   2.550  0.9881 -0.8817 -0.7908
  524SOL    MW4 1870   1.702   1.290   2.522 -0.3112  0.5734 -0.0790
  525SOL     OW 1871   2.790   4.074   6.071 -0.0472  0.1333 -0.4920
  525SOL    HW2 1872   2.709   4.104   6.030  0.4334  1.1520 -0.7137
  525SOL    HW3 1873   2.765   4.054   6.162 -0.4159  1.0311 -0.3901
  525SOL    MW4 1874   2.776   4.075   6.078  0.4702  0.0692 -0.3790
  526SOL     OW 1875   4.848   0.111   0.526 -0.4724 -0.7411  0.0837
  526SOL    HW2 1876   4.907   0.063   0.468 -0.2510  0.2185 -0.5028
  526SOL    HW3 1877   4.776   0.050   0.542 -1.3006 -0.5571 -2.4179
  526SOL    MW4 1878   4.846   0.097   0.520 -0.0809 -0.0202 -0.1596
  527SOL     OW 1879   0.767   1.617   3.002 -0.3220  0.3838  0.0255
  527SOL    HW2 1880   0.814   1.667   2.934  0.7751 -1.6062 -0.7582
  527SOL    HW3 1881   0.710   1.682   3.044  0.1814  2.0393 -1.6914
  527SOL    MW4 1882   0.766   1.632   2.999  0.2415 -0.0686 -0.1372
  528SOL     OW 1883   5.361   6.233   3.728 -0.0558 -0.0083  0.4119
  528SOL    HW2 1884   5.374   6.184   3.810 -1.2439  0.3264  0.8145
  528SOL    HW3 1885   5.422   6.306   3.734  0.6568 -0.5922  0.4830
  528SOL    MW4 1886   5.371   6.236   3.740 -0.2126 -0.1870  0.0053
  529SOL     OW 1887   0.636   5.920   1.446 -0.0806 -0.0439 -0.1458
  529SOL    HW2 1888   0.693   5.854   1.487  0.4061  2.1880  3.1910
  529SOL    HW3 1889   0.697   5.987   1.415 -0.6928  0.0652 -1.1306
  529SOL    MW4 1890   0.652   5.920   1.447  0.3849  0.4526 -0.1758
  530SOL     OW 1891   5.448   4.453   4.778 -0.5999 -0.3386 -0.0526
  530SOL    HW2 1892   5.504   4.497   4.714 -1.2234 -0.1705 -0.4924
  530SOL    HW3 1893   5.498   4.377   4.806  0.0430  0.0606 -0.0867
  530SOL    MW4 1894   5.462   4.449   4.773  0.3906 -0.3316 -0.1646
  531SOL     OW 1895   1.150   6.047   4.697 -0.2275 -0.2388  0.1872
  531SOL    HW2 1896   1.067   6.078   4.731  0.3675 -0.7271  2.2832
  531SOL    HW3 1897   1.134   5.955   4.676  0.3879 -1.2637  3.4743
  531SOL    MW4 1898   1.137   6.039   4.699 -0.6502  0.3491  0.7181
  532SOL     OW 1899   2.292   3.661   2.379 -0.1047  0.6488  0.2620
  532SOL    HW2 1900   2.249   3.697   2.302  0.1031  3.3353  1.2777
  532SOL    HW3 1901   2.259   3.572   2.386 -2.4855  1.3336 -1.1709
  532SOL    MW4 1902   2.282   3.654   2.370 -0.7274 -0.0063  0.4077
  533SOL     OW 1903   3.076   0.974   0.799 -0.1275  0.2245  0.1363
  533SOL    HW2 1904   3.042   1.036   0.734 -2.5969  0.0225  1.1407
  533SOL    HW3 1905   3.073   0.889   0.755 -1.9988  0.0548  0.5147
  533SOL    MW4 1906   3.071   0.971   0.784  0.6788 -0.3269  0.1052
  534SOL     OW 1907   1.732   0.011   0.598  0.1283  0.1991  0.2162
  534SOL    HW2 1908   1.690   0.086   0.556  0.5738  0.5955  0.4770
  534SOL    HW3 1909   1.824   0.016   0.573 -0.0685 -1.0333 -0.8808
  534SOL    MW4 1910   1.738   0.021   0.589  0.5092 -0.0793  0.1383
  535SOL     OW 1911   0.868   0.340   0.895  0.1354  0.4840  0.2623
  535SOL    HW2 1912   0.939   0.403   0.885  0.8581 -0.3370  0.0725
  535SOL    HW3 1913   0.859   0.328   0.989  2.7487 -2.0788  0.3476
  535SOL    MW4 1914   0.876   0.347   0.906 -0.2101  0.3333 -0.0130
  536SOL     OW 1915   4.858   2.528   4.744  0.2837 -0.4472 -0.0278
  536SOL    HW2 1916   4.927   2.581   4.704 -1.6763  1.1423 -1.5037
  536SOL    HW3 1917   4.807   2.495   4.671 -0.8105 -1.2181  1.0338
  536SOL    MW4 1918   4.860   2.530   4.729 -0.1985  0.6402  0.2573
  537SOL     OW 1919   0.388   1.429   2.316  0.1155 -0.0486 -0.5306
  537SOL    HW2 1920   0.325   1.358   2.320  1.1732 -0.9845 -0.1467
  537SOL    HW3 1921   0.460   1.396   2.262  0.9866  0.4098  0.3107
  537SOL    MW4 1922   0.390   1.416   2.310 -0.3465  0.1452  0.1687
  538SOL     OW 1923   2.394   1.919   4.114 -0.4198 -0.2598 -0.5234
  538SOL    HW2 1924   2.304   1.948   4.130 -0.3760 -0.0545 -0.6531
  538SOL    HW3 1925   2.392   1.825   4.133 -0.3111  0.0132  0.9071
  538SOL    MW4 1926   2.381   1.910   4.118 -0.0437  0.2109  0.2349
  539SOL     OW 1927   0.602   2.797   2.194 -0.3887 -0.1777 -0.3664
  539SOL    HW2 1928   0.671   2.861   2.215 -1.0696 -0.0687  1.7551
  539SOL    HW3 1929   0.552   2.838   2.124 -2.1759  2.7976  2.3675
  539SOL    MW4 1930   0.605   2.811   2.188  0.1164  0.1519 -0.2796
  540SOL     OW 1931   1.094   1.780   2.647 -0.0385  0.4139  0.5728
  540SOL    HW2 1932   1.010   1.761   2.690 -0.2166 -1.1448 -0.3962
  540SOL    HW3 1933   1.152   1.709   2.674  0.5468  0.7084  0.1093
  540SOL    MW4 1934   1.090   1.768   2.656 -0.1531 -0.1182 -0.0649
  541SOL     OW 1935   2.188   4.683   4.826  0.6322  0.1743 -0.1759
  541SOL    HW2 1936   2.147   4.741   4.890  0.3538  1.7349 -1.6887
  541SOL    HW3 1937   2.188   4.734   4.745 -1.7461 -2.7394 -2.2313
  541SOL    MW4 1938   2.182   4.698   4.824 -0.4061  0.4868 -0.4931
  542SOL     OW 1939   4.293   0.880   2.834  0.3247  0.8988 -0.0026
  542SOL    HW2 1940   4.326   0.897   2.922  0.8444  0.1001 -0.0349
  542SOL    HW3 1941   4.364   0.906   2.776  0.5908 -0.0407 -0.1091
  542SOL    MW4 1942   4.306   0.886   2.838  0.0668  0.2964  0.5052
  543SOL     OW 1943   5.984   0.871   5.312 -0.2946 -0.3974 -0.3943
  543SOL    HW2 1944   6.020   0.936   5.372  0.2715 -0.9733 -0.1039
  543SOL    HW3 1945   6.058   0.843   5.259 -0.6348 -0.4622 -0.8371
  543SOL    MW4 1946   5.998   0.876   5.313  0.1763 -0.4083  0.0678
  544SOL     OW 1947   5.422   2.315   0.071  0.0763 -0.7293 -0.4036
  544SOL    HW2 1948   5.345   2.281   0.025  0.4408 -1.8766 -0.1958
  544SOL    HW3 1949   5.386   2.373   0.138 -0.4654  0.9218 -2.0419
  544SOL    MW4 1950   5.407   2.318   0.074  0.3230  0.3004 -0.5848
  545SOL     OW 1951   3.370   2.367   0.149 -0.2141  0.1236 -0.2857
  545SOL    HW2 1952   3.420   2.341   0.226 -0.5422 -0.5446 -0.2952
  545SOL    HW3 1953   3.432   2.361   0.076  0.2912  1.4197  0.0043
  545SOL    MW4 1954   3.385   2.363   0.149 -0.2866 -0.0121 -0.1024
  546SOL     OW 1955   2.887   4.337   6.136  0.1614  0.5253 -0.1336
  546SOL    HW2 1956   2.881   4.242   6.142  1.5030  0.4782  0.8980
  546SOL    HW3 1957   2.871   4.356   6.044 -4.2496 -0.2878  0.2157
  546SOL    MW4 1958   2.884   4.327   6.125  0.3255 -0.4166  0.0265
  547SOL     OW 1959   1.875   1.694   1.459 -0.3653 -0.5064 -0.2236
  547SOL    HW2 1960   1.881   1.757   1.531  3.2909 -0.4063 -0.4228
  547SOL    HW3 1961   1.870   1.748   1.380 -0.0079 -0.5197 -0.2559
  547SOL    MW4 1962   1.875   1.709   1.458 -0.4039 -0.3847 -0.0632
  548SOL     OW 1963   2.699   3.292   2.819  0.2954 -0.3899 -0.1764
  548SOL    HW2 1964   2.774   3.242   2.787  1.5089  1.5386 -0.5127
  548SOL    HW3 1965   2.663   3.334   2.741 -0.2067 -0.0988  0.2042
  548SOL    MW4 1966   2.704   3.291   2.804 -0.1807  0.1724 -0.3933
  549SOL     OW 1967   6.088   5.553   0.538  0.3115  0.2692 -0.2454
  549SOL    HW2 1968   6.013   5.577   0.484 -0.8185  0.5781  1.3958
  549SOL    HW3 1969   6.049   5.524   0.621  2.0092  0.3604  0.6125
  549SOL    MW4 1970   6.073   5.552   0.542 -0.5463  0.1744 -0.1239
  550SOL     OW 1971   0.069   4.907   2.447 -0.5929 -0.1032  0.0543
  550SOL    HW2 1972  -0.014   4.865   2.472 -0.3335 -0.5967  0.0931
  550SOL    HW3 1973   0.050   4.948   2.363 -1.1616  0.6423  0.5334
  550SOL    MW4 1974   0.055   4.907   2.439 -0.6536 -0.5383 -0.2107
  551SOL     OW 1975   2.635   0.355   3.071  0.0816 -0.4381  0.0503
  551SOL    HW2 1976   2.612   0.447   3.076 -0.8211 -0.6642  0.2168
  551SOL    HW3 1977   2.642   0.337   2.977  1.4312  0.0637  0.0309
  551SOL    MW4 1978   2.633   0.365   3.059  0.0278  0.1534  0.2818
  552SOL     OW 1979   3.651   5.552   1.420  0.6044  0.5274 -0.2595
  552SOL    HW2 1980   3.721   5.539   1.485  0.4015  0.8241  0.0237
  552SOL    HW3 1981   3.621   5.464   1.400  0.3917  0.4521  0.3597
  552SOL    MW4 1982   3.656   5.539   1.426  0.1050 -0.2432  0.1241
  553SOL     OW 1983   0.787   3.930   1.539 -0.0845 -0.1299  0.0881
  553SOL    HW2 1984   0.710   3.904   1.590  1.5941 -3.0151  1.4385
  553SOL    HW3 1985   0.752   3.983   1.468 -3.0584  0.3272  1.7411
  553SOL    MW4 1986   0.772   3.933   1.536  0.4484  0.4232 -0.3569
  554SOL     OW 1987   1.057   5.218   2.365 -0.0555 -0.1679 -0.0952
  554SOL    HW2 1988   1.019   5.133   2.346  0.4695  0.1589 -3.2151
  554SOL    HW3 1989   1.147   5.212   2.333 -0.2650  1.7537 -1.2291
  554SOL    MW4 1990   1.064   5.206   2.358  0.4886  0.3698 -0.4095
  555SOL     OW 1991   1.746   2.113   5.097  0.6349 -0.6575 -0.2301
  555SOL    HW2 1992   1.793   2.097   5.179  0.3293  0.0073  0.0842
  555SOL    HW3 1993   1.812   2.103   5.029  1.8301  2.3307  0.3174
  555SOL    MW4 1994   1.761   2.110   5.099  0.4449  0.1327  0.0886
  556SOL     OW 1995   5.216   4.568   2.413  0.1996 -0.3807 -0.2212
  556SOL    HW2 1996   5.121   4.578   2.406  0.0512 -1.9501 -0.8414
  556SOL    HW3 1997   5.234   4.483   2.373  2.0990  0.7242 -1.8729
  556SOL    MW4 1998   5.206   4.558   2.407  0.0552  0.0378  0.1261
  557SOL     OW 1999   3.676   4.105   3.907 -0.5758 -0.5432 -0.0153
  557SOL    HW2 2000   3.626   4.118   3.988 -0.1505  0.9837  0.0412
  557SOL    HW3 2001   3.765   4.134   3.930 -0.2826 -0.7857 -0.8341
  557SOL    MW4 2002   3.681   4.110   3.921  0.3106 -0.5114 -0.0317
  558SOL     OW 2003   2.509   2.974   3.058 -0.1999  0.4959 -0.2775
  558SOL    HW2 2004   2.425   2.976   3.105 -2.1621 -1.7213 -3.3085
  558SOL    HW3 2005   2.484   2.977   2.966  3.0766 -0.5026 -1.3030
  558SOL    MW4 2006   2.494   2.975   3.052  0.1247  0.2056 -0.2133
  559SOL     OW 2007   3.131   0.539   4.426  0.0833  0.1638 -0.2446
  559SOL    HW2 2008   3.095   0.539   4.338 -0.3808  1.7981 -0.0814
  559SOL    HW3 2009   3.215   0.584   4.418 -0.3425  1.0782  0.2741
  559SOL    MW4 2010   3.138   0.545   4.413  0.7002 -0.3411 -0.0612
  560SOL     OW 2011   0.449   4.095   3.997  0.0069  0.2026 -0.0330
  560SOL    HW2 2012   0.408   4.008   3.996 -0.3747  0.3762  0.0747
  560SOL    HW3 2013   0.520   4.087   4.060 -0.4009  0.1266  0.4262
  560SOL    MW4 2014   0.453   4.082   4.005 -0.4156  0.0395  0.3769
  561SOL     OW 2015   4.210   0.362   4.189 -0.4383  0.3873 -0.2791
  561SOL    HW2 2016   4.256   0.443   4.167 -1.3424  0.7142 -1.0336
  561SOL    HW3 2017   4.171   0.378   4.275  1.2901 -0.1053  0.6534
  561SOL    MW4 2018   4.211   0.374   4.198  0.1439  0.3610  0.0717
  562SOL     OW 2019   4.690   1.250   4.782 -0.0091 -0.0319 -0.5667
  562SOL    HW2 2020   4.627   1.183   4.808 -0.1170  0.0985 -0.4886
  562SOL    HW3 2021   4.775   1.213   4.807 -0.1111  0.0907 -0.0148
  562SOL    MW4 2022   4.693   1.236   4.789  0.2992  0.5002  0.1569
  563SOL     OW 2023   4.002   4.335   1.279  0.4514 -0.0649  0.2066
  563SOL    HW2 2024   3.913   4.361   1.257  0.1104 -2.9011 -2.5314
  563SOL    HW3 2025   4.053   4.416   1.272 -1.8874  1.7739  2.5512
  563SOL    MW4 2026   3.997   4.349   1.275 -0.0532 -0.0469  0.5578
  564SOL     OW 2027   4.970   0.970   1.865  0.1045  0.1615 -0.3676
  564SOL    HW2 2028   4.951   1.032   1.936  0.7915 -0.1007  0.0569
  564SOL    HW3 2029   5.023   1.020   1.803  0.9268 -0.0775  0.1279
  564SOL    MW4 2030   4.974   0.985   1.866  0.0774  0.8345 -1.0230
  565SOL     OW 2031   3.569   2.657   3.935  0.6760  0.0459  0.5051
  565SOL    HW2 2032   3.644   2.716   3.939 -0.1860  1.3478 -1.0959
  565SOL    HW3 2033   3.503   2.705   3.885 -0.8185 -1.5068  0.8652
  565SOL    MW4 2034   3.570   2.671   3.929  0.2972  0.0074  0.1656
  566SOL     OW 2035   1.969   5.632   2.167  1.1497  0.0612  0.2214
  566SOL    HW2 2036   1.891   5.578   2.180  1.7670 -0.7844  0.5601
  566SOL    HW3 2037   2.042   5.571   2.180  1.9051  1.2047  1.6518
  566SOL    MW4 2038   1.968   5.617   2.170  0.0648  0.4207 -0.0940
  567SOL     OW 2039   5.221   1.791   6.244 -0.4753  0.1594  0.1579
  567SOL    HW2 2040   5.209   1.783   6.150  0.3503 -3.7691  0.2110
  567SOL    HW3 2041   5.316   1.794   6.256 -0.5685  0.4410  0.8666
  567SOL    MW4 2042   5.232   1.790   6.233  0.1899 -0.3255  0.1806
  568SOL     OW 2043   2.031   5.484   3.261 -0.8408 -0.3511  0.6095
  568SOL    HW2 2044   1.994   5.429   3.330 -0.6738  1.1756  1.9885
  568SOL    HW3 2045   2.126   5.469   3.268 -0.9416 -2.0310 -0.9615
  568SOL    MW4 2046   2.039   5.474   3.271 -0.2841  0.1614  0.1783
  569SOL     OW 2047   1.912   3.297  -0.000  0.2027  0.0011  0.4206
  569SOL    HW2 2048   1.916   3.310   0.095 -0.6233  0.7630  0.3611
  569SOL    HW3 2049   1.842   3.234  -0.013 -0.2580  0.5318  0.2730
  569SOL    MW4 2050   1.903   3.291   0.011 -0.1707 -0.2548 -0.3847
  570SOL     OW 2051   3.767   3.922   2.928  0.5060 -0.3325 -0.1126
  570SOL    HW2 2052   3.788   3.996   2.985 -2.1396  0.6912 -0.2912
  570SOL    HW3 2053   3.846   3.906   2.878  0.5577  4.0477 -1.8577
  570SOL    MW4 2054   3.780   3.930   2.929  0.5889  0.3263  0.5741
  571SOL     OW 2055   0.718   1.434   5.918 -0.2884  0.5156  0.0342
  571SOL    HW2 2056   0.717   1.358   5.859  0.6781  1.7683 -1.6897
  571SOL    HW3 2057   0.798   1.423   5.969 -1.5149 -0.9772  1.7666
  571SOL    MW4 2058   0.729   1.422   5.917  0.3446  0.2948  0.0126
  572SOL     OW 2059   5.871   5.755   1.365  0.1700  0.0023  0.4033
  572SOL    HW2 2060   5.805   5.743   1.297  0.1114 -1.3496  0.6684
  572SOL    HW3 2061   5.900   5.846   1.355 -0.8517  0.2489 -0.4975
  572SOL    MW4 2062   5.866   5.766   1.355 -0.0558 -0.0753  0.3564
  573SOL     OW 2063   2.612   1.875   5.355  0.1786  0.4271  0.0347
  573SOL    HW2 2064   2.683   1.925   5.396  1.1788 -1.0184  0.1621
  573SOL    HW3 2065   2.610   1.906   5.264  1.0724  0.4168  0.0003
  573SOL    MW4 2066   2.621   1.885   5.348  0.6266  0.5848  0.1800
  574SOL     OW 2067   5.794   1.415   4.488  0.2583 -0.3937  0.3742
  574SOL    HW2 2068   5.783   1.431   4.395 -0.6411 -1.6108  0.2567
  574SOL    HW3 2069   5.719   1.361   4.513  1.1726 -1.1972  1.5205
  574SOL    MW4 2070   5.783   1.410   4.479 -0.1487  0.1265  0.3592
  575SOL     OW 2071   1.401   0.221   4.181  0.4796  0.3366 -0.3441
  575SOL    HW2 2072   1.364   0.302   4.215 -0.9744 -0.4037 -0.0713
  575SOL    HW3 2073   1.480   0.248   4.135 -0.3621  1.9928 -0.9046
  575SOL    MW4 2074   1.406   0.235   4.179 -0.0145 -0.3967  0.3375
  576SOL     OW 2075   1.868   5.365   2.988  0.1120  0.3164 -0.9791
  576SOL    HW2 2076   1.786   5.340   3.029 -0.1751  0.4315 -1.4754
  576SOL    HW3 2077   1.880   5.457   3.011 -0.1330  0.4269 -1.2856
  576SOL    MW4 2078   1.859   5.374   2.996 -0.3128 -0.2266 -0.2209
  577SOL     OW 2079   5.294   0.523   3.561 -0.5189 -0.1023 -0.4852
  577SOL    HW2 2080   5.303   0.504   3.467 -3.1154 -1.6144 -0.5305
  577SOL    HW3 2081   5.307   0.438   3.604 -1.0885  0.2305  0.3720
  577SOL    MW4 2082   5.297   0.509   3.554 -0.2607 -0.9686 -0.5537
  578SOL     OW 2083   5.036   5.987   2.691 -0.1464 -0.2956 -0.0036
  578SOL    HW2 2084   4.980   5.912   2.709 -0.9677  0.5076  0.9019
  578SOL    HW3 2085   5.064   5.975   2.601 -4.0879  0.6874 -1.5664
  578SOL    MW4 2086   5.032   5.975   2.682 -0.6627 -0.2798  0.8161
  579SOL     OW 2087   5.809   3.527   2.873 -0.0385 -0.6956  0.0906
  579SOL    HW2 2088   5.856   3.544   2.954  0.3045 -0.1139 -0.2236
  579SOL    HW3 2089   5.864   3.565   2.804 -1.3459  0.7598 -0.2148
  579SOL    MW4 2090   5.822   3.534   2.874 -0.1344  0.4162 -0.2623
  580SOL     OW 2091   4.869   2.041   1.503  0.2035  0.4227  0.6695
  580SOL    HW2 2092   4.847   1.957   1.463  0.6218  0.4865  0.2911
  580SOL    HW3 2093   4.832   2.036   1.591  0.0187 -0.0636  0.5708
  580SOL    MW4 2094   4.861   2.029   1.509 -0.3381  0.3120 -0.7250
  581SOL     OW 2095   5.570   6.160   6.009  0.3632  0.0754  0.3471
  581SOL    HW2 2096   5.603   6.080   5.968 -0.7583  1.1276 -2.9361
  581SOL    HW3 2097   5.649   6.207   6.037  1.0413 -2.0952  2.4147
  581SOL    MW4 2098   5.585   6.156   6.007 -0.0353  0.1912 -0.5295
  582SOL     OW 2099   0.392   0.187   4.053  0.0348 -0.2208 -0.0888
  582SOL    HW2 2100   0.442   0.199   4.134 -0.1729 -0.9312  0.1532
  582SOL    HW3 2101   0.309   0.151   4.081  0.5051 -1.8884 -0.7183
  582SOL    MW4 2102   0.388   0.184   4.067  0.4881  0.4740  0.9275
  583SOL     OW 2103   3.516   1.273   1.351  0.2700 -0.2966  0.1435
  583SOL    HW2 2104   3.497   1.278   1.445 -2.0965 -2.0385 -0.1668
  583SOL    HW3 2105   3.535   1.181   1.335 -0.3264 -0.1958 -1.2375
  583SOL    MW4 2106   3.516   1.262   1.361 -0.3036  0.4010 -0.4957
  584SOL     OW 2107   4.488   4.467   4.847  0.4115 -0.1364  0.0630
  584SOL    HW2 2108   4.447   4.398   4.900 -0.0241 -0.0546 -0.1620
  584SOL    HW3 2109   4.493   4.429   4.759 -0.0659  0.2123 -0.1184
  584SOL    MW4 2110   4.483   4.453   4.842 -0.3072 -0.7505 -0.2805
  585SOL     OW 2111   3.802   4.656   0.221  0.5060 -0.1595 -0.1854
  585SOL    HW2 2112   3.754   4.610   0.289  0.7831  0.8617  0.7363
  585SOL    HW3 2113   3.843   4.587   0.169 -1.1470 -1.0282 -0.4282
  585SOL    MW4 2114   3.801   4.641   0.223  0.3728 -0.1994 -0.7098
  586SOL     OW 2115   5.163   4.925   2.974 -0.0315  0.2872 -0.6599
  586SOL    HW2 2116   5.070   4.908   2.956 -0.3255  0.5861  0.5384
  586SOL    HW3 2117   5.197   4.840   3.003 -0.7673  0.8965  2.2588
  586SOL    MW4 2118   5.155   4.911   2.975  0.0843  0.2664 -0.7428
  587SOL     OW 2119   3.098   1.094   1.810  0.1247 -0.2293 -0.2301
  587SOL    HW2 2120   3.105   1.187   1.793  0.3537 -0.1153  0.4566
  587SOL    HW3 2121   3.186   1.068   1.839 -0.4888 -0.1721  1.8332
  587SOL    MW4 2122   3.111   1.102   1.812 -0.2476 -0.5781  0.3264
  588SOL     OW 2123   5.768   3.893   0.276  0.3099 -0.0623 -0.0524
  588SOL    HW2 2124   5.832   3.864   0.211  0.7261  2.0157 -0.6314
  588SOL    HW3 2125   5.811   3.879   0.360  1.9297  2.0454 -0.4586
  588SOL    MW4 2126   5.782   3.887   0.279  0.2673  0.0334 -0.0969
  589SOL     OW 2127   5.437   3.770   4.452  0.5672 -0.5289 -0.2491
  589SOL    HW2 2128   5.486   3.775   4.370  1.1481 -2.1995 -0.0316
  589SOL    HW3 2129   5.409   3.679   4.458 -3.6132  0.4955 -0.9189
  589SOL    MW4 2130   5.439   3.759   4.442 -0.1144 -0.8300  0.2770
  590SOL     OW 2131   1.374   4.058   2.050 -0.3625  0.3014  0.5919
  590SOL    HW2 2132   1.320   4.035   2.125 -0.6855  0.4230  0.4010
  590SOL    HW3 2133   1.313   4.058   1.976  0.1138 -0.6222  0.1945
  590SOL    MW4 2134   1.359   4.055   2.050  0.6969 -0.1508  0.0245
  591SOL     OW 2135   1.911   5.508   0.657 -0.2921  0.4873 -0.2160
  591SOL    HW2 2136   1.889   5.601   0.661  0.1643  0.6769 -1.6556
  591SOL    HW3 2137   1.827   5.464   0.642 -0.6485  0.5496  1.3660
  591SOL    MW4 2138   1.897   5.514   0.655 -0.6490  0.3102 -0.3741
  592SOL     OW 2139   2.500   3.391   3.624  0.3410  0.3345  0.2060
  592SOL    HW2 2140   2.506   3.465   3.564  1.2693 -0.7830 -1.1160
  592SOL    HW3 2141   2.577   3.338   3.606 -0.9426 -1.6329  0.1980
  592SOL    MW4 2142   2.511   3.394   3.614  0.1241 -0.0226 -0.6464
  593SOL     OW 2143   0.700   5.391   5.071 -0.4730  0.6102 -0.1857
  593SOL    HW2 2144   0.728   5.376   4.981 -1.0527  0.2450 -0.3130
  593SOL    HW3 2145   0.761   5.340   5.125  0.3932  1.5025 -0.3097
  593SOL    MW4 2146   0.711   5.382   5.067 -1.0344 -0.2394 -0.2595
  594SOL     OW 2147   3.484   0.312   4.383  0.4988  0.5402 -0.3302
  594SOL    HW2 2148   3.417   0.276   4.441 -0.1707  0.0608 -1.3767
  594SOL    HW3 2149   3.566   0.273   4.415  0.3007  1.0933  0.9237
  594SOL    MW4 2150   3.486   0.302   4.395 -0.5983 -0.1367 -0.5637
  595SOL     OW 2151   0.821   4.481   2.087  0.7554  0.4557 -0.5478
  595SOL    HW2 2152   0.752   4.451   2.028  0.2000  0.0826  0.2778
  595SOL    HW3 2153   0.902   4.457   2.042  0.3644  1.2093 -1.6875
  595SOL    MW4 2154   0.823   4.474   2.074  0.5805  0.5533 -0.0697
  596SOL     OW 2155   3.416   0.994   0.657  0.0035 -0.3927 -0.1247
  596SOL    HW2 2156   3.392   0.914   0.610 -1.2294  0.2140 -0.5479
  596SOL    HW3 2157   3.440   0.963   0.745 -0.3036 -1.2500 -0.3328
  596SOL    MW4 2158   3.416   0.979   0.662 -0.1598  0.1975  0.5956
  597SOL     OW 2159   5.569   5.884   4.865 -0.0881  0.1019  0.3443
  597SOL    HW2 2160   5.647   5.916   4.820 -0.7871  1.2848 -0.0717
  597SOL    HW3 2161   5.549   5.951   4.930 -0.1878 -0.6819  1.1430
  597SOL    MW4 2162   5.576   5.897   4.868 -0.4308 -0.4544  0.3859
  598SOL     OW 2163   0.474   3.413   3.000 -0.1704 -0.0287  0.0134
  598SOL    HW2 2164   0.494   3.368   3.082  1.3432 -1.5476 -1.1140
  598SOL    HW3 2165   0.487   3.506   3.020  0.2669 -0.3737  1.4654
  598SOL    MW4 2166   0.478   3.419   3.014  0.2965 -0.1698  0.4427
  599SOL     OW 2167   2.229   1.922   2.032 -0.1893 -0.0570  0.2972
  599SOL    HW2 2168   2.312   1.916   2.079 -0.5881 -0.1316  1.0006
  599SOL    HW3 2169   2.249   1.888   1.944  1.2004  2.5030 -0.4737
  599SOL    MW4 2170   2.243   1.917   2.026 -0.6519  0.4966 -0.0197
  600SOL     OW 2171   1.000   4.267   2.835  0.4226 -0.5428 -0.4294
  600SOL    HW2 2172   1.012   4.215   2.914 -1.1238  0.9556  0.9041
  600SOL    HW3 2173   0.961   4.207   2.772  1.0047 -1.5971  0.1954
  600SOL    MW4 2174   0.996   4.252   2.837  0.5442  0.4240 -0.5941
  601SOL     OW 2175   5.880   4.242   1.567 -0.5388 -0.2377  0.1635
  601SOL    HW2 2176   5.933   4.195   1.503 -0.0310 -2.0945  1.8522
  601SOL    HW3 2177   5.906   4.334   1.558 -0.6882 -0.3841 -2.4254
  601SOL    MW4 2178   5.890   4.248   1.557  0.0458 -0.2490 -0.1030
  602SOL     OW 2179   0.284   0.885   0.557 -0.2253 -0.3848 -0.4308
  602SOL    HW2 2180   0.230   0.839   0.620  0.1170 -0.8901 -0.4993
  602SOL    HW3 2181   0.374   0.871   0.587 -0.1253  0.4142 -0.3349
  602SOL    MW4 2182   0.289   0.877   0.569 -0.4235 -0.0728 -0.3257
  603SOL     OW 2183   1.619   0.099   0.878  0.3943 -0.1804  0.1695
  603SOL    HW2 2184   1.643   0.026   0.936  2.2617  0.1353 -0.1216
  603SOL    HW3 2185   1.639   0.067   0.790  0.0465  0.2483 -0.0656
  603SOL    MW4 2186   1.625   0.085   0.874  0.1331 -0.4627 -0.4703
  604SOL     OW 2187   5.582   2.402   2.348  0.4021  0.2296 -0.1573
  604SOL    HW2 2188   5.647   2.348   2.394 -0.1218  0.1350  0.4941
  604SOL    HW3 2189   5.498   2.376   2.387  0.1044  1.2442 -0.0894
  604SOL    MW4 2190   5.580   2.392   2.359 -0.1866  0.0119 -0.0251
  605SOL     OW 2191   1.382   3.614   5.082 -0.4780 -0.1594  0.2085
  605SOL    HW2 2192   1.374   3.602   4.988  0.0610 -0.4532  0.1950
  605SOL    HW3 2193   1.308   3.670   5.106 -1.2402 -0.9656 -0.2186
  605SOL    MW4 2194   1.371   3.620   5.073  0.1729  0.0430  0.5669
  606SOL     OW 2195   0.379   4.578   0.316 -0.5685 -0.0468  0.2977
  606SOL    HW2 2196   0.348   4.612   0.400  1.5020 -1.6750  1.8142
  606SOL    HW3 2197   0.327   4.499   0.301 -1.1815  0.4318 -0.1754
  606SOL    MW4 2198   0.368   4.572   0.325 -0.2532 -0.0188  0.2133
  607SOL     OW 2199   6.171   4.676   0.961  0.4803  0.1659 -0.2701
  607SOL    HW2 2200   6.219   4.747   0.919 -0.7732  0.7882 -0.7180
  607SOL    HW3 2201   6.114   4.721   1.025 -1.3558 -0.2521 -1.5324
  607SOL    MW4 2202   6.170   4.692   0.964  0.3709  0.5334 -0.0276
  608SOL     OW 2203   4.519   3.801   2.169 -0.0695  0.1614 -0.0942
  608SOL    HW2 2204   4.496   3.807   2.076 -0.3086  1.2427  0.0160
  608SOL    HW3 2205   4.481   3.880   2.207  0.9786  0.2915  0.7161
  608SOL    MW4 2206   4.511   3.813   2.161  0.1592 -0.3989 -0.1474
  609SOL     OW 2207   6.205   0.029   1.584 -0.3746  0.4612  0.5002
  609SOL    HW2 2208   6.124   0.070   1.614 -0.2705 -0.0475  1.5604
  609SOL    HW3 2209   6.182  -0.011   1.500 -1.0671  0.8117  0.5131
  609SOL    MW4 2210   6.191   0.029   1.577 -0.1306 -0.1195  0.1940
  610SOL     OW 2211   3.014   5.777   4.631  0.1821 -0.2863  0.0015
  610SOL    HW2 2212   3.004   5.697   4.580  1.1989 -1.0500  0.9418
  610SOL    HW3 2213   3.022   5.847   4.566 -0.4730 -0.9728 -0.8364
  610SOL    MW4 2214   3.014   5.776   4.616  0.3502 -0.8073  0.0744
  611SOL     OW 2215   4.269   5.542   2.552  0.4005 -0.4033 -0.2117
  611SOL    HW2 2216   4.188   5.554   2.601  0.4646 -0.1932 -0.1581
  611SOL    HW3 2217   4.314   5.470   2.597 -0.3161 -1.3603 -0.9657
  611SOL    MW4 2218   4.264   5.534   2.564  0.5983 -0.5549 -0.1674
  612SOL     OW 2219   2.118   5.564   4.908 -0.1368 -0.4294 -0.2143
  612SOL    HW2 2220   2.072   5.620   4.971  0.7676  1.5488 -1.2287
  612SOL    HW3 2221   2.210   5.585   4.920  0.2059 -1.4527 -0.8985
  612SOL    MW4 2222   2.124   5.574   4.918 -0.0407 -0.2975  0.6318
  613SOL     OW 2223   3.719   0.909   2.168  0.0442  0.5384  0.0008
  613SOL    HW2 2224   3.760   0.986   2.130  2.9286 -1.0333 -0.4060
  613SOL    HW3 2225   3.682   0.862   2.094 -0.4640  0.8354  0.0641
  613SOL    MW4 2226   3.719   0.913   2.153  0.2107  0.0475  0.4214
  614SOL     OW 2227   3.847   0.728   3.083  0.4608 -0.5700 -0.3014
  614SOL    HW2 2228   3.835   0.641   3.121 -2.2388 -1.0293 -1.9801
  614SOL    HW3 2229   3.759   0.766   3.081  1.3642  1.6555 -0.9218
  614SOL    MW4 2230   3.834   0.721   3.088 -0.1302  0.0497 -0.0807
  615SOL     OW 2231   1.744   2.175   2.472 -0.3176 -0.4045  0.3373
  615SOL    HW2 2232   1.710   2.240   2.534  0.3523 -0.9695  1.3224
  615SOL    HW3 2233   1.672   2.161   2.410 -1.0461  0.0970  1.0479
  615SOL    MW4 2234   1.730   2.182   2.472  0.1549  0.1196  0.3560
  616SOL     OW 2235   5.071   3.622   0.613 -0.0944  0.1289  0.0815
  616SOL    HW2 2236   5.020   3.604   0.692 -0.1393 -0.0129  0.0194
  616SOL    HW3 2237   5.091   3.715   0.618 -2.4860  0.8016 -1.1418
  616SOL    MW4 2238   5.067   3.632   0.624 -0.2377 -0.0093  0.3457
  617SOL     OW 2239   0.102   4.726   0.176  0.2711  0.4748  0.0121
  617SOL    HW2 2240   0.114   4.812   0.137 -1.8735  0.9438  0.2972
  617SOL    HW3 2241   0.098   4.666   0.100  0.8927  0.7217 -0.2234
  617SOL    MW4 2242   0.103   4.729   0.161 -0.3170  0.2602  0.2886
  618SOL     OW 2243   4.601   0.963   0.557  0.3604 -0.2936 -0.2002
  618SOL    HW2 2244   4.643   1.010   0.629  0.5565  0.3486 -0.7225
  618SOL    HW3 2245   4.647   0.879   0.553  1.5656  0.3576 -0.7034
  618SOL    MW4 2246   4.613   0.958   0.566 -0.5833 -0.2341 -0.4736
  619SOL     OW 2247   5.903   3.771   2.306  0.1301  0.6830 -0.5638
  619SOL    HW2 2248   5.972   3.745   2.368 -1.7130 -0.8498  0.9838
  619SOL    HW3 2249   5.926   3.861   2.281  2.6014  0.2618 -0.0542
  619SOL    MW4 2250   5.915   3.779   2.311  0.4203  0.2991  0.3509
  620SOL     OW 2251   3.674   5.578   0.340  0.7306  0.0499  0.0863
  620SOL    HW2 2252   3.641   5.495   0.306 -0.0484  0.7883 -0.9954
  620SOL    HW3 2253   3.608   5.643   0.317  0.2592  0.6775  2.7949
  620SOL    MW4 2254   3.661   5.576   0.333 -0.3673 -0.4742 -0.2375
  621SOL     OW 2255   5.759   4.376   2.243  0.6761  0.7440  0.5861
  621SOL    HW2 2256   5.769   4.458   2.193  0.7149 -0.1609 -0.9398
  621SOL    HW3 2257   5.848   4.343   2.252  0.4021 -1.2715 -2.6130
  621SOL    MW4 2258   5.772   4.383   2.237  0.0023 -0.2238  0.4347
  622SOL     OW 2259   5.857   0.287   1.019 -0.0427  0.0488 -0.4880
  622SOL    HW2 2260   5.897   0.374   1.009 -1.2799  1.0974  2.4809
  622SOL    HW3 2261   5.798   0.280   0.943  1.0482  1.1916 -1.5048
  622SOL    MW4 2262   5.855   0.298   1.007  0.1763 -0.4970  0.5401
  623SOL     OW 2263   1.369   2.635   4.029  0.7147  0.0097  0.0884
  623SOL    HW2 2264   1.276   2.655   4.031 -0.0102 -2.8588 -0.5937
  623SOL    HW3 2265   1.405   2.696   3.965 -0.8392  0.5980 -0.2734
  623SOL    MW4 2266   1.362   2.646   4.021  0.0662  0.1986 -0.2261
  624SOL     OW 2267   3.203   4.110   0.983  0.2708 -0.2500 -0.4049
  624SOL    HW2 2268   3.190   4.124   0.889  0.9653 -0.0765 -0.4816
  624SOL    HW3 2269   3.278   4.051   0.988 -0.4457 -1.1559  0.0206
  624SOL    MW4 2270   3.211   4.104   0.971  0.1426 -0.4047  0.3039
  625SOL     OW 2271   3.147   3.181   2.595 -0.0142  0.2098 -0.3872
  625SOL    HW2 2272   3.153   3.090   2.623  0.5804  0.1589 -0.6789
  625SOL    HW3 2273   3.235   3.217   2.608 -0.1345  0.6201 -0.6872
  625SOL    MW4 2274   3.159   3.174   2.600  0.6803 -0.1421 -0.0945
  626SOL     OW 2275   5.652   4.238   6.380 -0.0798  0.2658 -0.1914
  626SOL    HW2 2276   5.714   4.207   6.446 -0.9168 -0.1151  0.4327
  626SOL    HW3 2277   5.675   4.330   6.367  2.2171 -0.4371 -1.8167
  626SOL    MW4 2278   5.663   4.246   6.387  0.5356 -0.3364  0.3213
  627SOL     OW 2279   2.346   1.600   6.181 -0.6068 -0.6737  0.2915
  627SOL    HW2 2280   2.293   1.529   6.215 -1.5724  0.4524  1.2295
  627SOL    HW3 2281   2.342   1.667   6.249 -0.1785  0.4949 -0.7979
  627SOL    MW4 2282   2.339   1.600   6.194 -0.8059  0.4948  0.2507
  628SOL     OW 2283   5.565   2.958   3.208  0.2243  0.0536  0.4789
  628SOL    HW2 2284   5.658   2.983   3.206  0.1127  0.5496 -2.3685
  628SOL    HW3 2285   5.520   3.029   3.164 -1.3905 -0.6743  0.8902
  628SOL    MW4 2286   5.571   2.970   3.202  0.5596 -0.2352  0.4937
  629SOL     OW 2287   1.995   4.320   0.528 -0.0678  0.7190  0.5097
  629SOL    HW2 2288   2.052   4.279   0.463 -0.8263  1.0668 -0.4044
  629SOL    HW3 2289   2.009   4.270   0.608  0.7813  0.1895  0.0474
  629SOL    MW4 2290   2.005   4.308   0.530  0.1132  0.1826  0.2954
  630SOL     OW 2291   2.472   0.778   3.622 -0.6049 -0.4717  0.3343
  630SOL    HW2 2292   2.547   0.763   3.679 -0.2197  0.6355  0.1512
  630SOL    HW3 2293   2.490   0.725   3.544  2.0711  2.7034 -1.4886
  630SOL    MW4 2294   2.484   0.769   3.619 -0.1583 -0.1733  0.7014
  631SOL     OW 2295   3.840   1.091   2.680 -0.3790 -0.6097  0.1134
  631SOL    HW2 2296   3.906   1.060   2.742  0.4405 -0.2849 -0.5818
  631SOL    HW3 2297   3.856   1.185   2.672 -0.9462 -0.5221 -0.0389
  631SOL    MW4 2298   3.851   1.099   2.687  0.5237  0.3720 -0.1132
  632SOL     OW 2299   5.548   0.916   0.576 -0.2388  0.4934 -0.0070
  632SOL    HW2 2300   5.499   0.894   0.655 -1.6505 -2.4041 -1.5547
  632SOL    HW3 2301   5.586   0.833   0.548 -0.2076  1.3269 -2.6462
  632SOL    MW4 2302   5.547   0.902   0.583  0.0667  0.0252  1.1219
  633SOL     OW 2303   4.685   2.768   1.386  0.2867  0.7054  0.0927
  633SOL    HW2 2304   4.738   2.824   1.442  0.7770  1.2302 -0.8820
  633SOL    HW3 2305   4.733   2.763   1.304 -0.8594  0.6837 -0.6014
  633SOL    MW4 2306   4.698   2.775   1.383 -0.6271  0.0400 -0.1459
  634SOL     OW 2307   2.205   4.309   1.432 -0.5705 -0.1884  0.4527
  634SOL    HW2 2308   2.266   4.376   1.464  1.2232 -1.9353  0.8734
  634SOL    HW3 2309   2.132   4.311   1.494 -0.0853  0.6902  1.0225
  634SOL    MW4 2310   2.204   4.318   1.444  0.2411 -0.1358 -0.4291
  635SOL     OW 2311   2.698   5.591   4.810 -0.3926  0.2329  0.2753
  635SOL    HW2 2312   2.678   5.581   4.717  0.1915 -0.9605  0.2626
  635SOL    HW3 2313   2.793   5.582   4.815 -0.5750 -1.6098  1.1853
  635SOL    MW4 2314   2.708   5.589   4.799 -0.2526 -0.1543 -0.0969
  636SOL     OW 2315   2.979   5.539   0.686  0.2654  0.2394  0.1008
  636SOL    HW2 2316   3.065   5.502   0.709  0.9579  1.5533 -0.2986
  636SOL    HW3 2317   2.978   5.624   0.729  0.1112  1.2139 -1.7657
  636SOL    MW4 2318   2.990   5.545   0.695 -0.2832 -0.5903  0.0511
  637SOL     OW 2319   1.561   0.731   3.212  0.3634 -0.0161  0.0129
  637SOL    HW2 2320   1.582   0.797   3.145 -0.5363 -0.3706 -0.6306
  637SOL    HW3 2321   1.517   0.661   3.164 -2.4429  0.7418  1.2805
  637SOL    MW4 2322   1.558   0.731   3.197  0.0970  0.2757  0.3011
  638SOL     OW 2323   0.005   0.260   3.778  1.0611  0.1256 -0.1254
  638SOL    HW2 2324  -0.009   0.326   3.710  0.7881  0.3928  0.1840
  638SOL    HW3 2325   0.078   0.294   3.830  0.1174  0.8245  0.7918
  638SOL    MW4 2326   0.013   0.273   3.776 -0.1826 -0.3199 -0.0031
  639SOL     OW 2327   1.306   2.687   0.689  0.2119 -0.8261  0.0287
  639SOL    HW2 2328   1.263   2.629   0.626  0.3786 -1.1722  0.2280
  639SOL    HW3 2329   1.249   2.685   0.766 -0.1922 -0.0984 -0.2472
  639SOL    MW4 2330   1.293   2.679   0.691  0.3695  0.3954 -0.3830
  640SOL     OW 2331   2.189   5.104   0.961  0.9337  0.3187  0.1511
  640SOL    HW2 2332   2.259   5.048   0.928  1.2778  0.0545  1.3046
  640SOL    HW3 2333   2.229   5.191   0.967  0.6233  0.5479 -0.9029
  640SOL    MW4 2334   2.204   5.108   0.957 -0.3545  0.4880  0.2362
  641SOL     OW 2335   5.343   5.734   2.972  0.4915 -0.0744 -0.6282
  641SOL    HW2 2336   5.433   5.751   2.945  0.4596  0.9631 -0.1344
  641SOL    HW3 2337   5.340   5.761   3.064  0.2057 -2.0701 -0.0168
  641SOL    MW4 2338   5.354   5.740   2.981  0.3719  0.5873 -0.3676
  642SOL     OW 2339   5.745   5.638   3.908 -0.0032  0.1430  0.3128
  642SOL    HW2 2340   5.808   5.573   3.876  0.5723  1.1951 -0.7828
  642SOL    HW3 2341   5.763   5.716   3.856 -2.7061  0.2942 -0.5391
  642SOL    MW4 2342   5.756   5.639   3.897 -0.3011 -0.7875 -0.2843
  643SOL     OW 2343   3.817   5.718   6.157  0.2100 -0.1697 -0.4799
  643SOL    HW2 2344   3.885   5.736   6.222 -0.1090 -0.5649 -0.0207
  643SOL    HW3 2345   3.744   5.684   6.209  0.0494 -0.7594 -1.0790
  643SOL    MW4 2346   3.816   5.716   6.173  0.2419  0.0223  0.4182
  644SOL     OW 2347   2.481   4.838   3.605 -0.3112 -0.0420 -0.1747
  644SOL    HW2 2348   2.460   4.916   3.658  0.5811  0.1901 -0.1400
  644SOL    HW3 2349   2.436   4.853   3.522 -1.5766 -0.3208  0.4260
  644SOL    MW4 2350   2.472   4.851   3.601  0.1036  0.0309 -0.0087
  645SOL     OW 2351   2.146   6.247   2.717 -0.1094  0.1757  0.1233
  645SOL    HW2 2352   2.115   6.188   2.786  0.1587 -0.2986 -0.1582
  645SOL    HW3 2353   2.087   6.323   2.722  1.2564  1.2110  2.3700
  645SOL    MW4 2354   2.134   6.249   2.727  0.2505  0.4014 -0.1508
  646SOL     OW 2355   4.027   1.464   2.359  0.0801  0.3749  0.4648
  646SOL    HW2 2356   3.934   1.482   2.340 -0.4710 -2.4528  0.1328
  646SOL    HW3 2357   4.050   1.392   2.301  2.8401  1.6258 -0.1519
  646SOL    MW4 2358   4.018   1.457   2.349 -0.8682  0.0761 -0.1559
  647SOL     OW 2359   2.300   0.360   1.425 -0.2810  0.3445  0.4287
  647SOL    HW2 2360   2.222   0.337   1.375  0.1497  0.4653 -0.3141
  647SOL    HW3 2361   2.284   0.451   1.453  0.1105  0.7965 -0.7615
  647SOL    MW4 2362   2.287   0.369   1.422  0.3709 -0.6272 -0.0531
  648SOL     OW 2363   5.611   0.620   0.929 -0.1244  0.0507  0.0688
  648SOL    HW2 2364   5.653   0.629   0.844  0.3790  0.2353  0.3324
  648SOL    HW3 2365   5.630   0.702   0.974  0.3787 -0.3899  0.6870
  648SOL    MW4 2366   5.619   0.632   0.924  0.4430 -0.1377  0.0126
  649SOL     OW 2367   5.323   1.601   1.328  0.3220 -0.1089 -0.1189
  649SOL    HW2 2368   5.273   1.617   1.248 -0.0717  2.7804  0.6056
  649SOL    HW3 2369   5.398   1.550   1.300 -1.6430 -2.3559 -1.6653
  649SOL    MW4 2370   5.326   1.596   1.314  0.4498  0.0370 -0.3308
  650SOL     OW 2371   1.102   0.802   0.122 -0.2637 -0.4585 -0.1818
  650SOL    HW2 2372   1.121   0.896   0.113 -1.2485 -0.4492 -3.3177
  650SOL    HW3 2373   1.036   0.798   0.191  0.0419  1.1102  0.2543
  650SOL    MW4 2374   1.096   0.814   0.130  0.2400  0.1938 -0.6630
  651SOL     OW 2375   6.235   0.417   5.447  1.0070  0.0536 -0.7333
  651SOL    HW2 2376   6.147   0.432   5.414  1.2236 -0.3532 -1.5078
  651SOL    HW3 2377   6.261   0.501   5.485  0.4268  0.2724 -0.8107
  651SOL    MW4 2378   6.227   0.430   5.448  0.7941  0.1018  0.0989
  652SOL     OW 2379   2.687   5.053   3.390  0.3500  0.0101  0.2762
  652SOL    HW2 2380   2.767   5.051   3.339 -0.4854  0.6486 -1.1252
  652SOL    HW3 2381   2.645   5.136   3.367 -0.6448 -0.2438  1.0769
  652SOL    MW4 2382   2.692   5.064   3.380 -0.5867 -0.2048  0.2000
  653SOL     OW 2383   5.098   2.038   1.672  0.0399 -0.9470  0.4811
  653SOL    HW2 2384   5.042   2.040   1.594  1.5905 -0.7781 -0.6923
  653SOL    HW3 2385   5.058   2.100   1.732  0.4924  1.3436 -1.4427
  653SOL    MW4 2386   5.085   2.046   1.669 -0.2672 -0.0606  0.1381
  654SOL     OW 2387   5.645   2.078   4.440 -0.4327  0.0177  0.0849
  654SOL    HW2 2388   5.596   2.132   4.502 -0.7264 -0.1338 -0.0164
  654SOL    HW3 2389   5.654   2.134   4.362 -1.7891 -0.5071 -0.4751
  654SOL    MW4 2390   5.640   2.093   4.438 -0.3309 -0.0958 -0.1097
  655SOL     OW 2391   3.199   1.549   4.500  0.3079  0.3205  0.0264
  655SOL    HW2 2392   3.226   1.606   4.428  0.1688  0.2722 -0.0638
  655SOL    HW3 2393   3.279   1.505   4.528  0.1483 -0.6223 -0.9324
  655SOL    MW4 2394   3.213   1.551   4.494 -0.1157 -0.3434  0.5945
  656SOL     OW 2395   3.746   2.418   1.365 -0.2984 -0.5518 -0.3931
  656SOL    HW2 2396   3.743   2.514   1.372  1.8095 -0.4297 -0.5418
  656SOL    HW3 2397   3.773   2.389   1.452  2.1869 -0.7183 -1.1265
  656SOL    MW4 2398   3.749   2.427   1.377  0.4093 -0.1071 -0.1463
  657SOL     OW 2399   3.709   2.756   1.842 -0.3055 -0.1237 -1.1062
  657SOL    HW2 2400   3.658   2.698   1.786 -0.2147  0.5004 -1.8496
  657SOL    HW3 2401   3.644   2.802   1.895 -0.4420 -0.2189 -1.1919
  657SOL    MW4 2402   3.694   2.755   1.842 -0.0423  0.9122  0.2408
  658SOL     OW 2403   4.062   5.076   3.532  0.4676  0.4773  0.4540
  658SOL    HW2 2404   3.975   5.090   3.494  0.1112 -1.2441  0.5585
  658SOL    HW3 2405   4.065   5.135   3.607 -0.6977  0.4328  0.5583
  658SOL    MW4 2406   4.051   5.085   3.537  0.2332 -0.0772 -0.0090
  659SOL     OW 2407   4.514   5.964   6.037  0.6537  0.5562 -0.2343
  659SOL    HW2 2408   4.520   5.989   5.945 -0.0685  1.4232 -0.0594
  659SOL    HW3 2409   4.421   5.947   6.051  0.9752 -1.2467 -0.0736
  659SOL    MW4 2410   4.502   5.965   6.027 -0.2477 -0.1726 -0.5168
  660SOL     OW 2411   0.534   3.862   3.727  0.1927  0.7937  0.2441
  660SOL    HW2 2412   0.595   3.932   3.749 -0.1246  0.4608  2.4707
  660SOL    HW3 2413   0.466   3.868   3.795 -0.8102 -0.5218 -0.6032
  660SOL    MW4 2414   0.533   3.872   3.739 -0.5130 -0.8402 -0.1657
  661SOL     OW 2415   3.449   0.604   4.379  0.1227  0.7758 -0.2553
  661SOL    HW2 2416   3.484   0.618   4.291  1.4678 -0.0687  0.1130
  661SOL    HW3 2417   3.444   0.509   4.388  0.7565  0.8305  0.8536
  661SOL    MW4 2418   3.453   0.594   4.369 -0.2986 -0.8504 -0.3525
  662SOL     OW 2419   0.609   6.172   5.486 -0.0400 -0.2088 -0.5435
  662SOL    HW2 2420   0.676   6.110   5.515 -0.1035  0.3550  0.8931
  662SOL    HW3 2421   0.635   6.256   5.525 -2.2260 -0.2195  1.1494
  662SOL    MW4 2422   0.621   6.175   5.495  0.2789 -0.7043 -0.1465
  663SOL     OW 2423   4.409   3.269   0.612 -0.3081  0.4829 -0.3195
  663SOL    HW2 2424   4.340   3.251   0.675 -0.4115  1.0727 -0.2560
  663SOL    HW3 2425   4.449   3.184   0.595 -3.3273 -0.5825 -3.0934
  663SOL    MW4 2426   4.405   3.255   0.618  0.3851  0.2769 -0.4104
  664SOL     OW 2427   5.590   3.839   4.218  0.1317  0.4342  0.0897
  664SOL    HW2 2428   5.545   3.923   4.211 -0.0798  0.4738  1.6483
  664SOL    HW3 2429   5.551   3.786   4.149 -1.3610  0.9007  0.5225
  664SOL    MW4 2430   5.579   3.843   4.208  0.0345 -0.6206  0.5009
  665SOL     OW 2431   3.385   6.044   1.403 -0.2530 -0.0348  0.0800
  665SOL    HW2 2432   3.409   6.044   1.496 -1.5990 -1.5078  0.4749
  665SOL    HW3 2433   3.296   6.080   1.401  0.0337  0.6520 -0.7297
  665SOL    MW4 2434   3.376   6.049   1.415 -0.3199 -0.0569 -0.2640
  666SOL     OW 2435   4.753   2.549   3.988 -0.2669  0.0082  0.9774
  666SOL    HW2 2436   4.829   2.500   4.019 -0.0161 -0.2794 -0.0717
  666SOL    HW3 2437   4.765   2.637   4.024 -0.6202 -0.6006  2.7154
  666SOL    MW4 2438   4.764   2.554   3.997  0.0454 -0.0694  0.3740
  667SOL     OW 2439   3.235   2.253   2.195 -0.4758  0.7323 -0.5611
  667SOL    HW2 2440   3.266   2.174   2.149  0.1178 -0.2458  1.4107
  667SOL    HW3 2441   3.268   2.325   2.142  0.5148 -0.3384 -1.4753
  667SOL    MW4 2442   3.243   2.252   2.182  0.5473  0.6387 -0.1576
  668SOL     OW 2443   3.193   0.684   3.132  0.2338 -0.2540 -0.0284
  668SOL    HW2 2444   3.232   0.652   3.213 -2.0445 -0.2977  1.1329
  668SOL    HW3 2445   3.195   0.779   3.140  0.6771 -0.2457 -0.2538
  668SOL    MW4 2446   3.198   0.692   3.144  0.2981 -0.5270 -0.2405
  669SOL     OW 2447   0.449   4.593   0.944 -0.0654  0.4546  0.2763
  669SOL    HW2 2448   0.451   4.536   0.867 -1.7500 -0.2433  0.6876
  669SOL    HW3 2449   0.524   4.566   0.996  1.3643  1.2378 -1.2855
  669SOL    MW4 2450   0.459   4.582   0.941 -0.6360 -0.1975 -0.0984
  670SOL     OW 2451   0.848   6.312   3.869 -0.4460  0.3653 -0.8949
  670SOL    HW2 2452   0.795   6.243   3.827  0.8116 -0.5022 -1.1133
  670SOL    HW3 2453   0.826   6.306   3.961  0.2338 -0.9122 -0.7837
  670SOL    MW4 2454   0.838   6.302   3.875  0.2073  0.6758  0.3250
  671SOL     OW 2455   2.191   4.154   3.261 -0.0139  0.0349  0.1497
  671SOL    HW2 2456   2.258   4.187   3.322  0.8841 -0.0225 -0.7728
  671SOL    HW3 2457   2.216   4.063   3.244  0.4384  0.3707 -1.1664
  671SOL    MW4 2458   2.203   4.147   3.267 -0.0416  0.3396  0.0960
  672SOL     OW 2459   4.681   1.165   3.731 -0.2166 -0.5675 -0.2292
  672SOL    HW2 2460   4.616   1.235   3.735  0.7979  0.3506  2.5851
  672SOL    HW3 2461   4.653   1.110   3.658 -3.3821  0.4861  0.0514
  672SOL    MW4 2462   4.669   1.167   3.722  0.4985  0.4814 -0.9929
  673SOL     OW 2463   1.639   0.952   3.087  0.3924  0.6950  0.0518
  673SOL    HW2 2464   1.667   0.915   3.003  0.4524  0.5403  0.1383
  673SOL    HW3 2465   1.713   1.007   3.114  0.3866  0.7189  0.0191
  673SOL    MW4 2466   1.653   0.954   3.079 -0.1731 -0.2668  0.5764
  674SOL     OW 2467   0.355   5.895   3.287  0.1859 -0.1959 -0.2269
  674SOL    HW2 2468   0.350   5.844   3.368  0.9093 -0.7246 -0.5117
  674SOL    HW3 2469   0.272   5.944   3.285 -0.0894 -0.6106  0.5379
  674SOL    MW4 2470   0.343   5.895   3.298 -0.2519 -0.1144  0.3320
  675SOL     OW 2471   1.689   0.291   3.656 -0.2491 -0.1998  0.2986
  675SOL    HW2 2472   1.676   0.197   3.663  0.5156 -0.2581  1.0643
  675SOL    HW3 2473   1.743   0.314   3.731 -0.3717  0.8438  0.0891
  675SOL    MW4 2474   1.694   0.282   3.667  0.2422  0.2417 -0.1131
  676SOL     OW 2475   1.640   4.732   2.416 -0.2551 -0.0225 -0.0835
  676SOL    HW2 2476   1.682   4.737   2.330 -1.1219  1.6061 -0.4560
  676SOL    HW3 2477   1.713   4.721   2.477  0.3133 -2.2309 -1.0595
  676SOL    MW4 2478   1.655   4.731   2.412  0.3943  0.9791 -0.6160
  677SOL     OW 2479   2.204   2.469   1.442 -0.4187 -0.0919  0.4992
  677SOL    HW2 2480   2.120   2.497   1.404 -0.2923 -1.5076 -0.9278
  677SOL    HW3 2481   2.179   2.420   1.520 -0.8349  0.5838  0.8052
  677SOL    MW4 2482   2.189   2.467   1.447 -0.0910 -0.4343 -0.0875
  678SOL     OW 2483   2.130   0.280   2.946 -0.0675  0.2416  0.0583
  678SOL    HW2 2484   2.169   0.193   2.947 -2.3196 -0.8380 -0.6370
  678SOL    HW3 2485   2.050   0.272   2.998 -0.5536  1.7733 -0.3970
  678SOL    MW4 2486   2.125   0.268   2.953  0.5333  1.0211 -0.4266
  679SOL     OW 2487   2.663   4.284   4.689  0.0004  0.3317 -0.1898
  679SOL    HW2 2488   2.648   4.315   4.778 -0.2300 -1.1326  0.3009
  679SOL    HW3 2489   2.647   4.361   4.634 -2.4122  0.6289  0.8099
  679SOL    MW4 2490   2.659   4.298   4.693  0.4473 -0.1282 -0.2531
  680SOL     OW 2491   5.752   1.594   6.024  0.3682 -0.3053  0.2468
  680SOL    HW2 2492   5.831   1.648   6.016 -0.1721  0.5520  0.6402
  680SOL    HW3 2493   5.709   1.602   5.939 -0.8964  1.7821  1.0248
  680SOL    MW4 2494   5.757   1.602   6.012 -0.4717 -0.2729  0.1133
  681SOL     OW 2495   0.526   2.993   4.291  0.5896  0.1307 -0.5685
  681SOL    HW2 2496   0.475   3.056   4.240 -0.1282  1.3113  1.4734
  681SOL    HW3 2497   0.461   2.944   4.342  1.3249 -0.1969  0.0851
  681SOL    MW4 2498   0.511   2.995   4.291  0.4687 -0.1880  0.2994
  682SOL     OW 2499   2.477   4.895   3.298  0.6964  0.7904 -0.8663
  682SOL    HW2 2500   2.549   4.949   3.330 -0.4758  1.9570 -0.0994
  682SOL    HW3 2501   2.414   4.957   3.262 -1.9631  0.3858  2.4746
  682SOL    MW4 2502   2.478   4.910   3.298  0.1865  0.0177 -0.0423
  683SOL     OW 2503   2.178   3.858   1.424  0.4283  0.3460 -0.2080
  683SOL    HW2 2504   2.230   3.920   1.373 -0.5880  0.0248 -1.7027
  683SOL    HW3 2505   2.113   3.825   1.363 -0.2343 -0.8125  1.0578
  683SOL    MW4 2506   2.176   3.862   1.410 -0.6889  0.2788  0.3795
  684SOL     OW 2507   0.360   0.151   3.243  0.1544  0.0890 -0.5367
  684SOL    HW2 2508   0.331   0.140   3.333 -1.4981 -0.9970 -1.1503
  684SOL    HW3 2509   0.302   0.219   3.207  1.3006  1.0751 -0.6056
  684SOL    MW4 2510   0.349   0.159   3.250 -0.0402 -0.0650  0.2673
  685SOL     OW 2511   0.634   5.014   1.459  0.3759  0.5713  0.0592
  685SOL    HW2 2512   0.657   4.986   1.371  0.8922  0.1481  0.3253
  685SOL    HW3 2513   0.539   5.024   1.457  0.1317 -1.3780 -0.0110
  685SOL    MW4 2514   0.624   5.012   1.447 -0.3620  0.2858  0.3942
  686SOL     OW 2515   5.873   2.021   0.753  0.0878  0.3385  0.0865
  686SOL    HW2 2516   5.842   1.951   0.696  0.0517  1.5307 -1.4405
  686SOL    HW3 2517   5.961   1.995   0.779 -0.0662 -0.4293 -0.1417
  686SOL    MW4 2518   5.880   2.008   0.749 -0.1120  0.0014 -0.5655
  687SOL     OW 2519   4.990   1.164   5.824  0.2538  0.4122  0.2091
  687SOL    HW2 2520   4.978   1.189   5.733  3.4353  0.4015 -0.3126
  687SOL    HW3 2521   5.080   1.188   5.845  0.6247 -2.3174  2.4356
  687SOL    MW4 2522   5.000   1.171   5.815  0.4946  0.5928 -0.3728
  688SOL     OW 2523   0.112   1.273   0.798  0.1760  0.2161  0.1993
  688SOL    HW2 2524   0.017   1.262   0.801 -0.4234  3.1257 -2.3128
  688SOL    HW3 2525   0.131   1.337   0.867  0.4881 -0.8778  1.1645
  688SOL    MW4 2526   0.102   1.280   0.808  0.3233  0.9342  0.5001
  689SOL     OW 2527   4.947   4.935   5.541  0.7211  0.1452 -0.2304
  689SOL    HW2 2528   4.965   4.849   5.502  2.7744  0.7646 -0.7768
  689SOL    HW3 2529   5.034   4.971   5.560 -0.1388  1.2919  1.8411
  689SOL    MW4 2530   4.961   4.928   5.538  0.0595 -0.2285 -0.2463
  690SOL     OW 2531   4.829   3.469   2.131 -0.2480  0.5252 -0.6764
  690SOL    HW2 2532   4.879   3.532   2.079  1.8076  0.4949  1.1152
  690SOL    HW3 2533   4.796   3.521   2.205  0.0594 -0.1435 -0.0590
  690SOL    MW4 2534   4.831   3.484   2.134  0.0521 -0.3481  0.2280
  691SOL     OW 2535   3.458   2.787   3.288  0.0180  0.3951  0.5282
  691SOL    HW2 2536   3.543   2.742   3.291  0.2551  0.7466 -0.3520
  691SOL    HW3 2537   3.401   2.726   3.240 -0.2804  0.0842  1.2712
  691SOL    MW4 2538   3.462   2.773   3.282 -0.2762  1.0742 -0.4279
  692SOL     OW 2539   4.109   1.720   1.597  0.3538 -0.2759 -0.9087
  692SOL    HW2 2540   4.052   1.669   1.540 -0.4552  0.4776 -0.7941
  692SOL    HW3 2541   4.052   1.750   1.668  0.7511  0.9698 -1.0941
  692SOL    MW4 2542   4.094   1.718   1.599  0.2772  0.2085  0.4713
  693SOL     OW 2543   0.596   2.149   2.700  0.0711  0.2888 -0.0369
  693SOL    HW2 2544   0.660   2.179   2.634 -0.3571  2.8131  0.5816
  693SOL    HW3 2545   0.644   2.151   2.782 -0.1415 -0.2143  0.1017
  693SOL    MW4 2546   0.611   2.153   2.702  0.0473  0.1249  0.1120
  694SOL     OW 2547   5.028   0.621   5.036  0.4017  0.1194  0.2776
  694SOL    HW2 2548   4.941   0.656   5.056  0.0419  0.2237 -1.2976
  694SOL    HW3 2549   5.013   0.529   5.017  0.3821  0.4118 -1.2878
  694SOL    MW4 2550   5.014   0.614   5.036  0.0871 -0.0929 -0.1656
  695SOL     OW 2551   1.102   2.402   4.998 -0.5447 -0.1278  0.2010
  695SOL    HW2 2552   1.138   2.326   4.953  2.0178  0.5048  1.0137
  695SOL    HW3 2553   1.046   2.445   4.933  0.4231 -1.0059 -1.2666
  695SOL    MW4 2554   1.099   2.398   4.984  0.7717 -0.3294  0.3058
  696SOL     OW 2555   0.600   1.870   2.648 -0.4608 -0.3083 -0.0279
  696SOL    HW2 2556   0.619   1.963   2.662  1.1940 -0.8780  2.1434
  696SOL    HW3 2557   0.584   1.862   2.554 -1.1391  2.2292 -0.1939
  696SOL    MW4 2558   0.600   1.881   2.638 -0.3246  0.3622 -0.1743
  697SOL     OW 2559   3.171   5.124   3.391  0.3622  0.0109 -0.3112
  697SOL    HW2 2560   3.141   5.139   3.480 -1.0475 -0.3950 -0.6963
  697SOL    HW3 2561   3.206   5.035   3.393 -0.1051 -0.1750 -0.2655
  697SOL    MW4 2562   3.172   5.114   3.403 -0.1500  0.0056  0.2144
  698SOL     OW 2563   4.216   5.531   0.916 -0.2585  0.4280 -0.4741
  698SOL    HW2 2564   4.222   5.621   0.948  1.5475  0.0951  0.2328
  698SOL    HW3 2565   4.289   5.523   0.855 -0.2252 -0.6587 -0.3009
  698SOL    MW4 2566   4.226   5.542   0.912 -0.2414 -0.4204 -0.2843
  699SOL     OW 2567   2.513   0.389   0.041  0.1094 -0.3903 -0.0832
  699SOL    HW2 2568   2.603   0.413   0.062  0.1758 -0.1298 -0.6361
  699SOL    HW3 2569   2.519   0.300   0.005 -0.0023 -0.8285  0.9501
  699SOL    MW4 2570   2.526   0.381   0.039 -0.0008  0.1466 -0.1471
  700SOL     OW 2571   4.185   3.246   6.058 -0.3303 -0.2457  0.2620
  700SOL    HW2 2572   4.168   3.339   6.048 -0.2187 -0.1501  0.9601
  700SOL    HW3 2573   4.137   3.220   6.136 -0.6163 -0.8431 -0.0984
  700SOL    MW4 2574   4.177   3.255   6.067 -0.0737 -0.2434  0.2701
  701SOL     OW 2575   6.166   3.496   3.375  0.8473  0.2626 -0.4341
  701SOL    HW2 2576   6.141   3.424   3.317  0.2508 -0.4722  0.7225
  701SOL    HW3 2577   6.231   3.459   3.434  0.9693  0.8382 -0.1993
  701SOL    MW4 2578   6.171   3.482   3.375 -0.7175 -0.0455 -0.5631
  702SOL     OW 2579   0.317   6.267   0.055  0.3457 -0.0293  0.3815
  702SOL    HW2 2580   0.261   6.197   0.022  2.0504 -0.6357 -1.3976
  702SOL    HW3 2581   0.343   6.315  -0.024  2.0833  0.4078  1.1889
  702SOL    MW4 2582   0.313   6.264   0.040  0.4292 -0.6119 -0.2433
  703SOL     OW 2583   5.065   2.955   2.001 -0.0096 -0.1833 -0.0425
  703SOL    HW2 2584   5.108   2.904   1.932  1.6842  1.3402 -0.1791
  703SOL    HW3 2585   5.120   3.032   2.011 -1.3395  0.5947  1.6392
  703SOL    MW4 2586   5.078   2.958   1.993 -0.1516 -0.4425 -0.1890
  704SOL     OW 2587   5.161   4.153   0.094 -0.4932 -0.2058  0.1659
  704SOL    HW2 2588   5.149   4.129   0.002  0.7724 -0.5496  0.0743
  704SOL    HW3 2589   5.254   4.138   0.111 -0.8892 -1.0383  1.7652
  704SOL    MW4 2590   5.172   4.148   0.084  0.1005 -0.0700  0.3778
  705SOL     OW 2591   3.462   3.162   5.981 -0.5478 -0.3283  0.6244
  705SOL    HW2 2592   3.511   3.241   6.001 -2.0509  0.5996  0.8069
  705SOL    HW3 2593   3.372   3.192   5.967 -1.2191 -2.0298  0.9845
  705SOL    MW4 2594   3.457   3.176   5.982 -0.6806 -0.0374 -0.5078
  706SOL     OW 2595   3.310   2.566   3.177  0.0706 -0.7163 -0.1376
  706SOL    HW2 2596   3.238   2.615   3.137  0.6839  0.4987  0.2063
  706SOL    HW3 2597   3.373   2.555   3.106  1.4568  2.0141  0.5408
  706SOL    MW4 2598   3.308   2.571   3.162  0.1445  0.0258 -0.2475
  707SOL     OW 2599   0.826   5.491   6.209  0.3505  0.0867 -0.6207
  707SOL    HW2 2600   0.856   5.581   6.220  1.6413 -0.3997 -0.0212
  707SOL    HW3 2601   0.847   5.469   6.118  0.8192  0.1082 -0.5185
  707SOL    MW4 2602   0.832   5.500   6.198 -0.8447 -0.1061  0.2769
  708SOL     OW 2603   0.993   4.257   0.949  0.0929 -0.4841 -0.9136
  708SOL    HW2 2604   0.942   4.263   1.030 -1.9549 -1.2745 -2.0612
  708SOL    HW3 2605   0.979   4.341   0.906  2.9162  0.8020  0.4055
  708SOL    MW4 2606   0.984   4.269   0.954  0.1741 -0.0725 -0.3745
  709SOL     OW 2607   1.455   2.989   5.314 -0.0252  0.9417  0.3444
  709SOL    HW2 2608   1.526   2.960   5.257 -1.2497 -0.1243 -0.6891
  709SOL    HW3 2609   1.433   3.077   5.282 -0.8892  0.2480 -1.0821
  709SOL    MW4 2610   1.461   2.997   5.302  0.2322  0.5713  0.2889
  710SOL     OW 2611   5.863   5.587   5.202  0.0087  0.1606  0.2695
  710SOL    HW2 2612   5.843   5.548   5.117  1.1705  1.8519 -0.8574
  710SOL    HW3 2613   5.803   5.545   5.263 -0.4089 -1.5912 -1.2598
  710SOL    MW4 2614   5.853   5.576   5.199 -0.2952  0.1498 -0.7845
  711SOL     OW 2615   6.196   4.952   1.985  0.0472  0.4156  0.4298
  711SOL    HW2 2616   6.233   5.029   1.943  0.6623 -0.2838 -0.3487
  711SOL    HW3 2617   6.255   4.880   1.960 -1.9908 -0.8152 -1.1832
  711SOL    MW4 2618   6.209   4.952   1.976 -0.0894 -0.5907  0.3026
  712SOL     OW 2619   5.707   0.827   5.424  0.2143 -0.3492 -0.2210
  712SOL    HW2 2620   5.803   0.828   5.419  0.2023 -0.7727 -0.5590
  712SOL    HW3 2621   5.678   0.824   5.333 -0.1258 -0.0544 -0.1243
  712SOL    MW4 2622   5.716   0.827   5.412 -0.4435 -0.3322  0.3534
  713SOL     OW 2623   0.025   0.415   0.163  0.8636  0.1526  0.5276
  713SOL    HW2 2624   0.044   0.330   0.202 -2.4971  0.7528  4.1376
  713SOL    HW3 2625  -0.017   0.395   0.080  0.4485 -1.7173  1.1478
  713SOL    MW4 2626   0.022   0.401   0.157  0.0307  0.0746  0.2677
  714SOL     OW 2627   0.328   3.827   4.271 -0.5338  0.7740 -0.7013
  714SOL    HW2 2628   0.343   3.834   4.177 -2.7175  1.4721 -1.0642
  714SOL    HW3 2629   0.235   3.804   4.279 -0.1415 -0.3892  1.2761
  714SOL    MW4 2630   0.318   3.825   4.260 -0.3803 -0.5801  0.1357
  715SOL     OW 2631   6.385   0.235   5.254  0.0989 -0.5655 -0.8333
  715SOL    HW2 2632   6.373   0.145   5.286  3.9570 -0.8628  0.2713
  715SOL    HW3 2633   6.351   0.290   5.325 -0.0445 -1.1841 -0.4115
  715SOL    MW4 2634   6.379   0.230   5.268 -0.0456  0.2631 -0.4823
  716SOL     OW 2635   2.722   4.753   4.957 -0.0088 -0.1081 -0.0073
  716SOL    HW2 2636   2.661   4.723   4.890 -1.9280  0.0085  1.5917
  716SOL    HW3 2637   2.683   4.725   5.040  0.6034  2.4722  1.2685
  716SOL    MW4 2638   2.709   4.745   4.959 -0.3603  0.2834  0.1529
  717SOL     OW 2639   0.036   2.047   5.350 -0.3110 -0.1408  0.2309
  717SOL    HW2 2640   0.009   2.082   5.265 -1.3580  0.0508  0.6269
  717SOL    HW3 2641   0.117   2.093   5.371 -0.4359  0.3398 -0.3270
  717SOL    MW4 2642   0.043   2.058   5.341 -0.1143 -0.2582 -0.7843
  718SOL     OW 2643   5.983   1.179   2.218  0.0253  0.0212 -0.5864
  718SOL    HW2 2644   5.935   1.172   2.135 -0.4673 -2.5652 -0.1714
  718SOL    HW3 2645   5.916   1.194   2.284 -0.2749 -2.6973 -0.1259
  718SOL    MW4 2646   5.968   1.180   2.216 -0.1280 -0.3330  0.3056
  719SOL     OW 2647   4.446   5.237   3.153 -0.4357 -0.7148 -0.5775
  719SOL    HW2 2648   4.453   5.277   3.067 -1.3194 -0.4897 -0.5587
  719SOL    HW3 2649   4.536   5.230   3.184 -0.2283  4.0841  0.6919
  719SOL    MW4 2650   4.458   5.241   3.146  0.2118  0.0373  0.5230
  720SOL     OW 2651   0.222   5.491   1.746 -0.1159 -0.1071 -0.3999
  720SOL    HW2 2652   0.249   5.558   1.684 -2.1386  2.9917  1.7785
  720SOL    HW3 2653   0.286   5.496   1.817 -0.8404  0.2927  0.2419
  720SOL    MW4 2654   0.234   5.500   1.747 -0.4755  0.0924 -0.3048
  721SOL     OW 2655   0.058   0.493   4.117  0.2563 -0.0463 -0.0078
  721SOL    HW2 2656   0.009   0.567   4.080  0.6151  0.4456  0.5003
  721SOL    HW3 2657   0.107   0.457   4.042 -0.7776 -0.4795 -0.5053
  721SOL    MW4 2658   0.058   0.498   4.102 -1.0536 -0.8074  0.3920
  722SOL     OW 2659   3.589   4.448   0.109 -0.3236  0.2300 -0.8567
  722SOL    HW2 2660   3.617   4.471   0.021  2.3763  1.0079  0.0795
  722SOL    HW3 2661   3.660   4.393   0.143 -2.2218 -1.7132  0.1919
  722SOL    MW4 2662   3.602   4.444   0.102  0.5413 -0.5350 -0.1783
  723SOL     OW 2663   2.948   5.958   0.051 -0.1316 -0.0909  0.6243
  723SOL    HW2 2664   2.914   5.993  -0.032 -0.7384 -0.6209  0.6374
  723SOL    HW3 2665   2.875   5.907   0.087 -0.8809  2.3551  2.8504
  723SOL    MW4 2666   2.934   5.956   0.045 -0.1724 -0.0234 -0.3258
  724SOL     OW 2667   2.674   1.153   4.022  0.1167  0.3828 -0.3101
  724SOL    HW2 2668   2.697   1.182   3.933  0.1093  1.3112 -0.0224
  724SOL    HW3 2669   2.587   1.189   4.038 -0.3560 -0.7088 -0.3213
  724SOL    MW4 2670   2.666   1.161   4.012  0.0948 -0.0406  0.2428
  725SOL     OW 2671   0.007   6.092   2.573 -0.0117 -0.7453 -0.0889
  725SOL    HW2 2672  -0.083   6.108   2.546 -0.7162 -1.1481  1.8343
  725SOL    HW3 2673   0.020   5.998   2.560 -0.0575 -0.7844  0.1450
  725SOL    MW4 2674  -0.003   6.081   2.568 -0.1398  0.1385 -0.2597
  726SOL     OW 2675   5.839   3.554   3.673  0.2411 -0.1087  0.6576
  726SOL    HW2 2676   5.847   3.551   3.578 -1.9611 -0.3457  0.4297
  726SOL    HW3 2677   5.907   3.493   3.704  0.6664 -0.4072 -0.7645
  726SOL    MW4 2678   5.849   3.545   3.664 -0.0040 -0.3927 -0.5474
  727SOL     OW 2679   0.515   5.366   5.683  0.1407 -0.3767 -0.5184
  727SOL    HW2 2680   0.594   5.417   5.696  0.7614 -1.3891 -0.1632
  727SOL    HW3 2681   0.527   5.289   5.740 -0.6493 -1.0279 -1.2103
  727SOL    MW4 2682   0.527   5.362   5.693 -0.2781 -0.3055  0.0867
  728SOL     OW 2683   4.794   2.306   3.047 -0.1334 -0.1511  0.0326
  728SOL    HW2 2684   4.874   2.308   2.996 -0.1044  0.0205  0.0833
  728SOL    HW3 2685   4.725   2.329   2.985 -0.2505 -1.0850 -0.1994
  728SOL    MW4 2686   4.795   2.309   3.032  0.4952  0.2813 -0.4012
  729SOL     OW 2687   4.906   2.754   4.516  0.2027  0.4543 -0.4960
  729SOL    HW2 2688   4.895   2.709   4.432  0.1652 -0.4305 -0.0286
  729SOL    HW3 2689   4.897   2.847   4.495 -0.7875  0.1836 -1.3151
  729SOL    MW4 2690   4.904   2.760   4.502 -0.6553 -0.3243 -0.4075
  730SOL     OW 2691   3.082   5.215   3.650  0.2624 -0.2501  0.0171
  730SOL    HW2 2692   2.998   5.208   3.695 -0.1930 -0.6834 -0.8595
  730SOL    HW3 2693   3.089   5.307   3.626  1.0530  0.2258  1.9457
  730SOL    MW4 2694   3.071   5.226   3.653  0.4433 -0.5099 -0.0820
  731SOL     OW 2695   5.519   4.411   5.603 -0.2893 -0.0349  0.1250
  731SOL    HW2 2696   5.515   4.328   5.651  2.3959 -0.7601 -0.6989
  731SOL    HW3 2697   5.504   4.478   5.669 -0.4129 -1.1243  1.2405
  731SOL    MW4 2698   5.517   4.409   5.618 -0.1523  0.2260  0.1973
  732SOL     OW 2699   3.836   1.123   5.494  0.4353  0.3201  0.1715
  732SOL    HW2 2700   3.797   1.193   5.441 -0.1718 -0.5088 -0.4991
  732SOL    HW3 2701   3.918   1.161   5.527  0.6694  0.9698 -1.0884
  732SOL    MW4 2702   3.842   1.137   5.491 -0.1407 -0.4206 -0.3025
  733SOL     OW 2703   3.983   4.949   4.309 -0.2743 -0.4763 -0.0113
  733SOL    HW2 2704   4.047   4.877   4.308 -0.6715 -0.8985 -2.3134
  733SOL    HW3 2705   3.901   4.907   4.334 -0.7221 -1.1372 -2.3264
  733SOL    MW4 2706   3.981   4.934   4.312 -0.0083 -0.0618 -0.8170
  734SOL     OW 2707   4.482   2.515   5.433 -0.9321 -0.2464 -0.0689
  734SOL    HW2 2708   4.482   2.505   5.528 -1.1551  2.5043  0.3172
  734SOL    HW3 2709   4.565   2.559   5.414 -1.0892 -0.3624 -1.0961
  734SOL    MW4 2710   4.493   2.520   5.443  0.2998 -0.5173  0.2416
  735SOL     OW 2711   2.612   4.855   0.229 -0.1526  0.4093 -0.1754
  735SOL    HW2 2712   2.527   4.825   0.261  0.7457 -2.0225  0.1323
  735SOL    HW3 2713   2.676   4.816   0.288  1.2505  1.3647 -0.9868
  735SOL    MW4 2714   2.609   4.846   0.241 -0.1243 -0.2867  0.4859
  736SOL     OW 2715   5.879   1.386   2.662  0.0133 -0.4437 -0.1192
  736SOL    HW2 2716   5.866   1.357   2.572  1.1029  0.5928 -0.6409
  736SOL    HW3 2717   5.911   1.476   2.654  0.4013 -0.4282  1.2934
  736SOL    MW4 2718   5.881   1.394   2.649 -0.4317  0.3215  0.0521
  737SOL     OW 2719   5.577   2.940   2.442  0.2749  0.1978  0.1947
  737SOL    HW2 2720   5.649   2.985   2.398  0.8965 -1.5190 -0.6425
  737SOL    HW3 2721   5.608   2.850   2.454 -1.7789 -0.6644 -0.3762
  737SOL    MW4 2722   5.591   2.934   2.438 -0.0586  0.3071  0.4113
  738SOL     OW 2723   5.410   1.944   1.675 -0.7691 -0.3564  0.4958
  738SOL    HW2 2724   5.390   1.947   1.769  0.1964 -1.1505  0.7493
  738SOL    HW3 2725   5.470   1.870   1.666 -1.2273 -0.5913 -0.8325
  738SOL    MW4 2726   5.415   1.935   1.686  0.0540 -0.5564 -0.3007
  739SOL     OW 2727   4.897   5.295   0.649  0.1298  0.3437  0.0928
  739SOL    HW2 2728   4.929   5.205   0.642 -0.4520  0.1146  0.3128
  739SOL    HW3 2729   4.827   5.301   0.584 -0.3851  0.3851  0.6389
  739SOL    MW4 2730   4.892   5.284   0.639 -0.2024 -0.1576  0.3895
  740SOL     OW 2731   1.921   4.488   1.996 -0.2554 -0.2131  0.6055
  740SOL    HW2 2732   1.991   4.552   1.980 -0.5034  0.1461  0.9488
  740SOL    HW3 2733   1.846   4.523   1.948 -0.2955 -0.4326  0.5059
  740SOL    MW4 2734   1.921   4.501   1.987  0.1146 -0.0220  0.2429
  741SOL     OW 2735   2.075   6.040   2.970 -0.4111 -0.2347  0.3494
  741SOL    HW2 2736   2.170   6.044   2.986 -0.1762  1.2813 -1.0297
  741SOL    HW3 2737   2.051   5.949   2.988  1.9522 -1.5729 -2.3796
  741SOL    MW4 2738   2.085   6.029   2.974  0.0083 -0.0252  0.3524
  742SOL     OW 2739   1.177   6.037   1.377  0.6693  0.3535 -1.2626
  742SOL    HW2 2740   1.170   5.941   1.373  0.1533  0.0483  2.7710
  742SOL    HW3 2741   1.270   6.054   1.366  0.9574 -0.7771 -0.7999
  742SOL    MW4 2742   1.188   6.026   1.375  0.0694  0.6076  0.6075
  743SOL     OW 2743   5.987   6.389   0.029  0.0272  0.3411  0.0441
  743SOL    HW2 2744   6.043   6.355   0.099  0.7877  2.4874  0.5560
  743SOL    HW3 2745   5.898   6.374   0.061  0.3035 -1.0646  0.2441
  743SOL    MW4 2746   5.982   6.382   0.042 -0.0910 -0.3574 -0.8451
  744SOL     OW 2747   0.109   3.092   0.195 -0.1684  0.7122  0.5976
  744SOL    HW2 2748   0.134   3.000   0.199 -0.1626  0.7251  0.8726
  744SOL    HW3 2749   0.139   3.122   0.109 -1.6964  0.0125 -0.2311
  744SOL    MW4 2750   0.116   3.084   0.184  0.3125 -0.2460 -0.3821
  745SOL     OW 2751   0.563   6.008  -0.033 -0.5813 -0.1726  0.0489
  745SOL    HW2 2752   0.546   6.033   0.057 -0.3130 -1.6164  0.5235
  745SOL    HW3 2753   0.478   5.984  -0.069 -0.8488  1.3837 -0.4260
  745SOL    MW4 2754   0.550   6.008  -0.026  0.3128  0.3562  0.5564
  746SOL     OW 2755   3.684   2.665   0.295 -0.3144 -0.4670  0.8299
  746SOL    HW2 2756   3.711   2.754   0.315 -1.9299  0.2615  0.0007
  746SOL    HW3 2757   3.592   2.661   0.320 -0.4518 -1.6924  0.2437
  746SOL    MW4 2758   3.675   2.676   0.301  0.0268 -0.3387  0.3632
  747SOL     OW 2759   3.489   3.004   3.731  0.3000  0.1479 -0.3151
  747SOL    HW2 2760   3.457   3.071   3.670 -0.5228  1.3086  1.3191
  747SOL    HW3 2761   3.542   3.053   3.795 -1.2737 -0.5080  1.5858
  747SOL    MW4 2762   3.492   3.020   3.731 -0.2612  0.5366 -0.0248
  748SOL     OW 2763   6.144   4.406   0.885 -0.4196  0.1460  0.1105
  748SOL    HW2 2764   6.224   4.355   0.872 -0.8224 -1.1060  2.0601
  748SOL    HW3 2765   6.175   4.494   0.908  0.3950 -0.1727  0.2863
  748SOL    MW4 2766   6.159   4.411   0.887  0.0561  0.2621  0.4756
  749SOL     OW 2767   4.789   1.035   6.140 -0.1434 -0.6257 -0.4613
  749SOL    HW2 2768   4.741   1.059   6.218  0.9120 -2.4588  0.8351
  749SOL    HW3 2769   4.736   0.967   6.098 -0.8092  0.4915 -1.5194
  749SOL    MW4 2770   4.776   1.029   6.145  0.0110 -0.1870 -0.8052
  750SOL     OW 2771   6.407   0.145   3.512  0.3842  0.0910 -0.8132
  750SOL    HW2 2772   6.317   0.136   3.545  0.1049  1.1868 -1.2156
  750SOL    HW3 2773   6.460   0.153   3.591 -0.2151  2.1135 -0.5449
  750SOL    MW4 2774   6.402   0.145   3.527  0.2687 -0.2342  0.1021
  751SOL     OW 2775   6.075   4.119   5.661 -0.0552 -0.2977 -0.4539
  751SOL    HW2 2776   6.132   4.189   5.691  0.6429 -0.8512 -0.4618
  751SOL    HW3 2777   6.061   4.136   5.568 -1.5328  0.9450 -0.0425
  751SOL    MW4 2778   6.081   4.130   5.653  0.7778  0.3034 -0.5240
  752SOL     OW 2779   0.514   3.788   6.189  0.2947  0.0099  0.0192
  752SOL    HW2 2780   0.440   3.729   6.174  0.2564  0.4314 -1.5769
  752SOL    HW3 2781   0.589   3.729   6.199  0.0268 -0.3562 -0.0841
  752SOL    MW4 2782   0.514   3.772   6.188 -0.4608 -0.0013 -0.0931
  753SOL     OW 2783   4.890   4.728   0.160 -0.3126 -0.1172  0.0349
  753SOL    HW2 2784   4.830   4.779   0.106 -0.8790 -1.1103 -0.3008
  753SOL    HW3 2785   4.843   4.647   0.178  0.7560 -0.7295  0.1377
  753SOL    MW4 2786   4.876   4.724   0.155  0.2242  0.0974 -0.4140
  754SOL     OW 2787   2.574   0.928   4.837  0.5550  0.3919  0.2544
  754SOL    HW2 2788   2.522   0.952   4.913 -0.4779  0.5853 -0.4941
  754SOL    HW3 2789   2.628   1.005   4.820 -0.4611  1.0120 -0.2331
  754SOL    MW4 2790   2.574   0.941   4.845 -0.6708  0.0714 -0.0118
  755SOL     OW 2791   5.114   4.788   4.184 -0.2644 -0.1930 -0.4316
  755SOL    HW2 2792   5.047   4.752   4.243 -0.5846  0.0463 -0.6431
  755SOL    HW3 2793   5.103   4.883   4.191  1.5030 -0.0548  1.1952
  755SOL    MW4 2794   5.104   4.796   4.192  0.2391 -0.1811 -0.6029
  756SOL     OW 2795   0.415   4.370   3.074 -0.1667  0.1388  0.2737
  756SOL    HW2 2796   0.495   4.353   3.124  0.1634  0.6569 -0.0719
  756SOL    HW3 2797   0.414   4.465   3.061 -1.1186  0.2074  0.7429
  756SOL    MW4 2798   0.425   4.380   3.079 -0.0235 -0.1723  0.0891
  757SOL     OW 2799   2.835   1.338   0.884 -0.2477 -0.4639 -0.9746
  757SOL    HW2 2800   2.919   1.356   0.926 -1.2617  2.0803  0.1598
  757SOL    HW3 2801   2.784   1.293   0.952 -0.5167 -0.0569 -0.9060
  757SOL    MW4 2802   2.839   1.334   0.899 -0.1909  0.1112 -0.6172
  758SOL     OW 2803   6.013   0.192   0.239 -0.7624  0.0001  0.1585
  758SOL    HW2 2804   6.088   0.206   0.296 -1.6023 -2.0254  1.9059
  758SOL    HW3 2805   6.044   0.130   0.173 -0.4927  0.3415 -0.0361
  758SOL    MW4 2806   6.027   0.186   0.237  0.1035  0.1073  0.0155
  759SOL     OW 2807   6.351   5.346   4.111  0.8911  0.3005 -0.3671
  759SOL    HW2 2808   6.334   5.320   4.202  1.0926 -1.9367 -0.9021
  759SOL    HW3 2809   6.323   5.270   4.060 -0.0319  1.8347 -2.2698
  759SOL    MW4 2810   6.345   5.332   4.116  0.7378  0.7082  0.4245
  760SOL     OW 2811   1.071   0.996   4.872  0.6981 -0.2036 -0.3818
  760SOL    HW2 2812   1.099   0.905   4.882 -0.0144 -0.3446  0.4598
  760SOL    HW3 2813   1.036   1.002   4.784  0.8996 -0.7006 -0.4970
  760SOL    MW4 2814   1.070   0.985   4.862  0.0730  0.0267  0.3533
  761SOL     OW 2815   1.974   2.951   0.537  0.0423  0.2759  0.7574
  761SOL    HW2 2816   1.994   2.957   0.630 -0.3788  0.5621  0.8340
  761SOL    HW3 2817   1.879   2.962   0.532 -0.1273 -1.1819  0.4156
  761SOL    MW4 2818   1.964   2.954   0.548 -0.0420  0.3877 -0.2138
  762SOL     OW 2819   0.604   0.539   3.845 -0.3836  0.2359  0.2723
  762SOL    HW2 2820   0.627   0.472   3.781 -0.2030 -0.3267  0.9214
  762SOL    HW3 2821   0.687   0.582   3.867 -0.5854  1.1153 -0.6193
  762SOL    MW4 2822   0.618   0.536   3.840 -0.4811 -0.1924  0.0851
  763SOL     OW 2823   3.446   5.201   2.220  0.0111  0.7546 -0.5717
  763SOL    HW2 2824   3.517   5.141   2.243 -0.4488 -0.3820 -2.0051
  763SOL    HW3 2825   3.400   5.158   2.148 -1.7484  1.7763 -0.1150
  763SOL    MW4 2826   3.449   5.188   2.213 -0.4466  0.1204 -0.3003
  764SOL     OW 2827   4.377   5.055   2.126 -0.1873  0.0241 -0.6362
  764SOL    HW2 2828   4.434   5.023   2.056  2.3329  0.0987  1.2392
  764SOL    HW3 2829   4.357   5.145   2.100  1.6964  0.4529 -0.7614
  764SOL    MW4 2830   4.382   5.063   2.114  0.1199  0.3645  0.1384
  765SOL     OW 2831   1.121   4.473   0.331  0.0414 -0.7479 -0.2211
  765SOL    HW2 2832   1.052   4.407   0.317  1.1221 -1.9530 -0.0139
  765SOL    HW3 2833   1.132   4.514   0.245 -1.2163 -0.2383 -0.1652
  765SOL    MW4 2834   1.113   4.470   0.318 -0.1814 -0.5894 -0.1840
  766SOL     OW 2835   3.239   0.280   3.100  0.3238 -0.1046  0.5222
  766SOL    HW2 2836   3.329   0.268   3.129 -0.0262 -0.8760  1.3387
  766SOL    HW3 2837   3.215   0.196   3.059 -0.7354 -0.7436  2.3404
  766SOL    MW4 2838   3.248   0.267   3.098  0.6577  0.2591  0.0694
  767SOL     OW 2839   1.382   4.822   2.389 -0.3397 -0.1961  0.0442
  767SOL    HW2 2840   1.369   4.859   2.476 -0.2036 -1.2936  0.5561
  767SOL    HW3 2841   1.469   4.784   2.392 -1.0164 -1.8384  0.0559
  767SOL    MW4 2842   1.392   4.822   2.401 -0.0829  0.2444 -0.0677
  768SOL     OW 2843   0.487   5.907   5.600  0.4111  0.5613 -0.5365
  768SOL    HW2 2844   0.500   5.902   5.505 -0.7258 -1.4163 -0.6404
  768SOL    HW3 2845   0.451   5.822   5.624  0.6831  1.0158  1.6945
  768SOL    MW4 2846   0.484   5.895   5.590  0.3393 -0.4666 -0.0221
  769SOL     OW 2847   0.012   2.147   4.576 -0.0638 -0.0749 -0.0545
  769SOL    HW2 2848   0.059   2.187   4.649  0.3654 -0.4494 -0.1241
  769SOL    HW3 2849   0.018   2.052   4.592 -1.6015 -0.1230  0.4466
  769SOL    MW4 2850   0.019   2.139   4.588  0.2440  0.2155 -0.0639
  770SOL     OW 2851   3.297   1.939   5.147  0.3970  0.0370 -0.4129
  770SOL    HW2 2852   3.236   2.012   5.139  1.0045  0.6789  0.5560
  770SOL    HW3 2853   3.375   1.977   5.186  0.0091 -1.4666  2.1013
  770SOL    MW4 2854   3.299   1.953   5.151 -0.0187  1.0774  0.0795
  771SOL     OW 2855   1.036   3.964   4.169  0.3070  0.2455 -0.1312
  771SOL    HW2 2856   1.012   3.880   4.207 -0.6537  0.8698  0.6858
  771SOL    HW3 2857   1.122   3.984   4.207  0.6451 -0.4515 -0.5046
  771SOL    MW4 2858   1.045   3.955   4.179 -0.4233 -0.0479 -0.1487
  772SOL     OW 2859   3.673   5.902   3.469 -0.6179 -0.2307 -0.1593
  772SOL    HW2 2860   3.748   5.848   3.442 -0.6095 -1.0371  1.3803
  772SOL    HW3 2861   3.616   5.904   3.392 -0.2010 -1.7449 -0.5379
  772SOL    MW4 2862   3.675   5.895   3.455  0.1315 -0.0896 -0.4069
  773SOL     OW 2863   5.539   1.529   3.902  0.1767  0.3351 -0.2689
  773SOL    HW2 2864   5.617   1.554   3.951 -0.9836 -1.5779  2.8848
  773SOL    HW3 2865   5.571   1.471   3.833  1.6093  0.2383  0.4474
  773SOL    MW4 2866   5.554   1.525   3.899  0.1570  0.0284 -0.3389
  774SOL     OW 2867   5.164   2.070   6.185  0.1634  0.3165 -0.6521
  774SOL    HW2 2868   5.169   1.978   6.210 -1.6915  0.7405  1.5645
  774SOL    HW3 2869   5.255   2.096   6.171  0.9783 -1.1502  1.4595
  774SOL    MW4 2870   5.177   2.061   6.186  0.3279 -0.1990 -0.3518
  775SOL     OW 2871   1.939   2.898   5.866  0.1710 -0.0404  0.1411
  775SOL    HW2 2872   1.969   2.948   5.790 -1.5378  0.6132 -0.1450
  775SOL    HW3 2873   2.009   2.909   5.930 -0.0206  2.6535  0.0417
  775SOL    MW4 2874   1.952   2.906   5.865  0.7699 -0.3365 -0.3122
  776SOL     OW 2875   1.185   4.413   4.739  0.8036  0.2790 -0.0733
  776SOL    HW2 2876   1.172   4.488   4.680  0.5580 -0.5672 -1.1139
  776SOL    HW3 2877   1.277   4.419   4.765  0.2901  2.1984  1.6428
  776SOL    MW4 2878   1.195   4.424   4.734  0.1241  0.3346 -0.1944
  777SOL     OW 2879   5.581   1.475   5.797 -0.0983  0.7407  0.5315
  777SOL    HW2 2880   5.575   1.391   5.844  0.8526  0.2363 -0.2241
  777SOL    HW3 2881   5.489   1.499   5.782 -0.3902 -0.2579  0.5957
  777SOL    MW4 2882   5.568   1.467   5.801  0.1580  0.4225 -0.4762
  778SOL     OW 2883   1.065   5.241   6.309 -0.0050  0.4862  0.1098
  778SOL    HW2 2884   1.017   5.224   6.228  2.4161 -0.3438 -1.2812
  778SOL    HW3 2885   1.082   5.155   6.346  2.5363  0.4797 -0.8551
  778SOL    MW4 2886   1.061   5.228   6.303 -0.2277 -0.2603  0.1010
  779SOL     OW 2887   1.950   1.484   0.963  0.3432 -0.3619  0.2725
  779SOL    HW2 2888   2.044   1.500   0.954  0.7347 -1.3458  2.1261
  779SOL    HW3 2889   1.937   1.398   0.922  0.1407 -0.0087 -0.4221
  779SOL    MW4 2890   1.961   1.475   0.956  0.1586  0.3225  0.1568
  780SOL     OW 2891   5.865   4.019   2.547 -0.2591  0.4143 -0.2634
  780SOL    HW2 2892   5.942   4.075   2.556 -0.1430  0.0776  1.2591
  780SOL    HW3 2893   5.855   4.006   2.453  1.6520  0.3301 -0.4972
  780SOL    MW4 2894   5.874   4.025   2.536 -0.2334  0.0895  0.0430
  781SOL     OW 2895   3.896   2.367   3.655  0.1742  0.0349  0.7203
  781SOL    HW2 2896   3.817   2.400   3.699  1.1232  0.6280  2.0299
  781SOL    HW3 2897   3.901   2.275   3.680 -1.3884 -0.6968 -1.3394
  781SOL    MW4 2898   3.886   2.359   3.664  0.0241  0.0238 -0.0813
  782SOL     OW 2899   5.596   1.964   4.045 -0.1840  0.1778  0.5613
  782SOL    HW2 2900   5.570   1.951   4.136  0.3011 -0.3120  0.6357
  782SOL    HW3 2901   5.677   1.914   4.035 -0.3263  0.0758 -0.1909
  782SOL    MW4 2902   5.604   1.956   4.055  0.7644  0.0866 -0.1621
  783SOL     OW 2903   5.785   4.448   0.699  0.2715 -0.8504  0.1858
  783SOL    HW2 2904   5.755   4.502   0.626 -0.9931 -0.8150  0.7111
  783SOL    HW3 2905   5.810   4.512   0.767  0.0768 -0.9057  0.3095
  783SOL    MW4 2906   5.785   4.464   0.698 -0.2397 -0.1111 -0.6262
  784SOL     OW 2907   3.877   5.712   0.220  0.5678 -0.6539  0.1929
  784SOL    HW2 2908   3.811   5.654   0.259 -0.5707 -0.0804 -0.8327
  784SOL    HW3 2909   3.830   5.793   0.202  1.9478  0.3296  0.8543
  784SOL    MW4 2910   3.862   5.715   0.223 -0.3694  1.1746 -0.7121
  785SOL     OW 2911   6.252   3.204   3.604  0.0550  0.3468  0.8313
  785SOL    HW2 2912   6.303   3.283   3.584  0.3504 -0.1433 -0.4690
  785SOL    HW3 2913   6.167   3.237   3.632 -0.9134  1.1993 -2.6189
  785SOL    MW4 2914   6.248   3.219   3.605  0.1006  0.4008 -0.9292
  786SOL     OW 2915   3.704   0.880   4.400  0.5356 -0.2409  0.1193
  786SOL    HW2 2916   3.698   0.915   4.489  1.0103  3.7845 -1.2408
  786SOL    HW3 2917   3.613   0.875   4.370  0.4900  1.0868 -0.0295
  786SOL    MW4 2918   3.691   0.884   4.408  0.2442 -0.2689 -0.1119
  787SOL     OW 2919   2.174   4.019   2.489 -0.1259 -0.7690  0.3970
  787SOL    HW2 2920   2.091   4.060   2.513 -0.1248 -1.0443  0.8913
  787SOL    HW3 2921   2.231   4.033   2.565  0.5379  0.0856 -0.2386
  787SOL    MW4 2922   2.171   4.026   2.502 -0.2576  0.2164  0.2565
  788SOL     OW 2923   4.854   5.519   5.154  0.3341  0.1432 -0.0860
  788SOL    HW2 2924   4.948   5.502   5.142  0.0272 -1.8689  0.0955
  788SOL    HW3 2925   4.828   5.565   5.074  1.3177  0.0472 -0.4735
  788SOL    MW4 2926   4.863   5.523   5.142  0.0926 -0.2224 -0.2505
  789SOL     OW 2927   0.884   3.096   2.807 -0.1031 -0.2226  0.2431
  789SOL    HW2 2928   0.934   3.104   2.888  0.4772 -0.6629 -0.0666
  789SOL    HW3 2929   0.889   3.183   2.767  0.4580 -0.2806  0.1892
  789SOL    MW4 2930   0.891   3.109   2.812 -0.1231  0.2511  0.6308
  790SOL     OW 2931   3.655   5.925   5.409  0.5615 -0.2586  0.1105
  790SOL    HW2 2932   3.746   5.900   5.394  0.2896 -0.1728 -1.9449
  790SOL    HW3 2933   3.604   5.852   5.375 -0.1610  0.6252 -0.7567
  790SOL    MW4 2934   3.660   5.912   5.403  0.0396 -0.3332  0.0799
  791SOL     OW 2935   6.098   0.686   4.565 -0.2558 -0.0714 -0.1491
  791SOL    HW2 2936   6.084   0.605   4.517  0.2964  0.1091 -0.6144
  791SOL    HW3 2937   6.157   0.662   4.636 -0.6479 -0.2225  0.1296
  791SOL    MW4 2938   6.104   0.672   4.568  0.1396 -0.1878 -0.1752
  792SOL     OW 2939   3.262   1.116   3.623 -0.4357  0.1291 -0.4795
  792SOL    HW2 2940   3.183   1.106   3.677 -1.9037  0.6577 -2.4379
  792SOL    HW3 2941   3.320   1.047   3.654 -2.5119 -1.7252 -0.4289
  792SOL    MW4 2942   3.259   1.106   3.634  0.9450 -0.0956  0.4376
  793SOL     OW 2943   6.073   6.037   0.047 -0.4017  0.3286 -0.5785
  793SOL    HW2 2944   6.095   5.947   0.069 -1.8427  0.2591  0.6680
  793SOL    HW3 2945   6.081   6.085   0.129 -2.7281  0.6914 -0.4965
  793SOL    MW4 2946   6.077   6.032   0.060 -0.1871  0.8831 -0.3904
  794SOL     OW 2947   1.398   5.476   4.966  0.1015  0.4358  0.3555
  794SOL    HW2 2948   1.408   5.435   5.052 -1.6427  1.0857  0.8978
  794SOL    HW3 2949   1.487   5.503   4.942  0.5815  0.5115  2.0884
  794SOL    MW4 2950   1.411   5.474   4.974  0.0132  0.0941  0.4641
  795SOL     OW 2951   5.560   1.833   3.379  0.1068 -0.7556 -0.1066
  795SOL    HW2 2952   5.623   1.785   3.325 -2.1842 -1.5987 -2.2723
  795SOL    HW3 2953   5.583   1.925   3.367  0.5895 -1.0159 -1.3560
  795SOL    MW4 2954   5.571   1.839   3.370 -0.6944 -0.1754 -0.0703
  796SOL     OW 2955   6.312   1.352   4.992 -0.0117 -0.1090  0.1038
  796SOL    HW2 2956   6.229   1.350   5.039 -0.3792 -3.3760 -0.4607
  796SOL    HW3 2957   6.294   1.403   4.913 -0.9462  0.6705  0.7925
  796SOL    MW4 2958   6.299   1.358   4.988 -0.0892  0.0202  0.2272
  797SOL     OW 2959   5.060   0.721   3.143 -0.1241  0.3949 -0.0555
  797SOL    HW2 2960   5.099   0.740   3.228 -0.2326  0.3613  0.0025
  797SOL    HW3 2961   4.982   0.777   3.139 -1.1779 -0.9491  0.6619
  797SOL    MW4 2962   5.055   0.731   3.154 -0.2000 -0.2926  0.1070
  798SOL     OW 2963   1.397   2.302  -0.005 -0.5369 -0.5188  0.6618
  798SOL    HW2 2964   1.373   2.289  -0.097  0.0131 -1.2752  0.6117
  798SOL    HW3 2965   1.485   2.340  -0.008 -0.1256 -1.4220  0.8712
  798SOL    MW4 2966   1.406   2.305  -0.018  0.5298  0.2026 -0.0004
  799SOL     OW 2967   5.617   5.699   1.705  0.2116 -0.3918  0.3218
  799SOL    HW2 2968   5.625   5.626   1.644  1.6156  0.3556 -0.4594
  799SOL    HW3 2969   5.604   5.658   1.790  0.2616 -1.5298 -0.2014
  799SOL    MW4 2970   5.617   5.684   1.708  0.4798 -0.5955 -0.0770
  800SOL     OW 2971   3.940   0.746   2.222 -0.1631 -0.2237  0.6266
  800SOL    HW2 2972   4.004   0.785   2.281 -0.3953 -0.7444  1.2397
  800SOL    HW3 2973   3.877   0.816   2.204  0.0263 -0.0011  0.8261
  800SOL    MW4 2974   3.940   0.760   2.227  0.3352 -0.8983  0.0905
  801SOL     OW 2975   1.258   3.526   3.503  0.3961 -0.2169 -0.0378
  801SOL    HW2 2976   1.173   3.502   3.539  0.6362 -0.4045  0.4318
  801SOL    HW3 2977   1.281   3.608   3.548  1.0654 -0.8773  0.8915
  801SOL    MW4 2978   1.250   3.533   3.514 -0.5133  0.5729  0.3162
  802SOL     OW 2979   3.726   3.362   4.653 -0.4082 -0.2442  0.8119
  802SOL    HW2 2980   3.645   3.318   4.678 -0.1373 -1.1420  0.1516
  802SOL    HW3 2981   3.751   3.322   4.570  0.0706  0.8804  0.3957
  802SOL    MW4 2982   3.719   3.351   4.646 -0.1308  0.5372  0.0130
  803SOL     OW 2983   5.375   5.591   5.702 -0.1017 -0.1202  0.4907
  803SOL    HW2 2984   5.401   5.683   5.694 -1.4989  0.6419  3.2204
  803SOL    HW3 2985   5.457   5.545   5.717  0.6768  0.5605 -1.3965
  803SOL    MW4 2986   5.389   5.597   5.703  0.1773 -0.4907  0.5808
  804SOL     OW 2987   4.259   3.126   2.158 -0.1067 -0.3481  0.2540
  804SOL    HW2 2988   4.308   3.142   2.239 -0.4160  1.1165  0.1771
  804SOL    HW3 2989   4.321   3.082   2.100  0.5249 -0.2088  0.8147
  804SOL    MW4 2990   4.273   3.122   2.161  0.1158  0.1038  1.0457
  805SOL     OW 2991   2.526   3.137   5.537 -0.1958 -0.1505 -0.0719
  805SOL    HW2 2992   2.507   3.203   5.470 -0.7122 -0.9349 -0.7174
  805SOL    HW3 2993   2.572   3.185   5.606  1.5379  0.4156 -1.5701
  805SOL    MW4 2994   2.529   3.152   5.537 -0.0902  0.0752  0.7315
  806SOL     OW 2995   1.184   3.687   0.560 -0.5124  0.3994 -0.1437
  806SOL    HW2 2996   1.150   3.695   0.471 -1.1591 -1.6826 -0.1400
  806SOL    HW3 2997   1.268   3.644   0.550 -0.2315  0.8567  0.2101
  806SOL    MW4 2998   1.190   3.682   0.547 -0.3515  0.2812  0.1569
  807SOL     OW 2999   0.436   2.868   3.974 -0.3779  0.5260  0.0295
  807SOL    HW2 3000   0.527   2.841   3.975  0.1005  1.6973 -2.7235
  807SOL    HW3 3001   0.395   2.814   3.906 -1.4773  0.7525  0.4803
  807SOL    MW4 3002   0.442   2.857   3.965 -0.3420  0.0960  0.4957
  808SOL     OW 3003   0.718   5.793   0.095 -0.2403 -0.7687 -0.1664
  808SOL    HW2 3004   0.773   5.746   0.032 -0.2601 -1.9591  0.6614
  808SOL    HW3 3005   0.684   5.868   0.047  1.3170 -0.5480 -0.9905
  808SOL    MW4 3006   0.721   5.797   0.081  0.2897 -0.3228  0.4624
  809SOL     OW 3007   6.410   6.420   2.670 -0.4684  0.2746 -0.2309
  809SOL    HW2 3008   6.430   6.326   2.665 -1.2280  0.0850  0.1760
  809SOL    HW3 3009   6.438   6.445   2.758 -0.3291  0.4194 -0.3157
  809SOL    MW4 3010   6.417   6.411   2.681 -0.3244 -0.1852 -0.0025
  810SOL     OW 3011   1.506   3.163   2.957 -0.1887 -0.3239  0.2184
  810SOL    HW2 3012   1.557   3.107   2.897  0.4057 -0.1397  0.5458
  810SOL    HW3 3013   1.571   3.200   3.016 -0.8781 -1.3106  1.6413
  810SOL    MW4 3014   1.521   3.160   2.957 -0.0529 -0.3339 -0.6657
  811SOL     OW 3015   5.460   4.230   3.095  0.1159  0.1387 -0.4965
  811SOL    HW2 3016   5.374   4.199   3.121  1.1898 -0.8985  2.0716
  811SOL    HW3 3017   5.446   4.323   3.074 -1.6368 -0.0547 -0.3462
  811SOL    MW4 3018   5.447   4.238   3.095 -0.5470 -0.2123  0.6842
  812SOL     OW 3019   3.135   2.752   1.012 -0.2559 -0.3180  0.1446
  812SOL    HW2 3020   3.090   2.722   0.933  0.3659 -0.4103 -0.1802
  812SOL    HW3 3021   3.068   2.802   1.060  0.4226  3.5265 -2.4699
  812SOL    MW4 3022   3.120   2.755   1.008 -0.0468  0.2258 -0.1596
  813SOL     OW 3023   2.215   2.834   0.023  0.4698  0.2325  0.1418
  813SOL    HW2 3024   2.269   2.896   0.072 -1.2544  1.7481  0.1926
  813SOL    HW3 3025   2.163   2.789   0.090  0.3703  0.0671 -0.0468
  813SOL    MW4 3026   2.215   2.836   0.038 -0.1178  0.9385  0.3514
  814SOL     OW 3027   5.039   0.603   3.747 -0.1211 -0.1557  0.1812
  814SOL    HW2 3028   5.128   0.635   3.734  1.0726 -2.4388  2.0014
  814SOL    HW3 3029   5.017   0.629   3.836 -2.4227  2.6513 -1.0445
  814SOL    MW4 3030   5.048   0.610   3.757 -0.1573 -0.0155 -0.5410
  815SOL     OW 3031   2.042   5.080   0.614  0.4622 -0.3780 -0.0241
  815SOL    HW2 3032   2.003   5.125   0.689 -0.2848 -0.3670 -0.4062
  815SOL    HW3 3033   2.036   5.144   0.542  3.4283  0.5936  0.4275
  815SOL    MW4 3034   2.036   5.094   0.614 -0.0591 -0.4643 -0.2176
  816SOL     OW 3035   4.568   0.289   3.823  0.2281  0.0690  0.2795
  816SOL    HW2 3036   4.607   0.220   3.770  0.4289 -0.6409  1.3235
  816SOL    HW3 3037   4.564   0.365   3.764  2.9035  0.1090  0.0262
  816SOL    MW4 3038   4.573   0.290   3.808 -0.0960  0.1942  0.0284
  817SOL     OW 3039   1.256   6.102   2.700  0.6759 -0.1833 -0.2358
  817SOL    HW2 3040   1.173   6.110   2.653 -0.0056 -0.5555  0.8687
  817SOL    HW3 3041   1.299   6.186   2.685 -0.3663  0.4245  0.0425
  817SOL    MW4 3042   1.250   6.114   2.692  0.1197 -0.0336  0.2176
  818SOL     OW 3043   4.261   1.541   0.134  0.2169 -0.2347  0.0048
  818SOL    HW2 3044   4.338   1.510   0.086 -0.9517 -3.7228  0.1717
  818SOL    HW3 3045   4.207   1.583   0.067  1.5647  1.0002 -0.3676
  818SOL    MW4 3046   4.264   1.543   0.119 -0.1920 -0.2100 -0.4278
  819SOL     OW 3047   2.513   1.079   2.946 -0.0658  0.0908  0.3086
  819SOL    HW2 3048   2.457   1.002   2.957 -1.0331  0.7706  0.3341
  819SOL    HW3 3049   2.547   1.071   2.856 -0.8246  0.0526  0.0181
  819SOL    MW4 3050   2.510   1.068   2.935 -0.5136 -0.1449  0.6225
  820SOL     OW 3051   1.686   3.588   0.848  0.1356  0.3766  0.0836
  820SOL    HW2 3052   1.743   3.553   0.780 -1.5974 -0.8883 -0.7919
  820SOL    HW3 3053   1.685   3.521   0.916  0.7892  1.0328  0.7531
  820SOL    MW4 3054   1.693   3.575   0.848  0.2405  0.3129  0.0126
  821SOL     OW 3055   0.975   4.896   2.757 -0.2382 -0.1904 -0.1011
  821SOL    HW2 3056   0.942   4.903   2.847 -0.5083  0.3597 -0.2354
  821SOL    HW3 3057   0.897   4.910   2.703 -0.0993 -0.6516 -0.4205
  821SOL    MW4 3058   0.960   4.899   2.762  0.0091  0.2821  0.0804
  822SOL     OW 3059   4.871   6.099   3.410  0.5484 -0.0101 -0.0142
  822SOL    HW2 3060   4.941   6.067   3.467  0.4866 -0.9258 -0.4388
  822SOL    HW3 3061   4.834   6.020   3.371 -0.9745  0.4284  0.4781
  822SOL    MW4 3062   4.875   6.085   3.413  0.0205 -0.9759 -0.0507
  823SOL     OW 3063   3.062   4.810   0.166 -0.2958  0.3306  0.1387
  823SOL    HW2 3064   3.135   4.827   0.107 -1.5847 -0.7389 -1.8730
  823SOL    HW3 3065   3.085   4.727   0.209 -0.2955  0.0243 -0.4470
  823SOL    MW4 3066   3.074   4.801   0.164  0.2025 -0.5018  0.4201
  824SOL     OW 3067   1.699   2.917   6.005  0.5435 -0.1697 -0.2737
  824SOL    HW2 3068   1.722   2.831   6.041  0.0126 -0.4692 -0.6227
  824SOL    HW3 3069   1.777   2.944   5.957  0.0824 -1.3482 -1.7802
  824SOL    MW4 3070   1.712   2.909   6.003  0.4355  0.0472 -0.3051
  825SOL     OW 3071   5.961   1.342   3.458 -0.3353  0.1707  0.5159
  825SOL    HW2 3072   5.993   1.314   3.373  0.3853 -1.1095  1.1813
  825SOL    HW3 3073   5.909   1.421   3.440  1.7625  1.3356 -0.8141
  825SOL    MW4 3074   5.958   1.349   3.445 -0.0747 -0.6561  0.0730
  826SOL     OW 3075   1.351   4.803   3.637 -0.2023  0.2919  0.4827
  826SOL    HW2 3076   1.429   4.772   3.592  0.2299 -0.5255  1.7322
  826SOL    HW3 3077   1.298   4.843   3.569 -0.1493 -1.9684 -0.9980
  826SOL    MW4 3078   1.354   4.804   3.622  0.6009 -0.1379 -0.5394
  827SOL     OW 3079   3.456   4.672   4.278  0.2154 -0.1678  0.3183
  827SOL    HW2 3080   3.471   4.602   4.214  3.0474  0.2798  0.3644
  827SOL    HW3 3081   3.494   4.638   4.360 -1.5323  0.0740  1.2728
  827SOL    MW4 3082   3.463   4.658   4.281  0.4961  0.2965 -0.0845
  828SOL     OW 3083   2.598   2.051   1.824  0.0516  0.5785 -0.1799
  828SOL    HW2 3084   2.547   2.030   1.902 -1.5633 -3.1957 -1.9904
  828SOL    HW3 3085   2.547   2.119   1.780 -0.5199  0.7170  0.6744
  828SOL    MW4 3086   2.584   2.057   1.829  0.6015 -0.3600  0.0751
  829SOL     OW 3087   6.396   5.925   6.196 -0.2783  0.5872  0.1304
  829SOL    HW2 3088   6.339   5.881   6.133 -0.0979  0.7947 -0.1868
  829SOL    HW3 3089   6.397   5.869   6.273  0.6226 -0.4042 -0.5734
  829SOL    MW4 3090   6.389   5.912   6.198 -0.1925  0.1645  0.7574
  830SOL     OW 3091   0.296   1.173   1.328 -0.0676  0.3460  0.5238
  830SOL    HW2 3092   0.273   1.237   1.260  0.1635  0.4313  0.5276
  830SOL    HW3 3093   0.336   1.225   1.398  2.0440 -0.0420 -0.3356
  830SOL    MW4 3094   0.298   1.188   1.328  0.2411  0.3359 -0.1392
  831SOL     OW 3095   1.477   4.164   2.452 -0.1306  0.7814 -0.6583
  831SOL    HW2 3096   1.517   4.251   2.454  0.4112  0.5308  0.2479
  831SOL    HW3 3097   1.546   4.105   2.482  0.3188 -0.3484 -3.5947
  831SOL    MW4 3098   1.491   4.168   2.457 -0.1148 -0.1360 -0.1536
  832SOL     OW 3099   1.659   4.897   0.512 -0.6466  0.1240 -0.5359
  832SOL    HW2 3100   1.580   4.843   0.521 -0.4024 -0.3006 -0.8609
  832SOL    HW3 3101   1.691   4.908   0.601 -0.7346 -0.2279 -0.4589
  832SOL    MW4 3102   1.653   4.891   0.525  0.1623 -0.6079 -0.2471
  833SOL     OW 3103   2.179   3.720   0.670  0.2766 -0.1996  0.6124
  833SOL    HW2 3104   2.182   3.670   0.589  0.2853  0.1155  0.4161
  833SOL    HW3 3105   2.176   3.812   0.642  1.4170 -0.0309  0.9746
  833SOL    MW4 3106   2.179   3.726   0.656 -0.2597 -0.2689 -0.0139
  834SOL     OW 3107   3.523   0.510   5.894 -0.1273  0.2668 -0.1919
  834SOL    HW2 3108   3.596   0.536   5.950 -0.3258  1.1898 -0.3505
  834SOL    HW3 3109   3.524   0.573   5.822  0.0258 -0.8089 -1.1678
  834SOL    MW4 3110   3.533   0.521   5.892 -0.4876  0.2415 -0.1153
  835SOL     OW 3111   3.639   1.922   2.316  0.3206  0.5699  0.1144
  835SOL    HW2 3112   3.613   2.014   2.315 -0.7401  0.2945  0.9383
  835SOL    HW3 3113   3.650   1.901   2.408  0.4854 -0.1516 -0.0656
  835SOL    MW4 3114   3.637   1.932   2.328 -0.4931 -0.0124  0.3816
  836SOL     OW 3115   0.869   2.934   6.211 -0.0313 -0.6043  0.3217
  836SOL    HW2 3116   0.937   2.950   6.146 -1.7112 -2.0977 -2.0035
  836SOL    HW3 3117   0.839   2.845   6.192 -3.0944  0.2310  0.7072
  836SOL    MW4 3118   0.874   2.924   6.200 -0.5511  0.0194 -0.1601
  837SOL     OW 3119   4.990   4.547   3.422 -0.0618  0.1048 -0.3215
  837SOL    HW2 3120   5.061   4.607   3.398 -0.3355 -0.4455 -2.7555
  837SOL    HW3 3121   4.916   4.605   3.443 -0.0134  0.6505 -1.5899
  837SOL    MW4 3122   4.990   4.563   3.422  0.2071 -0.2542  0.7299
  838SOL     OW 3123   4.797   5.742   0.222 -0.7196  0.2061  0.4602
  838SOL    HW2 3124   4.872   5.760   0.166  0.1350 -0.4205  1.3773
  838SOL    HW3 3125   4.806   5.803   0.295 -0.9953  0.0026  0.6687
  838SOL    MW4 3126   4.808   5.752   0.224 -0.3063  0.2906  0.2692
  839SOL     OW 3127   4.751   5.653   4.935  0.3723  0.4626  0.1799
  839SOL    HW2 3128   4.667   5.691   4.962  1.4903  2.3170  1.2660
  839SOL    HW3 3129   4.794   5.722   4.885  1.8853  0.1272  0.9637
  839SOL    MW4 3130   4.746   5.667   4.932 -0.1584 -0.7733 -0.3527
  840SOL     OW 3131   5.141   3.704   4.769 -1.3414 -0.1446  0.2136
  840SOL    HW2 3132   5.078   3.636   4.792  0.2567 -1.2727  1.4719
  840SOL    HW3 3133   5.220   3.682   4.819  0.1235  1.1032 -1.4180
  840SOL    MW4 3134   5.143   3.692   4.779 -0.0360 -0.3323  0.2888
  841SOL     OW 3135   5.574   3.829   4.912  0.6766  0.3299 -0.0716
  841SOL    HW2 3136   5.539   3.853   4.826 -0.3781  0.3382  0.3531
  841SOL    HW3 3137   5.518   3.875   4.975 -0.3972 -1.9006  0.7114
  841SOL    MW4 3138   5.562   3.838   4.909 -0.1410 -0.5980  0.2841
  842SOL     OW 3139   5.794   3.792   0.542  0.4725 -0.2346  0.2392
  842SOL    HW2 3140   5.830   3.880   0.552 -0.6058  0.5581 -2.1673
  842SOL    HW3 3141   5.699   3.806   0.538  0.3654 -1.1784 -2.3915
  842SOL    MW4 3142   5.786   3.805   0.543  0.7541 -0.1125  0.4477
  843SOL     OW 3143   6.221   4.425   3.746  0.4439 -0.8796 -0.1181
  843SOL    HW2 3144   6.192   4.474   3.822 -3.2479 -3.3577  0.3555
  843SOL    HW3 3145   6.249   4.340   3.781  0.4061 -1.4197 -1.3333
  843SOL    MW4 3146   6.221   4.420   3.760  0.1271  0.3911  0.1200
  844SOL     OW 3147   1.232   1.074   6.048 -0.4251 -0.8676  0.4165
  844SOL    HW2 3148   1.253   1.146   5.988 -0.5988 -0.0252  1.3464
  844SOL    HW3 3149   1.200   1.117   6.127 -2.4207 -2.0017  0.3061
  844SOL    MW4 3150   1.231   1.089   6.051 -0.7821  0.2031  0.2358
  845SOL     OW 3151   3.262   6.366   5.745  0.2497 -0.0884  0.1305
  845SOL    HW2 3152   3.257   6.459   5.722  0.8253  0.4188  1.9317
  845SOL    HW3 3153   3.332   6.332   5.689  0.0077  0.5282 -0.5718
  845SOL    MW4 3154   3.271   6.374   5.734  0.2916 -0.2304 -0.0709
  846SOL     OW 3155   4.658   4.405   1.578  0.1611 -0.5257 -0.0466
  846SOL    HW2 3156   4.617   4.491   1.568  1.8612  0.4610  1.0645
  846SOL    HW3 3157   4.620   4.369   1.658  0.0774 -0.4408 -0.0485
  846SOL    MW4 3158   4.647   4.412   1.587  0.0925 -0.1051 -0.1886
  847SOL     OW 3159   2.424   2.774   0.696 -0.1957 -0.3579  0.0832
  847SOL    HW2 3160   2.380   2.694   0.724 -1.2242 -0.2099 -1.0101
  847SOL    HW3 3161   2.363   2.844   0.721 -0.1678 -0.0760 -0.6228
  847SOL    MW4 3162   2.410   2.773   0.703  0.2507 -0.5088 -0.2121
  848SOL     OW 3163   5.313   6.182   1.360 -0.7262  0.3282 -0.2141
  848SOL    HW2 3164   5.230   6.229   1.348  0.0109  1.5127 -0.7796
  848SOL    HW3 3165   5.339   6.155   1.272 -0.3105  0.3119 -0.0889
  848SOL    MW4 3166   5.305   6.185   1.347 -0.3158 -0.0099 -0.2943
  849SOL     OW 3167   3.160   2.589   1.590 -0.1450  0.0669  0.4076
  849SOL    HW2 3168   3.071   2.601   1.624 -0.0633  1.2142  0.2541
  849SOL    HW3 3169   3.182   2.499   1.614 -1.1115 -0.0362  0.9957
  849SOL    MW4 3170   3.151   2.579   1.597 -0.2059 -0.7117  0.0798
  850SOL     OW 3171   4.885   2.319   4.053  0.6050 -0.0984 -0.4856
  850SOL    HW2 3172   4.899   2.273   4.136 -0.7336 -0.4637 -0.4351
  850SOL    HW3 3173   4.973   2.331   4.018  1.0768 -1.8837 -0.0483
  850SOL    MW4 3174   4.898   2.314   4.060  0.0756 -0.2864 -0.5859
  851SOL     OW 3175   3.725   0.130   5.659 -0.2186  0.0597  0.1384
  851SOL    HW2 3176   3.737   0.039   5.689 -0.3217  0.0312  0.0958
  851SOL    HW3 3177   3.647   0.126   5.604  1.3353 -0.3691 -2.1785
  851SOL    MW4 3178   3.716   0.117   5.656 -0.2345  0.4548  0.2180
  852SOL     OW 3179   1.658   3.430   4.746  0.6310  0.1008 -0.2185
  852SOL    HW2 3180   1.691   3.506   4.793 -0.2878  0.6565 -0.4342
  852SOL    HW3 3181   1.579   3.404   4.794 -1.1522  1.5567 -2.1775
  852SOL    MW4 3182   1.652   3.436   4.758  0.2223  0.3361 -0.2938
  853SOL     OW 3183   1.456   1.789   5.690 -0.2502  0.6202 -0.5913
  853SOL    HW2 3184   1.529   1.747   5.735  0.3881  2.1259 -0.1504
  853SOL    HW3 3185   1.466   1.763   5.598  0.5729  0.4394 -0.4575
  853SOL    MW4 3186   1.467   1.780   5.684  0.7138 -0.1889 -0.2949
  854SOL     OW 3187   3.457   6.376   4.914 -0.7798  0.4080  0.0487
  854SOL    HW2 3188   3.448   6.334   4.828 -2.3991  0.9533 -0.0781
  854SOL    HW3 3189   3.540   6.342   4.948 -0.1234  0.1349 -1.6940
  854SOL    MW4 3190   3.467   6.366   4.907  0.1912  0.6367  0.2011
  855SOL     OW 3191   4.995   6.212   4.491 -0.2654 -0.0988 -0.0164
  855SOL    HW2 3192   5.077   6.253   4.464  0.0152 -1.1013 -0.7443
  855SOL    HW3 3193   5.021   6.125   4.522 -1.1039 -0.6536 -0.8056
  855SOL    MW4 3194   5.009   6.206   4.492 -0.5262  0.4340  0.2547
  856SOL     OW 3195   4.466   0.358   4.823  0.6908 -0.1422 -0.1976
  856SOL    HW2 3196   4.485   0.265   4.812  1.5535  0.0595 -0.4516
  856SOL    HW3 3197   4.539   0.403   4.781  1.0029  0.6631  1.1690
  856SOL    MW4 3198   4.478   0.352   4.816  0.2707  0.0817 -0.0777
  857SOL     OW 3199   4.338   4.659   2.002  0.4266  0.1306 -0.5783
  857SOL    HW2 3200   4.301   4.572   1.987  0.9674  0.0278 -1.4104
  857SOL    HW3 3201   4.282   4.718   1.951 -0.5610  0.4277  0.8008
  857SOL    MW4 3202   4.326   4.655   1.993  0.1800 -0.4382 -0.6510
  858SOL     OW 3203   2.170   1.394   4.471  0.0638  0.1490  0.3772
  858SOL    HW2 3204   2.257   1.433   4.483  0.2831  0.0854 -0.8173
  858SOL    HW3 3205   2.128   1.450   4.405  0.0275 -1.0410 -0.6526
  858SOL    MW4 3206   2.176   1.406   4.464 -0.1414  0.0532  0.3836
  859SOL     OW 3207   5.131   2.916   4.743 -0.1916  0.1285  0.0052
  859SOL    HW2 3208   5.143   2.822   4.754 -0.1253  0.2607  1.2354
  859SOL    HW3 3209   5.219   2.952   4.750 -0.1581  0.2567 -0.9264
  859SOL    MW4 3210   5.144   2.908   4.745  0.4043  0.3089  0.3231
  860SOL     OW 3211   0.923   1.242   5.473  0.6099 -0.2475 -0.5503
  860SOL    HW2 3212   0.978   1.295   5.415  0.8117  1.3474  1.0217
  860SOL    HW3 3213   0.978   1.221   5.547 -0.9220  1.8671  1.3364
  860SOL    MW4 3214   0.937   1.246   5.475 -0.1375 -0.3564 -0.0289
  861SOL     OW 3215   3.383   6.400   4.524 -0.8152 -0.0318 -0.2184
  861SOL    HW2 3216   3.297   6.378   4.487 -0.6526 -1.3269  0.1377
  861SOL    HW3 3217   3.372   6.489   4.558 -1.2360  0.8892 -2.5349
  861SOL    MW4 3218   3.370   6.409   4.523  0.0107 -0.2991  0.0385
  862SOL     OW 3219   2.076   2.131   2.144  0.2843 -0.5752 -0.3426
  862SOL    HW2 3220   2.132   2.064   2.104  0.6358 -0.5673  0.1173
  862SOL    HW3 3221   2.002   2.082   2.180 -0.6357 -0.4670 -1.9669
  862SOL    MW4 3222   2.074   2.116   2.143  0.7365 -0.0565 -0.7406
  863SOL     OW 3223   1.517   2.572   2.705  0.2094  0.5058  0.4317
  863SOL    HW2 3224   1.562   2.645   2.749  1.3012  1.0722 -1.5190
  863SOL    HW3 3225   1.484   2.610   2.624 -0.6750 -0.8036  0.1505
  863SOL    MW4 3226   1.519   2.587   2.700 -0.5560 -0.0818  0.1218
  864SOL     OW 3227   0.998   0.624   4.341 -0.0819  0.3847 -0.2560
  864SOL    HW2 3228   1.018   0.630   4.247 -1.6558 -0.4155 -0.6754
  864SOL    HW3 3229   0.973   0.713   4.365 -2.2469  0.1227 -1.2731
  864SOL    MW4 3230   0.998   0.637   4.332 -0.1013  1.1330 -0.0001
  865SOL     OW 3231   3.977   2.316   2.001 -0.0956 -0.1973  0.1869
  865SOL    HW2 3232   3.936   2.230   1.992  0.9973 -0.6513 -0.6491
  865SOL    HW3 3233   3.946   2.365   1.925  1.5018 -0.8220 -0.9268
  865SOL    MW4 3234   3.968   2.311   1.989 -0.3356  0.1420 -0.3135
  866SOL     OW 3235   0.245   2.732   4.587 -0.0770  0.3954  0.5152
  866SOL    HW2 3236   0.180   2.766   4.648  0.7716 -0.6038  2.0332
  866SOL    HW3 3237   0.236   2.637   4.594  1.3640  0.2520  0.5655
  866SOL    MW4 3238   0.235   2.724   4.596 -0.3192 -0.0349  0.1112
  867SOL     OW 3239   2.491   1.462   3.685 -0.6063 -0.2481 -0.1227
  867SOL    HW2 3240   2.418   1.404   3.664  0.6602 -1.6354 -0.8315
  867SOL    HW3 3241   2.552   1.408   3.733  0.8453  0.3222 -1.2556
  867SOL    MW4 3242   2.489   1.447   3.689 -0.0385 -0.4813 -0.5491
  868SOL     OW 3243   5.859   4.735   1.449  0.3706  0.4647 -0.5246
  868SOL    HW2 3244   5.908   4.658   1.477 -0.2004  0.8468  1.6936
  868SOL    HW3 3245   5.887   4.805   1.508 -2.6561  0.7209  0.8348
  868SOL    MW4 3246   5.869   4.734   1.461  0.0236  0.3904 -0.1750
  869SOL     OW 3247   0.378   3.454   3.746 -0.2052 -0.1508  0.2396
  869SOL    HW2 3248   0.450   3.415   3.697  1.8404  1.7634  1.5733
  869SOL    HW3 3249   0.364   3.539   3.704 -1.3757 -0.2785  0.3339
  869SOL    MW4 3250   0.385   3.460   3.734  0.0883 -0.4864  0.1277
  870SOL     OW 3251   1.283   1.992   3.777  0.1125  0.5428  0.1901
  870SOL    HW2 3252   1.377   1.997   3.762  0.1108 -0.5625 -0.2837
  870SOL    HW3 3253   1.250   1.943   3.703 -0.5933 -0.6559  1.2596
  870SOL    MW4 3254   1.291   1.986   3.765  0.3217 -0.3198 -0.3287
  871SOL     OW 3255   2.822   5.242   2.333  0.8046 -0.1075 -0.6251
  871SOL    HW2 3256   2.790   5.314   2.279  1.0141 -0.0832 -0.7175
  871SOL    HW3 3257   2.827   5.278   2.421  0.1891 -0.2300 -0.5349
  871SOL    MW4 3258   2.818   5.256   2.337  0.3816  0.5019  0.2617
  872SOL     OW 3259   3.943   4.933   4.611  0.0322 -0.3835  0.6637
  872SOL    HW2 3260   4.012   4.981   4.565 -1.0864  0.1801 -0.4908
  872SOL    HW3 3261   3.933   4.978   4.695  1.7936 -1.1461  1.3361
  872SOL    MW4 3262   3.950   4.945   4.616  0.0170  0.0431 -0.8745
  873SOL     OW 3263   2.214   4.192   5.463 -0.7544 -0.0939 -0.3350
  873SOL    HW2 3264   2.194   4.138   5.386 -1.9790 -1.3927  0.8035
  873SOL    HW3 3265   2.201   4.132   5.537 -0.6588  1.3882  0.9285
  873SOL    MW4 3266   2.209   4.177   5.463 -0.6776 -0.1143  0.5693
  874SOL     OW 3267   5.876   4.851   3.230  0.3224 -0.2604  0.5009
  874SOL    HW2 3268   5.875   4.855   3.134 -0.3919  0.0502  0.5127
  874SOL    HW3 3269   5.806   4.789   3.252 -3.2012  3.4164  0.9210
  874SOL    MW4 3270   5.866   4.843   3.220 -0.4181  0.2175 -0.4541
  875SOL     OW 3271   5.353   1.121   5.242  0.0720  0.1843  0.4377
  875SOL    HW2 3272   5.329   1.073   5.322 -0.5388  0.8008  0.6287
  875SOL    HW3 3273   5.313   1.070   5.171 -0.1825  0.1559  0.5998
  875SOL    MW4 3274   5.345   1.108   5.244  0.3192 -0.1662  0.0611
  876SOL     OW 3275   3.812   4.162   2.127  0.6653  0.0318  0.0917
  876SOL    HW2 3276   3.843   4.239   2.079  0.7131 -0.0627 -0.0315
  876SOL    HW3 3277   3.724   4.146   2.093 -0.3591  1.5059  1.8670
  876SOL    MW4 3278   3.804   4.170   2.116 -0.0972 -0.0343  0.1443
  877SOL     OW 3279   5.014   4.788   3.750 -0.6563 -0.1190 -0.6745
  877SOL    HW2 3280   4.996   4.837   3.669  1.4771  1.0244 -0.5354
  877SOL    HW3 3281   5.031   4.855   3.816  0.5188 -1.0145 -0.0102
  877SOL    MW4 3282   5.014   4.803   3.748 -0.0804  0.3161  0.0011
  878SOL     OW 3283   1.244   3.617   2.786  0.2627 -0.8182  0.0533
  878SOL    HW2 3284   1.179   3.668   2.835  1.1024 -0.0023  0.3609
  878SOL    HW3 3285   1.304   3.585   2.853  0.8501 -0.5440 -0.3330
  878SOL    MW4 3286   1.243   3.620   2.801  0.1735  0.0526 -0.3500
  879SOL     OW 3287   1.734   0.187   2.709  0.2533  0.2213  0.4348
  879SOL    HW2 3288   1.665   0.215   2.770 -1.3486 -0.0238 -1.1958
  879SOL    HW3 3289   1.693   0.190   2.623  2.0029 -0.8892 -0.4947
  879SOL    MW4 3290   1.719   0.191   2.706 -0.7437  0.3444  0.0076
  880SOL     OW 3291   1.720   4.062   4.381  0.2648  0.5224 -0.2812
  880SOL    HW2 3292   1.777   4.108   4.443 -0.3302 -0.4920  1.0739
  880SOL    HW3 3293   1.777   3.998   4.339 -0.1848 -2.3234  2.9358
  880SOL    MW4 3294   1.735   4.059   4.384  0.5791  0.2992 -0.4513
  881SOL     OW 3295   3.151   6.301   2.717 -0.2541 -0.0004 -0.1369
  881SOL    HW2 3296   3.150   6.384   2.764 -3.4216  0.5025 -0.8484
  881SOL    HW3 3297   3.243   6.289   2.691  0.2174  3.7050 -0.7339
  881SOL    MW4 3298   3.163   6.311   2.719 -0.0883 -0.0573  0.2608
  882SOL     OW 3299   0.400   5.670   0.397 -0.5902 -0.0790 -0.4029
  882SOL    HW2 3300   0.485   5.715   0.396 -0.8791  0.4875 -2.3461
  882SOL    HW3 3301   0.407   5.605   0.327 -2.4998  1.4782 -2.1486
  882SOL    MW4 3302   0.412   5.667   0.388 -0.0462 -0.4893  0.3104
  883SOL     OW 3303   1.346   4.774   5.043 -0.5847  0.4235  0.1248
  883SOL    HW2 3304   1.292   4.848   5.070  0.5122  0.7184  1.5902
  883SOL    HW3 3305   1.285   4.701   5.039 -1.2177  0.8692  1.1787
  883SOL    MW4 3306   1.330   4.774   5.046  0.0673 -0.2557  0.5379
  884SOL     OW 3307   0.833   1.995   1.681  0.1244  0.1095 -0.9252
  884SOL    HW2 3308   0.851   1.901   1.680 -1.2987 -0.1840 -0.5580
  884SOL    HW3 3309   0.738   2.002   1.679  0.2235  1.5924 -2.8837
  884SOL    MW4 3310   0.823   1.984   1.681 -0.1557 -0.1526 -0.3989
  885SOL     OW 3311   3.757   4.196   4.670  0.1380 -0.0003  0.7597
  885SOL    HW2 3312   3.815   4.158   4.736  0.6447  1.0257  0.9253
  885SOL    HW3 3313   3.758   4.290   4.688 -0.2596  0.2210 -0.2818
  885SOL    MW4 3314   3.765   4.203   4.681 -0.2127  0.3305  0.3142
  886SOL     OW 3315   2.772   1.408   4.395  0.5023  0.3806  0.5526
  886SOL    HW2 3316   2.856   1.385   4.434  1.0307  0.9023 -0.2308
  886SOL    HW3 3317   2.787   1.400   4.300 -0.0166  1.5213  0.3617
  886SOL    MW4 3318   2.785   1.404   4.387  1.0501 -0.2293 -0.3476
  887SOL     OW 3319   4.486   3.488   2.886 -0.1191 -0.1249  0.3699
  887SOL    HW2 3320   4.409   3.454   2.841 -2.2143  3.5169  0.7678
  887SOL    HW3 3321   4.474   3.463   2.977  0.2029 -1.1328  0.1506
  887SOL    MW4 3322   4.474   3.480   2.892 -0.3606  0.3193  0.0002
  888SOL     OW 3323   3.709   2.425   4.946  0.8382 -0.0910  0.6405
  888SOL    HW2 3324   3.678   2.507   4.986  1.7701  0.8756 -0.5422
  888SOL    HW3 3325   3.630   2.375   4.929  0.0857  1.3049 -0.1580
  888SOL    MW4 3326   3.695   2.429   4.949  0.1047  0.4627 -0.0628
  889SOL     OW 3327   0.549   4.391  -0.034  0.0147  0.3078  0.2680
  889SOL    HW2 3328   0.608   4.326  -0.073 -0.3080 -1.3229  2.2793
  889SOL    HW3 3329   0.464   4.371  -0.071 -0.0625 -0.3890  0.7954
  889SOL    MW4 3330   0.546   4.380  -0.044  0.0246  0.2591  0.1070
  890SOL     OW 3331   2.594   4.537   2.632 -0.1813  0.0771 -0.0291
  890SOL    HW2 3332   2.566   4.628   2.642  2.7062  0.9541  1.0497
  890SOL    HW3 3333   2.615   4.530   2.539 -0.7978  0.3788 -0.1992
  890SOL    MW4 3334   2.593   4.548   2.621 -0.3639 -0.2823  0.2805
  891SOL     OW 3335   4.411   4.283   0.417 -0.0640 -0.3931 -0.0489
  891SOL    HW2 3336   4.396   4.251   0.506  0.4470 -0.1647  0.1169
  891SOL    HW3 3337   4.462   4.213   0.375 -1.6479 -1.2366 -0.6588
  891SOL    MW4 3338   4.416   4.270   0.423 -0.4515 -0.5940 -0.0800
  892SOL     OW 3339   0.442   1.936   5.834 -0.1999  0.1964  0.0356
  892SOL    HW2 3340   0.507   1.891   5.888  0.5924  1.3062  0.0409
  892SOL    HW3 3341   0.472   2.026   5.830 -1.5803  0.6724 -0.2380
  892SOL    MW4 3342   0.454   1.942   5.841  0.2234  0.2274 -0.4994
  893SOL     OW 3343   2.458   0.707   6.043  0.4498  0.4627 -0.3763
  893SOL    HW2 3344   2.451   0.727   6.137 -1.0611  2.6660 -0.8649
  893SOL    HW3 3345   2.516   0.632   6.038  1.1439  0.7382  2.2782
  893SOL    MW4 3346   2.464   0.700   6.055 -0.0096 -0.1657 -0.1916
  894SOL     OW 3347   5.904   3.524   3.398 -0.0256 -0.2306 -0.0799
  894SOL    HW2 3348   5.999   3.514   3.401  0.0317  0.2242 -0.2735
  894SOL    HW3 3349   5.890   3.617   3.378 -0.5222  0.0909  1.6498
  894SOL    MW4 3350   5.915   3.535   3.396 -0.3417  0.1372  0.2703
  895SOL     OW 3351   3.602   4.213   2.720  0.0738 -0.2208 -0.1897
  895SOL    HW2 3352   3.649   4.248   2.796 -1.3657 -1.2341  1.2221
  895SOL    HW3 3353   3.668   4.211   2.651  1.8118 -0.4428  1.3701
  895SOL    MW4 3354   3.617   4.217   2.721  0.2717  0.3517  0.4557
  896SOL     OW 3355   6.094   4.905   2.742  0.1699  0.0396  0.0714
  896SOL    HW2 3356   6.188   4.919   2.732 -0.1364  1.4278 -1.1221
  896SOL    HW3 3357   6.086   4.811   2.760  1.9139  0.2309  2.3957
  896SOL    MW4 3358   6.105   4.895   2.743 -0.5371  0.2161 -0.5758
  897SOL     OW 3359   3.554   1.044   4.648 -0.2040  0.2548 -0.7059
  897SOL    HW2 3360   3.587   0.971   4.700  2.2795  1.0413 -1.0291
  897SOL    HW3 3361   3.540   1.115   4.710 -4.1735 -0.7951 -0.1252
  897SOL    MW4 3362   3.556   1.043   4.663 -0.5384  0.7401 -0.5353
  898SOL     OW 3363   3.624   5.517   4.468  0.5327  0.0797 -0.3774
  898SOL    HW2 3364   3.608   5.428   4.436  0.9573 -0.2494  0.3153
  898SOL    HW3 3365   3.542   5.563   4.452  0.4783 -0.2946 -1.2154
  898SOL    MW4 3366   3.611   5.511   4.462  0.2602  0.5643 -0.5652
  899SOL     OW 3367   4.255   4.422   0.746  0.0052  0.1746  0.1144
  899SOL    HW2 3368   4.277   4.330   0.748  0.8161  0.3663  0.1425
  899SOL    HW3 3369   4.185   4.428   0.681 -0.7666 -0.5975  0.8510
  899SOL    MW4 3370   4.248   4.411   0.738 -0.1285  0.3559 -0.2356
  900SOL     OW 3371   2.607   1.049   1.994  0.0386  0.1774 -0.1893
  900SOL    HW2 3372   2.687   1.084   1.953  0.1214 -0.0923 -0.2589
  900SOL    HW3 3373   2.639   0.996   2.067 -0.1630  2.7084  1.8888
  900SOL    MW4 3374   2.622   1.047   1.998  0.7153 -0.6029 -0.3633
  901SOL     OW 3375   2.134   0.276   2.571  0.1937 -0.5152 -0.3299
  901SOL    HW2 3376   2.128   0.341   2.641 -1.8404  1.0426 -1.8030
  901SOL    HW3 3377   2.219   0.234   2.584 -0.6332 -1.3243  3.8480
  901SOL    MW4 3378   2.145   0.279   2.582  0.1384 -0.5860  0.7367
  902SOL     OW 3379   1.749   5.692   5.196 -0.1301 -0.0785  0.0196
  902SOL    HW2 3380   1.666   5.702   5.243 -0.5736  0.4320 -0.8412
  902SOL    HW3 3381   1.811   5.746   5.245 -1.1606  2.4936 -1.3007
  902SOL    MW4 3382   1.746   5.700   5.209 -0.2593 -0.4557  0.5725
  903SOL     OW 3383   6.322   3.498   1.725  0.5703 -0.1271 -0.4031
  903SOL    HW2 3384   6.252   3.432   1.734 -0.1911  0.7958  0.7348
  903SOL    HW3 3385   6.278   3.574   1.688  1.0786  0.3031 -0.1280
  903SOL    MW4 3386   6.307   3.499   1.722  0.1898  0.0407  0.3628
  904SOL     OW 3387   5.444   1.332   1.865  0.1816 -0.2010  0.1797
  904SOL    HW2 3388   5.367   1.290   1.906 -0.7140 -0.3340 -1.5218
  904SOL    HW3 3389   5.416   1.422   1.848  1.5680  0.7464  2.4059
  904SOL    MW4 3390   5.430   1.338   1.868  0.5750 -0.2440 -0.0184
  905SOL     OW 3391   0.340   5.521   4.390  0.5306 -0.4507 -0.2608
  905SOL    HW2 3392   0.346   5.616   4.395  0.7618 -0.5053  0.7471
  905SOL    HW3 3393   0.247   5.501   4.397  0.4564 -0.2874 -0.7722
  905SOL    MW4 3394   0.329   5.531   4.392 -0.1032 -0.2369 -0.4027
  906SOL     OW 3395   4.828   0.376   0.591 -0.3341  0.0229 -0.2935
  906SOL    HW2 3396   4.734   0.394   0.581 -0.4330  0.0660  0.6192
  906SOL    HW3 3397   4.837   0.284   0.567 -0.5880  0.0513 -0.5084
  906SOL    MW4 3398   4.817   0.366   0.587 -0.2524 -0.2720  0.5675
  907SOL     OW 3399   1.367   6.160   3.795 -0.4218 -0.3719  0.1041
  907SOL    HW2 3400   1.350   6.110   3.875 -0.2225 -0.0728  0.3321
  907SOL    HW3 3401   1.398   6.245   3.825  0.5423 -0.5699 -0.2958
  907SOL    MW4 3402   1.369   6.164   3.809  0.2734 -0.3027  0.5477
  908SOL     OW 3403   1.984   1.687   1.759  0.0413 -0.1600 -0.5611
  908SOL    HW2 3404   1.936   1.769   1.744  1.3689  0.9145  0.6867
  908SOL    HW3 3405   2.076   1.712   1.750  0.6212 -0.8387  2.4110
  908SOL    MW4 3406   1.990   1.701   1.756 -0.5253 -0.1548 -0.4228
  909SOL     OW 3407   0.592   2.321   3.695 -0.2046 -0.4400 -0.1454
  909SOL    HW2 3408   0.647   2.243   3.684  0.3798  0.0759 -0.9122
  909SOL    HW3 3409   0.644   2.393   3.661 -0.4013  0.4481  1.3116
  909SOL    MW4 3410   0.606   2.320   3.689 -0.4143  0.0129  0.1667
  910SOL     OW 3411   1.830   2.447   3.143  0.2126  0.1072 -0.0631
  910SOL    HW2 3412   1.915   2.472   3.179 -0.3403  0.3781  1.1167
  910SOL    HW3 3413   1.797   2.527   3.103  0.1007  0.2744  0.3507
  910SOL    MW4 3414   1.837   2.461   3.143  0.0977  0.0404 -0.1109
  911SOL     OW 3415   1.735   3.143   4.576  0.4163 -0.3475  0.1621
  911SOL    HW2 3416   1.721   3.049   4.587  1.0949 -0.5390 -0.5225
  911SOL    HW3 3417   1.648   3.181   4.587  0.3400 -0.9111  1.7813
  911SOL    MW4 3418   1.721   3.135   4.579 -0.1474 -0.1656 -0.2166
  912SOL     OW 3419   0.809   1.849   0.479 -0.5625 -0.4285 -0.4616
  912SOL    HW2 3420   0.824   1.755   0.482  1.1526 -0.2423 -1.7268
  912SOL    HW3 3421   0.876   1.886   0.537 -0.7088  0.0465 -0.5881
  912SOL    MW4 3422   0.820   1.842   0.487 -0.4013  0.1017 -0.5439
  913SOL     OW 3423   2.516   1.781   4.849 -0.3795 -0.4305  0.2759
  913SOL    HW2 3424   2.528   1.748   4.760  0.4241 -2.5549  1.1093
  913SOL    HW3 3425   2.571   1.724   4.904 -1.6848  0.1113  2.2640
  913SOL    MW4 3426   2.525   1.769   4.845 -0.1918 -0.6060 -0.2383
  914SOL     OW 3427   0.877   4.428   0.592 -0.1940  0.8756 -0.1386
  914SOL    HW2 3428   0.829   4.388   0.665 -0.7398  0.8689 -0.4976
  914SOL    HW3 3429   0.964   4.389   0.597 -0.7965 -0.6361 -0.6849
  914SOL    MW4 3430   0.882   4.417   0.603  0.2124  0.1750  0.0103
  915SOL     OW 3431   2.456   0.190   3.199  0.1452  0.4726 -0.4019
  915SOL    HW2 3432   2.515   0.248   3.150 -0.0036  0.1857 -0.9249
  915SOL    HW3 3433   2.410   0.248   3.260 -1.1747  1.1850 -2.0244
  915SOL    MW4 3434   2.458   0.205   3.201 -0.5965 -0.4325  0.1285
  916SOL     OW 3435   4.161   0.401   2.365  0.0350  0.8625 -0.2231
  916SOL    HW2 3436   4.188   0.321   2.320 -0.1116  0.5192  0.2865
  916SOL    HW3 3437   4.191   0.472   2.308  0.3491  0.4510 -0.5796
  916SOL    MW4 3438   4.169   0.400   2.352 -0.2417 -0.5933 -0.4255
  917SOL     OW 3439   5.950   0.839   4.753  0.8012 -0.7657  0.0002
  917SOL    HW2 3440   6.026   0.875   4.799  0.5765 -1.0009  0.5619
  917SOL    HW3 3441   5.987   0.777   4.690  1.1357 -0.1593 -0.4160
  917SOL    MW4 3442   5.965   0.835   4.751  0.0967  0.0414  0.1463
  918SOL     OW 3443   0.443   6.284   1.739  0.5327  0.5142  0.0424
  918SOL    HW2 3444   0.517   6.326   1.693  2.0778 -3.1310 -1.1551
  918SOL    HW3 3445   0.483   6.239   1.813 -1.0559  1.1408  1.3395
  918SOL    MW4 3446   0.458   6.284   1.743  0.0706  0.2552  0.8990
  919SOL     OW 3447   3.295   0.885   1.191 -0.4147 -0.5397  0.1697
  919SOL    HW2 3448   3.374   0.927   1.225 -0.2531 -0.9338  0.2986
  919SOL    HW3 3449   3.227   0.952   1.198 -0.3269 -0.5240  1.0407
  919SOL    MW4 3450   3.296   0.899   1.196  0.5036 -0.4766  0.2960
  920SOL     OW 3451   2.149   3.001   3.955 -0.4544 -0.0194  0.3854
  920SOL    HW2 3452   2.242   2.995   3.935 -0.7224 -3.4307 -0.4036
  920SOL    HW3 3453   2.145   3.040   4.042  1.7299 -0.0199  0.5247
  920SOL    MW4 3454   2.161   3.005   3.964  0.0286  0.5587 -0.0513
  921SOL     OW 3455   2.897   5.881   3.180  0.1640 -0.4590  0.1280
  921SOL    HW2 3456   2.914   5.875   3.273 -0.7865 -1.8308  0.2397
  921SOL    HW3 3457   2.823   5.942   3.173  0.8938  0.4549  0.1615
  921SOL    MW4 3458   2.889   5.888   3.191 -0.1561 -0.6740 -0.2054
  922SOL     OW 3459   2.709   2.223   6.009  0.3609 -0.0936  0.3303
  922SOL    HW2 3460   2.786   2.259   5.965  2.3464  1.3418  4.4287
  922SOL    HW3 3461   2.723   2.128   6.008  2.1298  0.1242  0.7569
  922SOL    MW4 3462   2.721   2.215   6.003  0.2919 -0.0860  0.0057
  923SOL     OW 3463   5.446   3.672   2.444 -0.6274 -0.0151  0.3439
  923SOL    HW2 3464   5.456   3.683   2.349 -2.2669  0.9969  0.2479
  923SOL    HW3 3465   5.376   3.733   2.468 -1.7913 -1.8140  1.8423
  923SOL    MW4 3466   5.438   3.682   2.434 -0.1314 -0.2607 -0.0564
  924SOL     OW 3467   3.609   0.200   0.058 -0.0868 -0.2087  0.0390
  924SOL    HW2 3468   3.529   0.193   0.006  0.5155  0.9847 -1.0958
  924SOL    HW3 3469   3.669   0.137   0.018  0.1764  0.2808 -0.3477
  924SOL    MW4 3470   3.606   0.191   0.046  0.0691 -0.0485  0.4165
  925SOL     OW 3471   5.751   2.930   4.582  0.1711 -0.4377  0.1728
  925SOL    HW2 3472   5.697   2.950   4.505  2.3602 -0.5384 -1.4734
  925SOL    HW3 3473   5.756   3.013   4.629 -0.5709 -0.1780 -0.1843
  925SOL    MW4 3474   5.744   2.944   4.578 -0.1994 -0.1114  0.4828
  926SOL     OW 3475   4.980   2.176   3.455  0.1282  0.0200 -1.0211
  926SOL    HW2 3476   5.031   2.236   3.509 -0.3980 -0.4338  0.0267
  926SOL    HW3 3477   4.925   2.129   3.518 -0.3103 -0.7287 -1.9377
  926SOL    MW4 3478   4.979   2.178   3.471 -0.1008 -0.1701  0.4535
  927SOL     OW 3479   5.587   5.442   5.778  0.0109 -0.1742  0.2202
  927SOL    HW2 3480   5.595   5.350   5.753  0.6153  0.0643 -0.5210
  927SOL    HW3 3481   5.678   5.470   5.792 -0.2668 -0.5875  3.9702
  927SOL    MW4 3482   5.600   5.433   5.777  0.3601 -0.0676 -0.9312
  928SOL     OW 3483   1.815   3.320   4.955 -0.1018  0.6688  0.3144
  928SOL    HW2 3484   1.766   3.354   4.881 -0.2834 -0.4332 -0.0960
  928SOL    HW3 3485   1.836   3.230   4.931  1.2787  0.7989  0.9048
  928SOL    MW4 3486   1.812   3.312   4.942  0.2340  0.0261 -0.5168
  929SOL     OW 3487   5.859   5.638   4.844 -0.1259  0.0725 -0.5069
  929SOL    HW2 3488   5.792   5.616   4.779 -0.3660  0.5867 -0.4317
  929SOL    HW3 3489   5.896   5.553   4.868 -0.0736 -0.1335 -1.2685
  929SOL    MW4 3490   5.855   5.624   4.839  0.0243  0.9285  0.0552
  930SOL     OW 3491   0.457   3.068   4.899 -0.0073  0.2114 -0.2613
  930SOL    HW2 3492   0.466   2.982   4.858 -1.2526 -1.6241  2.9236
  930SOL    HW3 3493   0.402   3.119   4.838  0.4536 -1.3206 -2.0458
  930SOL    MW4 3494   0.451   3.064   4.885 -0.0654 -0.0908  0.0843
  931SOL     OW 3495   1.165   4.704   2.669  0.1421  0.3087  0.3476
  931SOL    HW2 3496   1.156   4.734   2.578  1.0934  1.3193  0.5518
  931SOL    HW3 3497   1.094   4.748   2.716 -1.7868 -1.9934 -0.2566
  931SOL    MW4 3498   1.154   4.714   2.663 -0.2064  0.7735 -0.3863
  932SOL     OW 3499   5.543   3.440   1.610 -0.0926 -0.0062  1.1392
  932SOL    HW2 3500   5.513   3.471   1.525  1.6011 -0.1401  0.4531
  932SOL    HW3 3501   5.581   3.517   1.653  2.3600 -0.6097  0.2243
  932SOL    MW4 3502   5.544   3.454   1.605 -0.6153 -0.2417 -0.0188
  933SOL     OW 3503   1.421   1.219   5.604 -0.4440  0.6490  0.0766
  933SOL    HW2 3504   1.447   1.214   5.696  1.0191  1.3064 -0.2734
  933SOL    HW3 3505   1.492   1.267   5.562 -1.0497  0.2765 -1.4195
  933SOL    MW4 3506   1.433   1.224   5.611  0.2122  0.0853 -0.0464
  934SOL     OW 3507   3.867   4.120   4.172  0.2525 -0.0535  0.2032
  934SOL    HW2 3508   3.881   4.117   4.266 -0.0516  4.1837  0.5620
  934SOL    HW3 3509   3.942   4.169   4.138 -0.3839 -0.2195 -1.5405
  934SOL    MW4 3510   3.879   4.126   4.180 -0.0172  0.2359  0.6787
  935SOL     OW 3511   4.189   5.538   5.281 -0.4788  0.1047  0.5430
  935SOL    HW2 3512   4.171   5.535   5.187  0.0731 -0.7374  0.4524
  935SOL    HW3 3513   4.104   5.528   5.322 -0.7188  0.4229  0.1275
  935SOL    MW4 3514   4.176   5.536   5.274  0.3578  0.4788 -0.1337
  936SOL     OW 3515   5.908   0.133   3.177  0.0876 -0.4134  0.3555
  936SOL    HW2 3516   5.863   0.196   3.233 -0.2615  0.3159 -0.7021
  936SOL    HW3 3517   5.942   0.067   3.237  0.9801  1.0793  1.5659
  936SOL    MW4 3518   5.907   0.132   3.192 -0.4781 -0.0118 -0.6377
  937SOL     OW 3519   3.107   6.180   2.167 -0.1348  0.4545  0.7603
  937SOL    HW2 3520   3.095   6.115   2.099  2.2716 -0.5895  1.2254
  937SOL    HW3 3521   3.111   6.130   2.249 -0.9450  1.4759  1.4629
  937SOL    MW4 3522   3.106   6.165   2.169  0.5018  0.3876 -0.1998
  938SOL     OW 3523   4.326   4.379   2.295 -0.4777 -0.2789 -0.2045
  938SOL    HW2 3524   4.268   4.410   2.365 -0.8296 -0.2438 -0.5077
  938SOL    HW3 3525   4.341   4.287   2.315  1.9331  0.4243  1.6528
  938SOL    MW4 3526   4.320   4.371   2.307  0.0322 -0.2677 -0.0989
  939SOL     OW 3527   2.358   0.094   1.331 -0.8503 -0.0550  0.5380
  939SOL    HW2 3528   2.364   0.178   1.378  0.4762 -0.4921  1.1935
  939SOL    HW3 3529   2.417   0.105   1.256 -1.2184 -0.1627  0.2318
  939SOL    MW4 3530   2.367   0.107   1.328  0.0586 -0.5728  0.0961
  940SOL     OW 3531   1.528   3.861   0.551  0.4148 -0.4337  0.1045
  940SOL    HW2 3532   1.621   3.840   0.555  0.7185  0.8490  0.4710
  940SOL    HW3 3533   1.492   3.828   0.633  0.7803  0.0298  0.4592
  940SOL    MW4 3534   1.536   3.854   0.562  0.0437 -0.4790  0.2463
  941SOL     OW 3535   1.505   0.855   4.213 -0.0042 -0.5343 -0.0547
  941SOL    HW2 3536   1.552   0.811   4.283 -1.1760 -0.7931  0.5945
  941SOL    HW3 3537   1.463   0.785   4.164  1.4534 -0.4348 -1.5596
  941SOL    MW4 3538   1.505   0.840   4.216 -0.1819 -0.1621  0.1177
  942SOL     OW 3539   6.237   6.007   3.935 -0.2222 -0.4969  0.4058
  942SOL    HW2 3540   6.234   5.970   4.023 -2.0970 -0.2194  0.5014
  942SOL    HW3 3541   6.214   6.099   3.947  4.2366  0.8877  0.1683
  942SOL    MW4 3542   6.234   6.014   3.948 -0.2882  0.4670 -0.6917
  943SOL     OW 3543   2.092   2.015   6.002 -0.3879 -0.4687  0.0153
  943SOL    HW2 3544   2.140   2.083   5.954 -0.5658 -0.4060 -0.0773
  943SOL    HW3 3545   2.072   2.056   6.087 -0.0809 -0.5762  0.1398
  943SOL    MW4 3546   2.096   2.030   6.007 -0.0178 -0.0520 -0.9098
  944SOL     OW 3547   3.432   3.329   2.105  0.0383 -0.1239 -0.5721
  944SOL    HW2 3548   3.489   3.388   2.056 -1.4587  2.0816  0.1767
  944SOL    HW3 3549   3.409   3.260   2.043  2.5292 -0.4671 -1.2239
  944SOL    MW4 3550   3.436   3.328   2.090  0.3939  0.5027  0.1401
  945SOL     OW 3551   4.096   5.896   3.013  0.1437  0.0611 -0.0815
  945SOL    HW2 3552   4.145   5.972   2.980  0.3479 -0.8714 -2.0298
  945SOL    HW3 3553   4.016   5.894   2.960  0.3671 -1.3602 -0.3972
  945SOL    MW4 3554   4.092   5.906   3.002  0.3623  0.1756  0.2333
  946SOL     OW 3555   3.576   0.432   5.493 -0.2069  0.4232  0.4897
  946SOL    HW2 3556   3.586   0.359   5.432  0.8815 -0.2786  1.4665
  946SOL    HW3 3557   3.482   0.446   5.499 -0.5051 -1.5656  1.0351
  946SOL    MW4 3558   3.565   0.424   5.486 -0.4102  0.3834  0.0903
  947SOL     OW 3559   2.996   6.100   0.821  0.3073  0.7985 -0.3790
  947SOL    HW2 3560   3.086   6.092   0.854  0.4873 -0.5546 -1.1017
  947SOL    HW3 3561   2.941   6.087   0.899  0.7347  0.4682 -0.1254
  947SOL    MW4 3562   3.001   6.097   0.836 -0.4864 -0.7768  0.0421
  948SOL     OW 3563   4.817   2.230   1.990  0.6143  0.3972 -0.2592
  948SOL    HW2 3564   4.762   2.193   2.059 -0.7414  1.5162 -0.6962
  948SOL    HW3 3565   4.760   2.293   1.945  2.3114  1.7675 -0.6033
  948SOL    MW4 3566   4.802   2.233   1.993  0.3195 -0.2110  0.6192
  949SOL     OW 3567   4.222   4.107   5.214 -0.4824  0.1242 -0.4432
  949SOL    HW2 3568   4.298   4.151   5.252 -0.9747  1.7347 -1.2431
  949SOL    HW3 3569   4.182   4.061   5.288  1.0466 -0.4963  0.0586
  949SOL    MW4 3570   4.227   4.107   5.229  0.3940  0.6754 -0.9115
  950SOL     OW 3571   2.275   5.581   4.487  0.2660 -0.1300  0.3612
  950SOL    HW2 3572   2.325   5.595   4.406  0.8777  0.5313  0.8412
  950SOL    HW3 3573   2.215   5.655   4.492 -0.1574 -0.4596  0.2388
  950SOL    MW4 3574   2.274   5.593   4.477  0.2822 -0.3568 -0.0241
  951SOL     OW 3575   5.825   2.132   5.219 -0.0863  0.1396 -0.4934
  951SOL    HW2 3576   5.916   2.155   5.201 -0.5066  0.7115 -2.0547
  951SOL    HW3 3577   5.805   2.176   5.301  0.9383  0.2674 -0.2894
  951SOL    MW4 3578   5.835   2.141   5.227  0.8273 -0.0944 -0.3074
  952SOL     OW 3579   3.013   4.088   3.960 -0.0243  0.3047  0.2133
  952SOL    HW2 3580   2.988   4.047   4.043  0.6169  0.4853  0.5086
  952SOL    HW3 3581   2.952   4.052   3.896  0.8330 -1.5487  0.3591
  952SOL    MW4 3582   3.002   4.078   3.963 -0.0240  0.4444 -0.0394
  953SOL     OW 3583   3.371   1.929   2.923 -0.3668 -0.4055  0.1304
  953SOL    HW2 3584   3.443   1.887   2.970  0.2631  1.8934  1.4176
  953SOL    HW3 3585   3.414   1.992   2.865 -1.2869 -0.4533 -0.6189
  953SOL    MW4 3586   3.386   1.932   2.922  0.3747  0.4650  0.6099
  954SOL     OW 3587   1.226   5.443   1.625  0.0617 -0.3823 -0.1173
  954SOL    HW2 3588   1.225   5.481   1.537 -0.1708 -1.0151 -0.3936
  954SOL    HW3 3589   1.317   5.415   1.637  0.1908  0.0746  0.0144
  954SOL    MW4 3590   1.238   5.444   1.615  0.1511  0.3067 -0.3170
  955SOL     OW 3591   1.211   3.182   0.492  0.1385  0.2646 -0.6937
  955SOL    HW2 3592   1.161   3.190   0.411  0.2378  1.4016 -0.6566
  955SOL    HW3 3593   1.252   3.095   0.486 -0.4916  0.0066 -1.4833
  955SOL    MW4 3594   1.210   3.171   0.480  0.1155 -0.1543 -0.1528
  956SOL     OW 3595   5.666   4.659   5.296 -0.8788 -0.1751  0.2143
  956SOL    HW2 3596   5.597   4.723   5.311 -0.1834  0.3680  1.2299
  956SOL    HW3 3597   5.694   4.675   5.206 -3.5191 -1.8771 -1.0316
  956SOL    MW4 3598   5.661   4.670   5.286  0.0948 -0.4484  0.6669
  957SOL     OW 3599   1.479   5.797   5.261 -0.2483  0.4436 -0.2149
  957SOL    HW2 3600   1.398   5.754   5.289 -1.1718  1.7525 -0.7933
  957SOL    HW3 3601   1.501   5.856   5.333  1.1700 -1.1260  0.7008
  957SOL    MW4 3602   1.471   5.799   5.275 -0.5270 -0.3154  0.2854
  958SOL     OW 3603   4.749   1.087   3.283 -0.3466  0.3551  0.1499
  958SOL    HW2 3604   4.837   1.119   3.266  0.4686 -0.3165  2.6773
  958SOL    HW3 3605   4.697   1.165   3.300  0.8069  0.6318  2.8310
  958SOL    MW4 3606   4.754   1.101   3.283 -0.3112 -0.2435  0.0331
  959SOL     OW 3607   5.764   5.617   1.117  0.4694 -0.0308  0.0457
  959SOL    HW2 3608   5.852   5.600   1.085  0.6377  0.0921  0.4426
  959SOL    HW3 3609   5.723   5.670   1.048  0.6227 -0.2880 -0.2460
  959SOL    MW4 3610   5.770   5.622   1.103  0.3554  0.2015  0.3200
  960SOL     OW 3611   6.381   1.176   5.521 -0.1731  0.1807 -0.4647
  960SOL    HW2 3612   6.425   1.127   5.591  1.1947  3.7389  1.4342
  960SOL    HW3 3613   6.417   1.140   5.440  1.7307 -1.0112  0.8351
  960SOL    MW4 3614   6.391   1.165   5.520 -0.0230 -0.1763 -0.0618
  961SOL     OW 3615   1.864   2.482   5.928  0.3456  0.0493 -0.2680
  961SOL    HW2 3616   1.881   2.390   5.907 -0.1810 -0.0253 -0.3689
  961SOL    HW3 3617   1.938   2.507   5.983 -0.5086 -0.9972  1.4483
  961SOL    MW4 3618   1.876   2.473   5.932  0.3354 -0.3591 -0.1655
  962SOL     OW 3619   0.674   0.952   0.974  0.3124 -0.4610 -0.0842
  962SOL    HW2 3620   0.631   0.986   0.896  1.0883 -1.5428 -1.0034
  962SOL    HW3 3621   0.733   0.884   0.942  0.6729 -0.9063  1.4373
  962SOL    MW4 3622   0.676   0.948   0.960 -0.1369  0.6607 -0.1877
  963SOL     OW 3623   4.826   3.064   0.274 -0.2720  0.2558 -0.3741
  963SOL    HW2 3624   4.843   3.071   0.180  0.2552  1.3641 -0.2001
  963SOL    HW3 3625   4.748   3.118   0.289 -0.9638 -0.7222 -0.3211
  963SOL    MW4 3626   4.818   3.072   0.264 -0.7239 -0.6789  0.3334
  964SOL     OW 3627   1.724   3.734   4.412 -0.1368 -0.0124 -0.2731
  964SOL    HW2 3628   1.816   3.758   4.411 -0.6049  2.6607  3.0878
  964SOL    HW3 3629   1.693   3.749   4.323  2.1870  1.2469 -0.9233
  964SOL    MW4 3630   1.732   3.739   4.400  0.2856  0.1985  0.1671
  965SOL     OW 3631   4.421   2.311   3.996 -0.2874  0.2063 -0.4093
  965SOL    HW2 3632   4.328   2.303   4.015 -1.0851  2.0644 -2.9776
  965SOL    HW3 3633   4.434   2.405   3.981  2.3215  0.1979  1.0988
  965SOL    MW4 3634   4.411   2.322   3.997 -0.8251  0.6153 -0.2579
  966SOL     OW 3635   1.461   1.702   1.649 -0.2469  0.3540 -0.1448
  966SOL    HW2 3636   1.522   1.677   1.580 -1.0831 -0.0305 -0.7521
  966SOL    HW3 3637   1.389   1.745   1.603 -1.4663 -1.1138  0.3406
  966SOL    MW4 3638   1.460   1.705   1.634  0.1105  0.0316 -0.6005
  967SOL     OW 3639   4.036   2.976   0.001 -0.0481  0.2913  0.0142
  967SOL    HW2 3640   4.091   2.919  -0.052  0.3078  1.8645 -1.3908
  967SOL    HW3 3641   4.000   3.040  -0.060 -1.4923  0.7931  1.3076
  967SOL    MW4 3642   4.038   2.977  -0.014  0.3196 -0.0013  0.4024
  968SOL     OW 3643   0.025   4.074   2.939 -0.1150  0.6105 -0.0356
  968SOL    HW2 3644   0.032   4.047   3.031 -1.6461 -1.8728 -0.5595
  968SOL    HW3 3645   0.091   4.143   2.930  2.4638 -1.3491  2.1029
  968SOL    MW4 3646   0.035   4.079   2.950  1.1249  0.1447 -0.0992
  969SOL     OW 3647   0.067   4.055   3.485  0.1053 -0.3333 -0.1340
  969SOL    HW2 3648  -0.013   4.022   3.527  0.7103 -0.0409  1.2981
  969SOL    HW3 3649   0.133   3.988   3.501  0.5152  0.0888 -0.0260
  969SOL    MW4 3650   0.065   4.042   3.492 -0.1361  1.2003 -0.0910
  970SOL     OW 3651   3.397   0.792   0.007 -0.3915  0.3313 -0.3090
  970SOL    HW2 3652   3.423   0.832   0.090 -2.4847  1.6498 -0.2212
  970SOL    HW3 3653   3.430   0.853  -0.060 -1.6784  1.0915 -0.2706
  970SOL    MW4 3654   3.405   0.805   0.009 -0.3141  0.0350 -0.3071
  971SOL     OW 3655   1.751   3.953   1.358 -0.0905 -0.1452 -0.1492
  971SOL    HW2 3656   1.658   3.940   1.372 -0.2386 -1.0508 -1.6946
  971SOL    HW3 3657   1.772   4.035   1.403 -1.7654  0.4355 -0.3690
  971SOL    MW4 3658   1.742   3.962   1.365 -0.3360 -0.2910  0.1640
  972SOL     OW 3659   1.365   5.132   4.647  0.3857  0.1721  0.1675
  972SOL    HW2 3660   1.321   5.216   4.663 -0.0977  0.1536 -0.9852
  972SOL    HW3 3661   1.455   5.146   4.677  0.3541  1.1548 -0.1713
  972SOL    MW4 3662   1.371   5.145   4.653 -0.1422 -0.1256 -0.2528
  973SOL     OW 3663   1.289   5.941   2.006 -0.2752  0.5108  0.2277
  973SOL    HW2 3664   1.199   5.946   1.973  0.0218 -0.7136 -0.8484
  973SOL    HW3 3665   1.296   5.856   2.048  0.3682  0.6180  0.3613
  973SOL    MW4 3666   1.278   5.931   2.007  0.6820 -0.0597 -0.2281
  974SOL     OW 3667   0.678   4.638   2.829 -0.3320  0.1287 -0.0747
  974SOL    HW2 3668   0.759   4.603   2.791  0.7783  1.1390  1.2365
  974SOL    HW3 3669   0.679   4.606   2.920 -1.7464 -0.3586 -0.2140
  974SOL    MW4 3670   0.689   4.629   2.836 -0.2733 -0.5253 -0.0158
  975SOL     OW 3671   0.458   5.320   1.178  0.4348  0.4579 -0.3749
  975SOL    HW2 3672   0.434   5.253   1.242  1.1729  0.2321 -0.3194
  975SOL    HW3 3673   0.397   5.308   1.105 -1.7166  1.9829  1.0604
  975SOL    MW4 3674   0.447   5.310   1.177  0.1778  0.5375  0.5217
  976SOL     OW 3675   0.365   6.153   2.608 -0.1924 -0.6634  0.5418
  976SOL    HW2 3676   0.321   6.207   2.542 -0.7619 -0.8673  0.7461
  976SOL    HW3 3677   0.389   6.073   2.561  1.6657  0.1868 -0.0567
  976SOL    MW4 3678   0.362   6.150   2.593  0.3307 -0.5428 -0.1101
  977SOL     OW 3679   5.452   1.703   6.024  0.8523  0.1412 -0.0521
  977SOL    HW2 3680   5.473   1.769   5.958  1.7575  1.4613  1.4485
  977SOL    HW3 3681   5.537   1.668   6.050  0.4357 -1.0656 -0.2463
  977SOL    MW4 3682   5.466   1.707   6.019  0.2743 -0.3995  0.3866
  978SOL     OW 3683   6.409   2.709   0.410 -0.1658 -0.3874  0.1248
  978SOL    HW2 3684   6.318   2.698   0.437 -0.3173 -0.1731 -0.3075
  978SOL    HW3 3685   6.434   2.795   0.443 -0.2728 -0.2332 -0.1999
  978SOL    MW4 3686   6.401   2.719   0.418 -0.1652 -0.0268 -0.0364
  979SOL     OW 3687   2.448   4.214   2.375 -0.0643  0.5335 -0.0641
  979SOL    HW2 3688   2.383   4.159   2.332 -1.0063 -0.0213  1.9667
  979SOL    HW3 3689   2.480   4.162   2.449  1.2912  1.5475  0.1198
  979SOL    MW4 3690   2.444   4.200   2.379  0.1434  0.6743 -0.3253
  980SOL     OW 3691   6.156   1.771   4.712 -0.6008 -0.5134  0.4935
  980SOL    HW2 3692   6.153   1.835   4.783 -0.9269 -0.4845  0.4561
  980SOL    HW3 3693   6.064   1.757   4.689 -0.5902 -1.5142  0.9696
  980SOL    MW4 3694   6.143   1.777   4.719  0.3129 -0.1397 -0.4387
  981SOL     OW 3695   4.778   1.464   2.555 -0.6064  0.2575  0.3486
  981SOL    HW2 3696   4.808   1.542   2.601 -3.0141  0.8509  1.0423
  981SOL    HW3 3697   4.811   1.474   2.465  1.5392  0.5956  1.1098
  981SOL    MW4 3698   4.786   1.475   2.549 -0.5973  0.9309 -0.0783
  982SOL     OW 3699   4.370   4.525   3.217 -0.0969  0.1380 -0.2699
  982SOL    HW2 3700   4.308   4.594   3.240 -0.5114 -0.9060  2.0234
  982SOL    HW3 3701   4.347   4.501   3.127 -1.6718  1.1738 -0.1898
  982SOL    MW4 3702   4.359   4.531   3.208  0.3135 -0.1294 -0.1694
  983SOL     OW 3703   4.419   1.072   1.422 -0.2038 -0.2930  0.3909
  983SOL    HW2 3704   4.383   0.992   1.384 -0.2825 -0.3203  0.5225
  983SOL    HW3 3705   4.493   1.094   1.365 -1.4564  0.7300 -0.9292
  983SOL    MW4 3706   4.424   1.065   1.409 -0.0881 -0.5736 -0.2820
  984SOL     OW 3707   5.781   2.985   2.019  0.6451 -0.3780  0.4847
  984SOL    HW2 3708   5.854   2.985   1.957  1.9952 -0.1153  2.0079
  984SOL    HW3 3709   5.729   2.908   1.996  0.7720  0.0472 -1.3210
  984SOL    MW4 3710   5.783   2.975   2.008 -0.5280 -0.4268  0.0467
  985SOL     OW 3711   1.219   0.999   5.239 -0.9388 -0.0743 -0.5435
  985SOL    HW2 3712   1.146   1.060   5.222 -0.8643  0.3475  0.5218
  985SOL    HW3 3713   1.224   0.996   5.335  1.1655  0.7745 -0.5871
  985SOL    MW4 3714   1.210   1.007   5.250 -0.0952 -0.1732 -0.0896
  986SOL     OW 3715   2.800   0.947   2.534 -0.1012  0.4567  0.3593
  986SOL    HW2 3716   2.765   0.859   2.518  0.7615 -0.3219  2.3968
  986SOL    HW3 3717   2.893   0.933   2.549  0.3891  1.9802 -0.9557
  986SOL    MW4 3718   2.807   0.933   2.534 -0.1063 -0.2137 -0.5203
  987SOL     OW 3719   3.133   0.716   0.705 -0.7075 -0.4518  0.1854
  987SOL    HW2 3720   3.199   0.670   0.757 -1.0098 -0.4764  0.5532
  987SOL    HW3 3721   3.050   0.696   0.748 -0.9498 -0.3640 -0.2306
  987SOL    MW4 3722   3.131   0.707   0.718 -0.2643 -0.0295  0.7128
  988SOL     OW 3723   0.555   2.448   1.836  0.1437  0.0771 -0.0983
  988SOL    HW2 3724   0.576   2.542   1.842 -1.6006  0.5674 -0.8466
  988SOL    HW3 3725   0.589   2.410   1.917  1.7962  1.1543 -0.2455
  988SOL    MW4 3726   0.562   2.456   1.847  0.2231  0.0398  0.6918
  989SOL     OW 3727   0.157   6.373   0.264 -0.6035 -0.2267 -0.3954
  989SOL    HW2 3728   0.210   6.395   0.188 -1.1723  0.6151 -0.5590
  989SOL    HW3 3729   0.103   6.299   0.234  0.2355 -0.8789 -0.3253
  989SOL    MW4 3730   0.157   6.366   0.250 -0.1358 -0.1909  0.4068
  990SOL     OW 3731   5.576   5.071   1.496  0.2997  0.3479  0.1014
  990SOL    HW2 3732   5.653   5.102   1.449 -0.2367  2.5172  0.5770
  990SOL    HW3 3733   5.611   5.036   1.579  0.9332 -0.5697 -0.5325
  990SOL    MW4 3734   5.591   5.070   1.501 -0.3119 -0.6574  0.0907
  991SOL     OW 3735   3.766   4.131   3.111  0.0377  0.3922  0.5671
  991SOL    HW2 3736   3.682   4.157   3.148  0.2941  0.1593  1.3151
  991SOL    HW3 3737   3.831   4.169   3.170  0.4576  0.5123  0.0309
  991SOL    MW4 3738   3.763   4.140   3.123 -0.1959 -0.5205  0.1964
  992SOL     OW 3739   0.919   1.135   1.646  0.0778  0.4940 -0.4722
  992SOL    HW2 3740   0.831   1.167   1.666  0.2257  0.5970  0.0503
  992SOL    HW3 3741   0.976   1.187   1.704  0.2616 -1.2122  0.9578
  992SOL    MW4 3742   0.915   1.146   1.657  1.0492  0.4746 -0.3988
  993SOL     OW 3743   5.864   1.420   1.906 -0.4341 -0.2379  0.6298
  993SOL    HW2 3744   5.803   1.408   1.979  0.3118  0.7538  1.4497
  993SOL    HW3 3745   5.947   1.441   1.948 -0.8324  4.6612 -0.3808
  993SOL    MW4 3746   5.867   1.421   1.921  0.1720  0.3014 -0.1476
  994SOL     OW 3747   0.803   2.203   0.525 -0.2087 -0.1262  0.1084
  994SOL    HW2 3748   0.761   2.289   0.523  0.0414  0.0269  1.0583
  994SOL    HW3 3749   0.806   2.176   0.433 -0.7037  0.6735 -0.1550
  994SOL    MW4 3750   0.798   2.211   0.513 -0.3944  0.1094 -0.1961
  995SOL     OW 3751   4.361   4.277   4.980 -0.2684  0.0628  0.3585
  995SOL    HW2 3752   4.400   4.190   4.989  0.4114  0.0059 -2.1687
  995SOL    HW3 3753   4.274   4.261   4.943 -1.6070  0.3508  3.1669
  995SOL    MW4 3754   4.355   4.263   4.976 -0.2828  0.0002 -0.2991
  996SOL     OW 3755   3.368   0.250   6.358 -0.4070 -0.2113  0.4720
  996SOL    HW2 3756   3.384   0.270   6.266  1.2923  1.8295  1.1279
  996SOL    HW3 3757   3.352   0.335   6.398 -1.9688 -1.1436  1.9642
  996SOL    MW4 3758   3.368   0.263   6.351 -0.3292  0.1562 -0.5232
  997SOL     OW 3759   3.230   1.831   2.401  0.2220  0.5256 -0.5016
  997SOL    HW2 3760   3.228   1.789   2.314 -0.9614 -0.0731 -0.2168
  997SOL    HW3 3761   3.139   1.856   2.417  0.1257 -0.6648  1.1506
  997SOL    MW4 3762   3.217   1.829   2.391 -0.1763  0.1957 -0.1006
  998SOL     OW 3763   2.713   0.813   1.423  0.2472 -0.0488 -0.1323
  998SOL    HW2 3764   2.775   0.821   1.495  0.1693  1.8935 -0.2241
  998SOL    HW3 3765   2.641   0.873   1.445 -0.8953 -1.1341 -0.7383
  998SOL    MW4 3766   2.711   0.822   1.435  0.1334 -0.4590  0.1956
  999SOL     OW 3767   1.154   0.412   0.883 -0.0391  0.1800 -0.6625
  999SOL    HW2 3768   1.208   0.346   0.926 -1.4966 -0.5379  0.1488
  999SOL    HW3 3769   1.197   0.495   0.903  0.3876 -0.3095  0.5567
  999SOL    MW4 3770   1.167   0.414   0.892  0.2606 -0.0188 -0.0027
 1000SOL     OW 3771   1.019   3.872   6.253  0.1260  0.7267 -0.1793
 1000SOL    HW2 3772   1.034   3.937   6.185  1.6693  2.1129  1.3818
 1000SOL    HW3 3773   0.930   3.889   6.284 -0.4670  0.2909 -1.5746
 1000SOL    MW4 3774   1.009   3.883   6.248  0.0501 -0.0699  0.1330
 1001SOL     OW 3775   2.098   0.588   0.156 -0.0601 -0.0483 -0.2854
 1001SOL    HW2 3776   2.072   0.585   0.064  1.5215  0.3229 -0.7753
 1001SOL    HW3 3777   2.068   0.673   0.187  0.9158  0.5476 -0.9525
 1001SOL    MW4 3778   2.090   0.599   0.148 -0.2297  0.6662 -0.0379
 1002SOL     OW 3779   5.959   6.108   4.902  0.0371 -0.0400  0.1907
 1002SOL    HW2 3780   5.965   6.124   4.996 -1.0066 -1.7498  0.5942
 1002SOL    HW3 3781   6.010   6.028   4.888 -1.3054 -0.8519 -0.3343
 1002SOL    MW4 3782   5.966   6.099   4.913  0.0647 -0.0456  0.0812
 1003SOL     OW 3783   4.254   2.077   5.940  0.0201  0.2277  0.4745
 1003SOL    HW2 3784   4.262   2.017   6.014 -1.9575  0.3361  0.8337
 1003SOL    HW3 3785   4.270   2.023   5.863  0.8423 -0.1695  0.9171
 1003SOL    MW4 3786   4.257   2.062   5.940 -0.5732 -0.8118  0.2295
 1004SOL     OW 3787   3.001   3.143   0.611  0.3620  0.4053 -0.0154
 1004SOL    HW2 3788   3.081   3.110   0.571 -0.4592 -1.3487 -0.3320
 1004SOL    HW3 3789   2.999   3.104   0.698  0.1779  0.9880  0.2470
 1004SOL    MW4 3790   3.011   3.133   0.617 -0.1549  0.0056 -0.2647
 1005SOL     OW 3791   5.805   5.939   1.640 -0.0778 -0.1630 -0.3553
 1005SOL    HW2 3792   5.749   5.934   1.562  1.4673 -0.5614 -1.4834
 1005SOL    HW3 3793   5.794   5.854   1.683  2.1406 -1.6366 -2.4226
 1005SOL    MW4 3794   5.796   5.927   1.635 -0.3581 -0.1758 -0.3013
 1006SOL     OW 3795   4.959   4.467   6.022 -0.8934 -0.1599 -0.7387
 1006SOL    HW2 3796   4.872   4.481   5.985 -0.7325  0.1677 -1.0009
 1006SOL    HW3 3797   5.017   4.517   5.965 -0.5464 -0.2943 -0.5042
 1006SOL    MW4 3798   4.955   4.475   6.010  0.0305  0.3188 -0.5583
 1007SOL     OW 3799   3.298   3.411   5.339 -0.2236  0.4211  0.9111
 1007SOL    HW2 3800   3.317   3.324   5.374  0.1880 -0.2332 -0.7861
 1007SOL    HW3 3801   3.238   3.450   5.401 -0.6209 -1.1874  1.5959
 1007SOL    MW4 3802   3.293   3.405   5.352  0.2587  0.3362  0.0485
 1008SOL     OW 3803   4.981   2.293   5.583 -0.1628  0.0473 -0.5355
 1008SOL    HW2 3804   4.922   2.223   5.611  0.4257  0.5229  2.2031
 1008SOL    HW3 3805   4.937   2.374   5.611  0.7583  0.5320 -0.4404
 1008SOL    MW4 3806   4.967   2.295   5.591  0.6101  0.0126  0.0438
 1009SOL     OW 3807   5.403   3.931   6.246  0.0382  0.0334 -0.0274
 1009SOL    HW2 3808   5.436   3.934   6.336  0.8213  1.3605 -0.3311
 1009SOL    HW3 3809   5.309   3.949   6.255  0.4191  2.0809  0.4193
 1009SOL    MW4 3810   5.395   3.934   6.259 -0.3976 -0.3549  0.3954
 1010SOL     OW 3811   3.788   1.631   0.583 -0.9788 -0.6414 -0.4253
 1010SOL    HW2 3812   3.820   1.720   0.569  1.1225 -1.3832 -0.7427
 1010SOL    HW3 3813   3.770   1.598   0.495 -0.5803 -0.9166 -0.4071
 1010SOL    MW4 3814   3.790   1.639   0.569 -0.7575 -0.1315  0.3618
 1011SOL     OW 3815   3.137   2.906   4.287  0.1305 -0.4722 -0.0350
 1011SOL    HW2 3816   3.230   2.882   4.284  0.2113 -0.6832  2.2203
 1011SOL    HW3 3817   3.095   2.843   4.229  1.5122  0.5565 -2.2795
 1011SOL    MW4 3818   3.144   2.894   4.279  0.9602 -0.3462 -0.2735
 1012SOL     OW 3819   0.680   3.374   4.681  0.0649 -0.0500 -0.0869
 1012SOL    HW2 3820   0.762   3.384   4.633 -0.3638  0.0462 -0.8317
 1012SOL    HW3 3821   0.666   3.279   4.687  1.6919 -0.2074  2.6694
 1012SOL    MW4 3822   0.689   3.363   4.675  0.4591 -0.2451  0.6295
 1013SOL     OW 3823   3.928   1.635   4.409  0.0468  0.3872  0.0800
 1013SOL    HW2 3824   3.851   1.579   4.421  1.0167 -1.1060 -0.3337
 1013SOL    HW3 3825   3.944   1.633   4.314 -1.1505  3.1728 -0.2651
 1013SOL    MW4 3826   3.920   1.627   4.398  0.5524  0.5939 -0.0080
 1014SOL     OW 3827   6.252   1.387   0.397  0.0706  0.6793 -0.1721
 1014SOL    HW2 3828   6.328   1.364   0.345  0.4418  1.4388  0.0098
 1014SOL    HW3 3829   6.235   1.479   0.375  0.0721  0.9326  0.8177
 1014SOL    MW4 3830   6.260   1.396   0.388 -0.1930  0.9370 -0.4463
 1015SOL     OW 3831   0.813   3.339   6.164  0.1054  0.6340  0.1805
 1015SOL    HW2 3832   0.751   3.285   6.213 -0.5666  0.2810 -1.0270
 1015SOL    HW3 3833   0.890   3.282   6.152 -0.2427  0.2593 -0.3002
 1015SOL    MW4 3834   0.815   3.324   6.169  0.9678  0.0921  0.4868
 1016SOL     OW 3835   1.016   2.188   5.419  0.0050 -0.1316 -0.4488
 1016SOL    HW2 3836   1.078   2.233   5.361  1.2472  1.1420  1.7068
 1016SOL    HW3 3837   0.970   2.259   5.464  1.1113 -0.9238  2.1319
 1016SOL    MW4 3838   1.018   2.204   5.418  0.6309  0.4149 -0.3393
 1017SOL     OW 3839   5.756   3.221   0.859  0.0020 -0.4050 -0.4825
 1017SOL    HW2 3840   5.814   3.297   0.856  1.1328 -1.0526  2.0577
 1017SOL    HW3 3841   5.704   3.235   0.939 -1.1618 -1.3767 -1.0408
 1017SOL    MW4 3842   5.757   3.233   0.869  0.0230 -0.2579  0.6095
 1018SOL     OW 3843   5.958   0.605   1.480  0.0030 -0.1843  0.5861
 1018SOL    HW2 3844   5.863   0.592   1.478 -0.3295  1.7326  1.4859
 1018SOL    HW3 3845   5.981   0.630   1.390 -0.5177  0.3469  0.5985
 1018SOL    MW4 3846   5.949   0.606   1.468  0.0414 -0.0460  0.1592
 1019SOL     OW 3847   5.127   0.212   2.817  0.5796 -0.3695 -0.6790
 1019SOL    HW2 3848   5.202   0.265   2.842  0.5857 -1.7996  2.9922
 1019SOL    HW3 3849   5.106   0.161   2.895 -3.3253 -1.1551 -1.9903
 1019SOL    MW4 3850   5.134   0.212   2.830  0.1662 -0.9278  0.2056
 1020SOL     OW 3851   6.423   5.009   1.056  0.8823  0.3663 -0.3302
 1020SOL    HW2 3852   6.359   4.965   1.113  0.8956  0.8095  0.0285
 1020SOL    HW3 3853   6.432   4.950   0.981 -0.3319  0.5272 -0.6321
 1020SOL    MW4 3854   6.416   4.995   1.053 -0.4486 -0.0571 -0.2937
 1021SOL     OW 3855   0.485   3.154   0.637 -0.5368  0.2951 -0.0372
 1021SOL    HW2 3856   0.432   3.139   0.559 -2.7097  0.7531  1.2499
 1021SOL    HW3 3857   0.504   3.248   0.636 -2.9576  0.8939  1.2843
 1021SOL    MW4 3858   0.481   3.164   0.627 -0.4987 -0.6537  0.3621
 1022SOL     OW 3859   0.875   0.382   3.518 -0.0827 -0.7156 -0.1216
 1022SOL    HW2 3860   0.936   0.452   3.540 -0.7174 -0.5607  1.2847
 1022SOL    HW3 3861   0.927   0.302   3.525 -0.1819 -0.6589  1.9099
 1022SOL    MW4 3862   0.890   0.381   3.522  0.5952 -0.1478 -0.2242
 1023SOL     OW 3863   6.291   3.295   3.008 -0.3162  0.0423 -0.4738
 1023SOL    HW2 3864   6.375   3.259   2.979  0.2708  1.5830 -0.8391
 1023SOL    HW3 3865   6.258   3.343   2.932 -1.1243  0.1521 -0.0653
 1023SOL    MW4 3866   6.298   3.297   2.995  0.6378 -0.3006 -0.6038
 1024SOL     OW 3867   0.370   0.289   5.849 -0.6638 -0.7011  0.7525
 1024SOL    HW2 3868   0.397   0.379   5.864 -0.7490 -0.3000 -1.1832
 1024SOL    HW3 3869   0.305   0.272   5.917  1.0777 -0.1679  2.6649
 1024SOL    MW4 3870   0.365   0.298   5.860 -0.8070  0.6882  0.5322
 1025SOL     OW 3871   3.087   4.218   5.547 -0.4626  0.1897 -0.5550
 1025SOL    HW2 3872   3.033   4.145   5.518 -1.2626 -0.0218  1.3409
 1025SOL    HW3 3873   3.099   4.204   5.641  3.0627  0.1310 -0.8692
 1025SOL    MW4 3874   3.082   4.207   5.555 -0.1231  0.5165  0.1970
 1026SOL     OW 3875   5.405   4.609   4.383  0.1185 -0.2036 -0.1480
 1026SOL    HW2 3876   5.321   4.577   4.414  0.5357 -0.9024  0.2803
 1026SOL    HW3 3877   5.388   4.640   4.294 -0.2335 -1.9053 -0.7010
 1026SOL    MW4 3878   5.392   4.609   4.376 -0.3969  0.0956  0.4087
 1027SOL     OW 3879   2.506   1.419   4.088 -0.3199 -0.3482 -0.4665
 1027SOL    HW2 3880   2.461   1.499   4.117 -0.7035 -0.2763 -1.2189
 1027SOL    HW3 3881   2.579   1.451   4.036  0.2846 -0.4781  0.2854
 1027SOL    MW4 3882   2.510   1.434   4.085 -0.8651 -0.4172 -0.2694
 1028SOL     OW 3883   3.246   6.074   3.712 -0.6462  0.4679  0.2774
 1028SOL    HW2 3884   3.160   6.043   3.684  0.3232 -2.0644 -0.1840
 1028SOL    HW3 3885   3.260   6.031   3.797  0.8222 -0.6072 -0.4544
 1028SOL    MW4 3886   3.236   6.064   3.720 -0.6202  0.0938 -0.1157
 1029SOL     OW 3887   0.620   0.200   5.956 -0.0598  0.5132 -0.6930
 1029SOL    HW2 3888   0.630   0.277   6.012 -1.4886  0.9881 -1.0594
 1029SOL    HW3 3889   0.538   0.214   5.910  0.5488 -0.3756 -2.1202
 1029SOL    MW4 3890   0.611   0.212   5.957 -0.2896 -0.2891  1.2129
 1030SOL     OW 3891   0.008   4.675   0.453  0.2784  0.2239 -0.4321
 1030SOL    HW2 3892   0.044   4.719   0.376  0.1717 -1.2155 -1.3512
 1030SOL    HW3 3893  -0.074   4.636   0.422 -0.4648  0.7544  0.7869
 1030SOL    MW4 3894   0.002   4.675   0.439 -0.1529  0.2415 -0.0004
 1031SOL     OW 3895   3.898   2.790   5.462 -0.2310  0.2173 -0.4689
 1031SOL    HW2 3896   3.873   2.704   5.428 -0.5844  0.4796 -0.8806
 1031SOL    HW3 3897   3.825   2.817   5.517  0.8526 -0.7429  1.5477
 1031SOL    MW4 3898   3.885   2.782   5.465  0.5192  0.4347  0.0474
 1032SOL     OW 3899   2.252   2.286   3.267  0.5130 -0.1442 -0.7813
 1032SOL    HW2 3900   2.326   2.242   3.226  1.1843 -0.3151  0.5711
 1032SOL    HW3 3901   2.289   2.330   3.344 -0.6511  0.4123 -0.5120
 1032SOL    MW4 3902   2.266   2.286   3.272  0.2633 -0.0308  0.3582
 1033SOL     OW 3903   2.195   2.682   5.663 -0.3809 -0.0712 -0.4601
 1033SOL    HW2 3904   2.100   2.671   5.670 -0.2312 -1.8629 -0.6722
 1033SOL    HW3 3905   2.208   2.776   5.657 -2.2665  0.1716 -1.7903
 1033SOL    MW4 3906   2.184   2.693   5.663 -0.9170  0.4332 -0.0116
 1034SOL     OW 3907   3.752   3.774   6.283  0.4010 -0.1060 -0.3468
 1034SOL    HW2 3908   3.701   3.741   6.358  1.6357  0.5235  0.8165
 1034SOL    HW3 3909   3.738   3.709   6.214 -2.1044  0.1192 -0.1718
 1034SOL    MW4 3910   3.743   3.761   6.284 -0.8953  0.0295  0.5112
 1035SOL     OW 3911   5.578   5.085   2.044 -0.4199 -0.1217 -0.1069
 1035SOL    HW2 3912   5.491   5.083   2.085 -0.8501 -1.7000 -1.0185
 1035SOL    HW3 3913   5.615   5.168   2.072 -1.1598 -0.5668  2.5077
 1035SOL    MW4 3914   5.571   5.095   2.053 -0.2742 -0.0607  0.0678
 1036SOL     OW 3915   4.738   2.819   3.298 -0.6650  0.4029 -0.1052
 1036SOL    HW2 3916   4.651   2.855   3.314 -0.0654  1.0141  2.2144
 1036SOL    HW3 3917   4.732   2.728   3.330 -0.5617  0.3267 -0.3013
 1036SOL    MW4 3918   4.726   2.812   3.304 -0.5585 -0.2950  0.0558
 1037SOL     OW 3919   0.560   3.509   4.079 -0.1007 -0.2102 -0.3014
 1037SOL    HW2 3920   0.564   3.419   4.046  0.5577 -0.5044  0.5500
 1037SOL    HW3 3921   0.468   3.533   4.072 -0.1217 -0.5764 -1.5028
 1037SOL    MW4 3922   0.549   3.500   4.074 -0.0688  0.3846 -0.6875
 1038SOL     OW 3923   4.220   4.092   5.948  0.5565 -0.0737  0.2885
 1038SOL    HW2 3924   4.267   4.095   5.865 -1.2791  2.0313 -0.7641
 1038SOL    HW3 3925   4.150   4.029   5.935  0.6899 -0.2741  0.5124
 1038SOL    MW4 3926   4.217   4.084   5.936  0.5075  0.4265 -0.1954
 1039SOL     OW 3927   1.506   5.456   1.566  0.3254  0.1919  0.4945
 1039SOL    HW2 3928   1.547   5.496   1.643  1.9941 -0.1313 -0.1866
 1039SOL    HW3 3929   1.569   5.389   1.538 -1.3231 -1.3100  0.2138
 1039SOL    MW4 3930   1.520   5.452   1.573  0.5626 -0.2174  0.3769
 1040SOL     OW 3931   0.617   6.273   3.057 -0.6171 -0.0923  0.9017
 1040SOL    HW2 3932   0.627   6.368   3.058 -0.3747 -0.1121  1.4412
 1040SOL    HW3 3933   0.692   6.242   3.108  0.0995 -0.6570 -0.4524
 1040SOL    MW4 3934   0.628   6.282   3.064 -0.0097  0.4588  0.1311
 1041SOL     OW 3935   0.352   4.471   1.310  0.2693  0.3064 -0.5656
 1041SOL    HW2 3936   0.317   4.498   1.394  2.0352  0.1815  0.2592
 1041SOL    HW3 3937   0.297   4.515   1.245 -1.2224  0.2599  0.6321
 1041SOL    MW4 3938   0.340   4.480   1.312 -0.1233  0.2591 -0.1960
 1042SOL     OW 3939   6.286   4.166   0.782 -0.6963 -0.4818 -0.2820
 1042SOL    HW2 3940   6.282   4.134   0.691 -0.9660  1.4472 -0.9987
 1042SOL    HW3 3941   6.253   4.093   0.834 -1.5875 -1.2618 -1.8505
 1042SOL    MW4 3942   6.281   4.152   0.777  0.3429 -0.0195  0.1642
 1043SOL     OW 3943   3.355   2.029   4.177 -0.0429 -0.1981  0.0263
 1043SOL    HW2 3944   3.290   2.014   4.109  1.4505  1.1179 -1.8142
 1043SOL    HW3 3945   3.310   2.079   4.244 -1.1437 -0.0939 -0.7742
 1043SOL    MW4 3946   3.341   2.033   4.177  0.8905  0.0561  0.6093
 1044SOL     OW 3947   4.263   2.543   0.582 -0.0916  0.3764 -0.2877
 1044SOL    HW2 3948   4.335   2.597   0.615 -0.8942  2.0450 -1.1387
 1044SOL    HW3 3949   4.269   2.461   0.632 -0.0492  1.9844  2.6018
 1044SOL    MW4 3950   4.273   2.539   0.593  0.4845 -0.4184  0.1793
 1045SOL     OW 3951   3.456   5.998   6.302 -0.4738 -0.1418  0.0199
 1045SOL    HW2 3952   3.542   5.980   6.339 -0.5927 -1.4361 -0.2897
 1045SOL    HW3 3953   3.434   5.920   6.251 -2.3316 -0.3450  1.0311
 1045SOL    MW4 3954   3.464   5.985   6.300 -0.6451 -0.2541  0.0593
 1046SOL     OW 3955   2.226   5.810   6.318 -0.2038 -0.0642 -0.0766
 1046SOL    HW2 3956   2.147   5.808   6.372 -0.6643  0.1007 -0.7389
 1046SOL    HW3 3957   2.201   5.861   6.241  1.5708  3.2951  1.3417
 1046SOL    MW4 3958   2.212   5.817   6.315  0.1213 -0.5730  0.0559
 1047SOL     OW 3959   4.679   1.927   3.333 -0.2623  0.8414 -0.2812
 1047SOL    HW2 3960   4.681   1.849   3.389 -0.9343  0.1333 -1.2327
 1047SOL    HW3 3961   4.589   1.958   3.338 -0.3472  0.7261 -1.0343
 1047SOL    MW4 3962   4.668   1.921   3.341 -0.6135  0.2130  0.6592
 1048SOL     OW 3963   2.315   5.173   1.325 -0.4340 -0.5255  0.3526
 1048SOL    HW2 3964   2.264   5.092   1.317 -1.4169  0.1680 -0.6758
 1048SOL    HW3 3965   2.303   5.200   1.416  0.4748 -1.8733  0.9103
 1048SOL    MW4 3966   2.307   5.166   1.336 -0.4002 -0.7642  0.1693
 1049SOL     OW 3967   4.191   5.706   6.127 -0.3751 -0.2537 -0.0592
 1049SOL    HW2 3968   4.240   5.700   6.209 -1.0177  0.9064  0.4343
 1049SOL    HW3 3969   4.178   5.615   6.100  1.5291 -0.6158  0.0965
 1049SOL    MW4 3970   4.196   5.693   6.134  0.3606 -0.3738  1.1243
 1050SOL     OW 3971   2.609   6.005   3.293  0.1842  0.4890  0.8024
 1050SOL    HW2 3972   2.569   6.087   3.265 -2.3836 -1.1170 -0.5812
 1050SOL    HW3 3973   2.547   5.937   3.266  3.1166 -2.1102  0.0037
 1050SOL    MW4 3974   2.596   6.007   3.286 -0.1934  0.5529 -0.0306
 1051SOL     OW 3975   3.199   4.475   1.594 -0.1548 -0.6493 -1.2112
 1051SOL    HW2 3976   3.172   4.386   1.612  2.1073 -1.5089 -1.7483
 1051SOL    HW3 3977   3.258   4.499   1.666  0.0446  0.0285 -1.5806
 1051SOL    MW4 3978   3.203   4.467   1.606 -0.5659  0.0659  0.1226
 1052SOL     OW 3979   2.189   5.545   1.871  0.0352 -0.9238  0.0869
 1052SOL    HW2 3980   2.107   5.578   1.836 -0.1745 -0.8293  0.6585
 1052SOL    HW3 3981   2.256   5.578   1.811 -0.2196  0.1050  0.3525
 1052SOL    MW4 3982   2.187   5.553   1.858 -0.3283  0.7707  0.3480
 1053SOL     OW 3983   1.083   5.704   0.376  0.4243  0.2660 -0.6942
 1053SOL    HW2 3984   1.129   5.745   0.302 -0.1228  1.5266 -0.3719
 1053SOL    HW3 3985   0.999   5.677   0.340  0.9033 -0.8736 -0.9790
 1053SOL    MW4 3986   1.078   5.706   0.362 -0.0190  1.0385 -0.2348
 1054SOL     OW 3987   6.100   0.127   1.045 -0.5323 -0.0003  0.0527
 1054SOL    HW2 3988   6.034   0.196   1.042  0.4928  1.0299 -2.9125
 1054SOL    HW3 3989   6.078   0.070   0.972  0.1116 -1.3812  0.9094
 1054SOL    MW4 3990   6.089   0.129   1.035 -0.4154  0.0375 -0.2941
 1055SOL     OW 3991   0.730   0.694   2.419 -1.0189  0.0265  0.7598
 1055SOL    HW2 3992   0.746   0.611   2.375  1.2648 -0.2173  1.9114
 1055SOL    HW3 3993   0.648   0.726   2.382 -1.9530 -2.7155  0.2861
 1055SOL    MW4 3994   0.721   0.687   2.409 -0.1127  0.0872  0.3686
 1056SOL     OW 3995   6.171   0.869   4.048  0.1425 -0.0489  0.2487
 1056SOL    HW2 3996   6.087   0.895   4.085  0.1412 -0.1193  0.2949
 1056SOL    HW3 3997   6.235   0.890   4.117  0.1458 -0.1327  0.2713
 1056SOL    MW4 3998   6.169   0.875   4.062  0.1608  0.5305  0.6229
 1057SOL     OW 3999   3.424   1.426   4.318 -0.0572  0.5573  0.0743
 1057SOL    HW2 4000   3.438   1.347   4.370 -1.5779  0.0560 -0.2143
 1057SOL    HW3 4001   3.479   1.492   4.359  0.6817 -0.4586  0.7743
 1057SOL    MW4 4002   3.433   1.424   4.330 -0.4563 -0.4706 -0.0946
 1058SOL     OW 4003   2.005   5.002   2.778 -0.0354  0.2776  0.0239
 1058SOL    HW2 4004   2.075   5.005   2.843 -1.7057 -0.6638  1.9654
 1058SOL    HW3 4005   2.039   4.944   2.709  1.6302  0.9904  0.1985
 1058SOL    MW4 4006   2.018   4.995   2.777 -0.0251  0.2157  0.0427
 1059SOL     OW 4007   4.882   5.753   5.337  0.0468  0.3666 -0.2354
 1059SOL    HW2 4008   4.893   5.685   5.271 -0.9808  0.5769 -0.6352
 1059SOL    HW3 4009   4.929   5.720   5.413  1.5750  0.2865 -1.1701
 1059SOL    MW4 4010   4.890   5.739   5.338  0.5935 -0.2792 -0.3902
 1060SOL     OW 4011   4.370   3.271   3.896  0.8353 -0.2759  0.0418
 1060SOL    HW2 4012   4.426   3.348   3.889  0.7368 -0.2842 -0.9257
 1060SOL    HW3 4013   4.361   3.257   3.990 -0.2481  1.6921  0.2909
 1060SOL    MW4 4014   4.376   3.279   3.907 -0.0311  0.4780 -0.2963
 1061SOL     OW 4015   5.248   2.915   3.281 -0.5974  0.7563  0.6446
 1061SOL    HW2 4016   5.312   2.901   3.350 -0.5442 -1.1722  0.2381
 1061SOL    HW3 4017   5.178   2.853   3.299 -0.3565 -0.1622 -1.2838
 1061SOL    MW4 4018   5.247   2.905   3.292  0.3725 -0.3250 -0.0411
 1062SOL     OW 4019   1.642   0.015   0.118  0.2370  0.1463  0.1001
 1062SOL    HW2 4020   1.705   0.088   0.119  1.5264 -0.9208  0.9335
 1062SOL    HW3 4021   1.697  -0.063   0.122 -1.0721 -0.9297 -1.5732
 1062SOL    MW4 4022   1.658   0.014   0.119 -0.1114  0.2382 -0.2658
 1063SOL     OW 4023   5.328   1.089   6.105  0.3755  0.1661  0.1107
 1063SOL    HW2 4024   5.255   1.133   6.148  0.3190 -0.3677  0.5815
 1063SOL    HW3 4025   5.390   1.070   6.176  1.0550  0.7671 -0.3081
 1063SOL    MW4 4026   5.327   1.092   6.120 -0.1223 -0.4677  0.3633
 1064SOL     OW 4027   0.159   0.243   0.378  0.4060 -0.1587  0.2633
 1064SOL    HW2 4028   0.226   0.185   0.415 -0.2122  0.3166  2.2370
 1064SOL    HW3 4029   0.197   0.331   0.385  0.4329 -0.0921 -0.6297
 1064SOL    MW4 4030   0.173   0.247   0.384 -0.2942 -0.2282 -0.0739
 1065SOL     OW 4031   4.731   2.142   2.618  0.5125 -0.4894 -0.4813
 1065SOL    HW2 4032   4.757   2.231   2.643 -1.4787 -0.4166  1.7165
 1065SOL    HW3 4033   4.775   2.127   2.535  0.4269  2.8083 -1.2945
 1065SOL    MW4 4034   4.740   2.152   2.611  0.6685  0.2227 -0.3109
 1066SOL     OW 4035   2.747   2.841   4.226  0.2576 -0.0405 -0.1762
 1066SOL    HW2 4036   2.732   2.901   4.299  0.7520 -1.4795  1.1939
 1066SOL    HW3 4037   2.695   2.876   4.154 -1.3934  0.6843  1.2895
 1066SOL    MW4 4038   2.738   2.853   4.226  0.1798 -0.3250  0.1720
 1067SOL     OW 4039   2.370   4.234   3.439 -0.4757  0.5326 -0.2831
 1067SOL    HW2 4040   2.410   4.298   3.380 -1.3639  0.5482 -0.8876
 1067SOL    HW3 4041   2.339   4.285   3.513 -0.1992  0.6404 -0.2377
 1067SOL    MW4 4042   2.371   4.249   3.441 -0.2578  0.3565 -0.0003
 1068SOL     OW 4043   5.651   4.270   4.871  0.0582 -0.4816 -0.3919
 1068SOL    HW2 4044   5.704   4.345   4.897  1.7575 -1.6749 -0.2385
 1068SOL    HW3 4045   5.648   4.215   4.950 -0.0226 -1.1922 -0.8828
 1068SOL    MW4 4046   5.658   4.273   4.885 -0.3582  0.1722  0.3554
 1069SOL     OW 4047   6.016   3.821   1.367  0.8742  0.2980  0.3243
 1069SOL    HW2 4048   6.069   3.768   1.426  0.5078 -0.8543 -0.3559
 1069SOL    HW3 4049   5.959   3.758   1.322 -0.2408  1.3680  0.1760
 1069SOL    MW4 4050   6.015   3.806   1.369 -0.8984  0.0868  0.0584
 1070SOL     OW 4051   2.299   5.622   2.121  0.3191  0.0423  0.3093
 1070SOL    HW2 4052   2.270   5.597   2.033 -1.3495  0.3965  0.7082
 1070SOL    HW3 4053   2.393   5.634   2.114  0.6316 -2.5411 -0.7967
 1070SOL    MW4 4054   2.307   5.620   2.109  0.3934  0.8527  0.2293
 1071SOL     OW 4055   0.080   1.348   5.186 -0.9625 -0.3066 -0.8390
 1071SOL    HW2 4056   0.019   1.347   5.112 -0.6495  0.7764 -1.1380
 1071SOL    HW3 4057   0.076   1.260   5.221 -1.2112 -0.8169 -2.0758
 1071SOL    MW4 4058   0.071   1.336   5.181  0.4953  0.1259 -0.0438
 1072SOL     OW 4059   5.334   0.596   0.105 -0.2156  0.6860 -0.1267
 1072SOL    HW2 4060   5.425   0.575   0.128  0.5564  2.6850 -1.0836
 1072SOL    HW3 4061   5.285   0.516   0.126  1.6353 -0.2247  1.0432
 1072SOL    MW4 4062   5.340   0.582   0.111  0.3365  0.6417 -0.5802
 1073SOL     OW 4063   3.006   5.347   5.809  0.0111 -0.1280 -0.0749
 1073SOL    HW2 4064   3.021   5.252   5.811 -2.0423 -0.5301 -1.1088
 1073SOL    HW3 4065   3.053   5.377   5.731  0.7442 -0.2588  0.3066
 1073SOL    MW4 4066   3.014   5.338   5.799  0.5423  0.0332 -0.2960
 1074SOL     OW 4067   4.428   2.834   1.276 -0.0146  0.2886 -0.5180
 1074SOL    HW2 4068   4.399   2.925   1.275  1.4256  0.7752  0.0428
 1074SOL    HW3 4069   4.502   2.832   1.337 -0.3407 -1.3634 -0.1196
 1074SOL    MW4 4070   4.434   2.846   1.284  0.0178  0.2801  0.0939
 1075SOL     OW 4071   3.488   3.169   5.054 -0.0000 -0.1191  0.8096
 1075SOL    HW2 4072   3.535   3.193   5.134 -0.2078  0.6206  0.7193
 1075SOL    HW3 4073   3.467   3.253   5.013 -1.1967 -0.4429  0.7297
 1075SOL    MW4 4074   3.492   3.183   5.059  0.7437  0.1670 -0.2187
 1076SOL     OW 4075   1.261   2.916   3.770 -0.3200 -0.4620  0.1162
 1076SOL    HW2 4076   1.254   3.002   3.812 -2.5066  0.1802 -1.3547
 1076SOL    HW3 4077   1.262   2.935   3.676 -1.5685 -2.0330 -0.2566
 1076SOL    MW4 4078   1.260   2.930   3.763 -0.0479  0.3086 -0.3834
 1077SOL     OW 4079   6.004   6.155   3.740 -0.4336 -0.7676  0.5713
 1077SOL    HW2 4080   5.920   6.199   3.754 -0.5331 -0.0498 -1.8226
 1077SOL    HW3 4081   5.990   6.066   3.773 -1.6094 -0.2354  1.6156
 1077SOL    MW4 4082   5.991   6.149   3.746  0.3127 -0.1077  0.8011
 1078SOL     OW 4083   5.797   0.058   5.576 -0.4924  0.1970 -0.4761
 1078SOL    HW2 4084   5.741   0.130   5.608 -0.0574  0.2938  0.0880
 1078SOL    HW3 4085   5.834   0.020   5.656 -0.2279 -0.2542 -0.8127
 1078SOL    MW4 4086   5.795   0.063   5.591  0.0098 -0.4501  0.1318
 1079SOL     OW 4087   1.130   2.356   1.745  0.1671 -0.3275 -0.1838
 1079SOL    HW2 4088   1.199   2.421   1.730  0.9377 -1.4417 -1.6784
 1079SOL    HW3 4089   1.079   2.392   1.817  1.6325  1.0830  0.2095
 1079SOL    MW4 4090   1.133   2.369   1.753 -0.5969 -0.5267  0.4550
 1080SOL     OW 4091   1.268   4.844   6.358 -0.5631 -0.2925 -0.3577
 1080SOL    HW2 4092   1.363   4.852   6.349 -0.4986 -1.0501 -0.5035
 1080SOL    HW3 4093   1.256   4.778   6.427 -1.0200  1.6731  1.5364
 1080SOL    MW4 4094   1.279   4.836   6.366 -0.0201  0.0370 -0.1098
 1081SOL     OW 4095   4.672   5.324   2.640 -0.0811 -0.2488 -0.6593
 1081SOL    HW2 4096   4.681   5.303   2.547  0.3495 -1.1802 -0.4218
 1081SOL    HW3 4097   4.727   5.402   2.652  0.0453 -0.2560 -1.1431
 1081SOL    MW4 4098   4.681   5.332   2.629  0.0979  0.0809 -0.6578
 1082SOL     OW 4099   0.162   0.291   6.048 -0.0200  0.9543 -0.1919
 1082SOL    HW2 4100   0.069   0.315   6.046 -1.0861 -2.5085  1.3004
 1082SOL    HW3 4101   0.162   0.198   6.072  3.8043  0.4374 -1.6596
 1082SOL    MW4 4102   0.149   0.282   6.051 -0.0931  0.4456  0.7795
 1083SOL     OW 4103   1.818   5.073   6.381 -0.4592  0.1994 -0.1347
 1083SOL    HW2 4104   1.908   5.103   6.365 -0.8921  0.8155 -1.5415
 1083SOL    HW3 4105   1.768   5.153   6.394 -0.9504 -0.0950 -0.1995
 1083SOL    MW4 4106   1.823   5.088   6.380 -0.1650  0.1184  0.0504
 1084SOL     OW 4107   1.334   4.916   3.366 -0.1300  0.2367  0.4981
 1084SOL    HW2 4108   1.401   4.888   3.304 -0.8419 -1.6824  0.5374
 1084SOL    HW3 4109   1.251   4.901   3.321 -0.6210 -0.0408  1.4724
 1084SOL    MW4 4110   1.332   4.911   3.352  0.0421  0.1996 -0.1987
 1085SOL     OW 4111   3.010   0.934   4.633  0.0772  0.1092 -0.0580
 1085SOL    HW2 4112   3.060   0.954   4.712  3.0627 -2.7295 -1.0053
 1085SOL    HW3 4113   3.059   0.974   4.562  0.0108 -1.1711 -0.8553
 1085SOL    MW4 4114   3.023   0.942   4.634  0.6401  0.4516  0.5692
 1086SOL     OW 4115   4.572   5.523   6.209  0.1533 -0.2432  0.1438
 1086SOL    HW2 4116   4.551   5.493   6.121  0.0851  0.7183 -0.1780
 1086SOL    HW3 4117   4.653   5.476   6.231  0.1184 -0.5647 -0.3859
 1086SOL    MW4 4118   4.580   5.513   6.200 -0.9293 -0.5117 -0.7171
 1087SOL     OW 4119   5.840   5.298   6.383 -0.1169 -0.3778  0.2452
 1087SOL    HW2 4120   5.934   5.280   6.387 -0.0488 -1.1715 -2.7582
 1087SOL    HW3 4121   5.800   5.213   6.364 -1.1154  0.3769 -1.2289
 1087SOL    MW4 4122   5.847   5.285   6.381  0.4321 -0.7223 -0.0780
 1088SOL     OW 4123   4.550   3.473   3.874 -0.4906 -0.5080  0.2152
 1088SOL    HW2 4124   4.625   3.446   3.926 -0.2652 -0.0375  0.1292
 1088SOL    HW3 4125   4.582   3.475   3.784 -0.1148  1.3779  0.3486
 1088SOL    MW4 4126   4.564   3.470   3.869 -0.4052  0.3602  0.6779
 1089SOL     OW 4127   0.832   0.977   2.203  0.7707 -0.1767 -0.3179
 1089SOL    HW2 4128   0.857   1.063   2.168  1.4534  0.3595  1.3674
 1089SOL    HW3 4129   0.788   0.997   2.286 -0.3122 -1.4043 -0.5719
 1089SOL    MW4 4130   0.829   0.991   2.209 -0.7618  0.3378  0.2818
 1090SOL     OW 4131   3.906   1.514   3.534  0.7783  0.4368 -0.6939
 1090SOL    HW2 4132   3.850   1.442   3.506 -0.2593  0.9234  0.0694
 1090SOL    HW3 4133   3.957   1.478   3.607  1.7086 -0.0935 -1.5744
 1090SOL    MW4 4134   3.906   1.500   3.540 -0.2511 -0.1192 -0.0090
 1091SOL     OW 4135   4.550   2.553   6.339  0.4408 -0.2352  0.1563
 1091SOL    HW2 4136   4.546   2.521   6.249 -0.5898 -0.6854  0.3484
 1091SOL    HW3 4137   4.502   2.636   6.337 -1.1016 -1.0851  0.6167
 1091SOL    MW4 4138   4.543   2.560   6.327  0.0906  0.0146 -0.2548
 1092SOL     OW 4139   2.419   0.317   1.916 -0.1654 -0.0607 -0.7442
 1092SOL    HW2 4140   2.499   0.269   1.895  0.5065  0.9513 -0.5010
 1092SOL    HW3 4141   2.351   0.249   1.918  0.9179 -1.1667  0.5570
 1092SOL    MW4 4142   2.420   0.301   1.913 -0.3291  0.3435 -0.3174
 1093SOL     OW 4143   3.868   4.478   6.162  0.6613 -0.4473  0.3023
 1093SOL    HW2 4144   3.822   4.451   6.082  1.1435  0.7266 -0.4087
 1093SOL    HW3 4145   3.913   4.559   6.137 -0.1670  0.6339  2.1136
 1093SOL    MW4 4146   3.868   4.486   6.148 -0.4515 -0.1462  0.0429
 1094SOL     OW 4147   5.659   4.279   3.357  0.3555  0.1314 -0.0603
 1094SOL    HW2 4148   5.615   4.273   3.272 -2.3185 -2.1883  1.3289
 1094SOL    HW3 4149   5.627   4.360   3.395 -0.5210 -0.1334 -0.2173
 1094SOL    MW4 4150   5.649   4.289   3.351 -0.1584 -0.4640  0.1955
 1095SOL     OW 4151   1.076   1.479   5.443  0.1102 -0.0202 -0.4139
 1095SOL    HW2 4152   0.992   1.493   5.487  0.6102  0.7540  0.3213
 1095SOL    HW3 4153   1.128   1.430   5.506  1.1857  1.9697  0.3594
 1095SOL    MW4 4154   1.072   1.475   5.457  0.1936  0.4435  0.2053
 1096SOL     OW 4155   3.174   6.364   3.210 -0.1940 -0.0236  0.1021
 1096SOL    HW2 4156   3.261   6.341   3.242 -0.0937  1.1911  0.7321
 1096SOL    HW3 4157   3.118   6.292   3.240  0.5033 -0.6035  0.0467
 1096SOL    MW4 4158   3.178   6.351   3.218 -0.7052 -0.1898  0.3837
 1097SOL     OW 4159   2.416   2.774   3.745 -0.1293 -0.0182  0.4016
 1097SOL    HW2 4160   2.360   2.738   3.814 -0.8011  1.4977  0.6886
 1097SOL    HW3 4161   2.442   2.860   3.778  0.2542  0.3696 -0.8559
 1097SOL    MW4 4162   2.412   2.781   3.758  0.3678 -0.0846  0.0088
 1098SOL     OW 4163   3.988   3.953   2.153 -0.0221  0.0722  0.0484
 1098SOL    HW2 4164   4.051   3.976   2.222  0.9423  0.4778 -0.9234
 1098SOL    HW3 4165   3.924   4.024   2.155 -1.4799 -1.2010  2.1736
 1098SOL    MW4 4166   3.988   3.966   2.162 -0.5689 -0.1482  0.2653
 1099SOL     OW 4167   2.957   5.111   2.953  0.4410 -0.2388 -0.3646
 1099SOL    HW2 4168   2.905   5.031   2.941  0.1268 -0.0125 -0.5402
 1099SOL    HW3 4169   2.902   5.180   2.917  0.7285  0.0522 -0.2468
 1099SOL    MW4 4170   2.943   5.109   2.947  0.4158 -0.1487  0.1558
 1100SOL     OW 4171   2.027   3.982   1.621  0.0146 -0.3730  0.5229
 1100SOL    HW2 4172   2.015   3.932   1.702 -0.0321 -1.1361  0.0536
 1100SOL    HW3 4173   2.077   3.923   1.565  0.2884  0.2644  0.0972
 1100SOL    MW4 4174   2.032   3.968   1.625 -0.4483  0.1929 -0.6161
 1101SOL     OW 4175   4.991   5.984   5.449  0.0065  0.2066  0.2722
 1101SOL    HW2 4176   4.951   5.907   5.408  0.5407 -0.0955  0.3092
 1101SOL    HW3 4177   4.917   6.042   5.468 -0.4274 -0.3871  0.4366
 1101SOL    MW4 4178   4.976   5.981   5.447  0.2180 -0.2729 -0.1605
 1102SOL     OW 4179   4.511   5.797   5.014  0.4993  0.2524 -0.2374
 1102SOL    HW2 4180   4.472   5.771   5.098  0.0058  0.3636 -0.4250
 1102SOL    HW3 4181   4.436   5.824   4.961  0.6213 -1.2820 -1.2533
 1102SOL    MW4 4182   4.496   5.797   5.018  0.8607  0.5168  0.3348
 1103SOL     OW 4183   2.245   0.065   0.208 -0.6754  0.1651 -0.0649
 1103SOL    HW2 4184   2.240   0.153   0.172  0.2754 -0.2278 -1.2404
 1103SOL    HW3 4185   2.328   0.030   0.175 -0.5066 -0.7946  1.2671
 1103SOL    MW4 4186   2.255   0.072   0.199 -0.3787  0.6524 -0.0784
 1104SOL     OW 4187   1.092   1.801   4.401  0.3736 -0.5508 -0.4537
 1104SOL    HW2 4188   1.090   1.724   4.345 -0.4904 -1.5842  0.9153
 1104SOL    HW3 4189   1.002   1.834   4.401  0.1894 -0.9656  0.7799
 1104SOL    MW4 4190   1.080   1.795   4.394 -0.2495 -0.3631 -0.4059
 1105SOL     OW 4191   3.052   3.192   4.967 -0.2966 -0.1326 -0.7395
 1105SOL    HW2 4192   3.002   3.141   4.903 -1.0460  0.5671 -0.7373
 1105SOL    HW3 4193   2.988   3.216   5.034  0.4325 -0.6730  0.1850
 1105SOL    MW4 4194   3.037   3.188   4.967 -0.0415 -0.0334  0.6093
 1106SOL     OW 4195   4.390   5.315   2.035 -0.4695 -0.0566  0.3876
 1106SOL    HW2 4196   4.483   5.300   2.020 -0.7362 -2.2912  0.6298
 1106SOL    HW3 4197   4.386   5.396   2.086  1.5730 -1.3929  2.9176
 1106SOL    MW4 4198   4.402   5.323   2.040 -0.0973  0.0360 -0.0655
 1107SOL     OW 4199   5.134   5.120   4.822 -0.0964  0.1331  0.1781
 1107SOL    HW2 4200   5.100   5.209   4.832  0.5444  0.2591  1.4402
 1107SOL    HW3 4201   5.215   5.131   4.772 -0.4276  0.1664 -0.3513
 1107SOL    MW4 4202   5.140   5.133   4.817 -0.1832 -0.0960  0.0092
 1108SOL     OW 4203   4.469   0.338   0.007 -0.2395  0.2240  0.5685
 1108SOL    HW2 4204   4.397   0.277  -0.012  0.7862 -1.2403  1.2329
 1108SOL    HW3 4205   4.486   0.381  -0.077 -1.9744  0.7325  0.4278
 1108SOL    MW4 4206   4.462   0.335  -0.006 -0.2733 -0.1170 -0.5917
 1109SOL     OW 4207   3.710   0.994   0.596 -0.3982 -0.3977 -0.3420
 1109SOL    HW2 4208   3.616   1.006   0.609 -0.7910 -1.3038 -2.0351
 1109SOL    HW3 4209   3.734   1.061   0.533 -0.5162 -1.7911 -1.9669
 1109SOL    MW4 4210   3.701   1.004   0.589 -0.4731 -0.3507  0.8671
 1110SOL     OW 4211   4.527   1.808   2.533 -0.5123  0.0796 -0.0370
 1110SOL    HW2 4212   4.516   1.732   2.590 -1.3573 -0.9372 -1.4929
 1110SOL    HW3 4213   4.620   1.808   2.511 -0.2256  0.3327  1.0705
 1110SOL    MW4 4214   4.538   1.798   2.538  0.5416 -0.2327  0.1074
 1111SOL     OW 4215   3.804   1.638   1.211 -0.1209 -0.6687 -0.0031
 1111SOL    HW2 4216   3.881   1.659   1.264 -0.6856  0.8890  0.2410
 1111SOL    HW3 4217   3.840   1.617   1.125  0.5210  1.3406 -0.2605
 1111SOL    MW4 4218   3.819   1.638   1.207  0.3598  0.6470 -0.2076
 1112SOL     OW 4219   3.554   1.089   0.246 -0.6240 -0.2640 -0.6495
 1112SOL    HW2 4220   3.486   1.101   0.180 -1.2274  2.9057  0.3646
 1112SOL    HW3 4221   3.527   1.144   0.319  0.9857 -2.1521  1.5244
 1112SOL    MW4 4222   3.542   1.098   0.247 -0.6385  0.2589 -0.2297
 1113SOL     OW 4223   4.127   3.965   6.296 -0.6112 -0.2620 -0.1128
 1113SOL    HW2 4224   4.141   4.017   6.375  0.5700  1.4307 -1.3587
 1113SOL    HW3 4225   4.082   4.024   6.236 -0.9132 -1.3017 -0.9372
 1113SOL    MW4 4226   4.123   3.980   6.299 -0.4938  0.3441  0.0076
 1114SOL     OW 4227   2.985   2.336   3.260 -0.7802 -0.3332 -0.0127
 1114SOL    HW2 4228   2.991   2.430   3.276  0.4520  0.0230 -2.1630
 1114SOL    HW3 4229   3.040   2.297   3.328  1.3977  0.8039 -1.0118
 1114SOL    MW4 4230   2.993   2.343   3.271 -0.2019  0.5278 -0.2075
 1115SOL     OW 4231   4.528   4.191   1.469 -0.7876 -0.1239 -0.0586
 1115SOL    HW2 4232   4.455   4.243   1.435 -1.6301 -1.2360 -0.0099
 1115SOL    HW3 4233   4.595   4.256   1.492 -2.8955  1.2755  2.7774
 1115SOL    MW4 4234   4.527   4.207   1.468 -0.2840 -0.1460 -0.6705
 1116SOL     OW 4235   6.173   1.943   4.035  0.3364  0.0451 -0.4974
 1116SOL    HW2 4236   6.173   2.006   4.107 -0.0087 -0.3298 -0.1654
 1116SOL    HW3 4237   6.265   1.920   4.022  0.4364  0.4169 -0.4438
 1116SOL    MW4 4238   6.185   1.948   4.043  0.3257  0.2178  0.2684
 1117SOL     OW 4239   4.639   2.398   1.849 -0.2274 -0.2984 -0.7989
 1117SOL    HW2 4240   4.604   2.439   1.928  0.1018 -1.1925 -0.1687
 1117SOL    HW3 4241   4.576   2.329   1.828 -0.1115 -0.3150 -1.0975
 1117SOL    MW4 4242   4.626   2.395   1.857 -0.6227  0.1281  0.2184
 1118SOL     OW 4243   2.049   3.349   4.268  0.4894 -0.6062 -0.2554
 1118SOL    HW2 4244   2.070   3.257   4.253  1.0960 -0.5566  0.2417
 1118SOL    HW3 4245   1.954   3.349   4.283  0.3594 -1.0394 -1.0053
 1118SOL    MW4 4246   2.039   3.336   4.268  0.5224  0.2147 -0.0303
 1119SOL     OW 4247   6.107   2.608   1.419 -0.2770  0.6032 -0.5846
 1119SOL    HW2 4248   6.156   2.601   1.337 -2.1051  0.1993 -1.6808
 1119SOL    HW3 4249   6.089   2.518   1.444 -1.2959  0.7563 -0.7339
 1119SOL    MW4 4250   6.111   2.595   1.411 -0.6740 -0.1659 -0.1392
 1120SOL     OW 4251   1.036   3.915   3.888  0.4856  0.0009  0.0928
 1120SOL    HW2 4252   1.087   3.844   3.849 -0.0060 -0.5437  0.4151
 1120SOL    HW3 4253   1.062   3.916   3.980  1.5800  1.2292 -0.2015
 1120SOL    MW4 4254   1.046   3.905   3.895  0.2409  0.2045 -0.2550
 1121SOL     OW 4255   0.892   5.755   6.294 -0.1956  0.1200  0.1369
 1121SOL    HW2 4256   0.968   5.806   6.323  1.1672 -2.1536  0.8018
 1121SOL    HW3 4257   0.848   5.812   6.232  1.4250  1.9614  0.5630
 1121SOL    MW4 4258   0.896   5.769   6.290 -0.3374  0.5563 -0.1498
 1122SOL     OW 4259   1.035   6.186   4.959 -0.2384  0.5502 -0.6625
 1122SOL    HW2 4260   1.100   6.252   4.935 -0.0267  0.5303 -0.1671
 1122SOL    HW3 4261   1.073   6.141   5.035 -1.0275  0.8406 -0.0802
 1122SOL    MW4 4262   1.049   6.189   4.966 -0.5326 -0.6200 -0.4043
 1123SOL     OW 4263   0.864   2.714   1.301 -0.2262  0.2526  0.9050
 1123SOL    HW2 4264   0.864   2.624   1.268  0.1244  0.2665  0.8638
 1123SOL    HW3 4265   0.821   2.708   1.387  1.7412 -0.3472  1.9088
 1123SOL    MW4 4266   0.858   2.701   1.308 -0.3210 -0.3270  0.0022
 1124SOL     OW 4267   0.828   5.865   3.726  0.6612 -0.2915  0.1421
 1124SOL    HW2 4268   0.805   5.954   3.699  0.9899 -0.5346 -0.9884
 1124SOL    HW3 4269   0.749   5.813   3.708  0.4260 -0.2222  0.9176
 1124SOL    MW4 4270   0.814   5.870   3.720 -0.5096 -0.1979 -0.1829
 1125SOL     OW 4271   1.547   5.942   0.857 -0.1413  0.6729 -0.3803
 1125SOL    HW2 4272   1.587   5.858   0.877 -1.6476  0.5025  2.5215
 1125SOL    HW3 4273   1.599   6.006   0.907 -1.4896  0.8415  0.8795
 1125SOL    MW4 4274   1.559   5.939   0.867 -0.1532  0.0762  0.3018
 1126SOL     OW 4275   4.556   4.047   4.961 -0.7601  0.6280  0.5631
 1126SOL    HW2 4276   4.641   4.069   4.999 -0.2779 -0.6477  0.2677
 1126SOL    HW3 4277   4.558   3.952   4.949 -1.7271  0.7252 -0.6373
 1126SOL    MW4 4278   4.567   4.037   4.964 -0.1218  0.1663 -0.0195
 1127SOL     OW 4279   1.017   0.556   0.317  0.0181  0.0740  0.3537
 1127SOL    HW2 4280   0.939   0.543   0.262  0.6318 -0.1934 -0.4810
 1127SOL    HW3 4281   1.066   0.475   0.308  1.0456  0.7407 -0.2279
 1127SOL    MW4 4282   1.013   0.544   0.308 -0.0132  0.5116 -0.0198
 1128SOL     OW 4283   1.136   0.589   4.925  0.1526  0.0739  0.1478
 1128SOL    HW2 4284   1.193   0.635   4.864 -0.3676  1.1688  0.4673
 1128SOL    HW3 4285   1.154   0.629   5.010 -0.2562 -0.3703  0.4529
 1128SOL    MW4 4286   1.146   0.600   4.928 -0.5665  0.1800  0.7278
 1129SOL     OW 4287   0.910   6.350   0.324 -0.0026 -0.5700 -0.2133
 1129SOL    HW2 4288   0.815   6.341   0.312 -0.1357  1.4280 -1.1415
 1129SOL    HW3 4289   0.923   6.444   0.339  1.8270 -0.8247 -0.0363
 1129SOL    MW4 4290   0.899   6.362   0.324  0.1073 -0.1373 -0.1291
 1130SOL     OW 4291   0.947   3.122   0.024 -0.3515 -0.3192  0.7303
 1130SOL    HW2 4292   0.917   3.063  -0.045 -1.2204  1.0048 -0.0586
 1130SOL    HW3 4293   1.040   3.102   0.034  0.2223  0.5899 -2.0133
 1130SOL    MW4 4294   0.955   3.112   0.017 -0.3863  0.0581 -0.0418
 1131SOL     OW 4295   1.614   5.438   2.491  0.1424 -0.2066 -0.1396
 1131SOL    HW2 4296   1.524   5.469   2.481  0.4225  0.3456 -1.0149
 1131SOL    HW3 4297   1.619   5.411   2.583 -1.4375 -1.9561 -0.5058
 1131SOL    MW4 4298   1.603   5.439   2.502 -0.5132 -0.1001  0.4066
 1132SOL     OW 4299   5.494   3.874   2.946 -0.0338  0.5033 -0.0119
 1132SOL    HW2 4300   5.516   3.786   2.914 -0.0908  0.6416 -0.4316
 1132SOL    HW3 4301   5.404   3.887   2.918  0.0304  0.7621 -0.0942
 1132SOL    MW4 4302   5.485   3.864   2.938  0.3699 -0.0488  0.0912
 1133SOL     OW 4303   5.767   2.995   0.506  0.0062  0.0523  0.0739
 1133SOL    HW2 4304   5.823   3.042   0.568  1.0480 -0.6762 -0.3038
 1133SOL    HW3 4305   5.826   2.965   0.438 -0.7923 -1.0079 -0.1696
 1133SOL    MW4 4306   5.782   2.998   0.505 -0.4415  0.2105 -0.2492
 1134SOL     OW 4307   4.502   3.664   6.385  0.4437  0.1930 -0.1086
 1134SOL    HW2 4308   4.453   3.710   6.316  1.5154  3.2857  1.0074
 1134SOL    HW3 4309   4.594   3.677   6.361  0.8068 -1.3254  0.3771
 1134SOL    MW4 4310   4.508   3.672   6.372 -0.0940  0.1101 -0.2069
 1135SOL     OW 4311   4.622   3.292   2.080 -0.4149 -0.1548 -0.2219
 1135SOL    HW2 4312   4.552   3.343   2.122  1.5397  2.2706  0.2986
 1135SOL    HW3 4313   4.694   3.354   2.070  1.3878 -2.3261 -1.5329
 1135SOL    MW4 4314   4.622   3.307   2.084 -0.3168  0.4255  0.3744
 1136SOL     OW 4315   5.460   6.401   0.437  0.0463  0.0850 -0.1420
 1136SOL    HW2 4316   5.440   6.490   0.407  0.2429 -0.7654 -3.1095
 1136SOL    HW3 4317   5.393   6.382   0.502 -2.1958  1.1804 -2.0073
 1136SOL    MW4 4318   5.449   6.411   0.442 -0.0940  0.0718  0.1450
 1137SOL     OW 4319   2.366   2.494   2.646  0.5033  0.2501  0.1382
 1137SOL    HW2 4320   2.449   2.518   2.688  0.0667  0.6903  0.7677
 1137SOL    HW3 4321   2.387   2.418   2.593  1.3974  0.5972 -0.0145
 1137SOL    MW4 4322   2.380   2.487   2.645  0.3871 -0.2367  0.2154
 1138SOL     OW 4323   4.913   3.243   3.775  0.0419 -0.5104 -0.1348
 1138SOL    HW2 4324   4.945   3.323   3.817 -1.6604  1.2470 -1.9620
 1138SOL    HW3 4325   4.828   3.228   3.815 -1.1686  0.6365 -2.1280
 1138SOL    MW4 4326   4.906   3.252   3.786  0.2357  0.0039  0.4706
 1139SOL     OW 4327   1.510   5.553   4.640 -0.2617  0.0655  0.2845
 1139SOL    HW2 4328   1.518   5.642   4.674  3.4455  1.0603 -2.5456
 1139SOL    HW3 4329   1.585   5.506   4.675  0.9516 -0.2300 -2.4433
 1139SOL    MW4 4330   1.521   5.558   4.649  0.0417  0.4239 -0.6113
 1140SOL     OW 4331   1.026   3.255   2.299  0.5064 -0.1315 -0.0226
 1140SOL    HW2 4332   0.940   3.236   2.337  1.0493 -0.3303  1.1510
 1140SOL    HW3 4333   1.028   3.203   2.219 -0.7789  0.5123 -0.5148
 1140SOL    MW4 4334   1.015   3.246   2.294 -0.0659 -0.7285  0.0687
 1141SOL     OW 4335   3.843   5.711   3.821  0.5812  0.2731  0.0701
 1141SOL    HW2 4336   3.812   5.801   3.816 -1.5832 -0.2837  1.9751
 1141SOL    HW3 4337   3.913   5.713   3.886 -0.3209  0.4297  1.0710
 1141SOL    MW4 4338   3.848   5.723   3.829  0.8965  0.2088 -0.3341
 1142SOL     OW 4339   3.530   1.713   0.599  0.1626 -0.2956 -0.0259
 1142SOL    HW2 4340   3.611   1.667   0.577  0.8883  0.3658  1.1959
 1142SOL    HW3 4341   3.463   1.644   0.601  1.0304 -1.1487  0.7598
 1142SOL    MW4 4342   3.532   1.698   0.596 -0.2998  0.0205 -0.1955
 1143SOL     OW 4343   1.991   5.116   5.684  0.6886 -0.7368 -0.9016
 1143SOL    HW2 4344   2.013   5.035   5.639 -0.8944 -1.3175 -0.6757
 1143SOL    HW3 4345   1.940   5.166   5.620  0.5361 -0.5032 -0.5996
 1143SOL    MW4 4346   1.987   5.112   5.670  0.0676 -0.1474  0.0929
 1144SOL     OW 4347   5.875   5.588   0.363 -0.1724  0.0356  0.1231
 1144SOL    HW2 4348   5.858   5.682   0.356 -1.9321  0.0266  2.6528
 1144SOL    HW3 4349   5.817   5.548   0.298  0.0277  0.6347 -0.4357
 1144SOL    MW4 4350   5.865   5.595   0.354  0.1677  0.0864 -0.0475
 1145SOL     OW 4351   6.050   1.655   3.277 -0.0527  0.1270 -0.2800
 1145SOL    HW2 4352   6.109   1.727   3.259 -1.3335  1.1346 -0.5994
 1145SOL    HW3 4353   6.057   1.598   3.201 -0.8581  1.2033 -1.1904
 1145SOL    MW4 4354   6.059   1.657   3.265 -0.2193 -0.8736 -0.0906
 1146SOL     OW 4355   4.073   1.027   0.283  0.2006 -0.1686  0.3593
 1146SOL    HW2 4356   4.101   1.102   0.231 -1.3425 -0.4412 -0.9275
 1146SOL    HW3 4357   4.097   0.950   0.230 -0.7956 -0.4709  0.3306
 1146SOL    MW4 4358   4.080   1.027   0.269  0.0958 -0.5257  0.5897
 1147SOL     OW 4359   3.229   2.172   4.362 -0.1387  0.3777  0.2826
 1147SOL    HW2 4360   3.165   2.221   4.309  1.4436  1.5686 -0.6401
 1147SOL    HW3 4361   3.180   2.099   4.399 -1.4646 -0.2351 -2.4569
 1147SOL    MW4 4362   3.214   2.169   4.360  0.2229 -0.0692  0.2415
 1148SOL     OW 4363   1.929   1.327   4.751 -0.3166  0.7538 -0.5857
 1148SOL    HW2 4364   1.928   1.334   4.656  1.9536  1.8896 -0.5997
 1148SOL    HW3 4365   1.933   1.233   4.768  1.4045  0.5709 -1.7337
 1148SOL    MW4 4366   1.930   1.315   4.741 -0.4595 -0.0656  0.3781
 1149SOL     OW 4367   6.383   0.353   6.327 -0.1223 -0.2125  0.2486
 1149SOL    HW2 4368   6.383   0.438   6.284  0.1794 -0.4368 -0.2058
 1149SOL    HW3 4369   6.301   0.312   6.298 -0.2083 -0.1240  0.3692
 1149SOL    MW4 4370   6.372   0.359   6.317 -0.7386  0.0807  0.3558
 1150SOL     OW 4371   0.713   3.196   4.183 -0.2074 -0.2355  0.1950
 1150SOL    HW2 4372   0.756   3.230   4.262 -0.8073 -0.9780  0.8623
 1150SOL    HW3 4373   0.658   3.124   4.215  2.0299 -2.7952 -1.3164
 1150SOL    MW4 4374   0.712   3.191   4.198 -0.1132  0.4234 -0.0689
 1151SOL     OW 4375   0.798   5.826   5.207  0.3980 -0.2120  0.1110
 1151SOL    HW2 4376   0.724   5.846   5.264  0.1754  0.1929 -0.3156
 1151SOL    HW3 4377   0.764   5.763   5.144  0.2301  0.4382 -0.4696
 1151SOL    MW4 4378   0.784   5.821   5.206 -0.2404 -0.4406 -0.3316
 1152SOL     OW 4379   2.307   2.821   2.818  0.1935  0.2270 -0.7359
 1152SOL    HW2 4380   2.283   2.911   2.842  1.1816  0.2596  0.1843
 1152SOL    HW3 4381   2.397   2.828   2.788  0.2705 -0.4684 -0.6672
 1152SOL    MW4 4382   2.315   2.834   2.817 -0.5779  0.1966 -0.3086
 1153SOL     OW 4383   0.672   4.584   4.759 -0.1949  0.0731  0.3293
 1153SOL    HW2 4384   0.759   4.562   4.725 -0.0826  0.7023  0.1861
 1153SOL    HW3 4385   0.689   4.654   4.823 -0.3629 -1.3451  1.9913
 1153SOL    MW4 4386   0.686   4.590   4.763 -0.1904 -0.0077 -0.1818
 1154SOL     OW 4387   1.943   5.325   3.458  0.2250 -0.1834 -0.2926
 1154SOL    HW2 4388   1.899   5.333   3.543  2.1274  0.0368  0.7199
 1154SOL    HW3 4389   1.923   5.235   3.430 -0.6604 -0.1699  0.2308
 1154SOL    MW4 4390   1.934   5.314   3.465  0.4443 -0.1654 -0.0291
 1155SOL     OW 4391   3.646   5.510   3.864  0.4556 -0.2677  0.3136
 1155SOL    HW2 4392   3.702   5.579   3.829  1.2575 -1.2152 -0.3363
 1155SOL    HW3 4393   3.565   5.555   3.889  0.2178  0.6142 -1.8491
 1155SOL    MW4 4394   3.642   5.525   3.863  0.1804 -0.1308  0.0064
 1156SOL     OW 4395   3.849   0.399   2.826 -0.1486  0.0909  0.2559
 1156SOL    HW2 4396   3.880   0.486   2.802  1.5005 -1.2210 -2.8862
 1156SOL    HW3 4397   3.760   0.414   2.858  0.8673  3.1128  2.1352
 1156SOL    MW4 4398   3.841   0.412   2.827 -0.2234 -0.5304 -0.1714
 1157SOL     OW 4399   6.103   3.164   2.074  0.3435 -0.3451  0.1247
 1157SOL    HW2 4400   6.188   3.207   2.073  1.1565 -1.8806 -0.5740
 1157SOL    HW3 4401   6.072   3.172   2.164  0.8614  0.8922  0.2072
 1157SOL    MW4 4402   6.110   3.171   2.086 -0.7526 -0.2910 -0.6080
 1158SOL     OW 4403   5.111   6.021   3.851 -0.2259 -0.0142  0.2597
 1158SOL    HW2 4404   5.173   6.074   3.900 -2.2370  1.5740  1.2804
 1158SOL    HW3 4405   5.158   5.995   3.772  2.0814  0.0536  1.5327
 1158SOL    MW4 4406   5.125   6.025   3.847  0.2155 -0.2191 -0.1351
 1159SOL     OW 4407   5.106   0.313   5.853  0.0216 -0.7270  0.5697
 1159SOL    HW2 4408   5.171   0.254   5.815  1.6718  0.3324  1.5995
 1159SOL    HW3 4409   5.048   0.256   5.904 -0.3826 -1.7916 -1.0174
 1159SOL    MW4 4410   5.107   0.298   5.855 -0.1428 -0.1313 -0.5521
 1160SOL     OW 4411   0.432   3.579   5.868 -0.1384 -0.5524 -0.1033
 1160SOL    HW2 4412   0.347   3.616   5.893 -0.7763 -2.2861  0.4613
 1160SOL    HW3 4413   0.419   3.485   5.874  1.3199 -0.8996 -1.7710
 1160SOL    MW4 4414   0.419   3.572   5.872 -0.3487  0.0953  0.5412
 1161SOL     OW 4415   4.122   2.626   6.252  0.2121  0.4842 -0.1700
 1161SOL    HW2 4416   4.042   2.574   6.262 -0.2871  0.7455 -2.3688
 1161SOL    HW3 4417   4.164   2.622   6.338 -0.5093 -2.4016  0.1648
 1161SOL    MW4 4418   4.117   2.618   6.265 -0.3706 -0.2675 -0.3236
 1162SOL     OW 4419   5.333   3.071   0.343  0.1694 -0.0812 -0.1236
 1162SOL    HW2 4420   5.239   3.052   0.335 -0.2259  1.8491 -0.4108
 1162SOL    HW3 4421   5.353   3.053   0.435 -0.6295  0.0870  0.0925
 1162SOL    MW4 4422   5.323   3.066   0.354 -0.0041 -0.0052 -0.4891
 1163SOL     OW 4423   5.246   2.392   0.786 -0.1319 -0.2025  0.1996
 1163SOL    HW2 4424   5.215   2.345   0.863 -1.2478  1.0874  0.5873
 1163SOL    HW3 4425   5.188   2.468   0.779  1.0479  0.6552 -0.8979
 1163SOL    MW4 4426   5.234   2.396   0.795  0.0917  0.4381  0.2615
 1164SOL     OW 4427   3.813   0.484   3.229 -0.0591 -1.0162 -0.2376
 1164SOL    HW2 4428   3.718   0.470   3.231 -0.5602  1.6282 -1.5835
 1164SOL    HW3 4429   3.834   0.521   3.315 -0.3355 -1.1827 -0.0998
 1164SOL    MW4 4430   3.803   0.487   3.241  0.1737 -0.4039 -0.2519
 1165SOL     OW 4431   4.216   0.757   6.273 -0.3040 -0.7120  0.3366
 1165SOL    HW2 4432   4.187   0.666   6.274  0.3588 -0.9351  0.0948
 1165SOL    HW3 4433   4.300   0.755   6.226 -0.7069  0.1536 -0.4600
 1165SOL    MW4 4434   4.224   0.745   6.267 -0.0245 -0.1401  0.4733
 1166SOL     OW 4435   3.592   2.793   2.310 -0.1660 -0.2718 -0.1666
 1166SOL    HW2 4436   3.610   2.879   2.273  1.1450 -0.3584  0.2245
 1166SOL    HW3 4437   3.549   2.745   2.239  0.9048  0.0678 -1.0696
 1166SOL    MW4 4438   3.588   2.798   2.296 -0.3371 -0.5320  0.8329
 1167SOL     OW 4439   0.779   6.319   5.171  0.1772  0.3894 -0.0891
 1167SOL    HW2 4440   0.762   6.395   5.116 -1.1140 -0.7535 -1.3661
 1167SOL    HW3 4441   0.693   6.279   5.183  0.6879 -0.3487  1.3645
 1167SOL    MW4 4442   0.765   6.324   5.165 -0.2590  0.1580  0.2607
 1168SOL     OW 4443   0.317   4.453   2.593 -1.0229  0.2379 -0.4312
 1168SOL    HW2 4444   0.311   4.542   2.559 -1.3071 -0.3037 -1.8797
 1168SOL    HW3 4445   0.318   4.397   2.515 -0.3471 -1.0048  0.4287
 1168SOL    MW4 4446   0.316   4.457   2.578  0.0814 -0.0439  0.5165
 1169SOL     OW 4447   5.904   0.156   5.320 -0.5415  0.3215  0.0784
 1169SOL    HW2 4448   5.875   0.095   5.389  2.0028 -0.3029  0.7061
 1169SOL    HW3 4449   5.926   0.236   5.367  0.9913 -0.0305  0.0076
 1169SOL    MW4 4450   5.903   0.158   5.336 -0.0030  0.2810 -0.3481
 1170SOL     OW 4451   2.008   4.024   2.893 -0.0504 -0.6308  0.0042
 1170SOL    HW2 4452   2.077   4.079   2.930 -0.7385  0.2345  0.0580
 1170SOL    HW3 4453   1.969   3.980   2.968 -0.6078  0.1369  0.1774
 1170SOL    MW4 4454   2.012   4.026   2.907 -0.1604  0.2123  0.1325
 1171SOL     OW 4455   0.149   6.000   1.276 -0.1503 -0.2323 -0.4405
 1171SOL    HW2 4456   0.125   6.069   1.338 -1.7233  0.1170 -1.3790
 1171SOL    HW3 4457   0.243   5.987   1.290 -0.3448  0.1801  1.6391
 1171SOL    MW4 4458   0.158   6.007   1.286  0.0944 -0.0462  0.6157
 1172SOL     OW 4459   4.343   4.856   1.171  0.2778  0.5128  0.1270
 1172SOL    HW2 4460   4.421   4.804   1.189 -0.4167 -0.5960 -0.0023
 1172SOL    HW3 4461   4.286   4.842   1.247 -0.2124  0.5191 -0.2342
 1172SOL    MW4 4462   4.346   4.847   1.184 -0.0932 -0.0442 -0.3304
 1173SOL     OW 4463   6.166   3.931   0.935 -0.4227 -0.8389 -0.0099
 1173SOL    HW2 4464   6.187   3.957   1.025  1.7754  1.8900 -1.1434
 1173SOL    HW3 4465   6.077   3.963   0.921 -0.2390  0.0493  0.7498
 1173SOL    MW4 4466   6.157   3.939   0.945 -0.3400  0.4785 -0.7629
 1174SOL     OW 4467   5.318   5.890   4.724  0.1274 -0.1013 -0.5421
 1174SOL    HW2 4468   5.403   5.902   4.767  0.8131 -0.0694 -1.8445
 1174SOL    HW3 4469   5.302   5.796   4.728  2.1367 -0.7188 -3.6228
 1174SOL    MW4 4470   5.327   5.879   4.730 -0.1251  0.1498  0.3614
 1175SOL     OW 4471   6.097   0.897   1.510 -0.1135  0.2285 -0.8300
 1175SOL    HW2 4472   6.072   0.832   1.576  2.1173 -1.5184 -1.5597
 1175SOL    HW3 4473   6.090   0.981   1.555 -2.8877 -0.4820  0.2366
 1175SOL    MW4 4474   6.093   0.899   1.525  0.1113 -0.3035  0.0934
 1176SOL     OW 4475   2.074   4.818   2.133  0.1507 -0.2727 -0.5982
 1176SOL    HW2 4476   2.145   4.779   2.082  3.7783  2.4079  1.9301
 1176SOL    HW3 4477   2.040   4.888   2.077  1.2775  0.0197 -0.9546
 1176SOL    MW4 4478   2.079   4.822   2.119  0.7642 -0.1636  0.0456
 1177SOL     OW 4479   1.025   3.431   5.813  0.6604 -0.2602  0.5032
 1177SOL    HW2 4480   1.097   3.424   5.875  0.8815  1.5710  0.5118
 1177SOL    HW3 4481   0.949   3.454   5.866  0.2732 -1.2445  0.3853
 1177SOL    MW4 4482   1.024   3.433   5.828  0.1350 -0.4267 -0.0959
 1178SOL     OW 4483   1.731   5.419   5.059 -0.0278 -0.4356  0.4981
 1178SOL    HW2 4484   1.664   5.377   5.113 -0.0840  0.2555  0.9729
 1178SOL    HW3 4485   1.738   5.508   5.094  0.2240 -0.1042 -0.3746
 1178SOL    MW4 4486   1.723   5.425   5.071 -0.3408  0.0064 -0.7891
 1179SOL     OW 4487   0.616   4.355   3.280  0.0820 -0.0034 -0.4936
 1179SOL    HW2 4488   0.655   4.272   3.308 -0.3669 -0.1806 -0.3891
 1179SOL    HW3 4489   0.582   4.394   3.360  0.0208  0.1389 -0.5890
 1179SOL    MW4 4490   0.617   4.349   3.294  1.0710 -0.0131 -0.4156
 1180SOL     OW 4491   0.423   1.361   5.342  0.4419 -0.2981  0.4626
 1180SOL    HW2 4492   0.351   1.298   5.344 -0.8632  1.0853 -0.5995
 1180SOL    HW3 4493   0.469   1.347   5.424 -1.1658 -1.0897  1.2827
 1180SOL    MW4 4494   0.419   1.351   5.353  0.1412  0.3017 -0.1281
 1181SOL     OW 4495   0.848   5.078   3.490  0.5181  0.2505 -0.0328
 1181SOL    HW2 4496   0.920   5.024   3.523 -0.1405 -1.2039 -0.8926
 1181SOL    HW3 4497   0.792   5.090   3.567  1.2194  0.6545  0.4306
 1181SOL    MW4 4498   0.850   5.072   3.505  0.0440  0.3774 -0.5548
 1182SOL     OW 4499   0.999   1.164   0.783  1.3123 -0.1798 -0.1957
 1182SOL    HW2 4500   0.920   1.202   0.822  0.5297 -0.7903 -1.1409
 1182SOL    HW3 4501   1.051   1.239   0.755  0.2963  0.2385 -1.0368
 1182SOL    MW4 4502   0.995   1.179   0.784  0.7737 -0.5023 -0.7211
 1183SOL     OW 4503   3.726   6.082  -0.019 -0.3930  0.6924 -0.0011
 1183SOL    HW2 4504   3.689   6.163   0.017 -0.6857  0.1060  1.0524
 1183SOL    HW3 4505   3.740   6.026   0.058  2.0260  0.6154 -0.4046
 1183SOL    MW4 4506   3.723   6.085  -0.004  0.3756 -0.2541 -0.1528
 1184SOL     OW 4507   3.658   4.773   1.635  0.1414  0.4007 -0.0768
 1184SOL    HW2 4508   3.723   4.828   1.679  0.4173  0.9553 -1.1406
 1184SOL    HW3 4509   3.701   4.744   1.555 -0.6396  0.1261 -0.4084
 1184SOL    MW4 4510   3.672   4.777   1.630 -0.6618 -0.3287  0.0844
 1185SOL     OW 4511   0.080   6.298   4.049  0.6103 -0.7325 -0.3873
 1185SOL    HW2 4512   0.016   6.349   3.998 -0.1545  0.8152  1.9682
 1185SOL    HW3 4513   0.127   6.247   3.983 -0.5138  0.9012 -2.6033
 1185SOL    MW4 4514   0.078   6.298   4.034  0.0465  0.6420  0.0242
 1186SOL     OW 4515   5.072   0.322   2.553 -0.1405  0.4144  0.5044
 1186SOL    HW2 4516   5.079   0.278   2.638  0.2913  0.7506  0.6504
 1186SOL    HW3 4517   4.979   0.319   2.532 -0.3125  0.6733  1.1848
 1186SOL    MW4 4518   5.061   0.316   2.562 -0.2167 -0.1470  0.2135
 1187SOL     OW 4519   4.212   3.593   3.114 -0.3839 -0.3995 -0.6581
 1187SOL    HW2 4520   4.292   3.544   3.129 -0.6470 -0.8582 -0.7572
 1187SOL    HW3 4521   4.151   3.530   3.075 -0.2626  0.3444 -2.1083
 1187SOL    MW4 4522   4.214   3.579   3.111 -0.2928 -0.0496  0.6231
 1188SOL     OW 4523   4.384   0.851   0.237 -0.2230  0.3418 -0.1223
 1188SOL    HW2 4524   4.309   0.840   0.177  0.3621  1.3756 -1.0797
 1188SOL    HW3 4525   4.459   0.866   0.179  0.7634 -0.7668  0.8198
 1188SOL    MW4 4526   4.384   0.851   0.221 -0.3802  0.5747 -0.1755
 1189SOL     OW 4527   5.188   4.129   4.957 -0.2037  0.6644 -0.9780
 1189SOL    HW2 4528   5.178   4.142   4.863  3.9608  0.1528 -1.6775
 1189SOL    HW3 4529   5.212   4.215   4.991  0.3140  0.4417 -0.7724
 1189SOL    MW4 4530   5.190   4.142   4.949 -0.1154 -0.6405  0.3257
 1190SOL     OW 4531   4.860   2.154   2.370  0.8556 -0.4052 -0.1635
 1190SOL    HW2 4532   4.886   2.230   2.318  0.0407 -0.5261 -0.7545
 1190SOL    HW3 4533   4.884   2.078   2.316  2.7179 -0.6296  0.9020
 1190SOL    MW4 4534   4.867   2.154   2.356 -0.4442 -0.5793 -0.2518
 1191SOL     OW 4535   3.846   1.751   6.214  0.1409 -0.3901  0.4388
 1191SOL    HW2 4536   3.798   1.703   6.146  1.6051 -1.9019  0.4159
 1191SOL    HW3 4537   3.911   1.802   6.165  0.2792 -0.3907  0.6229
 1191SOL    MW4 4538   3.848   1.752   6.198 -0.5563 -0.2428 -0.1222
 1192SOL     OW 4539   4.536   1.850   0.040  0.4130 -0.1827  0.3724
 1192SOL    HW2 4540   4.486   1.801   0.106  0.0619  0.8793  0.9172
 1192SOL    HW3 4541   4.578   1.782  -0.013  0.3869 -1.0698  1.4451
 1192SOL    MW4 4542   4.535   1.835   0.042 -0.2286  0.0509  0.1927
 1193SOL     OW 4543   4.464   2.185   1.791 -0.0069  0.0351  0.3619
 1193SOL    HW2 4544   4.392   2.148   1.841  1.5522 -2.2384  1.0743
 1193SOL    HW3 4545   4.468   2.132   1.711  0.9166  0.0628  0.3717
 1193SOL    MW4 4546   4.455   2.173   1.787  0.2481 -0.0339 -0.2835
 1194SOL     OW 4547   2.494   0.564   0.824  0.0767  0.2627  0.3491
 1194SOL    HW2 4548   2.455   0.642   0.865  0.0781  0.8547 -0.7428
 1194SOL    HW3 4549   2.430   0.535   0.760  0.5002 -0.0377  0.0549
 1194SOL    MW4 4550   2.481   0.571   0.821 -0.2163 -0.3969  0.3932
 1195SOL     OW 4551   2.332   1.039   3.831  0.3793 -0.3603 -0.3764
 1195SOL    HW2 4552   2.334   0.967   3.893 -1.0750  1.2359  1.6686
 1195SOL    HW3 4553   2.250   1.027   3.783 -1.6213  1.5797  2.2686
 1195SOL    MW4 4554   2.321   1.028   3.833 -0.1191  0.4543 -0.2519
 1196SOL     OW 4555   5.552   1.087   5.722  0.2072  0.3933  0.8517
 1196SOL    HW2 4556   5.480   1.024   5.718  1.1667 -0.7671  1.0791
 1196SOL    HW3 4557   5.529   1.155   5.659 -2.2318  1.3332  2.6209
 1196SOL    MW4 4558   5.540   1.088   5.713  0.2333  0.2492  0.1189
 1197SOL     OW 4559   3.415   3.349   4.695 -0.5587 -0.3719 -0.0486
 1197SOL    HW2 4560   3.432   3.333   4.602 -1.5725  0.9669 -0.5089
 1197SOL    HW3 4561   3.351   3.283   4.720 -0.8964 -0.2264 -0.5267
 1197SOL    MW4 4562   3.409   3.338   4.686  0.1985 -0.6424 -0.3943
 1198SOL     OW 4563   0.647   4.104   4.206 -0.0407 -0.3823 -0.5453
 1198SOL    HW2 4564   0.719   4.141   4.155  1.0960 -0.7983  0.7121
 1198SOL    HW3 4565   0.688   4.037   4.260 -1.4843 -1.0331 -0.2230
 1198SOL    MW4 4566   0.662   4.100   4.206 -0.1114  0.7463 -0.0891
 1199SOL     OW 4567   4.159   6.309   2.529  0.3497 -0.4287  0.2394
 1199SOL    HW2 4568   4.154   6.391   2.579  0.5160  1.3729 -2.5185
 1199SOL    HW3 4569   4.232   6.262   2.569  0.1978  0.6745  1.9503
 1199SOL    MW4 4570   4.168   6.313   2.541  0.4032 -0.0202 -0.6013
 1200SOL     OW 4571   5.117   1.053   4.520 -1.1786 -0.1060 -0.6569
 1200SOL    HW2 4572   5.056   1.071   4.449  0.6991  1.6341 -1.9665
 1200SOL    HW3 4573   5.112   0.958   4.533 -1.6579 -0.4858 -3.0852
 1200SOL    MW4 4574   5.108   1.043   4.512  0.1518  0.1416  0.5115
 1201SOL     OW 4575   4.041   2.296   0.142  0.7377  0.2074 -0.0376
 1201SOL    HW2 4576   4.128   2.314   0.106 -1.0173  1.8276 -4.0496
 1201SOL    HW3 4577   4.019   2.208   0.113  0.5732  0.2699 -0.1073
 1201SOL    MW4 4578   4.049   2.287   0.133 -0.2310 -0.0788  0.0599
 1202SOL     OW 4579   6.168   5.797   0.171  0.3106 -0.3457 -0.0653
 1202SOL    HW2 4580   6.180   5.812   0.264  0.6829  1.5145 -0.3791
 1202SOL    HW3 4581   6.255   5.806   0.134 -0.1525  1.2952 -0.8592
 1202SOL    MW4 4582   6.181   5.800   0.178  0.0477 -0.0116  0.1195
 1203SOL     OW 4583   2.764   3.215   5.687  0.2197 -0.1335 -0.0771
 1203SOL    HW2 4584   2.786   3.163   5.764  1.8418 -0.1804 -0.5251
 1203SOL    HW3 4585   2.784   3.305   5.712  0.7990 -0.1548 -0.4337
 1203SOL    MW4 4586   2.770   3.220   5.700 -0.0810  0.3965 -0.1833
 1204SOL     OW 4587   3.774   0.725   0.613  0.5396 -0.3285 -0.1221
 1204SOL    HW2 4588   3.726   0.659   0.563 -0.6867 -0.0664  0.6639
 1204SOL    HW3 4589   3.727   0.807   0.597  1.7747  0.2986 -0.7229
 1204SOL    MW4 4590   3.762   0.727   0.604 -0.6478  1.2155  0.0088
 1205SOL     OW 4591   4.882   2.446   1.692  0.4042 -0.5864  0.7690
 1205SOL    HW2 4592   4.797   2.432   1.735 -0.0536  0.4736  0.2605
 1205SOL    HW3 4593   4.941   2.471   1.762  0.5658 -2.2698  1.2771
 1205SOL    MW4 4594   4.878   2.447   1.707  0.3374  0.5735 -0.3999
 1206SOL     OW 4595   1.080   0.626   1.249  0.9028  0.2090 -0.1579
 1206SOL    HW2 4596   1.117   0.616   1.161  2.9705  0.9754  0.5604
 1206SOL    HW3 4597   1.155   0.617   1.307 -0.2343  0.8600  1.4752
 1206SOL    MW4 4598   1.095   0.623   1.245 -0.0719 -0.6199 -0.9176
 1207SOL     OW 4599   4.881   0.069   4.119  0.6303  0.1381  0.3319
 1207SOL    HW2 4600   4.852   0.004   4.054  0.2365 -0.0264  0.6683
 1207SOL    HW3 4601   4.842   0.151   4.089 -1.1484 -0.2615  1.3636
 1207SOL    MW4 4602   4.872   0.071   4.106 -0.3475  0.5343 -0.2772
 1208SOL     OW 4603   3.261   3.039   0.519  0.4112 -0.4118 -0.3124
 1208SOL    HW2 4604   3.234   2.947   0.516 -0.5360 -0.1490 -0.0152
 1208SOL    HW3 4605   3.326   3.042   0.589  1.8256 -1.1847 -1.5068
 1208SOL    MW4 4606   3.266   3.027   0.528  0.5038  1.2044  0.4564
 1209SOL     OW 4607   4.041   4.000   2.951 -0.2178  0.4975 -0.2251
 1209SOL    HW2 4608   4.063   3.945   3.026 -2.0695 -1.0155 -0.7310
 1209SOL    HW3 4609   4.111   3.983   2.888 -0.2371 -0.5025  0.0156
 1209SOL    MW4 4610   4.053   3.991   2.953 -0.3374  1.1676 -0.2482
 1210SOL     OW 4611   0.349   0.806   0.960 -0.6500  0.0955  0.3636
 1210SOL    HW2 4612   0.332   0.897   0.938 -0.4081 -0.2729 -1.4988
 1210SOL    HW3 4613   0.268   0.760   0.937  0.1049 -0.5147 -1.2092
 1210SOL    MW4 4614   0.336   0.812   0.954  0.5894  0.2480  0.9443
 1211SOL     OW 4615   3.930   5.942   4.702  0.2323 -0.3366 -0.1695
 1211SOL    HW2 4616   3.849   5.931   4.651  1.2170 -0.3926 -1.8029
 1211SOL    HW3 4617   3.966   6.025   4.671  0.9752 -0.4828  0.2881
 1211SOL    MW4 4618   3.924   5.952   4.691  0.2449 -0.3316 -0.4836
 1212SOL     OW 4619   4.020   0.118   4.819 -0.1801  0.1310  0.2872
 1212SOL    HW2 4620   4.069   0.186   4.771  0.2385  0.3717  1.0389
 1212SOL    HW3 4621   4.036   0.138   4.911 -1.1361 -0.2136  0.5349
 1212SOL    MW4 4622   4.029   0.130   4.824 -0.2457  0.8163  0.2665
 1213SOL     OW 4623   2.011   1.771   2.049  0.4158 -0.0589  0.3802
 1213SOL    HW2 4624   1.989   1.738   1.962 -1.2671  0.0548  0.7436
 1213SOL    HW3 4625   2.082   1.834   2.033  0.7981 -0.7393 -0.7771
 1213SOL    MW4 4626   2.018   1.775   2.035 -0.1970  0.1387 -0.1081
 1214SOL     OW 4627   0.363   0.566   2.176  0.2639  0.2663 -0.3395
 1214SOL    HW2 4628   0.274   0.548   2.145 -0.0953  1.6736 -0.1864
 1214SOL    HW3 4629   0.408   0.603   2.100  0.1107  1.4313  0.1220
 1214SOL    MW4 4630   0.357   0.568   2.162 -0.3109 -0.2859 -0.1363
 1215SOL     OW 4631   0.269   2.479   2.393  0.8222  0.3570 -0.2551
 1215SOL    HW2 4632   0.316   2.559   2.369 -0.3256  0.8660 -0.8959
 1215SOL    HW3 4633   0.176   2.502   2.382  0.4038 -0.5350  1.2228
 1215SOL    MW4 4634   0.263   2.493   2.388  0.3586  0.0167 -0.2538
 1216SOL     OW 4635   2.259   3.879   3.271  1.2774 -0.1396 -0.5470
 1216SOL    HW2 4636   2.292   3.791   3.249  1.3847 -0.3397  0.3537
 1216SOL    HW3 4637   2.172   3.863   3.307  0.4169  0.3318 -2.3205
 1216SOL    MW4 4638   2.252   3.865   3.273 -0.0822 -0.1427 -0.1274
 1217SOL     OW 4639   0.710   0.087   4.963  0.0059 -0.4719  0.3843
 1217SOL    HW2 4640   0.802   0.086   4.940 -0.2209  1.7990 -0.8864
 1217SOL    HW3 4641   0.705   0.146   5.039 -0.5672  1.0725 -0.7885
 1217SOL    MW4 4642   0.721   0.095   4.970  0.1440  0.3613 -0.6059
 1218SOL     OW 4643   3.908   1.736   1.796 -0.3255  0.9764  0.3967
 1218SOL    HW2 4644   3.929   1.829   1.804 -0.6502  1.0277  0.6945
 1218SOL    HW3 4645   3.817   1.735   1.767 -0.2641  0.7524  0.2144
 1218SOL    MW4 4646   3.899   1.748   1.793 -0.1555 -0.4649 -0.2946
 1219SOL     OW 4647   3.212   0.278   2.590  0.3287  0.5944  0.0351
 1219SOL    HW2 4648   3.150   0.230   2.645  3.0898 -1.4154  1.6705
 1219SOL    HW3 4649   3.199   0.242   2.502 -2.7561  2.4185 -0.4326
 1219SOL    MW4 4650   3.202   0.267   2.586 -0.3027  0.0570  0.1216
 1220SOL     OW 4651   5.343   1.190   0.079  0.4104 -0.2599  0.0110
 1220SOL    HW2 4652   5.263   1.212   0.127  0.8233 -0.0997  0.6366
 1220SOL    HW3 4653   5.327   1.101   0.046 -0.5428  0.2534 -1.0013
 1220SOL    MW4 4654   5.330   1.181   0.081  0.1196  0.2254  0.6514
 1221SOL     OW 4655   2.155   2.905   6.018  0.3183 -0.0876 -0.0746
 1221SOL    HW2 4656   2.229   2.868   5.969  1.4402  0.7540  0.9403
 1221SOL    HW3 4657   2.191   2.926   6.104 -1.5360 -1.2882  1.0801
 1221SOL    MW4 4658   2.169   2.903   6.023 -0.7108  0.1663 -0.2218
 1222SOL     OW 4659   4.117   4.719   0.759  0.0499  0.1941  0.5633
 1222SOL    HW2 4660   4.027   4.690   0.742  0.6503 -1.1137 -0.4788
 1222SOL    HW3 4661   4.167   4.639   0.769  1.5037  0.8517 -0.9527
 1222SOL    MW4 4662   4.112   4.705   0.758 -0.0848  0.5250  0.2501
 1223SOL     OW 4663   2.270   0.893   3.210 -0.2289  0.2234 -0.4395
 1223SOL    HW2 4664   2.295   0.846   3.131 -0.1209  2.0517 -1.5439
 1223SOL    HW3 4665   2.223   0.971   3.179  0.8542  1.6272  1.1881
 1223SOL    MW4 4666   2.267   0.897   3.196  0.3434  0.3247 -0.9858
 1224SOL     OW 4667   5.811   5.728   5.986  0.1688 -0.6567 -0.0721
 1224SOL    HW2 4668   5.752   5.787   5.940 -1.4265 -0.8202  1.6158
 1224SOL    HW3 4669   5.812   5.761   6.076  0.5581 -2.2018  0.5235
 1224SOL    MW4 4670   5.803   5.740   5.992 -0.3003  1.0180  0.1566
 1225SOL     OW 4671   6.229   3.679   1.533 -0.1561  0.5280  0.0628
 1225SOL    HW2 4672   6.212   3.595   1.490 -1.2364 -0.1287  1.6855
 1225SOL    HW3 4673   6.321   3.697   1.515 -0.1482 -0.5376 -1.0914
 1225SOL    MW4 4674   6.239   3.671   1.525 -0.4919  0.6686  0.1964
 1226SOL     OW 4675   2.021   2.155   3.258 -0.1580  0.4290  0.7242
 1226SOL    HW2 4676   1.980   2.157   3.172 -0.7317 -1.6382  0.8954
 1226SOL    HW3 4677   2.104   2.201   3.246 -0.3317  0.3926 -0.8701
 1226SOL    MW4 4678   2.027   2.161   3.245  0.2530  0.3611 -0.0653
 1227SOL     OW 4679   4.133   2.403   4.004 -0.2151  0.2703  0.1573
 1227SOL    HW2 4680   4.121   2.430   3.913  1.1548  1.8633  0.3939
 1227SOL    HW3 4681   4.056   2.349   4.024 -0.8903  0.4793 -1.7185
 1227SOL    MW4 4682   4.121   2.400   3.995  0.0236 -0.1430 -0.4898
 1228SOL     OW 4683   3.859   2.867   3.862 -0.3287 -0.1649  0.0922
 1228SOL    HW2 4684   3.892   2.812   3.933  0.2061  0.2241  0.1501
 1228SOL    HW3 4685   3.892   2.826   3.782  0.8204  0.5552  0.1781
 1228SOL    MW4 4686   3.868   2.855   3.861 -0.1645 -0.1338  0.2633
 1229SOL     OW 4687   5.942   3.432   0.899 -0.1444 -0.0094 -0.3514
 1229SOL    HW2 4688   5.963   3.524   0.883 -0.5543  0.1402 -0.0708
 1229SOL    HW3 4689   6.008   3.383   0.851 -0.4983  0.4250 -1.3074
 1229SOL    MW4 4690   5.953   3.438   0.891 -0.5658  0.7222 -0.3146
 1230SOL     OW 4691   1.600   4.424   5.285 -0.2016 -0.0295 -0.6046
 1230SOL    HW2 4692   1.574   4.490   5.222 -2.3261 -0.6588 -0.4776
 1230SOL    HW3 4693   1.681   4.387   5.250  0.0692  1.4026 -1.5654
 1230SOL    MW4 4694   1.607   4.428   5.272 -0.3234  0.1356 -0.1732
 1231SOL     OW 4695   0.567   1.237   2.766 -0.1637 -0.1595  1.0485
 1231SOL    HW2 4696   0.555   1.303   2.834 -1.4918  0.3348  0.3787
 1231SOL    HW3 4697   0.524   1.274   2.689  1.3097 -0.7045 -0.0794
 1231SOL    MW4 4698   0.559   1.250   2.765  0.1295  0.2125 -0.0481
 1232SOL     OW 4699   2.482   4.436   2.177 -0.5583  0.2802  0.1962
 1232SOL    HW2 4700   2.505   4.410   2.088 -1.4701  1.4981 -0.4236
 1232SOL    HW3 4701   2.449   4.356   2.218  1.8118 -0.7895  0.1532
 1232SOL    MW4 4702   2.481   4.422   2.171  0.1601 -0.1176 -0.1678
 1233SOL     OW 4703   4.671   0.259   0.292  0.0268  0.3107 -0.8495
 1233SOL    HW2 4704   4.626   0.335   0.257 -0.6846 -0.1524 -0.9530
 1233SOL    HW3 4705   4.601   0.201   0.323  0.4250 -1.1416 -2.4640
 1233SOL    MW4 4706   4.656   0.261   0.292  0.2628 -0.1136  0.1342
 1234SOL     OW 4707   1.211   1.392   6.081  0.3042 -0.1701 -0.1562
 1234SOL    HW2 4708   1.252   1.426   6.161 -1.1705  0.7875  0.2158
 1234SOL    HW3 4709   1.239   1.453   6.013 -0.0451  0.1707  0.0007
 1234SOL    MW4 4710   1.220   1.404   6.083  0.0425  0.0598  0.1073
 1235SOL     OW 4711   6.428   0.399   1.790  0.2943  0.7309  0.0081
 1235SOL    HW2 4712   6.392   0.486   1.772 -2.5629 -0.3100  0.1581
 1235SOL    HW3 4713   6.354   0.349   1.823  1.6671 -1.9954 -0.7569
 1235SOL    MW4 4714   6.414   0.404   1.792  0.9262 -0.6138 -0.2349
 1236SOL     OW 4715   6.094   5.683   2.076 -0.0848  0.6048  0.1396
 1236SOL    HW2 4716   6.149   5.615   2.114  0.2707  0.9966  0.3274
 1236SOL    HW3 4717   6.022   5.635   2.035  0.2030  0.1121  0.2033
 1236SOL    MW4 4718   6.092   5.668   2.075  0.4778  0.4762 -0.2768
 1237SOL     OW 4719   3.201   1.836   1.008  0.9975  0.3131  0.7920
 1237SOL    HW2 4720   3.268   1.773   1.035  0.2693 -0.9992 -0.3794
 1237SOL    HW3 4721   3.197   1.827   0.913  0.1172  1.3774  0.7160
 1237SOL    MW4 4722   3.210   1.827   0.999  0.1892 -0.1409  0.3635
 1238SOL     OW 4723   0.485   0.605   0.851 -0.9844  0.4231  0.2316
 1238SOL    HW2 4724   0.430   0.680   0.876 -0.0978  1.0444  0.3807
 1238SOL    HW3 4725   0.553   0.603   0.918  0.0567  0.6250 -0.7856
 1238SOL    MW4 4726   0.487   0.615   0.863 -0.3321  0.4657 -0.4941
 1239SOL     OW 4727   1.332   3.070   5.635  0.3505  0.0489  0.8599
 1239SOL    HW2 4728   1.356   3.143   5.693  0.1680  0.4242  0.4689
 1239SOL    HW3 4729   1.280   3.111   5.566  0.9465 -0.3228  0.1825
 1239SOL    MW4 4730   1.328   3.085   5.634 -0.3020 -0.3568 -0.0378
 1240SOL     OW 4731   1.194   4.268   4.365 -0.0436 -0.2411 -0.0185
 1240SOL    HW2 4732   1.263   4.328   4.395  0.6761 -0.4566 -1.1547
 1240SOL    HW3 4733   1.166   4.221   4.443  0.8288  0.1360  0.5328
 1240SOL    MW4 4734   1.199   4.270   4.379 -0.0283  0.6467 -0.9021
 1241SOL     OW 4735   5.879   1.916   4.093 -0.0561  0.1145 -0.0102
 1241SOL    HW2 4736   5.966   1.891   4.061 -0.0161 -2.3490  1.8047
 1241SOL    HW3 4737   5.891   1.931   4.187 -1.4054  0.8327  0.0733
 1241SOL    MW4 4738   5.892   1.915   4.101 -0.4318 -0.8432  0.1850
 1242SOL     OW 4739   5.478   0.909   3.578  0.4717 -0.1066 -0.1354
 1242SOL    HW2 4740   5.486   0.959   3.497 -0.6575  2.0234  0.9830
 1242SOL    HW3 4741   5.512   0.967   3.646 -0.2742 -1.1194  1.1562
 1242SOL    MW4 4742   5.484   0.923   3.576  0.1148  0.0526  0.2495
 1243SOL     OW 4743   5.368   5.004   6.033  0.1580 -0.1563 -0.0703
 1243SOL    HW2 4744   5.364   5.060   5.955 -0.9777  1.7274  1.2338
 1243SOL    HW3 4745   5.284   4.957   6.032 -0.3660  0.7218  0.5497
 1243SOL    MW4 4746   5.356   5.005   6.022  0.2444  0.2327  0.3839
 1244SOL     OW 4747   5.831   5.857   0.334  0.1750  0.0782 -0.5243
 1244SOL    HW2 4748   5.830   5.882   0.242  3.8670  0.0281 -0.7246
 1244SOL    HW3 4749   5.874   5.929   0.378 -2.7974  0.7619  1.5301
 1244SOL    MW4 4750   5.837   5.870   0.327 -0.1237 -1.1273  0.4990
 1245SOL     OW 4751   5.691   0.693   0.493 -0.5126  0.5533  0.0121
 1245SOL    HW2 4752   5.752   0.724   0.425 -0.8731  0.4952 -0.3432
 1245SOL    HW3 4753   5.746   0.681   0.570  0.4677 -2.0426 -0.9696
 1245SOL    MW4 4754   5.707   0.696   0.494 -0.3263 -0.2376  0.4529
 1246SOL     OW 4755   0.505   6.118   0.210  0.1624 -0.6320  0.2638
 1246SOL    HW2 4756   0.454   6.079   0.281 -1.4018 -2.5218 -1.7133
 1246SOL    HW3 4757   0.442   6.173   0.163  1.3440  1.1423  0.6683
 1246SOL    MW4 4758   0.490   6.120   0.213  0.2012  0.0410  0.0701
 1247SOL     OW 4759   2.515   3.982   4.222  0.7741  0.6940  0.3661
 1247SOL    HW2 4760   2.431   3.950   4.190  1.4543 -1.5144  0.5977
 1247SOL    HW3 4761   2.540   4.051   4.160 -1.0309  1.1828  0.1347
 1247SOL    MW4 4762   2.507   3.987   4.210 -0.3705 -0.0136 -0.2334
 1248SOL     OW 4763   1.838   2.448   4.475 -0.1544  0.1541  0.6781
 1248SOL    HW2 4764   1.789   2.379   4.431  1.5130 -0.4462 -0.3057
 1248SOL    HW3 4765   1.771   2.511   4.502 -1.2817  0.6666 -2.8602
 1248SOL    MW4 4766   1.823   2.447   4.473  0.6093 -0.0092 -0.2398
 1249SOL     OW 4767   0.029   1.454   2.357 -0.1768  0.7269  0.3703
 1249SOL    HW2 4768   0.091   1.382   2.346 -0.2513  0.5874  0.8657
 1249SOL    HW3 4769   0.056   1.498   2.437  0.1249  1.5141 -0.1493
 1249SOL    MW4 4770   0.041   1.450   2.366  0.3075  0.8121 -0.2786
 1250SOL     OW 4771   3.159   5.402   4.842 -0.4164  0.0469 -0.1907
 1250SOL    HW2 4772   3.096   5.473   4.859  1.0588  1.1151  1.0908
 1250SOL    HW3 4773   3.236   5.426   4.892 -0.1689 -3.0216  1.1107
 1250SOL    MW4 4774   3.161   5.415   4.851 -0.1486  0.3698 -0.1953
 1251SOL     OW 4775   3.534   3.972   3.364  0.1904 -0.5652 -0.4326
 1251SOL    HW2 4776   3.499   4.015   3.286 -1.4246 -0.2679  0.4211
 1251SOL    HW3 4777   3.590   4.038   3.404 -1.4512  0.4407  0.3027
 1251SOL    MW4 4778   3.537   3.986   3.359  0.0623 -0.3563  0.4293
 1252SOL     OW 4779   2.246   2.971   0.738 -0.2467  0.2723  0.4426
 1252SOL    HW2 4780   2.156   2.959   0.769 -0.6736  2.8021  0.4120
 1252SOL    HW3 4781   2.270   3.058   0.770  1.1671  0.8390 -1.9489
 1252SOL    MW4 4782   2.237   2.981   0.747 -0.5592 -0.4174  0.1380
 1253SOL     OW 4783   5.516   1.324   0.248 -0.9349  0.1065  0.6529
 1253SOL    HW2 4784   5.441   1.279   0.210 -0.6534 -0.6867  1.0181
 1253SOL    HW3 4785   5.555   1.260   0.307  2.0650 -0.8559 -2.0365
 1253SOL    MW4 4786   5.512   1.310   0.251 -0.3050  0.5392  0.1041
 1254SOL     OW 4787   4.343   2.054   0.647 -0.1671  0.4861 -0.6572
 1254SOL    HW2 4788   4.302   1.979   0.690 -0.8799  0.7172 -0.9089
 1254SOL    HW3 4789   4.409   2.016   0.590  0.2010  0.1241 -0.0041
 1254SOL    MW4 4790   4.346   2.039   0.645  0.2565 -0.2212 -0.8203
 1255SOL     OW 4791   5.815   3.380   2.558 -0.3457 -0.9076 -0.2113
 1255SOL    HW2 4792   5.789   3.472   2.562  0.5574 -0.6762  0.8077
 1255SOL    HW3 4793   5.747   3.339   2.504 -1.2397  0.1889  0.0264
 1255SOL    MW4 4794   5.802   3.387   2.552 -0.4120 -0.4270  0.1618
 1256SOL     OW 4795   4.493   5.457   2.976 -0.4204 -0.3413  0.5718
 1256SOL    HW2 4796   4.445   5.446   2.894 -0.4946 -0.0486  0.5744
 1256SOL    HW3 4797   4.431   5.497   3.036 -0.1190  0.2200  0.5163
 1256SOL    MW4 4798   4.479   5.461   2.973 -0.3135  0.0374  0.1596
 1257SOL     OW 4799   3.946   1.011   0.762  0.3644 -0.0840  0.3718
 1257SOL    HW2 4800   3.864   0.985   0.719  0.3057 -0.7779  0.8907
 1257SOL    HW3 4801   4.001   1.042   0.691 -0.1050 -0.2516 -0.0727
 1257SOL    MW4 4802   3.942   1.012   0.747  0.0245 -0.0853  0.2882
 1258SOL     OW 4803   1.824   4.998   1.099  0.1119 -0.5100  0.1464
 1258SOL    HW2 4804   1.873   5.078   1.115  2.0321 -1.6703  0.3674
 1258SOL    HW3 4805   1.890   4.934   1.071 -1.1496 -2.3389  1.0930
 1258SOL    MW4 4806   1.839   5.000   1.098 -0.4009 -0.0372  0.4821
 1259SOL     OW 4807   6.369   1.890   4.916  0.6953  0.5166  0.2236
 1259SOL    HW2 4808   6.286   1.848   4.941 -0.4343  1.9203 -0.9442
 1259SOL    HW3 4809   6.426   1.818   4.891 -0.8926 -0.3940 -0.9430
 1259SOL    MW4 4810   6.365   1.875   4.916  0.0990 -0.4829 -0.4850
 1260SOL     OW 4811   6.218   0.614   0.557  0.0734 -0.1532 -0.5957
 1260SOL    HW2 4812   6.258   0.695   0.526 -0.8480  0.3929 -0.3890
 1260SOL    HW3 4813   6.204   0.563   0.477  1.7154 -0.6307 -0.6212
 1260SOL    MW4 4814   6.221   0.618   0.542 -0.2254  0.5348  0.1974
 1261SOL     OW 4815   5.949   3.715   2.704  0.5028  0.1071  0.3681
 1261SOL    HW2 4816   5.869   3.738   2.656  1.1904  0.6257 -0.5646
 1261SOL    HW3 4817   6.017   3.713   2.637  1.1046 -1.2914  0.9866
 1261SOL    MW4 4818   5.947   3.718   2.689 -0.3683 -0.8427 -0.0809
 1262SOL     OW 4819   5.378   5.841   3.244  0.3722 -0.0157  0.2924
 1262SOL    HW2 4820   5.389   5.774   3.311  0.7815  0.9943  1.2771
 1262SOL    HW3 4821   5.287   5.870   3.254 -0.6575 -2.2277 -1.9214
 1262SOL    MW4 4822   5.367   5.836   3.254  0.0393 -0.9488  0.2392
 1263SOL     OW 4823   1.951   0.779   4.269 -0.5948  0.3872  0.2776
 1263SOL    HW2 4824   1.954   0.875   4.267 -2.4512  0.4924 -1.0812
 1263SOL    HW3 4825   1.873   0.759   4.320 -1.4231 -0.2869 -1.1824
 1263SOL    MW4 4826   1.941   0.789   4.275  0.2773  0.1231  0.3235
 1264SOL     OW 4827   2.814   4.772   2.375 -0.6369  0.1229  0.0811
 1264SOL    HW2 4828   2.775   4.688   2.351 -2.8037  0.8088  0.9827
 1264SOL    HW3 4829   2.879   4.750   2.442 -1.0005 -0.8517  0.1262
 1264SOL    MW4 4830   2.818   4.758   2.381  0.4372 -0.0405 -0.2638
 1265SOL     OW 4831   3.609   4.390   2.125 -0.0840 -0.0722  1.1366
 1265SOL    HW2 4832   3.562   4.310   2.101 -0.5161  0.0781  1.4724
 1265SOL    HW3 4833   3.623   4.383   2.219  1.5168 -0.6129  0.9002
 1265SOL    MW4 4834   3.605   4.379   2.134  0.6945  0.0795  0.1236
 1266SOL     OW 4835   1.543   4.946   4.034  0.1058  0.0075  0.2565
 1266SOL    HW2 4836   1.481   4.971   4.103  0.2026  0.0121  0.3408
 1266SOL    HW3 4837   1.606   4.889   4.077  0.4638  0.4240  0.2923
 1266SOL    MW4 4838   1.543   4.942   4.049 -0.1236 -0.3292  0.0237
 1267SOL     OW 4839   0.457   6.123   3.400  0.5866  0.1575 -0.0515
 1267SOL    HW2 4840   0.439   6.191   3.335  0.9411  0.4963  0.2042
 1267SOL    HW3 4841   0.460   6.042   3.348  1.4047  0.4895 -0.5456
 1267SOL    MW4 4842   0.455   6.121   3.384 -0.1823  0.0004 -0.2110
 1268SOL     OW 4843   4.892   3.104   0.013 -0.4330 -0.0346 -0.5594
 1268SOL    HW2 4844   4.861   3.101  -0.078 -1.7168 -0.6711 -0.1198
 1268SOL    HW3 4845   4.941   3.022   0.024 -1.4218 -0.6056 -0.2997
 1268SOL    MW4 4846   4.894   3.093   0.002  0.6610 -0.2800 -0.0974
 1269SOL     OW 4847   5.622   3.250   6.255  0.5583 -0.7107 -0.4437
 1269SOL    HW2 4848   5.696   3.212   6.302  2.1314  1.4720 -1.0080
 1269SOL    HW3 4849   5.605   3.189   6.183  1.5509 -1.4481 -0.0740
 1269SOL    MW4 4850   5.630   3.237   6.252  0.6346 -0.5580 -0.5921
 1270SOL     OW 4851   4.654   0.091   5.342 -0.0511 -0.6580 -0.0566
 1270SOL    HW2 4852   4.735   0.084   5.291 -0.4916 -0.0741 -0.8725
 1270SOL    HW3 4853   4.590   0.043   5.290 -0.0054 -2.0794  1.1347
 1270SOL    MW4 4854   4.656   0.084   5.328  0.0822 -0.1433  0.0260
 1271SOL     OW 4855   4.992   5.604   1.881  0.5273  0.3105  0.1561
 1271SOL    HW2 4856   5.032   5.525   1.844  0.1610  1.5289 -3.1434
 1271SOL    HW3 4857   5.026   5.676   1.828 -1.5459  2.0393  1.0198
 1271SOL    MW4 4858   5.002   5.603   1.869 -0.3262  0.1696 -0.3210
 1272SOL     OW 4859   4.111   0.650   3.937 -0.5679 -0.2563  0.4915
 1272SOL    HW2 4860   4.099   0.727   3.883  0.8409 -0.7430 -0.5856
 1272SOL    HW3 4861   4.060   0.581   3.894 -1.7622  0.0253  1.4078
 1272SOL    MW4 4862   4.103   0.651   3.924  0.4534  0.4148  0.0050
 1273SOL     OW 4863   5.852   2.009   3.014  0.2966 -0.4616 -0.2268
 1273SOL    HW2 4864   5.760   2.018   3.040  0.6848  0.2004  0.9985
 1273SOL    HW3 4865   5.889   2.097   3.024  0.9752 -0.6348 -1.0971
 1273SOL    MW4 4866   5.845   2.022   3.019 -0.1123  0.2052  0.1418
 1274SOL     OW 4867   2.004   2.929   6.314 -0.0309  0.0862 -0.4029
 1274SOL    HW2 4868   2.037   3.015   6.286  1.7751 -0.9525 -1.6631
 1274SOL    HW3 4869   2.079   2.887   6.356 -0.8336 -0.9713  0.0046
 1274SOL    MW4 4870   2.018   2.935   6.316 -0.5282  0.1167 -0.3041
 1275SOL     OW 4871   4.677   3.477   2.686  0.0373  0.2884  0.0088
 1275SOL    HW2 4872   4.739   3.409   2.713  1.4220  2.0689  1.6229
 1275SOL    HW3 4873   4.605   3.470   2.749  0.8693  1.1690  1.1189
 1275SOL    MW4 4874   4.675   3.467   2.698  0.4047 -0.5609 -0.2866
 1276SOL     OW 4875   4.962   2.363   2.225 -0.7189 -0.0631 -0.0855
 1276SOL    HW2 4876   5.056   2.367   2.206 -0.6206 -0.9579  0.1681
 1276SOL    HW3 4877   4.923   2.324   2.147 -0.3704 -3.2997  1.1838
 1276SOL    MW4 4878   4.969   2.359   2.212 -0.0252 -0.2395  0.0729
 1277SOL     OW 4879   1.644   2.362   6.311 -0.2455 -0.1426  0.2370
 1277SOL    HW2 4880   1.710   2.390   6.375 -0.1399 -1.3876  0.7032
 1277SOL    HW3 4881   1.636   2.436   6.251  2.3018 -0.2998 -0.4172
 1277SOL    MW4 4882   1.652   2.376   6.312 -0.3948  0.3535 -0.7210
 1278SOL     OW 4883   3.076   2.744   3.120 -0.0576  0.0783  0.6344
 1278SOL    HW2 4884   3.029   2.698   3.050 -0.6747  0.5171  0.7515
 1278SOL    HW3 4885   3.050   2.835   3.110  2.2503  0.6867 -0.5057
 1278SOL    MW4 4886   3.067   2.750   3.109  0.1333  0.6200  0.0855
 1279SOL     OW 4887   1.173   0.713   5.183 -0.1257 -0.4398  0.2079
 1279SOL    HW2 4888   1.098   0.703   5.242  1.8743 -0.5848  2.8762
 1279SOL    HW3 4889   1.176   0.807   5.164 -0.9150 -0.4214  0.1044
 1279SOL    MW4 4890   1.163   0.724   5.188 -0.0704 -0.0604 -0.2775
 1280SOL     OW 4891   5.554   1.232   5.965 -0.0320  0.2916  0.3511
 1280SOL    HW2 4892   5.547   1.167   5.895 -0.2790  0.5039  0.1779
 1280SOL    HW3 4893   5.476   1.218   6.019  0.4493 -0.2631  0.9258
 1280SOL    MW4 4894   5.543   1.222   5.963 -0.1291  0.6253  0.4308
 1281SOL     OW 4895   5.933   4.659   0.838  0.0223  0.1716  0.6536
 1281SOL    HW2 4896   5.925   4.736   0.781  0.4937 -1.4512 -1.7442
 1281SOL    HW3 4897   6.024   4.661   0.868 -0.0349  0.6787  0.8031
 1281SOL    MW4 4898   5.944   4.669   0.834 -0.0290 -0.6768 -0.2003
 1282SOL     OW 4899   3.528   4.138   2.048  0.2452 -0.3431  0.1742
 1282SOL    HW2 4900   3.440   4.139   2.086 -0.0823  0.9473 -0.5770
 1282SOL    HW3 4901   3.515   4.117   1.956  0.4549  2.1004 -0.4804
 1282SOL    MW4 4902   3.515   4.135   2.041 -0.5456  0.0653 -0.0457
 1283SOL     OW 4903   2.936   6.417   0.059 -0.1492  0.2362  0.5464
 1283SOL    HW2 4904   3.004   6.350   0.052 -0.5580 -0.1075 -0.4002
 1283SOL    HW3 4905   2.854   6.367   0.059 -0.6618  0.7428 -3.5357
 1283SOL    MW4 4906   2.934   6.401   0.058 -0.0611 -0.4228 -0.2700
 1284SOL     OW 4907   5.439   4.062   0.486  0.2940 -0.0603 -0.5574
 1284SOL    HW2 4908   5.360   4.055   0.432 -0.6437 -0.5505  0.8050
 1284SOL    HW3 4909   5.477   3.974   0.485 -0.6029 -0.5001  0.7918
 1284SOL    MW4 4910   5.434   4.050   0.479  0.5908  0.0820 -0.0179
 1285SOL     OW 4911   5.622   5.614   6.364  0.2050  0.4368 -0.1320
 1285SOL    HW2 4912   5.581   5.542   6.316 -1.0443 -0.8221  2.6094
 1285SOL    HW3 4913   5.554   5.680   6.371 -0.8262 -0.7918  2.6407
 1285SOL    MW4 4914   5.607   5.613   6.358 -0.0446  0.8509  0.4246
 1286SOL     OW 4915   0.268   0.783   3.668  0.3498 -0.1774  0.1182
 1286SOL    HW2 4916   0.175   0.787   3.691  0.3678 -0.3899  0.2306
 1286SOL    HW3 4917   0.307   0.728   3.736  0.6639  0.3820  0.3957
 1286SOL    MW4 4918   0.261   0.776   3.680 -0.2903 -0.6932  0.5719
 1287SOL     OW 4919   1.077   0.493   2.346 -0.8766 -0.6483 -0.0041
 1287SOL    HW2 4920   1.132   0.564   2.380 -0.4683 -1.2508  0.6058
 1287SOL    HW3 4921   1.002   0.538   2.306 -0.0016  0.1862 -0.7665
 1287SOL    MW4 4922   1.075   0.509   2.345  0.1817  0.1792  0.1047
 1288SOL     OW 4923   1.583   6.220   5.221 -0.0303 -0.0579 -0.3836
 1288SOL    HW2 4924   1.554   6.261   5.139 -0.8690 -0.9446 -0.5448
 1288SOL    HW3 4925   1.633   6.144   5.193  2.9664  1.6669 -0.1255
 1288SOL    MW4 4926   1.586   6.216   5.206  0.2780 -0.1733  0.1066
 1289SOL     OW 4927   2.438   5.221   5.917 -0.3348 -0.1081  0.1315
 1289SOL    HW2 4928   2.368   5.232   5.853  0.7202 -0.1727 -1.0540
 1289SOL    HW3 4929   2.400   5.252   6.000 -1.6187  0.2338 -0.5669
 1289SOL    MW4 4930   2.424   5.226   5.920  0.1785  0.0690 -0.4600
 1290SOL     OW 4931   5.987   4.006   4.895 -0.2043  0.0822 -0.3753
 1290SOL    HW2 4932   5.932   3.968   4.827  0.5674 -2.1405  0.1894
 1290SOL    HW3 4933   5.925   4.035   4.962 -0.8447  0.4996 -1.1317
 1290SOL    MW4 4934   5.971   4.005   4.895  0.3139 -0.8269 -0.1445
 1291SOL     OW 4935   2.875   5.547   6.039 -0.1255  0.5759  0.5125
 1291SOL    HW2 4936   2.905   5.492   6.112  1.0703  0.6821  0.1165
 1291SOL    HW3 4937   2.787   5.515   6.021 -0.4021  0.4564  1.9150
 1291SOL    MW4 4938   2.868   5.536   6.047  0.3874  0.5040  0.3329
 1292SOL     OW 4939   4.615   0.156   4.458  0.5879 -0.5746 -0.1777
 1292SOL    HW2 4940   4.580   0.204   4.383  0.9912 -0.8502 -0.5442
 1292SOL    HW3 4941   4.688   0.210   4.489  1.1088 -1.0108 -0.6568
 1292SOL    MW4 4942   4.620   0.170   4.453 -0.0015  0.2780  0.1819
 1293SOL     OW 4943   2.641   3.385   2.303  0.3604  0.0267 -0.3159
 1293SOL    HW2 4944   2.633   3.381   2.399 -1.6253  0.1092 -0.4284
 1293SOL    HW3 4945   2.668   3.475   2.286 -3.8209  1.6177  0.0852
 1293SOL    MW4 4946   2.643   3.397   2.314  0.2655 -0.4968  0.1324
 1294SOL     OW 4947   0.319   5.702   2.556 -0.8208 -0.6742  0.1152
 1294SOL    HW2 4948   0.390   5.655   2.512 -0.1979 -0.5299  0.9497
 1294SOL    HW3 4949   0.325   5.791   2.522  1.1636  0.0565  2.1615
 1294SOL    MW4 4950   0.329   5.708   2.546 -0.0023  0.2111 -0.2006
 1295SOL     OW 4951   0.057   0.565   3.248 -0.0670 -0.3331 -0.3254
 1295SOL    HW2 4952   0.070   0.471   3.264  1.8387  0.1330  1.2558
 1295SOL    HW3 4953  -0.035   0.580   3.271  0.3494 -1.3162  2.3914
 1295SOL    MW4 4954   0.046   0.554   3.253  0.1682 -0.0328 -0.0217
 1296SOL     OW 4955   3.992   1.591   3.102  0.6126  0.0993  0.3680
 1296SOL    HW2 4956   3.996   1.496   3.094 -0.8322  0.0271  0.2496
 1296SOL    HW3 4957   3.937   1.619   3.030  1.6364  1.1253 -0.0495
 1296SOL    MW4 4958   3.985   1.582   3.091  0.1021 -0.1049  0.1896
 1297SOL     OW 4959   6.354   0.434   4.358  0.0871  0.2369 -0.3227
 1297SOL    HW2 4960   6.419   0.415   4.426 -0.8309  2.4521  1.2899
 1297SOL    HW3 4961   6.406   0.453   4.280  1.1520 -3.4458 -0.7357
 1297SOL    MW4 4962   6.369   0.434   4.357 -0.4169 -0.1781  0.4275
 1298SOL     OW 4963   1.010   3.085   5.195 -0.1058 -0.0428  0.0739
 1298SOL    HW2 4964   1.067   3.057   5.266  1.0191 -0.7996 -1.0829
 1298SOL    HW3 4965   0.955   3.153   5.233  1.8802  1.0511  1.1289
 1298SOL    MW4 4966   1.010   3.090   5.209 -0.0596  0.5143  0.2458
 1299SOL     OW 4967   1.797   1.902   6.185  0.1011 -0.1159  0.3701
 1299SOL    HW2 4968   1.809   1.990   6.148  0.4973 -0.5010 -0.4479
 1299SOL    HW3 4969   1.776   1.917   6.277 -0.9590  0.8839 -0.0050
 1299SOL    MW4 4970   1.796   1.916   6.192  0.2696  0.2663 -0.2983
 1300SOL     OW 4971   0.159   2.029   2.520 -0.7771 -0.1091  0.5909
 1300SOL    HW2 4972   0.135   1.939   2.500 -2.2662  0.0470  1.5304
 1300SOL    HW3 4973   0.199   2.062   2.440 -0.1067 -1.6241  0.2696
 1300SOL    MW4 4974   0.161   2.021   2.507  0.3941 -0.1848 -0.0279
 1301SOL     OW 4975   2.308   2.542   3.044  0.1736  0.6072  0.1164
 1301SOL    HW2 4976   2.352   2.589   3.115  2.1278  1.6388 -1.6529
 1301SOL    HW3 4977   2.254   2.609   3.001  1.1631  0.7281 -1.0031
 1301SOL    MW4 4978   2.306   2.557   3.048  0.6904 -0.1779  0.0583
 1302SOL     OW 4979   5.137   3.738   6.058  0.2101 -0.2737 -0.3091
 1302SOL    HW2 4980   5.206   3.782   6.008 -1.8495  2.9272 -0.6292
 1302SOL    HW3 4981   5.056   3.765   6.015 -1.4403 -0.9264  2.1819
 1302SOL    MW4 4982   5.135   3.747   6.046  0.6425 -0.2935 -0.1803
 1303SOL     OW 4983   0.753   1.343   0.909 -0.6457  0.2895 -0.2552
 1303SOL    HW2 4984   0.726   1.315   0.996 -0.9495 -0.9568 -0.7331
 1303SOL    HW3 4985   0.822   1.408   0.925  0.3568 -0.9951  0.9201
 1303SOL    MW4 4986   0.759   1.348   0.922 -0.0192  0.2884 -0.0291
 1304SOL     OW 4987   1.497   2.471   2.372  0.1678 -0.3027  0.1074
 1304SOL    HW2 4988   1.460   2.459   2.285 -1.4728  1.1115  0.5431
 1304SOL    HW3 4989   1.591   2.456   2.361  0.2229  1.2103 -2.2285
 1304SOL    MW4 4990   1.505   2.467   2.359  0.4151  0.1883 -0.4648
 1305SOL     OW 4991   4.778   5.907   5.720 -0.0180 -0.4043  0.0396
 1305SOL    HW2 4992   4.736   5.885   5.637 -0.8612  0.4485  0.2172
 1305SOL    HW3 4993   4.833   5.831   5.741 -0.9491 -1.2612 -0.5541
 1305SOL    MW4 4994   4.780   5.894   5.712  0.7647  0.4460 -0.5462
 1306SOL     OW 4995   5.800   1.607   1.394 -0.5076 -0.1805  0.1780
 1306SOL    HW2 4996   5.709   1.587   1.416 -0.5032  1.0664  1.4972
 1306SOL    HW3 4997   5.826   1.674   1.457  0.9746  0.3446 -0.9209
 1306SOL    MW4 4998   5.792   1.613   1.405 -0.0384  0.0450  0.2017
 1307SOL     OW 4999   5.520   4.179   5.780  0.4223 -0.7444  0.2724
 1307SOL    HW2 5000   5.498   4.106   5.837  1.1914 -0.8200  0.4734
 1307SOL    HW3 5001   5.613   4.169   5.761 -0.1021 -1.6273 -2.2700
 1307SOL    MW4 5002   5.529   4.168   5.785  0.2893 -0.1883  0.1952
 1308SOL     OW 5003   0.146   0.155  -0.031  0.3690  0.2029  0.0084
 1308SOL    HW2 5004   0.159   0.115  -0.117 -0.7314  0.8014 -0.4635
 1308SOL    HW3 5005   0.071   0.214  -0.043  1.9500  2.5067  0.6161
 1308SOL    MW4 5006   0.138   0.158  -0.044  0.8511  1.0851 -0.1068
 1309SOL     OW 5007   3.799   0.061   3.235  0.1942  0.6899 -0.7042
 1309SOL    HW2 5008   3.821  -0.029   3.257  0.8453  1.3189  1.4690
 1309SOL    HW3 5009   3.819   0.069   3.141  0.4994 -1.2835 -0.8428
 1309SOL    MW4 5010   3.805   0.050   3.225  0.7492  0.3175  0.1909
 1310SOL     OW 5011   5.068   5.969   1.971 -0.0620 -0.2718 -0.1444
 1310SOL    HW2 5012   5.099   6.045   2.021  0.2737 -0.1598 -0.5200
 1310SOL    HW3 5013   4.988   5.943   2.016  0.0018  0.0938  0.1950
 1310SOL    MW4 5014   5.062   5.975   1.984  0.0422  0.1020  0.9006
 1311SOL     OW 5015   4.459   3.561   2.482 -0.6680 -0.5860 -0.3026
 1311SOL    HW2 5016   4.536   3.610   2.510  0.3019 -1.8361 -0.6684
 1311SOL    HW3 5017   4.388   3.625   2.482  0.5745  0.8609 -0.9846
 1311SOL    MW4 5018   4.460   3.576   2.486 -0.2902 -0.4781  0.1305
 1312SOL     OW 5019   2.676   5.558   5.125  0.0564 -0.3158  0.1694
 1312SOL    HW2 5020   2.758   5.607   5.127 -0.2895  0.2884 -0.2193
 1312SOL    HW3 5021   2.694   5.484   5.067 -0.4155  1.2215 -2.0767
 1312SOL    MW4 5022   2.689   5.554   5.117 -0.1650 -0.2902 -0.1384
 1313SOL     OW 5023   2.529   0.380   4.995 -0.2306 -0.3071  0.4398
 1313SOL    HW2 5024   2.579   0.301   5.015 -0.8864 -0.6614  0.7161
 1313SOL    HW3 5025   2.488   0.361   4.911  1.1958  0.5316 -0.4915
 1313SOL    MW4 5026   2.530   0.367   4.986  0.4657  0.0477 -0.4405
 1314SOL     OW 5027   1.975   2.988   0.822  0.0799 -0.5938  0.0363
 1314SOL    HW2 5028   1.899   2.937   0.847 -0.4786 -0.4319 -1.2691
 1314SOL    HW3 5029   1.972   3.065   0.879 -1.9507  0.4693 -1.4127
 1314SOL    MW4 5030   1.965   2.991   0.833 -0.4181  0.5809  0.3064
 1315SOL     OW 5031   2.265   5.551   1.406 -0.4158 -0.4863  0.0831
 1315SOL    HW2 5032   2.311   5.527   1.326 -0.4157  1.3107 -0.4891
 1315SOL    HW3 5033   2.261   5.646   1.405 -2.5928 -0.4937  0.9907
 1315SOL    MW4 5034   2.270   5.560   1.395  0.3490  0.1976 -0.3080
 1316SOL     OW 5035   4.368   1.297   2.228 -0.1223 -0.1106 -0.2896
 1316SOL    HW2 5036   4.432   1.225   2.231 -0.7230 -0.7223 -1.3555
 1316SOL    HW3 5037   4.421   1.376   2.240  0.3145 -0.7600  2.9888
 1316SOL    MW4 5038   4.384   1.298   2.230  0.4449 -0.5900  0.3241
 1317SOL     OW 5039   0.731   1.174   1.137 -1.0683 -0.0930  0.2577
 1317SOL    HW2 5040   0.653   1.163   1.192 -1.5098 -0.9472 -0.5118
 1317SOL    HW3 5041   0.724   1.104   1.072  1.5887 -1.7224  1.5928
 1317SOL    MW4 5042   0.720   1.163   1.136  0.2929  0.1310  0.1581
 1318SOL     OW 5043   4.313   4.740   4.538  0.0848  0.0890  0.1003
 1318SOL    HW2 5044   4.303   4.670   4.602 -1.2889  1.3530  1.3355
 1318SOL    HW3 5045   4.263   4.710   4.462  0.7078 -0.8838  0.0581
 1318SOL    MW4 5046   4.305   4.727   4.536  0.3732 -0.4107  0.1670
 1319SOL     OW 5047   4.304   4.339   6.222  0.4717  0.2423  0.2595
 1319SOL    HW2 5048   4.243   4.266   6.206 -0.1375  0.8361 -0.1623
 1319SOL    HW3 5049   4.261   4.391   6.290  1.1486 -0.0592  0.9334
 1319SOL    MW4 5050   4.290   4.336   6.229  0.3541 -0.3353 -0.2266
 1320SOL     OW 5051   1.922   2.221   5.860 -0.0123  0.1278  0.3162
 1320SOL    HW2 5052   2.017   2.221   5.853 -0.0382 -0.5332 -0.1275
 1320SOL    HW3 5053   1.904   2.211   5.953  0.3492  0.3993  0.4166
 1320SOL    MW4 5054   1.932   2.220   5.871  0.4611  0.0657 -0.2429
 1321SOL     OW 5055   6.167   4.903   4.284  0.0284 -0.0347  0.4886
 1321SOL    HW2 5056   6.196   4.812   4.283  0.0350 -0.0361  0.6966
 1321SOL    HW3 5057   6.240   4.951   4.325  0.0720  0.0796  0.2767
 1321SOL    MW4 5058   6.181   4.898   4.290  0.2621 -0.2898  0.1702
 1322SOL     OW 5059   2.723   5.357   3.996 -0.8752 -0.4725 -0.4171
 1322SOL    HW2 5060   2.642   5.373   3.948 -0.4215 -0.2839 -1.1437
 1322SOL    HW3 5061   2.779   5.309   3.934  0.1187  0.7078 -0.4864
 1322SOL    MW4 5062   2.720   5.353   3.981 -0.0736  0.5726  0.0251
 1323SOL     OW 5063   0.470   2.812   4.750 -0.0233 -0.1464 -0.2548
 1323SOL    HW2 5064   0.486   2.732   4.799 -0.4650 -0.5219 -0.7070
 1323SOL    HW3 5065   0.390   2.794   4.700 -1.4148  1.3311  1.2669
 1323SOL    MW4 5066   0.461   2.799   4.750 -0.1451 -0.1566  0.1349
 1324SOL     OW 5067   0.454   4.137   5.561  0.1989  0.0598  0.1085
 1324SOL    HW2 5068   0.401   4.209   5.594 -0.8086 -1.1534  1.2494
 1324SOL    HW3 5069   0.507   4.110   5.636  0.9313 -0.0861 -0.4442
 1324SOL    MW4 5070   0.454   4.143   5.575  0.0181  0.1535 -0.1542
 1325SOL     OW 5071   0.068   1.340   6.023  0.1328  0.5232  0.1817
 1325SOL    HW2 5072   0.033   1.428   6.038 -0.9298 -0.1244  1.7316
 1325SOL    HW3 5073   0.109   1.346   5.937 -1.1429  2.1667 -0.3829
 1325SOL    MW4 5074   0.068   1.352   6.013  0.7142  0.0702  0.0035
 1326SOL     OW 5075   2.701   2.765   3.940 -0.2713 -0.1111 -0.0779
 1326SOL    HW2 5076   2.717   2.842   3.887 -0.8956 -0.5169 -0.8857
 1326SOL    HW3 5077   2.666   2.700   3.878 -0.4450 -0.7931  0.7137
 1326SOL    MW4 5078   2.698   2.766   3.925 -0.1558  0.1878 -0.3645
 1327SOL     OW 5079   3.344   1.630   2.538 -0.3898  0.1686  0.6607
 1327SOL    HW2 5080   3.316   1.689   2.468  0.9010  0.2012  0.1540
 1327SOL    HW3 5081   3.299   1.662   2.616 -2.1537 -0.0947 -0.1996
 1327SOL    MW4 5082   3.334   1.642   2.539 -0.0535 -0.4626  0.3247
 1328SOL     OW 5083   0.674   4.369   2.514  0.0834 -0.2845  0.5511
 1328SOL    HW2 5084   0.628   4.364   2.598 -3.3849  2.2024 -0.9534
 1328SOL    HW3 5085   0.665   4.282   2.476 -3.0052 -0.1445  0.6789
 1328SOL    MW4 5086   0.666   4.357   2.520  0.5659  0.0494 -0.0015
 1329SOL     OW 5087   5.871   2.443   0.592  0.0342 -0.0601 -0.1034
 1329SOL    HW2 5088   5.847   2.496   0.668  0.1099  1.0172 -0.8111
 1329SOL    HW3 5089   5.880   2.505   0.521  1.5473 -0.8362 -0.6507
 1329SOL    MW4 5090   5.869   2.458   0.593  0.1698  0.2272  0.2188
 1330SOL     OW 5091   3.401   4.675   0.142 -0.4090 -0.2568 -0.6335
 1330SOL    HW2 5092   3.355   4.663   0.225 -3.1349  0.0068 -1.9771
 1330SOL    HW3 5093   3.485   4.630   0.154 -0.6332 -0.0965  2.2599
 1330SOL    MW4 5094   3.406   4.668   0.154  0.0311 -0.9760 -0.0691
 1331SOL     OW 5095   4.877   5.451   4.106 -0.0271  0.1650  0.2181
 1331SOL    HW2 5096   4.825   5.530   4.089 -0.9650 -0.5946 -0.5314
 1331SOL    HW3 5097   4.968   5.480   4.095 -0.3833  0.9895 -0.7134
 1331SOL    MW4 5098   4.882   5.465   4.103 -0.0252  0.1070  0.0715
 1332SOL     OW 5099   4.404   4.119   2.327 -0.1903  0.0900  0.3437
 1332SOL    HW2 5100   4.323   4.074   2.352 -0.6338 -0.2065 -1.4842
 1332SOL    HW3 5101   4.462   4.109   2.403 -1.9954  0.6786  1.8688
 1332SOL    MW4 5102   4.401   4.112   2.341 -0.1142  0.0351 -0.2343
 1333SOL     OW 5103   0.838   6.179   1.463 -0.2190 -0.1613  0.6749
 1333SOL    HW2 5104   0.900   6.223   1.406 -0.9756 -0.7460 -0.6456
 1333SOL    HW3 5105   0.760   6.235   1.462  0.6907  1.3878  3.5328
 1333SOL    MW4 5106   0.836   6.192   1.456 -0.1736  0.3290  0.0123
 1334SOL     OW 5107   1.203   2.344   5.303  0.1219 -0.0268  0.5796
 1334SOL    HW2 5108   1.185   2.367   5.212 -0.6894 -0.9432  0.4876
 1334SOL    HW3 5109   1.299   2.339   5.308  0.1748 -3.0096 -1.0691
 1334SOL    MW4 5110   1.213   2.346   5.292  0.1191 -0.1718 -0.6534
 1335SOL     OW 5111   1.812   6.158   4.425  0.2243 -0.1473  0.3477
 1335SOL    HW2 5112   1.793   6.158   4.518  1.6694 -2.5743  0.7277
 1335SOL    HW3 5113   1.891   6.211   4.417  0.7979 -0.9322  0.7064
 1335SOL    MW4 5114   1.820   6.165   4.436  0.3303  0.4449 -0.0448
 1336SOL     OW 5115   4.708   3.095   1.035  0.7443 -0.0339  0.1047
 1336SOL    HW2 5116   4.674   3.097   1.125  0.3292 -0.1446 -0.0485
 1336SOL    HW3 5117   4.743   3.182   1.020  1.9223 -0.3693  0.7993
 1336SOL    MW4 5118   4.708   3.106   1.045  0.0746  0.1908  0.3618
 1337SOL     OW 5119   5.244   5.846   5.273 -0.6216 -0.5830  0.1458
 1337SOL    HW2 5120   5.250   5.760   5.316 -3.5625 -0.1472  1.7010
 1337SOL    HW3 5121   5.292   5.905   5.332 -0.1267 -0.8481  0.0155
 1337SOL    MW4 5122   5.251   5.842   5.286  0.4602 -0.2784 -0.2446
 1338SOL     OW 5123   3.050   1.220   4.016 -0.5118 -0.2363  0.6310
 1338SOL    HW2 5124   3.127   1.274   4.034 -1.5532  1.3581  0.5151
 1338SOL    HW3 5125   2.978   1.266   4.059 -1.6052 -0.9914 -0.3283
 1338SOL    MW4 5126   3.051   1.234   4.024 -0.7872  0.3231  0.3122
 1339SOL     OW 5127   4.963   0.342   3.755  0.0885 -0.3229 -0.4798
 1339SOL    HW2 5128   4.892   0.323   3.693 -0.7731 -1.1071  0.6884
 1339SOL    HW3 5129   4.990   0.431   3.734 -2.0752  0.4586 -0.2351
 1339SOL    MW4 5130   4.957   0.351   3.744 -0.1385  0.5268 -0.7227
 1340SOL     OW 5131   2.094   5.407   0.832 -0.5594 -0.5773  0.7826
 1340SOL    HW2 5132   2.067   5.458   0.908 -3.0186 -1.3296  0.5008
 1340SOL    HW3 5133   2.036   5.436   0.761 -0.8425 -2.4666  0.1775
 1340SOL    MW4 5134   2.083   5.417   0.832 -0.0588  0.0097 -0.2207
 1341SOL     OW 5135   4.490   5.870   1.505 -0.6055  0.0143  0.6342
 1341SOL    HW2 5136   4.448   5.953   1.527  1.1712  1.6058 -1.5378
 1341SOL    HW3 5137   4.574   5.895   1.466  1.0094 -2.8981  1.9368
 1341SOL    MW4 5138   4.495   5.885   1.503 -0.4552 -0.0992  0.3088
 1342SOL     OW 5139   6.357   4.676   5.934  0.3581 -0.0659  0.3748
 1342SOL    HW2 5140   6.262   4.679   5.925  0.0885  0.8676  2.8087
 1342SOL    HW3 5141   6.390   4.700   5.847 -1.6426  0.9144 -0.1762
 1342SOL    MW4 5142   6.349   4.679   5.921  0.2260  0.4765 -0.3073
 1343SOL     OW 5143   0.611   4.506   6.142 -0.0739  0.2053 -0.0885
 1343SOL    HW2 5144   0.564   4.500   6.226 -1.2053  0.2970 -0.6919
 1343SOL    HW3 5145   0.553   4.557   6.086  1.3338  1.4087 -0.5007
 1343SOL    MW4 5146   0.597   4.512   6.146 -0.0042  0.0705  0.1302
 1344SOL     OW 5147   2.033   2.455   4.184 -0.3916  0.2215  0.1540
 1344SOL    HW2 5148   2.002   2.364   4.180  1.0237 -0.3380  1.0561
 1344SOL    HW3 5149   1.982   2.500   4.116 -1.9394 -0.9713  0.4493
 1344SOL    MW4 5150   2.022   2.449   4.174 -0.5648  0.2591  0.3763
 1345SOL     OW 5151   0.942   0.971   5.377  0.4819 -0.1267 -0.4624
 1345SOL    HW2 5152   0.886   0.963   5.299 -3.2568 -0.4991  1.9909
 1345SOL    HW3 5153   0.949   1.065   5.390 -0.4166 -0.0644 -0.3192
 1345SOL    MW4 5154   0.935   0.982   5.368  0.0899 -0.2645 -0.4148
 1346SOL     OW 5155   5.504   4.746   0.929 -0.1586 -0.1276 -0.4158
 1346SOL    HW2 5156   5.452   4.815   0.971  3.7346  2.4126  0.7123
 1346SOL    HW3 5157   5.523   4.781   0.841  1.0824 -0.1154 -0.1600
 1346SOL    MW4 5158   5.499   4.760   0.923  0.0748 -0.3250 -0.0750
 1347SOL     OW 5159   4.208   5.582   5.001  0.0450 -0.3207  0.2276
 1347SOL    HW2 5160   4.157   5.563   4.922 -1.0271  0.9525  0.5715
 1347SOL    HW3 5161   4.291   5.537   4.987 -0.1545 -0.2201 -1.5904
 1347SOL    MW4 5162   4.212   5.574   4.989 -0.5785 -0.3855  0.1929
 1348SOL     OW 5163   0.199   5.697   4.015  0.1552 -0.5761 -0.7206
 1348SOL    HW2 5164   0.247   5.619   4.043  1.2240 -0.1623 -1.3636
 1348SOL    HW3 5165   0.224   5.764   4.079 -1.0825 -0.8392  0.0767
 1348SOL    MW4 5166   0.208   5.695   4.027  0.1893  0.3956 -0.0754
 1349SOL     OW 5167   5.322   3.287   1.638 -0.0449 -0.4039 -0.3503
 1349SOL    HW2 5168   5.244   3.340   1.617 -0.5039 -0.1052  1.8821
 1349SOL    HW3 5169   5.395   3.348   1.627 -0.4287  0.2553  0.6302
 1349SOL    MW4 5170   5.321   3.302   1.633  0.0744  0.5221 -0.2466
 1350SOL     OW 5171   0.091   5.245   2.076  0.2616  0.0253  0.2043
 1350SOL    HW2 5172   0.039   5.183   2.127 -0.3525  0.1551 -0.2552
 1350SOL    HW3 5173   0.182   5.222   2.096  0.0720 -1.6301 -0.6534
 1350SOL    MW4 5174   0.096   5.234   2.085 -0.7546 -0.1431  0.6127
 1351SOL     OW 5175   2.611   1.412   1.548 -0.4043  0.8773  0.5945
 1351SOL    HW2 5176   2.676   1.466   1.592 -1.0827  1.4418  0.9213
 1351SOL    HW3 5177   2.594   1.340   1.609  0.7589  0.0863  0.0068
 1351SOL    MW4 5178   2.617   1.410   1.562  0.3444  0.4177  0.6214
 1352SOL     OW 5179   1.268   3.589   4.290 -0.3782 -0.1904 -0.0845
 1352SOL    HW2 5180   1.191   3.542   4.321 -0.0641 -0.2189  0.6706
 1352SOL    HW3 5181   1.330   3.521   4.265 -0.1078 -0.1865  0.5506
 1352SOL    MW4 5182   1.266   3.574   4.290 -0.0817 -0.3467  0.0360
 1353SOL     OW 5183   4.330   2.967   5.956  0.0117  0.6766  0.0779
 1353SOL    HW2 5184   4.252   3.012   5.988 -0.1186  0.2503  0.3775
 1353SOL    HW3 5185   4.322   2.878   5.991 -0.4114  0.0202 -1.6050
 1353SOL    MW4 5186   4.319   2.961   5.965  0.5294 -0.5736 -0.3137
 1354SOL     OW 5187   5.683   2.719   1.671 -0.0469 -0.2391  0.5319
 1354SOL    HW2 5188   5.606   2.774   1.684  0.2001  0.2438 -0.0113
 1354SOL    HW3 5189   5.701   2.725   1.577  1.3502  0.5887  0.8247
 1354SOL    MW4 5190   5.675   2.727   1.660 -0.5139 -0.0677 -0.0250
 1355SOL     OW 5191   0.462   6.373   2.259  0.1933 -0.6338  0.4544
 1355SOL    HW2 5192   0.388   6.359   2.317  0.6523 -1.2695  0.9049
 1355SOL    HW3 5193   0.490   6.463   2.277  0.8478 -1.0858  1.8543
 1355SOL    MW4 5194   0.456   6.383   2.269 -1.1311 -0.2738  0.0990
 1356SOL     OW 5195   3.555   1.540   1.322 -0.1939  0.5263  0.1453
 1356SOL    HW2 5196   3.545   1.445   1.320  1.3863  0.3336 -0.9670
 1356SOL    HW3 5197   3.642   1.556   1.284 -0.5071  2.4268  0.1049
 1356SOL    MW4 5198   3.565   1.530   1.316 -0.1988  0.1989 -0.0038
 1357SOL     OW 5199   4.199   1.067   2.033  0.3265 -0.3831  0.3951
 1357SOL    HW2 5200   4.252   1.038   2.108 -1.5882  2.3120  3.0263
 1357SOL    HW3 5201   4.154   0.988   2.003 -1.1926 -1.1909  4.2205
 1357SOL    MW4 5202   4.200   1.053   2.039  0.3072  0.0862  0.2267
 1358SOL     OW 5203   4.897   3.489   1.200 -0.2224  0.2244 -0.2055
 1358SOL    HW2 5204   4.880   3.424   1.132 -0.4044  0.5351 -0.4590
 1358SOL    HW3 5205   4.839   3.562   1.178 -1.3797 -0.2645  1.1201
 1358SOL    MW4 5206   4.887   3.490   1.188  0.3095  0.1055 -0.3661
 1359SOL     OW 5207   0.182   5.542   2.229 -0.0729 -0.2338 -0.4119
 1359SOL    HW2 5208   0.087   5.545   2.225 -0.0053  1.0228 -1.5221
 1359SOL    HW3 5209   0.210   5.537   2.138  0.9439 -0.5902 -0.1006
 1359SOL    MW4 5210   0.174   5.542   2.217 -0.3264  0.1031 -0.2258
 1360SOL     OW 5211   0.735   2.476   4.439 -0.4495 -0.2315 -0.1717
 1360SOL    HW2 5212   0.755   2.414   4.510  1.5728 -0.8791 -1.2317
 1360SOL    HW3 5213   0.808   2.467   4.378 -0.3893  2.8090 -0.6772
 1360SOL    MW4 5214   0.747   2.466   4.440 -1.0087 -0.0164 -0.0193
 1361SOL     OW 5215   1.560   2.268   4.821  0.0209  0.2201  0.4053
 1361SOL    HW2 5216   1.485   2.316   4.785  1.5787  2.5636  0.0399
 1361SOL    HW3 5217   1.590   2.213   4.749 -0.7418  0.0170  0.2347
 1361SOL    MW4 5218   1.554   2.267   4.807 -0.4993 -0.2610 -0.0830
 1362SOL     OW 5219   0.985   3.489   4.989  0.0667  0.5954 -0.4328
 1362SOL    HW2 5220   1.051   3.424   4.965 -1.3563 -0.9985 -0.2193
 1362SOL    HW3 5221   1.019   3.572   4.954  0.6632 -0.6880 -3.1548
 1362SOL    MW4 5222   0.998   3.491   4.981 -0.0176  0.5084  0.4480
 1363SOL     OW 5223   3.651   3.727   1.039 -0.1511 -0.3236  0.1793
 1363SOL    HW2 5224   3.613   3.724   1.127  0.4275 -1.0316  0.4060
 1363SOL    HW3 5225   3.718   3.795   1.044  2.8956 -3.1808  1.5349
 1363SOL    MW4 5226   3.655   3.736   1.051 -0.7816  0.9854 -0.2428
 1364SOL     OW 5227   1.076   2.302   5.832 -0.6046 -0.0404  0.0360
 1364SOL    HW2 5228   1.043   2.382   5.792 -0.2958  0.8334  1.4484
 1364SOL    HW3 5229   1.131   2.262   5.765  0.3930  1.6808 -0.2291
 1364SOL    MW4 5230   1.078   2.307   5.818 -0.2211  0.5195  0.3125
 1365SOL     OW 5231   0.226   0.426   3.540  0.0378  0.7058 -0.1230
 1365SOL    HW2 5232   0.260   0.496   3.485 -1.7465  2.8898  1.3391
 1365SOL    HW3 5233   0.298   0.363   3.547  1.6403  2.2424 -1.7077
 1365SOL    MW4 5234   0.240   0.427   3.534 -0.4680  0.2701  0.4302
 1366SOL     OW 5235   2.745   4.559   3.453  0.2188  0.4227 -0.7489
 1366SOL    HW2 5236   2.827   4.511   3.465  0.7031  1.4060  0.1587
 1366SOL    HW3 5237   2.756   4.603   3.368  0.3130 -0.0485 -0.9830
 1366SOL    MW4 5238   2.758   4.559   3.444  0.4500 -0.1876  0.2741
 1367SOL     OW 5239   5.256   5.575   5.356  0.4703  0.0908 -0.7284
 1367SOL    HW2 5240   5.295   5.496   5.393 -0.8163 -0.0985  0.3261
 1367SOL    HW3 5241   5.184   5.597   5.416  0.3791  1.6862 -1.3547
 1367SOL    MW4 5242   5.251   5.568   5.369 -0.6623 -0.2593  1.0566
 1368SOL     OW 5243   2.361   1.662   4.167 -0.6680 -0.0524  0.6321
 1368SOL    HW2 5244   2.312   1.618   4.098  1.5619 -3.1887  0.8202
 1368SOL    HW3 5245   2.300   1.667   4.241 -2.0350  0.3305 -0.4746
 1368SOL    MW4 5246   2.347   1.657   4.168 -0.1591  0.4249  0.4625
 1369SOL     OW 5247   0.465   0.907   5.191 -0.3666  0.2875  0.0177
 1369SOL    HW2 5248   0.539   0.951   5.149 -0.3772  0.4794  0.1971
 1369SOL    HW3 5249   0.502   0.824   5.222 -0.0733  0.6390  0.6316
 1369SOL    MW4 5250   0.480   0.902   5.190  1.0327  0.0422 -0.2576
 1370SOL     OW 5251   2.164   3.092   4.223  0.1203  0.4822  0.2943
 1370SOL    HW2 5252   2.132   3.017   4.273 -2.0704  1.3270  0.2882
 1370SOL    HW3 5253   2.214   3.144   4.286 -0.8478  0.4847  1.0797
 1370SOL    MW4 5254   2.166   3.089   4.238 -0.5209 -0.3299  0.6528
 1371SOL     OW 5255   3.953   5.375   2.848  0.6178 -0.1193 -0.2145
 1371SOL    HW2 5256   3.881   5.375   2.785 -0.6609  0.5135  1.1937
 1371SOL    HW3 5257   4.008   5.449   2.822  1.5971 -1.4122 -2.1287
 1371SOL    MW4 5258   3.951   5.384   2.836  0.1513 -0.6495  0.1454
 1372SOL     OW 5259   5.426   4.135   0.109  0.2527  0.4713  0.5047
 1372SOL    HW2 5260   5.461   4.059   0.156  0.6961  0.3976  0.0668
 1372SOL    HW3 5261   5.503   4.178   0.072  0.0333  1.2754  0.9411
 1372SOL    MW4 5262   5.441   4.131   0.111 -0.5232  0.3528 -0.3711
 1373SOL     OW 5263   5.985   5.169   2.052 -0.0004  0.2548  0.1891
 1373SOL    HW2 5264   6.063   5.114   2.044  0.1478  0.4780  0.0943
 1373SOL    HW3 5265   5.919   5.111   2.090  0.0778 -0.0674 -0.1534
 1373SOL    MW4 5266   5.987   5.154   2.056 -0.0279  0.1954 -0.0876
 1374SOL     OW 5267   5.799   3.087  -0.003 -0.7123  0.3980  0.1279
 1374SOL    HW2 5268   5.885   3.081  -0.043 -0.2482 -1.1810  1.2439
 1374SOL    HW3 5269   5.812   3.141   0.075 -0.3779 -0.9208  1.0317
 1374SOL    MW4 5270   5.812   3.093   0.002  0.1189 -0.8092  0.2596
 1375SOL     OW 5271   3.378   2.109   1.797 -0.7195  0.4115 -0.1445
 1375SOL    HW2 5272   3.319   2.045   1.758 -0.0067  0.7728 -1.9090
 1375SOL    HW3 5273   3.458   2.059   1.815 -0.8788  0.3578  0.4456
 1375SOL    MW4 5274   3.381   2.094   1.794 -0.2381 -0.5467 -0.4401
 1376SOL     OW 5275   2.580   2.736   0.473  0.0883 -0.0162  0.1456
 1376SOL    HW2 5276   2.650   2.800   0.480  1.0779 -0.9197 -1.0063
 1376SOL    HW3 5277   2.518   2.760   0.542  0.3530  2.2260 -0.3269
 1376SOL    MW4 5278   2.581   2.747   0.483  0.2576  0.4013  0.2475
 1377SOL     OW 5279   5.618   0.789   4.690  0.8578  0.0264 -0.6298
 1377SOL    HW2 5280   5.532   0.748   4.703  1.0819 -0.5620 -0.9889
 1377SOL    HW3 5281   5.648   0.757   4.605  1.7373 -0.3214 -0.2042
 1377SOL    MW4 5282   5.611   0.779   4.680  0.2081  0.8494  0.2352
 1378SOL     OW 5283   0.645   0.234   2.551  0.3806  0.5383 -0.9405
 1378SOL    HW2 5284   0.615   0.216   2.640  0.0736 -0.4789 -1.2452
 1378SOL    HW3 5285   0.722   0.289   2.563  0.8807 -0.3337 -0.0136
 1378SOL    MW4 5286   0.651   0.239   2.564 -0.3838 -0.4910  0.0785
 1379SOL     OW 5287   3.026   5.089   2.610  0.0943 -0.2339  0.0644
 1379SOL    HW2 5288   2.961   5.154   2.640 -0.2017 -1.0221  1.1995
 1379SOL    HW3 5289   3.033   5.104   2.516  0.0353  1.4463  0.2903
 1379SOL    MW4 5290   3.018   5.100   2.602  0.0172 -0.1660  0.0854
 1380SOL     OW 5291   5.800   5.205   2.901  0.0386  0.3190  0.2814
 1380SOL    HW2 5292   5.879   5.258   2.890  0.1333  0.2412  0.5845
 1380SOL    HW3 5293   5.794   5.154   2.821 -0.5968  1.5128 -0.4677
 1380SOL    MW4 5294   5.809   5.206   2.889 -0.4966  0.0126 -0.5548
 1381SOL     OW 5295   1.792   4.806   1.363  0.3676  0.3454 -0.0254
 1381SOL    HW2 5296   1.782   4.841   1.274  1.3936  0.6224 -0.0359
 1381SOL    HW3 5297   1.732   4.732   1.366  1.4353 -0.6219 -1.4559
 1381SOL    MW4 5298   1.783   4.801   1.352  0.4787 -0.2111  0.4863
 1382SOL     OW 5299   4.399   1.563   0.551 -0.1453 -0.3080  0.3092
 1382SOL    HW2 5300   4.476   1.606   0.588  0.1360 -0.3432 -0.2320
 1382SOL    HW3 5301   4.428   1.475   0.531  0.0086  0.0094 -0.9522
 1382SOL    MW4 5302   4.413   1.557   0.553 -0.2605  0.0844 -0.8596
 1383SOL     OW 5303   5.177   3.967   4.120 -0.5886 -0.1267  0.6309
 1383SOL    HW2 5304   5.182   3.978   4.025 -1.0159 -0.6364  0.5476
 1383SOL    HW3 5305   5.251   4.018   4.154  0.4499 -1.1238 -0.0732
 1383SOL    MW4 5306   5.188   3.975   4.112 -0.4283 -0.2770 -0.4616
 1384SOL     OW 5307   1.441   2.193   3.464 -0.1637  0.1214  0.4560
 1384SOL    HW2 5308   1.440   2.241   3.546 -0.9875  0.5612  0.2061
 1384SOL    HW3 5309   1.508   2.236   3.411  0.8073 -0.5535  1.1064
 1384SOL    MW4 5310   1.449   2.205   3.468  0.5714  0.5908  0.0397
 1385SOL     OW 5311   2.952   3.383   1.167  0.1364  0.7192  0.8446
 1385SOL    HW2 5312   2.957   3.469   1.208  2.4055  0.5670  1.0631
 1385SOL    HW3 5313   3.043   3.363   1.144 -0.3012 -1.6687  0.9303
 1385SOL    MW4 5314   2.965   3.392   1.170 -0.3629 -1.0006 -0.0037
 1386SOL     OW 5315   4.444   1.924   0.372 -0.1648  0.2289  0.4793
 1386SOL    HW2 5316   4.366   1.887   0.331  0.9981  0.4510 -2.1425
 1386SOL    HW3 5317   4.506   1.852   0.377 -0.6743 -0.1135  3.1691
 1386SOL    MW4 5318   4.442   1.910   0.367 -0.4681  0.3196 -0.0878
 1387SOL     OW 5319   3.951   4.181   4.458 -0.5716  0.1779  0.1208
 1387SOL    HW2 5320   3.885   4.190   4.527  0.8586  0.9380  1.4488
 1387SOL    HW3 5321   3.967   4.270   4.427  1.1446  0.2711  1.1466
 1387SOL    MW4 5322   3.944   4.194   4.463 -0.1698 -0.2334  0.2684
 1388SOL     OW 5323   5.916   2.493   2.320 -0.5372  0.5087 -0.0258
 1388SOL    HW2 5324   5.912   2.501   2.415  0.5299 -0.1601  0.1032
 1388SOL    HW3 5325   5.844   2.547   2.287 -2.4417 -1.0980  1.2497
 1388SOL    MW4 5326   5.906   2.501   2.328 -0.0603  0.4513  0.3119
 1389SOL     OW 5327   2.332   5.270   6.187  0.1044 -0.4787 -0.2868
 1389SOL    HW2 5328   2.321   5.365   6.179  2.5695 -0.2998 -3.4443
 1389SOL    HW3 5329   2.385   5.259   6.266 -0.1871  0.7793  0.1071
 1389SOL    MW4 5330   2.338   5.281   6.197 -0.0418 -0.8781 -0.0493
 1390SOL     OW 5331   2.545   1.456   2.709 -0.0007 -0.4355  0.2862
 1390SOL    HW2 5332   2.609   1.393   2.740  1.6476  1.4815  1.0204
 1390SOL    HW3 5333   2.502   1.488   2.788  0.6165  0.7846  0.1608
 1390SOL    MW4 5334   2.548   1.452   2.723  0.1417 -0.1495  0.2545
 1391SOL     OW 5335   6.420   4.299   4.098 -0.2446  0.9360 -0.2488
 1391SOL    HW2 5336   6.506   4.262   4.119 -1.0279 -0.0750  1.3856
 1391SOL    HW3 5337   6.438   4.390   4.077  1.1437  0.9910  0.9628
 1391SOL    MW4 5338   6.434   4.306   4.098 -0.1935 -0.1321  0.1260
 1392SOL     OW 5339   3.243   0.583   3.383 -0.2309  0.1596  0.3435
 1392SOL    HW2 5340   3.213   0.493   3.379  0.2414  0.0169  0.0234
 1392SOL    HW3 5341   3.337   0.577   3.398 -0.2828  0.6024  0.8937
 1392SOL    MW4 5342   3.251   0.571   3.385  0.3019 -0.4780  0.6840
 1393SOL     OW 5343   6.127   4.366   4.339  0.4216 -0.7450  0.0371
 1393SOL    HW2 5344   6.077   4.352   4.420 -0.2810 -0.4707 -0.3428
 1393SOL    HW3 5345   6.062   4.394   4.275  0.8165 -1.8713 -0.8886
 1393SOL    MW4 5346   6.112   4.368   4.342 -0.8143 -0.6252 -0.4624
 1394SOL     OW 5347   4.283   4.981   6.341  0.0956  0.4100  0.0901
 1394SOL    HW2 5348   4.190   4.982   6.320  0.3353  0.1310 -1.0514
 1394SOL    HW3 5349   4.318   5.059   6.298  0.5671 -0.0425 -0.3571
 1394SOL    MW4 5350   4.275   4.992   6.333 -0.3041  0.2243  0.0090
 1395SOL     OW 5351   6.204   4.254   3.399 -0.4231  0.2415 -0.1453
 1395SOL    HW2 5352   6.201   4.168   3.357 -2.8071 -0.2372  0.8375
 1395SOL    HW3 5353   6.124   4.298   3.370 -0.8939  0.8434  1.8754
 1395SOL    MW4 5354   6.193   4.249   3.390 -0.0257  0.4882  0.2060
 1396SOL     OW 5355   4.795   6.020   1.066 -0.6762  0.8173  0.2173
 1396SOL    HW2 5356   4.800   6.116   1.064 -0.7328  0.8153 -0.0466
 1396SOL    HW3 5357   4.720   5.999   1.010 -2.0913  0.7346  2.0511
 1396SOL    MW4 5358   4.786   6.030   1.059 -0.2758  0.5247  0.2463
 1397SOL     OW 5359   3.072   1.968   4.454 -0.0602  0.0655 -0.1687
 1397SOL    HW2 5360   3.073   1.901   4.522 -1.1875 -1.6582 -1.7385
 1397SOL    HW3 5361   2.995   2.021   4.475 -1.5515 -1.6207 -1.0505
 1397SOL    MW4 5362   3.062   1.966   4.465 -0.0671  0.2086 -0.1925
 1398SOL     OW 5363   0.150   3.806   2.453  0.5815 -0.2579 -0.4203
 1398SOL    HW2 5364   0.227   3.784   2.399 -0.2118 -1.3993 -1.1380
 1398SOL    HW3 5365   0.171   3.773   2.540  0.7380 -0.9858 -0.7234
 1398SOL    MW4 5366   0.163   3.799   2.457 -0.2105 -0.0320  0.3082
 1399SOL     OW 5367   3.649   1.074   3.631 -0.5287 -0.1558  0.0100
 1399SOL    HW2 5368   3.585   1.129   3.585 -1.1136  0.9727  2.0524
 1399SOL    HW3 5369   3.728   1.127   3.637 -0.8776  0.2512  1.3949
 1399SOL    MW4 5370   3.651   1.088   3.626 -0.2895 -0.9623  0.5274
 1400SOL     OW 5371   4.375   2.594   3.320  0.4163  0.0495  0.0945
 1400SOL    HW2 5372   4.326   2.668   3.285 -1.3399 -1.5851 -1.0987
 1400SOL    HW3 5373   4.328   2.569   3.399  0.6028 -0.1969  0.1278
 1400SOL    MW4 5374   4.363   2.600   3.326  0.2973 -0.5001 -0.0543
 1401SOL     OW 5375   1.370   2.369   4.066 -0.2477  0.9684  0.0084
 1401SOL    HW2 5376   1.377   2.455   4.026  0.3426 -0.1432 -2.4984
 1401SOL    HW3 5377   1.303   2.324   4.014 -0.1864 -0.2494  0.9413
 1401SOL    MW4 5378   1.362   2.374   4.054  0.3774 -0.0275  0.4262
 1402SOL     OW 5379   4.481   0.616   1.437 -0.2617 -0.7043  0.0886
 1402SOL    HW2 5380   4.542   0.676   1.394 -0.4858 -0.3696  0.2342
 1402SOL    HW3 5381   4.528   0.587   1.516 -0.8520  0.7130  0.9965
 1402SOL    MW4 5382   4.496   0.620   1.442 -0.0006  0.0629 -0.6059
 1403SOL     OW 5383   5.017   5.413   3.513  0.0588  0.2250 -0.1818
 1403SOL    HW2 5384   5.070   5.452   3.444 -0.5938 -0.5405 -1.1277
 1403SOL    HW3 5385   5.066   5.337   3.542 -0.4661 -0.4466 -1.0130
 1403SOL    MW4 5386   5.030   5.408   3.508  0.0816 -0.4533 -0.3717
 1404SOL     OW 5387   3.353   5.517   5.014  0.1779  0.2302 -0.3104
 1404SOL    HW2 5388   3.404   5.590   4.981  0.3281  1.0523  1.6253
 1404SOL    HW3 5389   3.396   5.491   5.095  1.0623 -3.0722 -1.6561
 1404SOL    MW4 5390   3.365   5.523   5.020 -0.2487 -0.1400  0.0448
 1405SOL     OW 5391   4.468   1.322   1.061  0.0330 -0.0131 -0.2907
 1405SOL    HW2 5392   4.432   1.249   1.011  1.2570 -0.0900 -1.0953
 1405SOL    HW3 5393   4.391   1.365   1.100 -0.8488 -0.6142 -1.3171
 1405SOL    MW4 5394   4.453   1.318   1.060 -0.2934 -0.1423 -0.4292
 1406SOL     OW 5395   0.012   0.850   6.361  0.4385  0.1088 -0.0880
 1406SOL    HW2 5396  -0.036   0.929   6.337 -1.0661 -1.4588 -2.6813
 1406SOL    HW3 5397   0.104   0.878   6.365 -0.0615  2.0007 -0.7805
 1406SOL    MW4 5398   0.018   0.864   6.358  0.5201  0.8755 -0.2738
 1407SOL     OW 5399   0.593   6.236   0.664 -0.6232  0.2852 -1.3969
 1407SOL    HW2 5400   0.613   6.327   0.689  0.7447 -0.3432 -0.0738
 1407SOL    HW3 5401   0.615   6.232   0.571 -3.6833  2.0891 -2.3565
 1407SOL    MW4 5402   0.599   6.248   0.655 -0.2749 -0.2945  0.5021
 1408SOL     OW 5403   4.709   5.320   4.285 -0.1858  0.4159  0.6577
 1408SOL    HW2 5404   4.769   5.388   4.254  0.5801  0.0528  1.3383
 1408SOL    HW3 5405   4.765   5.249   4.314 -0.9858 -0.7178 -0.4602
 1408SOL    MW4 5406   4.724   5.320   4.285 -0.3758 -0.3175  0.1358
 1409SOL     OW 5407   3.988   4.827   6.347  0.0417  0.0494 -0.0930
 1409SOL    HW2 5408   3.906   4.870   6.372  0.2486  0.4225 -0.0582
 1409SOL    HW3 5409   4.033   4.811   6.430  0.1428  0.1209 -0.1341
 1409SOL    MW4 5410   3.983   4.831   6.361 -0.1340 -0.3108  0.0675
 1410SOL     OW 5411   3.950   2.323   4.285  0.0288  0.1230  0.2777
 1410SOL    HW2 5412   3.906   2.252   4.330 -2.7894  2.0046  0.7081
 1410SOL    HW3 5413   3.988   2.377   4.354  1.0502 -0.2103  0.0097
 1410SOL    MW4 5414   3.949   2.321   4.300  0.3053  0.4131  0.1115
 1411SOL     OW 5415   1.804   4.169   6.149 -0.0537  0.0931 -0.2289
 1411SOL    HW2 5416   1.716   4.188   6.180  0.0706  0.3605 -0.0307
 1411SOL    HW3 5417   1.792   4.104   6.080 -0.4460  0.4399 -0.4980
 1411SOL    MW4 5418   1.791   4.163   6.144 -0.0187  0.0402  0.1763
 1412SOL     OW 5419   1.985   5.545   4.660  0.5813  0.2767  0.1713
 1412SOL    HW2 5420   2.032   5.545   4.744 -0.6016  1.1300  0.8696
 1412SOL    HW3 5421   1.895   5.521   4.684  0.3018  0.2172 -0.9098
 1412SOL    MW4 5422   1.980   5.542   4.674  0.0054  0.4522 -0.1882
 1413SOL     OW 5423   5.272   6.309   0.673  0.0184 -0.1498  0.1163
 1413SOL    HW2 5424   5.267   6.221   0.710  1.4322  0.0805  0.8960
 1413SOL    HW3 5425   5.299   6.365   0.746  0.6164  0.6844 -0.7161
 1413SOL    MW4 5426   5.275   6.305   0.688 -0.6389  0.4423  0.2817
 1414SOL     OW 5427   5.681   2.097   3.310  0.0674  0.1606 -0.0200
 1414SOL    HW2 5428   5.690   2.182   3.267  0.5979 -1.3791 -3.2353
 1414SOL    HW3 5429   5.770   2.061   3.311 -0.2546 -0.6614  0.6071
 1414SOL    MW4 5430   5.694   2.103   3.305 -0.2368 -0.1713  0.1760
 1415SOL     OW 5431   4.802   1.787   2.429  0.2891  0.0267  0.5575
 1415SOL    HW2 5432   4.831   1.857   2.371  0.6487 -1.6047 -1.3450
 1415SOL    HW3 5433   4.796   1.710   2.372  0.8258 -1.7196  2.7352
 1415SOL    MW4 5434   4.805   1.786   2.414 -0.0535 -0.0579  0.2096
 1416SOL     OW 5435   4.846   4.281   1.883 -0.0997 -0.3048  0.2696
 1416SOL    HW2 5436   4.798   4.198   1.879 -1.0281  0.2497 -0.9154
 1416SOL    HW3 5437   4.841   4.315   1.793 -0.3802  1.3801  0.8867
 1416SOL    MW4 5438   4.839   4.274   1.870 -0.4581 -0.1486 -0.3989
 1417SOL     OW 5439   3.585   2.343   0.740 -1.0292  0.5811 -0.3366
 1417SOL    HW2 5440   3.607   2.396   0.816 -1.0281  2.2114 -1.4100
 1417SOL    HW3 5441   3.610   2.397   0.665  0.5958 -1.6496 -1.5324
 1417SOL    MW4 5442   3.591   2.357   0.740 -0.2549  0.2293 -0.4952
 1418SOL     OW 5443   2.899   5.149   1.329 -0.0175 -0.9693 -0.0693
 1418SOL    HW2 5444   2.905   5.245   1.322  0.8287 -1.0391 -0.2933
 1418SOL    HW3 5445   2.829   5.125   1.268 -2.0366 -0.2619  1.8278
 1418SOL    MW4 5446   2.890   5.159   1.320 -0.2618  0.5807 -0.1597
 1419SOL     OW 5447   2.232   4.869   4.584 -0.1191  0.6042 -0.2457
 1419SOL    HW2 5448   2.242   4.956   4.622  1.2831 -0.6912  2.6337
 1419SOL    HW3 5449   2.321   4.838   4.569 -0.3850 -1.4462  1.7474
 1419SOL    MW4 5450   2.245   4.876   4.587  0.5269 -0.6490 -0.1682
 1420SOL     OW 5451   2.666   3.295   4.376  0.3710 -0.2866 -0.0521
 1420SOL    HW2 5452   2.754   3.314   4.342  0.4221  0.4971  0.5043
 1420SOL    HW3 5453   2.640   3.374   4.423 -0.0709 -1.0060  0.9624
 1420SOL    MW4 5454   2.674   3.308   4.378  0.3783  0.1867  0.1355
 1421SOL     OW 5455   4.525   3.189   1.825 -0.0070 -0.0998  0.1201
 1421SOL    HW2 5456   4.577   3.227   1.754  0.3873 -0.0748  0.4190
 1421SOL    HW3 5457   4.579   3.200   1.903 -0.7019  0.4359  0.5393
 1421SOL    MW4 5458   4.539   3.195   1.826  0.2484 -0.1632  0.4940
 1422SOL     OW 5459   4.311   2.281   3.712  0.1056 -0.5652  0.3728
 1422SOL    HW2 5460   4.346   2.280   3.801 -0.8051  0.6823  0.7689
 1422SOL    HW3 5461   4.388   2.270   3.656  0.9634  0.6737  1.2634
 1422SOL    MW4 5462   4.326   2.279   3.716 -0.6142  0.4496  0.2759
 1423SOL     OW 5463   1.444   1.213  -0.008  0.2240  0.0566  0.2363
 1423SOL    HW2 5464   1.441   1.289   0.050 -0.3481  0.3866 -0.2175
 1423SOL    HW3 5465   1.475   1.142   0.048 -0.1709  0.4034  0.9095
 1423SOL    MW4 5466   1.447   1.214   0.007  0.1202 -0.5059  0.1624
 1424SOL     OW 5467   5.504   4.598   6.139  0.3452  0.2472  0.0897
 1424SOL    HW2 5468   5.434   4.543   6.175  0.2503 -0.4221 -1.0593
 1424SOL    HW3 5469   5.494   4.682   6.184 -0.5346 -0.1694  0.7085
 1424SOL    MW4 5470   5.493   4.602   6.150  0.5265 -0.8393 -0.2373
 1425SOL     OW 5471   3.212   0.966   3.132 -0.6251  0.7588 -0.9847
 1425SOL    HW2 5472   3.139   0.963   3.070 -0.9085  1.2876 -0.6922
 1425SOL    HW3 5473   3.172   0.993   3.215 -0.5913 -1.8390 -0.0248
 1425SOL    MW4 5474   3.197   0.969   3.135 -0.1217 -0.2654 -0.0187
 1426SOL     OW 5475   5.553   3.345   2.395 -0.4822  0.4494  0.2283
 1426SOL    HW2 5476   5.505   3.372   2.474 -1.6451  0.9727 -0.6243
 1426SOL    HW3 5477   5.490   3.294   2.345  0.4681 -0.4803 -0.0491
 1426SOL    MW4 5478   5.538   3.342   2.399 -0.5787 -0.3166  0.2042
 1427SOL     OW 5479   3.084   6.114   4.039  0.2332 -0.5135  0.0636
 1427SOL    HW2 5480   3.027   6.094   4.113 -0.5431  0.0369 -0.3664
 1427SOL    HW3 5481   3.079   6.209   4.030  0.0903 -0.5981 -0.8627
 1427SOL    MW4 5482   3.076   6.124   4.047  0.3520  0.3634 -0.3169
 1428SOL     OW 5483   1.217   2.682   4.812 -0.1865 -0.5372 -0.4853
 1428SOL    HW2 5484   1.163   2.756   4.839 -0.4931 -0.7186 -0.6018
 1428SOL    HW3 5485   1.156   2.609   4.803  0.2326 -1.0064  0.3943
 1428SOL    MW4 5486   1.202   2.682   4.814  0.3750 -0.5008  0.5714
 1429SOL     OW 5487   0.769   5.289   4.803  0.4580 -0.0855 -0.6059
 1429SOL    HW2 5488   0.832   5.316   4.736  0.1877 -0.9162 -1.2053
 1429SOL    HW3 5489   0.697   5.249   4.754 -1.6936  2.8839 -0.1249
 1429SOL    MW4 5490   0.768   5.287   4.788 -0.1446  0.4733  0.0266
 1430SOL     OW 5491   6.330   5.754   2.390 -0.0939  0.1689  0.5969
 1430SOL    HW2 5492   6.254   5.798   2.430 -0.6381  0.9258 -1.1759
 1430SOL    HW3 5493   6.375   5.713   2.464 -0.3017  2.5678  2.1976
 1430SOL    MW4 5494   6.326   5.755   2.405 -0.3506 -0.0128 -0.1012
 1431SOL     OW 5495   0.059   5.121   3.753 -0.3925  0.1351  0.2063
 1431SOL    HW2 5496   0.106   5.066   3.816 -0.3319  0.3674  0.3624
 1431SOL    HW3 5497   0.114   5.198   3.742  1.0814 -1.1593 -2.3522
 1431SOL    MW4 5498   0.073   5.124   3.760  0.1326  0.4348  0.2359
 1432SOL     OW 5499   5.682   0.971   3.926  0.4247  0.1249 -0.1844
 1432SOL    HW2 5500   5.764   0.992   3.882 -1.0607 -1.3328 -4.1162
 1432SOL    HW3 5501   5.673   0.876   3.914 -0.7918 -0.1318  2.2468
 1432SOL    MW4 5502   5.692   0.961   3.919  0.4550 -0.1287 -0.6004
 1433SOL     OW 5503   0.072   5.086   2.826 -0.4414  0.3591 -0.4556
 1433SOL    HW2 5504   0.106   5.116   2.742 -0.1441  2.1138  0.2313
 1433SOL    HW3 5505  -0.019   5.116   2.828 -0.7885 -0.6529 -0.5881
 1433SOL    MW4 5506   0.065   5.094   2.815 -0.3141  0.2556  0.6529
 1434SOL     OW 5507   4.650   0.966   3.518  0.3282  0.3153  0.0702
 1434SOL    HW2 5508   4.691   1.012   3.445 -0.0988  1.6260  0.6243
 1434SOL    HW3 5509   4.705   0.889   3.533 -0.4537 -0.8593 -2.6317
 1434SOL    MW4 5510   4.663   0.962   3.511  0.4261 -0.6093  0.4915
 1435SOL     OW 5511   5.272   0.679   2.536  0.1237 -0.3760 -0.3247
 1435SOL    HW2 5512   5.181   0.677   2.506 -0.6418  1.3169  1.5969
 1435SOL    HW3 5513   5.324   0.693   2.457 -1.2843 -1.2092 -1.4375
 1435SOL    MW4 5514   5.267   0.680   2.522  0.7577  0.5990 -0.5539
 1436SOL     OW 5515   1.448   2.733   1.957  0.0206 -0.1456  0.2116
 1436SOL    HW2 5516   1.466   2.720   1.864 -0.0400 -1.6138  0.3743
 1436SOL    HW3 5517   1.397   2.813   1.961 -0.5371 -0.4107 -1.0839
 1436SOL    MW4 5518   1.444   2.742   1.945  0.5240 -0.1502  0.2904
 1437SOL     OW 5519   4.030   1.311   3.041 -0.2328 -0.5305 -0.1179
 1437SOL    HW2 5520   4.086   1.365   2.986  0.3339  0.1909  1.1095
 1437SOL    HW3 5521   4.086   1.285   3.114 -1.0536 -1.1183  0.3207
 1437SOL    MW4 5522   4.045   1.315   3.044 -0.2035  0.9197 -0.7496
 1438SOL     OW 5523   4.151   2.675   4.613 -0.3618  0.1802  0.2259
 1438SOL    HW2 5524   4.108   2.701   4.694 -0.9681 -0.3162  0.0711
 1438SOL    HW3 5525   4.227   2.624   4.641  1.0455  2.3327  0.5461
 1438SOL    MW4 5526   4.156   2.671   4.627  0.4350 -0.2280 -0.2505
 1439SOL     OW 5527   0.124   1.748   1.700  0.4356  0.0024  0.3101
 1439SOL    HW2 5528   0.091   1.676   1.646  2.3496 -0.5871 -0.1481
 1439SOL    HW3 5529   0.148   1.707   1.783 -0.3990  0.5191  0.8284
 1439SOL    MW4 5530   0.123   1.733   1.704  0.6064  0.0712  0.2565
 1440SOL     OW 5531   0.840   2.384   5.551  0.1187 -0.0662  0.4324
 1440SOL    HW2 5532   0.747   2.375   5.571 -0.6677  0.4204 -2.5678
 1440SOL    HW3 5533   0.865   2.469   5.588 -1.1823  0.7515 -0.5055
 1440SOL    MW4 5534   0.831   2.394   5.559  0.5538 -0.1680 -0.1019
 1441SOL     OW 5535   4.107   0.991   5.240  0.3509 -0.0550 -0.0679
 1441SOL    HW2 5536   4.102   0.974   5.334  0.1051  0.0895 -0.0557
 1441SOL    HW3 5537   4.032   0.945   5.203  0.5547 -0.2696 -0.2162
 1441SOL    MW4 5538   4.097   0.983   5.247 -0.1946 -0.0766  0.3259
 1442SOL     OW 5539   5.239   2.698   1.448  0.4242 -0.7621 -0.0129
 1442SOL    HW2 5540   5.298   2.726   1.378  0.9628 -1.0035  0.3321
 1442SOL    HW3 5541   5.153   2.731   1.422  0.4876 -1.3909 -1.1134
 1442SOL    MW4 5542   5.236   2.706   1.435  0.1651 -0.1505 -0.1460
 1443SOL     OW 5543   5.626   4.166   5.139  0.2233  0.7942 -1.0867
 1443SOL    HW2 5544   5.712   4.126   5.152  0.3654  1.1739 -0.8086
 1443SOL    HW3 5545   5.634   4.252   5.180 -1.1367 -0.1780  1.4580
 1443SOL    MW4 5546   5.638   4.172   5.146 -0.7734 -0.4990  0.5360
 1444SOL     OW 5547   5.106   0.497   1.545  0.1976 -0.2418  0.3304
 1444SOL    HW2 5548   5.189   0.542   1.529 -0.0513  0.0697 -0.1130
 1444SOL    HW3 5549   5.089   0.449   1.463 -0.2791  0.0545  0.2525
 1444SOL    MW4 5550   5.115   0.496   1.532 -0.0635 -0.6145 -0.0848
 1445SOL     OW 5551   5.334   3.503   4.484 -0.6232 -0.6928  0.0722
 1445SOL    HW2 5552   5.275   3.440   4.525  1.3256 -2.6635  0.0302
 1445SOL    HW3 5553   5.416   3.495   4.534  1.2809 -1.9068 -2.9703
 1445SOL    MW4 5554   5.337   3.494   4.496  0.9908 -0.3706 -0.4733
 1446SOL     OW 5555   0.113   5.371   5.361  0.0467  0.0499  0.5197
 1446SOL    HW2 5556   0.101   5.441   5.296  3.5346  0.2607 -0.1359
 1446SOL    HW3 5557   0.169   5.411   5.428  0.6148 -1.5987  1.0633
 1446SOL    MW4 5558   0.119   5.386   5.361  0.0340 -0.6458 -0.2210
 1447SOL     OW 5559   4.156   5.974   4.073  0.3148  0.0922  0.0008
 1447SOL    HW2 5560   4.150   5.891   4.026 -0.1854 -0.0308  0.2788
 1447SOL    HW3 5561   4.133   5.952   4.164  3.1939 -0.0789  0.8087
 1447SOL    MW4 5562   4.152   5.960   4.079 -0.6568 -0.3040 -0.3178
 1448SOL     OW 5563   2.893   0.785   4.320 -0.3370 -0.5592 -0.5327
 1448SOL    HW2 5564   2.885   0.873   4.282  1.0423 -1.3002 -2.7439
 1448SOL    HW3 5565   2.825   0.782   4.387 -2.3125  1.2424 -2.2793
 1448SOL    MW4 5566   2.883   0.797   4.323  0.5002 -0.2426  0.7035
 1449SOL     OW 5567   4.100   0.205   3.976 -0.4424  0.1390 -0.1818
 1449SOL    HW2 5568   4.113   0.111   3.987 -0.8807  0.0073 -0.7287
 1449SOL    HW3 5569   4.161   0.245   4.037  0.5338 -0.4901 -0.7266
 1449SOL    MW4 5570   4.110   0.198   3.985 -0.6867  0.0897  0.0210
 1450SOL     OW 5571   2.415   3.256   2.862 -0.6555 -0.5754  0.1221
 1450SOL    HW2 5572   2.388   3.299   2.781 -0.7684  1.2036  1.0505
 1450SOL    HW3 5573   2.510   3.271   2.867  0.0192 -3.5628 -1.2587
 1450SOL    MW4 5574   2.424   3.263   2.852 -0.1206  0.8235 -0.1444
 1451SOL     OW 5575   4.348   2.804   0.352  0.1706 -0.0568  0.5436
 1451SOL    HW2 5576   4.259   2.790   0.384  0.4092 -0.6857  0.9498
 1451SOL    HW3 5577   4.384   2.716   0.340  0.4197  0.1684 -0.5379
 1451SOL    MW4 5578   4.341   2.791   0.355 -0.1231 -0.7756 -0.1683
 1452SOL     OW 5579   3.664   1.422   6.357  0.2521  0.0809  0.6812
 1452SOL    HW2 5580   3.646   1.516   6.354  1.4258  0.4830  3.3894
 1452SOL    HW3 5581   3.724   1.411   6.431  2.6036 -2.4425 -1.3846
 1452SOL    MW4 5582   3.670   1.433   6.366 -0.2556  0.6031 -0.4195
 1453SOL     OW 5583   5.784   2.734   5.864 -0.4586  0.0587 -0.5430
 1453SOL    HW2 5584   5.838   2.797   5.816 -1.4252  0.3484 -1.2930
 1453SOL    HW3 5585   5.821   2.649   5.844  0.6339  0.3528  0.1706
 1453SOL    MW4 5586   5.796   2.731   5.855  0.9638  0.0572 -0.4411
 1454SOL     OW 5587   4.872   5.037   1.271 -0.2526  0.1132  0.1570
 1454SOL    HW2 5588   4.878   5.099   1.199  1.3035  0.8118  0.8303
 1454SOL    HW3 5589   4.959   4.996   1.276  0.3834  1.5360  2.8224
 1454SOL    MW4 5590   4.884   5.040   1.262  0.0283 -0.3460 -0.1026
 1455SOL     OW 5591   4.248   3.125   0.133  0.0142 -0.0165  0.1353
 1455SOL    HW2 5592   4.186   3.059   0.101 -0.7710  0.5685  0.3895
 1455SOL    HW3 5593   4.238   3.122   0.229  1.0730 -0.5580  0.2408
 1455SOL    MW4 5594   4.238   3.116   0.142 -0.0761 -0.5270  0.2694
 1456SOL     OW 5595   2.937   3.664   5.949 -0.0126  0.0605  0.1212
 1456SOL    HW2 5596   2.939   3.638   6.042  0.8171 -0.9045 -0.1569
 1456SOL    HW3 5597   2.952   3.759   5.951 -1.9592  0.4217  1.0809
 1456SOL    MW4 5598   2.939   3.673   5.962  0.3129 -0.4619 -0.0237
 1457SOL     OW 5599   4.693   0.632   0.075 -0.1996 -0.2727 -0.1384
 1457SOL    HW2 5600   4.754   0.660   0.142  0.8246 -3.0901  0.2345
 1457SOL    HW3 5601   4.733   0.554   0.036 -1.1067  0.7557 -3.5309
 1457SOL    MW4 5602   4.706   0.625   0.079  0.0995 -0.0082  0.2360
 1458SOL     OW 5603   5.932   3.075   1.591  0.0960 -0.2727 -0.5285
 1458SOL    HW2 5604   5.961   3.048   1.678  1.3113 -2.7530 -1.6145
 1458SOL    HW3 5605   5.968   3.163   1.580 -0.1076  0.1089  1.4507
 1458SOL    MW4 5606   5.940   3.083   1.601 -0.1187  0.0099 -0.2458
 1459SOL     OW 5607   1.775   2.383   5.168  0.3275 -0.0110  0.8331
 1459SOL    HW2 5608   1.838   2.389   5.240  0.8522 -0.6184  0.4363
 1459SOL    HW3 5609   1.769   2.289   5.149  0.1933  0.1395  0.0983
 1459SOL    MW4 5610   1.783   2.371   5.175 -0.2291  0.5768  0.0375
 1460SOL     OW 5611   0.505   2.209   1.434 -0.0856 -0.3859  0.9667
 1460SOL    HW2 5612   0.524   2.289   1.385  0.3225 -1.0529  0.0118
 1460SOL    HW3 5613   0.413   2.191   1.418  0.4801 -1.6502 -1.1831
 1460SOL    MW4 5614   0.496   2.217   1.426 -0.5217 -0.8449 -0.2800
 1461SOL     OW 5615   1.866   1.401   3.795 -0.0688 -0.8222  0.8868
 1461SOL    HW2 5616   1.910   1.430   3.716 -0.6229 -1.1808  0.4341
 1461SOL    HW3 5617   1.935   1.361   3.849  0.3687 -0.2569  0.7443
 1461SOL    MW4 5618   1.881   1.399   3.792 -0.1912  0.4991 -0.6667
 1462SOL     OW 5619   5.570   2.014   3.063  0.1810  0.2212  0.0586
 1462SOL    HW2 5620   5.574   2.055   3.149 -0.4138  3.1258 -1.1772
 1462SOL    HW3 5621   5.517   2.074   3.011 -2.3874 -3.1029 -1.4973
 1462SOL    MW4 5622   5.564   2.027   3.068  0.0416  0.3060 -0.1096
 1463SOL     OW 5623   4.776   1.893   0.510  0.4187 -0.3652 -0.2566
 1463SOL    HW2 5624   4.854   1.901   0.565  0.7078 -1.2480 -0.5198
 1463SOL    HW3 5625   4.798   1.824   0.447  0.4027  1.1225 -1.9975
 1463SOL    MW4 5626   4.789   1.885   0.509  0.1472 -0.0445 -0.3118
 1464SOL     OW 5627   3.528   5.588   1.123 -0.4093  0.6778  0.3419
 1464SOL    HW2 5628   3.569   5.654   1.178  0.4267 -0.0955  0.6702
 1464SOL    HW3 5629   3.469   5.541   1.181 -0.8733  1.0062  0.1475
 1464SOL    MW4 5630   3.526   5.591   1.138 -0.1314 -0.3259  0.0245
 1465SOL     OW 5631   3.612   6.209   2.748  0.6845  0.3340 -0.2671
 1465SOL    HW2 5632   3.565   6.136   2.787 -0.1063  0.9290 -0.0973
 1465SOL    HW3 5633   3.567   6.225   2.665 -1.0930  2.5400  1.0148
 1465SOL    MW4 5634   3.600   6.201   2.742 -0.7919  0.1079 -0.6013
 1466SOL     OW 5635   3.717   5.573   0.865 -0.3282  0.7108 -0.7682
 1466SOL    HW2 5636   3.682   5.654   0.904  1.2682  0.7479  0.6923
 1466SOL    HW3 5637   3.655   5.505   0.892 -0.3409  1.0674  0.1325
 1466SOL    MW4 5638   3.704   5.575   0.874  0.4378 -0.0427  0.1682
 1467SOL     OW 5639   2.355   1.283   4.929 -0.0362  0.0878  0.3589
 1467SOL    HW2 5640   2.293   1.347   4.893 -1.6301 -0.1388  2.4946
 1467SOL    HW3 5641   2.334   1.202   4.883 -3.0091 -0.5449  2.5029
 1467SOL    MW4 5642   2.344   1.281   4.918 -0.3116  0.3114 -0.4683
 1468SOL     OW 5643   0.943   4.286   1.228 -0.0438 -0.6118 -0.6296
 1468SOL    HW2 5644   0.959   4.380   1.233  0.2566 -0.7335  1.6014
 1468SOL    HW3 5645   1.023   4.247   1.263  0.1876 -1.7686 -2.3283
 1468SOL    MW4 5646   0.956   4.293   1.233  0.2167  0.0275  0.6610
 1469SOL     OW 5647   5.386   1.933   0.759 -0.1107 -0.5734  0.2436
 1469SOL    HW2 5648   5.407   1.962   0.848  0.9076 -1.9780  0.5003
 1469SOL    HW3 5649   5.424   2.000   0.702  3.0155 -1.6984  0.7775
 1469SOL    MW4 5650   5.394   1.946   0.763 -0.0083 -0.5396  0.7706
 1470SOL     OW 5651   5.214   0.120   2.363 -0.1575  0.4850  0.6415
 1470SOL    HW2 5652   5.193   0.177   2.437  0.8544 -0.5755  1.7944
 1470SOL    HW3 5653   5.282   0.061   2.396 -1.9401 -2.1663 -0.1363
 1470SOL    MW4 5654   5.220   0.120   2.377 -0.3701  0.1730  0.6874
 1471SOL     OW 5655   0.515   5.277   3.709  0.4136  0.0210 -0.3783
 1471SOL    HW2 5656   0.541   5.188   3.684 -0.1015 -0.3801  0.4308
 1471SOL    HW3 5657   0.534   5.281   3.803 -0.2968  0.4878 -0.2447
 1471SOL    MW4 5658   0.521   5.266   3.718 -0.1122 -0.2780  0.2412
 1472SOL     OW 5659   1.633   5.587   5.774 -0.6477  0.0500 -0.4541
 1472SOL    HW2 5660   1.611   5.618   5.687 -1.4992  0.9262  0.0490
 1472SOL    HW3 5661   1.567   5.519   5.792  0.7172 -1.5445 -1.2337
 1472SOL    MW4 5662   1.621   5.582   5.765  0.5403 -0.3540  0.6651
 1473SOL     OW 5663   5.559   0.089   5.304 -0.1141 -0.0760 -0.5537
 1473SOL    HW2 5664   5.565   0.183   5.288 -2.9446 -0.0607 -2.0542
 1473SOL    HW3 5665   5.556   0.081   5.399  1.9786  1.1148 -0.3060
 1473SOL    MW4 5666   5.560   0.100   5.314  0.0369 -0.0248 -0.4380
 1474SOL     OW 5667   2.407   5.500   1.155  0.8613 -0.1107 -0.0625
 1474SOL    HW2 5668   2.399   5.434   1.087  0.2657  0.0797 -0.1825
 1474SOL    HW3 5669   2.492   5.482   1.196  1.7718  0.5082 -1.6056
 1474SOL    MW4 5670   2.418   5.489   1.152 -0.1752  1.0059  0.0397
 1475SOL     OW 5671   2.437   4.536   0.831 -0.3321 -0.1586 -0.0877
 1475SOL    HW2 5672   2.435   4.443   0.807 -1.0928 -0.2415  0.2598
 1475SOL    HW3 5673   2.510   4.572   0.780 -0.4424 -0.8069 -0.7313
 1475SOL    MW4 5674   2.447   4.528   0.821  0.2918 -0.6490  0.1304
 1476SOL     OW 5675   1.928   4.883   3.456 -0.3507 -0.1127  0.9872
 1476SOL    HW2 5676   1.891   4.819   3.396 -0.9133  0.7968  0.3260
 1476SOL    HW3 5677   2.010   4.845   3.485  0.6265 -0.0418 -1.4107
 1476SOL    MW4 5678   1.934   4.870   3.452 -0.8218 -0.1237 -0.0578
 1477SOL     OW 5679   1.869   4.166   4.663  0.5670  0.2375  0.1786
 1477SOL    HW2 5680   1.829   4.080   4.647  2.2151 -0.7842  1.1781
 1477SOL    HW3 5681   1.923   4.181   4.585 -0.0683  0.5765 -0.1957
 1477SOL    MW4 5682   1.871   4.157   4.651  0.4819  0.1173  0.3475
 1478SOL     OW 5683   4.044   0.983   2.816  0.4835  0.2453  0.3934
 1478SOL    HW2 5684   4.022   1.006   2.907  0.7670 -0.1672  0.5676
 1478SOL    HW3 5685   4.125   0.932   2.823  1.0807  1.0835 -0.1717
 1478SOL    MW4 5686   4.052   0.980   2.829  0.2070 -0.1347 -0.1220
 1479SOL     OW 5687   2.293   3.860   4.046 -0.6035 -0.2353 -0.0747
 1479SOL    HW2 5688   2.201   3.868   4.021 -0.1993 -0.8476 -1.8956
 1479SOL    HW3 5689   2.333   3.809   3.975  1.2955  0.6431  0.3042
 1479SOL    MW4 5690   2.286   3.854   4.033  0.3986  0.1843  0.6115
 1480SOL     OW 5691   2.053   1.693   2.638  0.2724 -0.2547  0.3691
 1480SOL    HW2 5692   2.078   1.739   2.558  0.1125 -2.0252 -0.7531
 1480SOL    HW3 5693   1.958   1.702   2.643  0.2660 -0.2702  0.2757
 1480SOL    MW4 5694   2.044   1.700   2.628  0.6095  0.3768 -0.1001
 1481SOL     OW 5695   3.027   5.740   2.996 -0.0354 -0.0577 -0.2745
 1481SOL    HW2 5696   3.028   5.646   3.013 -0.0116  0.0275  0.1932
 1481SOL    HW3 5697   2.994   5.779   3.077  0.6433  0.3917 -0.2080
 1481SOL    MW4 5698   3.022   5.733   3.009 -0.0957  0.6380  0.0585
 1482SOL     OW 5699   3.233   5.068   0.510 -0.0576 -0.1075  0.2220
 1482SOL    HW2 5700   3.189   5.096   0.590  0.4476 -1.0098  0.8351
 1482SOL    HW3 5701   3.161   5.052   0.448 -0.3632  2.3579 -0.1327
 1482SOL    MW4 5702   3.217   5.069   0.513  0.1033 -0.1880  0.9719
 1483SOL     OW 5703   5.494   5.241   4.875 -0.2489 -0.3071 -0.1978
 1483SOL    HW2 5704   5.436   5.174   4.841 -1.7833  1.1128 -0.4745
 1483SOL    HW3 5705   5.447   5.280   4.949  1.7494 -1.3045  1.7396
 1483SOL    MW4 5706   5.480   5.238   4.881  0.6256  0.0894 -0.1555
 1484SOL     OW 5707   3.688   0.427   0.822  0.0658 -0.0671 -0.6839
 1484SOL    HW2 5708   3.752   0.475   0.875 -1.1374  0.1831  0.5967
 1484SOL    HW3 5709   3.651   0.362   0.882 -0.9804 -0.1126 -1.3547
 1484SOL    MW4 5710   3.692   0.425   0.837  0.5375  0.9720  0.0748
 1485SOL     OW 5711   2.656   3.154   3.554 -0.0979  0.1730  0.3078
 1485SOL    HW2 5712   2.682   3.124   3.641 -0.3178 -0.7668  0.0563
 1485SOL    HW3 5713   2.735   3.194   3.518 -0.0189  0.6163  0.9509
 1485SOL    MW4 5714   2.670   3.156   3.561  0.0315 -0.1328  0.7114
 1486SOL     OW 5715   4.795   2.610   2.043 -0.9702 -0.0523 -0.0737
 1486SOL    HW2 5716   4.741   2.669   1.990 -0.7106  1.7368  1.5891
 1486SOL    HW3 5717   4.840   2.666   2.105  0.3734 -1.8678  0.7011
 1486SOL    MW4 5718   4.794   2.625   2.044 -0.0354  0.1914  0.4504
 1487SOL     OW 5719   1.955   0.642   3.869  0.5541 -0.0160 -0.3142
 1487SOL    HW2 5720   1.911   0.726   3.861  2.0540  0.7711 -0.7599
 1487SOL    HW3 5721   2.048   0.663   3.860  0.9876 -1.6763 -0.0551
 1487SOL    MW4 5722   1.962   0.656   3.867  0.0526 -0.0964  0.5300
 1488SOL     OW 5723   0.974   3.768   4.943  0.3772  0.1461  0.0709
 1488SOL    HW2 5724   0.975   3.828   4.868  1.9225 -0.6079 -0.5640
 1488SOL    HW3 5725   0.882   3.751   4.960 -0.0307  1.3502 -0.8267
 1488SOL    MW4 5726   0.962   3.774   4.936  0.2734  0.2971  0.2990
 1489SOL     OW 5727   2.522   2.490   4.918  0.3827  0.8231 -0.0638
 1489SOL    HW2 5728   2.517   2.570   4.866  0.8222 -0.5688 -2.3670
 1489SOL    HW3 5729   2.436   2.449   4.907  1.1788 -0.5426 -1.5684
 1489SOL    MW4 5730   2.510   2.495   4.910 -0.2267 -0.1126  0.0916
 1490SOL     OW 5731   2.693   0.894   3.040  0.2648 -0.0743  0.3721
 1490SOL    HW2 5732   2.627   0.948   2.996  0.4140  0.2366  0.5297
 1490SOL    HW3 5733   2.650   0.810   3.053  0.1363 -0.0954 -0.1600
 1490SOL    MW4 5734   2.679   0.890   3.036 -0.6634  0.4370 -0.1198
 1491SOL     OW 5735   1.600   3.505   6.127 -0.2131  0.2624  0.0893
 1491SOL    HW2 5736   1.540   3.441   6.165 -0.8442  0.7269 -0.1010
 1491SOL    HW3 5737   1.550   3.547   6.057  0.6634 -0.0207 -0.7404
 1491SOL    MW4 5738   1.586   3.502   6.123  0.7055  0.3195  0.1268
 1492SOL     OW 5739   4.789   4.942   5.194  0.5652 -0.4297 -0.1720
 1492SOL    HW2 5740   4.752   4.858   5.219 -2.8882  0.8641 -0.3932
 1492SOL    HW3 5741   4.738   4.969   5.117 -0.0212  2.7901  1.1840
 1492SOL    MW4 5742   4.778   4.935   5.187  0.0694  0.3876  0.1498
 1493SOL     OW 5743   3.694   0.013   1.828  0.8823 -0.0187 -0.3592
 1493SOL    HW2 5744   3.706   0.101   1.863 -1.5945  0.1439  0.2838
 1493SOL    HW3 5745   3.699  -0.044   1.906 -0.5100 -0.0912 -0.2963
 1493SOL    MW4 5746   3.697   0.017   1.843  0.2024  0.9252  0.4115
 1494SOL     OW 5747   0.853   1.304   6.253 -0.0750  0.2542 -0.1517
 1494SOL    HW2 5748   0.900   1.324   6.334  1.0144 -0.4664 -0.5752
 1494SOL    HW3 5749   0.794   1.232   6.276  0.6025 -0.3005 -0.0936
 1494SOL    MW4 5750   0.852   1.297   6.266  0.8358 -0.4602 -0.7770
 1495SOL     OW 5751   3.847   4.620   0.699 -0.3060  0.4643  0.0492
 1495SOL    HW2 5752   3.786   4.687   0.667 -0.3146  0.6578  0.4670
 1495SOL    HW3 5753   3.791   4.559   0.748 -0.0802  0.9362  0.8925
 1495SOL    MW4 5754   3.831   4.621   0.701  0.1131  0.3313 -0.4565
 1496SOL     OW 5755   3.700   5.340   5.878 -0.2129 -0.0244 -0.3293
 1496SOL    HW2 5756   3.764   5.409   5.895 -0.1071 -0.1597 -0.1723
 1496SOL    HW3 5757   3.752   5.259   5.877 -0.2527 -0.0486 -1.0611
 1496SOL    MW4 5758   3.715   5.338   5.880 -0.7278  0.0624  0.0530
 1497SOL     OW 5759   2.872   5.868   2.541 -0.9242  0.1020  0.7854
 1497SOL    HW2 5760   2.788   5.838   2.508 -0.3772 -0.1487 -0.4277
 1497SOL    HW3 5761   2.874   5.840   2.632 -1.4155 -1.4386  0.3414
 1497SOL    MW4 5762   2.861   5.861   2.549 -0.5466  0.6167  0.2767
 1498SOL     OW 5763   1.641   5.449   6.189 -0.2756  0.1230  0.0014
 1498SOL    HW2 5764   1.625   5.541   6.207 -0.7078 -0.2024  1.4523
 1498SOL    HW3 5765   1.554   5.412   6.174 -0.2869 -0.3475  1.1104
 1498SOL    MW4 5766   1.627   5.456   6.190  0.8007  0.4731 -0.3250
 1499SOL     OW 5767   0.116   1.743   3.491  0.2193  0.3768 -0.2941
 1499SOL    HW2 5768   0.052   1.715   3.425  2.6203 -1.7861 -1.9100
 1499SOL    HW3 5769   0.114   1.673   3.557 -1.1712  1.8424  1.3171
 1499SOL    MW4 5770   0.107   1.730   3.491  0.3642 -0.1191 -0.6797
 1500SOL     OW 5771   2.960   4.398   0.525 -0.9016  0.0780 -0.0852
 1500SOL    HW2 5772   2.969   4.484   0.484 -0.6267  0.7939  1.4002
 1500SOL    HW3 5773   3.004   4.338   0.466 -1.1235  0.9497 -1.1653
 1500SOL    MW4 5774   2.967   4.402   0.512 -0.2546 -0.1479  0.0724
 1501SOL     OW 5775   2.888   5.064   4.440 -0.2390  0.2056 -0.1709
 1501SOL    HW2 5776   2.865   5.105   4.523  0.0113 -1.2770  0.6637
 1501SOL    HW3 5777   2.805   5.032   4.405 -0.2580  0.2389 -0.1565
 1501SOL    MW4 5778   2.874   5.065   4.446 -0.4022 -0.0120  0.1029
 1502SOL     OW 5779   1.766   3.167   3.286  0.2148 -0.1456 -0.1005
 1502SOL    HW2 5780   1.831   3.209   3.343 -0.7316 -0.2308  1.0672
 1502SOL    HW3 5781   1.694   3.230   3.282 -0.1959 -0.6261 -0.2934
 1502SOL    MW4 5782   1.765   3.181   3.293 -0.6683  0.2691  0.5472
 1503SOL     OW 5783   0.281   0.955   6.328 -0.2941  0.3292  0.7999
 1503SOL    HW2 5784   0.269   1.029   6.269  0.8409  1.2034  1.6177
 1503SOL    HW3 5785   0.328   0.890   6.276  0.8385  1.1540  0.7491
 1503SOL    MW4 5786   0.286   0.956   6.313 -0.0188  0.0347  0.5302
 1504SOL     OW 5787   3.659   2.297   2.099  0.5792 -0.6258 -0.2820
 1504SOL    HW2 5788   3.655   2.393   2.100  1.7198 -0.5685 -0.2037
 1504SOL    HW3 5789   3.623   2.271   2.185 -1.0131 -0.3566 -0.8285
 1504SOL    MW4 5790   3.654   2.306   2.111 -0.3756  0.3582  0.2559
 1505SOL     OW 5791   0.062   3.816   4.301 -0.2814 -0.8613 -0.5148
 1505SOL    HW2 5792   0.027   3.870   4.230 -1.0947 -0.7522 -0.0402
 1505SOL    HW3 5793  -0.002   3.747   4.313 -1.7624  0.7586  2.0804
 1505SOL    MW4 5794   0.049   3.814   4.293  0.0804  0.2822  0.3446
 1506SOL     OW 5795   1.250   3.978   5.777  0.6223  0.2104  0.5562
 1506SOL    HW2 5796   1.173   4.036   5.779  1.3407  1.2435 -0.3536
 1506SOL    HW3 5797   1.213   3.890   5.778 -0.5369  0.6677  1.1027
 1506SOL    MW4 5798   1.235   3.974   5.778 -0.1541  0.7274 -0.4978
 1507SOL     OW 5799   1.256   2.242   1.987 -0.0980  0.1664 -0.3040
 1507SOL    HW2 5800   1.210   2.159   1.982  2.1815 -1.2011 -0.2625
 1507SOL    HW3 5801   1.242   2.283   1.902  0.9261 -1.5790 -1.3913
 1507SOL    MW4 5802   1.248   2.236   1.976  0.2246 -0.4439  0.3193
 1508SOL     OW 5803   1.314   3.266   1.957 -0.3227 -0.3589  0.1434
 1508SOL    HW2 5804   1.314   3.292   2.049 -1.0168 -0.1667  0.0928
 1508SOL    HW3 5805   1.319   3.170   1.960  1.2421 -0.2959  0.3445
 1508SOL    MW4 5806   1.314   3.257   1.970  0.3695  1.1072  0.0033
 1509SOL     OW 5807   5.575   6.205   1.816  0.1388  0.2439 -0.9718
 1509SOL    HW2 5808   5.667   6.191   1.796  0.0519 -0.7548 -0.7366
 1509SOL    HW3 5809   5.538   6.117   1.823 -0.9103  0.6247 -1.4066
 1509SOL    MW4 5810   5.582   6.192   1.814 -0.3627  0.3496 -0.0892
 1510SOL     OW 5811   5.464   0.556   4.368  0.3840  0.1689  0.3709
 1510SOL    HW2 5812   5.393   0.523   4.424  0.1772 -0.2354 -0.1259
 1510SOL    HW3 5813   5.493   0.480   4.318 -1.0655  0.9822 -1.8615
 1510SOL    MW4 5814   5.458   0.542   4.369 -0.1979  0.5080  0.1845
 1511SOL     OW 5815   4.202   3.577   3.495  0.2049  0.2556 -0.0315
 1511SOL    HW2 5816   4.266   3.507   3.514  1.7812  1.1427 -1.7386
 1511SOL    HW3 5817   4.205   3.633   3.572  0.7607 -0.2447  0.3276
 1511SOL    MW4 5818   4.211   3.575   3.508 -0.3350  0.1258 -0.2295
 1512SOL     OW 5819   6.100   0.409   3.880  0.1411  0.2690  0.0196
 1512SOL    HW2 5820   6.033   0.472   3.853 -0.8958 -0.9726 -0.3596
 1512SOL    HW3 5821   6.120   0.360   3.801  1.7170  0.7735  0.0588
 1512SOL    MW4 5822   6.094   0.411   3.866  0.4357 -0.9354  0.0539
 1513SOL     OW 5823   5.699   0.000   0.782  0.0434  0.2893  0.4194
 1513SOL    HW2 5824   5.633  -0.036   0.841  0.8526 -0.6290  0.7982
 1513SOL    HW3 5825   5.684  -0.045   0.699 -0.4251  0.8035  0.2230
 1513SOL    MW4 5826   5.688  -0.010   0.779  0.1641  0.0661 -0.0287
 1514SOL     OW 5827   1.611   1.091   0.915  0.0177 -0.6690 -0.7175
 1514SOL    HW2 5828   1.594   0.999   0.896 -0.2021 -0.5916 -0.8902
 1514SOL    HW3 5829   1.525   1.131   0.922  0.1057 -0.2555 -1.7336
 1514SOL    MW4 5830   1.598   1.084   0.913 -0.2124  0.8414  0.0270
 1515SOL     OW 5831   6.010   0.614   1.206  0.2300  0.0963  0.7017
 1515SOL    HW2 5832   6.088   0.670   1.200 -0.1488  0.5133 -2.5924
 1515SOL    HW3 5833   5.937   0.676   1.202 -0.1921 -0.4551 -1.7931
 1515SOL    MW4 5834   6.010   0.630   1.204  0.1361  0.2127  0.3240
 1516SOL     OW 5835   0.843   5.861   4.214 -0.0440 -0.0781 -0.1559
 1516SOL    HW2 5836   0.816   5.952   4.224 -1.2763 -0.4544  0.1980
 1516SOL    HW3 5837   0.890   5.858   4.131  1.3506  1.1570  0.5578
 1516SOL    MW4 5838   0.845   5.872   4.204 -0.3184 -0.2112  0.2604
 1517SOL     OW 5839   0.266   4.269   1.575 -0.1343 -0.1609 -0.1926
 1517SOL    HW2 5840   0.356   4.301   1.570  0.2359 -1.2626 -1.0205
 1517SOL    HW3 5841   0.213   4.346   1.595  1.0080  0.4698  0.4538
 1517SOL    MW4 5842   0.271   4.283   1.577  0.4877  0.2307  0.4015
 1518SOL     OW 5843   4.574   1.630   4.613  0.4415  0.3481  0.6152
 1518SOL    HW2 5844   4.660   1.591   4.629  0.4338  0.4674  0.9505
 1518SOL    HW3 5845   4.533   1.636   4.699  0.5722  1.4091  0.6225
 1518SOL    MW4 5846   4.580   1.626   4.626 -0.1101 -0.4982 -0.1478
 1519SOL     OW 5847   0.327   1.606   3.030  0.2498 -0.4187 -0.0129
 1519SOL    HW2 5848   0.389   1.540   3.001  0.9720  0.5511 -0.7328
 1519SOL    HW3 5849   0.371   1.651   3.102  0.3112  0.1473 -0.3978
 1519SOL    MW4 5850   0.341   1.603   3.036 -0.1560  0.0417  0.1469
 1520SOL     OW 5851   5.448   5.825   3.866 -0.1123 -0.6174 -0.1722
 1520SOL    HW2 5852   5.396   5.824   3.785  0.4458  0.6198 -0.5629
 1520SOL    HW3 5853   5.532   5.862   3.840 -0.5552  1.6592  1.3259
 1520SOL    MW4 5854   5.452   5.830   3.852 -0.3381 -0.1438  0.1990
 1521SOL     OW 5855   3.569   3.129   3.973  0.2981  0.5259  0.1990
 1521SOL    HW2 5856   3.661   3.116   3.996  0.9412 -0.8471 -2.6687
 1521SOL    HW3 5857   3.565   3.218   3.939  0.7029  0.4017 -0.1861
 1521SOL    MW4 5858   3.581   3.139   3.972 -0.3765 -0.8722 -0.2760
 1522SOL     OW 5859   5.414   1.975   2.306  0.3154 -0.1985  0.1768
 1522SOL    HW2 5860   5.329   1.934   2.289  0.2688 -0.8553  1.7732
 1522SOL    HW3 5861   5.471   1.941   2.237 -0.4605 -0.6021 -0.2844
 1522SOL    MW4 5862   5.410   1.965   2.295 -0.2197  0.6143 -0.0124
 1523SOL     OW 5863   5.232   6.050   4.945  0.3656  0.3161 -0.1816
 1523SOL    HW2 5864   5.176   6.004   5.008 -1.9268  3.0654  0.0152
 1523SOL    HW3 5865   5.251   5.985   4.878 -2.9519 -0.9152 -0.1270
 1523SOL    MW4 5866   5.227   6.036   4.945 -0.0562 -0.3318  0.6770
 1524SOL     OW 5867   2.659   6.193   2.175  0.4859  0.4499  0.2089
 1524SOL    HW2 5868   2.616   6.192   2.261 -0.6006  1.3122 -0.2902
 1524SOL    HW3 5869   2.742   6.239   2.190  0.3691  0.4651  0.8269
 1524SOL    MW4 5870   2.664   6.199   2.188  0.3032  0.5090 -0.5782
 1525SOL     OW 5871   4.758   2.970   1.552 -0.1464 -0.3729  0.2799
 1525SOL    HW2 5872   4.768   3.024   1.473 -0.4992 -1.3477 -0.4649
 1525SOL    HW3 5873   4.832   2.993   1.607 -0.1624  0.6892 -0.1175
 1525SOL    MW4 5874   4.769   2.980   1.549  0.1551 -0.0317  0.8130
 1526SOL     OW 5875   1.556   4.718   4.671 -0.0162 -0.6121  0.2264
 1526SOL    HW2 5876   1.651   4.723   4.665 -0.1223  1.8177 -0.4138
 1526SOL    HW3 5877   1.531   4.796   4.720 -1.6348 -1.8795  1.5426
 1526SOL    MW4 5878   1.565   4.729   4.676 -0.3859 -0.2490  0.0571
 1527SOL     OW 5879   6.074   3.121   3.019 -0.1388  0.2071 -0.0347
 1527SOL    HW2 5880   5.998   3.172   3.045 -2.0151 -1.1746 -2.3383
 1527SOL    HW3 5881   6.144   3.186   3.006 -0.7214  1.4677  2.5090
 1527SOL    MW4 5882   6.073   3.136   3.021  0.1175 -0.0660 -0.1186
 1528SOL     OW 5883   4.922   4.170   3.896  0.6647  0.4699 -0.0200
 1528SOL    HW2 5884   5.008   4.193   3.863 -0.4527  3.7354 -1.1028
 1528SOL    HW3 5885   4.862   4.196   3.826 -1.2513 -2.1093  0.4964
 1528SOL    MW4 5886   4.925   4.176   3.882 -0.1738  0.0353 -0.0509
 1529SOL     OW 5887   3.302   1.802   5.734 -0.1366  0.2312 -0.0089
 1529SOL    HW2 5888   3.212   1.827   5.753 -0.9229 -2.4834  0.2120
 1529SOL    HW3 5889   3.295   1.719   5.686  2.2205  0.6084 -1.1848
 1529SOL    MW4 5890   3.289   1.794   5.730 -0.2586 -0.5646  0.4166
 1530SOL     OW 5891   2.998   6.345   3.779 -0.3653 -0.1980  0.3710
 1530SOL    HW2 5892   2.957   6.262   3.755 -0.6340  0.2775 -0.8505
 1530SOL    HW3 5893   3.062   6.361   3.710 -0.1541  0.5022  0.7203
 1530SOL    MW4 5894   3.001   6.336   3.767  0.0285  0.1824  0.6501
 1531SOL     OW 5895   2.870   6.283   1.456  0.2863  0.3047 -0.0699
 1531SOL    HW2 5896   2.848   6.344   1.527  0.1682 -3.2997  3.3170
 1531SOL    HW3 5897   2.786   6.247   1.428  0.5795 -1.2052  0.8950
 1531SOL    MW4 5898   2.856   6.286   1.462  0.2449 -0.2214  0.0946
 1532SOL     OW 5899   3.614   0.860   1.923  0.5329  0.0375  0.1775
 1532SOL    HW2 5900   3.536   0.914   1.914  0.8633  0.3229 -1.1723
 1532SOL    HW3 5901   3.599   0.785   1.866  1.2590  0.1174 -0.1335
 1532SOL    MW4 5902   3.602   0.857   1.914 -0.2457 -0.3742  0.0966
 1533SOL     OW 5903   2.731   3.816   4.569 -0.1353  0.4118  0.1827
 1533SOL    HW2 5904   2.787   3.794   4.644  0.1123 -0.9962 -0.3886
 1533SOL    HW3 5905   2.659   3.867   4.608  0.3904  0.3712  1.2541
 1533SOL    MW4 5906   2.729   3.820   4.584  0.2590  0.7012 -0.1928
 1534SOL     OW 5907   5.556   0.432   3.147  0.3687 -0.3480  0.0464
 1534SOL    HW2 5908   5.566   0.515   3.100 -0.4879  1.0102  2.1076
 1534SOL    HW3 5909   5.646   0.404   3.166  0.6783  1.0699  0.8392
 1534SOL    MW4 5910   5.569   0.439   3.143  0.7239  0.6907 -0.2265
 1535SOL     OW 5911   5.675   4.854   4.697  0.1077  0.2640 -0.3078
 1535SOL    HW2 5912   5.729   4.906   4.638 -0.5133  0.6046 -0.5932
 1535SOL    HW3 5913   5.608   4.915   4.728  0.1556 -0.0315  0.3980
 1535SOL    MW4 5914   5.673   4.869   4.693 -0.1394 -0.4284  0.4146
 1536SOL     OW 5915   2.145  -0.004   0.988 -0.2323 -0.2895 -0.5888
 1536SOL    HW2 5916   2.172   0.087   1.004 -0.7899 -0.0511 -0.9589
 1536SOL    HW3 5917   2.055  -0.008   1.021  0.0363 -0.9089  0.0847
 1536SOL    MW4 5918   2.136   0.007   0.995 -0.0472  0.1725  0.3953
 1537SOL     OW 5919   0.403   2.844   6.251 -0.0717 -0.1330 -0.1415
 1537SOL    HW2 5920   0.338   2.795   6.201  2.0367 -3.2608 -0.0767
 1537SOL    HW3 5921   0.468   2.870   6.185 -0.2845  1.0691  0.1093
 1537SOL    MW4 5922   0.403   2.841   6.235 -0.2125 -0.0313  0.0345
 1538SOL     OW 5923   6.409   3.897   6.135  0.3861 -0.1802  0.4099
 1538SOL    HW2 5924   6.497   3.933   6.125  0.9228 -1.8079 -1.3468
 1538SOL    HW3 5925   6.367   3.915   6.051 -1.1723  1.0209  1.4016
 1538SOL    MW4 5926   6.415   3.904   6.123  0.0142  0.2224  0.0615
 1539SOL     OW 5927   5.688   1.227   5.064  0.4847  0.0724 -0.6283
 1539SOL    HW2 5928   5.643   1.311   5.068  0.3915  0.0677 -1.3760
 1539SOL    HW3 5929   5.637   1.176   5.000  2.3130  0.5337 -2.5527
 1539SOL    MW4 5930   5.675   1.231   5.056  0.5576  0.2769 -0.2908
 1540SOL     OW 5931   0.836   0.142   4.530 -0.4521  0.3577 -0.4062
 1540SOL    HW2 5932   0.904   0.106   4.588 -0.0119  0.0886 -1.0778
 1540SOL    HW3 5933   0.756   0.095   4.556  0.2031 -1.5668 -1.6239
 1540SOL    MW4 5934   0.835   0.131   4.541 -0.1621  0.3505  0.1654
 1541SOL     OW 5935   4.994   1.155   3.176  0.2072  0.0755 -0.4616
 1541SOL    HW2 5936   5.042   1.194   3.103  0.4881  0.2328 -0.1914
 1541SOL    HW3 5937   5.061   1.109   3.227  0.0852  0.3701 -0.0340
 1541SOL    MW4 5938   5.009   1.154   3.173  0.5278  0.3674  0.3409
 1542SOL     OW 5939   0.571   5.560   2.374 -0.1487  0.1435  0.0534
 1542SOL    HW2 5940   0.620   5.626   2.424 -2.9263  1.3978  1.3337
 1542SOL    HW3 5941   0.543   5.496   2.440  2.1813 -2.2763 -1.1192
 1542SOL    MW4 5942   0.574   5.561   2.390 -0.5509 -0.3085  0.4314
 1543SOL     OW 5943   1.664   4.112   3.848  0.3325 -0.1702  0.3980
 1543SOL    HW2 5944   1.723   4.156   3.910  1.6673 -0.5548 -0.5591
 1543SOL    HW3 5945   1.695   4.022   3.846 -1.1300 -0.7195  0.8343
 1543SOL    MW4 5946   1.676   4.106   3.856  0.1217  0.1263 -0.4431
 1544SOL     OW 5947   5.889   5.719   3.263 -0.2449 -0.6294 -0.4611
 1544SOL    HW2 5948   5.861   5.694   3.175  2.2376 -0.4373 -1.3634
 1544SOL    HW3 5949   5.863   5.811   3.270  1.2020 -0.0744 -1.7844
 1544SOL    MW4 5950   5.882   5.728   3.253 -0.1848  0.1015 -0.2307
 1545SOL     OW 5951   2.070   1.405   2.571 -0.4774  0.4101  0.3277
 1545SOL    HW2 5952   2.079   1.328   2.515  1.7189  0.7718  0.1122
 1545SOL    HW3 5953   2.006   1.461   2.526  0.5414  0.2847 -1.3370
 1545SOL    MW4 5954   2.062   1.402   2.558 -0.2821 -0.0619  0.2172
 1546SOL     OW 5955   4.070   2.367   2.755  0.1285 -0.1075 -0.7221
 1546SOL    HW2 5956   4.157   2.343   2.722  0.2050 -1.1111  0.1466
 1546SOL    HW3 5957   4.012   2.355   2.680  0.7184  0.5133 -1.2948
 1546SOL    MW4 5958   4.074   2.362   2.741 -0.2088  0.0416 -0.1325
 1547SOL     OW 5959   0.097   1.747   1.058 -0.0765  0.1506  0.2203
 1547SOL    HW2 5960   0.037   1.733   1.132 -0.5322  0.5106 -0.0754
 1547SOL    HW3 5961   0.056   1.817   1.007  1.2689  1.3871  0.7497
 1547SOL    MW4 5962   0.084   1.754   1.061 -0.2863 -0.5149  0.5744
 1548SOL     OW 5963   0.896   1.893   2.347  0.0368 -0.2161  0.2102
 1548SOL    HW2 5964   0.991   1.895   2.344  0.0173  0.5100 -0.3096
 1548SOL    HW3 5965   0.871   1.975   2.390 -0.3527 -0.2411  0.0406
 1548SOL    MW4 5966   0.905   1.904   2.352 -0.9637 -0.2374  0.4760
 1549SOL     OW 5967   1.059   1.347   1.730 -0.2364  0.1397  0.4668
 1549SOL    HW2 5968   1.124   1.398   1.681  0.0798 -0.5212  0.1831
 1549SOL    HW3 5969   1.087   1.354   1.821  0.1002  0.0596  0.3731
 1549SOL    MW4 5970   1.071   1.355   1.736 -0.5268 -0.4572 -0.0940
 1550SOL     OW 5971   1.023   2.893   4.843  0.2392 -0.3253  0.0715
 1550SOL    HW2 5972   0.981   2.966   4.890 -1.0240 -0.7126 -0.4005
 1550SOL    HW3 5973   0.958   2.823   4.846  1.4008 -1.4167  0.4306
 1550SOL    MW4 5974   1.009   2.894   4.850 -0.3203  0.1862 -0.0590
 1551SOL     OW 5975   5.839   5.424   6.124  0.0572 -0.5719 -0.1567
 1551SOL    HW2 5976   5.796   5.509   6.132 -0.2139 -0.7225  0.0114
 1551SOL    HW3 5977   5.843   5.391   6.214 -1.3434 -1.4723 -0.4113
 1551SOL    MW4 5978   5.834   5.431   6.137  0.3448  0.2434 -0.1639
 1552SOL     OW 5979   0.268   1.058   0.185 -0.4262 -0.3640  0.5380
 1552SOL    HW2 5980   0.338   1.020   0.239 -0.9217 -0.2484  1.2762
 1552SOL    HW3 5981   0.281   1.019   0.098 -0.5412 -1.7606  1.1169
 1552SOL    MW4 5982   0.279   1.048   0.181 -0.0445  0.0947 -0.2196
 1553SOL     OW 5983   4.579   3.938   1.585  0.1705  0.0182  0.6125
 1553SOL    HW2 5984   4.578   4.019   1.534  0.5733 -0.1578  0.3167
 1553SOL    HW3 5985   4.579   3.868   1.519 -2.2593 -0.2982  0.8285
 1553SOL    MW4 5986   4.579   3.939   1.570  0.7865  0.6299  0.0531
 1554SOL     OW 5987   4.431   2.544   0.310 -0.3397 -0.0133  0.1703
 1554SOL    HW2 5988   4.519   2.523   0.278 -0.3954  0.1508 -0.1004
 1554SOL    HW3 5989   4.404   2.467   0.360 -0.1515 -0.1777  0.0206
 1554SOL    MW4 5990   4.439   2.531   0.312 -0.5149  0.2700  0.3608
 1555SOL     OW 5991   5.614   1.486   1.579  0.2513  0.4796 -0.1286
 1555SOL    HW2 5992   5.693   1.434   1.595  0.7703  1.1406 -0.4568
 1555SOL    HW3 5993   5.545   1.422   1.567  0.6403 -0.1049  0.6537
 1555SOL    MW4 5994   5.615   1.471   1.579 -0.5819 -0.0851  0.4395
 1556SOL     OW 5995   4.063   2.684   1.628 -0.3686 -0.0812 -0.7790
 1556SOL    HW2 5996   3.996   2.752   1.621  1.9454  2.3722 -0.7916
 1556SOL    HW3 5997   4.092   2.669   1.538 -1.0825 -1.4128 -0.8180
 1556SOL    MW4 5998   4.058   2.691   1.615 -0.1733  0.7171  0.2158
 1557SOL     OW 5999   5.136   3.818   6.331  0.4536 -0.1938 -0.1472
 1557SOL    HW2 6000   5.132   3.762   6.254 -3.3768 -0.4900  0.0523
 1557SOL    HW3 6001   5.144   3.758   6.405  1.7268 -0.0683 -0.1681
 1557SOL    MW4 6002   5.136   3.803   6.331 -0.1764 -0.1185  0.3034
 1558SOL     OW 6003   2.578   0.481   1.070 -0.3733  0.0347  0.2148
 1558SOL    HW2 6004   2.625   0.555   1.107  0.6746 -0.4381 -0.1414
 1558SOL    HW3 6005   2.564   0.505   0.979  0.2238 -0.3166  0.0254
 1558SOL    MW4 6006   2.582   0.494   1.063 -0.0412  0.0634  0.8048
 1559SOL     OW 6007   2.201   4.616   0.458 -0.0321 -0.0632 -0.6189
 1559SOL    HW2 6008   2.160   4.569   0.385 -0.2290 -0.0263 -0.5335
 1559SOL    HW3 6009   2.256   4.551   0.501 -0.2949 -0.2100 -0.5077
 1559SOL    MW4 6010   2.203   4.601   0.454  1.0938  0.1952 -0.5993
 1560SOL     OW 6011   4.044   2.775   2.409  0.4749  0.0138  0.0696
 1560SOL    HW2 6012   4.105   2.722   2.357 -0.4462 -0.2857 -0.7263
 1560SOL    HW3 6013   3.964   2.779   2.356 -0.0926  0.6698  0.9510
 1560SOL    MW4 6014   4.042   2.769   2.395  0.2440  0.1976 -0.1416
 1561SOL     OW 6015   1.337   0.006   0.077 -0.1407 -0.1773  0.2242
 1561SOL    HW2 6016   1.426   0.004   0.044 -0.6221 -0.1593 -1.1509
 1561SOL    HW3 6017   1.331   0.088   0.126  0.6658 -0.3074  0.5430
 1561SOL    MW4 6018   1.348   0.017   0.079  0.5792 -0.1279 -0.4584
 1562SOL     OW 6019   5.535   4.980   5.324 -0.3349 -0.4684 -0.3341
 1562SOL    HW2 6020   5.445   4.962   5.300 -0.8570  3.8810 -2.7511
 1562SOL    HW3 6021   5.576   5.011   5.243  2.5416  0.2092  1.2162
 1562SOL    MW4 6022   5.529   4.982   5.311 -0.5492  0.5358  0.4950
 1563SOL     OW 6023   4.233   5.193   0.253 -0.6538  0.4740  0.0483
 1563SOL    HW2 6024   4.324   5.195   0.283 -0.4807  1.7891 -0.5001
 1563SOL    HW3 6025   4.195   5.274   0.288 -1.2150  0.6319 -0.9144
 1563SOL    MW4 6026   4.240   5.204   0.262  0.7826 -0.1749 -0.0657
 1564SOL     OW 6027   4.060   3.195   3.101  0.0489  0.1323  0.1147
 1564SOL    HW2 6028   4.147   3.181   3.064  0.3873  0.6900  0.6745
 1564SOL    HW3 6029   4.029   3.276   3.061 -0.4020 -0.2924 -0.4110
 1564SOL    MW4 6030   4.068   3.204   3.091 -0.4578 -0.2051  0.6516
 1565SOL     OW 6031   0.597   0.857   4.513 -0.5026 -0.6541  0.1960
 1565SOL    HW2 6032   0.563   0.924   4.573  0.7024 -1.2499  1.6381
 1565SOL    HW3 6033   0.522   0.801   4.493 -1.4232  0.8262 -0.6540
 1565SOL    MW4 6034   0.583   0.859   4.518  0.2895  0.1249 -0.2212
 1566SOL     OW 6035   0.958   5.651   2.864 -0.4865  0.2049  0.0155
 1566SOL    HW2 6036   1.050   5.632   2.842 -0.4213  0.2741  0.2264
 1566SOL    HW3 6037   0.945   5.611   2.950 -1.0061 -0.8495 -0.5404
 1566SOL    MW4 6038   0.969   5.643   2.872  0.5610 -0.0162  0.0855
 1567SOL     OW 6039   6.201   0.506   0.261 -0.4191 -0.2319 -0.2510
 1567SOL    HW2 6040   6.285   0.478   0.225 -0.8585 -0.9215 -0.7608
 1567SOL    HW3 6041   6.144   0.515   0.184 -1.1431 -0.9235  0.1957
 1567SOL    MW4 6042   6.205   0.504   0.246  1.1468  0.0638  0.6734
 1568SOL     OW 6043   5.794   2.581   3.221  0.0164  0.0234  0.6379
 1568SOL    HW2 6044   5.717   2.557   3.171 -0.3407  0.0040  1.1874
 1568SOL    HW3 6045   5.760   2.607   3.307  0.5590  0.6834  0.6592
 1568SOL    MW4 6046   5.780   2.581   3.226  0.6176  0.3311  0.4785
 1569SOL     OW 6047   3.316   2.884   0.007 -0.1683 -0.1490 -0.0272
 1569SOL    HW2 6048   3.370   2.933  -0.054  2.5347 -0.4958  1.9158
 1569SOL    HW3 6049   3.287   2.949   0.071 -1.1233 -0.1920 -0.3908
 1569SOL    MW4 6050   3.319   2.899   0.007 -0.7956 -0.6157  0.6867
 1570SOL     OW 6051   4.257   4.873   1.806  0.1504  0.0150 -0.1790
 1570SOL    HW2 6052   4.198   4.947   1.823  1.0020  1.0569 -1.4784
 1570SOL    HW3 6053   4.332   4.913   1.761  0.9310 -1.5655 -0.3331
 1570SOL    MW4 6054   4.259   4.888   1.802 -0.1606  0.0630 -0.2403
 1571SOL     OW 6055   1.727   2.714   3.084 -0.2101 -0.0324  0.2440
 1571SOL    HW2 6056   1.721   2.742   2.993 -0.3547 -1.2396 -0.1330
 1571SOL    HW3 6057   1.754   2.793   3.131  0.4721  0.4676 -0.9244
 1571SOL    MW4 6058   1.730   2.728   3.078 -0.0176 -0.1760 -0.2006
 1572SOL     OW 6059   3.269   3.133   3.924  0.1048 -0.4921  0.0127
 1572SOL    HW2 6060   3.357   3.096   3.915  0.2123  0.2654 -3.4316
 1572SOL    HW3 6061   3.273   3.217   3.878 -3.1188 -1.8169 -3.1454
 1572SOL    MW4 6062   3.281   3.139   3.917 -0.2664  0.3656  0.2598
 1573SOL     OW 6063   4.094   5.704   3.996 -0.6708  0.5032 -0.2199
 1573SOL    HW2 6064   4.075   5.713   4.089  1.8124  0.7104  0.3234
 1573SOL    HW3 6065   4.138   5.620   3.989 -1.1945  0.3041 -1.3037
 1573SOL    MW4 6066   4.097   5.694   4.007  0.0032  0.1566  0.0576
 1574SOL     OW 6067   4.011   5.251   1.386 -0.8391  0.2130 -0.4935
 1574SOL    HW2 6068   4.050   5.305   1.316 -0.5659  0.5838 -0.0616
 1574SOL    HW3 6069   4.084   5.202   1.422 -1.3818 -2.0724 -2.2430
 1574SOL    MW4 6070   4.026   5.252   1.381 -0.2787 -0.1401 -0.0160
 1575SOL     OW 6071   2.875   4.423   5.855  0.3537 -0.5668 -0.1100
 1575SOL    HW2 6072   2.795   4.389   5.815  1.8799 -2.1369 -2.0705
 1575SOL    HW3 6073   2.858   4.516   5.869 -2.4328 -1.2104  1.3248
 1575SOL    MW4 6074   2.863   4.431   5.851 -0.0343  0.0134 -0.1118
 1576SOL     OW 6075   3.600   6.353   4.231  0.2430  0.2058 -0.0868
 1576SOL    HW2 6076   3.634   6.424   4.177  1.6131  0.1885  0.6895
 1576SOL    HW3 6077   3.630   6.375   4.319 -2.4146  0.5285  0.8028
 1576SOL    MW4 6078   3.609   6.365   4.235  0.0158 -0.0979  0.5692
 1577SOL     OW 6079   3.988   1.848   0.400 -0.1024 -0.1815  0.5061
 1577SOL    HW2 6080   4.048   1.916   0.433  0.2351 -1.0102  1.6882
 1577SOL    HW3 6081   4.045   1.774   0.379 -0.5584 -0.4354  0.1488
 1577SOL    MW4 6082   4.004   1.847   0.402  0.8396 -0.0495  0.3202
 1578SOL     OW 6083   4.676   3.802   5.291 -0.0554 -0.6501 -0.1462
 1578SOL    HW2 6084   4.696   3.807   5.198 -0.1189 -0.2953 -0.1439
 1578SOL    HW3 6085   4.684   3.892   5.323 -1.1782 -0.5634 -0.0562
 1578SOL    MW4 6086   4.680   3.814   5.283  0.1843 -0.4691 -0.4761
 1579SOL     OW 6087   5.556   2.085   1.422 -0.1696 -0.0353 -0.0156
 1579SOL    HW2 6088   5.530   2.177   1.415  2.2123  0.7754  0.5283
 1579SOL    HW3 6089   5.513   2.054   1.502 -1.6194  0.3476 -0.6251
 1579SOL    MW4 6090   5.547   2.093   1.432  0.0654 -0.4199 -0.6422
 1580SOL     OW 6091   1.843   2.299   2.910 -0.1768  0.0717  0.1250
 1580SOL    HW2 6092   1.848   2.342   2.995 -0.6238 -0.8613  0.6471
 1580SOL    HW3 6093   1.934   2.295   2.880  0.1238 -0.4761  1.0395
 1580SOL    MW4 6094   1.855   2.304   2.917 -0.2578  0.2802 -0.1136
 1581SOL     OW 6095   4.444   3.771   5.822  0.4870 -0.1439  0.1640
 1581SOL    HW2 6096   4.436   3.692   5.767  2.0603  0.2942 -0.7549
 1581SOL    HW3 6097   4.362   3.817   5.809 -0.4997 -1.6388  0.7655
 1581SOL    MW4 6098   4.432   3.766   5.813  0.3742  0.0582  0.2853
 1582SOL     OW 6099   3.187   1.201   2.680  0.1626  0.3339  0.0729
 1582SOL    HW2 6100   3.165   1.267   2.614  0.6678 -0.2518 -0.6960
 1582SOL    HW3 6101   3.164   1.118   2.640 -2.1502  0.0841  1.6914
 1582SOL    MW4 6102   3.181   1.199   2.666 -0.2871 -0.1290 -0.3483
 1583SOL     OW 6103   2.232   1.784   2.837 -0.2816 -0.1900 -0.0105
 1583SOL    HW2 6104   2.212   1.877   2.844  0.3249 -0.0719  0.1514
 1583SOL    HW3 6105   2.160   1.749   2.784 -1.8491 -0.0835  1.9266
 1583SOL    MW4 6106   2.220   1.792   2.831 -0.2669 -0.2291 -0.1698
 1584SOL     OW 6107   0.643   1.747   3.477  0.8275  0.4826 -0.4506
 1584SOL    HW2 6108   0.556   1.763   3.514  1.8710  0.1309  2.3307
 1584SOL    HW3 6109   0.642   1.653   3.454 -0.4242  1.0556 -3.2912
 1584SOL    MW4 6110   0.631   1.736   3.479 -0.2933  0.0585 -0.6543
 1585SOL     OW 6111   2.618   2.257   4.574  0.2712 -0.3425  0.3673
 1585SOL    HW2 6112   2.619   2.227   4.665  0.7913 -1.7855 -0.0883
 1585SOL    HW3 6113   2.600   2.178   4.523 -5.2498  1.1443 -0.5908
 1585SOL    MW4 6114   2.616   2.243   4.580 -0.1554  0.2038 -0.0867
 1586SOL     OW 6115   1.761   5.110   2.731 -1.2766  0.6991  0.1830
 1586SOL    HW2 6116   1.768   5.090   2.638 -2.4151  0.7793  0.0619
 1586SOL    HW3 6117   1.846   5.087   2.767 -1.4242 -1.1621 -0.5357
 1586SOL    MW4 6118   1.773   5.104   2.723  0.0955 -0.3049 -0.1871
 1587SOL     OW 6119   4.192   3.505   0.770 -0.1751 -0.4225  0.1835
 1587SOL    HW2 6120   4.207   3.547   0.685 -0.7552 -0.0449  0.2581
 1587SOL    HW3 6121   4.245   3.555   0.831 -1.2104  0.5146  0.3470
 1587SOL    MW4 6122   4.201   3.517   0.767 -0.5434 -0.3378  0.2769
 1588SOL     OW 6123   1.990   2.405   5.363  0.4700  0.4693  0.0393
 1588SOL    HW2 6124   2.069   2.351   5.356  1.0539  1.4777 -1.8681
 1588SOL    HW3 6125   1.971   2.407   5.457  1.4998 -1.4796  0.3601
 1588SOL    MW4 6126   1.998   2.398   5.374  0.3710 -0.2910  0.0523
 1589SOL     OW 6127   2.282   4.394   3.649  0.4212 -0.6597 -0.1563
 1589SOL    HW2 6128   2.286   4.467   3.587 -0.8677  0.5709  1.1254
 1589SOL    HW3 6129   2.346   4.418   3.717  0.2382 -0.8931  0.0993
 1589SOL    MW4 6130   2.291   4.407   3.650 -0.0405 -0.5159  0.2164
 1590SOL     OW 6131   1.665   1.305   5.496 -0.2106  0.5199  0.1972
 1590SOL    HW2 6132   1.729   1.238   5.521 -1.1069 -0.6065 -0.3868
 1590SOL    HW3 6133   1.673   1.372   5.563 -0.1761 -0.8066  1.5895
 1590SOL    MW4 6134   1.674   1.305   5.508  0.2317  0.3463  0.3835
 1591SOL     OW 6135   5.295   4.015   3.469  0.4350 -0.3426  0.4418
 1591SOL    HW2 6136   5.199   4.015   3.474  0.4095  0.7710  0.1439
 1591SOL    HW3 6137   5.314   3.987   3.379  0.3697  0.2110  0.2555
 1591SOL    MW4 6138   5.285   4.011   3.457 -0.4227 -0.6369 -0.2095
 1592SOL     OW 6139   5.116   0.499   1.829  0.1740  0.0561 -0.1523
 1592SOL    HW2 6140   5.116   0.510   1.734 -0.9179  3.4446  0.1105
 1592SOL    HW3 6141   5.024   0.485   1.851  0.4717 -1.1163  0.4066
 1592SOL    MW4 6142   5.104   0.499   1.819 -0.3498 -0.2870  0.6197
 1593SOL     OW 6143   0.804   6.299   5.908  0.3634 -0.0502  0.1864
 1593SOL    HW2 6144   0.763   6.336   5.829 -0.4694 -0.3816  0.4533
 1593SOL    HW3 6145   0.791   6.367   5.974 -1.4761 -0.8899  0.7707
 1593SOL    MW4 6146   0.797   6.313   5.906  0.5664 -0.3159  0.0733
 1594SOL     OW 6147   0.305   1.308   5.886  0.3078  0.2261  0.0332
 1594SOL    HW2 6148   0.357   1.389   5.891 -1.8745  1.7233 -0.0925
 1594SOL    HW3 6149   0.292   1.295   5.792  1.2887 -0.7345  0.0181
 1594SOL    MW4 6150   0.310   1.317   5.874 -0.1416 -0.2509 -0.6340
 1595SOL     OW 6151   4.338   5.138   2.869  0.6623 -0.8081 -0.2505
 1595SOL    HW2 6152   4.313   5.069   2.809  0.3588  0.0040 -1.0806
 1595SOL    HW3 6153   4.255   5.176   2.899  0.8119  0.9054 -1.8493
 1595SOL    MW4 6154   4.324   5.134   2.865 -0.3023 -0.2948  0.0246
 1596SOL     OW 6155   5.695   5.379   2.647 -0.1643 -0.0930  0.1283
 1596SOL    HW2 6156   5.637   5.449   2.676 -0.9550  0.9782 -3.5091
 1596SOL    HW3 6157   5.784   5.412   2.664 -0.5215  1.8212 -1.3786
 1596SOL    MW4 6158   5.699   5.392   2.653 -0.7575  0.0954  0.4198
 1597SOL     OW 6159   2.873   4.648   4.677 -0.6108  0.0089 -0.1960
 1597SOL    HW2 6160   2.902   4.730   4.636 -1.3492  0.0950 -0.5699
 1597SOL    HW3 6161   2.879   4.665   4.771 -0.5576  0.4263 -0.2722
 1597SOL    MW4 6162   2.878   4.661   4.684 -0.2262  0.2598 -0.3084
 1598SOL     OW 6163   3.663   4.921   4.669 -0.1089 -0.6566  0.3232
 1598SOL    HW2 6164   3.638   4.866   4.595 -0.1859 -0.6265  0.3274
 1598SOL    HW3 6165   3.690   5.004   4.630 -0.7174 -0.4310  0.3676
 1598SOL    MW4 6166   3.663   4.925   4.654  0.2225  0.0572  0.1632
 1599SOL     OW 6167   4.612   3.117   2.276  0.2227  0.2167  0.2439
 1599SOL    HW2 6168   4.619   3.177   2.351 -0.7896 -0.3823  0.8377
 1599SOL    HW3 6169   4.618   3.174   2.199  0.3988  0.9463  0.7861
 1599SOL    MW4 6170   4.614   3.133   2.276  0.6323  0.3268  0.6311
 1600SOL     OW 6171   3.705   0.609   4.502  0.0444 -0.3948 -0.2260
 1600SOL    HW2 6172   3.621   0.586   4.462  0.1426  0.0198 -0.6769
 1600SOL    HW3 6173   3.737   0.684   4.451 -0.1047  0.5324  0.9998
 1600SOL    MW4 6174   3.698   0.616   4.490 -0.1854 -0.1767 -0.4555
 1601SOL     OW 6175   0.473   1.258   0.554 -0.7866 -0.1323  0.1244
 1601SOL    HW2 6176   0.513   1.220   0.476 -0.2630  1.8180 -0.5996
 1601SOL    HW3 6177   0.537   1.322   0.585 -2.2176  1.1735  0.4734
 1601SOL    MW4 6178   0.487   1.261   0.548 -0.2175  0.5350  0.1286
 1602SOL     OW 6179   4.974   5.606   1.560 -0.4276  0.2394 -0.7082
 1602SOL    HW2 6180   4.920   5.635   1.633 -1.9259  0.2293 -1.7764
 1602SOL    HW3 6181   5.054   5.573   1.601 -0.4323  1.9505  0.8042
 1602SOL    MW4 6182   4.978   5.606   1.575  0.0199 -0.6518 -0.4466
 1603SOL     OW 6183   5.078   2.272   1.014  0.8859 -0.1632 -0.2958
 1603SOL    HW2 6184   5.085   2.215   1.090  0.0420 -1.2160 -0.9865
 1603SOL    HW3 6185   5.031   2.349   1.047  2.0235  0.1626  0.6355
 1603SOL    MW4 6186   5.073   2.275   1.028 -0.7272 -0.7915  0.0978
 1604SOL     OW 6187   1.342   2.926   0.505 -0.6824 -0.3114  0.2975
 1604SOL    HW2 6188   1.248   2.912   0.503 -0.6729 -0.3503 -1.1604
 1604SOL    HW3 6189   1.380   2.840   0.521 -0.8465 -0.7157 -1.3400
 1604SOL    MW4 6190   1.335   2.913   0.507  0.3639 -0.2267 -0.0054
 1605SOL     OW 6191   1.994   3.406   0.234 -0.0533  0.0903 -0.1374
 1605SOL    HW2 6192   1.924   3.470   0.251 -1.1921 -0.9496 -0.7353
 1605SOL    HW3 6193   1.979   3.337   0.299 -0.2152 -0.6249 -0.9266
 1605SOL    MW4 6194   1.983   3.405   0.245 -0.4338  0.1021  0.1861
 1606SOL     OW 6195   0.911   1.057   5.876  0.2173 -0.7531 -0.0865
 1606SOL    HW2 6196   0.948   1.129   5.928 -2.9105  0.0756  1.1863
 1606SOL    HW3 6197   0.951   1.068   5.790  0.9445  1.6390  0.4580
 1606SOL    MW4 6198   0.921   1.068   5.871 -0.2500  0.3844 -0.0571
 1607SOL     OW 6199   4.971   3.219   0.474 -0.1334 -0.1448  0.2233
 1607SOL    HW2 6200   5.015   3.294   0.434 -0.6307  0.5305  0.9190
 1607SOL    HW3 6201   4.905   3.192   0.411  1.0384 -0.9861 -0.7075
 1607SOL    MW4 6202   4.968   3.225   0.461  0.0289  0.1134  0.4062
 1608SOL     OW 6203   5.347   5.226   1.289 -0.0430 -0.2812 -0.1329
 1608SOL    HW2 6204   5.268   5.265   1.325  0.1195 -0.7624  0.7674
 1608SOL    HW3 6205   5.398   5.199   1.365  1.8252  1.5899 -0.6331
 1608SOL    MW4 6206   5.343   5.228   1.304 -0.6259 -0.7971  0.3160
 1609SOL     OW 6207   6.124   4.187   1.782  0.0732  0.2454 -0.0308
 1609SOL    HW2 6208   6.206   4.140   1.767  0.2885  0.6037  0.0218
 1609SOL    HW3 6209   6.056   4.119   1.778  0.4326 -0.1587  0.6107
 1609SOL    MW4 6210   6.125   4.171   1.780  0.3945  0.0235 -0.7745
 1610SOL     OW 6211   0.691   1.726   4.520 -0.1748  0.1986  0.2231
 1610SOL    HW2 6212   0.603   1.716   4.556  0.0943 -0.6688  0.6558
 1610SOL    HW3 6213   0.722   1.809   4.555 -1.1269  0.9208 -0.5957
 1610SOL    MW4 6214   0.683   1.735   4.529  0.0675 -0.0975 -0.1907
 1611SOL     OW 6215   0.546   3.440   2.062 -0.1616 -0.2559 -0.2133
 1611SOL    HW2 6216   0.575   3.441   1.970  0.8883  0.1881  0.0998
 1611SOL    HW3 6217   0.451   3.434   2.057 -0.1323 -0.0809 -1.3406
 1611SOL    MW4 6218   0.538   3.439   2.049 -0.3028  0.2366 -0.1134
 1612SOL     OW 6219   5.369   5.430   4.401 -0.4765 -0.5882  0.2192
 1612SOL    HW2 6220   5.282   5.469   4.399  0.0680  0.6694 -0.0531
 1612SOL    HW3 6221   5.370   5.371   4.326 -0.4757  0.8449 -0.9572
 1612SOL    MW4 6222   5.358   5.428   4.391 -0.2128  0.2133 -0.3802
 1613SOL     OW 6223   0.638   1.765   1.482 -0.0435 -0.4547 -0.2601
 1613SOL    HW2 6224   0.617   1.687   1.432  1.3036 -0.1884 -1.2842
 1613SOL    HW3 6225   0.676   1.825   1.419  0.6012  0.3468  0.8503
 1613SOL    MW4 6226   0.640   1.763   1.467 -0.2276 -0.0075 -0.4012
 1614SOL     OW 6227   4.366   5.315   5.313  0.2355  0.0644  0.1499
 1614SOL    HW2 6228   4.336   5.249   5.251 -0.4789  0.1937  0.3553
 1614SOL    HW3 6229   4.310   5.390   5.297 -0.6949 -0.2753  1.7034
 1614SOL    MW4 6230   4.355   5.316   5.303  0.7200  0.2479  0.0850
 1615SOL     OW 6231   3.187   5.731   5.613  0.0835  0.2375  0.2422
 1615SOL    HW2 6232   3.131   5.791   5.564  0.3081  0.9274  0.8134
 1615SOL    HW3 6233   3.140   5.717   5.695 -1.2676 -2.4553 -0.8550
 1615SOL    MW4 6234   3.173   5.737   5.617 -0.2338  0.6773 -0.5220
 1616SOL     OW 6235   4.952   1.233   2.524  0.0409  0.0809 -0.0633
 1616SOL    HW2 6236   5.008   1.195   2.591 -0.9578 -1.4402 -0.0372
 1616SOL    HW3 6237   4.887   1.285   2.572  0.7152  0.9018 -0.0231
 1616SOL    MW4 6238   4.951   1.235   2.539  0.0145  0.1947 -0.4353
 1617SOL     OW 6239   1.220   5.255   0.342  0.2232 -0.1251  0.1061
 1617SOL    HW2 6240   1.251   5.339   0.378  0.8242 -0.9884  1.6887
 1617SOL    HW3 6241   1.280   5.237   0.269 -0.4299  1.1990 -0.8165
 1617SOL    MW4 6242   1.232   5.264   0.337  0.0614 -0.2311  0.1260
 1618SOL     OW 6243   1.306   5.093   0.593 -0.1586  0.0471 -0.6176
 1618SOL    HW2 6244   1.388   5.114   0.637 -0.1877  0.6542 -0.8551
 1618SOL    HW3 6245   1.292   5.164   0.531  0.0080 -0.9202 -1.8011
 1618SOL    MW4 6246   1.315   5.105   0.591  0.0105 -0.0875  0.2844
 1619SOL     OW 6247   0.299   4.977   3.899 -0.1812  0.3470 -0.5746
 1619SOL    HW2 6248   0.386   5.009   3.924 -1.0538  2.2139  0.2313
 1619SOL    HW3 6249   0.291   4.892   3.942  2.1015 -1.0008 -2.5380
 1619SOL    MW4 6250   0.310   4.970   3.908 -0.4873  0.5300  0.3771
 1620SOL     OW 6251   0.845   4.157   5.914  0.1358 -0.7222 -1.0964
 1620SOL    HW2 6252   0.917   4.100   5.939 -0.6292 -1.5853 -0.8199
 1620SOL    HW3 6253   0.778   4.098   5.879 -0.7291 -0.0172 -0.6857
 1620SOL    MW4 6254   0.846   4.142   5.912 -0.0809 -0.8230  0.3616
 1621SOL     OW 6255   2.063   0.381   5.165  0.4834 -0.1535 -0.2326
 1621SOL    HW2 6256   2.102   0.378   5.077  0.1324  0.8783 -0.4425
 1621SOL    HW3 6257   1.969   0.382   5.149  0.3597  3.5197 -0.0925
 1621SOL    MW4 6258   2.056   0.381   5.151  0.2948  0.1526 -0.1556
 1622SOL     OW 6259   1.908   3.682   5.905  0.2512  0.5930  0.2535
 1622SOL    HW2 6260   1.945   3.633   5.978  0.3694  0.2611 -0.0235
 1622SOL    HW3 6261   1.853   3.618   5.859 -0.3948  0.9884  0.4642
 1622SOL    MW4 6262   1.905   3.667   5.908 -0.2167  0.4879 -0.4195
 1623SOL     OW 6263   4.090   3.934   4.486 -0.3503 -0.2332  0.5085
 1623SOL    HW2 6264   4.104   3.926   4.580 -0.9644  0.8747  0.7128
 1623SOL    HW3 6265   4.045   4.018   4.475  0.0301 -0.1771 -0.8099
 1623SOL    MW4 6266   4.086   3.944   4.497  0.3462  0.2886  0.2747
 1624SOL     OW 6267   4.137   3.566   5.810 -0.0742  0.0981  0.0095
 1624SOL    HW2 6268   4.142   3.587   5.903  1.1844 -1.9251  0.4631
 1624SOL    HW3 6269   4.131   3.470   5.808  0.3525  0.0775 -2.0180
 1624SOL    MW4 6270   4.137   3.556   5.822 -0.8052 -0.5452  0.1530
 1625SOL     OW 6271   0.615   3.579   1.015  0.2018  0.0191  0.1931
 1625SOL    HW2 6272   0.593   3.489   0.991 -2.4479  0.6645 -0.1118
 1625SOL    HW3 6273   0.549   3.604   1.079  1.5114  1.4419  1.0712
 1625SOL    MW4 6274   0.603   3.571   1.020 -0.3213  0.9034 -0.3397
 1626SOL     OW 6275   5.360   4.213   5.439 -0.6772 -0.2074 -0.1518
 1626SOL    HW2 6276   5.452   4.195   5.456 -0.6224 -1.5461 -1.6904
 1626SOL    HW3 6277   5.321   4.127   5.424 -1.8749  0.4526 -0.9717
 1626SOL    MW4 6278   5.367   4.199   5.439  0.0788  0.5198 -0.2384
 1627SOL     OW 6279   2.068   5.669   0.443 -0.2743 -0.0621  0.0002
 1627SOL    HW2 6280   2.140   5.699   0.499  1.6974 -3.9407 -0.0983
 1627SOL    HW3 6281   2.011   5.620   0.502 -0.2884 -0.9019 -0.6977
 1627SOL    MW4 6282   2.070   5.667   0.458 -0.3486  0.2899 -0.5249
 1628SOL     OW 6283   5.448   5.082   4.504  0.1627 -0.2260  0.3473
 1628SOL    HW2 6284   5.382   5.029   4.461 -0.6424 -1.1174  2.5138
 1628SOL    HW3 6285   5.400   5.159   4.535  0.1251 -0.7815  1.7562
 1628SOL    MW4 6286   5.433   5.086   4.503 -0.0569  0.0484 -0.0858
 1629SOL     OW 6287   0.320   2.651   0.685  0.0985  0.0673 -0.8432
 1629SOL    HW2 6288   0.232   2.616   0.693  0.7776 -1.2807  1.6224
 1629SOL    HW3 6289   0.308   2.745   0.681 -1.5002 -0.1387 -2.3098
 1629SOL    MW4 6290   0.307   2.658   0.685  0.0283  0.4409  0.4572
 1630SOL     OW 6291   5.866   4.103   4.449 -0.1539  0.5285 -0.4919
 1630SOL    HW2 6292   5.787   4.116   4.502 -0.2005 -0.1571 -0.3779
 1630SOL    HW3 6293   5.844   4.139   4.363 -0.3669  0.9135 -0.2776
 1630SOL    MW4 6294   5.853   4.110   4.445 -0.2378  0.1588 -0.1110
 1631SOL     OW 6295   1.781   1.716   2.987 -0.4864  0.1401  0.3445
 1631SOL    HW2 6296   1.780   1.632   2.941  0.9761  0.0710  0.3634
 1631SOL    HW3 6297   1.689   1.737   3.003 -0.8985 -1.1382 -0.2359
 1631SOL    MW4 6298   1.769   1.708   2.983 -0.8057  0.6303 -0.0225
 1632SOL     OW 6299   1.462   3.069   1.082 -0.3309 -0.0665  0.2152
 1632SOL    HW2 6300   1.440   2.993   1.136 -0.0182 -0.8290 -0.7013
 1632SOL    HW3 6301   1.407   3.059   1.004 -0.9478  1.1455  0.4775
 1632SOL    MW4 6302   1.452   3.058   1.079  0.4766  0.5465 -0.0510
 1633SOL     OW 6303   0.553   0.999   5.460 -0.2664 -0.7697 -0.8416
 1633SOL    HW2 6304   0.527   0.996   5.368 -1.1085  0.5567 -0.6772
 1633SOL    HW3 6305   0.594   1.085   5.470 -0.6356 -0.6989  0.1322
 1633SOL    MW4 6306   0.555   1.010   5.449 -0.0550 -0.0800  1.0460
 1634SOL     OW 6307   3.677   0.103   1.466 -0.5517 -0.0188  0.3878
 1634SOL    HW2 6308   3.601   0.053   1.494  0.6205 -1.2994  1.4577
 1634SOL    HW3 6309   3.698   0.159   1.541 -0.7263  0.6915 -0.0863
 1634SOL    MW4 6310   3.670   0.104   1.480 -0.7882 -0.1593  0.4004
 1635SOL     OW 6311   3.473   4.880   4.088  0.0302 -0.0131  0.1988
 1635SOL    HW2 6312   3.493   4.971   4.109 -0.5554  0.3373 -0.6660
 1635SOL    HW3 6313   3.440   4.843   4.169 -1.0911  0.9644  0.2225
 1635SOL    MW4 6314   3.471   4.887   4.101 -0.2554  0.5959  0.2987
 1636SOL     OW 6315   5.214   5.760   2.170 -0.3479 -0.2579  0.0447
 1636SOL    HW2 6316   5.247   5.681   2.127  1.1199  0.1227  0.4330
 1636SOL    HW3 6317   5.249   5.832   2.117  0.4075  0.1853  1.1253
 1636SOL    MW4 6318   5.223   5.759   2.157 -0.0949  0.1237  0.0633
 1637SOL     OW 6319   0.339   6.160   2.096 -0.1452  0.4794 -0.1219
 1637SOL    HW2 6320   0.357   6.231   2.157 -0.6151  0.1409  0.4273
 1637SOL    HW3 6321   0.333   6.082   2.152  1.1143 -0.1299 -0.7858
 1637SOL    MW4 6322   0.341   6.159   2.111 -0.1326 -0.1769  0.4094
 1638SOL     OW 6323   4.302   4.229   3.189  0.1639 -0.5624 -0.4881
 1638SOL    HW2 6324   4.224   4.181   3.217 -2.7835  2.5568 -2.5766
 1638SOL    HW3 6325   4.305   4.307   3.243  1.7697 -0.5024 -0.5952
 1638SOL    MW4 6326   4.292   4.233   3.200 -0.6899 -0.0452  0.0605
 1639SOL     OW 6327   1.810   1.089   1.107  0.5912  0.5861 -0.2927
 1639SOL    HW2 6328   1.795   1.032   1.182  0.5617  0.0676 -0.6901
 1639SOL    HW3 6329   1.728   1.087   1.058  0.9321  0.1294 -0.8653
 1639SOL    MW4 6330   1.797   1.081   1.110  0.2254  0.1491  0.0595
 1640SOL     OW 6331   3.127   1.008   0.423 -0.2273 -0.5130  0.4220
 1640SOL    HW2 6332   3.197   1.070   0.444 -1.0704 -0.2662  2.8610
 1640SOL    HW3 6333   3.100   1.032   0.334  3.5516 -1.4626 -1.1911
 1640SOL    MW4 6334   3.133   1.020   0.414  0.2326 -0.0251 -0.3585
 1641SOL     OW 6335   3.092   3.470   5.531 -0.1461  0.0099 -0.0577
 1641SOL    HW2 6336   3.011   3.521   5.525  0.6015  1.2505  0.0581
 1641SOL    HW3 6337   3.112   3.467   5.624  1.6761  2.6161 -0.2673
 1641SOL    MW4 6338   3.084   3.476   5.542 -0.2972  0.3998  0.4048
 1642SOL     OW 6339   1.104   2.222   0.187  0.4626  0.0301  0.4890
 1642SOL    HW2 6340   1.025   2.202   0.237  0.4565 -0.4293  0.2991
 1642SOL    HW3 6341   1.176   2.213   0.251  0.2402  2.0261  1.0725
 1642SOL    MW4 6342   1.103   2.218   0.202  0.3860 -0.3130  0.3745
 1643SOL     OW 6343   1.556   2.152   4.145 -0.0913 -0.3761  0.2781
 1643SOL    HW2 6344   1.499   2.219   4.107  0.6884 -0.2720 -0.7459
 1643SOL    HW3 6345   1.498   2.101   4.202 -0.9518  0.4254  0.1466
 1643SOL    MW4 6346   1.541   2.154   4.148 -0.6668 -0.2045 -0.1536
 1644SOL     OW 6347   5.812   1.976   5.885  0.1979 -0.2291 -0.2091
 1644SOL    HW2 6348   5.822   1.989   5.790  0.4349 -0.3163 -0.1972
 1644SOL    HW3 6349   5.875   1.908   5.906  1.5173  1.0944  0.3316
 1644SOL    MW4 6350   5.821   1.969   5.875 -0.0384 -0.5696  1.2087
 1645SOL     OW 6351   2.799   3.108   5.939  0.0365  0.3323 -0.5423
 1645SOL    HW2 6352   2.867   3.084   6.002  0.2196 -0.3051 -0.9774
 1645SOL    HW3 6353   2.777   3.027   5.894 -0.5050  0.6702 -0.9067
 1645SOL    MW4 6354   2.805   3.094   5.941 -0.5712  0.1817 -0.0464
 1646SOL     OW 6355   0.894   1.679   6.179  0.0699  0.4373 -0.6321
 1646SOL    HW2 6356   0.898   1.774   6.171 -0.3603  0.4799 -0.3302
 1646SOL    HW3 6357   0.970   1.648   6.129  1.8219  1.0624  1.4759
 1646SOL    MW4 6358   0.905   1.687   6.171 -0.0745 -0.1351 -0.0729
 1647SOL     OW 6359   5.204   5.873   1.248  0.4183  0.5620 -0.2605
 1647SOL    HW2 6360   5.158   5.831   1.176 -0.5248 -0.1016  0.7139
 1647SOL    HW3 6361   5.278   5.815   1.267 -0.8378 -0.6733  1.0329
 1647SOL    MW4 6362   5.208   5.860   1.241 -0.8471  0.0174  0.0622
 1648SOL     OW 6363   4.886   4.511   4.650  0.0348  0.6004  0.0410
 1648SOL    HW2 6364   4.872   4.569   4.726 -1.9580  0.0558  0.1511
 1648SOL    HW3 6365   4.822   4.541   4.585 -0.5176 -0.9659 -0.1824
 1648SOL    MW4 6366   4.875   4.523   4.652 -0.0105 -0.0238  0.6650
 1649SOL     OW 6367   6.378   5.492   0.567 -0.3362  0.0187 -0.7731
 1649SOL    HW2 6368   6.423   5.541   0.499  0.0396  0.6448 -0.0954
 1649SOL    HW3 6369   6.285   5.508   0.552 -0.2048  1.4842 -0.1883
 1649SOL    MW4 6370   6.372   5.500   0.556  0.1588  0.1870 -0.2331
 1650SOL     OW 6371   4.561   0.880   4.233  0.3836 -0.1002 -0.2804
 1650SOL    HW2 6372   4.495   0.827   4.278 -0.6023  1.0076 -0.3708
 1650SOL    HW3 6373   4.561   0.847   4.143 -0.9590  0.6829 -0.5953
 1650SOL    MW4 6374   4.552   0.869   4.227 -0.7968  0.2779 -0.7688
 1651SOL     OW 6375   5.123   6.371   1.354 -0.6144 -0.1576 -0.6611
 1651SOL    HW2 6376   5.148   6.463   1.343  1.0215 -0.5938 -0.8027
 1651SOL    HW3 6377   5.043   6.374   1.406  0.3610  1.3000  0.8392
 1651SOL    MW4 6378   5.116   6.384   1.360 -0.6131 -0.4438 -0.2397
 1652SOL     OW 6379   5.549   2.407   3.807 -0.0195  0.0546 -0.5027
 1652SOL    HW2 6380   5.548   2.330   3.750 -0.0020  1.2974 -2.2629
 1652SOL    HW3 6381   5.507   2.475   3.755 -1.1905  0.9446  1.4965
 1652SOL    MW4 6382   5.543   2.406   3.793  0.4431 -0.1164  0.2529
 1653SOL     OW 6383   5.841   2.347   5.026 -0.0895  0.2639 -0.4972
 1653SOL    HW2 6384   5.828   2.306   4.940  0.8684  2.2757 -1.6878
 1653SOL    HW3 6385   5.820   2.278   5.089 -0.5168 -1.3876 -2.3368
 1653SOL    MW4 6386   5.837   2.333   5.023  0.0385  0.1244 -0.1045
 1654SOL     OW 6387   2.870   1.150   5.611  0.1723 -0.2686  0.1211
 1654SOL    HW2 6388   2.918   1.217   5.564  0.0516 -1.6014 -2.0174
 1654SOL    HW3 6389   2.783   1.148   5.570 -0.3150 -0.7474  1.1285
 1654SOL    MW4 6390   2.865   1.158   5.600 -0.3749  0.3136  0.2728
 1655SOL     OW 6391   2.528   0.653   6.318  0.2092 -0.0794 -0.8457
 1655SOL    HW2 6392   2.621   0.652   6.294  0.9709 -0.3239  1.8024
 1655SOL    HW3 6393   2.506   0.561   6.334 -0.0011  0.1342  0.1496
 1655SOL    MW4 6394   2.538   0.641   6.317  0.7013 -0.5247  0.5344
 1656SOL     OW 6395   5.735   1.611   2.939 -0.0523  0.0410  0.1522
 1656SOL    HW2 6396   5.803   1.640   2.879 -2.0959 -0.6510 -2.7591
 1656SOL    HW3 6397   5.760   1.647   3.024  4.6704 -1.4470 -0.3154
 1656SOL    MW4 6398   5.747   1.620   2.942 -0.3018  0.2522 -0.4669
 1657SOL     OW 6399   4.836   1.220   0.416 -0.0778 -0.0302  0.4621
 1657SOL    HW2 6400   4.817   1.272   0.494  0.2187 -1.2168  1.3628
 1657SOL    HW3 6401   4.889   1.147   0.449 -0.3050 -0.7829 -0.7803
 1657SOL    MW4 6402   4.841   1.217   0.431 -0.2127  0.4905  0.1735
 1658SOL     OW 6403   1.283   0.994   4.313 -0.6717  0.7803 -0.2584
 1658SOL    HW2 6404   1.304   0.991   4.406  0.7718 -0.3034 -0.5754
 1658SOL    HW3 6405   1.352   0.943   4.271 -1.9096  0.2812 -1.8187
 1658SOL    MW4 6406   1.295   0.987   4.320 -0.6428 -0.8407 -0.1512
 1659SOL     OW 6407   4.995   5.117   5.268 -0.5039 -0.1115 -0.0256
 1659SOL    HW2 6408   5.063   5.103   5.202  0.3023 -0.2667  0.8155
 1659SOL    HW3 6409   4.934   5.044   5.256 -0.7022  0.1976 -0.9930
 1659SOL    MW4 6410   4.996   5.106   5.258  0.3644  0.6736  0.4330
 1660SOL     OW 6411   3.416   1.582   5.920  0.3294 -0.0855  0.0909
 1660SOL    HW2 6412   3.430   1.510   5.859 -4.3393 -2.3553  1.2094
 1660SOL    HW3 6413   3.347   1.635   5.879 -0.6669  0.1176  1.8997
 1660SOL    MW4 6414   3.409   1.579   5.907 -0.2090 -0.2533 -0.3751
 1661SOL     OW 6415   1.353   4.904   2.659  0.4760 -0.4437 -0.0001
 1661SOL    HW2 6416   1.288   4.834   2.661  0.8615 -0.8609 -1.2195
 1661SOL    HW3 6417   1.430   4.867   2.702  0.9356 -1.0688 -1.3065
 1661SOL    MW4 6418   1.354   4.890   2.665  0.1751  0.2764  0.0387
 1662SOL     OW 6419   2.177   3.029   4.720  0.4323  0.0107  0.0871
 1662SOL    HW2 6420   2.167   2.951   4.665 -2.0619 -0.0159  0.4623
 1662SOL    HW3 6421   2.199   2.994   4.807 -2.5422 -0.5374  0.7302
 1662SOL    MW4 6422   2.179   3.014   4.724  0.2453 -0.7170 -0.4798
 1663SOL     OW 6423   4.180   1.303   3.992  0.0215  0.6857  0.4107
 1663SOL    HW2 6424   4.250   1.238   3.988 -2.0641 -1.7553  0.5997
 1663SOL    HW3 6425   4.183   1.336   4.082 -0.3885 -1.0631  1.1149
 1663SOL    MW4 6426   4.189   1.298   4.003 -0.4213  0.3146 -0.2914
 1664SOL     OW 6427   4.656   4.092   1.808 -0.1904  0.0401 -0.3301
 1664SOL    HW2 6428   4.680   4.035   1.734 -0.6864 -0.1729 -0.3299
 1664SOL    HW3 6429   4.612   4.033   1.869  0.5006  0.1504  0.2822
 1664SOL    MW4 6430   4.653   4.077   1.806  0.0937  0.0886  0.4488
 1665SOL     OW 6431   1.807   6.090   1.554 -0.4487 -0.0262 -0.3060
 1665SOL    HW2 6432   1.723   6.093   1.600 -0.5107 -1.6950 -0.2232
 1665SOL    HW3 6433   1.863   6.037   1.611 -0.4077 -1.8278 -1.9130
 1665SOL    MW4 6434   1.803   6.083   1.567 -0.2431  0.1358 -0.1253
 1666SOL     OW 6435   4.212   1.488   0.849 -0.0167 -0.1931 -0.3969
 1666SOL    HW2 6436   4.253   1.416   0.801 -2.2443 -0.7321 -1.6260
 1666SOL    HW3 6437   4.126   1.499   0.807 -0.8001  1.4320  1.4765
 1666SOL    MW4 6438   4.206   1.480   0.837  0.4658  0.2332  0.2272
 1667SOL     OW 6439   2.051   0.596   2.563 -0.4056 -0.1762  0.0390
 1667SOL    HW2 6440   2.126   0.576   2.618  0.2890  2.0644 -0.0115
 1667SOL    HW3 6441   1.975   0.589   2.622  0.1553  0.5335  0.8528
 1667SOL    MW4 6442   2.051   0.592   2.578 -0.0477  0.4686  0.1448
 1668SOL     OW 6443   3.450   2.363   4.360  0.2122 -0.1775 -0.1276
 1668SOL    HW2 6444   3.463   2.357   4.265 -0.9981  0.1196 -0.3180
 1668SOL    HW3 6445   3.378   2.303   4.378  0.5043 -0.3063  0.6221
 1668SOL    MW4 6446   3.442   2.354   4.350  0.2416  0.9094  0.1110
 1669SOL     OW 6447   1.359   2.427   4.745  0.0301 -0.8942 -0.0615
 1669SOL    HW2 6448   1.386   2.477   4.822 -0.8535  0.0345 -0.3406
 1669SOL    HW3 6449   1.386   2.481   4.671 -4.0657  1.0627 -0.4000
 1669SOL    MW4 6450   1.366   2.441   4.745  0.0600  0.2379  0.1371
 1670SOL     OW 6451   5.345   4.383   0.534  0.1682  0.3902  0.0019
 1670SOL    HW2 6452   5.258   4.355   0.504 -0.4080  0.9457  1.0988
 1670SOL    HW3 6453   5.363   4.328   0.611  1.6106 -0.9982 -1.2455
 1670SOL    MW4 6454   5.336   4.372   0.540  0.1689  0.6362  0.3528
 1671SOL     OW 6455   2.437   1.460   5.891 -0.1078  0.4436 -0.1959
 1671SOL    HW2 6456   2.359   1.412   5.919 -0.1855  0.9980  0.5533
 1671SOL    HW3 6457   2.483   1.482   5.972  1.3769 -0.7503 -0.6687
 1671SOL    MW4 6458   2.433   1.457   5.905  0.2553 -0.1317  0.5113
 1672SOL     OW 6459   0.730   0.556   6.329  0.6871  0.8220  0.3619
 1672SOL    HW2 6460   0.684   0.638   6.348  0.6336  0.8782 -0.0043
 1672SOL    HW3 6461   0.823   0.578   6.335  0.7063  1.2597 -1.1155
 1672SOL    MW4 6462   0.736   0.570   6.332 -0.0735 -0.1689  0.3670
 1673SOL     OW 6463   5.717   6.194   2.201  0.3945  0.3717  0.0337
 1673SOL    HW2 6464   5.646   6.250   2.168 -0.1244  0.2525  0.9313
 1673SOL    HW3 6465   5.764   6.250   2.263  1.2591  0.5363 -0.7469
 1673SOL    MW4 6466   5.714   6.209   2.205  0.4535  0.3468 -0.1770
 1674SOL     OW 6467   4.491   3.732   0.681 -0.3996  0.3148  0.0986
 1674SOL    HW2 6468   4.418   3.793   0.682 -0.4352  0.3016 -0.8114
 1674SOL    HW3 6469   4.472   3.672   0.608 -1.5772 -2.2974  2.3822
 1674SOL    MW4 6470   4.479   3.732   0.671 -0.1725 -0.0315  0.0831
 1675SOL     OW 6471   3.975   3.224   0.843  0.3725 -0.0559  0.7003
 1675SOL    HW2 6472   4.035   3.180   0.782 -0.0301 -0.4259  0.5720
 1675SOL    HW3 6473   3.957   3.308   0.801  1.9779  0.7134  1.4416
 1675SOL    MW4 6474   3.981   3.229   0.829 -0.4459 -0.1503  0.1621
 1676SOL     OW 6475   1.504   5.348   5.203  0.9853  0.0219 -0.0935
 1676SOL    HW2 6476   1.496   5.376   5.294 -2.2441  1.5254 -0.7069
 1676SOL    HW3 6477   1.466   5.260   5.201 -1.1004  0.8800 -0.2930
 1676SOL    MW4 6478   1.498   5.340   5.215  0.1789  0.3928  0.2728
 1677SOL     OW 6479   4.561   1.586   1.710 -0.0065 -0.8058 -0.1114
 1677SOL    HW2 6480   4.469   1.564   1.696 -0.0169 -1.4766  0.9056
 1677SOL    HW3 6481   4.560   1.678   1.736 -0.5463 -1.1692  1.2496
 1677SOL    MW4 6482   4.549   1.596   1.712 -0.3106 -0.1121  0.4133
 1678SOL     OW 6483   5.602   5.817   2.886  0.3992  0.0609  0.3617
 1678SOL    HW2 6484   5.638   5.842   2.801  0.4809 -0.8011  0.1274
 1678SOL    HW3 6485   5.613   5.894   2.941  0.6787  0.5061 -0.3093
 1678SOL    MW4 6486   5.608   5.830   2.882 -0.2179  0.3680  0.3195
 1679SOL     OW 6487   2.015   0.819   0.281 -0.7596 -0.7726 -0.2255
 1679SOL    HW2 6488   2.066   0.898   0.264  0.8282 -1.5615  0.6253
 1679SOL    HW3 6489   1.925   0.850   0.287 -0.3148  0.7969 -0.9958
 1679SOL    MW4 6490   2.010   0.833   0.280 -0.0257 -0.1486  0.0054
 1680SOL     OW 6491   2.275   2.623   3.920  0.7697 -0.6508  0.0884
 1680SOL    HW2 6492   2.314   2.653   4.002 -0.3969 -0.9623  0.7814
 1680SOL    HW3 6493   2.186   2.661   3.921  1.7292  2.0961 -2.5752
 1680SOL    MW4 6494   2.268   2.632   3.931 -0.6795  0.1176 -0.0414
 1681SOL     OW 6495   3.549   3.305   1.618 -0.1264 -0.0452  0.1091
 1681SOL    HW2 6496   3.458   3.325   1.596  0.1898  1.6011  0.1745
 1681SOL    HW3 6497   3.593   3.300   1.533 -0.3781 -1.5260  0.0385
 1681SOL    MW4 6498   3.543   3.307   1.604 -0.2787 -0.3735  0.0367
 1682SOL     OW 6499   4.301   0.991   5.760  0.3585  0.1389 -0.2522
 1682SOL    HW2 6500   4.236   0.970   5.826 -0.1065  1.0138 -0.4221
 1682SOL    HW3 6501   4.251   1.027   5.687  0.9999  0.5174 -0.5151
 1682SOL    MW4 6502   4.286   0.993   5.759  0.1997 -0.6283  0.3213
 1683SOL     OW 6503   4.791   3.414   3.024 -0.3695  0.1259 -0.3719
 1683SOL    HW2 6504   4.775   3.486   3.085  1.1726  1.1811 -1.1324
 1683SOL    HW3 6505   4.706   3.400   2.982 -1.2828 -0.1529  1.4679
 1683SOL    MW4 6506   4.778   3.422   3.026  0.4618 -0.0343  0.6584
 1684SOL     OW 6507   5.260   3.960   5.355 -0.3737  0.0415 -0.3570
 1684SOL    HW2 6508   5.351   3.944   5.330  0.2160  0.0303  1.6143
 1684SOL    HW3 6509   5.208   3.908   5.293  1.0637 -1.6441 -0.2199
 1684SOL    MW4 6510   5.265   3.951   5.343 -0.3721 -0.2095  0.4925
 1685SOL     OW 6511   1.708   3.405   1.046 -0.0616 -0.6074 -0.6427
 1685SOL    HW2 6512   1.762   3.461   1.102  0.5089 -2.4312  0.7220
 1685SOL    HW3 6513   1.771   3.352   0.997 -0.5743 -1.7693 -0.0763
 1685SOL    MW4 6514   1.724   3.406   1.047 -0.0498  0.3524  0.1467
 1686SOL     OW 6515   5.676   5.830   3.482  0.0699  0.0537 -0.3340
 1686SOL    HW2 6516   5.642   5.747   3.448  0.8526 -0.1600 -0.6153
 1686SOL    HW3 6517   5.601   5.890   3.477 -0.7935 -0.8625  0.7644
 1686SOL    MW4 6518   5.661   5.827   3.477 -0.3086 -0.1779 -0.0692
 1687SOL     OW 6519   0.021   4.846   5.454 -0.1790 -0.2592 -0.5355
 1687SOL    HW2 6520  -0.055   4.900   5.432  0.1970 -0.1859 -1.7582
 1687SOL    HW3 6521   0.076   4.850   5.376  1.6777  0.6952  0.7508
 1687SOL    MW4 6522   0.018   4.854   5.441 -0.3541  0.2226  0.4542
 1688SOL     OW 6523   0.211   3.066   5.155 -0.1943 -0.4715 -0.7984
 1688SOL    HW2 6524   0.306   3.075   5.153 -0.2690  0.5795 -0.2164
 1688SOL    HW3 6525   0.185   3.098   5.242 -0.9097 -2.6353 -0.1643
 1688SOL    MW4 6526   0.220   3.072   5.166 -0.1265  0.0034 -0.2119
 1689SOL     OW 6527   1.197   1.364   5.671 -0.1402  0.3574  0.1207
 1689SOL    HW2 6528   1.283   1.325   5.657 -0.2619  0.0335  0.2826
 1689SOL    HW3 6529   1.214   1.438   5.731 -0.1361 -0.3958  1.0765
 1689SOL    MW4 6530   1.211   1.369   5.677 -0.2547  0.2933  0.6486
 1690SOL     OW 6531   5.256   4.359   1.158  0.3093  0.1114 -0.1844
 1690SOL    HW2 6532   5.255   4.403   1.243 -1.8409 -1.0988  0.4965
 1690SOL    HW3 6533   5.342   4.316   1.155 -0.2867 -1.5282  2.3743
 1690SOL    MW4 6534   5.267   4.359   1.169 -0.0419 -0.3014 -0.2451
 1691SOL     OW 6535   1.010   3.174   3.349  0.3519 -0.4001 -0.4512
 1691SOL    HW2 6536   1.016   3.156   3.443 -0.1678  0.7630 -0.1844
 1691SOL    HW3 6537   1.100   3.191   3.322  0.2028  2.2698  0.4864
 1691SOL    MW4 6538   1.022   3.174   3.358  0.0095 -0.4401 -0.2077
 1692SOL     OW 6539   4.599   0.933   2.013  0.5318  0.3396  0.6767
 1692SOL    HW2 6540   4.683   0.977   2.030  0.4750  0.5295  0.4714
 1692SOL    HW3 6541   4.541   0.965   2.082 -0.5779  3.4365 -1.4398
 1692SOL    MW4 6542   4.603   0.943   2.024  0.0754  0.2467 -0.0993
 1693SOL     OW 6543   2.675   1.982   3.398 -0.5374 -0.0016  0.0011
 1693SOL    HW2 6544   2.685   1.887   3.400 -0.6258 -0.0109  1.5627
 1693SOL    HW3 6545   2.606   2.000   3.462  0.2254  1.1751  0.5387
 1693SOL    MW4 6546   2.668   1.972   3.407 -0.0080 -0.1583 -0.0302
 1694SOL     OW 6547   5.229   2.951   5.237  0.5930  0.0995 -0.2490
 1694SOL    HW2 6548   5.189   2.868   5.210  1.6425 -0.1804 -1.0072
 1694SOL    HW3 6549   5.168   3.018   5.204 -0.1802 -0.3478  0.2323
 1694SOL    MW4 6550   5.216   2.949   5.229  0.1409  0.3584 -0.8216
 1695SOL     OW 6551   5.138   6.287   5.958 -0.3959 -0.0543 -0.6289
 1695SOL    HW2 6552   5.189   6.226   6.011 -0.9177  0.9854  1.1259
 1695SOL    HW3 6553   5.068   6.233   5.921 -0.8780 -0.5614  0.9341
 1695SOL    MW4 6554   5.135   6.272   5.960  0.3489 -0.2927 -0.1306
 1696SOL     OW 6555   6.017   4.285   0.674  0.5672 -0.3543  0.4263
 1696SOL    HW2 6556   5.937   4.336   0.661  0.4159 -0.5125  0.7250
 1696SOL    HW3 6557   6.073   4.342   0.727  0.8509 -0.0464 -0.1909
 1696SOL    MW4 6558   6.014   4.299   0.680  0.2691 -0.1989  0.0760
 1697SOL     OW 6559   6.272   4.679   3.429 -0.0712  0.6890  0.3656
 1697SOL    HW2 6560   6.343   4.737   3.400  0.8028 -1.1607 -1.4780
 1697SOL    HW3 6561   6.317   4.600   3.457 -1.2593  0.6706  2.3982
 1697SOL    MW4 6562   6.288   4.676   3.429 -0.1086 -0.6437  0.3825
 1698SOL     OW 6563   4.578   5.559   0.172  0.6876  0.4035 -0.1365
 1698SOL    HW2 6564   4.564   5.548   0.266  0.8225 -0.6100 -0.2207
 1698SOL    HW3 6565   4.662   5.604   0.165  1.2451 -0.5478  0.2163
 1698SOL    MW4 6566   4.587   5.563   0.184  0.1404 -0.3345 -0.2565
 1699SOL     OW 6567   0.928   2.750   1.696 -0.1996  0.0264  0.4241
 1699SOL    HW2 6568   0.978   2.762   1.615  0.4595 -2.1327  0.4366
 1699SOL    HW3 6569   0.837   2.744   1.666 -0.2594  1.6994  0.1583
 1699SOL    MW4 6570   0.922   2.751   1.681  0.0290 -0.4555 -0.4311
 1700SOL     OW 6571   1.038   3.715   0.284  0.1140 -0.3839 -0.3881
 1700SOL    HW2 6572   1.008   3.695   0.195 -2.1373  0.9908  0.0116
 1700SOL    HW3 6573   0.978   3.667   0.341  1.1402 -0.7270  0.4363
 1700SOL    MW4 6574   1.026   3.706   0.280  0.8911  0.0297 -0.4556
 1701SOL     OW 6575   1.766   1.476   4.963 -0.8890 -0.2515  0.8340
 1701SOL    HW2 6576   1.840   1.458   4.905 -0.1063  1.4630  1.2213
 1701SOL    HW3 6577   1.698   1.511   4.906 -0.4039  0.6834  0.7973
 1701SOL    MW4 6578   1.767   1.478   4.948  0.6725 -0.7079  0.1005
 1702SOL     OW 6579   0.303   3.568   3.999  0.8513 -0.2063  0.1339
 1702SOL    HW2 6580   0.320   3.516   3.921  0.4720  1.1817 -0.9211
 1702SOL    HW3 6581   0.245   3.514   4.052 -1.2062 -0.1413 -1.8587
 1702SOL    MW4 6582   0.297   3.554   3.996  0.5980  0.3503  0.1224
 1703SOL     OW 6583   2.223   1.815   3.438 -0.3613  0.6631 -0.8457
 1703SOL    HW2 6584   2.222   1.838   3.345 -0.5783 -0.1198 -1.0447
 1703SOL    HW3 6585   2.301   1.860   3.473  1.4252 -1.3023 -2.0350
 1703SOL    MW4 6586   2.233   1.824   3.430  0.0625 -0.1497  0.1083
 1704SOL     OW 6587   2.863   5.476   3.544 -0.5955 -0.2470  0.0632
 1704SOL    HW2 6588   2.833   5.567   3.535  0.9767  0.3485  0.5779
 1704SOL    HW3 6589   2.924   5.478   3.618  2.3232 -0.9256 -2.1489
 1704SOL    MW4 6590   2.867   5.488   3.553  0.1950 -0.4094 -0.1364
 1705SOL     OW 6591   4.170   1.646   0.389 -0.1482 -0.1445 -0.4950
 1705SOL    HW2 6592   4.197   1.614   0.302  1.4508  1.6470 -0.7314
 1705SOL    HW3 6593   4.242   1.620   0.447 -0.0772  0.6823 -0.1965
 1705SOL    MW4 6594   4.183   1.638   0.385 -0.2685 -0.0228 -0.1809
 1706SOL     OW 6595   1.170   4.756   6.091  0.3358  0.1465  0.1024
 1706SOL    HW2 6596   1.174   4.778   6.184  1.1310 -2.1422  0.6722
 1706SOL    HW3 6597   1.079   4.733   6.075  0.1774  0.6411  0.2736
 1706SOL    MW4 6598   1.158   4.756   6.101 -0.2739  0.6623  0.1777
 1707SOL     OW 6599   0.723   2.251   6.037 -0.0324  0.1344  0.2778
 1707SOL    HW2 6600   0.785   2.307   6.084  0.0055 -1.3206  2.0648
 1707SOL    HW3 6601   0.777   2.189   5.989 -0.0659 -0.3931  0.9025
 1707SOL    MW4 6602   0.738   2.250   6.037  0.3296 -0.3446  0.2578
 1708SOL     OW 6603   3.953   2.071   2.784 -0.0972  0.1868 -0.3212
 1708SOL    HW2 6604   4.016   1.999   2.774  0.8341  0.9415 -0.0325
 1708SOL    HW3 6605   3.983   2.138   2.723 -1.3030  0.1148 -1.0213
 1708SOL    MW4 6606   3.965   2.070   2.775  0.0897 -0.0897  0.7594
 1709SOL     OW 6607   0.383   3.059   1.455 -0.1692  0.3326  0.1615
 1709SOL    HW2 6608   0.324   3.031   1.525  0.3506 -0.5756  0.2567
 1709SOL    HW3 6609   0.369   2.995   1.385 -0.0837  0.7491 -0.2434
 1709SOL    MW4 6610   0.374   3.047   1.455  0.0723 -0.1028 -0.4846
 1710SOL     OW 6611   0.368   2.116   3.719 -0.3241 -0.4252  0.2221
 1710SOL    HW2 6612   0.282   2.159   3.720 -0.0950  0.0281  0.5791
 1710SOL    HW3 6613   0.431   2.188   3.717  0.0526 -0.7543  0.1899
 1710SOL    MW4 6614   0.365   2.131   3.719  0.3140 -0.0376 -0.0398
 1711SOL     OW 6615   4.045   2.434   4.515  0.1772 -0.3604 -0.3160
 1711SOL    HW2 6616   4.016   2.400   4.599 -1.9038 -0.1141 -0.8806
 1711SOL    HW3 6617   4.085   2.518   4.535  0.5867 -0.7522  0.5228
 1711SOL    MW4 6618   4.046   2.441   4.529 -0.2889 -0.5850 -0.2511
 1712SOL     OW 6619   2.833   2.901   4.596  0.4213  0.1197 -0.6915
 1712SOL    HW2 6620   2.783   2.983   4.593  0.8238  0.3593 -0.9712
 1712SOL    HW3 6621   2.918   2.924   4.559  0.8257 -0.2266  0.0150
 1712SOL    MW4 6622   2.837   2.915   4.591  0.2727 -0.0212  0.6578
 1713SOL     OW 6623   6.283   2.279   6.065 -0.4403  0.0399 -0.0768
 1713SOL    HW2 6624   6.318   2.190   6.064 -0.3736 -0.0784  2.9761
 1713SOL    HW3 6625   6.359   2.335   6.050  0.2531 -0.3687  1.6163
 1713SOL    MW4 6626   6.297   2.274   6.063 -0.0386 -0.3178  0.5809
 1714SOL     OW 6627   4.231   1.698   3.027 -0.6886 -0.0026 -0.4458
 1714SOL    HW2 6628   4.299   1.631   3.034 -0.4118 -0.0300 -2.6965
 1714SOL    HW3 6629   4.150   1.651   3.049 -0.2315 -0.4518  0.3387
 1714SOL    MW4 6630   4.229   1.683   3.031  0.5336  0.1838  0.3965
 1715SOL     OW 6631   4.439   1.164   0.273  0.2290  0.8150  0.0054
 1715SOL    HW2 6632   4.417   1.071   0.270 -0.0866  0.8475  0.9712
 1715SOL    HW3 6633   4.398   1.201   0.194 -3.0456  0.8295  1.5443
 1715SOL    MW4 6634   4.431   1.157   0.262 -0.4527 -0.2903 -0.1355
 1716SOL     OW 6635   2.646   5.928   1.178 -0.0436 -0.0259  0.0628
 1716SOL    HW2 6636   2.686   5.842   1.166  1.0817  0.6783 -1.9341
 1716SOL    HW3 6637   2.559   5.920   1.139  0.3844 -0.0754 -0.9332
 1716SOL    MW4 6638   2.640   5.916   1.171  0.1699  0.2716 -0.0307
 1717SOL     OW 6639   3.067   4.483   4.921 -0.3451  0.8935 -0.0366
 1717SOL    HW2 6640   3.085   4.483   4.827 -1.7417 -1.3103 -0.3750
 1717SOL    HW3 6641   3.065   4.390   4.945 -2.3316  1.3084  1.6710
 1717SOL    MW4 6642   3.069   4.470   4.911 -0.3110 -0.2850  0.6081
 1718SOL     OW 6643   1.299   0.679   3.059  0.5202 -0.1242  0.1217
 1718SOL    HW2 6644   1.352   0.604   3.033  0.5775  0.2629 -0.9160
 1718SOL    HW3 6645   1.266   0.656   3.146  1.7975 -0.6742  0.4750
 1718SOL    MW4 6646   1.302   0.666   3.067  0.3556 -0.1436  0.4464
 1719SOL     OW 6647   3.599   1.783   5.544  0.2240  0.3626 -0.2315
 1719SOL    HW2 6648   3.601   1.875   5.571  1.3310 -0.1449  1.5846
 1719SOL    HW3 6649   3.679   1.773   5.491  0.4741  0.2856  0.1591
 1719SOL    MW4 6650   3.610   1.794   5.540 -0.0500  0.4070  0.4530
 1720SOL     OW 6651   2.009   3.500   6.089 -0.4980  0.0008  0.6520
 1720SOL    HW2 6652   1.969   3.414   6.087 -2.1792  0.6961  2.2943
 1720SOL    HW3 6653   2.098   3.484   6.120 -0.4290 -1.2275 -0.1062
 1720SOL    MW4 6654   2.016   3.487   6.093 -0.2228  0.5436  0.6922
 1721SOL     OW 6655   3.671   3.807   4.236 -0.5857 -0.4300  0.0308
 1721SOL    HW2 6656   3.633   3.735   4.185  0.0196 -1.0210  0.4084
 1721SOL    HW3 6657   3.731   3.764   4.298  0.6266  0.4850 -0.4837
 1721SOL    MW4 6658   3.674   3.792   4.238  0.2415 -0.2537  0.1968
 1722SOL     OW 6659   3.605   1.756   3.009 -0.4074 -0.3243 -0.1938
 1722SOL    HW2 6660   3.618   1.748   3.103 -0.7526  0.8386 -0.0311
 1722SOL    HW3 6661   3.681   1.713   2.970 -1.2371 -2.6285  0.5558
 1722SOL    MW4 6662   3.616   1.749   3.016  0.3075 -0.2812  0.3554
 1723SOL     OW 6663   0.774   2.163   3.949  0.2926 -0.4363 -0.2220
 1723SOL    HW2 6664   0.821   2.153   4.032  4.0376  1.1338 -1.9118
 1723SOL    HW3 6665   0.757   2.074   3.920  3.6751 -1.2555 -0.0886
 1723SOL    MW4 6666   0.778   2.150   3.956  0.2363  0.1937 -0.2236
 1724SOL     OW 6667   2.761   2.232   5.151  0.0998 -0.3271 -0.0872
 1724SOL    HW2 6668   2.729   2.153   5.107 -0.3175  0.3750 -1.0761
 1724SOL    HW3 6669   2.706   2.240   5.229  0.0140 -0.8859 -0.0839
 1724SOL    MW4 6670   2.750   2.223   5.156  0.0325  0.3934 -0.3038
 1725SOL     OW 6671   5.355   2.183   3.317  0.4812 -0.0546  0.3855
 1725SOL    HW2 6672   5.291   2.113   3.328 -0.2977  0.8618  1.9548
 1725SOL    HW3 6673   5.399   2.189   3.401  0.2090  1.6353  0.4514
 1725SOL    MW4 6674   5.352   2.175   3.329 -0.0643  0.3616 -0.2053
 1726SOL     OW 6675   4.663   5.852   2.962  0.3054  0.4120  0.4585
 1726SOL    HW2 6676   4.595   5.906   3.002 -0.1702 -0.0266  0.2479
 1726SOL    HW3 6677   4.681   5.785   3.027  0.1812  0.2350  0.3105
 1726SOL    MW4 6678   4.656   5.850   2.976  0.2420 -0.8530  0.5515
 1727SOL     OW 6679   4.984   1.417   4.415  0.1522  0.0233  0.2491
 1727SOL    HW2 6680   5.070   1.394   4.451  0.3206 -1.4013 -0.9433
 1727SOL    HW3 6681   5.005   1.472   4.339  0.0532 -0.5124 -0.1784
 1727SOL    MW4 6682   4.998   1.421   4.410 -0.0992 -0.0610  0.0645
 1728SOL     OW 6683   4.300   4.882   0.182 -0.1520  0.4306  0.2283
 1728SOL    HW2 6684   4.311   4.936   0.103  0.4036 -1.6743 -1.2316
 1728SOL    HW3 6685   4.208   4.893   0.206 -0.9463 -0.5164 -2.0629
 1728SOL    MW4 6686   4.290   4.891   0.174  0.0837 -0.0034  0.0154
 1729SOL     OW 6687   2.900   0.769   5.511  0.5996  0.1791  0.0293
 1729SOL    HW2 6688   2.942   0.799   5.431  0.1250 -2.0524 -1.1370
 1729SOL    HW3 6689   2.920   0.675   5.516  1.3543  0.3808  3.0219
 1729SOL    MW4 6690   2.908   0.760   5.501  0.7009 -0.5137 -0.2466
 1730SOL     OW 6691   2.690   2.356   3.246  0.4416 -0.4959 -0.1866
 1730SOL    HW2 6692   2.784   2.336   3.248  0.6986  0.7050  0.6922
 1730SOL    HW3 6693   2.674   2.407   3.325 -1.3212 -2.1360  0.6027
 1730SOL    MW4 6694   2.700   2.360   3.256  0.4947  0.2777  0.2235
 1731SOL     OW 6695   3.938   2.994   5.267 -0.7169 -0.3011  0.3403
 1731SOL    HW2 6696   3.846   3.003   5.292 -0.4787 -1.4878  1.7863
 1731SOL    HW3 6697   3.971   2.921   5.320  1.2882  0.6576  0.5248
 1731SOL    MW4 6698   3.931   2.985   5.278 -0.0973  0.1017  0.3807
 1732SOL     OW 6699   0.034   3.346   3.226 -0.6617 -0.6131 -0.7382
 1732SOL    HW2 6700   0.092   3.274   3.250 -0.2708 -0.0322  0.1136
 1732SOL    HW3 6701  -0.038   3.304   3.178 -0.4969 -1.5706 -0.1760
 1732SOL    MW4 6702   0.032   3.331   3.223 -0.1925 -0.6454 -0.6042
 1733SOL     OW 6703   0.251   2.795   5.021  0.5744 -0.4032 -0.1574
 1733SOL    HW2 6704   0.212   2.779   4.935 -1.4167  1.4151  0.3126
 1733SOL    HW3 6705   0.235   2.888   5.037 -0.7002 -1.0564  2.9376
 1733SOL    MW4 6706   0.244   2.805   5.012  0.3848  0.6653  0.3966
 1734SOL     OW 6707   2.129   2.662   0.234 -0.5334 -0.0276  0.0874
 1734SOL    HW2 6708   2.053   2.685   0.289 -1.1300  2.2456 -1.5146
 1734SOL    HW3 6709   2.196   2.635   0.296 -1.5722  1.2006  1.8596
 1734SOL    MW4 6710   2.128   2.661   0.250 -0.1196  0.0125 -0.8144
 1735SOL     OW 6711   2.536   2.883   2.027 -0.0475 -0.4455 -0.1456
 1735SOL    HW2 6712   2.574   2.940   1.960  1.0938 -0.2469  0.6500
 1735SOL    HW3 6713   2.577   2.797   2.011 -2.2652 -1.2948 -1.7780
 1735SOL    MW4 6714   2.546   2.879   2.016 -0.3012 -0.0168  0.0858
 1736SOL     OW 6715   3.200   4.444   6.088 -0.7205 -0.2164 -0.2886
 1736SOL    HW2 6716   3.193   4.434   5.993  0.2807  0.2175 -0.4143
 1736SOL    HW3 6717   3.197   4.354   6.122 -1.3948 -0.3552 -0.6997
 1736SOL    MW4 6718   3.199   4.431   6.080  0.2769 -0.5797  0.2073
 1737SOL     OW 6719   2.686   2.782   5.213  0.0412  0.4400 -0.0971
 1737SOL    HW2 6720   2.760   2.796   5.272 -1.0613  0.4224  1.3456
 1737SOL    HW3 6721   2.692   2.689   5.188 -1.0690 -0.3794  2.3534
 1737SOL    MW4 6722   2.696   2.771   5.218  0.1548  0.0607  0.1833
 1738SOL     OW 6723   5.619   5.444   2.959 -0.4657 -0.0851  0.2979
 1738SOL    HW2 6724   5.568   5.475   2.884 -0.6680 -0.3007  0.3468
 1738SOL    HW3 6725   5.662   5.364   2.928  1.9731  1.4627 -0.6135
 1738SOL    MW4 6726   5.618   5.438   2.945  0.2665  0.4164  0.1428
 1739SOL     OW 6727   1.478   1.266   2.739  0.1098  0.2807  0.4594
 1739SOL    HW2 6728   1.476   1.344   2.794 -0.5356 -0.1475  1.0475
 1739SOL    HW3 6729   1.449   1.194   2.796  1.5461 -0.5587  0.1772
 1739SOL    MW4 6730   1.474   1.267   2.754 -0.2989 -0.4419 -0.2026
 1740SOL     OW 6731   4.901   4.829   2.965 -0.4985  0.4614 -0.6194
 1740SOL    HW2 6732   4.829   4.880   2.929 -1.7576 -0.6521  0.2241
 1740SOL    HW3 6733   4.859   4.755   3.009  1.1184  0.1537  0.5226
 1740SOL    MW4 6734   4.886   4.826   2.966  0.9654  0.4102  0.8069
 1741SOL     OW 6735   0.483   5.283   1.936  0.5092 -0.4326  0.0912
 1741SOL    HW2 6736   0.539   5.240   1.870 -0.9825 -1.5928 -0.4782
 1741SOL    HW3 6737   0.540   5.295   2.012  1.7133 -0.9350 -0.7041
 1741SOL    MW4 6738   0.498   5.279   1.937 -0.2013 -0.4478 -0.0308
 1742SOL     OW 6739   5.930   3.715   1.077  0.0021  0.2817 -0.1919
 1742SOL    HW2 6740   5.933   3.718   0.982  1.8992  0.7880 -0.1527
 1742SOL    HW3 6741   6.005   3.660   1.102 -1.2494 -0.9943  0.9854
 1742SOL    MW4 6742   5.940   3.708   1.068 -0.7236  0.1278  0.3310
 1743SOL     OW 6743   1.152   3.674   5.483 -0.2747 -0.1329 -0.2131
 1743SOL    HW2 6744   1.245   3.655   5.472 -0.0787  0.8522 -0.3988
 1743SOL    HW3 6745   1.140   3.759   5.441 -1.2742 -0.2751 -0.2420
 1743SOL    MW4 6746   1.163   3.683   5.476 -0.3880 -0.2005  0.4489
 1744SOL     OW 6747   2.109   4.791   5.057 -0.3070 -0.1872  0.0568
 1744SOL    HW2 6748   2.097   4.869   5.110  2.8086  0.8680 -0.6126
 1744SOL    HW3 6749   2.135   4.723   5.119 -0.4033 -0.0023  0.3016
 1744SOL    MW4 6750   2.111   4.792   5.072 -0.1792  0.3423  0.3615
 1745SOL     OW 6751   4.105   4.860   1.008 -0.5507  0.2277 -0.0699
 1745SOL    HW2 6752   4.186   4.847   1.057 -0.8072  0.6273  0.4740
 1745SOL    HW3 6753   4.108   4.795   0.938  0.3604  0.4073 -0.2129
 1745SOL    MW4 6754   4.116   4.850   1.005  0.0273  1.0210 -0.3929
 1746SOL     OW 6755   3.121   6.079   1.163 -0.0967  0.7931 -0.3407
 1746SOL    HW2 6756   3.166   6.080   1.078 -1.6478  0.4125 -1.2074
 1746SOL    HW3 6757   3.031   6.102   1.143 -0.6991 -0.1413  1.0905
 1746SOL    MW4 6758   3.115   6.082   1.149 -0.3077 -0.4765 -0.2088
 1747SOL     OW 6759   2.093   3.251   3.153  0.2286  0.1320 -0.2319
 1747SOL    HW2 6760   2.160   3.187   3.177  0.9552 -0.2545 -2.9835
 1747SOL    HW3 6761   2.138   3.313   3.097 -1.6406 -0.0650 -2.0741
 1747SOL    MW4 6762   2.107   3.251   3.149  0.1048  0.7512 -0.1612
 1748SOL     OW 6763   3.888   5.753   3.366 -1.0318 -0.1038  0.0073
 1748SOL    HW2 6764   3.977   5.788   3.370 -0.8368 -0.4874 -0.8074
 1748SOL    HW3 6765   3.881   5.696   3.443  0.1887 -1.8082 -1.0899
 1748SOL    MW4 6766   3.899   5.750   3.377 -0.1485 -0.2778 -0.1988
 1749SOL     OW 6767   1.818   6.242   0.097  0.3618  0.0616 -0.1539
 1749SOL    HW2 6768   1.881   6.284   0.155  1.9829 -0.7214 -1.2937
 1749SOL    HW3 6769   1.780   6.171   0.150  2.1246 -0.9130 -0.1092
 1749SOL    MW4 6770   1.821   6.238   0.111 -0.7122 -0.5824  0.3612
 1750SOL     OW 6771   0.052   0.264   3.244 -0.3631 -0.2629  0.1532
 1750SOL    HW2 6772  -0.020   0.223   3.196 -0.0033 -0.5183 -0.1809
 1750SOL    HW3 6773   0.038   0.238   3.335  0.8009 -2.6155 -0.2637
 1750SOL    MW4 6774   0.040   0.255   3.250  0.8929  0.2876 -0.3562
 1751SOL     OW 6775   0.989   3.445   4.664 -0.4909  0.1567 -0.5952
 1751SOL    HW2 6776   0.943   3.449   4.748  0.5258 -0.4688  0.0166
 1751SOL    HW3 6777   0.987   3.535   4.631  0.4050  0.7465  0.8396
 1751SOL    MW4 6778   0.983   3.457   4.671  0.1137  0.6012  0.1955
 1752SOL     OW 6779   2.105   5.894   3.997 -0.4646  0.1198  0.4546
 1752SOL    HW2 6780   2.078   5.918   3.908  0.0921 -1.6179 -0.2223
 1752SOL    HW3 6781   2.071   5.965   4.052 -2.3775  0.3590 -0.9157
 1752SOL    MW4 6782   2.097   5.906   3.993 -0.0028 -0.0548 -0.0916
 1753SOL     OW 6783   3.331   0.546   1.458  0.2313 -0.2729  0.3532
 1753SOL    HW2 6784   3.271   0.479   1.491  0.3632 -0.5026  0.1363
 1753SOL    HW3 6785   3.371   0.505   1.381 -1.8811  1.0995 -1.5980
 1753SOL    MW4 6786   3.328   0.532   1.452 -0.6648 -0.2936 -0.3908
 1754SOL     OW 6787   2.283   5.225   3.835 -0.2230  0.0572  0.8111
 1754SOL    HW2 6788   2.210   5.235   3.897 -1.7494 -0.9932 -0.7457
 1754SOL    HW3 6789   2.280   5.133   3.809 -0.1438  0.6256 -1.4073
 1754SOL    MW4 6790   2.273   5.214   3.840 -0.0712 -0.2916 -0.6492
 1755SOL     OW 6791   0.679   3.435   1.824 -0.1338 -0.5812 -0.0319
 1755SOL    HW2 6792   0.773   3.420   1.817  0.3272  2.2287 -0.9573
 1755SOL    HW3 6793   0.640   3.360   1.780  1.6829 -1.5311 -0.1131
 1755SOL    MW4 6794   0.686   3.423   1.818 -0.1801  0.1244 -0.0767
 1756SOL     OW 6795   6.355   6.065   5.238 -0.3503  0.4090  0.0074
 1756SOL    HW2 6796   6.296   5.989   5.239 -1.8153  1.4967  1.7332
 1756SOL    HW3 6797   6.358   6.094   5.329  0.9080  1.8956 -0.4657
 1756SOL    MW4 6798   6.348   6.058   5.250 -0.1450 -0.2990  0.0151
 1757SOL     OW 6799   1.891   0.955   3.861 -0.2820  0.2989 -0.1705
 1757SOL    HW2 6800   1.837   1.033   3.848  1.7672  2.3483  2.4147
 1757SOL    HW3 6801   1.963   0.964   3.798  0.6766  1.2947  1.0212
 1757SOL    MW4 6802   1.893   0.966   3.851  0.6833 -0.4647 -0.2748
 1758SOL     OW 6803   5.613   6.244   1.496 -0.2031 -0.3077 -0.0136
 1758SOL    HW2 6804   5.659   6.174   1.449  0.6892 -0.6013  1.2226
 1758SOL    HW3 6805   5.538   6.200   1.536  1.3758 -1.0531  2.3171
 1758SOL    MW4 6806   5.609   6.229   1.495  0.1181  0.3250  0.3224
 1759SOL     OW 6807   4.692   0.842   1.374  0.5421 -0.4485 -0.1278
 1759SOL    HW2 6808   4.680   0.918   1.317  1.6355  0.3071  0.6056
 1759SOL    HW3 6809   4.638   0.861   1.451  1.0970 -0.2278  0.2145
 1759SOL    MW4 6810   4.683   0.855   1.377 -0.0778  0.2628  1.1259
 1760SOL     OW 6811   1.188   2.576   1.976 -0.4980 -0.0989 -0.6332
 1760SOL    HW2 6812   1.234   2.529   2.045  0.0663  1.7668  0.3303
 1760SOL    HW3 6813   1.246   2.571   1.900 -0.4159 -0.8707 -0.5251
 1760SOL    MW4 6814   1.202   2.569   1.975  0.7844  0.0011 -0.2745
 1761SOL     OW 6815   3.104   6.142   5.187  0.2118 -0.1015 -0.2042
 1761SOL    HW2 6816   3.105   6.123   5.093  2.1816 -1.1927 -0.0194
 1761SOL    HW3 6817   3.196   6.143   5.212 -0.1154  2.6500  1.2751
 1761SOL    MW4 6818   3.116   6.140   5.178 -0.3672  0.7710 -0.5065
 1762SOL     OW 6819   4.006   4.142   3.870  0.4897 -0.1482  0.1008
 1762SOL    HW2 6820   4.044   4.225   3.898 -1.8561  1.1494 -0.3670
 1762SOL    HW3 6821   4.053   4.120   3.789  0.3525  1.3354 -0.4007
 1762SOL    MW4 6822   4.017   4.150   3.863 -0.4176 -0.0611  0.3492
 1763SOL     OW 6823   3.447   0.994   3.284 -0.7648  0.5930  0.0150
 1763SOL    HW2 6824   3.370   0.994   3.228  0.3656  0.2008 -1.6280
 1763SOL    HW3 6825   3.500   0.921   3.252  0.1038  0.5625  1.3929
 1763SOL    MW4 6826   3.444   0.984   3.273  0.2559 -0.6785  0.3590
 1764SOL     OW 6827   5.143   3.143   4.325  0.5651 -0.4220 -0.3054
 1764SOL    HW2 6828   5.049   3.127   4.315  0.3982 -0.0886  0.6197
 1764SOL    HW3 6829   5.150   3.197   4.404  1.5255 -0.3552 -0.4230
 1764SOL    MW4 6830   5.131   3.148   4.334 -0.5677 -0.3321  0.0717
 1765SOL     OW 6831   3.003   0.327   0.329 -0.4764  0.2451 -0.0141
 1765SOL    HW2 6832   2.965   0.240   0.315 -1.5862  0.3785  1.8061
 1765SOL    HW3 6833   3.037   0.353   0.244 -1.9251 -1.1355 -1.0576
 1765SOL    MW4 6834   3.003   0.319   0.316  0.5931  0.1545 -0.4676
 1766SOL     OW 6835   4.325   0.902   0.570 -0.1146 -0.6067 -0.5516
 1766SOL    HW2 6836   4.417   0.915   0.548 -0.8145  1.2469 -2.6327
 1766SOL    HW3 6837   4.301   0.820   0.527  0.2754 -0.5108 -0.9508
 1766SOL    MW4 6838   4.334   0.893   0.562  0.1367 -0.4329 -0.1393
 1767SOL     OW 6839   0.201   4.581   5.473  0.0610  0.8018  0.5786
 1767SOL    HW2 6840   0.171   4.589   5.383  0.5694  0.4347  0.3731
 1767SOL    HW3 6841   0.289   4.617   5.473  0.1234  0.6569  0.8948
 1767SOL    MW4 6842   0.209   4.587   5.461 -0.3272  0.8281 -0.3900
 1768SOL     OW 6843   5.159   2.390   3.971  0.4024  0.4410 -0.0033
 1768SOL    HW2 6844   5.234   2.376   4.028  0.7482 -1.1554 -0.8081
 1768SOL    HW3 6845   5.173   2.478   3.935  1.8391  0.2151 -0.0531
 1768SOL    MW4 6846   5.171   2.400   3.974  0.0430 -0.3606  0.1597
 1769SOL     OW 6847   0.975   1.484   0.949  0.5040  0.2802  0.2773
 1769SOL    HW2 6848   1.032   1.483   1.025  0.9458 -4.2071  0.1166
 1769SOL    HW3 6849   1.027   1.445   0.879 -1.6495 -0.9336 -0.7584
 1769SOL    MW4 6850   0.990   1.479   0.949  0.0602 -0.6257 -0.2779
 1770SOL     OW 6851   3.255   4.831   2.426  0.0575 -0.1988  0.0255
 1770SOL    HW2 6852   3.202   4.904   2.392 -1.2094  0.0880  2.3987
 1770SOL    HW3 6853   3.322   4.873   2.479  0.2162 -0.6989  0.2231
 1770SOL    MW4 6854   3.257   4.846   2.428  0.2657 -0.2655 -0.0665
 1771SOL     OW 6855   6.184   6.288   1.795  0.0136 -0.1329  0.4404
 1771SOL    HW2 6856   6.202   6.340   1.716 -1.3386 -1.0570 -0.5086
 1771SOL    HW3 6857   6.204   6.198   1.769 -0.9575 -0.5100  0.9823
 1771SOL    MW4 6858   6.189   6.283   1.781  0.0217 -0.1203  0.8507
 1772SOL     OW 6859   2.734   3.106   1.023 -0.2910  0.1691 -0.2227
 1772SOL    HW2 6860   2.678   3.160   1.079 -0.3390  0.3528 -0.4436
 1772SOL    HW3 6861   2.702   3.017   1.035 -0.4381  0.2361 -0.1171
 1772SOL    MW4 6862   2.722   3.102   1.032  0.2869 -0.0454  0.6878
 1773SOL     OW 6863   1.892   4.494   5.194 -0.5088  0.0719  0.2807
 1773SOL    HW2 6864   1.859   4.553   5.126  2.2842  0.5591 -0.7815
 1773SOL    HW3 6865   1.921   4.416   5.146  0.6093  0.0099  1.0298
 1773SOL    MW4 6866   1.892   4.491   5.178  0.1670  0.1804 -0.0237
 1774SOL     OW 6867   2.269   0.190   4.123 -0.1047  0.4646 -0.4441
 1774SOL    HW2 6868   2.338   0.172   4.187 -1.5376  0.9817  1.3081
 1774SOL    HW3 6869   2.242   0.280   4.141 -1.4416  0.1723 -0.8959
 1774SOL    MW4 6870   2.275   0.200   4.134 -0.8837 -0.4966 -0.2296
 1775SOL     OW 6871   4.599   4.576   4.453  0.1513 -0.5739 -0.1591
 1775SOL    HW2 6872   4.546   4.513   4.501  0.1813 -0.0613  0.5624
 1775SOL    HW3 6873   4.624   4.531   4.373 -1.2888 -0.8646 -0.4698
 1775SOL    MW4 6874   4.595   4.562   4.449  0.1356 -0.3724 -0.4199
 1776SOL     OW 6875   0.246   4.283   2.373 -0.7223 -0.0673  0.3404
 1776SOL    HW2 6876   0.158   4.299   2.338 -0.2342 -1.0938 -1.4940
 1776SOL    HW3 6877   0.233   4.215   2.439 -1.2609 -0.4761 -0.1733
 1776SOL    MW4 6878   0.232   4.276   2.377  0.8567 -0.4546 -0.1817
 1777SOL     OW 6879   2.617   4.433   4.343 -0.0189  0.1226 -0.0236
 1777SOL    HW2 6880   2.707   4.407   4.326 -0.1982  0.6411 -2.0607
 1777SOL    HW3 6881   2.623   4.499   4.413  1.0384 -0.6599  0.6548
 1777SOL    MW4 6882   2.630   4.438   4.350  0.0323 -0.1907  0.2275
 1778SOL     OW 6883   3.854   0.548   4.183  0.0381  0.3886 -1.0815
 1778SOL    HW2 6884   3.900   0.630   4.201 -1.0337  1.0984 -1.4978
 1778SOL    HW3 6885   3.761   0.571   4.184 -0.2443 -0.3947 -3.1772
 1778SOL    MW4 6886   3.848   0.562   4.186  0.6096  0.0992 -0.5170
 1779SOL     OW 6887   2.424   1.254   0.936  0.3766 -0.5688 -0.0638
 1779SOL    HW2 6888   2.502   1.222   0.981  0.7959  0.4491 -0.0369
 1779SOL    HW3 6889   2.350   1.223   0.989  0.8668  1.1926  1.7903
 1779SOL    MW4 6890   2.424   1.246   0.949  0.0339  0.0856  0.1996
 1780SOL     OW 6891   5.805   5.538   3.478 -0.0231  0.4166 -0.4813
 1780SOL    HW2 6892   5.836   5.603   3.415  1.4678  0.4498  0.2509
 1780SOL    HW3 6893   5.839   5.455   3.445 -1.1272  0.0984 -0.8966
 1780SOL    MW4 6894   5.813   5.536   3.465  0.1483 -0.2370  0.4376
 1781SOL     OW 6895   5.087   2.904   2.513  0.4102 -0.0847  0.2776
 1781SOL    HW2 6896   5.149   2.869   2.578  0.7136  0.4049  0.2605
 1781SOL    HW3 6897   5.126   2.880   2.429 -0.1026 -0.9226  0.2698
 1781SOL    MW4 6898   5.101   2.896   2.511 -0.5308  0.4820 -0.6163
 1782SOL     OW 6899   1.599   1.071   4.083 -0.4874  0.1825 -0.2736
 1782SOL    HW2 6900   1.596   0.983   4.120 -2.3009 -0.5926 -2.0609
 1782SOL    HW3 6901   1.559   1.127   4.149  1.5852 -0.1013  1.3096
 1782SOL    MW4 6902   1.593   1.067   4.096 -0.0968  0.6152  0.1970
 1783SOL     OW 6903   1.702   5.192   3.847  0.7889  0.2847 -0.2541
 1783SOL    HW2 6904   1.747   5.275   3.834 -0.0406  0.7195 -0.4033
 1783SOL    HW3 6905   1.723   5.141   3.769  0.8474  0.5726 -0.4295
 1783SOL    MW4 6906   1.710   5.196   3.835 -0.3789 -0.0599  0.3787
 1784SOL     OW 6907   5.662   5.330   1.798  0.2824 -1.0102 -0.0799
 1784SOL    HW2 6908   5.576   5.305   1.830  0.3493  0.5971  1.4852
 1784SOL    HW3 6909   5.693   5.396   1.860  1.1484  1.0625 -2.5156
 1784SOL    MW4 6910   5.655   5.335   1.810  0.0481  0.2043  0.2773
 1785SOL     OW 6911   1.311   3.718   4.535 -0.2721 -0.1949  0.2380
 1785SOL    HW2 6912   1.304   3.683   4.446 -0.1455 -0.1747  0.2205
 1785SOL    HW3 6913   1.374   3.790   4.527  0.2238 -0.5998  0.4697
 1785SOL    MW4 6914   1.318   3.723   4.522 -0.7023  0.4271  0.5845
 1786SOL     OW 6915   4.254   5.242   0.992  0.3042 -0.3675 -0.1691
 1786SOL    HW2 6916   4.180   5.205   0.944  0.0372  0.4104 -0.3692
 1786SOL    HW3 6917   4.247   5.336   0.978  0.6276 -0.1844  0.8163
 1786SOL    MW4 6918   4.243   5.249   0.984  0.0933  0.0387 -0.0438
 1787SOL     OW 6919   6.425   2.481   2.731 -0.6289 -0.5405  0.0028
 1787SOL    HW2 6920   6.436   2.483   2.826 -0.3193 -1.0115 -0.0233
 1787SOL    HW3 6921   6.409   2.573   2.707  2.6543  0.1921  0.1320
 1787SOL    MW4 6922   6.424   2.494   2.740 -0.2811  0.1638 -0.3285
 1788SOL     OW 6923   0.765   2.441   2.877  0.2643  0.6221 -0.2407
 1788SOL    HW2 6924   0.686   2.487   2.907  0.0837  0.3520 -0.2958
 1788SOL    HW3 6925   0.753   2.433   2.782  0.2054  0.3007 -0.2075
 1788SOL    MW4 6926   0.753   2.446   2.869  0.7757  0.2558  0.0698
 1789SOL     OW 6927   0.470   0.433   3.296 -0.3639 -0.0527 -0.2412
 1789SOL    HW2 6928   0.441   0.454   3.208 -0.9509 -0.7214 -0.2109
 1789SOL    HW3 6929   0.449   0.511   3.348 -2.2616 -0.5553 -0.1825
 1789SOL    MW4 6930   0.464   0.446   3.291 -0.4892 -0.3789 -0.5742
 1790SOL     OW 6931   4.071   5.618   2.734  0.4648 -0.1344 -0.0990
 1790SOL    HW2 6932   4.138   5.629   2.801  0.8780  1.6341 -0.7709
 1790SOL    HW3 6933   3.999   5.675   2.762 -0.4289 -1.3093  0.1258
 1790SOL    MW4 6934   4.070   5.627   2.747 -0.4270 -0.2399 -0.1552
 1791SOL     OW 6935   6.080   5.740   6.257 -0.2231 -0.2131 -0.1213
 1791SOL    HW2 6936   5.985   5.746   6.246 -0.4371 -1.5420  0.7426
 1791SOL    HW3 6937   6.092   5.705   6.345  1.1340  1.5892  0.4625
 1791SOL    MW4 6938   6.069   5.736   6.267 -0.2041 -0.8772  0.1123
 1792SOL     OW 6939   0.763   5.843   2.977  0.7278 -0.9115 -0.0114
 1792SOL    HW2 6940   0.772   5.784   2.902  1.7789 -1.8633  0.8369
 1792SOL    HW3 6941   0.757   5.785   3.053  1.5055  0.0608  0.8239
 1792SOL    MW4 6942   0.763   5.828   2.977 -0.2545 -0.3391 -0.1039
 1793SOL     OW 6943   2.045   4.350   3.121  0.2072  0.5316 -0.8075
 1793SOL    HW2 6944   2.077   4.429   3.164 -1.3678  0.6261  0.2603
 1793SOL    HW3 6945   2.100   4.279   3.155 -2.1275  0.2779  3.0251
 1793SOL    MW4 6946   2.057   4.351   3.131  0.5958 -0.2780  0.4490
 1794SOL     OW 6947   2.369   5.422   4.166  0.3952  0.3033  0.0894
 1794SOL    HW2 6948   2.297   5.471   4.127  0.8154  0.9065  0.0714
 1794SOL    HW3 6949   2.426   5.400   4.093  1.2249  1.5056  0.3549
 1794SOL    MW4 6950   2.367   5.425   4.152  0.7325  0.1621  0.2230
 1795SOL     OW 6951   1.435   6.353   1.991 -0.1785 -0.0123  0.1193
 1795SOL    HW2 6952   1.375   6.321   1.924 -0.5550 -0.4161  0.6419
 1795SOL    HW3 6953   1.409   6.307   2.071 -0.9154  1.7768  0.9756
 1795SOL    MW4 6954   1.424   6.343   1.993 -0.2110 -0.0042 -0.6184
 1796SOL     OW 6955   0.350   4.591   6.089  0.9152  0.0243  0.6265
 1796SOL    HW2 6956   0.323   4.563   6.002  2.2406 -1.9452  0.7950
 1796SOL    HW3 6957   0.273   4.577   6.144 -0.0311  1.5794 -0.2325
 1796SOL    MW4 6958   0.336   4.585   6.085 -0.1843  0.3604 -0.2914
 1797SOL     OW 6959   1.260   5.241   0.866 -0.2299  0.1511 -0.4954
 1797SOL    HW2 6960   1.220   5.255   0.780 -1.1355 -0.7306 -0.2301
 1797SOL    HW3 6961   1.228   5.314   0.919 -1.0270 -0.2121 -0.4565
 1797SOL    MW4 6962   1.250   5.253   0.861  0.1068  0.2878  0.5998
 1798SOL     OW 6963   3.506   2.244   1.396  0.3265 -0.2598  0.2947
 1798SOL    HW2 6964   3.563   2.179   1.438 -0.0696 -0.1666  0.9836
 1798SOL    HW3 6965   3.566   2.300   1.347  0.8299 -0.1716  1.0048
 1798SOL    MW4 6966   3.522   2.243   1.395 -0.3457  0.1940 -0.2136
 1799SOL     OW 6967   0.273   0.726   3.211 -0.3303  0.4488 -0.3317
 1799SOL    HW2 6968   0.189   0.680   3.218  0.1999 -0.3633  1.3212
 1799SOL    HW3 6969   0.249   0.819   3.209 -1.2754  0.2706  0.9505
 1799SOL    MW4 6970   0.259   0.733   3.212  0.4348  0.1412 -0.2500
 1800SOL     OW 6971   0.804   4.779   3.301 -0.5847  0.3336  0.8023
 1800SOL    HW2 6972   0.833   4.835   3.228 -0.5744  2.0308  2.0646
 1800SOL    HW3 6973   0.725   4.821   3.334 -0.5861 -0.4051  1.7787
 1800SOL    MW4 6974   0.798   4.792   3.295  0.0496  0.1529 -0.5840
 1801SOL     OW 6975   3.932   3.795   4.839 -0.0290 -0.4307  0.3118
 1801SOL    HW2 6976   3.859   3.773   4.780  1.0357  0.4923 -1.3998
 1801SOL    HW3 6977   4.002   3.735   4.813  0.5136  0.1065  0.5360
 1801SOL    MW4 6978   3.931   3.784   4.827 -0.1043  0.1178 -0.7150
 1802SOL     OW 6979   3.627   0.469   4.817 -0.6119  0.0538 -0.8524
 1802SOL    HW2 6980   3.680   0.391   4.801 -2.3610 -1.0752 -1.3780
 1802SOL    HW3 6981   3.549   0.457   4.763 -1.5293  1.5595  0.0610
 1802SOL    MW4 6982   3.624   0.457   4.807  0.1903 -0.0023  0.0085
 1803SOL     OW 6983   1.415   2.889   6.050 -0.6090 -0.5484 -0.1949
 1803SOL    HW2 6984   1.509   2.902   6.043 -0.6941  0.6358  0.5493
 1803SOL    HW3 6985   1.386   2.876   5.960  0.3591 -1.7272 -0.3553
 1803SOL    MW4 6986   1.423   2.889   6.037  0.3669 -0.0853  0.0803
 1804SOL     OW 6987   4.405   5.653   2.338  0.0854 -0.1241 -1.0811
 1804SOL    HW2 6988   4.360   5.613   2.412  0.1651  1.1209 -0.3210
 1804SOL    HW3 6989   4.493   5.615   2.340  0.4826  0.7594  0.2473
 1804SOL    MW4 6990   4.411   5.643   2.348  0.2046 -0.3422  0.0432
 1805SOL     OW 6991   3.353   1.602   1.121  0.7208  0.7196  0.5920
 1805SOL    HW2 6992   3.351   1.540   1.048 -1.4180 -0.4000  1.5059
 1805SOL    HW3 6993   3.433   1.581   1.168  0.6438 -0.5459  0.1961
 1805SOL    MW4 6994   3.363   1.591   1.118  0.3284  0.0052  0.5832
 1806SOL     OW 6995   3.488   4.145   4.110 -0.3979  0.3247  0.7200
 1806SOL    HW2 6996   3.490   4.085   4.184 -1.3021  0.4469  0.8619
 1806SOL    HW3 6997   3.395   4.150   4.086 -0.1044  0.1738 -0.5203
 1806SOL    MW4 6998   3.476   4.138   4.117  0.0184  0.0420 -0.2581
 1807SOL     OW 6999   5.450   1.742   2.080 -0.2415  0.1525 -0.1392
 1807SOL    HW2 7000   5.543   1.764   2.074 -0.0506 -0.5762 -0.0130
 1807SOL    HW3 7001   5.437   1.673   2.014 -0.4404 -0.5352  0.6033
 1807SOL    MW4 7002   5.460   1.736   2.070 -0.1219  0.0533 -0.7845
 1808SOL     OW 7003   5.574   5.926   1.468 -0.3438  0.2928  1.5843
 1808SOL    HW2 7004   5.526   5.962   1.542 -0.1131 -0.5396  2.1509
 1808SOL    HW3 7005   5.512   5.867   1.426 -0.3999  0.5935  1.2349
 1808SOL    MW4 7006   5.559   5.923   1.472 -0.0320 -0.0348 -0.6434
 1809SOL     OW 7007   5.233   1.966   0.289 -0.4086 -0.5708  0.3599
 1809SOL    HW2 7008   5.306   1.910   0.263  0.5973  1.4302 -1.4304
 1809SOL    HW3 7009   5.155   1.923   0.253  0.1708 -1.5107  0.2087
 1809SOL    MW4 7010   5.232   1.953   0.281 -0.6428 -0.2014  0.1899
 1810SOL     OW 7011   2.307   6.399   1.786 -0.0062 -0.3845  0.0320
 1810SOL    HW2 7012   2.360   6.367   1.859  0.3795  1.3541  0.5505
 1810SOL    HW3 7013   2.366   6.399   1.711  0.2657 -0.0162  0.2430
 1810SOL    MW4 7014   2.321   6.395   1.785 -0.4778 -0.0304  0.0575
 1811SOL     OW 7015   1.317   1.147   0.891 -0.7187 -0.2480  0.1577
 1811SOL    HW2 7016   1.352   1.122   0.806  0.3853 -0.7894  0.7527
 1811SOL    HW3 7017   1.261   1.223   0.872 -0.3350 -0.2354 -1.0126
 1811SOL    MW4 7018   1.314   1.154   0.877  0.1425 -1.1323  0.6727
 1812SOL     OW 7019   4.933   5.486   0.308 -0.5093 -0.2493 -0.2452
 1812SOL    HW2 7020   4.946   5.578   0.282  0.6285 -0.4916 -0.6045
 1812SOL    HW3 7021   4.988   5.437   0.247  0.1053 -1.0520  0.9333
 1812SOL    MW4 7022   4.942   5.492   0.297  0.4816  0.0563  0.1634
 1813SOL     OW 7023   1.440   3.488   3.904 -0.0404 -0.2370 -0.1105
 1813SOL    HW2 7024   1.452   3.516   3.995  2.2258  1.5614 -0.8504
 1813SOL    HW3 7025   1.463   3.395   3.903  0.8221 -0.0478  1.0033
 1813SOL    MW4 7026   1.445   3.480   3.916  0.1192  0.0720 -0.1948
 1814SOL     OW 7027   3.196   4.176   6.184 -0.6841  0.3021 -0.0354
 1814SOL    HW2 7028   3.237   4.118   6.120 -0.9373  1.3388 -1.1759
 1814SOL    HW3 7029   3.258   4.178   6.257  0.3406  0.2490 -0.8767
 1814SOL    MW4 7030   3.210   4.169   6.185  0.2999 -0.1724 -0.6711
 1815SOL     OW 7031   1.520   1.011   5.999 -0.0537  0.2941 -0.2737
 1815SOL    HW2 7032   1.567   0.968   6.070  0.3275  1.1075 -0.0180
 1815SOL    HW3 7033   1.430   1.020   6.031  0.1313  0.7158  0.1368
 1815SOL    MW4 7034   1.514   1.007   6.012 -0.1925 -0.2890  0.3636
 1816SOL     OW 7035   5.247   0.552   5.793 -0.0383 -0.3007  0.3926
 1816SOL    HW2 7036   5.295   0.603   5.859  1.0639  0.1869 -0.7508
 1816SOL    HW3 7037   5.209   0.479   5.842  1.3285 -0.3353  1.4581
 1816SOL    MW4 7038   5.249   0.549   5.808  0.1135 -0.7875  0.2946
 1817SOL     OW 7039   5.142   4.277   5.864 -0.0385  0.5652 -0.2686
 1817SOL    HW2 7040   5.089   4.349   5.900  1.4074  0.7882  1.5350
 1817SOL    HW3 7041   5.105   4.198   5.903 -1.3671  0.2744 -1.9415
 1817SOL    MW4 7042   5.130   4.276   5.874  0.0139  0.3880 -0.3786
 1818SOL     OW 7043   0.805   0.781   4.734 -0.2050  0.5726 -0.4869
 1818SOL    HW2 7044   0.871   0.842   4.700 -0.0264  0.5573 -0.1662
 1818SOL    HW3 7045   0.722   0.815   4.699 -0.0489  0.6878 -0.7539
 1818SOL    MW4 7046   0.802   0.794   4.725  0.1546  0.1511 -0.3215
 1819SOL     OW 7047   6.070   5.558   1.445 -0.3032 -0.6926  0.1039
 1819SOL    HW2 7048   6.005   5.628   1.437 -0.4286 -0.3996  2.7764
 1819SOL    HW3 7049   6.019   5.481   1.470 -0.0429 -1.5272 -1.8058
 1819SOL    MW4 7050   6.054   5.557   1.447 -0.1894  0.4869 -0.6933
 1820SOL     OW 7051   1.316   5.361   6.304  0.4272  0.3157  0.5114
 1820SOL    HW2 7052   1.238   5.306   6.300  0.5209  0.1355  1.1294
 1820SOL    HW3 7053   1.286   5.444   6.341  0.4451  0.4015  0.3361
 1820SOL    MW4 7054   1.302   5.364   6.308  0.4004  0.0876  0.5683
 1821SOL     OW 7055   4.612   1.681   5.058  0.5629 -0.4333 -0.3302
 1821SOL    HW2 7056   4.659   1.764   5.061  0.4537 -0.3299 -1.2155
 1821SOL    HW3 7057   4.561   1.685   4.977  1.4783 -1.8410 -1.0161
 1821SOL    MW4 7058   4.611   1.692   5.048  0.7636  0.3949 -0.3822
 1822SOL     OW 7059   0.707   2.135   0.808 -0.3468 -0.6762 -0.3774
 1822SOL    HW2 7060   0.795   2.131   0.847 -0.6423  0.5633  0.4749
 1822SOL    HW3 7061   0.723   2.153   0.715  0.3058 -0.2563 -0.1958
 1822SOL    MW4 7062   0.721   2.137   0.801  0.3200 -0.0457 -0.5440
 1823SOL     OW 7063   4.507   0.451   1.033 -0.2395  0.5374  0.5636
 1823SOL    HW2 7064   4.545   0.383   0.979  2.0645  1.1844  1.2663
 1823SOL    HW3 7065   4.491   0.409   1.118  1.1539  0.8086  0.9873
 1823SOL    MW4 7066   4.510   0.437   1.037  0.3729 -0.1545  0.4434
 1824SOL     OW 7067   1.294   5.634   1.117  0.0078  0.5995  0.2074
 1824SOL    HW2 7068   1.225   5.645   1.183 -0.2234  0.4942 -0.0127
 1824SOL    HW3 7069   1.318   5.723   1.093 -1.7473  0.6789 -1.4590
 1824SOL    MW4 7070   1.288   5.647   1.123 -0.2085  0.6563 -0.1829
 1825SOL     OW 7071   2.376   1.718   3.699 -0.4559  0.2912  0.0394
 1825SOL    HW2 7072   2.315   1.686   3.632 -1.3762  0.7831  0.6211
 1825SOL    HW3 7073   2.445   1.652   3.702  0.4086  0.9773 -2.4266
 1825SOL    MW4 7074   2.377   1.705   3.691 -0.3053 -0.0673  0.2920
 1826SOL     OW 7075   3.897   0.875   5.078  0.9037  0.6528 -0.2010
 1826SOL    HW2 7076   3.817   0.873   5.130  1.9654 -0.9842  1.4828
 1826SOL    HW3 7077   3.899   0.789   5.034  1.6797  0.6985 -0.2755
 1826SOL    MW4 7078   3.887   0.863   5.079 -0.6605 -0.1424  0.1189
 1827SOL     OW 7079   4.342   0.204   2.241  0.4593 -0.2659  0.1201
 1827SOL    HW2 7080   4.370   0.285   2.201  1.6229 -0.2772  0.8719
 1827SOL    HW3 7081   4.400   0.192   2.316 -0.9361 -0.7942  1.1787
 1827SOL    MW4 7082   4.353   0.213   2.246  0.8420  0.2889  0.5723
 1828SOL     OW 7083   5.995   0.091   3.808 -0.2336  0.6394 -0.0334
 1828SOL    HW2 7084   6.022   0.078   3.899 -0.9119  3.6077  0.7071
 1828SOL    HW3 7085   5.905   0.059   3.805  0.1523 -0.4937  0.0081
 1828SOL    MW4 7086   5.987   0.085   3.820  0.2706 -0.0887  0.0651
 1829SOL     OW 7087   5.774   0.587   3.447  0.2280  0.3689  0.4489
 1829SOL    HW2 7088   5.688   0.613   3.416  0.7974  2.1343  0.2673
 1829SOL    HW3 7089   5.823   0.669   3.455  1.2783 -0.3668  2.4332
 1829SOL    MW4 7090   5.769   0.601   3.444  0.2453  0.5664 -0.1802
 1830SOL     OW 7091   5.758   2.522   0.827 -0.2424  0.7099  0.1941
 1830SOL    HW2 7092   5.710   2.441   0.809  1.5914 -0.5342  0.6420
 1830SOL    HW3 7093   5.692   2.591   0.820 -1.9447 -0.8448  0.1689
 1830SOL    MW4 7094   5.743   2.520   0.824  0.0860 -0.1013 -0.2484
 1831SOL     OW 7095   4.686   3.584   4.601  0.5382  0.2101 -0.0953
 1831SOL    HW2 7096   4.599   3.581   4.562  0.3254  0.8808  0.3037
 1831SOL    HW3 7097   4.682   3.521   4.674  1.0277 -1.2625 -1.2821
 1831SOL    MW4 7098   4.674   3.575   4.605 -1.2321  0.2044  0.1044
 1832SOL     OW 7099   3.243   0.701   5.663  0.4512  0.0701  0.3081
 1832SOL    HW2 7100   3.204   0.777   5.618 -0.8344 -0.6926  0.0899
 1832SOL    HW3 7101   3.180   0.679   5.731  0.8985 -0.6997  0.4764
 1832SOL    MW4 7102   3.229   0.708   5.666  0.3013 -0.1726  0.0688
 1833SOL     OW 7103   1.631   0.012   3.626 -0.2424 -0.1221  0.3776
 1833SOL    HW2 7104   1.571   0.005   3.552 -0.2536 -0.6504  0.4321
 1833SOL    HW3 7105   1.578  -0.010   3.702 -0.0396 -0.3449  0.4541
 1833SOL    MW4 7106   1.616   0.008   3.626 -0.4011 -0.0539  0.3204
 1834SOL     OW 7107   2.693   6.207   2.666 -0.3857 -0.3042  0.6393
 1834SOL    HW2 7108   2.695   6.123   2.711 -1.4963 -0.3076  0.7301
 1834SOL    HW3 7109   2.627   6.195   2.597 -0.7484  0.5565  0.8243
 1834SOL    MW4 7110   2.684   6.194   2.663 -0.4070  0.3771  0.3775
 1835SOL     OW 7111   5.936   1.825   3.595 -0.4011 -0.5596  0.1373
 1835SOL    HW2 7112   5.951   1.870   3.511 -0.8792 -0.7124 -0.0360
 1835SOL    HW3 7113   5.984   1.877   3.659 -0.6311 -0.0175 -0.1241
 1835SOL    MW4 7114   5.944   1.838   3.592 -0.0930  0.4975  0.1248
 1836SOL     OW 7115   5.947   3.999   2.976  0.1298  0.6922  0.2741
 1836SOL    HW2 7116   5.906   3.949   2.906  1.7473  0.5608 -0.6122
 1836SOL    HW3 7117   5.873   4.033   3.027 -1.0501 -0.1908 -0.7822
 1836SOL    MW4 7118   5.931   3.997   2.974 -0.1273  0.2206  0.1324
 1837SOL     OW 7119   4.639   4.882   3.899  0.0098 -0.4573 -0.5283
 1837SOL    HW2 7120   4.676   4.929   3.825 -0.6459  1.3894  0.2749
 1837SOL    HW3 7121   4.559   4.929   3.921 -1.1799 -2.4860 -0.2320
 1837SOL    MW4 7122   4.634   4.894   3.893 -0.1371  0.6326 -0.2825
 1838SOL     OW 7123   4.364   2.150   4.744  0.1560 -0.3854 -0.1666
 1838SOL    HW2 7124   4.347   2.084   4.812  1.3536 -0.3470  0.1852
 1838SOL    HW3 7125   4.290   2.141   4.684 -1.3960  0.1908  1.5861
 1838SOL    MW4 7126   4.352   2.140   4.745 -0.3345 -0.5724 -0.3205
 1839SOL     OW 7127   6.177   4.001   3.290  0.2294 -0.0616  0.3620
 1839SOL    HW2 7128   6.127   3.961   3.219 -0.9562  0.1777  1.0358
 1839SOL    HW3 7129   6.202   3.928   3.346  0.7287 -0.1927 -0.0271
 1839SOL    MW4 7130   6.174   3.986   3.288  0.1270 -0.2428  0.5200
 1840SOL     OW 7131   5.879   0.313   2.186 -0.7887  0.1099 -0.0141
 1840SOL    HW2 7132   5.919   0.273   2.263 -1.7701  1.7264  1.3878
 1840SOL    HW3 7133   5.888   0.246   2.118  1.0461 -0.9648  1.1842
 1840SOL    MW4 7134   5.886   0.299   2.187  0.1179  0.2231  0.1023
 1841SOL     OW 7135   1.099   2.816   1.455 -0.3766 -0.2901 -0.1589
 1841SOL    HW2 7136   1.072   2.905   1.435 -0.4164 -0.1879  0.3310
 1841SOL    HW3 7137   1.049   2.761   1.395  0.2903  0.0652 -1.0626
 1841SOL    MW4 7138   1.089   2.820   1.445 -0.3653 -0.0399  0.1870
 1842SOL     OW 7139   0.529   4.265   5.331  0.2263  0.1036 -0.0836
 1842SOL    HW2 7140   0.449   4.252   5.280  0.1030 -0.0483  0.1512
 1842SOL    HW3 7141   0.515   4.217   5.412  0.4742  0.2445  0.0448
 1842SOL    MW4 7142   0.517   4.257   5.335  0.0302  0.0377 -0.1580
 1843SOL     OW 7143   0.627   2.537   5.764  0.6768  0.3765  0.3207
 1843SOL    HW2 7144   0.673   2.608   5.720  1.7490 -1.2080 -1.2752
 1843SOL    HW3 7145   0.536   2.546   5.736  1.0867  0.2319 -1.1548
 1843SOL    MW4 7146   0.621   2.547   5.754  0.0154 -0.1974 -0.2866
 1844SOL     OW 7147   2.566   3.854   4.929 -0.0874  0.0468  0.0782
 1844SOL    HW2 7148   2.481   3.811   4.926 -0.1667  0.0035  1.9692
 1844SOL    HW3 7149   2.556   3.931   4.873 -1.6936  0.5608  1.0241
 1844SOL    MW4 7150   2.554   3.859   4.921  0.4474  0.3272 -0.0662
 1845SOL     OW 7151   5.991   2.174   5.962 -0.5968 -0.0450  0.2113
 1845SOL    HW2 7152   5.915   2.116   5.955 -0.0466 -0.9869  1.5148
 1845SOL    HW3 7153   6.047   2.150   5.888 -1.0623 -0.1111 -0.1242
 1845SOL    MW4 7154   5.988   2.163   5.952 -0.7850  0.5881 -0.2492
 1846SOL     OW 7155   1.860   5.400   3.721 -0.3549  0.3819 -0.0137
 1846SOL    HW2 7156   1.776   5.444   3.713 -0.9654 -0.4027  1.6658
 1846SOL    HW3 7157   1.924   5.472   3.723 -1.0138  1.0099 -0.6333
 1846SOL    MW4 7158   1.858   5.415   3.720  0.3717  0.1951  0.2656
 1847SOL     OW 7159   5.539   1.154   0.896  0.1235 -0.4792  0.4756
 1847SOL    HW2 7160   5.591   1.121   0.823 -0.2559  0.8531 -0.4354
 1847SOL    HW3 7161   5.587   1.232   0.925 -1.8866  1.4730 -1.1383
 1847SOL    MW4 7162   5.552   1.160   0.890 -0.0696  0.3087  0.3050
 1848SOL     OW 7163   4.853   5.782   0.792 -0.3383 -0.1619  0.1222
 1848SOL    HW2 7164   4.898   5.854   0.749 -0.6055  0.3013  0.6112
 1848SOL    HW3 7165   4.776   5.822   0.832  0.2260 -0.4598  1.5576
 1848SOL    MW4 7166   4.849   5.797   0.792 -0.1173 -0.5615 -0.0717
 1849SOL     OW 7167   3.413   0.346   5.083  0.0312  0.4128  0.1298
 1849SOL    HW2 7168   3.355   0.422   5.076 -1.1679 -0.5278 -0.7087
 1849SOL    HW3 7169   3.394   0.295   5.004  1.3229 -0.4059  0.3264
 1849SOL    MW4 7170   3.403   0.350   5.072  0.3698 -0.0832  0.9020
 1850SOL     OW 7171   2.354   1.368   2.265 -0.2448 -0.0128 -0.2465
 1850SOL    HW2 7172   2.363   1.274   2.248 -1.7244 -0.2540  0.1556
 1850SOL    HW3 7173   2.389   1.380   2.353  0.8512  0.0114 -0.6592
 1850SOL    MW4 7174   2.360   1.357   2.274  0.5768  0.5139  0.1909
 1851SOL     OW 7175   1.374   2.165   0.305  0.4106  0.0314 -0.1351
 1851SOL    HW2 7176   1.351   2.074   0.288 -1.5279  0.8910 -2.7647
 1851SOL    HW3 7177   1.391   2.168   0.399  1.7845 -3.2395 -0.1418
 1851SOL    MW4 7178   1.373   2.153   0.315  0.3024  0.2937 -0.6700
 1852SOL     OW 7179   4.641   5.282   3.593 -0.7007 -0.6697  0.4647
 1852SOL    HW2 7180   4.665   5.311   3.506  0.4092 -2.3726  0.1598
 1852SOL    HW3 7181   4.676   5.349   3.652  1.3027 -1.0534 -0.2310
 1852SOL    MW4 7182   4.648   5.294   3.590  0.1290  0.2193  0.4376
 1853SOL     OW 7183   2.724   4.574   1.826  0.1567  0.0734  0.0178
 1853SOL    HW2 7184   2.818   4.596   1.829  0.1089  0.4906  4.6420
 1853SOL    HW3 7185   2.681   4.646   1.871 -2.3787 -0.5291 -1.2620
 1853SOL    MW4 7186   2.731   4.586   1.832  0.1783 -0.2851 -0.1360
 1854SOL     OW 7187   5.767   1.205   6.144  0.7510 -0.0079 -0.0161
 1854SOL    HW2 7188   5.702   1.239   6.206  1.5807  0.6095  0.5329
 1854SOL    HW3 7189   5.721   1.206   6.060  0.0844  0.5388  0.3374
 1854SOL    MW4 7190   5.752   1.210   6.141  0.4758  0.0048 -0.5664
 1855SOL     OW 7191   3.347   4.559   2.114  0.1459  0.1636 -0.3306
 1855SOL    HW2 7192   3.412   4.488   2.113 -0.0663 -0.0243 -1.3977
 1855SOL    HW3 7193   3.395   4.635   2.147  0.2890 -0.5441  1.1745
 1855SOL    MW4 7194   3.362   4.559   2.118 -0.1258 -0.1522 -0.1712
 1856SOL     OW 7195   3.774   0.706   3.905 -0.7610 -0.2062  0.3512
 1856SOL    HW2 7196   3.722   0.692   3.984 -3.1215  0.4874 -0.9823
 1856SOL    HW3 7197   3.754   0.796   3.879 -1.9356 -1.1302 -2.2736
 1856SOL    MW4 7198   3.765   0.716   3.912 -0.0958 -0.0144 -0.5093
 1857SOL     OW 7199   0.067   3.303   1.594  0.3257 -0.9364  0.3595
 1857SOL    HW2 7200   0.014   3.373   1.632  0.5096  0.1069 -1.2096
 1857SOL    HW3 7201   0.035   3.223   1.637  0.1463  0.0847  2.2345
 1857SOL    MW4 7202   0.055   3.302   1.605  0.5110  0.0478 -0.2732
 1858SOL     OW 7203   3.793   3.942   1.134  0.1269 -0.3238 -0.1875
 1858SOL    HW2 7204   3.882   3.922   1.162  0.4316 -0.2884 -1.1194
 1858SOL    HW3 7205   3.738   3.910   1.206  0.9187  0.2928  0.7268
 1858SOL    MW4 7206   3.797   3.935   1.147 -0.0542  0.3611 -0.5863
 1859SOL     OW 7207   4.976   2.541   5.209 -0.3216  0.0529 -0.3548
 1859SOL    HW2 7208   4.942   2.454   5.231 -0.1080 -0.2736 -1.2708
 1859SOL    HW3 7209   4.933   2.564   5.127  0.9328  0.0373 -1.0501
 1859SOL    MW4 7210   4.966   2.533   5.201 -0.3086  0.3654  0.5795
 1860SOL     OW 7211   2.086   1.379   1.919  0.5071 -0.1527 -0.1998
 1860SOL    HW2 7212   2.092   1.408   2.010  0.2195  0.4037 -0.3528
 1860SOL    HW3 7213   1.993   1.389   1.897  0.2597 -1.8126 -0.0695
 1860SOL    MW4 7214   2.074   1.384   1.928  0.3004 -0.2398 -0.0569
 1861SOL     OW 7215   4.505   1.797   0.893 -0.5102  0.0899  0.2737
 1861SOL    HW2 7216   4.505   1.734   0.965  0.1850 -1.7200 -1.2594
 1861SOL    HW3 7217   4.421   1.782   0.849  0.5408 -1.3050 -1.3458
 1861SOL    MW4 7218   4.494   1.787   0.897  0.4090 -0.1826  0.6694
 1862SOL     OW 7219   4.562   5.279   1.665  0.0350 -0.1281 -0.1427
 1862SOL    HW2 7220   4.580   5.287   1.758  2.1357 -1.4229 -0.3831
 1862SOL    HW3 7221   4.648   5.271   1.624 -0.8491  0.0710 -2.1786
 1862SOL    MW4 7222   4.576   5.279   1.672  0.1612  0.3148  0.0717
 1863SOL     OW 7223   4.532   6.159   6.248 -0.3974 -0.0101  0.2301
 1863SOL    HW2 7224   4.528   6.146   6.153  0.4885 -1.0527  0.3149
 1863SOL    HW3 7225   4.510   6.251   6.260 -0.3792  0.1803 -1.0002
 1863SOL    MW4 7226   4.528   6.169   6.237 -0.5404 -0.2646  0.3342
 1864SOL     OW 7227   4.797   2.975   0.773 -0.2773 -0.2018  0.3535
 1864SOL    HW2 7228   4.820   2.885   0.793  0.8832  0.1275  0.5826
 1864SOL    HW3 7229   4.740   3.002   0.845 -1.3664 -1.0060 -0.1716
 1864SOL    MW4 7230   4.792   2.967   0.785  0.2995  0.3243  0.2317
 1865SOL     OW 7231   1.509   1.739   3.019 -0.1592 -0.3193 -0.5312
 1865SOL    HW2 7232   1.464   1.794   3.084  2.2588  1.0754  0.0622
 1865SOL    HW3 7233   1.473   1.767   2.935 -0.6180  0.5333 -0.0685
 1865SOL    MW4 7234   1.498   1.750   3.017  0.0548  0.4626  0.0828
 1866SOL     OW 7235   0.339   3.099   0.406  0.2377 -0.1142  0.4479
 1866SOL    HW2 7236   0.386   3.018   0.387  0.4305  0.5855 -2.5397
 1866SOL    HW3 7237   0.382   3.165   0.351 -1.6929  1.4120  0.6784
 1866SOL    MW4 7238   0.351   3.097   0.396 -0.6038  0.6372 -0.0491
 1867SOL     OW 7239   5.905   5.430   3.727  0.2186 -0.1909  0.5163
 1867SOL    HW2 7240   5.864   5.457   3.645 -1.1792 -1.1659  0.8671
 1867SOL    HW3 7241   5.873   5.341   3.743  0.3065  0.0382  2.2009
 1867SOL    MW4 7242   5.896   5.422   3.718 -0.3618  1.0127 -0.1812
 1868SOL     OW 7243   0.140   5.171   1.265  0.0145 -0.1622  0.0433
 1868SOL    HW2 7244   0.082   5.127   1.203 -1.8310  1.1685  0.7601
 1868SOL    HW3 7245   0.087   5.239   1.305  0.6562 -1.7191  4.0600
 1868SOL    MW4 7246   0.126   5.174   1.262  0.0269  0.2073 -1.0353
 1869SOL     OW 7247   5.923   5.850   2.240 -0.2712  0.5831 -0.1385
 1869SOL    HW2 7248   5.983   5.853   2.314  0.4048  1.8924 -0.7168
 1869SOL    HW3 7249   5.973   5.808   2.170 -1.0522 -1.0544  0.2322
 1869SOL    MW4 7250   5.937   5.845   2.241  0.3990 -0.1725 -0.1950
 1870SOL     OW 7251   5.399   2.840   1.215 -0.4092  0.1179 -0.1047
 1870SOL    HW2 7252   5.457   2.768   1.190 -0.4405 -0.6254  1.7865
 1870SOL    HW3 7253   5.451   2.919   1.199  0.7178 -0.4804  0.5201
 1870SOL    MW4 7254   5.414   2.841   1.209  1.2848 -0.5926  0.4442
 1871SOL     OW 7255   5.212   2.093   4.726  0.1047  0.1217  0.0359
 1871SOL    HW2 7256   5.213   1.999   4.744  0.0454  0.1449  0.1649
 1871SOL    HW3 7257   5.132   2.107   4.676  0.0022  0.1359  0.2017
 1871SOL    MW4 7258   5.202   2.082   4.722 -0.0899  0.1725 -0.2623
 1872SOL     OW 7259   3.044   6.094   2.440  0.0800  0.7844 -0.6480
 1872SOL    HW2 7260   2.967   6.038   2.453  0.8642  0.0411  1.1445
 1872SOL    HW3 7261   3.018   6.180   2.473 -0.9792  1.4356 -2.9886
 1872SOL    MW4 7262   3.030   6.098   2.446 -0.1454 -0.3160  0.0877
 1873SOL     OW 7263   2.321   3.573   4.578 -0.0882  0.1346 -0.4593
 1873SOL    HW2 7264   2.311   3.664   4.550  0.1346  0.1521 -0.4767
 1873SOL    HW3 7265   2.232   3.547   4.606  0.0770  0.7542  0.7282
 1873SOL    MW4 7266   2.308   3.582   4.578  0.6101 -0.2873 -0.4384
 1874SOL     OW 7267   6.049   5.359   2.956 -0.3523 -0.6387 -0.2923
 1874SOL    HW2 7268   6.126   5.303   2.947  0.6019  0.2380  1.7271
 1874SOL    HW3 7269   6.022   5.348   3.047 -1.0760  0.9866 -0.2761
 1874SOL    MW4 7270   6.055   5.351   2.967 -0.0944  0.4394 -0.6272
 1875SOL     OW 7271   4.936   4.092   1.541 -0.0724  0.0161 -0.0900
 1875SOL    HW2 7272   4.957   4.181   1.570 -0.5645  0.0976  0.0306
 1875SOL    HW3 7273   5.004   4.037   1.581 -0.4729  0.1842  0.8500
 1875SOL    MW4 7274   4.948   4.097   1.550  0.4426  0.1872 -0.1068
 1876SOL     OW 7275   3.365   1.155   2.888  0.0764  0.2427  0.0257
 1876SOL    HW2 7276   3.298   1.175   2.824  0.0593 -0.4111 -0.1607
 1876SOL    HW3 7277   3.433   1.222   2.873  0.5541 -0.5196 -1.3705
 1876SOL    MW4 7278   3.365   1.167   2.878  0.1930 -0.2264 -0.7779
 1877SOL     OW 7279   3.412   1.575   3.550 -0.5138 -0.0871 -0.4750
 1877SOL    HW2 7280   3.386   1.562   3.459 -2.3636  0.7892 -0.1274
 1877SOL    HW3 7281   3.426   1.669   3.558 -3.6444  0.4052  0.8326
 1877SOL    MW4 7282   3.410   1.585   3.539  0.4931  0.4919 -0.1456
 1878SOL     OW 7283   2.890   6.349   2.241 -0.0539  0.0662  0.1303
 1878SOL    HW2 7284   2.893   6.353   2.337  1.9274  1.8549  0.0742
 1878SOL    HW3 7285   2.961   6.291   2.217 -1.0919 -1.0739 -0.2773
 1878SOL    MW4 7286   2.900   6.342   2.251  0.6021  0.2307  0.1816
 1879SOL     OW 7287   2.552   3.026   4.109 -0.5272 -0.0964  0.1063
 1879SOL    HW2 7288   2.524   3.028   4.018  1.5628 -1.4886 -0.6310
 1879SOL    HW3 7289   2.537   3.115   4.140 -1.0825  0.4662 -1.6574
 1879SOL    MW4 7290   2.546   3.038   4.101 -0.1447  0.4363 -0.2753
 1880SOL     OW 7291   4.789   5.764   4.529  0.6994  0.0806  0.1957
 1880SOL    HW2 7292   4.705   5.720   4.516  1.0245 -1.8978  3.5184
 1880SOL    HW3 7293   4.771   5.856   4.513 -2.0072 -0.3436  0.3199
 1880SOL    MW4 7294   4.776   5.770   4.525  0.3338 -0.0303  0.2940
 1881SOL     OW 7295   0.407   3.123   3.871  0.3827 -0.0003 -0.7082
 1881SOL    HW2 7296   0.492   3.168   3.878  0.0405  0.5477  0.1370
 1881SOL    HW3 7297   0.421   3.040   3.916  0.3337  0.3186 -0.0829
 1881SOL    MW4 7298   0.420   3.118   3.878 -0.2518  0.0894  0.5901
 1882SOL     OW 7299   0.921   0.561   3.869  0.0800 -0.3666  0.0848
 1882SOL    HW2 7300   0.874   0.477   3.872  2.2143 -1.6038  1.5503
 1882SOL    HW3 7301   0.969   0.558   3.786  0.9442 -1.0748  0.6019
 1882SOL    MW4 7302   0.921   0.549   3.858  0.0059 -1.0636  0.5915
 1883SOL     OW 7303   1.045   2.017   1.930  0.3586 -0.3943 -0.0268
 1883SOL    HW2 7304   0.957   2.027   1.968  1.0259  4.9109  0.9581
 1883SOL    HW3 7305   1.031   2.027   1.836 -0.1568 -0.6809  0.0109
 1883SOL    MW4 7306   1.031   2.020   1.922  0.2789  0.6171  0.3732
 1884SOL     OW 7307   1.900   6.372   4.017 -0.1643 -0.2130 -0.1676
 1884SOL    HW2 7308   1.809   6.351   4.038 -0.1918 -1.9405 -1.8043
 1884SOL    HW3 7309   1.919   6.451   4.069 -2.2263 -0.4471  1.0366
 1884SOL    MW4 7310   1.891   6.380   4.027 -0.4986 -0.1603 -0.0783
 1885SOL     OW 7311   4.436   4.613   1.543 -0.7537 -0.1853  1.0782
 1885SOL    HW2 7312   4.493   4.650   1.611 -0.8876  1.0249  0.5561
 1885SOL    HW3 7313   4.405   4.531   1.580  1.8157 -1.2029  1.1377
 1885SOL    MW4 7314   4.439   4.607   1.557 -1.0131 -0.1074  1.1521
 1886SOL     OW 7315   1.157   0.228   5.457  0.5063 -0.1258  0.1976
 1886SOL    HW2 7316   1.107   0.310   5.457  1.2380  0.3330 -1.0689
 1886SOL    HW3 7317   1.248   0.255   5.445  0.6814 -1.1562 -0.9864
 1886SOL    MW4 7318   1.162   0.243   5.456  0.0132 -0.0694  0.3338
 1887SOL     OW 7319   5.018   5.646   3.686  0.0603  0.0768  0.0326
 1887SOL    HW2 7320   5.088   5.619   3.746  1.4636  1.3934 -0.9170
 1887SOL    HW3 7321   5.008   5.571   3.626  0.6702 -0.1450  0.1920
 1887SOL    MW4 7322   5.026   5.632   3.686 -0.4764 -0.2012  0.2305
 1888SOL     OW 7323   3.081   4.027   2.672 -0.4495 -0.4029 -0.4990
 1888SOL    HW2 7324   3.101   4.118   2.695  2.2904 -0.8253 -0.8152
 1888SOL    HW3 7325   3.116   3.976   2.745 -2.5547 -1.2212 -0.0057
 1888SOL    MW4 7326   3.088   4.033   2.685 -0.4556 -0.2104  0.4885
 1889SOL     OW 7327   6.105   4.778   0.388 -0.5260 -0.0496  0.1495
 1889SOL    HW2 7328   6.095   4.683   0.387 -0.1407 -0.1830 -3.7723
 1889SOL    HW3 7329   6.019   4.812   0.364 -0.3624  0.5309  0.3681
 1889SOL    MW4 7330   6.093   4.770   0.385  0.0488  0.2794 -1.1251
 1890SOL     OW 7331   4.339   1.338   1.449 -0.0309 -0.3329  0.5096
 1890SOL    HW2 7332   4.347   1.362   1.542 -0.1333  1.1306  0.1584
 1890SOL    HW3 7333   4.378   1.251   1.444  1.1754  0.0971  1.6921
 1890SOL    MW4 7334   4.345   1.330   1.461 -0.2648 -0.7671  0.0748
 1891SOL     OW 7335   2.180   5.811   5.163  0.0679  0.0022 -0.5450
 1891SOL    HW2 7336   2.258   5.840   5.117  0.3214 -2.2480 -1.6733
 1891SOL    HW3 7337   2.208   5.736   5.215 -0.9572  0.3721  0.6184
 1891SOL    MW4 7338   2.194   5.805   5.164 -0.8349 -0.1485  0.2301
 1892SOL     OW 7339   0.189   5.057   4.225  0.2374 -0.1804 -0.2204
 1892SOL    HW2 7340   0.150   4.998   4.161 -0.4594  0.0521 -0.0112
 1892SOL    HW3 7341   0.249   5.000   4.275 -1.0003 -0.9193  0.4893
 1892SOL    MW4 7342   0.192   5.041   4.223  0.3718 -0.4457  0.5540
 1893SOL     OW 7343   1.152   4.935   3.870  0.0979 -0.4871  0.0545
 1893SOL    HW2 7344   1.215   4.863   3.861 -0.5109 -0.8957 -1.1285
 1893SOL    HW3 7345   1.207   5.013   3.876  0.7529 -0.7476 -1.8524
 1893SOL    MW4 7346   1.168   4.936   3.870  0.4379  0.2426  0.5907
 1894SOL     OW 7347   3.680   5.222   4.159  0.2885  0.2737  0.0565
 1894SOL    HW2 7348   3.599   5.232   4.109  0.8027  1.3409 -0.5841
 1894SOL    HW3 7349   3.651   5.211   4.250 -0.6873 -2.2129 -0.4643
 1894SOL    MW4 7350   3.666   5.222   4.165 -0.2909  0.3264 -0.2065
 1895SOL     OW 7351   5.334   2.130   4.125  0.6569 -0.5877 -0.1445
 1895SOL    HW2 7352   5.341   2.090   4.038  0.4750  1.4582 -1.1640
 1895SOL    HW3 7353   5.352   2.223   4.110  1.3546 -0.2974  2.1441
 1895SOL    MW4 7354   5.337   2.137   4.112  0.1135 -0.0791 -0.4362
 1896SOL     OW 7355   2.171   3.331   5.706  0.3823 -0.2371 -0.3700
 1896SOL    HW2 7356   2.252   3.349   5.658  0.3755  1.6086  0.2054
 1896SOL    HW3 7357   2.197   3.334   5.798 -0.1389 -0.7984 -0.2011
 1896SOL    MW4 7358   2.185   3.334   5.712 -0.4441  0.1517  0.1999
 1897SOL     OW 7359   1.950   3.856   1.873  0.0892  0.0510 -0.3473
 1897SOL    HW2 7360   1.874   3.820   1.827  0.9576 -0.2523 -1.5738
 1897SOL    HW3 7361   2.006   3.780   1.889  0.3798  0.3570  0.0908
 1897SOL    MW4 7362   1.947   3.841   1.869 -0.3930 -0.7391 -0.2948
 1898SOL     OW 7363   1.396   3.712   2.274 -0.3267  0.3167  0.1657
 1898SOL    HW2 7364   1.378   3.805   2.289  0.6300  0.7370 -1.0904
 1898SOL    HW3 7365   1.318   3.667   2.306 -3.3465  1.8752 -4.1314
 1898SOL    MW4 7366   1.384   3.719   2.280 -0.3926 -0.5461 -0.0264
 1899SOL     OW 7367   1.115   2.818   2.883  0.2431 -0.1174  0.1442
 1899SOL    HW2 7368   1.069   2.771   2.953  2.6455 -0.1511  1.8457
 1899SOL    HW3 7369   1.180   2.756   2.850  1.2836  0.9163  0.1486
 1899SOL    MW4 7370   1.118   2.804   2.888  0.2873  0.3294 -0.0464
 1900SOL     OW 7371   6.421   1.176   2.996  0.2801 -0.2612 -0.3961
 1900SOL    HW2 7372   6.376   1.137   3.070  1.5962  1.3452  1.3456
 1900SOL    HW3 7373   6.379   1.261   2.984  2.7762  1.3439  1.3666
 1900SOL    MW4 7374   6.409   1.182   3.004  0.0639  0.6264  0.1437
 1901SOL     OW 7375   5.090   2.065   2.986  0.1347  0.1122  0.3131
 1901SOL    HW2 7376   5.119   2.146   3.028 -1.5262  0.4682  0.8579
 1901SOL    HW3 7377   5.089   2.001   3.057 -0.3718  0.1074  0.3061
 1901SOL    MW4 7378   5.094   2.067   3.001 -0.6521 -0.1808  0.2409
 1902SOL     OW 7379   2.435   0.757   4.374  0.1051 -0.5440 -0.1385
 1902SOL    HW2 7380   2.508   0.722   4.322  0.8735 -1.4679  1.4781
 1902SOL    HW3 7381   2.357   0.726   4.329  0.6450  0.4997 -1.9414
 1902SOL    MW4 7382   2.435   0.749   4.361  0.1351  0.1590 -0.3876
 1903SOL     OW 7383   5.281   6.264   0.270 -0.4446  1.1640  0.3762
 1903SOL    HW2 7384   5.335   6.303   0.339 -0.9731  2.4924  0.0746
 1903SOL    HW3 7385   5.193   6.299   0.286 -0.5056  1.8454 -1.1834
 1903SOL    MW4 7386   5.276   6.274   0.281 -0.8868  0.2471 -0.6172
 1904SOL     OW 7387   3.264   5.599   0.946 -0.3202 -0.0630  0.0174
 1904SOL    HW2 7388   3.354   5.599   0.979 -0.1490  1.6754 -0.3708
 1904SOL    HW3 7389   3.258   5.678   0.894 -2.0738 -0.1932 -0.0193
 1904SOL    MW4 7390   3.275   5.609   0.944 -0.1876 -0.1199 -0.2828
 1905SOL     OW 7391   0.577   5.356   3.976 -0.8003 -0.1118 -0.2762
 1905SOL    HW2 7392   0.511   5.403   4.027 -1.7299 -1.5007 -0.1285
 1905SOL    HW3 7393   0.638   5.423   3.946 -0.7863  0.8835  1.8356
 1905SOL    MW4 7394   0.576   5.371   3.979 -0.2009  0.1505 -0.1258
 1906SOL     OW 7395   2.181   0.837   2.735 -0.2819  0.5614 -0.0189
 1906SOL    HW2 7396   2.243   0.786   2.682  0.1186  0.4251  0.5682
 1906SOL    HW3 7397   2.206   0.928   2.720 -0.7314  0.5723 -0.7443
 1906SOL    MW4 7398   2.192   0.842   2.726 -0.1212 -0.2859  0.4852
 1907SOL     OW 7399   4.523   6.419   6.266  0.0448 -0.0084 -0.0679
 1907SOL    HW2 7400   4.578   6.459   6.333  1.4738 -0.1546 -1.1124
 1907SOL    HW3 7401   4.443   6.471   6.267 -0.1879 -0.3222  2.0744
 1907SOL    MW4 7402   4.520   6.431   6.275 -0.1373 -0.1612  0.0636
 1908SOL     OW 7403   4.501   0.468   6.155 -0.0844  0.1115 -0.1393
 1908SOL    HW2 7404   4.580   0.421   6.130  1.1985  1.0332  1.8477
 1908SOL    HW3 7405   4.429   0.407   6.138  1.2522 -1.5307 -0.0957
 1908SOL    MW4 7406   4.502   0.454   6.150 -0.3786 -0.7273  0.5587
 1909SOL     OW 7407   5.626   3.290   1.107 -0.0222  0.3351  0.1493
 1909SOL    HW2 7408   5.655   3.294   1.198 -1.1519 -0.2439  0.5582
 1909SOL    HW3 7409   5.564   3.217   1.105 -1.1790  1.3000 -0.7328
 1909SOL    MW4 7410   5.621   3.281   1.118  0.2274  0.2401  0.2055
 1910SOL     OW 7411   1.703   2.934   4.004 -0.3848  0.1670  0.5421
 1910SOL    HW2 7412   1.709   3.010   3.946  2.9240 -0.6981 -0.4753
 1910SOL    HW3 7413   1.638   2.877   3.962 -2.2912  1.9732  0.8732
 1910SOL    MW4 7414   1.695   2.937   3.991  0.4685 -0.5653  0.2779
 1911SOL     OW 7415   4.110   3.459   2.303 -0.4463  0.0545  0.2918
 1911SOL    HW2 7416   4.028   3.430   2.343 -0.1791 -3.0531 -1.1279
 1911SOL    HW3 7417   4.083   3.519   2.234 -1.3716  0.3943  0.9288
 1911SOL    MW4 7418   4.095   3.463   2.299 -0.1872  0.3866  0.3660
 1912SOL     OW 7419   2.161   2.811   4.553  0.1389 -0.0676  0.5928
 1912SOL    HW2 7420   2.130   2.728   4.588 -2.1878  0.6950  0.4651
 1912SOL    HW3 7421   2.257   2.806   4.563  0.1657 -3.0455 -0.1318
 1912SOL    MW4 7422   2.170   2.800   4.559 -0.4173  0.1480  0.1251
 1913SOL     OW 7423   2.851   0.185   2.103  0.0746 -0.2838 -0.4802
 1913SOL    HW2 7424   2.940   0.220   2.106 -0.0643  0.0111  0.6019
 1913SOL    HW3 7425   2.858   0.098   2.142  0.0647 -0.6916 -1.3610
 1913SOL    MW4 7426   2.864   0.178   2.108 -0.2742 -0.2833  0.2896
 1914SOL     OW 7427   1.341   6.149   5.360  0.7492 -0.0649 -0.1666
 1914SOL    HW2 7428   1.408   6.181   5.299 -0.6491  1.4608 -1.0010
 1914SOL    HW3 7429   1.265   6.131   5.304 -0.3692  0.7653  1.0315
 1914SOL    MW4 7430   1.340   6.151   5.344 -0.2285 -0.0091  0.1295
 1915SOL     OW 7431   2.058   5.319   3.984 -0.6093 -0.2923  0.0341
 1915SOL    HW2 7432   2.032   5.358   4.068 -0.6455  1.8389 -0.8973
 1915SOL    HW3 7433   1.986   5.340   3.925  1.0623  1.7028 -1.4509
 1915SOL    MW4 7434   2.045   5.327   3.988 -0.3403 -0.3605 -0.3122
 1916SOL     OW 7435   2.494   1.016   5.692  0.4085  0.3023  0.4785
 1916SOL    HW2 7436   2.413   1.060   5.716 -1.0193 -0.6700 -2.1051
 1916SOL    HW3 7437   2.523   1.061   5.613  0.6317 -1.3068 -0.4096
 1916SOL    MW4 7438   2.487   1.027   5.685  0.1407  0.1129  0.0065
 1917SOL     OW 7439   4.683   5.685   3.359 -0.1166  0.2070  0.0948
 1917SOL    HW2 7440   4.663   5.717   3.447 -0.6412 -1.0816  0.4712
 1917SOL    HW3 7441   4.683   5.590   3.368 -0.2192  0.0584 -1.3110
 1917SOL    MW4 7442   4.680   5.677   3.372  0.1520  0.4294  0.0395
 1918SOL     OW 7443   3.174   6.412   2.031  0.0445  0.1505  0.0003
 1918SOL    HW2 7444   3.266   6.410   2.007 -0.4979 -0.6438 -2.2789
 1918SOL    HW3 7445   3.162   6.337   2.090  0.5799 -0.6466 -0.8860
 1918SOL    MW4 7446   3.184   6.402   2.036  0.4578 -0.2571 -0.1696
 1919SOL     OW 7447   0.267   3.603   6.217  0.0275 -0.1240 -0.3191
 1919SOL    HW2 7448   0.235   3.634   6.132  0.0410 -0.2924 -0.3862
 1919SOL    HW3 7449   0.280   3.508   6.205 -0.0335 -0.1596 -0.1107
 1919SOL    MW4 7450   0.265   3.594   6.204  0.1555 -0.0609  0.1419
 1920SOL     OW 7451   4.308   1.296   5.386  0.5293 -0.0749 -0.3286
 1920SOL    HW2 7452   4.389   1.265   5.427 -0.4379 -1.0410  0.9012
 1920SOL    HW3 7453   4.316   1.270   5.294  2.7911  2.2400 -0.9182
 1920SOL    MW4 7454   4.320   1.288   5.379  0.2132  0.2795  0.2004
 1921SOL     OW 7455   4.406   1.698   4.842  0.5421  0.1033  0.0558
 1921SOL    HW2 7456   4.379   1.790   4.848  1.4004  0.3562  0.2123
 1921SOL    HW3 7457   4.333   1.650   4.880 -0.3996  0.6236 -1.0208
 1921SOL    MW4 7458   4.393   1.704   4.848 -0.3152 -0.3227 -0.4091
 1922SOL     OW 7459   4.833   0.727   2.035  0.0579 -0.0639  0.2014
 1922SOL    HW2 7460   4.768   0.718   1.966 -0.4615  0.7959  0.5653
 1922SOL    HW3 7461   4.875   0.811   2.019  2.1305 -1.2216 -0.8863
 1922SOL    MW4 7462   4.830   0.737   2.024 -0.1019  0.5144 -0.3932
 1923SOL     OW 7463   0.358   1.481   1.696 -0.2960  0.1487 -0.0784
 1923SOL    HW2 7464   0.328   1.487   1.787  1.9792 -2.4700  0.9519
 1923SOL    HW3 7465   0.431   1.543   1.691 -0.9176  0.8783 -0.4050
 1923SOL    MW4 7466   0.363   1.490   1.708  0.6641  0.2579 -0.1428
 1924SOL     OW 7467   4.593   4.747   6.294 -0.3584  0.1273 -0.5984
 1924SOL    HW2 7468   4.601   4.703   6.379  1.4888 -0.5920 -1.1027
 1924SOL    HW3 7469   4.505   4.726   6.264 -0.2058 -1.6248  0.0678
 1924SOL    MW4 7470   4.583   4.739   6.302 -0.2177  0.4605  0.1209
 1925SOL     OW 7471   0.404   0.188   1.606 -0.2484  0.3903  0.0277
 1925SOL    HW2 7472   0.332   0.148   1.654  0.0034  0.6208  0.6084
 1925SOL    HW3 7473   0.364   0.224   1.527 -0.6440 -0.1067  0.0041
 1925SOL    MW4 7474   0.390   0.188   1.602 -0.0935 -0.0140 -0.1322
 1926SOL     OW 7475   5.560   4.299   4.408 -0.3490 -0.1641  0.1914
 1926SOL    HW2 7476   5.597   4.384   4.383 -0.7022  0.6410  2.2097
 1926SOL    HW3 7477   5.466   4.315   4.416 -0.5241 -0.9559 -0.1669
 1926SOL    MW4 7478   5.553   4.312   4.406 -0.1185  0.3824  0.0692
 1927SOL     OW 7479   5.927   3.962   1.801  0.1282  0.5516  0.3826
 1927SOL    HW2 7480   5.893   3.931   1.717  0.3053 -0.4822  0.6822
 1927SOL    HW3 7481   5.851   3.996   1.847  0.2294  2.4208 -0.7245
 1927SOL    MW4 7482   5.913   3.962   1.796 -0.8326  0.2294 -0.4874
 1928SOL     OW 7483   4.388   1.192   4.862  0.1921 -0.5716  0.0824
 1928SOL    HW2 7484   4.388   1.103   4.829 -0.2634 -0.7714  0.6229
 1928SOL    HW3 7485   4.419   1.185   4.952 -0.3444 -0.2431  0.2941
 1928SOL    MW4 7486   4.392   1.180   4.869 -0.7525  0.4428  0.6893
 1929SOL     OW 7487   4.994   4.589   0.587 -0.0682 -0.2655 -0.3379
 1929SOL    HW2 7488   5.079   4.561   0.622 -0.4653  0.2706  1.1219
 1929SOL    HW3 7489   4.944   4.617   0.663 -0.3134  2.7745 -1.4578
 1929SOL    MW4 7490   4.999   4.589   0.601 -0.2594 -0.4115 -0.2246
 1930SOL     OW 7491   5.126   0.269   0.395  0.0608  0.2793  0.1004
 1930SOL    HW2 7492   5.053   0.318   0.358 -1.8171 -1.9356  0.5838
 1930SOL    HW3 7493   5.136   0.303   0.484 -0.6878  0.3519  0.1647
 1930SOL    MW4 7494   5.118   0.280   0.402  0.0678 -0.2136 -0.3756
 1931SOL     OW 7495   0.544   2.449   2.171  0.6599 -0.3590 -0.2741
 1931SOL    HW2 7496   0.621   2.495   2.206 -1.3672  1.2150  2.6128
 1931SOL    HW3 7497   0.541   2.367   2.220 -0.1235  0.1668  0.6073
 1931SOL    MW4 7498   0.554   2.445   2.182  0.7318  0.6489  0.3326
 1932SOL     OW 7499   6.130   0.189   4.071  0.9976 -0.1728  0.4028
 1932SOL    HW2 7500   6.051   0.182   4.123 -0.1135 -1.6907 -1.3473
 1932SOL    HW3 7501   6.124   0.275   4.028  0.7008  0.0386  0.8733
 1932SOL    MW4 7502   6.119   0.200   4.072  0.3505 -0.1198  0.2047
 1933SOL     OW 7503   0.206   1.329   2.764  0.0001  0.0361  0.3783
 1933SOL    HW2 7504   0.281   1.365   2.717 -0.5381  1.4978  0.5991
 1933SOL    HW3 7505   0.241   1.304   2.850  0.3573  0.1425  0.2654
 1933SOL    MW4 7506   0.221   1.330   2.769  0.0349 -0.3401 -0.1242
 1934SOL     OW 7507   0.821   4.621   6.274 -0.0211  0.8278 -0.0221
 1934SOL    HW2 7508   0.757   4.579   6.216 -0.1932  0.7601  0.2165
 1934SOL    HW3 7509   0.820   4.713   6.248  1.5261  0.4458 -1.6553
 1934SOL    MW4 7510   0.813   4.628   6.263  0.1560  0.2263  0.5586
 1935SOL     OW 7511   6.384   5.081   4.354 -0.5774 -0.2567  0.1190
 1935SOL    HW2 7512   6.360   5.173   4.365  0.0325 -0.2311  1.3320
 1935SOL    HW3 7513   6.468   5.084   4.309  0.7077 -0.1066  2.4052
 1935SOL    MW4 7514   6.392   5.094   4.350  0.3531 -0.4120 -0.1084
 1936SOL     OW 7515   0.186   3.462   5.348  0.0833  0.6154 -0.7497
 1936SOL    HW2 7516   0.261   3.522   5.340  1.1588 -0.7036 -1.0610
 1936SOL    HW3 7517   0.170   3.431   5.259  0.9209 -1.1116 -0.3429
 1936SOL    MW4 7518   0.194   3.466   5.335 -0.2689 -0.1479  0.4036
 1937SOL     OW 7519   4.965   2.969   3.744 -0.4534  0.0165 -0.0760
 1937SOL    HW2 7520   4.958   3.064   3.755 -1.5302 -0.1221  0.5459
 1937SOL    HW3 7521   5.059   2.952   3.737 -0.0957  0.8933  1.9539
 1937SOL    MW4 7522   4.976   2.979   3.744 -0.1985 -0.1130  0.4751
 1938SOL     OW 7523   3.306   5.116   0.040 -0.2548 -0.5196  0.1930
 1938SOL    HW2 7524   3.282   5.199  -0.000  1.9632 -0.0518 -0.2587
 1938SOL    HW3 7525   3.300   5.132   0.134  1.8333  0.7439  0.1668
 1938SOL    MW4 7526   3.302   5.129   0.047  0.0659  0.4507 -0.1659
 1939SOL     OW 7527   0.497   1.010   3.269 -0.2155 -0.2380 -0.2180
 1939SOL    HW2 7528   0.563   1.071   3.302 -0.1200 -0.2687 -0.3506
 1939SOL    HW3 7529   0.542   0.962   3.200 -0.6792  0.4197 -0.9862
 1939SOL    MW4 7530   0.512   1.012   3.265 -0.7301  0.1777  0.0847
 1940SOL     OW 7531   3.091   5.877   6.064 -0.1185  0.3676  0.4918
 1940SOL    HW2 7532   3.083   5.816   5.991  2.3571  0.9771 -0.3965
 1940SOL    HW3 7533   3.018   5.938   6.052 -1.0280 -0.8069 -0.1725
 1940SOL    MW4 7534   3.080   5.877   6.053  0.1149 -0.2428  0.2046
 1941SOL     OW 7535   3.237   4.485   2.838  0.4747 -0.2099 -0.1369
 1941SOL    HW2 7536   3.279   4.570   2.826 -0.0449 -0.1668 -1.9452
 1941SOL    HW3 7537   3.162   4.504   2.895  0.1885  0.6079 -0.7675
 1941SOL    MW4 7538   3.232   4.499   2.844 -0.7346  0.1084 -0.0012
 1942SOL     OW 7539   4.780   1.774   4.211  0.1505 -0.1602  0.1315
 1942SOL    HW2 7540   4.718   1.745   4.144 -0.3503 -0.4374  0.7082
 1942SOL    HW3 7541   4.727   1.787   4.290  0.7990 -0.2526  0.5950
 1942SOL    MW4 7542   4.765   1.772   4.213 -0.1604 -0.1600  0.4184
 1943SOL     OW 7543   2.077   0.869   1.688  0.1277  0.1767 -0.0690
 1943SOL    HW2 7544   2.089   0.895   1.597  0.1827  0.8543  0.1235
 1943SOL    HW3 7545   2.164   0.880   1.727  0.9402 -3.1849 -0.6547
 1943SOL    MW4 7546   2.090   0.874   1.681  0.2888  0.3886 -0.1411
 1944SOL     OW 7547   0.530   4.755   4.542  0.2844  0.2859 -0.5785
 1944SOL    HW2 7548   0.585   4.726   4.615  1.7619  0.3375 -1.6197
 1944SOL    HW3 7549   0.571   4.716   4.464 -2.1305 -1.0841 -1.2843
 1944SOL    MW4 7550   0.542   4.746   4.541 -0.0158  0.3905  0.2223
 1945SOL     OW 7551   3.166   5.157   4.972  0.2377 -0.3586  0.2886
 1945SOL    HW2 7552   3.181   5.235   4.918  3.3401 -0.9299  0.1749
 1945SOL    HW3 7553   3.169   5.084   4.910  2.0053 -0.8710  0.9153
 1945SOL    MW4 7554   3.168   5.158   4.957 -0.2328  0.4610  0.1964
 1946SOL     OW 7555   4.621   2.193   0.697 -0.2100  0.0414  0.1800
 1946SOL    HW2 7556   4.662   2.247   0.629 -1.4003 -1.1385 -1.5650
 1946SOL    HW3 7557   4.538   2.236   0.715 -0.6605 -0.5702 -0.3965
 1946SOL    MW4 7558   4.616   2.206   0.691  0.2880 -0.2965  0.0985
 1947SOL     OW 7559   2.994   0.203   2.773 -0.7061 -0.5232 -0.2582
 1947SOL    HW2 7560   2.942   0.273   2.733  0.9293 -0.2365 -2.0185
 1947SOL    HW3 7561   3.004   0.229   2.864  1.0880  2.3707 -1.1635
 1947SOL    MW4 7562   2.988   0.215   2.780  0.0512  0.0969 -0.6586
 1948SOL     OW 7563   1.007   2.519   4.735  0.1877 -0.1498 -0.2042
 1948SOL    HW2 7564   1.035   2.537   4.645  0.1645  1.8854  0.1523
 1948SOL    HW3 7565   0.945   2.589   4.755  0.8757 -0.0372  1.7057
 1948SOL    MW4 7566   1.002   2.531   4.726  0.1754 -0.4797 -0.3457
 1949SOL     OW 7567   2.086   5.315   2.009 -0.6203  0.1713  0.2672
 1949SOL    HW2 7568   2.090   5.335   2.102  0.0789 -0.1390  0.3120
 1949SOL    HW3 7569   2.142   5.382   1.968 -1.6835  0.8915 -0.0391
 1949SOL    MW4 7570   2.094   5.326   2.016  0.2931  0.2245 -0.2233
 1950SOL     OW 7571   5.192   0.670   2.191  0.0036  0.1351  0.2403
 1950SOL    HW2 7572   5.178   0.659   2.097 -1.2187 -1.9489  0.5966
 1950SOL    HW3 7573   5.193   0.581   2.226 -1.0269  0.8837  2.3801
 1950SOL    MW4 7574   5.190   0.657   2.183 -0.1366  0.0225  0.6748
 1951SOL     OW 7575   0.520   0.513   5.889 -0.3556  0.0744  0.0943
 1951SOL    HW2 7576   0.545   0.484   5.976 -0.0648 -1.0761 -0.3603
 1951SOL    HW3 7577   0.591   0.572   5.862  0.3226 -0.7293  0.0594
 1951SOL    MW4 7578   0.533   0.517   5.897  0.8837 -0.7059  0.1622
 1952SOL     OW 7579   4.537   1.506   5.470 -0.2209 -0.0151 -0.3503
 1952SOL    HW2 7580   4.546   1.600   5.479  1.1316 -0.2361  0.9019
 1952SOL    HW3 7581   4.458   1.484   5.519  1.0115  0.1507  1.7857
 1952SOL    MW4 7582   4.528   1.515   5.477 -0.1907  0.6821  0.0594
 1953SOL     OW 7583   3.457   1.549   0.167 -0.5346 -0.9004  0.4954
 1953SOL    HW2 7584   3.436   1.536   0.074 -1.3752 -0.1219  0.5596
 1953SOL    HW3 7585   3.476   1.643   0.173  2.2767 -1.4048  0.6044
 1953SOL    MW4 7586   3.456   1.560   0.155  0.1189 -0.0195  0.4701
 1954SOL     OW 7587   6.043   1.245   3.190 -0.1153 -0.5915  0.3235
 1954SOL    HW2 7588   5.988   1.167   3.180 -0.5210 -0.2612 -0.0427
 1954SOL    HW3 7589   6.133   1.211   3.192  0.0207 -0.8707 -3.3730
 1954SOL    MW4 7590   6.048   1.230   3.189 -0.0042  0.0986  0.0219
 1955SOL     OW 7591   2.631   3.167   1.986  0.3476  0.0491  0.0786
 1955SOL    HW2 7592   2.661   3.103   1.922  0.4721  0.3743 -0.1918
 1955SOL    HW3 7593   2.711   3.202   2.025  0.3502  0.9774 -0.7018
 1955SOL    MW4 7594   2.645   3.163   1.983 -0.3866 -0.4110 -0.1020
 1956SOL     OW 7595   4.032   1.442   6.083  0.1510  0.1079  0.1125
 1956SOL    HW2 7596   4.067   1.530   6.069 -0.3436  0.3473  0.3428
 1956SOL    HW3 7597   3.984   1.423   6.002 -1.2188  0.7719  0.7440
 1956SOL    MW4 7598   4.030   1.451   6.070  0.1962  0.4251 -0.5152
 1957SOL     OW 7599   3.866   2.969   4.485 -0.0567  0.7812  0.1176
 1957SOL    HW2 7600   3.839   3.058   4.463 -0.0089  0.7669 -0.0032
 1957SOL    HW3 7601   3.958   2.965   4.460 -0.0056  0.7597  0.3148
 1957SOL    MW4 7602   3.874   2.980   4.479 -0.2452  0.0130 -0.0499
 1958SOL     OW 7603   1.632   6.233   5.824  0.7757  0.0277  0.6563
 1958SOL    HW2 7604   1.648   6.184   5.743 -0.5086  1.1946 -0.3689
 1958SOL    HW3 7605   1.600   6.168   5.886 -0.1514 -0.5837 -0.4312
 1958SOL    MW4 7606   1.630   6.218   5.821  0.6366  0.7338  0.1343
 1959SOL     OW 7607   4.976   6.091   5.850 -0.3484 -0.3609 -0.2250
 1959SOL    HW2 7608   4.911   6.026   5.823  1.4436 -1.9995 -0.8222
 1959SOL    HW3 7609   5.008   6.060   5.934  0.5935 -0.3183 -0.5520
 1959SOL    MW4 7610   4.971   6.079   5.857 -0.3109 -0.3490 -0.3273
 1960SOL     OW 7611   3.451   5.751   6.133  0.5047 -0.3198  0.1738
 1960SOL    HW2 7612   3.493   5.714   6.211  0.9876 -1.3581 -0.5439
 1960SOL    HW3 7613   3.520   5.751   6.067  0.3188  1.2816 -0.0571
 1960SOL    MW4 7614   3.466   5.746   6.135  0.1037 -0.0101  0.2141
 1961SOL     OW 7615   4.828   5.251   5.104  0.3900 -0.5900  0.5456
 1961SOL    HW2 7616   4.836   5.343   5.127 -0.4748 -0.4939  0.4770
 1961SOL    HW3 7617   4.884   5.205   5.168  0.7325 -0.0354  0.6480
 1961SOL    MW4 7618   4.837   5.257   5.116 -0.1410  0.7047 -0.6370
 1962SOL     OW 7619   5.198   0.449   1.186 -0.7166  0.4647  0.2942
 1962SOL    HW2 7620   5.264   0.491   1.241 -0.0134 -1.3484  0.9044
 1962SOL    HW3 7621   5.242   0.436   1.102 -1.5469  2.5542 -0.5312
 1962SOL    MW4 7622   5.212   0.453   1.182  0.2495  0.5960  0.2075
 1963SOL     OW 7623   4.523   3.463   1.093 -0.0062  0.4292  0.3030
 1963SOL    HW2 7624   4.527   3.512   1.010  0.2241  1.1659  0.7367
 1963SOL    HW3 7625   4.445   3.408   1.085 -0.3498  0.9714 -0.1503
 1963SOL    MW4 7626   4.514   3.462   1.081  0.1185 -0.0595 -0.9279
 1964SOL     OW 7627   5.328   3.331   0.224  0.6603  0.3463 -0.0732
 1964SOL    HW2 7628   5.332   3.252   0.278  0.1902  0.2197 -0.2226
 1964SOL    HW3 7629   5.242   3.368   0.241 -0.1635 -0.5861 -1.9610
 1964SOL    MW4 7630   5.317   3.325   0.233  0.4587  0.0746  0.0467
 1965SOL     OW 7631   1.537   6.037   1.879 -0.4166  0.0326 -0.4990
 1965SOL    HW2 7632   1.465   5.984   1.912  0.7818 -1.9165 -0.8390
 1965SOL    HW3 7633   1.552   6.006   1.790  0.1020  1.2267 -0.8531
 1965SOL    MW4 7634   1.530   6.026   1.872 -0.6557  0.0739 -0.2397
 1966SOL     OW 7635   1.184   3.901   0.768  0.0094  0.3932  0.1029
 1966SOL    HW2 7636   1.177   3.847   0.847  2.5843  1.0508  0.8534
 1966SOL    HW3 7637   1.184   3.837   0.696 -4.6931 -0.1492  0.2254
 1966SOL    MW4 7638   1.183   3.885   0.769  0.0104 -0.3666  0.3919
 1967SOL     OW 7639   0.990   4.958   5.950 -0.1416 -0.5475 -0.0086
 1967SOL    HW2 7640   1.057   4.912   6.001  2.0886  2.2219 -0.1911
 1967SOL    HW3 7641   1.022   4.955   5.860 -0.8763 -0.1685 -0.2889
 1967SOL    MW4 7642   1.003   4.952   5.945 -0.2199 -0.0606  0.3147
 1968SOL     OW 7643   2.207   5.616   5.968  0.4081 -0.9230 -0.0277
 1968SOL    HW2 7644   2.215   5.610   5.873 -4.0666 -0.9553 -0.6309
 1968SOL    HW3 7645   2.156   5.538   5.992 -0.5800  0.2824  1.9970
 1968SOL    MW4 7646   2.201   5.605   5.959 -0.4167 -0.0779  0.0966
 1969SOL     OW 7647   2.055   1.626   5.078  0.1544 -0.3737 -0.0466
 1969SOL    HW2 7648   2.069   1.709   5.032 -1.8229  0.8967  1.4512
 1969SOL    HW3 7649   1.960   1.619   5.087  0.2982 -2.5476  0.3808
 1969SOL    MW4 7650   2.044   1.636   5.073 -0.0433  0.3334 -0.0036
 1970SOL     OW 7651   4.090   6.390   6.174 -0.0290 -0.8643 -0.0146
 1970SOL    HW2 7652   4.075   6.299   6.201  1.3557 -0.8130  1.0908
 1970SOL    HW3 7653   4.047   6.397   6.089  0.7144 -2.8629 -0.6345
 1970SOL    MW4 7654   4.083   6.379   6.167  0.2950 -0.6481  0.9508
 1971SOL     OW 7655   5.425   1.025   4.058 -0.3155 -0.4311  0.2579
 1971SOL    HW2 7656   5.371   0.948   4.046  0.9640 -1.1298 -1.5425
 1971SOL    HW3 7657   5.504   1.007   4.007  1.0254  1.1041  1.6684
 1971SOL    MW4 7658   5.428   1.013   4.050  0.1233 -0.9464  0.3489
 1972SOL     OW 7659   2.418   5.774   5.464  0.1932 -0.2840  0.4350
 1972SOL    HW2 7660   2.346   5.733   5.513 -1.1797 -0.0302 -1.2888
 1972SOL    HW3 7661   2.381   5.857   5.434  2.3096  1.4548  2.2618
 1972SOL    MW4 7662   2.403   5.779   5.467  0.3298 -0.2052 -0.0102
 1973SOL     OW 7663   6.072   4.634   2.797  0.2433 -0.4108  0.3051
 1973SOL    HW2 7664   6.125   4.635   2.877  1.5962 -3.6234 -0.3948
 1973SOL    HW3 7665   5.985   4.608   2.827  0.4232 -0.3798  0.8733
 1973SOL    MW4 7666   6.067   4.631   2.811  0.4822  0.8315  0.0273
 1974SOL     OW 7667   5.778   4.542   5.686 -0.3287 -0.2389  0.1197
 1974SOL    HW2 7668   5.703   4.501   5.644 -0.5957  1.2960 -0.9959
 1974SOL    HW3 7669   5.756   4.544   5.779 -1.5843 -0.0012 -0.1674
 1974SOL    MW4 7670   5.765   4.537   5.693 -0.1871  0.2133  0.2826
 1975SOL     OW 7671   4.605   3.810   2.546 -0.5525  0.4994  0.6509
 1975SOL    HW2 7672   4.696   3.825   2.573 -0.4666  2.6626 -0.6335
 1975SOL    HW3 7673   4.557   3.801   2.629  0.5106  1.4913  1.4131
 1975SOL    MW4 7674   4.611   3.811   2.561  0.7000  0.0127  0.2152
 1976SOL     OW 7675   1.827   4.694   2.615  0.3263  0.1823  0.0231
 1976SOL    HW2 7676   1.804   4.701   2.708 -0.1404 -0.8603  0.0060
 1976SOL    HW3 7677   1.825   4.600   2.598 -1.4927  0.4339 -1.4943
 1976SOL    MW4 7678   1.823   4.682   2.625 -0.3612  0.2560  0.0524
 1977SOL     OW 7679   3.910   4.461   0.022  0.7919 -0.1240  0.2780
 1977SOL    HW2 7680   3.865   4.473  -0.061  2.9154 -1.7427 -1.2245
 1977SOL    HW3 7681   3.879   4.378   0.056  1.8452 -0.7636 -0.2711
 1977SOL    MW4 7682   3.900   4.452   0.016 -0.1385  0.0872 -0.2244
 1978SOL     OW 7683   0.953   2.077   5.065  0.7202  0.2937  0.0416
 1978SOL    HW2 7684   1.022   2.083   4.998  3.4324  0.6447  2.6546
 1978SOL    HW3 7685   0.991   2.024   5.134 -1.7092  0.4501  1.6122
 1978SOL    MW4 7686   0.967   2.071   5.065 -0.4578  0.4621  0.5556
 1979SOL     OW 7687   1.341   3.002   3.494 -0.0630 -0.7363 -0.4928
 1979SOL    HW2 7688   1.338   2.917   3.451 -0.2037 -0.0507 -1.9003
 1979SOL    HW3 7689   1.333   3.065   3.423 -0.3094  0.4561  0.5557
 1979SOL    MW4 7690   1.340   2.999   3.479 -0.0557 -0.3071  0.2307
 1980SOL     OW 7691   3.369   1.209   4.481 -0.6665 -0.7202 -0.3115
 1980SOL    HW2 7692   3.302   1.146   4.454 -0.8268 -1.9270  2.5001
 1980SOL    HW3 7693   3.445   1.155   4.504  0.3565  0.4196 -0.8553
 1980SOL    MW4 7694   3.370   1.193   4.480  0.6648  0.0932 -0.2015
 1981SOL     OW 7695   3.624   4.646   1.866 -0.2164  0.2277 -0.0623
 1981SOL    HW2 7696   3.605   4.708   1.937  2.1783 -1.2719  2.0685
 1981SOL    HW3 7697   3.651   4.701   1.793 -0.6801  1.7765  0.8678
 1981SOL    MW4 7698   3.625   4.662   1.866 -0.3727 -0.5302 -0.1650
 1982SOL     OW 7699   3.392   6.381   0.939  0.2143  0.1492  0.1595
 1982SOL    HW2 7700   3.305   6.414   0.916 -0.1725 -1.8314 -1.5004
 1982SOL    HW3 7701   3.428   6.349   0.857  1.0684 -2.2763  1.3845
 1982SOL    MW4 7702   3.385   6.381   0.925  0.1084  0.3825 -0.6928
 1983SOL     OW 7703   0.939   5.429   5.511  0.9844  0.3358 -0.3908
 1983SOL    HW2 7704   0.918   5.460   5.423 -0.4022  2.8197  0.6860
 1983SOL    HW3 7705   0.901   5.342   5.516 -1.9785  1.4560 -1.2622
 1983SOL    MW4 7706   0.931   5.422   5.500 -0.3807 -0.0699 -0.2696
 1984SOL     OW 7707   1.040   5.880   5.369 -0.0302  0.0948 -0.0054
 1984SOL    HW2 7708   1.101   5.807   5.372 -0.0291  0.1144  0.7341
 1984SOL    HW3 7709   0.972   5.853   5.307  0.4816 -0.1153 -0.4835
 1984SOL    MW4 7710   1.039   5.867   5.361  0.6166 -0.4097  0.2756
 1985SOL     OW 7711   1.672   2.775   0.070  0.2803 -0.0412 -0.6429
 1985SOL    HW2 7712   1.698   2.697   0.119  0.5502  0.2212 -0.3580
 1985SOL    HW3 7713   1.728   2.774  -0.008  0.0579 -0.3034 -0.7988
 1985SOL    MW4 7714   1.683   2.765   0.066 -0.2936  0.1094 -0.1660
 1986SOL     OW 7715   0.354   3.337   1.660 -0.7319  0.2520  0.8397
 1986SOL    HW2 7716   0.342   3.427   1.688 -1.1237  0.1395  1.0433
 1986SOL    HW3 7717   0.266   3.306   1.639 -0.3533  0.6938 -1.6886
 1986SOL    MW4 7718   0.341   3.344   1.661 -0.5651  0.3863  0.3639
 1987SOL     OW 7719   1.259   2.569   2.806 -0.1861 -0.1505  0.2365
 1987SOL    HW2 7720   1.212   2.486   2.799  1.2034 -0.9200 -0.5204
 1987SOL    HW3 7721   1.347   2.549   2.773  0.7879  1.1290  1.9061
 1987SOL    MW4 7722   1.265   2.556   2.800 -0.0907  0.4666 -0.0684
 1988SOL     OW 7723   4.957   2.135   4.600  0.2709  0.4763  0.4809
 1988SOL    HW2 7724   4.949   2.039   4.596 -0.5921  0.5609 -0.3041
 1988SOL    HW3 7725   4.883   2.162   4.654  0.1596  0.7374  0.1984
 1988SOL    MW4 7726   4.946   2.126   4.606  0.5236  0.6128  0.6214
 1989SOL     OW 7727   5.507   1.627   0.458 -0.1960 -0.3895 -0.1689
 1989SOL    HW2 7728   5.489   1.720   0.450 -0.1807 -0.5291 -2.6368
 1989SOL    HW3 7729   5.438   1.585   0.406 -0.3212 -1.8018  1.0517
 1989SOL    MW4 7730   5.495   1.633   0.450  0.1034  0.0710 -0.0536
 1990SOL     OW 7731   6.230   2.980   0.065 -0.0523 -0.1181 -0.4588
 1990SOL    HW2 7732   6.297   2.961  -0.001 -0.7779 -0.5991 -1.0749
 1990SOL    HW3 7733   6.205   2.894   0.099 -0.6941  0.0091 -0.5869
 1990SOL    MW4 7734   6.235   2.966   0.061  0.2746 -0.4249  0.1690
 1991SOL     OW 7735   2.800   1.260   3.457 -0.1807  0.4970  0.4156
 1991SOL    HW2 7736   2.787   1.347   3.495 -1.7717  0.2985  0.4261
 1991SOL    HW3 7737   2.746   1.260   3.378 -1.4658 -0.9564  1.2302
 1991SOL    MW4 7738   2.791   1.271   3.452 -0.2030 -0.3532  0.4062
 1992SOL     OW 7739   5.361   3.753   1.191  0.2013  0.0609 -0.2637
 1992SOL    HW2 7740   5.287   3.721   1.243 -0.3051  0.3466 -0.7894
 1992SOL    HW3 7741   5.382   3.681   1.132 -1.4517  0.9058 -1.9917
 1992SOL    MW4 7742   5.354   3.739   1.190 -0.2517  0.1943  0.0762
 1993SOL     OW 7743   4.357   5.710   5.882  0.9804  0.5762 -0.3895
 1993SOL    HW2 7744   4.284   5.718   5.943  1.2637 -1.8352  0.3862
 1993SOL    HW3 7745   4.392   5.798   5.875 -0.8827  1.4580  0.6264
 1993SOL    MW4 7746   4.352   5.722   5.890  0.6045 -0.4792  0.0004
 1994SOL     OW 7747   5.723   1.785   5.528 -0.3581  0.5547 -1.0005
 1994SOL    HW2 7748   5.743   1.695   5.551 -0.8151  0.6407 -0.2384
 1994SOL    HW3 7749   5.778   1.838   5.585 -0.1453  0.7617 -1.3928
 1994SOL    MW4 7750   5.733   1.780   5.538 -1.3427 -0.1113  0.1364
 1995SOL     OW 7751   3.934   2.545   1.840 -0.2262 -0.5372  0.0755
 1995SOL    HW2 7752   4.004   2.565   1.778 -1.3266 -1.1625 -1.4292
 1995SOL    HW3 7753   3.861   2.601   1.813 -1.7299 -2.9063 -1.1895
 1995SOL    MW4 7754   3.934   2.555   1.828 -0.2046  0.4813  0.6405
 1996SOL     OW 7755   0.675   6.381   4.669 -0.1044  0.3654 -0.1032
 1996SOL    HW2 7756   0.615   6.441   4.714 -0.9974  0.7798 -1.7768
 1996SOL    HW3 7757   0.728   6.344   4.739 -2.7510 -0.5436  1.5620
 1996SOL    MW4 7758   0.674   6.384   4.684  0.0963  0.0456 -0.5221
 1997SOL     OW 7759   3.813   4.596   2.119  0.2077  0.0920 -0.4498
 1997SOL    HW2 7760   3.828   4.659   2.049 -1.5254 -0.9100 -1.8107
 1997SOL    HW3 7761   3.730   4.554   2.097 -1.3120  0.8387  3.0603
 1997SOL    MW4 7762   3.804   4.599   2.107  0.0518 -0.4285  0.5898
 1998SOL     OW 7763   0.652   3.063   1.949 -0.2599 -0.0118 -0.2842
 1998SOL    HW2 7764   0.634   3.120   1.875 -2.1823  0.4093  0.4383
 1998SOL    HW3 7765   0.566   3.031   1.977  0.1591  1.1296  2.7387
 1998SOL    MW4 7766   0.639   3.066   1.943  0.0579 -0.5676  0.0676
 1999SOL     OW 7767   2.761   2.754   3.510 -0.7746  0.1766  0.4081
 1999SOL    HW2 7768   2.802   2.707   3.436  2.5089  1.2091  1.3794
 1999SOL    HW3 7769   2.682   2.794   3.472  1.0051  1.0948 -2.7849
 1999SOL    MW4 7770   2.756   2.753   3.495  0.3771  0.1028 -0.0747
 2000SOL     OW 7771   0.411   5.652   2.820 -0.1793 -0.0056  0.1214
 2000SOL    HW2 7772   0.382   5.672   2.731  1.1231 -0.0929 -0.3357
 2000SOL    HW3 7773   0.504   5.633   2.812  0.1471  0.7770  1.6214
 2000SOL    MW4 7774   0.419   5.652   2.807 -0.0663  0.4984 -0.5769
 2001SOL     OW 7775   0.657   4.604   5.087  0.4052  0.1132 -0.3044
 2001SOL    HW2 7776   0.675   4.685   5.039  2.3733  0.2264  0.5144
 2001SOL    HW3 7777   0.598   4.555   5.030 -0.9617  2.1393 -0.7736
 2001SOL    MW4 7778   0.652   4.608   5.073 -0.6866  0.0290 -0.6034
 2002SOL     OW 7779   2.872   4.954   5.153 -0.0981 -0.2160 -0.2421
 2002SOL    HW2 7780   2.946   5.005   5.122 -1.1116  1.4347 -0.0674
 2002SOL    HW3 7781   2.806   4.962   5.084  0.1453 -2.3623 -0.7888
 2002SOL    MW4 7782   2.873   4.962   5.140  0.4973  0.0676  0.3476
 2003SOL     OW 7783   4.141   0.116   3.376  0.0447  0.3440  0.6451
 2003SOL    HW2 7784   4.154   0.021   3.369 -0.1556  0.3937 -0.5763
 2003SOL    HW3 7785   4.069   0.134   3.316  0.0966  1.2742  0.8600
 2003SOL    MW4 7786   4.133   0.106   3.367 -0.5255 -0.5444  0.2588
 2004SOL     OW 7787   5.752   3.214   0.256 -0.1022  0.0584 -0.6019
 2004SOL    HW2 7788   5.679   3.269   0.284  0.2355  0.5492 -0.6928
 2004SOL    HW3 7789   5.824   3.236   0.315  0.0502 -0.2557 -0.6645
 2004SOL    MW4 7790   5.752   3.224   0.268 -0.0135 -0.6596 -0.1636
 2005SOL     OW 7791   0.228   0.890   5.328 -0.0535  0.1645 -0.2055
 2005SOL    HW2 7792   0.305   0.890   5.271 -0.8457 -0.5976 -1.3302
 2005SOL    HW3 7793   0.218   0.799   5.354  0.6200  0.5913  1.6612
 2005SOL    MW4 7794   0.237   0.878   5.324 -0.3119  0.0992  0.4799
 2006SOL     OW 7795   0.061   0.765   4.839  0.1702  0.7402 -0.0178
 2006SOL    HW2 7796   0.100   0.772   4.752  0.4140 -0.8928 -0.0689
 2006SOL    HW3 7797   0.124   0.714   4.890 -0.9441 -0.2056  0.4755
 2006SOL    MW4 7798   0.074   0.759   4.834 -0.6567  0.3867  0.0226
 2007SOL     OW 7799   1.775   0.450   5.192 -0.3693  0.4271 -0.6427
 2007SOL    HW2 7800   1.718   0.394   5.140  0.5522 -0.6612 -0.4979
 2007SOL    HW3 7801   1.751   0.431   5.283  0.0666  0.1276 -0.5882
 2007SOL    MW4 7802   1.764   0.440   5.197  0.8103 -0.4897  0.0757
 2008SOL     OW 7803   6.425   4.859   6.159  0.3933  0.0221  0.3419
 2008SOL    HW2 7804   6.519   4.873   6.168  0.3730  0.1543  0.3431
 2008SOL    HW3 7805   6.416   4.798   6.085  0.4498  0.4257  0.0012
 2008SOL    MW4 7806   6.436   4.852   6.151 -0.9926  0.6580  0.5746
 2009SOL     OW 7807   0.103   2.311   3.155 -0.9618  1.0878  0.1889
 2009SOL    HW2 7808   0.075   2.245   3.091 -1.0900  2.7582 -1.5725
 2009SOL    HW3 7809   0.051   2.293   3.233 -1.4566 -0.4703 -0.4692
 2009SOL    MW4 7810   0.093   2.300   3.157 -0.1479 -0.0028 -0.3312
 2010SOL     OW 7811   2.770   3.095   2.444 -0.3725 -0.4467  0.1849
 2010SOL    HW2 7812   2.721   3.131   2.370  0.3680 -0.8773 -0.5288
 2010SOL    HW3 7813   2.803   3.011   2.412  1.0769 -0.0367  0.5385
 2010SOL    MW4 7814   2.768   3.088   2.430 -0.5017  0.4779 -0.7714
 2011SOL     OW 7815   4.421   2.036   1.055 -0.1679  0.0970  0.2739
 2011SOL    HW2 7816   4.402   2.128   1.041  0.6561  0.2715  0.2385
 2011SOL    HW3 7817   4.452   2.005   0.970 -0.4944 -0.2272  0.2706
 2011SOL    MW4 7818   4.423   2.044   1.042  0.5039  0.3377 -0.0058
 2012SOL     OW 7819   0.788   3.682   3.370 -0.0326  0.1711 -0.3891
 2012SOL    HW2 7820   0.802   3.590   3.350 -0.6802 -0.1900  0.7390
 2012SOL    HW3 7821   0.695   3.690   3.387  0.2006  0.7816  0.7064
 2012SOL    MW4 7822   0.778   3.671   3.370 -0.1169 -0.0605  0.0579
 2013SOL     OW 7823   5.616   5.985   1.189 -0.2372  0.1164  0.6352
 2013SOL    HW2 7824   5.676   6.057   1.203  0.0207 -0.2788  1.6338
 2013SOL    HW3 7825   5.611   5.940   1.274 -1.1241 -0.4730  0.2914
 2013SOL    MW4 7826   5.623   5.988   1.202 -0.3359 -0.2190 -0.1912
 2014SOL     OW 7827   6.243   3.202   1.092 -0.0768 -0.5451  0.0602
 2014SOL    HW2 7828   6.314   3.264   1.113 -1.2241  1.9053 -2.5751
 2014SOL    HW3 7829   6.165   3.241   1.132 -0.3648 -1.9402  0.8986
 2014SOL    MW4 7830   6.242   3.216   1.100 -0.0285  0.0928 -0.2713
 2015SOL     OW 7831   1.561   1.045   4.873 -0.0603 -0.6820 -0.1024
 2015SOL    HW2 7832   1.572   1.139   4.890  0.7257 -0.9016  0.7062
 2015SOL    HW3 7833   1.539   1.009   4.959 -1.3772 -1.1106 -0.5945
 2015SOL    MW4 7834   1.560   1.053   4.887  0.5348  0.0299  0.1490
 2016SOL     OW 7835   0.140   2.288   4.807 -0.1216  0.3126  0.2563
 2016SOL    HW2 7836   0.125   2.266   4.899  0.8371  0.8726  0.5578
 2016SOL    HW3 7837   0.233   2.270   4.792 -0.6480 -1.6268 -1.1433
 2016SOL    MW4 7838   0.150   2.283   4.817 -0.3392  0.4410 -0.2730
 2017SOL     OW 7839   3.126   4.703   3.851  0.3599 -0.3698  0.5343
 2017SOL    HW2 7840   3.063   4.675   3.917  1.4191  0.1339  1.7824
 2017SOL    HW3 7841   3.208   4.660   3.875  0.5853 -0.8535 -0.9548
 2017SOL    MW4 7842   3.128   4.694   3.863 -0.4454 -0.2578 -0.3306
 2018SOL     OW 7843   1.104   6.107   4.014  0.6210 -0.4796 -0.2120
 2018SOL    HW2 7844   1.052   6.027   4.010  0.1333 -0.2832  1.4075
 2018SOL    HW3 7845   1.042   6.173   4.046  1.2033  0.3910 -0.8358
 2018SOL    MW4 7846   1.089   6.105   4.017 -0.2659 -0.2956 -0.0081
 2019SOL     OW 7847   3.260   5.055   5.434  0.5657  0.1534  0.1886
 2019SOL    HW2 7848   3.187   5.098   5.391  0.7272 -0.5846 -0.8692
 2019SOL    HW3 7849   3.223   4.974   5.471  0.8013 -0.1455 -0.2172
 2019SOL    MW4 7850   3.246   5.050   5.433 -0.2335  0.3315 -0.7487
 2020SOL     OW 7851   2.185   1.433   0.612  0.5214 -0.6456  0.5891
 2020SOL    HW2 7852   2.140   1.513   0.584  0.6309 -0.8644 -0.2562
 2020SOL    HW3 7853   2.210   1.450   0.702 -0.6880 -0.2619  0.8778
 2020SOL    MW4 7854   2.182   1.446   0.620  0.1861 -0.1444  0.0615
 2021SOL     OW 7855   4.014   0.481   0.726  0.5006  0.2571 -0.2841
 2021SOL    HW2 7856   4.093   0.474   0.671 -0.4347 -0.6894 -1.5813
 2021SOL    HW3 7857   4.014   0.400   0.777  1.1264  0.9295  0.8024
 2021SOL    MW4 7858   4.025   0.469   0.725 -0.4683  0.2115 -0.3684
 2022SOL     OW 7859   4.810   4.398   0.508 -0.0785 -0.5667  0.4456
 2022SOL    HW2 7860   4.882   4.461   0.516  0.8391 -1.4732 -0.3747
 2022SOL    HW3 7861   4.802   4.359   0.595 -1.3381  1.3528  1.2529
 2022SOL    MW4 7862   4.818   4.401   0.520 -0.0338  0.6078  0.0816
 2023SOL     OW 7863   5.884   0.294   5.069  0.3333  0.3928 -0.2739
 2023SOL    HW2 7864   5.868   0.247   5.151  1.3236  1.6720  0.6974
 2023SOL    HW3 7865   5.880   0.226   5.001 -1.5455 -0.5433  0.6695
 2023SOL    MW4 7866   5.881   0.279   5.071 -0.0879 -0.0242  0.2352
 2024SOL     OW 7867   4.178   4.556   6.359  0.6200 -0.1319 -0.2760
 2024SOL    HW2 7868   4.086   4.557   6.387  0.3469  0.7350 -1.1095
 2024SOL    HW3 7869   4.228   4.558   6.440 -0.1118  0.1916  0.1840
 2024SOL    MW4 7870   4.172   4.557   6.373 -0.1154 -0.0191  0.2398
 2025SOL     OW 7871   0.279   2.935   4.392 -0.4792  0.3239  0.6443
 2025SOL    HW2 7872   0.261   2.880   4.316  1.0974  0.5986  0.0202
 2025SOL    HW3 7873   0.259   2.880   4.467 -0.6367 -0.4764  0.0292
 2025SOL    MW4 7874   0.274   2.921   4.392 -0.3102  0.4965  0.0197
 2026SOL     OW 7875   3.248   3.963   3.844  0.1705  0.6766  0.7469
 2026SOL    HW2 7876   3.232   3.883   3.793  0.7060  1.0326  0.0013
 2026SOL    HW3 7877   3.161   3.988   3.876 -0.3612  0.9500 -0.7896
 2026SOL    MW4 7878   3.234   3.955   3.842  0.1147 -0.0184 -0.3519
 2027SOL     OW 7879   0.801   4.361   0.258  0.4553 -0.5006 -0.6415
 2027SOL    HW2 7880   0.843   4.437   0.216  1.1215 -0.6696 -0.2916
 2027SOL    HW3 7881   0.746   4.400   0.326  2.4503 -0.3812  1.0158
 2027SOL    MW4 7882   0.800   4.376   0.261 -0.0222 -0.5865 -0.0035
 2028SOL     OW 7883   3.935   5.069   4.859 -0.0841 -0.3696 -0.3615
 2028SOL    HW2 7884   3.878   5.034   4.928  0.5586 -1.4607 -0.3685
 2028SOL    HW3 7885   3.985   5.137   4.903  0.7259 -1.4448  0.4195
 2028SOL    MW4 7886   3.934   5.073   4.874  0.6259 -0.0321 -0.2787
 2029SOL     OW 7887   4.066   1.680   3.962  0.2823 -0.0261 -0.0066
 2029SOL    HW2 7888   4.014   1.638   4.030 -0.0110 -0.4004 -0.4504
 2029SOL    HW3 7889   4.008   1.747   3.925 -0.5384 -1.5015 -1.5953
 2029SOL    MW4 7890   4.051   1.683   3.966 -0.6946 -0.0633 -0.3771
 2030SOL     OW 7891   2.456   6.403   1.565 -0.4712 -0.0900  0.3094
 2030SOL    HW2 7892   2.534   6.454   1.584  1.0273 -1.2853 -2.1210
 2030SOL    HW3 7893   2.425   6.436   1.481 -1.8985 -0.4462  0.6648
 2030SOL    MW4 7894   2.462   6.414   1.556  0.2628 -0.0006  0.2821
 2031SOL     OW 7895   6.238   3.772   3.935 -0.1745  0.1148 -0.1625
 2031SOL    HW2 7896   6.183   3.849   3.947 -0.4291 -0.1149  0.1596
 2031SOL    HW3 7897   6.317   3.805   3.893 -1.0807  0.2539 -1.8309
 2031SOL    MW4 7898   6.241   3.786   3.931  0.4515 -0.3580 -0.1121
 2032SOL     OW 7899   4.053   3.228   6.299  0.0172  0.1353  0.0782
 2032SOL    HW2 7900   4.118   3.253   6.365  1.1793 -0.7658 -0.6746
 2032SOL    HW3 7901   3.971   3.266   6.330  0.8573  1.1182  1.1780
 2032SOL    MW4 7902   4.051   3.236   6.312  0.3935  0.1598 -0.0143
 2033SOL     OW 7903   0.846   0.893   4.396 -0.3848 -0.2861 -0.3100
 2033SOL    HW2 7904   0.758   0.878   4.430  0.1089  0.7265  1.5381
 2033SOL    HW3 7905   0.839   0.976   4.349 -0.0607  0.7996  1.4567
 2033SOL    MW4 7906   0.833   0.902   4.394 -0.0915 -0.2735  0.5116
 2034SOL     OW 7907   2.957   1.737   6.048 -0.2683  0.0913  0.3445
 2034SOL    HW2 7908   2.999   1.735   6.134 -0.4229 -1.2398  0.4116
 2034SOL    HW3 7909   3.001   1.808   6.001 -0.0970  0.7567  1.4647
 2034SOL    MW4 7910   2.968   1.746   6.053 -0.6108 -0.0364 -0.2094
 2035SOL     OW 7911   1.705   0.872   5.351 -0.2524 -0.1217  0.1543
 2035SOL    HW2 7912   1.780   0.829   5.392  0.3895 -0.0677 -0.9348
 2035SOL    HW3 7913   1.734   0.962   5.336 -0.2750 -0.2721 -0.8852
 2035SOL    MW4 7914   1.719   0.879   5.354 -0.6724 -0.8498 -0.1441
 2036SOL     OW 7915   2.922   2.550   5.432 -0.1018 -0.4430 -0.0904
 2036SOL    HW2 7916   2.928   2.641   5.403 -1.2079 -0.5541 -0.7302
 2036SOL    HW3 7917   2.832   2.540   5.463 -0.6789 -1.8564 -2.0323
 2036SOL    MW4 7918   2.911   2.561   5.432 -0.1079 -0.7031 -0.1333
 2037SOL     OW 7919   5.023   4.216   1.156 -0.2833  0.2815 -0.3257
 2037SOL    HW2 7920   5.099   4.268   1.182  1.0155 -2.1371  1.1466
 2037SOL    HW3 7921   5.029   4.210   1.061  1.1808  0.4545 -0.2675
 2037SOL    MW4 7922   5.034   4.222   1.147 -0.1982  0.1494  0.6286
 2038SOL     OW 7923   3.583   2.024   0.903  0.0872 -0.5622  0.0513
 2038SOL    HW2 7924   3.524   2.040   0.829 -0.1399 -0.7939  0.1778
 2038SOL    HW3 7925   3.531   2.045   0.981  0.2388 -0.5724  0.1565
 2038SOL    MW4 7926   3.568   2.029   0.904  0.3596  0.4976  0.0428
 2039SOL     OW 7927   0.328   0.374   2.350  0.3838  0.4913  0.0919
 2039SOL    HW2 7928   0.346   0.424   2.430  1.7517  1.8151 -0.9800
 2039SOL    HW3 7929   0.353   0.433   2.279  2.4047 -1.7982 -1.2639
 2039SOL    MW4 7930   0.334   0.389   2.351 -0.0520 -0.3624  0.6197
 2040SOL     OW 7931   0.708   3.346   5.580  0.0145 -0.0857  0.2422
 2040SOL    HW2 7932   0.795   3.306   5.588 -0.0033 -0.1540  0.0998
 2040SOL    HW3 7933   0.670   3.337   5.667 -0.7904 -2.2244 -0.2591
 2040SOL    MW4 7934   0.715   3.339   5.593 -0.4276  0.5646  0.1670
 2041SOL     OW 7935   3.131   6.354   4.410  0.1892 -0.1521  0.4039
 2041SOL    HW2 7936   3.109   6.442   4.439 -0.8699 -0.8852  1.9572
 2041SOL    HW3 7937   3.132   6.359   4.315 -1.7779  1.1063  0.4157
 2041SOL    MW4 7938   3.128   6.366   4.401 -0.2822  0.6332 -0.2691
 2042SOL     OW 7939   3.564   3.328   0.953  0.3115  0.7050 -1.0193
 2042SOL    HW2 7940   3.521   3.357   1.033 -0.1997 -1.0534 -0.6096
 2042SOL    HW3 7941   3.502   3.348   0.883 -0.3624 -0.0701 -0.6595
 2042SOL    MW4 7942   3.550   3.335   0.954  0.1854  0.2036 -0.2505
 2043SOL     OW 7943   4.621   0.680   1.852 -0.7470 -0.0904  0.5534
 2043SOL    HW2 7944   4.660   0.690   1.765 -0.9521  0.0274  0.4749
 2043SOL    HW3 7945   4.606   0.769   1.883  0.8575 -0.0713  1.4167
 2043SOL    MW4 7946   4.625   0.693   1.845  0.5740  0.7681 -0.5559
 2044SOL     OW 7947   1.224   4.444   2.751 -0.2193 -0.0980  0.0642
 2044SOL    HW2 7948   1.180   4.516   2.706 -0.8472 -0.5153 -0.0003
 2044SOL    HW3 7949   1.153   4.397   2.795  0.3346  0.0993  1.2124
 2044SOL    MW4 7950   1.209   4.447   2.751 -0.5817 -0.2056  0.4032
 2045SOL     OW 7951   4.326   5.314   6.062 -0.2986 -0.2154 -0.0582
 2045SOL    HW2 7952   4.296   5.334   6.151 -3.2843 -1.9775 -0.5099
 2045SOL    HW3 7953   4.380   5.236   6.071 -2.2983 -1.6820  0.1486
 2045SOL    MW4 7954   4.329   5.306   6.074 -0.1939 -0.3802 -0.1463
 2046SOL     OW 7955   0.637   5.010   3.695 -0.3544 -1.1400  0.2213
 2046SOL    HW2 7956   0.642   5.042   3.785  1.1049  0.0454 -0.2419
 2046SOL    HW3 7957   0.621   4.916   3.703  0.1631 -1.1208  1.7205
 2046SOL    MW4 7958   0.635   5.002   3.708  0.4115  0.3256 -0.5570
 2047SOL     OW 7959   5.896   6.175   0.663 -0.1296  0.2643 -0.8660
 2047SOL    HW2 7960   5.839   6.125   0.721  1.5803 -0.9392 -0.1498
 2047SOL    HW3 7961   5.837   6.211   0.596 -1.3382 -3.8288 -2.2615
 2047SOL    MW4 7962   5.881   6.173   0.661 -0.1793 -0.5084 -0.2285
 2048SOL     OW 7963   3.336   5.913   1.939  0.2530  0.0953  0.0552
 2048SOL    HW2 7964   3.272   5.866   1.991  0.6455 -0.3254  0.1604
 2048SOL    HW3 7965   3.286   5.950   1.866 -0.2383  0.4154  0.5497
 2048SOL    MW4 7966   3.321   5.912   1.936  0.2916 -0.2134  0.4853
 2049SOL     OW 7967   2.677   5.830   0.606 -0.0467  0.0794 -0.4880
 2049SOL    HW2 7968   2.639   5.756   0.654  0.0998 -0.5372 -1.3137
 2049SOL    HW3 7969   2.607   5.859   0.548 -0.4956  1.3325  0.6182
 2049SOL    MW4 7970   2.662   5.824   0.605 -0.3090  0.0931 -0.2472
 2050SOL     OW 7971   2.622   4.013   3.276  0.2278  0.0944  0.0841
 2050SOL    HW2 7972   2.661   3.953   3.213 -0.7215  0.2548 -0.6863
 2050SOL    HW3 7973   2.684   4.085   3.283  0.2987  0.1218 -0.7473
 2050SOL    MW4 7974   2.635   4.015   3.269 -0.5081  0.1678  0.1656
 2051SOL     OW 7975   3.607   3.091   1.787  0.0182  0.1199 -0.0345
 2051SOL    HW2 7976   3.542   3.110   1.855  0.8664 -0.4306  0.9599
 2051SOL    HW3 7977   3.594   3.160   1.721 -1.6243 -0.0399  0.0868
 2051SOL    MW4 7978   3.597   3.103   1.787  0.0634 -0.0415  0.2087
 2052SOL     OW 7979   3.319   2.923   5.286 -0.7868  0.2278  0.3707
 2052SOL    HW2 7980   3.393   2.869   5.315 -1.7640 -0.9002  0.8356
 2052SOL    HW3 7981   3.342   2.949   5.197  0.6791  0.8477  0.9025
 2052SOL    MW4 7982   3.332   2.919   5.278 -0.9118  0.6320 -0.0459
 2053SOL     OW 7983   3.654   5.472   3.493  0.2486  0.1098 -0.4029
 2053SOL    HW2 7984   3.745   5.481   3.519 -0.4177 -0.0787  2.3100
 2053SOL    HW3 7985   3.608   5.543   3.537 -1.1920 -1.0037 -0.0014
 2053SOL    MW4 7986   3.660   5.482   3.502 -0.0128 -0.0209 -0.1174
 2054SOL     OW 7987   0.916   4.982   2.352 -0.0491  0.0535 -0.1298
 2054SOL    HW2 7988   0.850   5.010   2.288 -0.1604 -1.0942 -0.5394
 2054SOL    HW3 7989   0.866   4.967   2.432 -0.1612 -0.0215 -0.2125
 2054SOL    MW4 7990   0.901   4.984   2.354 -0.1638  0.0437  0.5356
 2055SOL     OW 7991   1.008   1.178   3.713 -0.1774 -0.1302 -0.4436
 2055SOL    HW2 7992   1.045   1.266   3.707 -2.0660  0.6236 -2.3208
 2055SOL    HW3 7993   0.967   1.163   3.628 -1.1268 -2.2734  0.3125
 2055SOL    MW4 7994   1.007   1.187   3.701  0.1750 -0.4136  0.0448
 2056SOL     OW 7995   3.617   2.768   3.648  0.6230  0.9208 -0.0737
 2056SOL    HW2 7996   3.592   2.859   3.667  0.3284  0.5940  1.2473
 2056SOL    HW3 7997   3.534   2.721   3.642  0.7634  0.7965 -1.1038
 2056SOL    MW4 7998   3.603   2.774   3.650 -0.1738 -0.0230  0.2742
 2057SOL     OW 7999   1.809   4.789   6.219 -0.4325 -0.2142 -0.2504
 2057SOL    HW2 8000   1.886   4.830   6.257 -0.8544  1.1904 -0.8347
 2057SOL    HW3 8001   1.827   4.695   6.222  0.2945 -0.0610  1.7386
 2057SOL    MW4 8002   1.821   4.782   6.224 -0.6355 -0.1547  0.9288
 2058SOL     OW 8003   2.136   0.379   4.900 -0.0605 -0.1034  0.3946
 2058SOL    HW2 8004   2.148   0.467   4.863 -0.7482 -0.6746 -1.2745
 2058SOL    HW3 8005   2.186   0.322   4.842 -3.2938 -1.3672 -1.4314
 2058SOL    MW4 8006   2.144   0.383   4.887  0.3595  0.1700  0.5126
 2059SOL     OW 8007   0.960   5.864   3.965  0.0004  0.3176 -0.2258
 2059SOL    HW2 8008   1.036   5.807   3.956 -1.0334 -1.0988 -0.3337
 2059SOL    HW3 8009   0.908   5.848   3.887  0.2687  2.4088 -0.9072
 2059SOL    MW4 8010   0.963   5.854   3.954 -0.1529  0.2294  0.0468
 2060SOL     OW 8011   2.863   0.650   3.938 -0.2899 -0.0891  0.0520
 2060SOL    HW2 8012   2.887   0.581   3.876 -1.5960 -1.6807  1.2139
 2060SOL    HW3 8013   2.891   0.616   4.023  1.0156  1.8245  0.4461
 2060SOL    MW4 8014   2.870   0.636   3.941 -0.0265 -0.0900  0.3018
 2061SOL     OW 8015   1.372   5.139   4.999 -0.2972  0.3257 -0.1281
 2061SOL    HW2 8016   1.388   5.108   5.088 -1.0203  0.0763 -0.0780
 2061SOL    HW3 8017   1.430   5.087   4.944 -1.1231 -0.7762  0.0094
 2061SOL    MW4 8018   1.382   5.128   5.003 -0.1176 -0.7269 -0.0510
 2062SOL     OW 8019   4.826   6.150   6.218 -0.6101  0.2115 -0.0882
 2062SOL    HW2 8020   4.842   6.059   6.192 -0.9287  0.0262  0.3539
 2062SOL    HW3 8021   4.731   6.156   6.228 -0.5012  0.2745  1.0336
 2062SOL    MW4 8022   4.816   6.139   6.216 -0.1333  0.9023 -0.2027
 2063SOL     OW 8023   2.006   2.798   5.266 -0.1555 -0.7126 -0.1615
 2063SOL    HW2 8024   2.074   2.848   5.311 -1.2786 -0.0302  0.8406
 2063SOL    HW3 8025   1.979   2.855   5.194 -1.3364  0.1386  0.8961
 2063SOL    MW4 8026   2.011   2.813   5.263 -0.3773 -0.6633  0.3528
 2064SOL     OW 8027   4.797   4.100   5.062 -0.1180  0.2206  0.2264
 2064SOL    HW2 8028   4.838   4.146   4.989 -1.1569  0.4263 -0.2523
 2064SOL    HW3 8029   4.823   4.008   5.050  1.3538  0.5353  0.7632
 2064SOL    MW4 8030   4.806   4.094   5.051 -0.1774  0.0203  0.3933
 2065SOL     OW 8031   5.258   4.280   3.389 -0.0468 -0.3535 -0.2801
 2065SOL    HW2 8032   5.312   4.203   3.407  0.0049 -0.1676  0.3739
 2065SOL    HW3 8033   5.170   4.245   3.374  0.4957 -0.8267 -2.9530
 2065SOL    MW4 8034   5.253   4.265   3.389 -0.2422 -0.3754 -0.0607
 2066SOL     OW 8035   1.937   5.157   0.860  0.0466  0.4861 -1.0126
 2066SOL    HW2 8036   1.958   5.250   0.870 -2.4509  1.1900 -1.5292
 2066SOL    HW3 8037   2.014   5.111   0.893  1.0850  2.7254 -0.1020
 2066SOL    MW4 8038   1.950   5.163   0.866 -0.2899 -0.3532  0.6320
 2067SOL     OW 8039   0.306   4.225   0.752  1.3756  0.3807 -0.2125
 2067SOL    HW2 8040   0.258   4.292   0.702  1.5998  0.0028 -0.9489
 2067SOL    HW3 8041   0.238   4.181   0.804  1.1322  0.7486 -0.2134
 2067SOL    MW4 8042   0.291   4.228   0.752 -0.0823 -0.2887  0.3680
 2068SOL     OW 8043   4.735   1.026   2.819 -0.4546 -0.1479 -0.0944
 2068SOL    HW2 8044   4.755   0.998   2.729 -0.9326 -1.3061  0.1440
 2068SOL    HW3 8045   4.646   1.061   2.814 -1.2261 -1.9313  0.2413
 2068SOL    MW4 8046   4.726   1.027   2.806 -0.0466  0.1981  0.5147
 2069SOL     OW 8047   1.035   4.286   2.373 -0.1314  0.1746  0.2704
 2069SOL    HW2 8048   1.113   4.267   2.426 -0.3125 -0.1822  0.4087
 2069SOL    HW3 8049   1.067   4.345   2.305  0.3578 -0.3061  0.0703
 2069SOL    MW4 8050   1.050   4.291   2.371 -0.2895  0.3454  0.4309
 2070SOL     OW 8051   3.468   1.973   1.165 -0.0839  0.0315  0.2040
 2070SOL    HW2 8052   3.542   1.939   1.216 -1.2051 -0.0657  1.8237
 2070SOL    HW3 8053   3.441   2.052   1.212  0.3526  1.3355 -1.6142
 2070SOL    MW4 8054   3.474   1.979   1.178 -0.0827  0.2695 -0.6797
 2071SOL     OW 8055   1.003   0.656   1.966 -0.0792 -0.1005 -0.0808
 2071SOL    HW2 8056   0.917   0.615   1.960  0.4673 -1.1864 -0.9417
 2071SOL    HW3 8057   1.031   0.665   1.875  0.0531  1.7470  0.1087
 2071SOL    MW4 8058   0.995   0.651   1.953 -0.1196  0.0830 -0.6349
 2072SOL     OW 8059   4.977   5.319   5.767 -0.3713  0.2139 -0.2695
 2072SOL    HW2 8060   4.924   5.392   5.799  0.2599  0.6308 -0.1543
 2072SOL    HW3 8061   5.060   5.327   5.813  0.4964  0.7024 -1.8366
 2072SOL    MW4 8062   4.981   5.329   5.777 -0.1666  0.1545 -0.1736
 2073SOL     OW 8063   2.698   5.725   5.426 -0.4210 -0.7936  0.6533
 2073SOL    HW2 8064   2.730   5.637   5.410 -0.4702 -0.7717  0.4281
 2073SOL    HW3 8065   2.606   5.714   5.448 -1.0570 -0.6313 -1.6429
 2073SOL    MW4 8066   2.690   5.712   5.427 -0.2901  0.0922 -0.1331
 2074SOL     OW 8067   2.310   5.037   2.917 -0.0747  0.0562  0.9875
 2074SOL    HW2 8068   2.403   5.059   2.923  0.4643 -1.0829 -1.5728
 2074SOL    HW3 8069   2.279   5.038   3.007  1.6872  3.3552  1.7028
 2074SOL    MW4 8070   2.318   5.040   2.929 -0.4761  0.2745  0.1360
 2075SOL     OW 8071   4.458   3.225   5.989  0.0276  0.1449 -0.1243
 2075SOL    HW2 8072   4.376   3.240   6.036 -0.8605  2.3732 -2.1597
 2075SOL    HW3 8073   4.459   3.131   5.973 -2.4338  0.0954 -0.4900
 2075SOL    MW4 8074   4.447   3.214   5.993  0.2355 -0.3603  0.0180
 2076SOL     OW 8075   6.367   5.061   2.253  0.2673 -0.3797  0.2289
 2076SOL    HW2 8076   6.335   4.983   2.207  1.5545 -1.0389  0.3996
 2076SOL    HW3 8077   6.289   5.098   2.293 -0.1928 -2.4234  1.3855
 2076SOL    MW4 8078   6.352   5.055   2.252  0.2614 -0.2144  0.2507
 2077SOL     OW 8079   1.200   1.536   1.600  0.4293 -0.0396 -0.3374
 2077SOL    HW2 8080   1.222   1.629   1.611  0.9247 -0.1503 -0.3787
 2077SOL    HW3 8081   1.234   1.513   1.514 -0.8611  0.0724 -0.8880
 2077SOL    MW4 8082   1.208   1.545   1.590 -0.1925 -0.0927  0.3504
 2078SOL     OW 8083   6.056   1.528   3.029 -0.0738  0.1122 -0.7096
 2078SOL    HW2 8084   6.053   1.436   3.003 -0.9103  0.1394 -0.7584
 2078SOL    HW3 8085   6.047   1.577   2.947  0.3200  0.2356 -0.6797
 2078SOL    MW4 8086   6.054   1.523   3.015  0.1463  0.1736  0.1327
 2079SOL     OW 8087   5.075   4.826   2.040 -0.1419 -0.5643 -0.0880
 2079SOL    HW2 8088   5.083   4.886   2.114 -0.2641 -0.5147 -0.1157
 2079SOL    HW3 8089   5.160   4.781   2.037  0.1038 -0.0947 -0.3226
 2079SOL    MW4 8090   5.088   4.828   2.049 -0.1541 -0.1324 -0.2487
 2080SOL     OW 8091   3.659   3.443   2.683  0.2120 -0.4373  0.1525
 2080SOL    HW2 8092   3.607   3.383   2.630 -1.0107  0.8188 -0.1405
 2080SOL    HW3 8093   3.648   3.528   2.641  0.3554  0.3471  1.6263
 2080SOL    MW4 8094   3.651   3.446   2.671  0.4007 -0.0793  0.5239
 2081SOL     OW 8095   1.918   5.483   5.656 -0.2148  0.2035 -0.2822
 2081SOL    HW2 8096   1.826   5.474   5.632 -0.1546 -1.1032 -0.0896
 2081SOL    HW3 8097   1.925   5.572   5.692 -2.0399 -0.5727  2.3192
 2081SOL    MW4 8098   1.907   5.494   5.658  0.1218  0.4019 -0.2189
 2082SOL     OW 8099   3.287   3.330   3.332  0.0384  0.0149  0.5483
 2082SOL    HW2 8100   3.272   3.251   3.280  0.1024 -0.5608  1.3923
 2082SOL    HW3 8101   3.302   3.399   3.266  1.2242 -0.9046 -0.2067
 2082SOL    MW4 8102   3.287   3.329   3.316  0.5469 -0.5432  0.1024
 2083SOL     OW 8103   5.497   2.877   3.846 -0.1168  0.1602 -0.3890
 2083SOL    HW2 8104   5.420   2.914   3.889  0.4508  1.3718 -0.3805
 2083SOL    HW3 8105   5.552   2.846   3.918 -1.3903 -2.4613 -0.4383
 2083SOL    MW4 8106   5.494   2.878   3.861 -0.1020 -0.0982 -0.1020
 2084SOL     OW 8107   5.884   2.838   4.149 -0.2236 -0.0302  0.1593
 2084SOL    HW2 8108   5.924   2.764   4.194  3.0263  0.4957 -1.5877
 2084SOL    HW3 8109   5.911   2.828   4.057 -1.5154  2.1682 -0.5465
 2084SOL    MW4 8110   5.893   2.827   4.143  0.5314 -0.1272  0.1878
 2085SOL     OW 8111   3.527   1.758   1.994 -0.3199 -0.3651  0.1163
 2085SOL    HW2 8112   3.451   1.704   1.971  0.6140 -1.7754  0.1933
 2085SOL    HW3 8113   3.517   1.773   2.088  1.1066 -3.3545  0.8679
 2085SOL    MW4 8114   3.515   1.753   2.004  0.3628  0.1841  0.1414
 2086SOL     OW 8115   0.591   2.942   6.047  0.2862 -0.2536 -0.1075
 2086SOL    HW2 8116   0.522   2.975   5.989 -0.0259  0.1615  0.4938
 2086SOL    HW3 8117   0.602   2.850   6.021 -0.4537 -0.3097 -0.2451
 2086SOL    MW4 8118   0.583   2.934   6.036  0.4364 -0.0489 -0.3883
 2087SOL     OW 8119   3.149   2.316   2.466 -0.7955  0.2692  0.1978
 2087SOL    HW2 8120   3.183   2.297   2.379 -1.1721 -0.2541  0.1613
 2087SOL    HW3 8121   3.057   2.339   2.452 -1.1613 -0.9139  0.5661
 2087SOL    MW4 8122   3.142   2.317   2.453 -0.3313 -0.0761  0.1922
 2088SOL     OW 8123   5.683   2.974   1.265 -0.2476 -0.2046  0.7776
 2088SOL    HW2 8124   5.754   2.995   1.204 -0.1427 -1.4576  0.4415
 2088SOL    HW3 8125   5.727   2.957   1.348 -0.3008  0.5171  0.9589
 2088SOL    MW4 8126   5.698   2.974   1.268  0.0152 -0.0373 -0.4459
 2089SOL     OW 8127   3.937   5.129   0.547 -0.4204  0.2198  0.2490
 2089SOL    HW2 8128   4.013   5.089   0.506  0.5848  1.1950  1.0759
 2089SOL    HW3 8129   3.956   5.223   0.544 -1.3752  0.4427  0.8957
 2089SOL    MW4 8130   3.949   5.136   0.541 -0.3816 -0.5835 -0.6041
 2090SOL     OW 8131   4.988   0.901   5.405 -0.4742  1.1088  0.1251
 2090SOL    HW2 8132   4.934   0.921   5.482 -2.7862  1.4864 -1.4702
 2090SOL    HW3 8133   4.993   0.806   5.403  0.6082  1.1161  1.3501
 2090SOL    MW4 8134   4.981   0.891   5.415 -0.2074 -0.2345  0.2439
 2091SOL     OW 8135   2.321   4.670   2.798  0.4822  0.1858 -0.4493
 2091SOL    HW2 8136   2.242   4.699   2.754  0.1477  2.2035  1.2902
 2091SOL    HW3 8137   2.391   4.725   2.761  1.3272 -2.1196 -2.5547
 2091SOL    MW4 8138   2.320   4.681   2.787  0.0974  0.5723 -0.5046
 2092SOL     OW 8139   3.871   0.203   6.158 -0.0115  0.1501  0.2042
 2092SOL    HW2 8140   3.878   0.144   6.083  0.2364 -0.3734  0.6313
 2092SOL    HW3 8141   3.922   0.281   6.133  2.8166 -1.2868  1.0137
 2092SOL    MW4 8142   3.879   0.206   6.145  0.3514  0.4408 -0.2014
 2093SOL     OW 8143   4.324   0.260   6.102  0.0901 -0.4350  0.0316
 2093SOL    HW2 8144   4.257   0.221   6.159  0.2041  0.2862  0.6844
 2093SOL    HW3 8145   4.276   0.284   6.022 -0.8504  1.6169  1.1359
 2093SOL    MW4 8146   4.309   0.258   6.099  0.9382  0.2224 -0.4561
 2094SOL     OW 8147   2.626   5.228   5.041 -0.3890 -0.0727  0.5129
 2094SOL    HW2 8148   2.536   5.247   5.068 -0.3660  0.9458 -0.0725
 2094SOL    HW3 8149   2.670   5.202   5.122 -0.7948  1.0813  1.1334
 2094SOL    MW4 8150   2.620   5.227   5.055 -0.0751  0.7021 -0.2498
 2095SOL     OW 8151   3.410   4.937   0.952  0.2180 -0.0999 -0.1744
 2095SOL    HW2 8152   3.367   4.862   0.994 -0.4437  0.3844  0.0317
 2095SOL    HW3 8153   3.502   4.928   0.977  0.3309 -1.3949 -0.9756
 2095SOL    MW4 8154   3.417   4.926   0.961 -0.0180  0.2212 -0.3841
 2096SOL     OW 8155   4.937   6.231   3.695 -0.1972 -0.1960  0.0377
 2096SOL    HW2 8156   4.945   6.136   3.686 -1.3609 -0.5723  2.4067
 2096SOL    HW3 8157   4.891   6.259   3.616  0.1188 -1.5806 -0.6595
 2096SOL    MW4 8158   4.932   6.223   3.683 -0.3418  0.1386 -0.5435
 2097SOL     OW 8159   3.675   4.160   3.586 -0.5368  0.1915  0.1007
 2097SOL    HW2 8160   3.734   4.235   3.589  1.1662 -1.0514 -0.5868
 2097SOL    HW3 8161   3.733   4.084   3.584 -2.1821 -1.1186 -0.0773
 2097SOL    MW4 8162   3.691   4.160   3.586  0.2782 -0.2969  0.6977
 2098SOL     OW 8163   6.182   2.010   2.413 -0.3260 -0.1991  0.5106
 2098SOL    HW2 8164   6.087   2.008   2.427 -0.6112  2.0513 -0.6004
 2098SOL    HW3 8165   6.200   1.931   2.362 -1.9976  0.4223 -1.1709
 2098SOL    MW4 8166   6.172   1.999   2.408  0.6823  0.8190  0.2156
 2099SOL     OW 8167   2.050   1.204   3.942  0.3020 -1.1943  0.3101
 2099SOL    HW2 8168   2.138   1.242   3.950 -0.3890  0.8259 -0.8660
 2099SOL    HW3 8169   2.065   1.118   3.904  1.7565 -0.7125 -0.3112
 2099SOL    MW4 8170   2.064   1.198   3.938  0.1486 -0.2859  1.0618
 2100SOL     OW 8171   5.218   5.099   3.169 -0.2185  0.3017  0.2322
 2100SOL    HW2 8172   5.161   5.175   3.156  1.9181  1.8300 -0.7657
 2100SOL    HW3 8173   5.197   5.041   3.096  0.4504  1.5054 -0.9587
 2100SOL    MW4 8174   5.207   5.101   3.157  0.3405  0.1694 -0.4095
 2101SOL     OW 8175   6.064   5.292   0.401  0.3317  0.7200 -0.7886
 2101SOL    HW2 8176   6.040   5.250   0.484 -0.1783  2.0799 -0.2236
 2101SOL    HW3 8177   6.084   5.382   0.425  0.0026  1.1766 -2.1814
 2101SOL    MW4 8178   6.063   5.298   0.415 -0.1535  0.0700  0.3919
 2102SOL     OW 8179   2.301   4.499   0.088  0.2346  0.1414  0.3747
 2102SOL    HW2 8180   2.220   4.539   0.120 -0.1858 -0.7791  0.5081
 2102SOL    HW3 8181   2.341   4.566   0.033 -0.4108  0.7565  0.6345
 2102SOL    MW4 8182   2.296   4.513   0.085 -0.2567 -0.1326  0.0858
 2103SOL     OW 8183   3.373   4.862   0.669 -0.1273  0.4337  0.4454
 2103SOL    HW2 8184   3.384   4.911   0.750  0.7252  1.4318 -0.2380
 2103SOL    HW3 8185   3.338   4.926   0.607  0.6596  0.1017 -0.3693
 2103SOL    MW4 8186   3.370   4.877   0.671  0.7176  0.0134 -0.2887
 2104SOL     OW 8187   0.022   2.571   4.008  0.1751 -0.1606 -0.2447
 2104SOL    HW2 8188   0.098   2.517   3.987  0.3577 -0.2663  0.6492
 2104SOL    HW3 8189   0.037   2.601   4.097  0.1848  1.5818 -0.7958
 2104SOL    MW4 8190   0.034   2.568   4.017  0.2262 -0.0751  0.4421
 2105SOL     OW 8191   2.484   6.073   3.987 -0.0497 -0.1108 -0.2494
 2105SOL    HW2 8192   2.436   6.069   3.905  3.9476  0.9745 -2.9034
 2105SOL    HW3 8193   2.479   6.164   4.014 -2.1173 -0.6226  1.3917
 2105SOL    MW4 8194   2.477   6.084   3.980 -0.6790 -0.2462  0.1606
 2106SOL     OW 8195   3.751   0.241   5.339 -0.3132 -0.0965 -0.4404
 2106SOL    HW2 8196   3.723   0.227   5.249 -0.1881 -0.3849 -0.4374
 2106SOL    HW3 8197   3.845   0.223   5.338 -0.6165 -1.9922  0.1084
 2106SOL    MW4 8198   3.760   0.237   5.327 -0.4224  1.1570 -0.5953
 2107SOL     OW 8199   2.194   4.158   3.874 -0.0214 -0.0148  0.4167
 2107SOL    HW2 8200   2.275   4.205   3.856 -0.6416  0.6601 -0.7433
 2107SOL    HW3 8201   2.205   4.074   3.831 -0.0608  0.2023 -0.0203
 2107SOL    MW4 8202   2.206   4.153   3.866 -0.2381  0.3040  0.3720
 2108SOL     OW 8203   3.469   0.520   1.913 -0.1759 -0.0808  0.0542
 2108SOL    HW2 8204   3.561   0.538   1.933 -0.1010  1.8071 -1.6356
 2108SOL    HW3 8205   3.468   0.430   1.881  1.0266 -0.2286  0.3906
 2108SOL    MW4 8206   3.481   0.510   1.911 -0.2313  0.4658  0.3020
 2109SOL     OW 8207   0.368   4.001   1.415  0.0638  0.5452  0.1127
 2109SOL    HW2 8208   0.343   4.093   1.405  0.2954  0.5293 -0.6428
 2109SOL    HW3 8209   0.380   3.970   1.326 -1.1742 -0.5429  0.2959
 2109SOL    MW4 8210   0.366   4.009   1.402  0.4386 -0.5169 -0.0834
 2110SOL     OW 8211   3.695   5.307   5.601 -0.0920 -0.5324  0.1438
 2110SOL    HW2 8212   3.693   5.354   5.685 -0.6928 -0.7300  0.2477
 2110SOL    HW3 8213   3.630   5.352   5.547 -0.4066 -1.0005  0.1214
 2110SOL    MW4 8214   3.686   5.319   5.605 -0.2047 -0.2870  0.5015
 2111SOL     OW 8215   6.311   0.116   2.442  0.5671 -0.0441  0.7020
 2111SOL    HW2 8216   6.389   0.116   2.386  0.0368 -2.4417 -0.1200
 2111SOL    HW3 8217   6.338   0.067   2.520  0.3085  0.4166  1.0849
 2111SOL    MW4 8218   6.325   0.110   2.445 -0.4496 -0.2819  0.1917
 2112SOL     OW 8219   2.907   2.590   1.665  0.3302  0.5227 -0.0831
 2112SOL    HW2 8220   2.896   2.517   1.725  2.3766  0.3612  0.1442
 2112SOL    HW3 8221   2.854   2.661   1.703 -1.0342 -0.5519  0.1030
 2112SOL    MW4 8222   2.898   2.590   1.678 -0.6321  0.3998  0.3193
 2113SOL     OW 8223   2.196   4.543   3.921 -0.7484 -0.6891 -0.4972
 2113SOL    HW2 8224   2.136   4.604   3.963  0.4801  1.4221 -1.6715
 2113SOL    HW3 8225   2.139   4.480   3.877 -2.1128  0.9026 -1.0953
 2113SOL    MW4 8226   2.180   4.543   3.921  0.0653  0.6027 -0.3021
 2114SOL     OW 8227   3.607   2.198   3.396  1.1013 -0.2165 -0.4788
 2114SOL    HW2 8228   3.624   2.123   3.338  1.5658  1.0313 -2.0019
 2114SOL    HW3 8229   3.525   2.235   3.364  0.7398 -0.1898  0.4398
 2114SOL    MW4 8230   3.599   2.193   3.384  0.3979  0.2415 -0.2777
 2115SOL     OW 8231   5.505   5.505   3.662 -0.0888  0.2674 -0.7537
 2115SOL    HW2 8232   5.589   5.542   3.637 -0.7023  1.0041 -1.8295
 2115SOL    HW3 8233   5.503   5.512   3.757  2.0399 -1.9937 -0.4734
 2115SOL    MW4 8234   5.516   5.511   3.671  0.2546 -0.2114  0.0301
 2116SOL     OW 8235   5.926   0.854   3.494 -0.2013 -0.4852  0.0810
 2116SOL    HW2 8236   5.900   0.941   3.526 -2.4289 -0.4952 -1.4510
 2116SOL    HW3 8237   5.984   0.820   3.561  0.4444  2.0314  0.9186
 2116SOL    MW4 8238   5.930   0.861   3.507  0.0874 -0.4255  0.1186
 2117SOL     OW 8239   1.544   1.872   4.868 -0.2690  0.0175  0.5945
 2117SOL    HW2 8240   1.493   1.804   4.824 -1.4999  0.0909  1.8580
 2117SOL    HW3 8241   1.632   1.863   4.831 -0.6464 -1.5907  0.0087
 2117SOL    MW4 8242   1.549   1.862   4.857 -0.0440  0.0438  0.0240
 2118SOL     OW 8243   3.321   1.591   1.912 -0.2175 -0.0964 -0.0395
 2118SOL    HW2 8244   3.254   1.611   1.847 -1.5545  2.3370  1.9321
 2118SOL    HW3 8245   3.273   1.579   1.994  1.5854 -0.6844  0.9930
 2118SOL    MW4 8246   3.306   1.592   1.914  0.2043  0.1043  0.5644
 2119SOL     OW 8247   0.482   0.196   4.337 -0.1413  0.1737  0.1535
 2119SOL    HW2 8248   0.547   0.127   4.325  0.1653  0.2724  1.1689
 2119SOL    HW3 8249   0.446   0.180   4.424  0.7752  1.9607  0.9119
 2119SOL    MW4 8250   0.486   0.185   4.347 -0.0157 -0.4687 -0.1273
 2120SOL     OW 8251   0.181   6.034   5.904 -0.0544 -0.4428 -0.5174
 2120SOL    HW2 8252   0.252   6.059   5.844  0.0405  0.5142 -0.0222
 2120SOL    HW3 8253   0.164   5.943   5.883  1.0212 -0.5640 -0.9590
 2120SOL    MW4 8254   0.188   6.026   5.893 -0.4687  0.4156  0.3405
 2121SOL     OW 8255   6.393   5.875   0.912 -0.0864  0.3617  0.1189
 2121SOL    HW2 8256   6.456   5.812   0.947 -0.5184  0.8270  1.8777
 2121SOL    HW3 8257   6.436   5.960   0.921 -0.8844  0.6791  1.2942
 2121SOL    MW4 8258   6.407   5.878   0.918 -0.0506  0.0553 -0.3967
 2122SOL     OW 8259   0.737   5.982   3.375  0.6083 -0.1886  0.0870
 2122SOL    HW2 8260   0.770   6.056   3.324  1.2472 -0.6198 -0.1437
 2122SOL    HW3 8261   0.713   6.019   3.460 -3.0791  1.1237 -1.3140
 2122SOL    MW4 8262   0.738   5.997   3.379  0.4572 -0.1945  0.2134
 2123SOL     OW 8263   6.327   1.709   2.806  0.0390 -0.5708 -0.0433
 2123SOL    HW2 8264   6.303   1.795   2.769 -1.7883 -1.2317 -0.5423
 2123SOL    HW3 8265   6.420   1.700   2.788  0.1220  1.0312 -0.5822
 2123SOL    MW4 8266   6.336   1.720   2.799 -0.0267 -0.5058  0.2359
 2124SOL     OW 8267   2.325   5.594   2.391 -0.2039 -0.2300 -0.0291
 2124SOL    HW2 8268   2.256   5.660   2.393  0.9088  0.9948 -0.4638
 2124SOL    HW3 8269   2.358   5.596   2.301  2.6448  1.6903  0.9226
 2124SOL    MW4 8270   2.320   5.603   2.379 -0.3130  0.3036 -0.1152
 2125SOL     OW 8271   3.712   4.045   6.261  1.0112 -0.1500  0.3078
 2125SOL    HW2 8272   3.636   4.081   6.216  0.7817  0.9267  1.5075
 2125SOL    HW3 8273   3.705   3.950   6.247 -0.8661 -0.1405  0.8421
 2125SOL    MW4 8274   3.701   4.037   6.253 -0.0002  0.2338  0.4835
 2126SOL     OW 8275   6.209   4.646   4.340  0.1338  0.0994 -0.0731
 2126SOL    HW2 8276   6.303   4.649   4.326 -0.1492  0.6560 -2.1658
 2126SOL    HW3 8277   6.185   4.554   4.329  0.5233 -0.2331  1.5273
 2126SOL    MW4 8278   6.218   4.635   4.337 -0.4408  0.2041  0.0580
 2127SOL     OW 8279   0.233   1.162   5.382  0.3238  0.5204  0.0869
 2127SOL    HW2 8280   0.263   1.187   5.469  0.9768 -1.6940  0.5469
 2127SOL    HW3 8281   0.232   1.067   5.382 -3.8440  0.3579 -0.9303
 2127SOL    MW4 8282   0.237   1.153   5.393 -0.3683  0.1169 -0.0757
 2128SOL     OW 8283   1.596   2.626   3.364 -0.7564 -0.2383  0.5513
 2128SOL    HW2 8284   1.633   2.590   3.445 -1.2777 -0.0683  0.8694
 2128SOL    HW3 8285   1.601   2.554   3.301  3.5836  0.7586 -0.5950
 2128SOL    MW4 8286   1.602   2.612   3.367  0.0582  0.1978 -0.6215
 2129SOL     OW 8287   2.462   1.807   0.588  0.9236  0.3907  0.5763
 2129SOL    HW2 8288   2.449   1.830   0.680  2.0796  1.0298  0.6044
 2129SOL    HW3 8289   2.557   1.799   0.579  0.7987 -0.0242 -0.4812
 2129SOL    MW4 8290   2.473   1.809   0.599  0.6075 -0.0719  0.1972
 2130SOL     OW 8291   4.625   6.152   3.533 -0.3112  0.6012 -0.3063
 2130SOL    HW2 8292   4.702   6.139   3.477 -1.1035 -0.4067 -1.1806
 2130SOL    HW3 8293   4.611   6.247   3.532  0.6572  0.7539 -0.4785
 2130SOL    MW4 8294   4.634   6.163   3.526 -0.1608 -0.4237 -0.1994
 2131SOL     OW 8295   5.410   2.430   0.514 -0.2308  0.5725  0.1448
 2131SOL    HW2 8296   5.377   2.379   0.588  0.7104  0.2613  0.3571
 2131SOL    HW3 8297   5.487   2.382   0.485  1.5654  2.6381  1.2651
 2131SOL    MW4 8298   5.416   2.417   0.520 -0.0275  0.0196  0.4727
 2132SOL     OW 8299   2.019   3.566   2.891 -0.0637 -0.2325  0.0392
 2132SOL    HW2 8300   2.019   3.648   2.843  0.7035 -0.0072  0.4117
 2132SOL    HW3 8301   1.958   3.581   2.963  1.0276  0.4754  0.8527
 2132SOL    MW4 8302   2.011   3.579   2.894  0.4100 -0.0205  0.7808
 2133SOL     OW 8303   4.071   1.986   5.614  0.1382 -0.3950  0.5117
 2133SOL    HW2 8304   4.122   2.058   5.577 -1.2871 -0.4409 -1.6856
 2133SOL    HW3 8305   4.106   1.908   5.572  0.4874 -0.8249  1.5632
 2133SOL    MW4 8306   4.083   1.985   5.604 -0.7910  0.8292 -0.2962
 2134SOL     OW 8307   0.417   5.039   2.476  0.4033  0.5671 -0.0161
 2134SOL    HW2 8308   0.476   4.965   2.493  0.5182  0.3217 -1.3632
 2134SOL    HW3 8309   0.476   5.113   2.459  0.3236  0.4348 -0.8866
 2134SOL    MW4 8310   0.433   5.039   2.476  0.4119  0.2465 -0.9286
 2135SOL     OW 8311   1.404   2.711   0.044 -0.0836 -0.8325 -0.5701
 2135SOL    HW2 8312   1.488   2.744   0.075 -0.9183  0.1329  0.8159
 2135SOL    HW3 8313   1.424   2.664  -0.037  1.9899 -2.0367  0.5649
 2135SOL    MW4 8314   1.418   2.709   0.037 -0.1187  0.3719 -0.1463
 2136SOL     OW 8315   0.865   4.560   1.243  0.4142 -0.3044  0.2964
 2136SOL    HW2 8316   0.893   4.651   1.247  0.7422 -0.3200 -1.0810
 2136SOL    HW3 8317   0.840   4.538   1.333 -1.1152  1.5781  0.3711
 2136SOL    MW4 8318   0.866   4.569   1.255  0.8507  0.2644  0.0827
 2137SOL     OW 8319   4.493   4.301   5.780 -0.0304  0.2887 -0.0655
 2137SOL    HW2 8320   4.453   4.244   5.714  0.4604  0.8661 -0.8795
 2137SOL    HW3 8321   4.418   4.340   5.825 -0.3854 -1.4072  0.9107
 2137SOL    MW4 8322   4.478   4.299   5.777 -0.4452  0.6068 -0.3096
 2138SOL     OW 8323   2.016   6.128   5.930  0.8227  0.4467 -0.0577
 2138SOL    HW2 8324   2.040   6.100   5.842  0.3930  0.1664 -0.0857
 2138SOL    HW3 8325   2.095   6.172   5.963  1.1413  0.1444 -0.4064
 2138SOL    MW4 8326   2.030   6.130   5.923 -0.3788  0.4900 -0.4779
 2139SOL     OW 8327   4.893   5.129   4.422 -0.3395 -0.4775 -0.1638
 2139SOL    HW2 8328   4.870   5.047   4.466 -0.9416 -1.6255 -2.4343
 2139SOL    HW3 8329   4.975   5.110   4.377 -0.5200  0.1189 -0.7690
 2139SOL    MW4 8330   4.901   5.116   4.422  0.0976  0.4717  0.2975
 2140SOL     OW 8331   0.890   4.585   0.113 -0.4158 -0.0360  0.3694
 2140SOL    HW2 8332   0.853   4.660   0.159 -4.8712 -2.0834  0.6764
 2140SOL    HW3 8333   0.871   4.601   0.020 -1.2949 -0.6548  0.4260
 2140SOL    MW4 8334   0.882   4.597   0.107 -0.3306  0.1060  0.4267
 2141SOL     OW 8335   1.216   2.496   6.051 -0.1679 -0.9967  0.0383
 2141SOL    HW2 8336   1.268   2.555   6.106 -0.1074  0.3710 -1.4212
 2141SOL    HW3 8337   1.277   2.463   5.986 -0.6804 -0.9331 -0.4840
 2141SOL    MW4 8338   1.231   2.500   6.050  0.1658 -0.2590 -0.0251
 2142SOL     OW 8339   5.659   0.512   3.725 -0.1924 -0.5390  0.2301
 2142SOL    HW2 8340   5.628   0.538   3.638 -0.1167  0.1793  0.4102
 2142SOL    HW3 8341   5.673   0.417   3.718 -1.3918 -0.7083 -0.1745
 2142SOL    MW4 8342   5.657   0.503   3.713 -0.6035 -0.1279  0.0925
 2143SOL     OW 8343   6.004   3.055   2.657  0.0272  0.2638 -1.1480
 2143SOL    HW2 8344   6.075   3.028   2.714 -1.1311 -0.7546 -0.1160
 2143SOL    HW3 8345   6.032   3.139   2.621  1.2367  0.4434  0.1266
 2143SOL    MW4 8346   6.017   3.063   2.660  0.4045  0.5948  0.0560
 2144SOL     OW 8347   1.166   5.521   2.002  0.0801  0.1991 -0.1630
 2144SOL    HW2 8348   1.190   5.578   1.928  0.7758  0.2859  0.1276
 2144SOL    HW3 8349   1.083   5.557   2.033 -0.3519  0.0075 -1.0604
 2144SOL    MW4 8350   1.158   5.533   1.996 -1.0374 -0.1726 -0.0107
 2145SOL     OW 8351   2.922   4.832   6.181 -0.1651  0.2652  0.3895
 2145SOL    HW2 8352   2.993   4.879   6.137 -1.0731  0.1263 -1.2958
 2145SOL    HW3 8353   2.966   4.783   6.251  1.3194  0.5856 -0.2714
 2145SOL    MW4 8354   2.937   4.832   6.185  0.0668 -0.5447  0.4809
 2146SOL     OW 8355   2.361   0.840   2.945  0.1904 -0.3689 -0.4580
 2146SOL    HW2 8356   2.403   0.754   2.932 -0.0042 -0.8226  1.6006
 2146SOL    HW3 8357   2.282   0.836   2.892 -1.0422 -2.4390  1.3367
 2146SOL    MW4 8358   2.356   0.828   2.936 -0.0518  0.1302 -0.0497
 2147SOL     OW 8359   3.872   5.137   5.815  0.6637 -0.2695 -0.4616
 2147SOL    HW2 8360   3.966   5.124   5.799  0.6539 -1.3247  0.2380
 2147SOL    HW3 8361   3.829   5.089   5.744  0.6584 -0.5708 -0.2589
 2147SOL    MW4 8362   3.879   5.129   5.804 -0.1634 -0.5330  0.2909
 2148SOL     OW 8363   4.437   5.105   4.800 -0.0940 -0.3278 -0.1579
 2148SOL    HW2 8364   4.462   5.140   4.715  0.3187 -0.6406 -0.1699
 2148SOL    HW3 8365   4.519   5.078   4.841 -0.2481  0.1684  0.5014
 2148SOL    MW4 8366   4.451   5.106   4.794 -0.3171  0.1391  0.0514
 2149SOL     OW 8367   3.264   2.082   3.130 -0.2122 -0.2438  0.7647
 2149SOL    HW2 8368   3.314   2.027   3.069 -0.5128  0.3580 -0.0442
 2149SOL    HW3 8369   3.220   2.019   3.188 -0.2807 -0.8584  0.0739
 2149SOL    MW4 8370   3.265   2.066   3.130  0.7498 -0.2338 -0.4265
 2150SOL     OW 8371   0.411   3.095   1.100 -0.7003 -0.5714  0.2654
 2150SOL    HW2 8372   0.369   3.139   1.173 -1.0124  1.5364 -1.0888
 2150SOL    HW3 8373   0.339   3.053   1.053 -0.8124 -0.0107 -0.0683
 2150SOL    MW4 8374   0.396   3.095   1.103  0.4529  0.0845  0.2480
 2151SOL     OW 8375   6.294   0.625   5.817 -0.2283  0.3451 -0.5700
 2151SOL    HW2 8376   6.370   0.575   5.788 -0.9547 -0.4497 -1.1566
 2151SOL    HW3 8377   6.225   0.559   5.830 -0.7945  1.0348  0.0420
 2151SOL    MW4 8378   6.295   0.609   5.815  0.6268 -0.0672 -0.1184
 2152SOL     OW 8379   1.243   3.513   4.797 -0.1863  0.4371  0.1916
 2152SOL    HW2 8380   1.182   3.451   4.756  1.8047 -1.3725 -0.2223
 2152SOL    HW3 8381   1.229   3.595   4.749 -0.4192 -0.6608 -1.7130
 2152SOL    MW4 8382   1.233   3.516   4.785  0.0704 -0.3693  0.3849
 2153SOL     OW 8383   2.222   0.274   1.055  0.0124 -0.3109  0.0529
 2153SOL    HW2 8384   2.315   0.260   1.072 -0.0033  0.6774  1.0676
 2153SOL    HW3 8385   2.183   0.286   1.142 -1.2110 -1.4945 -0.2939
 2153SOL    MW4 8386   2.229   0.274   1.069 -0.3604  0.0518  0.2321
 2154SOL     OW 8387   2.158   4.234   0.331  0.1515 -0.0209  0.8341
 2154SOL    HW2 8388   2.239   4.221   0.281 -2.3077  0.3243 -3.8458
 2154SOL    HW3 8389   2.105   4.156   0.310 -1.1391  0.2043  2.9830
 2154SOL    MW4 8390   2.161   4.222   0.322  0.1175 -0.4238 -0.0237
 2155SOL     OW 8391   1.183   1.402   1.980  0.0117  0.3849  0.4860
 2155SOL    HW2 8392   1.144   1.479   2.022  0.2211  0.9483 -0.3382
 2155SOL    HW3 8393   1.270   1.430   1.953 -0.7324  0.6215 -1.9127
 2155SOL    MW4 8394   1.189   1.416   1.982 -0.6899  0.6391 -0.0247
 2156SOL     OW 8395   1.628   5.794   1.343  0.2544  0.3672 -0.0519
 2156SOL    HW2 8396   1.650   5.759   1.429  0.8668 -1.2481 -0.8104
 2156SOL    HW3 8397   1.624   5.716   1.286 -2.3760  1.1260 -1.0398
 2156SOL    MW4 8398   1.630   5.779   1.347 -0.5063 -0.6340 -0.0253
 2157SOL     OW 8399   1.491   6.112   3.535  0.0862  0.1749  0.0196
 2157SOL    HW2 8400   1.502   6.181   3.470  0.0053  0.4476  0.2905
 2157SOL    HW3 8401   1.436   6.152   3.603 -0.8676 -0.4986 -0.3395
 2157SOL    MW4 8402   1.485   6.127   3.535 -0.3394  0.6448 -0.3885
 2158SOL     OW 8403   2.143   3.475   5.313 -0.1425 -0.0829 -0.0451
 2158SOL    HW2 8404   2.218   3.522   5.349 -1.8936  0.9679  2.4429
 2158SOL    HW3 8405   2.113   3.529   5.241  1.1516 -0.2872 -0.7817
 2158SOL    MW4 8406   2.149   3.488   5.308  0.1091 -0.2215 -0.1130
 2159SOL     OW 8407   3.584   0.411   2.910 -0.8498 -0.0650 -0.2643
 2159SOL    HW2 8408   3.542   0.356   2.844 -0.3015  0.4617 -1.0699
 2159SOL    HW3 8409   3.557   0.500   2.888 -1.2447  0.0539  0.6658
 2159SOL    MW4 8410   3.575   0.415   2.899 -0.0594 -0.3113  0.0734
 2160SOL     OW 8411   5.015   5.161   6.330 -0.0451 -0.2481  0.7976
 2160SOL    HW2 8412   5.109   5.161   6.310 -0.3662  1.2372 -1.0149
 2160SOL    HW3 8413   4.985   5.074   6.303  0.3321  0.2514 -1.4260
 2160SOL    MW4 8414   5.024   5.149   6.324 -0.1902 -0.4340  0.2390
 2161SOL     OW 8415   3.514   4.293   1.222 -0.1596  0.3651 -0.0247
 2161SOL    HW2 8416   3.483   4.340   1.299 -1.4650  0.0749 -0.3438
 2161SOL    HW3 8417   3.495   4.201   1.241  0.6394  0.1614 -0.1860
 2161SOL    MW4 8418   3.508   4.287   1.234  0.2443 -0.2222 -0.2689
 2162SOL     OW 8419   3.697   6.348   1.124  0.5315  0.4558 -0.6076
 2162SOL    HW2 8420   3.765   6.286   1.149 -0.2354 -0.4398 -0.6717
 2162SOL    HW3 8421   3.616   6.311   1.159 -0.2619  0.2957 -2.4432
 2162SOL    MW4 8422   3.695   6.335   1.132  0.1760  0.0839 -0.0009
 2163SOL     OW 8423   4.739   3.554   1.752  0.0037 -0.1134 -0.0870
 2163SOL    HW2 8424   4.742   3.458   1.757 -0.4848 -0.1100  0.3964
 2163SOL    HW3 8425   4.647   3.574   1.732 -0.5777  0.3449  2.6264
 2163SOL    MW4 8426   4.727   3.544   1.750  0.1296  0.4326 -0.0889
 2164SOL     OW 8427   3.949   2.097   1.525  0.4956  0.3326  0.1255
 2164SOL    HW2 8428   3.861   2.059   1.520  0.5541  0.2747 -0.7672
 2164SOL    HW3 8429   3.936   2.184   1.562  0.1568  0.0378  0.6946
 2164SOL    MW4 8430   3.936   2.104   1.529 -0.1381 -0.3464  0.0464
 2165SOL     OW 8431   4.674   1.078  -0.018  0.5950 -0.9968 -0.1498
 2165SOL    HW2 8432   4.646   0.988  -0.001 -0.6147 -0.6160 -0.0098
 2165SOL    HW3 8433   4.686   1.116   0.069 -1.0165 -0.4152 -0.1456
 2165SOL    MW4 8434   4.672   1.071  -0.005 -0.0732  0.4752 -0.2914
 2166SOL     OW 8435   4.364   4.771   3.788  0.0686 -0.2399  0.2947
 2166SOL    HW2 8436   4.372   4.844   3.849 -1.3579 -0.3963  0.6996
 2166SOL    HW3 8437   4.289   4.794   3.733 -2.9988 -3.0943  2.9216
 2166SOL    MW4 8438   4.355   4.784   3.789  0.3233 -0.7161  0.2599
 2167SOL     OW 8439   0.247   1.944   1.201  0.3364  0.2668 -0.0774
 2167SOL    HW2 8440   0.336   1.963   1.173  0.7084 -0.6199  0.4799
 2167SOL    HW3 8441   0.211   1.888   1.132  0.5602 -0.2233  0.2018
 2167SOL    MW4 8442   0.254   1.939   1.188  0.5720 -0.3194 -0.0036
 2168SOL     OW 8443   3.327   4.859   5.007  0.0134  0.1030  0.4628
 2168SOL    HW2 8444   3.382   4.915   4.953 -0.8938 -0.1946 -0.8012
 2168SOL    HW3 8445   3.371   4.774   5.006  1.9864  0.9263  3.2658
 2168SOL    MW4 8446   3.340   4.855   5.000 -0.5574  0.9143  0.1833
 2169SOL     OW 8447   4.767   1.828   1.356 -0.1490 -0.6565  0.1045
 2169SOL    HW2 8448   4.833   1.829   1.287  0.6661  2.3988  0.7911
 2169SOL    HW3 8449   4.699   1.888   1.325 -0.0990  0.2134  1.6032
 2169SOL    MW4 8450   4.767   1.836   1.343 -0.3208 -0.0394  0.4235
 2170SOL     OW 8451   0.184   3.212   0.714 -0.6569  0.1625 -0.2302
 2170SOL    HW2 8452   0.098   3.254   0.714 -0.7729 -0.0419 -1.1913
 2170SOL    HW3 8453   0.221   3.235   0.628 -0.3179 -0.8804 -0.3726
 2170SOL    MW4 8454   0.177   3.221   0.703  0.1550  0.0500  0.3547
 2171SOL     OW 8455   4.060   4.752   4.841 -0.0667  0.3284  0.2163
 2171SOL    HW2 8456   4.080   4.764   4.933 -0.9376  2.1059  0.2202
 2171SOL    HW3 8457   4.102   4.825   4.797  1.1729 -1.0340 -0.9628
 2171SOL    MW4 8458   4.068   4.763   4.847 -0.2100 -0.2149  0.3300
 2172SOL     OW 8459   4.845   0.420   3.263 -0.5934 -0.1600 -0.3344
 2172SOL    HW2 8460   4.872   0.415   3.171  0.7635 -0.7946  0.0657
 2172SOL    HW3 8461   4.797   0.502   3.269  2.9650  2.2097 -0.7670
 2172SOL    MW4 8462   4.843   0.430   3.251  0.7224  0.0384  0.5243
 2173SOL     OW 8463   1.752   1.632   3.596  0.0001  0.3868 -0.8464
 2173SOL    HW2 8464   1.805   1.712   3.597 -1.8255  1.6454 -0.6439
 2173SOL    HW3 8465   1.682   1.650   3.533 -0.5148 -1.0212 -0.7115
 2173SOL    MW4 8466   1.750   1.645   3.588 -0.2344  0.3016  0.1687
 2174SOL     OW 8467   5.685   0.087   1.477 -0.4352 -0.5715 -0.0458
 2174SOL    HW2 8468   5.670  -0.008   1.475 -2.2630 -0.3164 -1.2342
 2174SOL    HW3 8469   5.741   0.104   1.402  1.5257 -0.8805  1.2672
 2174SOL    MW4 8470   5.690   0.076   1.467  0.2598  0.0725 -0.0898
 2175SOL     OW 8471   1.051   4.505   5.296 -0.0785  0.3043 -0.4267
 2175SOL    HW2 8472   1.105   4.512   5.374 -1.9730  1.0839  0.8928
 2175SOL    HW3 8473   1.043   4.411   5.280  0.3490  0.1421  0.2978
 2175SOL    MW4 8474   1.057   4.494   5.304 -0.7354  0.4481 -0.0797
 2176SOL     OW 8475   1.521   5.327   4.031  0.2451  0.0235 -0.6636
 2176SOL    HW2 8476   1.595   5.272   4.003  1.5857  0.9754  0.8392
 2176SOL    HW3 8477   1.472   5.271   4.091  0.5326 -0.1623 -0.5943
 2176SOL    MW4 8478   1.525   5.312   4.035 -0.9094  0.3501  0.5375
 2177SOL     OW 8479   4.540   6.416   2.778  0.4007  0.1241  0.2942
 2177SOL    HW2 8480   4.614   6.470   2.807 -0.4722  1.3681  0.2943
 2177SOL    HW3 8481   4.545   6.418   2.683  0.0587  0.6785  0.2820
 2177SOL    MW4 8482   4.551   6.424   2.770 -0.2271 -0.1985  0.5403
 2178SOL     OW 8483   5.101   3.930   3.061  0.1261  0.2542  0.0528
 2178SOL    HW2 8484   5.025   3.918   3.118 -0.7986 -0.3492 -1.2569
 2178SOL    HW3 8485   5.078   3.885   2.980  1.2935  1.2825 -0.9047
 2178SOL    MW4 8486   5.088   3.923   3.058 -0.6753  0.2400  0.7556
 2179SOL     OW 8487   1.179   3.063   4.323  0.2972  0.0780  0.0221
 2179SOL    HW2 8488   1.165   3.052   4.229  0.6567  0.9556 -0.1518
 2179SOL    HW3 8489   1.106   3.017   4.365  1.4543 -2.4962 -0.5914
 2179SOL    MW4 8490   1.168   3.056   4.316 -0.6753 -0.4784  0.6052
 2180SOL     OW 8491   0.450   0.018   3.846 -0.2554 -0.4725  0.2976
 2180SOL    HW2 8492   0.424   0.070   3.922 -0.6378  0.6392 -0.5578
 2180SOL    HW3 8493   0.536   0.054   3.821 -1.5923  1.6038 -1.8048
 2180SOL    MW4 8494   0.458   0.030   3.853  0.1992 -0.1345 -0.3797
 2181SOL     OW 8495   2.921   2.118   1.240  0.5099  0.0530 -0.2098
 2181SOL    HW2 8496   3.004   2.108   1.194 -0.3614 -0.8783 -1.6685
 2181SOL    HW3 8497   2.895   2.209   1.224  0.9144  0.1463 -0.3432
 2181SOL    MW4 8498   2.929   2.129   1.232  0.8372 -0.5655  0.4326
 2182SOL     OW 8499   5.755   3.666   2.073  0.3670  0.4105 -0.3846
 2182SOL    HW2 8500   5.794   3.708   2.150 -1.7091 -0.3653  1.2024
 2182SOL    HW3 8501   5.771   3.573   2.085  1.9618  0.4057 -2.1182
 2182SOL    MW4 8502   5.762   3.659   2.085 -0.7424  0.3534 -0.2162
 2183SOL     OW 8503   5.545   6.214   5.315 -0.2268 -0.2468  0.2995
 2183SOL    HW2 8504   5.607   6.248   5.250  0.2119 -0.6752  0.4858
 2183SOL    HW3 8505   5.547   6.278   5.386  0.2205 -0.3949  0.4272
 2183SOL    MW4 8506   5.554   6.227   5.316  0.3355  0.0036 -0.4323
 2184SOL     OW 8507   3.813   5.423   5.070  0.5744  0.7467 -0.2387
 2184SOL    HW2 8508   3.794   5.502   5.020 -0.6478 -0.4349 -1.7737
 2184SOL    HW3 8509   3.892   5.387   5.029 -0.1783  0.0047 -1.0723
 2184SOL    MW4 8510   3.821   5.428   5.058  0.8145  0.5146  0.1644
 2185SOL     OW 8511   3.125   2.662   4.513  0.0270 -0.1244 -0.6757
 2185SOL    HW2 8512   3.134   2.752   4.545  0.8920  0.6445 -2.8944
 2185SOL    HW3 8513   3.075   2.670   4.431 -0.1833 -1.7110 -0.7385
 2185SOL    MW4 8514   3.119   2.675   4.506  0.1120 -0.1755 -0.5579
 2186SOL     OW 8515   0.358   1.689   4.962  0.2844 -0.1470 -0.0547
 2186SOL    HW2 8516   0.362   1.616   4.900 -1.5509 -1.0457  0.7844
 2186SOL    HW3 8517   0.348   1.647   5.048 -0.6753  1.0836  0.4672
 2186SOL    MW4 8518   0.357   1.674   4.965 -0.2032 -0.4858 -0.8082
 2187SOL     OW 8519   4.080   5.238   4.168  0.5424  0.3970  0.2695
 2187SOL    HW2 8520   3.989   5.228   4.139  1.0418  0.1769 -1.3001
 2187SOL    HW3 8521   4.080   5.319   4.219 -1.0207 -0.9041  2.4970
 2187SOL    MW4 8522   4.068   5.248   4.171 -0.6953  0.4451  0.1119
 2188SOL     OW 8523   2.983   6.037   0.373 -0.4818 -0.4776  0.1824
 2188SOL    HW2 8524   2.927   6.097   0.421 -1.7723 -0.7464 -0.9079
 2188SOL    HW3 8525   3.026   6.092   0.307  1.2639 -0.1138  1.5487
 2188SOL    MW4 8526   2.981   6.052   0.370 -0.2820  0.2045  0.3471
 2189SOL     OW 8527   4.372   4.961   3.195 -0.0368 -0.6863 -0.5108
 2189SOL    HW2 8528   4.378   5.053   3.168 -0.7971 -0.1285  1.1281
 2189SOL    HW3 8529   4.454   4.922   3.163  1.0031  0.9142  0.0602
 2189SOL    MW4 8530   4.384   4.968   3.187 -0.6686 -0.1413 -0.9645
 2190SOL     OW 8531   2.843   5.776   0.997 -0.5369  0.5848 -0.2247
 2190SOL    HW2 8532   2.755   5.741   0.988 -0.0345 -0.9272  0.4534
 2190SOL    HW3 8533   2.880   5.771   0.908 -0.5784 -0.3581 -0.1944
 2190SOL    MW4 8534   2.836   5.771   0.984 -0.3410 -0.6657 -0.2709
 2191SOL     OW 8535   5.663   3.121   3.952  0.2385  0.3402  0.7904
 2191SOL    HW2 8536   5.599   3.191   3.936 -0.1168  0.4133  2.4114
 2191SOL    HW3 8537   5.610   3.046   3.977  0.4571 -1.1863 -2.7600
 2191SOL    MW4 8538   5.647   3.121   3.953  0.2705 -0.4287 -0.2111
 2192SOL     OW 8539   1.729   0.739   3.667 -0.1426  0.6413  0.5149
 2192SOL    HW2 8540   1.823   0.722   3.659 -0.1143  1.0622 -0.0769
 2192SOL    HW3 8541   1.688   0.659   3.633 -0.0051  0.3266  1.0709
 2192SOL    MW4 8542   1.736   0.726   3.662  0.2167  0.3336  0.1930
 2193SOL     OW 8543   2.163   2.063   2.832 -0.5109 -0.5058 -0.0501
 2193SOL    HW2 8544   2.074   2.067   2.866 -1.0919  1.7245 -1.5441
 2193SOL    HW3 8545   2.205   2.143   2.865  0.2639 -0.5123 -0.9607
 2193SOL    MW4 8546   2.157   2.074   2.841  0.6814 -0.3815 -0.9278
 2194SOL     OW 8547   3.082   5.664   2.662  0.1180 -0.6732  0.6487
 2194SOL    HW2 8548   3.002   5.691   2.616 -0.0441 -0.9438  0.7647
 2194SOL    HW3 8549   3.050   5.621   2.742  0.4175  0.3736  1.3424
 2194SOL    MW4 8550   3.067   5.662   2.666  0.5333  0.0229 -0.5388
 2195SOL     OW 8551   3.664   5.068   2.306  0.0134  0.2284 -0.6380
 2195SOL    HW2 8552   3.733   5.075   2.371 -1.1387  0.6084  0.5691
 2195SOL    HW3 8553   3.676   4.980   2.268 -0.0944 -0.5538  1.0394
 2195SOL    MW4 8554   3.675   5.057   2.309 -0.4714 -0.0148  0.1795
 2196SOL     OW 8555   0.557   1.644   4.059  0.1972 -0.1686 -0.3453
 2196SOL    HW2 8556   0.494   1.603   4.000  1.0919 -1.6340 -0.3361
 2196SOL    HW3 8557   0.503   1.686   4.126 -0.7908 -0.3091 -1.0354
 2196SOL    MW4 8558   0.542   1.644   4.060 -0.2785 -0.7295 -0.0483
 2197SOL     OW 8559   3.595   3.453   3.360  0.7272 -0.0090 -0.3575
 2197SOL    HW2 8560   3.534   3.414   3.422  1.5474 -0.1449  0.3941
 2197SOL    HW3 8561   3.558   3.540   3.341  0.4519  0.0220  0.3018
 2197SOL    MW4 8562   3.582   3.460   3.366 -0.2472 -0.3106 -0.3733
 2198SOL     OW 8563   1.821   2.751   6.277  0.4599  0.4701 -0.0174
 2198SOL    HW2 8564   1.893   2.814   6.282  0.7351  0.0628  1.5682
 2198SOL    HW3 8565   1.862   2.666   6.292 -0.2146  0.1218 -0.0852
 2198SOL    MW4 8566   1.836   2.748   6.279 -0.4235 -0.3340  0.5711
 2199SOL     OW 8567   0.193   1.070   4.865 -0.3438 -0.2333  0.0832
 2199SOL    HW2 8568   0.202   1.094   4.773  0.4624  0.9547  0.4566
 2199SOL    HW3 8569   0.255   0.998   4.877 -0.9040 -0.8176 -0.4334
 2199SOL    MW4 8570   0.202   1.063   4.854  0.4656 -0.3883  0.0331
 2200SOL     OW 8571   3.177   3.113   5.705 -0.7213 -0.5042  0.4603
 2200SOL    HW2 8572   3.140   3.147   5.787 -3.7560  0.6067 -1.2044
 2200SOL    HW3 8573   3.116   3.044   5.679 -0.8879  0.3907 -1.7196
 2200SOL    MW4 8574   3.164   3.108   5.712  0.2175  0.6438 -0.0356
 2201SOL     OW 8575   4.800   4.768   6.065  0.1274 -0.2098 -0.7510
 2201SOL    HW2 8576   4.726   4.755   6.125 -0.3331  1.3461 -0.9433
 2201SOL    HW3 8577   4.779   4.712   5.990 -0.2773 -0.6673 -0.3066
 2201SOL    MW4 8578   4.787   4.759   6.063 -0.2253  0.0426 -0.1379
 2202SOL     OW 8579   1.130   6.076   5.820  0.3217  0.2402 -0.1559
 2202SOL    HW2 8580   1.059   6.064   5.883  0.3085 -1.2764 -0.4314
 2202SOL    HW3 8581   1.089   6.118   5.745  0.5540  3.1331  1.2118
 2202SOL    MW4 8582   1.115   6.080   5.818 -0.3465 -0.1304  0.7498
 2203SOL     OW 8583   0.357   0.725   4.433  0.2438 -0.4013  0.2037
 2203SOL    HW2 8584   0.363   0.739   4.338  0.1832  0.5906  0.3367
 2203SOL    HW3 8585   0.352   0.630   4.443 -4.8126 -0.5788 -1.1537
 2203SOL    MW4 8586   0.357   0.715   4.422  0.2357 -0.5125 -0.4679
 2204SOL     OW 8587   0.687   2.628   3.182  0.0154  0.0253  0.5058
 2204SOL    HW2 8588   0.697   2.649   3.089  0.1244  1.3454  0.7986
 2204SOL    HW3 8589   0.598   2.657   3.203 -0.1561 -0.6540  0.7185
 2204SOL    MW4 8590   0.676   2.635   3.172 -0.1683  0.3846  0.4058
 2205SOL     OW 8591   0.258   3.715   5.130 -0.2382  0.1747 -0.6178
 2205SOL    HW2 8592   0.297   3.690   5.214 -0.3044  1.9043 -0.0185
 2205SOL    HW3 8593   0.170   3.678   5.132  0.1300 -0.7231 -0.4144
 2205SOL    MW4 8594   0.252   3.707   5.141  0.3235 -0.0996  0.2754
 2206SOL     OW 8595   3.131   5.786   6.314 -0.0610 -0.0742 -0.0420
 2206SOL    HW2 8596   3.084   5.843   6.375  0.1700 -1.1971  1.2175
 2206SOL    HW3 8597   3.113   5.824   6.228 -0.8650  1.2136  0.6610
 2206SOL    MW4 8598   3.122   5.798   6.311 -0.3264  0.2838  0.8245
 2207SOL     OW 8599   0.838   4.658   3.741 -0.0800  0.3198 -0.5610
 2207SOL    HW2 8600   0.897   4.681   3.669  0.9873 -1.2879 -0.2801
 2207SOL    HW3 8601   0.891   4.671   3.820  0.3780 -2.1650 -0.3567
 2207SOL    MW4 8602   0.853   4.662   3.742 -0.1726 -0.1999  0.3611
 2208SOL     OW 8603   1.709   3.032   2.766 -0.2090  0.2918  0.0072
 2208SOL    HW2 8604   1.794   3.016   2.807 -0.2761  0.2364  0.1243
 2208SOL    HW3 8605   1.730   3.054   2.675 -0.0103  1.0685  0.2336
 2208SOL    MW4 8606   1.723   3.033   2.759  0.0079 -0.2556  0.0026
 2209SOL     OW 8607   0.669   1.089   2.427 -0.2451  0.0824 -0.4878
 2209SOL    HW2 8608   0.713   1.174   2.419 -0.8493  0.2496 -2.7201
 2209SOL    HW3 8609   0.725   1.039   2.487  0.1703  1.9943  0.8257
 2209SOL    MW4 8610   0.682   1.094   2.434 -0.0855  0.3572 -0.0756
 2210SOL     OW 8611   3.539   5.086   1.621 -1.0126  0.3598  0.1663
 2210SOL    HW2 8612   3.572   5.144   1.690 -0.8312 -1.0115  1.2867
 2210SOL    HW3 8613   3.612   5.027   1.604 -1.1545  0.5160 -1.0316
 2210SOL    MW4 8614   3.553   5.086   1.628  0.4902  0.2210 -0.1720
 2211SOL     OW 8615   2.814   1.676   0.285  0.4713 -0.0040 -0.0513
 2211SOL    HW2 8616   2.762   1.597   0.273  1.0810 -0.3276 -0.6920
 2211SOL    HW3 8617   2.893   1.646   0.330  0.5529  0.2961  0.0091
 2211SOL    MW4 8618   2.818   1.662   0.289 -0.2030  0.3304 -0.5761
 2212SOL     OW 8619   5.431   2.396   4.066  0.7460  0.1217 -0.1277
 2212SOL    HW2 8620   5.474   2.469   4.111 -1.6577  2.5230 -1.4068
 2212SOL    HW3 8621   5.472   2.394   3.980 -0.1633  1.0142 -0.6070
 2212SOL    MW4 8622   5.442   2.406   4.060  0.1745 -0.0413 -0.1095
 2213SOL     OW 8623   2.427   3.078   5.796 -0.1666 -0.1541  0.3853
 2213SOL    HW2 8624   2.451   3.085   5.703 -0.1963  4.2378  0.5097
 2213SOL    HW3 8625   2.334   3.099   5.799  0.0137  0.5612  1.4589
 2213SOL    MW4 8626   2.418   3.081   5.784  0.0534  0.4612 -0.4930
 2214SOL     OW 8627   2.373   2.307   1.821 -0.4444 -0.2916  0.1961
 2214SOL    HW2 8628   2.432   2.277   1.890  1.1499 -0.6716 -1.2656
 2214SOL    HW3 8629   2.305   2.355   1.868  1.1587  0.4110  1.9610
 2214SOL    MW4 8630   2.372   2.309   1.837  0.4722 -0.2541  0.6389
 2215SOL     OW 8631   3.449   4.060   3.113  0.0355  0.3068  0.1331
 2215SOL    HW2 8632   3.355   4.063   3.093 -0.0381 -0.9590  0.1790
 2215SOL    HW3 8633   3.470   4.148   3.144 -1.3634  0.3563  1.0472
 2215SOL    MW4 8634   3.439   4.072   3.115  0.9089  0.2368  0.0837
 2216SOL     OW 8635   6.031   4.032   6.246  0.1573  0.1598 -0.3838
 2216SOL    HW2 8636   6.068   3.944   6.254 -0.0651 -0.0100 -1.1039
 2216SOL    HW3 8637   6.107   4.091   6.251  0.2059 -0.0030  1.0655
 2216SOL    MW4 8638   6.046   4.028   6.247 -0.5289 -0.0880 -0.4372
 2217SOL     OW 8639   1.168   0.049   0.433  0.1182 -0.2201 -0.4825
 2217SOL    HW2 8640   1.241   0.002   0.394  0.2902 -0.4699  0.1235
 2217SOL    HW3 8641   1.203   0.084   0.515 -0.0637  0.7993 -0.8231
 2217SOL    MW4 8642   1.182   0.048   0.439 -0.4800 -0.4574  0.2599
 2218SOL     OW 8643   5.434   0.797   2.300  0.2728  0.3096  0.1623
 2218SOL    HW2 8644   5.418   0.874   2.355 -0.1557 -0.4228  1.0859
 2218SOL    HW3 8645   5.354   0.786   2.250  0.1250  0.1471  0.4322
 2218SOL    MW4 8646   5.421   0.806   2.301 -0.5487 -0.3855  0.0793
 2219SOL     OW 8647   1.807   6.128   4.707  0.3883  0.7623  0.1165
 2219SOL    HW2 8648   1.719   6.129   4.744 -0.1810 -0.1712 -1.1318
 2219SOL    HW3 8649   1.854   6.197   4.753  0.4948 -1.7906  4.3692
 2219SOL    MW4 8650   1.802   6.137   4.718  0.1607 -0.4779 -0.0746
 2220SOL     OW 8651   0.562   4.903   1.870  0.6894  0.2458  0.0900
 2220SOL    HW2 8652   0.544   4.870   1.783 -0.4128  0.2950  0.2870
 2220SOL    HW3 8653   0.609   4.985   1.856 -1.1692  1.2482 -0.5202
 2220SOL    MW4 8654   0.566   4.910   1.857  0.0204  0.4359 -0.8619
 2221SOL     OW 8655   6.319   2.508   5.293  0.3107 -0.1636  0.1964
 2221SOL    HW2 8656   6.373   2.582   5.265 -1.2053  0.5127 -1.0906
 2221SOL    HW3 8657   6.362   2.476   5.372  1.9417  1.0380 -0.1494
 2221SOL    MW4 8658   6.332   2.514   5.300  0.2907  0.3385  0.0636
 2222SOL     OW 8659   4.908   4.396   4.066  0.6239 -0.0114  0.4296
 2222SOL    HW2 8660   4.985   4.435   4.025  1.2361 -0.0305  1.5328
 2222SOL    HW3 8661   4.894   4.315   4.017  1.9364 -0.5242  0.8440
 2222SOL    MW4 8662   4.917   4.390   4.054 -0.4450 -0.0090  0.4304
 2223SOL     OW 8663   2.828   6.110   1.056 -0.2057  0.3496  1.0929
 2223SOL    HW2 8664   2.758   6.045   1.053 -0.7825  0.9728 -1.2643
 2223SOL    HW3 8665   2.782   6.194   1.060  0.4458  0.7213  0.8386
 2223SOL    MW4 8666   2.812   6.113   1.056  0.3822 -0.2369 -0.1689
 2224SOL     OW 8667   1.950   2.509   6.277  0.2251 -0.1804  0.0519
 2224SOL    HW2 8668   2.010   2.511   6.203  0.1027 -1.0349 -0.0800
 2224SOL    HW3 8669   1.998   2.465   6.347  0.8685  1.8672  0.9912
 2224SOL    MW4 8670   1.964   2.504   6.276 -0.1456 -0.0109  0.8890
 2225SOL     OW 8671   1.476   5.957   5.510  0.3365  0.6021  0.3451
 2225SOL    HW2 8672   1.422   6.025   5.471  1.2374  0.6273 -0.9228
 2225SOL    HW3 8673   1.422   5.921   5.581 -0.6459  1.7566  0.2169
 2225SOL    MW4 8674   1.462   5.961   5.514 -0.2508  0.5080 -0.1290
 2226SOL     OW 8675   2.730   5.727   3.508  0.0132 -0.5442 -0.1210
 2226SOL    HW2 8676   2.695   5.807   3.547 -0.2825 -0.7944  0.1255
 2226SOL    HW3 8677   2.657   5.690   3.458  0.7847  0.5510 -2.1813
 2226SOL    MW4 8678   2.716   5.732   3.507 -0.1059  0.3266  0.1289
 2227SOL     OW 8679   3.038   2.311   5.006  0.4003 -0.1691  0.5171
 2227SOL    HW2 8680   2.957   2.357   4.987  0.2895  0.2751  1.9936
 2227SOL    HW3 8681   3.037   2.235   4.948 -0.5687  0.3874 -0.2062
 2227SOL    MW4 8682   3.027   2.307   4.996  0.1795 -0.2651 -0.2053
 2228SOL     OW 8683   0.806   4.638   5.317 -0.1995  0.5018  0.1322
 2228SOL    HW2 8684   0.888   4.589   5.317 -0.1461  0.5920 -0.1988
 2228SOL    HW3 8685   0.772   4.629   5.228 -0.1963  1.0485  0.0729
 2228SOL    MW4 8686   0.812   4.630   5.305  0.9812 -0.3225  0.4582
 2229SOL     OW 8687   1.608   2.342   3.282 -0.1896 -0.3672 -0.4812
 2229SOL    HW2 8688   1.551   2.375   3.212 -1.5351  0.3828  0.8994
 2229SOL    HW3 8689   1.697   2.354   3.248 -0.7900  0.4357 -1.8636
 2229SOL    MW4 8690   1.613   2.348   3.268  0.1183  0.0513  0.3637
 2230SOL     OW 8691   2.018   3.726   2.289 -0.0830 -0.6465 -0.3758
 2230SOL    HW2 8692   1.973   3.790   2.234  2.8694  2.1719  0.1504
 2230SOL    HW3 8693   1.969   3.727   2.372 -0.8686 -0.0683 -0.8373
 2230SOL    MW4 8694   2.006   3.735   2.293  0.3082 -0.0929 -0.4836
 2231SOL     OW 8695   6.156   4.543   1.265 -0.5439  0.2419 -0.5641
 2231SOL    HW2 8696   6.225   4.477   1.254 -1.5952 -1.4191  1.6877
 2231SOL    HW3 8697   6.080   4.506   1.220 -1.1804 -0.2219  0.8256
 2231SOL    MW4 8698   6.155   4.529   1.258  0.1175  0.7240 -1.0658
 2232SOL     OW 8699   5.810   5.026   2.227  0.0900 -0.0228 -0.8002
 2232SOL    HW2 8700   5.733   5.038   2.171  0.1877 -1.4656 -1.2762
 2232SOL    HW3 8701   5.788   5.072   2.308  0.1833  2.6674 -2.1691
 2232SOL    MW4 8702   5.797   5.034   2.230 -0.3608 -0.3506 -0.0093
 2233SOL     OW 8703   0.345   2.094   3.009 -0.0408  0.3028 -0.4481
 2233SOL    HW2 8704   0.348   2.017   2.952  3.1035 -0.3245  0.3554
 2233SOL    HW3 8705   0.348   2.168   2.948 -1.7551 -0.1927 -1.1875
 2233SOL    MW4 8706   0.346   2.093   2.993 -0.1714  0.0409  0.5135
 2234SOL     OW 8707   2.228   6.176   4.276 -0.0816 -0.1712  0.1383
 2234SOL    HW2 8708   2.149   6.217   4.312  1.0092  1.4069  0.8674
 2234SOL    HW3 8709   2.241   6.098   4.331 -1.1483 -0.4939 -0.0386
 2234SOL    MW4 8710   2.219   6.171   4.288  0.0829 -0.6511  0.2994
 2235SOL     OW 8711   3.794   2.607   0.836  0.2952  0.2483  0.0031
 2235SOL    HW2 8712   3.769   2.560   0.756  0.1776  0.0960  0.1284
 2235SOL    HW3 8713   3.885   2.581   0.851  0.2043 -0.0113  0.1196
 2235SOL    MW4 8714   3.803   2.597   0.828  0.0903 -0.2254 -0.0286
 2236SOL     OW 8715   0.149   3.930   5.273 -0.3155 -0.1763 -0.2599
 2236SOL    HW2 8716   0.210   3.864   5.239  0.5559  1.1701 -1.4141
 2236SOL    HW3 8717   0.072   3.922   5.217 -0.3416 -0.4498 -0.1839
 2236SOL    MW4 8718   0.147   3.920   5.261 -0.5750 -0.4384 -0.0676
 2237SOL     OW 8719   2.899   2.597   3.991 -0.0168 -0.3262  0.1456
 2237SOL    HW2 8720   2.902   2.569   3.900 -1.5785  0.0445 -0.0528
 2237SOL    HW3 8721   2.820   2.651   3.997  0.1686 -0.1770  1.6644
 2237SOL    MW4 8722   2.889   2.600   3.980  0.1904 -0.4033  0.0109
 2238SOL     OW 8723   4.608   0.333   5.470  0.2805 -0.0478  0.0370
 2238SOL    HW2 8724   4.629   0.255   5.419  0.7217  0.2422 -0.2316
 2238SOL    HW3 8725   4.576   0.396   5.406 -0.8400 -0.2631  0.3573
 2238SOL    MW4 8726   4.606   0.331   5.455  0.2492  0.0229 -0.1934
 2239SOL     OW 8727   0.237   4.072   1.762  1.0377  0.2074 -0.5475
 2239SOL    HW2 8728   0.290   4.083   1.841  0.1319 -1.2264  0.3042
 2239SOL    HW3 8729   0.259   4.148   1.708  1.6085  1.2795  1.1081
 2239SOL    MW4 8730   0.247   4.083   1.766  0.0512 -0.4350 -0.2430
 2240SOL     OW 8731   0.102   0.868   2.737  0.0285  0.3166  0.4722
 2240SOL    HW2 8732   0.034   0.818   2.691  0.6351  0.1505 -0.2502
 2240SOL    HW3 8733   0.058   0.899   2.816 -0.4329 -1.1871  0.8458
 2240SOL    MW4 8734   0.087   0.865   2.741 -0.2566  0.1000 -0.8246
 2241SOL     OW 8735   1.026   1.159   5.141 -0.6203  0.2367  0.2998
 2241SOL    HW2 8736   1.031   1.131   5.050  1.3780  1.8079 -0.1386
 2241SOL    HW3 8737   0.939   1.198   5.150 -0.3609  1.2907 -1.3293
 2241SOL    MW4 8738   1.015   1.160   5.130 -0.3165  0.7306  0.0944
 2242SOL     OW 8739   5.044   4.681   1.166  0.2299 -0.0307 -0.5457
 2242SOL    HW2 8740   5.102   4.753   1.191  0.2802 -0.4682  0.6917
 2242SOL    HW3 8741   4.983   4.719   1.103 -1.2122  1.7557  1.7447
 2242SOL    MW4 8742   5.044   4.696   1.161 -0.0959 -0.1209  0.7208
 2243SOL     OW 8743   4.770   3.976   6.250 -0.3095 -0.1617  0.4470
 2243SOL    HW2 8744   4.782   3.883   6.268 -0.2648  0.2343  2.8653
 2243SOL    HW3 8745   4.856   4.016   6.266  0.2675  0.0975 -2.7052
 2243SOL    MW4 8746   4.783   3.969   6.255  0.0702  0.2220 -0.5542
 2244SOL     OW 8747   6.224   4.598   4.692  0.1833  0.1672  0.3759
 2244SOL    HW2 8748   6.182   4.645   4.764  0.5406 -0.5988  1.0850
 2244SOL    HW3 8749   6.257   4.517   4.730  1.0059  0.0664 -0.4868
 2244SOL    MW4 8750   6.223   4.594   4.706 -0.6153  0.1375  0.3705
 2245SOL     OW 8751   5.497   1.764   6.317  0.5607 -0.5603 -0.2218
 2245SOL    HW2 8752   5.542   1.682   6.298  0.2414 -0.8033  0.0491
 2245SOL    HW3 8753   5.549   1.831   6.273  0.1228 -1.0505 -1.5278
 2245SOL    MW4 8754   5.509   1.762   6.309 -0.0568 -0.0187  0.6052
 2246SOL     OW 8755   5.069   4.847   5.058 -0.4271  0.3471  0.2208
 2246SOL    HW2 8756   5.045   4.829   5.149 -1.3741 -0.1154 -0.1080
 2246SOL    HW3 8757   5.008   4.794   5.006  0.5115  0.1210 -0.6764
 2246SOL    MW4 8758   5.058   4.838   5.063  0.4991 -0.6081  0.3243
 2247SOL     OW 8759   4.781   4.484   0.240 -0.7017  0.3536 -0.1976
 2247SOL    HW2 8760   4.816   4.423   0.175  2.5629  1.9463 -0.1516
 2247SOL    HW3 8761   4.794   4.441   0.324 -0.7025  0.1172 -0.3191
 2247SOL    MW4 8762   4.787   4.470   0.242  0.4591 -0.3832  0.2906
 2248SOL     OW 8763   1.964   5.055   2.027 -0.0322 -0.3492  0.1366
 2248SOL    HW2 8764   2.000   5.142   2.008 -4.2732  2.0527  1.3887
 2248SOL    HW3 8765   1.889   5.047   1.968 -0.5483 -2.5893  1.0004
 2248SOL    MW4 8766   1.959   5.066   2.017 -0.1854  0.0540 -0.4716
 2249SOL     OW 8767   1.886   4.097   2.542  0.2362  0.1525  0.5502
 2249SOL    HW2 8768   1.871   4.104   2.448  1.0930 -2.3192  0.1363
 2249SOL    HW3 8769   1.804   4.123   2.582 -1.1153 -1.3798 -1.0456
 2249SOL    MW4 8770   1.873   4.101   2.535 -0.1315  0.1612  0.2111
 2250SOL     OW 8771   0.420   4.025   3.150  0.1671  0.4049 -0.6003
 2250SOL    HW2 8772   0.360   3.987   3.085 -1.6890  0.0986  1.1891
 2250SOL    HW3 8773   0.363   4.068   3.213  1.7566 -0.4602  1.5655
 2250SOL    MW4 8774   0.405   4.025   3.150  0.1856  0.2221 -0.4305
 2251SOL     OW 8775   1.729   0.323   1.811 -0.1196  0.3119 -0.5960
 2251SOL    HW2 8776   1.742   0.363   1.725 -0.9388  0.0020 -0.8749
 2251SOL    HW3 8777   1.817   0.293   1.837  0.0647  0.0173 -1.5188
 2251SOL    MW4 8778   1.743   0.324   1.803 -0.2729  0.2438 -0.2679
 2252SOL     OW 8779   3.989   5.851   2.392  0.4617 -0.1165 -0.0042
 2252SOL    HW2 8780   4.000   5.918   2.459 -0.0630  0.4098 -0.4333
 2252SOL    HW3 8781   4.059   5.867   2.329 -0.6395  1.0914 -0.9685
 2252SOL    MW4 8782   3.999   5.862   2.392  0.2072  0.6370 -0.2521
 2253SOL     OW 8783   3.304   1.510   3.305  0.0732 -0.3516 -0.4361
 2253SOL    HW2 8784   3.238   1.451   3.341 -0.2362  0.5137  0.4611
 2253SOL    HW3 8785   3.297   1.500   3.210 -0.8346 -0.8105 -0.3240
 2253SOL    MW4 8786   3.295   1.501   3.297 -0.5413  0.7032  0.5736
 2254SOL     OW 8787   1.918   5.467   5.308 -0.2216  0.0885  0.2259
 2254SOL    HW2 8788   1.986   5.510   5.256  0.6740 -1.2877  0.2005
 2254SOL    HW3 8789   1.847   5.531   5.312  0.7937  1.2982 -0.3359
 2254SOL    MW4 8790   1.917   5.481   5.301 -0.2260 -0.2638  0.0992
 2255SOL     OW 8791   0.826   0.148   5.475  0.1028  0.6476  0.2128
 2255SOL    HW2 8792   0.862   0.081   5.417 -0.8635  3.2661 -3.8205
 2255SOL    HW3 8793   0.900   0.176   5.528  1.5803 -0.5943 -1.0842
 2255SOL    MW4 8794   0.841   0.143   5.475  0.8187 -0.6898  0.7121
 2256SOL     OW 8795   0.988   6.158   2.611  0.2384  0.9475 -0.2841
 2256SOL    HW2 8796   0.933   6.217   2.662  1.5286  2.4549 -0.5352
 2256SOL    HW3 8797   1.035   6.216   2.551  1.1991 -0.4178 -0.9058
 2256SOL    MW4 8798   0.987   6.173   2.610  0.2131  0.1826 -0.5237
 2257SOL     OW 8799   3.795   0.055   2.947  0.3444  0.3747 -0.0044
 2257SOL    HW2 8800   3.829   0.096   2.868 -0.6045 -1.1391 -1.2698
 2257SOL    HW3 8801   3.703   0.036   2.927 -0.1323  0.6309  1.7599
 2257SOL    MW4 8802   3.787   0.058   2.934 -0.2298 -0.0130 -0.2603
 2258SOL     OW 8803   2.575   4.144   2.821 -0.3443 -0.4200  0.3341
 2258SOL    HW2 8804   2.599   4.227   2.780 -1.2924  0.1012  0.7989
 2258SOL    HW3 8805   2.634   4.079   2.782 -0.6867  0.1950 -1.2405
 2258SOL    MW4 8806   2.586   4.146   2.811  0.0853 -0.4791 -0.1523
 2259SOL     OW 8807   2.327   6.303   5.752  0.5173 -0.6413  0.1307
 2259SOL    HW2 8808   2.388   6.375   5.733 -1.1907  1.4809  2.1002
 2259SOL    HW3 8809   2.247   6.326   5.705 -0.4015 -0.6082  1.6229
 2259SOL    MW4 8810   2.325   6.316   5.744 -0.2480  0.2558  0.0095
 2260SOL     OW 8811   0.659   2.821   0.573  0.2813 -0.2863 -0.5807
 2260SOL    HW2 8812   0.732   2.769   0.605  2.0376  1.3740 -1.7160
 2260SOL    HW3 8813   0.618   2.857   0.652  2.8936  1.5974  0.0224
 2260SOL    MW4 8814   0.663   2.819   0.588  1.0686  0.3362 -0.1869
 2261SOL     OW 8815   2.084   2.528   3.246 -0.9293 -0.6297 -0.3827
 2261SOL    HW2 8816   2.155   2.520   3.182  0.0118  0.5684  0.4742
 2261SOL    HW3 8817   2.108   2.468   3.316 -0.9352 -0.4885 -0.2587
 2261SOL    MW4 8818   2.097   2.519   3.246 -0.3321 -0.1397  0.0579
 2262SOL     OW 8819   0.371   6.142   4.142  0.1520 -0.2905  0.0985
 2262SOL    HW2 8820   0.390   6.201   4.214 -1.8390 -2.0832  2.2792
 2262SOL    HW3 8821   0.439   6.160   4.077  1.8078  1.7193  2.2139
 2262SOL    MW4 8822   0.382   6.152   4.143  0.1243 -0.2674  0.2230
 2263SOL     OW 8823   0.490   3.368   1.368  0.1857  0.0357  0.0117
 2263SOL    HW2 8824   0.451   3.347   1.453 -0.7560  0.4788 -0.3050
 2263SOL    HW3 8825   0.499   3.464   1.369 -1.0803  0.1824 -0.9086
 2263SOL    MW4 8826   0.486   3.378   1.380 -0.0889 -0.2163 -0.7413
 2264SOL     OW 8827   0.149   4.851   0.660 -0.1154  0.3886  0.3747
 2264SOL    HW2 8828   0.199   4.777   0.625 -0.6182 -0.1272  0.7184
 2264SOL    HW3 8829   0.108   4.891   0.584  0.7208  0.7455  0.1041
 2264SOL    MW4 8830   0.150   4.847   0.646  0.2119 -0.6042 -0.3331
 2265SOL     OW 8831   0.934   3.748   3.596  0.0148 -0.3410  0.2228
 2265SOL    HW2 8832   0.870   3.728   3.527 -1.0412  0.4049  0.9464
 2265SOL    HW3 8833   0.885   3.733   3.678  1.5660 -2.3277  0.8649
 2265SOL    MW4 8834   0.919   3.743   3.598  0.4940 -0.3427  0.2253
 2266SOL     OW 8835   5.790   0.812   1.207 -0.0538  0.5639 -0.5716
 2266SOL    HW2 8836   5.749   0.812   1.293  0.6330 -0.6349 -0.2228
 2266SOL    HW3 8837   5.722   0.843   1.148 -0.6698  0.9812  0.3383
 2266SOL    MW4 8838   5.776   0.816   1.211  0.2678  0.2801  0.1399
 2267SOL     OW 8839   3.116   0.970   4.901 -0.0680 -1.0669  0.5308
 2267SOL    HW2 8840   3.169   1.049   4.907  0.3233 -1.2216 -0.6221
 2267SOL    HW3 8841   3.063   0.970   4.981  1.5156 -0.8174  1.6089
 2267SOL    MW4 8842   3.116   0.981   4.912 -0.0019 -0.0231  0.3533
 2268SOL     OW 8843   4.655   5.273   1.921 -0.7174 -0.2998  0.0938
 2268SOL    HW2 8844   4.728   5.213   1.937 -1.1775 -0.8202  0.2901
 2268SOL    HW3 8845   4.696   5.359   1.912 -0.0605 -0.6166 -0.0273
 2268SOL    MW4 8846   4.670   5.276   1.922  0.2644  0.1129  0.1223
 2269SOL     OW 8847   1.618   0.216   4.605 -0.3948 -0.1851 -0.0983
 2269SOL    HW2 8848   1.560   0.287   4.631  0.7932  0.4823  0.8234
 2269SOL    HW3 8849   1.575   0.177   4.528 -1.3558  1.1452 -0.2707
 2269SOL    MW4 8850   1.605   0.220   4.598 -0.4101  0.6326 -0.0838
 2270SOL     OW 8851   3.321   3.482   2.735  0.4909  0.0870 -0.2232
 2270SOL    HW2 8852   3.282   3.549   2.679 -0.0538  0.7104  0.8604
 2270SOL    HW3 8853   3.381   3.434   2.678 -0.4638  0.3288 -1.4658
 2270SOL    MW4 8854   3.324   3.484   2.720  0.7567  0.1938  0.1315
 2271SOL     OW 8855   1.265   2.107   2.985 -0.4121  0.0708 -0.2573
 2271SOL    HW2 8856   1.306   2.190   2.961  0.2172 -0.9666 -3.2063
 2271SOL    HW3 8857   1.277   2.100   3.080 -2.5249  4.3457  0.5783
 2271SOL    MW4 8858   1.272   2.117   2.994  0.5715  0.5610  0.0289
 2272SOL     OW 8859   0.365   1.979   4.588  0.2632  0.4781  0.3654
 2272SOL    HW2 8860   0.398   1.897   4.624  0.7145  0.7230  0.5072
 2272SOL    HW3 8861   0.291   1.952   4.533  0.9610 -0.1140 -0.3021
 2272SOL    MW4 8862   0.359   1.965   4.585  0.1068  0.0538  0.0648
 2273SOL     OW 8863   1.402   6.316   2.592 -0.2317 -0.6892 -0.4844
 2273SOL    HW2 8864   1.399   6.408   2.616 -1.2957 -0.3201 -1.8836
 2273SOL    HW3 8865   1.463   6.312   2.519 -2.1729 -0.5940 -2.1967
 2273SOL    MW4 8866   1.410   6.327   2.586 -0.1851 -0.0893  0.2470
 2274SOL     OW 8867   1.162   1.456   3.657  0.0314 -0.2660 -0.2798
 2274SOL    HW2 8868   1.106   1.490   3.727 -2.1509 -2.0278 -1.0515
 2274SOL    HW3 8869   1.105   1.453   3.580  1.5005 -1.1351 -1.3825
 2274SOL    MW4 8870   1.147   1.460   3.657 -0.3225  0.1391 -0.3880
 2275SOL     OW 8871   1.702   5.355   0.042  0.3052 -0.0899  0.0349
 2275SOL    HW2 8872   1.616   5.370   0.079 -0.1448 -1.3171 -0.4595
 2275SOL    HW3 8873   1.698   5.393  -0.046  1.2371  2.4420  0.9939
 2275SOL    MW4 8874   1.690   5.362   0.035 -0.0978  0.0817  0.1261
 2276SOL     OW 8875   5.254   1.202   3.767 -0.4215  0.0671 -0.2261
 2276SOL    HW2 8876   5.256   1.212   3.863 -1.7961 -0.1599 -0.1485
 2276SOL    HW3 8877   5.197   1.127   3.753 -1.1235  0.7696 -1.2572
 2276SOL    MW4 8878   5.247   1.194   3.778  0.5104 -0.0891  0.4692
 2277SOL     OW 8879   0.123   3.728   3.257  0.2625 -0.2839 -0.0822
 2277SOL    HW2 8880   0.106   3.818   3.230 -0.1416 -0.6481 -1.0594
 2277SOL    HW3 8881   0.106   3.675   3.179  2.1540 -1.0628 -0.0139
 2277SOL    MW4 8882   0.118   3.733   3.243  0.5292 -0.4091  0.3283
 2278SOL     OW 8883   1.462   0.134   5.357  0.3710 -0.4193 -0.2974
 2278SOL    HW2 8884   1.429   0.072   5.422 -0.1457 -0.4240 -0.5589
 2278SOL    HW3 8885   1.555   0.112   5.349  0.3932 -0.5580  0.2812
 2278SOL    MW4 8886   1.470   0.123   5.365  0.2121  0.0470  0.1741
 2279SOL     OW 8887   3.756   5.269   3.131  0.1480 -0.0501  0.1680
 2279SOL    HW2 8888   3.815   5.345   3.141  2.3110 -1.7658  1.5531
 2279SOL    HW3 8889   3.692   5.280   3.202  0.3913  0.5199  0.3144
 2279SOL    MW4 8890   3.756   5.281   3.142 -0.1108  0.3369  0.7994
 2280SOL     OW 8891   0.637   4.899   2.901 -0.5347  0.1459 -0.3309
 2280SOL    HW2 8892   0.583   4.952   2.843 -1.6449  0.1843  0.7062
 2280SOL    HW3 8893   0.637   4.812   2.860 -2.0456 -0.0558  0.0377
 2280SOL    MW4 8894   0.630   4.894   2.888 -0.8656 -0.0881 -0.3115
 2281SOL     OW 8895   3.935   0.606   0.119  0.1431  0.3621 -0.2230
 2281SOL    HW2 8896   3.985   0.562   0.188 -1.1143  0.1848  0.6209
 2281SOL    HW3 8897   3.866   0.653   0.166 -1.8846 -1.2450 -1.4361
 2281SOL    MW4 8898   3.933   0.606   0.134  0.5666  0.1431  0.2198
 2282SOL     OW 8899   0.533   0.194   1.248 -0.1092 -0.1393  0.2680
 2282SOL    HW2 8900   0.511   0.180   1.156  1.3449 -0.6983 -0.0103
 2282SOL    HW3 8901   0.523   0.107   1.288 -1.1100  0.1726  0.7470
 2282SOL    MW4 8902   0.529   0.180   1.241  0.1056  0.2473  0.5630
 2283SOL     OW 8903   1.923   1.275   5.847 -0.4843  0.2530 -0.0215
 2283SOL    HW2 8904   1.878   1.201   5.806  2.4369 -1.5371 -0.2420
 2283SOL    HW3 8905   1.897   1.270   5.939  0.3689 -1.6825  0.1527
 2283SOL    MW4 8906   1.913   1.265   5.854  0.6534 -0.0406  0.5339
 2284SOL     OW 8907   4.457   5.287   0.082 -0.3858  0.4536 -0.0522
 2284SOL    HW2 8908   4.509   5.362   0.112  0.8380 -0.2989 -0.2363
 2284SOL    HW3 8909   4.447   5.233   0.160 -2.7199  1.5587  0.5158
 2284SOL    MW4 8910   4.463   5.290   0.096 -0.2380  0.6456  0.1574
 2285SOL     OW 8911   3.727   1.178   2.353  0.4456 -0.2841  0.0953
 2285SOL    HW2 8912   3.732   1.201   2.261  0.0543  1.5926  0.4874
 2285SOL    HW3 8913   3.688   1.255   2.395  0.8411 -0.9803  1.8571
 2285SOL    MW4 8914   3.723   1.191   2.347 -0.6002  0.6335 -0.4018
 2286SOL     OW 8915   4.885   0.037   4.622  0.0270 -0.0410  0.2490
 2286SOL    HW2 8916   4.873  -0.034   4.560 -0.2172 -0.2775  0.5642
 2286SOL    HW3 8917   4.866   0.117   4.572 -0.7751 -0.2723  0.1807
 2286SOL    MW4 8918   4.881   0.038   4.608 -0.5756 -0.1973 -0.3133
 2287SOL     OW 8919   0.692   5.062   2.205 -0.4918  0.4587 -1.0209
 2287SOL    HW2 8920   0.641   5.142   2.221 -1.0867 -0.0635 -0.2511
 2287SOL    HW3 8921   0.632   5.004   2.159 -0.5557 -0.0952 -0.2636
 2287SOL    MW4 8922   0.677   5.065   2.201 -0.4734  0.3192  0.7057
 2288SOL     OW 8923   6.288   2.860   2.933 -0.2923  0.1081  0.4046
 2288SOL    HW2 8924   6.224   2.792   2.913 -0.1076  0.2087 -0.5990
 2288SOL    HW3 8925   6.269   2.887   3.023 -2.9287  1.4987 -0.4794
 2288SOL    MW4 8926   6.277   2.855   2.942 -0.4151  0.0523 -0.5642
 2289SOL     OW 8927   0.849   4.120   0.132 -0.3602 -0.0471  0.2554
 2289SOL    HW2 8928   0.806   4.194   0.176  1.0493  1.6639 -1.1303
 2289SOL    HW3 8929   0.920   4.095   0.191 -0.4166  0.1667  0.4165
 2289SOL    MW4 8930   0.852   4.127   0.146  0.0467 -0.1249 -0.2147
 2290SOL     OW 8931   2.839   5.172   0.718  0.3647 -0.3158  0.6257
 2290SOL    HW2 8932   2.781   5.107   0.676  0.9580 -2.1786  2.5433
 2290SOL    HW3 8933   2.785   5.212   0.786 -0.1113  1.5858 -0.7652
 2290SOL    MW4 8934   2.824   5.169   0.721 -0.1816  0.3875  0.0787
 2291SOL     OW 8935   1.318   4.358   1.922 -0.2046  0.1025 -0.2476
 2291SOL    HW2 8936   1.357   4.446   1.925 -0.6583  0.3124 -0.2785
 2291SOL    HW3 8937   1.268   4.357   1.840 -1.3068  0.3055  0.4100
 2291SOL    MW4 8938   1.316   4.370   1.911  0.0234 -0.0290 -0.4764
 2292SOL     OW 8939   6.171   5.416   1.844 -0.2281 -0.0598  0.3192
 2292SOL    HW2 8940   6.243   5.465   1.885 -0.1435  0.4020 -0.3713
 2292SOL    HW3 8941   6.096   5.476   1.849 -0.0157  0.3281 -0.9266
 2292SOL    MW4 8942   6.171   5.431   1.850 -0.1491  0.3622  0.1454
 2293SOL     OW 8943   0.550   6.129   4.586  0.0143  0.4733 -0.1855
 2293SOL    HW2 8944   0.596   6.207   4.618 -0.3686  0.3939  0.5918
 2293SOL    HW3 8945   0.495   6.161   4.514 -0.2205  0.9440  0.1949
 2293SOL    MW4 8946   0.549   6.144   4.581 -0.2292 -0.2858  0.6165
 2294SOL     OW 8947   2.130   3.442   3.853 -0.9740 -0.4855 -0.1807
 2294SOL    HW2 8948   2.102   3.518   3.802  1.0186  2.1811  2.3886
 2294SOL    HW3 8949   2.121   3.469   3.944  1.5156 -2.6854  0.8540
 2294SOL    MW4 8950   2.125   3.455   3.858 -0.5152  0.1255 -0.3098
 2295SOL     OW 8951   2.974   1.262   4.729 -0.5322 -0.6393 -0.6077
 2295SOL    HW2 8952   2.976   1.337   4.789 -0.4747  1.1624 -2.7215
 2295SOL    HW3 8953   3.042   1.203   4.760  0.5453  0.9764  0.1986
 2295SOL    MW4 8954   2.983   1.264   4.741  0.2800 -0.3440 -0.1450
 2296SOL     OW 8955   1.119   1.109   4.047  0.1015 -0.2044  0.0625
 2296SOL    HW2 8956   1.215   1.108   4.045  0.1260 -1.8289  0.7970
 2296SOL    HW3 8957   1.097   1.127   4.138 -0.2122 -2.7182  0.5668
 2296SOL    MW4 8958   1.129   1.111   4.059 -0.0531  0.2209  0.2074
 2297SOL     OW 8959   4.091   5.033   2.553  0.0823 -0.4563 -0.2180
 2297SOL    HW2 8960   4.162   5.093   2.531  1.0098 -0.1140  3.1177
 2297SOL    HW3 8961   4.093   4.967   2.484  1.0066  1.6508 -2.3437
 2297SOL    MW4 8962   4.101   5.032   2.541 -0.2997  0.1870  0.0463
 2298SOL     OW 8963   0.129   0.970   1.452  0.5493  0.1095  0.1536
 2298SOL    HW2 8964   0.175   1.027   1.390 -2.0705  1.1736 -0.9472
 2298SOL    HW3 8965   0.075   0.914   1.396 -0.7666  0.0901  1.4130
 2298SOL    MW4 8966   0.128   0.970   1.436 -0.0378 -0.1431  0.1871
 2299SOL     OW 8967   5.140   3.882   0.619  0.2128 -0.7062  0.0748
 2299SOL    HW2 8968   5.161   3.921   0.534 -0.3909 -1.4371 -0.4240
 2299SOL    HW3 8969   5.058   3.925   0.645  0.9206  0.2497  0.7780
 2299SOL    MW4 8970   5.132   3.893   0.611  0.1065  0.7351  0.5424
 2300SOL     OW 8971   4.171   2.630   4.155 -0.2368  0.5643  0.5288
 2300SOL    HW2 8972   4.218   2.590   4.228  1.8660  1.4771 -0.2522
 2300SOL    HW3 8973   4.143   2.557   4.101 -1.5994 -0.1107  2.0494
 2300SOL    MW4 8974   4.174   2.615   4.157 -0.1664 -0.1720 -0.0611
 2301SOL     OW 8975   4.051   5.632   5.586 -0.4180 -0.0601 -0.3748
 2301SOL    HW2 8976   4.127   5.574   5.589 -2.1392 -2.4418 -0.2045
 2301SOL    HW3 8977   4.087   5.720   5.600  2.0412 -1.3055  2.1071
 2301SOL    MW4 8978   4.066   5.636   5.588  0.4798  0.4474 -0.0252
 2302SOL     OW 8979   1.499   5.781   4.831  0.2504 -0.5311 -0.3382
 2302SOL    HW2 8980   1.414   5.791   4.873 -0.5249  0.3401 -1.9822
 2302SOL    HW3 8981   1.536   5.869   4.831  0.1565 -0.4711 -1.5585
 2302SOL    MW4 8982   1.493   5.794   4.836 -0.2598  0.3517 -0.0103
 2303SOL     OW 8983   1.347   4.151   0.755  0.4934  0.5185  0.2844
 2303SOL    HW2 8984   1.425   4.115   0.713 -0.6353  1.0122 -2.4283
 2303SOL    HW3 8985   1.295   4.074   0.777  1.5192  0.2063  1.7709
 2303SOL    MW4 8986   1.351   4.136   0.753 -0.1662 -0.1519 -0.0610
 2304SOL     OW 8987   4.107   2.287   5.852  0.1931 -0.2314 -0.4223
 2304SOL    HW2 8988   4.167   2.214   5.869  0.8028  0.2586 -0.4305
 2304SOL    HW3 8989   4.096   2.330   5.937  0.9011  0.4548 -0.6597
 2304SOL    MW4 8990   4.114   2.283   5.865 -0.2319 -0.3804 -0.1328
 2305SOL     OW 8991   5.666   3.042   4.297  0.4734 -0.2219 -0.1149
 2305SOL    HW2 8992   5.675   3.137   4.308 -0.5912 -0.1277  0.0936
 2305SOL    HW3 8993   5.738   3.017   4.239  0.3119  0.8403 -0.7939
 2305SOL    MW4 8994   5.677   3.051   4.290  0.1693  0.3531 -0.4378
 2306SOL     OW 8995   3.230   2.497   2.820 -0.0361 -0.2163  0.6100
 2306SOL    HW2 8996   3.142   2.533   2.831 -2.3872 -4.6291 -1.0187
 2306SOL    HW3 8997   3.250   2.512   2.727 -0.2075 -1.2308  0.3905
 2306SOL    MW4 8998   3.221   2.504   2.809  0.4041 -0.0539  0.8229
 2307SOL     OW 8999   1.068   2.713   0.250  0.3160 -0.1390  0.3437
 2307SOL    HW2 9000   1.032   2.720   0.162 -1.2153 -1.4631  0.8047
 2307SOL    HW3 9001   1.138   2.648   0.242  0.6984  0.3227 -0.0425
 2307SOL    MW4 9002   1.072   2.705   0.238 -0.0392  0.4547  0.1060
 2308SOL     OW 9003   1.280   2.701   3.145 -0.0185  0.5932  0.4578
 2308SOL    HW2 9004   1.311   2.700   3.236 -2.1894  0.4239  1.2672
 2308SOL    HW3 9005   1.308   2.786   3.111  0.4454  0.8388  1.4266
 2308SOL    MW4 9006   1.288   2.712   3.153  0.2024 -0.0887 -0.7914
 2309SOL     OW 9007   0.576   3.415   0.019 -0.0015 -0.0293 -0.1260
 2309SOL    HW2 9008   0.663   3.413   0.059 -0.8928 -1.5795  1.9126
 2309SOL    HW3 9009   0.582   3.353  -0.054  0.8928  0.7549 -0.7411
 2309SOL    MW4 9010   0.588   3.406   0.015  0.2353  0.0100  0.1795
 2310SOL     OW 9011   0.521   2.235   1.003 -0.2563 -0.1141  0.5300
 2310SOL    HW2 9012   0.564   2.221   0.919  0.8927  1.5740  0.7806
 2310SOL    HW3 9013   0.429   2.250   0.981 -0.2627 -1.1970 -0.2600
 2310SOL    MW4 9014   0.514   2.235   0.989  0.3275  0.0532 -0.1037
 2311SOL     OW 9015   1.343   3.982   2.304  0.4382  0.1366  0.3536
 2311SOL    HW2 9016   1.253   3.995   2.333 -0.0964 -0.7454 -0.8236
 2311SOL    HW3 9017   1.393   4.050   2.349 -0.7285  0.3347  1.3981
 2311SOL    MW4 9018   1.338   3.992   2.314 -0.5897  0.9173  0.1130
 2312SOL     OW 9019   3.644   2.945   4.252 -0.2847 -0.2519 -0.6702
 2312SOL    HW2 9020   3.707   2.878   4.278  0.4105 -0.0964 -1.8441
 2312SOL    HW3 9021   3.564   2.897   4.232 -0.3122 -0.5370  0.0910
 2312SOL    MW4 9022   3.642   2.930   4.253  0.6572  0.1552 -0.3776
 2313SOL     OW 9023   6.427   3.985   2.005  0.1976 -0.4896 -0.0204
 2313SOL    HW2 9024   6.497   3.921   1.990  0.7924  0.2058 -0.2775
 2313SOL    HW3 9025   6.363   3.939   2.060  1.7723 -0.5098  1.8825
 2313SOL    MW4 9026   6.427   3.971   2.010  0.2198 -0.2366 -0.0304
 2314SOL     OW 9027   4.778   0.951   5.618  0.0673  0.1095  0.3533
 2314SOL    HW2 9028   4.778   1.041   5.651 -0.5703 -0.1863  1.1943
 2314SOL    HW3 9029   4.696   0.914   5.650 -0.2820 -0.3946 -1.0526
 2314SOL    MW4 9030   4.767   0.958   5.626  0.0272 -0.8754  0.1334
 2315SOL     OW 9031   4.088   5.439   0.317 -0.2160  0.0116 -0.0049
 2315SOL    HW2 9032   4.136   5.520   0.329  0.0381  0.2597 -2.2464
 2315SOL    HW3 9033   4.055   5.417   0.404  0.8286  1.7902  0.8885
 2315SOL    MW4 9034   4.090   5.446   0.330  0.1576  0.3763  0.0772
 2316SOL     OW 9035   0.439   5.692   3.097 -0.2359  0.1649 -0.1846
 2316SOL    HW2 9036   0.404   5.685   3.008 -2.0075 -0.0458  0.4965
 2316SOL    HW3 9037   0.397   5.771   3.133 -0.2430 -0.2595  0.7615
 2316SOL    MW4 9038   0.429   5.702   3.090 -0.4402  0.0357 -0.4656
 2317SOL     OW 9039   0.408   2.996   3.572 -0.0251 -0.5091 -0.5779
 2317SOL    HW2 9040   0.443   2.970   3.487  1.0876 -0.2045 -0.2317
 2317SOL    HW3 9041   0.471   2.962   3.636 -0.0701  0.5082  0.0343
 2317SOL    MW4 9042   0.421   2.988   3.569 -0.4755 -0.0569 -0.0911
 2318SOL     OW 9043   1.888   1.314   4.170  0.0404 -0.1484 -0.3751
 2318SOL    HW2 9044   1.921   1.279   4.087 -0.8241 -0.4715 -0.5929
 2318SOL    HW3 9045   1.903   1.244   4.233 -0.4311 -0.3879 -0.5234
 2318SOL    MW4 9046   1.894   1.300   4.167  0.2014  0.4291 -0.5441
 2319SOL     OW 9047   3.163   5.771   2.352 -0.9587 -0.0941 -0.0551
 2319SOL    HW2 9048   3.159   5.827   2.429 -0.2139  0.9822 -0.7700
 2319SOL    HW3 9049   3.072   5.741   2.340 -1.1600  0.0724  0.9698
 2319SOL    MW4 9050   3.150   5.774   2.360 -0.5283 -0.3014 -0.2473
 2320SOL     OW 9051   6.118   4.781   5.563  0.0860 -0.3221  0.0566
 2320SOL    HW2 9052   6.025   4.768   5.549  0.4403 -1.3218 -1.5595
 2320SOL    HW3 9053   6.136   4.868   5.527 -0.0794 -0.4691 -0.3843
 2320SOL    MW4 9054   6.108   4.791   5.556 -0.0867 -0.3755 -0.0441
 2321SOL     OW 9055   6.425   6.139   0.206 -0.2225 -1.0742  0.8208
 2321SOL    HW2 9056   6.486   6.066   0.214  0.1682 -0.8860 -0.2397
 2321SOL    HW3 9057   6.396   6.136   0.115  0.6000  0.6914  0.4564
 2321SOL    MW4 9058   6.429   6.129   0.195  0.7428  0.4471  0.1918
 2322SOL     OW 9059   5.551   1.279   6.312 -0.0307  0.2416 -0.3484
 2322SOL    HW2 9060   5.489   1.272   6.384  1.8602 -0.0048  1.3431
 2322SOL    HW3 9061   5.545   1.370   6.283 -1.0327  0.2600 -0.1031
 2322SOL    MW4 9062   5.542   1.290   6.317  0.1674  0.5434 -0.8257
 2323SOL     OW 9063   4.719   1.471   3.516  0.2357  0.0579 -0.2908
 2323SOL    HW2 9064   4.727   1.479   3.611 -1.0923 -1.2428 -0.0237
 2323SOL    HW3 9065   4.669   1.390   3.503  0.1308  0.3659 -2.0860
 2323SOL    MW4 9066   4.713   1.461   3.527  0.1561 -0.5377 -0.0362
 2324SOL     OW 9067   4.589   1.864   5.929 -0.1765 -0.2737 -0.2679
 2324SOL    HW2 9068   4.554   1.792   5.982 -0.9215 -0.7441 -1.3587
 2324SOL    HW3 9069   4.610   1.933   5.992 -0.0283 -1.2127  0.7357
 2324SOL    MW4 9070   4.587   1.864   5.944  0.3407 -0.2448  0.1890
 2325SOL     OW 9071   0.888   4.119   0.484 -0.2205  0.2530 -0.2511
 2325SOL    HW2 9072   0.900   4.104   0.578 -2.8371  0.6271  0.2340
 2325SOL    HW3 9073   0.866   4.211   0.477 -1.7753 -0.1401 -0.9743
 2325SOL    MW4 9074   0.887   4.129   0.496 -0.4731  0.1632  0.0650
 2326SOL     OW 9075   1.487   5.036   5.230  0.3021 -0.8615  0.3104
 2326SOL    HW2 9076   1.579   5.026   5.253  0.4047 -0.9639 -0.1391
 2326SOL    HW3 9077   1.444   5.057   5.313  0.9346  0.6162  0.2906
 2326SOL    MW4 9078   1.493   5.038   5.244 -0.7208  0.0450 -0.0903
 2327SOL     OW 9079   5.409   0.875   0.126  0.2641  0.0443 -0.2388
 2327SOL    HW2 9080   5.456   0.792   0.134  1.3596  0.7636  1.1649
 2327SOL    HW3 9081   5.454   0.921   0.055 -0.9443 -0.8918 -1.6822
 2327SOL    MW4 9082   5.421   0.870   0.118 -0.1638  0.3080  0.0612
 2328SOL     OW 9083   4.182   4.363   5.639  0.0199 -0.3235  0.3642
 2328SOL    HW2 9084   4.143   4.382   5.725 -4.8987 -0.3607 -1.4878
 2328SOL    HW3 9085   4.134   4.286   5.608  1.1739  0.0284 -2.6404
 2328SOL    MW4 9086   4.170   4.356   5.646 -0.4137  0.2786  0.0972
 2329SOL     OW 9087   2.273   3.444   0.163  0.7159 -0.1853  0.4031
 2329SOL    HW2 9088   2.186   3.450   0.203  0.0598  1.1988 -1.1408
 2329SOL    HW3 9089   2.334   3.462   0.235 -0.4592  3.1055  0.7482
 2329SOL    MW4 9090   2.270   3.447   0.178 -0.4602  0.1497  0.0529
 2330SOL     OW 9091   2.950   0.541   4.172  0.1611 -0.2558  0.2470
 2330SOL    HW2 9092   2.941   0.616   4.230 -1.7146  1.1960 -1.7682
 2330SOL    HW3 9093   2.876   0.484   4.193  1.1959 -1.2897  1.2959
 2330SOL    MW4 9094   2.939   0.543   4.182 -0.5053  0.0374  0.1649
 2331SOL     OW 9095   3.728   4.830   3.987  0.3223  0.2736 -0.6814
 2331SOL    HW2 9096   3.647   4.827   4.037  1.8389 -3.2761  2.0457
 2331SOL    HW3 9097   3.771   4.911   4.016 -1.3097  1.1529 -0.6181
 2331SOL    MW4 9098   3.723   4.840   3.998  0.0490 -0.0550  0.3732
 2332SOL     OW 9099   5.345   4.391   6.279 -0.3319 -0.4225 -0.1037
 2332SOL    HW2 9100   5.373   4.329   6.212  0.2156 -0.1729 -0.1118
 2332SOL    HW3 9101   5.249   4.391   6.274 -0.2827  0.0815 -1.3291
 2332SOL    MW4 9102   5.336   4.383   6.270 -0.0443 -0.1710 -0.0520
 2333SOL     OW 9103   1.110   0.643   1.697 -0.1089  0.5590  0.4033
 2333SOL    HW2 9104   1.047   0.584   1.657  1.5431 -1.0122 -0.0512
 2333SOL    HW3 9105   1.127   0.710   1.630  0.5500 -0.4621 -0.4898
 2333SOL    MW4 9106   1.104   0.644   1.683 -0.0021 -0.2839  0.3182
 2334SOL     OW 9107   0.758   3.013   0.179  0.9770 -0.1746  0.0518
 2334SOL    HW2 9108   0.841   3.042   0.140  1.1503 -1.2652 -0.4286
 2334SOL    HW3 9109   0.741   2.929   0.137 -1.8139  1.2508 -2.0094
 2334SOL    MW4 9110   0.767   3.006   0.168 -0.0081  0.5794  0.0975
 2335SOL     OW 9111   0.676   2.751   1.556  0.1529  0.4089  0.2674
 2335SOL    HW2 9112   0.650   2.842   1.550  1.2340  0.6462 -1.3453
 2335SOL    HW3 9113   0.646   2.711   1.475  1.9949 -0.0125 -0.2542
 2335SOL    MW4 9114   0.669   2.758   1.545 -0.2740  0.1010  0.3056
 2336SOL     OW 9115   1.505   3.912   1.788  0.3733  0.3675  0.6267
 2336SOL    HW2 9116   1.579   3.852   1.776  0.7521  0.8244  0.6361
 2336SOL    HW3 9117   1.473   3.894   1.876  0.9685  0.7010  0.9179
 2336SOL    MW4 9118   1.511   3.902   1.798 -0.5401 -0.2584 -0.1331
 2337SOL     OW 9119   1.562   6.284   2.380 -0.1615 -1.1536  0.0711
 2337SOL    HW2 9120   1.633   6.229   2.412  0.0156 -1.0838 -0.1895
 2337SOL    HW3 9121   1.550   6.256   2.289 -0.3916 -1.0879  0.0815
 2337SOL    MW4 9122   1.570   6.273   2.372 -0.1915  0.0806  0.2331
 2338SOL     OW 9123   5.800   3.319   1.339  0.0499 -0.1620 -0.4515
 2338SOL    HW2 9124   5.742   3.263   1.390 -0.2761  0.9276  0.4139
 2338SOL    HW3 9125   5.760   3.406   1.345  0.0799  0.0416 -2.4373
 2338SOL    MW4 9126   5.787   3.323   1.346 -0.3394 -0.6631 -0.1179
 2339SOL     OW 9127   2.123   3.496   2.154  0.0055  0.2718  0.3059
 2339SOL    HW2 9128   2.068   3.558   2.203 -0.5460  0.0275  0.0027
 2339SOL    HW3 9129   2.090   3.410   2.180  0.5712  0.1051  0.4930
 2339SOL    MW4 9130   2.111   3.493   2.164  0.5521  0.1946  0.5031
 2340SOL     OW 9131   6.273   1.129   2.002 -0.3720  0.1416 -0.0189
 2340SOL    HW2 9132   6.208   1.185   1.960 -0.6791  0.1281  0.4358
 2340SOL    HW3 9133   6.229   1.045   2.014 -0.1224 -0.0056 -0.1111
 2340SOL    MW4 9134   6.259   1.125   1.998  0.0086 -0.0704 -0.4251
 2341SOL     OW 9135   3.066   5.485   5.263 -0.4537 -0.2808 -0.3036
 2341SOL    HW2 9136   3.037   5.561   5.212  1.1418 -0.6451 -1.8654
 2341SOL    HW3 9137   3.015   5.489   5.344 -0.3144  2.5455 -0.2535
 2341SOL    MW4 9138   3.055   5.496   5.267 -0.6296 -0.0122  0.3055
 2342SOL     OW 9139   2.358   0.933   1.781 -0.1352 -0.1592  0.3487
 2342SOL    HW2 9140   2.325   1.005   1.835  2.5159  2.6291 -1.4042
 2342SOL    HW3 9141   2.423   0.889   1.836 -1.1464 -0.6992  1.1362
 2342SOL    MW4 9142   2.362   0.937   1.795  0.3454 -0.7621 -0.1374
 2343SOL     OW 9143   3.720   5.091   1.991  0.6305  0.3393 -0.0110
 2343SOL    HW2 9144   3.709   5.171   1.940 -0.3772  0.9428  1.0819
 2343SOL    HW3 9145   3.734   5.122   2.081  0.3840 -0.7025  0.3988
 2343SOL    MW4 9146   3.720   5.106   1.996  0.1213 -0.0742  0.0614
 2344SOL     OW 9147   3.506   3.231   4.464  0.1519 -0.3560 -0.3012
 2344SOL    HW2 9148   3.514   3.235   4.369 -0.3691  0.9642 -0.3029
 2344SOL    HW3 9149   3.475   3.142   4.481 -1.1335 -0.1749 -1.4855
 2344SOL    MW4 9150   3.503   3.220   4.454 -0.4281 -0.5044  0.2531
 2345SOL     OW 9151   3.367   4.696   4.634 -0.1983 -0.6395  0.2758
 2345SOL    HW2 9152   3.417   4.630   4.682 -0.3668 -0.7610  0.2838
 2345SOL    HW3 9153   3.278   4.661   4.630 -0.3669 -0.2599  0.5735
 2345SOL    MW4 9154   3.362   4.683   4.640  0.2989  0.1020 -0.2230
 2346SOL     OW 9155   0.414   3.843   2.084 -0.0536  0.1338 -0.4983
 2346SOL    HW2 9156   0.410   3.936   2.107  2.4495 -0.1101  1.3171
 2346SOL    HW3 9157   0.337   3.828   2.029 -1.0597  3.0417 -0.0207
 2346SOL    MW4 9158   0.403   3.853   2.080 -0.3445 -0.3840 -0.1434
 2347SOL     OW 9159   5.386   5.389   5.515 -0.2752  0.6538 -0.0720
 2347SOL    HW2 9160   5.370   5.465   5.570  1.1509 -0.5090  2.1130
 2347SOL    HW3 9161   5.310   5.332   5.530  0.7011 -0.2266  1.8300
 2347SOL    MW4 9162   5.374   5.391   5.524  0.3098  0.1504  0.4232
 2348SOL     OW 9163   5.323   0.524   3.289 -0.2018 -0.2655  0.4969
 2348SOL    HW2 9164   5.391   0.476   3.241 -0.1574  2.1437 -2.1001
 2348SOL    HW3 9165   5.253   0.459   3.301  1.2425 -1.9256  0.3819
 2348SOL    MW4 9166   5.322   0.509   3.284 -0.5499 -0.6226  0.2648
 2349SOL     OW 9167   4.261   6.370   5.686 -0.1868 -0.5172  0.2380
 2349SOL    HW2 9168   4.252   6.290   5.738  0.1769 -1.4598 -1.0657
 2349SOL    HW3 9169   4.338   6.354   5.631  0.0613  0.8596  0.1496
 2349SOL    MW4 9170   4.270   6.357   5.685  0.1176  0.5567 -0.0526
 2350SOL     OW 9171   0.847   2.287   4.661 -0.6132 -0.4749  0.0721
 2350SOL    HW2 9172   0.898   2.357   4.702 -0.6598 -0.1741 -0.3703
 2350SOL    HW3 9173   0.912   2.232   4.618 -0.6356 -0.2400 -0.2687
 2350SOL    MW4 9174   0.862   2.289   4.661  0.8825  0.3913  0.4338
 2351SOL     OW 9175   1.881   6.080   2.745 -0.2699 -0.1702  0.2560
 2351SOL    HW2 9176   1.900   6.141   2.816  0.0781 -0.0925  0.0976
 2351SOL    HW3 9177   1.788   6.061   2.754 -0.2380 -0.1259  0.7068
 2351SOL    MW4 9178   1.871   6.085   2.756  0.3702  0.0719 -0.9214
 2352SOL     OW 9179   6.040   5.851   0.683  0.2727 -0.2900  0.0157
 2352SOL    HW2 9180   6.120   5.800   0.674  0.0891 -0.4546 -0.7984
 2352SOL    HW3 9181   6.012   5.867   0.593  0.1097  0.9112  0.2727
 2352SOL    MW4 9182   6.047   5.846   0.670  0.0179 -0.1637  0.2489
 2353SOL     OW 9183   5.369   6.345   4.878 -0.0054 -0.4197  0.4866
 2353SOL    HW2 9184   5.359   6.346   4.974 -1.0093  1.1440  0.3976
 2353SOL    HW3 9185   5.285   6.313   4.845  0.3741 -1.0546  0.1033
 2353SOL    MW4 9186   5.357   6.341   4.887  0.3004  0.1358 -0.3498
 2354SOL     OW 9187   0.746   4.059   3.781 -0.3610 -0.1931 -0.3083
 2354SOL    HW2 9188   0.813   4.060   3.712 -0.4395  0.3957 -0.3804
 2354SOL    HW3 9189   0.675   4.113   3.747  0.4934  1.9154  1.0945
 2354SOL    MW4 9190   0.746   4.066   3.767 -0.1907 -0.0091  0.9144
 2355SOL     OW 9191   3.631   3.255   0.513  0.3840  0.1974 -0.0323
 2355SOL    HW2 9192   3.693   3.322   0.481  0.0163  1.0823  1.0469
 2355SOL    HW3 9193   3.593   3.294   0.591  1.6596 -2.1031  1.8494
 2355SOL    MW4 9194   3.634   3.269   0.519 -0.1071 -0.1946  0.3167
 2356SOL     OW 9195   5.438   3.436   2.660  0.1774  0.1818  0.4176
 2356SOL    HW2 9196   5.405   3.505   2.602  0.1388 -0.1130  0.0863
 2356SOL    HW3 9197   5.366   3.373   2.665  0.2219  0.1541  0.7011
 2356SOL    MW4 9198   5.424   3.437   2.653 -0.0259  0.1264  1.0433
 2357SOL     OW 9199   1.237   2.107   4.277  0.1867 -0.0228  0.1602
 2357SOL    HW2 9200   1.147   2.131   4.256  0.8211 -0.1723 -3.3422
 2357SOL    HW3 9201   1.241   2.013   4.261  0.8081 -0.1490  0.9851
 2357SOL    MW4 9202   1.226   2.098   4.272 -0.4858 -0.5013  0.0942
 2358SOL     OW 9203   1.241   3.404  -0.005  1.0957  0.0416  0.0216
 2358SOL    HW2 9204   1.310   3.351  -0.045  0.4225  0.5928 -2.0154
 2358SOL    HW3 9205   1.240   3.484  -0.057 -0.5971  0.3410  0.4549
 2358SOL    MW4 9206   1.250   3.408  -0.017 -0.0762  0.0600 -0.1038
 2359SOL     OW 9207   1.438   2.042   1.873 -0.4615 -0.3980 -0.3804
 2359SOL    HW2 9208   1.417   2.055   1.780  0.4363 -2.0362 -0.8533
 2359SOL    HW3 9209   1.413   2.124   1.915 -0.8094  0.4138 -2.0868
 2359SOL    MW4 9210   1.432   2.055   1.866 -0.0487 -0.3272  0.3798
 2360SOL     OW 9211   0.838   6.310   2.787  0.4895 -0.3950  0.3449
 2360SOL    HW2 9212   0.854   6.225   2.828 -0.9460 -1.1116 -0.5412
 2360SOL    HW3 9213   0.746   6.308   2.762  0.5142  1.3065  0.0256
 2360SOL    MW4 9214   0.828   6.299   2.790  0.4326 -0.2255 -0.4671
 2361SOL     OW 9215   2.578   5.523   3.079  0.3195 -0.6009 -0.4263
 2361SOL    HW2 9216   2.602   5.530   2.986  1.5427 -0.8627 -0.1515
 2361SOL    HW3 9217   2.487   5.551   3.082  0.9198  1.6640 -1.3658
 2361SOL    MW4 9218   2.569   5.528   3.067 -0.2721 -0.1980 -0.8065
 2362SOL     OW 9219   3.389   6.220   2.591 -0.0226  0.5461  0.5453
 2362SOL    HW2 9220   3.377   6.237   2.498  1.0582  0.0735  0.3023
 2362SOL    HW3 9221   3.368   6.128   2.602  0.0915  0.5414  0.7269
 2362SOL    MW4 9222   3.385   6.210   2.580  0.1621  0.2042 -0.2784
 2363SOL     OW 9223   5.181   1.275   3.016 -0.3954  0.1061  0.2388
 2363SOL    HW2 9224   5.192   1.364   3.051 -0.6181 -0.6193  2.3029
 2363SOL    HW3 9225   5.109   1.283   2.953 -0.1252  1.4603  0.0657
 2363SOL    MW4 9226   5.173   1.288   3.013  0.4237 -0.0181  0.5905
 2364SOL     OW 9227   1.342   5.495   3.181 -0.6659 -0.1866  0.1726
 2364SOL    HW2 9228   1.319   5.462   3.094  0.7460 -0.7687 -0.0167
 2364SOL    HW3 9229   1.259   5.500   3.228 -1.3904 -0.3373 -1.0454
 2364SOL    MW4 9230   1.328   5.492   3.176 -0.0655 -0.7107 -0.2306
 2365SOL     OW 9231   1.900   0.136   1.426 -0.3266 -0.2563  0.2057
 2365SOL    HW2 9232   1.942   0.084   1.495  1.7700  0.9279 -0.1089
 2365SOL    HW3 9233   1.868   0.214   1.471  1.1124  0.5549 -0.0957
 2365SOL    MW4 9234   1.901   0.139   1.441 -0.0090  0.2688 -0.4229
 2366SOL     OW 9235   3.817   1.262   1.647 -0.2030 -0.8477  0.3231
 2366SOL    HW2 9236   3.897   1.307   1.674 -1.4524  2.5728 -1.1522
 2366SOL    HW3 9237   3.811   1.278   1.553 -1.7156 -2.6186  0.0656
 2366SOL    MW4 9238   3.827   1.270   1.638  0.5421  0.2816 -0.1101
 2367SOL     OW 9239   0.301   0.520   0.466  0.4517  0.0523 -0.3652
 2367SOL    HW2 9240   0.261   0.592   0.417 -0.0196  0.4731  0.6165
 2367SOL    HW3 9241   0.255   0.519   0.549  0.2046 -1.6274 -0.4905
 2367SOL    MW4 9242   0.290   0.529   0.470 -0.7758 -0.5027  0.1100
 2368SOL     OW 9243   5.070   5.976   4.630 -0.2056 -0.6013  0.4798
 2368SOL    HW2 9244   5.017   5.958   4.707 -1.8649  2.9184  0.3410
 2368SOL    HW3 9245   5.159   5.950   4.655 -1.1823 -2.2650  2.4486
 2368SOL    MW4 9246   5.075   5.970   4.643 -0.0924 -0.3881 -0.1937
 2369SOL     OW 9247   0.959   2.445   1.503  0.0997 -0.1806  0.2713
 2369SOL    HW2 9248   0.893   2.424   1.569 -0.2494  0.0846  0.0150
 2369SOL    HW3 9249   1.043   2.426   1.545 -0.1734 -1.8688  0.1146
 2369SOL    MW4 9250   0.962   2.440   1.517  0.1762 -0.2583 -0.2391
 2370SOL     OW 9251   3.795   3.267   2.157 -0.0635  0.0377  0.3739
 2370SOL    HW2 9252   3.754   3.182   2.140 -1.1688  0.5167  0.6260
 2370SOL    HW3 9253   3.889   3.250   2.144 -0.3355 -1.0254 -0.3687
 2370SOL    MW4 9254   3.802   3.253   2.153 -0.6621  0.2258 -0.1222
 2371SOL     OW 9255   2.185   4.300   2.208  0.3400 -0.0870  0.2686
 2371SOL    HW2 9256   2.193   4.342   2.122  2.4854  0.7238  0.7860
 2371SOL    HW3 9257   2.209   4.209   2.193  3.3520  0.5895  0.3463
 2371SOL    MW4 9258   2.189   4.294   2.195  0.0734 -0.0376  0.3575
 2372SOL     OW 9259   3.619   2.453   1.030  0.1459  0.0253  0.2586
 2372SOL    HW2 9260   3.668   2.372   1.043  0.9324  0.7576  2.2266
 2372SOL    HW3 9261   3.686   2.518   1.007 -0.5589  0.0085 -2.0167
 2372SOL    MW4 9262   3.634   2.451   1.029  0.0705  0.5444  0.3942
 2373SOL     OW 9263   0.862   6.303   3.524 -0.0260  0.2394 -0.7070
 2373SOL    HW2 9264   0.870   6.397   3.512  0.3511  0.0825 -1.8617
 2373SOL    HW3 9265   0.942   6.277   3.570  0.9564  0.2018 -2.3577
 2373SOL    MW4 9266   0.873   6.312   3.528  0.3745  0.2656 -0.1529
 2374SOL     OW 9267   1.439   4.357   3.663  0.4212 -0.7946 -0.0494
 2374SOL    HW2 9268   1.507   4.291   3.671  0.1306 -1.4925 -2.5376
 2374SOL    HW3 9269   1.366   4.313   3.620 -0.2342  0.8436 -0.7246
 2374SOL    MW4 9270   1.438   4.343   3.658  0.3157  0.2912  0.1332
 2375SOL     OW 9271   5.370   0.865   1.416 -0.5899  0.1588 -0.2988
 2375SOL    HW2 9272   5.335   0.943   1.374  2.2981  0.6089 -2.1222
 2375SOL    HW3 9273   5.370   0.798   1.347 -0.2883 -0.5702  0.3862
 2375SOL    MW4 9274   5.365   0.866   1.401  0.2785  0.1726 -0.5718
 2376SOL     OW 9275   1.904   0.549   1.261  0.7114 -0.3954 -0.5314
 2376SOL    HW2 9276   1.868   0.598   1.335  2.3723  0.2724 -0.1083
 2376SOL    HW3 9277   1.922   0.616   1.194  2.1613 -0.5182 -0.2960
 2376SOL    MW4 9278   1.902   0.564   1.262  0.5807 -0.1617 -0.0217
 2377SOL     OW 9279   5.550   0.597   2.028 -0.0218  0.0026  0.0263
 2377SOL    HW2 9280   5.493   0.520   2.016  0.2680 -0.1809 -0.1800
 2377SOL    HW3 9281   5.634   0.561   2.056 -0.6500  0.3897  2.7620
 2377SOL    MW4 9282   5.553   0.582   2.030 -0.0161  0.2558 -0.1236
 2378SOL     OW 9283   1.441   6.075   1.338  0.4507 -0.1916 -0.2297
 2378SOL    HW2 9284   1.463   6.160   1.299 -3.0785  0.3257 -1.4708
 2378SOL    HW3 9285   1.467   6.011   1.271  0.6437  0.1443 -0.4794
 2378SOL    MW4 9286   1.447   6.078   1.324 -0.1107  0.0952 -0.3970
 2379SOL     OW 9287   6.215   1.491   4.438 -0.5407 -0.0911 -0.0042
 2379SOL    HW2 9288   6.233   1.465   4.528 -1.3593  0.7399  0.4160
 2379SOL    HW3 9289   6.134   1.542   4.443 -0.0339  0.8688 -1.0541
 2379SOL    MW4 9290   6.207   1.494   4.450 -0.4808 -0.7012  0.3155
 2380SOL     OW 9291   0.509   1.998   1.146  0.0277 -0.6068 -0.3165
 2380SOL    HW2 9292   0.584   1.991   1.205  0.2404  0.8351 -0.3830
 2380SOL    HW3 9293   0.515   2.087   1.110 -0.4369 -1.2325 -2.0409
 2380SOL    MW4 9294   0.520   2.009   1.149 -0.2631  0.2330 -0.0732
 2381SOL     OW 9295   3.648   2.536   1.687  0.7237  0.2127 -0.0278
 2381SOL    HW2 9296   3.613   2.596   1.622  2.8315  2.3431  0.6731
 2381SOL    HW3 9297   3.574   2.480   1.710 -1.1072  1.9307 -1.4098
 2381SOL    MW4 9298   3.634   2.536   1.682 -0.1659  0.0733  0.0912
 2382SOL     OW 9299   0.775   0.323   1.159 -0.2632 -0.3724  0.1123
 2382SOL    HW2 9300   0.741   0.411   1.143 -1.7629 -0.8709  0.3952
 2382SOL    HW3 9301   0.707   0.280   1.211 -1.5020 -2.9813 -3.2860
 2382SOL    MW4 9302   0.762   0.329   1.164  0.3073 -0.5986 -0.0668
 2383SOL     OW 9303   5.397   3.458   1.319  0.2754  0.2279 -0.0937
 2383SOL    HW2 9304   5.437   3.498   1.241  0.6686 -0.4464 -0.2434
 2383SOL    HW3 9305   5.307   3.492   1.320  0.6967  1.3989 -0.0128
 2383SOL    MW4 9306   5.390   3.468   1.309  0.3623  0.4354 -0.4345
 2384SOL     OW 9307   4.581   0.878   4.945 -0.0651  0.1487 -0.3195
 2384SOL    HW2 9308   4.560   0.898   4.853  0.9512  0.6828 -0.4420
 2384SOL    HW3 9309   4.498   0.890   4.991  0.3548  4.8534 -0.3145
 2384SOL    MW4 9310   4.567   0.882   4.939  0.6934 -0.1451 -0.4029
 2385SOL     OW 9311   2.319   2.199   4.377 -0.1147 -0.0363  0.0611
 2385SOL    HW2 9312   2.239   2.148   4.387  0.5654 -1.3563 -0.9276
 2385SOL    HW3 9313   2.305   2.277   4.431 -1.1343 -1.3348  1.7608
 2385SOL    MW4 9314   2.307   2.203   4.386  0.1514 -0.0988  0.5471
 2386SOL     OW 9315   5.129   1.421   3.631 -0.0454  0.1399 -0.5780
 2386SOL    HW2 9316   5.057   1.388   3.577  1.5779  0.2625 -2.9685
 2386SOL    HW3 9317   5.177   1.343   3.657  0.0588  0.1931 -0.6123
 2386SOL    MW4 9318   5.126   1.406   3.627 -0.6702  0.3781  0.2965
 2387SOL     OW 9319   6.405   1.035   5.256  0.3761 -0.4294 -0.6868
 2387SOL    HW2 9320   6.415   1.063   5.165  2.0796  0.8606 -0.1683
 2387SOL    HW3 9321   6.483   0.982   5.274  1.8269  2.0048  0.8647
 2387SOL    MW4 9322   6.417   1.032   5.247  0.3021  0.0389 -0.5068
 2388SOL     OW 9323   2.186   0.878   0.795  0.2295 -0.0460 -0.2759
 2388SOL    HW2 9324   2.223   0.827   0.723  1.2100  0.6986 -0.3337
 2388SOL    HW3 9325   2.220   0.967   0.781 -1.9798  0.8224 -0.5736
 2388SOL    MW4 9326   2.196   0.883   0.784  0.3729  0.1255 -0.0546
 2389SOL     OW 9327   4.217   4.399   2.022 -0.0895  0.0553  0.3467
 2389SOL    HW2 9328   4.257   4.407   2.109 -1.8876 -1.9309  1.4362
 2389SOL    HW3 9329   4.240   4.311   1.993 -2.7997 -0.8270  0.6355
 2389SOL    MW4 9330   4.226   4.389   2.029 -0.2238  0.0378  0.1688
 2390SOL     OW 9331   0.109   1.118   0.531  0.0571 -0.4010 -0.4540
 2390SOL    HW2 9332   0.163   1.042   0.552  2.3723  1.3292  0.3138
 2390SOL    HW3 9333   0.131   1.182   0.599 -1.1858  1.2626 -1.5385
 2390SOL    MW4 9334   0.119   1.117   0.543  0.4861  0.0844  0.5350
 2391SOL     OW 9335   3.113   2.525   0.195 -0.6761  0.1280 -0.1122
 2391SOL    HW2 9336   3.165   2.575   0.132 -0.9616 -0.1764 -0.5923
 2391SOL    HW3 9337   3.058   2.590   0.238 -0.1751  0.3977  0.1291
 2391SOL    MW4 9338   3.113   2.540   0.192  0.2263  0.1868  0.3055
 2392SOL     OW 9339   3.177   1.962   1.695 -0.7829  0.0614  0.1086
 2392SOL    HW2 9340   3.092   2.004   1.704  0.1862  2.6008 -1.4473
 2392SOL    HW3 9341   3.186   1.948   1.600  0.3618 -0.5919  0.2980
 2392SOL    MW4 9342   3.167   1.966   1.684 -0.1547  0.0529  0.3795
 2393SOL     OW 9343   4.078   5.264   3.750  0.1855 -0.5457  0.2165
 2393SOL    HW2 9344   4.095   5.192   3.811 -1.0900  0.8275  2.3299
 2393SOL    HW3 9345   3.983   5.268   3.744  0.2664  0.2781 -0.7119
 2393SOL    MW4 9346   4.068   5.255   3.758 -0.4517  0.3747  0.3562
 2394SOL     OW 9347   0.339   1.849   0.084 -0.2095  0.0199 -0.1834
 2394SOL    HW2 9348   0.370   1.910   0.151 -1.9985  1.0079 -0.1969
 2394SOL    HW3 9349   0.415   1.835   0.027  1.0940 -0.1589  1.5329
 2394SOL    MW4 9350   0.353   1.855   0.085  0.2551 -0.4559 -0.4456
 2395SOL     OW 9351   3.633   5.833   1.694 -0.6436 -0.0653  0.2463
 2395SOL    HW2 9352   3.665   5.832   1.604  0.6519 -0.1336  0.6957
 2395SOL    HW3 9353   3.565   5.765   1.695 -0.1699 -0.5708 -0.4966
 2395SOL    MW4 9354   3.628   5.824   1.682 -0.0443 -0.0238 -0.5893
 2396SOL     OW 9355   5.274   2.967   6.287 -0.4093 -0.8722 -0.5160
 2396SOL    HW2 9356   5.268   3.062   6.299  1.8222 -0.6958 -0.3573
 2396SOL    HW3 9357   5.255   2.953   6.194 -0.6552 -0.2699 -0.5601
 2396SOL    MW4 9358   5.271   2.978   6.277 -0.3310 -0.2674  0.2449
 2397SOL     OW 9359   6.118   6.328   2.673 -0.5750  0.3295  0.1804
 2397SOL    HW2 9360   6.206   6.366   2.682 -0.5063  0.3430 -0.4746
 2397SOL    HW3 9361   6.087   6.318   2.763  0.5438 -0.7334  0.4677
 2397SOL    MW4 9362   6.125   6.332   2.686 -0.6046  0.4126  0.5147
 2398SOL     OW 9363   2.531   4.363   6.150 -0.0389 -0.3270  0.1505
 2398SOL    HW2 9364   2.450   4.353   6.200 -0.4731 -0.2895 -0.5317
 2398SOL    HW3 9365   2.543   4.457   6.142  1.0561 -0.2817  1.7886
 2398SOL    MW4 9366   2.522   4.374   6.156 -0.1951 -0.2388  0.5757
 2399SOL     OW 9367   5.637   4.233   0.842  0.8093  0.6504 -0.2831
 2399SOL    HW2 9368   5.613   4.305   0.900  0.2748  0.0514  0.2524
 2399SOL    HW3 9369   5.705   4.270   0.785  0.0645  1.7720 -0.4691
 2399SOL    MW4 9370   5.643   4.247   0.842  0.2889  0.0896 -0.1383
 2400SOL     OW 9371   1.526   5.998   5.933 -0.0969 -0.3852 -0.3131
 2400SOL    HW2 9372   1.605   5.944   5.940 -0.4166 -0.8983 -0.5777
 2400SOL    HW3 9373   1.474   5.954   5.865 -0.4239  0.1809 -0.4317
 2400SOL    MW4 9374   1.530   5.985   5.925 -0.2717 -0.1387 -0.2190
 2401SOL     OW 9375   1.233   3.636   1.247 -0.2464 -0.4849  0.0439
 2401SOL    HW2 9376   1.211   3.671   1.161 -1.6160 -0.8672  0.2156
 2401SOL    HW3 9377   1.174   3.680   1.307 -0.1557 -1.1335  0.6239
 2401SOL    MW4 9378   1.223   3.646   1.243  0.0703 -0.3509 -0.1611
 2402SOL     OW 9379   0.733   5.183   0.401 -0.2037  0.1690 -0.2113
 2402SOL    HW2 9380   0.699   5.148   0.319 -0.2680  0.9852 -0.5416
 2402SOL    HW3 9381   0.717   5.114   0.465 -2.3685  0.4494 -0.3766
 2402SOL    MW4 9382   0.726   5.169   0.398 -0.0337  0.1538  0.3982
 2403SOL     OW 9383   3.237   4.226   4.094 -0.0024  0.0306  0.6739
 2403SOL    HW2 9384   3.155   4.195   4.054  0.2095 -0.8462  0.9060
 2403SOL    HW3 9385   3.210   4.301   4.147 -0.5158  0.2864  0.0708
 2403SOL    MW4 9386   3.222   4.232   4.095  0.3662  0.0716 -0.3920
 2404SOL     OW 9387   3.130   5.721   3.873 -0.3571 -0.0346  0.0596
 2404SOL    HW2 9388   3.159   5.688   3.787 -0.4480 -2.7426  0.9691
 2404SOL    HW3 9389   3.172   5.662   3.936  1.6990  3.3502  2.1320
 2404SOL    MW4 9390   3.139   5.709   3.870 -0.4404 -0.3190 -0.1790
 2405SOL     OW 9391   0.580   2.147   5.517 -0.6288  0.0726 -0.4181
 2405SOL    HW2 9392   0.607   2.124   5.429 -1.4295 -0.6540 -0.4855
 2405SOL    HW3 9393   0.502   2.202   5.504  1.1666  2.8755 -0.2672
 2405SOL    MW4 9394   0.573   2.151   5.504  0.1530  0.0931 -0.1392
 2406SOL     OW 9395   6.002   6.047   0.454 -0.2086  0.5647 -0.4829
 2406SOL    HW2 9396   6.096   6.048   0.474 -0.6030  1.9227  1.7282
 2406SOL    HW3 9397   5.961   6.081   0.534 -2.5095  1.0657 -1.8026
 2406SOL    MW4 9398   6.009   6.051   0.467 -0.0356 -0.6015 -0.5483
 2407SOL     OW 9399   4.190   0.066   0.842 -0.1392 -0.2465 -0.1009
 2407SOL    HW2 9400   4.128   0.127   0.882  0.3217  1.0011 -1.2142
 2407SOL    HW3 9401   4.135  -0.001   0.801 -0.6891 -0.1074  0.4072
 2407SOL    MW4 9402   4.175   0.065   0.842 -0.5938  0.4927  0.5984
 2408SOL     OW 9403   3.040   6.134   3.274  0.3905  0.3106 -0.2051
 2408SOL    HW2 9404   2.955   6.158   3.311 -0.1266  0.5084 -1.4641
 2408SOL    HW3 9405   3.028   6.046   3.239  0.9846 -0.0314  0.4199
 2408SOL    MW4 9406   3.028   6.126   3.275 -0.2917 -0.0760  0.2745
 2409SOL     OW 9407   0.602   0.423   4.732 -0.2812 -0.0381 -0.3220
 2409SOL    HW2 9408   0.697   0.425   4.730 -0.2933  1.6699 -0.7552
 2409SOL    HW3 9409   0.575   0.455   4.646 -1.2479 -0.2587 -0.1159
 2409SOL    MW4 9410   0.611   0.427   4.721  0.5720 -0.2557 -0.2558
 2410SOL     OW 9411   2.434   4.016   5.181  0.0034 -0.0914 -0.1532
 2410SOL    HW2 9412   2.421   3.939   5.235 -0.7630 -0.1063 -0.3604
 2410SOL    HW3 9413   2.477   3.983   5.102  0.4072 -0.1792  0.0946
 2410SOL    MW4 9414   2.438   4.002   5.178 -0.2347 -0.1614 -0.1097
 2411SOL     OW 9415   0.042   4.320   5.099 -0.2558  0.1800  0.3663
 2411SOL    HW2 9416  -0.011   4.267   5.159  0.5988 -0.5550  0.4970
 2411SOL    HW3 9417   0.052   4.404   5.144 -2.0773  0.6805 -0.0792
 2411SOL    MW4 9418   0.036   4.324   5.113  0.4298 -0.0304 -0.3409
 2412SOL     OW 9419   2.673   0.719   2.438 -0.1561 -0.0374  0.2208
 2412SOL    HW2 9420   2.595   0.711   2.492 -0.4636  0.6926 -0.1073
 2412SOL    HW3 9421   2.713   0.632   2.440 -0.0519  0.0301  1.7907
 2412SOL    MW4 9422   2.668   0.707   2.445  0.3699 -0.2915  0.1673
 2413SOL     OW 9423   4.139   4.658   0.399  0.1505 -0.2659 -0.1424
 2413SOL    HW2 9424   4.229   4.674   0.428  0.6015 -1.1057 -1.0166
 2413SOL    HW3 9425   4.111   4.740   0.360  1.5256 -0.7344 -2.2984
 2413SOL    MW4 9426   4.147   4.671   0.398  0.3897  0.0844 -0.0884
 2414SOL     OW 9427   1.597   5.187   1.083  0.5445 -0.0823 -0.3873
 2414SOL    HW2 9428   1.681   5.144   1.097  0.4107  0.2774  2.0513
 2414SOL    HW3 9429   1.539   5.117   1.051  1.5045 -0.5613 -1.1248
 2414SOL    MW4 9430   1.600   5.172   1.081  0.0624 -0.2023 -0.3430
 2415SOL     OW 9431   3.941   3.932   1.607  0.8326 -0.2276  0.0759
 2415SOL    HW2 9432   3.969   4.015   1.569  0.2116 -0.4006 -0.7962
 2415SOL    HW3 9433   3.922   3.953   1.699 -1.4449  1.1496 -0.6143
 2415SOL    MW4 9434   3.942   3.946   1.615 -0.2843 -0.2517 -0.5237
 2416SOL     OW 9435   3.912   0.698   3.667  0.0389  0.4594  0.4088
 2416SOL    HW2 9436   3.870   0.750   3.599 -0.3308 -1.1184 -0.6151
 2416SOL    HW3 9437   3.858   0.714   3.745 -0.1517  1.4643  0.0948
 2416SOL    MW4 9438   3.899   0.707   3.669  0.0519 -0.5340 -0.1318
 2417SOL     OW 9439   2.976   5.598   4.853  0.1864  0.1581  0.1262
 2417SOL    HW2 9440   3.021   5.634   4.930  1.8381  0.5015 -0.9641
 2417SOL    HW3 9441   2.985   5.665   4.786 -0.2080 -0.6365 -0.7407
 2417SOL    MW4 9442   2.983   5.612   4.855 -0.0831  0.0316 -0.1085
 2418SOL     OW 9443   5.839   1.273   1.208  0.5454 -0.3089 -0.5572
 2418SOL    HW2 9444   5.910   1.319   1.253  0.4030 -0.7562  0.1413
 2418SOL    HW3 9445   5.785   1.237   1.279 -0.0030 -0.5469 -1.0840
 2418SOL    MW4 9446   5.841   1.275   1.223 -0.0231 -0.2122 -1.0776
 2419SOL     OW 9447   0.906   6.097   2.940 -0.0924  0.3470 -0.0412
 2419SOL    HW2 9448   1.000   6.090   2.958 -0.4255  0.3182  1.8103
 2419SOL    HW3 9449   0.872   6.008   2.952 -0.7003  0.7629  1.5616
 2419SOL    MW4 9450   0.914   6.084   2.944  0.5768 -0.4369 -0.0226
 2420SOL     OW 9451   4.833   5.339   6.210  0.3486  0.2326  0.5823
 2420SOL    HW2 9452   4.785   5.276   6.156 -0.5278  0.1323  1.4502
 2420SOL    HW3 9453   4.900   5.286   6.253  0.3894  0.1231  0.3879
 2420SOL    MW4 9454   4.835   5.323   6.208  0.5768  0.5095 -0.5401
 2421SOL     OW 9455   4.667   1.647   2.826  0.1869  0.0999  0.1993
 2421SOL    HW2 9456   4.656   1.719   2.887 -1.5474  1.2031 -1.3090
 2421SOL    HW3 9457   4.751   1.664   2.783  0.5819  0.2647  1.0249
 2421SOL    MW4 9458   4.677   1.658   2.828 -0.8308  0.7635  0.1732
 2422SOL     OW 9459   3.881   3.865   4.032  0.4064 -0.1179 -0.7546
 2422SOL    HW2 9460   3.840   3.945   4.065 -0.5669 -0.1782 -1.7640
 2422SOL    HW3 9461   3.818   3.796   4.053  2.0986 -1.0044  1.9038
 2422SOL    MW4 9462   3.867   3.867   4.039 -0.1588  0.3356 -0.3759
 2423SOL     OW 9463   3.779   4.131   5.925 -0.0507  0.5861 -0.1649
 2423SOL    HW2 9464   3.781   4.208   5.869 -0.5131  1.5859  1.1361
 2423SOL    HW3 9465   3.866   4.128   5.966  0.2404 -0.0621 -0.8089
 2423SOL    MW4 9466   3.791   4.141   5.923  0.2818  0.0311  0.0263
 2424SOL     OW 9467   0.459   0.248   5.382  0.2998  0.5095 -0.2384
 2424SOL    HW2 9468   0.524   0.229   5.314  1.9509  0.8763  1.1961
 2424SOL    HW3 9469   0.504   0.304   5.444 -1.7661  1.7695  0.2176
 2424SOL    MW4 9470   0.473   0.253   5.381  0.2728  0.3270  0.6235
 2425SOL     OW 9471   1.210   0.660   2.542  0.2256 -0.2316  0.4230
 2425SOL    HW2 9472   1.267   0.734   2.520  0.4691  0.8088  3.9220
 2425SOL    HW3 9473   1.180   0.679   2.631 -3.5729 -2.0157 -0.2794
 2425SOL    MW4 9474   1.213   0.673   2.551  0.0664  0.5349  0.3391
 2426SOL     OW 9475   3.729   5.364   2.108 -0.7900 -0.7610  0.3052
 2426SOL    HW2 9476   3.668   5.397   2.175 -1.1374  0.9924 -0.8177
 2426SOL    HW3 9477   3.700   5.405   2.027  1.6706 -0.1557 -0.3464
 2426SOL    MW4 9478   3.717   5.374   2.106 -0.1881  0.2755 -0.3517
 2427SOL     OW 9479   0.508   4.780   1.618  0.0367 -0.6790  0.1152
 2427SOL    HW2 9480   0.582   4.813   1.567  1.5204 -2.0201  1.2843
 2427SOL    HW3 9481   0.469   4.713   1.563  0.0289 -0.3397 -0.2952
 2427SOL    MW4 9482   0.513   4.776   1.604 -0.5612 -0.2720  0.6721
 2428SOL     OW 9483   4.108   4.858   3.692 -0.0794 -0.9175  0.2712
 2428SOL    HW2 9484   4.033   4.801   3.679 -0.9937  0.3641 -0.3231
 2428SOL    HW3 9485   4.111   4.914   3.614  1.7392 -1.1801  0.0896
 2428SOL    MW4 9486   4.099   4.858   3.680 -0.5944 -0.2413  0.7863
 2429SOL     OW 9487   0.195   1.906   4.347 -0.2312 -0.3482  0.6177
 2429SOL    HW2 9488   0.192   1.846   4.273  2.0332 -1.2153  1.1539
 2429SOL    HW3 9489   0.132   1.974   4.325  1.0031 -0.0574 -2.5936
 2429SOL    MW4 9490   0.187   1.907   4.334  0.2901  0.4261 -0.2097
 2430SOL     OW 9491   0.804   0.960  -0.011 -0.4508 -0.2288 -0.1979
 2430SOL    HW2 9492   0.776   1.007  -0.089  0.4016 -0.1824 -0.4760
 2430SOL    HW3 9493   0.838   1.028   0.048 -1.7342 -0.1662  0.5256
 2430SOL    MW4 9494   0.805   0.975  -0.013  0.2869 -0.0786 -0.5468
 2431SOL     OW 9495   5.515   4.024   1.290 -0.2115 -0.5064 -0.2087
 2431SOL    HW2 9496   5.556   3.950   1.247 -0.6083 -0.2675 -1.0099
 2431SOL    HW3 9497   5.428   4.030   1.251 -0.8282 -0.6776  1.0876
 2431SOL    MW4 9498   5.509   4.015   1.279 -0.6869  0.4103 -0.4574
 2432SOL     OW 9499   3.558   0.677   4.117  0.3320 -0.3793  0.3615
 2432SOL    HW2 9500   3.513   0.655   4.036  0.7728  0.6337 -0.1744
 2432SOL    HW3 9501   3.525   0.764   4.141  1.1817 -0.0937  0.5464
 2432SOL    MW4 9502   3.547   0.686   4.110 -0.0917  0.0319  0.0107
 2433SOL     OW 9503   2.536   1.513   0.530 -0.3085 -0.2360 -0.2855
 2433SOL    HW2 9504   2.589   1.528   0.608 -1.1063  0.8654  0.0653
 2433SOL    HW3 9505   2.458   1.567   0.543  0.8414  2.3684 -3.1573
 2433SOL    MW4 9506   2.532   1.522   0.542  0.2040  0.3290  0.2572
 2434SOL     OW 9507   3.713   0.152   4.097  0.3259  0.2817 -0.1299
 2434SOL    HW2 9508   3.706   0.196   4.013  0.8925  0.3683 -0.1350
 2434SOL    HW3 9509   3.748   0.218   4.157 -0.2377  0.2711  0.2177
 2434SOL    MW4 9510   3.717   0.166   4.094  0.0650  0.3045 -0.3755
 2435SOL     OW 9511   0.409   2.101   0.656 -0.2425 -0.1747  0.1553
 2435SOL    HW2 9512   0.465   2.177   0.665 -0.8219  0.3071 -0.2157
 2435SOL    HW3 9513   0.466   2.032   0.622  0.2724  0.1043  0.4477
 2435SOL    MW4 9514   0.424   2.102   0.653 -0.1023  0.2954 -0.0297
 2436SOL     OW 9515   2.434   6.317   2.024  0.4189 -0.4258  0.5171
 2436SOL    HW2 9516   2.510   6.279   2.067 -1.4125 -2.9243  1.7506
 2436SOL    HW3 9517   2.385   6.360   2.095  0.9186  1.7951 -0.3765
 2436SOL    MW4 9518   2.438   6.318   2.039  0.1404  0.2458 -0.0989
 2437SOL     OW 9519   1.149   4.545   5.564  0.4986 -0.0839 -0.0891
 2437SOL    HW2 9520   1.197   4.628   5.563  0.0102  0.3122  2.3260
 2437SOL    HW3 9521   1.065   4.566   5.605  0.6065 -1.8302  1.1881
 2437SOL    MW4 9522   1.144   4.559   5.570  0.1207  0.2219 -0.1939
 2438SOL     OW 9523   3.473   5.065   4.833  0.8101 -0.1341 -0.0754
 2438SOL    HW2 9524   3.422   5.133   4.788 -1.8891 -1.5263  0.6229
 2438SOL    HW3 9525   3.514   5.016   4.762 -2.3709 -1.5407 -1.1457
 2438SOL    MW4 9526   3.472   5.068   4.817 -0.1165  0.2770 -0.4642
 2439SOL     OW 9527   2.605   4.528   3.026 -0.1695  0.2840 -0.1981
 2439SOL    HW2 9528   2.581   4.619   3.043  0.1589  0.3891 -0.2885
 2439SOL    HW3 9529   2.541   4.499   2.962 -1.4652 -0.1377  1.2219
 2439SOL    MW4 9530   2.593   4.536   3.020 -0.5273  1.0906 -0.7044
 2440SOL     OW 9531   4.639   3.140   3.848  0.2709 -0.2856  0.3809
 2440SOL    HW2 9532   4.649   3.088   3.928 -1.9491 -1.1299  0.1905
 2440SOL    HW3 9533   4.550   3.175   3.853  0.3893  0.3404 -1.3240
 2440SOL    MW4 9534   4.628   3.137   3.859 -0.1070  0.4929  0.7065
 2441SOL     OW 9535   2.640   5.114   3.650  0.2619  0.5979 -0.5910
 2441SOL    HW2 9536   2.632   5.205   3.621  2.8934  1.0281 -0.2463
 2441SOL    HW3 9537   2.673   5.067   3.572  0.0503  0.1795 -0.4336
 2441SOL    MW4 9538   2.643   5.120   3.636 -0.3754  0.0526 -0.0225
 2442SOL     OW 9539   2.412   4.375   5.384 -0.0409  0.6089 -0.4691
 2442SOL    HW2 9540   2.399   4.449   5.444  0.2509  0.5931 -0.3858
 2442SOL    HW3 9541   2.353   4.307   5.417  1.6624 -0.2029  1.1384
 2442SOL    MW4 9542   2.402   4.376   5.397 -0.6088  0.2010  0.0598
 2443SOL     OW 9543   1.754   0.865   2.845 -0.7747  0.1079 -0.7873
 2443SOL    HW2 9544   1.842   0.853   2.881 -1.6017 -1.4962  0.8901
 2443SOL    HW3 9545   1.768   0.912   2.763  1.6881 -0.5541 -0.8339
 2443SOL    MW4 9546   1.768   0.870   2.839 -0.0407 -0.6504 -0.1713
 2444SOL     OW 9547   3.602   1.805   5.089  0.4510  0.4219 -0.3605
 2444SOL    HW2 9548   3.660   1.874   5.121  1.1671 -0.0195 -0.6905
 2444SOL    HW3 9549   3.538   1.794   5.159  1.4901  0.0669  0.5691
 2444SOL    MW4 9550   3.601   1.813   5.103 -0.0287 -0.5351 -0.7976
 2445SOL     OW 9551   5.493   5.939   2.402 -0.1953  0.4749 -0.3856
 2445SOL    HW2 9552   5.584   5.920   2.381 -0.1189  0.3661  0.0526
 2445SOL    HW3 9553   5.463   5.863   2.452 -1.1528 -0.5224 -2.3293
 2445SOL    MW4 9554   5.501   5.926   2.406  0.3468 -0.8925  0.0749
 2446SOL     OW 9555   5.860   3.719   0.802 -0.1073  0.1152 -0.1978
 2446SOL    HW2 9556   5.766   3.724   0.821 -0.0075  2.1890  0.0035
 2446SOL    HW3 9557   5.866   3.733   0.708  0.0505  0.8432 -0.0794
 2446SOL    MW4 9558   5.848   3.721   0.792 -0.3714 -0.3650  0.2994
 2447SOL     OW 9559   2.031   4.986   4.411 -0.3574  0.4374 -0.6928
 2447SOL    HW2 9560   1.994   5.020   4.493 -0.5837 -0.1651 -0.5367
 2447SOL    HW3 9561   2.077   4.906   4.437  2.7393  2.1254 -0.5632
 2447SOL    MW4 9562   2.032   4.980   4.425 -0.1140 -0.7199  0.0211
 2448SOL     OW 9563   2.886   1.337   0.436  0.4310  0.1244  0.4827
 2448SOL    HW2 9564   2.880   1.286   0.517 -1.4108  0.2499  0.4660
 2448SOL    HW3 9565   2.819   1.301   0.379  0.5259  1.1837 -0.3385
 2448SOL    MW4 9566   2.877   1.326   0.439  0.5723 -0.3952 -0.6406
 2449SOL     OW 9567   6.385   2.390   3.662 -0.3576 -0.4375  0.1023
 2449SOL    HW2 9568   6.299   2.393   3.620 -0.5968  0.6750  0.6319
 2449SOL    HW3 9569   6.405   2.482   3.683  0.2725 -0.8279  1.3338
 2449SOL    MW4 9570   6.376   2.403   3.659 -0.0019  0.4172 -0.3619
 2450SOL     OW 9571   0.778   2.768   4.244  0.2732 -0.6090  0.7339
 2450SOL    HW2 9572   0.722   2.840   4.274 -0.1964 -1.5122  2.1774
 2450SOL    HW3 9573   0.735   2.734   4.166 -1.0583 -1.0446  1.6069
 2450SOL    MW4 9574   0.765   2.773   4.238  0.1065  0.1274  0.4643
 2451SOL     OW 9575   2.000   4.348   3.835 -0.1573 -0.5199 -0.1826
 2451SOL    HW2 9576   2.059   4.274   3.844 -1.1135 -1.2415  0.3715
 2451SOL    HW3 9577   1.941   4.342   3.910 -1.2805 -0.1533 -1.0051
 2451SOL    MW4 9578   2.000   4.338   3.846  0.1388 -0.4816  0.4825
 2452SOL     OW 9579   5.151   4.742   0.377 -0.4243  0.0656  0.1041
 2452SOL    HW2 9580   5.119   4.831   0.388 -0.4265  0.1332 -0.4445
 2452SOL    HW3 9581   5.089   4.688   0.427  0.7664  0.5613  2.2050
 2452SOL    MW4 9582   5.138   4.746   0.385 -0.6274 -0.1068 -0.1356
 2453SOL     OW 9583   1.832   2.501   1.963 -0.9343  0.3703 -0.1257
 2453SOL    HW2 9584   1.816   2.594   1.980 -0.5599  0.4204 -0.0187
 2453SOL    HW3 9585   1.905   2.479   2.022  0.0836  0.4218 -1.3259
 2453SOL    MW4 9586   1.840   2.510   1.973 -0.0379 -0.2130  0.5760
 2454SOL     OW 9587   3.854   1.637   5.095  0.3925 -0.2929 -0.1182
 2454SOL    HW2 9588   3.760   1.656   5.098  0.1898 -1.2512 -0.1689
 2454SOL    HW3 9589   3.895   1.723   5.088 -0.4293  0.2029  0.8639
 2454SOL    MW4 9590   3.847   1.651   5.094 -0.0833 -0.3848  0.2777
 2455SOL     OW 9591   4.238   6.076   5.257  0.2074 -0.2990  0.1935
 2455SOL    HW2 9592   4.234   6.136   5.182 -1.1957  1.6951  1.7228
 2455SOL    HW3 9593   4.294   6.121   5.320  1.2170 -1.8596  0.4537
 2455SOL    MW4 9594   4.245   6.090   5.255 -0.3690  0.3781 -0.5263
 2456SOL     OW 9595   2.201   1.349   6.217 -0.3048  0.0195 -0.4777
 2456SOL    HW2 9596   2.153   1.301   6.150 -1.0223 -1.0054  0.7220
 2456SOL    HW3 9597   2.184   1.301   6.298  1.2772  0.6850  0.3020
 2456SOL    MW4 9598   2.192   1.336   6.219 -0.2451 -0.3561 -0.5753
 2457SOL     OW 9599   4.532   3.638   3.372 -0.1036 -0.5787  0.4625
 2457SOL    HW2 9600   4.574   3.581   3.436  1.6502 -0.1255 -0.2369
 2457SOL    HW3 9601   4.447   3.598   3.356 -0.4644 -0.8905  2.8052
 2457SOL    MW4 9602   4.526   3.625   3.379  0.0093  0.4741  0.4297
 2458SOL     OW 9603   4.468   5.086   1.325 -0.2298  0.2443  0.0417
 2458SOL    HW2 9604   4.530   5.154   1.297  0.4043 -0.2529  0.2197
 2458SOL    HW3 9605   4.432   5.053   1.243  0.6948 -0.3416 -0.1402
 2458SOL    MW4 9606   4.472   5.091   1.310  0.1839 -0.0307 -0.5156
 2459SOL     OW 9607   2.657   2.382   6.242 -0.2355 -0.2700  0.4608
 2459SOL    HW2 9608   2.659   2.329   6.163  0.2228 -0.5318  0.6459
 2459SOL    HW3 9609   2.566   2.414   6.247 -0.2268 -0.1199 -0.2473
 2459SOL    MW4 9610   2.645   2.379   6.232  0.0267 -0.0952  0.1708
 2460SOL     OW 9611   1.301   0.564   1.404  0.1842 -0.1187 -0.3821
 2460SOL    HW2 9612   1.262   0.483   1.438  2.2636 -1.3239 -0.7316
 2460SOL    HW3 9613   1.365   0.536   1.339  0.4633  1.8655 -1.0519
 2460SOL    MW4 9614   1.304   0.550   1.400 -0.0240 -0.0805  0.0477
 2461SOL     OW 9615   5.807   1.508   5.629 -0.1821 -0.3863  0.6542
 2461SOL    HW2 9616   5.810   1.425   5.581 -0.9399 -0.4422  0.6836
 2461SOL    HW3 9617   5.755   1.488   5.707  2.8750 -0.8926  2.7305
 2461SOL    MW4 9618   5.801   1.494   5.633 -0.6438  0.0868  0.0397
 2462SOL     OW 9619   0.667   0.905   2.003  0.3218 -0.1960  0.4188
 2462SOL    HW2 9620   0.725   0.939   2.072 -0.8878 -0.2350  1.4868
 2462SOL    HW3 9621   0.726   0.889   1.929  1.5048  0.7681  1.1032
 2462SOL    MW4 9622   0.683   0.907   2.002  0.3196  0.7012 -0.2002
 2463SOL     OW 9623   4.685   4.168   4.644 -0.5112 -0.4097 -0.1140
 2463SOL    HW2 9624   4.632   4.090   4.658  0.1885 -0.9206 -0.2480
 2463SOL    HW3 9625   4.720   4.158   4.556  0.1298 -0.2878  0.1201
 2463SOL    MW4 9626   4.683   4.156   4.634 -0.1916  0.7626 -0.2776
 2464SOL     OW 9627   3.735   3.856   2.014  0.4944 -0.1839 -0.4538
 2464SOL    HW2 9628   3.765   3.923   1.952  0.0354 -0.1001 -0.5918
 2464SOL    HW3 9629   3.657   3.819   1.973  0.2500 -0.2050  0.0220
 2464SOL    MW4 9630   3.728   3.860   2.000  0.2488  0.4568 -0.1097
 2465SOL     OW 9631   6.168   5.370   0.822  0.3237 -0.1563 -0.4014
 2465SOL    HW2 9632   6.121   5.317   0.758  0.2694 -1.0104  0.3305
 2465SOL    HW3 9633   6.252   5.326   0.833 -0.4735 -1.2624  1.6795
 2465SOL    MW4 9634   6.173   5.357   0.815  0.1307  0.5249 -0.2091
 2466SOL     OW 9635   2.450   4.146   3.089  0.0340  0.2270  0.2514
 2466SOL    HW2 9636   2.510   4.088   3.135 -0.2951 -0.3532 -0.0476
 2466SOL    HW3 9637   2.495   4.167   3.007  0.5347  1.1055  0.7286
 2466SOL    MW4 9638   2.464   4.141   3.084 -0.1175 -0.3377 -0.5158
 2467SOL     OW 9639   5.896   6.125   1.279  0.2663  0.5488  0.1262
 2467SOL    HW2 9640   5.983   6.164   1.283 -0.4387  2.3346 -0.9137
 2467SOL    HW3 9641   5.860   6.154   1.195 -1.0287 -0.8226  0.1670
 2467SOL    MW4 9642   5.903   6.134   1.268  0.1061  0.8342  0.3820
 2468SOL     OW 9643   3.924   1.581   1.471  0.0601 -0.3410 -0.0565
 2468SOL    HW2 9644   3.844   1.606   1.517  0.1363 -1.3884  0.6559
 2468SOL    HW3 9645   3.905   1.495   1.434  0.4829 -0.1113 -0.8280
 2468SOL    MW4 9646   3.911   1.573   1.472  0.3303 -0.3224 -0.1681
 2469SOL     OW 9647   2.191   2.873   3.584 -0.7590  0.0986 -0.2719
 2469SOL    HW2 9648   2.124   2.853   3.649 -1.3582 -1.1219 -1.2332
 2469SOL    HW3 9649   2.269   2.828   3.616 -0.6930  0.5924  0.2726
 2469SOL    MW4 9650   2.192   2.864   3.597 -0.2505 -0.4618 -0.2800
 2470SOL     OW 9651   2.819   0.481   0.701  0.6992 -0.9096 -0.2079
 2470SOL    HW2 9652   2.752   0.416   0.723  0.6436 -0.8481 -0.1949
 2470SOL    HW3 9653   2.792   0.560   0.748  0.7041 -0.8446 -0.3143
 2470SOL    MW4 9654   2.807   0.483   0.710 -0.0156 -0.2385 -0.3378
 2471SOL     OW 9655   2.358   1.910   5.714  0.5593 -0.4874  0.0213
 2471SOL    HW2 9656   2.297   1.982   5.730  0.1579 -0.5892 -0.9742
 2471SOL    HW3 9657   2.338   1.845   5.781 -0.5854 -0.6231 -0.4393
 2471SOL    MW4 9658   2.348   1.911   5.725 -0.4361  0.7613  0.4279
 2472SOL     OW 9659   6.035   3.351   3.724  0.0550  0.2910  0.3486
 2472SOL    HW2 9660   5.990   3.295   3.787  0.1855  0.2940  0.4440
 2472SOL    HW3 9661   6.082   3.414   3.778  1.0489 -0.3747  0.2829
 2472SOL    MW4 9662   6.035   3.352   3.740  0.8483 -0.3168 -0.1537
 2473SOL     OW 9663   3.596   1.408   2.448  0.1232 -0.1769  0.7623
 2473SOL    HW2 9664   3.598   1.452   2.533  0.7263  0.8966  0.2201
 2473SOL    HW3 9665   3.505   1.381   2.436 -0.0909  0.2207  1.4757
 2473SOL    MW4 9666   3.584   1.410   2.457 -0.3594  0.0681 -0.3840
 2474SOL     OW 9667   1.318   4.753   2.973 -0.0231  0.2359 -0.5550
 2474SOL    HW2 9668   1.296   4.841   2.944  0.9995  1.7906  2.8853
 2474SOL    HW3 9669   1.234   4.713   2.996 -0.2765  2.2675  2.5811
 2474SOL    MW4 9670   1.304   4.759   2.972  0.2656 -0.6038  0.5140
 2475SOL     OW 9671   5.587   4.199   2.829  0.5552 -0.7656  0.2534
 2475SOL    HW2 9672   5.641   4.120   2.833  0.3659 -0.8819  0.6007
 2475SOL    HW3 9673   5.513   4.180   2.886  0.9365 -0.0170  1.0386
 2475SOL    MW4 9674   5.585   4.186   2.837 -0.4387 -0.5917 -0.2543
 2476SOL     OW 9675   5.291   1.275   4.055  0.1322  0.2225  0.1999
 2476SOL    HW2 9676   5.344   1.197   4.071 -0.9856 -0.7760 -0.6990
 2476SOL    HW3 9677   5.354   1.346   4.042  1.2085 -0.7675 -0.1376
 2476SOL    MW4 9678   5.306   1.274   4.056 -0.3812  0.3117  0.4053
 2477SOL     OW 9679   5.867   1.786   1.171 -0.2475 -0.6734 -0.2948
 2477SOL    HW2 9680   5.823   1.726   1.232 -0.7275 -0.0230  0.0130
 2477SOL    HW3 9681   5.801   1.853   1.151  0.8750  0.8745  0.9176
 2477SOL    MW4 9682   5.852   1.787   1.176  0.3280 -0.0827 -0.5538
 2478SOL     OW 9683   4.468   1.175   5.122 -0.7692 -0.5548  0.2728
 2478SOL    HW2 9684   4.470   1.271   5.129 -2.4060 -0.5242  0.5512
 2478SOL    HW3 9685   4.557   1.148   5.146 -0.5531  0.8352  1.1545
 2478SOL    MW4 9686   4.480   1.184   5.126  0.0937  0.2558  0.2740
 2479SOL     OW 9687   5.911   0.305   4.225  0.3246 -0.2436  0.0707
 2479SOL    HW2 9688   5.837   0.251   4.254  0.6998 -0.8132  0.0002
 2479SOL    HW3 9689   5.880   0.347   4.145 -0.6671  1.2335  1.1786
 2479SOL    MW4 9690   5.897   0.303   4.218 -0.2515  0.2164  0.1705
 2480SOL     OW 9691   2.602   6.327   3.498 -1.2669 -0.6027  0.0784
 2480SOL    HW2 9692   2.624   6.306   3.589 -2.1937  1.4913  0.8297
 2480SOL    HW3 9693   2.525   6.274   3.479 -1.0631 -1.0554  0.4923
 2480SOL    MW4 9694   2.595   6.317   3.508 -0.0312  0.0971 -0.3794
 2481SOL     OW 9695   4.895   1.141   4.367 -0.2074  0.1805  0.0699
 2481SOL    HW2 9696   4.906   1.236   4.372 -0.3264  0.2932 -1.3371
 2481SOL    HW3 9697   4.808   1.126   4.404  0.3528  0.4591  1.5276
 2481SOL    MW4 9698   4.885   1.152   4.372 -0.3450 -0.1226 -0.6563
 2482SOL     OW 9699   3.032   1.337   4.477 -0.2018  0.1229  0.3812
 2482SOL    HW2 9700   3.092   1.410   4.463  0.3944 -0.6225 -1.0929
 2482SOL    HW3 9701   3.019   1.335   4.572  0.7817  1.3271  0.5640
 2482SOL    MW4 9702   3.038   1.346   4.488  0.0531  0.0213  0.5976
 2483SOL     OW 9703   4.702   4.363   3.793  0.4753 -0.2161  0.3100
 2483SOL    HW2 9704   4.716   4.457   3.805 -1.1611  0.1004  0.0331
 2483SOL    HW3 9705   4.670   4.333   3.877 -1.6530  0.0668 -0.3340
 2483SOL    MW4 9706   4.700   4.371   3.805  0.4175  0.3402 -0.9108
 2484SOL     OW 9707   1.503   4.616   1.620  0.0543  0.0881 -0.2872
 2484SOL    HW2 9708   1.414   4.590   1.596 -0.7249  0.5939  1.8446
 2484SOL    HW3 9709   1.527   4.682   1.555 -1.0633 -0.1355 -0.9632
 2484SOL    MW4 9710   1.495   4.621   1.608  0.4386 -0.1455 -0.2332
 2485SOL     OW 9711   6.226   0.839   5.167 -0.1963 -0.5391  0.1133
 2485SOL    HW2 9712   6.285   0.913   5.182  0.8058 -1.0946 -0.9263
 2485SOL    HW3 9713   6.181   0.861   5.085 -1.2607 -0.2482  0.7592
 2485SOL    MW4 9714   6.228   0.852   5.158  0.1411  0.2268  0.6427
 2486SOL     OW 9715   5.841   0.436   0.286 -0.0124  0.1676  0.0404
 2486SOL    HW2 9716   5.890   0.357   0.261  0.0902 -0.1511  1.1801
 2486SOL    HW3 9717   5.853   0.442   0.380  0.3110  1.7839 -0.0801
 2486SOL    MW4 9718   5.849   0.427   0.295 -0.1811 -0.6010  0.1567
 2487SOL     OW 9719   6.161   2.885   0.778 -0.5513 -0.0450 -0.7576
 2487SOL    HW2 9720   6.110   2.949   0.728 -0.0155  1.6006  0.6863
 2487SOL    HW3 9721   6.095   2.837   0.829 -0.8887  0.1280 -1.0263
 2487SOL    MW4 9722   6.146   2.887   0.778  0.0519  0.0489 -0.0912
 2488SOL     OW 9723   4.632   6.276   5.836  0.3540  0.2947 -0.4343
 2488SOL    HW2 9724   4.719   6.300   5.805  0.7601 -1.3952 -0.6863
 2488SOL    HW3 9725   4.609   6.345   5.898  1.6162  1.0849 -0.8106
 2488SOL    MW4 9726   4.641   6.288   5.840 -0.5459 -0.3908 -0.1550
 2489SOL     OW 9727   1.385   5.442   6.042 -0.1342  0.1412  0.2166
 2489SOL    HW2 9728   1.350   5.422   6.129 -1.7006 -1.8567 -0.7688
 2489SOL    HW3 9729   1.363   5.534   6.028 -1.8918 -0.0929  1.0938
 2489SOL    MW4 9730   1.377   5.451   6.052 -0.1828  0.5163  0.5337
 2490SOL     OW 9731   2.295   2.392   5.690 -0.3814  0.2192 -0.0240
 2490SOL    HW2 9732   2.248   2.475   5.693  1.7758  1.5168 -0.0869
 2490SOL    HW3 9733   2.371   2.405   5.748  0.9175 -1.0733 -1.3417
 2490SOL    MW4 9734   2.299   2.405   5.698 -0.1321  0.1966  0.1098
 2491SOL     OW 9735   6.329   0.629   1.619  0.1718  0.4987  1.2428
 2491SOL    HW2 9736   6.239   0.649   1.644 -0.4193 -0.1390 -0.2628
 2491SOL    HW3 9737   6.381   0.700   1.658 -0.8416  0.4183  2.8527
 2491SOL    MW4 9738   6.324   0.641   1.628 -0.6366 -0.1840  0.1251
 2492SOL     OW 9739   5.366   1.720   4.128 -0.3720  0.4422 -0.1604
 2492SOL    HW2 9740   5.413   1.638   4.148 -0.0219  0.8923  0.9372
 2492SOL    HW3 9741   5.384   1.777   4.203 -1.0361  1.3503 -0.6707
 2492SOL    MW4 9742   5.375   1.716   4.140  0.1022 -0.3661 -0.7577
 2493SOL     OW 9743   0.421   2.504   4.671 -0.5909  0.2873  0.2546
 2493SOL    HW2 9744   0.419   2.422   4.622 -3.1514  1.1434 -1.3041
 2493SOL    HW3 9745   0.500   2.499   4.724  0.3031 -2.3662 -1.1542
 2493SOL    MW4 9746   0.431   2.492   4.672 -0.2949 -0.6958 -0.4630
 2494SOL     OW 9747   6.053   5.155   4.343  0.0955 -0.2250  0.1482
 2494SOL    HW2 9748   6.117   5.184   4.408  1.2745  1.5470 -1.6826
 2494SOL    HW3 9749   6.087   5.072   4.312  0.0627 -0.5887  1.0534
 2494SOL    MW4 9750   6.066   5.148   4.347  0.4116 -0.1446  0.0566
 2495SOL     OW 9751   0.615   1.893   0.900  0.0068  0.1001 -0.0182
 2495SOL    HW2 9752   0.634   1.971   0.849 -1.2846 -0.2916 -1.1531
 2495SOL    HW3 9753   0.589   1.926   0.986 -0.6979  0.9399 -0.5346
 2495SOL    MW4 9754   0.614   1.907   0.905  0.0438 -0.2973  0.0821
 2496SOL     OW 9755   0.174   5.283   4.045 -0.3522  0.2828  0.2571
 2496SOL    HW2 9756   0.084   5.310   4.064 -0.8952 -1.6545  0.6645
 2496SOL    HW3 9757   0.190   5.209   4.104  1.0814 -0.1803 -0.6612
 2496SOL    MW4 9758   0.164   5.277   4.056 -0.0826 -0.8837 -0.1394
 2497SOL     OW 9759   6.113   2.625   5.844  0.1138 -0.4741  0.0438
 2497SOL    HW2 9760   6.061   2.704   5.829  0.5718 -0.1325  0.2368
 2497SOL    HW3 9761   6.116   2.616   5.939 -0.5025 -1.1106  0.0155
 2497SOL    MW4 9762   6.106   2.634   5.854 -0.2217 -0.2996 -0.2605
 2498SOL     OW 9763   2.780   1.684   4.452  0.6205  0.2245 -0.2150
 2498SOL    HW2 9764   2.761   1.593   4.429 -0.4996  0.1469  0.9249
 2498SOL    HW3 9765   2.830   1.718   4.377 -1.2820 -0.5303 -1.9049
 2498SOL    MW4 9766   2.784   1.677   4.439  0.2365  0.4808  0.1411
 2499SOL     OW 9767   6.213   3.441   1.396  0.4257 -0.2922 -0.1503
 2499SOL    HW2 9768   6.188   3.384   1.468 -0.0931 -0.4146 -0.4249
 2499SOL    HW3 9769   6.282   3.392   1.349 -1.0089 -1.3612 -1.2384
 2499SOL    MW4 9770   6.219   3.427   1.399  0.0801  0.1721 -0.1552
 2500SOL     OW 9771   6.227   4.088   4.573  0.3283 -0.1711  0.5052
 2500SOL    HW2 9772   6.181   4.044   4.501 -2.0840  1.8602  0.6997
 2500SOL    HW3 9773   6.277   4.157   4.531  2.1547 -1.4407  0.4598
 2500SOL    MW4 9774   6.228   4.091   4.558 -0.9598  0.1942 -0.3081
 2501SOL     OW 9775   3.743   0.534   1.997 -0.5907  1.0258 -0.2480
 2501SOL    HW2 9776   3.823   0.574   1.962 -1.7928  2.0985 -1.9658
 2501SOL    HW3 9777   3.760   0.523   2.090  1.2225  2.0323 -0.4097
 2501SOL    MW4 9778   3.756   0.538   2.005  0.5113  0.3484  0.5657
 2502SOL     OW 9779   1.101   4.045   6.054 -0.2460  0.3888 -0.3317
 2502SOL    HW2 9780   1.180   3.993   6.037 -0.9602 -1.3240  1.2941
 2502SOL    HW3 9781   1.132   4.117   6.109  0.2282 -0.2035  0.2038
 2502SOL    MW4 9782   1.116   4.048   6.059 -0.0963 -0.0435 -0.0913
 2503SOL     OW 9783   3.877   3.945   3.558  0.5106  0.3562  0.0773
 2503SOL    HW2 9784   3.898   3.879   3.624 -0.3156  0.1573  0.1487
 2503SOL    HW3 9785   3.951   4.007   3.562  0.7133  0.0820  0.8352
 2503SOL    MW4 9786   3.890   3.945   3.567  0.0683 -0.4336 -0.6882
 2504SOL     OW 9787   4.554   3.758   1.361 -0.0085  0.1155 -0.4715
 2504SOL    HW2 9788   4.591   3.772   1.273 -2.0305  2.4345 -1.0631
 2504SOL    HW3 9789   4.470   3.717   1.345  0.1894 -0.6964  0.5160
 2504SOL    MW4 9790   4.548   3.755   1.347  0.1163 -0.5121 -0.4583
 2505SOL     OW 9791   6.255   4.932   1.279 -0.5177  0.0747 -0.2470
 2505SOL    HW2 9792   6.252   4.966   1.368 -0.9412 -0.6761  0.0292
 2505SOL    HW3 9793   6.175   4.881   1.269  0.0837 -0.8386 -0.6510
 2505SOL    MW4 9794   6.244   4.930   1.289 -0.6769  0.3086  0.0667
 2506SOL     OW 9795   4.337   5.647   6.376 -0.0266 -0.2116  0.3693
 2506SOL    HW2 9796   4.298   5.572   6.422  0.1399  0.3891  1.5172
 2506SOL    HW3 9797   4.410   5.609   6.327 -0.0786 -0.8421  0.7668
 2506SOL    MW4 9798   4.342   5.632   6.375 -0.4811  0.2053 -0.1170
 2507SOL     OW 9799   4.510   5.907   4.288 -0.0573 -0.3143 -0.5168
 2507SOL    HW2 9800   4.533   5.818   4.315  1.2773  0.1373 -0.0901
 2507SOL    HW3 9801   4.488   5.952   4.370  3.1285  0.8093 -0.1442
 2507SOL    MW4 9802   4.510   5.901   4.302  0.1269 -0.6673 -0.1291
 2508SOL     OW 9803   2.746   1.675   2.667  0.4432  0.0112  0.0754
 2508SOL    HW2 9804   2.688   1.617   2.716 -0.0007  1.6624  1.6153
 2508SOL    HW3 9805   2.832   1.633   2.672  0.2755 -0.2131  1.7657
 2508SOL    MW4 9806   2.750   1.662   2.674 -0.0067  0.2487  0.0460
 2509SOL     OW 9807   4.809   0.399   4.720 -0.4319  0.2691 -0.2167
 2509SOL    HW2 9808   4.753   0.339   4.769  0.8904 -0.3334  0.5959
 2509SOL    HW3 9809   4.780   0.486   4.746  0.7003 -0.0171  2.2397
 2509SOL    MW4 9810   4.798   0.402   4.730  0.1715 -0.4787  0.0571
 2510SOL     OW 9811   0.620   2.882   5.240 -0.3646  0.4059 -0.2133
 2510SOL    HW2 9812   0.680   2.841   5.303 -0.5733  0.5350  0.0721
 2510SOL    HW3 9813   0.537   2.835   5.252 -0.2327  0.0159 -0.8296
 2510SOL    MW4 9814   0.617   2.870   5.250 -0.0642  0.0389 -0.1962
 2511SOL     OW 9815   5.263   5.238   2.408 -0.1424  0.1504 -0.0522
 2511SOL    HW2 9816   5.329   5.172   2.430 -0.4326  0.2492  1.2515
 2511SOL    HW3 9817   5.209   5.244   2.487  0.0395  2.1454 -0.0257
 2511SOL    MW4 9818   5.265   5.230   2.422 -0.4873 -0.7008  0.5170
 2512SOL     OW 9819   3.972   0.981   1.864 -0.1230 -0.4470 -0.0961
 2512SOL    HW2 9820   4.049   1.021   1.824 -0.2271 -2.8224 -2.9386
 2512SOL    HW3 9821   3.913   0.964   1.791 -2.2942 -1.0039  1.6888
 2512SOL    MW4 9822   3.974   0.984   1.849  0.0829 -0.3422 -0.8068
 2513SOL     OW 9823   4.255   2.675   5.378 -0.5951 -0.3173 -0.3684
 2513SOL    HW2 9824   4.341   2.632   5.377 -0.7455 -0.6317  0.2294
 2513SOL    HW3 9825   4.276   2.768   5.388 -0.2723 -0.2305 -1.6106
 2513SOL    MW4 9826   4.269   2.682   5.379  0.3441  0.0391  0.1010
 2514SOL     OW 9827   5.201   5.005   5.628  0.2914  0.3566 -0.1158
 2514SOL    HW2 9828   5.273   4.941   5.630 -1.3075 -1.5152  0.3759
 2514SOL    HW3 9829   5.224   5.068   5.697  2.2608  0.7792 -1.0803
 2514SOL    MW4 9830   5.214   5.005   5.637 -0.3834 -0.7917 -0.4191
 2515SOL     OW 9831   4.494   2.123   3.153  0.5661  0.2549  0.3178
 2515SOL    HW2 9832   4.460   2.200   3.106  0.0013  0.5122  1.1227
 2515SOL    HW3 9833   4.416   2.069   3.169  0.6666  0.4139  1.3891
 2515SOL    MW4 9834   4.479   2.126   3.149  0.2190  0.4894 -0.2013
 2516SOL     OW 9835   0.030   4.450   2.987  0.0663 -0.0092  0.5845
 2516SOL    HW2 9836   0.053   4.543   2.981  1.3304  0.1335  4.7016
 2516SOL    HW3 9837   0.104   4.404   2.947  0.9211  0.7377  1.2648
 2516SOL    MW4 9838   0.043   4.456   2.981 -0.1481 -0.6135  0.6930
 2517SOL     OW 9839   5.356   3.331   4.223  0.0565  0.0522  0.0404
 2517SOL    HW2 9840   5.298   3.257   4.243 -1.5801  1.4446  0.6357
 2517SOL    HW3 9841   5.361   3.381   4.305  1.3287  0.4959 -0.2857
 2517SOL    MW4 9842   5.349   3.328   4.237 -0.1158 -0.2433  0.3948
 2518SOL     OW 9843   0.197   2.268   5.692  0.6677  0.1644 -0.1136
 2518SOL    HW2 9844   0.246   2.301   5.768  1.6912 -0.3019 -0.5526
 2518SOL    HW3 9845   0.133   2.208   5.730  0.5375  0.6524  0.4596
 2518SOL    MW4 9846   0.195   2.265   5.707 -0.0801  0.3423 -0.6050
 2519SOL     OW 9847   2.588   1.803   1.683  0.7150  0.0730 -0.0434
 2519SOL    HW2 9848   2.531   1.744   1.732  1.4582 -1.6139 -1.1207
 2519SOL    HW3 9849   2.573   1.889   1.723 -1.7169 -0.4872  0.4407
 2519SOL    MW4 9850   2.578   1.806   1.695 -0.3482 -1.0205  0.2505
 2520SOL     OW 9851   4.668   4.887   1.380  0.3278  0.6011  0.0643
 2520SOL    HW2 9852   4.744   4.928   1.338 -1.5262  1.1465 -3.0584
 2520SOL    HW3 9853   4.596   4.948   1.365 -1.1774 -0.8286  1.0900
 2520SOL    MW4 9854   4.669   4.900   1.372  0.2431 -0.2753  0.1576
 2521SOL     OW 9855   5.918   3.623   3.984 -0.5894  0.0097  0.3441
 2521SOL    HW2 9856   6.013   3.610   3.987 -0.6298 -0.8811 -1.2839
 2521SOL    HW3 9857   5.908   3.719   3.984  0.2918  0.1188  0.5929
 2521SOL    MW4 9858   5.929   3.634   3.985  0.1151 -0.2303  0.1298
 2522SOL     OW 9859   1.808   5.439   4.069 -0.3343 -0.1351 -0.1687
 2522SOL    HW2 9860   1.827   5.526   4.035 -0.6601 -0.1198 -0.3167
 2522SOL    HW3 9861   1.726   5.449   4.118 -0.2425 -0.3059  0.0227
 2522SOL    MW4 9862   1.799   5.452   4.071  0.2381  0.2286  0.1305
 2523SOL     OW 9863   1.352   0.962   3.100  0.4012  0.3849 -0.6385
 2523SOL    HW2 9864   1.442   0.969   3.132  0.9127 -0.9940 -1.6610
 2523SOL    HW3 9865   1.341   0.869   3.080 -1.0298  0.6482 -1.1700
 2523SOL    MW4 9866   1.362   0.951   3.101 -0.4546  0.2312 -0.0194
 2524SOL     OW 9867   1.919   4.544   6.227 -0.0479 -0.1599 -0.5514
 2524SOL    HW2 9868   1.888   4.470   6.174 -1.0729 -0.2575  0.1666
 2524SOL    HW3 9869   1.923   4.509   6.316  0.4345  0.3768 -0.3553
 2524SOL    MW4 9870   1.916   4.529   6.232 -0.0336  0.3907  0.3379
 2525SOL     OW 9871   3.949   5.797   1.273 -0.3080  1.0801 -0.0751
 2525SOL    HW2 9872   4.041   5.817   1.290 -0.0191  0.4630 -0.8315
 2525SOL    HW3 9873   3.929   5.841   1.191 -0.5822  0.9026 -0.1051
 2525SOL    MW4 9874   3.959   5.805   1.265 -0.0395  0.3782  0.3029
 2526SOL     OW 9875   4.368   2.618   2.690 -0.3864 -0.3124  0.0459
 2526SOL    HW2 9876   4.336   2.613   2.781 -1.0694  1.4273 -0.0623
 2526SOL    HW3 9877   4.326   2.696   2.654  1.7164  0.3950 -1.0544
 2526SOL    MW4 9878   4.358   2.627   2.698 -0.7762 -0.3073 -0.7749
 2527SOL     OW 9879   2.391   1.555   2.900 -0.4846 -0.3856 -0.3376
 2527SOL    HW2 9880   2.387   1.578   2.993 -2.3217 -1.7303 -0.0159
 2527SOL    HW3 9881   2.331   1.617   2.858 -0.5853 -0.5560 -0.4436
 2527SOL    MW4 9882   2.382   1.566   2.907 -0.2579 -0.0669 -0.1437
 2528SOL     OW 9883   4.033   5.130   6.277 -0.4308  0.0146 -0.6199
 2528SOL    HW2 9884   4.085   5.210   6.280 -2.1754  1.2068  1.1379
 2528SOL    HW3 9885   4.010   5.113   6.369 -1.7600 -1.3597 -1.1543
 2528SOL    MW4 9886   4.037   5.138   6.290 -0.2244  0.1993 -0.3155
 2529SOL     OW 9887   5.308   5.269   4.180  0.0500  0.0600  0.1864
 2529SOL    HW2 9888   5.373   5.199   4.188  0.8690  0.9546  1.9006
 2529SOL    HW3 9889   5.274   5.261   4.091 -2.5940 -4.8358  1.2611
 2529SOL    MW4 9890   5.312   5.259   4.169 -0.2484 -0.1605 -0.0601
 2530SOL     OW 9891   6.179   0.068   4.936  0.2298 -0.5607 -0.0615
 2530SOL    HW2 9892   6.147   0.017   4.862  0.4637 -1.5915  0.5339
 2530SOL    HW3 9893   6.115   0.053   5.005  0.6380 -0.5565  0.3204
 2530SOL    MW4 9894   6.166   0.060   4.935  0.1631  0.1945  0.2417
 2531SOL     OW 9895   3.330   0.209   4.125 -0.3474 -0.8717 -0.2436
 2531SOL    HW2 9896   3.324   0.115   4.141 -1.1005 -0.5021  1.9993
 2531SOL    HW3 9897   3.381   0.243   4.199 -2.2344  0.7741  0.3894
 2531SOL    MW4 9898   3.336   0.201   4.136 -0.0270  0.2179  0.2801
 2532SOL     OW 9899   0.005   2.789   5.649  0.0921 -0.2008  0.3586
 2532SOL    HW2 9900   0.065   2.817   5.718  0.9981 -1.0058 -0.0769
 2532SOL    HW3 9901  -0.077   2.834   5.669  0.0204 -1.1725  2.5600
 2532SOL    MW4 9902   0.002   2.798   5.661  0.4144  0.5469  0.7106
 2533SOL     OW 9903   4.904   3.677   1.959 -0.4229  0.6102  0.0244
 2533SOL    HW2 9904   4.864   3.747   2.009  0.0623  0.2146  0.9820
 2533SOL    HW3 9905   4.844   3.664   1.885 -0.6471  1.8374 -0.0279
 2533SOL    MW4 9906   4.891   3.684   1.956 -0.0762 -0.2446  0.3018
 2534SOL     OW 9907   4.396   4.113   5.602  0.1119 -0.7483 -0.3916
 2534SOL    HW2 9908   4.479   4.067   5.619  0.5992  0.1333 -0.3148
 2534SOL    HW3 9909   4.330   4.045   5.604  0.7453 -1.3573  0.3670
 2534SOL    MW4 9910   4.398   4.098   5.605 -0.0790  0.1336 -0.3938
 2535SOL     OW 9911   0.095   2.718   1.676  0.2393  0.1321 -0.1532
 2535SOL    HW2 9912   0.173   2.694   1.626  0.5357 -1.9914  1.2040
 2535SOL    HW3 9913   0.047   2.635   1.687  0.0385  0.5312  2.7385
 2535SOL    MW4 9914   0.099   2.704   1.671  0.2157  0.2934  0.4478
 2536SOL     OW 9915   2.607   2.570   1.021 -0.2004 -0.2331  0.7238
 2536SOL    HW2 9916   2.609   2.662   0.992  0.7832 -0.8792 -1.4544
 2536SOL    HW3 9917   2.537   2.531   0.968  1.0672 -1.2604 -0.2548
 2536SOL    MW4 9918   2.598   2.577   1.010 -0.4112 -0.3534  0.3935
 2537SOL     OW 9919   1.209   0.549   4.512  0.9481 -0.1252  0.4001
 2537SOL    HW2 9920   1.187   0.470   4.562  0.3529 -0.1937  0.0499
 2537SOL    HW3 9921   1.132   0.563   4.457  0.8148  1.0253  0.8638
 2537SOL    MW4 9922   1.196   0.540   4.512 -0.3605  0.0884 -0.3063
 2538SOL     OW 9923   1.452   0.879   1.296  0.0053  0.6296 -0.4302
 2538SOL    HW2 9924   1.483   0.961   1.334 -0.3775  0.0318  1.2731
 2538SOL    HW3 9925   1.375   0.904   1.245  1.5543  1.7096 -2.3973
 2538SOL    MW4 9926   1.446   0.893   1.294  0.7204  0.3870 -0.4176
 2539SOL     OW 9927   6.258   5.110   3.995  0.3091 -0.5554  0.0536
 2539SOL    HW2 9928   6.165   5.097   4.010  0.5208 -1.4858  0.5830
 2539SOL    HW3 9929   6.268   5.108   3.900 -0.1515 -0.8300  0.0118
 2539SOL    MW4 9930   6.247   5.108   3.984 -0.7832 -0.2184 -0.4873
 2540SOL     OW 9931   4.196   4.990   0.451 -0.0078 -0.1758 -0.3634
 2540SOL    HW2 9932   4.209   5.061   0.387  0.5073 -0.3359 -0.4410
 2540SOL    HW3 9933   4.267   4.929   0.433  0.3316 -0.0678  0.5751
 2540SOL    MW4 9934   4.207   4.991   0.440  0.1841 -0.0283 -1.0122
 2541SOL     OW 9935   0.774   2.876   0.943  0.1120 -0.3018  0.5382
 2541SOL    HW2 9936   0.695   2.901   0.895 -0.6688  0.9596  2.3785
 2541SOL    HW3 9937   0.832   2.951   0.935  0.7183 -0.8183  0.0493
 2541SOL    MW4 9938   0.771   2.889   0.936  0.2744  0.3472  0.2936
 2542SOL     OW 9939   0.450   5.388   2.583  0.0400  0.8054 -0.2067
 2542SOL    HW2 9940   0.390   5.370   2.511 -0.4825  3.2439 -0.4916
 2542SOL    HW3 9941   0.394   5.392   2.661  0.4087 -0.4955  0.1516
 2542SOL    MW4 9942   0.435   5.386   2.584  0.5082 -0.6063 -0.3228
 2543SOL     OW 9943   0.282   2.638   1.105 -0.1612 -0.2732  0.1968
 2543SOL    HW2 9944   0.357   2.616   1.050 -1.8842 -2.0102 -1.6060
 2543SOL    HW3 9945   0.245   2.554   1.130 -1.7252  0.5423  0.7240
 2543SOL    MW4 9946   0.287   2.624   1.101 -0.6553  0.0620 -0.3730
 2544SOL     OW 9947   2.634   6.282   1.172  0.3142 -0.3065  0.1902
 2544SOL    HW2 9948   2.539   6.295   1.164  0.4560  1.0741  0.5024
 2544SOL    HW3 9949   2.643   6.207   1.230 -0.5893 -1.6638 -1.3248
 2544SOL    MW4 9950   2.623   6.274   1.178 -0.2146  0.0709  0.2849
 2545SOL     OW 9951   3.911   1.935   2.233  0.1070 -0.2834  0.0846
 2545SOL    HW2 9952   3.966   1.857   2.238  1.1350  0.4604  1.0247
 2545SOL    HW3 9953   3.824   1.906   2.260  0.6901 -0.9127  1.3546
 2545SOL    MW4 9954   3.907   1.921   2.237  0.1015 -0.0656  0.0312
 2546SOL     OW 9955   3.424   3.564   5.628  0.4725 -0.2876 -0.0949
 2546SOL    HW2 9956   3.363   3.585   5.558  0.9077 -0.4600 -0.5304
 2546SOL    HW3 9957   3.492   3.631   5.622  0.2464  0.0009  0.4911
 2546SOL    MW4 9958   3.425   3.576   5.618 -0.4499 -0.0098 -0.5731
 2547SOL     OW 9959   5.211   3.936   3.840  0.3542 -0.4441  0.8890
 2547SOL    HW2 9960   5.294   3.915   3.798  0.5587 -1.3446  1.7097
 2547SOL    HW3 9961   5.190   4.024   3.810  1.8703 -0.0027  1.0700
 2547SOL    MW4 9962   5.219   3.945   3.831 -0.1480  0.2753 -0.1918
 2548SOL     OW 9963   0.299   3.909   5.510 -0.3144 -0.1266 -0.6030
 2548SOL    HW2 9964   0.332   3.997   5.528  0.0062 -0.4877  0.6307
 2548SOL    HW3 9965   0.238   3.921   5.437  0.7596  0.9024 -1.3571
 2548SOL    MW4 9966   0.295   3.922   5.503  0.6935  0.1989  0.1830
 2549SOL     OW 9967   5.560   0.271   5.634 -0.5657 -0.2233  0.1880
 2549SOL    HW2 9968   5.476   0.243   5.671 -1.5477  0.2817 -1.5417
 2549SOL    HW3 9969   5.540   0.294   5.544  1.2542  0.8996  0.0145
 2549SOL    MW4 9970   5.547   0.271   5.627 -0.4609  0.1317 -0.6285
 2550SOL     OW 9971   6.385   0.993   3.916  0.1883 -0.1375  0.1323
 2550SOL    HW2 9972   6.305   0.955   3.952 -0.2392  1.7255  1.2702
 2550SOL    HW3 9973   6.376   0.983   3.822 -0.5422 -1.5314  0.3228
 2550SOL    MW4 9974   6.373   0.987   3.909  0.2174 -0.1244 -0.3459
 2551SOL     OW 9975   2.786   3.593   5.106 -0.1095  0.0650  0.6757
 2551SOL    HW2 9976   2.814   3.685   5.102 -1.6432  0.5795  1.1017
 2551SOL    HW3 9977   2.863   3.546   5.139  0.8553  1.1132 -0.0190
 2551SOL    MW4 9978   2.800   3.599   5.110 -0.4587 -0.4329  0.0617
 2552SOL     OW 9979   3.565   2.262   5.878  0.1440 -0.0374  0.4068
 2552SOL    HW2 9980   3.514   2.183   5.860  0.6332 -0.2533 -0.0472
 2552SOL    HW3 9981   3.644   2.230   5.922  1.6732 -0.1425 -2.1987
 2552SOL    MW4 9982   3.569   2.247   5.882  0.0309  0.3926  0.0999
 2553SOL     OW 9983   3.555   2.770   1.136 -0.0144 -0.0992 -0.0541
 2553SOL    HW2 9984   3.501   2.780   1.057  0.8857  0.4500 -0.6215
 2553SOL    HW3 9985   3.518   2.695   1.181 -1.1861  0.1922 -0.4799
 2553SOL    MW4 9986   3.543   2.762   1.132  0.7204  1.1544  0.1143
 2554SOL     OW 9987   3.191   1.929   1.419  0.2490  0.1568 -0.2457
 2554SOL    HW2 9988   3.158   1.882   1.343 -1.5896  2.4458 -0.9834
 2554SOL    HW3 9989   3.200   2.020   1.389  1.6146  0.7381  1.6762
 2554SOL    MW4 9990   3.188   1.935   1.405  0.5513 -0.1371  0.1286
 2555SOL     OW 9991   1.937   2.081   4.839  0.2539  0.1999 -0.3633
 2555SOL    HW2 9992   1.868   2.099   4.775 -0.5814  1.2777  0.7789
 2555SOL    HW3 9993   2.014   2.129   4.806 -0.5754  1.9780  0.1370
 2555SOL    MW4 9994   1.938   2.090   4.826 -0.1432 -0.4780 -0.2367
 2556SOL     OW 9995   5.197   6.194   2.145 -0.5961  0.2169 -0.0779
 2556SOL    HW2 9996   5.289   6.172   2.135  0.0033  0.4409  3.6196
 2556SOL    HW3 9997   5.192   6.287   2.125  0.1041  0.3075  0.1388
 2556SOL    MW4 9998   5.208   6.203   2.141  0.3509 -0.0555 -0.2336
 2557SOL     OW 9999   0.622   4.529   0.436 -0.0377  0.8847 -0.0625
 2557SOL    HW210000   0.540   4.544   0.389 -0.5831  0.3163  0.6875
 2557SOL    HW310001   0.677   4.604   0.414 -1.0871  1.7238  0.1536
 2557SOL    MW410002   0.618   4.541   0.427 -0.5765  0.4144  0.3081
 2558SOL     OW10003   1.485   1.483   5.291 -0.5156  0.5088 -0.5468
 2558SOL    HW210004   1.418   1.419   5.266  1.7800 -1.7757 -1.3478
 2558SOL    HW310005   1.556   1.429   5.328  1.1716  2.7089 -0.3843
 2558SOL    MW410006   1.486   1.467   5.293  0.3564  0.4227  0.3090
 2559SOL     OW10007   2.025   0.582   1.625  0.2819 -0.3853  0.2844
 2559SOL    HW210008   2.097   0.604   1.565 -0.2781  0.5976 -0.0454
 2559SOL    HW310009   2.003   0.665   1.668  0.9280 -1.1211  2.1669
 2559SOL    MW410010   2.032   0.596   1.623 -0.2038 -0.0387  0.1796
 2560SOL     OW10011   1.150   0.037   1.458 -0.1401 -0.2570  0.2902
 2560SOL    HW210012   1.225  -0.009   1.495 -0.6124 -0.7499  0.6444
 2560SOL    HW310013   1.122  -0.019   1.385 -0.5311 -0.3804  0.5341
 2560SOL    MW410014   1.156   0.024   1.453 -0.3289  0.0822 -0.6006
 2561SOL     OW10015   4.199   1.115   1.732 -0.1638 -0.0723  0.1301
 2561SOL    HW210016   4.182   1.130   1.639  1.0026  1.0818  0.0676
 2561SOL    HW310017   4.259   1.041   1.734 -0.1601 -0.0741 -0.0392
 2561SOL    MW410018   4.204   1.108   1.720  0.3237  0.7201 -0.4567
 2562SOL     OW10019   1.245   1.300   2.548  0.6642 -0.7884 -0.2767
 2562SOL    HW210020   1.215   1.224   2.498 -0.3845 -0.2224 -0.5192
 2562SOL    HW310021   1.315   1.265   2.604  1.6018 -1.5174 -1.8306
 2562SOL    MW410022   1.250   1.285   2.549 -0.4465 -0.2714 -0.1628
 2563SOL     OW10023   5.223   4.657   1.693  0.1564  0.5727 -0.2937
 2563SOL    HW210024   5.246   4.750   1.700 -0.6191  0.7650 -0.2962
 2563SOL    HW310025   5.130   4.656   1.674  0.2188 -0.2058 -0.5944
 2563SOL    MW410026   5.214   4.669   1.691 -0.5434 -0.7882 -0.0910
 2564SOL     OW10027   3.044   2.485   5.671 -0.5655 -0.7026 -0.1091
 2564SOL    HW210028   3.114   2.424   5.650  0.3462 -0.2658  1.4444
 2564SOL    HW310029   3.016   2.521   5.587  0.7980 -1.1953 -0.7886
 2564SOL    MW410030   3.049   2.482   5.657  0.3915 -0.6243 -0.4009
 2565SOL     OW10031   0.934   3.602   0.021  0.2325  0.5374 -0.7196
 2565SOL    HW210032   0.850   3.639  -0.005 -0.7020 -0.4275  0.7664
 2565SOL    HW310033   0.979   3.585  -0.061 -0.8948  1.3591 -1.5368
 2565SOL    MW410034   0.929   3.605   0.007 -0.1801  0.0275 -0.4348
 2566SOL     OW10035   1.306   1.314   5.195 -0.5495 -0.0553  0.1885
 2566SOL    HW210036   1.212   1.327   5.183 -0.6419 -1.4047 -0.8272
 2566SOL    HW310037   1.313   1.237   5.251 -0.0242  0.7245  1.2387
 2566SOL    MW410038   1.295   1.306   5.201 -1.1605 -0.6258 -0.1994
 2567SOL     OW10039   1.923   3.885   4.996 -0.2277 -0.2916  0.2426
 2567SOL    HW210040   1.891   3.817   4.937 -0.2114 -2.4126  2.5085
 2567SOL    HW310041   1.981   3.839   5.057 -0.1237  1.7698  1.8343
 2567SOL    MW410042   1.926   3.870   4.996  0.6753  0.0946  0.2285
 2568SOL     OW10043   4.985   1.777   1.117 -0.0771 -0.1524 -0.0439
 2568SOL    HW210044   5.070   1.734   1.123  0.0919  0.0872 -0.6011
 2568SOL    HW310045   5.004   1.871   1.124 -0.5461 -0.1778  2.1831
 2568SOL    MW410046   4.999   1.784   1.119 -0.4436  0.0195  0.3810
 2569SOL     OW10047   0.108   1.433   6.386  0.5804  0.6571  0.0508
 2569SOL    HW210048   0.111   1.505   6.450  0.2838  0.7664 -0.0558
 2569SOL    HW310049   0.162   1.463   6.314  0.9712  0.5052  0.2784
 2569SOL    MW410050   0.115   1.446   6.385 -0.1892  0.2359 -0.3640
 2570SOL     OW10051   5.321   0.759   1.068 -0.4024 -0.3581 -0.2962
 2570SOL    HW210052   5.299   0.673   1.103  1.9644 -1.8134 -2.0684
 2570SOL    HW310053   5.237   0.798   1.044 -1.6895 -1.3216  2.2580
 2570SOL    MW410054   5.307   0.753   1.069 -0.2941 -0.2173 -0.1129
 2571SOL     OW10055   1.432   3.906   0.991  0.7729 -0.0406  0.2665
 2571SOL    HW210056   1.433   3.865   1.077 -0.6622  1.9206  1.2907
 2571SOL    HW310057   1.359   3.968   0.994  0.9076  0.3672 -2.2453
 2571SOL    MW410058   1.422   3.908   1.002 -0.2646  0.1610 -0.0629
 2572SOL     OW10059   1.013   4.349   3.410  0.1488 -0.2984  0.5530
 2572SOL    HW210060   1.057   4.430   3.388  0.4220 -0.9903 -1.6515
 2572SOL    HW310061   0.957   4.330   3.334  0.8737 -2.6736  0.5314
 2572SOL    MW410062   1.011   4.357   3.397  0.3127 -0.3307  0.1869
 2573SOL     OW10063   1.927   2.570   4.977 -0.0895  0.4144 -0.3508
 2573SOL    HW210064   1.860   2.596   5.041 -0.0373 -0.3725  0.0394
 2573SOL    HW310065   1.883   2.507   4.920 -0.0153  0.8015 -0.8441
 2573SOL    MW410066   1.913   2.565   4.978 -0.0056  0.4539 -0.7611
 2574SOL     OW10067   0.199   2.271   4.387  0.0189  0.0998 -0.2054
 2574SOL    HW210068   0.165   2.354   4.422 -0.4048 -1.1821  2.7733
 2574SOL    HW310069   0.126   2.210   4.394  0.9847 -1.0925 -0.0374
 2574SOL    MW410070   0.185   2.274   4.393 -0.1057 -0.1020  0.1465
 2575SOL     OW10071   0.984   5.366   3.873  0.2224 -0.4517 -0.0310
 2575SOL    HW210072   1.010   5.401   3.788  3.8297  0.6606  1.3547
 2575SOL    HW310073   0.974   5.272   3.859 -0.0049 -0.1883 -1.8157
 2575SOL    MW410074   0.986   5.358   3.860 -0.0461  0.3347 -0.0566
 2576SOL     OW10075   6.295   5.844   0.450  0.2525  0.3159 -0.1560
 2576SOL    HW210076   6.307   5.805   0.536 -1.2133 -0.8442 -0.4345
 2576SOL    HW310077   6.321   5.936   0.461 -0.7659  0.4351  1.7676
 2576SOL    MW410078   6.300   5.851   0.462 -0.2480 -0.5168  0.3357
 2577SOL     OW10079   0.900   4.906   3.082 -0.0172  0.0663  0.4564
 2577SOL    HW210080   0.962   4.954   3.136  0.5333  2.4322 -2.0641
 2577SOL    HW310081   0.817   4.952   3.095 -0.1541 -0.1248  0.2608
 2577SOL    MW410082   0.897   4.919   3.091 -0.2925  0.3333  0.2411
 2578SOL     OW10083   4.024   4.516   1.559  0.4876  0.0704  0.2353
 2578SOL    HW210084   3.992   4.589   1.505  1.1513  0.9443  0.9850
 2578SOL    HW310085   3.945   4.474   1.592  0.1009  0.9088  0.3893
 2578SOL    MW410086   4.010   4.520   1.556 -0.2535  0.3776 -0.2241
 2579SOL     OW10087   4.097   1.069   4.565  0.2638 -0.3340  0.0001
 2579SOL    HW210088   4.086   0.979   4.535 -1.3134  0.6354 -2.6627
 2579SOL    HW310089   4.011   1.093   4.600  0.6506  0.1894  0.6113
 2579SOL    MW410090   4.084   1.060   4.566  0.2710 -0.1653 -0.0761
 2580SOL     OW10091   1.528   0.224   0.511 -0.6789 -0.3453  0.0808
 2580SOL    HW210092   1.478   0.237   0.430  0.5439  0.1342 -0.6408
 2580SOL    HW310093   1.497   0.293   0.570 -1.8853 -0.9626  0.1996
 2580SOL    MW410094   1.518   0.235   0.508 -0.4982 -0.3178  0.1971
 2581SOL     OW10095   3.077   5.190   5.250 -0.1873 -0.1276 -0.1336
 2581SOL    HW210096   3.115   5.157   5.169  0.7604  1.4011 -0.3511
 2581SOL    HW310097   3.073   5.285   5.238 -2.5434 -0.0719  0.5620
 2581SOL    MW410098   3.081   5.198   5.238 -0.0755 -0.2542  0.5250
 2582SOL     OW10099   2.340   3.146   2.035  0.0530 -0.3042  0.7622
 2582SOL    HW210100   2.354   3.214   2.101  1.4459  1.0138 -0.7925
 2582SOL    HW310101   2.428   3.111   2.018  0.5952  2.2657 -3.2013
 2582SOL    MW410102   2.354   3.151   2.042 -0.1414 -0.7596  0.1509
 2583SOL     OW10103   6.110   0.352   1.253  0.2616  0.0415  0.1272
 2583SOL    HW210104   6.181   0.388   1.305 -2.0210  0.0721  3.5873
 2583SOL    HW310105   6.060   0.428   1.223  1.1764 -0.0079 -1.6698
 2583SOL    MW410106   6.113   0.367   1.256 -0.1063  0.2565  0.0510
 2584SOL     OW10107   3.852   2.305   4.003  0.2054 -0.3101  0.4960
 2584SOL    HW210108   3.795   2.362   3.951 -0.6342 -0.6563  1.0187
 2584SOL    HW310109   3.847   2.340   4.092  3.1862  1.4913  0.0597
 2584SOL    MW410110   3.844   2.317   4.008  0.3511 -0.0710 -0.4550
 2585SOL     OW10111   2.601   0.182   4.528  0.5622 -0.6614  0.1241
 2585SOL    HW210112   2.551   0.186   4.447 -0.7115 -0.2857  0.9104
 2585SOL    HW310113   2.643   0.096   4.526  1.1464 -0.3687 -1.2630
 2585SOL    MW410114   2.600   0.171   4.517  0.2196 -0.0227  0.1960
 2586SOL     OW10115   3.397   5.479   0.568 -0.0018 -0.1715  0.3777
 2586SOL    HW210116   3.452   5.550   0.600 -0.1392  0.7923 -1.4230
 2586SOL    HW310117   3.447   5.400   0.589  1.2268  0.5768  0.4188
 2586SOL    MW410118   3.411   5.478   0.575 -0.2852  0.4024 -1.1397
 2587SOL     OW10119   5.327   1.640   0.792 -0.0348 -0.0314 -0.3938
 2587SOL    HW210120   5.339   1.735   0.796  3.0717 -0.3168 -0.9062
 2587SOL    HW310121   5.415   1.605   0.781 -1.0803 -3.0152 -0.0778
 2587SOL    MW410122   5.340   1.648   0.791  0.1330  0.0247 -1.0124
 2588SOL     OW10123   1.239   0.331   4.881  0.2917 -0.1436 -0.2776
 2588SOL    HW210124   1.214   0.419   4.908 -0.0824 -0.0897 -0.7765
 2588SOL    HW310125   1.299   0.301   4.949 -1.6316 -0.5242  1.3548
 2588SOL    MW410126   1.244   0.338   4.893  0.5311  0.3956  0.3334
 2589SOL     OW10127   0.141   2.265   3.460 -0.0293 -0.8087  0.2551
 2589SOL    HW210128   0.072   2.325   3.486  0.0837  0.4623 -2.0754
 2589SOL    HW310129   0.215   2.286   3.516 -0.7770 -0.5373  1.1522
 2589SOL    MW410130   0.141   2.275   3.471  0.2671 -0.5677  0.2287
 2590SOL     OW10131   0.846   1.758   0.778  0.3099 -0.2323 -0.4245
 2590SOL    HW210132   0.755   1.783   0.796  0.3497 -0.1524 -0.3350
 2590SOL    HW310133   0.877   1.718   0.859  0.3140 -0.3801 -0.4972
 2590SOL    MW410134   0.838   1.756   0.791  0.6043  0.2017  0.5745
 2591SOL     OW10135   0.336   6.380   5.828  0.5711 -0.4148  0.4813
 2591SOL    HW210136   0.377   6.448   5.774  0.3339  1.0344  2.0421
 2591SOL    HW310137   0.297   6.320   5.764  2.1562  0.0173 -0.9773
 2591SOL    MW410138   0.336   6.381   5.812  0.0013  0.1264  0.3487
 2592SOL     OW10139   5.043   0.647   4.030 -0.6204 -0.1951 -0.5964
 2592SOL    HW210140   5.113   0.711   4.016  0.3795 -1.6034 -2.5793
 2592SOL    HW310141   5.088   0.564   4.044 -1.8950 -0.5518  1.8480
 2592SOL    MW410142   5.058   0.645   4.030 -0.2287  0.1101 -0.5417
 2593SOL     OW10143   3.094   2.800   1.849 -0.5014 -0.1102 -0.1372
 2593SOL    HW210144   3.086   2.729   1.913  1.6709 -1.1615 -0.9297
 2593SOL    HW310145   3.003   2.826   1.831 -1.2340 -0.7775  2.2297
 2593SOL    MW410146   3.081   2.794   1.855 -0.3069 -0.2390 -0.2360
 2594SOL     OW10147   3.693   4.333   0.603 -0.2338  0.0018 -0.6106
 2594SOL    HW210148   3.623   4.347   0.668 -0.7218 -0.1892 -1.0879
 2594SOL    HW310149   3.698   4.238   0.594  1.1030 -0.0615  0.4977
 2594SOL    MW410150   3.684   4.322   0.611 -0.3466 -0.1271  0.5552
 2595SOL     OW10151   6.117   4.650   4.962  0.7174  0.1640 -0.3187
 2595SOL    HW210152   6.036   4.697   4.978  1.1066  1.3240 -1.5531
 2595SOL    HW310153   6.091   4.558   4.958 -0.5082  0.5055 -0.5776
 2595SOL    MW410154   6.103   4.644   4.964 -0.2478  0.4791 -0.1555
 2596SOL     OW10155   1.621   4.900   1.954  0.3174  0.4164 -0.3458
 2596SOL    HW210156   1.535   4.905   1.995  0.4243  0.1657 -0.0881
 2596SOL    HW310157   1.619   4.818   1.905 -0.3813  1.4400 -2.1640
 2596SOL    MW410158   1.609   4.890   1.953  0.2095 -0.2127 -0.4555
 2597SOL     OW10159   3.789   3.490   0.992 -0.1603 -0.0853  0.5563
 2597SOL    HW210160   3.747   3.569   1.027  0.1015 -0.2420  1.2388
 2597SOL    HW310161   3.716   3.437   0.959 -0.3527  0.3500  0.2673
 2597SOL    MW410162   3.773   3.494   0.992  0.0247  0.2619  0.5702
 2598SOL     OW10163   3.516   6.191   3.837  0.1470  1.0913 -0.3902
 2598SOL    HW210164   3.526   6.166   3.745 -0.5117  2.6100 -0.8987
 2598SOL    HW310165   3.603   6.219   3.864  0.0655  1.8783 -0.9364
 2598SOL    MW410166   3.528   6.191   3.828  0.2768  0.1013 -0.3647
 2599SOL     OW10167   2.349   3.209   3.373  0.2014 -0.4578 -0.3576
 2599SOL    HW210168   2.410   3.214   3.446 -0.2275  0.4722 -0.0427
 2599SOL    HW310169   2.265   3.184   3.413  0.1136 -0.6167 -0.6318
 2599SOL    MW410170   2.346   3.206   3.388  0.7687 -0.2558  0.2652
 2600SOL     OW10171   2.109   5.961   1.008  0.1207  0.0425  0.0634
 2600SOL    HW210172   2.068   6.024   1.067 -0.1338 -2.2551  2.4981
 2600SOL    HW310173   2.202   5.965   1.029  0.1937  0.0733 -0.2556
 2600SOL    MW410174   2.116   5.970   1.019 -0.7527 -0.3141  0.1994
 2601SOL     OW10175   5.961   1.309   0.030 -0.1623 -0.1628 -0.1351
 2601SOL    HW210176   5.881   1.360   0.045 -0.2533  0.0929 -1.4418
 2601SOL    HW310177   5.992   1.288   0.119  0.5258  3.1898  0.5617
 2601SOL    MW410178   5.955   1.313   0.044 -0.3056 -0.0574 -0.6564
 2602SOL     OW10179   0.949   5.518   1.245  0.1544  0.5704 -0.3420
 2602SOL    HW210180   0.882   5.505   1.312  0.2032  1.9767  0.0171
 2602SOL    HW310181   0.918   5.470   1.169 -0.6833  0.2398  0.1987
 2602SOL    MW410182   0.936   5.510   1.244 -0.2483 -0.2124  0.2076
 2603SOL     OW10183   1.643   2.060   3.192  0.1292 -0.3021 -0.3212
 2603SOL    HW210184   1.623   2.058   3.098  2.6526 -2.4839 -0.9151
 2603SOL    HW310185   1.684   2.146   3.205  3.4604 -1.4131 -2.2226
 2603SOL    MW410186   1.645   2.071   3.181  0.1020  0.0073  0.4600
 2604SOL     OW10187   3.380   4.706   2.748  0.1361 -0.1873  0.4142
 2604SOL    HW210188   3.325   4.783   2.760  0.1622 -0.0924 -0.0600
 2604SOL    HW310189   3.449   4.735   2.687 -0.1734 -0.7424 -0.2103
 2604SOL    MW410190   3.382   4.720   2.742 -0.0427  0.3095 -0.2778
 2605SOL     OW10191   2.387   2.788   5.877  0.0369 -0.0831 -0.1704
 2605SOL    HW210192   2.339   2.737   5.812 -0.6199 -1.5297  1.3650
 2605SOL    HW310193   2.396   2.875   5.838 -2.1797 -0.2955 -1.3033
 2605SOL    MW410194   2.382   2.793   5.863 -0.2906  0.4347  0.2357
 2606SOL     OW10195   5.029   1.124   5.217  0.1195  0.3103 -0.3927
 2606SOL    HW210196   5.079   1.097   5.140  0.1969 -1.3549  0.2020
 2606SOL    HW310197   5.006   1.042   5.261 -0.2081  1.2001  1.1790
 2606SOL    MW410198   5.032   1.109   5.213  0.0466 -0.2125  0.8745
 2607SOL     OW10199   6.044   0.200   2.374 -0.2790  0.0858 -0.7330
 2607SOL    HW210200   6.139   0.188   2.379 -0.4307 -0.9540  0.1232
 2607SOL    HW310201   6.022   0.253   2.451 -0.4041  0.2188 -0.8599
 2607SOL    MW410202   6.054   0.206   2.385 -0.4700 -0.5743 -0.0549
 2608SOL     OW10203   5.503   2.972   0.578 -0.3544 -0.2763  0.2097
 2608SOL    HW210204   5.588   2.974   0.534 -0.2638  0.1384  0.3954
 2608SOL    HW310205   5.467   2.886   0.558 -0.3881 -0.0344 -0.8041
 2608SOL    MW410206   5.510   2.961   0.570  0.5407 -0.4398  0.2092
 2609SOL     OW10207   5.171   0.378   6.148  0.1366 -0.7317  0.1567
 2609SOL    HW210208   5.147   0.357   6.058 -1.6041  2.0178 -0.1336
 2609SOL    HW310209   5.258   0.418   6.141  0.1917 -0.9160 -0.2310
 2609SOL    MW410210   5.180   0.380   6.135 -0.0050 -0.1044 -0.3530
 2610SOL     OW10211   4.209   0.579   1.309 -0.0665 -0.0980 -0.0706
 2610SOL    HW210212   4.136   0.625   1.269 -1.1131  0.0266  1.8483
 2610SOL    HW310213   4.280   0.643   1.311 -0.2636  0.1568 -0.8985
 2610SOL    MW410214   4.209   0.594   1.304  0.1218 -0.6130 -0.3658
 2611SOL     OW10215   2.621   4.648   5.206  0.0472 -0.5273  0.1830
 2611SOL    HW210216   2.666   4.565   5.218 -1.3149 -1.0011  2.8730
 2611SOL    HW310217   2.540   4.626   5.160 -0.9213 -0.9999  2.0040
 2611SOL    MW410218   2.616   4.634   5.202 -0.2972  0.2115  0.0881
 2612SOL     OW10219   2.056   4.575   5.819 -0.4463  0.2567 -0.0040
 2612SOL    HW210220   1.969   4.577   5.860 -0.2708 -0.8605  0.4707
 2612SOL    HW310221   2.089   4.664   5.828 -1.5899  0.7374 -0.3102
 2612SOL    MW410222   2.049   4.587   5.825  0.0928  0.3250  0.3174
 2613SOL     OW10223   0.560   4.428   4.537  0.1002 -0.2675  0.2222
 2613SOL    HW210224   0.530   4.512   4.500  0.1380 -0.1817  0.3838
 2613SOL    HW310225   0.612   4.453   4.613  1.7575 -0.3492 -0.8502
 2613SOL    MW410226   0.563   4.443   4.542 -0.6254  0.0288 -0.2890
 2614SOL     OW10227   6.000   2.083   1.657 -0.2629 -0.0450 -0.1343
 2614SOL    HW210228   5.972   2.064   1.567  1.2006  2.2779 -1.1653
 2614SOL    HW310229   5.932   2.141   1.691 -0.9129 -1.0740  0.3456
 2614SOL    MW410230   5.987   2.088   1.649 -0.6944 -0.0110 -0.8815
 2615SOL     OW10231   2.866   3.414   6.088 -0.0190  0.1878 -0.4959
 2615SOL    HW210232   2.864   3.393   5.995 -1.2239 -0.0519 -0.4277
 2615SOL    HW310233   2.933   3.356   6.124  0.7929  0.6085 -1.2682
 2615SOL    MW410234   2.874   3.404   6.081  0.0863  0.4387 -0.2439
 2616SOL     OW10235   2.641   1.870   2.487 -0.3521 -0.5156 -0.3483
 2616SOL    HW210236   2.706   1.930   2.452 -1.3067  0.5100 -0.4320
 2616SOL    HW310237   2.690   1.810   2.542  0.5068  1.0123  0.6152
 2616SOL    MW410238   2.656   1.870   2.490 -0.2305  0.2700  0.0446
 2617SOL     OW10239   3.598   3.843   3.833  0.1209 -0.4120  0.5125
 2617SOL    HW210240   3.614   3.827   3.740  2.0397  0.7487  0.5679
 2617SOL    HW310241   3.626   3.934   3.845 -2.3392  0.2362  1.7747
 2617SOL    MW410242   3.604   3.853   3.822  0.2187 -0.1902 -0.4978
 2618SOL     OW10243   2.081   1.680   0.531  0.1943 -0.0307 -0.2196
 2618SOL    HW210244   2.107   1.771   0.542  0.4563  0.1172 -1.7737
 2618SOL    HW310245   1.989   1.685   0.503  0.1121 -0.2579  0.0102
 2618SOL    MW410246   2.072   1.692   0.528 -0.6306  0.0628  0.4211
 2619SOL     OW10247   1.782   3.725   3.668  0.1999 -0.1272 -0.2458
 2619SOL    HW210248   1.757   3.681   3.749 -1.3396  0.8131 -0.1609
 2619SOL    HW310249   1.820   3.808   3.696  1.7586 -0.7470 -0.4438
 2619SOL    MW410250   1.783   3.730   3.682  0.0366  0.0952  0.6116
 2620SOL     OW10251   5.216   5.204   3.912  0.2919  0.0055  0.3899
 2620SOL    HW210252   5.143   5.144   3.923 -1.7082  2.1723 -0.2637
 2620SOL    HW310253   5.177   5.285   3.880  3.0964  1.0288 -0.8542
 2620SOL    MW410254   5.202   5.207   3.909  0.3962 -0.1336 -0.3578
 2621SOL     OW10255   4.074   3.578   1.655  0.3245  0.5563 -0.5987
 2621SOL    HW210256   4.061   3.522   1.732 -1.5450  0.1408 -1.1445
 2621SOL    HW310257   3.986   3.612   1.636  0.7912  0.8547 -2.3897
 2621SOL    MW410258   4.060   3.575   1.663  0.1603  0.0332  0.2641
 2622SOL     OW10259   0.089   6.214   1.452 -0.2918  0.2702  0.0323
 2622SOL    HW210260   0.112   6.168   1.533  1.7010 -0.7250 -1.0189
 2622SOL    HW310261   0.144   6.292   1.453 -0.2295  0.2300 -0.3783
 2622SOL    MW410262   0.100   6.218   1.463  0.2287 -1.1161  0.3240
 2623SOL     OW10263   5.297   2.117   1.948 -0.0440  0.8908  0.6824
 2623SOL    HW210264   5.381   2.161   1.939  0.1139  0.1899 -2.1795
 2623SOL    HW310265   5.238   2.163   1.889 -1.1467  0.1248  1.1251
 2623SOL    MW410266   5.300   2.129   1.939  0.3650  0.3124  0.6233
 2624SOL     OW10267   4.179   1.746   3.393 -0.0069  0.0250  0.2730
 2624SOL    HW210268   4.100   1.703   3.360  0.2127  0.4982 -0.9030
 2624SOL    HW310269   4.200   1.812   3.327  1.1214  0.1999  0.7869
 2624SOL    MW410270   4.171   1.749   3.380  0.5367 -0.3473  0.5937
 2625SOL     OW10271   5.101   2.656   5.453 -0.3728 -0.4135  0.3916
 2625SOL    HW210272   5.054   2.739   5.460  1.3711  1.0899 -3.1108
 2625SOL    HW310273   5.058   2.611   5.380 -0.7160 -2.2456  1.6664
 2625SOL    MW410274   5.089   2.661   5.444  0.3252 -0.2391 -0.1975
 2626SOL     OW10275   3.114   5.876   1.602 -0.1828  0.9404 -0.1849
 2626SOL    HW210276   3.110   5.848   1.511 -1.4771  1.1093 -0.1955
 2626SOL    HW310277   3.155   5.802   1.648 -1.3338  0.0209 -0.6022
 2626SOL    MW410278   3.119   5.862   1.596 -0.3671  0.0207 -0.1579
 2627SOL     OW10279   5.997   1.281   3.967 -0.5414 -0.6849 -0.1440
 2627SOL    HW210280   6.091   1.265   3.978 -0.2854  0.2979 -0.7724
 2627SOL    HW310281   5.956   1.235   4.040  0.4616 -0.8087  0.3541
 2627SOL    MW410282   6.004   1.273   3.978  0.4827  0.0473  0.2040
 2628SOL     OW10283   2.716   3.508   6.304  0.3926 -0.3312  0.6781
 2628SOL    HW210284   2.774   3.568   6.351  0.1127 -0.3046  0.9894
 2628SOL    HW310285   2.770   3.474   6.232  0.3573  0.7837  0.1094
 2628SOL    MW410286   2.731   3.511   6.301  0.4703  0.6550  0.3364
 2629SOL     OW10287   5.140   5.951   3.239 -0.5438  0.1533 -0.1827
 2629SOL    HW210288   5.095   6.008   3.176  0.2464  1.0852  0.0778
 2629SOL    HW310289   5.069   5.913   3.292 -1.1524  0.0457 -1.0440
 2629SOL    MW410290   5.125   5.953   3.238  0.5455 -0.5677  0.1928
 2630SOL     OW10291   4.666   0.618   4.886  0.2675  0.1847  0.2566
 2630SOL    HW210292   4.636   0.704   4.916 -0.0846  0.1677 -0.0358
 2630SOL    HW310293   4.681   0.569   4.967  0.2481  0.4436  0.4219
 2630SOL    MW410294   4.664   0.623   4.901  0.4539 -0.9486  0.0044
 2631SOL     OW10295   2.494   0.225   1.074 -0.0799  0.1097  0.4047
 2631SOL    HW210296   2.521   0.186   0.992  1.1588 -0.8705  1.2456
 2631SOL    HW310297   2.531   0.314   1.073 -1.1702  0.5770 -0.6245
 2631SOL    MW410298   2.502   0.232   1.063 -0.0518 -0.0946  0.5716
 2632SOL     OW10299   1.578   0.486   5.896  0.1745  0.5284  0.2374
 2632SOL    HW210300   1.485   0.508   5.906  0.2929  0.4167  1.7726
 2632SOL    HW310301   1.578   0.393   5.870 -0.1272 -0.0527  2.1726
 2632SOL    MW410302   1.566   0.476   5.894  0.2652  0.0450 -0.6524
 2633SOL     OW10303   4.249   0.190   3.000  0.0467  0.1423 -0.1906
 2633SOL    HW210304   4.157   0.218   3.001 -0.4710 -1.4004  1.7110
 2633SOL    HW310305   4.295   0.258   3.049 -0.0722  0.8637 -1.0516
 2633SOL    MW410306   4.243   0.202   3.007 -0.0617  0.7363  0.3493
 2634SOL     OW10307   5.722   4.081   1.954  0.0524  0.1299  0.1335
 2634SOL    HW210308   5.736   4.172   1.930 -0.1514  0.3207  0.7154
 2634SOL    HW310309   5.691   4.084   2.045 -1.4259 -0.4172 -0.3204
 2634SOL    MW410310   5.720   4.093   1.963  0.0209 -0.3896 -0.7756
 2635SOL     OW10311   4.121   1.717   6.044  0.2405 -0.1070 -0.0219
 2635SOL    HW210312   4.093   1.808   6.036  0.8849  0.0515 -0.6079
 2635SOL    HW310313   4.166   1.712   6.128  0.3787  0.1663 -0.0795
 2635SOL    MW410314   4.123   1.728   6.054  0.0801 -0.2182 -0.1497
 2636SOL     OW10315   1.705   1.197   6.320 -0.1644  0.1649 -0.0534
 2636SOL    HW210316   1.614   1.208   6.347 -0.1106  0.9971 -0.2098
 2636SOL    HW310317   1.742   1.138   6.386 -0.3893  1.1236  0.9633
 2636SOL    MW410318   1.698   1.190   6.332  0.2564  0.4733 -0.1615
 2637SOL     OW10319   2.907   3.149   2.720 -0.0804 -0.0896 -0.1226
 2637SOL    HW210320   2.984   3.188   2.679 -2.6581  3.3580 -2.2080
 2637SOL    HW310321   2.858   3.111   2.647 -0.8550 -1.3942  1.0357
 2637SOL    MW410322   2.911   3.149   2.705  0.3284 -0.4297 -0.0661
 2638SOL     OW10323   5.688   5.803   0.895 -0.7973  0.2243 -0.0378
 2638SOL    HW210324   5.745   5.750   0.839 -1.9258 -0.5190 -0.5192
 2638SOL    HW310325   5.742   5.878   0.919  0.7272 -0.9133  0.3253
 2638SOL    MW410326   5.703   5.806   0.891  0.1407 -0.3979  0.0918
 2639SOL     OW10327   0.818   3.311   4.407 -0.0006  0.0289  0.0297
 2639SOL    HW210328   0.742   3.369   4.398  0.0648  0.6162  2.4848
 2639SOL    HW310329   0.784   3.234   4.453  0.8325  0.2538  1.0634
 2639SOL    MW410330   0.803   3.309   4.412 -0.8919  0.4795 -0.2245
 2640SOL     OW10331   3.219   5.129   1.047  0.8101  0.0435  0.0043
 2640SOL    HW210332   3.166   5.065   1.092  0.9395  0.4207  0.7031
 2640SOL    HW310333   3.298   5.081   1.020  1.2928  0.0902  1.2624
 2640SOL    MW410334   3.223   5.115   1.049  0.0145 -0.7057 -0.3081
 2641SOL     OW10335   6.135   5.800   1.029 -0.0209  0.0136 -0.0336
 2641SOL    HW210336   6.207   5.823   0.970  1.1716 -1.0461  0.9510
 2641SOL    HW310337   6.168   5.820   1.116 -0.5710 -1.3012  0.5039
 2641SOL    MW410338   6.149   5.806   1.033 -0.0582 -0.2613 -0.0941
 2642SOL     OW10339   5.239   4.246   1.527  0.0341  0.1269 -0.1865
 2642SOL    HW210340   5.280   4.162   1.507  0.4538  0.2675  0.0794
 2642SOL    HW310341   5.309   4.310   1.517  0.0838  0.2780  1.0029
 2642SOL    MW410342   5.253   4.243   1.523  0.5646 -0.0841  0.2542
 2643SOL     OW10343   0.370   5.027   0.332  0.0052  0.0651 -0.2835
 2643SOL    HW210344   0.351   5.102   0.389  3.4647  0.7027  0.2333
 2643SOL    HW310345   0.393   4.957   0.393  0.9218 -0.1227 -0.8373
 2643SOL    MW410346   0.370   5.028   0.348 -0.2714 -0.8016 -0.3593
 2644SOL     OW10347   3.352   4.375   1.021 -0.0382 -0.8407  0.3517
 2644SOL    HW210348   3.414   4.350   1.090 -0.2697 -1.2465  0.4184
 2644SOL    HW310349   3.295   4.299   1.012 -1.1696 -0.0890  1.0028
 2644SOL    MW410350   3.353   4.361   1.029 -0.1619 -0.5004 -0.4964
 2645SOL     OW10351   1.279   3.125   2.702 -0.4953  0.0484 -0.1419
 2645SOL    HW210352   1.228   3.066   2.647 -0.5693  1.8804 -2.1306
 2645SOL    HW310353   1.370   3.103   2.682 -0.5229  0.5399 -0.8378
 2645SOL    MW410354   1.285   3.114   2.692 -0.1938  0.4345 -0.2302
 2646SOL     OW10355   1.690   2.109   4.649 -0.0987  0.0718 -0.6359
 2646SOL    HW210356   1.688   2.134   4.557  2.4609  0.1574 -0.7599
 2646SOL    HW310357   1.667   2.016   4.650  0.7563 -0.1753 -1.5242
 2646SOL    MW410358   1.687   2.100   4.637 -0.1252  0.5409 -0.3034
 2647SOL     OW10359   4.078   1.807   4.805 -0.0307  0.2432  0.6576
 2647SOL    HW210360   4.108   1.777   4.720 -2.4777  1.0812 -0.5969
 2647SOL    HW310361   4.014   1.876   4.786 -1.6552 -0.4206  3.0805
 2647SOL    MW410362   4.073   1.812   4.791 -0.1169 -0.0165 -0.5239
 2648SOL     OW10363   0.287   1.306   4.956  0.2829 -0.2566 -0.1449
 2648SOL    HW210364   0.250   1.332   5.041 -1.7963 -1.0055 -0.7558
 2648SOL    HW310365   0.233   1.233   4.927 -1.4080  2.0668 -3.6568
 2648SOL    MW410366   0.275   1.300   4.963  0.5848 -0.4804  0.3179
 2649SOL     OW10367   1.607   1.292   4.597  0.0307 -0.3867  0.3257
 2649SOL    HW210368   1.522   1.328   4.570  0.7515  0.3854 -1.0527
 2649SOL    HW310369   1.662   1.369   4.611  0.8568 -0.8946 -0.0307
 2649SOL    MW410370   1.603   1.307   4.595  0.1564  0.6067 -0.0717
 2650SOL     OW10371   4.325   3.017   4.805 -0.0876 -0.0624  0.7880
 2650SOL    HW210372   4.324   3.082   4.876  0.7370  0.1894  0.5836
 2650SOL    HW310373   4.404   3.038   4.755 -0.2126 -0.7654  0.2859
 2650SOL    MW410374   4.336   3.028   4.808 -0.1160 -0.1562 -0.1476
 2651SOL     OW10375   2.076   0.016   3.479  0.0550 -0.1163 -0.2007
 2651SOL    HW210376   2.142   0.010   3.410  1.4467 -1.3733  1.1354
 2651SOL    HW310377   2.020  -0.060   3.466  1.1233 -1.1256  0.7457
 2651SOL    MW410378   2.077   0.005   3.468  0.0161  0.2252 -0.1284
 2652SOL     OW10379   3.982   1.022   1.531  0.3009  0.4029 -0.1050
 2652SOL    HW210380   3.903   1.013   1.584  0.6479 -0.1447  0.3287
 2652SOL    HW310381   4.027   0.937   1.539  1.7857  1.2546  1.0214
 2652SOL    MW410382   3.978   1.010   1.539  0.6583 -0.5201 -0.7189
 2653SOL     OW10383   2.887   6.061   6.000  0.0846  0.2538  0.1489
 2653SOL    HW210384   2.866   6.128   5.935  0.3810 -0.8159 -1.0861
 2653SOL    HW310385   2.822   5.993   5.986  0.7995 -0.4613  0.2580
 2653SOL    MW410386   2.876   6.061   5.990  0.1084  0.1135  0.1937
 2654SOL     OW10387   1.646   0.793   2.498  0.0136  0.5480 -0.0470
 2654SOL    HW210388   1.662   0.741   2.419 -1.8659  0.6305 -0.5275
 2654SOL    HW310389   1.621   0.728   2.564 -2.2289  0.7352 -0.6183
 2654SOL    MW410390   1.644   0.777   2.496  0.3568  0.3692  0.1348
 2655SOL     OW10391   3.068   2.302   5.332  0.4030 -0.5524  0.0156
 2655SOL    HW210392   3.038   2.391   5.351 -0.0573 -0.6917 -0.0310
 2655SOL    HW310393   3.046   2.288   5.240  1.2125 -0.4281 -0.1993
 2655SOL    MW410394   3.061   2.312   5.322  0.6358  0.3744  0.1098
 2656SOL     OW10395   3.954   6.097   2.534  0.0423 -0.0845  0.6862
 2656SOL    HW210396   3.908   6.091   2.618 -1.2109  1.5710  0.1758
 2656SOL    HW310397   4.016   6.170   2.545  1.5945 -1.3859  0.9051
 2656SOL    MW410398   3.956   6.106   2.546  0.6534  0.4093 -0.3711
 2657SOL     OW10399   0.192   4.760   4.988  0.1088  0.2711  0.3951
 2657SOL    HW210400   0.242   4.795   4.915  0.1519 -0.0183  0.2853
 2657SOL    HW310401   0.178   4.668   4.967 -0.7863  0.4287  0.2538
 2657SOL    MW410402   0.196   4.753   4.976 -1.2133 -0.7265  0.3006
 2658SOL     OW10403   3.628   5.209   5.040  0.5114  0.5755  0.3707
 2658SOL    HW210404   3.592   5.175   4.958  1.3051  1.6946 -0.4520
 2658SOL    HW310405   3.670   5.291   5.016 -0.1301  1.4435  2.0768
 2658SOL    MW410406   3.628   5.215   5.026 -0.3256  0.3901 -0.5786
 2659SOL     OW10407   1.542   6.174   3.025  0.1384 -0.5222 -0.2376
 2659SOL    HW210408   1.606   6.245   3.025 -0.9783  0.5109 -1.0047
 2659SOL    HW310409   1.577   6.111   3.088  1.4621  0.4124  0.0039
 2659SOL    MW410410   1.555   6.175   3.033  0.0230 -0.0006  0.0388
 2660SOL     OW10411   0.814   0.917   0.515  0.8128 -0.0119  0.8567
 2660SOL    HW210412   0.830   1.011   0.512  2.2824 -0.1947  1.5169
 2660SOL    HW310413   0.787   0.893   0.426  1.6268  0.8541  0.3622
 2660SOL    MW410414   0.813   0.926   0.503 -0.6516  0.6549  0.7852
 2661SOL     OW10415   2.975   4.029   6.313 -0.6095  0.2134  0.0809
 2661SOL    HW210416   2.984   3.935   6.299 -0.8219  0.1629  0.2664
 2661SOL    HW310417   3.059   4.066   6.286 -0.5712 -0.0158 -0.1114
 2661SOL    MW410418   2.987   4.022   6.308  0.7749  0.1966 -0.2950
 2662SOL     OW10419   2.625   2.509   1.539  0.2588 -0.3100 -0.7136
 2662SOL    HW210420   2.712   2.546   1.551 -0.8838  2.2462  0.5656
 2662SOL    HW310421   2.597   2.539   1.453 -1.0936  3.0499  0.7540
 2662SOL    MW410422   2.633   2.518   1.530 -0.0941  0.2844 -0.4959
 2663SOL     OW10423   2.970   3.211   1.727  0.3920  0.2593 -0.0584
 2663SOL    HW210424   3.031   3.138   1.710 -0.9864 -1.1488  0.8390
 2663SOL    HW310425   2.962   3.254   1.642 -0.5561 -2.0747 -1.2465
 2663SOL    MW410426   2.977   3.207   1.714 -0.0200  0.4653 -0.0704
 2664SOL     OW10427   5.666   4.226   0.510  0.6559 -0.4392 -0.3971
 2664SOL    HW210428   5.598   4.161   0.529  0.5117  0.1755  1.4203
 2664SOL    HW310429   5.747   4.175   0.503  0.1841 -1.0685 -1.5711
 2664SOL    MW410430   5.668   4.211   0.512 -0.0542  0.0641  0.3102
 2665SOL     OW10431   3.910   2.448   6.340 -0.3333 -0.1882 -0.5428
 2665SOL    HW210432   3.948   2.400   6.413  2.0119 -0.3440 -1.7565
 2665SOL    HW310433   3.817   2.454   6.360  0.0983 -0.9700  1.9965
 2665SOL    MW410434   3.903   2.442   6.352  0.1136 -0.0777  0.5679
 2666SOL     OW10435   1.281   1.587   2.654 -0.1429  0.4674 -0.4659
 2666SOL    HW210436   1.260   1.501   2.618 -0.8590  0.8680 -1.0350
 2666SOL    HW310437   1.294   1.571   2.748 -1.4561 -0.0831 -0.3494
 2666SOL    MW410438   1.280   1.573   2.662 -0.2702  0.0236  0.0823
 2667SOL     OW10439   1.567   4.100   2.862 -0.6476  0.1231  0.5580
 2667SOL    HW210440   1.654   4.135   2.845 -0.5470 -0.7539 -0.9600
 2667SOL    HW310441   1.582   4.018   2.909 -0.5630 -0.5038 -0.5167
 2667SOL    MW410442   1.580   4.094   2.866 -0.1010 -0.4907  0.2060
 2668SOL     OW10443   2.149   3.186   1.501  0.4036 -0.1591  0.5037
 2668SOL    HW210444   2.196   3.204   1.582  0.8767  1.1201 -0.0321
 2668SOL    HW310445   2.193   3.109   1.464 -0.6138 -1.5324  2.0472
 2668SOL    MW410446   2.161   3.178   1.507 -0.3368 -0.3073  0.3510
 2669SOL     OW10447   0.060   0.871   0.213  0.7678 -0.4712 -0.2113
 2669SOL    HW210448   0.133   0.934   0.211 -0.8774  1.5081 -1.0025
 2669SOL    HW310449   0.022   0.874   0.126 -0.3852 -1.3476  0.2309
 2669SOL    MW410450   0.065   0.880   0.201  0.1442  0.2398 -0.3704
 2670SOL     OW10451   5.608   1.877   2.713  0.0676  0.1975 -0.4665
 2670SOL    HW210452   5.578   1.943   2.651  1.1232  0.4026 -0.7751
 2670SOL    HW310453   5.701   1.895   2.725  0.3793 -1.2294 -0.5525
 2670SOL    MW410454   5.616   1.888   2.706 -0.5720 -0.1674 -0.1665
 2671SOL     OW10455   6.353   3.556   4.619  0.4170  0.5003 -0.1263
 2671SOL    HW210456   6.443   3.565   4.589  0.3454  1.0101 -0.1934
 2671SOL    HW310457   6.360   3.534   4.711  0.6064  1.5028  0.1137
 2671SOL    MW410458   6.365   3.554   4.627  0.1895  0.5454 -0.3222
 2672SOL     OW10459   5.253   5.530   1.610 -0.7389  0.3278  0.5706
 2672SOL    HW210460   5.336   5.484   1.619 -1.5063 -1.1340  0.4630
 2672SOL    HW310461   5.278   5.621   1.596  0.8130  0.1244  1.6837
 2672SOL    MW410462   5.267   5.536   1.609  1.1576 -0.3669 -0.4695
 2673SOL     OW10463   2.178   0.343   5.606  0.4679 -0.0610  0.5279
 2673SOL    HW210464   2.231   0.413   5.642  3.1359 -2.0381  0.7325
 2673SOL    HW310465   2.108   0.329   5.670  2.4588 -0.4654  2.7196
 2673SOL    MW410466   2.176   0.350   5.619  0.3846  0.0239 -0.7737
 2674SOL     OW10467   1.497   1.521   3.470 -0.0440 -0.2846 -0.3059
 2674SOL    HW210468   1.422   1.571   3.439  0.9089  0.5151 -1.4546
 2674SOL    HW310469   1.524   1.469   3.394  0.9794 -0.0314 -0.1268
 2674SOL    MW410470   1.491   1.521   3.456 -0.0946  0.0232  0.3091
 2675SOL     OW10471   4.047   5.459   4.308  0.3008 -0.8681 -0.1645
 2675SOL    HW210472   3.964   5.449   4.263  0.1165 -1.6829  0.3274
 2675SOL    HW310473   4.034   5.415   4.392  0.4873  1.0168  0.8901
 2675SOL    MW410474   4.035   5.452   4.313 -0.2701 -0.3971  0.0373
 2676SOL     OW10475   0.525   1.851   4.808 -0.1625 -0.5253 -0.3470
 2676SOL    HW210476   0.588   1.911   4.848 -0.8826  1.1472 -1.5854
 2676SOL    HW310477   0.474   1.818   4.881  1.0529 -0.5927  0.4969
 2676SOL    MW410478   0.526   1.855   4.823 -0.5704  0.2343 -0.4272
 2677SOL     OW10479   2.527   2.706   4.370  0.5026 -0.6326 -0.0897
 2677SOL    HW210480   2.605   2.712   4.316 -0.6073 -0.3340 -1.7280
 2677SOL    HW310481   2.537   2.624   4.418  1.6317 -0.7863 -0.5638
 2677SOL    MW410482   2.539   2.696   4.370  0.0426 -0.8202  0.4426
 2678SOL     OW10483   0.801   3.670   5.241 -0.1410  0.4453 -0.0609
 2678SOL    HW210484   0.769   3.664   5.151 -1.4367 -1.1681  0.4411
 2678SOL    HW310485   0.866   3.600   5.248 -0.2793  0.3547  0.3444
 2678SOL    MW410486   0.805   3.660   5.230 -0.3347  0.4365 -0.4289
 2679SOL     OW10487   5.430   5.800   1.006 -0.3185 -0.1676 -0.7144
 2679SOL    HW210488   5.361   5.806   0.940 -0.3727 -1.4131 -0.7774
 2679SOL    HW310489   5.511   5.820   0.958 -0.3685 -0.9780 -1.1402
 2679SOL    MW410490   5.432   5.804   0.991  0.1121  0.1946  0.3509
 2680SOL     OW10491   2.560   1.133   2.285  0.2342 -0.2777 -0.3404
 2680SOL    HW210492   2.654   1.117   2.277 -0.0121 -1.1993 -1.7451
 2680SOL    HW310493   2.525   1.113   2.199 -1.2471  0.1904  0.1255
 2680SOL    MW410494   2.568   1.128   2.273 -0.2666  1.1676 -0.3599
 2681SOL     OW10495   2.327   6.050   1.907 -0.4202 -0.0074 -0.2989
 2681SOL    HW210496   2.247   6.093   1.877 -0.2730  0.7054  0.3009
 2681SOL    HW310497   2.377   6.120   1.950 -0.3571 -0.8565  1.0618
 2681SOL    MW410498   2.323   6.065   1.909 -0.4014  0.6217 -0.1234
 2682SOL     OW10499   2.259   5.328   1.588  0.6159  0.4742  0.7613
 2682SOL    HW210500   2.172   5.293   1.608  1.7470 -2.6366  0.8705
 2682SOL    HW310501   2.242   5.401   1.529 -2.0940  0.6058  1.5569
 2682SOL    MW410502   2.245   5.333   1.583 -0.3492  0.0348 -0.1481
 2683SOL     OW10503   1.427   1.591   1.900  0.0212 -0.0826  0.5280
 2683SOL    HW210504   1.395   1.660   1.958 -0.0437  0.1802  0.1862
 2683SOL    HW310505   1.443   1.636   1.817 -0.6343 -0.6046  0.1111
 2683SOL    MW410506   1.425   1.606   1.897  0.5068 -0.2158  0.0520
 2684SOL     OW10507   3.131   5.198   4.423  0.2912  0.1375 -0.2950
 2684SOL    HW210508   3.039   5.182   4.406  0.6789 -1.4782 -1.0304
 2684SOL    HW310509   3.153   5.274   4.368 -0.7767  1.1095  0.5758
 2684SOL    MW410510   3.122   5.206   4.413  0.0349  0.5809 -0.8112
 2685SOL     OW10511   0.346   5.509   1.993  0.1912 -0.0150  0.1809
 2685SOL    HW210512   0.403   5.570   2.040 -1.2905  1.6403 -0.0791
 2685SOL    HW310513   0.404   5.436   1.970  1.4716  0.1026  2.6483
 2685SOL    MW410514   0.361   5.507   1.996  0.2309 -0.8634 -0.0714
 2686SOL     OW10515   5.434   2.035   0.995  0.9754 -0.6141 -0.1182
 2686SOL    HW210516   5.400   2.010   1.081  0.5754 -1.0272 -0.3921
 2686SOL    HW310517   5.446   2.130   1.001 -0.9116 -0.3288 -0.2336
 2686SOL    MW410518   5.431   2.044   1.007 -0.3139 -0.2268  0.3379
 2687SOL     OW10519   4.496   2.688   0.675 -0.3957  0.8800  0.2083
 2687SOL    HW210520   4.564   2.678   0.609 -1.5659  1.5254 -1.1603
 2687SOL    HW310521   4.516   2.622   0.741  0.9309  0.3465 -0.6930
 2687SOL    MW410522   4.508   2.678   0.675  0.0189 -0.3664 -0.0169
 2688SOL     OW10523   6.037   0.197   0.658  0.0219  0.0134  0.3030
 2688SOL    HW210524   6.027   0.121   0.715  0.5252 -0.2368  0.0662
 2688SOL    HW310525   6.083   0.163   0.581 -1.4882  0.1349 -0.6894
 2688SOL    MW410526   6.042   0.182   0.655  0.0370 -0.2722 -0.6597
 2689SOL     OW10527   6.079   3.822   3.111 -0.0576  0.0626 -0.2340
 2689SOL    HW210528   6.008   3.801   3.172 -0.2394  0.9273 -0.1276
 2689SOL    HW310529   6.038   3.878   3.045 -0.3245 -2.3153 -2.2492
 2689SOL    MW410530   6.064   3.827   3.110  0.3148 -0.0744  0.1547
 2690SOL     OW10531   5.222   2.853   6.017 -0.5140  0.2991 -0.4014
 2690SOL    HW210532   5.229   2.902   5.935  0.4194  1.0153  0.0954
 2690SOL    HW310533   5.305   2.805   6.023 -0.3527  0.6685  0.3860
 2690SOL    MW410534   5.234   2.853   6.007 -0.2237 -0.0190 -0.2316
 2691SOL     OW10535   5.510   2.721   0.239  0.1433 -0.2232 -0.0294
 2691SOL    HW210536   5.546   2.810   0.246 -0.5902  0.0457  0.4528
 2691SOL    HW310537   5.587   2.665   0.236  0.6160  0.3933  0.2038
 2691SOL    MW410538   5.525   2.726   0.239  0.1286 -1.1160  0.0674
 2692SOL     OW10539   0.967   1.848   5.266  0.6873 -0.5632  0.3062
 2692SOL    HW210540   1.021   1.851   5.345 -0.7172 -0.4040  1.2942
 2692SOL    HW310541   0.971   1.757   5.237  1.6924 -0.4958  0.2011
 2692SOL    MW410542   0.975   1.837   5.273  0.3743 -0.4999 -0.2308
 2693SOL     OW10543   4.603   1.705   0.327 -0.3351  0.7033  0.3550
 2693SOL    HW210544   4.570   1.624   0.367  2.7700 -0.6759  0.4271
 2693SOL    HW310545   4.625   1.679   0.237  0.8006  1.4130  0.4144
 2693SOL    MW410546   4.602   1.691   0.320  0.1985 -0.0138 -0.2897
 2694SOL     OW10547   1.884   1.982   2.287  0.4282 -0.3892  0.1270
 2694SOL    HW210548   1.854   2.026   2.367  2.9300 -0.6648  1.3047
 2694SOL    HW310549   1.923   1.901   2.318  1.0185 -0.7388 -1.4562
 2694SOL    MW410550   1.885   1.977   2.302  0.0056 -0.4909 -0.7399
 2695SOL     OW10551   2.633   4.330   5.756  0.2843  0.6315 -0.0588
 2695SOL    HW210552   2.539   4.326   5.741  0.1932 -1.0940  0.6883
 2695SOL    HW310553   2.672   4.323   5.668 -0.2843  0.5359 -0.3061
 2695SOL    MW410554   2.626   4.328   5.742  0.5237 -0.2657 -0.4961
 2696SOL     OW10555   1.509   5.332   5.773  0.1746  0.0133  0.2597
 2696SOL    HW210556   1.455   5.349   5.850 -0.0993  0.8014 -0.1020
 2696SOL    HW310557   1.590   5.293   5.809  0.4922  1.3334  1.0369
 2696SOL    MW410558   1.513   5.329   5.788 -0.3610  0.5087 -0.0615
 2697SOL     OW10559   2.942   2.193   3.880  0.8452 -0.0116  0.4268
 2697SOL    HW210560   3.027   2.158   3.905  0.6790  0.4123  1.6435
 2697SOL    HW310561   2.909   2.236   3.958 -0.8994 -0.9571  0.2895
 2697SOL    MW410562   2.949   2.194   3.893 -0.5577  0.4881 -0.2579
 2698SOL     OW10563   0.953   6.303   4.733  0.7644 -0.1289 -0.5823
 2698SOL    HW210564   0.936   6.241   4.661 -1.7707 -1.7721  1.2430
 2698SOL    HW310565   0.982   6.248   4.805  0.0902  1.0354  0.6113
 2698SOL    MW410566   0.954   6.287   4.733  0.2861  0.1363 -0.0510
 2699SOL     OW10567   2.537   2.534   2.865 -0.8549  0.1519 -0.0027
 2699SOL    HW210568   2.453   2.547   2.910  0.4429 -0.1245  2.6921
 2699SOL    HW310569   2.552   2.439   2.870  0.5160  0.3966  1.4447
 2699SOL    MW410570   2.528   2.523   2.872 -0.3075 -0.3275  0.3147
 2700SOL     OW10571   0.626   3.750   5.752  0.1233  0.0732 -0.0332
 2700SOL    HW210572   0.545   3.718   5.793 -0.6879  2.7321  0.6136
 2700SOL    HW310573   0.626   3.709   5.665 -2.7865  1.1804 -0.6632
 2700SOL    MW410574   0.615   3.740   5.746  0.1984 -0.1226 -0.0771
 2701SOL     OW10575   3.913   2.035   1.201 -0.5155  0.0819  0.0630
 2701SOL    HW210576   3.989   2.012   1.147 -0.5178 -0.8989  0.4680
 2701SOL    HW310577   3.943   2.111   1.252  0.5180 -0.8311  0.8682
 2701SOL    MW410578   3.927   2.042   1.201 -0.4017  0.2428  0.5366
 2702SOL     OW10579   5.803   1.619   4.021  0.6658 -0.0358 -0.0151
 2702SOL    HW210580   5.888   1.596   3.985  0.7993  0.4068  0.0212
 2702SOL    HW310581   5.814   1.706   4.059  0.0748  0.2339 -0.4387
 2702SOL    MW410582   5.815   1.627   4.021  0.2422  0.0607  0.1691
 2703SOL     OW10583   4.315   3.410   2.671  0.0363  0.0224  0.6710
 2703SOL    HW210584   4.227   3.417   2.635  0.0589  0.5153  0.7035
 2703SOL    HW310585   4.372   3.440   2.601  0.2762 -1.3845  0.2377
 2703SOL    MW410586   4.311   3.415   2.657  0.3881 -0.0422 -0.2813
 2704SOL     OW10587   1.390   3.822   3.146  0.1615 -0.2092 -0.0031
 2704SOL    HW210588   1.354   3.822   3.235 -0.5520  0.8706 -0.2595
 2704SOL    HW310589   1.327   3.874   3.096  0.3923 -1.0592 -1.2132
 2704SOL    MW410590   1.377   3.829   3.151  0.1549 -0.6500  0.4626
 2705SOL     OW10591   2.822   2.039   5.424  0.1489 -0.0028  0.3054
 2705SOL    HW210592   2.914   2.049   5.401  0.0788  1.9518  0.6634
 2705SOL    HW310593   2.810   2.095   5.501 -1.4100  0.0638  0.0569
 2705SOL    MW410594   2.832   2.048   5.431 -0.7154 -0.2355  0.0228
 2706SOL     OW10595   5.364   4.444   2.737  0.0038  0.2968 -0.8549
 2706SOL    HW210596   5.366   4.410   2.648  0.0129 -0.6822 -0.4907
 2706SOL    HW310597   5.441   4.407   2.780  1.5226  2.8621 -1.1489
 2706SOL    MW410598   5.374   4.435   2.731  0.2985  0.5255 -0.3749
 2707SOL     OW10599   3.036   1.375   2.492 -0.1722  0.2293 -0.0131
 2707SOL    HW210600   2.999   1.442   2.434 -0.1854  0.4508  0.2474
 2707SOL    HW310601   2.965   1.312   2.504  0.6827 -1.3565 -2.5155
 2707SOL    MW410602   3.022   1.376   2.486 -0.1811 -0.0487 -0.0246
 2708SOL     OW10603   3.180   1.333   2.068  0.1530  0.3499  0.4097
 2708SOL    HW210604   3.153   1.417   2.107 -1.4799 -0.2931  0.7567
 2708SOL    HW310605   3.160   1.342   1.975  1.7155  0.9793  0.0999
 2708SOL    MW410606   3.174   1.345   2.061 -0.3406 -0.3044  0.4078
 2709SOL     OW10607   5.810   3.572   5.911  0.2954 -0.1921 -0.1467
 2709SOL    HW210608   5.722   3.585   5.876  0.0268 -0.8841  0.2482
 2709SOL    HW310609   5.866   3.562   5.833  0.1409  0.8894 -0.4078
 2709SOL    MW410610   5.806   3.572   5.896  0.1648 -0.6385  0.2138
 2710SOL     OW10611   5.645   0.147   3.921 -0.2157  0.2094 -0.1699
 2710SOL    HW210612   5.670   0.239   3.920 -0.1900  0.2624  1.7731
 2710SOL    HW310613   5.554   0.147   3.952 -0.3648 -0.3856 -0.6018
 2710SOL    MW410614   5.636   0.159   3.925 -0.0206 -0.4998 -0.5363
 2711SOL     OW10615   3.082   5.887   5.288 -0.3343 -0.0267 -0.5232
 2711SOL    HW210616   3.048   5.891   5.377 -0.1857  0.9785 -0.5053
 2711SOL    HW310617   3.077   5.977   5.256  1.2326 -0.0470 -0.9153
 2711SOL    MW410618   3.077   5.899   5.296  0.4040  0.1135 -0.0402
 2712SOL     OW10619   3.870   5.551   5.947 -0.6743 -0.0258 -0.2702
 2712SOL    HW210620   3.952   5.506   5.964 -0.8657 -0.6139 -0.8480
 2712SOL    HW310621   3.862   5.616   6.017 -0.6186 -1.1928  0.8418
 2712SOL    MW410622   3.880   5.554   5.958 -0.0833  0.1072 -0.3843
 2713SOL     OW10623   3.895   2.079   0.073  0.0577 -0.1475  0.0894
 2713SOL    HW210624   3.949   2.011   0.033 -1.1875 -1.1024 -0.0390
 2713SOL    HW310625   3.818   2.085   0.015 -0.4785  0.3945  0.8428
 2713SOL    MW410626   3.892   2.071   0.060 -0.0203 -0.7582 -0.1188
 2714SOL     OW10627   1.010   4.707   3.974  0.7416  0.4774 -0.5637
 2714SOL    HW210628   1.060   4.788   3.964  0.6244  0.8547  1.5578
 2714SOL    HW310629   1.077   4.639   3.981  0.9277  0.7553  0.4577
 2714SOL    MW410630   1.026   4.709   3.974 -0.1965  0.0359 -0.7177
 2715SOL     OW10631   3.975   5.839   0.439 -0.0753  0.4853  0.2573
 2715SOL    HW210632   4.058   5.792   0.442 -0.6669 -0.7290 -1.1583
 2715SOL    HW310633   3.930   5.802   0.364 -2.4788  0.1569  1.7628
 2715SOL    MW410634   3.980   5.828   0.430 -0.2185  0.7120  0.3929
 2716SOL     OW10635   4.162   5.797   1.019  0.2813  0.0347 -0.9368
 2716SOL    HW210636   4.214   5.876   1.037  0.4315 -0.1901 -0.3514
 2716SOL    HW310637   4.117   5.816   0.937 -0.9213  1.3864 -0.0256
 2716SOL    MW410638   4.163   5.810   1.011  0.0620  0.3646  0.3432
 2717SOL     OW10639   3.942   1.460   5.289  0.6022  0.2920 -0.1412
 2717SOL    HW210640   3.917   1.518   5.217  2.6070  0.9176 -0.3868
 2717SOL    HW310641   3.994   1.391   5.247 -1.2339 -1.3983  0.2351
 2717SOL    MW410642   3.946   1.459   5.274  0.3252 -0.3682  0.1476
 2718SOL     OW10643   0.096   3.844   2.746 -1.0327  0.1745  0.4427
 2718SOL    HW210644   0.176   3.841   2.798 -0.4870 -1.2225 -0.4148
 2718SOL    HW310645   0.038   3.903   2.793  0.0454  0.2210  1.7452
 2718SOL    MW410646   0.099   3.851   2.759  0.5222  0.0009 -0.1296
 2719SOL     OW10647   0.262   2.527   2.655 -0.2927 -0.7306  0.3334
 2719SOL    HW210648   0.178   2.492   2.686 -1.0640  0.0777 -0.7508
 2719SOL    HW310649   0.259   2.514   2.560  0.8991 -0.8392  0.2953
 2719SOL    MW410650   0.250   2.521   2.646 -0.2534 -0.3166  0.2389
 2720SOL     OW10651   2.968   6.052   3.638  0.3572 -0.4877  0.7266
 2720SOL    HW210652   2.912   6.030   3.713 -1.1868 -1.1290 -0.5578
 2720SOL    HW310653   2.910   6.099   3.578  2.1844  2.2791  0.9529
 2720SOL    MW410654   2.953   6.056   3.640  0.2222  0.3476  0.0998
 2721SOL     OW10655   0.729   0.792   5.488 -0.0428  0.3882  0.1519
 2721SOL    HW210656   0.819   0.824   5.475  0.1859 -0.7717 -1.4239
 2721SOL    HW310657   0.679   0.871   5.508  1.0968  1.2352 -0.1817
 2721SOL    MW410658   0.735   0.807   5.489  0.2897 -0.0765 -0.3856
 2722SOL     OW10659   4.155   3.957   4.044 -0.0537  0.1747 -0.1018
 2722SOL    HW210660   4.148   4.043   4.004  0.4315 -0.3836 -1.4501
 2722SOL    HW310661   4.066   3.921   4.039 -0.2782  0.6284  0.5595
 2722SOL    MW410662   4.142   3.963   4.038 -0.3305  0.3030  0.2948
 2723SOL     OW10663   0.774   1.432   1.950 -0.2462  0.1616  0.6935
 2723SOL    HW210664   0.779   1.436   1.855  2.9590  0.0386  0.7271
 2723SOL    HW310665   0.766   1.523   1.978 -3.8145  0.0796  0.3885
 2723SOL    MW410666   0.774   1.444   1.941 -0.1654 -0.3358 -0.3052
 2724SOL     OW10667   4.567   3.127   4.649  0.1889  0.4619 -0.2606
 2724SOL    HW210668   4.539   3.062   4.584 -1.6643  0.3368  0.5985
 2724SOL    HW310669   4.625   3.079   4.708 -2.4885 -1.0071  1.3809
 2724SOL    MW410670   4.571   3.112   4.648 -0.3441 -0.6023  0.4297
 2725SOL     OW10671   0.904   5.176   6.099 -0.3658  0.1937 -0.4995
 2725SOL    HW210672   0.817   5.158   6.135  0.1790 -1.4030  0.1008
 2725SOL    HW310673   0.929   5.093   6.057  1.1460  0.4158 -0.0590
 2725SOL    MW410674   0.896   5.162   6.098  0.5105  0.2173  0.0726
 2726SOL     OW10675   5.298   3.203   1.287 -0.5924 -0.3937  0.4135
 2726SOL    HW210676   5.349   3.284   1.281 -0.9005 -0.2987 -1.7406
 2726SOL    HW310677   5.350   3.145   1.343  0.0707  0.9487  1.2413
 2726SOL    MW410678   5.312   3.206   1.294  0.3807  0.0054 -0.2165
 2727SOL     OW10679   2.626   2.636   5.847  0.3256  0.4639  0.3774
 2727SOL    HW210680   2.660   2.643   5.937 -1.3009 -1.8785  1.2800
 2727SOL    HW310681   2.545   2.687   5.848 -0.6602 -1.0309  0.8587
 2727SOL    MW410682   2.620   2.644   5.859  0.1681 -0.0627  0.1114
 2728SOL     OW10683   1.957   0.379   4.331  0.1696  0.4489 -0.6509
 2728SOL    HW210684   1.985   0.411   4.245  1.4263  1.1124 -0.0170
 2728SOL    HW310685   1.869   0.415   4.343  1.1504  2.9304 -0.3772
 2728SOL    MW410686   1.949   0.388   4.321 -0.6596 -0.7686  0.5192
 2729SOL     OW10687   1.782   4.445   2.247 -0.4540 -0.8819  0.0610
 2729SOL    HW210688   1.752   4.358   2.275 -1.7044 -0.1114  1.2789
 2729SOL    HW310689   1.801   4.435   2.154 -1.0700 -2.3392  0.0602
 2729SOL    MW410690   1.781   4.432   2.239 -0.9720 -0.4519 -1.0279
 2730SOL     OW10691   3.487   0.245   0.538 -0.0217  0.6095  0.0423
 2730SOL    HW210692   3.450   0.209   0.457  1.9825  0.8703 -1.0876
 2730SOL    HW310693   3.419   0.233   0.604 -0.9500 -1.5389 -1.1938
 2730SOL    MW410694   3.473   0.239   0.536 -0.4341  0.0495  0.0765
 2731SOL     OW10695   1.636   6.180   6.309 -0.4403 -0.3390  0.0458
 2731SOL    HW210696   1.698   6.128   6.258  0.2754  0.9953 -0.4756
 2731SOL    HW310697   1.683   6.202   6.389  0.3577  1.9148 -0.9780
 2731SOL    MW410698   1.650   6.176   6.313 -0.0942 -0.1224  0.5974
 2732SOL     OW10699   5.035   2.529   1.907  0.2403 -0.0005  0.1686
 2732SOL    HW210700   4.960   2.561   1.957 -0.5990 -1.4036 -0.1472
 2732SOL    HW310701   5.097   2.602   1.908 -0.4403  0.6060  1.8286
 2732SOL    MW410702   5.033   2.543   1.914  0.2759  0.0162  0.1213
 2733SOL     OW10703   3.409   6.183   0.467  0.4892 -0.1923  0.2350
 2733SOL    HW210704   3.333   6.147   0.511  0.6769  2.0056  2.6191
 2733SOL    HW310705   3.377   6.263   0.424  1.1322 -0.1580 -0.2013
 2733SOL    MW410706   3.395   6.189   0.467  0.0558  0.0374 -0.3882
 2734SOL     OW10707   0.461   2.747   0.086  0.5812  0.3284 -0.3564
 2734SOL    HW210708   0.394   2.683   0.062 -1.6048  2.3932 -0.1890
 2734SOL    HW310709   0.456   2.814   0.017  0.8316  1.6760  0.8836
 2734SOL    MW410710   0.452   2.748   0.073 -0.7345 -0.3658 -0.9192
 2735SOL     OW10711   3.004   4.458   3.486  0.0268  0.0831  0.3775
 2735SOL    HW210712   3.039   4.425   3.568  0.7918  2.2187  0.9774
 2735SOL    HW310713   3.050   4.408   3.418  0.2752 -0.8581  1.2152
 2735SOL    MW410714   3.015   4.447   3.488  0.3732 -0.0525 -0.2666
 2736SOL     OW10715   0.810   0.411   5.681  0.3353 -0.0219  0.1701
 2736SOL    HW210716   0.841   0.363   5.758  0.9104 -0.0861 -0.0953
 2736SOL    HW310717   0.798   0.501   5.712 -0.3058 -0.2305  0.5560
 2736SOL    MW410718   0.812   0.416   5.695 -1.0127  0.3661  0.7026
 2737SOL     OW10719   3.138   1.302   0.151  0.4007 -0.2498 -0.1457
 2737SOL    HW210720   3.050   1.323   0.120  0.8816  1.9639 -0.2003
 2737SOL    HW310721   3.154   1.363   0.223  2.3655  0.3772 -1.0319
 2737SOL    MW410722   3.128   1.313   0.156  0.0977  0.1375 -0.7111
 2738SOL     OW10723   1.675   2.992   4.884  0.4763  0.0380  0.3423
 2738SOL    HW210724   1.754   2.944   4.858 -0.7551 -1.6337 -0.5376
 2738SOL    HW310725   1.624   2.999   4.803 -1.0773 -0.5172  1.2390
 2738SOL    MW410726   1.678   2.987   4.870 -0.5959  0.0898  0.3711
 2739SOL     OW10727   2.578   5.139   4.113 -0.2829 -0.4154 -0.0730
 2739SOL    HW210728   2.638   5.207   4.083 -0.2096 -0.1139  0.7323
 2739SOL    HW310729   2.597   5.063   4.057  0.6698 -0.2385  0.0052
 2739SOL    MW410730   2.588   5.138   4.102  0.0385 -0.3291 -0.0205
 2740SOL     OW10731   1.247   5.660   5.379 -0.3219 -0.1877  0.4455
 2740SOL    HW210732   1.184   5.634   5.312 -0.4823  1.1893  0.0256
 2740SOL    HW310733   1.226   5.605   5.454 -0.7053 -1.1462 -0.3467
 2740SOL    MW410734   1.236   5.649   5.380 -0.4859  0.0088  0.0894
 2741SOL     OW10735   3.541   5.283   1.387 -0.4412  0.4637 -0.1954
 2741SOL    HW210736   3.496   5.270   1.304 -0.1316  1.4746 -0.5467
 2741SOL    HW310737   3.509   5.213   1.444  1.3192 -1.9283 -1.9402
 2741SOL    MW410738   3.531   5.272   1.384  0.4410  0.1792 -0.3066
 2742SOL     OW10739   0.243   2.582   1.477 -0.0235  0.1029 -0.4123
 2742SOL    HW210740   0.302   2.618   1.411 -0.6582 -0.2860 -1.2166
 2742SOL    HW310741   0.169   2.547   1.426 -0.0046 -1.2188  0.4095
 2742SOL    MW410742   0.241   2.582   1.462 -0.2296  0.2121 -0.5807
 2743SOL     OW10743   4.664   1.388   2.153 -0.7761  0.0831 -0.1837
 2743SOL    HW210744   4.616   1.465   2.122 -0.6167  1.0862  1.8535
 2743SOL    HW310745   4.672   1.332   2.076 -0.3335  2.3760 -1.9216
 2743SOL    MW410746   4.659   1.391   2.139 -0.2716  0.2963  0.0920
 2744SOL     OW10747   1.590   2.775   0.426 -0.0344 -0.4468 -0.5880
 2744SOL    HW210748   1.587   2.720   0.504  2.6591  0.7801  0.4816
 2744SOL    HW310749   1.646   2.727   0.365  1.1539  0.4070 -0.1944
 2744SOL    MW410750   1.597   2.761   0.428  0.3399 -0.5549  0.6270
 2745SOL     OW10751   3.625   2.571   2.087  0.0099 -0.6822 -0.6569
 2745SOL    HW210752   3.705   2.579   2.138 -0.2090 -0.9276 -0.2691
 2745SOL    HW310753   3.642   2.622   2.008 -0.1876  1.0259  0.3251
 2745SOL    MW410754   3.638   2.579   2.084 -0.5202  0.5411 -0.4405
 2746SOL     OW10755   2.801   6.228   5.795 -0.1287 -0.1750  0.0589
 2746SOL    HW210756   2.726   6.270   5.837  0.3326  0.2500  0.4828
 2746SOL    HW310757   2.856   6.301   5.766  0.1662 -0.4796 -0.1569
 2746SOL    MW410758   2.798   6.244   5.797  0.1018  0.2351 -0.1798
 2747SOL     OW10759   3.088   3.033   2.019  0.0952 -0.5272  0.2538
 2747SOL    HW210760   3.012   3.078   2.057  0.2054  0.5618 -0.7508
 2747SOL    HW310761   3.058   2.943   2.004 -0.9912 -0.1249 -0.0893
 2747SOL    MW410762   3.074   3.027   2.022 -0.0007  0.7849  0.1068
 2748SOL     OW10763   4.294   0.847   5.052 -0.1458  0.0119  0.3439
 2748SOL    HW210764   4.289   0.903   5.130  0.5575  0.1931  0.2626
 2748SOL    HW310765   4.225   0.881   4.995 -2.9797 -2.2046  2.1889
 2748SOL    MW410766   4.284   0.859   5.055  0.2221  0.6476 -0.3704
 2749SOL     OW10767   5.477   5.455   0.861 -0.1764 -0.8871  0.4515
 2749SOL    HW210768   5.450   5.521   0.924 -3.7925 -0.6113 -1.1458
 2749SOL    HW310769   5.425   5.377   0.883 -0.3872 -1.2589 -1.1924
 2749SOL    MW410770   5.467   5.453   0.872  0.2973  0.8481  0.0075
 2750SOL     OW10771   0.853   3.458   1.093  0.8115  0.1641 -0.1297
 2750SOL    HW210772   0.808   3.537   1.064 -1.5684 -1.3192 -0.7433
 2750SOL    HW310773   0.783   3.397   1.117  2.5696 -1.3873  1.4353
 2750SOL    MW410774   0.838   3.460   1.092  0.2510 -0.0583  0.1930
 2751SOL     OW10775   5.624   2.467   2.075  0.1171  0.4361  0.3651
 2751SOL    HW210776   5.718   2.483   2.083  0.0719  0.8673  0.0758
 2751SOL    HW310777   5.607   2.393   2.133  0.3947  1.2310  1.4936
 2751SOL    MW410778   5.634   2.459   2.084  0.1217 -0.1511  0.5612
 2752SOL     OW10779   4.222   1.207   2.772  0.2952 -0.0713 -0.0377
 2752SOL    HW210780   4.160   1.134   2.776  0.7076 -0.4315 -0.1874
 2752SOL    HW310781   4.297   1.173   2.723  1.3704 -0.2001  1.6250
 2752SOL    MW410782   4.224   1.193   2.766 -0.1990  0.0912  0.3777
 2753SOL     OW10783   4.058   3.536   0.132  0.2689  0.3500 -0.3618
 2753SOL    HW210784   4.032   3.604   0.070 -0.1066 -0.5383 -1.1931
 2753SOL    HW310785   4.136   3.496   0.094  1.6816  1.5793  1.0841
 2753SOL    MW410786   4.065   3.540   0.119 -0.1424 -0.1398 -0.3278
 2754SOL     OW10787   5.493   1.275   2.312  0.4400  0.5176  0.0147
 2754SOL    HW210788   5.412   1.318   2.284  1.2941  1.8961 -0.4307
 2754SOL    HW310789   5.552   1.285   2.238  0.7809 -1.2081  0.0164
 2754SOL    MW410790   5.490   1.282   2.299  0.3289  0.4610 -0.1580
 2755SOL     OW10791   5.820   2.033  -0.031  0.0584 -0.5669 -0.0924
 2755SOL    HW210792   5.867   1.972   0.025  1.4253  0.6205  0.0908
 2755SOL    HW310793   5.770   2.088   0.029 -0.0002 -0.5319 -0.1715
 2755SOL    MW410794   5.819   2.032  -0.016 -0.4581  0.1230 -0.2666
 2756SOL     OW10795   5.397   4.750   2.033 -0.6295  0.2087 -0.1790
 2756SOL    HW210796   5.356   4.663   2.027 -1.8984  0.8003 -0.3835
 2756SOL    HW310797   5.443   4.761   1.950  0.0841 -0.5172  0.1044
 2756SOL    MW410798   5.397   4.740   2.021  0.3519 -0.3879  0.2397
 2757SOL     OW10799   2.344   4.438   2.516  0.8089 -0.2100  0.0913
 2757SOL    HW210800   2.366   4.366   2.456 -0.0396 -0.3891 -0.0205
 2757SOL    HW310801   2.413   4.437   2.581  1.6701 -0.1135 -0.8068
 2757SOL    MW410802   2.356   4.428   2.517 -0.3896  0.3075  0.1421
 2758SOL     OW10803   4.424   1.595   3.621 -0.1624 -0.3658  0.0818
 2758SOL    HW210804   4.435   1.591   3.526 -0.6930  0.4181 -0.0173
 2758SOL    HW310805   4.329   1.601   3.633 -0.0854 -0.3093  0.6638
 2758SOL    MW410806   4.413   1.595   3.610 -0.0430 -0.2482 -0.0115
 2759SOL     OW10807   4.692   4.676   5.279  0.6316 -0.2685  0.1695
 2759SOL    HW210808   4.620   4.680   5.216 -0.0901 -0.4851  0.9550
 2759SOL    HW310809   4.649   4.664   5.364  1.6255 -1.3367  0.5543
 2759SOL    MW410810   4.677   4.675   5.282  0.1751  0.0942 -0.0414
 2760SOL     OW10811   1.536   3.987   5.749 -0.3140 -0.2568  0.1789
 2760SOL    HW210812   1.575   3.993   5.837 -0.1634  0.0622  0.0916
 2760SOL    HW310813   1.444   4.010   5.763 -0.2449  0.0045  0.2227
 2760SOL    MW410814   1.529   3.991   5.763  0.4178 -0.2110 -0.2784
 2761SOL     OW10815   0.889   1.766   3.646  0.2680  0.2056  0.1491
 2761SOL    HW210816   0.815   1.743   3.589  0.1824 -0.3543  0.4849
 2761SOL    HW310817   0.893   1.695   3.710  1.4336 -0.0407 -0.1791
 2761SOL    MW410818   0.879   1.754   3.647  0.4428 -0.2390  0.9207
 2762SOL     OW10819   2.864   4.854   2.820  0.3018  0.0261  0.3977
 2762SOL    HW210820   2.819   4.770   2.815 -0.8710  0.4990  2.2617
 2762SOL    HW310821   2.954   4.834   2.794  0.2849 -1.9965  1.6805
 2762SOL    MW410822   2.870   4.840   2.816  0.7500 -0.3642 -0.1658
 2763SOL     OW10823   6.376   4.578   4.071  0.5599  0.4516 -0.1210
 2763SOL    HW210824   6.440   4.624   4.125 -1.3434  2.3178  0.6971
 2763SOL    HW310825   6.391   4.611   3.982  0.2816  1.4342  0.1908
 2763SOL    MW410826   6.387   4.588   4.066  0.5071  0.1035  0.4278
 2764SOL     OW10827   5.037   0.045   5.012  0.1928  0.0366  0.7696
 2764SOL    HW210828   5.120   0.054   5.059  0.5459 -0.9148  0.3410
 2764SOL    HW310829   5.060  -0.001   4.932 -0.6978  0.1064  0.4674
 2764SOL    MW410830   5.051   0.040   5.008  0.5277 -0.1365 -0.2136
 2765SOL     OW10831   0.533   3.978   0.935 -0.0607  0.0604 -0.3221
 2765SOL    HW210832   0.627   3.963   0.924  0.1049 -0.0102  1.0166
 2765SOL    HW310833   0.521   4.071   0.916  0.3061  0.1113 -0.3057
 2765SOL    MW410834   0.544   3.988   0.931  0.5427 -0.2144 -0.4100
 2766SOL     OW10835   3.969   5.582   0.759 -0.1406  0.1065 -0.2637
 2766SOL    HW210836   4.042   5.583   0.821 -0.8077 -0.2323  0.5399
 2766SOL    HW310837   3.891   5.591   0.813 -0.7724 -0.7303 -1.0022
 2766SOL    MW410838   3.969   5.583   0.774  0.4537  0.2482  0.2438
 2767SOL     OW10839   5.150   1.752   1.677  0.1715  0.5653  0.2609
 2767SOL    HW210840   5.086   1.727   1.611  1.4097  0.3780 -0.9174
 2767SOL    HW310841   5.166   1.845   1.661 -1.3652  1.2003  1.9731
 2767SOL    MW410842   5.144   1.761   1.666 -0.1573  0.4853  0.5854
 2768SOL     OW10843   3.419   0.660   1.051 -0.0262  0.2490 -0.9565
 2768SOL    HW210844   3.349   0.707   1.097  0.9592  0.5123  0.3356
 2768SOL    HW310845   3.434   0.711   0.972  0.9370  2.0827  0.3594
 2768SOL    MW410846   3.411   0.673   1.047 -0.4082  0.3023  0.3866
 2769SOL     OW10847   0.551   2.664   6.005 -0.4269 -0.3801 -0.1903
 2769SOL    HW210848   0.472   2.630   6.046 -0.0672  1.4218  2.1832
 2769SOL    HW310849   0.577   2.595   5.943 -3.3108 -1.3945 -0.4290
 2769SOL    MW410850   0.544   2.651   6.002  0.3261 -0.2963  0.3012
 2770SOL     OW10851   1.970   5.257   1.676 -0.2371  0.0020  0.2728
 2770SOL    HW210852   1.955   5.294   1.763 -1.5339  0.1826 -0.0019
 2770SOL    HW310853   1.898   5.291   1.623  0.6342  0.0356 -0.9217
 2770SOL    MW410854   1.959   5.266   1.681  0.4469 -0.2865 -0.3045
 2771SOL     OW10855   3.884   3.775   2.377 -0.1645 -0.2298 -0.3061
 2771SOL    HW210856   3.876   3.683   2.350 -1.5189 -0.1609 -0.2044
 2771SOL    HW310857   3.935   3.816   2.306  0.0880 -0.9587 -0.5599
 2771SOL    MW410858   3.890   3.768   2.364 -0.3160 -1.1023 -0.6670
 2772SOL     OW10859   6.224   6.076   5.511  0.0178  0.0688 -0.1078
 2772SOL    HW210860   6.177   6.144   5.463  0.7153  1.0722  0.6151
 2772SOL    HW310861   6.180   6.070   5.595  0.5611  0.3077  0.1957
 2772SOL    MW410862   6.212   6.084   5.516  0.0868 -0.0709  0.7405
 2773SOL     OW10863   3.692   3.627   3.998  0.6843  0.4278 -0.2183
 2773SOL    HW210864   3.776   3.588   3.973  0.2913 -0.0019 -0.9180
 2773SOL    HW310865   3.664   3.675   3.920 -0.6368 -1.0419 -0.6857
 2773SOL    MW410866   3.699   3.628   3.984  0.0902  0.0695 -0.8728
 2774SOL     OW10867   3.467   1.242   3.483 -0.3186 -0.7487  0.4065
 2774SOL    HW210868   3.413   1.232   3.405 -1.3283  2.8169  0.4989
 2774SOL    HW310869   3.405   1.233   3.556 -0.6430  1.8551  0.5450
 2774SOL    MW410870   3.452   1.239   3.482 -0.0567 -0.2540  0.3757
 2775SOL     OW10871   1.039   3.748   2.948 -0.2298 -0.1093  0.1407
 2775SOL    HW210872   1.058   3.840   2.933  1.1761 -0.4896 -0.5435
 2775SOL    HW310873   1.034   3.740   3.044 -0.7667  0.7291  0.1973
 2775SOL    MW410874   1.040   3.759   2.959 -0.3145  0.2946 -0.3929
 2776SOL     OW10875   4.140   5.894   3.282 -0.3806 -0.1565  0.8375
 2776SOL    HW210876   4.120   5.904   3.189  0.5751  0.4618  0.6744
 2776SOL    HW310877   4.197   5.817   3.286 -0.2712 -0.0740  0.8794
 2776SOL    MW410878   4.145   5.885   3.270  0.1531 -0.4052  0.5507
 2777SOL     OW10879   3.108   0.943   5.601 -0.4392  0.4559 -0.0626
 2777SOL    HW210880   3.025   0.896   5.589  0.7080 -1.3831 -1.3901
 2777SOL    HW310881   3.088   1.009   5.667 -2.8029 -0.3026  0.1118
 2777SOL    MW410882   3.094   0.945   5.608  0.2782 -0.5265 -0.4470
 2778SOL     OW10883   3.772   3.037   2.677  0.3977  0.3710 -0.4897
 2778SOL    HW210884   3.738   3.050   2.588  2.6018  0.2341 -1.4174
 2778SOL    HW310885   3.788   2.942   2.682  0.8048  0.4556 -0.1558
 2778SOL    MW410886   3.770   3.026   2.666 -0.0723 -0.8634 -0.1287
 2779SOL     OW10887   5.167   3.270   2.556  0.3002 -0.0285  0.2463
 2779SOL    HW210888   5.221   3.206   2.508 -0.6933  0.0919 -1.0950
 2779SOL    HW310889   5.098   3.293   2.494 -0.4446  0.9282  1.4075
 2779SOL    MW410890   5.165   3.264   2.541 -0.0294  0.0716 -0.0567
 2780SOL     OW10891   2.457   2.888   4.566  0.9521  0.7045  0.1112
 2780SOL    HW210892   2.524   2.956   4.575  0.9405  0.8465 -0.7921
 2780SOL    HW310893   2.486   2.836   4.490  0.0333  0.7808 -0.3068
 2780SOL    MW410894   2.470   2.890   4.557  0.1562 -0.5505 -0.3622
 2781SOL     OW10895   4.891   4.220   4.822  0.5772  0.5186 -0.0507
 2781SOL    HW210896   4.863   4.309   4.842 -0.5966 -0.2566  1.9621
 2781SOL    HW310897   4.830   4.190   4.755 -0.1921  0.6147  0.5940
 2781SOL    MW410898   4.879   4.228   4.816 -0.3112 -0.1436 -0.3458
 2782SOL     OW10899   3.298   6.354   4.160  0.1818  0.3157  0.0411
 2782SOL    HW210900   3.287   6.340   4.066 -0.0685 -0.9164  0.2419
 2782SOL    HW310901   3.393   6.357   4.173  0.2271 -0.1972 -0.1595
 2782SOL    MW410902   3.309   6.353   4.150 -0.1523 -0.5885 -0.2890
 2783SOL     OW10903   3.987   3.040   2.237  0.0612  0.6428 -0.0745
 2783SOL    HW210904   4.006   3.062   2.328  0.1066 -0.8572  0.3100
 2783SOL    HW310905   4.070   3.007   2.203 -0.1458  0.4872 -0.4315
 2783SOL    MW410906   4.000   3.039   2.245  0.1955  0.7104 -0.0863
 2784SOL     OW10907   2.779   4.972   1.984  0.0962  0.4600  0.0272
 2784SOL    HW210908   2.710   4.912   1.955  0.8153 -0.1446 -0.4532
 2784SOL    HW310909   2.846   4.915   2.021 -0.2585  1.1271  1.8145
 2784SOL    MW410910   2.778   4.956   1.985 -0.0952 -0.3399  0.6302
 2785SOL     OW10911   6.330   4.542   1.584  0.5715 -0.6611  0.5297
 2785SOL    HW210912   6.297   4.455   1.560 -1.4796  0.2136 -0.0866
 2785SOL    HW310913   6.256   4.583   1.629  1.4195  0.8593  0.5715
 2785SOL    MW410914   6.316   4.536   1.587  0.0210  0.1712  0.1815
 2786SOL     OW10915   5.019   5.941   0.571  0.8649 -0.5604 -0.0520
 2786SOL    HW210916   5.043   5.870   0.511  1.7345  0.0881 -0.4828
 2786SOL    HW310917   4.950   5.988   0.524 -0.1716 -1.4734  0.5054
 2786SOL    MW410918   5.013   5.937   0.557  0.2162  0.0534  0.3280
 2787SOL     OW10919   1.685   3.145   6.190  0.3487  0.1241 -0.1168
 2787SOL    HW210920   1.727   3.208   6.132  0.2898  0.6106  0.3524
 2787SOL    HW310921   1.673   3.066   6.137 -0.3296  0.7773 -0.9670
 2787SOL    MW410922   1.689   3.143   6.176 -0.2454  0.4727  0.3279
 2788SOL     OW10923   3.565   4.306   3.214  0.8897 -0.1320 -0.1330
 2788SOL    HW210924   3.556   4.324   3.308 -0.7497  1.5015 -0.5647
 2788SOL    HW310925   3.576   4.391   3.173 -0.0388 -0.6627 -1.5800
 2788SOL    MW410926   3.565   4.319   3.221 -0.0832  0.5528  0.9114
 2789SOL     OW10927   1.459   0.937   1.984  0.3870 -0.2694 -0.1972
 2789SOL    HW210928   1.496   1.023   2.004 -0.1828  0.0548 -0.5272
 2789SOL    HW310929   1.406   0.951   1.906 -0.4972 -0.7073  0.3076
 2789SOL    MW410930   1.457   0.950   1.976  0.3663  0.3914  0.0852
 2790SOL     OW10931   4.552   1.291   3.313  0.2654 -0.1217  0.7474
 2790SOL    HW210932   4.532   1.384   3.314  1.7045  0.2903 -1.2624
 2790SOL    HW310933   4.515   1.260   3.230  0.4088 -1.1896  1.0700
 2790SOL    MW410934   4.544   1.299   3.302  0.1016  0.0217 -0.0880
 2791SOL     OW10935   4.360   2.787   4.961 -0.2096  0.1970  0.1287
 2791SOL    HW210936   4.338   2.843   5.036 -0.2498  0.0569  0.2213
 2791SOL    HW310937   4.329   2.836   4.885 -1.7396 -0.4129  0.3065
 2791SOL    MW410938   4.353   2.801   4.961 -0.4050 -0.1314 -0.1424
 2792SOL     OW10939   6.106   5.395   1.221  0.2142 -0.1107  0.4015
 2792SOL    HW210940   6.045   5.429   1.156  0.2007  0.0807  0.5146
 2792SOL    HW310941   6.104   5.459   1.293 -0.0288 -0.4910  0.7411
 2792SOL    MW410942   6.097   5.408   1.222  0.1143 -0.2335 -0.0321
 2793SOL     OW10943   4.304   4.607   3.519 -0.4561  0.4157 -0.5981
 2793SOL    HW210944   4.252   4.652   3.453 -0.7836  0.5453 -0.2551
 2793SOL    HW310945   4.390   4.648   3.514 -1.3125  2.6176  1.1784
 2793SOL    MW410946   4.308   4.618   3.509 -0.2430 -0.0982  0.0433
 2794SOL     OW10947   1.168   5.042   4.241 -0.3252 -0.3001  0.4963
 2794SOL    HW210948   1.150   5.027   4.334 -2.4499 -1.0749  0.0232
 2794SOL    HW310949   1.215   4.964   4.212 -2.3953 -1.5501  0.2938
 2794SOL    MW410950   1.172   5.030   4.250 -0.5577  0.2313 -0.0848
 2795SOL     OW10951   3.248   0.555   5.003  0.1815 -0.3434 -0.4152
 2795SOL    HW210952   3.276   0.533   4.915 -3.4468 -0.5051 -1.6904
 2795SOL    HW310953   3.261   0.650   5.009 -0.7363 -0.1039 -1.6915
 2795SOL    MW410954   3.253   0.565   4.992 -0.0808  0.0177 -0.3103
 2796SOL     OW10955   4.573   4.885   0.302 -0.1031  0.1702 -0.2636
 2796SOL    HW210956   4.501   4.837   0.261  1.5678 -1.8180 -1.0322
 2796SOL    HW310957   4.561   4.872   0.396 -0.1730 -1.0543 -0.4318
 2796SOL    MW410958   4.562   4.877   0.309 -0.0424 -0.3446 -0.1950
 2797SOL     OW10959   6.007   4.387   5.021  0.1441  0.4142  0.0367
 2797SOL    HW210960   5.933   4.420   4.970 -0.2210  0.8780  0.8411
 2797SOL    HW310961   6.059   4.337   4.959 -0.4518  0.7119 -0.7149
 2797SOL    MW410962   6.004   4.385   5.006  0.6166 -0.2550  0.0960
 2798SOL     OW10963   2.038   1.189   2.179  0.3501 -0.4071  0.1014
 2798SOL    HW210964   1.988   1.165   2.102  1.4367 -0.3759 -0.6312
 2798SOL    HW310965   2.044   1.285   2.175  0.3774 -0.4013  0.2511
 2798SOL    MW410966   2.032   1.199   2.169  0.6586  0.0939 -0.2667
 2799SOL     OW10967   5.228   6.040   4.247 -0.1372 -0.2678 -0.3107
 2799SOL    HW210968   5.179   6.121   4.238 -0.4042 -0.4422 -0.4138
 2799SOL    HW310969   5.165   5.977   4.283  0.3164 -0.1698  0.7173
 2799SOL    MW410970   5.214   6.042   4.251 -0.4655  0.3100  0.5526
 2800SOL     OW10971   2.814   4.019   1.127  0.2192 -0.1644 -0.0587
 2800SOL    HW210972   2.874   4.086   1.160 -0.1750 -0.0994  0.5499
 2800SOL    HW310973   2.740   4.022   1.187 -0.2443 -0.4772 -0.6042
 2800SOL    MW410974   2.812   4.028   1.139 -0.2902  0.6498 -0.8705
 2801SOL     OW10975   2.234   0.855   3.487 -0.8164 -0.0532  0.0544
 2801SOL    HW210976   2.315   0.821   3.525 -2.2641 -3.6074  0.3784
 2801SOL    HW310977   2.249   0.850   3.392  0.2328  1.9829  0.0529
 2801SOL    MW410978   2.246   0.850   3.479  0.5718 -0.4117 -0.1789
 2802SOL     OW10979   4.124   0.386   1.009  0.1995  0.2068  0.4606
 2802SOL    HW210980   4.166   0.346   1.084 -1.3761  0.4668  1.5303
 2802SOL    HW310981   4.175   0.465   0.992  1.3361 -0.5200  0.4202
 2802SOL    MW410982   4.136   0.391   1.016 -0.2055 -0.4624 -0.0008
 2803SOL     OW10983   1.119   3.299   0.235  0.2630 -0.2485  0.4484
 2803SOL    HW210984   1.162   3.352   0.168  0.6555 -1.4866 -0.3107
 2803SOL    HW310985   1.075   3.363   0.292  0.0498  0.8326 -0.8838
 2803SOL    MW410986   1.119   3.315   0.234  0.6937  0.0992 -0.2109
 2804SOL     OW10987   0.304   0.693   4.156 -0.1637  0.9373  0.5035
 2804SOL    HW210988   0.269   0.781   4.146 -1.9922  0.2280  0.1555
 2804SOL    HW310989   0.229   0.636   4.138  0.5127 -0.6629  2.3659
 2804SOL    MW410990   0.289   0.697   4.152 -0.0548 -0.1287  0.2815
 2805SOL     OW10991   0.381   2.661   3.229  0.5566 -0.3583 -0.0022
 2805SOL    HW210992   0.291   2.692   3.228 -0.3184 -2.6574  0.3348
 2805SOL    HW310993   0.378   2.577   3.184  1.8297 -2.1127  2.8515
 2805SOL    MW410994   0.369   2.654   3.223 -0.3901 -0.2135 -0.3128
 2806SOL     OW10995   2.880   2.283   3.616 -0.1507  0.0704 -0.3604
 2806SOL    HW210996   2.914   2.253   3.701  2.5085 -0.6101 -1.5654
 2806SOL    HW310997   2.939   2.246   3.552 -1.5762  1.2926 -2.5014
 2806SOL    MW410998   2.892   2.274   3.619  0.3086 -0.3732  0.2551
 2807SOL     OW10999   2.092   2.654   2.889 -0.0669 -0.2880  0.4041
 2807SOL    HW211000   2.050   2.710   2.954  0.1504  1.8921 -1.2125
 2807SOL    HW311001   2.147   2.713   2.839  1.6310 -2.3207 -0.2738
 2807SOL    MW411002   2.094   2.669   2.891 -0.4019 -0.5399 -0.0560
 2808SOL     OW11003   5.270   1.671   4.560 -0.4438 -0.1298 -0.2766
 2808SOL    HW211004   5.242   1.581   4.542 -0.9149 -0.0581  0.0801
 2808SOL    HW311005   5.237   1.722   4.485 -1.1256 -0.0756  0.0555
 2808SOL    MW411006   5.262   1.666   4.548 -0.0556  0.4186  0.1845
 2809SOL     OW11007   3.897   4.243   0.802 -0.0583  0.0581  0.0193
 2809SOL    HW211008   3.830   4.194   0.849  1.1798  0.4285  2.3053
 2809SOL    HW311009   3.850   4.318   0.765 -0.7016  1.2651  3.0541
 2809SOL    MW411010   3.882   4.247   0.803 -0.4218 -0.1769 -0.5259
 2810SOL     OW11011   0.020   2.462   2.031  0.5417  0.0823 -0.1808
 2810SOL    HW211012   0.049   2.553   2.044 -0.3481  0.3590 -0.0371
 2810SOL    HW311013   0.091   2.409   2.066 -0.1553  0.7751  2.5301
 2810SOL    MW411014   0.033   2.467   2.038  0.2535 -0.2760  0.6958
 2811SOL     OW11015   5.288   2.065   2.674  0.1528 -0.1068  0.2644
 2811SOL    HW211016   5.213   2.114   2.639  0.0232 -0.6667 -0.2537
 2811SOL    HW311017   5.257   1.975   2.680  0.8101 -0.3595 -0.0411
 2811SOL    MW411018   5.274   2.060   2.670 -0.2465 -0.0252  0.9316
 2812SOL     OW11019   1.322   3.642   2.005  0.0318  0.1249  0.1113
 2812SOL    HW211020   1.345   3.667   2.095  1.6793  0.7873 -0.4520
 2812SOL    HW311021   1.381   3.570   1.984 -1.0478 -0.7159 -0.1113
 2812SOL    MW411022   1.332   3.636   2.014  0.4784  0.3610  0.2854
 2813SOL     OW11023   6.251   0.604   2.402  0.1344  0.3760  0.1259
 2813SOL    HW211024   6.183   0.567   2.346 -0.2480  0.4459  0.5389
 2813SOL    HW311025   6.306   0.530   2.426 -0.4875  0.1024  0.7563
 2813SOL    MW411026   6.249   0.590   2.398 -0.2238 -0.0615 -0.4651
 2814SOL     OW11027   1.760   5.303   1.468  0.3089 -0.3667  0.2966
 2814SOL    HW211028   1.821   5.301   1.394  0.4939 -0.9676  0.4563
 2814SOL    HW311029   1.731   5.213   1.477 -1.0433  0.0124 -0.1167
 2814SOL    MW411030   1.765   5.291   1.459  0.0773 -0.2597  0.0102
 2815SOL     OW11031   5.826   3.815   5.213 -0.2110  0.2902 -0.2254
 2815SOL    HW211032   5.920   3.803   5.227 -0.4133 -1.0688  0.0256
 2815SOL    HW311033   5.814   3.803   5.118 -0.3546 -1.2546 -0.0332
 2815SOL    MW411034   5.837   3.812   5.202 -0.5647 -0.1595  0.2443
 2816SOL     OW11035   4.454   3.890   3.457 -0.3119  0.2022  0.3995
 2816SOL    HW211036   4.498   3.811   3.425  1.1557  0.8904  0.6196
 2816SOL    HW311037   4.486   3.900   3.546 -1.4102  0.4028  0.7791
 2816SOL    MW411038   4.464   3.881   3.464  0.0803 -0.7535 -0.1190
 2817SOL     OW11039   3.472   4.448   4.130  0.1428  0.4143 -0.5372
 2817SOL    HW211040   3.433   4.361   4.139  1.4777  0.0365  4.2150
 2817SOL    HW311041   3.566   4.431   4.130  0.4099  1.7927  0.1091
 2817SOL    MW411042   3.479   4.434   4.131 -0.1360 -0.1433  0.1245
 2818SOL     OW11043   1.936   2.835   4.853  0.5003 -0.4844 -0.2345
 2818SOL    HW211044   2.007   2.891   4.883  0.6212 -0.8221  0.1266
 2818SOL    HW311045   1.947   2.754   4.903  1.0805 -1.3211 -1.6390
 2818SOL    MW411046   1.947   2.832   4.864  0.1268 -0.1425 -0.3672
 2819SOL     OW11047   2.537   0.968   1.576  0.4157 -0.6910 -0.4052
 2819SOL    HW211048   2.500   1.006   1.496 -1.3791 -0.9950  0.2298
 2819SOL    HW311049   2.462   0.959   1.635  1.9497  1.3282  2.0714
 2819SOL    MW411050   2.522   0.972   1.573 -0.8357 -0.0691  0.3221
 2820SOL     OW11051   6.329   1.573   2.090 -0.1838 -0.2537 -0.2373
 2820SOL    HW211052   6.243   1.531   2.090 -0.4723  0.2780  1.0883
 2820SOL    HW311053   6.376   1.530   2.162 -0.3197  1.3157  0.8357
 2820SOL    MW411054   6.324   1.562   2.100 -0.4647  0.3064  0.1999
 2821SOL     OW11055   5.516   2.618   1.104  0.2413 -0.4776 -0.1190
 2821SOL    HW211056   5.597   2.569   1.115  0.1696 -0.3810  0.9506
 2821SOL    HW311057   5.449   2.564   1.147 -0.0527 -0.0275  0.0038
 2821SOL    MW411058   5.518   2.605   1.111  0.2697 -0.1623  0.1732
 2822SOL     OW11059   4.429   0.995   2.620  0.4855 -0.1090  0.2566
 2822SOL    HW211060   4.371   1.021   2.548  2.1316 -0.1942 -1.1713
 2822SOL    HW311061   4.513   1.036   2.598  0.7606  0.7787  2.7384
 2822SOL    MW411062   4.432   1.004   2.607 -0.1336  0.3262  0.2815
 2823SOL     OW11063   0.804   1.109   4.245 -0.6902  0.3196 -0.4753
 2823SOL    HW211064   0.873   1.175   4.248 -1.6382  1.4461 -2.0106
 2823SOL    HW311065   0.740   1.138   4.309 -0.4518  0.0946 -0.1302
 2823SOL    MW411066   0.805   1.121   4.254 -0.3069 -0.1105  0.2444
 2824SOL     OW11067   5.299   5.170   0.192 -0.1995  0.0981 -0.5321
 2824SOL    HW211068   5.371   5.107   0.191  1.0199  1.4242 -0.4218
 2824SOL    HW311069   5.308   5.214   0.276 -0.7564  0.7137 -0.7892
 2824SOL    MW411070   5.310   5.167   0.203 -0.3835  0.3721  0.1761
 2825SOL     OW11071   5.469   6.416   4.512 -0.2976  0.9163 -0.0386
 2825SOL    HW211072   5.489   6.507   4.533 -3.6284  1.9235 -0.6696
 2825SOL    HW311073   5.537   6.391   4.449  1.7585  2.3034  1.4947
 2825SOL    MW411074   5.481   6.425   4.506  0.1866 -0.1010 -0.4459
 2826SOL     OW11075   4.003   3.492   4.480  1.1291  0.4465  0.2063
 2826SOL    HW211076   4.029   3.504   4.571  0.4697 -0.2439  0.4929
 2826SOL    HW311077   4.068   3.430   4.444  0.4443 -0.5698  0.6725
 2826SOL    MW411078   4.015   3.485   4.487 -0.1283  0.3667 -0.3591
 2827SOL     OW11079   2.977   4.840   2.145  0.3936  0.2525 -0.1255
 2827SOL    HW211080   2.922   4.818   2.220  0.9880 -1.3346 -0.1202
 2827SOL    HW311081   3.033   4.911   2.176  0.6134 -0.3722  0.9492
 2827SOL    MW411082   2.977   4.847   2.159 -0.1937  0.0879  0.5069
 2828SOL     OW11083   2.031   3.494   4.947 -0.1914 -0.2729 -0.4737
 2828SOL    HW211084   1.962   3.427   4.949  0.8829 -1.3978  0.8198
 2828SOL    HW311085   2.111   3.445   4.927  0.0868  1.2083 -3.4181
 2828SOL    MW411086   2.032   3.478   4.945  0.6985 -0.0635  0.3062
 2829SOL     OW11087   1.728   5.508   2.231 -0.0555  0.3496 -0.0930
 2829SOL    HW211088   1.651   5.485   2.179 -0.2499  2.7746 -0.9898
 2829SOL    HW311089   1.707   5.479   2.320 -1.7549  0.4511 -0.4339
 2829SOL    MW411090   1.715   5.501   2.236 -0.2318  0.4708 -0.5094
 2830SOL     OW11091   3.232   5.414   1.395  0.9902 -0.4282  0.4099
 2830SOL    HW211092   3.217   5.384   1.485 -0.8116  0.9903  0.6437
 2830SOL    HW311093   3.285   5.493   1.406  0.7845 -0.2661  0.2304
 2830SOL    MW411094   3.237   5.421   1.409 -0.3518  0.3356 -0.5538
 2831SOL     OW11095   0.016   5.040   1.679  0.4749 -0.0973  0.0530
 2831SOL    HW211096   0.078   5.099   1.637  0.9988  0.3941  1.4707
 2831SOL    HW311097  -0.016   5.088   1.755 -1.7094 -0.3269 -0.6557
 2831SOL    MW411098   0.020   5.054   1.684  0.9349 -0.5795  0.4601
 2832SOL     OW11099   5.326   2.415   1.166  0.0062 -0.0300  0.2399
 2832SOL    HW211100   5.380   2.381   1.094  0.5026  0.0573  0.5646
 2832SOL    HW311101   5.246   2.363   1.162  1.1024 -1.9262  1.3010
 2832SOL    MW411102   5.322   2.403   1.156 -0.0599 -0.3506 -0.1283
 2833SOL     OW11103   6.295   4.774   5.164  0.9075 -0.1461 -0.3436
 2833SOL    HW211104   6.256   4.721   5.094  0.3005 -1.3402  0.8465
 2833SOL    HW311105   6.342   4.844   5.118 -1.5764  0.6377 -1.8959
 2833SOL    MW411106   6.296   4.776   5.149  0.2798 -0.0481 -0.3467
 2834SOL     OW11107   1.215   0.823   3.457 -0.1924  0.2236  0.2979
 2834SOL    HW211108   1.165   0.888   3.408  0.8581  0.6623 -0.2274
 2834SOL    HW311109   1.306   0.840   3.434  0.1845 -0.7881  0.9454
 2834SOL    MW411110   1.221   0.834   3.448  0.3513  0.3301 -0.0570
 2835SOL     OW11111   2.941   5.531   4.520 -0.3812  0.4009  0.1223
 2835SOL    HW211112   2.929   5.512   4.427 -1.7829 -0.0173  0.3621
 2835SOL    HW311113   2.916   5.449   4.564  0.2966  0.5855  0.8717
 2835SOL    MW411114   2.936   5.517   4.514  0.1892  0.2557  0.3558
 2836SOL     OW11115   4.138   2.513   3.751  0.3395  0.2903 -0.1709
 2836SOL    HW211116   4.056   2.489   3.710  0.8388  0.6710 -1.4182
 2836SOL    HW311117   4.201   2.448   3.720  0.3319 -0.6506  1.6052
 2836SOL    MW411118   4.136   2.501   3.742 -0.4612 -0.5337  0.4038
 2837SOL     OW11119   5.197   1.809   4.779  0.1027  0.3034 -0.2311
 2837SOL    HW211120   5.107   1.810   4.813  0.0896 -0.6900 -0.2250
 2837SOL    HW311121   5.193   1.753   4.702  0.4773  1.2228 -0.9403
 2837SOL    MW411122   5.185   1.802   4.774 -0.3999 -0.3974 -0.2083
 2838SOL     OW11123   3.541   5.872   3.832 -0.7233  0.0507 -1.0536
 2838SOL    HW211124   3.473   5.939   3.837  0.0732  0.8004  0.2195
 2838SOL    HW311125   3.622   5.920   3.814  0.4001 -0.0694  2.7564
 2838SOL    MW411126   3.543   5.887   3.831  0.1471 -0.2141 -0.0645
 2839SOL     OW11127   3.707   1.373   3.389  0.1282  0.5871  0.0595
 2839SOL    HW211128   3.622   1.342   3.420  0.1187 -0.4527 -0.9414
 2839SOL    HW311129   3.686   1.432   3.317  0.2451 -0.7622 -1.1358
 2839SOL    MW411130   3.693   1.377   3.384 -0.0757  0.6593  0.2866
 2840SOL     OW11131   5.933   0.571   6.119  0.2747  0.1557 -0.2257
 2840SOL    HW211132   6.019   0.600   6.089  0.3932 -0.1986 -0.2281
 2840SOL    HW311133   5.949   0.531   6.204  0.3755 -1.4348 -0.9624
 2840SOL    MW411134   5.946   0.570   6.126 -0.3675 -0.8530  0.5536
 2841SOL     OW11135   1.177   0.431   2.828  0.2587 -0.6783  0.7209
 2841SOL    HW211136   1.103   0.491   2.828  1.7753  1.4247 -1.5593
 2841SOL    HW311137   1.140   0.347   2.802 -1.4250  0.1734  0.2315
 2841SOL    MW411138   1.162   0.428   2.824  0.0729 -0.2403  0.6483
 2842SOL     OW11139   2.998   1.953   2.736 -0.3677 -0.1563 -0.1088
 2842SOL    HW211140   3.041   2.035   2.760  2.4201 -1.1497 -1.3365
 2842SOL    HW311141   2.936   1.937   2.808  1.1829  1.4708  1.7249
 2842SOL    MW411142   2.995   1.962   2.749  0.0832 -0.4281  0.1210
 2843SOL     OW11143   1.877   2.614   2.736  0.1309  0.1918 -0.0638
 2843SOL    HW211144   1.951   2.646   2.787  0.6934  2.2582 -1.9870
 2843SOL    HW311145   1.915   2.556   2.670 -0.1237  0.1750 -0.2015
 2843SOL    MW411146   1.891   2.611   2.734 -0.0906  0.0867  0.0745
 2844SOL     OW11147   5.104   5.981   6.069  0.1565  0.1722  0.4184
 2844SOL    HW211148   5.028   5.975   6.126 -1.5743 -0.5921 -1.8265
 2844SOL    HW311149   5.136   5.891   6.061 -0.5465  0.0109 -0.9192
 2844SOL    MW411150   5.098   5.968   6.075  0.0711 -0.1721  0.1140
 2845SOL     OW11151   1.694   4.933   5.650  0.7874  0.0239 -0.4992
 2845SOL    HW211152   1.698   5.006   5.711  0.6594 -1.8424  1.9246
 2845SOL    HW311153   1.784   4.926   5.616  1.3675  0.0205  0.9334
 2845SOL    MW411154   1.707   4.941   5.654  0.6362  0.2287  0.5163
 2846SOL     OW11155   0.537   2.163   2.249 -0.2050  0.2163  0.1950
 2846SOL    HW211156   0.566   2.081   2.289 -0.5835  0.2020  0.4447
 2846SOL    HW311157   0.528   2.144   2.156 -2.4747 -0.6625  0.5436
 2846SOL    MW411158   0.540   2.150   2.242 -0.4760 -0.5658 -0.2326
 2847SOL     OW11159   0.146   0.164   2.347  0.3094 -0.8654 -0.9020
 2847SOL    HW211160   0.180   0.116   2.271  0.0392  1.2691 -2.4429
 2847SOL    HW311161   0.201   0.241   2.354 -0.7744 -0.1397 -0.0053
 2847SOL    MW411162   0.158   0.168   2.338 -0.3200  0.1489 -0.2887
 2848SOL     OW11163   3.027   0.202   5.357  0.4149 -0.0269 -0.8936
 2848SOL    HW211164   3.048   0.281   5.406 -2.3110 -0.2106  0.8120
 2848SOL    HW311165   3.111   0.170   5.325  1.9050  2.1144  0.6241
 2848SOL    MW411166   3.041   0.208   5.359  0.1992  0.2296  0.1135
 2849SOL     OW11167   5.097   2.221   2.531  0.2692 -0.0899  0.1918
 2849SOL    HW211168   5.092   2.311   2.498 -1.8762 -0.9957 -2.2957
 2849SOL    HW311169   5.013   2.182   2.506  0.8681 -2.6206  1.7853
 2849SOL    MW411170   5.085   2.228   2.524 -0.2303  1.0103 -0.0283
 2850SOL     OW11171   0.237   6.323   2.417 -0.3933 -0.1151  0.6946
 2850SOL    HW211172   0.161   6.274   2.386 -0.8662  1.3732 -0.6384
 2850SOL    HW311173   0.206   6.413   2.423  0.9930  0.3577  1.1327
 2850SOL    MW411174   0.223   6.328   2.414  0.0692 -0.7237 -0.1783
 2851SOL     OW11175   2.127   4.688   6.130  0.0572 -0.1391  0.2970
 2851SOL    HW211176   2.115   4.731   6.046  0.3036  0.9882  0.8124
 2851SOL    HW311177   2.048   4.635   6.142 -0.3893  0.3974 -0.2344
 2851SOL    MW411178   2.115   4.686   6.121 -0.2434 -0.0638 -0.4008
 2852SOL     OW11179   1.451   3.705   0.776  0.1582 -0.1846 -0.8670
 2852SOL    HW211180   1.425   3.771   0.841 -2.0583  0.2687 -2.1250
 2852SOL    HW311181   1.529   3.665   0.814  0.6132  1.9921  0.7428
 2852SOL    MW411182   1.458   3.709   0.790  0.6150 -0.0637 -0.0228
 2853SOL     OW11183   5.762   5.749   5.587  0.3150 -0.3457 -0.4423
 2853SOL    HW211184   5.804   5.723   5.669  1.7323  0.8577 -0.7442
 2853SOL    HW311185   5.747   5.667   5.541  0.7048 -0.9394  0.4514
 2853SOL    MW411186   5.766   5.735   5.592  0.0275  0.1712  0.3801
 2854SOL     OW11187   0.768   5.559   5.742 -0.1085 -0.4242  0.3405
 2854SOL    HW211188   0.795   5.496   5.809  0.0140 -1.7889 -0.9400
 2854SOL    HW311189   0.822   5.538   5.666 -0.5414  0.8089 -0.3321
 2854SOL    MW411190   0.778   5.547   5.741  0.0858  0.4458  0.2444
 2855SOL     OW11191   4.604   2.964   3.016  0.1365 -0.1190  0.6439
 2855SOL    HW211192   4.621   2.950   3.109 -2.3679  0.2639  1.2497
 2855SOL    HW311193   4.674   3.022   2.987  0.7368  0.0875  2.3867
 2855SOL    MW411194   4.615   2.970   3.025  0.1933  0.5018 -0.1536
 2856SOL     OW11195   5.069   3.213   2.139 -0.4587 -0.7245  0.0976
 2856SOL    HW211196   5.028   3.248   2.060 -0.9965  0.7190  0.9680
 2856SOL    HW311197   5.006   3.232   2.209  1.0191  0.1563  1.2442
 2856SOL    MW411198   5.055   3.220   2.138  0.4048 -0.0255  0.0053
 2857SOL     OW11199   2.531   5.622   4.234 -0.4081 -0.3444 -0.0087
 2857SOL    HW211200   2.467   5.553   4.217 -1.5793  0.5445  0.6026
 2857SOL    HW311201   2.504   5.694   4.177  0.3506 -0.1156 -0.0933
 2857SOL    MW411202   2.519   5.622   4.224  0.3986 -0.0944  0.1420
 2858SOL     OW11203   0.181   0.960   4.171  0.3561 -0.5720 -0.1554
 2858SOL    HW211204   0.090   0.945   4.197  0.0767  0.0948 -0.7146
 2858SOL    HW311205   0.192   1.055   4.174  0.7385 -0.5799 -1.0414
 2858SOL    MW411206   0.170   0.970   4.175 -0.1509 -0.4333  0.6031
 2859SOL     OW11207   6.263   5.491   4.924 -0.0747 -0.3827 -0.1777
 2859SOL    HW211208   6.206   5.520   4.996  1.5733  1.2344  0.5564
 2859SOL    HW311209   6.351   5.494   4.961  0.5901 -2.3003 -1.4444
 2859SOL    MW411210   6.267   5.495   4.939 -0.1175 -0.1382  0.6955
 2860SOL     OW11211   4.476   2.071   6.339  0.0856 -0.0572 -0.1357
 2860SOL    HW211212   4.419   2.021   6.280 -0.3584 -1.2310  1.2306
 2860SOL    HW311213   4.496   2.011   6.410 -1.3577  1.9855  2.1784
 2860SOL    MW411214   4.471   2.057   6.340  0.2366  0.0722  0.2879
 2861SOL     OW11215   1.318   0.746   0.764 -0.1060  0.2964 -0.1775
 2861SOL    HW211216   1.238   0.799   0.766 -0.2673  0.0572 -0.2606
 2861SOL    HW311217   1.306   0.687   0.689  0.6436  1.0343 -0.9019
 2861SOL    MW411218   1.306   0.745   0.754  0.0854  0.0156 -0.5103
 2862SOL     OW11219   5.780   5.163   1.332  0.0323  0.3903  0.5461
 2862SOL    HW211220   5.796   5.103   1.259 -0.5824 -0.9764  1.4790
 2862SOL    HW311221   5.733   5.237   1.293 -0.5590 -0.4620 -0.3959
 2862SOL    MW411222   5.776   5.165   1.317  0.0522 -0.5787 -0.2963
 2863SOL     OW11223   3.588   1.839   2.599 -0.3667  0.3113 -0.0752
 2863SOL    HW211224   3.504   1.803   2.571 -0.4213 -1.4119  2.0376
 2863SOL    HW311225   3.568   1.929   2.627 -1.2074  0.3879 -0.8698
 2863SOL    MW411226   3.574   1.846   2.599 -0.3027 -0.0826  0.0748
 2864SOL     OW11227   5.429   2.136   6.133  0.6874  0.1123  0.0387
 2864SOL    HW211228   5.510   2.098   6.098  1.2663  0.5148  0.9228
 2864SOL    HW311229   5.416   2.215   6.080 -0.1603 -0.9048 -1.3564
 2864SOL    MW411230   5.438   2.141   6.121  0.0776 -0.3560  0.2436
 2865SOL     OW11231   1.680   1.883   5.480  0.0872 -0.2222 -0.6797
 2865SOL    HW211232   1.713   1.830   5.552 -0.2404  1.3082  0.6716
 2865SOL    HW311233   1.626   1.823   5.428 -1.2443 -0.9819  1.4307
 2865SOL    MW411234   1.677   1.868   5.483 -0.0277 -0.5710 -0.5669
 2866SOL     OW11235   4.155   1.471   2.822  0.2619 -0.1027 -0.0249
 2866SOL    HW211236   4.079   1.501   2.772  0.4275  0.8998  0.2977
 2866SOL    HW311237   4.164   1.379   2.798  0.0801  0.2363 -1.5211
 2866SOL    MW411238   4.146   1.463   2.812 -0.5107  0.4621 -0.4597
 2867SOL     OW11239   3.672   3.577   0.066  0.3931 -0.8011  0.2322
 2867SOL    HW211240   3.639   3.605   0.151  0.8626  0.0903  0.1338
 2867SOL    HW311241   3.599   3.529   0.027 -0.2362 -0.2098  0.6512
 2867SOL    MW411242   3.658   3.574   0.072 -0.4226  0.1240 -0.1255
 2868SOL     OW11243   4.715   5.072   5.432  0.4809 -0.0958  0.0455
 2868SOL    HW211244   4.744   5.030   5.351  1.7967  0.6287  0.0970
 2868SOL    HW311245   4.789   5.062   5.492 -0.6989 -1.1315  1.3778
 2868SOL    MW411246   4.729   5.065   5.429 -0.2113 -0.1672  0.3380
 2869SOL     OW11247   0.113   5.645   0.391 -0.4236 -0.5427 -0.0443
 2869SOL    HW211248   0.064   5.727   0.380 -0.9723 -0.9102 -0.4173
 2869SOL    HW311249   0.204   5.669   0.380 -0.3113  0.5216  2.5786
 2869SOL    MW411250   0.118   5.659   0.388 -0.5191 -0.1180 -0.2262
 2870SOL     OW11251   3.841   6.109   0.812  0.1724 -0.2602 -0.1243
 2870SOL    HW211252   3.831   6.047   0.739  0.1894 -2.2300  1.4790
 2870SOL    HW311253   3.753   6.117   0.849  0.3180  0.1060  0.1502
 2870SOL    MW411254   3.828   6.102   0.807 -0.1572  0.0186 -0.3095
 2871SOL     OW11255   4.190   3.662   3.788 -0.2910  0.5146  0.1377
 2871SOL    HW211256   4.177   3.567   3.792  2.3470  0.0642 -0.0854
 2871SOL    HW311257   4.202   3.688   3.880 -1.0294  0.6648  0.2003
 2871SOL    MW411258   4.190   3.653   3.801 -0.3845  0.5192  0.0487
 2872SOL     OW11259   3.113   4.520   3.108  1.0393 -0.5992  0.2415
 2872SOL    HW211260   3.121   4.608   3.143  2.3050 -0.4452 -0.4063
 2872SOL    HW311261   3.019   4.501   3.113  0.6086  1.1584 -0.5065
 2872SOL    MW411262   3.101   4.529   3.113  0.0270  0.4018  0.1309
 2873SOL     OW11263   1.605   3.631   2.861  0.0507 -0.6526 -0.1495
 2873SOL    HW211264   1.679   3.580   2.894  1.0647  0.1889 -1.0536
 2873SOL    HW311265   1.548   3.567   2.820  0.4794 -1.2665  0.1988
 2873SOL    MW411266   1.607   3.616   2.860 -0.0342  0.1144  0.4938
 2874SOL     OW11267   3.144   2.292   0.348  0.3201  0.0607  0.0101
 2874SOL    HW211268   3.120   2.354   0.278  1.2118  0.6361  0.1909
 2874SOL    HW311269   3.165   2.211   0.302 -2.2651 -0.6100 -0.1329
 2874SOL    MW411270   3.143   2.290   0.333  0.4119  0.3305 -0.1093
 2875SOL     OW11271   5.878   2.777   3.867  0.0632 -0.3829 -0.3424
 2875SOL    HW211272   5.878   2.832   3.788 -1.3124 -0.4568 -0.4250
 2875SOL    HW311273   5.851   2.690   3.835  0.2308 -0.6036  0.1084
 2875SOL    MW411274   5.875   2.772   3.852 -0.1191 -0.5220 -0.2675
 2876SOL     OW11275   5.592   2.837   5.267  0.0167  0.0416 -0.2235
 2876SOL    HW211276   5.619   2.927   5.248 -0.7785 -0.0709 -2.0755
 2876SOL    HW311277   5.497   2.841   5.272 -0.0366 -0.7386 -0.5469
 2876SOL    MW411278   5.583   2.849   5.265  0.4275 -0.7807  0.8082
 2877SOL     OW11279   4.344   5.020   3.491 -0.3504  0.3731 -0.0488
 2877SOL    HW211280   4.353   5.001   3.398  0.3368 -2.3519  0.4703
 2877SOL    HW311281   4.250   5.023   3.507 -0.4696  0.5742 -0.7658
 2877SOL    MW411282   4.333   5.018   3.481 -0.8963 -0.4701 -0.2295
 2878SOL     OW11283   0.013   0.090   4.613  0.3158 -0.8721  0.0430
 2878SOL    HW211284   0.012   0.176   4.653  0.6456 -1.2304  0.8399
 2878SOL    HW311285  -0.071   0.084   4.567  0.2969 -0.1316 -0.0353
 2878SOL    MW411286   0.002   0.100   4.612 -0.3699 -0.7838  0.2251
 2879SOL     OW11287   5.157   0.231   3.908 -0.6533  0.2772  0.2822
 2879SOL    HW211288   5.089   0.252   3.844 -1.6729  0.1043  1.2873
 2879SOL    HW311289   5.155   0.136   3.915  0.0123  0.2387 -0.0208
 2879SOL    MW411290   5.148   0.221   3.901  0.1658 -0.7148  0.0284
 2880SOL     OW11291   5.994   1.839   1.446 -0.0624  0.0069  0.6116
 2880SOL    HW211292   6.090   1.845   1.454 -0.0617  0.6898  0.1700
 2880SOL    HW311293   5.971   1.908   1.384 -0.9768  0.6545  1.6603
 2880SOL    MW411294   6.004   1.849   1.439 -0.1028  0.5439  0.0902
 2881SOL     OW11295   0.977   5.285   4.598 -0.3010 -0.4850  0.3077
 2881SOL    HW211296   1.068   5.274   4.625 -0.2973 -0.4110  0.3250
 2881SOL    HW311297   0.961   5.379   4.602 -0.2468 -0.4566 -0.1257
 2881SOL    MW411298   0.987   5.296   4.602  0.0810  0.1147  0.2766
 2882SOL     OW11299   0.858   4.816   4.439 -0.6403 -0.3468 -0.3503
 2882SOL    HW211300   0.912   4.740   4.417 -0.8332 -0.0104 -2.1832
 2882SOL    HW311301   0.815   4.839   4.356  0.9003  2.9293 -0.3813
 2882SOL    MW411302   0.859   4.809   4.425 -0.2067 -0.2995  0.1204
 2883SOL     OW11303   0.205   3.512   0.194 -0.5818  0.4296 -0.6001
 2883SOL    HW211304   0.253   3.488   0.273  1.9771  0.2683 -2.0595
 2883SOL    HW311305   0.264   3.572   0.148 -1.8993  0.3854 -2.4684
 2883SOL    MW411306   0.219   3.517   0.198  0.1479  0.1140  0.1479
 2884SOL     OW11307   4.695   5.664   2.296  0.5005 -0.4367 -0.5633
 2884SOL    HW211308   4.759   5.642   2.229  0.3790  0.6971 -1.0698
 2884SOL    HW311309   4.714   5.755   2.320  0.7264 -0.9026  1.1628
 2884SOL    MW411310   4.706   5.673   2.291 -0.5472  0.5274 -0.5451
 2885SOL     OW11311   6.153   4.300   3.044 -0.3358  0.2495 -0.1645
 2885SOL    HW211312   6.229   4.350   3.014 -1.4139  2.7039  0.9183
 2885SOL    HW311313   6.135   4.239   2.972  2.7576 -0.6387 -0.3306
 2885SOL    MW411314   6.160   4.299   3.030 -0.4142  0.3577 -0.4098
 2886SOL     OW11315   5.525   5.606   5.232  0.2649 -0.2939  0.8282
 2886SOL    HW211316   5.435   5.616   5.263 -0.6983 -0.5795 -1.6117
 2886SOL    HW311317   5.560   5.695   5.233 -0.0609 -0.1618  1.6893
 2886SOL    MW411318   5.518   5.619   5.236  0.1812  0.3005 -0.1403
 2887SOL     OW11319   3.817   3.376   5.678 -0.4845  0.1902  0.2518
 2887SOL    HW211320   3.847   3.298   5.725  0.3792 -0.6661 -1.5779
 2887SOL    HW311321   3.722   3.371   5.682 -0.5071 -1.8346 -1.0490
 2887SOL    MW411322   3.809   3.365   5.684 -0.2278  0.1745  0.6000
 2888SOL     OW11323   4.036   2.806   1.197 -0.3712  0.2325  0.0126
 2888SOL    HW211324   4.089   2.829   1.121 -0.6131  0.6542 -0.0326
 2888SOL    HW311325   3.948   2.836   1.174 -0.3614  0.7620  0.6414
 2888SOL    MW411326   4.031   2.813   1.184 -0.5554 -0.0550  0.0359
 2889SOL     OW11327   0.212   3.238   3.621 -0.3298  0.4343  0.0477
 2889SOL    HW211328   0.283   3.180   3.649  2.3685  1.4083 -4.0507
 2889SOL    HW311329   0.242   3.326   3.644 -1.0273  0.7477 -0.2230
 2889SOL    MW411330   0.225   3.242   3.628 -0.0699  0.0994  0.4810
 2890SOL     OW11331   4.702   1.442   1.526 -0.0171  0.6113 -0.1951
 2890SOL    HW211332   4.691   1.447   1.431 -2.4154 -0.2266 -0.0328
 2890SOL    HW311333   4.632   1.496   1.562  0.6253  0.6279  1.1096
 2890SOL    MW411334   4.691   1.450   1.518 -0.8989 -0.1375  0.2213
 2891SOL     OW11335   2.366   5.146   5.555  0.3943  0.1279 -0.0332
 2891SOL    HW211336   2.302   5.135   5.485  1.2048  0.0922 -0.7824
 2891SOL    HW311337   2.344   5.078   5.618  0.0033 -0.1957 -0.5103
 2891SOL    MW411338   2.354   5.136   5.554  0.4109 -0.4390 -0.2735
 2892SOL     OW11339   0.887   6.065   2.295 -0.2814 -0.3939  0.2004
 2892SOL    HW211340   0.875   6.109   2.379 -1.0717 -0.1988 -0.0071
 2892SOL    HW311341   0.896   6.137   2.232  2.7743 -0.4795  0.3991
 2892SOL    MW411342   0.887   6.080   2.297 -0.0939 -0.1270  0.1297
 2893SOL     OW11343   4.525   2.523   2.069 -0.2800  0.3290 -0.2311
 2893SOL    HW211344   4.610   2.563   2.087  0.3301  1.5429 -4.5746
 2893SOL    HW311345   4.468   2.597   2.051 -1.9932 -0.5369  1.3558
 2893SOL    MW411346   4.529   2.538   2.069  0.0335  0.6321 -0.4527
 2894SOL     OW11347   6.032   1.132   0.692 -0.2803  0.1573 -0.5010
 2894SOL    HW211348   6.036   1.227   0.708 -0.5545  0.7966 -3.6059
 2894SOL    HW311349   6.102   1.115   0.629 -1.1019 -1.4527 -1.0287
 2894SOL    MW411350   6.042   1.142   0.686 -0.1419 -0.2657  0.3591
 2895SOL     OW11351   0.487   1.629   0.832  0.4928  0.4159 -0.2831
 2895SOL    HW211352   0.517   1.717   0.854  0.4638  0.5825 -0.8990
 2895SOL    HW311353   0.424   1.642   0.761  1.1513 -0.1692 -0.9960
 2895SOL    MW411354   0.483   1.642   0.826  1.1110  0.1528  0.2171
 2896SOL     OW11355   4.651   6.134   4.074 -0.2327 -0.3190  0.1677
 2896SOL    HW211356   4.697   6.069   4.126 -2.4572 -1.7821  0.4628
 2896SOL    HW311357   4.562   6.098   4.065 -0.6900  1.2100 -2.2857
 2896SOL    MW411358   4.645   6.120   4.080 -0.3409  0.0857 -0.9562
 2897SOL     OW11359   3.307   3.540   3.681 -0.5624  0.1641  0.2687
 2897SOL    HW211360   3.260   3.623   3.691  0.3000  0.7771 -0.5054
 2897SOL    HW311361   3.363   3.554   3.604 -0.3498 -1.1163  0.1720
 2897SOL    MW411362   3.308   3.553   3.672 -0.1191 -0.2436  0.4655
 2898SOL     OW11363   3.131   3.737   3.738 -0.3597 -0.7351  0.0133
 2898SOL    HW211364   3.086   3.792   3.673  0.6434  0.5886  0.3908
 2898SOL    HW311365   3.063   3.715   3.801 -0.5645  1.2287  0.5682
 2898SOL    MW411366   3.116   3.742   3.737  0.2136  0.3069  0.5468
 2899SOL     OW11367   6.400   6.037   2.030  0.0653 -0.4543  1.2283
 2899SOL    HW211368   6.426   5.967   1.970  0.6705  1.4016 -0.8082
 2899SOL    HW311369   6.304   6.038   2.027  0.1032 -0.0189 -0.1883
 2899SOL    MW411370   6.391   6.028   2.022 -0.3281 -0.2630 -0.0934
 2900SOL     OW11371   3.907   2.599   5.961 -0.2369 -0.4222  0.4519
 2900SOL    HW211372   3.968   2.650   5.908 -0.8496  2.0129  1.9144
 2900SOL    HW311373   3.835   2.578   5.901  0.1748  0.2018 -0.2776
 2900SOL    MW411374   3.905   2.603   5.947  0.2398  0.2091  0.3639
 2901SOL     OW11375   3.761   5.357   2.656 -0.5642  0.4788  0.2821
 2901SOL    HW211376   3.670   5.383   2.670 -1.3917 -1.0860 -1.6034
 2901SOL    HW311377   3.788   5.405   2.578  0.0977  0.6231  0.5911
 2901SOL    MW411378   3.753   5.367   2.647 -0.0017 -0.4743  0.6244
 2902SOL     OW11379   5.582   3.099   6.024 -0.2870 -0.5899 -0.8012
 2902SOL    HW211380   5.507   3.150   5.993 -0.2628  0.0232  0.1147
 2902SOL    HW311381   5.656   3.159   6.019 -0.3356 -0.3647  0.6784
 2902SOL    MW411382   5.582   3.113   6.019  0.1195 -0.2172 -0.0275
 2903SOL     OW11383   1.913   3.034   5.078  0.5071 -0.4400  0.5490
 2903SOL    HW211384   1.838   3.002   5.127 -0.1004  0.2564  0.0995
 2903SOL    HW311385   1.942   3.111   5.127 -0.9720  1.1010 -0.8887
 2903SOL    MW411386   1.907   3.040   5.091  0.4256  0.1614 -0.4601
 2904SOL     OW11387   0.275   4.731   2.513 -0.3547 -0.4910 -0.3442
 2904SOL    HW211388   0.212   4.802   2.501  0.0259 -0.2199 -0.7957
 2904SOL    HW311389   0.354   4.762   2.467  1.4770  0.9883  3.3517
 2904SOL    MW411390   0.277   4.745   2.506 -0.3793 -0.1071 -0.0789
 2905SOL     OW11391   3.730   0.909   5.311  0.2284 -0.2012  0.0084
 2905SOL    HW211392   3.654   0.873   5.355 -0.3491 -0.6300 -1.2942
 2905SOL    HW311393   3.757   0.984   5.365 -1.1425 -0.0149  0.4524
 2905SOL    MW411394   3.724   0.914   5.324 -0.3691 -0.8198  0.0398
 2906SOL     OW11395   0.805   0.316   3.931  0.1460 -0.4660 -0.0613
 2906SOL    HW211396   0.894   0.282   3.939  0.2759  0.1148  1.1137
 2906SOL    HW311397   0.775   0.327   4.021 -0.1947  1.7265 -0.3967
 2906SOL    MW411398   0.813   0.313   3.944 -0.0279  0.1248 -0.6123
 2907SOL     OW11399   1.595   2.664   4.883  0.0369 -0.0774  0.2196
 2907SOL    HW211400   1.631   2.603   4.818 -1.4118 -0.7421 -0.0150
 2907SOL    HW311401   1.513   2.622   4.911 -0.7287  1.5082  0.4557
 2907SOL    MW411402   1.589   2.650   4.878  0.7317  0.4045 -0.1226
 2908SOL     OW11403   1.115  -0.001   3.308  0.1912 -0.0336  0.1815
 2908SOL    HW211404   1.023   0.021   3.291  0.1701 -0.5511 -0.4173
 2908SOL    HW311405   1.157   0.002   3.222  0.3299 -1.6330  0.1609
 2908SOL    MW411406   1.108   0.002   3.294  0.2128 -0.0099 -0.1946
 2909SOL     OW11407   5.529   5.084   0.518  0.5448  0.1141 -0.4899
 2909SOL    HW211408   5.615   5.126   0.526 -0.1578  1.4922  0.2781
 2909SOL    HW311409   5.472   5.153   0.482 -0.3944 -0.5517 -0.3124
 2909SOL    MW411410   5.533   5.099   0.514  0.7712 -0.6394  0.0694
 2910SOL     OW11411   4.764   2.436   4.486 -0.1411 -0.3441 -0.3802
 2910SOL    HW211412   4.718   2.482   4.415  0.8175 -0.0700 -0.8391
 2910SOL    HW311413   4.835   2.389   4.443  1.7887  1.5190  0.5644
 2910SOL    MW411414   4.767   2.436   4.471  0.1895 -0.7451  0.2424
 2911SOL     OW11415   6.317   3.283   6.233 -0.3382 -0.1442 -0.3854
 2911SOL    HW211416   6.359   3.329   6.161  1.0774  2.0194  1.6772
 2911SOL    HW311417   6.227   3.267   6.202 -0.8668  3.7975 -1.4310
 2911SOL    MW411418   6.310   3.287   6.219 -0.8056 -0.1520  0.7086
 2912SOL     OW11419   3.942   3.511   3.445  0.1725  0.8158 -0.1717
 2912SOL    HW211420   4.031   3.522   3.479  0.2874  0.8246 -0.4715
 2912SOL    HW311421   3.923   3.594   3.401  0.8265  0.0652 -1.9565
 2912SOL    MW411422   3.951   3.524   3.444  0.5780  0.3300  0.0881
 2913SOL     OW11423   1.692   4.528   3.188 -0.6147  0.2730 -0.1669
 2913SOL    HW211424   1.641   4.532   3.107  0.4338  0.3018 -0.8502
 2913SOL    HW311425   1.685   4.436   3.216 -3.0933  0.7799  1.1633
 2913SOL    MW411426   1.684   4.516   3.181  0.5101 -0.0787 -0.1723
 2914SOL     OW11427   0.218   4.000   5.967 -0.0355  0.0666  0.0666
 2914SOL    HW211428   0.279   4.066   6.002 -2.2873  1.9135  0.8503
 2914SOL    HW311429   0.239   3.995   5.874  0.2004  2.0138 -0.0445
 2914SOL    MW411430   0.228   4.008   5.960  0.0107 -0.3603  0.2678
 2915SOL     OW11431   4.237   4.952   4.706 -0.1687 -0.3153  0.1478
 2915SOL    HW211432   4.269   4.888   4.643  0.3781 -0.0188  0.1146
 2915SOL    HW311433   4.316   4.986   4.747 -0.4901 -0.0961  0.5913
 2915SOL    MW411434   4.251   4.948   4.703 -0.1446 -0.8364  0.0749
 2916SOL     OW11435   3.483   5.922   5.048  0.2377  0.7585  0.2502
 2916SOL    HW211436   3.449   5.883   5.128  0.4298  0.0076 -0.0232
 2916SOL    HW311437   3.572   5.949   5.071  0.2541  0.6432  0.3246
 2916SOL    MW411438   3.491   5.921   5.062  0.5285  0.1594  0.1701
 2917SOL     OW11439   5.269   3.898   2.735  0.1505 -0.2491 -0.5775
 2917SOL    HW211440   5.325   3.969   2.706 -0.4299 -0.4032 -2.1656
 2917SOL    HW311441   5.181   3.937   2.739  0.1157 -0.4037  0.3853
 2917SOL    MW411442   5.265   3.913   2.732 -0.1116  0.2231  0.4138
 2918SOL     OW11443   0.225   2.590   5.508 -0.4185  0.6881  0.0900
 2918SOL    HW211444   0.161   2.519   5.506  0.2797  0.0481 -0.4972
 2918SOL    HW311445   0.252   2.596   5.600 -0.8739  0.5513  0.2322
 2918SOL    MW411446   0.220   2.581   5.520  0.2774  0.7078  0.1126
 2919SOL     OW11447   3.183   1.285   3.097  0.4309  0.3370 -0.2932
 2919SOL    HW211448   3.152   1.248   3.180 -0.3800 -0.8500 -1.0914
 2919SOL    HW311449   3.246   1.221   3.064  0.7181  0.7811 -0.6115
 2919SOL    MW411450   3.187   1.271   3.104  0.0250  0.3490  0.0325
 2920SOL     OW11451   0.943   3.487   2.557 -0.2697 -0.2014  0.2357
 2920SOL    HW211452   0.987   3.441   2.629  1.4511 -0.7084 -1.0759
 2920SOL    HW311453   0.884   3.421   2.520 -0.4395 -0.2407  0.5680
 2920SOL    MW411454   0.941   3.472   2.562  0.2707  0.2750 -0.3225
 2921SOL     OW11455   1.758   5.819   1.001  0.8093  0.1570  0.0418
 2921SOL    HW211456   1.817   5.799   1.074  2.9591  0.4427 -1.5349
 2921SOL    HW311457   1.745   5.914   1.007  1.1479  0.2110 -0.0568
 2921SOL    MW411458   1.764   5.829   1.012 -0.5012  0.2645  0.2528
 2922SOL     OW11459   0.651   1.375   4.879  0.1496 -0.3847  0.3701
 2922SOL    HW211460   0.587   1.423   4.826  2.4685  0.6641 -1.6620
 2922SOL    HW311461   0.660   1.427   4.959 -1.2902 -0.4124  0.5778
 2922SOL    MW411462   0.644   1.388   4.883 -0.1129 -0.2022 -0.8724
 2923SOL     OW11463   1.043   3.088   4.055 -0.3417 -0.0156 -0.1330
 2923SOL    HW211464   1.010   3.165   4.101 -0.2477 -0.4587  0.6927
 2923SOL    HW311465   1.128   3.115   4.021  0.4992 -0.2543  1.6356
 2923SOL    MW411466   1.049   3.101   4.057  0.1991  0.9376  0.3944
 2924SOL     OW11467   5.786   1.409   0.536  0.1933 -0.1004 -0.1199
 2924SOL    HW211468   5.726   1.366   0.597 -0.3572  1.0084  0.1508
 2924SOL    HW311469   5.729   1.443   0.466  0.6850 -0.3686 -0.6556
 2924SOL    MW411470   5.770   1.408   0.535 -0.1151  0.3628 -0.8544
 2925SOL     OW11471   2.808   4.200   2.981  0.9297 -0.2578  1.0264
 2925SOL    HW211472   2.734   4.161   2.933  0.3178 -0.1022  1.8230
 2925SOL    HW311473   2.820   4.143   3.057  1.6731 -0.3053  0.8837
 2925SOL    MW411474   2.800   4.187   2.985 -0.2804  0.2770 -0.9574
 2926SOL     OW11475   2.350   0.304   6.172 -0.5024  0.5020  0.3350
 2926SOL    HW211476   2.282   0.327   6.235 -1.8147 -2.2945  0.1025
 2926SOL    HW311477   2.305   0.302   6.088 -0.1090 -1.0656  0.1327
 2926SOL    MW411478   2.335   0.306   6.170  0.2954  0.5151 -0.0808
 2927SOL     OW11479   3.505   3.242   3.058  0.6515  1.0205  0.6142
 2927SOL    HW211480   3.590   3.198   3.060  0.7599  1.1763 -0.1518
 2927SOL    HW311481   3.521   3.323   3.010  0.1595  1.2489  0.8294
 2927SOL    MW411482   3.518   3.247   3.052 -0.1482  0.2567 -0.0494
 2928SOL     OW11483   0.285   3.894   0.689 -0.6666 -0.1753 -0.1385
 2928SOL    HW211484   0.224   3.934   0.752  0.1057  0.3578  0.2909
 2928SOL    HW311485   0.339   3.836   0.743  0.7580  1.1451 -0.0795
 2928SOL    MW411486   0.284   3.892   0.705  0.3498 -0.8719 -0.4022
 2929SOL     OW11487   1.808   4.018   0.846 -0.3734 -0.1232 -0.3799
 2929SOL    HW211488   1.729   4.063   0.876 -1.6230 -1.2247 -1.9091
 2929SOL    HW311489   1.805   3.932   0.888 -0.6374 -0.6182 -1.3971
 2929SOL    MW411490   1.797   4.013   0.856 -0.2591  0.3791 -0.3170
 2930SOL     OW11491   4.130   6.150   5.813 -0.3324  0.0852  0.3300
 2930SOL    HW211492   4.171   6.093   5.878 -1.7848 -0.1179  1.0979
 2930SOL    HW311493   4.037   6.146   5.832 -0.4773  3.0708  0.7112
 2930SOL    MW411494   4.123   6.142   5.824 -0.0624 -0.2916  0.1644
 2931SOL     OW11495   6.365   4.953   4.741 -0.2584  0.1620 -0.5304
 2931SOL    HW211496   6.428   5.014   4.702 -1.4427  1.3688 -0.6071
 2931SOL    HW311497   6.381   4.870   4.694  1.2677  0.4144 -0.5327
 2931SOL    MW411498   6.376   4.950   4.729  0.8039 -0.0574 -0.0668
 2932SOL     OW11499   0.115   6.302   5.483  0.5286  0.2729  0.6235
 2932SOL    HW211500   0.069   6.304   5.566 -1.3695 -1.9832 -0.2725
 2932SOL    HW311501   0.131   6.395   5.462 -0.0459  0.9312  2.8560
 2932SOL    MW411502   0.111   6.315   5.491  0.0295  0.0827  0.2604
 2933SOL     OW11503   3.814   1.839   0.175  0.1965  0.0143 -0.3636
 2933SOL    HW211504   3.833   1.913   0.119 -1.3664  0.8428  0.1496
 2933SOL    HW311505   3.860   1.858   0.257 -1.2028  1.1004  0.2203
 2933SOL    MW411506   3.823   1.851   0.179 -0.6424 -0.1772 -0.1978
 2934SOL     OW11507   0.225   0.202   5.153  0.1464 -1.0531 -0.2491
 2934SOL    HW211508   0.246   0.109   5.145 -0.3565 -0.9940 -4.1453
 2934SOL    HW311509   0.131   0.204   5.167  0.0723 -1.1512 -0.7100
 2934SOL    MW411510   0.216   0.190   5.154  0.3435  0.4385 -0.1504
 2935SOL     OW11511   0.387   5.251   2.994 -0.4313  0.4371 -0.1823
 2935SOL    HW211512   0.470   5.291   2.968 -0.2815  0.8228  0.8341
 2935SOL    HW311513   0.398   5.231   3.087 -0.6019 -1.7487 -0.5757
 2935SOL    MW411514   0.399   5.254   3.003  0.0051 -0.4404 -0.1127
 2936SOL     OW11515   3.660   3.750   5.346 -0.0358 -0.0462  0.1443
 2936SOL    HW211516   3.646   3.748   5.441 -1.4189 -2.1312 -0.0556
 2936SOL    HW311517   3.574   3.733   5.308  0.4347  1.0020 -1.5382
 2936SOL    MW411518   3.647   3.748   5.353 -0.0461  0.2851 -0.0544
 2937SOL     OW11519   4.243   5.716   1.529 -0.5235  0.1157 -0.2017
 2937SOL    HW211520   4.332   5.721   1.564 -0.4748  1.2092 -0.4587
 2937SOL    HW311521   4.187   5.720   1.606 -0.3661 -0.4771 -0.0461
 2937SOL    MW411522   4.248   5.717   1.544  0.0558 -0.1863 -0.6724
 2938SOL     OW11523   2.989   0.138   0.670  0.6666 -0.2112 -0.3982
 2938SOL    HW211524   3.025   0.225   0.657  2.5075 -0.7738  0.6262
 2938SOL    HW311525   3.044   0.080   0.617 -1.2826 -0.6592 -2.0496
 2938SOL    MW411526   3.001   0.142   0.661 -0.5695 -0.1822 -0.3256
 2939SOL     OW11527   3.846   4.623   5.401  0.5990 -0.3376  0.0127
 2939SOL    HW211528   3.902   4.654   5.330  0.4190  1.1752  0.4968
 2939SOL    HW311529   3.904   4.615   5.476  0.6101 -1.0540 -0.0636
 2939SOL    MW411530   3.861   4.626   5.401 -0.3709  0.0904  0.3112
 2940SOL     OW11531   4.152   2.862   0.953 -0.3451 -0.0343  0.6756
 2940SOL    HW211532   4.072   2.860   0.900 -0.5062  1.1047  0.8462
 2940SOL    HW311533   4.221   2.882   0.890 -0.5815  1.6483  0.9068
 2940SOL    MW411534   4.150   2.864   0.937  0.1363  0.5035 -0.2597
 2941SOL     OW11535   5.814   1.122   3.541 -0.1329 -0.4065 -0.0305
 2941SOL    HW211536   5.849   1.206   3.511  1.6566 -1.2018 -0.2808
 2941SOL    HW311537   5.726   1.143   3.573  0.1935  1.5118 -0.2664
 2941SOL    MW411538   5.807   1.136   3.541 -0.2996  0.0134  0.2860
 2942SOL     OW11539   0.970   5.854   0.789  0.2857  0.5271 -0.1004
 2942SOL    HW211540   0.980   5.868   0.884 -1.3150  0.5899  0.0806
 2942SOL    HW311541   1.028   5.780   0.770  0.7550  0.6217  0.8957
 2942SOL    MW411542   0.979   5.846   0.799  0.3306  0.2118  0.2609
 2943SOL     OW11543   0.046   2.727   5.209 -0.2091  0.3666 -0.1995
 2943SOL    HW211544   0.113   2.730   5.140 -0.1942  0.1267 -0.1966
 2943SOL    HW311545   0.086   2.771   5.284 -0.0201  0.1423 -0.1687
 2943SOL    MW411546   0.060   2.733   5.210  0.6874  0.3887 -0.4421
 2944SOL     OW11547   3.404   5.191   2.780  0.5441  0.5535  0.2562
 2944SOL    HW211548   3.466   5.146   2.838 -0.7751 -0.5634  0.8549
 2944SOL    HW311549   3.333   5.217   2.838  0.3519  1.6654 -0.4547
 2944SOL    MW411550   3.403   5.188   2.795 -0.2394 -0.0365 -0.4031
 2945SOL     OW11551   6.200   3.385   3.987 -0.6081  0.3130 -0.0454
 2945SOL    HW211552   6.148   3.362   4.063 -1.3206  0.7888 -0.3810
 2945SOL    HW311553   6.274   3.434   4.022  0.1017 -1.0962  0.5187
 2945SOL    MW411554   6.203   3.388   4.001 -0.2874  0.4288 -0.0539
 2946SOL     OW11555   4.331   6.341   3.031  0.3244 -0.0154 -0.7103
 2946SOL    HW211556   4.319   6.433   3.008 -0.2714 -0.1739 -1.0617
 2946SOL    HW311557   4.425   6.327   3.026  0.3598  0.4012 -1.3726
 2946SOL    MW411558   4.342   6.351   3.027 -0.0662 -0.0389 -0.1333
 2947SOL     OW11559   2.623   0.283   0.645  0.0295 -0.0552  0.1844
 2947SOL    HW211560   2.562   0.233   0.700  1.2535 -2.1685 -0.2574
 2947SOL    HW311561   2.572   0.309   0.569 -1.1096  0.9748  1.2686
 2947SOL    MW411562   2.608   0.280   0.643  0.3457 -0.2435  0.3373
 2948SOL     OW11563   0.072   5.544   5.740 -0.2695  0.0128 -0.1581
 2948SOL    HW211564   0.093   5.453   5.764 -2.0911 -0.5399 -0.4835
 2948SOL    HW311565   0.113   5.597   5.807 -1.8803 -1.2675  1.9655
 2948SOL    MW411566   0.080   5.539   5.752 -0.0302 -0.3293  0.3204
 2949SOL     OW11567   4.947   3.286   1.883  0.5660 -0.4155  0.0059
 2949SOL    HW211568   4.966   3.332   1.801 -1.8657  0.3242 -0.2158
 2949SOL    HW311569   4.869   3.235   1.864  2.0288 -3.2073  0.8476
 2949SOL    MW411570   4.940   3.285   1.870 -0.6164 -1.2299 -0.2067
 2950SOL     OW11571   5.100   4.994   2.272 -0.0870  0.4482 -0.3210
 2950SOL    HW211572   5.015   4.951   2.277  0.0780  0.2809  3.1070
 2950SOL    HW311573   5.154   4.949   2.337  2.1090  1.6891 -1.1656
 2950SOL    MW411574   5.096   4.983   2.281  0.0672 -0.5269 -0.0274
 2951SOL     OW11575   5.116   4.310   2.816 -0.0232  0.1811  0.0171
 2951SOL    HW211576   5.194   4.345   2.774  1.9973 -3.8963 -0.1385
 2951SOL    HW311577   5.149   4.268   2.896 -1.8643 -2.1242 -0.3082
 2951SOL    MW411578   5.131   4.309   2.821 -0.3976  0.2289 -0.2527
 2952SOL     OW11579   4.500   2.962   2.071  0.0103  0.2729  0.1066
 2952SOL    HW211580   4.576   3.006   2.109 -0.0286 -0.5903  1.2194
 2952SOL    HW311581   4.509   2.976   1.976  0.4935  1.8477  0.3567
 2952SOL    MW411582   4.511   2.970   2.063 -0.0147 -0.2048  0.3882
 2953SOL     OW11583   4.990   2.352   2.829  0.0994  0.6177 -0.0711
 2953SOL    HW211584   5.030   2.437   2.846  0.0801  0.5054  0.5513
 2953SOL    HW311585   5.060   2.299   2.790  0.2016  0.8113 -0.1506
 2953SOL    MW411586   5.004   2.356   2.826 -0.6436  0.0726 -0.3775
 2954SOL     OW11587   0.213   3.001   1.684  0.4294  0.3048  0.2356
 2954SOL    HW211588   0.263   3.008   1.766  2.4530  1.0777 -0.9887
 2954SOL    HW311589   0.140   2.943   1.705 -0.2271  1.9539  3.1004
 2954SOL    MW411590   0.210   2.994   1.698  0.3145 -0.0210  0.3123
 2955SOL     OW11591   5.922   4.746   4.757 -0.1379  0.0493  1.1735
 2955SOL    HW211592   5.831   4.776   4.761 -0.6741 -1.5697  2.6634
 2955SOL    HW311593   5.938   4.730   4.664 -1.1306  1.0432  0.8054
 2955SOL    MW411594   5.912   4.748   4.745  0.2451 -0.2143  0.0437
 2956SOL     OW11595   6.355   2.977   0.971 -0.1610 -0.4137 -0.3797
 2956SOL    HW211596   6.293   2.937   0.910 -1.6732  0.7708  0.3064
 2956SOL    HW311597   6.308   3.052   1.007  1.9123  0.9106 -0.2685
 2956SOL    MW411598   6.341   2.982   0.968 -0.0105  0.0603 -0.0528
 2957SOL     OW11599   3.136   4.384   3.715  0.4373  0.7616 -0.3487
 2957SOL    HW211600   3.180   4.303   3.689  0.8084  1.2828 -1.4205
 2957SOL    HW311601   3.204   4.436   3.757  0.1744  0.4883  0.4301
 2957SOL    MW411602   3.151   4.380   3.717 -0.2824 -0.3185 -0.4961
 2958SOL     OW11603   6.074   0.969   4.953  0.1464 -0.5137 -0.1349
 2958SOL    HW211604   6.007   1.001   5.013 -0.4105 -0.1918 -0.9027
 2958SOL    HW311605   6.141   1.038   4.951 -0.5071  0.1176 -0.9289
 2958SOL    MW411606   6.074   0.982   4.960  0.0971  0.5103 -0.2677
 2959SOL     OW11607   5.417   4.667   0.446 -0.3140  0.5462 -0.7131
 2959SOL    HW211608   5.407   4.573   0.459 -0.4272  0.6724  0.2187
 2959SOL    HW311609   5.335   4.695   0.406  0.2741  0.0359 -2.3235
 2959SOL    MW411610   5.405   4.658   0.443 -0.2226 -0.6858  0.5864
 2960SOL     OW11611   0.119   1.488   3.647  0.0914  0.0387  0.5695
 2960SOL    HW211612   0.049   1.428   3.672 -0.5991 -0.1143 -1.5225
 2960SOL    HW311613   0.191   1.431   3.619  0.1452  0.1791  0.4165
 2960SOL    MW411614   0.119   1.472   3.647 -0.1932  0.1621 -0.4266
 2961SOL     OW11615   3.297   4.285   5.158 -0.4859  0.9329 -0.6616
 2961SOL    HW211616   3.321   4.199   5.194 -2.1239  1.3353  1.5839
 2961SOL    HW311617   3.221   4.268   5.102 -0.8602  0.9136 -0.1524
 2961SOL    MW411618   3.290   4.271   5.155 -0.7792 -0.0342  0.1138
 2962SOL     OW11619   5.737   3.202   5.497 -0.2189  0.2832 -0.3224
 2962SOL    HW211620   5.733   3.297   5.486 -3.3658  0.2788  0.0545
 2962SOL    HW311621   5.691   3.185   5.579  1.1455 -1.5415  0.1309
 2962SOL    MW411622   5.731   3.212   5.506  0.4521 -0.4423  0.2069
 2963SOL     OW11623   3.901   5.990   1.083 -0.2589 -0.2145 -0.1816
 2963SOL    HW211624   3.988   6.024   1.060  0.4184 -0.6247  1.6488
 2963SOL    HW311625   3.861   5.968   0.999  1.1114  0.6738 -1.1055
 2963SOL    MW411626   3.907   5.992   1.069  0.6871 -0.2693 -0.3559
 2964SOL     OW11627   4.983   2.816   1.358  0.3223  0.1718 -0.5840
 2964SOL    HW211628   5.001   2.906   1.333 -2.3300  0.7285 -0.8094
 2964SOL    HW311629   4.960   2.772   1.276  0.5128 -0.4289 -0.3279
 2964SOL    MW411630   4.982   2.822   1.344 -0.3061  0.6338 -0.0461
 2965SOL     OW11631   1.004   1.278   2.802 -0.8248  0.1671 -0.1198
 2965SOL    HW211632   0.967   1.200   2.761  1.4351 -1.0963  0.0651
 2965SOL    HW311633   1.088   1.291   2.757 -0.8064  2.0805  0.3731
 2965SOL    MW411634   1.010   1.270   2.790  0.1552 -0.0104  0.4980
 2966SOL     OW11635   2.796   1.612   1.739 -0.7020 -0.2237  0.0300
 2966SOL    HW211636   2.724   1.673   1.723 -0.2018 -0.2426 -2.7556
 2966SOL    HW311637   2.866   1.641   1.680  1.0372 -1.1503  1.5205
 2966SOL    MW411638   2.796   1.624   1.729  0.1375  0.3964  0.5516
 2967SOL     OW11639   2.268   3.662  -0.013  0.6924 -0.0057  0.0743
 2967SOL    HW211640   2.174   3.647  -0.025  0.9329 -0.1041 -1.9440
 2967SOL    HW311641   2.297   3.588   0.041 -0.0299 -1.1044 -0.9975
 2967SOL    MW411642   2.259   3.650  -0.007  0.3310 -0.2091  0.2690
 2968SOL     OW11643   1.842   2.064   5.360 -0.1815 -0.1280  1.0397
 2968SOL    HW211644   1.791   1.985   5.376  0.8854 -1.1017 -0.1448
 2968SOL    HW311645   1.810   2.127   5.425 -2.0864 -1.0400  1.0444
 2968SOL    MW411646   1.831   2.062   5.371 -0.3123  0.2462  0.1980
 2969SOL     OW11647   6.192   4.518   2.075 -1.1290  0.3442 -0.1091
 2969SOL    HW211648   6.169   4.461   2.002 -2.9284 -0.0508  0.7180
 2969SOL    HW311649   6.139   4.487   2.148  2.1239 -0.6639  2.0503
 2969SOL    MW411650   6.182   4.507   2.075  0.2687 -0.1973  0.3208
 2970SOL     OW11651   2.694   5.008   0.535 -0.0527 -0.0711 -0.2964
 2970SOL    HW211652   2.618   4.951   0.526  0.3722 -0.8944  1.0387
 2970SOL    HW311653   2.768   4.948   0.544  1.1896  0.6440 -4.0448
 2970SOL    MW411654   2.694   4.993   0.535 -0.3273  0.4507  0.1246
 2971SOL     OW11655   3.058   1.764   1.215 -0.3731  0.0704  0.7688
 2971SOL    HW211656   2.963   1.779   1.213 -0.2543  1.2222  1.9517
 2971SOL    HW311657   3.088   1.792   1.129 -1.1686 -0.8866  0.1578
 2971SOL    MW411658   3.049   1.770   1.203 -0.0541 -0.3592 -0.1095
 2972SOL     OW11659   3.282   4.276   2.409  0.7917  0.3826  0.6023
 2972SOL    HW211660   3.306   4.198   2.459 -1.4610  0.1288  1.4043
 2972SOL    HW311661   3.228   4.327   2.469  1.7446  2.3260 -0.1072
 2972SOL    MW411662   3.278   4.272   2.423  0.4387 -0.1231  0.6270
 2973SOL     OW11663   2.325   0.791   1.285  0.5415  0.4359  0.1129
 2973SOL    HW211664   2.237   0.824   1.267 -0.3324 -0.6209  2.1543
 2973SOL    HW311665   2.371   0.866   1.323  1.0554  1.4083 -2.2126
 2973SOL    MW411666   2.320   0.805   1.287  0.7729  0.7049 -0.3951
 2974SOL     OW11667   0.086   1.477   5.609 -0.0243  0.1729 -0.1779
 2974SOL    HW211668   0.071   1.502   5.517  0.6204 -1.0408 -0.6395
 2974SOL    HW311669   0.171   1.515   5.630 -0.0209  0.1682 -0.1830
 2974SOL    MW411670   0.095   1.485   5.599  0.3474 -0.3401  0.0523
 2975SOL     OW11671   5.865   0.144   4.811 -0.3896 -0.1678 -1.1218
 2975SOL    HW211672   5.872   0.207   4.740 -0.1201  0.0172 -0.9343
 2975SOL    HW311673   5.773   0.144   4.835 -0.0963  1.5844  0.1724
 2975SOL    MW411674   5.854   0.152   4.805  0.4752 -0.2650  0.5843
 2976SOL     OW11675   5.979   6.031   4.258  0.4368 -0.1028  0.7001
 2976SOL    HW211676   5.961   5.937   4.260 -0.4742  0.0712  1.9672
 2976SOL    HW311677   5.986   6.057   4.350 -2.8729  1.6525  0.6261
 2976SOL    MW411678   5.977   6.022   4.270 -0.4401 -0.2988  0.4934
 2977SOL     OW11679   4.938   6.295   5.204  0.0202  0.1185  0.4628
 2977SOL    HW211680   4.953   6.367   5.142 -0.5376 -0.8414 -0.8046
 2977SOL    HW311681   5.013   6.301   5.264  0.1733  1.5378  0.1864
 2977SOL    MW411682   4.950   6.306   5.204 -0.2035 -0.0143 -0.4977
 2978SOL     OW11683   2.206   0.634   4.772 -0.4462 -0.0435 -0.2068
 2978SOL    HW211684   2.279   0.662   4.717 -1.0896  0.5894 -0.7443
 2978SOL    HW311685   2.237   0.648   4.861  0.1957 -0.0605 -0.4217
 2978SOL    MW411686   2.220   0.639   4.777 -0.0053  0.2594  0.1255
 2979SOL     OW11687   6.253   2.347   4.444 -0.2120  0.5379  0.0219
 2979SOL    HW211688   6.216   2.399   4.516  2.6785  3.7903 -0.6009
 2979SOL    HW311689   6.288   2.269   4.487  1.6801  2.5058  2.3319
 2979SOL    MW411690   6.252   2.343   4.459  0.5309  0.2251 -0.1567
 2980SOL     OW11691   5.393   0.676   4.784  0.4715  0.1103 -0.3087
 2980SOL    HW211692   5.301   0.699   4.796  0.3365 -1.2660  1.9661
 2980SOL    HW311693   5.404   0.594   4.832  2.6750 -0.3081 -1.3867
 2980SOL    MW411694   5.383   0.668   4.792 -0.2703 -0.1080 -0.6398
 2981SOL     OW11695   0.795   5.512   3.372 -0.1429 -0.8656 -0.2219
 2981SOL    HW211696   0.749   5.583   3.327  0.9949  0.7552  1.0658
 2981SOL    HW311697   0.740   5.492   3.448 -0.2617 -1.1010 -0.3677
 2981SOL    MW411698   0.781   5.519   3.376 -0.6201 -0.5389 -0.3599
 2982SOL     OW11699   3.626   3.744   3.567  0.7221 -0.1978  0.8179
 2982SOL    HW211700   3.670   3.661   3.585  1.0376 -0.1923  0.1097
 2982SOL    HW311701   3.675   3.782   3.494  0.7983  0.7893  1.3746
 2982SOL    MW411702   3.638   3.738   3.559 -0.1068 -0.7154  0.0097
 2983SOL     OW11703   1.599   1.099   0.416 -0.6763 -0.3492  0.3013
 2983SOL    HW211704   1.667   1.096   0.349  0.6891 -1.6899  1.6528
 2983SOL    HW311705   1.537   1.165   0.384  0.3088 -0.3709 -1.8545
 2983SOL    MW411706   1.600   1.108   0.403 -0.3584 -0.2388 -0.3288
 2984SOL     OW11707   2.346   2.027   1.646 -0.1064  0.5658  0.7357
 2984SOL    HW211708   2.406   2.028   1.571 -0.2971 -0.2379  0.5660
 2984SOL    HW311709   2.299   2.111   1.640  1.4761  1.5230  1.2797
 2984SOL    MW411710   2.347   2.038   1.635 -0.2375 -0.2300  0.0228
 2985SOL     OW11711   1.085   6.358   5.923  0.5124  0.3631 -0.6717
 2985SOL    HW211712   1.014   6.294   5.912  1.3387 -0.6588 -0.2478
 2985SOL    HW311713   1.165   6.307   5.913  1.2655  0.6277  2.7630
 2985SOL    MW411714   1.086   6.342   5.920 -0.1999  0.2414 -0.2383
 2986SOL     OW11715   1.755   4.656   3.655 -0.7990  0.4584  0.0345
 2986SOL    HW211716   1.700   4.638   3.731  0.4725  1.1183  1.1695
 2986SOL    HW311717   1.788   4.745   3.669  0.5177  0.1044 -0.5981
 2986SOL    MW411718   1.752   4.665   3.667  0.3858  0.5155 -0.1348
 2987SOL     OW11719   3.565   2.612   5.104  0.6153 -0.0813 -0.1086
 2987SOL    HW211720   3.551   2.669   5.179  1.1498  0.4905 -0.4389
 2987SOL    HW311721   3.488   2.625   5.049  0.0967 -0.6975  0.4564
 2987SOL    MW411722   3.553   2.621   5.106 -0.1618  0.3372  0.1937
 2988SOL     OW11723   0.325   1.622   5.643  0.0572  0.3263  0.0748
 2988SOL    HW211724   0.417   1.602   5.661 -0.0572 -0.5908 -0.2632
 2988SOL    HW311725   0.327   1.699   5.586  0.7302 -0.7896 -1.4883
 2988SOL    MW411726   0.337   1.629   5.638 -0.2719 -0.6954 -0.0970
 2989SOL     OW11727   0.966   5.332   1.920  0.1246 -0.1074 -0.3699
 2989SOL    HW211728   1.053   5.362   1.947 -0.2684  1.3064 -0.5915
 2989SOL    HW311729   0.918   5.323   2.002  0.1447  0.2027 -0.3238
 2989SOL    MW411730   0.971   5.335   1.934 -0.1106  0.5674 -0.2962
 2990SOL     OW11731   1.401   4.013   4.791 -0.2505 -0.4293 -0.1561
 2990SOL    HW211732   1.383   4.031   4.699 -0.7443  0.8848  0.1780
 2990SOL    HW311733   1.328   4.054   4.838 -0.5063 -1.8645  0.7813
 2990SOL    MW411734   1.389   4.021   4.785 -0.0460  0.3196 -0.2011
 2991SOL     OW11735   4.753   1.157   1.494  0.4174 -0.2825  0.5874
 2991SOL    HW211736   4.741   1.111   1.576  0.1826  0.5199  1.0154
 2991SOL    HW311737   4.762   1.249   1.519  0.3119 -0.0225 -0.2838
 2991SOL    MW411738   4.753   1.163   1.508 -0.1772  0.5382  0.2547
 2992SOL     OW11739   2.368   4.677   6.311 -0.5250 -0.2376  0.1314
 2992SOL    HW211740   2.289   4.661   6.259 -0.7282  1.2058 -0.0337
 2992SOL    HW311741   2.440   4.647   6.255 -0.6403  2.3903 -1.5689
 2992SOL    MW411742   2.367   4.671   6.297 -0.1136 -0.3675 -0.4266
 2993SOL     OW11743   0.542   6.028   2.942  0.3500  0.3153 -0.2657
 2993SOL    HW211744   0.587   6.101   2.985 -0.9016  0.2859  1.1880
 2993SOL    HW311745   0.608   5.959   2.935  0.9477  0.7992  0.4522
 2993SOL    MW411746   0.557   6.028   2.947 -0.4525  0.1435 -0.0299
 2994SOL     OW11747   3.806   6.175   2.322 -0.0980  0.2201  0.1148
 2994SOL    HW211748   3.870   6.206   2.258 -0.9682  1.5325 -0.1615
 2994SOL    HW311749   3.856   6.161   2.402  0.8542 -0.6241 -0.5969
 2994SOL    MW411750   3.821   6.177   2.324  0.2109 -0.9471  0.5178
 2995SOL     OW11751   0.681   0.200   5.210 -0.0212 -0.1000  0.0344
 2995SOL    HW211752   0.712   0.290   5.201  2.1444 -0.8021 -0.0013
 2995SOL    HW311753   0.716   0.171   5.294 -1.3376 -0.6907  0.4028
 2995SOL    MW411754   0.690   0.208   5.220 -0.8700  0.3817  0.3302
 2996SOL     OW11755   5.439   6.346   0.043 -0.2840  0.0880 -0.2868
 2996SOL    HW211756   5.389   6.368  -0.036 -0.6056 -2.3294 -0.8368
 2996SOL    HW311757   5.374   6.311   0.104  0.1389  0.9020  0.6727
 2996SOL    MW411758   5.423   6.344   0.041  0.0868 -0.8455 -0.2302
 2997SOL     OW11759   2.297   0.687   5.013 -0.2907  0.1164  0.1824
 2997SOL    HW211760   2.328   0.614   5.068  0.7048  0.4536  0.0911
 2997SOL    HW311761   2.215   0.714   5.054  0.7212  0.7586  1.9043
 2997SOL    MW411762   2.290   0.681   5.026  0.2226 -0.6781  0.3282
 2998SOL     OW11763   1.959   5.345   2.462 -0.3621 -0.8161  0.9048
 2998SOL    HW211764   1.884   5.342   2.402 -0.6453 -0.3070  1.2256
 2998SOL    HW311765   1.920   5.357   2.548  0.1456  2.5217  0.7872
 2998SOL    MW411766   1.944   5.346   2.465 -0.5916 -0.3740 -0.4271
 2999SOL     OW11767   5.299   6.416   6.213 -0.0844 -0.5633 -0.0554
 2999SOL    HW211768   5.291   6.325   6.184 -0.5712  0.0259 -1.9145
 2999SOL    HW311769   5.371   6.452   6.162  1.4961 -0.3976  2.1492
 2999SOL    MW411770   5.307   6.409   6.203  0.4512  0.0183 -0.6080
 3000SOL     OW11771   3.255   6.077   0.922 -0.3245  0.5775  0.2499
 3000SOL    HW211772   3.329   6.138   0.920 -0.2539  0.4676 -0.7857
 3000SOL    HW311773   3.289   5.996   0.883 -0.6582  0.1419  0.8458
 3000SOL    MW411774   3.270   6.074   0.917  0.0575 -0.2759 -0.0508
 3001SOL     OW11775   3.060   3.776   6.241 -0.0746 -0.1832 -0.2106
 3001SOL    HW211776   3.130   3.712   6.228 -0.8070 -0.5991 -2.6462
 3001SOL    HW311777   3.009   3.741   6.314  0.2657 -1.7320 -0.6869
 3001SOL    MW411778   3.062   3.763   6.249  0.1798 -0.0275  0.3328
 3002SOL     OW11779   1.909   3.326   0.876 -0.5569  0.0207 -0.4678
 3002SOL    HW211780   1.979   3.294   0.933 -1.1068  1.4222  1.0784
 3002SOL    HW311781   1.850   3.251   0.865 -1.2343  0.0862  2.1130
 3002SOL    MW411782   1.911   3.312   0.882  0.4889 -0.5730 -0.0634
 3003SOL     OW11783   3.676   2.501   5.813 -0.1822 -0.0938  0.4225
 3003SOL    HW211784   3.622   2.439   5.863  0.1729  0.0350  0.9804
 3003SOL    HW311785   3.618   2.575   5.797 -0.1255  0.1258  1.1815
 3003SOL    MW411786   3.661   2.502   5.817 -0.4939 -0.0043  0.1794
 3004SOL     OW11787   2.822   3.472   4.714  0.0982 -0.3862 -0.6441
 3004SOL    HW211788   2.760   3.456   4.786  0.0096  1.5212 -0.2534
 3004SOL    HW311789   2.766   3.486   4.637  0.0567  0.5492 -0.4529
 3004SOL    MW411790   2.806   3.472   4.713 -0.1194 -0.6517  0.1794
 3005SOL     OW11791   4.619   1.724   3.977  0.5820  0.0694 -0.0281
 3005SOL    HW211792   4.555   1.654   3.974 -0.7421  1.1800  0.9972
 3005SOL    HW311793   4.697   1.688   3.935 -0.0479 -1.9999  0.4851
 3005SOL    MW411794   4.621   1.710   3.971 -0.0355  0.3333 -0.1767
 3006SOL     OW11795   0.618   3.055   2.756  0.4428 -0.3114  0.6691
 3006SOL    HW211796   0.582   3.138   2.725  0.9332  0.1205  1.2328
 3006SOL    HW311797   0.708   3.076   2.782  1.7161 -1.6674 -2.1848
 3006SOL    MW411798   0.625   3.069   2.755  0.3463  0.2177 -0.0638
 3007SOL     OW11799   0.273   0.331   1.915 -0.3553 -0.3959 -0.6130
 3007SOL    HW211800   0.366   0.350   1.906  0.0013 -0.7675  1.5639
 3007SOL    HW311801   0.250   0.284   1.835  1.0456  0.6180 -1.6769
 3007SOL    MW411802   0.282   0.327   1.903  0.3117 -0.6436  0.3796
 3008SOL     OW11803   4.579   2.035   1.308  0.2557  0.1007  0.1064
 3008SOL    HW211804   4.535   2.020   1.224 -0.2012 -0.2190  0.3985
 3008SOL    HW311805   4.581   2.131   1.316  0.6447  0.1438 -0.4431
 3008SOL    MW411806   4.574   2.046   1.298  0.1145  0.1172  0.1058
 3009SOL     OW11807   5.146   0.124   4.212  0.1422  0.9727  0.0243
 3009SOL    HW211808   5.138   0.195   4.277 -0.8604  0.3177  0.6527
 3009SOL    HW311809   5.058   0.116   4.176 -0.0379 -0.6674  0.7594
 3009SOL    MW411810   5.133   0.133   4.216 -0.1053  0.2259  0.2175
 3010SOL     OW11811   5.493   2.820   5.669  0.8521 -0.0247  0.0814
 3010SOL    HW211812   5.464   2.730   5.653 -1.3599  0.7100 -0.5254
 3010SOL    HW311813   5.473   2.837   5.761  0.6326  0.0406  0.0233
 3010SOL    MW411814   5.486   2.811   5.679 -0.3681 -0.4138 -0.2263
 3011SOL     OW11815   5.349   6.074   1.115  0.3423  0.1468  0.4529
 3011SOL    HW211816   5.276   6.014   1.135  0.0592 -0.1678 -1.3419
 3011SOL    HW311817   5.427   6.021   1.129  0.0813 -1.0459 -1.9605
 3011SOL    MW411818   5.350   6.059   1.119  0.1557 -0.4129  0.4291
 3012SOL     OW11819   2.257   3.025   3.189  0.2787  0.1650  0.2644
 3012SOL    HW211820   2.294   3.073   3.262  0.4764 -0.6915  0.7476
 3012SOL    HW311821   2.196   2.962   3.229 -1.1925  1.0665 -0.4599
 3012SOL    MW411822   2.254   3.023   3.204 -0.3244 -0.1924 -0.6098
 3013SOL     OW11823   3.011   3.960   2.967  0.4114 -0.7302  0.4672
 3013SOL    HW211824   2.927   3.928   2.999  0.7225 -2.8423 -0.6667
 3013SOL    HW311825   3.043   3.891   2.909  2.3193  0.6093 -0.1847
 3013SOL    MW411826   3.004   3.947   2.964  0.3256 -0.3775  0.0731
 3014SOL     OW11827   2.995   1.386   5.537  0.0328 -0.7218 -0.4398
 3014SOL    HW211828   2.986   1.401   5.443 -0.9441  0.5052 -0.1660
 3014SOL    HW311829   2.948   1.458   5.578  2.4651  0.1599  1.0249
 3014SOL    MW411830   2.988   1.397   5.530 -0.7169 -0.1887  0.3274
 3015SOL     OW11831   0.375   3.663   5.400 -0.7912  0.1557  0.2185
 3015SOL    HW211832   0.352   3.740   5.451 -1.5217 -0.1446  0.3553
 3015SOL    HW311833   0.469   3.652   5.414 -1.0386 -0.1395  1.8066
 3015SOL    MW411834   0.385   3.672   5.408 -1.2793  0.7134 -0.0604
 3016SOL     OW11835   2.744   0.905   2.190  0.5229  0.1078  0.5984
 3016SOL    HW211836   2.828   0.932   2.153  0.9670 -1.4632  0.4087
 3016SOL    HW311837   2.766   0.876   2.279 -0.0727  1.0604  1.0785
 3016SOL    MW411838   2.758   0.905   2.197  0.1121 -0.4047 -0.5771
 3017SOL     OW11839   0.401   2.645   3.508 -0.2081 -0.0435 -0.1150
 3017SOL    HW211840   0.417   2.634   3.414 -0.3857  0.5260 -0.2101
 3017SOL    HW311841   0.371   2.558   3.536 -0.6194 -0.0931 -0.6776
 3017SOL    MW411842   0.399   2.632   3.499  0.0668 -0.5061 -0.0331
 3018SOL     OW11843   4.926   5.540   4.632  0.7880 -0.2317  0.0378
 3018SOL    HW211844   4.866   5.469   4.611  1.3955 -0.3459 -1.4770
 3018SOL    HW311845   4.887   5.617   4.590  0.4536  0.2063  1.1380
 3018SOL    MW411846   4.913   5.541   4.623 -0.8996  0.1961  0.4523
 3019SOL     OW11847   4.722   0.301   6.082  0.8047  0.0777 -0.6326
 3019SOL    HW211848   4.772   0.232   6.127 -0.1904  0.6452  1.4914
 3019SOL    HW311849   4.715   0.271   5.992  2.2490 -1.5365 -0.2599
 3019SOL    MW411850   4.728   0.288   6.076 -0.4874 -0.4498 -0.1336
 3020SOL     OW11851   5.410   3.820   5.616  0.1206  0.0566 -0.8362
 3020SOL    HW211852   5.383   3.892   5.558  0.4261  0.2389 -0.7545
 3020SOL    HW311853   5.505   3.816   5.605  0.1097 -0.3023 -0.8000
 3020SOL    MW411854   5.419   3.829   5.607  0.9931  0.5395 -0.3578
 3021SOL     OW11855   1.654   3.646   5.205 -0.1642 -0.0347  0.5002
 3021SOL    HW211856   1.573   3.674   5.162  0.9625  0.0053 -1.7846
 3021SOL    HW311857   1.660   3.553   5.187 -0.7293 -0.5114  2.5584
 3021SOL    MW411858   1.644   3.638   5.197 -0.2319  0.7909  0.0413
 3022SOL     OW11859   1.838   6.042   3.753  0.1254 -0.2301 -0.3885
 3022SOL    HW211860   1.822   6.044   3.847 -1.1133 -0.0910 -0.5860
 3022SOL    HW311861   1.839   6.133   3.726 -0.9017 -0.2966 -0.7083
 3022SOL    MW411862   1.836   6.054   3.762 -0.4119  0.0017 -0.2471
 3023SOL     OW11863   2.709   4.341   0.615 -0.0998  0.1290 -0.4708
 3023SOL    HW211864   2.709   4.257   0.660  0.9961  0.8844  1.0214
 3023SOL    HW311865   2.796   4.346   0.574 -0.5008  0.1475 -1.3457
 3023SOL    MW411866   2.720   4.331   0.615  0.4396  0.0532 -0.0677
 3024SOL     OW11867   0.914   5.085   3.894 -0.1199  0.0389  0.1993
 3024SOL    HW211868   0.914   5.074   3.989 -0.4013 -1.5760  0.0399
 3024SOL    HW311869   0.973   5.018   3.862  0.3406  0.8717 -0.7569
 3024SOL    MW411870   0.921   5.075   3.902  0.5429 -0.1553 -0.2148
 3025SOL     OW11871   1.715   3.021   0.515 -0.0941  0.0539  0.2119
 3025SOL    HW211872   1.654   2.958   0.478 -0.6225  0.6970 -0.0280
 3025SOL    HW311873   1.659   3.089   0.553  0.4630  0.4376  0.3566
 3025SOL    MW411874   1.700   3.022   0.515 -0.9337  0.4971 -0.0352
 3026SOL     OW11875   5.860   3.899   3.989  0.3545  0.8147 -0.0337
 3026SOL    HW211876   5.861   3.953   4.068 -1.1481  1.2865 -0.3089
 3026SOL    HW311877   5.788   3.933   3.937 -1.3686 -2.0660  0.2289
 3026SOL    MW411878   5.851   3.910   3.993 -0.1706  0.7968  0.4533
 3027SOL     OW11879   2.289   4.431   1.803 -0.3216  0.3026 -0.7436
 3027SOL    HW211880   2.263   4.345   1.772  0.3237 -1.0756  2.1723
 3027SOL    HW311881   2.384   4.423   1.818 -0.5313  0.9022  1.1718
 3027SOL    MW411882   2.298   4.419   1.801  0.2259  0.9077 -0.4307
 3028SOL     OW11883   3.450   5.476   5.254 -0.2721  0.0157  0.6559
 3028SOL    HW211884   3.509   5.508   5.322  1.7213 -1.2455 -0.3768
 3028SOL    HW311885   3.419   5.392   5.288  0.6215 -0.5525  0.1045
 3028SOL    MW411886   3.454   5.469   5.268  0.2978 -0.0596  0.3563
 3029SOL     OW11887   6.330   6.393   3.279  0.3605  0.0419  0.5074
 3029SOL    HW211888   6.285   6.459   3.226 -1.3255 -0.4981  1.1767
 3029SOL    HW311889   6.372   6.443   3.349 -0.6211  0.4736  0.8200
 3029SOL    MW411890   6.329   6.408   3.281 -0.5714  0.7069  0.1285
 3030SOL     OW11891   5.880   2.002   5.635 -0.1574  0.4277  0.1337
 3030SOL    HW211892   5.963   2.049   5.644  0.7153 -0.8920 -0.7402
 3030SOL    HW311893   5.827   2.060   5.579 -0.0798  1.5581  1.1834
 3030SOL    MW411894   5.884   2.016   5.629 -0.2170  0.3299  0.5099
 3031SOL     OW11895   3.269   6.365   3.869  0.7232 -0.3480 -0.1598
 3031SOL    HW211896   3.323   6.300   3.824  1.7653  0.6034 -0.2978
 3031SOL    HW311897   3.281   6.446   3.820 -2.7274 -0.5793 -1.6792
 3031SOL    MW411898   3.277   6.367   3.857  0.0750  0.2079 -0.2407
 3032SOL     OW11899   4.330   2.861   3.196  0.3169 -0.0488 -0.1717
 3032SOL    HW211900   4.336   2.812   3.114 -0.3106 -0.4556  0.0206
 3032SOL    HW311901   4.236   2.873   3.210  0.4507  1.7763 -0.5471
 3032SOL    MW411902   4.319   2.856   3.187  0.3491 -0.0205 -0.1113
 3033SOL     OW11903   2.934   2.736   0.813 -0.3990  0.5384 -0.0115
 3033SOL    HW211904   2.840   2.748   0.830 -0.5392 -1.1409  0.5937
 3033SOL    HW311905   2.941   2.646   0.780  0.9402  0.8295 -0.5772
 3033SOL    MW411906   2.922   2.726   0.811  0.1783  0.5500 -0.2443
 3034SOL     OW11907   2.873   4.714   5.891  0.5673 -0.1486  0.0918
 3034SOL    HW211908   2.867   4.744   5.981  1.5457 -1.0257  0.4836
 3034SOL    HW311909   2.817   4.773   5.841 -0.1655  0.2072  1.3049
 3034SOL    MW411910   2.865   4.726   5.896 -0.0208  0.2446 -0.4637
 3035SOL     OW11911   3.272   0.446   5.549 -0.0664  0.1138  0.7587
 3035SOL    HW211912   3.262   0.391   5.627 -1.3541 -0.3834  0.2666
 3035SOL    HW311913   3.264   0.535   5.581  1.6198  0.0455  1.5036
 3035SOL    MW411914   3.270   0.450   5.564  0.3288  0.3216 -0.3128
 3036SOL     OW11915   3.909   0.718   5.373  0.1645  0.7985 -0.3304
 3036SOL    HW211916   3.920   0.722   5.467  0.8982 -0.7472 -0.3204
 3036SOL    HW311917   3.850   0.791   5.352  0.0308  1.1831  1.2988
 3036SOL    MW411918   3.902   0.728   5.382 -0.4036 -0.1440  0.0038
 3037SOL     OW11919   6.081   2.245   5.218  0.5271 -0.0359 -0.2909
 3037SOL    HW211920   6.060   2.337   5.234  0.8202  0.4590 -2.3816
 3037SOL    HW311921   6.091   2.207   5.305  1.6709  2.2037  0.6349
 3037SOL    MW411922   6.079   2.252   5.231 -0.2572  0.3750  0.4296
 3038SOL     OW11923   4.371   1.258   1.875 -0.3906 -0.1618 -0.6807
 3038SOL    HW211924   4.345   1.232   1.963 -0.9292  0.0735 -0.7668
 3038SOL    HW311925   4.313   1.208   1.817 -0.0203 -0.3380 -0.9085
 3038SOL    MW411926   4.360   1.248   1.879 -0.2606  0.8264  0.7123
 3039SOL     OW11927   4.083   5.934   5.573  0.1776  0.0593 -0.3370
 3039SOL    HW211928   4.171   5.971   5.562  0.5626 -1.1186 -1.4204
 3039SOL    HW311929   4.031   6.005   5.610  1.4937  0.8959 -0.0514
 3039SOL    MW411930   4.088   5.948   5.577 -0.3960  0.5999 -0.5779
 3040SOL     OW11931   2.682   5.881   4.517  0.5880  0.4247  0.2001
 3040SOL    HW211932   2.665   5.890   4.611  1.1192 -0.1444  0.3522
 3040SOL    HW311933   2.683   5.787   4.501  1.1276  0.5025 -0.2578
 3040SOL    MW411934   2.680   5.870   4.528  0.4938 -0.1662  0.4375
 3041SOL     OW11935   2.590   3.528   4.523  0.2891 -0.4332 -0.3079
 3041SOL    HW211936   2.495   3.523   4.530  0.2212 -2.2267 -1.7710
 3041SOL    HW311937   2.607   3.617   4.491 -0.7375  0.4689  1.5189
 3041SOL    MW411938   2.580   3.539   4.520 -0.5236  0.4586  0.0363
 3042SOL     OW11939   1.934   1.201   6.123  0.4242 -0.5921 -0.1223
 3042SOL    HW211940   1.879   1.198   6.202 -0.2275  1.1606 -0.4629
 3042SOL    HW311941   1.916   1.119   6.078 -0.7280 -0.7358  0.5554
 3042SOL    MW411942   1.924   1.190   6.128 -0.1940 -0.1690 -0.2297
 3043SOL     OW11943   1.813   2.865   4.598  0.0019 -0.4537  0.3058
 3043SOL    HW211944   1.856   2.830   4.676 -0.0709 -2.1305 -0.3739
 3043SOL    HW311945   1.882   2.868   4.531  0.1981  1.4764  0.5279
 3043SOL    MW411946   1.828   2.861   4.599  0.6604  0.1240  0.2116
 3044SOL     OW11947   1.307   6.403   5.538  0.1441 -0.2146 -0.0133
 3044SOL    HW211948   1.295   6.315   5.501  0.0862  0.6613 -2.2554
 3044SOL    HW311949   1.221   6.444   5.529  0.4135  0.3878  0.1140
 3044SOL    MW411950   1.294   6.397   5.532  0.6461  0.4605  0.4672
 3045SOL     OW11951   4.825   4.873   2.326 -0.0913 -0.0025 -0.6602
 3045SOL    HW211952   4.760   4.887   2.394  1.2340  3.2932  0.1414
 3045SOL    HW311953   4.775   4.837   2.252 -3.2468  3.5944 -0.6068
 3045SOL    MW411954   4.810   4.870   2.325 -0.5585 -0.1068  0.0823
 3046SOL     OW11955   3.868   3.766   3.325  0.0874 -0.5010  0.0221
 3046SOL    HW211956   3.868   3.830   3.396  0.1284 -0.5407  0.0583
 3046SOL    HW311957   3.786   3.783   3.278  0.6466  0.3423 -0.6651
 3046SOL    MW411958   3.857   3.777   3.328 -0.2040 -0.3381  0.0700
 3047SOL     OW11959   2.076   5.587   3.753  0.3945  0.3637 -0.4454
 3047SOL    HW211960   2.122   5.537   3.820 -0.9853 -0.9087 -0.3909
 3047SOL    HW311961   2.127   5.572   3.673 -0.0068 -1.2344 -0.4473
 3047SOL    MW411962   2.089   5.578   3.751  0.2078  0.3801  0.1110
 3048SOL     OW11963   6.267   0.663   2.685 -0.2010 -0.0215 -0.5201
 3048SOL    HW211964   6.261   0.579   2.730 -0.3808  0.4908  0.4328
 3048SOL    HW311965   6.262   0.640   2.592  0.4023 -1.1178 -0.3044
 3048SOL    MW411966   6.266   0.649   2.679 -0.3169 -0.2569 -0.5163
 3049SOL     OW11967   6.213   2.283   0.309 -0.3640  0.6788 -0.2056
 3049SOL    HW211968   6.201   2.332   0.391  0.0618 -1.2973  1.1114
 3049SOL    HW311969   6.305   2.293   0.288 -0.0740 -0.2709  0.5664
 3049SOL    MW411970   6.223   2.291   0.317  0.0509 -0.4211  0.0361
 3050SOL     OW11971   0.699   0.364   2.992 -0.4426 -0.0073 -0.2252
 3050SOL    HW211972   0.725   0.401   3.076 -0.0245  0.9661 -0.7555
 3050SOL    HW311973   0.755   0.408   2.928  0.7346 -2.2342 -0.8430
 3050SOL    MW411974   0.710   0.375   2.994 -0.6873  0.2418 -0.4814
 3051SOL     OW11975   4.337   0.882   1.776  0.0996 -0.3159  0.2265
 3051SOL    HW211976   4.427   0.887   1.745  0.4282  1.0592  1.3154
 3051SOL    HW311977   4.290   0.836   1.706  1.2372  0.7262 -1.2761
 3051SOL    MW411978   4.343   0.876   1.762  0.1040  0.4994 -0.5376
 3052SOL     OW11979   3.862   1.327   1.370  0.1020 -0.4556 -0.3621
 3052SOL    HW211980   3.818   1.329   1.285 -0.6880 -0.2416  0.0425
 3052SOL    HW311981   3.951   1.297   1.350 -0.1965 -0.8174 -1.2050
 3052SOL    MW411982   3.868   1.323   1.356 -0.3617 -0.0144  0.2556
 3053SOL     OW11983   4.543   1.186   5.743  0.0240  0.3017 -0.8229
 3053SOL    HW211984   4.492   1.107   5.764 -1.2319  1.0781 -0.8704
 3053SOL    HW311985   4.600   1.199   5.819 -0.4303 -0.1250 -0.4041
 3053SOL    MW411986   4.544   1.177   5.756  1.3004 -0.3483  0.2042
 3054SOL     OW11987   3.948   2.973   6.085 -0.2428  0.1181 -0.7511
 3054SOL    HW211988   4.036   2.952   6.117  0.4270  1.2273 -1.8001
 3054SOL    HW311989   3.897   2.895   6.106  0.3964  0.3181  1.9790
 3054SOL    MW411990   3.953   2.960   6.092  0.1267  0.4788  0.2561
 3055SOL     OW11991   4.479   0.862   3.937  0.1608  0.8647  0.5397
 3055SOL    HW211992   4.442   0.949   3.934  1.1978  1.3113 -0.1643
 3055SOL    HW311993   4.440   0.817   3.862 -0.1198  0.8348  0.7045
 3055SOL    MW411994   4.469   0.867   3.926  0.1844  0.0945 -0.2064
 3056SOL     OW11995   4.623   0.554   5.812  0.3628 -0.9270  0.1094
 3056SOL    HW211996   4.699   0.584   5.862 -0.7441 -0.9941  1.9154
 3056SOL    HW311997   4.618   0.460   5.829  0.3108 -1.0697 -0.6441
 3056SOL    MW411998   4.633   0.546   5.821  0.4482  0.0717  0.5245
 3057SOL     OW11999   3.270   5.823   3.572 -0.5647 -0.4437  0.1250
 3057SOL    HW212000   3.352   5.775   3.563 -1.7031 -2.2112 -1.7924
 3057SOL    HW312001   3.292   5.900   3.624  2.2467 -0.9309 -0.2136
 3057SOL    MW412002   3.284   5.827   3.577  0.0019 -0.0732 -0.1932
 3058SOL     OW12003   2.753   6.211   0.479  0.2868 -0.1778 -0.2806
 3058SOL    HW212004   2.731   6.304   0.487  0.5553 -0.2612  2.3339
 3058SOL    HW312005   2.681   6.174   0.427 -0.7470  1.1957  0.0945
 3058SOL    MW412006   2.740   6.218   0.473  0.0622  0.3033  0.2895
 3059SOL     OW12007   5.835   4.178   0.174 -0.5704  0.2614  0.8181
 3059SOL    HW212008   5.818   4.097   0.223 -0.1653 -1.3382 -1.5491
 3059SOL    HW312009   5.930   4.178   0.162 -0.9025 -1.3982 -3.0347
 3059SOL    MW412010   5.846   4.167   0.179 -0.7998  0.1993  0.0804
 3060SOL     OW12011   1.368   1.056   3.949  0.4011 -0.0594 -0.1399
 3060SOL    HW212012   1.382   1.113   3.874 -1.3457  0.3706 -0.1731
 3060SOL    HW312013   1.455   1.048   3.989  0.8364  2.0296 -0.5446
 3060SOL    MW412014   1.381   1.062   3.945  0.6087  0.5533  0.3880
 3061SOL     OW12015   2.385   1.623   3.170  0.2782 -0.2091  0.5005
 3061SOL    HW212016   2.291   1.618   3.184  0.1881  0.1115  0.0475
 3061SOL    HW312017   2.408   1.712   3.197 -0.0995  0.8557 -2.3812
 3061SOL    MW412018   2.376   1.634   3.176  0.3163 -0.2997 -0.1221
 3062SOL     OW12019   5.682   0.118   5.868 -0.0078  0.2560 -0.4561
 3062SOL    HW212020   5.629   0.185   5.825 -1.7529  2.5527  4.4242
 3062SOL    HW312021   5.763   0.164   5.892  0.3914 -0.5349 -0.2654
 3062SOL    MW412022   5.686   0.133   5.866  0.7862 -0.3495  0.1213
 3063SOL     OW12023   3.421   3.700   4.791 -0.2936 -0.3446 -0.0193
 3063SOL    HW212024   3.499   3.649   4.812 -1.0220 -0.7693  1.8720
 3063SOL    HW312025   3.436   3.731   4.702  1.7479 -0.9160  0.0702
 3063SOL    MW412026   3.433   3.697   4.782 -0.1682 -0.6348 -0.4849
 3064SOL     OW12027   1.923   3.769   1.249 -0.4275 -0.5860  0.4086
 3064SOL    HW212028   1.881   3.767   1.163  0.5467  1.2949 -0.1542
 3064SOL    HW312029   1.861   3.816   1.304 -0.4540 -0.6138  0.4030
 3064SOL    MW412030   1.909   3.775   1.245  0.3329  0.3403  0.5676
 3065SOL     OW12031   1.248   5.154   5.884  0.8843 -0.9527  0.6631
 3065SOL    HW212032   1.298   5.115   5.812  0.1462 -1.3753  0.3709
 3065SOL    HW312033   1.305   5.144   5.960  2.6893  1.5976 -0.2302
 3065SOL    MW412034   1.262   5.147   5.885  0.5467  0.4181 -0.0345
 3066SOL     OW12035   2.515   4.724   1.045  0.4810 -0.1905  0.3288
 3066SOL    HW212036   2.497   4.695   1.134 -0.5498  0.2194  0.2629
 3066SOL    HW312037   2.568   4.654   1.007 -0.2769 -1.0392  0.8104
 3066SOL    MW412038   2.520   4.711   1.052  0.0036  0.2129  0.1676
 3067SOL     OW12039   6.231   2.914   3.217 -0.1431 -0.2356 -0.3159
 3067SOL    HW212040   6.150   2.863   3.208  0.8294 -2.1662  1.2435
 3067SOL    HW312041   6.230   2.945   3.307  0.4799  0.4575 -0.5362
 3067SOL    MW412042   6.220   2.911   3.228  0.3474  0.3150 -0.2651
 3068SOL     OW12043   5.010   3.020   1.682 -0.5690  0.5455 -0.2711
 3068SOL    HW212044   5.040   2.934   1.713 -3.6659 -0.6247 -0.2044
 3068SOL    HW312045   5.041   3.082   1.748  1.3871 -0.5154 -0.1190
 3068SOL    MW412046   5.018   3.017   1.695 -0.1542  0.5686 -0.1443
 3069SOL     OW12047   2.421   0.991   2.476  0.7743  0.9256 -0.2396
 3069SOL    HW212048   2.334   0.970   2.442  0.9876 -0.2932 -0.0946
 3069SOL    HW312049   2.465   1.036   2.404  0.3035  0.8020 -0.6078
 3069SOL    MW412050   2.416   0.994   2.462 -0.4429  0.3794 -0.1362
 3070SOL     OW12051   3.541   3.316   5.631 -0.8152 -0.0490  0.4050
 3070SOL    HW212052   3.506   3.405   5.634  1.8932  1.3819 -2.7634
 3070SOL    HW312053   3.476   3.266   5.581 -0.1269  1.6463 -2.4029
 3070SOL    MW412054   3.528   3.321   5.624  0.0672  0.2522  0.2083
 3071SOL     OW12055   6.157   2.530   2.089 -0.2194  0.6617  0.5397
 3071SOL    HW212056   6.163   2.608   2.144 -0.7743  0.5773  0.7309
 3071SOL    HW312057   6.248   2.505   2.072 -0.0409  1.1864  0.7057
 3071SOL    MW412058   6.170   2.537   2.094  0.5585 -0.0119 -0.0119
 3072SOL     OW12059   0.089   3.541   3.046 -0.7165 -0.1908  0.6347
 3072SOL    HW212060   0.094   3.469   3.109  2.4550  0.1012  0.9000
 3072SOL    HW312061  -0.003   3.566   3.046 -1.3027 -1.8693  3.2316
 3072SOL    MW412062   0.078   3.534   3.054  0.1931 -0.1071  0.7355
 3073SOL     OW12063   1.996   1.120   5.208  0.4931 -0.2442 -0.3228
 3073SOL    HW212064   1.917   1.147   5.161 -0.3234  0.6197  1.4581
 3073SOL    HW312065   2.055   1.195   5.200 -0.6092  0.9871  2.0360
 3073SOL    MW412066   1.993   1.134   5.201 -0.2225 -0.7005 -0.8600
 3074SOL     OW12067   3.206   5.411   0.769 -0.0899 -0.1846  0.3129
 3074SOL    HW212068   3.263   5.427   0.693  0.5326 -1.1766  0.5557
 3074SOL    HW312069   3.232   5.479   0.832  0.3483 -0.2028  0.1584
 3074SOL    MW412070   3.217   5.422   0.767 -0.6419  0.1102  0.1269
 3075SOL     OW12071   3.156   1.731   0.739 -0.3891  0.8500  0.1455
 3075SOL    HW212072   3.198   1.652   0.704  0.6701  1.1766  0.6540
 3075SOL    HW312073   3.068   1.701   0.765 -0.4953  0.1589 -0.9258
 3075SOL    MW412074   3.150   1.717   0.738  0.3764  0.8290  0.0976
 3076SOL     OW12075   4.791   4.321   5.733  0.2227  0.1200  0.1705
 3076SOL    HW212076   4.817   4.260   5.802 -1.2337 -0.7200  0.0124
 3076SOL    HW312077   4.696   4.317   5.733  0.0567  2.5230  0.2605
 3076SOL    MW412078   4.782   4.313   5.742  0.1306  0.1059 -0.0855
 3077SOL     OW12079   0.996   3.470   3.647 -0.3024  0.4799 -0.3006
 3077SOL    HW212080   0.975   3.562   3.633 -1.2885  0.3006 -0.1092
 3077SOL    HW312081   0.913   3.431   3.677  0.4093 -0.2012  0.8799
 3077SOL    MW412082   0.982   3.477   3.649  0.3107 -0.4553  0.0790
 3078SOL     OW12083   4.153   4.095   0.138 -0.0162 -0.4598  0.8186
 3078SOL    HW212084   4.134   4.180   0.176 -0.2685 -0.3926  0.5380
 3078SOL    HW312085   4.082   4.038   0.168 -1.6018  0.1556 -1.4986
 3078SOL    MW412086   4.141   4.099   0.147 -0.6623 -0.5324 -0.5974
 3079SOL     OW12087   6.143   0.480   3.509  0.6036 -0.0859  0.6762
 3079SOL    HW212088   6.136   0.385   3.512  0.7196 -0.0962  0.6395
 3079SOL    HW312089   6.230   0.498   3.546  0.5774  0.0051  0.6924
 3079SOL    MW412090   6.154   0.470   3.514  0.1299  0.1417 -0.4870
 3080SOL     OW12091   6.397   0.869   2.359 -0.1904  0.0542  0.1685
 3080SOL    HW212092   6.351   0.953   2.362  0.7215  0.5582  0.5022
 3080SOL    HW312093   6.328   0.804   2.371 -0.7922  0.7926  0.9271
 3080SOL    MW412094   6.382   0.872   2.361 -0.2478 -0.2212 -0.2862
 3081SOL     OW12095   1.957   6.106   5.529  0.3189  0.0942  0.3747
 3081SOL    HW212096   1.995   6.179   5.577  0.2332  0.7596 -0.5303
 3081SOL    HW312097   1.862   6.115   5.541  0.3741 -1.5491  2.6083
 3081SOL    MW412098   1.949   6.117   5.537  0.3729  0.5200 -0.3099
 3082SOL     OW12099   5.671   2.723   1.957  0.1823 -0.2576 -0.0325
 3082SOL    HW212100   5.656   2.636   1.996 -2.0625  0.4435  0.8134
 3082SOL    HW312101   5.711   2.704   1.872  1.3065 -2.0322  0.8172
 3082SOL    MW412102   5.674   2.709   1.951  0.3992 -0.1113  0.1916
 3083SOL     OW12103   2.278   1.474   0.862  0.1071  0.2727  0.0787
 3083SOL    HW212104   2.311   1.561   0.885  1.6494 -0.0097 -0.9077
 3083SOL    HW312105   2.345   1.414   0.894  0.9072 -0.2846 -2.4060
 3083SOL    MW412106   2.291   1.478   0.869 -0.1480  0.1541 -0.0981
 3084SOL     OW12107   4.839   1.305   3.931  0.7793  0.2691 -0.3301
 3084SOL    HW212108   4.808   1.245   3.863  1.2849 -0.3485 -0.0151
 3084SOL    HW312109   4.909   1.258   3.975 -1.0641 -0.3301  2.1910
 3084SOL    MW412110   4.844   1.291   3.928 -0.2691 -0.3359  0.2260
 3085SOL     OW12111   3.816   3.213   6.134 -0.3245  0.4441 -0.2199
 3085SOL    HW212112   3.781   3.158   6.204 -1.8428  0.5636 -0.8417
 3085SOL    HW312113   3.859   3.152   6.074 -1.9368 -0.0870 -0.8697
 3085SOL    MW412114   3.817   3.198   6.135 -0.3972 -0.1429  0.4241
 3086SOL     OW12115   1.618   3.976   2.596 -0.2080  0.2886  0.1375
 3086SOL    HW212116   1.602   3.884   2.578  1.1545  0.2572 -1.1151
 3086SOL    HW312117   1.606   3.985   2.691 -0.2137 -1.1990  0.2984
 3086SOL    MW412118   1.614   3.965   2.606  0.0977  0.4874 -0.5304
 3087SOL     OW12119   0.609   4.500   5.444  0.2081 -0.1044 -0.6786
 3087SOL    HW212120   0.656   4.549   5.376  1.7686  0.3485  0.6615
 3087SOL    HW312121   0.581   4.420   5.401 -0.2750  0.8832 -2.2753
 3087SOL    MW412122   0.612   4.496   5.429 -0.4419 -0.0179  0.2557
 3088SOL     OW12123   2.539   0.956   3.304  0.2513 -0.0064 -0.0082
 3088SOL    HW212124   2.453   0.955   3.261  0.5809  1.9845 -0.8270
 3088SOL    HW312125   2.600   0.926   3.236  0.2723 -1.1165  0.4765
 3088SOL    MW412126   2.536   0.952   3.289  0.1289  0.1128 -0.2459
 3089SOL     OW12127   3.645   5.801   2.735  0.0897  0.1747 -0.0485
 3089SOL    HW212128   3.592   5.851   2.796 -0.1896  0.1298 -0.2486
 3089SOL    HW312129   3.597   5.806   2.652  0.1497 -0.2705 -0.1137
 3089SOL    MW412130   3.632   5.808   2.732  0.1978  0.3267  0.0910
 3090SOL     OW12131   5.697   1.379   0.992  0.0460  0.3555  0.7968
 3090SOL    HW212132   5.763   1.352   1.056  1.7770  0.7692 -0.7342
 3090SOL    HW312133   5.742   1.444   0.937 -0.8051 -1.1059 -1.8220
 3090SOL    MW412134   5.712   1.384   0.993  0.6734 -0.3062 -0.5545
 3091SOL     OW12135   0.333   3.692   0.039  0.1815 -0.1619  0.1410
 3091SOL    HW212136   0.313   3.680  -0.054 -1.9775 -1.3124  0.6692
 3091SOL    HW312137   0.311   3.784   0.056  0.4930  0.0322 -0.4453
 3091SOL    MW412138   0.327   3.703   0.029  0.5563 -0.0334 -0.2311
 3092SOL     OW12139   3.371   5.164   4.581 -0.1489 -0.3871 -0.7106
 3092SOL    HW212140   3.371   5.074   4.549 -2.0238 -0.8689  0.4591
 3092SOL    HW312141   3.292   5.203   4.542 -0.5673  0.0430  0.5255
 3092SOL    MW412142   3.360   5.157   4.572 -0.0630 -0.1337 -0.7317
 3093SOL     OW12143   5.750   1.602   4.901  0.1345 -0.0652  0.3584
 3093SOL    HW212144   5.771   1.694   4.884 -0.2098 -0.2926 -1.5057
 3093SOL    HW312145   5.833   1.556   4.889  0.0861 -0.1200  0.2354
 3093SOL    MW412146   5.764   1.608   4.897 -0.7001 -0.2868  0.5122
 3094SOL     OW12147   4.568   5.503   5.250  0.2816 -0.0196  0.7107
 3094SOL    HW212148   4.662   5.508   5.229 -0.1932 -0.6944 -1.9590
 3094SOL    HW312149   4.559   5.419   5.294  0.3552 -2.7040 -3.7167
 3094SOL    MW412150   4.579   5.492   5.253  0.1903  0.2419  0.3898
 3095SOL     OW12151   2.794   5.791   5.015 -0.1145  0.0726 -0.2436
 3095SOL    HW212152   2.791   5.717   4.954 -0.5145 -0.2456  0.1534
 3095SOL    HW312153   2.871   5.841   4.987 -0.2395 -0.1120 -0.9497
 3095SOL    MW412154   2.804   5.788   5.003 -0.5220  0.2533  0.0682
 3096SOL     OW12155   4.308   2.961   5.484 -0.4384 -0.0612 -0.1261
 3096SOL    HW212156   4.367   2.933   5.554  0.5871  1.8177 -0.1744
 3096SOL    HW312157   4.291   3.053   5.502  0.3905  0.6872 -2.6760
 3096SOL    MW412158   4.314   2.969   5.495 -0.1018 -0.0623  0.2286
 3097SOL     OW12159   4.863   3.275   2.736 -0.5270 -0.1768 -0.3537
 3097SOL    HW212160   4.844   3.214   2.807  0.7929  0.2267  0.3746
 3097SOL    HW312161   4.892   3.220   2.664  3.1947 -0.3938  1.1098
 3097SOL    MW412162   4.864   3.260   2.736 -0.3423  0.0966  0.0451
 3098SOL     OW12163   4.777   3.002   1.965 -0.9931 -0.1716 -0.4581
 3098SOL    HW212164   4.765   2.929   1.905 -1.8782 -1.7748  1.5558
 3098SOL    HW312165   4.872   3.008   1.978 -0.8507 -0.2833 -1.4096
 3098SOL    MW412166   4.788   2.993   1.959  0.1902 -0.2712  0.4996
 3099SOL     OW12167   2.412   4.715   3.870  0.1391 -0.3563 -0.2276
 3099SOL    HW212168   2.432   4.728   3.777  0.9102  0.2303  0.0133
 3099SOL    HW312169   2.347   4.644   3.871  0.9824 -1.1746 -1.1379
 3099SOL    MW412170   2.406   4.707   3.858 -0.6170  0.1707 -0.1386
 3100SOL     OW12171   2.024   3.777   4.029  0.4660  0.5907  0.0686
 3100SOL    HW212172   2.082   3.707   4.059 -0.6575  0.7535  2.9162
 3100SOL    HW312173   1.998   3.824   4.109 -4.2595  0.0053 -0.8004
 3100SOL    MW412174   2.028   3.774   4.043 -0.2271 -0.3543  0.2475
 3101SOL     OW12175   3.752   0.978   1.688 -0.5200  0.1285 -0.0094
 3101SOL    HW212176   3.720   1.068   1.690 -0.1286  0.3081 -1.1892
 3101SOL    HW312177   3.700   0.933   1.755 -1.6421  0.9240 -0.3143
 3101SOL    MW412178   3.741   0.984   1.697  0.0893 -0.4732  0.1605
 3102SOL     OW12179   2.354   0.752   0.988  0.6482 -0.0661  0.0195
 3102SOL    HW212180   2.285   0.817   0.973  0.5867  0.5576  2.5423
 3102SOL    HW312181   2.338   0.720   1.077  2.3495 -1.5013 -0.1323
 3102SOL    MW412182   2.342   0.756   0.998 -0.5180  0.3389  0.0397
 3103SOL     OW12183   4.524   6.359   5.562 -0.0108 -0.4545  0.1458
 3103SOL    HW212184   4.580   6.324   5.632 -0.2292  1.2362  1.2413
 3103SOL    HW312185   4.575   6.431   5.525 -0.4369 -0.5129 -0.5688
 3103SOL    MW412186   4.538   6.364   5.566  0.5135  0.3172  0.2759
 3104SOL     OW12187   5.017   0.598   2.449  0.6192 -0.4542  0.2162
 3104SOL    HW212188   5.053   0.528   2.504 -0.6623 -0.2870  1.3374
 3104SOL    HW312189   4.978   0.553   2.374 -1.7795 -1.2047  1.7850
 3104SOL    MW412190   5.017   0.583   2.447 -0.2282  0.6479 -0.9223
 3105SOL     OW12191   3.320   1.529   0.652  0.4587 -0.8711 -0.5267
 3105SOL    HW212192   3.278   1.464   0.595  2.5561 -2.7403 -0.0833
 3105SOL    HW312193   3.307   1.494   0.740  1.9723 -0.9452 -0.3130
 3105SOL    MW412194   3.313   1.516   0.656  0.0161  0.1894  0.1273
 3106SOL     OW12195   2.538   1.681   4.578  0.0829 -0.1705 -0.3287
 3106SOL    HW212196   2.513   1.590   4.595  0.5258 -0.2673 -0.1934
 3106SOL    HW312197   2.622   1.675   4.534 -1.2783  0.0362 -3.1551
 3106SOL    MW412198   2.546   1.668   4.575 -0.2544 -0.1596  0.0609
 3107SOL     OW12199   3.592   0.195   0.960 -0.0714 -0.3317 -0.3697
 3107SOL    HW212200   3.634   0.214   1.044 -0.7229 -2.9250  0.6581
 3107SOL    HW312201   3.549   0.110   0.974  0.1246 -1.0609 -3.4637
 3107SOL    MW412202   3.591   0.186   0.973  0.5008 -0.1219  0.0351
 3108SOL     OW12203   0.464   4.455   4.929 -0.7149  0.3772  0.4367
 3108SOL    HW212204   0.536   4.475   4.869  0.0757 -1.6724  0.6157
 3108SOL    HW312205   0.450   4.361   4.918 -0.9967  0.0709  2.9782
 3108SOL    MW412206   0.471   4.445   4.919 -0.0047  0.1094 -0.0521
 3109SOL     OW12207   4.092   1.012   1.096  0.1173 -0.3535 -0.6869
 3109SOL    HW212208   4.069   1.021   1.003 -1.1176 -0.2225 -0.3779
 3109SOL    HW312209   4.103   1.102   1.126  0.6278 -0.4005 -0.7288
 3109SOL    MW412210   4.090   1.026   1.088  0.4910  0.2031  0.0248
 3110SOL     OW12211   5.038   1.124   0.717 -0.3321 -0.5105  0.1050
 3110SOL    HW212212   5.123   1.168   0.716 -0.7048  0.2240 -0.0765
 3110SOL    HW312213   5.057   1.034   0.743  0.6933 -0.7803 -1.4367
 3110SOL    MW412214   5.051   1.118   0.720  0.8895 -0.0255 -0.0899
 3111SOL     OW12215   2.579   5.306   1.563 -0.5231  0.0494  0.3834
 3111SOL    HW212216   2.606   5.346   1.480  1.2049 -0.8157  0.4926
 3111SOL    HW312217   2.485   5.323   1.567 -0.7777 -0.3218 -2.0167
 3111SOL    MW412218   2.570   5.314   1.552 -0.5920  0.2791  0.2059
 3112SOL     OW12219   3.220   6.362   1.223 -0.0426  0.0720  0.3137
 3112SOL    HW212220   3.211   6.325   1.311  2.9698 -2.3098 -0.1963
 3112SOL    HW312221   3.182   6.296   1.165 -0.5938  0.9123 -0.3132
 3112SOL    MW412222   3.214   6.348   1.227  0.2828  0.0800 -0.6098
 3113SOL     OW12223   6.284   5.329   0.212 -0.1261  0.5392 -0.2159
 3113SOL    HW212224   6.333   5.248   0.223 -1.0207 -0.3672 -2.3082
 3113SOL    HW312225   6.230   5.336   0.291  0.4919 -0.5140  0.3143
 3113SOL    MW412226   6.283   5.319   0.224 -0.8628 -0.0912 -0.3778
 3114SOL     OW12227   3.478   4.956   3.157 -0.0180 -0.0520  0.3697
 3114SOL    HW212228   3.524   5.021   3.104  0.4703  0.0739  0.9441
 3114SOL    HW312229   3.385   4.968   3.136  0.0796  0.7485  0.3910
 3114SOL    MW412230   3.472   4.966   3.147  0.3000  0.4613  0.2273
 3115SOL     OW12231   4.946   3.183   4.085 -0.5528 -0.3751 -0.0688
 3115SOL    HW212232   4.938   3.132   4.004 -0.2284  0.3373 -0.5538
 3115SOL    HW312233   5.029   3.229   4.076 -0.9983  0.4957  0.2200
 3115SOL    MW412234   4.955   3.182   4.073  1.0783 -0.3305 -0.5826
 3116SOL     OW12235   5.624   0.530   5.711  0.4216 -0.0537 -0.2933
 3116SOL    HW212236   5.602   0.444   5.675  1.2384 -0.8262  0.9643
 3116SOL    HW312237   5.539   0.572   5.727 -0.2002 -2.0157  2.2623
 3116SOL    MW412238   5.610   0.524   5.708 -0.2370  0.7424  0.2019
 3117SOL     OW12239   6.050   5.122   5.239  0.1795 -0.1424 -0.3067
 3117SOL    HW212240   6.030   5.029   5.248  1.7201 -0.6907 -1.9475
 3117SOL    HW312241   5.991   5.166   5.301 -0.4020 -2.2085  0.6776
 3117SOL    MW412242   6.039   5.116   5.248 -0.1972 -0.3164  0.6134
 3118SOL     OW12243   0.875   1.967   6.149  0.2544  0.1939 -0.2062
 3118SOL    HW212244   0.900   2.002   6.064  1.7963  0.9303  0.4996
 3118SOL    HW312245   0.927   2.017   6.212 -0.8672 -0.3072  1.1812
 3118SOL    MW412246   0.885   1.978   6.146  0.8838  0.6967  0.0960
 3119SOL     OW12247   3.010   5.460   3.011 -0.4853  0.2049 -0.2152
 3119SOL    HW212248   2.958   5.402   2.955  0.4929 -0.2039 -0.7207
 3119SOL    HW312249   2.957   5.469   3.090 -2.3104  1.4705 -1.4852
 3119SOL    MW412250   2.996   5.453   3.014  0.3013 -0.8540 -0.7087
 3120SOL     OW12251   1.548   1.505   0.981 -0.2134  0.4578  0.2456
 3120SOL    HW212252   1.564   1.468   0.894  0.3775  1.4656 -0.0992
 3120SOL    HW312253   1.467   1.555   0.971 -0.2569  0.4039  0.3307
 3120SOL    MW412254   1.540   1.507   0.968 -0.3498  0.0693 -0.1043
 3121SOL     OW12255   4.566   4.564   0.079 -0.4545 -0.4329  0.0968
 3121SOL    HW212256   4.617   4.535   0.154 -1.1157 -2.8772 -0.3063
 3121SOL    HW312257   4.475   4.564   0.111 -0.4988  1.5541  0.1237
 3121SOL    MW412258   4.561   4.560   0.093 -0.4962 -0.6894 -0.0659
 3122SOL     OW12259   2.611   5.789   2.420 -0.4934  0.1587  0.7506
 3122SOL    HW212260   2.536   5.849   2.424 -1.6129 -0.9803 -1.2472
 3122SOL    HW312261   2.578   5.713   2.372  2.1961  0.0014 -1.0595
 3122SOL    MW412262   2.597   5.787   2.414  0.5500  0.2466 -0.1160
 3123SOL     OW12263   5.383   4.732   4.141  1.1228  0.0444 -0.2921
 3123SOL    HW212264   5.432   4.759   4.063 -0.2680 -1.0045 -1.5996
 3123SOL    HW312265   5.295   4.765   4.126  0.4038 -1.6194 -0.0100
 3123SOL    MW412266   5.378   4.740   4.129  0.1339 -0.8294 -0.3668
 3124SOL     OW12267   1.411   2.096   4.996 -0.2020  0.2294  0.2553
 3124SOL    HW212268   1.463   2.020   4.971  0.6982  0.7016  0.6722
 3124SOL    HW312269   1.457   2.170   4.956 -1.5249  0.4951 -0.8569
 3124SOL    MW412270   1.424   2.096   4.987  0.1175  0.0748 -0.6855
 3125SOL     OW12271   0.704   0.561   2.064 -0.2156  0.2716 -0.3176
 3125SOL    HW212272   0.650   0.619   2.011 -1.7635 -0.7846  0.0383
 3125SOL    HW312273   0.744   0.500   2.001  0.3322  0.8658 -0.5508
 3125SOL    MW412274   0.702   0.560   2.048 -0.1288 -0.4822  0.1771
 3126SOL     OW12275   1.431   4.221   1.423 -0.4241  0.2120 -0.3493
 3126SOL    HW212276   1.483   4.257   1.494 -0.5570 -0.5238  0.1331
 3126SOL    HW312277   1.430   4.127   1.440  0.7501 -0.1717 -2.1082
 3126SOL    MW412278   1.438   4.213   1.434 -0.0942  0.2976 -0.5578
 3127SOL     OW12279   1.421   5.148   4.204 -0.3100  0.5976 -0.7956
 3127SOL    HW212280   1.463   5.166   4.288  0.0830  2.2271 -1.2959
 3127SOL    HW312281   1.329   5.132   4.226 -0.2448  1.1682 -0.0504
 3127SOL    MW412282   1.414   5.149   4.218  0.1238  0.3440 -0.4968
 3128SOL     OW12283   2.672   0.604   3.721 -0.1267 -0.4675 -0.1147
 3128SOL    HW212284   2.649   0.513   3.705  0.2930 -0.5658 -0.1839
 3128SOL    HW312285   2.684   0.610   3.816  1.7853 -0.9786 -0.2725
 3128SOL    MW412286   2.671   0.593   3.732  0.3507  0.5485 -0.6940
 3129SOL     OW12287   2.336   1.014   0.095 -0.1847  0.4237 -0.3633
 3129SOL    HW212288   2.300   1.026   0.183 -0.4623 -0.2629 -0.3816
 3129SOL    HW312289   2.363   0.922   0.092 -1.6468 -0.0014 -1.5376
 3129SOL    MW412290   2.335   1.004   0.106  0.3595  0.1420 -0.3585
 3130SOL     OW12291   5.594   1.238   4.611  0.1603 -0.2621  0.2005
 3130SOL    HW212292   5.662   1.198   4.666 -0.9374 -0.7742  1.2454
 3130SOL    HW312293   5.551   1.164   4.569  0.8967  0.1198 -1.2940
 3130SOL    MW412294   5.597   1.223   4.613 -0.2922 -0.3693 -0.3297
 3131SOL     OW12295   6.292   3.098   2.782 -0.7339 -0.2104  0.5711
 3131SOL    HW212296   6.385   3.116   2.792 -0.7873 -0.1163  0.9398
 3131SOL    HW312297   6.281   3.009   2.815 -0.9640  0.2157  1.6991
 3131SOL    MW412298   6.303   3.089   2.788  0.2313 -0.1663  0.4999
 3132SOL     OW12299   6.285   1.811   1.480  0.0796 -0.0763 -0.3866
 3132SOL    HW212300   6.248   1.734   1.523 -0.9252 -0.6517 -2.1839
 3132SOL    HW312301   6.325   1.861   1.551 -4.1574  0.6378  1.8352
 3132SOL    MW412302   6.285   1.808   1.495 -0.5224 -0.1403  0.3291
 3133SOL     OW12303   4.253   2.072   5.197 -0.0688 -0.0252  0.2440
 3133SOL    HW212304   4.317   2.143   5.196  0.2874 -0.3484 -0.1481
 3133SOL    HW312305   4.284   2.011   5.264 -1.2184  0.9329  1.7271
 3133SOL    MW412306   4.265   2.073   5.206 -0.3343  0.2362  0.0137
 3134SOL     OW12307   5.843   1.061   5.788 -0.3036  0.1031  0.8321
 3134SOL    HW212308   5.747   1.067   5.791 -0.3252 -0.3099  1.0898
 3134SOL    HW312309   5.869   1.122   5.719 -0.8407 -0.6097 -0.0181
 3134SOL    MW412310   5.834   1.070   5.779  0.1753  0.8406 -0.3118
 3135SOL     OW12311   2.072   6.062   2.278  0.0130 -0.2621 -0.5911
 3135SOL    HW212312   2.139   6.019   2.225  0.3121 -2.0733  1.1677
 3135SOL    HW312313   2.121   6.115   2.341 -0.2702 -0.0033 -0.5854
 3135SOL    MW412314   2.087   6.063   2.279  0.1943  0.7383  0.2894
 3136SOL     OW12315   2.649   2.790   0.837  0.1429  0.4415 -0.5089
 3136SOL    HW212316   2.572   2.792   0.780  0.3147  1.6171 -0.7238
 3136SOL    HW312317   2.621   2.833   0.917 -0.0453 -1.0533  0.2617
 3136SOL    MW412318   2.635   2.796   0.840  0.3007  0.2293 -0.2140
 3137SOL     OW12319   6.103   4.996   4.768 -0.0002  0.1671  0.2407
 3137SOL    HW212320   6.196   4.977   4.760  0.0168  0.5209 -0.4718
 3137SOL    HW312321   6.060   4.910   4.762  0.1867  0.1482 -1.1438
 3137SOL    MW412322   6.109   4.982   4.766 -0.5663 -0.0534 -0.1062
 3138SOL     OW12323   1.176   1.813   2.376  0.1412 -0.4658 -0.1982
 3138SOL    HW212324   1.159   1.771   2.460 -0.8684 -2.0725 -1.1568
 3138SOL    HW312325   1.175   1.741   2.312 -0.3998  0.8639 -1.7532
 3138SOL    MW412326   1.174   1.798   2.379  0.1553  0.4539 -0.0288
 3139SOL     OW12327   4.557   4.452   1.272  0.1161  0.3861  0.3081
 3139SOL    HW212328   4.618   4.399   1.323 -0.7660 -0.7016  0.2770
 3139SOL    HW312329   4.472   4.440   1.315 -0.4895  0.0844 -0.8980
 3139SOL    MW412330   4.554   4.443   1.284 -0.3728  0.2203 -0.4739
 3140SOL     OW12331   1.271   2.779   5.069 -0.1871 -0.2736 -0.6456
 3140SOL    HW212332   1.305   2.700   5.027  0.2509 -1.2053  1.3599
 3140SOL    HW312333   1.318   2.851   5.027  1.4565 -1.2803 -0.6026
 3140SOL    MW412334   1.281   2.778   5.058 -0.3590  0.3403 -0.0669
 3141SOL     OW12335   5.120   3.458   4.140  0.3172 -0.3768  0.2505
 3141SOL    HW212336   5.153   3.544   4.166  0.4192 -0.5046  0.5409
 3141SOL    HW312337   5.194   3.398   4.154 -0.2322 -0.7732  1.5178
 3141SOL    MW412338   5.134   3.462   4.145 -1.3440 -0.2444 -0.3998
 3142SOL     OW12339   2.762   1.058   1.722 -0.1569  0.1451 -0.1693
 3142SOL    HW212340   2.693   1.034   1.660  0.7072 -1.1205 -0.6648
 3142SOL    HW312341   2.823   1.111   1.670  0.7482 -1.2070 -0.5223
 3142SOL    MW412342   2.761   1.062   1.707  0.0502 -0.0228 -0.0588
 3143SOL     OW12343   3.503   1.494   3.808 -0.3503 -0.2233  0.3143
 3143SOL    HW212344   3.484   1.490   3.714 -0.5500  0.8082  0.2941
 3143SOL    HW312345   3.518   1.403   3.834  0.1457 -0.4715 -0.8022
 3143SOL    MW412346   3.502   1.481   3.799 -0.4966  0.6081 -0.3304
 3144SOL     OW12347   2.053   5.365   6.053 -0.6699  0.0305  0.2107
 3144SOL    HW212348   1.982   5.429   6.049 -2.0476 -1.4714 -0.5603
 3144SOL    HW312349   2.069   5.342   5.961 -0.1020 -0.6456  0.4701
 3144SOL    MW412350   2.046   5.371   6.040 -0.1575 -0.2321  0.6779
 3145SOL     OW12351   0.027   2.695   0.999  0.0313 -0.2238  0.0638
 3145SOL    HW212352   0.018   2.790   1.006  1.1339 -0.0021 -1.1336
 3145SOL    HW312353   0.121   2.679   1.007 -0.1668 -1.2418  0.4892
 3145SOL    MW412354   0.038   2.705   1.001  0.2268 -0.0822  0.0172
 3146SOL     OW12355   0.890   1.243   2.108 -0.1889 -0.1952  0.1460
 3146SOL    HW212356   0.859   1.286   2.188  0.1509  1.0547 -0.3828
 3146SOL    HW312357   0.866   1.303   2.037 -0.5777 -1.3281 -0.7201
 3146SOL    MW412358   0.882   1.257   2.109 -0.6883 -0.3207  0.1526
 3147SOL     OW12359   3.868   4.035   1.858 -0.6233  0.3128 -0.1385
 3147SOL    HW212360   3.946   4.021   1.911 -0.1114  0.5751 -0.8162
 3147SOL    HW312361   3.873   4.126   1.829 -0.2701 -0.1434 -1.6087
 3147SOL    MW412362   3.879   4.045   1.861 -0.2956 -0.4763 -0.1419
 3148SOL     OW12363   6.393   4.415   1.195  0.4634 -0.5983  0.2252
 3148SOL    HW212364   6.443   4.448   1.121  0.9094  0.0990  0.8167
 3148SOL    HW312365   6.447   4.346   1.233 -1.1590 -3.2291 -1.9449
 3148SOL    MW412366   6.406   4.410   1.190  0.1895 -0.6611 -0.2488
 3149SOL     OW12367   2.793   1.014  -0.018 -0.0281 -0.6826  0.4131
 3149SOL    HW212368   2.866   1.040  -0.074  0.7990 -1.0832  1.2729
 3149SOL    HW312369   2.724   0.989  -0.079  1.0462 -1.6522 -0.4549
 3149SOL    MW412370   2.793   1.014  -0.033  0.5020  0.1681 -0.2945
 3150SOL     OW12371   1.966   4.658   4.065 -0.0391 -0.1631  0.4974
 3150SOL    HW212372   1.993   4.747   4.038  0.6870 -0.3243  0.6574
 3150SOL    HW312373   2.013   4.643   4.147  1.2568 -1.3593 -0.4043
 3150SOL    MW412374   1.976   4.668   4.072 -0.0556 -0.5129  0.1876
 3151SOL     OW12375   1.244   0.526   6.330 -0.5882 -0.1215  0.4433
 3151SOL    HW212376   1.274   0.475   6.255 -1.0110  1.7044 -1.0185
 3151SOL    HW312377   1.299   0.494   6.403  1.9984  0.1652 -1.2387
 3151SOL    MW412378   1.255   0.515   6.330 -0.1619 -0.4369 -0.1302
 3152SOL     OW12379   2.105   5.764   2.449 -0.3828  0.2099  0.0616
 3152SOL    HW212380   2.012   5.774   2.426 -0.1183  1.4005 -0.5633
 3152SOL    HW312381   2.109   5.793   2.541 -0.7337 -0.5125  0.3147
 3152SOL    MW412382   2.093   5.769   2.458  0.4237  0.1114 -0.3542
 3153SOL     OW12383   5.491   3.086   2.668 -0.0363 -0.0492 -0.2520
 3153SOL    HW212384   5.510   3.042   2.585 -0.3671  0.4246 -0.5835
 3153SOL    HW312385   5.574   3.084   2.715  0.6600  1.2513 -1.3401
 3153SOL    MW412386   5.504   3.080   2.663  0.0554  0.2738  0.2303
 3154SOL     OW12387   2.541   5.478   0.008  0.0006 -0.0330  0.0501
 3154SOL    HW212388   2.485   5.487   0.085  1.0226 -0.7767  0.9026
 3154SOL    HW312389   2.561   5.385   0.004  4.0031  0.5753  1.8803
 3154SOL    MW412390   2.536   5.467   0.017 -0.5790 -0.4719 -0.3452
 3155SOL     OW12391   5.500   4.894   1.258 -0.3107  0.3062  0.8458
 3155SOL    HW212392   5.511   4.954   1.332 -1.0087  0.2342  1.0127
 3155SOL    HW312393   5.566   4.921   1.194  3.2922 -2.1804  3.1038
 3155SOL    MW412394   5.511   4.905   1.259  0.0096  0.3085  0.1106
 3156SOL     OW12395   2.155   0.976   5.837  0.5840  0.2779 -0.6347
 3156SOL    HW212396   2.067   0.950   5.865  0.6409 -0.0968 -0.7969
 3156SOL    HW312397   2.169   0.928   5.756  1.4726 -0.7564  0.1059
 3156SOL    MW412398   2.145   0.966   5.830  0.1772  0.0199 -0.1853
 3157SOL     OW12399   0.510   1.836   6.283 -0.1609  0.0774  0.3637
 3157SOL    HW212400   0.451   1.817   6.211 -0.0622 -1.8840  0.7413
 3157SOL    HW312401   0.540   1.925   6.267 -1.9356  0.5301 -0.7217
 3157SOL    MW412402   0.506   1.845   6.272 -0.2673 -0.5001  0.1718
 3158SOL     OW12403   5.550   2.856   2.945 -0.4749 -0.1971  0.7389
 3158SOL    HW212404   5.550   2.854   3.041 -0.3729 -0.9821  0.7242
 3158SOL    HW312405   5.467   2.897   2.922 -1.2179 -1.4278  1.1422
 3158SOL    MW412406   5.539   2.861   2.955  0.1356  0.3172 -0.3162
 3159SOL     OW12407   0.161   0.844   4.591  0.1752  0.6111 -0.2618
 3159SOL    HW212408   0.078   0.822   4.548  0.3651  0.0678 -0.3537
 3159SOL    HW312409   0.227   0.791   4.545 -0.0676 -3.1568  3.2228
 3159SOL    MW412410   0.159   0.834   4.579  0.6039  0.0876 -0.5102
 3160SOL     OW12411   5.387   0.574   1.627 -0.2097 -0.5037  0.3188
 3160SOL    HW212412   5.417   0.499   1.679 -0.0652  0.0833  1.0997
 3160SOL    HW312413   5.386   0.647   1.689 -1.5526 -0.1218 -0.1266
 3160SOL    MW412414   5.391   0.574   1.642  0.6474 -0.9866 -0.3154
 3161SOL     OW12415   1.405   0.416   2.670 -0.2340 -0.8422 -0.1708
 3161SOL    HW212416   1.477   0.470   2.702 -0.2891  0.4405 -2.0239
 3161SOL    HW312417   1.329   0.447   2.719 -0.2624  0.8630 -1.1751
 3161SOL    MW412418   1.404   0.428   2.680 -0.0218 -0.1018  0.0502
 3162SOL     OW12419   0.247   4.240   3.270 -0.0105  0.7018 -0.5812
 3162SOL    HW212420   0.154   4.260   3.262  0.1507  1.4950 -0.5413
 3162SOL    HW312421   0.288   4.290   3.199  0.3788  0.2907 -0.6503
 3162SOL    MW412422   0.240   4.249   3.260  0.2009  0.4581 -0.7687
 3163SOL     OW12423   3.927   6.254   3.331  0.3665 -0.3088  0.0035
 3163SOL    HW212424   3.900   6.194   3.262 -0.6184  1.7114 -1.4842
 3163SOL    HW312425   4.020   6.270   3.314 -0.1440  1.1288 -1.7029
 3163SOL    MW412426   3.936   6.248   3.320  0.4313 -0.1653  0.1513
 3164SOL     OW12427   4.153   6.396   5.434  0.0881 -0.3870 -0.0713
 3164SOL    HW212428   4.176   6.361   5.520 -0.2483 -0.3094  0.0522
 3164SOL    HW312429   4.237   6.401   5.387  0.0072 -2.4740 -0.5325
 3164SOL    MW412430   4.167   6.392   5.439 -0.4274 -0.1381 -0.3553
 3165SOL     OW12431   1.944   5.498   0.254 -0.1652  0.2238  0.7413
 3165SOL    HW212432   2.004   5.556   0.300 -1.3044  1.3800  0.8253
 3165SOL    HW312433   1.991   5.415   0.247  1.8610  1.3978 -0.1956
 3165SOL    MW412434   1.958   5.495   0.259 -0.3112 -0.5200  0.0808
 3166SOL     OW12435   5.759   5.204   5.978 -0.5170 -0.1434  0.1280
 3166SOL    HW212436   5.797   5.281   6.020 -0.0344 -0.2677 -0.0827
 3166SOL    HW312437   5.736   5.146   6.050  0.2227 -0.3164  0.2333
 3166SOL    MW412438   5.761   5.206   5.993  0.0718  0.1237  0.2211
 3167SOL     OW12439   1.355   3.502   3.039  0.0142  0.2540  0.2857
 3167SOL    HW212440   1.342   3.408   3.026  0.8961  0.3207 -1.3445
 3167SOL    HW312441   1.294   3.525   3.109 -0.5509 -1.4370  0.4007
 3167SOL    MW412442   1.346   3.492   3.047 -0.4773  0.0263 -0.7012
 3168SOL     OW12443   6.123   0.131   6.012 -0.3674  0.0545 -0.0320
 3168SOL    HW212444   6.127   0.166   6.101  0.1338  0.6404 -0.2705
 3168SOL    HW312445   6.034   0.149   5.983 -0.3681  0.3657  0.1579
 3168SOL    MW412446   6.112   0.138   6.020 -0.6043  0.0639 -0.4753
 3169SOL     OW12447   1.984   6.132   1.195  0.1349 -0.2269  1.0847
 3169SOL    HW212448   1.892   6.109   1.209 -0.3589  0.6423 -0.4800
 3169SOL    HW312449   1.982   6.223   1.166  1.6651  0.4140  2.7705
 3169SOL    MW412450   1.972   6.141   1.193 -0.1417  0.0155  0.3151
 3170SOL     OW12451   0.748   3.603   0.679  0.3725  0.4433  0.5056
 3170SOL    HW212452   0.831   3.559   0.697  0.1844  0.4823  1.5845
 3170SOL    HW312453   0.772   3.679   0.626  0.5474 -1.5947 -2.5764
 3170SOL    MW412454   0.762   3.607   0.675 -0.0286  0.5479  0.1243
 3171SOL     OW12455   1.678   0.256   5.004  0.3909  0.0526  0.8804
 3171SOL    HW212456   1.583   0.265   5.005  0.1442 -1.9692  1.0763
 3171SOL    HW312457   1.702   0.267   4.911 -0.1016  0.1009  0.7582
 3171SOL    MW412458   1.669   0.259   4.992 -0.1482  0.3995  0.2024
 3172SOL     OW12459   1.906   0.824   1.973  0.4257 -0.2472 -0.5168
 3172SOL    HW212460   1.870   0.909   2.001  0.6716 -0.2519 -0.1829
 3172SOL    HW312461   1.830   0.777   1.937  0.1263 -0.1894  0.0182
 3172SOL    MW412462   1.891   0.829   1.972  0.6079 -0.0260 -0.1815
 3173SOL     OW12463   5.245   2.560   5.970  0.2490 -0.2975  0.6675
 3173SOL    HW212464   5.187   2.555   6.047  0.7922 -2.0191  0.9928
 3173SOL    HW312465   5.197   2.616   5.908 -1.3487 -0.9244  1.2888
 3173SOL    MW412466   5.231   2.567   5.972 -0.4646 -0.1260  0.6639
 3174SOL     OW12467   6.082   2.398   3.992  0.3150 -0.2940 -0.5413
 3174SOL    HW212468   6.120   2.369   4.075  0.2739  0.1305 -0.3689
 3174SOL    HW312469   6.109   2.489   3.984  0.7767 -0.4904 -1.2707
 3174SOL    MW412470   6.090   2.406   4.002  1.0735  0.1659 -0.0863
 3175SOL     OW12471   4.870   6.005   4.204 -0.5587 -0.0312  0.0199
 3175SOL    HW212472   4.893   5.959   4.123  0.6120 -1.4000  1.0847
 3175SOL    HW312473   4.903   6.094   4.191  0.7349 -0.5737 -0.5381
 3175SOL    MW412474   4.877   6.011   4.191 -0.7276  0.2616 -0.0151
 3176SOL     OW12475   0.734   4.092   5.264 -1.3167 -0.4895  0.0507
 3176SOL    HW212476   0.664   4.150   5.294  0.3821  0.2409  2.9966
 3176SOL    HW312477   0.753   4.035   5.338  1.7120 -0.1025 -0.2737
 3176SOL    MW412478   0.727   4.092   5.278 -0.4124 -0.3890  0.5047
 3177SOL     OW12479   3.591   3.017   3.339 -0.2685 -0.6261  0.0694
 3177SOL    HW212480   3.545   2.937   3.313 -0.0383 -0.6017 -0.4082
 3177SOL    HW312481   3.533   3.057   3.404 -1.6416  0.1434 -1.5531
 3177SOL    MW412482   3.577   3.012   3.344 -0.0585  0.1188  0.4555
 3178SOL     OW12483   5.563   0.419   4.869  0.0258 -0.6889  0.2557
 3178SOL    HW212484   5.581   0.330   4.899 -0.1838 -0.9950 -0.5010
 3178SOL    HW312485   5.639   0.470   4.897  1.1480 -1.5477 -1.1518
 3178SOL    MW412486   5.575   0.414   4.877  0.2134 -0.3635  0.1673
 3179SOL     OW12487   5.234   3.392   3.706 -0.0275  0.5685  0.1045
 3179SOL    HW212488   5.277   3.467   3.665 -0.6230  1.4493  1.0084
 3179SOL    HW312489   5.158   3.431   3.751 -0.7787 -0.6941 -0.0409
 3179SOL    MW412490   5.229   3.407   3.707  0.1565 -0.3397 -0.7125
 3180SOL     OW12491   3.520   0.821   5.456  0.5397  0.6904  0.3698
 3180SOL    HW212492   3.519   0.734   5.416  2.4122 -0.1384  1.9002
 3180SOL    HW312493   3.504   0.805   5.549  2.1267  1.8045  0.8854
 3180SOL    MW412494   3.518   0.807   5.463  0.3347 -0.1672 -0.0056
 3181SOL     OW12495   0.126   2.907   2.832  0.4432  0.3073  0.2507
 3181SOL    HW212496   0.043   2.908   2.881  1.0417  2.5705  1.3525
 3181SOL    HW312497   0.103   2.869   2.747 -1.5475  0.1424  0.8108
 3181SOL    MW412498   0.112   2.902   2.828 -0.5941 -0.0722 -0.5523
 3182SOL     OW12499   6.081   4.657   3.257  0.5823  0.1129 -0.2290
 3182SOL    HW212500   6.022   4.733   3.260  1.4069  0.7633  0.1670
 3182SOL    HW312501   6.150   4.678   3.320  0.3662 -1.3793  0.5339
 3182SOL    MW412502   6.083   4.670   3.265 -0.2839  0.0089  0.1301
 3183SOL     OW12503   4.600   3.366   4.770  0.0749 -0.0400 -0.1224
 3183SOL    HW212504   4.515   3.408   4.784  0.2512 -0.1177  1.2785
 3183SOL    HW312505   4.586   3.308   4.696 -0.8148  0.7177 -0.5684
 3183SOL    MW412506   4.587   3.364   4.762  0.1295  0.3123 -0.3775
 3184SOL     OW12507   3.804   0.605   0.982 -0.0813 -0.3085 -0.0117
 3184SOL    HW212508   3.797   0.618   1.077  1.8451 -1.1125  0.2971
 3184SOL    HW312509   3.877   0.661   0.956  0.7502 -1.6336 -0.6354
 3184SOL    MW412510   3.813   0.614   0.991 -0.4148 -0.1702 -0.2503
 3185SOL     OW12511   4.809   5.489   5.531  0.1668 -0.8427 -0.2653
 3185SOL    HW212512   4.741   5.421   5.530  1.1777 -1.9472  1.2690
 3185SOL    HW312513   4.767   5.565   5.571 -1.3185 -0.0921 -3.0032
 3185SOL    MW412514   4.795   5.490   5.536  0.1984  0.6365  0.0009
 3186SOL     OW12515   1.813   4.243   3.242 -0.1173 -0.2778  0.1095
 3186SOL    HW212516   1.883   4.274   3.184 -0.5663  1.4284  0.4225
 3186SOL    HW312517   1.851   4.249   3.330 -0.6842  0.8345  0.2968
 3186SOL    MW412518   1.827   4.248   3.246  0.1333  0.1537 -0.1394
 3187SOL     OW12519   3.413   3.653   3.447  0.3294  0.3331 -0.3975
 3187SOL    HW212520   3.491   3.686   3.491 -0.2894  0.5712  0.5496
 3187SOL    HW312521   3.349   3.723   3.456 -0.4263 -0.4088  0.0373
 3187SOL    MW412522   3.415   3.666   3.454  0.2424  0.1329 -0.0765
 3188SOL     OW12523   2.827   3.507   3.523  0.5987  0.2223  0.2959
 3188SOL    HW212524   2.794   3.491   3.435  0.1618 -0.2278  0.5358
 3188SOL    HW312525   2.922   3.497   3.515  0.5567  0.1252 -0.1098
 3188SOL    MW412526   2.835   3.504   3.511 -0.0933  0.0224 -0.3536
 3189SOL     OW12527   5.560   6.381   3.144 -0.5785  0.2070 -0.7348
 3189SOL    HW212528   5.564   6.422   3.058 -1.1453  0.5843 -0.5848
 3189SOL    HW312529   5.503   6.305   3.132 -2.0720  1.2331 -0.3125
 3189SOL    MW412530   5.553   6.376   3.132  0.3217  0.3675 -0.1627
 3190SOL     OW12531   1.178   3.234   5.430 -0.3403  0.2039 -0.2648
 3190SOL    HW212532   1.212   3.306   5.377 -1.4502  0.7214 -0.3021
 3190SOL    HW312533   1.101   3.270   5.474  0.1990 -0.4048  1.2352
 3190SOL    MW412534   1.172   3.248   5.428 -0.8321  0.0013 -0.7327
 3191SOL     OW12535   4.327   3.139   3.044  0.5943  0.2350  0.0396
 3191SOL    HW212536   4.352   3.113   2.955 -1.2459 -0.4258 -0.3333
 3191SOL    HW312537   4.355   3.067   3.099  0.5407  0.0223 -0.2096
 3191SOL    MW412538   4.334   3.126   3.040 -0.4106  0.2836 -0.4952
 3192SOL     OW12539   2.581   0.379   1.389  0.5208  0.5499  0.2184
 3192SOL    HW212540   2.601   0.369   1.296  0.0279  0.5281  0.1138
 3192SOL    HW312541   2.487   0.365   1.395  0.8791 -1.8563  1.0476
 3192SOL    MW412542   2.571   0.376   1.377  0.4006 -0.5772 -0.1144
 3193SOL     OW12543   1.324   6.141   4.883 -0.0650  0.2541  0.6814
 3193SOL    HW212544   1.319   6.077   4.955 -0.7218  0.2508  0.6425
 3193SOL    HW312545   1.266   6.106   4.816  0.9355  0.0057 -0.0694
 3193SOL    MW412546   1.316   6.128   4.884 -0.2068 -0.1318  0.2447
 3194SOL     OW12547   2.766   3.835   4.284  0.2750  0.3024 -0.3189
 3194SOL    HW212548   2.694   3.897   4.270  0.7648  0.7240 -1.0683
 3194SOL    HW312549   2.783   3.839   4.378  1.4999  2.7350 -0.5486
 3194SOL    MW412550   2.759   3.844   4.295  0.0792  0.7091  0.3878
 3195SOL     OW12551   2.289   6.257   5.421 -0.1156 -0.5544 -0.1741
 3195SOL    HW212552   2.316   6.347   5.440  1.0697 -0.9005 -0.0901
 3195SOL    HW312553   2.331   6.204   5.489 -0.1707 -1.2472 -0.6645
 3195SOL    MW412554   2.298   6.262   5.432  0.5504  0.1629  0.0448
 3196SOL     OW12555   4.033   4.171   1.528 -0.6026  0.1528 -0.0160
 3196SOL    HW212556   4.020   4.235   1.458  0.1320  0.0320 -0.2786
 3196SOL    HW312557   4.001   4.213   1.607  0.4156  1.0880 -0.0811
 3196SOL    MW412558   4.027   4.185   1.529 -0.6223 -0.6212 -0.3893
 3197SOL     OW12559   0.014   5.472   1.943 -0.5609  0.7720  0.3690
 3197SOL    HW212560   0.043   5.414   2.013 -0.3510  0.8573  0.3525
 3197SOL    HW312561   0.090   5.481   1.886 -1.1708 -0.4985 -0.6812
 3197SOL    MW412562   0.028   5.466   1.945 -0.1524  0.2054 -0.4940
 3198SOL     OW12563   5.001   3.465   4.920 -0.3896  0.0301 -0.0620
 3198SOL    HW212564   4.936   3.395   4.914 -1.7090  1.2157  0.0772
 3198SOL    HW312565   5.085   3.420   4.907 -1.0064 -1.8872  1.9393
 3198SOL    MW412566   5.003   3.450   4.917 -0.3856 -0.1614 -0.1298
 3199SOL     OW12567   4.743   4.613   4.192  0.6101 -0.0042 -0.0374
 3199SOL    HW212568   4.791   4.540   4.152  1.2117  0.0292  0.5988
 3199SOL    HW312569   4.769   4.689   4.140 -0.4038 -0.2893 -1.0208
 3199SOL    MW412570   4.753   4.613   4.180  0.0728  0.4449 -0.1338
 3200SOL     OW12571   3.005   5.537   6.321  0.4132 -0.0276  0.0791
 3200SOL    HW212572   3.049   5.622   6.316  0.8165 -0.1079  1.6982
 3200SOL    HW312573   3.074   5.477   6.351 -0.5087 -0.3923  1.5255
 3200SOL    MW412574   3.020   5.540   6.324  0.2445  0.2408 -0.5794
 3201SOL     OW12575   0.122   3.369   5.087 -0.2366 -0.4608 -0.1859
 3201SOL    HW212576   0.048   3.358   5.027  1.0177 -1.6084 -1.6045
 3201SOL    HW312577   0.163   3.282   5.090  0.5987 -0.0415  1.1823
 3201SOL    MW412578   0.117   3.356   5.079 -0.2679  0.1286  0.3034
 3202SOL     OW12579   2.135   2.230   4.682  0.1529  0.4296  0.2898
 3202SOL    HW212580   2.078   2.217   4.607 -1.4433 -0.8565  1.6321
 3202SOL    HW312581   2.208   2.169   4.668  0.6711  1.3122 -0.9280
 3202SOL    MW412582   2.137   2.220   4.670 -0.3148  0.2910  0.0352
 3203SOL     OW12583   1.629   3.139   1.584  0.1763 -0.0063  0.6049
 3203SOL    HW212584   1.673   3.093   1.655  0.6478 -0.2516  0.1606
 3203SOL    HW312585   1.568   3.075   1.548 -0.6830  0.3834  1.3233
 3203SOL    MW412586   1.627   3.125   1.588  0.2631 -1.1481 -0.2560
 3204SOL     OW12587   4.072   0.888   3.780 -0.1460 -0.3404 -0.4396
 3204SOL    HW212588   4.024   0.961   3.819 -0.3191  0.3264 -1.8289
 3204SOL    HW312589   4.006   0.839   3.731  0.4968  0.4621 -2.1920
 3204SOL    MW412590   4.057   0.891   3.778  0.3008  0.4299 -0.0325
 3205SOL     OW12591   3.870   4.719   1.450 -0.4838  0.1776 -0.1126
 3205SOL    HW212592   3.936   4.777   1.488  0.1917  0.0979 -1.1236
 3205SOL    HW312593   3.857   4.754   1.362 -0.0149 -1.2325 -0.7583
 3205SOL    MW412594   3.877   4.732   1.444  0.1533 -0.4758 -0.2495
 3206SOL     OW12595   0.293   3.439   2.344  0.3800 -0.2731  0.0736
 3206SOL    HW212596   0.308   3.345   2.329 -0.7442 -0.5351  0.4330
 3206SOL    HW312597   0.242   3.441   2.426 -0.0634  0.6135 -0.2142
 3206SOL    MW412598   0.288   3.427   2.353  0.4198  0.0783  0.1704
 3207SOL     OW12599   3.850   0.158   2.362  0.0982  0.2582 -0.7762
 3207SOL    HW212600   3.861   0.185   2.453 -0.6150  0.8707 -0.8640
 3207SOL    HW312601   3.937   0.131   2.334  0.6115  1.4285 -0.3488
 3207SOL    MW412602   3.863   0.158   2.370  0.6480  0.9113  0.2332
 3208SOL     OW12603   1.265   0.009   3.563  0.0120 -0.3775 -0.2552
 3208SOL    HW212604   1.225  -0.051   3.626 -0.1694  0.2682  0.2556
 3208SOL    HW312605   1.215  -0.004   3.482 -0.8053 -0.0773  0.1861
 3208SOL    MW412606   1.253   0.000   3.561  0.1301  0.0496 -0.0007
 3209SOL     OW12607   5.817   0.029   4.101  0.7189  0.3113  0.3875
 3209SOL    HW212608   5.825  -0.051   4.050  0.3665  0.5341 -0.0241
 3209SOL    HW312609   5.767   0.089   4.045  1.1173  0.8748  0.6212
 3209SOL    MW412610   5.811   0.026   4.087 -0.1385 -0.0219  0.0557
 3210SOL     OW12611   2.902   2.177   4.563  0.6657  0.2459  0.5100
 3210SOL    HW212612   2.820   2.224   4.575  0.1464 -0.6565  0.6188
 3210SOL    HW312613   2.970   2.244   4.569  0.0023  0.8502  1.4474
 3210SOL    MW412614   2.900   2.192   4.565 -0.5999  0.1131  0.1470
 3211SOL     OW12615   1.400   2.653   6.197  0.3628 -0.4077  0.4152
 3211SOL    HW212616   1.480   2.604   6.176 -0.0263 -1.0027  0.3109
 3211SOL    HW312617   1.408   2.734   6.147  0.7399 -0.6087  0.1419
 3211SOL    MW412618   1.412   2.657   6.188  0.2435 -0.2498 -0.1715
 3212SOL     OW12619   4.074   0.482   0.308 -0.2034  0.7072 -0.3351
 3212SOL    HW212620   4.057   0.432   0.388  0.9895 -0.0131 -0.5103
 3212SOL    HW312621   4.169   0.486   0.301 -0.2842  1.6684 -1.1711
 3212SOL    MW412622   4.084   0.476   0.317  0.5488 -0.5624 -0.3033
 3213SOL     OW12623   5.292   3.881   5.882 -0.4540  0.3304  0.1832
 3213SOL    HW212624   5.299   3.882   5.787 -1.6798  2.0247  0.0666
 3213SOL    HW312625   5.372   3.923   5.913 -0.9542  1.6173 -0.2149
 3213SOL    MW412626   5.303   3.887   5.874 -0.4539  0.1076  0.3936
 3214SOL     OW12627   1.154   2.147   4.871  0.0327  0.1377 -0.8272
 3214SOL    HW212628   1.127   2.067   4.826 -2.4615  0.0355  0.7128
 3214SOL    HW312629   1.239   2.125   4.909  0.7280 -0.7824 -2.7628
 3214SOL    MW412630   1.162   2.134   4.870 -0.1263 -0.6564  0.2702
 3215SOL     OW12631   3.045   1.419   3.407 -0.0068  0.7854 -0.1213
 3215SOL    HW212632   3.006   1.474   3.339  0.7421  3.0401  1.1459
 3215SOL    HW312633   2.978   1.355   3.429 -1.3981  1.9371 -0.8720
 3215SOL    MW412634   3.031   1.418   3.401 -0.4470 -0.1536  0.3383
 3216SOL     OW12635   6.114   2.228   3.125  0.7875  0.0159  0.0303
 3216SOL    HW212636   6.188   2.174   3.099  0.5365  0.3192 -1.3880
 3216SOL    HW312637   6.137   2.316   3.096 -0.4595 -0.0277 -1.2119
 3216SOL    MW412638   6.127   2.233   3.118 -0.0938 -0.8102 -0.3524
 3217SOL     OW12639   2.919   4.130   3.282  0.2473  0.0879  0.0853
 3217SOL    HW212640   2.909   4.097   3.371 -1.7555  1.0036  0.2441
 3217SOL    HW312641   2.912   4.225   3.290  3.1183  0.4506 -0.7191
 3217SOL    MW412642   2.917   4.138   3.294  0.0088  0.1108  0.3688
 3218SOL     OW12643   0.836   4.967   0.969 -0.4392 -0.0270  0.0188
 3218SOL    HW212644   0.901   4.975   0.899 -2.1703  0.9966 -1.5784
 3218SOL    HW312645   0.864   5.030   1.035  1.1432 -0.8906  0.2224
 3218SOL    MW412646   0.848   4.976   0.968  0.2569 -0.3842 -0.3818
 3219SOL     OW12647   2.489   4.815   1.724  0.4014 -0.0845  0.4250
 3219SOL    HW212648   2.513   4.893   1.674 -2.1431 -0.6094 -1.8178
 3219SOL    HW312649   2.401   4.832   1.755  0.5342 -1.3259  1.5831
 3219SOL    MW412650   2.481   4.827   1.722  0.0845  0.4315 -0.1205
 3220SOL     OW12651   5.589   0.298   1.621 -0.3459 -0.4252 -0.3977
 3220SOL    HW212652   5.642   0.317   1.698  0.8254  0.7119 -1.4432
 3220SOL    HW312653   5.631   0.223   1.580 -0.8789 -0.9348 -0.0224
 3220SOL    MW412654   5.602   0.291   1.626 -0.3626 -0.0479  0.2954
 3221SOL     OW12655   3.315   4.009   5.709 -0.0205 -0.6633  0.1435
 3221SOL    HW212656   3.297   4.051   5.793  0.7716 -0.7307  0.3539
 3221SOL    HW312657   3.348   4.080   5.653 -0.8235 -0.5572 -0.2114
 3221SOL    MW412658   3.317   4.024   5.713  0.4531  0.2682  0.5164
 3222SOL     OW12659   5.222   1.197   1.954 -0.1449 -0.2608 -0.1108
 3222SOL    HW212660   5.199   1.190   1.861  0.3834 -1.7951 -0.1504
 3222SOL    HW312661   5.154   1.253   1.991 -1.2387 -0.8574 -1.1344
 3222SOL    MW412662   5.210   1.204   1.946  0.0216  0.3139  0.8734
 3223SOL     OW12663   3.353   2.303   5.277  0.1123 -0.7750 -0.0574
 3223SOL    HW212664   3.416   2.230   5.272 -0.1988 -1.0808  0.3505
 3223SOL    HW312665   3.271   2.261   5.301  0.3651 -0.0796  2.3041
 3223SOL    MW412666   3.351   2.288   5.280 -0.8032  0.3185 -0.9665
 3224SOL     OW12667   2.251   6.265   6.008  0.1153 -0.2166  0.5220
 3224SOL    HW212668   2.312   6.199   6.043  2.1499  0.9097 -0.6996
 3224SOL    HW312669   2.280   6.278   5.918  0.0866  2.6607  0.8600
 3224SOL    MW412670   2.263   6.258   6.001 -0.3746 -0.0062 -0.4318
 3225SOL     OW12671   5.852   2.190   0.511  0.2376 -0.3646 -0.0811
 3225SOL    HW212672   5.862   2.280   0.541  0.5345 -0.5271  0.3222
 3225SOL    HW312673   5.861   2.137   0.591  1.2781 -0.8235 -0.4928
 3225SOL    MW412674   5.854   2.195   0.526 -0.0538 -0.0312  0.0138
 3226SOL     OW12675   3.977   6.264   0.079  0.2841  0.1503 -0.3416
 3226SOL    HW212676   3.902   6.274   0.021 -0.1627 -0.6684  0.0707
 3226SOL    HW312677   4.009   6.175   0.063  0.5515  0.1422  0.1929
 3226SOL    MW412678   3.971   6.253   0.069  0.0234 -0.0565 -0.0735
 3227SOL     OW12679   6.225   0.204   0.438  0.1681 -0.2615  0.3894
 3227SOL    HW212680   6.283   0.152   0.383  0.4160  0.0413  0.3620
 3227SOL    HW312681   6.283   0.262   0.487 -0.1912  1.5546 -1.1896
 3227SOL    MW412682   6.240   0.205   0.437  0.0873  0.3507 -0.1778
 3228SOL     OW12683   5.262   5.981   2.859 -0.4041  0.1198 -0.1579
 3228SOL    HW212684   5.288   5.892   2.880  2.1097  0.7202 -0.4700
 3228SOL    HW312685   5.187   5.971   2.800 -0.5187 -1.7372  0.2552
 3228SOL    MW412686   5.255   5.968   2.854  0.3663  0.4841 -0.1735
 3229SOL     OW12687   2.037   4.147   0.761  0.0368  0.2954  0.4203
 3229SOL    HW212688   1.959   4.104   0.796 -0.0999 -0.8489 -1.1665
 3229SOL    HW312689   2.080   4.186   0.838 -0.7778 -1.1845  1.6802
 3229SOL    MW412690   2.033   4.147   0.776  0.1591  0.8844  0.0742
 3230SOL     OW12691   4.534   5.492   0.459 -0.8553  0.2480  0.1956
 3230SOL    HW212692   4.597   5.547   0.505 -1.1055  0.1540  0.6626
 3230SOL    HW312693   4.586   5.417   0.428 -0.9143 -0.3681  1.5037
 3230SOL    MW412694   4.549   5.489   0.461 -0.1027 -0.6259 -0.3311
 3231SOL     OW12695   3.594   5.098   2.949  0.0280 -0.0014  0.0821
 3231SOL    HW212696   3.655   5.167   2.975 -0.4744  0.4212  0.1530
 3231SOL    HW312697   3.645   5.042   2.890  0.4491  0.4045  0.0522
 3231SOL    MW412698   3.609   5.099   2.945  0.1322 -0.3226 -0.0902
 3232SOL     OW12699   4.394   6.004   4.834 -0.5906 -0.4485 -0.2261
 3232SOL    HW212700   4.341   6.068   4.786  1.2683  0.3181 -1.3859
 3232SOL    HW312701   4.379   5.921   4.788 -1.0996 -0.3269 -0.2836
 3232SOL    MW412702   4.385   6.002   4.821  0.8963  0.4615  0.0137
 3233SOL     OW12703   1.357   4.301   5.100  0.2049 -0.5590  0.2528
 3233SOL    HW212704   1.293   4.367   5.071 -0.3872 -0.0024  2.5963
 3233SOL    HW312705   1.440   4.330   5.063 -0.1279  1.2981  0.8439
 3233SOL    MW412706   1.359   4.314   5.091 -0.4628 -0.3203 -0.2259
 3234SOL     OW12707   2.510   4.837   4.534  0.4524 -0.3865  0.2133
 3234SOL    HW212708   2.552   4.881   4.460  1.1024 -1.1217  0.1276
 3234SOL    HW312709   2.553   4.751   4.538 -0.1725 -0.6762  0.9154
 3234SOL    MW412710   2.521   4.831   4.525 -0.0446  0.5564  0.1602
 3235SOL     OW12711   2.007   5.243   0.355 -0.3539 -0.1777  0.1452
 3235SOL    HW212712   2.095   5.230   0.321 -0.4445  1.6247 -0.8965
 3235SOL    HW312713   1.955   5.173   0.315  0.5515 -1.2292  0.7340
 3235SOL    MW412714   2.012   5.232   0.345  0.1399 -0.6405  0.0092
 3236SOL     OW12715   2.176   5.957   5.459 -0.2426 -0.1324 -0.5501
 3236SOL    HW212716   2.106   6.019   5.481  0.2917  0.0895  0.6119
 3236SOL    HW312717   2.212   5.990   5.377 -0.6079  0.5494 -0.4463
 3236SOL    MW412718   2.171   5.970   5.451  0.3496 -0.1107  0.0758
 3237SOL     OW12719   2.374   2.412   6.347  0.5475 -0.3157 -0.1168
 3237SOL    HW212720   2.341   2.324   6.329 -0.4127 -0.0651  0.3596
 3237SOL    HW312721   2.321   2.469   6.292  1.1635 -0.0219 -0.4200
 3237SOL    MW412722   2.363   2.408   6.338  0.5028 -0.0601 -0.2559
 3238SOL     OW12723   3.692   2.882   5.612  0.8120 -0.1891 -0.0354
 3238SOL    HW212724   3.674   2.962   5.660  0.1209  0.4036 -1.2506
 3238SOL    HW312725   3.633   2.817   5.650 -0.5620  0.5615 -0.8149
 3238SOL    MW412726   3.682   2.884   5.624  0.0003 -0.3832  0.3725
 3239SOL     OW12727   0.798   1.469   0.208  0.5417  0.2302 -0.2531
 3239SOL    HW212728   0.714   1.474   0.163  0.8059 -0.0558 -0.7986
 3239SOL    HW312729   0.857   1.523   0.155  0.5394  0.9939  0.5138
 3239SOL    MW412730   0.795   1.477   0.195  0.0967 -0.5086  0.4847
 3240SOL     OW12731   2.583   2.978   2.753 -0.5175  0.1693 -0.4574
 3240SOL    HW212732   2.578   3.053   2.693 -1.6143  0.2777 -0.2517
 3240SOL    HW312733   2.588   2.902   2.695  0.2243  0.3800 -0.6714
 3240SOL    MW412734   2.583   2.978   2.737 -0.3923 -0.3914  0.5105
 3241SOL     OW12735   2.512   2.397   0.166 -0.5612 -0.0247 -0.3531
 3241SOL    HW212736   2.457   2.448   0.225 -0.1151  0.3137 -0.2240
 3241SOL    HW312737   2.458   2.386   0.087 -0.8902  0.1306 -0.1526
 3241SOL    MW412738   2.498   2.403   0.163  0.0749  0.0141  0.0031
 3242SOL     OW12739   2.284   0.792   0.513  0.0563 -0.2487  0.2511
 3242SOL    HW212740   2.198   0.749   0.510  0.2074 -0.5408 -0.0936
 3242SOL    HW312741   2.343   0.727   0.474  0.3307  0.1858 -0.0594
 3242SOL    MW412742   2.280   0.778   0.507  0.1057  0.0424  0.1163
 3243SOL     OW12743   0.570   0.148   6.326  0.2975  0.2042 -0.1607
 3243SOL    HW212744   0.612   0.227   6.292  1.2190 -0.1527  0.1381
 3243SOL    HW312745   0.498   0.181   6.380 -0.7908  0.7943 -1.8928
 3243SOL    MW412746   0.566   0.163   6.328  0.0828 -0.4604 -0.0224
 3244SOL     OW12747   0.854   1.458   2.289 -0.2691 -0.6901 -0.6926
 3244SOL    HW212748   0.883   1.398   2.358 -0.0510  0.3009  0.1017
 3244SOL    HW312749   0.825   1.536   2.335  0.6938  0.3467 -1.7517
 3244SOL    MW412750   0.854   1.460   2.304 -0.0882 -0.8878  0.0462
 3245SOL     OW12751   4.542   2.957   3.611 -0.2405  0.1270  0.7149
 3245SOL    HW212752   4.581   3.009   3.681  0.8981  0.3830 -0.0769
 3245SOL    HW312753   4.448   2.973   3.618 -0.0159  1.3210  1.2591
 3245SOL    MW412754   4.535   2.966   3.621 -0.3373 -0.2403 -0.2379
 3246SOL     OW12755   2.359   2.130   6.215 -0.1776  0.1520  0.5250
 3246SOL    HW212756   2.426   2.064   6.195 -0.6556  0.1835 -1.4580
 3246SOL    HW312757   2.297   2.085   6.271 -0.2946 -1.0017 -0.4858
 3246SOL    MW412758   2.360   2.116   6.220 -0.3513  0.1067 -0.0818
 3247SOL     OW12759   0.999   4.238   4.961  0.0511  0.1209  0.1877
 3247SOL    HW212760   1.010   4.239   5.056 -0.2173  0.1021  0.2203
 3247SOL    HW312761   1.059   4.170   4.931 -2.1165 -2.1606  0.6667
 3247SOL    MW412762   1.008   4.229   4.970  0.0885 -0.4423  0.5376
 3248SOL     OW12763   0.374   3.720   2.334  0.0907 -0.2337 -0.3101
 3248SOL    HW212764   0.368   3.625   2.329 -0.2349 -0.1530 -2.5214
 3248SOL    HW312765   0.390   3.747   2.244 -1.0484  1.8888  0.0653
 3248SOL    MW412766   0.375   3.711   2.321 -0.7585 -0.1633  0.2267
 3249SOL     OW12767   2.014   4.452   2.376 -0.6036  0.4495  0.3406
 3249SOL    HW212768   2.074   4.399   2.325 -0.0390  0.0811  1.3564
 3249SOL    HW312769   1.933   4.455   2.324  0.0299  0.2998 -0.6675
 3249SOL    MW412770   2.011   4.446   2.363  0.2592  0.1856 -0.0433
 3250SOL     OW12771   1.292   0.272   1.809 -0.0267 -0.1897 -0.2501
 3250SOL    HW212772   1.301   0.366   1.792 -1.6886  0.6806  2.7949
 3250SOL    HW312773   1.311   0.264   1.903  0.8225 -3.0700 -0.5837
 3250SOL    MW412774   1.296   0.284   1.819  0.1261  0.3168  0.3957
 3251SOL     OW12775   1.873   6.337   3.707  0.9884  0.7170 -0.2202
 3251SOL    HW212776   1.871   6.350   3.801  1.5957 -1.2748  0.1107
 3251SOL    HW312777   1.787   6.366   3.676 -0.0577 -0.6635  1.2563
 3251SOL    MW412778   1.862   6.343   3.715  0.2151 -0.3795  0.0638
 3252SOL     OW12779   0.925   0.246   0.472 -0.4901  0.1918  0.5564
 3252SOL    HW212780   0.836   0.257   0.436 -0.2080  2.1847  0.3522
 3252SOL    HW312781   0.911   0.211   0.560 -1.4343 -0.1308  0.2942
 3252SOL    MW412782   0.911   0.243   0.479 -0.3747  0.5598 -0.1865
 3253SOL     OW12783   2.204   3.222   1.791  0.3630  0.4528 -0.0560
 3253SOL    HW212784   2.242   3.205   1.877  0.1763  2.2978  0.4464
 3253SOL    HW312785   2.119   3.261   1.809 -0.4246 -0.6996 -1.1310
 3253SOL    MW412786   2.198   3.225   1.805 -0.6136 -0.2107 -0.1936
 3254SOL     OW12787   5.706   5.529   5.434 -0.1719  0.0781  0.4895
 3254SOL    HW212788   5.629   5.542   5.379  0.6221 -0.5911 -0.8400
 3254SOL    HW312789   5.695   5.441   5.470 -0.4225  0.3048  0.9775
 3254SOL    MW412790   5.694   5.519   5.431  0.1856  0.1388  0.4632
 3255SOL     OW12791   4.733   6.059   4.472  0.2127  0.1340  0.6883
 3255SOL    HW212792   4.807   6.115   4.452 -0.3240  0.8500  0.6912
 3255SOL    HW312793   4.677   6.064   4.394 -0.7892  1.1679  1.4373
 3255SOL    MW412794   4.735   6.067   4.459 -0.0241 -0.0130 -0.1189
 3256SOL     OW12795   2.020   6.086  -0.029 -0.4024 -0.3399 -0.0880
 3256SOL    HW212796   1.991   5.998  -0.003 -1.1997  0.2362  1.0691
 3256SOL    HW312797   1.953   6.144   0.007  0.4511  0.7954 -0.2980
 3256SOL    MW412798   2.007   6.082  -0.021  0.1268  0.2977  0.7518
 3257SOL     OW12799   3.772   2.206   0.994  0.8704  0.3635  0.0001
 3257SOL    HW212800   3.715   2.141   0.954 -0.9243 -0.0694  2.9733
 3257SOL    HW312801   3.836   2.155   1.044  1.9095  0.9098 -0.7194
 3257SOL    MW412802   3.773   2.191   0.995 -0.3857 -0.2490  0.0751
 3258SOL     OW12803   0.600   0.075   0.696 -0.1097  0.0461  0.1962
 3258SOL    HW212804   0.570   0.135   0.627 -0.1233  0.4185  0.5283
 3258SOL    HW312805   0.561   0.109   0.776  1.3309  0.6365  0.6734
 3258SOL    MW412806   0.591   0.087   0.697 -0.0613  0.2585  0.2599
 3259SOL     OW12807   0.787   0.947   5.147  0.3592 -1.1287 -0.1841
 3259SOL    HW212808   0.780   1.016   5.082 -1.2009  0.3323  1.4157
 3259SOL    HW312809   0.770   0.866   5.099 -1.6610 -0.0132 -1.4706
 3259SOL    MW412810   0.784   0.945   5.132  0.0327 -0.0476 -0.0781
 3260SOL     OW12811   2.625   0.140   5.046 -0.4466 -0.0435  0.3059
 3260SOL    HW212812   2.688   0.188   5.099 -1.1660  1.5398 -0.2083
 3260SOL    HW312813   2.677   0.077   4.996  0.3127 -1.1744  2.4026
 3260SOL    MW412814   2.640   0.138   5.046 -0.3587 -0.3799 -0.5751
 3261SOL     OW12815   2.603   3.887   1.778  0.0750  0.2405  0.2246
 3261SOL    HW212816   2.681   3.863   1.729  2.7163  3.2848  2.4508
 3261SOL    HW312817   2.585   3.811   1.834  1.0215 -0.7790 -0.8137
 3261SOL    MW412818   2.611   3.874   1.779 -0.1428 -0.0519 -0.1018
 3262SOL     OW12819   6.071   0.823   3.727 -0.2139  0.8395 -0.4563
 3262SOL    HW212820   6.008   0.887   3.760 -0.7116  0.3134 -0.3813
 3262SOL    HW312821   6.031   0.738   3.745  0.2973  0.5111 -0.8481
 3262SOL    MW412822   6.057   0.820   3.734  0.0410 -0.3343  0.7661
 3263SOL     OW12823   4.372   6.062   0.925 -0.2136 -0.7500 -0.0425
 3263SOL    HW212824   4.365   6.055   0.829  0.7313 -2.0558 -0.0509
 3263SOL    HW312825   4.438   6.130   0.939 -0.0344 -0.8643 -0.3286
 3263SOL    MW412826   4.380   6.070   0.914 -0.6250 -0.0951  0.3032
 3264SOL     OW12827   6.080   0.078   1.328 -0.0297 -0.0227  0.0222
 3264SOL    HW212828   6.105   0.052   1.239 -0.1965  0.2275 -0.0977
 3264SOL    HW312829   6.077   0.173   1.326  0.3084 -0.0008  0.3916
 3264SOL    MW412830   6.083   0.087   1.316  0.3405 -0.5821  0.3023
 3265SOL     OW12831   0.004   1.802   3.069  0.0965  0.3206 -0.4471
 3265SOL    HW212832  -0.009   1.738   3.139  2.0032  0.4564  0.0873
 3265SOL    HW312833  -0.050   1.770   2.996 -0.2161 -1.0068  0.3391
 3265SOL    MW412834  -0.005   1.789   3.069 -0.5535 -0.5002 -0.6656
 3266SOL     OW12835   2.296   0.054   3.012  0.1918 -0.4542 -0.0361
 3266SOL    HW212836   2.335  -0.001   2.944 -0.6704  0.5128 -1.3636
 3266SOL    HW312837   2.371   0.097   3.054  0.7196 -0.8502 -0.5587
 3266SOL    MW412838   2.311   0.053   3.009 -0.0798 -0.0854 -0.0029
 3267SOL     OW12839   1.536   4.320   1.174 -0.7484 -0.1471 -0.1193
 3267SOL    HW212840   1.494   4.284   1.252 -1.9007  0.4152 -0.4596
 3267SOL    HW312841   1.564   4.244   1.124 -0.3928 -0.5165  0.6295
 3267SOL    MW412842   1.534   4.305   1.178 -0.3356  0.0224 -0.5868
 3268SOL     OW12843   4.114   4.254   4.087 -0.7396 -0.1233 -0.5296
 3268SOL    HW212844   4.095   4.348   4.098  0.0700 -0.1325  1.3038
 3268SOL    HW312845   4.187   4.237   4.147 -1.7107 -2.2016  0.1609
 3268SOL    MW412846   4.121   4.264   4.097 -0.1296  0.5916 -0.3984
 3269SOL     OW12847   5.759   2.465   1.226 -0.0957  0.2652  0.3743
 3269SOL    HW212848   5.843   2.506   1.203 -0.7267  0.7164 -1.2086
 3269SOL    HW312849   5.772   2.372   1.205  0.2756  0.1767  0.9542
 3269SOL    MW412850   5.772   2.458   1.221 -0.4022 -0.7501  0.1532
 3270SOL     OW12851   4.350   5.764   5.236 -0.7448  0.2788 -0.0345
 3270SOL    HW212852   4.300   5.839   5.269 -1.8154 -0.1235 -0.7101
 3270SOL    HW312853   4.288   5.692   5.234  0.5746 -0.9930  1.7667
 3270SOL    MW412854   4.335   5.765   5.240 -0.1717 -0.1154  0.3190
 3271SOL     OW12855   0.117   2.897   5.421  0.1899  0.0663 -0.4112
 3271SOL    HW212856   0.076   2.983   5.419 -0.2505 -0.1638 -1.4922
 3271SOL    HW312857   0.068   2.849   5.488 -0.0152  0.4210 -0.3026
 3271SOL    MW412858   0.105   2.902   5.430  0.4567  0.6469  0.5527
 3272SOL     OW12859   4.609   5.872   0.913  0.0778 -0.2363  0.0786
 3272SOL    HW212860   4.523   5.913   0.904  0.1104  0.1546  1.2969
 3272SOL    HW312861   4.595   5.798   0.973  0.8209  0.7102  1.4928
 3272SOL    MW412862   4.596   5.868   0.920 -0.5901  0.1895  0.2239
 3273SOL     OW12863   1.313   2.999   2.001  0.1341 -0.2769  0.3244
 3273SOL    HW212864   1.232   2.952   1.984  1.5777 -3.0911  0.6117
 3273SOL    HW312865   1.310   3.019   2.095  0.2910 -1.5227  0.6111
 3273SOL    MW412866   1.302   2.995   2.011  0.3095 -0.1642 -0.4646
 3274SOL     OW12867   2.108   1.361   5.441 -0.3322  0.3579 -0.1484
 3274SOL    HW212868   2.119   1.451   5.412 -0.9138  0.6111  0.3860
 3274SOL    HW312869   2.196   1.324   5.440  0.3144  1.6876  2.0445
 3274SOL    MW412870   2.121   1.368   5.437 -0.8766 -0.0748  0.6183
 3275SOL     OW12871   3.240   1.817   2.727 -0.1359  0.1063 -0.2137
 3275SOL    HW212872   3.293   1.851   2.798 -0.6538 -0.4139  0.4370
 3275SOL    HW312873   3.152   1.851   2.744 -0.8118 -1.9657  0.7933
 3275SOL    MW412874   3.235   1.826   2.738 -0.0289  0.2804  0.3147
 3276SOL     OW12875   2.985   1.889   2.478  0.4832  0.5754  0.8330
 3276SOL    HW212876   2.982   1.899   2.573 -4.2753  0.6752  0.8963
 3276SOL    HW312877   2.950   1.971   2.444 -1.2141 -0.6944 -0.7237
 3276SOL    MW412878   2.980   1.901   2.486 -0.2773  0.0775  0.1314
 3277SOL     OW12879   4.125   3.045   0.644  0.3974 -0.0510  0.2888
 3277SOL    HW212880   4.111   2.953   0.625  2.0898  0.0036 -1.4993
 3277SOL    HW312881   4.126   3.088   0.559  0.1437  1.5565  1.0510
 3277SOL    MW412882   4.123   3.039   0.630 -0.1133  0.3178 -0.3420
 3278SOL     OW12883   5.217   0.153   5.507 -0.2136  0.2889 -0.2657
 3278SOL    HW212884   5.131   0.180   5.538  0.8438  0.6240  2.7216
 3278SOL    HW312885   5.222   0.060   5.529  0.4482  0.4575  0.3407
 3278SOL    MW412886   5.206   0.144   5.514  0.4693 -0.0146 -1.4895
 3279SOL     OW12887   3.147   6.107   5.728 -0.6669  0.4457  0.1685
 3279SOL    HW212888   3.210   6.070   5.791  0.3856  1.4437 -0.2738
 3279SOL    HW312889   3.146   6.201   5.747 -3.8747  0.2056  1.7767
 3279SOL    MW412890   3.155   6.114   5.739 -0.1590  0.4197 -0.4763
 3280SOL     OW12891   2.729   1.792   0.546  0.1288  0.1189  0.0309
 3280SOL    HW212892   2.734   1.764   0.455 -1.8473  2.4789 -0.9279
 3280SOL    HW312893   2.804   1.850   0.558  1.0939 -1.1434  0.3520
 3280SOL    MW412894   2.740   1.796   0.536  0.0234 -0.2743  0.5107
 3281SOL     OW12895   3.799   0.268   1.923  0.5347  0.1386 -0.8141
 3281SOL    HW212896   3.779   0.359   1.941 -1.1498 -0.1318 -1.1030
 3281SOL    HW312897   3.888   0.255   1.956  0.7128  1.8043 -0.5668
 3281SOL    MW412898   3.808   0.278   1.929  0.3310 -0.5985 -0.4409
 3282SOL     OW12899   5.027   0.688   5.703  0.3032  0.1631  0.2555
 3282SOL    HW212900   5.033   0.768   5.755 -0.1865  0.0556  0.4870
 3282SOL    HW312901   5.104   0.636   5.728  1.5999  1.3088 -1.1927
 3282SOL    MW412902   5.038   0.692   5.713 -0.0103  0.1567 -0.1161
 3283SOL     OW12903   4.775   2.501   5.612 -0.2414 -0.6889 -0.0371
 3283SOL    HW212904   4.751   2.512   5.520  1.6838 -0.2392 -0.5353
 3283SOL    HW312905   4.717   2.561   5.659 -0.5451 -0.1428 -1.0743
 3283SOL    MW412906   4.764   2.510   5.606  0.2941 -0.6275 -0.1057
 3284SOL     OW12907   6.366   3.874  -0.001 -0.4864  0.4599 -0.3766
 3284SOL    HW212908   6.442   3.912  -0.045 -0.4631  0.7461 -0.0895
 3284SOL    HW312909   6.315   3.834  -0.072  0.9489 -1.5539 -0.3814
 3284SOL    MW412910   6.370   3.874  -0.016 -0.7533  0.3195  0.3349
 3285SOL     OW12911   1.073   6.122   1.630 -0.1927 -0.4052 -0.5542
 3285SOL    HW212912   1.101   6.092   1.544  2.0557  3.0078 -1.2104
 3285SOL    HW312913   0.979   6.139   1.621 -0.1498 -0.8488 -2.0661
 3285SOL    MW412914   1.064   6.120   1.618 -0.3383 -0.5713  0.1277
 3286SOL     OW12915   1.355   4.199   6.117  0.9476  0.0856  0.4136
 3286SOL    HW212916   1.377   4.137   6.048  2.3897  0.3959  0.5646
 3286SOL    HW312917   1.342   4.282   6.071  1.5590  0.2152  0.4652
 3286SOL    MW412918   1.356   4.202   6.102 -0.4598 -0.5183  0.2606
 3287SOL     OW12919   3.708   1.091   3.272 -0.5151 -0.0910 -0.0404
 3287SOL    HW212920   3.616   1.069   3.258 -0.8709  1.1214  0.2012
 3287SOL    HW312921   3.706   1.182   3.302  0.8401  0.3453 -1.1518
 3287SOL    MW412922   3.696   1.100   3.274 -0.3425  0.2742  0.0607
 3288SOL     OW12923   3.076   4.207   5.014 -0.1777  0.0410 -0.6597
 3288SOL    HW212924   3.001   4.171   5.063  0.5886 -1.5444 -0.6010
 3288SOL    HW312925   3.111   4.132   4.966  1.7419  0.6065 -0.2110
 3288SOL    MW412926   3.071   4.192   5.014 -0.7811 -0.0878  0.1279
 3289SOL     OW12927   0.410   5.953   1.299 -0.7877  0.5376  0.4889
 3289SOL    HW212928   0.411   5.894   1.224 -0.8825  1.2955 -0.1244
 3289SOL    HW312929   0.489   5.931   1.348 -1.1307 -0.5023  0.5996
 3289SOL    MW412930   0.420   5.942   1.295  0.8582 -0.1427  0.3350
 3290SOL     OW12931   6.349   1.657   1.242 -0.0827  0.3754  0.0431
 3290SOL    HW212932   6.363   1.692   1.330 -0.3798  0.4410  0.0634
 3290SOL    HW312933   6.327   1.565   1.256  2.4693 -0.3530 -0.0856
 3290SOL    MW412934   6.348   1.650   1.255 -0.3365 -0.4095  0.1358
 3291SOL     OW12935   4.467   6.206   4.346 -0.0280  0.2612 -0.2118
 3291SOL    HW212936   4.543   6.250   4.308 -0.9654  1.4949 -0.6981
 3291SOL    HW312937   4.418   6.174   4.270 -0.8351  0.9087  0.0313
 3291SOL    MW412938   4.471   6.207   4.331 -0.1872 -0.0782 -0.2802
 3292SOL     OW12939   0.227   0.798   2.477  0.4601  0.2031 -0.5383
 3292SOL    HW212940   0.224   0.844   2.561 -0.4502 -1.0319  0.1212
 3292SOL    HW312941   0.142   0.817   2.437  0.0455 -0.9463 -0.2257
 3292SOL    MW412942   0.215   0.807   2.483 -0.2518 -0.5211  0.1905
 3293SOL     OW12943   5.259   2.936   2.884  0.2626  0.0427  0.2855
 3293SOL    HW212944   5.219   2.872   2.825 -0.6739 -0.7567  1.7292
 3293SOL    HW312945   5.261   3.017   2.833 -0.4772 -0.6275 -0.8574
 3293SOL    MW412946   5.254   2.938   2.869  0.0467  0.4051 -0.1180
 3294SOL     OW12947   1.350   1.856   4.219 -0.5727 -0.2152  0.1067
 3294SOL    HW212948   1.333   1.774   4.266  2.0911 -1.2518 -0.5617
 3294SOL    HW312949   1.328   1.836   4.128 -2.4182  0.6965  0.3121
 3294SOL    MW412950   1.345   1.842   4.213 -0.0412  0.7474  0.3640
 3295SOL     OW12951   2.996   5.943   2.072  0.2642 -0.5220  0.1984
 3295SOL    HW212952   2.973   5.926   1.981  0.3612  1.3895 -0.2320
 3295SOL    HW312953   2.932   5.893   2.123 -1.8540  0.8716 -0.9470
 3295SOL    MW412954   2.985   5.934   2.067  0.2964 -0.0820  0.3536
 3296SOL     OW12955   2.847   0.206   1.047 -0.3342 -0.0034  0.3297
 3296SOL    HW212956   2.894   0.147   1.106 -0.7556 -0.7803 -0.0980
 3296SOL    HW312957   2.792   0.259   1.104 -1.6882 -1.5897  0.5758
 3296SOL    MW412958   2.846   0.205   1.062 -0.3792 -0.1276 -0.2443
 3297SOL     OW12959   1.829   4.413   2.574  0.7416 -0.2281 -0.0842
 3297SOL    HW212960   1.846   4.348   2.642  0.3585 -0.5197 -0.2636
 3297SOL    HW312961   1.911   4.418   2.525  1.1080  0.1797  0.5571
 3297SOL    MW412962   1.842   4.405   2.576 -0.0929  0.2714 -0.4316
 3298SOL     OW12963   0.407   1.532   3.346 -0.2282 -0.0999  0.3842
 3298SOL    HW212964   0.379   1.623   3.332  2.3947  0.4536 -2.3821
 3298SOL    HW312965   0.503   1.537   3.350  0.0064 -2.7647  0.0305
 3298SOL    MW412966   0.416   1.545   3.345 -0.2149 -0.2460 -0.0262
 3299SOL     OW12967   3.071   0.677   5.902 -0.1267 -0.0658  0.1805
 3299SOL    HW212968   2.988   0.708   5.937  0.7103 -1.1366  3.4721
 3299SOL    HW312969   3.135   0.699   5.970  1.7437 -2.1310 -0.7827
 3299SOL    MW412970   3.069   0.684   5.916 -0.0111 -0.8983 -0.3657
 3300SOL     OW12971   5.023   3.784   1.131 -0.0615  0.4273 -0.2518
 3300SOL    HW212972   4.957   3.850   1.109 -0.4705  0.3189  0.6056
 3300SOL    HW312973   5.087   3.831   1.183 -0.1466  0.2371  0.0245
 3300SOL    MW412974   5.023   3.799   1.135 -0.1928 -0.5768  0.5953
 3301SOL     OW12975   6.004   3.156   5.812  0.2188  0.6019 -0.2757
 3301SOL    HW212976   5.932   3.196   5.861 -1.5640 -3.8880  1.3024
 3301SOL    HW312977   6.082   3.172   5.865 -0.5864  1.1454  0.7664
 3301SOL    MW412978   6.005   3.163   5.825  0.3177 -0.2682 -0.0314
 3302SOL     OW12979   6.362   5.373   2.473  0.2214 -0.0494 -0.2900
 3302SOL    HW212980   6.416   5.297   2.493 -0.6391 -0.3592  0.9354
 3302SOL    HW312981   6.370   5.429   2.550 -0.8183  0.1295 -0.3017
 3302SOL    MW412982   6.370   5.371   2.486  0.5278  0.1603  0.1093
 3303SOL     OW12983   4.884   1.968   2.805 -0.6624  0.4565  0.3677
 3303SOL    HW212984   4.839   2.025   2.743  0.8871  1.9789  0.5448
 3303SOL    HW312985   4.949   2.025   2.847  1.1409 -1.4799  0.4006
 3303SOL    MW412986   4.887   1.983   2.802 -0.2609  0.1618 -0.6388
 3304SOL     OW12987   1.771   5.029   5.326  0.3222 -0.7480  0.3577
 3304SOL    HW212988   1.805   4.968   5.391  1.7279 -1.2053 -0.7556
 3304SOL    HW312989   1.782   4.984   5.242 -0.0566  0.4163 -0.3467
 3304SOL    MW412990   1.777   5.015   5.324 -0.0831 -0.0628  0.2482
 3305SOL     OW12991   2.116   0.885   2.436 -0.5404  0.6566 -0.5650
 3305SOL    HW212992   2.096   0.851   2.523 -0.0145 -0.1055 -0.7209
 3305SOL    HW312993   2.052   0.843   2.379 -0.1726  0.2539 -0.6942
 3305SOL    MW412994   2.105   0.875   2.440  0.6436  0.1655  0.0113
 3306SOL     OW12995   0.431   2.019   4.044 -0.5138  0.4415  0.0684
 3306SOL    HW212996   0.391   2.105   4.059  0.3511  1.0412 -0.8810
 3306SOL    HW312997   0.496   2.011   4.113  1.0132  1.6202 -1.1594
 3306SOL    MW412998   0.434   2.029   4.055  0.6378 -0.8131 -0.5861
 3307SOL     OW12999   5.880   1.021   6.349  0.0493  0.8092 -0.8852
 3307SOL    HW213000   5.894   1.100   6.401  2.0267  0.0705 -0.2189
 3307SOL    HW313001   5.838   1.053   6.269  0.7630  2.5329 -0.6100
 3307SOL    MW413002   5.876   1.036   6.345  0.5584 -0.0587  0.4093
 3308SOL     OW13003   5.124   2.405   1.460  0.2206 -0.2710  0.5056
 3308SOL    HW213004   5.173   2.482   1.432  0.1878 -0.8019 -1.0665
 3308SOL    HW313005   5.179   2.364   1.527  0.2373  1.0893  1.3656
 3308SOL    MW413006   5.137   2.410   1.465 -0.2858 -0.0833  0.5391
 3309SOL     OW13007   0.994   3.047   0.914 -0.1902  0.1948  0.4488
 3309SOL    HW213008   1.029   3.124   0.958  0.7177  1.0505 -1.6376
 3309SOL    HW313009   1.004   3.066   0.820  0.2985 -2.5484 -0.1426
 3309SOL    MW413010   1.000   3.060   0.907  0.5348 -0.2634  0.4447
 3310SOL     OW13011   1.855   4.685   5.395  0.2679 -0.0933 -0.4275
 3310SOL    HW213012   1.858   4.624   5.322  1.0868 -0.9713  0.3232
 3310SOL    HW313013   1.764   4.681   5.427  0.0004  0.0376 -1.1619
 3310SOL    MW413014   1.843   4.677   5.390  0.1475 -0.0236  0.0689
 3311SOL     OW13015   6.118   1.441   1.076  0.4146  0.0938 -0.1960
 3311SOL    HW213016   6.056   1.499   1.032 -1.3428 -1.7311 -0.2820
 3311SOL    HW313017   6.141   1.376   1.010  3.1074  1.1402 -0.3982
 3311SOL    MW413018   6.113   1.440   1.062  0.5153  0.4576 -0.4010
 3312SOL     OW13019   4.968   2.855   6.131  0.1504 -0.4393 -0.1493
 3312SOL    HW213020   4.948   2.945   6.157  0.8378 -0.2859 -0.1467
 3312SOL    HW313021   5.050   2.861   6.082 -0.7574 -0.8068 -1.8078
 3312SOL    MW413022   4.976   2.867   6.128 -0.0461  0.2707  1.0629
 3313SOL     OW13023   0.088   3.942   1.138 -0.5725  0.5995  0.0890
 3313SOL    HW213024  -0.000   3.907   1.146 -0.6078  0.4305 -0.9337
 3313SOL    HW313025   0.087   4.023   1.189 -1.6106  1.1222 -0.7339
 3313SOL    MW413026   0.077   3.948   1.146 -0.0970  0.3815 -0.1921
 3314SOL     OW13027   5.713   4.377   5.283  0.1375  1.0000 -0.0219
 3314SOL    HW213028   5.807   4.396   5.277  0.5197 -0.4306  0.8372
 3314SOL    HW313029   5.671   4.462   5.287  1.3076  1.6897 -1.5603
 3314SOL    MW413030   5.720   4.390   5.282  0.7887 -0.6738  0.1322
 3315SOL     OW13031   2.840   4.487   5.170  0.3572 -0.4106 -0.0653
 3315SOL    HW213032   2.854   4.466   5.078  0.6950 -0.2726 -0.0460
 3315SOL    HW313033   2.907   4.437   5.217  1.7151  1.3091 -0.0790
 3315SOL    MW413034   2.851   4.477   5.164  0.5326 -0.3777 -0.1413
 3316SOL     OW13035   4.676   1.082   0.785 -0.0546 -0.0434 -0.7061
 3316SOL    HW213036   4.745   1.070   0.850 -0.3551  2.2401  0.1024
 3316SOL    HW313037   4.596   1.059   0.831 -0.3283  2.1142 -0.0419
 3316SOL    MW413038   4.675   1.077   0.800 -0.0510 -0.5735  0.0578
 3317SOL     OW13039   3.474   3.628   2.306  0.1656 -0.5359  0.2842
 3317SOL    HW213040   3.438   3.712   2.276  0.8341 -0.2895  0.1453
 3317SOL    HW313041   3.535   3.603   2.237  0.6725 -0.6627  0.7696
 3317SOL    MW413042   3.478   3.636   2.293  0.6975 -0.2390  0.2521
 3318SOL     OW13043   1.661   0.028   3.033 -0.0938  0.5904 -0.1789
 3318SOL    HW213044   1.672   0.062   3.122 -0.4354  2.0131 -0.6535
 3318SOL    HW313045   1.603   0.090   2.990 -0.9440 -0.7451 -1.0436
 3318SOL    MW413046   1.655   0.041   3.039 -0.5671 -0.3327 -0.1194
 3319SOL     OW13047   2.494   4.536   4.110  0.1658  0.3048  0.2827
 3319SOL    HW213048   2.471   4.617   4.155 -0.4392 -0.4481  1.4111
 3319SOL    HW313049   2.550   4.489   4.172  0.1460 -0.3347 -0.1686
 3319SOL    MW413050   2.498   4.540   4.124 -0.0281 -0.1984  0.1696
 3320SOL     OW13051   4.170   3.456   1.422 -0.0579 -0.6172 -0.0695
 3320SOL    HW213052   4.240   3.402   1.458 -1.7579 -2.8751  0.0337
 3320SOL    HW313053   4.132   3.500   1.498 -0.2351 -1.2192  0.1937
 3320SOL    MW413054   4.174   3.455   1.437 -0.5163  0.6430  0.4592
 3321SOL     OW13055   3.479   2.672   0.077  0.2694 -0.1274 -0.7390
 3321SOL    HW213056   3.443   2.665   0.165 -0.7321 -1.2124 -1.2043
 3321SOL    HW313057   3.435   2.747   0.039  1.0378  0.6208 -0.1805
 3321SOL    MW413058   3.468   2.681   0.084 -0.4615 -0.3460 -0.2039
 3322SOL     OW13059   5.526   1.569   2.331 -0.0026 -0.5160 -0.6768
 3322SOL    HW213060   5.458   1.609   2.277 -2.2159  1.7198  3.2957
 3322SOL    HW313061   5.504   1.476   2.334 -0.1997 -0.5850 -2.8890
 3322SOL    MW413062   5.514   1.562   2.324 -0.5772 -0.2963 -0.0617
 3323SOL     OW13063   5.818   5.022   4.534 -0.4711 -0.4243 -0.3950
 3323SOL    HW213064   5.883   5.091   4.538  1.3047 -2.0519  1.7765
 3323SOL    HW313065   5.851   4.961   4.468 -0.6070 -0.4836 -0.4087
 3323SOL    MW413066   5.831   5.023   4.526 -0.0545  0.2314 -0.4433
 3324SOL     OW13067   1.591   0.350   3.971 -0.1695  0.1714  0.0456
 3324SOL    HW213068   1.628   0.436   3.950 -0.1314  0.1773  0.1395
 3324SOL    HW313069   1.659   0.288   3.945  0.2396  0.2219  0.9883
 3324SOL    MW413070   1.605   0.353   3.965  0.5709 -0.0349 -0.4972
 3325SOL     OW13071   2.475   4.068   1.586 -0.2987 -0.1918 -0.1726
 3325SOL    HW213072   2.390   4.097   1.619 -0.5318 -0.1931 -0.7519
 3325SOL    HW313073   2.511   4.014   1.656  0.4573  2.0237  1.2532
 3325SOL    MW413074   2.468   4.065   1.600 -0.5330 -0.2996 -0.2033
 3326SOL     OW13075   0.493   1.250   3.701 -0.2293 -0.2147  0.0232
 3326SOL    HW213076   0.524   1.167   3.738 -0.2612  0.0363  0.6224
 3326SOL    HW313077   0.572   1.303   3.691 -0.0781 -0.6594 -1.2654
 3326SOL    MW413078   0.507   1.246   3.704 -0.1912 -0.1456  0.0885
 3327SOL     OW13079   3.879   4.620   3.918 -0.0755 -0.0533  0.5541
 3327SOL    HW213080   3.891   4.652   3.828  0.3051  0.2936  0.7269
 3327SOL    HW313081   3.820   4.683   3.958  0.7708  0.5067  0.9320
 3327SOL    MW413082   3.873   4.632   3.911  0.8477  0.0075  0.1982
 3328SOL     OW13083   2.222   3.536   1.168  0.1094 -1.0562 -0.5013
 3328SOL    HW213084   2.157   3.477   1.207  0.1113 -0.1943  0.8817
 3328SOL    HW313085   2.173   3.590   1.107  0.2819 -3.1436 -2.6370
 3328SOL    MW413086   2.207   3.535   1.165 -0.1142 -0.2345  0.2930
 3329SOL     OW13087   6.327   0.356   1.058 -0.3209  0.1715 -0.3284
 3329SOL    HW213088   6.254   0.316   1.106 -1.7166  0.7327 -1.8947
 3329SOL    HW313089   6.287   0.390   0.978  1.6235  0.7992 -1.0789
 3329SOL    MW413090   6.312   0.356   1.054  0.3553 -0.2252  0.1320
 3330SOL     OW13091   5.876   0.375   4.625  0.3424 -0.3100 -0.0059
 3330SOL    HW213092   5.836   0.428   4.694 -1.0154  0.2959 -1.2089
 3330SOL    HW313093   5.970   0.389   4.636  0.1082  0.4020  1.2242
 3330SOL    MW413094   5.883   0.384   4.635  0.5951 -0.3003  0.0206
 3331SOL     OW13095   5.863   4.731   5.481 -0.4493 -0.5656 -0.4099
 3331SOL    HW213096   5.813   4.702   5.558 -0.9606 -0.9747 -0.8925
 3331SOL    HW313097   5.824   4.684   5.408  0.3100 -0.4926 -0.8700
 3331SOL    MW413098   5.852   4.721   5.482  0.0598 -0.0137 -0.1685
 3332SOL     OW13099   4.502   5.157   0.348 -0.4400  0.1509 -0.3817
 3332SOL    HW213100   4.576   5.194   0.398  0.2413  0.2697 -1.4461
 3332SOL    HW313101   4.529   5.067   0.329 -0.3628  0.3252 -1.1435
 3332SOL    MW413102   4.516   5.150   0.352 -0.0797 -0.1837 -0.0558
 3333SOL     OW13103   3.210   2.600   4.097 -0.2504  0.2457  0.2493
 3333SOL    HW213104   3.224   2.565   4.009  0.4622 -1.8879  1.1621
 3333SOL    HW313105   3.148   2.673   4.084  1.0259  1.0051 -2.1819
 3333SOL    MW413106   3.203   2.605   4.084 -0.9350 -0.1657 -0.3319
 3334SOL     OW13107   1.601   3.780   3.454 -0.2569  0.5662  0.1207
 3334SOL    HW213108   1.602   3.869   3.421  0.2193  0.5267  0.0223
 3334SOL    HW313109   1.686   3.769   3.498  0.0758 -0.1330 -0.6686
 3334SOL    MW413110   1.613   3.790   3.455  0.2344  0.0368 -0.0891
 3335SOL     OW13111   1.347   1.471   2.313  0.0629  0.7613 -0.1876
 3335SOL    HW213112   1.345   1.406   2.382  2.4150 -0.0605 -0.7836
 3335SOL    HW313113   1.348   1.555   2.359  1.2068  0.2408  0.7894
 3335SOL    MW413114   1.347   1.474   2.328 -0.1641 -0.3768  0.1471
 3336SOL     OW13115   0.155   0.516   0.708 -0.1418 -0.2054  0.2072
 3336SOL    HW213116   0.103   0.446   0.668 -0.1045  0.4140 -0.9669
 3336SOL    HW313117   0.214   0.470   0.769  0.8559 -1.3799 -1.5488
 3336SOL    MW413118   0.156   0.500   0.711  0.8509 -0.3826  0.4190
 3337SOL     OW13119   4.210   2.140   1.883  0.4013 -0.4948  0.6267
 3337SOL    HW213120   4.237   2.083   1.955 -1.2391 -0.5919  1.2042
 3337SOL    HW313121   4.146   2.199   1.923  0.7739  0.6206 -0.3659
 3337SOL    MW413122   4.205   2.140   1.898 -0.5836  0.3061 -0.0713
 3338SOL     OW13123   0.230   2.906   0.668 -0.4138 -0.2889  0.3056
 3338SOL    HW213124   0.228   2.981   0.727  1.0109  2.3832 -2.7402
 3338SOL    HW313125   0.164   2.925   0.602 -0.9180 -2.4063  0.1385
 3338SOL    MW413126   0.221   2.918   0.667 -0.2476 -0.0212  0.5632
 3339SOL     OW13127   0.919   6.052   5.995 -0.3468 -0.1603  0.5063
 3339SOL    HW213128   0.867   6.127   5.967  0.2884 -0.9941 -3.4553
 3339SOL    HW313129   0.958   6.080   6.078 -0.6326  3.6431 -0.4588
 3339SOL    MW413130   0.917   6.065   6.002  0.7001  0.5019  0.2325
 3340SOL     OW13131   5.666   3.962   0.877  0.0830 -0.0280  0.0969
 3340SOL    HW213132   5.633   4.051   0.866  0.4740  0.1666  0.4606
 3340SOL    HW313133   5.756   3.965   0.845  0.1021 -0.2911  0.1193
 3340SOL    MW413134   5.674   3.974   0.871  0.3949 -0.1044 -0.1837
 3341SOL     OW13135   3.513   1.236   6.226  0.2540 -0.5015 -0.4859
 3341SOL    HW213136   3.451   1.290   6.177 -0.0692 -0.6908 -0.2843
 3341SOL    HW313137   3.562   1.298   6.279 -0.7405 -0.4892  0.4391
 3341SOL    MW413138   3.511   1.251   6.226  0.0170  0.1989 -0.2593
 3342SOL     OW13139   2.050   2.582   4.663 -0.1113 -0.4016 -0.4342
 3342SOL    HW213140   1.978   2.550   4.607 -0.1720  0.0791 -0.6326
 3342SOL    HW313141   2.013   2.582   4.751 -1.2332  2.2586 -0.8223
 3342SOL    MW413142   2.035   2.577   4.667  0.1420 -0.1381  0.2557
 3343SOL     OW13143   6.311   0.387   1.454  0.4715 -0.5481 -0.0468
 3343SOL    HW213144   6.373   0.318   1.479  0.0066 -0.4928  1.3715
 3343SOL    HW313145   6.339   0.463   1.506 -0.6700 -0.4842  0.5002
 3343SOL    MW413146   6.323   0.388   1.464  0.1109  0.6693 -0.1182
 3344SOL     OW13147   3.913   5.511   3.244  0.3459  0.3072  0.5497
 3344SOL    HW213148   3.988   5.475   3.291 -0.9143 -0.5751  1.9666
 3344SOL    HW313149   3.909   5.603   3.272  0.5716  0.2190  0.8720
 3344SOL    MW413150   3.923   5.519   3.254  0.6657  0.2932  0.0315
 3345SOL     OW13151   5.138   3.313   5.298 -0.2601  0.2508  0.0561
 3345SOL    HW213152   5.068   3.375   5.315  0.2988  0.9391 -0.1193
 3345SOL    HW313153   5.208   3.365   5.259  0.4028 -0.3957  0.3503
 3345SOL    MW413154   5.138   3.328   5.295  0.0691  0.3946 -0.8283
 3346SOL     OW13155   2.597   6.018   2.862  0.6440  0.2535  0.0384
 3346SOL    HW213156   2.657   6.057   2.926 -0.0439 -1.5492  1.8908
 3346SOL    HW313157   2.510   6.036   2.897  0.2395 -0.6302 -0.4840
 3346SOL    MW413158   2.594   6.026   2.875 -0.4176  0.0119 -0.2356
 3347SOL     OW13159   5.785   6.324   6.089  0.0534 -0.3739 -0.4572
 3347SOL    HW213160   5.847   6.268   6.136  2.3428  2.0275 -0.4158
 3347SOL    HW313161   5.765   6.395   6.150 -1.1776 -0.0193 -1.2350
 3347SOL    MW413162   5.791   6.326   6.103 -0.6533  0.6006 -0.4362
 3348SOL     OW13163   1.862   6.052   6.161  0.2837 -1.4646 -0.3129
 3348SOL    HW213164   1.932   6.070   6.224  0.2572  0.1234 -0.7053
 3348SOL    HW313165   1.899   6.077   6.076 -1.6625  2.3695 -0.2340
 3348SOL    MW413166   1.876   6.058   6.158 -0.5548  0.4556  0.2085
 3349SOL     OW13167   3.702   2.454   3.817  0.1856 -0.0587 -0.3406
 3349SOL    HW213168   3.649   2.529   3.845  0.1479  0.0756 -0.7718
 3349SOL    HW313169   3.639   2.394   3.776  0.6863  1.2251 -3.2151
 3349SOL    MW413170   3.686   2.456   3.816 -0.8235  0.2225 -0.2411
 3350SOL     OW13171   0.165   5.844   5.023  0.3294 -0.0398 -0.2709
 3350SOL    HW213172   0.107   5.805   5.089 -0.1806  2.3699  0.8480
 3350SOL    HW313173   0.169   5.937   5.047  2.4794  0.3979 -1.9608
 3350SOL    MW413174   0.158   5.851   5.035 -0.1056 -0.4375  0.2244
 3351SOL     OW13175   2.248   0.062   4.788  0.1361  0.3110 -0.6512
 3351SOL    HW213176   2.160   0.062   4.750  0.6836 -1.1611 -2.0182
 3351SOL    HW313177   2.238   0.016   4.872  0.1642 -3.4481 -2.5024
 3351SOL    MW413178   2.235   0.056   4.794  0.4647  0.4978  0.3707
 3352SOL     OW13179   3.457   1.069   2.341 -0.1478  0.4921  0.9718
 3352SOL    HW213180   3.431   0.982   2.373 -1.1821 -0.1327 -1.3836
 3352SOL    HW313181   3.552   1.065   2.338 -0.2031 -1.1702 -0.5110
 3352SOL    MW413182   3.466   1.057   2.345  0.1585  0.0281 -0.3797
 3353SOL     OW13183   0.918   4.303   3.138  0.2526  0.6754  0.1801
 3353SOL    HW213184   0.870   4.342   3.065  1.2171  0.0655 -0.7879
 3353SOL    HW313185   0.889   4.212   3.140  1.0618  0.4054 -0.1565
 3353SOL    MW413186   0.908   4.296   3.129 -0.1133 -0.5278  0.3482
 3354SOL     OW13187   1.795   5.088   4.260  0.1201 -0.2950 -0.2395
 3354SOL    HW213188   1.863   5.049   4.315  0.8330 -1.0736 -1.6062
 3354SOL    HW313189   1.839   5.104   4.176 -1.1193  0.1477 -0.8221
 3354SOL    MW413190   1.810   5.085   4.256  0.3662  0.5721 -0.4125
 3355SOL     OW13191   5.452   3.806   3.747  0.7208  0.5456  0.1924
 3355SOL    HW213192   5.517   3.816   3.678  0.9576  0.0108  0.3354
 3355SOL    HW313193   5.396   3.734   3.717  0.6594  0.4936  0.4263
 3355SOL    MW413194   5.453   3.798   3.734  0.0350 -0.0672  0.4861
 3356SOL     OW13195   5.020   3.727   3.824 -0.3349 -0.0379 -0.4378
 3356SOL    HW213196   4.947   3.786   3.840 -0.0463  0.1621  0.1889
 3356SOL    HW313197   5.098   3.780   3.839 -0.0726 -0.6831  0.6204
 3356SOL    MW413198   5.021   3.742   3.828  0.5966 -0.3029  0.0924
 3357SOL     OW13199   1.726   2.999   1.810  0.2743  0.7951  0.2787
 3357SOL    HW213200   1.738   3.054   1.887  1.3992 -0.4484  1.0406
 3357SOL    HW313201   1.690   2.917   1.845 -0.6174  0.7339 -0.7216
 3357SOL    MW413202   1.723   2.995   1.825 -0.6241  0.1607  0.3077
 3358SOL     OW13203   3.270   3.449   1.848 -0.1753 -0.0748  0.1090
 3358SOL    HW213204   3.175   3.447   1.857 -0.2315  1.0247 -0.0196
 3358SOL    HW313205   3.286   3.421   1.758 -0.4768  0.9801 -0.2827
 3358SOL    MW413206   3.260   3.445   1.837  0.2047 -0.0694  0.6265
 3359SOL     OW13207   3.113   2.195   2.907 -0.0801  0.0872  0.4007
 3359SOL    HW213208   3.170   2.264   2.872  0.2262 -0.4287 -0.1259
 3359SOL    HW313209   3.169   2.147   2.969  0.0085 -0.3090  0.0164
 3359SOL    MW413210   3.128   2.198   2.911 -0.3000 -0.1801 -0.1052
 3360SOL     OW13211   3.587   0.700   1.706 -0.1471 -0.0352  0.4617
 3360SOL    HW213212   3.671   0.656   1.698  0.2569  0.9540 -1.3892
 3360SOL    HW313213   3.523   0.629   1.715  0.7070 -0.8779  0.0627
 3360SOL    MW413214   3.590   0.685   1.706  0.1982 -0.2126  0.4177
 3361SOL     OW13215   2.268   2.274   5.996 -0.3015  0.3037 -0.1732
 3361SOL    HW213216   2.346   2.313   5.957 -0.5483 -0.6478 -1.6850
 3361SOL    HW313217   2.302   2.216   6.064  0.4142 -1.0221 -1.6216
 3361SOL    MW413218   2.282   2.272   6.000  0.4988  0.3962  0.4776
 3362SOL     OW13219   0.157   5.912   0.258 -0.4823  0.0934 -0.2557
 3362SOL    HW213220   0.242   5.917   0.301 -0.4175  0.7154 -0.4492
 3362SOL    HW313221   0.167   5.840   0.196 -0.9842 -1.6656  1.6091
 3362SOL    MW413222   0.170   5.903   0.255 -0.0502 -0.0690  0.4081
 3363SOL     OW13223   0.415   4.909   4.836  0.2189 -0.5650 -0.5095
 3363SOL    HW213224   0.432   4.992   4.791 -0.2541 -0.7067 -0.9687
 3363SOL    HW313225   0.382   4.851   4.768 -0.9666 -0.6428  0.0830
 3363SOL    MW413226   0.413   4.913   4.821 -0.1030 -0.1259  0.3239
 3364SOL     OW13227   2.432   4.319   3.925 -0.4852  0.2092 -0.7701
 3364SOL    HW213228   2.447   4.399   3.976 -1.2375 -1.4708  2.3356
 3364SOL    HW313229   2.504   4.261   3.949 -1.1190 -0.8039 -1.2498
 3364SOL    MW413230   2.443   4.322   3.935 -0.3186  0.1059 -0.5827
 3365SOL     OW13231   3.379   0.522   2.596 -0.2609  0.1998  0.1036
 3365SOL    HW213232   3.371   0.538   2.502  1.5955  1.3105  0.0837
 3365SOL    HW313233   3.310   0.459   2.616 -1.4765  0.8591 -1.7640
 3365SOL    MW413234   3.368   0.516   2.586 -0.3010  0.6857 -0.3131
 3366SOL     OW13235   1.222   3.401   5.193  0.1112 -0.4746 -0.4749
 3366SOL    HW213236   1.267   3.481   5.166  2.8634 -2.1034 -1.0907
 3366SOL    HW313237   1.185   3.366   5.112 -1.9334  0.5696 -0.0579
 3366SOL    MW413238   1.223   3.407   5.179 -0.5731 -0.6941 -0.4305
 3367SOL     OW13239   3.516   0.744   5.717  0.6057  0.8122  0.5431
 3367SOL    HW213240   3.528   0.818   5.777 -1.6831  1.5562  0.1906
 3367SOL    HW313241   3.422   0.728   5.718  1.1090 -3.1352  1.7659
 3367SOL    MW413242   3.505   0.752   5.725  0.1266 -0.1248 -0.2173
 3368SOL     OW13243   4.475   6.389   1.615  0.5451  0.1467  0.6868
 3368SOL    HW213244   4.520   6.314   1.653  2.3534  1.3006  0.9351
 3368SOL    HW313245   4.414   6.417   1.683  1.4784  0.2551  1.5042
 3368SOL    MW413246   4.473   6.383   1.629 -0.3994 -0.7481 -0.2838
 3369SOL     OW13247   1.806   1.089   2.003 -0.2183  0.5574 -0.0648
 3369SOL    HW213248   1.814   1.115   1.911 -2.6050 -0.2386 -0.5761
 3369SOL    HW313249   1.729   1.135   2.034 -1.7932 -2.1259  0.3435
 3369SOL    MW413250   1.797   1.098   1.995 -0.4296 -0.0765 -0.1122
 3370SOL     OW13251   3.813   0.774   5.835  0.1107 -0.9746  0.0186
 3370SOL    HW213252   3.757   0.721   5.778  1.7188 -1.4158 -1.2536
 3370SOL    HW313253   3.765   0.856   5.847 -1.9570 -2.2848  1.1758
 3370SOL    MW413254   3.799   0.778   5.829 -0.2691  0.4531 -0.1621
 3371SOL     OW13255   4.583   4.373   6.283  0.0783  0.5869  0.1004
 3371SOL    HW213256   4.499   4.337   6.258  1.0372 -1.0465 -0.9595
 3371SOL    HW313257   4.563   4.440   6.349 -1.9565 -0.2335  0.3563
 3371SOL    MW413258   4.569   4.377   6.288 -0.1425  0.2267  0.3042
 3372SOL     OW13259   5.260   3.450   0.540 -0.0103 -0.2914 -0.0395
 3372SOL    HW213260   5.286   3.395   0.614  0.3721 -0.8194 -0.5569
 3372SOL    HW313261   5.192   3.508   0.576  1.7318  1.0411  1.3423
 3372SOL    MW413262   5.254   3.450   0.555  0.1032 -0.1223 -0.2891
 3373SOL     OW13263   3.935   6.376   1.724  0.0330  0.2559 -0.5662
 3373SOL    HW213264   3.969   6.448   1.776  0.4144  0.0965 -0.5912
 3373SOL    HW313265   3.840   6.387   1.726  0.0667  0.4715 -0.1567
 3373SOL    MW413266   3.927   6.387   1.731  0.1334 -0.9904  0.1176
 3374SOL     OW13267   2.453   0.263   4.759 -0.5485 -0.2411 -0.2828
 3374SOL    HW213268   2.508   0.245   4.683 -0.5721 -0.5032 -0.2358
 3374SOL    HW313269   2.403   0.183   4.773 -1.8703  0.4204 -1.0807
 3374SOL    MW413270   2.454   0.250   4.751 -0.2344  0.1772 -0.1225
 3375SOL     OW13271   5.676   1.108   5.353 -0.7227  0.1375  0.5569
 3375SOL    HW213272   5.634   1.123   5.268  3.3794  0.8541 -1.5910
 3375SOL    HW313273   5.704   1.017   5.350  1.7705  0.8530 -0.1660
 3375SOL    MW413274   5.674   1.098   5.341  0.3336 -0.4655  0.1847
 3376SOL     OW13275   4.150   4.730   4.287  0.2259 -0.2181  0.2028
 3376SOL    HW213276   4.236   4.759   4.257  0.6687 -0.8131  0.8399
 3376SOL    HW313277   4.124   4.662   4.224  0.7575 -0.8529  0.6506
 3376SOL    MW413278   4.158   4.725   4.275 -0.3350  0.8911  0.2448
 3377SOL     OW13279   5.003   5.007   0.658 -0.0041  0.0940 -0.1248
 3377SOL    HW213280   5.030   4.995   0.567  0.2679 -1.0849  0.1051
 3377SOL    HW313281   5.050   4.940   0.706  1.5644  2.0454  1.2297
 3377SOL    MW413282   5.013   4.997   0.652  1.0353  0.4192  0.2758
 3378SOL     OW13283   2.566   2.257   2.903 -0.1894 -0.4001 -0.4029
 3378SOL    HW213284   2.538   2.194   2.837  0.9584 -2.1404  0.6781
 3378SOL    HW313285   2.662   2.259   2.896 -0.2161  1.5217 -0.6417
 3378SOL    MW413286   2.575   2.249   2.894  0.4084 -0.3068  0.2828
 3379SOL     OW13287   5.759   2.428   6.364 -0.0844  0.7399  0.3416
 3379SOL    HW213288   5.801   2.398   6.284  0.2292  1.7589  0.1069
 3379SOL    HW313289   5.668   2.444   6.339 -0.7371 -1.7603  0.9237
 3379SOL    MW413290   5.753   2.426   6.350  0.0836  0.2859  0.6357
 3380SOL     OW13291   5.747   1.355   3.783  0.0550  0.3060  0.4613
 3380SOL    HW213292   5.811   1.339   3.853 -0.1729 -0.2894  0.5436
 3380SOL    HW313293   5.796   1.402   3.716  1.1976 -2.0224 -0.4406
 3380SOL    MW413294   5.762   1.359   3.784  0.0942  0.4565  0.3197
 3381SOL     OW13295   0.134   0.014   6.150 -0.1585  0.5625  0.7582
 3381SOL    HW213296   0.095  -0.060   6.104  0.4012  0.0283  1.1342
 3381SOL    HW313297   0.228  -0.004   6.149  0.0042  1.3612  0.6928
 3381SOL    MW413298   0.142   0.002   6.144  0.8116 -0.0953  0.0213
 3382SOL     OW13299   1.592   4.536   3.866 -0.3191 -0.3160 -0.1317
 3382SOL    HW213300   1.528   4.583   3.919 -1.2311 -1.4938 -0.1450
 3382SOL    HW313301   1.540   4.472   3.818  1.0163 -2.3627  1.0109
 3382SOL    MW413302   1.577   4.534   3.867  0.0486 -0.0988  0.2268
 3383SOL     OW13303   0.773   2.067   5.340  0.2954  0.1801  0.2902
 3383SOL    HW213304   0.780   2.008   5.264  2.7859  0.5703  0.1389
 3383SOL    HW313305   0.863   2.096   5.356 -0.3647  1.1400  2.6075
 3383SOL    MW413306   0.786   2.063   5.332  0.3878 -0.2218 -0.1448
 3384SOL     OW13307   4.111   3.114   2.492 -0.3195 -0.2926 -0.9040
 3384SOL    HW213308   4.079   3.191   2.538  4.2481  1.4252 -0.1428
 3384SOL    HW313309   4.114   3.045   2.559  0.1286  0.3121 -0.2904
 3384SOL    MW413310   4.107   3.115   2.507 -0.0422 -0.5141 -0.4975
 3385SOL     OW13311   3.421   2.932   1.615 -0.5704 -0.3872 -0.4363
 3385SOL    HW213312   3.441   2.976   1.533 -0.1906 -1.7932 -1.1232
 3385SOL    HW313313   3.462   2.987   1.682  0.2885  0.0643 -1.3019
 3385SOL    MW413314   3.429   2.945   1.613  0.4698  0.2154  0.4080
 3386SOL     OW13315   6.315   1.294   3.750 -0.2077 -0.0985 -0.1990
 3386SOL    HW213316   6.308   1.285   3.845  1.1261 -0.3074 -0.0914
 3386SOL    HW313317   6.325   1.204   3.718 -1.2822 -0.0850 -0.6173
 3386SOL    MW413318   6.316   1.281   3.758 -0.6156 -0.1469  0.2720
 3387SOL     OW13319   6.059   1.561   3.926 -0.4739 -0.1435  0.5906
 3387SOL    HW213320   6.090   1.576   3.836  2.9658  0.5318  1.7434
 3387SOL    HW313321   6.067   1.466   3.938 -1.0413 -0.2497  0.1830
 3387SOL    MW413322   6.064   1.550   3.915  0.1901 -0.2822  0.0797
 3388SOL     OW13323   5.895   5.633   0.751  0.3719 -0.1579 -0.1528
 3388SOL    HW213324   5.940   5.598   0.829 -0.1844  1.0415  0.7389
 3388SOL    HW313325   5.951   5.705   0.722  0.9057 -0.9930 -1.2767
 3388SOL    MW413326   5.909   5.638   0.758 -0.4989 -0.3436  0.1006
 3389SOL     OW13327   3.819   5.083   2.544  0.1990  0.3948  0.1106
 3389SOL    HW213328   3.804   5.173   2.572 -0.7665  0.1594  0.4018
 3389SOL    HW313329   3.914   5.073   2.542  0.3057  1.2669  0.5563
 3389SOL    MW413330   3.829   5.094   2.547 -0.0507 -0.4491  0.0518
 3390SOL     OW13331   0.129   0.539   5.759  0.0971  0.3342 -0.2208
 3390SOL    HW213332   0.125   0.456   5.806 -0.9337  0.1619 -0.5916
 3390SOL    HW313333   0.143   0.604   5.828 -2.2440  0.1805  0.4660
 3390SOL    MW413334   0.131   0.537   5.774 -0.1333  0.0294 -0.2730
 3391SOL     OW13335   5.255   0.318   0.151  0.1596  0.1265  0.0351
 3391SOL    HW213336   5.240   0.299   0.243  4.8308  0.0136  1.0508
 3391SOL    HW313337   5.209   0.249   0.104  0.3354 -1.8377  2.5372
 3391SOL    MW413338   5.247   0.306   0.157  0.1721 -0.1150  0.3922
 3392SOL     OW13339   5.134   5.569   3.271 -0.6436  0.0309  0.2827
 3392SOL    HW213340   5.223   5.568   3.307 -0.3229 -1.1684 -0.4881
 3392SOL    HW313341   5.099   5.654   3.297  1.2108  1.0962 -0.5102
 3392SOL    MW413342   5.141   5.580   3.279  0.2335 -0.1526 -0.7248
 3393SOL     OW13343   6.170   4.083   0.123 -0.8407 -0.1429 -0.0108
 3393SOL    HW213344   6.219   4.044   0.052  0.3117  1.1081  0.0607
 3393SOL    HW313345   6.134   4.164   0.087  0.2482  0.8126  0.9463
 3393SOL    MW413346   6.172   4.088   0.109 -0.3907  0.2398 -0.0689
 3394SOL     OW13347   5.434   2.412   5.062  0.3366 -0.1296 -0.1052
 3394SOL    HW213348   5.348   2.453   5.055  0.1390 -0.0855  2.0926
 3394SOL    HW313349   5.496   2.486   5.063 -0.0001  0.2890  3.5584
 3394SOL    MW413350   5.431   2.427   5.061 -0.2067 -0.1133  0.3758
 3395SOL     OW13351   5.758   0.681   1.711  0.2191 -0.2779  0.4430
 3395SOL    HW213352   5.699   0.750   1.739 -0.4426 -1.2596  1.5841
 3395SOL    HW313353   5.711   0.636   1.641  1.1607  1.1324 -1.1558
 3395SOL    MW413354   5.744   0.684   1.706  0.1815  0.4860 -0.1519
 3396SOL     OW13355   4.119   5.232   3.008  0.7057  0.0949 -0.1321
 3396SOL    HW213356   4.061   5.177   3.061  1.1527 -0.9743 -0.7430
 3396SOL    HW313357   4.059   5.283   2.953  0.0399  3.0626  2.9561
 3396SOL    MW413358   4.103   5.232   3.008  1.0508 -0.6183 -0.6301
 3397SOL     OW13359   0.509   2.630   4.416 -0.2097  0.3186 -0.4346
 3397SOL    HW213360   0.595   2.589   4.422 -0.4889 -0.2999 -0.6193
 3397SOL    HW313361   0.468   2.612   4.501  0.3568  1.8079  0.1893
 3397SOL    MW413362   0.515   2.622   4.428 -0.5065 -0.4364  0.0348
 3398SOL     OW13363   0.588   1.592   5.685  0.0794 -0.3230 -0.4670
 3398SOL    HW213364   0.621   1.547   5.763  0.4714  0.1586 -0.3559
 3398SOL    HW313365   0.656   1.579   5.620 -0.5803 -1.3724 -0.9709
 3398SOL    MW413366   0.601   1.584   5.687 -0.2571  0.6045 -0.4020
 3399SOL     OW13367   2.028   4.337   4.821  0.1974 -0.2731  0.2408
 3399SOL    HW213368   2.066   4.407   4.769 -0.5179 -0.7180 -0.9103
 3399SOL    HW313369   1.959   4.301   4.766 -0.1869 -1.1475  1.2677
 3399SOL    MW413370   2.024   4.341   4.807 -0.3459  0.5128  0.3342
 3400SOL     OW13371   5.241   1.824   0.522  0.6231  0.2742 -0.0648
 3400SOL    HW213372   5.218   1.889   0.456  0.4975 -0.3543 -0.6415
 3400SOL    HW313373   5.302   1.870   0.580 -0.1395  1.1771  0.0394
 3400SOL    MW413374   5.246   1.838   0.521  0.1751  0.7668 -0.6290
 3401SOL     OW13375   4.801   5.951   2.380 -0.3368  0.2429  0.1165
 3401SOL    HW213376   4.855   6.023   2.412 -0.0501  0.1641 -0.1850
 3401SOL    HW313377   4.749   5.925   2.456  0.8715 -0.4422  0.7342
 3401SOL    MW413378   4.801   5.957   2.394  0.7858  0.7406 -0.5322
 3402SOL     OW13379   5.059   5.872   5.077  0.9787 -0.4536  0.1902
 3402SOL    HW213380   4.978   5.909   5.114  0.2885  0.4243 -2.0112
 3402SOL    HW313381   5.111   5.848   5.153 -1.2957 -0.9371  1.7067
 3402SOL    MW413382   5.055   5.874   5.092  0.2271 -0.0727 -0.2357
 3403SOL     OW13383   2.996   1.069   6.226 -0.0185  0.4407 -0.1598
 3403SOL    HW213384   3.004   1.109   6.139 -0.2231 -0.7322 -0.7394
 3403SOL    HW313385   3.086   1.047   6.250  0.1140  1.3634  0.2340
 3403SOL    MW413386   3.009   1.072   6.218  0.8188 -0.2230 -0.4194
 3404SOL     OW13387   2.799   3.989   2.696 -0.4259  0.6236  0.1211
 3404SOL    HW213388   2.823   3.901   2.727 -0.6075  0.4844 -0.1278
 3404SOL    HW313389   2.881   4.038   2.698 -0.3506  0.4860  0.3932
 3404SOL    MW413390   2.813   3.984   2.700 -0.0643 -0.6885 -0.6950
 3405SOL     OW13391   5.303   0.969   5.798 -0.0626 -0.1210 -0.1626
 3405SOL    HW213392   5.224   0.917   5.807  0.6278 -1.0207  0.9699
 3405SOL    HW313393   5.321   1.001   5.886  0.8189  0.0787 -0.4032
 3405SOL    MW413394   5.295   0.966   5.811 -0.5406  0.2577 -0.1458
 3406SOL     OW13395   3.241   0.220   5.726 -0.6342  0.1261 -0.3404
 3406SOL    HW213396   3.300   0.230   5.801 -1.6413  1.2615  0.3530
 3406SOL    HW313397   3.165   0.274   5.749 -3.4083 -3.6395  0.2801
 3406SOL    MW413398   3.238   0.229   5.739  0.3768 -0.0545 -0.2768
 3407SOL     OW13399   3.781   6.325   3.563 -0.1572 -0.2395  0.8807
 3407SOL    HW213400   3.845   6.349   3.631  0.4993 -1.9313  0.9318
 3407SOL    HW313401   3.835   6.303   3.487 -0.7748 -0.2159  0.4334
 3407SOL    MW413402   3.797   6.325   3.562 -0.0502 -0.2021 -0.0934
 3408SOL     OW13403   4.392   4.939   5.830 -0.2755  0.1353  0.4975
 3408SOL    HW213404   4.297   4.954   5.820  0.0590  1.4729 -1.1599
 3408SOL    HW313405   4.399   4.846   5.853 -1.9232 -0.3130 -0.6165
 3408SOL    MW413406   4.380   4.929   5.832 -0.7222 -0.1288  0.0024
 3409SOL     OW13407   3.320   0.202   4.866 -0.1504  0.3483  0.0213
 3409SOL    HW213408   3.374   0.130   4.896 -0.8926  0.5165  1.9015
 3409SOL    HW313409   3.233   0.182   4.899 -0.2451  2.3760  1.1659
 3409SOL    MW413410   3.316   0.190   4.874 -0.3826 -0.4219  0.0407
 3410SOL     OW13411   3.760   3.229   3.476  0.1288  0.4927  0.6202
 3410SOL    HW213412   3.696   3.183   3.423 -0.7923  0.0743  2.0252
 3410SOL    HW313413   3.755   3.320   3.447  0.5312  0.0927 -0.8002
 3410SOL    MW413414   3.751   3.235   3.465  0.1297 -0.5636 -0.5104
 3411SOL     OW13415   4.211   6.277   3.303 -0.8713  0.3202 -0.6793
 3411SOL    HW213416   4.273   6.323   3.248  1.2075  0.4552  1.5961
 3411SOL    HW313417   4.261   6.205   3.341 -3.1836 -1.9634 -1.6528
 3411SOL    MW413418   4.225   6.274   3.301 -0.3033  0.1581 -0.2426
 3412SOL     OW13419   2.377   2.705   3.283 -0.0053 -0.0986  0.4384
 3412SOL    HW213420   2.299   2.760   3.277  0.6953  0.9796  0.9564
 3412SOL    HW313421   2.434   2.751   3.344  1.1810 -0.7052 -0.1879
 3412SOL    MW413422   2.374   2.718   3.290  0.2194 -0.0668  0.4528
 3413SOL     OW13423   6.100   3.661   2.475  0.0765  0.1302 -0.6016
 3413SOL    HW213424   6.196   3.659   2.483  0.3264  0.4816 -2.8268
 3413SOL    HW313425   6.078   3.580   2.429 -0.7075  0.0302 -0.0646
 3413SOL    MW413426   6.110   3.650   2.470  0.0835 -0.0533  0.3137
 3414SOL     OW13427   4.878   2.017   5.566  0.3203  0.3614  0.0311
 3414SOL    HW213428   4.966   1.989   5.540 -0.3709 -0.7661 -1.2640
 3414SOL    HW313429   4.868   1.985   5.656  0.0202 -2.6817 -0.9744
 3414SOL    MW413430   4.888   2.009   5.575 -0.5396 -0.4591  0.0662
 3415SOL     OW13431   0.586   6.327   2.690 -0.4197  0.7387 -0.4654
 3415SOL    HW213432   0.506   6.275   2.694 -0.3514  0.7123  1.0582
 3415SOL    HW313433   0.561   6.412   2.725  0.2847  0.6088  0.4031
 3415SOL    MW413434   0.572   6.331   2.695 -0.0989 -0.0260  0.9507
 3416SOL     OW13435   1.370   5.647   0.650  0.3224  0.2459 -0.3984
 3416SOL    HW213436   1.400   5.701   0.577 -0.6666 -0.1824 -1.1610
 3416SOL    HW313437   1.449   5.628   0.700  0.9353  1.0396 -1.0319
 3416SOL    MW413438   1.384   5.652   0.647 -0.2841 -0.2291 -0.0217
 3417SOL     OW13439   6.257   4.715   2.329  0.2790  0.8384 -0.4030
 3417SOL    HW213440   6.351   4.713   2.313  0.4299 -0.9781  0.4639
 3417SOL    HW313441   6.243   4.650   2.398 -1.6643  0.7605 -0.8192
 3417SOL    MW413442   6.268   4.706   2.336  0.1097 -0.1410  0.5483
 3418SOL     OW13443   6.239   1.101   2.314  0.2595  0.1029  0.2417
 3418SOL    HW213444   6.305   1.124   2.249  0.9989  1.5404  1.4513
 3418SOL    HW313445   6.156   1.106   2.267  0.9277 -1.1302 -1.1373
 3418SOL    MW413446   6.237   1.104   2.299 -0.5578  0.0126 -0.4311
 3419SOL     OW13447   6.253   3.053   1.631  0.0609  0.5949 -0.0025
 3419SOL    HW213448   6.242   3.018   1.543  2.2435 -1.4727  0.4213
 3419SOL    HW313449   6.251   2.975   1.688  1.8385  1.4801  1.3743
 3419SOL    MW413450   6.251   3.038   1.627 -0.5448 -0.6844  0.2276
 3420SOL     OW13451   0.531   4.694   2.351  0.6747 -0.0845 -0.2692
 3420SOL    HW213452   0.619   4.715   2.319  0.7037  0.2773  0.0416
 3420SOL    HW313453   0.510   4.610   2.310  0.5972  0.4963 -1.4715
 3420SOL    MW413454   0.540   4.686   2.341 -0.5382 -0.1526  0.1951
 3421SOL     OW13455   0.566   5.670   2.122 -0.0128 -0.1168  0.7100
 3421SOL    HW213456   0.499   5.738   2.120  2.2891  2.3545  1.6899
 3421SOL    HW313457   0.557   5.631   2.209 -0.6828 -0.3972  0.5247
 3421SOL    MW413458   0.556   5.674   2.133 -0.8071 -0.0288  0.6543
 3422SOL     OW13459   2.016   4.650   1.436 -0.3901 -0.1710 -0.0392
 3422SOL    HW213460   1.992   4.569   1.481  0.7108  0.2127  1.2985
 3422SOL    HW313461   1.932   4.686   1.407 -1.1099 -0.6988  1.2748
 3422SOL    MW413462   2.002   4.644   1.438 -0.0113 -0.3692  0.5051
 3423SOL     OW13463   6.060   1.455   2.127  0.1443  0.7705 -0.2089
 3423SOL    HW213464   6.064   1.515   2.202 -1.7186  0.1159  0.4603
 3423SOL    HW313465   6.059   1.368   2.166  0.5987  0.3747 -1.0744
 3423SOL    MW413466   6.060   1.452   2.142 -0.0373 -0.1384  0.1949
 3424SOL     OW13467   2.560   2.932   3.411 -0.1044  0.1866 -0.0982
 3424SOL    HW213468   2.587   2.944   3.320 -0.5514  0.9377 -0.1363
 3424SOL    HW313469   2.619   2.989   3.461 -0.1533  0.1185  0.0376
 3424SOL    MW413470   2.571   2.941   3.406  0.5245 -0.2775  0.4769
 3425SOL     OW13471   0.039   0.095   2.927 -0.4823  0.7700  0.0862
 3425SOL    HW213472   0.075   0.015   2.964  0.4879  1.5573  0.8901
 3425SOL    HW313473   0.115   0.148   2.902 -0.9934  2.4710  1.8383
 3425SOL    MW413474   0.054   0.092   2.928  0.0373 -0.3622 -0.5105
 3426SOL     OW13475   2.338   1.497   2.516  0.1423 -0.8509  0.1414
 3426SOL    HW213476   2.399   1.489   2.589 -0.3436 -0.5883  0.5752
 3426SOL    HW313477   2.251   1.490   2.555 -0.2016  1.2761 -0.1274
 3426SOL    MW413478   2.335   1.495   2.530  0.3746 -0.1161 -0.4454
 3427SOL     OW13479   2.565   5.230   4.626  0.5221  0.6818  0.6203
 3427SOL    HW213480   2.502   5.229   4.555  1.1421 -0.5576  0.0609
 3427SOL    HW313481   2.543   5.308   4.677 -0.0247  1.5043 -0.8342
 3427SOL    MW413482   2.554   5.240   4.624  0.6565 -0.4326 -0.0592
 3428SOL     OW13483   2.116   3.997   1.097  0.2590 -0.2686 -0.2830
 3428SOL    HW213484   2.041   4.043   1.135  0.0825 -1.2657  0.6428
 3428SOL    HW313485   2.163   4.064   1.048 -1.0502  0.4462 -0.6018
 3428SOL    MW413486   2.112   4.011   1.096 -0.7222  0.1372 -0.2132
 3429SOL     OW13487   0.338   2.719   2.863 -0.3163  0.2568  0.4830
 3429SOL    HW213488   0.283   2.645   2.838 -0.1994  0.1330  0.5927
 3429SOL    HW313489   0.276   2.787   2.888 -0.4622 -0.7950  3.4023
 3429SOL    MW413490   0.323   2.718   2.863 -0.1378 -0.0864 -0.2052
 3430SOL     OW13491   4.375   4.767   2.494  0.2588 -0.3632 -0.0767
 3430SOL    HW213492   4.319   4.819   2.553  1.6733  1.8623 -0.5741
 3430SOL    HW313493   4.345   4.790   2.406  2.7217  1.9962 -0.4200
 3430SOL    MW413494   4.364   4.777   2.490 -0.0419  0.0527 -0.3215
 3431SOL     OW13495   3.923   0.998   6.064 -0.4382  0.3645  0.3590
 3431SOL    HW213496   3.874   0.938   6.120  0.5471  0.3085  1.1997
 3431SOL    HW313497   3.925   1.081   6.113 -1.1372  0.8729 -0.4436
 3431SOL    MW413498   3.917   1.001   6.078  0.2719  0.6213  0.1353
 3432SOL     OW13499   0.348   2.615   2.011 -0.0523  0.2265 -0.3390
 3432SOL    HW213500   0.368   2.595   1.920 -0.3868 -1.4698 -0.0816
 3432SOL    HW313501   0.415   2.569   2.061  1.2342  2.6307  0.2696
 3432SOL    MW413502   0.359   2.606   2.006  0.2018  0.4350 -0.2117
 3433SOL     OW13503   6.246   1.110   0.500  0.0293  0.1599  0.2514
 3433SOL    HW213504   6.336   1.109   0.533 -0.3691 -0.2154  1.3445
 3433SOL    HW313505   6.232   1.201   0.472  0.6341  0.2987  0.3835
 3433SOL    MW413506   6.256   1.122   0.501  0.3954  0.1064  0.1257
 3434SOL     OW13507   2.127   2.533   6.056 -0.3097  0.3365  0.5490
 3434SOL    HW213508   2.186   2.461   6.033  0.8830  1.7186 -0.9747
 3434SOL    HW313509   2.181   2.593   6.109 -0.5908  1.1648 -0.0725
 3434SOL    MW413510   2.142   2.532   6.060 -0.2320 -0.1390  0.0480
 3435SOL     OW13511   3.027   4.858   4.562  0.6155 -0.5463  0.7709
 3435SOL    HW213512   3.015   4.943   4.520 -2.0450 -1.2279  0.0136
 3435SOL    HW313513   3.061   4.880   4.649  1.5674  1.1616  0.0224
 3435SOL    MW413514   3.030   4.872   4.568 -0.6313  0.4405  0.4392
 3436SOL     OW13515   0.617   5.886   0.440 -0.2978 -0.3177  0.2605
 3436SOL    HW213516   0.651   5.879   0.529  0.5024 -0.4864 -0.0481
 3436SOL    HW313517   0.535   5.934   0.449  1.5666  3.0840  0.6979
 3436SOL    MW413518   0.611   5.891   0.453  0.6189 -0.0606 -0.8530
 3437SOL     OW13519   5.529   5.013   2.904 -0.1642  0.4681 -0.4583
 3437SOL    HW213520   5.532   5.076   2.976 -1.4173  0.5253 -0.4393
 3437SOL    HW313521   5.518   5.067   2.826 -0.5498  0.3186 -0.5098
 3437SOL    MW413522   5.528   5.029   2.903 -0.0247 -0.1709  0.5820
 3438SOL     OW13523   3.933   4.377   2.024 -0.7916  0.1606 -0.5633
 3438SOL    HW213524   4.028   4.389   2.031 -0.3535 -2.2943 -1.3107
 3438SOL    HW313525   3.896   4.447   2.077  1.4316  1.3300 -0.4471
 3438SOL    MW413526   3.941   4.388   2.032 -0.2972 -0.3487 -0.0425
 3439SOL     OW13527   3.250   0.521   2.906 -0.4033  0.3167 -0.5582
 3439SOL    HW213528   3.224   0.445   2.957  1.6367 -0.7670 -1.0265
 3439SOL    HW313529   3.240   0.595   2.966 -1.4019 -0.4423  0.2415
 3439SOL    MW413530   3.245   0.521   2.920 -0.2179 -0.5949 -0.0081
 3440SOL     OW13531   4.110   4.575   1.215  0.4322  0.3389 -0.1971
 3440SOL    HW213532   4.174   4.572   1.144  0.3955  0.2640 -0.2273
 3440SOL    HW313533   4.037   4.625   1.179  0.7710  1.0437  0.0815
 3440SOL    MW413534   4.109   4.581   1.201 -0.1169 -0.5751  1.0770
 3441SOL     OW13535   0.964   4.070   0.744 -0.1718 -0.4724 -0.0265
 3441SOL    HW213536   0.978   4.108   0.831  1.2516 -0.7909 -0.0978
 3441SOL    HW313537   1.043   4.019   0.727  0.2086  0.6972 -2.1126
 3441SOL    MW413538   0.976   4.068   0.754 -0.3762  0.1597  0.0806
 3442SOL     OW13539   0.452   4.128   4.911 -0.4701  0.0631 -0.3693
 3442SOL    HW213540   0.460   4.085   4.826 -0.1964  2.1630 -1.4710
 3442SOL    HW313541   0.367   4.098   4.945  0.6496 -3.0008 -0.0187
 3442SOL    MW413542   0.442   4.119   4.904  0.0350 -0.0368  0.0955
 3443SOL     OW13543   3.760   4.930   0.060  0.0348 -0.7428  0.4208
 3443SOL    HW213544   3.695   4.918  -0.009 -0.2817 -1.1608  0.7874
 3443SOL    HW313545   3.763   4.846   0.107  0.6855 -0.6642  0.5415
 3443SOL    MW413546   3.752   4.918   0.057  0.0130  0.4569  0.6851
 3444SOL     OW13547   1.899   2.644   3.995  0.2931  0.7535  0.4522
 3444SOL    HW213548   1.857   2.692   4.066 -1.3301  0.0013  0.0378
 3444SOL    HW313549   1.925   2.712   3.932 -0.7881  1.2065  0.4789
 3444SOL    MW413550   1.897   2.659   3.996  0.3372 -0.2989 -0.6433
 3445SOL     OW13551   1.877   4.416   5.988  0.2257 -0.3052 -0.2365
 3445SOL    HW213552   1.895   4.322   5.997 -0.2695 -0.4313 -0.5272
 3445SOL    HW313553   1.795   4.420   5.939 -0.3197  0.2582  0.6939
 3445SOL    MW413554   1.868   4.404   5.983 -0.4415 -0.1355 -0.1378
 3446SOL     OW13555   4.276   0.146   0.594 -0.1248 -0.0842  0.0586
 3446SOL    HW213556   4.298   0.239   0.592  1.0802 -0.3583 -0.8878
 3446SOL    HW313557   4.265   0.125   0.687  0.7966  0.7341  0.3588
 3446SOL    MW413558   4.277   0.155   0.606 -0.4285 -0.2159 -0.7504
 3447SOL     OW13559   2.918   2.381   5.881 -0.5285  0.5782  0.0040
 3447SOL    HW213560   2.965   2.417   5.805  2.7908 -1.9036  0.6431
 3447SOL    HW313561   2.959   2.425   5.956  0.8282 -1.4986  0.5687
 3447SOL    MW413562   2.930   2.392   5.881 -0.7027  0.5389 -0.2354
 3448SOL     OW13563   6.360   6.386  -0.020 -0.3013 -0.3501 -0.7075
 3448SOL    HW213564   6.361   6.293  -0.045  1.3783 -0.4924 -0.2388
 3448SOL    HW313565   6.424   6.427  -0.078 -0.9135  0.5100 -0.8015
 3448SOL    MW413566   6.368   6.379  -0.031 -0.0160 -0.0670 -0.3311
 3449SOL     OW13567   6.423   2.950   4.172  0.0333 -0.1069  0.3916
 3449SOL    HW213568   6.457   2.922   4.087  1.6822 -0.8242  1.2468
 3449SOL    HW313569   6.335   2.981   4.153  0.6503  0.5498 -1.7246
 3449SOL    MW413570   6.416   2.951   4.158 -0.1249 -1.2395  0.7770
 3450SOL     OW13571   4.363   6.142   0.205 -0.6300  0.1510  0.7535
 3450SOL    HW213572   4.305   6.094   0.264 -0.3318  0.9140  1.6784
 3450SOL    HW313573   4.435   6.171   0.261 -0.3391  0.8761  0.0090
 3450SOL    MW413574   4.365   6.139   0.220  0.2141  0.6885 -0.2577
 3451SOL     OW13575   2.041   0.443   4.072 -0.0383  0.5168  0.0616
 3451SOL    HW213576   2.088   0.526   4.064 -0.7786  0.9616  0.2718
 3451SOL    HW313577   2.014   0.421   3.983  0.5669  0.2465 -0.0648
 3451SOL    MW413578   2.044   0.451   4.059 -0.6521 -0.2748  0.1042
 3452SOL     OW13579   0.721   0.106   3.778 -0.3598 -0.2074 -0.0023
 3452SOL    HW213580   0.739   0.176   3.841  0.1503  0.8516 -1.2824
 3452SOL    HW313581   0.773   0.032   3.809  0.3114  0.4680  0.5217
 3452SOL    MW413582   0.730   0.105   3.790 -0.4488  0.3359 -0.2807
 3453SOL     OW13583   2.533   1.493   3.397 -0.2007 -0.1103  0.0838
 3453SOL    HW213584   2.465   1.453   3.452 -0.2615 -0.6792 -0.4041
 3453SOL    HW313585   2.484   1.531   3.324 -0.0381 -0.0825 -0.0093
 3453SOL    MW413586   2.517   1.493   3.395  0.0932  0.7209  0.1364
 3454SOL     OW13587   3.675   1.967   3.246  0.0516  0.7638  0.0101
 3454SOL    HW213588   3.700   1.986   3.155 -0.6519 -0.2066 -0.4033
 3454SOL    HW313589   3.756   1.979   3.296  1.3857 -2.1029 -1.2617
 3454SOL    MW413590   3.689   1.971   3.240  0.0595 -0.7019 -0.5024
 3455SOL     OW13591   4.014   1.628  -0.020  0.2043 -0.5633  0.0230
 3455SOL    HW213592   3.958   1.659  -0.090  0.8518  2.7115  0.8176
 3455SOL    HW313593   3.954   1.581   0.039 -0.4551 -2.7544 -2.2210
 3455SOL    MW413594   3.999   1.626  -0.021  0.1041 -0.4322  0.3810
 3456SOL     OW13595   4.715   5.007   3.636 -0.6269  0.0818 -0.2959
 3456SOL    HW213596   4.661   4.941   3.593 -0.4014  0.3811 -1.0676
 3456SOL    HW313597   4.672   5.090   3.615  0.5573  0.4044 -1.6419
 3456SOL    MW413598   4.702   5.009   3.628  0.4384  0.2778 -1.0223
 3457SOL     OW13599   3.500   1.466   2.184 -0.6290  0.0444  0.0135
 3457SOL    HW213600   3.453   1.469   2.101  1.2774 -1.4174 -1.2133
 3457SOL    HW313601   3.442   1.419   2.243 -1.2789 -0.5271 -1.0384
 3457SOL    MW413602   3.486   1.460   2.181 -0.3647 -0.0098  0.0926
 3458SOL     OW13603   2.545   1.832   1.382 -0.3180  0.6159  0.1807
 3458SOL    HW213604   2.457   1.801   1.402 -0.3531  0.7457  0.2263
 3458SOL    HW313605   2.596   1.811   1.461 -0.0745 -0.3573 -0.2163
 3458SOL    MW413606   2.540   1.825   1.395 -0.1337  0.2881  0.4633
 3459SOL     OW13607   3.747   4.154   2.431 -0.1727 -0.0364  0.4274
 3459SOL    HW213608   3.728   4.076   2.378 -1.2180  0.0994  0.6017
 3459SOL    HW313609   3.766   4.222   2.366 -0.5728 -0.0956  0.2454
 3459SOL    MW413610   3.747   4.153   2.415  0.4870 -0.2167  0.0068
 3460SOL     OW13611   6.352   5.807   3.662  0.3487 -0.1772 -0.0628
 3460SOL    HW213612   6.366   5.713   3.651  0.7042 -0.2706  1.0515
 3460SOL    HW313613   6.270   5.814   3.711  0.3938  0.0807 -0.0191
 3460SOL    MW413614   6.343   5.796   3.667  0.3388  0.1390  0.2992
 3461SOL     OW13615   0.100   4.472   1.778 -0.1365  0.8103 -0.5937
 3461SOL    HW213616   0.037   4.512   1.719 -1.0785 -1.1596 -1.0237
 3461SOL    HW313617   0.047   4.418   1.837  1.1487 -1.6875 -1.5849
 3461SOL    MW413618   0.085   4.470   1.778 -0.4059  0.4340  0.5550
 3462SOL     OW13619   1.276   3.001   0.852 -0.2519  0.1762  0.0021
 3462SOL    HW213620   1.186   3.000   0.884  0.2360 -3.0901  1.6633
 3462SOL    HW313621   1.273   2.951   0.770  0.1216 -0.4608  0.3707
 3462SOL    MW413622   1.264   2.994   0.845 -0.6449  0.4209 -0.1451
 3463SOL     OW13623   6.397   3.635   2.264  0.0490  0.1628  0.1458
 3463SOL    HW213624   6.456   3.673   2.330 -0.3979  2.0192 -0.4837
 3463SOL    HW313625   6.334   3.704   2.245 -0.2265 -0.5536 -1.7620
 3463SOL    MW413626   6.397   3.649   2.270  0.0096 -0.1808  0.6371
 3464SOL     OW13627   5.692   5.384   5.112  0.3447 -0.0296 -0.5158
 3464SOL    HW213628   5.681   5.309   5.170  2.7603  1.0243  1.4564
 3464SOL    HW313629   5.700   5.346   5.024  2.0857 -2.1435  0.4912
 3464SOL    MW413630   5.692   5.369   5.108 -0.1484 -0.1434  0.6219
 3465SOL     OW13631   0.772   2.380   0.183  0.6756 -0.6620 -0.5223
 3465SOL    HW213632   0.691   2.411   0.222  1.3139 -0.8009  0.9933
 3465SOL    HW313633   0.772   2.416   0.094 -0.5457  0.1878 -0.1940
 3465SOL    MW413634   0.762   2.389   0.176 -0.1575 -0.1939  0.1989
 3466SOL     OW13635   1.373   6.353   5.830 -0.5006 -0.1124 -0.1215
 3466SOL    HW213636   1.454   6.305   5.818 -0.6074 -0.1658 -0.6604
 3466SOL    HW313637   1.350   6.384   5.742 -1.2633 -0.4259 -0.0453
 3466SOL    MW413638   1.381   6.351   5.817  0.0045  0.6828  0.3037
 3467SOL     OW13639   4.117   3.367   3.777  0.3618  0.1789 -0.3929
 3467SOL    HW213640   4.038   3.314   3.760  0.7538 -0.8079  0.7621
 3467SOL    HW313641   4.170   3.313   3.835  0.8479  1.7929  0.7306
 3467SOL    MW413642   4.113   3.353   3.782 -0.0338  0.1464  0.3340
 3468SOL     OW13643   6.076   4.518   0.330 -0.1286  1.5345 -0.7440
 3468SOL    HW213644   6.077   4.486   0.240  1.0925  0.9801 -0.5604
 3468SOL    HW313645   5.998   4.478   0.369  0.6017 -0.1368 -0.9163
 3468SOL    MW413646   6.066   4.509   0.323  0.1879  0.1484  0.0288
 3469SOL     OW13647   4.792   3.976   1.336  0.2703 -0.3694  0.0465
 3469SOL    HW213648   4.842   4.001   1.414 -2.5020  0.4521  1.7003
 3469SOL    HW313649   4.786   3.880   1.341  1.6138 -0.4851 -0.1923
 3469SOL    MW413650   4.798   3.967   1.347 -0.3110  0.0522  0.1662
 3470SOL     OW13651   2.014   1.192   1.623 -0.2221 -0.3212  0.1860
 3470SOL    HW213652   1.936   1.138   1.616  0.6773 -1.5878 -0.5463
 3470SOL    HW313653   1.986   1.280   1.597 -1.7320 -0.3820  1.4828
 3470SOL    MW413654   2.000   1.197   1.619  0.2067  0.5076  0.7033
 3471SOL     OW13655   6.131   0.159   3.576 -0.3396  0.3002 -0.6633
 3471SOL    HW213656   6.099   0.129   3.661  1.7302 -1.7825 -0.5278
 3471SOL    HW313657   6.102   0.092   3.514  2.0627 -0.7124 -0.8015
 3471SOL    MW413658   6.123   0.146   3.579  0.7185 -0.0006 -0.6368
 3472SOL     OW13659   4.860   3.313   3.489  0.2927 -0.3826  0.2246
 3472SOL    HW213660   4.899   3.309   3.576  0.3496 -1.9524  0.1557
 3472SOL    HW313661   4.903   3.243   3.440  0.5233  0.7012 -1.1938
 3472SOL    MW413662   4.871   3.303   3.494  0.2938  0.2221  0.1015
 3473SOL     OW13663   0.140   1.706   1.975 -0.1872  0.3896 -0.1567
 3473SOL    HW213664   0.205   1.642   2.002  0.5587  1.5573  0.9893
 3473SOL    HW313665   0.056   1.668   2.000  0.0038 -1.1974 -1.7894
 3473SOL    MW413666   0.137   1.693   1.982  0.4442  0.5001  0.1890
 3474SOL     OW13667   2.800   0.030   0.829  0.3016  0.9599 -0.2230
 3474SOL    HW213668   2.802   0.089   0.905  0.0452  1.8171 -0.8676
 3474SOL    HW313669   2.862   0.069   0.767 -0.5954  1.1007 -1.0483
 3474SOL    MW413670   2.809   0.043   0.831 -0.4011 -0.6925  0.5652
 3475SOL     OW13671   0.082   1.418   4.694 -0.1436 -0.5619 -0.7446
 3475SOL    HW213672   0.129   1.485   4.643 -1.7748  0.6397 -0.7293
 3475SOL    HW313673   0.116   1.335   4.660  2.4076  0.2208 -0.3308
 3475SOL    MW413674   0.093   1.416   4.683 -0.7049 -0.6454 -0.2695
 3476SOL     OW13675   5.304   3.160   2.317  0.2240 -0.7358  0.5707
 3476SOL    HW213676   5.329   3.068   2.318  0.5434 -0.6518  0.3652
 3476SOL    HW313677   5.236   3.166   2.250  0.7270 -0.6855  0.0649
 3476SOL    MW413678   5.298   3.149   2.309  0.2422  0.4400  1.2171
 3477SOL     OW13679   4.774   2.594   3.656  0.4352  0.3451 -0.8568
 3477SOL    HW213680   4.740   2.561   3.573 -0.1427  1.0344 -0.9068
 3477SOL    HW313681   4.696   2.619   3.706  0.8148  0.7795 -0.4667
 3477SOL    MW413682   4.759   2.593   3.652 -0.2136  0.4110 -0.1375
 3478SOL     OW13683   4.877   2.828   4.014  0.4429  0.1499  0.4749
 3478SOL    HW213684   4.883   2.877   3.932 -0.8889 -0.5592 -0.0783
 3478SOL    HW313685   4.967   2.802   4.033  0.5398 -1.9177 -2.1953
 3478SOL    MW413686   4.889   2.831   4.005 -0.3287  0.1896 -0.0040
 3479SOL     OW13687   4.975   0.694   0.537  0.1423 -1.1757  0.1027
 3479SOL    HW213688   4.950   0.690   0.444  0.0099 -0.1914  0.0921
 3479SOL    HW313689   4.896   0.720   0.583  0.8346  1.0439  0.1688
 3479SOL    MW413690   4.962   0.697   0.531 -0.2841 -0.1553 -0.0248
 3480SOL     OW13691   1.270   5.108   1.754 -0.2852 -0.2027  0.3681
 3480SOL    HW213692   1.175   5.094   1.747 -0.4750  0.6964  0.9334
 3480SOL    HW313693   1.300   5.042   1.816 -0.3493 -1.2176 -0.6596
 3480SOL    MW413694   1.261   5.098   1.761 -0.2381 -0.9619  0.0359
 3481SOL     OW13695   1.217   4.004   2.719  0.0842 -0.2996  0.3176
 3481SOL    HW213696   1.240   4.070   2.653 -0.2124 -0.4179  0.0912
 3481SOL    HW313697   1.234   3.920   2.677 -0.3704 -0.3818  0.2847
 3481SOL    MW413698   1.222   4.002   2.705 -0.0282  0.0946 -0.0271
 3482SOL     OW13699   3.656   2.029   6.348  0.2967 -0.0373  0.7916
 3482SOL    HW213700   3.644   2.098   6.283  0.4145  1.4270  2.2446
 3482SOL    HW313701   3.582   2.040   6.408  1.0779 -0.2703  1.8203
 3482SOL    MW413702   3.644   2.039   6.347 -0.4788 -0.0184 -0.3976
 3483SOL     OW13703   2.943   5.285   0.980 -0.1031 -0.7715 -0.1156
 3483SOL    HW213704   2.939   5.217   1.047  0.6734 -0.1485  0.5819
 3483SOL    HW313705   3.036   5.308   0.974 -0.5032  1.4422  0.9447
 3483SOL    MW413706   2.955   5.279   0.988 -0.6899 -0.5696 -0.4618
 3484SOL     OW13707   2.244   0.032   2.183 -0.1842 -0.3076 -0.6172
 3484SOL    HW213708   2.169  -0.027   2.174  0.0403 -0.6329 -0.3518
 3484SOL    HW313709   2.208   0.108   2.229 -0.3121 -0.5379 -0.3318
 3484SOL    MW413710   2.229   0.035   2.188 -0.2550  0.6170  0.1947
 3485SOL     OW13711   2.548   2.887   1.072 -0.2239 -0.2633  0.1975
 3485SOL    HW213712   2.459   2.919   1.054  0.1275  0.1500 -0.8324
 3485SOL    HW313713   2.554   2.887   1.168 -1.2002  0.0724  0.2710
 3485SOL    MW413714   2.537   2.891   1.083 -0.1647  0.0302  0.1585
 3486SOL     OW13715   4.104   6.156   0.999  0.1168  0.4323  0.0924
 3486SOL    HW213716   4.195   6.157   0.968 -0.3528 -0.8071 -1.4213
 3486SOL    HW313717   4.053   6.192   0.927 -0.5953  1.3906  1.0482
 3486SOL    MW413718   4.110   6.161   0.986 -0.1812  0.1469 -0.1106
 3487SOL     OW13719   6.111   0.463   5.161 -0.2014  0.4955  0.0756
 3487SOL    HW213720   6.035   0.411   5.134 -0.2860  1.0639 -0.8370
 3487SOL    HW313721   6.184   0.428   5.110  0.3081 -0.4674  1.4088
 3487SOL    MW413722   6.111   0.451   5.151 -0.5830  0.4876  0.5826
 3488SOL     OW13723   4.285   3.883   4.283 -0.1763 -0.3128 -0.0040
 3488SOL    HW213724   4.222   3.892   4.355 -1.1825 -1.6852 -0.6673
 3488SOL    HW313725   4.231   3.875   4.205  0.8811  0.1647 -0.8151
 3488SOL    MW413726   4.270   3.883   4.282  0.1390  0.6266  0.1126
 3489SOL     OW13727   4.788   3.789   4.265  0.4219 -0.0550  0.1797
 3489SOL    HW213728   4.822   3.699   4.271 -0.5123 -0.3904  0.6043
 3489SOL    HW313729   4.698   3.783   4.297 -0.6965  0.4538 -2.5773
 3489SOL    MW413730   4.780   3.776   4.270  0.6348 -0.1317 -0.1610
 3490SOL     OW13731   5.260   3.446   2.085 -0.0792  0.5484  0.1920
 3490SOL    HW213732   5.334   3.491   2.125 -1.1288  1.5603  1.0564
 3490SOL    HW313733   5.198   3.432   2.157 -1.8753  2.0944 -0.9553
 3490SOL    MW413734   5.261   3.450   2.100 -0.0168 -0.2494 -1.1257
 3491SOL     OW13735   5.501   6.308   0.959 -0.0028 -0.4253 -0.0396
 3491SOL    HW213736   5.423   6.359   0.938  0.4714  0.2235 -0.3061
 3491SOL    HW313737   5.483   6.220   0.926 -0.3305 -0.0956 -0.7553
 3491SOL    MW413738   5.489   6.303   0.952  0.4012  0.1473 -0.9098
 3492SOL     OW13739   6.017   2.657   1.706 -0.2928  0.4349 -0.1225
 3492SOL    HW213740   6.053   2.629   1.622 -1.0140 -0.8974 -0.0130
 3492SOL    HW313741   5.940   2.709   1.683 -0.0866  0.6658 -0.2971
 3492SOL    MW413742   6.012   2.660   1.692  0.6816  0.3701 -0.5568
 3493SOL     OW13743   0.389   6.018   4.826 -0.1244 -0.0234  0.0818
 3493SOL    HW213744   0.297   6.035   4.805 -0.3942  0.5941  1.6415
 3493SOL    HW313745   0.436   6.031   4.744 -1.4118 -0.2396 -0.7081
 3493SOL    MW413746   0.383   6.022   4.813  0.3379 -0.6334 -0.3620
 3494SOL     OW13747   0.012   4.735   4.579  0.0961  0.5979  0.5765
 3494SOL    HW213748  -0.012   4.749   4.488  0.3802 -1.7593  0.0641
 3494SOL    HW313749  -0.059   4.683   4.615  1.1372 -0.6289  0.9582
 3494SOL    MW413750  -0.000   4.730   4.572  0.7665 -0.7756  0.0661
 3495SOL     OW13751   4.733   6.290   1.090 -0.1597 -0.2571 -0.0370
 3495SOL    HW213752   4.679   6.239   1.150  0.8530 -0.3203  0.8708
 3495SOL    HW313753   4.742   6.375   1.132  1.2879 -0.5854  0.3758
 3495SOL    MW413754   4.727   6.294   1.103 -0.0282  0.0593  0.2280
 3496SOL     OW13755   5.855   0.385   0.589 -0.6386 -0.1465  0.1435
 3496SOL    HW213756   5.872   0.468   0.633 -0.8274  0.5714 -1.0893
 3496SOL    HW313757   5.930   0.330   0.611 -0.7634  0.1516  1.3972
 3496SOL    MW413758   5.867   0.389   0.598  0.0248 -0.3389 -1.0613
 3497SOL     OW13759   1.241   4.800   5.531 -0.2373  0.1884 -0.1300
 3497SOL    HW213760   1.203   4.847   5.457  0.2158  0.8748  0.0552
 3497SOL    HW313761   1.303   4.863   5.570  0.1593 -0.4597  0.3132
 3497SOL    MW413762   1.245   4.815   5.527 -0.1188 -1.2113 -0.3551
 3498SOL     OW13763   0.947   3.448   0.767 -0.0355  0.4858 -0.0574
 3498SOL    HW213764   0.933   3.486   0.854  0.5892  0.2903  0.1414
 3498SOL    HW313765   1.043   3.446   0.758 -0.0818 -0.2335 -0.4190
 3498SOL    MW413766   0.958   3.453   0.778  0.1161  0.0408 -0.2145
 3499SOL     OW13767   0.845   2.745   3.390  0.4969 -0.1067 -0.5879
 3499SOL    HW213768   0.772   2.731   3.329 -0.0968 -0.9274  0.2820
 3499SOL    HW313769   0.923   2.745   3.334  0.0494 -1.7241 -1.2871
 3499SOL    MW413770   0.846   2.743   3.374  0.1231  0.3243  0.1678
 3500SOL     OW13771   0.913   2.737   0.639 -0.1354  0.6352  0.3248
 3500SOL    HW213772   0.955   2.761   0.722  0.7081 -0.8224  0.3558
 3500SOL    HW313773   0.971   2.774   0.572 -0.9572  2.0423  0.3526
 3500SOL    MW413774   0.926   2.745   0.641  0.4492 -0.0544 -0.4778
 3501SOL     OW13775   4.301   4.293   1.379 -0.7039 -0.2702 -0.2848
 3501SOL    HW213776   4.275   4.336   1.460  0.0117 -0.8367  0.2733
 3501SOL    HW313777   4.235   4.225   1.365 -1.0948  0.1410 -0.4401
 3501SOL    MW413778   4.289   4.290   1.388  0.1281 -0.0895  0.0986
 3502SOL     OW13779   4.062   3.064   2.804 -0.6329  0.0931  0.4958
 3502SOL    HW213780   4.042   2.970   2.806  0.2361 -0.0952  1.4752
 3502SOL    HW313781   3.996   3.104   2.862  0.4206 -0.2464  1.9922
 3502SOL    MW413782   4.050   3.057   2.812 -0.1855 -0.3513  0.2797
 3503SOL     OW13783   2.500   2.855   5.595  0.8804  0.0124  0.3338
 3503SOL    HW213784   2.502   2.940   5.551 -0.5552  0.1161  0.4287
 3503SOL    HW313785   2.451   2.798   5.536 -0.2851 -0.0875  1.3440
 3503SOL    MW413786   2.494   2.859   5.582 -0.0241 -0.5282  0.1012
 3504SOL     OW13787   0.392   1.817   3.612 -0.2143 -0.1735  0.3055
 3504SOL    HW213788   0.375   1.900   3.657 -0.3674 -0.7258  1.2979
 3504SOL    HW313789   0.311   1.797   3.566 -1.0234 -0.9087  1.9565
 3504SOL    MW413790   0.379   1.825   3.612 -0.4756  0.0130  0.2964
 3505SOL     OW13791   4.259   4.364   3.621 -0.1675 -0.3831  0.1633
 3505SOL    HW213792   4.279   4.451   3.585 -0.2216 -0.7023 -0.6703
 3505SOL    HW313793   4.343   4.319   3.622 -0.4523 -1.0284 -1.4170
 3505SOL    MW413794   4.272   4.370   3.616 -0.1904 -0.4414  0.3282
 3506SOL     OW13795   2.749   0.602   2.803 -0.2287  0.1520  0.1823
 3506SOL    HW213796   2.768   0.522   2.755  0.2305 -1.5220  2.9105
 3506SOL    HW313797   2.835   0.636   2.828 -0.4708  0.3691  0.7393
 3506SOL    MW413798   2.763   0.596   2.800 -0.4849 -0.0507  0.1909
 3507SOL     OW13799   4.461   5.064   1.007  0.0768 -0.4048  0.1125
 3507SOL    HW213800   4.383   5.119   1.001  0.2554 -0.2534 -1.1150
 3507SOL    HW313801   4.430   4.982   1.045 -0.6771 -0.3240 -0.3050
 3507SOL    MW413802   4.446   5.061   1.011  0.8767  0.1861  0.3038
 3508SOL     OW13803   2.422   4.243   4.358 -0.2013 -0.5879 -0.4098
 3508SOL    HW213804   2.464   4.157   4.358 -2.2782 -1.6800  0.4156
 3508SOL    HW313805   2.494   4.305   4.357  1.3844 -2.3007 -2.3159
 3508SOL    MW413806   2.437   4.240   4.358 -0.3771 -0.2095 -0.1195
 3509SOL     OW13807   0.710   5.053   3.249  0.0803 -0.0714  0.0205
 3509SOL    HW213808   0.755   5.071   3.331  0.6306 -0.7300 -0.1260
 3509SOL    HW313809   0.629   5.104   3.254  0.4915  0.5331  0.6095
 3509SOL    MW413810   0.705   5.062   3.261 -0.0819 -0.1126 -0.3169
 3510SOL     OW13811   1.465   3.930   1.489 -0.3430 -0.3507  0.4410
 3510SOL    HW213812   1.486   3.941   1.582 -1.4347  2.0278  0.5005
 3510SOL    HW313813   1.370   3.913   1.489 -0.4216  0.0768 -0.2423
 3510SOL    MW413814   1.455   3.929   1.501  0.1143  0.6216 -0.0031
 3511SOL     OW13815   1.526   0.535   2.991 -0.4131  0.2031 -0.1567
 3511SOL    HW213816   1.616   0.509   3.010 -0.4610  0.9778  1.2341
 3511SOL    HW313817   1.534   0.591   2.913  0.2567 -0.0088 -0.2523
 3511SOL    MW413818   1.539   0.539   2.983  0.4196  0.6021  0.0831
 3512SOL     OW13819   2.989   2.395   1.857 -0.3836 -0.2128  0.5295
 3512SOL    HW213820   3.038   2.366   1.779 -0.4098  1.0215  0.0277
 3512SOL    HW313821   2.938   2.318   1.883 -0.0640 -0.7711 -0.4301
 3512SOL    MW413822   2.989   2.381   1.850  0.0343  0.2113 -0.1734
 3513SOL     OW13823   1.469   6.346   1.268  0.2874  0.0145 -0.4457
 3513SOL    HW213824   1.454   6.437   1.243 -0.7900  0.0469  0.2393
 3513SOL    HW313825   1.467   6.346   1.364 -1.8172 -1.0097 -0.4325
 3513SOL    MW413826   1.466   6.358   1.278  0.0149  0.1451 -0.1663
 3514SOL     OW13827   2.861   0.986   3.448 -0.3386 -0.0535 -0.3410
 3514SOL    HW213828   2.779   0.944   3.422 -1.0833  1.6650 -0.8533
 3514SOL    HW313829   2.838   1.077   3.462  1.0788  0.0509  1.5878
 3514SOL    MW413830   2.847   0.992   3.446  0.1720  0.0370 -0.2291
 3515SOL     OW13831   2.685   4.517   2.342 -0.0822 -0.2838 -0.1156
 3515SOL    HW213832   2.606   4.484   2.300  0.8956 -0.3313 -1.9804
 3515SOL    HW313833   2.758   4.479   2.293  1.1268  0.0703  1.3052
 3515SOL    MW413834   2.684   4.508   2.330 -0.8482  0.2151  0.0657
 3516SOL     OW13835   6.088   3.339   2.597  0.1896 -0.6358  0.0952
 3516SOL    HW213836   6.000   3.376   2.592  0.9770  1.2597 -2.7182
 3516SOL    HW313837   6.121   3.367   2.683 -1.6025 -0.5756  0.7968
 3516SOL    MW413838   6.081   3.348   2.608 -0.5885  0.3089  0.3260
 3517SOL     OW13839   3.731   0.798   6.233  0.1786 -0.2330 -0.3742
 3517SOL    HW213840   3.649   0.847   6.220  0.7269  1.3311  1.6191
 3517SOL    HW313841   3.716   0.715   6.187 -1.8590  0.6801 -1.5166
 3517SOL    MW413842   3.718   0.793   6.225  0.2413 -0.2054 -0.0355
 3518SOL     OW13843   2.992   3.411   1.931 -0.4078 -0.1762  0.1732
 3518SOL    HW213844   2.957   3.489   1.887  1.8415  0.5629 -0.4619
 3518SOL    HW313845   2.965   3.338   1.875 -0.9558  0.3415 -0.2484
 3518SOL    MW413846   2.984   3.412   1.918  0.2061 -0.0321 -0.4259
 3519SOL     OW13847   4.488   4.176   5.307 -0.0856  0.4337 -0.4552
 3519SOL    HW213848   4.562   4.116   5.321  0.2725  0.5123 -1.8750
 3519SOL    HW313849   4.465   4.206   5.395  0.3214 -1.0738  0.2013
 3519SOL    MW413850   4.495   4.172   5.321  0.4016 -0.2425 -0.0024
 3520SOL     OW13851   1.537   4.560   5.042  0.0585 -0.4703  0.9179
 3520SOL    HW213852   1.492   4.640   5.067  1.4041  0.0033  1.9529
 3520SOL    HW313853   1.494   4.532   4.961 -0.2501  1.4669  0.3661
 3520SOL    MW413854   1.526   4.567   5.034 -0.1231 -0.1264 -0.0132
 3521SOL     OW13855   0.567   4.403   1.887 -0.8599  0.0251  0.5854
 3521SOL    HW213856   0.568   4.352   1.806 -2.4701 -0.6272  0.9428
 3521SOL    HW313857   0.486   4.453   1.884 -1.0798 -0.2126  1.9017
 3521SOL    MW413858   0.556   4.403   1.876 -0.2002 -0.0333  0.8405
 3522SOL     OW13859   3.850   2.231   5.412 -0.0359  0.2185  0.1732
 3522SOL    HW213860   3.849   2.272   5.325  0.8270  1.1040  0.5556
 3522SOL    HW313861   3.778   2.273   5.459 -1.1139 -0.9438 -0.3889
 3522SOL    MW413862   3.840   2.242   5.407  0.3352 -0.5068  0.0368
 3523SOL     OW13863   4.461   1.306   0.510  0.0380 -0.2155  0.1151
 3523SOL    HW213864   4.553   1.298   0.538 -0.3437  2.2764  2.6349
 3523SOL    HW313865   4.456   1.255   0.430  3.2706 -1.6452  0.6378
 3523SOL    MW413866   4.473   1.298   0.503  0.1844  0.7009  0.3438
 3524SOL     OW13867   4.734   4.619   3.045 -0.0562  0.3411  0.1847
 3524SOL    HW213868   4.769   4.568   2.972  1.0776  0.3804  0.6821
 3524SOL    HW313869   4.661   4.668   3.008  0.0625 -0.1769 -0.7532
 3524SOL    MW413870   4.729   4.618   3.031 -0.0572 -0.7475  0.3690
 3525SOL     OW13871   5.156   2.163   0.074 -0.3156  0.6811  0.1414
 3525SOL    HW213872   5.153   2.115  -0.009 -0.3738 -1.0112  1.0629
 3525SOL    HW313873   5.192   2.100   0.137 -1.9065  1.3085  1.7739
 3525SOL    MW413874   5.160   2.148   0.071  0.2121 -0.6089  0.0996
 3526SOL     OW13875   2.690   6.228   0.053  0.3435 -0.1793  0.1779
 3526SOL    HW213876   2.615   6.284   0.031  0.3907  0.5840  1.8035
 3526SOL    HW313877   2.693   6.164  -0.018 -1.5978  0.0184 -0.1558
 3526SOL    MW413878   2.680   6.227   0.041 -0.3359  0.2677  0.0079
 3527SOL     OW13879   2.269   4.017   4.570 -0.7583  0.0738  0.0640
 3527SOL    HW213880   2.283   3.929   4.536  0.6954  0.5724 -0.7169
 3527SOL    HW313881   2.215   4.004   4.648  0.1517 -1.5905  0.4700
 3527SOL    MW413882   2.264   4.004   4.576  0.0610 -0.5353 -0.4216
 3528SOL     OW13883   0.900   0.485   1.577  0.2782  0.0571  0.3558
 3528SOL    HW213884   0.927   0.417   1.515 -0.0735 -1.5640  1.9081
 3528SOL    HW313885   0.833   0.535   1.530  1.4238  0.1553 -1.2623
 3528SOL    MW413886   0.895   0.483   1.562 -0.0094 -0.2411  0.1905
 3529SOL     OW13887   0.878   5.554   4.645 -0.4299  0.6416 -0.4066
 3529SOL    HW213888   0.787   5.570   4.670 -1.9027 -2.1709 -3.3039
 3529SOL    HW313889   0.889   5.600   4.561  0.6157  0.4264 -0.4099
 3529SOL    MW413890   0.868   5.562   4.637  0.0387  0.1667 -0.2214
 3530SOL     OW13891   4.336   1.153   4.444  0.6111  0.1236 -0.5183
 3530SOL    HW213892   4.372   1.214   4.508  1.8609 -2.6843  1.6926
 3530SOL    HW313893   4.246   1.139   4.472  1.0588 -0.8460  0.5304
 3530SOL    MW413894   4.329   1.159   4.456 -0.3661  0.7025 -0.1864
 3531SOL     OW13895   5.323   3.210   1.925  0.2838 -0.5403 -0.3800
 3531SOL    HW213896   5.277   3.275   1.977 -0.4735 -2.4835  1.5338
 3531SOL    HW313897   5.294   3.227   1.835 -1.4022  0.5269  0.3134
 3531SOL    MW413898   5.313   3.221   1.920  0.1022  0.3000 -0.1020
 3532SOL     OW13899   1.489   1.267   3.273  0.4233 -0.2331 -0.3631
 3532SOL    HW213900   1.457   1.212   3.344  0.1220 -2.0349 -1.8209
 3532SOL    HW313901   1.584   1.257   3.275  0.3443 -1.2214 -0.8995
 3532SOL    MW413902   1.498   1.258   3.283  0.1664 -0.1652  0.1329
 3533SOL     OW13903   0.506   3.207   5.445  0.1747  0.2397 -0.3722
 3533SOL    HW213904   0.530   3.197   5.353  1.0751 -0.0832 -0.1121
 3533SOL    HW313905   0.577   3.259   5.483  0.7468 -1.1292  0.5160
 3533SOL    MW413906   0.518   3.213   5.438  0.0330 -0.5049  0.3806
 3534SOL     OW13907   5.431   0.036   1.321  0.2241 -0.1410 -0.5557
 3534SOL    HW213908   5.402  -0.051   1.348 -1.5125  0.9338  1.2441
 3534SOL    HW313909   5.512   0.051   1.370  1.0249 -1.0123 -1.5308
 3534SOL    MW413910   5.438   0.027   1.331 -0.1684 -0.1655 -0.0627
 3535SOL     OW13911   2.751   3.857   3.068  0.4378 -0.1462 -0.1396
 3535SOL    HW213912   2.785   3.774   3.101  1.3462 -0.2742 -1.3215
 3535SOL    HW313913   2.675   3.833   3.015  0.2678 -0.1529  0.1076
 3535SOL    MW413914   2.746   3.843   3.065 -0.0686 -0.4193  0.4993
 3536SOL     OW13915   2.191   1.175   1.085  0.0906  0.3801 -0.7101
 3536SOL    HW213916   2.193   1.196   1.178  2.6529  0.4006 -0.7036
 3536SOL    HW313917   2.124   1.233   1.049  0.4378  1.8048  0.8098
 3536SOL    MW413918   2.182   1.186   1.093  0.0296 -0.6253 -0.2491
 3537SOL     OW13919   0.697   5.233   0.812 -0.1026 -0.1119  0.0814
 3537SOL    HW213920   0.684   5.147   0.852  0.3834 -0.1498  0.1634
 3537SOL    HW313921   0.716   5.291   0.885 -3.4143  0.7395  0.4236
 3537SOL    MW413922   0.698   5.229   0.827 -0.5516  0.5631 -0.1968
 3538SOL     OW13923   2.554   0.496   4.620  0.5690 -0.0353  0.5638
 3538SOL    HW213924   2.529   0.589   4.625  0.4056 -0.0132 -0.3917
 3538SOL    HW313925   2.500   0.453   4.686 -0.3769  0.3594  0.0823
 3538SOL    MW413926   2.543   0.503   4.629  0.4467 -0.1827  0.3269
 3539SOL     OW13927   1.454   5.324   3.548 -0.0485 -0.5233 -0.2124
 3539SOL    HW213928   1.444   5.415   3.519 -1.3807 -0.9872 -1.3289
 3539SOL    HW313929   1.380   5.278   3.509  0.3893 -2.0291  0.6421
 3539SOL    MW413930   1.443   5.330   3.539 -0.3572 -0.2700  0.1729
 3540SOL     OW13931   1.184   0.591   3.279 -0.6077  0.6888  0.3317
 3540SOL    HW213932   1.160   0.642   3.357 -1.4855  1.3521 -0.3489
 3540SOL    HW313933   1.129   0.513   3.284  1.0186 -0.4478  1.5831
 3540SOL    MW413934   1.173   0.588   3.290 -0.5417  0.1696 -0.0948
 3541SOL     OW13935   5.352   0.569   5.517  0.3593  0.4566  0.1158
 3541SOL    HW213936   5.306   0.544   5.597 -0.0098 -0.9394 -0.5107
 3541SOL    HW313937   5.380   0.659   5.533 -2.9092  1.5563  0.3933
 3541SOL    MW413938   5.350   0.578   5.530  0.1613 -0.2216  0.4990
 3542SOL     OW13939   0.847   6.000   5.554  0.2082  0.4082  0.9899
 3542SOL    HW213940   0.810   5.932   5.611 -1.2814 -0.5551 -0.9619
 3542SOL    HW313941   0.913   5.953   5.502 -1.9726 -0.1068 -1.5318
 3542SOL    MW413942   0.851   5.985   5.555  0.2569 -0.0202  0.2253
 3543SOL     OW13943   0.437   6.169   3.661  0.2947 -0.3578  0.2541
 3543SOL    HW213944   0.431   6.153   3.567 -0.9517 -0.2629  0.3015
 3543SOL    HW313945   0.369   6.234   3.679 -0.8128 -1.7922  1.5039
 3543SOL    MW413946   0.427   6.175   3.651 -0.0367  0.3609 -0.6399
 3544SOL     OW13947   4.864   0.751   0.923  0.3520 -0.3151 -0.2491
 3544SOL    HW213948   4.918   0.807   0.978 -2.3526  1.4236  0.8895
 3544SOL    HW313949   4.812   0.699   0.985 -1.6339  0.5432 -1.0895
 3544SOL    MW413950   4.864   0.752   0.939  0.6304 -0.2305 -0.4017
 3545SOL     OW13951   5.617   1.790   3.683 -0.4072  0.1578  0.2400
 3545SOL    HW213952   5.583   1.787   3.593 -1.6994 -0.2647  0.7128
 3545SOL    HW313953   5.693   1.847   3.678 -1.4092  1.4835 -0.8331
 3545SOL    MW413954   5.622   1.797   3.671 -0.2321 -0.5177  0.2490
 3546SOL     OW13955   6.368   0.120   0.208 -0.4819 -0.1122  0.0023
 3546SOL    HW213956   6.365   0.068   0.127  0.6503 -1.4666  0.7989
 3546SOL    HW313957   6.453   0.101   0.246 -1.3175 -0.1401  1.9466
 3546SOL    MW413958   6.379   0.111   0.202  0.0878 -0.6212 -0.1935
 3547SOL     OW13959   4.609   3.460   3.582  0.0264  0.2480  0.4344
 3547SOL    HW213960   4.678   3.419   3.532  0.4857  0.1368  1.1415
 3547SOL    HW313961   4.532   3.405   3.567  0.0625  0.4332 -0.4370
 3547SOL    MW413962   4.608   3.447   3.574 -1.0147  0.6837 -0.1658
 3548SOL     OW13963   0.193   3.844   1.591  0.0992  0.0303  0.6057
 3548SOL    HW213964   0.245   3.903   1.535 -1.3531  0.8745  0.0891
 3548SOL    HW313965   0.171   3.897   1.668  0.1103 -0.3632  0.8835
 3548SOL    MW413966   0.197   3.859   1.594 -0.3438  0.1700 -0.6448
 3549SOL     OW13967   4.101   3.843   3.195 -0.0372 -0.3513  0.2669
 3549SOL    HW213968   4.022   3.803   3.231 -0.3075 -0.4999 -0.4664
 3549SOL    HW313969   4.157   3.770   3.171 -0.9305 -0.3831 -1.9664
 3549SOL    MW413970   4.098   3.828   3.196 -0.5383  0.0793 -0.0093
 3550SOL     OW13971   3.957   3.521   5.498 -0.3935 -0.2132 -0.5807
 3550SOL    HW213972   4.002   3.457   5.444 -1.4133 -1.6386  0.2022
 3550SOL    HW313973   3.912   3.470   5.565 -0.6502  1.3739  0.5214
 3550SOL    MW413974   3.957   3.506   5.500  0.0867 -0.4376  0.2435
 3551SOL     OW13975   2.990   1.105   3.761 -0.0621  0.3155 -0.3746
 3551SOL    HW213976   3.034   1.152   3.832  0.5695 -0.5488 -0.1782
 3551SOL    HW313977   2.981   1.015   3.794 -1.8737  0.4292 -0.4536
 3551SOL    MW413978   2.994   1.099   3.775  0.8581  0.5788 -0.3100
 3552SOL     OW13979   4.383   3.531   5.691  0.0720 -0.3253  0.0262
 3552SOL    HW213980   4.298   3.545   5.731  0.2742  0.9990  0.0360
 3552SOL    HW313981   4.415   3.449   5.729 -0.5227 -0.0321  1.1855
 3552SOL    MW413982   4.376   3.522   5.701 -0.2631  0.0012  0.1593
 3553SOL     OW13983   4.749   1.677   0.980 -0.1867 -0.0098  0.2800
 3553SOL    HW213984   4.834   1.710   1.009 -1.5781  2.4615  1.8988
 3553SOL    HW313985   4.689   1.699   1.051 -2.1778 -1.9102 -0.6959
 3553SOL    MW413986   4.752   1.684   0.993  0.3984 -0.3130  0.3321
 3554SOL     OW13987   1.866   3.892   2.148 -0.3759 -0.0768  0.7328
 3554SOL    HW213988   1.773   3.867   2.143  0.2151 -2.5023  0.5790
 3554SOL    HW313989   1.898   3.884   2.059  0.2619 -0.5264  0.9920
 3554SOL    MW413990   1.858   3.887   2.136 -0.9940  0.4272  0.3033
 3555SOL     OW13991   1.701   5.387   0.347 -0.1745  0.3739  0.0117
 3555SOL    HW213992   1.787   5.423   0.324 -0.1519  0.3343  0.0324
 3555SOL    HW313993   1.701   5.300   0.308 -0.1874  0.3568  0.0499
 3555SOL    MW413994   1.713   5.380   0.339 -0.1427  0.2753 -0.0225
 3556SOL     OW13995   4.779   3.891   2.093 -0.6991 -0.1613 -0.6147
 3556SOL    HW213996   4.701   3.840   2.114 -0.5654 -0.1441 -0.0648
 3556SOL    HW313997   4.829   3.893   2.175 -0.4099  0.3280 -0.8009
 3556SOL    MW413998   4.775   3.885   2.107 -0.4293 -0.1261 -0.2997
 3557SOL     OW13999   2.710   1.160   4.743  0.2259 -0.2299  0.2106
 3557SOL    HW214000   2.798   1.186   4.716  0.2350  0.1263  0.5694
 3557SOL    HW314001   2.689   1.218   4.817 -0.1892 -0.5146  0.3225
 3557SOL    MW414002   2.719   1.171   4.749  0.5463  0.0265 -0.0311
 3558SOL     OW14003   1.025   2.435  -0.026 -0.2944 -0.5890 -0.0506
 3558SOL    HW214004   1.042   2.529  -0.031 -2.2954 -0.1318  0.7854
 3558SOL    HW314005   1.048   2.410   0.063  1.0837 -1.1251 -0.5220
 3558SOL    MW414006   1.030   2.444  -0.015  0.7604 -0.3570 -0.1716
 3559SOL     OW14007   2.101   3.928   6.373  0.1055 -0.4111  0.2531
 3559SOL    HW214008   2.070   3.867   6.306  2.5776 -0.7234 -0.7344
 3559SOL    HW314009   2.180   3.886   6.408  0.7202  1.2808  1.0031
 3559SOL    MW414010   2.108   3.914   6.369  0.4265  0.5097  0.4946
 3560SOL     OW14011   0.315   2.259   0.226 -0.2674 -0.1925 -0.3281
 3560SOL    HW214012   0.221   2.275   0.223 -0.7945 -1.9600  2.5892
 3560SOL    HW314013   0.323   2.170   0.258  2.4614 -0.6908 -2.0650
 3560SOL    MW414014   0.304   2.250   0.230 -0.2224 -0.4922 -0.2383
 3561SOL     OW14015   3.972   4.235   0.415 -0.1301 -0.1271 -0.0187
 3561SOL    HW214016   3.994   4.308   0.472  0.3107  0.5490 -1.0220
 3561SOL    HW314017   3.919   4.177   0.470  2.6836 -0.9988  2.0057
 3561SOL    MW414018   3.968   4.237   0.430 -0.1112 -0.4638  0.2085
 3562SOL     OW14019   5.494   5.642   4.282  0.4979 -0.1181 -0.7230
 3562SOL    HW214020   5.458   5.560   4.315 -0.3517  0.8152  0.7804
 3562SOL    HW314021   5.432   5.671   4.214  0.8562 -0.7541 -1.3289
 3562SOL    MW414022   5.481   5.635   4.277  0.2295  0.6052  0.0702
 3563SOL     OW14023   1.633   2.008   3.514 -0.1585  0.2931  0.8777
 3563SOL    HW214024   1.620   1.989   3.607 -3.6672 -0.8339  0.3094
 3563SOL    HW314025   1.553   2.054   3.488  0.9475  1.0365 -1.5210
 3563SOL    MW414026   1.621   2.012   3.523  0.7543 -0.2081 -0.1889
 3564SOL     OW14027   1.165   3.591   3.226  0.6580 -0.0112  0.3096
 3564SOL    HW214028   1.207   3.571   3.310 -0.7603  0.7366  1.2311
 3564SOL    HW314029   1.093   3.650   3.249 -0.1334 -0.2882 -1.3658
 3564SOL    MW414030   1.161   3.596   3.240 -0.1107 -0.1480 -0.6189
 3565SOL     OW14031   0.746   5.554   3.875 -0.4083 -0.1912  0.6680
 3565SOL    HW214032   0.817   5.491   3.884  0.1469  0.5989  2.4278
 3565SOL    HW314033   0.719   5.549   3.784  0.4872 -2.0208  0.4741
 3565SOL    MW414034   0.752   5.545   3.864 -0.0197 -0.1806  0.3697
 3566SOL     OW14035   1.453   3.786   1.238  0.0285  0.2146  0.1415
 3566SOL    HW214036   1.476   3.810   1.328 -1.1385  0.5822  0.3609
 3566SOL    HW314037   1.382   3.723   1.247  0.9463 -0.9481 -0.5061
 3566SOL    MW414038   1.447   3.781   1.251  0.0738 -0.4519  0.4239
 3567SOL     OW14039   3.735   0.381   2.283  0.3258  0.0889  0.7375
 3567SOL    HW214040   3.685   0.380   2.366 -2.7749 -2.0426 -0.9233
 3567SOL    HW314041   3.780   0.296   2.282 -0.5043 -0.3589 -0.1615
 3567SOL    MW414042   3.734   0.369   2.294 -0.1850  0.1018  0.6212
 3568SOL     OW14043   1.220   2.145   5.597  0.6792 -0.2659 -0.3373
 3568SOL    HW214044   1.154   2.147   5.528  0.3783  0.2043 -0.0329
 3568SOL    HW314045   1.304   2.145   5.549  0.4822  0.7873 -0.6949
 3568SOL    MW414046   1.223   2.145   5.581 -0.1432 -0.4561 -0.2245
 3569SOL     OW14047   3.057   0.635   6.300  0.1313 -1.1895  0.0238
 3569SOL    HW214048   3.043   0.692   6.376 -0.3578  0.9985 -1.6022
 3569SOL    HW314049   2.970   0.625   6.262  0.5687 -1.1513 -0.9945
 3569SOL    MW414050   3.044   0.641   6.305  0.1216 -0.9362 -0.2408
 3570SOL     OW14051   2.468   2.076   3.889 -0.3628  0.7363 -0.0599
 3570SOL    HW214052   2.554   2.053   3.855 -0.2523  1.8025 -0.5401
 3570SOL    HW314053   2.448   2.007   3.952  0.7985  0.4235 -0.0103
 3570SOL    MW414054   2.476   2.064   3.893  0.1732  0.5735 -0.3617
 3571SOL     OW14055   1.374   0.463   4.293  0.6232 -0.1274  0.1819
 3571SOL    HW214056   1.307   0.475   4.361  1.6707 -0.1211  1.2441
 3571SOL    HW314057   1.367   0.542   4.238 -1.0235 -0.6741 -0.4615
 3571SOL    MW414058   1.364   0.475   4.295  0.3332 -0.2093  0.1301
 3572SOL     OW14059   0.868   1.134   0.200 -0.4156  0.1478 -0.6734
 3572SOL    HW214060   0.947   1.098   0.240 -1.8011 -1.8626  0.4212
 3572SOL    HW314061   0.880   1.229   0.205  0.6050 -0.0411  2.2634
 3572SOL    MW414062   0.880   1.142   0.206  0.2319  0.3138  0.2421
 3573SOL     OW14063   1.149   0.310   4.616  0.0820 -0.3113  0.4540
 3573SOL    HW214064   1.174   0.262   4.696 -2.1906 -1.0282  0.7982
 3573SOL    HW314065   1.067   0.352   4.638  0.8501  1.9042 -0.6378
 3573SOL    MW414066   1.142   0.309   4.629  0.6773  0.0311 -0.5571
 3574SOL     OW14067   0.791   4.434   1.507  0.0754  0.0068  0.0330
 3574SOL    HW214068   0.851   4.376   1.555  0.8600 -0.8503 -1.8974
 3574SOL    HW314069   0.769   4.502   1.570 -0.0016 -1.7609  2.0497
 3574SOL    MW414070   0.796   4.435   1.522 -0.0313  0.2726  0.0906
 3575SOL     OW14071   5.571   3.445   4.588 -0.6202 -0.2712  0.3518
 3575SOL    HW214072   5.604   3.388   4.519 -0.0085 -0.9976  1.2285
 3575SOL    HW314073   5.639   3.512   4.598 -0.0157 -1.0081  1.2483
 3575SOL    MW414074   5.584   3.446   4.580 -0.5506 -0.1118 -0.2707
 3576SOL     OW14075   4.968   4.245   4.525 -0.3892  0.0440  0.2441
 3576SOL    HW214076   4.915   4.305   4.578 -0.6508  0.3563 -0.3619
 3576SOL    HW314077   5.034   4.212   4.586 -1.1569 -0.2014  0.9547
 3576SOL    MW414078   4.970   4.249   4.540  0.3749 -0.9679 -0.2786
 3577SOL     OW14079   6.302   2.140   1.411  0.5100 -0.0144  0.1030
 3577SOL    HW214080   6.378   2.171   1.460  0.1239  0.5602  0.3487
 3577SOL    HW314081   6.278   2.058   1.455  0.9018 -0.1252  0.1123
 3577SOL    MW414082   6.309   2.133   1.423 -0.1616  0.4624  0.2201
 3578SOL     OW14083   5.054   1.614   2.099  0.6415  0.3724 -0.1504
 3578SOL    HW214084   5.117   1.614   2.171 -1.1676  2.0436  1.5724
 3578SOL    HW314085   5.054   1.705   2.067  0.4456 -0.0435 -1.4148
 3578SOL    MW414086   5.062   1.626   2.104 -0.3498  0.9221  0.2051
 3579SOL     OW14087   5.237   1.439   2.258 -0.3636  0.1003  0.3320
 3579SOL    HW214088   5.185   1.359   2.259  1.5588 -1.2046  1.3739
 3579SOL    HW314089   5.225   1.476   2.346 -0.1761  0.2294  0.3030
 3579SOL    MW414090   5.228   1.433   2.270  0.5919 -0.0619  0.9487
 3580SOL     OW14091   6.238   4.235   6.221 -0.9983  0.3659 -0.0237
 3580SOL    HW214092   6.194   4.271   6.144  0.1455 -3.1886 -2.6135
 3580SOL    HW314093   6.325   4.210   6.189 -0.6727 -1.7414  2.2305
 3580SOL    MW414094   6.244   4.237   6.206 -0.1794 -0.5999 -0.4676
 3581SOL     OW14095   2.099   0.318   1.649 -0.2063  0.3115 -0.0399
 3581SOL    HW214096   2.063   0.406   1.662  1.2036  0.5739  3.0623
 3581SOL    HW314097   2.182   0.332   1.602 -0.9595  0.3681 -1.3999
 3581SOL    MW414098   2.105   0.332   1.645 -0.0018 -0.3028  0.3309
 3582SOL     OW14099   3.853   6.333   4.724 -0.2860 -0.4710 -0.0194
 3582SOL    HW214100   3.892   6.414   4.757 -0.5813  0.1144 -1.0799
 3582SOL    HW314101   3.810   6.295   4.801 -0.0118  0.2952  0.5253
 3582SOL    MW414102   3.852   6.339   4.739  0.2491 -0.5898 -0.0333
 3583SOL     OW14103   5.981   2.598   0.354  0.1422 -0.5552 -0.5753
 3583SOL    HW214104   5.929   2.677   0.367 -0.9540 -1.1626 -1.0904
 3583SOL    HW314105   6.032   2.615   0.275  1.1539  0.2558  0.2396
 3583SOL    MW414106   5.980   2.611   0.345 -0.0155  0.3912  0.7731
 3584SOL     OW14107   1.230   3.293   2.515  0.1664 -0.1692  0.3176
 3584SOL    HW214108   1.247   3.218   2.571 -0.7255 -0.3019  0.4242
 3584SOL    HW314109   1.164   3.263   2.452 -0.1897  0.5033  0.3494
 3584SOL    MW414110   1.223   3.279   2.514 -0.2214 -0.1173  0.0956
 3585SOL     OW14111   4.737   4.238   3.141 -0.4769  0.6993 -0.1080
 3585SOL    HW214112   4.732   4.213   3.048 -0.5922  1.8759 -0.4412
 3585SOL    HW314113   4.669   4.187   3.184  0.2525 -0.6207 -0.4830
 3585SOL    MW414114   4.727   4.228   3.134  0.9379  0.5099  0.3691
 3586SOL     OW14115   3.025   0.423   0.038  0.0666  0.3365  0.1165
 3586SOL    HW214116   2.939   0.444   0.075  0.3011  0.1908  0.7738
 3586SOL    HW314117   3.043   0.493  -0.024 -0.8801 -0.0656 -0.6238
 3586SOL    MW414118   3.016   0.435   0.035  0.2339 -0.1708  0.0596
 3587SOL     OW14119   0.637   4.871   1.220 -0.4762 -0.0680 -0.5677
 3587SOL    HW214120   0.577   4.863   1.146 -1.2761  0.0050  0.0609
 3587SOL    HW314121   0.626   4.790   1.269  0.3112 -0.2670 -0.7108
 3587SOL    MW414122   0.627   4.859   1.217 -0.0259 -0.0416  0.9418
 3588SOL     OW14123   1.194   3.622   6.220  0.3922 -0.9214  0.1491
 3588SOL    HW214124   1.200   3.588   6.131 -0.8692 -1.7899  0.3700
 3588SOL    HW314125   1.147   3.705   6.210 -2.0770 -2.2193  0.2129
 3588SOL    MW414126   1.188   3.629   6.207  0.1884  0.5131 -0.3439
 3589SOL     OW14127   6.405   4.299   2.010  0.3665 -0.3942  0.3622
 3589SOL    HW214128   6.414   4.332   2.099  0.4135 -0.3120  0.3272
 3589SOL    HW314129   6.472   4.231   2.003  0.1843 -0.5860  0.4754
 3589SOL    MW414130   6.415   4.294   2.021  0.1306 -0.3243 -0.3550
 3590SOL     OW14131   2.042   2.020   2.570 -0.1212  1.0339 -0.0918
 3590SOL    HW214132   2.075   2.029   2.660  1.0015  1.3915 -0.5239
 3590SOL    HW314133   2.120   1.998   2.518 -1.0355 -0.9326 -0.7221
 3590SOL    MW414134   2.057   2.018   2.575  0.6637 -0.0722 -0.1089
 3591SOL     OW14135   1.421   1.964   6.138  0.3589 -0.4757  0.3355
 3591SOL    HW214136   1.442   1.979   6.230  0.8212  0.6730  0.0570
 3591SOL    HW314137   1.423   2.051   6.098  0.2006 -0.9608 -0.7728
 3591SOL    MW414138   1.424   1.977   6.144 -0.0303  0.4004 -0.0358
 3592SOL     OW14139   0.184   4.076   2.569  0.5508  0.0959 -0.3817
 3592SOL    HW214140   0.266   4.061   2.617  0.7492 -1.1955 -1.0760
 3592SOL    HW314141   0.162   3.990   2.533 -0.1317  0.8249 -1.7636
 3592SOL    MW414142   0.192   4.063   2.571 -0.5257  0.8291  0.2901
 3593SOL     OW14143   4.644   2.382   0.479  0.5474  0.4122  0.3254
 3593SOL    HW214144   4.711   2.333   0.433  0.1153 -0.4222  0.5631
 3593SOL    HW314145   4.674   2.473   0.477 -1.9269  1.6601 -6.4271
 3593SOL    MW414146   4.657   2.388   0.473  0.0402  0.3028 -0.1171
 3594SOL     OW14147   6.021   5.102   5.790 -0.6085  0.1140  0.2091
 3594SOL    HW214148   6.067   5.018   5.793 -2.0142 -0.6983  0.3028
 3594SOL    HW314149   6.030   5.137   5.878  1.3002  0.8485 -0.2276
 3594SOL    MW414150   6.028   5.095   5.802 -0.0378  0.0677 -0.6006
 3595SOL     OW14151   4.275   3.890   0.574 -0.4401  0.1752  0.7022
 3595SOL    HW214152   4.193   3.937   0.588 -1.1050 -0.6036 -0.4324
 3595SOL    HW314153   4.300   3.910   0.484  0.3717  0.0107  0.8770
 3595SOL    MW414154   4.268   3.899   0.564 -0.1477  0.3628  0.1319
 3596SOL     OW14155   2.445   4.257   0.837 -0.0310 -0.3034  0.4837
 3596SOL    HW214156   2.524   4.242   0.890 -0.6569  0.9834  1.8672
 3596SOL    HW314157   2.454   4.198   0.762  0.6596 -2.6537  2.2900
 3596SOL    MW414158   2.456   4.247   0.834 -0.0727  0.0822  0.0349
 3597SOL     OW14159   3.362   5.452   3.669  0.1954  0.1341 -1.1737
 3597SOL    HW214160   3.428   5.522   3.667  0.1315  0.2110 -0.7510
 3597SOL    HW314161   3.412   5.372   3.685  0.2674  0.0860 -1.6417
 3597SOL    MW414162   3.377   5.451   3.671  0.4203 -0.0449 -0.2463
 3598SOL     OW14163   6.224   1.777   6.110 -0.0537  0.4571  0.2975
 3598SOL    HW214164   6.231   1.688   6.076 -1.2925  0.2622  0.4918
 3598SOL    HW314165   6.284   1.780   6.184  0.1335 -0.1646  0.1765
 3598SOL    MW414166   6.233   1.766   6.115  0.5994 -0.4436 -0.0013
 3599SOL     OW14167   1.973   1.704   6.181 -0.4032 -0.0927  0.2450
 3599SOL    HW214168   1.970   1.636   6.248 -2.0534 -0.5893 -0.2777
 3599SOL    HW314169   1.898   1.760   6.199  0.8433  1.5414  0.5656
 3599SOL    MW414170   1.963   1.702   6.192  0.1765  0.2912 -0.0180
 3600SOL     OW14171   1.723   3.045   4.258 -0.1626 -0.4093 -0.2165
 3600SOL    HW214172   1.773   2.999   4.325 -0.0229  1.8455  1.3617
 3600SOL    HW314173   1.716   2.983   4.185 -0.0973 -2.8822  1.7583
 3600SOL    MW414174   1.729   3.031   4.257 -0.3151  1.1272 -0.0905
 3601SOL     OW14175   2.171   1.642   0.273  0.5125  0.6299  0.0450
 3601SOL    HW214176   2.259   1.676   0.289 -0.1131  1.5687  1.8803
 3601SOL    HW314177   2.127   1.650   0.358 -1.1143 -0.5068 -0.6461
 3601SOL    MW414178   2.177   1.648   0.287  0.0965 -0.0083 -0.2297
 3602SOL     OW14179   4.809   3.819   5.030  0.2445  0.2647  0.5444
 3602SOL    HW214180   4.773   3.833   4.942 -0.3134 -1.6015  0.4119
 3602SOL    HW314181   4.899   3.852   5.025 -0.4862  2.3022 -0.0038
 3602SOL    MW414182   4.816   3.825   5.017  0.4650  0.2469 -0.5287
 3603SOL     OW14183   0.270   4.710   4.700  0.0917  0.5760 -0.6268
 3603SOL    HW214184   0.190   4.716   4.648 -0.5713 -0.1430  0.2822
 3603SOL    HW314185   0.340   4.698   4.636 -0.7970 -1.1260 -1.3285
 3603SOL    MW414186   0.269   4.710   4.685  0.3834  0.2256  0.7290
 3604SOL     OW14187   3.899   4.352   5.278  0.4153 -0.1139 -0.6372
 3604SOL    HW214188   3.878   4.440   5.310 -1.3323 -0.6265 -0.2282
 3604SOL    HW314189   3.821   4.300   5.299  1.5155 -1.8305 -0.6197
 3604SOL    MW414190   3.886   4.356   5.285  0.4754  0.0680 -0.2873
 3605SOL     OW14191   5.460   3.671   2.168 -0.5341 -0.0593 -0.1380
 3605SOL    HW214192   5.410   3.742   2.129 -2.1230 -0.1216  1.5898
 3605SOL    HW314193   5.543   3.671   2.122 -0.8813  2.2367 -0.8913
 3605SOL    MW414194   5.464   3.680   2.157  0.1268 -0.2210 -0.0411
 3606SOL     OW14195   0.857   2.843   3.776  0.4312 -0.0876 -0.2126
 3606SOL    HW214196   0.784   2.835   3.715  0.1603  0.1391  0.0725
 3606SOL    HW314197   0.867   2.938   3.787 -0.5572 -0.1321  1.3033
 3606SOL    MW414198   0.849   2.855   3.769  0.1469 -0.2141 -0.3167
 3607SOL     OW14199   2.595   0.922   0.468 -0.3488 -0.2426  0.6660
 3607SOL    HW214200   2.679   0.878   0.453 -0.2305  0.6493 -1.8598
 3607SOL    HW314201   2.530   0.852   0.467  0.1985 -0.7594  0.8587
 3607SOL    MW414202   2.597   0.907   0.466  0.0416  0.0395 -0.2942
 3608SOL     OW14203   1.931   1.874   5.805  0.2097 -0.0887 -0.1280
 3608SOL    HW214204   1.970   1.937   5.867 -0.8168  2.2660 -1.7172
 3608SOL    HW314205   1.981   1.886   5.724  0.2236 -1.6552 -0.3826
 3608SOL    MW414206   1.943   1.884   5.803  0.2017 -0.0208  0.3503
 3609SOL     OW14207   6.326   0.042   3.934 -0.0511 -0.1689  0.5340
 3609SOL    HW214208   6.372   0.110   3.884  1.4235  0.2043  2.3124
 3609SOL    HW314209   6.258   0.089   3.982 -2.0889 -0.6507 -1.6909
 3609SOL    MW414210   6.323   0.057   3.933  0.1968  0.9107  0.3233
 3610SOL     OW14211   0.262   0.163   0.701  0.5531  0.0766  0.0681
 3610SOL    HW214212   0.175   0.128   0.722  0.2860  0.5553 -0.2350
 3610SOL    HW314213   0.286   0.217   0.776 -0.7560  2.4599 -1.1389
 3610SOL    MW414214   0.254   0.165   0.714 -0.0480 -0.3522 -0.0177
 3611SOL     OW14215   6.047   4.415   2.300  0.1002 -0.3325 -0.2038
 3611SOL    HW214216   6.006   4.474   2.362 -2.9217 -1.4772 -0.9504
 3611SOL    HW314217   6.096   4.352   2.354 -1.1712 -0.3727  0.9485
 3611SOL    MW414218   6.048   4.414   2.315 -0.3401  0.1117 -0.2242
 3612SOL     OW14219   2.929   2.820   5.365 -0.6034  0.0315 -0.3773
 3612SOL    HW214220   2.965   2.861   5.444 -1.0581  0.3061 -0.3144
 3612SOL    HW314221   3.007   2.798   5.313 -0.3564  1.5319 -0.6978
 3612SOL    MW414222   2.944   2.823   5.368  0.0437  0.3347 -0.4291
 3613SOL     OW14223   6.152   3.250   0.839  0.2036  0.1956 -0.1281
 3613SOL    HW214224   6.223   3.263   0.776 -0.3023 -1.0419 -0.9704
 3613SOL    HW314225   6.196   3.233   0.922  0.8822  0.0748 -0.5107
 3613SOL    MW414226   6.167   3.250   0.842  0.5585  0.4298 -0.2833
 3614SOL     OW14227   1.830   0.546   2.267  0.3726  0.3892  0.0111
 3614SOL    HW214228   1.880   0.495   2.203  0.7192  0.3124  0.3350
 3614SOL    HW314229   1.871   0.632   2.267 -1.4571  1.3416 -1.9878
 3614SOL    MW414230   1.842   0.550   2.259  0.1891  0.1531 -0.0508
 3615SOL     OW14231   3.049   4.634   0.412  0.0805 -1.0697  0.5971
 3615SOL    HW214232   3.008   4.701   0.467 -0.9413 -1.5438  0.4329
 3615SOL    HW314233   3.137   4.623   0.449 -0.6179 -1.4475  2.1897
 3615SOL    MW414234   3.055   4.642   0.424  0.1100  0.2195  0.2867
 3616SOL     OW14235   1.327   3.883   6.065  0.4413  0.2458 -0.0777
 3616SOL    HW214236   1.359   3.893   6.154  0.6674 -1.2855  0.0312
 3616SOL    HW314237   1.388   3.821   6.024 -0.0655  0.3877 -1.0877
 3616SOL    MW414238   1.339   3.876   6.071 -0.5062 -0.1215 -0.4659
 3617SOL     OW14239   3.903   3.730   5.104 -0.1236  0.0939  0.0933
 3617SOL    HW214240   3.812   3.703   5.089  0.5072 -1.5304 -1.1798
 3617SOL    HW314241   3.940   3.741   5.017  1.1278 -0.0767  0.5750
 3617SOL    MW414242   3.896   3.728   5.091  0.4888 -0.4349 -0.3380
 3618SOL     OW14243   2.174   3.931   3.710 -0.1454 -0.1225 -0.1973
 3618SOL    HW214244   2.234   3.923   3.636  0.7300 -1.1295  0.5752
 3618SOL    HW314245   2.153   3.841   3.734 -0.1072  0.1628  0.9973
 3618SOL    MW414246   2.179   3.918   3.704 -0.2040 -0.2065 -0.0324
 3619SOL     OW14247   2.669   2.955   4.986 -0.4475 -0.4160 -0.1209
 3619SOL    HW214248   2.682   2.898   5.062 -0.4959 -0.1301  0.1030
 3619SOL    HW314249   2.755   2.959   4.944 -0.2730 -0.0938  0.2599
 3619SOL    MW414250   2.682   2.948   4.991  0.4203 -0.3268 -0.3433
 3620SOL     OW14251   2.619   1.251   5.964  0.0774  0.1166 -0.0773
 3620SOL    HW214252   2.586   1.270   6.051  1.1444  4.4015 -0.3730
 3620SOL    HW314253   2.560   1.298   5.905  2.2176  1.6580 -1.1475
 3620SOL    MW414254   2.607   1.259   5.967  0.9231 -0.0617 -0.1679
 3621SOL     OW14255   5.605   2.415   2.863  0.3903  0.2232  0.2715
 3621SOL    HW214256   5.552   2.335   2.871 -0.9765  1.2132  1.8634
 3621SOL    HW314257   5.695   2.384   2.862  0.0579 -1.3049  3.4926
 3621SOL    MW414258   5.610   2.400   2.864 -0.1128  0.1356  0.7234
 3622SOL     OW14259   4.562   0.744   2.633 -0.0501 -0.1134 -0.9722
 3622SOL    HW214260   4.516   0.819   2.595  2.2417  1.0394 -1.6460
 3622SOL    HW314261   4.548   0.673   2.570 -2.7808 -0.5513 -0.0184
 3622SOL    MW414262   4.554   0.745   2.620 -0.8670  0.7140  0.7369
 3623SOL     OW14263   5.133   4.899   5.988  0.1018 -0.7057  0.6902
 3623SOL    HW214264   5.084   4.972   5.949  1.1178  0.2604  1.1765
 3623SOL    HW314265   5.087   4.880   6.070 -1.4538 -2.0910 -0.4265
 3623SOL    MW414266   5.121   4.906   5.994 -0.1723 -0.0384 -0.0365
 3624SOL     OW14267   6.209   3.794   4.655  0.3776 -0.2851 -0.1076
 3624SOL    HW214268   6.254   3.725   4.606  1.2425  0.8862 -1.0502
 3624SOL    HW314269   6.274   3.864   4.663  0.6264 -0.7641  3.6584
 3624SOL    MW414270   6.224   3.794   4.649 -0.5130  0.3150  0.2498
 3625SOL     OW14271   0.875   2.996   2.447 -0.0101 -0.0632  0.4269
 3625SOL    HW214272   0.859   2.984   2.354  0.0388  0.7795  0.3035
 3625SOL    HW314273   0.832   3.079   2.469 -1.0605 -0.8272  1.4198
 3625SOL    MW414274   0.867   3.005   2.438 -0.3316 -0.1794  0.3987
 3626SOL     OW14275   0.689   0.013   4.297  0.1854 -0.1690  0.3290
 3626SOL    HW214276   0.770   0.037   4.342  0.0452 -0.1664  0.5838
 3626SOL    HW314277   0.716  -0.051   4.231  0.6744  1.1547 -0.8091
 3626SOL    MW414278   0.703   0.008   4.294 -0.1547  0.3493 -0.8208
 3627SOL     OW14279   0.369   4.276   0.455  0.4793  0.1057 -0.2696
 3627SOL    HW214280   0.405   4.263   0.367  1.4447  0.1294  0.1060
 3627SOL    HW314281   0.283   4.234   0.453  1.0236 -1.0125 -0.8562
 3627SOL    MW414282   0.363   4.269   0.443  0.6583 -0.0166 -0.4829
 3628SOL     OW14283   5.451   0.364   2.462 -0.2208  0.0873  0.1627
 3628SOL    HW214284   5.453   0.280   2.415 -1.8050  0.3866 -0.5011
 3628SOL    HW314285   5.535   0.404   2.442 -0.0448 -0.6911 -0.7577
 3628SOL    MW414286   5.462   0.358   2.453 -0.2749 -0.3599 -0.6422
 3629SOL     OW14287   6.197   2.851   1.808  0.3653  0.0106 -0.2787
 3629SOL    HW214288   6.150   2.770   1.790 -0.7369  0.3456  0.9982
 3629SOL    HW314289   6.246   2.834   1.888  0.8023  0.3422 -0.4685
 3629SOL    MW414290   6.198   2.838   1.816  0.1164  0.4195 -0.2748
 3630SOL     OW14291   3.139   4.175   0.461  0.3314 -0.5690  0.0124
 3630SOL    HW214292   3.199   4.165   0.535  1.7347 -1.4300 -1.1940
 3630SOL    HW314293   3.193   4.213   0.392 -1.0735  0.6530 -0.4441
 3630SOL    MW414294   3.154   4.178   0.462  0.1830 -0.3064  0.0747
 3631SOL     OW14295   1.735   6.030   3.419  0.0854  0.2919 -0.3760
 3631SOL    HW214296   1.653   6.042   3.468 -0.5546 -0.0593 -1.3280
 3631SOL    HW314297   1.707   6.005   3.331  1.2260  0.1697 -0.7229
 3631SOL    MW414298   1.720   6.028   3.414 -0.0119 -0.1796  0.3581
 3632SOL     OW14299   1.995   0.726   3.575  0.0650 -0.1360 -0.7576
 3632SOL    HW214300   1.980   0.631   3.569  2.2778 -0.7016  1.0371
 3632SOL    HW314301   2.061   0.744   3.508 -0.0959  0.0753 -0.8602
 3632SOL    MW414302   2.002   0.716   3.566 -0.0668  0.5005  0.2174
 3633SOL     OW14303   6.261   5.222   5.666  0.1005 -0.0301 -0.2435
 3633SOL    HW214304   6.232   5.297   5.615  0.6314  0.6860  0.4826
 3633SOL    HW314305   6.182   5.190   5.709  0.1780  1.3359  0.9907
 3633SOL    MW414306   6.247   5.228   5.665 -0.1501  0.1250  0.1067
 3634SOL     OW14307   5.127   1.815   4.376  0.2786  0.2519  0.0798
 3634SOL    HW214308   5.113   1.882   4.309 -1.1226 -0.6847 -0.5917
 3634SOL    HW314309   5.045   1.812   4.424  0.6730 -0.3243  0.7272
 3634SOL    MW414310   5.114   1.824   4.373  0.5915  0.3195  0.0699
 3635SOL     OW14311   3.865   0.983   1.291  0.4422  0.1284 -0.6144
 3635SOL    HW214312   3.912   1.018   1.367  0.1619 -0.0701 -0.3464
 3635SOL    HW314313   3.925   0.996   1.218  0.8167  0.0989 -0.3179
 3635SOL    MW414314   3.879   0.990   1.292 -1.0398 -0.1250 -0.1356
 3636SOL     OW14315   0.732   3.596   6.187 -0.2619  0.0184  0.2452
 3636SOL    HW214316   0.724   3.611   6.093 -0.3610  1.6850  0.4984
 3636SOL    HW314317   0.789   3.519   6.194  0.4578  0.3952 -1.1502
 3636SOL    MW414318   0.738   3.588   6.176 -0.0296  1.0551  0.0665
 3637SOL     OW14319   4.047   3.304   5.334 -0.4032 -0.4234 -0.3169
 3637SOL    HW214320   4.007   3.220   5.357 -0.8479 -0.1927 -0.2526
 3637SOL    HW314321   4.139   3.294   5.361 -0.6471 -0.5762  0.4949
 3637SOL    MW414322   4.054   3.291   5.341 -0.0360 -0.4722 -0.2217
 3638SOL     OW14323   1.307   4.792   4.164  0.2977 -0.2446  0.3580
 3638SOL    HW214324   1.353   4.763   4.086 -1.6139 -1.7545 -0.2551
 3638SOL    HW314325   1.351   4.747   4.236  1.3565  0.3052  0.0792
 3638SOL    MW414326   1.319   4.782   4.164 -0.1965  0.7908  0.3342
 3639SOL     OW14327   2.825   4.727   0.031 -0.0189 -0.2453 -0.1545
 3639SOL    HW214328   2.876   4.791   0.081  0.9499 -0.6089 -0.6399
 3639SOL    HW314329   2.749   4.775  -0.000 -0.5519  0.0300  1.5136
 3639SOL    MW414330   2.822   4.742   0.033 -0.1499  0.3581  0.1355
 3640SOL     OW14331   0.190   5.682   0.125 -0.4936 -0.3205  0.5082
 3640SOL    HW214332   0.276   5.673   0.085 -0.3087  0.3119  0.7607
 3640SOL    HW314333   0.165   5.592   0.147 -0.7276 -0.7352 -1.2627
 3640SOL    MW414334   0.198   5.669   0.122  0.1169 -0.5123 -0.1790
 3641SOL     OW14335   1.362   6.005   4.057 -0.2792  0.0330  0.7135
 3641SOL    HW214336   1.273   6.041   4.055 -0.1871  0.2768  1.0301
 3641SOL    HW314337   1.367   5.959   4.141  0.2397  0.9083  1.1738
 3641SOL    MW414338   1.351   6.003   4.068  0.4521 -0.7829 -0.5435
 3642SOL     OW14339   4.889   3.821   0.152 -0.6816 -0.0946  0.0037
 3642SOL    HW214340   4.835   3.816   0.231  0.0006 -2.0157  0.3994
 3642SOL    HW314341   4.974   3.788   0.180  0.1485  1.0105 -1.1015
 3642SOL    MW414342   4.893   3.816   0.166 -0.4682 -0.1993  0.1047
 3643SOL     OW14343   0.773   3.768   0.413  0.1781 -0.2180  0.1491
 3643SOL    HW214344   0.739   3.707   0.349  0.8096  0.3502 -0.7509
 3643SOL    HW314345   0.717   3.846   0.404  1.4980  0.6220 -1.1573
 3643SOL    MW414346   0.761   3.770   0.404 -0.1446 -0.8681  0.1365
 3644SOL     OW14347   3.463   2.980   6.198  0.3602 -0.0419 -0.2297
 3644SOL    HW214348   3.466   2.894   6.156  0.7388 -0.2404  0.1964
 3644SOL    HW314349   3.462   3.042   6.125 -0.3675 -0.4138 -0.5449
 3644SOL    MW414350   3.463   2.977   6.182 -0.1381  0.3906 -0.0003
 3645SOL     OW14351   4.877   4.435   2.181  0.3969  0.0093 -0.3716
 3645SOL    HW214352   4.812   4.471   2.120 -0.3059 -0.8942 -0.1910
 3645SOL    HW314353   4.891   4.346   2.150  2.5575  0.5652 -1.1714
 3645SOL    MW414354   4.870   4.428   2.169 -0.5142  0.5096 -0.4057
 3646SOL     OW14355   5.433   2.181   5.217  0.1480  0.2016  0.3100
 3646SOL    HW214356   5.431   2.263   5.168  0.8152  0.4905  0.7529
 3646SOL    HW314357   5.441   2.208   5.308  1.1346 -0.3618  0.4029
 3646SOL    MW414358   5.434   2.195   5.222  0.2559 -1.3175 -0.9013
 3647SOL     OW14359   0.285   3.312   5.568  0.2827 -0.4446 -0.7172
 3647SOL    HW214360   0.367   3.277   5.532  1.4102  0.0617  1.2599
 3647SOL    HW314361   0.253   3.371   5.500  1.3493 -0.9389 -1.6936
 3647SOL    MW414362   0.292   3.315   5.554  0.1699 -0.3676 -0.2092
 3648SOL     OW14363   0.539   1.716   2.028 -0.1518 -0.2007 -0.3253
 3648SOL    HW214364   0.533   1.704   1.933  1.4571  3.4237 -1.0452
 3648SOL    HW314365   0.632   1.709   2.048 -0.4993 -1.2697  1.1305
 3648SOL    MW414366   0.550   1.713   2.018 -0.0188 -0.4079  0.3632
 3649SOL     OW14367   4.151   3.279   5.791  0.8689  0.8086 -0.1505
 3649SOL    HW214368   4.068   3.239   5.765  2.1148 -1.2765 -1.2137
 3649SOL    HW314369   4.168   3.244   5.878  1.1159  0.4003 -0.3600
 3649SOL    MW414370   4.142   3.269   5.799 -0.1697  0.0143  0.0635
 3650SOL     OW14371   2.237   1.471   1.708 -0.1826  0.2307 -0.3422
 3650SOL    HW214372   2.192   1.444   1.788  0.1316  1.8474  0.4107
 3650SOL    HW314373   2.261   1.388   1.665 -1.6449 -0.6627  0.4741
 3650SOL    MW414374   2.235   1.456   1.713 -0.6446 -0.1514  0.3040
 3651SOL     OW14375   3.897   2.748   3.597  0.0681 -0.3306 -0.0636
 3651SOL    HW214376   3.804   2.735   3.619 -0.0511 -0.5382 -0.6717
 3651SOL    HW314377   3.901   2.837   3.562 -0.1151 -0.7285 -1.1231
 3651SOL    MW414378   3.885   2.758   3.596  0.1915 -0.6459 -0.4177
 3652SOL     OW14379   0.648   1.240   1.664 -0.2488  0.3769 -0.4020
 3652SOL    HW214380   0.676   1.331   1.671  2.8078 -0.5088  0.5634
 3652SOL    HW314381   0.592   1.226   1.741 -0.5768  1.3642 -0.4536
 3652SOL    MW414382   0.644   1.250   1.675  0.2133  0.0217  0.0587
 3653SOL     OW14383   5.129   4.415   0.171  0.4967  0.0301 -0.0165
 3653SOL    HW214384   5.216   4.453   0.162  1.5630 -1.9384  1.2272
 3653SOL    HW314385   5.140   4.323   0.146 -0.6549 -0.8302  2.2959
 3653SOL    MW414386   5.142   4.408   0.167 -0.4210  0.3609 -0.2274
 3654SOL     OW14387   1.725   4.520   0.814  0.5178 -0.1733  0.0629
 3654SOL    HW214388   1.664   4.447   0.805  0.5807 -0.2181 -0.0008
 3654SOL    HW314389   1.766   4.529   0.728 -1.5625  1.8010 -0.8279
 3654SOL    MW414390   1.722   4.512   0.801  0.4510  0.1209  0.3453
 3655SOL     OW14391   0.634   6.223   2.425 -0.1449 -0.5010 -0.7640
 3655SOL    HW214392   0.587   6.262   2.352  0.3309  0.2414 -0.6862
 3655SOL    HW314393   0.602   6.269   2.502 -0.0757 -0.7375 -0.5941
 3655SOL    MW414394   0.624   6.234   2.425  0.1071 -0.3637 -0.3017
 3656SOL     OW14395   3.023   5.463   1.621 -0.1852 -0.3147  0.0704
 3656SOL    HW214396   2.930   5.478   1.642 -0.1919 -1.8348  1.3074
 3656SOL    HW314397   3.041   5.376   1.656  1.6429 -0.1683 -0.4416
 3656SOL    MW414398   3.013   5.453   1.629  0.6221  0.2124  0.0550
 3657SOL     OW14399   0.995   4.795   5.040  0.2307  0.1358 -0.5922
 3657SOL    HW214400   0.995   4.853   4.964 -0.7129 -0.8189 -1.3651
 3657SOL    HW314401   0.996   4.707   5.003 -1.0757 -0.3640  0.4717
 3657SOL    MW414402   0.995   4.791   5.025 -0.1453 -0.1128  0.0764
 3658SOL     OW14403   4.666   5.038   4.950  0.7063 -0.0398 -0.2655
 3658SOL    HW214404   4.731   4.994   4.896  1.2972  2.0473 -1.3354
 3658SOL    HW314405   4.706   5.122   4.974 -0.4855  0.1006  1.4399
 3658SOL    MW414406   4.680   5.043   4.946  0.1084 -0.0821 -0.0060
 3659SOL     OW14407   2.410   0.228   5.804  0.1540  0.3018  0.3277
 3659SOL    HW214408   2.396   0.251   5.712  0.6465 -1.3422 -0.1934
 3659SOL    HW314409   2.373   0.301   5.853 -3.2824 -0.3224 -1.0889
 3659SOL    MW414410   2.404   0.240   5.799  0.2812  0.2932 -0.0231
 3660SOL     OW14411   1.082   0.896   2.791  0.1624 -0.3722  0.3352
 3660SOL    HW214412   1.063   0.815   2.839  1.7207 -1.2166 -0.4150
 3660SOL    HW314413   1.043   0.882   2.705  1.1228 -0.6637 -0.0573
 3660SOL    MW414414   1.074   0.883   2.786 -0.5018  0.5822 -0.1964
 3661SOL     OW14415   5.144   2.047   5.901 -0.2314  0.2132 -0.7597
 3661SOL    HW214416   5.066   2.020   5.853 -0.3639  0.2624 -0.5750
 3661SOL    HW314417   5.116   2.048   5.993  0.5063 -1.6474 -0.4830
 3661SOL    MW414418   5.130   2.044   5.907  0.2256  0.1941  0.3927
 3662SOL     OW14419   1.230   4.611   4.537 -0.3354 -0.6159 -0.3029
 3662SOL    HW214420   1.293   4.550   4.499  2.5348  2.1550 -0.4332
 3662SOL    HW314421   1.168   4.629   4.466 -0.1993 -1.9666 -0.7961
 3662SOL    MW414422   1.230   4.605   4.523  0.1316  0.0457 -0.1801
 3663SOL     OW14423   5.681   2.266   0.769  0.1307  0.8195 -0.0709
 3663SOL    HW214424   5.760   2.218   0.790  1.1732  2.7989  0.7447
 3663SOL    HW314425   5.639   2.214   0.701 -0.0393 -2.4180  2.3057
 3663SOL    MW414426   5.686   2.253   0.762 -0.1118  0.4028  0.8498
 3664SOL     OW14427   1.058   3.190   2.016 -0.0560 -0.0465  0.0350
 3664SOL    HW214428   1.144   3.228   1.998  0.1046  0.1689  1.1621
 3664SOL    HW314429   1.052   3.114   1.959  0.1533  0.9251 -1.3173
 3664SOL    MW414430   1.068   3.185   2.006 -0.6774  0.5567 -0.2015
 3665SOL     OW14431   1.883   0.466   3.498 -0.0984 -0.5054 -0.4476
 3665SOL    HW214432   1.811   0.417   3.537  1.1233 -1.5402  0.6113
 3665SOL    HW314433   1.841   0.526   3.436 -1.6476 -3.0319 -2.0063
 3665SOL    MW414434   1.868   0.467   3.495 -0.2092  0.3152 -0.2902
 3666SOL     OW14435   2.756   5.433   1.784 -0.0894  0.4001 -0.5529
 3666SOL    HW214436   2.791   5.345   1.795  2.5072  1.3994 -0.0091
 3666SOL    HW314437   2.668   5.420   1.748  0.5233 -2.3624 -1.2797
 3666SOL    MW414438   2.749   5.420   1.781  0.2948  0.3003  0.2573
 3667SOL     OW14439   1.326   3.325   2.213 -0.8994 -0.2737  0.1206
 3667SOL    HW214440   1.288   3.384   2.279 -2.5325 -1.1494  0.0150
 3667SOL    HW314441   1.314   3.237   2.250  0.6572 -0.6428 -0.1485
 3667SOL    MW414442   1.320   3.321   2.227  0.1956  0.0536  0.2524
 3668SOL     OW14443   3.074   1.348   1.056 -0.3903  0.3412  0.0215
 3668SOL    HW214444   3.110   1.270   1.098 -1.1434 -0.1315 -0.1945
 3668SOL    HW314445   3.081   1.417   1.122 -1.6723 -0.4137  0.9963
 3668SOL    MW414446   3.079   1.347   1.070  0.1780  0.0812  0.4226
 3669SOL     OW14447   3.202   3.554   6.003  0.6219 -0.2414  0.2661
 3669SOL    HW214448   3.121   3.587   5.964  0.1734  0.4324  1.6864
 3669SOL    HW314449   3.271   3.597   5.953  0.0510  1.2899  0.7090
 3669SOL    MW414450   3.200   3.564   5.991 -0.2188 -0.1351  0.1958
 3670SOL     OW14451   3.329   3.542   3.074  0.5011  0.5378  0.1962
 3670SOL    HW214452   3.275   3.466   3.053 -0.2342  0.3016  2.5450
 3670SOL    HW314453   3.414   3.524   3.033 -0.0333 -0.9639 -0.3171
 3670SOL    MW414454   3.333   3.530   3.066 -0.1564 -0.3908  0.0543
 3671SOL     OW14455   5.203   3.608   5.550 -0.2817 -0.1679 -0.5312
 3671SOL    HW214456   5.249   3.692   5.549 -0.5437 -0.0239 -0.8441
 3671SOL    HW314457   5.110   3.633   5.555 -0.3693 -0.4333 -0.8225
 3671SOL    MW414458   5.197   3.623   5.550 -0.1106  0.0604  0.2737
 3672SOL     OW14459   3.514   4.786   5.435 -0.4204 -0.3853 -0.1164
 3672SOL    HW214460   3.560   4.784   5.352  0.1732 -1.7572  0.2134
 3672SOL    HW314461   3.521   4.876   5.465  0.6446 -0.2169 -0.8401
 3672SOL    MW414462   3.521   4.797   5.428  0.2232 -0.3862 -0.3957
 3673SOL     OW14463   0.633   3.270   1.145  0.1429 -0.3439  0.3310
 3673SOL    HW214464   0.587   3.313   1.217 -1.7122 -2.4306  0.4951
 3673SOL    HW314465   0.570   3.206   1.111  1.8091 -1.0589 -1.6311
 3673SOL    MW414466   0.619   3.267   1.150 -0.2245 -0.1478  0.4899
 3674SOL     OW14467   2.408   2.767   4.123  0.5723 -0.0882 -0.3476
 3674SOL    HW214468   2.446   2.854   4.135 -1.1372  0.4860  1.6361
 3674SOL    HW314469   2.435   2.718   4.201  1.4985 -1.3781 -1.4312
 3674SOL    MW414470   2.416   2.772   4.135 -0.3787  0.3367 -0.3967
 3675SOL     OW14471   3.773   0.584   5.653  0.0288 -0.3563 -0.4810
 3675SOL    HW214472   3.706   0.547   5.594  0.6296  0.8813 -1.9959
 3675SOL    HW314473   3.816   0.507   5.690 -0.2025 -1.1914 -1.8571
 3675SOL    MW414474   3.770   0.569   5.650 -0.0757 -0.1539  0.3051
 3676SOL     OW14475   2.707   5.698   1.874 -0.0724 -0.3253  0.2156
 3676SOL    HW214476   2.686   5.614   1.832 -3.2068 -0.0313  0.9494
 3676SOL    HW314477   2.787   5.727   1.830  0.3331 -3.0338 -1.0273
 3676SOL    MW414478   2.715   5.691   1.862  0.0783 -0.7141  0.1595
 3677SOL     OW14479   1.112   5.835   3.658  0.4502  0.3740  1.0103
 3677SOL    HW214480   1.133   5.907   3.599  0.3839 -0.7501 -0.4337
 3677SOL    HW314481   1.017   5.840   3.670  0.2936 -0.0638  0.0703
 3677SOL    MW414482   1.102   5.845   3.652  0.4656 -0.2377  0.1016
 3678SOL     OW14483   4.335   6.252   4.605 -0.0113 -0.2550 -0.0153
 3678SOL    HW214484   4.400   6.214   4.547  0.7368  0.4927  0.3152
 3678SOL    HW314485   4.375   6.332   4.638 -1.6055  0.9309 -0.8128
 3678SOL    MW414486   4.349   6.257   4.602  0.5485  0.1414  0.0980
 3679SOL     OW14487   1.231   3.411   5.985  0.3852  0.3678  0.4189
 3679SOL    HW214488   1.195   3.366   6.061  0.2420 -0.6303 -0.2222
 3679SOL    HW314489   1.283   3.344   5.940 -1.2039  0.3041 -1.4897
 3679SOL    MW414490   1.233   3.396   5.989 -0.1735  0.3426 -0.3209
 3680SOL     OW14491   1.779   3.098   2.498 -0.2190  0.3320  0.0202
 3680SOL    HW214492   1.739   3.176   2.459 -0.8628  0.2614  0.5064
 3680SOL    HW314493   1.786   3.036   2.426 -1.4057  0.1956 -0.0048
 3680SOL    MW414494   1.775   3.100   2.484 -0.5411 -0.4412 -0.4892
 3681SOL     OW14495   5.481   6.369   2.160 -0.4932 -0.2347 -0.2501
 3681SOL    HW214496   5.512   6.424   2.232 -1.1121 -2.2101  1.6461
 3681SOL    HW314497   5.401   6.412   2.130 -0.2030  0.6466  0.2058
 3681SOL    MW414498   5.474   6.382   2.166  0.1569  0.4812 -0.1450
 3682SOL     OW14499   5.511   2.721   4.764  0.1558  0.0859 -0.0801
 3682SOL    HW214500   5.464   2.730   4.847  1.0799  0.1308  0.4646
 3682SOL    HW314501   5.603   2.738   4.787  0.4089  0.2267 -1.1419
 3682SOL    MW414502   5.517   2.724   4.778  0.1545  0.1948 -0.4331
 3683SOL     OW14503   2.688   5.035   2.720  0.6094 -0.0417  0.2145
 3683SOL    HW214504   2.760   4.975   2.741 -0.5779 -1.7155 -0.2918
 3683SOL    HW314505   2.678   5.028   2.625 -0.7147 -0.4465  0.3664
 3683SOL    MW414506   2.697   5.026   2.710  0.3143  0.6006 -0.1689
 3684SOL     OW14507   0.916   3.370   3.032 -0.5512 -0.8916 -0.7749
 3684SOL    HW214508   0.850   3.385   2.964  0.9055 -2.5754 -2.7008
 3684SOL    HW314509   1.000   3.378   2.986  0.4830 -2.7995  0.6353
 3684SOL    MW414510   0.919   3.373   3.017 -0.0309 -0.1597  0.1353
 3685SOL     OW14511   2.901   3.973   2.385  0.0755  0.0590  0.5587
 3685SOL    HW214512   2.856   4.010   2.309  0.3796 -2.0410 -0.7354
 3685SOL    HW314513   2.872   4.027   2.458 -3.0961 -0.0101 -0.4606
 3685SOL    MW414514   2.891   3.985   2.384 -0.1502  0.1939  0.1133
 3686SOL     OW14515   5.289   0.637   0.589  0.2344  0.2780  0.0293
 3686SOL    HW214516   5.307   0.693   0.665 -0.3186 -0.1816  0.5066
 3686SOL    HW314517   5.262   0.699   0.521 -0.7026  0.5877  0.6529
 3686SOL    MW414518   5.288   0.653   0.590 -0.1466 -0.2788 -0.0456
 3687SOL     OW14519   4.741   1.254   5.950  0.1657 -0.1225  0.2645
 3687SOL    HW214520   4.829   1.228   5.924 -0.3259 -1.1260 -0.4347
 3687SOL    HW314521   4.722   1.201   6.027  0.7888  1.3002  1.4549
 3687SOL    MW414522   4.750   1.244   5.957  0.8268 -0.2744 -0.4256
 3688SOL     OW14523   6.179   6.346   2.270  0.0102  0.1636 -0.2636
 3688SOL    HW214524   6.259   6.314   2.228  0.6776 -0.8035  1.6350
 3688SOL    HW314525   6.210   6.400   2.342 -1.0701  0.5126 -0.0461
 3688SOL    MW414526   6.194   6.349   2.274 -0.0542 -0.2223 -0.1893
 3689SOL     OW14527   4.340   2.263   0.055 -1.1701  0.2817 -0.2284
 3689SOL    HW214528   4.388   2.281   0.136 -0.0087 -3.6849  0.1886
 3689SOL    HW314529   4.401   2.213   0.001 -3.0049 -0.0453 -2.1353
 3689SOL    MW414530   4.354   2.259   0.059  0.2902  0.2739  0.3021
 3690SOL     OW14531   1.154   5.417   5.854  0.2032 -0.2033 -0.5397
 3690SOL    HW214532   1.194   5.474   5.920 -1.5636 -2.4254  2.7071
 3690SOL    HW314533   1.189   5.330   5.872 -0.6291 -0.9809 -2.3544
 3690SOL    MW414534   1.164   5.413   5.865 -0.1403  0.0917  0.1022
 3691SOL     OW14535   4.592   3.195   0.334  0.5431  0.1661 -0.7006
 3691SOL    HW214536   4.586   3.162   0.424 -1.4301 -2.8216 -1.7831
 3691SOL    HW314537   4.525   3.264   0.329 -0.6109 -0.8923 -0.3088
 3691SOL    MW414538   4.582   3.200   0.345 -0.7226  0.1743  0.3873
 3692SOL     OW14539   4.824   4.323   0.012 -0.1007 -0.2300 -0.6021
 3692SOL    HW214540   4.912   4.328  -0.025  0.0227  1.0138 -0.2114
 3692SOL    HW314541   4.766   4.327  -0.063  0.1723 -0.0932 -0.8070
 3692SOL    MW414542   4.828   4.324  -0.003  0.9422  0.0067  0.3254
 3693SOL     OW14543   1.358   2.497   1.725  0.1460 -0.8568 -0.1476
 3693SOL    HW214544   1.372   2.566   1.660 -0.0646 -1.3057 -0.6740
 3693SOL    HW314545   1.443   2.453   1.731  0.1173 -0.9269 -0.2517
 3693SOL    MW414546   1.371   2.500   1.717  0.0136  0.7469 -0.0511
 3694SOL     OW14547   0.225   4.279   2.892  0.4252 -0.5505  0.6020
 3694SOL    HW214548   0.270   4.235   2.820  0.6809 -0.9767  1.0150
 3694SOL    HW314549   0.295   4.319   2.943  0.1251  1.4101 -0.4386
 3694SOL    MW414550   0.240   4.278   2.889  0.2592 -0.1563 -0.1822
 3695SOL     OW14551   1.377   0.837   2.420  1.1741 -0.1517 -0.4171
 3695SOL    HW214552   1.361   0.787   2.341  0.3364 -0.7776  0.1372
 3695SOL    HW314553   1.467   0.816   2.444  0.8487 -1.3560 -0.2176
 3695SOL    MW414554   1.387   0.828   2.413  0.2406  0.2578 -0.2789
 3696SOL     OW14555   4.921   3.733   2.957  0.5291 -0.5132 -0.1472
 3696SOL    HW214556   4.874   3.692   3.030 -2.1417 -0.6903 -1.8381
 3696SOL    HW314557   4.926   3.664   2.890 -0.9140  0.7903 -1.6934
 3696SOL    MW414558   4.916   3.718   2.958 -0.2959  0.7179  0.2797
 3697SOL     OW14559   0.101   5.265   0.624 -0.5184 -0.0997  0.6645
 3697SOL    HW214560   0.051   5.344   0.602  0.5947  0.7471  1.1377
 3697SOL    HW314561   0.064   5.236   0.707 -0.5587  0.2398  0.7685
 3697SOL    MW414562   0.089   5.272   0.632  0.1518  1.1410 -0.2951
 3698SOL     OW14563   5.528   0.240   1.136  0.5256  0.0236  0.4142
 3698SOL    HW214564   5.481   0.270   1.058 -0.4368 -0.6159  0.7133
 3698SOL    HW314565   5.481   0.161   1.162  2.4994 -1.3420  0.0678
 3698SOL    MW414566   5.515   0.233   1.129 -0.1160 -0.2227  0.6143
 3699SOL     OW14567   5.067   2.000   4.194 -0.0683  0.1343  0.5696
 3699SOL    HW214568   4.988   2.047   4.222  0.1904  2.7117 -2.5548
 3699SOL    HW314569   5.137   2.065   4.198  1.4522 -1.4573  0.9782
 3699SOL    MW414570   5.065   2.015   4.198 -0.0116 -0.0444  0.2227
 3700SOL     OW14571   2.458   5.638   0.249 -0.1366  0.2637 -0.3981
 3700SOL    HW214572   2.369   5.634   0.213 -1.5838  2.4920  2.5292
 3700SOL    HW314573   2.456   5.578   0.324  1.3454 -0.7734 -1.1377
 3700SOL    MW414574   2.446   5.629   0.254  0.3074  0.4966 -0.8282
 3701SOL     OW14575   0.922   4.809   4.734 -0.2133 -0.5775 -0.3452
 3701SOL    HW214576   0.933   4.717   4.707 -0.1160 -1.0268  1.1174
 3701SOL    HW314577   0.971   4.859   4.669  0.6189 -1.6527 -0.5861
 3701SOL    MW414578   0.930   4.803   4.722  0.0987 -0.0503 -0.1573
 3702SOL     OW14579   5.711   6.302   0.500  0.1860 -0.0565  0.8857
 3702SOL    HW214580   5.618   6.290   0.478 -0.6214  0.9037  3.3539
 3702SOL    HW314581   5.740   6.374   0.444 -0.8822  0.3535  0.8258
 3702SOL    MW414582   5.702   6.310   0.490  0.1210 -0.1865  0.1687
 3703SOL     OW14583   1.332   5.213   2.316 -0.5855  0.2993 -0.0366
 3703SOL    HW214584   1.355   5.213   2.409 -0.9186  0.0529  0.0461
 3703SOL    HW314585   1.416   5.225   2.270 -0.1779 -1.3250  0.2289
 3703SOL    MW414586   1.346   5.215   2.322  0.4042  0.0385 -0.6254
 3704SOL     OW14587   1.443   5.976   0.165  0.3435 -0.0970 -0.3500
 3704SOL    HW214588   1.521   6.017   0.201  1.7573 -0.9570 -2.2302
 3704SOL    HW314589   1.390   6.049   0.133  0.1793  0.5103  1.2207
 3704SOL    MW414590   1.446   5.991   0.165 -0.2285 -0.2440  0.7958
 3705SOL     OW14591   4.298   4.803   2.235 -0.1166  0.4891 -0.1515
 3705SOL    HW214592   4.313   4.886   2.191 -0.8568 -0.6838 -2.8656
 3705SOL    HW314593   4.323   4.737   2.170 -0.5267 -1.4109  1.5211
 3705SOL    MW414594   4.303   4.805   2.221  0.2569  0.3521  0.6677
 3706SOL     OW14595   6.389   1.189   1.518 -0.4643  0.1113  0.3742
 3706SOL    HW214596   6.447   1.253   1.558 -0.4779  2.2809 -2.6831
 3706SOL    HW314597   6.445   1.116   1.495 -0.2852 -0.7465  3.1759
 3706SOL    MW414598   6.404   1.188   1.520 -0.3403 -0.2760  0.1701
 3707SOL     OW14599   2.820   2.084   2.366 -0.1977  0.0586 -0.7639
 3707SOL    HW214600   2.832   2.178   2.382  0.9628 -0.4162  1.6648
 3707SOL    HW314601   2.844   2.072   2.274  1.6596  1.8566 -0.5815
 3707SOL    MW414602   2.825   2.095   2.356  0.3764 -0.5641  0.0204
 3708SOL     OW14603   5.266   1.019   5.516 -0.1470 -0.1351  0.4671
 3708SOL    HW214604   5.174   0.993   5.512  0.1042 -1.0689  0.5038
 3708SOL    HW314605   5.293   0.994   5.604 -0.1819  1.3241  0.9277
 3708SOL    MW414606   5.257   1.013   5.527 -0.0739  0.2316  0.0722
 3709SOL     OW14607   4.358   1.393   4.626 -0.1160  0.5977  0.3447
 3709SOL    HW214608   4.389   1.341   4.701  0.4659  1.3520  0.6366
 3709SOL    HW314609   4.434   1.444   4.599 -0.7076  1.3933  0.1358
 3709SOL    MW414610   4.372   1.393   4.632  0.6202  0.3571  0.2988
 3710SOL     OW14611   1.043   5.835   2.331  0.1918  0.2830  0.2073
 3710SOL    HW214612   1.128   5.881   2.330  0.1619  0.3556 -1.3987
 3710SOL    HW314613   0.981   5.900   2.299 -0.3715  0.0508  0.8337
 3710SOL    MW414614   1.046   5.850   2.326  0.2589  0.7563 -0.0474
 3711SOL     OW14615   1.895   1.901   0.756  0.5034 -0.7424  0.1571
 3711SOL    HW214616   1.874   1.808   0.746 -0.1176 -0.4540 -1.5946
 3711SOL    HW314617   1.815   1.940   0.791  0.3119 -0.6782 -0.3394
 3711SOL    MW414618   1.882   1.894   0.759 -0.2993 -0.2551 -0.5734
 3712SOL     OW14619   5.966   5.387   4.875  0.2028  0.3733  0.0093
 3712SOL    HW214620   6.029   5.319   4.900  1.4267  1.4490 -0.0480
 3712SOL    HW314621   5.937   5.362   4.788 -0.9242 -1.1560  0.7720
 3712SOL    MW414622   5.971   5.375   4.867  0.1295 -0.4564 -0.1256
 3713SOL     OW14623   3.063   4.707   1.261 -0.3280  0.0893  0.0833
 3713SOL    HW214624   3.074   4.801   1.272  1.7898 -0.1726  0.7814
 3713SOL    HW314625   3.035   4.676   1.348 -1.3436  0.0933 -0.2325
 3713SOL    MW414626   3.061   4.715   1.274 -0.5543 -0.4556 -0.7037
 3714SOL     OW14627   0.407   6.360   6.221 -0.5854  0.5069 -0.3169
 3714SOL    HW214628   0.471   6.429   6.241 -1.8074  1.5868 -0.0227
 3714SOL    HW314629   0.444   6.315   6.146  0.1667  1.6064 -0.6369
 3714SOL    MW414630   0.420   6.363   6.214  0.1454  0.2655 -0.6305
 3715SOL     OW14631   2.382   2.086   4.715 -0.0323 -0.0898  0.2100
 3715SOL    HW214632   2.419   2.162   4.759  0.0561 -0.5626  0.9810
 3715SOL    HW314633   2.455   2.047   4.668 -0.0837  0.3125 -0.2087
 3715SOL    MW414634   2.396   2.091   4.714 -0.2160 -0.1719  0.1610
 3716SOL     OW14635   6.127   6.082   5.780 -0.2441 -0.1308  0.2887
 3716SOL    HW214636   6.137   6.138   5.856 -0.5550 -0.5414  0.6374
 3716SOL    HW314637   6.109   5.995   5.816 -1.2808 -0.1579 -0.2620
 3716SOL    MW414638   6.126   6.078   5.794 -0.5194  0.0074  0.1037
 3717SOL     OW14639   1.730   3.609   0.258 -0.2766 -0.1299 -0.0953
 3717SOL    HW214640   1.669   3.683   0.269  0.6828  0.6143  0.3529
 3717SOL    HW314641   1.708   3.573   0.172 -0.7246  0.7191 -0.3507
 3717SOL    MW414642   1.719   3.614   0.248 -0.4792 -0.0141 -0.1067
 3718SOL     OW14643   4.259   0.614   5.637  0.7197 -0.1052 -0.1426
 3718SOL    HW214644   4.331   0.612   5.574  2.3259  0.4365  1.6027
 3718SOL    HW314645   4.300   0.598   5.722 -1.1984  0.4093  0.9427
 3718SOL    MW414646   4.274   0.612   5.640 -0.5835 -1.0986 -0.3378
 3719SOL     OW14647   1.266   4.852   4.698 -0.4304 -0.7440 -0.3894
 3719SOL    HW214648   1.262   4.914   4.625 -0.0575 -0.5244 -0.2295
 3719SOL    HW314649   1.285   4.768   4.657  0.4562 -0.5001 -0.4904
 3719SOL    MW414650   1.268   4.849   4.683  0.5087  0.1026  0.0392
 3720SOL     OW14651   2.248   6.161   4.903  0.4239  0.3440  0.0168
 3720SOL    HW214652   2.343   6.150   4.912  0.5966  1.6022 -0.1023
 3720SOL    HW314653   2.216   6.164   4.993  0.1145 -2.6612  0.1221
 3720SOL    MW414654   2.256   6.160   4.916  0.2589  0.2333 -0.4908
 3721SOL     OW14655   4.945   2.969   1.092  0.4396 -0.6864  0.2310
 3721SOL    HW214656   4.900   2.903   1.145  0.0567  1.0317  2.1836
 3721SOL    HW314657   4.875   3.021   1.054  0.7436 -0.5492 -0.1437
 3721SOL    MW414658   4.930   2.967   1.094 -0.3081 -0.1751 -0.0090
 3722SOL     OW14659   1.648   1.131   5.278 -0.1810 -0.4851  0.2351
 3722SOL    HW214660   1.648   1.218   5.319 -1.3105 -0.3923  0.0587
 3722SOL    HW314661   1.676   1.147   5.188 -1.6749 -0.0970 -0.1804
 3722SOL    MW414662   1.652   1.145   5.271 -0.1292  0.0127 -0.5676
 3723SOL     OW14663   4.140   4.998   5.752 -0.3724 -0.1391  0.2668
 3723SOL    HW214664   4.101   4.962   5.673 -2.3327  1.2245  0.5418
 3723SOL    HW314665   4.188   5.076   5.723 -2.0912  1.0549  0.5117
 3723SOL    MW414666   4.141   5.004   5.738 -0.0922 -0.4083 -0.0825
 3724SOL     OW14667   1.979   3.135   5.708 -0.8419  0.0283  0.6836
 3724SOL    HW214668   1.888   3.159   5.724 -1.3033 -2.0167  1.5197
 3724SOL    HW314669   2.029   3.211   5.735 -2.2721  0.8721  1.0539
 3724SOL    MW414670   1.974   3.148   5.714  0.3737 -0.2595  0.2990
 3725SOL     OW14671   6.313   6.116   6.354 -0.6359 -0.4304  0.0895
 3725SOL    HW214672   6.333   6.058   6.281 -0.2896 -1.6692  1.1251
 3725SOL    HW314673   6.229   6.085   6.388 -0.3796 -0.4426  0.7414
 3725SOL    MW414674   6.304   6.104   6.349  0.0680  0.7438  0.0620
 3726SOL     OW14675   3.526   1.230   4.858 -0.1785 -0.3695  0.2317
 3726SOL    HW214676   3.601   1.211   4.915 -2.1828  3.0946  4.6392
 3726SOL    HW314677   3.538   1.321   4.831 -1.7668 -0.4114 -0.7582
 3726SOL    MW414678   3.537   1.239   4.862  0.2214 -0.0526  0.4686
 3727SOL     OW14679   5.329   0.196   1.633 -0.5897  0.5157 -0.0156
 3727SOL    HW214680   5.423   0.211   1.623 -0.5775  0.9547  0.6308
 3727SOL    HW314681   5.294   0.199   1.544 -0.0654  0.8866 -0.2152
 3727SOL    MW414682   5.337   0.198   1.620  0.0619 -0.7558 -0.2713
 3728SOL     OW14683   2.928   3.687   2.447  0.0120  0.1368 -0.2170
 3728SOL    HW214684   2.923   3.782   2.439 -1.1589  0.3725  2.2781
 3728SOL    HW314685   3.018   3.670   2.475  0.0509  0.5848 -0.0651
 3728SOL    MW414686   2.939   3.697   2.450  0.1497 -0.0630  0.1097
 3729SOL     OW14687   0.149   5.022   5.629  0.2816  0.0760 -0.2350
 3729SOL    HW214688   0.230   5.056   5.592  1.4188 -1.2128  0.9316
 3729SOL    HW314689   0.111   4.968   5.560  0.6787  0.2996 -0.6309
 3729SOL    MW414690   0.155   5.019   5.615  0.1706 -0.2333 -0.0382
 3730SOL     OW14691   3.888   0.397   1.206 -0.3328 -0.3898 -0.1086
 3730SOL    HW214692   3.938   0.383   1.126  1.1617 -0.3279  0.7709
 3730SOL    HW314693   3.815   0.334   1.201  0.8196 -1.7266 -0.6447
 3730SOL    MW414694   3.885   0.387   1.195 -0.0428  0.6561 -0.4328
 3731SOL     OW14695   3.149   5.453   2.431 -0.3558  0.3237  0.3042
 3731SOL    HW214696   3.207   5.528   2.446 -1.0470  0.8627  0.3334
 3731SOL    HW314697   3.198   5.378   2.465  0.1542  0.8245  0.7064
 3731SOL    MW414698   3.163   5.453   2.438 -0.0538  0.7422 -0.0290
 3732SOL     OW14699   2.008   0.057   5.906  0.0045 -0.4776 -0.0355
 3732SOL    HW214700   2.055   0.018   5.981  1.5701  0.1469 -0.6537
 3732SOL    HW314701   1.919   0.069   5.938  0.3303 -1.3763  1.3209
 3732SOL    MW414702   2.003   0.053   5.920  0.3331  0.5370 -0.0665
 3733SOL     OW14703   0.086   3.654   1.408  0.1281  0.1892 -0.0442
 3733SOL    HW214704   0.161   3.599   1.385  0.2615  0.5569 -0.5058
 3733SOL    HW314705   0.122   3.720   1.468 -0.0090 -0.1475  0.4192
 3733SOL    MW414706   0.101   3.655   1.413  0.0391  0.0606  0.4968
 3734SOL     OW14707   1.230   0.274   5.777 -0.2025 -0.4615  0.9826
 3734SOL    HW214708   1.210   0.246   5.867  1.5783 -0.5153  1.4198
 3734SOL    HW314709   1.176   0.218   5.722 -0.0066 -1.6948  1.9884
 3734SOL    MW414710   1.220   0.263   5.782  0.0854  0.0780  0.9090
 3735SOL     OW14711   1.703   2.640   5.131  0.2106  0.3637 -0.1394
 3735SOL    HW214712   1.725   2.550   5.154  1.7821  0.2559 -1.8133
 3735SOL    HW314713   1.665   2.634   5.044  1.2281  1.3741 -0.6800
 3735SOL    MW414714   1.701   2.627   5.123  0.5927  0.0360 -0.0371
 3736SOL     OW14715   0.406   5.787   4.378  0.2536  0.0950  0.1689
 3736SOL    HW214716   0.343   5.846   4.335  0.4985  1.2568  1.3363
 3736SOL    HW314717   0.471   5.769   4.310 -0.6466 -0.0964 -0.6699
 3736SOL    MW414718   0.406   5.793   4.363 -0.0036 -0.2773 -0.0247
 3737SOL     OW14719   1.910   2.335   5.619 -0.0368 -0.1419  0.1419
 3737SOL    HW214720   1.944   2.287   5.695  0.2787  0.1382  0.1765
 3737SOL    HW314721   1.817   2.312   5.617  0.4011 -2.0615 -0.8067
 3737SOL    MW414722   1.902   2.326   5.629  0.3153 -0.0375 -0.2424
 3738SOL     OW14723   0.744   5.972   0.680  0.7209 -0.2679  0.3914
 3738SOL    HW214724   0.806   5.923   0.732  1.3471  0.9070  0.7842
 3738SOL    HW314725   0.691   6.020   0.744  0.3829 -0.1153  0.0034
 3738SOL    MW414726   0.745   5.972   0.695 -0.1962  0.1539  0.3143
 3739SOL     OW14727   5.705   6.360   0.080  0.2137  0.0041 -0.4476
 3739SOL    HW214728   5.708   6.415   0.158 -2.0342 -0.5112  0.0651
 3739SOL    HW314729   5.612   6.357   0.056  0.7647 -0.4042 -2.7667
 3739SOL    MW414730   5.693   6.367   0.087 -0.1039  0.2573 -0.5838
 3740SOL     OW14731   4.430   0.033   0.363  0.4378  0.0152  0.1018
 3740SOL    HW214732   4.393   0.073   0.442  0.2367 -1.7254  0.9200
 3740SOL    HW314733   4.357   0.032   0.301  0.3251  0.4795  0.2161
 3740SOL    MW414734   4.416   0.038   0.366 -0.0269 -0.6586  0.4755
 3741SOL     OW14735   2.659   5.594   4.531 -0.3135 -0.1797  0.7191
 3741SOL    HW214736   2.618   5.576   4.446 -1.0612  0.8092  0.8468
 3741SOL    HW314737   2.751   5.568   4.519 -0.2488  0.5300 -0.6189
 3741SOL    MW414738   2.666   5.589   4.518 -0.4528  0.3191  0.7884
 3742SOL     OW14739   5.575   0.676   2.985  0.2974  0.3258  0.1874
 3742SOL    HW214740   5.577   0.750   3.047  1.8017 -0.4470  1.1215
 3742SOL    HW314741   5.515   0.704   2.916  1.9269  3.0535 -0.2542
 3742SOL    MW414742   5.568   0.690   2.984  0.4442 -0.0257  0.7175
 3743SOL     OW14743   1.392   2.832   5.780 -0.1371  0.2907 -0.2152
 3743SOL    HW214744   1.386   2.908   5.722 -0.4665  1.0147  0.7535
 3743SOL    HW314745   1.414   2.760   5.721  2.2709  1.4848 -0.9020
 3743SOL    MW414746   1.394   2.832   5.764  0.2033 -0.1341  0.1490
 3744SOL     OW14747   2.243   2.666   2.477  0.0963 -0.0882  0.1497
 3744SOL    HW214748   2.285   2.630   2.555  2.6638 -0.9462 -1.4887
 3744SOL    HW314749   2.300   2.639   2.405 -2.3355  0.3592 -2.0888
 3744SOL    MW414750   2.256   2.658   2.478  0.4844  0.4912 -0.1542
 3745SOL     OW14751   4.364   6.141   4.070  0.3421  0.2121  0.5513
 3745SOL    HW214752   4.378   6.141   3.975  1.4815 -2.1217  0.6498
 3745SOL    HW314753   4.289   6.083   4.082 -0.7176  1.6335  1.0256
 3745SOL    MW414754   4.356   6.133   4.059  0.0203  0.1868  0.1630
 3746SOL     OW14755   5.535   4.874   6.244  0.0167  0.2243 -0.6799
 3746SOL    HW214756   5.482   4.907   6.171  0.2305 -0.6690 -1.2586
 3746SOL    HW314757   5.479   4.886   6.321  0.2238  2.2445 -0.7801
 3746SOL    MW414758   5.521   4.880   6.245  0.6552  0.7787  0.2011
 3747SOL     OW14759   3.246   3.778   4.297  0.2611 -0.3546  0.0964
 3747SOL    HW214760   3.295   3.845   4.250  0.8244  0.6113  1.9781
 3747SOL    HW314761   3.312   3.728   4.345 -0.4123 -0.1399  1.2922
 3747SOL    MW414762   3.261   3.781   4.297  0.2277 -0.1648  0.4552
 3748SOL     OW14763   1.674   6.348   1.085 -0.8038  0.1381 -0.2286
 3748SOL    HW214764   1.617   6.341   1.162 -0.9209  0.7934 -0.2475
 3748SOL    HW314765   1.754   6.388   1.118  0.1566 -1.9287  0.0428
 3748SOL    MW414766   1.677   6.352   1.099 -0.1230 -0.0925  0.2418
 3749SOL     OW14767   4.420   6.230   2.342 -0.3484 -0.6312 -0.4147
 3749SOL    HW214768   4.488   6.164   2.353 -0.2482 -0.5175 -0.3482
 3749SOL    HW314769   4.344   6.181   2.312 -0.3698 -0.8232 -0.0596
 3749SOL    MW414770   4.419   6.215   2.340 -0.0778  0.4177  0.6176
 3750SOL     OW14771   2.353   1.222   5.338  0.0575 -0.5872  0.4167
 3750SOL    HW214772   2.418   1.202   5.405 -1.0929 -0.2097  1.7018
 3750SOL    HW314773   2.392   1.294   5.288  0.6306 -0.3548  1.1677
 3750SOL    MW414774   2.367   1.229   5.341  0.1596 -0.6280  0.3130
 3751SOL     OW14775   0.711   4.555   3.114 -0.2707 -0.6065  0.9515
 3751SOL    HW214776   0.692   4.477   3.167 -2.7997  0.4492  1.7500
 3751SOL    HW314777   0.719   4.626   3.178 -1.5803  0.3837  0.0663
 3751SOL    MW414778   0.710   4.554   3.129  0.0440 -0.5582  0.0890
 3752SOL     OW14779   4.658   2.142   4.431 -0.0887 -0.2138  0.0045
 3752SOL    HW214780   4.674   2.236   4.438  0.9219 -0.4569  1.3434
 3752SOL    HW314781   4.563   2.133   4.431 -0.2387  0.6821  2.3281
 3752SOL    MW414782   4.648   2.153   4.432 -0.1549  0.0119 -0.0832
 3753SOL     OW14783   0.012   3.351   5.998  0.2705 -0.2966 -0.2323
 3753SOL    HW214784   0.029   3.445   5.987  0.6595 -0.4547 -1.0462
 3753SOL    HW314785  -0.017   3.322   5.911  0.7898 -1.0593 -0.1583
 3753SOL    MW414786   0.011   3.359   5.985  0.2232  0.0374  0.3086
 3754SOL     OW14787   0.087   6.150   5.013 -0.0524  0.1338 -0.0475
 3754SOL    HW214788   0.050   6.226   4.969 -1.3308 -0.9670 -0.9700
 3754SOL    HW314789   0.028   6.134   5.086 -0.5145 -0.6764 -0.5810
 3754SOL    MW414790   0.074   6.158   5.017  0.0170  0.3824 -0.4486
 3755SOL     OW14791   5.932   2.245   2.200  0.1384 -0.7344  0.2495
 3755SOL    HW214792   5.919   2.324   2.251 -0.7454  0.1417 -1.2756
 3755SOL    HW314793   6.017   2.258   2.157 -0.1546 -0.4560 -0.2531
 3755SOL    MW414794   5.942   2.257   2.201 -0.0435 -0.2511  0.3770
 3756SOL     OW14795   5.479   2.180   4.648  0.1310 -0.7479  0.1828
 3756SOL    HW214796   5.391   2.157   4.680 -0.9158 -1.6990 -2.9798
 3756SOL    HW314797   5.493   2.269   4.679 -1.8601 -0.6538  0.9806
 3756SOL    MW414798   5.469   2.189   4.657  0.8549  0.2275 -0.0510
 3757SOL     OW14799   4.040   2.644   3.377  0.4468  0.3314  0.1329
 3757SOL    HW214800   4.023   2.556   3.344 -0.4402  1.1391 -1.7127
 3757SOL    HW314801   3.995   2.648   3.461  1.8312 -1.4526  1.0362
 3757SOL    MW414802   4.032   2.633   3.384 -0.9283 -0.0996  0.0782
 3758SOL     OW14803   4.302   5.209   2.484  0.1861 -0.3082  0.0092
 3758SOL    HW214804   4.384   5.167   2.457 -0.2972 -4.2734  3.6458
 3758SOL    HW314805   4.328   5.274   2.548  0.5725 -0.0530 -0.4009
 3758SOL    MW414806   4.316   5.212   2.489  0.3096  0.4336  0.0173
 3759SOL     OW14807   4.828   3.149   2.968  0.2987  0.4476  0.0024
 3759SOL    HW214808   4.824   3.236   3.006  2.3093  0.9085 -0.6818
 3759SOL    HW314809   4.911   3.112   3.001  0.1925 -0.6188 -0.8576
 3759SOL    MW414810   4.839   3.155   2.977  0.4652 -0.5770 -0.7311
 3760SOL     OW14811   1.389   1.241   1.609  0.6927 -0.9360  0.0716
 3760SOL    HW214812   1.362   1.163   1.658  0.9745 -0.2129  1.4411
 3760SOL    HW314813   1.464   1.274   1.658  1.8687 -0.9258 -1.6569
 3760SOL    MW414814   1.395   1.235   1.622  0.0490  0.6198 -0.1603
 3761SOL     OW14815   5.389   2.824   1.643  0.7186  0.4566 -0.3549
 3761SOL    HW214816   5.388   2.912   1.603  1.1200  0.7705  0.3091
 3761SOL    HW314817   5.327   2.774   1.590  0.5240  1.1227 -0.7836
 3761SOL    MW414818   5.381   2.829   1.630  0.0927  0.0629  0.1858
 3762SOL     OW14819   3.976   0.245   5.075 -0.0618 -0.3914  0.2572
 3762SOL    HW214820   3.895   0.294   5.092  0.3314  0.2356  0.3747
 3762SOL    HW314821   4.040   0.286   5.133  0.0476 -1.7141  1.1220
 3762SOL    MW414822   3.974   0.257   5.085  0.0060  0.0134  0.1090
 3763SOL     OW14823   4.995   0.885   2.848 -0.3907  0.7793  1.2497
 3763SOL    HW214824   4.978   0.817   2.782  3.2842  0.4981  0.3825
 3763SOL    HW314825   4.908   0.916   2.873 -2.0701 -1.1773 -1.5444
 3763SOL    MW414826   4.981   0.880   2.843 -1.1044  0.3566 -0.2806
 3764SOL     OW14827   0.018   6.234   6.012  0.2675  0.3662  0.1796
 3764SOL    HW214828  -0.076   6.213   6.016  0.4389 -0.2273  1.9452
 3764SOL    HW314829   0.058   6.158   5.971 -0.0344  0.7587 -0.8867
 3764SOL    MW414830   0.011   6.221   6.007 -0.2816 -0.4903 -0.1469
 3765SOL     OW14831   2.532   0.321   5.554  0.6201  0.1748  0.9347
 3765SOL    HW214832   2.535   0.402   5.504  0.9312  1.5546  3.0405
 3765SOL    HW314833   2.607   0.270   5.522  0.1301  0.4601 -0.7575
 3765SOL    MW414834   2.543   0.325   5.544  0.2766  0.0965  0.1049
 3766SOL     OW14835   2.844   0.138   3.733  0.7199 -0.0088 -0.0717
 3766SOL    HW214836   2.904   0.064   3.730  1.8833  0.7496  2.2535
 3766SOL    HW314837   2.861   0.186   3.652  1.5073 -1.1018 -0.5805
 3766SOL    MW414838   2.854   0.135   3.722 -0.0819  0.0260  0.3700
 3767SOL     OW14839   2.243   5.110   4.717  0.2955  0.2563  0.1354
 3767SOL    HW214840   2.334   5.135   4.735  1.3956 -2.2433 -1.5096
 3767SOL    HW314841   2.211   5.179   4.658  1.3180  0.8518  0.2514
 3767SOL    MW414842   2.251   5.123   4.711 -0.3225 -0.3234 -0.3384
 3768SOL     OW14843   3.018   0.655   2.812  0.4695  0.2735  0.1341
 3768SOL    HW214844   3.089   0.597   2.838  0.1358 -0.5401 -0.7199
 3768SOL    HW314845   3.013   0.720   2.882  1.3198 -0.3081  0.7476
 3768SOL    MW414846   3.026   0.656   2.825 -0.0353  0.0225 -0.3501
 3769SOL     OW14847   5.132   5.556   4.129  0.9017 -0.4945  0.0894
 3769SOL    HW214848   5.188   5.634   4.123 -0.6462  0.6307 -0.1258
 3769SOL    HW314849   5.125   5.539   4.223 -0.0604  0.6281  0.2426
 3769SOL    MW414850   5.139   5.564   4.141  0.0940 -0.1484  0.5674
 3770SOL     OW14851   3.503   1.845   3.609 -0.6549 -0.3955 -0.6375
 3770SOL    HW214852   3.489   1.924   3.663  0.4100  0.7229 -1.9208
 3770SOL    HW314853   3.568   1.795   3.658 -1.7797 -0.8060  0.4912
 3770SOL    MW414854   3.510   1.849   3.623  0.0587 -0.0103 -0.3865
 3771SOL     OW14855   0.304   5.338   2.359 -0.0490 -0.6812  0.0610
 3771SOL    HW214856   0.259   5.406   2.310 -1.9072 -1.5771  0.4152
 3771SOL    HW314857   0.314   5.266   2.296 -0.9441 -1.2100  0.4904
 3771SOL    MW414858   0.299   5.337   2.344 -0.1362 -0.0019 -0.7731
 3772SOL     OW14859   0.962   0.802   6.270 -0.3358  0.6490 -0.1049
 3772SOL    HW214860   1.033   0.763   6.321 -0.1212 -0.1868 -1.0111
 3772SOL    HW314861   0.928   0.871   6.326  1.0749  0.9496  0.4264
 3772SOL    MW414862   0.967   0.806   6.284  0.2588  0.0120  0.2375
 3773SOL     OW14863   5.301   3.796   1.679  0.1624  0.2465 -0.1653
 3773SOL    HW214864   5.257   3.718   1.713  0.6030 -0.3103 -0.8290
 3773SOL    HW314865   5.336   3.839   1.757 -1.1437  0.4525  0.3234
 3773SOL    MW414866   5.300   3.791   1.694 -0.3139  0.1800  0.5341
 3774SOL     OW14867   1.052   2.671   4.094  0.1118  0.1904  0.3542
 3774SOL    HW214868   1.045   2.645   4.002  0.3579 -0.7785  0.5985
 3774SOL    HW314869   0.984   2.737   4.105 -0.9391 -0.7782 -0.1538
 3774SOL    MW414870   1.042   2.676   4.083  0.2576 -0.2719  0.4940
 3775SOL     OW14871   5.854   4.120   1.119  0.0360  0.2993 -0.3324
 3775SOL    HW214872   5.912   4.160   1.184  0.3486  0.6674 -0.8314
 3775SOL    HW314873   5.838   4.032   1.153  0.7983  0.2286 -0.1281
 3775SOL    MW414874   5.859   4.114   1.132 -0.1199  0.5300  0.0452
 3776SOL     OW14875   1.212   3.870   3.385  0.2817 -0.1255  0.4545
 3776SOL    HW214876   1.256   3.953   3.366  1.6786 -1.1971 -1.3158
 3776SOL    HW314877   1.140   3.866   3.322 -0.4672  0.2018  1.2663
 3776SOL    MW414878   1.208   3.881   3.374 -0.0323  0.1652  0.2813
 3777SOL     OW14879   4.712   2.767   2.369 -0.0633  0.4258  0.2475
 3777SOL    HW214880   4.710   2.672   2.360  0.5690  0.4450 -0.2416
 3777SOL    HW314881   4.682   2.784   2.458 -0.9754 -0.1784  0.0668
 3777SOL    MW414882   4.708   2.757   2.379  0.8801 -0.2215  0.5840
 3778SOL     OW14883   0.327   5.975   3.825 -0.0414  0.1386 -0.2031
 3778SOL    HW214884   0.368   6.037   3.765  0.0805  0.4590  0.2014
 3778SOL    HW314885   0.233   5.988   3.814 -0.0161  0.9141  0.3954
 3778SOL    MW414886   0.320   5.985   3.816  0.1982  0.3049  0.6796
 3779SOL     OW14887   0.879   1.515   1.393  0.3104 -0.4468 -0.1576
 3779SOL    HW214888   0.800   1.523   1.340  0.0710 -0.4925  0.1884
 3779SOL    HW314889   0.938   1.581   1.358 -0.9331  1.6634  1.4502
 3779SOL    MW414890   0.876   1.525   1.382  0.1076  0.2054  0.3670
 3780SOL     OW14891   4.865   0.340   3.003 -0.6945 -0.4675  0.0352
 3780SOL    HW214892   4.955   0.362   2.982 -0.3416  0.9095  2.5603
 3780SOL    HW314893   4.813   0.386   2.937  0.3071  3.3696  1.6912
 3780SOL    MW414894   4.870   0.349   2.992 -0.0137  0.2149  0.2269
 3781SOL     OW14895   0.523   1.212   5.140  0.3103  0.4580  0.2491
 3781SOL    HW214896   0.489   1.245   5.056  1.0850 -0.7075 -0.5491
 3781SOL    HW314897   0.489   1.274   5.205 -2.5484 -0.0899 -0.5894
 3781SOL    MW414898   0.514   1.225   5.137 -0.6635 -0.0220 -0.6874
 3782SOL     OW14899   2.793   1.346   2.815 -0.6041 -0.8767  0.2185
 3782SOL    HW214900   2.842   1.265   2.823 -0.2372 -0.6484  0.3347
 3782SOL    HW314901   2.840   1.396   2.749 -0.4873 -0.5216  0.5643
 3782SOL    MW414902   2.805   1.342   2.807  0.3734  0.5212 -0.2389
 3783SOL     OW14903   2.280   5.914   2.140 -0.6382 -0.0900 -0.5456
 3783SOL    HW214904   2.314   5.947   2.057 -0.8844  0.0424 -0.5939
 3783SOL    HW314905   2.293   5.819   2.135  1.2593  0.1019  0.1308
 3783SOL    MW414906   2.286   5.906   2.129 -0.3098 -0.5027  0.3845
 3784SOL     OW14907   5.065   3.879   4.980 -0.0618  1.0624  0.0795
 3784SOL    HW214908   5.120   3.957   4.982  0.8348  0.4336  2.0963
 3784SOL    HW314909   5.084   3.838   4.896  1.9731  1.2770  0.4016
 3784SOL    MW414910   5.075   3.884   4.969  0.1565 -0.1720 -0.2149
 3785SOL     OW14911   0.825   0.892   1.755 -0.2770 -0.8237  0.2114
 3785SOL    HW214912   0.807   0.847   1.672 -1.0476 -1.1567  0.5494
 3785SOL    HW314913   0.875   0.969   1.730  0.9417 -1.7761 -0.4015
 3785SOL    MW414914   0.829   0.896   1.740  0.1435  0.3057  0.2272
 3786SOL     OW14915   1.664   2.285   2.071 -0.5185  0.1092  0.2109
 3786SOL    HW214916   1.674   2.239   1.988 -0.3414  1.6477 -0.6608
 3786SOL    HW314917   1.718   2.363   2.062 -0.4374  0.2826  1.8177
 3786SOL    MW414918   1.672   2.289   2.059 -0.0399  0.2945 -0.2029
 3787SOL     OW14919   4.403   2.031   4.363  0.9847 -0.2373 -0.2547
 3787SOL    HW214920   4.386   2.000   4.274  1.2336 -1.3622  0.0651
 3787SOL    HW314921   4.316   2.043   4.401  0.8636 -1.6188 -0.0532
 3787SOL    MW414922   4.389   2.028   4.357  0.2488 -1.0793 -0.5410
 3788SOL     OW14923   2.085   2.391   0.075 -0.2099 -0.4098  0.0582
 3788SOL    HW214924   2.139   2.464   0.106 -0.4036 -0.1244 -0.2678
 3788SOL    HW314925   2.038   2.360   0.152 -0.8434  0.4207  0.0160
 3788SOL    MW414926   2.086   2.396   0.089  0.0799 -0.1106 -0.3044
 3789SOL     OW14927   3.929   5.042   3.175 -0.1263 -0.3504  0.0955
 3789SOL    HW214928   3.868   5.003   3.238 -2.1047 -0.5811 -1.8483
 3789SOL    HW314929   3.882   5.117   3.140  1.1710  0.1218 -0.6901
 3789SOL    MW414930   3.915   5.047   3.179 -0.4253 -0.4240  0.0900
 3790SOL     OW14931   5.043   4.625   5.618  0.0646 -0.4535  0.1543
 3790SOL    HW214932   5.068   4.533   5.611  1.6988 -0.1111  1.0693
 3790SOL    HW314933   5.103   4.671   5.560  0.9860  0.2937  1.6467
 3790SOL    MW414934   5.054   4.619   5.610 -0.6630  0.6952  0.1762
 3791SOL     OW14935   2.630   6.256   0.753  0.2630 -0.4307  0.3140
 3791SOL    HW214936   2.696   6.319   0.782  0.5660 -0.1690 -0.8961
 3791SOL    HW314937   2.673   6.206   0.684  0.0384 -2.0075  1.2649
 3791SOL    MW414938   2.644   6.257   0.748 -0.1533 -0.4505  0.0272
 3792SOL     OW14939   4.994   2.277   0.408  0.4599  0.3046 -0.7849
 3792SOL    HW214940   5.021   2.348   0.349  1.3693 -0.4825 -1.3471
 3792SOL    HW314941   4.956   2.322   0.483 -0.6457  1.3458 -1.9113
 3792SOL    MW414942   4.992   2.292   0.410  0.0464  0.3576 -0.9161
 3793SOL     OW14943   2.080   2.164   6.292  0.1145  0.2430  0.0293
 3793SOL    HW214944   2.113   2.074   6.297  0.9933  0.6181  2.4843
 3793SOL    HW314945   2.106   2.203   6.375 -3.3021  1.7478  0.5623
 3793SOL    MW414946   2.088   2.157   6.304 -0.5793  0.0590  0.0660
 3794SOL     OW14947   1.840   4.761   5.934  0.6467  0.1943 -0.1985
 3794SOL    HW214948   1.829   4.848   5.897 -1.0615  0.0762 -0.0623
 3794SOL    HW314949   1.839   4.774   6.028  2.0003  0.1716 -0.1592
 3794SOL    MW414950   1.838   4.774   5.941  0.1141 -0.7271  0.4652
 3795SOL     OW14951   4.311   0.550   2.176 -0.1774 -0.3158  0.2935
 3795SOL    HW214952   4.267   0.616   2.123 -0.9009 -0.2966  0.9145
 3795SOL    HW314953   4.404   0.573   2.171 -0.2522 -0.2149 -0.8239
 3795SOL    MW414954   4.317   0.561   2.168 -0.1566 -0.3658 -0.0274
 3796SOL     OW14955   2.023   1.935   5.530  0.3749  0.3163 -0.1715
 3796SOL    HW214956   1.998   1.846   5.503  1.7010 -0.2182  0.2540
 3796SOL    HW314957   1.960   1.992   5.486 -1.1287 -0.8785  0.3209
 3796SOL    MW414958   2.011   1.931   5.521  0.5502  0.3719 -0.7367
 3797SOL     OW14959   3.970   6.043   3.588  0.0344  0.1165 -0.1795
 3797SOL    HW214960   3.990   6.125   3.634 -1.7447  1.5159 -1.7307
 3797SOL    HW314961   3.950   6.070   3.499  0.8963 -2.2363 -1.1658
 3797SOL    MW414962   3.970   6.058   3.583 -0.5424  0.5055 -0.1077
 3798SOL     OW14963   1.965   5.540   6.364  0.2825  0.1507  0.3349
 3798SOL    HW214964   1.912   5.523   6.442  2.2046 -0.8761  1.5181
 3798SOL    HW314965   1.968   5.455   6.319  1.0207  0.1457  0.3807
 3798SOL    MW414966   1.959   5.526   6.368  0.1054  0.0049 -0.0872
 3799SOL     OW14967   4.342   1.502   2.470  0.1955 -0.1649 -0.0581
 3799SOL    HW214968   4.264   1.451   2.451  1.1811 -1.1272 -1.6665
 3799SOL    HW314969   4.347   1.503   2.566 -0.7030 -1.7603  0.0357
 3799SOL    MW414970   4.332   1.496   2.480 -0.0290 -0.1066  0.1966
 3800SOL     OW14971   2.620   1.599   6.079  0.1756  0.2470  0.1166
 3800SOL    HW214972   2.692   1.588   6.140  0.0798 -2.6145 -0.1664
 3800SOL    HW314973   2.542   1.599   6.133  0.2095 -0.2908  0.1737
 3800SOL    MW414974   2.619   1.598   6.094 -0.1580  0.0138 -0.3459
 3801SOL     OW14975   2.862   3.102   4.039 -0.7910  0.3990  0.7975
 3801SOL    HW214976   2.948   3.093   4.080 -1.5681 -1.9603  2.0440
 3801SOL    HW314977   2.801   3.064   4.102 -2.6334  1.0184 -0.5398
 3801SOL    MW414978   2.866   3.096   4.052  0.1360 -0.6485 -0.4397
 3802SOL     OW14979   3.144   4.876   2.733  0.3352  0.2012  0.8836
 3802SOL    HW214980   3.118   4.826   2.655  1.6894  1.9469 -0.7771
 3802SOL    HW314981   3.112   4.965   2.716  0.9524  0.6910  2.1839
 3802SOL    MW414982   3.136   4.881   2.721 -0.1896  0.6830  0.2462
 3803SOL     OW14983   6.170   1.635   3.663  0.3772 -0.2456 -0.2474
 3803SOL    HW214984   6.161   1.573   3.590  0.2170  0.4890 -0.8659
 3803SOL    HW314985   6.117   1.710   3.637  0.6673  0.2053  0.4361
 3803SOL    MW414986   6.162   1.636   3.650  0.1410  0.1314 -0.2932
 3804SOL     OW14987   0.277   6.014   2.862  0.6507 -0.3916  0.8172
 3804SOL    HW214988   0.279   6.051   2.774  0.7109 -0.2661  0.8704
 3804SOL    HW314989   0.369   6.007   2.888  0.6866 -1.3683  0.4841
 3804SOL    MW414990   0.290   6.018   2.854 -0.0989 -0.2330  0.5632
 3805SOL     OW14991   4.118   2.114   2.299  0.2400  0.5011 -0.0963
 3805SOL    HW214992   4.075   2.199   2.299 -0.4932  0.2481 -2.7165
 3805SOL    HW314993   4.046   2.051   2.286  0.7845 -0.5366  1.5767
 3805SOL    MW414994   4.103   2.117   2.297  0.2207  0.0005 -0.2741
 3806SOL     OW14995   4.937   0.514   1.292 -0.2309 -0.1262  0.0184
 3806SOL    HW214996   4.924   0.426   1.328  1.0881 -0.1190  0.5813
 3806SOL    HW314997   5.007   0.502   1.227 -1.5355  0.1355 -1.4872
 3806SOL    MW414998   4.945   0.500   1.288  0.2496 -0.1785 -0.1840
 3807SOL     OW14999   2.514   2.299   1.150 -0.3968 -0.5424 -0.5835
 3807SOL    HW215000   2.487   2.376   1.100 -0.4939  1.3039  2.0975
 3807SOL    HW315001   2.445   2.287   1.215  1.5093 -0.3841  1.5841
 3807SOL    MW415002   2.501   2.307   1.152  0.3867  0.3498  1.2625
 3808SOL     OW15003   2.304   0.313   3.393  0.1553 -0.1717 -0.0008
 3808SOL    HW215004   2.208   0.307   3.388 -0.0414  0.4958  1.9632
 3808SOL    HW315005   2.328   0.249   3.460  1.0672 -0.1336 -0.2821
 3808SOL    MW415006   2.294   0.304   3.402  0.0218  0.6112  1.1354
 3809SOL     OW15007   5.276   0.040   0.915  0.4742  0.1533 -0.5788
 3809SOL    HW215008   5.284   0.135   0.907  0.7769  0.1158 -0.7395
 3809SOL    HW315009   5.204   0.027   0.977 -0.2575  0.4765 -1.3518
 3809SOL    MW415010   5.268   0.051   0.922 -0.1665  0.1409  0.0186
 3810SOL     OW15011   0.734   3.906   0.768  0.3754  0.4620 -0.0137
 3810SOL    HW215012   0.668   3.965   0.732 -0.2971 -0.1967  0.1234
 3810SOL    HW315013   0.818   3.948   0.746 -0.0918  2.3512  1.5760
 3810SOL    MW415014   0.736   3.919   0.760  0.6391 -1.1950  0.2379
 3811SOL     OW15015   3.986   0.629   1.870 -1.0532 -0.1679 -0.2457
 3811SOL    HW215016   4.049   0.557   1.867 -1.5603 -0.6241 -0.0756
 3811SOL    HW315017   3.976   0.654   1.778 -1.6262 -0.9853 -0.4171
 3811SOL    MW415018   3.993   0.623   1.857  0.1156  0.0268  0.6091
 3812SOL     OW15019   0.581   3.632   3.565 -0.0240  0.1043  0.5313
 3812SOL    HW215020   0.585   3.697   3.636  0.6854 -0.3605  0.9284
 3812SOL    HW315021   0.643   3.564   3.591 -0.0300 -0.2564 -0.3652
 3812SOL    MW415022   0.590   3.632   3.578 -0.3679  0.1199 -0.3343
 3813SOL     OW15023   5.059   4.078   2.670 -0.0057  0.0883  0.0285
 3813SOL    HW215024   5.011   4.103   2.591 -0.4447  0.2286  0.3339
 3813SOL    HW315025   5.065   4.159   2.721 -0.6070 -0.2021  0.5896
 3813SOL    MW415026   5.053   4.092   2.666  0.5866  0.3089  0.1864
 3814SOL     OW15027   2.417   3.527   4.843 -0.4261 -0.3065 -0.7418
 3814SOL    HW215028   2.414   3.514   4.748  1.2044  0.2817 -0.9012
 3814SOL    HW315029   2.497   3.483   4.871 -0.1648  0.6965  0.1519
 3814SOL    MW415030   2.427   3.520   4.834 -0.8380 -0.4893 -0.1567
 3815SOL     OW15031   6.136   1.670   5.412 -0.0920  0.8490 -0.5881
 3815SOL    HW215032   6.110   1.704   5.498 -0.7036  2.9957 -1.5501
 3815SOL    HW315033   6.231   1.666   5.415 -0.1447 -1.4011  0.9442
 3815SOL    MW415034   6.145   1.674   5.424 -0.1054 -0.3122 -0.2950
 3816SOL     OW15035   0.841   3.253   1.510 -0.0642 -0.3163 -0.0267
 3816SOL    HW215036   0.877   3.285   1.593 -2.0264  1.8958  0.0849
 3816SOL    HW315037   0.914   3.209   1.468  1.1026 -1.2027  2.6851
 3816SOL    MW415038   0.855   3.251   1.516  1.0990 -0.1364  0.0621
 3817SOL     OW15039   5.431   2.747  -0.029  0.2001 -0.0624 -0.0086
 3817SOL    HW215040   5.437   2.734   0.065 -1.7056 -1.2377  0.0113
 3817SOL    HW315041   5.394   2.834  -0.040 -0.1519 -0.1668  0.3573
 3817SOL    MW415042   5.427   2.757  -0.018 -0.0185  0.7495 -0.1786
 3818SOL     OW15043   4.484   3.523   2.193 -0.3564 -0.2808  0.3817
 3818SOL    HW215044   4.487   3.618   2.177 -0.7102 -0.5881 -1.7756
 3818SOL    HW315045   4.485   3.515   2.288  2.4248  1.7952  0.6615
 3818SOL    MW415046   4.485   3.535   2.203 -0.3721  0.1152  0.5891
 3819SOL     OW15047   6.394   5.688   4.188  0.0486 -0.0726  0.2303
 3819SOL    HW215048   6.352   5.774   4.186  0.7344  0.2633  0.1084
 3819SOL    HW315049   6.424   5.675   4.098 -0.9934 -0.9217 -0.0207
 3819SOL    MW415050   6.392   5.698   4.175 -0.4143 -0.0840 -0.4137
 3820SOL     OW15051   2.854   5.085   6.329 -0.2652  0.0577 -0.6452
 3820SOL    HW215052   2.838   5.096   6.422 -0.3844  1.2295 -0.7908
 3820SOL    HW315053   2.934   5.136   6.312 -0.1823 -0.2352 -1.1570
 3820SOL    MW415054   2.863   5.093   6.339 -0.7645  0.3992  0.1953
 3821SOL     OW15055   4.569   4.486   2.248  0.1385 -0.7234 -0.5458
 3821SOL    HW215056   4.476   4.464   2.252  0.3012 -1.7551 -1.6912
 3821SOL    HW315057   4.603   4.468   2.335 -1.1657  1.9841  0.6464
 3821SOL    MW415058   4.562   4.481   2.260 -0.0416  0.5543 -0.2240
 3822SOL     OW15059   1.154   1.925   0.053 -0.4763 -0.5287 -0.1772
 3822SOL    HW215060   1.127   2.015   0.035  0.6057 -0.2524 -0.4433
 3822SOL    HW315061   1.164   1.921   0.148  0.8888  0.0550 -0.2767
 3822SOL    MW415062   1.151   1.936   0.063  0.1036  0.1250 -0.7113
 3823SOL     OW15063   5.481   1.925   5.110 -0.0539  0.3972  0.0992
 3823SOL    HW215064   5.560   1.902   5.159 -1.1607 -0.0432  1.7480
 3823SOL    HW315065   5.453   2.008   5.147  0.3959  1.2737 -1.4622
 3823SOL    MW415066   5.488   1.933   5.121 -0.2099  0.0154 -0.4964
 3824SOL     OW15067   0.428   0.061   0.258 -0.0750  0.8079  0.1282
 3824SOL    HW215068   0.400  -0.008   0.198 -1.6481 -1.0317  2.7687
 3824SOL    HW315069   0.518   0.037   0.281  0.6437  1.6777 -1.5469
 3824SOL    MW415070   0.436   0.049   0.253  0.0999 -0.2530 -0.1045
 3825SOL     OW15071   3.626   1.000   0.984 -0.4974 -0.2444  0.3344
 3825SOL    HW215072   3.621   0.977   1.077 -2.1250  0.7006  0.5114
 3825SOL    HW315073   3.620   0.917   0.938  2.1703 -0.9440  1.0356
 3825SOL    MW415074   3.625   0.986   0.991 -0.5075  0.0626 -0.3014
 3826SOL     OW15075   1.356   5.772   3.039 -0.4837 -0.9176 -0.3492
 3826SOL    HW215076   1.375   5.685   3.073 -0.8999 -1.1018 -0.5704
 3826SOL    HW315077   1.390   5.770   2.949 -1.1317 -1.1053 -0.6014
 3826SOL    MW415078   1.363   5.760   3.031 -0.0458 -0.1504  0.1633
 3827SOL     OW15079   1.009   0.090   2.535 -0.0553 -0.0839  0.1237
 3827SOL    HW215080   0.946   0.036   2.488 -1.4299  1.4561  0.1347
 3827SOL    HW315081   1.094   0.050   2.516 -1.0122 -2.2794  0.2046
 3827SOL    MW415082   1.012   0.078   2.526  0.0851 -0.4407 -0.4360
 3828SOL     OW15083   5.788   6.309   3.762 -0.0423  0.3904  0.3010
 3828SOL    HW215084   5.773   6.300   3.668 -1.3605  0.6998  0.4635
 3828SOL    HW315085   5.728   6.246   3.802 -0.2070  0.9521  0.9601
 3828SOL    MW415086   5.778   6.299   3.755  0.0282 -0.0216 -0.1030
 3829SOL     OW15087   1.540   3.342   3.338 -0.1600 -0.1296 -0.2557
 3829SOL    HW215088   1.558   3.416   3.281 -0.2061  0.6434  0.7156
 3829SOL    HW315089   1.507   3.381   3.419 -5.4921 -1.2975 -1.4502
 3829SOL    MW415090   1.538   3.357   3.341 -0.0348 -0.1332  0.4433
 3830SOL     OW15091   5.659   0.014   1.945 -0.2336  0.0422 -0.0264
 3830SOL    HW215092   5.649  -0.050   1.874 -1.1798 -0.5136  0.5779
 3830SOL    HW315093   5.603  -0.020   2.016 -0.9577  1.6605  0.2297
 3830SOL    MW415094   5.650   0.001   1.945 -0.4986  0.6665 -0.5231
 3831SOL     OW15095   0.603   2.589   4.929 -0.0918 -0.3753  0.1573
 3831SOL    HW215096   0.543   2.600   5.003  0.2505 -1.2239  0.5754
 3831SOL    HW315097   0.632   2.498   4.935  0.7341 -0.1600 -0.4247
 3831SOL    MW415098   0.599   2.578   4.940  0.7087 -0.0571 -0.4262
 3832SOL     OW15099   4.937   6.132   1.659 -0.1434 -0.7211  0.7656
 3832SOL    HW215100   4.890   6.179   1.590  2.6597  1.3060  0.0599
 3832SOL    HW315101   4.978   6.058   1.614 -2.6832 -2.6510  1.4327
 3832SOL    MW415102   4.936   6.129   1.644  0.0883  0.2368  0.7067
 3833SOL     OW15103   5.141   4.155   2.239  0.2509  0.4989  0.4032
 3833SOL    HW215104   5.126   4.197   2.154  1.0522 -0.9707 -0.5084
 3833SOL    HW315105   5.233   4.128   2.236  0.3679  0.6930  1.8658
 3833SOL    MW415106   5.151   4.157   2.227 -0.0739 -0.8243 -0.4467
 3834SOL     OW15107   3.047   3.508   5.181  0.1658 -0.7461  0.1877
 3834SOL    HW215108   3.112   3.495   5.112  0.3344  1.0720 -0.0363
 3834SOL    HW315109   3.016   3.419   5.201  2.5713 -1.6616  0.1904
 3834SOL    MW415110   3.051   3.494   5.174 -0.8996  0.6910 -0.0418
 3835SOL     OW15111   5.440   6.139   3.211  0.0710  0.3196 -0.2078
 3835SOL    HW215112   5.436   6.045   3.231 -0.1732  0.5067  0.6835
 3835SOL    HW315113   5.358   6.174   3.245 -0.8096  0.5395 -2.4377
 3835SOL    MW415114   5.429   6.131   3.218 -0.1971  0.1926 -0.4677
 3836SOL     OW15115   1.091   5.000   3.582  0.3692 -0.4758 -0.1698
 3836SOL    HW215116   1.056   4.913   3.564 -0.5722 -0.2869  0.6257
 3836SOL    HW315117   1.112   4.999   3.676  1.7736 -0.3156 -0.4583
 3836SOL    MW415118   1.089   4.989   3.592  0.2331  0.0257  0.3903
 3837SOL     OW15119   6.258   1.771   2.283 -0.5677  0.2641 -0.0625
 3837SOL    HW215120   6.308   1.720   2.219 -0.4206  1.8451 -1.2535
 3837SOL    HW315121   6.177   1.721   2.294 -1.1174  0.5001 -2.4061
 3837SOL    MW415122   6.254   1.757   2.276 -0.0281  0.5336 -0.1381
 3838SOL     OW15123   4.994   0.107   5.997  0.2877 -0.3483  0.0427
 3838SOL    HW215124   4.921   0.075   6.050 -1.0221 -0.5525 -1.8105
 3838SOL    HW315125   5.059   0.036   6.001 -0.1062 -0.6785  0.7524
 3838SOL    MW415126   4.993   0.093   6.005  0.4492  0.2436 -0.1616
 3839SOL     OW15127   2.660   0.580   5.832 -0.2456  0.1546 -0.4294
 3839SOL    HW215128   2.705   0.499   5.809  1.4314  1.1566 -0.8915
 3839SOL    HW315129   2.650   0.627   5.749  0.1115  1.0211 -0.0077
 3839SOL    MW415130   2.665   0.576   5.818  0.0197  0.7028 -0.1720
 3840SOL     OW15131   5.164   3.294   4.564 -0.2014 -0.1767  0.0486
 3840SOL    HW215132   5.082   3.340   4.551 -0.6889 -0.6299  1.3693
 3840SOL    HW315133   5.171   3.282   4.659 -0.2387 -3.0088 -0.2034
 3840SOL    MW415134   5.154   3.298   4.575  0.1206 -0.1247 -0.2212
 3841SOL     OW15135   0.398   3.145   2.297 -0.1163  0.0338  0.0574
 3841SOL    HW215136   0.484   3.148   2.254 -0.3923 -0.5637 -0.5596
 3841SOL    HW315137   0.336   3.140   2.224 -0.6453 -0.0495  0.5122
 3841SOL    MW415138   0.401   3.145   2.282 -0.2123  0.3543  0.3791
 3842SOL     OW15139   3.253   2.556   2.534  0.3580 -0.4564 -0.6123
 3842SOL    HW215140   3.220   2.471   2.507 -2.2238  0.3404 -0.3101
 3842SOL    HW315141   3.254   2.608   2.453 -0.5165 -0.0884 -0.3990
 3842SOL    MW415142   3.249   2.552   2.520 -0.0147 -0.3020  0.1542
 3843SOL     OW15143   5.777   3.175   2.755 -0.6087 -0.4661  0.3827
 3843SOL    HW215144   5.783   3.268   2.732  0.1949 -0.2888  1.2808
 3843SOL    HW315145   5.864   3.140   2.737 -0.6425 -0.8366  0.9156
 3843SOL    MW415146   5.789   3.183   2.749  0.1558 -0.5134  0.2584
 3844SOL     OW15147   2.221   5.362   2.986  0.5577 -1.2554  0.1267
 3844SOL    HW215148   2.186   5.394   2.903  1.4288 -0.8278 -0.0867
 3844SOL    HW315149   2.279   5.290   2.962  1.4430 -0.6112  0.2780
 3844SOL    MW415150   2.224   5.357   2.972  0.1637 -0.0005  0.1939
 3845SOL     OW15151   5.920   1.874   0.194  0.1374 -0.5180  0.1478
 3845SOL    HW215152   5.959   1.935   0.257  0.3723 -0.9511  0.4233
 3845SOL    HW315153   5.991   1.815   0.170  0.0620 -0.3247 -0.5667
 3845SOL    MW415154   5.935   1.874   0.199 -0.6320  0.1944 -0.3680
 3846SOL     OW15155   5.645   5.036   3.175  0.1209  0.8952 -0.0172
 3846SOL    HW215156   5.596   5.117   3.166 -0.9290  0.4859  1.6022
 3846SOL    HW315157   5.579   4.971   3.200  1.0224 -0.3508 -0.7606
 3846SOL    MW415158   5.630   5.038   3.177 -0.2293  0.1818 -0.1725
 3847SOL     OW15159   5.933   4.646   2.423 -0.1789 -0.5969 -0.3476
 3847SOL    HW215160   5.919   4.726   2.372 -0.9682 -1.1952 -1.1027
 3847SOL    HW315161   6.022   4.655   2.457 -0.4626  0.8884  0.1219
 3847SOL    MW415162   5.943   4.658   2.421  0.0935 -0.4158 -0.3827
 3848SOL     OW15163   3.531   3.287   4.192  0.1781  0.4655  0.5236
 3848SOL    HW215164   3.512   3.217   4.130  1.1420  0.6300  0.0380
 3848SOL    HW315165   3.475   3.359   4.164  1.4134  0.9277 -0.8692
 3848SOL    MW415166   3.521   3.287   4.180  0.2007  0.1866  0.4617
 3849SOL     OW15167   1.233   4.507   0.855 -0.3544 -0.1904 -0.2524
 3849SOL    HW215168   1.213   4.453   0.778  1.5342  0.2067 -1.0806
 3849SOL    HW315169   1.233   4.597   0.821 -1.2677  0.1545  0.6251
 3849SOL    MW415170   1.230   4.512   0.840 -0.1158 -0.5980 -0.1618
 3850SOL     OW15171   6.203   0.049   4.507  0.2322  0.0039  0.0880
 3850SOL    HW215172   6.213   0.076   4.415 -0.5640  1.8540  0.4937
 3850SOL    HW315173   6.201  -0.046   4.504  1.5652 -0.0152 -1.6717
 3850SOL    MW415174   6.204   0.040   4.494  0.0693 -0.1276  0.0734
 3851SOL     OW15175   1.172   5.678   3.443 -0.3506  0.2306 -0.3453
 3851SOL    HW215176   1.127   5.717   3.368  0.9165  0.4009 -1.0441
 3851SOL    HW315177   1.156   5.739   3.515 -2.3492 -0.3966 -0.2096
 3851SOL    MW415178   1.164   5.691   3.443  0.2775 -0.3871  0.5335
 3852SOL     OW15179   0.961   2.591   2.991  0.3254 -0.2395  0.0242
 3852SOL    HW215180   1.012   2.511   3.004  0.8858 -0.1997 -1.6559
 3852SOL    HW315181   0.891   2.565   2.930  0.0529  0.3633  0.0755
 3852SOL    MW415182   0.959   2.577   2.984  0.1431  0.0524 -0.0623
 3853SOL     OW15183   6.411   3.973   4.104  0.2317 -0.4529  0.0188
 3853SOL    HW215184   6.476   4.038   4.131 -0.3304  0.3407 -0.4856
 3853SOL    HW315185   6.327   4.015   4.122 -0.2025 -1.9760  1.9328
 3853SOL    MW415186   6.408   3.987   4.110  0.2545  0.4230  0.4508
 3854SOL     OW15187   5.906   4.676   6.110  0.3688  0.7042  0.1012
 3854SOL    HW215188   5.893   4.745   6.046  0.1077  0.3740 -0.2087
 3854SOL    HW315189   5.884   4.716   6.194  1.6209  1.4141  0.1120
 3854SOL    MW415190   5.902   4.690   6.112  0.0642  0.3799 -0.1738
 3855SOL     OW15191   1.878   0.822   6.240  0.3468  0.0209 -0.1580
 3855SOL    HW215192   1.882   0.891   6.305 -2.2944  1.3260 -1.2253
 3855SOL    HW315193   1.830   0.751   6.284  0.3185  0.1185 -0.0301
 3855SOL    MW415194   1.872   0.822   6.254 -0.2872 -0.5909 -0.0448
 3856SOL     OW15195   4.890   4.354   0.821  0.6504  0.2855  0.4556
 3856SOL    HW215196   4.950   4.416   0.863  1.3257  0.8289 -1.2485
 3856SOL    HW315197   4.941   4.273   0.813  0.7430  0.3812  0.0875
 3856SOL    MW415198   4.904   4.352   0.826 -0.4452  0.4105  0.0415
 3857SOL     OW15199   3.319   2.088   2.524  0.8046  0.5062  0.6521
 3857SOL    HW215200   3.244   2.147   2.516  0.8814  0.6049  0.6426
 3857SOL    HW315201   3.297   2.013   2.469  0.7436  0.5659  0.5947
 3857SOL    MW415202   3.306   2.086   2.516 -0.2840 -0.0166 -0.1563
 3858SOL     OW15203   2.001   1.729   2.328 -0.8137 -0.1614  0.7181
 3858SOL    HW215204   1.994   1.742   2.233 -0.2844 -2.1781  0.3429
 3858SOL    HW315205   1.932   1.665   2.348 -0.1604 -0.6629  1.4613
 3858SOL    MW415206   1.991   1.722   2.318 -0.4738  0.3701  0.1153
 3859SOL     OW15207   1.607   5.233   4.418  0.1672 -0.0803 -0.1436
 3859SOL    HW215208   1.609   5.328   4.402 -0.4826 -0.4386 -3.0891
 3859SOL    HW315209   1.678   5.199   4.364  0.1238 -1.3090  0.5586
 3859SOL    MW415210   1.616   5.241   4.408  0.1735  0.3773 -0.4054
 3860SOL     OW15211   4.389   5.571   3.902 -0.5630 -0.5307  0.2960
 3860SOL    HW215212   4.419   5.655   3.936  1.1591 -1.5510  1.4725
 3860SOL    HW315213   4.354   5.525   3.978 -1.1938 -1.0019 -0.2672
 3860SOL    MW415214   4.388   5.576   3.916 -0.4171 -0.6767 -0.1331
 3861SOL     OW15215   5.829   4.384   0.342 -0.2227 -0.0973  0.5232
 3861SOL    HW215216   5.813   4.309   0.284 -0.8408  0.6537 -0.3107
 3861SOL    HW315217   5.769   4.370   0.415 -1.1020  0.1111 -0.1437
 3861SOL    MW415218   5.819   4.372   0.344 -0.5438 -0.4144  0.7137
 3862SOL     OW15219   0.686   2.841   4.573  0.4578  0.2488 -0.3542
 3862SOL    HW215220   0.679   2.786   4.495  1.4316 -0.4645  0.0373
 3862SOL    HW315221   0.598   2.841   4.611 -0.3480  1.5753 -2.0594
 3862SOL    MW415222   0.674   2.834   4.568  0.0496  0.0748 -0.0533
 3863SOL     OW15223   1.038   2.133   6.301 -0.0121  0.3222 -0.7724
 3863SOL    HW215224   0.990   2.206   6.339  1.3775 -0.0131  1.9108
 3863SOL    HW315225   1.112   2.174   6.257  1.3900  0.6377  1.6672
 3863SOL    MW415226   1.041   2.148   6.300 -0.4500  0.4132  0.2692
 3864SOL     OW15227   5.463   2.946   1.931  0.2063 -0.4506  0.5428
 3864SOL    HW215228   5.468   2.913   1.841  0.0598 -0.3542  0.4986
 3864SOL    HW315229   5.417   3.030   1.922 -0.4184 -0.7621  0.7938
 3864SOL    MW415230   5.458   2.953   1.918 -0.7851 -0.1470  0.0006
 3865SOL     OW15231   1.548   6.222   4.343  0.1646  0.8301  0.0658
 3865SOL    HW215232   1.641   6.209   4.360  0.5428  1.7402 -1.1820
 3865SOL    HW315233   1.530   6.312   4.373 -0.1840  0.8504 -0.1975
 3865SOL    MW415234   1.558   6.232   4.349  0.2337 -0.3021 -0.7514
 3866SOL     OW15235   5.602   4.307   1.527 -0.2882 -0.2778 -0.4468
 3866SOL    HW215236   5.610   4.384   1.471 -0.9643 -1.3321 -2.0614
 3866SOL    HW315237   5.683   4.259   1.513  0.0332 -0.0026  0.3839
 3866SOL    MW415238   5.614   4.311   1.518  0.1204 -0.2143  0.3775
 3867SOL     OW15239   5.962   4.993   6.135 -0.5420 -0.1247  0.0811
 3867SOL    HW215240   6.032   4.945   6.177 -1.2239 -0.9129  0.3324
 3867SOL    HW315241   6.003   5.074   6.103  0.4327 -0.5162  0.3442
 3867SOL    MW415242   5.976   4.998   6.136  0.2894 -0.4901  0.4256
 3868SOL     OW15243   1.443   3.313   4.875  0.7155  0.3695  0.1723
 3868SOL    HW215244   1.434   3.268   4.960 -1.3555 -0.3419 -0.3830
 3868SOL    HW315245   1.357   3.350   4.858  1.6625  2.2871 -0.6953
 3868SOL    MW415246   1.431   3.312   4.884 -0.2646  0.0335  0.1211
 3869SOL     OW15247   0.275   3.277   0.029  0.2258  0.3528  0.5022
 3869SOL    HW215248   0.307   3.296  -0.060 -0.8760  1.1296  0.2554
 3869SOL    HW315249   0.264   3.363   0.069 -2.2586  0.1830  0.3007
 3869SOL    MW415250   0.278   3.291   0.022  0.2281  0.2189  0.3014
 3870SOL     OW15251   2.709   4.617   3.883 -0.0133  0.1591  0.8767
 3870SOL    HW215252   2.710   4.690   3.821 -1.7228 -1.7729 -1.6143
 3870SOL    HW315253   2.631   4.632   3.937 -1.0319 -0.3927 -0.4109
 3870SOL    MW415254   2.699   4.629   3.882 -0.7768 -0.4924  0.4717
 3871SOL     OW15255   1.055   5.544   5.198  0.3617  0.1140  0.0626
 3871SOL    HW215256   1.008   5.570   5.119  0.2498 -0.8574 -0.2096
 3871SOL    HW315257   1.113   5.474   5.170  0.7477  0.1544  0.7304
 3871SOL    MW415258   1.056   5.538   5.184 -0.3787  0.0149 -0.0248
 3872SOL     OW15259   4.287   4.158   4.317 -0.4024  0.1025  1.1488
 3872SOL    HW215260   4.274   4.065   4.298  0.1299  0.1747  0.3533
 3872SOL    HW315261   4.299   4.162   4.412  1.2035 -0.8709  1.0220
 3872SOL    MW415262   4.287   4.146   4.327  0.1256 -0.3852 -0.2890
 3873SOL     OW15263   2.083   5.757   3.346 -0.2441 -0.0634 -0.0030
 3873SOL    HW215264   2.072   5.682   3.288 -0.5627 -0.3067  0.3619
 3873SOL    HW315265   2.129   5.722   3.423 -0.3959  0.1106  0.1700
 3873SOL    MW415266   2.087   5.742   3.349  0.3218  0.1058  0.0430
 3874SOL     OW15267   5.743   0.360  -0.028 -0.1439  0.1519  0.0315
 3874SOL    HW215268   5.664   0.310  -0.009 -0.4443  0.5276 -0.2273
 3874SOL    HW315269   5.712   0.438  -0.073  0.2960  0.7162  0.6928
 3874SOL    MW415270   5.729   0.363  -0.031  0.0633  0.2660 -0.1386
 3875SOL     OW15271   3.233   1.882   3.961  0.3863  0.3819 -0.6155
 3875SOL    HW215272   3.164   1.829   3.922 -0.4922  0.5813  0.6380
 3875SOL    HW315273   3.300   1.818   3.988 -0.4113 -0.0488  0.3790
 3875SOL    MW415274   3.233   1.866   3.959  0.3248  0.2097  0.0736
 3876SOL     OW15275   6.031   1.835   5.239 -0.2794 -0.0308 -0.2951
 3876SOL    HW215276   6.069   1.758   5.282 -1.4435 -0.7459 -0.4917
 3876SOL    HW315277   5.936   1.820   5.244 -0.5039  1.1054 -0.8777
 3876SOL    MW415278   6.023   1.822   5.246  0.4679 -0.3963 -0.7081
 3877SOL     OW15279   0.521   6.245   5.221  0.6046 -0.4423  0.3465
 3877SOL    HW215280   0.518   6.161   5.174 -0.6070 -0.7776  0.9907
 3877SOL    HW315281   0.538   6.221   5.312  1.6727  0.1242  0.3156
 3877SOL    MW415282   0.523   6.231   5.227 -0.2515 -0.2295  0.2631
 3878SOL     OW15283   3.690   5.919   4.537  0.2707 -0.1640  0.6270
 3878SOL    HW215284   3.634   5.993   4.510  0.7482 -0.2689 -0.7288
 3878SOL    HW315285   3.706   5.871   4.456  1.4263 -0.7638  1.1913
 3878SOL    MW415286   3.684   5.922   4.523 -0.2467 -0.7618 -0.2423
 3879SOL     OW15287   6.379   1.148   1.152 -0.7325 -0.7800  0.2603
 3879SOL    HW215288   6.314   1.092   1.196  0.6793 -2.3872  0.4071
 3879SOL    HW315289   6.458   1.094   1.149  1.9948  2.4599  3.8641
 3879SOL    MW415290   6.381   1.133   1.158  0.2982 -0.4217 -0.1000
 3880SOL     OW15291   4.618  -0.002   2.012  0.2814  0.6010  0.2033
 3880SOL    HW215292   4.632   0.039   2.098 -0.8278  0.4496  0.4658
 3880SOL    HW315293   4.696  -0.055   1.998  0.3769  0.4454  1.2292
 3880SOL    MW415294   4.630  -0.003   2.022  0.1073 -0.1717 -0.5968
 3881SOL     OW15295   6.152   2.469   4.668 -0.1925  0.0811 -0.1792
 3881SOL    HW215296   6.092   2.538   4.696 -0.0746 -0.0977  0.5402
 3881SOL    HW315297   6.223   2.471   4.733  0.4111  0.0762 -0.8332
 3881SOL    MW415298   6.153   2.478   4.680 -0.0862 -0.0994 -0.0623
 3882SOL     OW15299   2.744   1.790   4.049 -0.2203  0.4592  0.6760
 3882SOL    HW215300   2.804   1.815   4.120 -0.3863  1.6457  0.4220
 3882SOL    HW315301   2.726   1.872   4.004 -0.8224 -0.1465 -0.2013
 3882SOL    MW415302   2.750   1.804   4.052 -0.1240 -0.1905 -0.8855
 3883SOL     OW15303   4.909   1.791   4.827 -0.1424 -0.1492  0.1993
 3883SOL    HW215304   4.865   1.850   4.888  0.4080  1.0014 -0.4866
 3883SOL    HW315305   4.868   1.705   4.843 -0.8900  0.3848  1.2758
 3883SOL    MW415306   4.898   1.787   4.837 -0.0871  0.5391  0.3380
 3884SOL     OW15307   6.172   6.153   0.755  0.0170 -0.2805 -0.8581
 3884SOL    HW215308   6.121   6.118   0.828 -0.9514  0.1342 -1.3193
 3884SOL    HW315309   6.108   6.195   0.698  1.0816  2.3345 -0.3230
 3884SOL    MW415310   6.157   6.154   0.757  0.6568  0.2917 -0.1282
 3885SOL     OW15311   3.160   0.757   1.433 -0.7636  0.6363  0.1123
 3885SOL    HW215312   3.209   0.675   1.438  2.4313  2.4709  2.5086
 3885SOL    HW315313   3.171   0.787   1.343 -0.4203 -0.6812 -0.2963
 3885SOL    MW415314   3.168   0.750   1.422 -0.4142  0.0300 -0.2402
 3886SOL     OW15315   1.463   3.469   2.495  0.0906 -0.2815 -0.2706
 3886SOL    HW215316   1.509   3.400   2.542 -1.1069 -0.4058  0.7653
 3886SOL    HW315317   1.374   3.437   2.486 -0.5559  1.2151  0.4649
 3886SOL    MW415318   1.458   3.456   2.500  0.5826  0.1676 -0.0492
 3887SOL     OW15319   0.375   3.289   5.849  0.3587  0.0303  0.4384
 3887SOL    HW215320   0.350   3.299   5.757  0.3284 -0.0042  0.4428
 3887SOL    HW315321   0.469   3.304   5.850  0.3765 -0.0749  0.3847
 3887SOL    MW415322   0.384   3.292   5.837  0.3105  0.0515 -0.4106
 3888SOL     OW15323   2.701   5.815   0.136  0.0004  0.0688 -0.7139
 3888SOL    HW215324   2.741   5.730   0.115  0.7750  0.0148  0.8304
 3888SOL    HW315325   2.607   5.800   0.127 -0.0089 -1.5007  1.1883
 3888SOL    MW415326   2.694   5.802   0.132  0.4905 -0.6494 -0.2638
 3889SOL     OW15327   6.062   3.146   2.375  0.2173  0.2236 -0.0452
 3889SOL    HW215328   6.148   3.126   2.338  0.1279 -0.3128  0.0205
 3889SOL    HW315329   6.059   3.241   2.378  0.9470  0.2488  0.2693
 3889SOL    MW415330   6.073   3.156   2.371 -0.5213  0.0926 -0.0337
 3890SOL     OW15331   1.344   3.334   4.511 -0.3851 -0.1495 -0.7229
 3890SOL    HW215332   1.417   3.391   4.534  0.1685 -0.2688 -2.0899
 3890SOL    HW315333   1.372   3.291   4.430 -0.5090 -2.8147  0.5215
 3890SOL    MW415334   1.358   3.336   4.503 -0.1759 -0.3027  0.6189
 3891SOL     OW15335   5.010   4.733   5.306 -0.1645 -0.3864 -0.4598
 3891SOL    HW215336   5.073   4.662   5.317  0.0889 -0.1415 -0.3042
 3891SOL    HW315337   4.925   4.690   5.309  0.0122 -0.8138 -1.4486
 3891SOL    MW415338   5.007   4.718   5.308 -0.6521  0.0691  0.0904
 3892SOL     OW15339   1.774   5.745   0.229  0.1345  0.1554 -0.4361
 3892SOL    HW215340   1.811   5.657   0.220 -0.5973 -0.3149  0.9544
 3892SOL    HW315341   1.705   5.749   0.163 -0.6178 -0.7417  0.2909
 3892SOL    MW415342   1.770   5.734   0.219 -0.3788  0.6054 -0.2691
 3893SOL     OW15343   5.341   0.962   1.994  0.3838 -0.1536 -0.6915
 3893SOL    HW215344   5.299   1.047   2.010  0.6487 -0.6563  4.1301
 3893SOL    HW315345   5.272   0.898   2.005  0.7533 -0.7175 -1.5208
 3893SOL    MW415346   5.327   0.965   1.997 -0.6834 -0.7354  0.4412
 3894SOL     OW15347   0.755   4.135   1.952 -0.0226  0.0301 -0.1003
 3894SOL    HW215348   0.702   4.059   1.926  0.1945  0.4042 -1.6762
 3894SOL    HW315349   0.706   4.174   2.025 -2.0944  0.5265 -1.6700
 3894SOL    MW415350   0.741   4.130   1.958 -0.1755 -0.5186 -0.3064
 3895SOL     OW15351   1.843   2.184   6.143 -0.2129  0.1289 -0.2455
 3895SOL    HW215352   1.768   2.238   6.167 -1.1365 -0.1580 -2.2866
 3895SOL    HW315353   1.915   2.217   6.197 -1.4025  1.5599  0.5162
 3895SOL    MW415354   1.843   2.196   6.153 -0.1744 -1.0727 -0.7744
 3896SOL     OW15355   6.423   6.341   5.747 -0.0380  0.2282 -0.2200
 3896SOL    HW215356   6.329   6.357   5.756 -0.3398 -1.3214 -0.3210
 3896SOL    HW315357   6.455   6.328   5.837  0.1579  1.0710 -0.1585
 3896SOL    MW415358   6.415   6.342   5.760  0.2079 -0.1305 -0.1466
 3897SOL     OW15359   5.238   3.186   3.511 -0.8664 -0.3148  0.5687
 3897SOL    HW215360   5.155   3.196   3.464 -0.6671  2.5513  0.6379
 3897SOL    HW315361   5.247   3.267   3.561  2.2094 -0.3123  0.2149
 3897SOL    MW415362   5.228   3.198   3.512 -0.4911 -0.6800 -0.1195
 3898SOL     OW15363   3.175   0.026   3.593 -0.4790  0.3045  0.1829
 3898SOL    HW215364   3.244  -0.032   3.559 -0.8738  0.5421 -1.0421
 3898SOL    HW315365   3.212   0.114   3.586 -0.7966  0.4066 -0.1990
 3898SOL    MW415366   3.189   0.030   3.588 -0.0300 -0.4705  0.1481
 3899SOL     OW15367   4.417   2.313   5.188  0.0435 -0.3581 -0.0125
 3899SOL    HW215368   4.440   2.372   5.116  2.3808 -1.0610  0.0786
 3899SOL    HW315369   4.445   2.360   5.267  0.4575 -0.8959  0.1722
 3899SOL    MW415370   4.424   2.327   5.189 -0.5164 -0.6716 -0.1580
 3900SOL     OW15371   1.436   0.977   4.636  0.2101  0.4881  0.6404
 3900SOL    HW215372   1.491   0.997   4.712  0.0096 -0.9958  1.2178
 3900SOL    HW315373   1.397   0.892   4.657  1.4297 -0.7780 -1.8193
 3900SOL    MW415374   1.438   0.968   4.649 -0.6946  0.1659  0.0029
 3901SOL     OW15375   2.891   1.751   0.862 -0.1557  0.1335 -0.0129
 3901SOL    HW215376   2.885   1.847   0.859 -1.5506  0.1300  1.3162
 3901SOL    HW315377   2.849   1.727   0.944  1.4225 -1.5572  0.3777
 3901SOL    MW415378   2.885   1.761   0.872  1.1321  0.1488  0.4218
 3902SOL     OW15379   2.944   2.539   1.126 -0.2586 -0.8359  0.3735
 3902SOL    HW215380   2.904   2.464   1.170 -0.8221 -0.9759 -0.3794
 3902SOL    HW315381   3.020   2.561   1.181 -1.4775 -0.4071  1.9537
 3902SOL    MW415382   2.949   2.532   1.139 -0.1068  0.6645  0.7401
 3903SOL     OW15383   4.339   0.586   4.094  0.5392 -0.1096 -0.3360
 3903SOL    HW215384   4.340   0.659   4.155 -1.2160 -0.5680  0.2932
 3903SOL    HW315385   4.278   0.612   4.025  2.7787  0.5769 -2.2275
 3903SOL    MW415386   4.331   0.599   4.093  0.0364  0.1269  0.0679
 3904SOL     OW15387   2.408   5.655   3.804 -0.0572  0.0428 -0.5424
 3904SOL    HW215388   2.404   5.695   3.891  1.8358 -0.5650 -0.1136
 3904SOL    HW315389   2.500   5.662   3.780 -0.7190  1.1720 -3.0011
 3904SOL    MW415390   2.420   5.661   3.813  0.0964 -0.1122  0.2991
 3905SOL     OW15391   5.587   3.098   5.716  0.0172  0.4097 -0.2963
 3905SOL    HW215392   5.524   3.029   5.698  0.0722  0.5113 -0.9266
 3905SOL    HW315393   5.619   3.081   5.805 -1.7453  1.0391  0.4970
 3905SOL    MW415394   5.583   3.087   5.725 -0.0065  0.1653 -0.0912
 3906SOL     OW15395   6.370   3.472   5.511  0.0972  0.0816 -0.2006
 3906SOL    HW215396   6.432   3.499   5.443  0.5809  1.2136  0.6628
 3906SOL    HW315397   6.285   3.472   5.466  0.4739  0.3141 -0.9319
 3906SOL    MW415398   6.367   3.476   5.496 -0.1520 -0.1508  0.1788
 3907SOL     OW15399   2.300   3.106   5.091 -0.1006  0.2918  0.2818
 3907SOL    HW215400   2.287   3.167   5.019 -2.3959  1.1580  1.3242
 3907SOL    HW315401   2.292   3.019   5.051 -0.6788  0.7451 -0.6048
 3907SOL    MW415402   2.297   3.102   5.076  0.2706  0.1760  0.1183
 3908SOL     OW15403   4.166   5.521   3.688  0.0508 -0.3084  0.1077
 3908SOL    HW215404   4.148   5.438   3.732  0.9214 -0.4473  0.2291
 3908SOL    HW315405   4.212   5.573   3.754 -0.5277  0.2947  0.0460
 3908SOL    MW415406   4.170   5.517   3.703 -0.0295 -0.3053  0.5188
 3909SOL     OW15407   0.761   3.921   4.374  0.4857  0.1267  0.3430
 3909SOL    HW215408   0.699   3.868   4.423  0.2374  0.8226  0.7971
 3909SOL    HW315409   0.831   3.860   4.350  0.0424 -0.4745  0.5563
 3909SOL    MW415410   0.762   3.906   4.377  0.0096 -0.6096  0.0847
 3910SOL     OW15411   5.049   0.910   2.275 -0.0419 -0.2844  0.4221
 3910SOL    HW215412   5.091   0.825   2.264  0.1513 -0.3351  1.4547
 3910SOL    HW315413   4.958   0.889   2.293 -0.4026 -0.1951 -1.1951
 3910SOL    MW415414   5.043   0.896   2.276  1.2480  0.1273  0.0822
 3911SOL     OW15415   6.174   4.925   0.153 -0.1067  0.2150  0.0070
 3911SOL    HW215416   6.180   4.863   0.081  1.3418  1.3974 -0.9571
 3911SOL    HW315417   6.165   4.871   0.231 -0.1010 -1.1457 -0.9029
 3911SOL    MW415418   6.174   4.910   0.154 -0.5212  0.1979 -0.0217
 3912SOL     OW15419   0.235   4.766   1.848 -0.0568  0.0562  0.0755
 3912SOL    HW215420   0.147   4.727   1.851 -0.3194  0.6476  2.2617
 3912SOL    HW315421   0.242   4.803   1.760 -1.7224 -0.6277 -0.3853
 3912SOL    MW415422   0.224   4.766   1.837 -0.1521  0.6204 -0.5116
 3913SOL     OW15423   6.268   2.349   1.181 -0.1966 -0.0136 -0.4074
 3913SOL    HW215424   6.250   2.443   1.190 -1.8072 -0.1461 -1.7312
 3913SOL    HW315425   6.225   2.309   1.257 -0.2409  0.2444 -0.2949
 3913SOL    MW415426   6.260   2.356   1.192 -0.3349 -0.1077 -0.0403
 3914SOL     OW15427   3.477   3.420   1.214 -0.2430 -0.0750 -0.4365
 3914SOL    HW215428   3.548   3.360   1.240 -2.3888 -1.5188  2.8007
 3914SOL    HW315429   3.509   3.507   1.239  0.6315 -0.6291  0.4678
 3914SOL    MW415430   3.491   3.423   1.221 -0.7199 -0.1076  0.1408
 3915SOL     OW15431   5.275   4.756   3.635  0.5084 -0.1957  0.0370
 3915SOL    HW215432   5.202   4.775   3.694 -0.2113 -0.7408 -0.6473
 3915SOL    HW315433   5.327   4.836   3.634 -0.4869  0.4678 -0.0234
 3915SOL    MW415434   5.272   4.769   3.643  0.1177 -0.3607 -0.0618
 3916SOL     OW15435   6.239   2.730   4.974 -0.2490 -0.1262  0.2454
 3916SOL    HW215436   6.265   2.759   5.062  0.4033 -0.6046  0.2087
 3916SOL    HW315437   6.189   2.650   4.989  0.0727 -0.3411  0.1569
 3916SOL    MW415438   6.236   2.723   4.988  0.5439 -0.0868  0.0751
 3917SOL     OW15439   1.545   4.025   4.169  0.3131 -0.5703 -0.0750
 3917SOL    HW215440   1.610   4.073   4.221  1.4108 -0.5182 -1.4295
 3917SOL    HW315441   1.595   3.956   4.126 -0.2550  0.2508 -2.1665
 3917SOL    MW415442   1.560   4.023   4.170  0.7295 -0.2187  0.3315
 3918SOL     OW15443   3.863   3.335   0.080 -0.3206  0.3967  0.4174
 3918SOL    HW215444   3.788   3.395   0.071  1.3738  2.3396 -2.3622
 3918SOL    HW315445   3.936   3.392   0.104  1.0877 -0.7456 -0.9705
 3918SOL    MW415446   3.863   3.351   0.082  0.1256 -0.4810  0.1506
 3919SOL     OW15447   1.514   3.017   2.525  0.2027 -0.2352  0.5924
 3919SOL    HW215448   1.530   2.925   2.547 -0.8045 -0.1703  1.6875
 3919SOL    HW315449   1.600   3.058   2.531  0.9465 -1.3440 -1.3355
 3919SOL    MW415450   1.527   3.010   2.528 -0.2526  0.3019 -0.0220
 3920SOL     OW15451   3.344   0.814   4.967  0.4652  0.5791 -0.5878
 3920SOL    HW215452   3.283   0.875   4.926  3.1114  2.7680 -1.5691
 3920SOL    HW315453   3.369   0.856   5.049  0.5175 -0.4077 -0.0769
 3920SOL    MW415454   3.339   0.827   4.973  0.1440  0.0863  0.4502
 3921SOL     OW15455   4.189   4.725   3.293 -0.6909 -0.2082  0.0993
 3921SOL    HW215456   4.099   4.693   3.306 -0.7148 -0.7433 -1.2614
 3921SOL    HW315457   4.178   4.811   3.252 -0.5808  0.4768  1.4412
 3921SOL    MW415458   4.175   4.732   3.290  0.0851 -0.0968  0.2111
 3922SOL     OW15459   4.796   5.086   6.101 -0.3282  0.3878 -0.0992
 3922SOL    HW215460   4.780   5.001   6.140 -2.2021  1.1477  0.9174
 3922SOL    HW315461   4.833   5.067   6.015 -0.0921 -1.4127  0.3666
 3922SOL    MW415462   4.799   5.073   6.095  0.1477 -0.7634  0.5346
 3923SOL     OW15463   5.413   0.136   4.095  0.0537 -0.5122 -0.6252
 3923SOL    HW215464   5.324   0.169   4.108 -0.2190 -0.5861 -2.1146
 3923SOL    HW315465   5.412   0.048   4.133  0.0199  0.1274  0.9378
 3923SOL    MW415466   5.401   0.129   4.102 -1.0832  0.0782 -0.3228
 3924SOL     OW15467   3.497   3.142   0.094  0.0058 -0.1183  0.4176
 3924SOL    HW215468   3.506   3.111   0.184  0.1865 -3.7473 -0.6984
 3924SOL    HW315469   3.576   3.111   0.050  0.0498  1.8190 -1.0252
 3924SOL    MW415470   3.509   3.134   0.100  0.3322 -0.6021 -0.8492
 3925SOL     OW15471   2.677   0.179   1.856 -0.2801  0.2867 -0.1967
 3925SOL    HW215472   2.719   0.128   1.925 -0.4621 -2.0423 -1.6810
 3925SOL    HW315473   2.723   0.263   1.856  2.4306 -1.0985  0.1628
 3925SOL    MW415474   2.689   0.183   1.865 -0.3283 -0.1353 -0.4461
 3926SOL     OW15475   6.278   1.335   6.335 -0.1572  0.7158 -0.0271
 3926SOL    HW215476   6.212   1.402   6.322 -1.2191  0.0929  1.7722
 3926SOL    HW315477   6.360   1.383   6.346 -0.9190  1.7731  1.4180
 3926SOL    MW415478   6.280   1.350   6.335 -0.2133 -0.2525  0.2257
 3927SOL     OW15479   2.490   6.230   3.188  0.2346  0.0823  0.7276
 3927SOL    HW215480   2.411   6.273   3.222  0.0564 -0.0263  0.4596
 3927SOL    HW315481   2.559   6.296   3.195  0.0949  0.2135  0.8680
 3927SOL    MW415482   2.488   6.245   3.193  0.0264 -0.4707  0.1131
 3928SOL     OW15483   3.904   1.842   3.819  0.1542 -0.7732  0.2295
 3928SOL    HW215484   3.845   1.801   3.756 -1.6825 -0.1717  1.4872
 3928SOL    HW315485   3.897   1.936   3.801  0.2579 -0.6548  0.7992
 3928SOL    MW415486   3.896   1.849   3.808  0.2548  0.7483  0.7691
 3929SOL     OW15487   5.437   2.703   2.131 -0.1375  0.0724 -0.1816
 3929SOL    HW215488   5.479   2.618   2.118  1.1533  0.7798 -0.9437
 3929SOL    HW315489   5.455   2.751   2.050  0.7571  1.6937  0.9065
 3929SOL    MW415490   5.445   2.698   2.118 -0.7132  0.4524  0.1051
 3930SOL     OW15491   5.725   0.406   4.030 -0.4621  0.2108 -0.1652
 3930SOL    HW215492   5.663   0.405   4.103  0.2245  0.6095  0.4448
 3930SOL    HW315493   5.767   0.492   4.037  1.5670 -0.7842  0.6807
 3930SOL    MW415494   5.722   0.417   4.041  0.2352  0.0718 -0.0274
 3931SOL     OW15495   1.920   3.295   1.892 -0.2539 -0.7242  0.4698
 3931SOL    HW215496   1.899   3.279   1.800  2.6128 -0.1418 -0.3760
 3931SOL    HW315497   1.872   3.375   1.914  0.6185  0.3185 -1.2011
 3931SOL    MW415498   1.911   3.304   1.883 -0.3755  0.2659 -0.3834
 3932SOL     OW15499   3.677   3.264   1.328 -0.3504  0.0851 -0.1362
 3932SOL    HW215500   3.746   3.198   1.335 -1.1260 -0.7219  0.2057
 3932SOL    HW315501   3.721   3.347   1.344  0.5756 -0.3926 -0.1499
 3932SOL    MW415502   3.692   3.266   1.331  0.2790 -0.6616 -0.7745
 3933SOL     OW15503   1.591   0.697   4.756 -0.1202 -0.4380 -0.0136
 3933SOL    HW215504   1.602   0.699   4.851 -0.9739 -2.5367  0.1748
 3933SOL    HW315505   1.649   0.626   4.727  0.2377  0.2740 -1.0922
 3933SOL    MW415506   1.600   0.688   4.765 -0.1331 -0.0158 -0.1122
 3934SOL     OW15507   1.062   4.155   5.684  0.5514 -0.1015  0.3605
 3934SOL    HW215508   1.098   4.143   5.597  0.8127  0.4225  0.3989
 3934SOL    HW315509   1.004   4.079   5.696 -1.6854  1.2325 -1.3626
 3934SOL    MW415510   1.059   4.143   5.674  0.2419  0.9740 -0.5300
 3935SOL     OW15511   5.540   0.409   5.361 -0.4467 -0.0472 -0.6365
 3935SOL    HW215512   5.617   0.448   5.320 -0.5985 -0.5994 -1.4675
 3935SOL    HW315513   5.509   0.476   5.422  1.2297 -0.1716  0.4119
 3935SOL    MW415514   5.546   0.423   5.364  0.2767 -0.1700  0.1567
 3936SOL     OW15515   4.717   6.152   1.395  0.1619  0.2237  0.5826
 3936SOL    HW215516   4.777   6.105   1.338  1.9030  2.3649  0.5282
 3936SOL    HW315517   4.630   6.133   1.359  0.9108 -1.4418 -0.4730
 3936SOL    MW415518   4.713   6.143   1.382  0.2513  0.3461  0.0831
 3937SOL     OW15519   5.587   4.807   5.901 -0.1336 -0.3370  0.5622
 3937SOL    HW215520   5.582   4.712   5.897  1.3771 -0.7655  4.2432
 3937SOL    HW315521   5.510   4.833   5.951 -0.6537  0.4228 -0.6094
 3937SOL    MW415522   5.576   4.798   5.907  0.5774 -0.5232  0.4328
 3938SOL     OW15523   0.738   0.718   4.985  0.0909  0.1555  0.6418
 3938SOL    HW215524   0.786   0.729   4.903  0.4881  2.2635  1.1120
 3938SOL    HW315525   0.646   0.712   4.959  0.3365 -0.8084 -0.0477
 3938SOL    MW415526   0.732   0.718   4.971  0.1995 -0.2020  0.0879
 3939SOL     OW15527   2.844   5.465   5.422  0.1461 -0.2702  0.1519
 3939SOL    HW215528   2.843   5.374   5.393  0.0896 -0.5866  1.1387
 3939SOL    HW315529   2.835   5.461   5.517  0.4324  0.7561  0.2352
 3939SOL    MW415530   2.843   5.452   5.430  0.7117  0.5026 -0.1886
 3940SOL     OW15531   1.377   4.642   1.919  0.9486  0.4043  0.5255
 3940SOL    HW215532   1.445   4.637   1.986  3.0568  0.5599 -1.4982
 3940SOL    HW315533   1.424   4.643   1.836 -1.5527  0.2086 -1.0109
 3940SOL    MW415534   1.392   4.641   1.917 -0.3365 -0.3972 -0.0655
 3941SOL     OW15535   1.434   5.584   3.489 -0.1696 -0.4664  1.2197
 3941SOL    HW215536   1.349   5.624   3.473 -0.8241 -1.5571  1.8456
 3941SOL    HW315537   1.487   5.607   3.412 -1.1930 -0.2071  0.5800
 3941SOL    MW415538   1.430   5.592   3.476 -0.0751 -0.5529 -0.0557
 3942SOL     OW15539   3.273   4.833   5.636 -0.3881  0.4679 -0.6513
 3942SOL    HW215540   3.224   4.819   5.717  0.0703  0.2481 -0.4060
 3942SOL    HW315541   3.260   4.752   5.586  0.7901 -0.1372 -0.0136
 3942SOL    MW415542   3.265   4.820   5.640 -0.1324 -0.0047 -0.3054
 3943SOL     OW15543   5.502   4.629   2.482  0.1790  1.1248 -0.0019
 3943SOL    HW215544   5.411   4.601   2.474 -0.0202  1.1060  1.8579
 3943SOL    HW315545   5.533   4.635   2.392 -1.0013 -0.9844 -0.6284
 3943SOL    MW415546   5.494   4.626   2.469  0.2306 -0.3124  1.0670
 3944SOL     OW15547   4.835   3.226   5.956  0.1090  0.1783  0.2773
 3944SOL    HW215548   4.772   3.166   5.917  0.5322 -1.1984  1.6226
 3944SOL    HW315549   4.782   3.295   5.995 -0.5153 -0.4284  0.5152
 3944SOL    MW415550   4.820   3.227   5.956  0.4178  0.0425 -0.7364
 3945SOL     OW15551   0.230   1.821   4.044 -0.2524 -0.5329  0.5733
 3945SOL    HW215552   0.173   1.870   3.984 -0.1306 -1.3525 -0.2343
 3945SOL    HW315553   0.314   1.867   4.040 -1.1516  1.4693  2.7673
 3945SOL    MW415554   0.234   1.834   4.036 -0.9075  0.6974  0.2604
 3946SOL     OW15555   1.170   4.907   5.231 -0.1418  0.1534  0.3236
 3946SOL    HW215556   1.108   4.852   5.184 -0.9836  0.9483  0.4726
 3946SOL    HW315557   1.117   4.979   5.266  1.1479  2.1887 -1.5725
 3946SOL    MW415558   1.155   4.909   5.229 -0.1911  0.2867 -0.7371
 3947SOL     OW15559   1.449   3.987   4.486  0.3946  0.0947 -0.3783
 3947SOL    HW215560   1.530   4.009   4.441  0.4164 -0.0247 -0.3971
 3947SOL    HW315561   1.380   4.011   4.425  0.4374 -0.6407 -0.7294
 3947SOL    MW415562   1.451   3.993   4.472  0.0259 -0.6555  0.1173
 3948SOL     OW15563   4.309   5.704   3.438  0.2300  0.1078  0.0801
 3948SOL    HW215564   4.331   5.633   3.498  2.1916  0.3086 -0.3089
 3948SOL    HW315565   4.361   5.686   3.360 -0.5985  1.0181 -0.7013
 3948SOL    MW415566   4.319   5.693   3.436 -0.8332  0.1291 -0.1641
 3949SOL     OW15567   6.342   4.856   0.826  0.1290 -0.4636 -0.4878
 3949SOL    HW215568   6.285   4.886   0.756  0.6672  0.6665 -0.4609
 3949SOL    HW315569   6.415   4.813   0.782  0.2318 -0.1695 -0.6064
 3949SOL    MW415570   6.344   4.854   0.811 -0.2250  0.1155  0.0038
 3950SOL     OW15571   0.887   2.381   1.964 -0.0759  0.2292  0.1162
 3950SOL    HW215572   0.848   2.348   1.883 -0.4578 -1.4851  0.9700
 3950SOL    HW315573   0.869   2.475   1.962 -2.6355 -0.2110 -0.4350
 3950SOL    MW415574   0.880   2.389   1.953  0.5802  0.1523  0.0848
 3951SOL     OW15575   0.909   6.095   4.530 -0.1159 -0.3488 -0.0875
 3951SOL    HW215576   0.994   6.065   4.498 -0.1092  0.4784 -0.8751
 3951SOL    HW315577   0.875   6.020   4.579  1.2002 -0.5834  0.5249
 3951SOL    MW415578   0.916   6.081   4.532 -0.1743  0.6232  0.2856
 3952SOL     OW15579   2.088   0.956   1.438 -0.3900 -0.2805  0.1846
 3952SOL    HW215580   2.105   1.046   1.464 -1.2233 -0.3282  0.9248
 3952SOL    HW315581   2.096   0.957   1.342 -1.1092  0.7391  0.1270
 3952SOL    MW415582   2.091   0.968   1.428  0.0165 -0.1136 -0.4363
 3953SOL     OW15583   0.013   0.154   1.504  0.2715  0.6154  0.0599
 3953SOL    HW215584   0.075   0.143   1.576  0.0209 -3.2656 -0.1263
 3953SOL    HW315585  -0.070   0.125   1.540 -0.0583 -0.4200 -1.4537
 3953SOL    MW415586   0.011   0.149   1.518  0.6900 -0.1297  0.5812
 3954SOL     OW15587   1.707   0.610   6.337 -0.0075  0.2910  0.7464
 3954SOL    HW215588   1.739   0.552   6.406 -2.4933  0.2074  1.9207
 3954SOL    HW315589   1.698   0.553   6.261  0.5248 -0.1434  0.9965
 3954SOL    MW415590   1.710   0.595   6.336 -0.2864 -0.0261 -0.3903
 3955SOL     OW15591   0.497   3.070   0.063 -0.0803 -0.0747 -0.0770
 3955SOL    HW215592   0.571   3.076   0.123 -1.3042  1.0469  1.4059
 3955SOL    HW315593   0.433   3.133   0.096 -2.1206 -1.6603 -0.7239
 3955SOL    MW415594   0.498   3.079   0.075 -0.0372  0.1350 -0.5075
 3956SOL     OW15595   4.562   1.304   2.502 -0.1180 -0.1524  0.2129
 3956SOL    HW215596   4.638   1.340   2.547  0.0206 -1.4517  1.0963
 3956SOL    HW315597   4.498   1.374   2.503  1.1715  1.0915 -0.8629
 3956SOL    MW415598   4.564   1.318   2.508 -0.0476 -0.2560 -0.6033
 3957SOL     OW15599   5.831   2.495   5.460 -0.7925  0.1475 -0.7643
 3957SOL    HW215600   5.920   2.503   5.427 -0.4688  2.0345  0.4307
 3957SOL    HW315601   5.806   2.584   5.486 -1.6515 -0.8835  2.3475
 3957SOL    MW415602   5.839   2.508   5.459 -0.4426 -0.6519  0.0811
 3958SOL     OW15603   2.079   4.957   5.288 -0.0867 -0.5286 -0.4827
 3958SOL    HW215604   2.062   4.926   5.377  1.7420  1.4524  0.6510
 3958SOL    HW315605   2.175   4.956   5.280 -0.0649  1.9493 -1.3819
 3958SOL    MW415606   2.089   4.952   5.298  0.2721 -0.2574  0.4276
 3959SOL     OW15607   4.258   3.234   5.509 -0.4301 -0.2270  0.5747
 3959SOL    HW215608   4.343   3.278   5.512  1.1267 -2.9969  0.6599
 3959SOL    HW315609   4.234   3.221   5.601  0.8284 -2.4432  0.6561
 3959SOL    MW415610   4.266   3.238   5.522 -0.7230  0.1426 -0.3369
 3960SOL     OW15611   4.485   1.672   1.141  0.1424  0.0756 -0.1599
 3960SOL    HW215612   4.413   1.687   1.203 -0.7506  0.1256 -1.1894
 3960SOL    HW315613   4.535   1.600   1.180 -1.3928 -1.0609 -0.2096
 3960SOL    MW415614   4.482   1.664   1.154  0.2782  0.1119  0.1070
 3961SOL     OW15615   0.076   2.216   1.583 -0.1622  0.1646 -0.0927
 3961SOL    HW215616   0.111   2.163   1.655  1.7844  1.0269 -0.3230
 3961SOL    HW315617   0.047   2.297   1.625  2.8194  1.5131 -0.3789
 3961SOL    MW415618   0.077   2.220   1.598 -0.0543  0.7422 -0.3327
 3962SOL     OW15619   5.099   3.706   4.493  0.3432  0.0671 -1.0011
 3962SOL    HW215620   5.154   3.697   4.571  0.0930  0.2755 -0.7969
 3962SOL    HW315621   5.157   3.687   4.420  0.5201 -0.3751 -0.7482
 3962SOL    MW415622   5.114   3.702   4.494  0.3804  0.1192 -0.3508
 3963SOL     OW15623   2.509   5.595   3.394 -0.0585  0.5199  0.8793
 3963SOL    HW215624   2.543   5.515   3.434 -0.8875  0.0899  0.7378
 3963SOL    HW315625   2.534   5.588   3.301  0.0615  0.5373  0.9096
 3963SOL    MW415626   2.517   5.584   3.387 -0.0024 -0.3147 -0.2207
 3964SOL     OW15627   3.231   0.221   1.200  0.3805  0.5079  0.0780
 3964SOL    HW215628   3.169   0.229   1.272 -0.6186 -0.4771 -0.6472
 3964SOL    HW315629   3.252   0.128   1.196 -0.0506  0.4435 -1.2829
 3964SOL    MW415630   3.226   0.210   1.209  0.3003 -0.0460 -0.1175
 3965SOL     OW15631   6.334   1.483   1.815  0.4558 -0.0516  0.3256
 3965SOL    HW215632   6.348   1.498   1.909 -0.7320 -0.9128  0.6658
 3965SOL    HW315633   6.407   1.429   1.788  0.5265 -0.2451  0.8817
 3965SOL    MW415634   6.346   1.478   1.824 -0.0802  0.1024  0.6007
 3966SOL     OW15635   5.300   2.971   5.528  0.2245  0.3724  0.0703
 3966SOL    HW215636   5.243   2.930   5.463 -1.0146 -0.0966  1.3972
 3966SOL    HW315637   5.358   2.900   5.557  1.6676  0.8866 -1.3943
 3966SOL    MW415638   5.300   2.956   5.523  0.2557  0.4932  0.3153
 3967SOL     OW15639   3.934   1.267   0.900 -0.5132  0.6799 -0.2563
 3967SOL    HW215640   3.942   1.179   0.862 -1.1806  0.7117 -0.4758
 3967SOL    HW315641   3.997   1.319   0.851  0.4441  0.1663  0.3852
 3967SOL    MW415642   3.944   1.262   0.888  0.1437  0.1423  0.4154
 3968SOL     OW15643   1.865   0.232   0.126  0.1906  0.1897  0.4034
 3968SOL    HW215644   1.916   0.190   0.195 -0.5941 -0.4564  0.6036
 3968SOL    HW315645   1.916   0.219   0.047  0.2839 -0.5587  0.5812
 3968SOL    MW415646   1.878   0.225   0.125 -0.3364  0.2213  0.4062
 3969SOL     OW15647   0.153   1.957   5.101 -0.0153  0.5707  0.3484
 3969SOL    HW215648   0.071   1.942   5.055 -0.9356 -2.4078  2.6141
 3969SOL    HW315649   0.128   1.973   5.192  1.8633  1.3300  0.7915
 3969SOL    MW415650   0.139   1.957   5.107  0.5100 -0.1293  0.4714
 3970SOL     OW15651   5.045   4.082   6.279  0.3032  0.0576  0.1481
 3970SOL    HW215652   5.057   3.994   6.314 -0.9318 -0.6105 -1.0147
 3970SOL    HW315653   5.044   4.070   6.184 -2.2374  0.9354 -0.0144
 3970SOL    MW415654   5.046   4.069   6.271 -0.2346  0.2195 -0.0307
 3971SOL     OW15655   0.790   0.442   5.276 -0.1529 -0.0542  0.1917
 3971SOL    HW215656   0.716   0.458   5.335  0.1784  0.1394  0.5505
 3971SOL    HW315657   0.865   0.429   5.333  0.4661  1.5780 -0.2057
 3971SOL    MW415658   0.790   0.442   5.291 -0.3869 -0.5151 -0.4049
 3972SOL     OW15659   0.527   1.017   1.270  0.6858  0.1687  0.0414
 3972SOL    HW215660   0.519   0.929   1.233  0.9989  0.4115 -0.6186
 3972SOL    HW315661   0.438   1.051   1.270  0.3394 -0.6432  1.5789
 3972SOL    MW415662   0.514   1.010   1.265  0.7018 -0.3914  0.7940
 3973SOL     OW15663   2.486   3.409   0.572  0.0461 -0.4925 -0.2632
 3973SOL    HW215664   2.474   3.439   0.482 -1.0135  0.7369  0.2596
 3973SOL    HW315665   2.484   3.489   0.624 -0.9070 -1.3162  1.0031
 3973SOL    MW415666   2.485   3.423   0.567 -0.0152  0.3260  0.1355
 3974SOL     OW15667   1.563   3.496   3.563  1.0791  0.1986 -0.0628
 3974SOL    HW215668   1.645   3.479   3.610 -0.0180  1.9036  2.7292
 3974SOL    HW315669   1.562   3.591   3.550 -0.0797  0.1001 -0.8104
 3974SOL    MW415670   1.574   3.506   3.567  0.1229  0.6824  0.5498
 3975SOL     OW15671   3.665   5.379   6.188 -0.0977 -0.6907 -0.6317
 3975SOL    HW215672   3.595   5.322   6.220 -0.7431  0.5400  0.2682
 3975SOL    HW315673   3.658   5.375   6.093 -0.5096 -1.6418 -0.5694
 3975SOL    MW415674   3.654   5.371   6.180  0.5931  0.2783 -0.0515
 3976SOL     OW15675   2.656   5.064   5.947  0.1758  0.2322 -0.1814
 3976SOL    HW215676   2.644   5.014   6.027  0.8822  0.2826 -0.0430
 3976SOL    HW315677   2.576   5.116   5.939  0.7039  1.3276  1.2688
 3976SOL    MW415678   2.644   5.064   5.956  0.7885  0.2251  0.3351
 3977SOL     OW15679   1.382   1.709   4.709 -0.1254 -0.3155  0.1904
 3977SOL    HW215680   1.288   1.691   4.706 -0.1700 -0.1011  0.2446
 3977SOL    HW315681   1.394   1.786   4.652  0.1081 -0.7109 -0.3015
 3977SOL    MW415682   1.371   1.717   4.701 -0.7318  0.2344 -0.0162
 3978SOL     OW15683   1.252   1.752   5.102  0.0440  0.9407  0.1122
 3978SOL    HW215684   1.176   1.699   5.130 -0.4669  1.8908  0.5682
 3978SOL    HW315685   1.310   1.689   5.060 -1.4702  0.3531 -1.2026
 3978SOL    MW415686   1.249   1.737   5.100  0.3863  0.2545 -0.4646
 3979SOL     OW15687   3.280   2.989   5.020 -0.4018  0.5728  0.5549
 3979SOL    HW215688   3.197   3.035   5.016  0.3145  1.8202 -1.4756
 3979SOL    HW315689   3.346   3.058   5.023  0.5977 -0.3799  1.5220
 3979SOL    MW415690   3.278   3.004   5.020 -0.1123 -0.0056 -0.2054
 3980SOL     OW15691   1.514   2.517   3.081 -0.0218  0.8131  0.1085
 3980SOL    HW215692   1.440   2.567   3.117  0.3794 -0.1762  2.5245
 3980SOL    HW315693   1.584   2.582   3.072 -0.6787  1.4390 -0.6337
 3980SOL    MW415694   1.513   2.532   3.085 -0.1161 -0.1511  0.0669
 3981SOL     OW15695   5.743   2.550   0.195  0.4500  0.0364 -0.6714
 3981SOL    HW215696   5.762   2.507   0.111 -2.2934 -1.7401 -0.4924
 3981SOL    HW315697   5.829   2.557   0.238  1.4323 -2.8602 -1.8847
 3981SOL    MW415698   5.757   2.545   0.189  0.0976  0.3762 -0.5689
 3982SOL     OW15699   3.485   0.427   3.727  0.1902  0.4811  0.0878
 3982SOL    HW215700   3.479   0.515   3.764  2.0177  0.5401  0.3461
 3982SOL    HW315701   3.559   0.387   3.772  1.1284 -0.2132 -1.9379
 3982SOL    MW415702   3.494   0.433   3.738 -0.2344 -0.0521  0.5474
 3983SOL     OW15703   2.118   6.229   1.855  0.1870  0.7234  0.0986
 3983SOL    HW215704   2.077   6.275   1.928 -0.1820  1.4551 -0.5707
 3983SOL    HW315705   2.187   6.288   1.824  0.5114  0.3063  0.0010
 3983SOL    MW415706   2.122   6.243   1.861  0.1209 -0.0567  0.1713
 3984SOL     OW15707   5.107   0.339   3.339 -0.3798  0.0129 -0.5169
 3984SOL    HW215708   5.021   0.378   3.329 -0.6743 -0.4243  0.2255
 3984SOL    HW315709   5.107   0.303   3.428  0.8012  0.5922 -0.2618
 3984SOL    MW415710   5.096   0.340   3.349  0.3252 -0.5007  0.1402
 3985SOL     OW15711   2.196   3.586   0.437  0.1944  0.1470  0.3541
 3985SOL    HW215712   2.137   3.643   0.388  0.4932  2.2620  2.2874
 3985SOL    HW315713   2.284   3.617   0.415  0.3800  0.1657  1.0717
 3985SOL    MW415714   2.200   3.598   0.428  1.0022  0.9646 -0.1426
 3986SOL     OW15715   4.410   4.803   4.210 -0.0061 -0.2261  0.2846
 3986SOL    HW215716   4.424   4.845   4.126  0.6196 -0.5748  0.2075
 3986SOL    HW315717   4.458   4.720   4.204 -1.0516 -0.8763  0.4972
 3986SOL    MW415718   4.418   4.798   4.198 -0.7083 -0.5101  0.0991
 3987SOL     OW15719   1.138   3.728   0.985  0.2590 -0.2626 -0.5750
 3987SOL    HW215720   1.042   3.731   0.978  0.1552 -0.4429  0.5741
 3987SOL    HW315721   1.162   3.645   0.946 -0.0436 -0.1437 -1.0180
 3987SOL    MW415722   1.128   3.717   0.979  0.3113  0.2696  0.0820
 3988SOL     OW15723   5.281   4.859   2.433  0.0616  0.2132  0.7924
 3988SOL    HW215724   5.263   4.765   2.430  2.9994 -0.5226  2.4951
 3988SOL    HW315725   5.284   4.879   2.527  1.9613  1.4053  0.5321
 3988SOL    MW415726   5.279   4.849   2.445  0.3174  0.3037  0.1499
 3989SOL     OW15727   5.248   4.914   4.416 -0.5173 -0.1181  0.2516
 3989SOL    HW215728   5.300   4.836   4.399  0.3349  0.3741  0.5800
 3989SOL    HW315729   5.209   4.899   4.502  1.4876  0.7779  1.3795
 3989SOL    MW415730   5.249   4.902   4.425 -0.4140 -0.8296 -0.2677
 3990SOL     OW15731   6.301   5.722   0.694  0.2483  0.1030  0.4738
 3990SOL    HW215732   6.353   5.643   0.681 -1.7481 -1.6398  2.1854
 3990SOL    HW315733   6.342   5.766   0.768  1.3588  0.6925 -0.4733
 3990SOL    MW415734   6.313   5.718   0.702  0.5790  0.1504 -0.3793
 3991SOL     OW15735   4.454   5.972   3.115  0.2020 -0.2666  0.1197
 3991SOL    HW215736   4.427   6.007   3.200 -1.0297 -1.1398  0.1063
 3991SOL    HW315737   4.397   6.015   3.052  1.4085  0.7178 -0.3627
 3991SOL    MW415738   4.443   5.982   3.118  0.3473 -0.3675  0.3162
 3992SOL     OW15739   1.763   3.532   1.571  0.2357 -0.3112  0.0153
 3992SOL    HW215740   1.814   3.453   1.587  1.0328  0.1833 -0.0509
 3992SOL    HW315741   1.673   3.501   1.564  0.4439 -1.1257  0.7242
 3992SOL    MW415742   1.758   3.518   1.572 -0.0429 -1.0518  0.0113
 3993SOL     OW15743   2.471   2.157   2.308  0.7842 -0.0599  0.0588
 3993SOL    HW215744   2.533   2.163   2.381  1.2725 -0.7201 -0.2933
 3993SOL    HW315745   2.489   2.236   2.255  2.4379 -1.0098 -0.8827
 3993SOL    MW415746   2.482   2.168   2.310  0.2968  0.3577  0.1424
 3994SOL     OW15747   3.274   4.502   2.581  0.7790 -0.4523 -0.6351
 3994SOL    HW215748   3.280   4.479   2.674  2.0555 -1.1249 -0.8570
 3994SOL    HW315749   3.312   4.589   2.576 -0.0571 -0.0697 -0.4142
 3994SOL    MW415750   3.280   4.510   2.593  0.4973 -0.3408  0.0666
 3995SOL     OW15751   1.095   4.660   1.956  0.5791  0.5897  0.3746
 3995SOL    HW215752   1.105   4.603   2.032  0.3087 -0.1715 -0.1575
 3995SOL    HW315753   1.181   4.658   1.913  0.7049  0.9495  0.6007
 3995SOL    MW415754   1.108   4.653   1.960 -0.0038 -0.5359 -0.1768
 3996SOL     OW15755   4.142   4.270   2.695 -0.5778  0.3791 -0.0284
 3996SOL    HW215756   4.114   4.276   2.787  0.3852 -1.5829  0.4553
 3996SOL    HW315757   4.077   4.212   2.655 -0.8336  1.0048 -0.5316
 3996SOL    MW415758   4.130   4.263   2.702 -0.3785  0.4581  0.4726
 3997SOL     OW15759   0.694   1.515   3.353 -0.4691  0.1161 -0.0973
 3997SOL    HW215760   0.771   1.546   3.304  0.4716  0.1415  1.3478
 3997SOL    HW315761   0.730   1.466   3.426 -1.8659 -0.4456  0.2431
 3997SOL    MW415762   0.709   1.513   3.356  0.1414 -0.2938  0.2387
 3998SOL     OW15763   4.413   1.899   2.819 -0.0559 -0.0951 -0.0775
 3998SOL    HW215764   4.479   1.890   2.751  2.0747 -1.0349  1.9648
 3998SOL    HW315765   4.399   1.993   2.827  2.2104  0.2683  0.4010
 3998SOL    MW415766   4.420   1.910   2.811 -0.2863  0.0362  0.0201
 3999SOL     OW15767   1.121   4.177   4.613 -0.0141 -0.3719 -0.0311
 3999SOL    HW215768   1.025   4.183   4.609 -0.0098 -0.2186  0.0998
 3999SOL    HW315769   1.148   4.258   4.655  0.2897  0.4686 -1.7374
 3999SOL    MW415770   1.112   4.189   4.618 -0.3399 -0.4609 -0.5125
 4000SOL     OW15771   1.811   3.120   2.054 -0.1630 -0.3049  0.3388
 4000SOL    HW215772   1.852   3.187   1.999  0.6247  2.5940  4.0182
 4000SOL    HW315773   1.868   3.044   2.047  1.1628  0.7758 -1.0177
 4000SOL    MW415774   1.824   3.119   2.046  0.4670 -0.4439 -0.0288
 4001SOL     OW15775   5.318   3.863   3.232  0.1464 -0.1695  0.1204
 4001SOL    HW215776   5.286   3.777   3.261  0.4627 -0.4053 -0.2250
 4001SOL    HW315777   5.250   3.895   3.173  0.5600 -0.6951 -0.6578
 4001SOL    MW415778   5.304   3.856   3.228  0.1638  0.4087  0.4593
 4002SOL     OW15779   6.420   4.333   2.279  0.1212  0.5246  0.5528
 4002SOL    HW215780   6.420   4.428   2.288 -0.8547  0.6442 -0.4963
 4002SOL    HW315781   6.346   4.304   2.332  0.3002  0.3644  0.7159
 4002SOL    MW415782   6.410   4.341   2.287 -0.0819 -0.0094  0.1190
 4003SOL     OW15783   1.334   4.546   2.350  0.2460  0.0490  0.1010
 4003SOL    HW215784   1.399   4.514   2.411  2.7952  0.0517 -2.3951
 4003SOL    HW315785   1.327   4.640   2.368  1.1435  0.0923  0.2401
 4003SOL    MW415786   1.341   4.554   2.360  0.2801 -0.1387  0.0730
 4004SOL     OW15787   1.321   5.122   5.445  0.0718  0.0629 -0.5195
 4004SOL    HW215788   1.352   5.212   5.442 -2.4681  1.1452  1.3668
 4004SOL    HW315789   1.233   5.125   5.406 -0.0895 -1.5794 -0.3696
 4004SOL    MW415790   1.313   5.134   5.440 -0.3321  0.4104  0.4396
 4005SOL     OW15791   6.035   3.414   6.383  0.1325 -1.2407 -0.2494
 4005SOL    HW215792   5.951   3.446   6.415  1.2751 -0.0703  1.7689
 4005SOL    HW315793   6.066   3.355   6.451  2.0773  0.3511  0.3384
 4005SOL    MW415794   6.028   3.410   6.396  0.1587  0.2528 -0.3771
 4006SOL     OW15795   5.154   2.736   4.097 -0.2099 -0.1383 -0.2483
 4006SOL    HW215796   5.222   2.803   4.102 -0.0944 -0.2447 -0.3756
 4006SOL    HW315797   5.157   2.704   4.007 -1.1540  0.5952 -0.5560
 4006SOL    MW415798   5.163   2.741   4.086  0.2014  0.3131  0.0480
 4007SOL     OW15799   3.628   4.547   2.594 -0.8456  0.0101 -0.1487
 4007SOL    HW215800   3.691   4.585   2.533  3.3032 -1.0320  2.9749
 4007SOL    HW315801   3.580   4.483   2.542  1.3656  0.2000 -2.6662
 4007SOL    MW415802   3.630   4.544   2.579 -0.4350 -0.3069 -0.4521
 4008SOL     OW15803   3.120   6.186   0.130 -0.0727 -0.2262  0.3527
 4008SOL    HW215804   3.058   6.126   0.089  0.1201 -0.8460  0.9365
 4008SOL    HW315805   3.205   6.141   0.123  0.1104  0.0760  0.5970
 4008SOL    MW415806   3.123   6.172   0.124  0.1113  0.1565 -0.0194
 4009SOL     OW15807   5.440   4.619   1.270  0.3489  0.0316 -0.1990
 4009SOL    HW215808   5.528   4.595   1.298  0.1836  1.8853  2.3007
 4009SOL    HW315809   5.440   4.715   1.271 -1.8984  0.0870  0.7474
 4009SOL    MW415810   5.452   4.628   1.274  0.3595  0.3239 -0.1934
 4010SOL     OW15811   4.711   2.255   1.053  0.5878  0.5442 -0.0612
 4010SOL    HW215812   4.688   2.193   0.985  1.8693  0.4376 -0.4114
 4010SOL    HW315813   4.641   2.246   1.118  1.1559 -1.8439  0.2894
 4010SOL    MW415814   4.699   2.246   1.053 -0.5928  0.3071 -0.4358
 4011SOL     OW15815   2.645   1.459   0.258  0.2257 -0.2220 -0.3821
 4011SOL    HW215816   2.576   1.475   0.193 -0.0882 -0.5655 -0.1407
 4011SOL    HW315817   2.599   1.461   0.342  0.3802 -1.1895 -0.2703
 4011SOL    MW415818   2.630   1.462   0.260 -0.2027 -0.0324 -0.6974
 4012SOL     OW15819   0.176   2.812   5.868  0.1239 -0.0223  0.0530
 4012SOL    HW215820   0.141   2.807   5.957  0.6613  0.5946  0.3136
 4012SOL    HW315821   0.223   2.896   5.866 -0.6310  0.4007 -1.0882
 4012SOL    MW415822   0.178   2.823   5.880  0.0348 -0.5775 -0.1078
 4013SOL     OW15823   0.515   4.783   5.878 -0.1567 -0.0725 -0.1802
 4013SOL    HW215824   0.570   4.728   5.823 -0.1367  0.0187 -0.2518
 4013SOL    HW315825   0.576   4.829   5.935 -0.2746 -1.5509  1.2226
 4013SOL    MW415826   0.530   4.782   5.878  0.4322  0.4029 -0.2868
 4014SOL     OW15827   4.216   3.693   2.454  0.1442  0.2241 -0.3269
 4014SOL    HW215828   4.185   3.616   2.408  0.2005  0.1285 -0.2051
 4014SOL    HW315829   4.172   3.690   2.539  1.0445 -0.3083  0.1304
 4014SOL    MW415830   4.206   3.683   2.459  0.5715 -0.0427 -0.1138
 4015SOL     OW15831   0.408   3.205   2.641  0.2923 -0.3983  0.0068
 4015SOL    HW215832   0.321   3.235   2.668  0.8900  0.9922  0.4576
 4015SOL    HW315833   0.391   3.121   2.598 -1.6624  1.0920 -2.4555
 4015SOL    MW415834   0.394   3.198   2.639  0.2527  0.0984 -0.4475
 4016SOL     OW15835   3.224   3.805   5.120  0.4170 -0.2852 -0.1732
 4016SOL    HW215836   3.199   3.743   5.052 -0.6139  0.0366 -0.1033
 4016SOL    HW315837   3.172   3.780   5.196 -0.3248  0.8969 -0.2647
 4016SOL    MW415838   3.214   3.794   5.121  0.1448  0.3192  0.3283
 4017SOL     OW15839   1.052   1.426   3.413  0.0808 -0.1709  0.3381
 4017SOL    HW215840   1.002   1.501   3.381 -0.1721  0.0936  1.2953
 4017SOL    HW315841   1.129   1.422   3.357 -0.8361 -0.3642 -0.9401
 4017SOL    MW415842   1.055   1.436   3.402 -0.2012  0.1525  0.0823
 4018SOL     OW15843   2.948   0.486   5.475 -0.0441 -0.0525 -0.3264
 4018SOL    HW215844   3.004   0.501   5.399 -0.4278  0.9276 -0.4267
 4018SOL    HW315845   2.862   0.467   5.438 -0.6232  1.9919 -0.1678
 4018SOL    MW415846   2.944   0.485   5.460  0.5290  0.1327  0.3145
 4019SOL     OW15847   2.113   5.221   5.362 -0.0001 -0.2825  0.4400
 4019SOL    HW215848   2.106   5.129   5.340 -0.7867 -0.0861 -0.1937
 4019SOL    HW315849   2.060   5.266   5.296  1.5860  0.7568 -0.1898
 4019SOL    MW415850   2.105   5.215   5.351  0.1647 -0.5853 -0.2434
 4020SOL     OW15851   2.310   1.279   0.370  0.4138 -0.0263  0.5183
 4020SOL    HW215852   2.265   1.317   0.446  0.0233 -0.5036  0.5301
 4020SOL    HW315853   2.392   1.244   0.406  0.3153 -0.0840  0.6859
 4020SOL    MW415854   2.315   1.279   0.385 -0.2702 -0.5373  0.0265
 4021SOL     OW15855   4.318   2.335   2.642 -0.1880  0.2983  0.1265
 4021SOL    HW215856   4.358   2.295   2.564  0.0420  0.2410  0.2732
 4021SOL    HW315857   4.349   2.425   2.641  1.8881 -0.3378  1.5271
 4021SOL    MW415858   4.327   2.341   2.631 -0.4433  1.0372  0.8422
 4022SOL     OW15859   4.012   0.750   0.849 -0.1471  0.1987 -0.0478
 4022SOL    HW215860   3.997   0.664   0.810 -0.4933  0.1679  0.1573
 4022SOL    HW315861   3.974   0.812   0.786 -0.2509  0.1804 -0.0018
 4022SOL    MW415862   4.005   0.747   0.835  0.1583 -0.1888  0.5143
 4023SOL     OW15863   1.352   1.484   2.914 -0.5574  0.5250 -0.7853
 4023SOL    HW215864   1.416   1.546   2.949  1.3706 -0.4207 -2.4749
 4023SOL    HW315865   1.304   1.453   2.991 -0.4591  2.8416  0.2763
 4023SOL    MW415866   1.354   1.488   2.929  0.2934 -0.1132  0.0665
 4024SOL     OW15867   3.652   3.724   5.638 -0.6064  0.2716  0.0058
 4024SOL    HW215868   3.723   3.680   5.684 -0.7021  0.9418  0.8204
 4024SOL    HW315869   3.630   3.799   5.693  0.4771  2.1730 -1.9655
 4024SOL    MW415870   3.658   3.728   5.651  0.1462 -0.2863 -0.2709
 4025SOL     OW15871   3.224   0.530   2.076 -0.4158  0.3200 -0.3750
 4025SOL    HW215872   3.188   0.448   2.041 -1.1179  0.6800 -0.5120
 4025SOL    HW315873   3.310   0.537   2.034 -0.4480 -0.2259 -0.5478
 4025SOL    MW415874   3.231   0.520   2.066 -0.3243  0.0153  0.7672
 4026SOL     OW15875   5.204   4.776   4.670 -0.0424  0.0523  0.2326
 4026SOL    HW215876   5.176   4.691   4.637 -0.0924  0.4070 -0.6686
 4026SOL    HW315877   5.220   4.762   4.763 -0.9521 -0.7135  0.2801
 4026SOL    MW415878   5.203   4.763   4.678 -0.6250 -0.7805  0.2782
 4027SOL     OW15879   0.563   0.969   1.558 -0.0563  0.1420 -0.0115
 4027SOL    HW215880   0.557   0.994   1.466  1.0271 -1.7050 -0.6219
 4027SOL    HW315881   0.603   1.045   1.601  1.9518  0.0241 -1.5657
 4027SOL    MW415882   0.568   0.982   1.552 -0.2832 -0.2438  0.5123
 4028SOL     OW15883   4.129   2.471   4.944 -0.3161 -0.2159  0.6595
 4028SOL    HW215884   4.222   2.463   4.967  0.1896  1.7279 -0.4484
 4028SOL    HW315885   4.115   2.405   4.876  0.5274  0.0824  0.1768
 4028SOL    MW415886   4.140   2.462   4.938 -0.4032  0.2257  0.2677
 4029SOL     OW15887   3.068   3.726   4.516  0.7510 -0.1460  0.3546
 4029SOL    HW215888   3.071   3.632   4.499 -0.5536  0.1572 -1.8907
 4029SOL    HW315889   3.138   3.762   4.461  1.8603  0.1780  1.8943
 4029SOL    MW415890   3.078   3.718   4.507  0.1617 -0.0210  0.3698
 4030SOL     OW15891   0.448   4.747   5.427  0.5457  0.0930 -0.3158
 4030SOL    HW215892   0.508   4.673   5.437  2.2023  0.7201 -4.0421
 4030SOL    HW315893   0.498   4.823   5.456  0.5778  0.2769 -0.8335
 4030SOL    MW415894   0.462   4.747   5.432  0.5396 -0.2342 -0.4542
 4031SOL     OW15895   0.735   3.102   4.874 -0.1049  0.1332 -0.5847
 4031SOL    HW215896   0.639   3.103   4.883 -0.2303 -0.0208 -1.6802
 4031SOL    HW315897   0.764   3.032   4.933 -0.7473 -0.3102 -0.7745
 4031SOL    MW415898   0.726   3.093   4.883 -0.0199 -0.6870  0.1130
 4032SOL     OW15899   0.149   4.174   4.867  0.6404 -0.0100 -0.8310
 4032SOL    HW215900   0.169   4.233   4.795  4.7995  1.9784  1.6011
 4032SOL    HW315901   0.111   4.230   4.935  1.0835 -0.8849  0.1638
 4032SOL    MW415902   0.147   4.189   4.866 -0.9236 -0.1250 -0.6222
 4033SOL     OW15903   1.791   5.010   3.639  0.1887  0.0276  0.2888
 4033SOL    HW215904   1.850   4.959   3.583  0.9241  0.7944  0.3465
 4033SOL    HW315905   1.718   5.034   3.582 -0.6578 -1.8838  0.5092
 4033SOL    MW415906   1.789   5.007   3.624  0.0095 -0.4308 -0.3267
 4034SOL     OW15907   2.739   4.231   5.530  0.5521 -0.0990 -0.2838
 4034SOL    HW215908   2.833   4.240   5.515  0.5576 -1.5903 -1.3374
 4034SOL    HW315909   2.714   4.155   5.479 -0.8788 -0.9238  1.5420
 4034SOL    MW415910   2.748   4.222   5.521 -0.0343  0.3568  0.2232
 4035SOL     OW15911   2.394   5.036   2.040 -0.0096  0.0159 -0.1159
 4035SOL    HW215912   2.354   5.033   2.126 -0.8155 -0.8230 -0.4945
 4035SOL    HW315913   2.485   5.008   2.054  0.3322  1.4529  0.6773
 4035SOL    MW415914   2.401   5.032   2.053 -0.2590  0.5050 -0.5574
 4036SOL     OW15915   2.368   0.218   5.167 -0.2650  0.5586  0.1737
 4036SOL    HW215916   2.379   0.310   5.189 -2.2173  0.5156  1.5348
 4036SOL    HW315917   2.456   0.189   5.143  0.5720  2.5094  0.7036
 4036SOL    MW415918   2.381   0.226   5.167 -0.0416 -0.5832 -0.1100
 4037SOL     OW15919   4.278   1.739   4.569 -0.4203  0.1322  0.0758
 4037SOL    HW215920   4.345   1.711   4.632 -0.8522  0.5558  0.7341
 4037SOL    HW315921   4.300   1.692   4.488  0.9220  0.6003  0.1553
 4037SOL    MW415922   4.290   1.729   4.566  0.6088  0.2081  0.1828
 4038SOL     OW15923   2.412   4.489   4.810 -0.3449 -0.1690 -0.6849
 4038SOL    HW215924   2.337   4.549   4.818  0.6082  0.8463  1.2627
 4038SOL    HW315925   2.416   4.444   4.894  1.2672 -0.1489 -0.7201
 4038SOL    MW415926   2.403   4.491   4.822  0.0447  0.1811  0.4034
 4039SOL     OW15927   2.694   5.408   2.172 -0.2888  0.2241 -0.2554
 4039SOL    HW215928   2.756   5.368   2.111 -1.5704 -2.0215 -0.1633
 4039SOL    HW315929   2.611   5.363   2.156 -0.4277 -1.4985  3.9698
 4039SOL    MW415930   2.692   5.397   2.162  0.2131  0.1364  0.4704
 4040SOL     OW15931   0.469   6.269   4.359  0.0806  0.0758 -0.1417
 4040SOL    HW215932   0.388   6.315   4.384 -0.8061 -0.8381 -1.2261
 4040SOL    HW315933   0.531   6.339   4.339 -0.3692  0.7988  0.8846
 4040SOL    MW415934   0.466   6.285   4.360  0.6800  0.1702 -0.1665
 4041SOL     OW15935   6.030   3.264   4.180 -0.6845 -0.4600  0.0747
 4041SOL    HW215936   5.967   3.254   4.108  0.1628 -1.4047 -0.5706
 4041SOL    HW315937   6.057   3.175   4.200 -0.5855 -0.1677  1.2981
 4041SOL    MW415938   6.025   3.251   4.173 -0.4767 -0.3349  0.6699
 4042SOL     OW15939   2.406   0.129   2.638  0.4946  0.5470 -0.1479
 4042SOL    HW215940   2.410   0.044   2.681  1.8159  0.6508 -0.0439
 4042SOL    HW315941   2.424   0.109   2.546 -1.8363  0.3899 -0.6462
 4042SOL    MW415942   2.409   0.115   2.631  0.5330 -0.6507 -0.4741
 4043SOL     OW15943   6.062   6.400   3.378 -0.1072  0.0896  0.0957
 4043SOL    HW215944   6.042   6.316   3.420 -1.1616 -0.0269 -0.6125
 4043SOL    HW315945   6.156   6.395   3.360  0.1711 -0.2386  1.5693
 4043SOL    MW415946   6.072   6.388   3.381 -0.2665 -0.0697 -0.0450
 4044SOL     OW15947   2.312   3.051   1.119 -0.3842 -0.4660 -0.1402
 4044SOL    HW215948   2.387   3.109   1.109  1.0676 -2.0950  0.6654
 4044SOL    HW315949   2.307   3.035   1.213 -1.5911 -0.5793 -0.2181
 4044SOL    MW415950   2.321   3.056   1.130 -0.2148  0.1543 -0.6584
 4045SOL     OW15951   3.344   2.573   0.725 -0.0151 -0.4369  0.6875
 4045SOL    HW215952   3.279   2.528   0.780 -0.0921 -2.0443 -0.6381
 4045SOL    HW315953   3.380   2.504   0.670  0.3143  1.0406 -1.0286
 4045SOL    MW415954   3.340   2.558   0.725 -0.1585  0.0666 -0.2340
 4046SOL     OW15955   4.500   2.638   1.722 -0.2118  0.7169 -0.2967
 4046SOL    HW215956   4.485   2.726   1.685  1.4907  0.4135 -1.8530
 4046SOL    HW315957   4.524   2.584   1.646 -0.0556 -0.8112  0.8060
 4046SOL    MW415958   4.501   2.643   1.707  0.3891  0.6062 -0.0430
 4047SOL     OW15959   4.720   1.395   0.601  0.2119 -0.3902 -0.1138
 4047SOL    HW215960   4.745   1.486   0.615 -0.2699 -0.0797 -1.1806
 4047SOL    HW315961   4.735   1.353   0.686  1.3591  0.4555  0.1287
 4047SOL    MW415962   4.725   1.401   0.614 -0.1136 -0.1293 -0.4435
 4048SOL     OW15963   4.589   4.786   4.676 -0.4638 -0.0778  0.0031
 4048SOL    HW215964   4.564   4.720   4.611 -0.4276  0.9391 -1.0747
 4048SOL    HW315965   4.520   4.782   4.742 -0.6403 -0.9540 -0.2267
 4048SOL    MW415966   4.577   4.777   4.676 -0.2117 -0.2765 -0.2123
 4049SOL     OW15967   5.732   3.937   2.773 -0.5085  0.2303  0.3195
 4049SOL    HW215968   5.668   3.867   2.759  0.4933 -0.3161 -1.9858
 4049SOL    HW315969   5.781   3.941   2.692  0.8158  2.2815  1.1400
 4049SOL    MW415970   5.730   3.929   2.761  0.2059  0.4414  0.1331
 4050SOL     OW15971   5.935   1.000   1.803  0.0520 -0.4308 -0.0406
 4050SOL    HW215972   5.863   1.004   1.740 -0.0229  0.1307  0.0692
 4050SOL    HW315973   5.975   0.914   1.790  0.0929 -0.2852 -0.9079
 4050SOL    MW415974   5.931   0.990   1.793  0.0554 -0.2386 -0.3289
 4051SOL     OW15975   5.061   5.619   5.545  0.1137 -0.5352  0.0502
 4051SOL    HW215976   4.993   5.553   5.554 -0.7565  0.3142 -0.1345
 4051SOL    HW315977   5.062   5.664   5.629  0.8952 -0.9574  0.2709
 4051SOL    MW415978   5.052   5.616   5.557 -0.8558  0.0620  0.2629
 4052SOL     OW15979   3.847   3.055   1.377 -0.0046  0.0563  0.3830
 4052SOL    HW215980   3.937   3.089   1.375 -0.4073  1.1519  0.1608
 4052SOL    HW315981   3.840   3.002   1.298  1.1029 -1.8487  1.5010
 4052SOL    MW415982   3.858   3.053   1.366 -0.0688 -0.3347  0.1497
 4053SOL     OW15983   6.334   0.383   4.986  0.3622  0.2774 -0.3037
 4053SOL    HW215984   6.336   0.306   5.044 -1.2845  0.2614 -0.2272
 4053SOL    HW315985   6.374   0.453   5.037  1.6107 -0.4274 -0.2609
 4053SOL    MW415986   6.340   0.382   5.000  0.3741 -0.0461  0.5693
 4054SOL     OW15987   6.397   5.203   0.864 -0.0812 -0.0582  0.0469
 4054SOL    HW215988   6.408   5.136   0.932 -0.9836  0.6605  0.9303
 4054SOL    HW315989   6.429   5.283   0.904 -0.2845  0.3080 -0.5107
 4054SOL    MW415990   6.403   5.204   0.878  0.1439  0.4821  0.1390
 4055SOL     OW15991   4.851   1.549   2.286 -0.1003 -0.0258 -0.2675
 4055SOL    HW215992   4.915   1.574   2.219 -0.3299  0.5866 -0.2654
 4055SOL    HW315993   4.788   1.494   2.240 -1.9133  2.7512 -1.3108
 4055SOL    MW415994   4.851   1.545   2.271  0.0438  0.1414 -0.0062
 4056SOL     OW15995   6.384   5.028   0.534  0.5863  0.1121  0.4171
 4056SOL    HW215996   6.420   5.111   0.564  2.3239 -0.4760  0.0901
 4056SOL    HW315997   6.379   5.038   0.439  0.5021 -0.0380  0.4060
 4056SOL    MW415998   6.388   5.041   0.525  0.1982 -0.1546 -0.2289
 4057SOL     OW15999   4.143   2.555   5.603 -0.1221  0.2193 -0.2557
 4057SOL    HW216000   4.172   2.599   5.524  0.0022  0.8060  0.1097
 4057SOL    HW316001   4.053   2.528   5.584 -0.7811  2.0631  0.0694
 4057SOL    MW416002   4.135   2.557   5.590  0.4072 -0.2570  0.1452
 4058SOL     OW16003   1.607   4.027   0.082 -0.5284  0.2443  0.3319
 4058SOL    HW216004   1.559   3.962   0.134 -0.9276 -0.0768 -0.4294
 4058SOL    HW316005   1.695   3.990   0.074 -0.7219 -0.1553 -0.0034
 4058SOL    MW416006   1.612   4.013   0.088 -0.3138  0.5972 -0.3809
 4059SOL     OW16007   2.142   4.840   5.884  0.0084 -0.1674 -0.2684
 4059SOL    HW216008   2.078   4.907   5.908 -0.5497 -0.9756  0.6035
 4059SOL    HW316009   2.212   4.887   5.840 -0.0534  1.0650  0.9209
 4059SOL    MW416010   2.143   4.855   5.881 -0.1344 -0.1681 -0.4470
 4060SOL     OW16011   0.312   6.359   1.339 -0.0766  0.6078  0.8522
 4060SOL    HW216012   0.242   6.402   1.289  1.2172  1.0872 -0.6390
 4060SOL    HW316013   0.301   6.266   1.320  1.6592  0.9026 -2.2343
 4060SOL    MW416014   0.301   6.352   1.330 -0.1049  0.3913 -0.5650
 4061SOL     OW16015   3.863   1.603   4.809  0.4221  0.4292 -0.0507
 4061SOL    HW216016   3.878   1.586   4.902  0.6575  0.1809 -0.1316
 4061SOL    HW316017   3.951   1.600   4.770  0.3650  0.9255 -0.2170
 4061SOL    MW416018   3.877   1.600   4.817 -0.5115  0.1520 -0.0103
 4062SOL     OW16019   3.422   1.721   5.297  0.3207 -0.2061  0.1808
 4062SOL    HW216020   3.463   1.746   5.380  0.0841 -0.0805  0.2622
 4062SOL    HW316021   3.330   1.710   5.318  0.2839 -0.3216 -0.0362
 4062SOL    MW416022   3.416   1.723   5.311  0.2744  0.1477 -0.6772
 4063SOL     OW16023   5.480   0.250  -0.019 -0.5722 -0.0711 -0.0676
 4063SOL    HW216024   5.465   0.167  -0.064  1.3609 -0.2934 -0.3849
 4063SOL    HW316025   5.405   0.260   0.040 -0.6947 -2.1809  0.1973
 4063SOL    MW416026   5.468   0.240  -0.017  0.3253 -0.0287  0.2803
 4064SOL     OW16027   2.165   1.903   1.455  0.5781  0.2560 -0.2067
 4064SOL    HW216028   2.225   1.954   1.510  0.3550 -0.8203  1.0906
 4064SOL    HW316029   2.079   1.916   1.495  0.4681 -0.8547 -0.0636
 4064SOL    MW416030   2.162   1.912   1.467  0.1039 -0.5264 -0.2379
 4065SOL     OW16031   4.959   1.965   3.906 -0.4248 -0.0833  0.3447
 4065SOL    HW216032   4.928   1.990   3.819  2.3179  0.1130 -0.6858
 4065SOL    HW316033   4.929   2.036   3.964  1.2706  2.1290 -1.2790
 4065SOL    MW416034   4.951   1.978   3.902 -0.6288 -0.1423  0.7151
 4066SOL     OW16035   2.251   4.977   2.288 -0.6203  0.7350  0.1126
 4066SOL    HW216036   2.206   5.034   2.351 -1.1959 -1.6256  1.9617
 4066SOL    HW316037   2.188   4.908   2.269  1.1035 -0.9945  0.3796
 4066SOL    MW416038   2.237   4.976   2.294 -0.3511 -0.0972  0.1850
 4067SOL     OW16039   2.943   2.960   3.323  0.3916 -0.0651  0.8307
 4067SOL    HW216040   3.025   2.914   3.341  0.3704 -0.1696  0.6564
 4067SOL    HW316041   2.884   2.892   3.292 -0.5736 -0.4998  3.3883
 4067SOL    MW416042   2.946   2.945   3.321  0.2038 -0.7516 -0.2495
 4068SOL     OW16043   2.242   4.377   4.589  0.1436 -0.2640 -0.3586
 4068SOL    HW216044   2.300   4.319   4.539  0.0968  0.7740 -1.6630
 4068SOL    HW316045   2.279   4.376   4.678 -0.1111 -2.5971 -0.2009
 4068SOL    MW416046   2.255   4.369   4.594  1.0494 -0.5077 -0.5990
 4069SOL     OW16047   0.544   4.303   1.625 -0.0916 -0.5586  0.4788
 4069SOL    HW216048   0.610   4.359   1.585  0.3103 -1.9406 -0.9086
 4069SOL    HW316049   0.575   4.214   1.609 -1.4354 -1.2201  1.3196
 4069SOL    MW416050   0.557   4.299   1.617 -0.4498  0.2429 -0.3649
 4070SOL     OW16051   5.962   5.476   2.647 -0.1982 -0.0482 -0.3642
 4070SOL    HW216052   6.017   5.405   2.613  0.7582  1.9421 -3.3044
 4070SOL    HW316053   6.006   5.504   2.727 -0.3922 -2.4170  0.6586
 4070SOL    MW416054   5.975   5.470   2.653 -0.6013 -0.1529 -0.5574
 4071SOL     OW16055   1.108   2.334   2.804 -0.0560 -0.1675 -0.5206
 4071SOL    HW216056   1.039   2.332   2.737 -0.3436 -2.0203 -0.2178
 4071SOL    HW316057   1.147   2.247   2.801  1.5055  0.4752  0.1414
 4071SOL    MW416058   1.104   2.322   2.795  0.0573 -0.1459  0.7542
 4072SOL     OW16059   3.368   2.666   4.917  0.2385 -0.0731 -0.4746
 4072SOL    HW216060   3.392   2.618   4.838 -0.0914 -1.3818  0.2026
 4072SOL    HW316061   3.319   2.603   4.970  1.1954  0.5055  1.1628
 4072SOL    MW416062   3.365   2.652   4.914  0.3152  0.3480  1.0110
 4073SOL     OW16063   3.226   1.218   1.271 -0.0229 -0.0926 -0.0809
 4073SOL    HW216064   3.303   1.272   1.286  0.7946 -0.9641 -0.9910
 4073SOL    HW316065   3.219   1.162   1.349 -1.0376  1.4510  0.9964
 4073SOL    MW416066   3.235   1.218   1.283 -0.0920 -0.5347  0.2772
 4074SOL     OW16067   3.254   5.019   1.474 -0.6011  0.2021  0.2885
 4074SOL    HW216068   3.298   4.951   1.526  0.8081 -0.5470 -1.7528
 4074SOL    HW316069   3.249   5.094   1.533  0.2776 -0.8014  1.7225
 4074SOL    MW416070   3.259   5.020   1.489  0.9958  0.1300 -0.4806
 4075SOL     OW16071   5.869   3.488   5.143  0.0939 -0.2390  0.1371
 4075SOL    HW216072   5.846   3.556   5.080  0.9301 -1.6304 -1.8038
 4075SOL    HW316073   5.821   3.410   5.114  0.5552 -0.9487  1.1850
 4075SOL    MW416074   5.860   3.486   5.131 -0.5105  0.0879  0.5734
 4076SOL     OW16075   5.545   1.483   0.689  0.7192 -0.1997 -0.3717
 4076SOL    HW216076   5.525   1.526   0.606  1.1409  0.2273 -0.2572
 4076SOL    HW316077   5.619   1.532   0.724  1.0968 -0.9197 -0.1545
 4076SOL    MW416078   5.552   1.495   0.683 -0.2292  0.0669 -0.3383
 4077SOL     OW16079   5.098   2.601   2.894 -0.2231  0.1358  0.6402
 4077SOL    HW216080   5.028   2.664   2.910 -0.4401  0.4845 -1.4498
 4077SOL    HW316081   5.155   2.643   2.830  0.9625 -0.8461  0.9989
 4077SOL    MW416082   5.097   2.615   2.887 -0.0760  0.4263 -0.1226
 4078SOL     OW16083   2.113   0.296   4.564 -0.3130  0.3460  0.3580
 4078SOL    HW216084   2.067   0.326   4.486  0.9355  1.8303  0.1570
 4078SOL    HW316085   2.205   0.315   4.547 -0.0050  0.6982  2.1805
 4078SOL    MW416086   2.119   0.302   4.551  0.4256 -0.4166 -0.0026
 4079SOL     OW16087   1.770   1.970   4.184 -0.2147 -0.3007 -0.1499
 4079SOL    HW216088   1.687   2.016   4.173 -1.2328 -1.8519  0.7253
 4079SOL    HW316089   1.782   1.963   4.278  0.9485 -0.0633 -0.2644
 4079SOL    MW416090   1.761   1.975   4.195  0.3274 -0.4107  0.5062
 4080SOL     OW16091   0.137   0.149   1.730  0.2776 -0.4201 -0.4093
 4080SOL    HW216092   0.104   0.089   1.797  0.6969 -0.2614 -0.0575
 4080SOL    HW316093   0.090   0.231   1.747  0.2528 -0.4316 -0.4219
 4080SOL    MW416094   0.126   0.152   1.741 -0.3615  0.2054  0.1105
 4081SOL     OW16095   0.509   4.232   0.196 -0.2567  0.1854 -0.4970
 4081SOL    HW216096   0.550   4.312   0.163  0.8211 -0.2683 -0.3066
 4081SOL    HW316097   0.485   4.183   0.117 -0.5260  0.4913 -0.6102
 4081SOL    MW416098   0.511   4.236   0.181  0.1600 -0.1241 -0.2870
 4082SOL     OW16099   4.304   2.428   1.768 -0.7844  0.5093 -0.2116
 4082SOL    HW216100   4.352   2.358   1.813  0.1718  0.0582 -1.8434
 4082SOL    HW316101   4.370   2.496   1.752 -1.6814  1.7883  1.2832
 4082SOL    MW416102   4.319   2.428   1.772 -0.0300  0.1241  0.3766
 4083SOL     OW16103   5.098   1.234   6.210  0.2216 -0.2712  0.3699
 4083SOL    HW216104   5.087   1.276   6.125  1.3052 -0.2150  0.2421
 4083SOL    HW316105   5.039   1.281   6.269  0.7741  0.8513  0.0384
 4083SOL    MW416106   5.089   1.246   6.207 -0.3336  0.5579 -0.0377
 4084SOL     OW16107   2.273   0.594   5.668  0.1492  0.0412  0.4287
 4084SOL    HW216108   2.214   0.663   5.638 -1.4255 -1.1708  0.6098
 4084SOL    HW316109   2.327   0.636   5.736  0.5511  1.5552 -0.7835
 4084SOL    MW416110   2.273   0.608   5.673  0.3186 -0.1295  0.0714
 4085SOL     OW16111   4.059   6.169   4.631  0.0854  0.0320 -0.4530
 4085SOL    HW216112   4.145   6.211   4.633 -0.2223  0.6278  0.8119
 4085SOL    HW316113   3.997   6.237   4.656 -0.5233 -0.9241  0.7927
 4085SOL    MW416114   4.062   6.183   4.635  0.0978  0.5340  0.5202
 4086SOL     OW16115   5.336   2.228   1.607 -0.2380 -0.7269 -0.3236
 4086SOL    HW216116   5.283   2.152   1.633 -1.0182 -0.3264 -0.6885
 4086SOL    HW316117   5.348   2.278   1.687 -1.2090 -0.3558 -0.3880
 4086SOL    MW416118   5.330   2.224   1.621  0.1622 -0.1716  0.0459
 4087SOL     OW16119   0.313   4.647   0.568  0.3954  0.2530  0.1053
 4087SOL    HW216120   0.362   4.584   0.621 -0.2118  0.2187  0.6344
 4087SOL    HW316121   0.362   4.728   0.577  0.8535  0.0021 -0.0966
 4087SOL    MW416122   0.326   4.649   0.576  0.0617 -0.2888  0.2417
 4088SOL     OW16123   3.549   5.184   3.314 -0.5315  0.4767  0.4931
 4088SOL    HW216124   3.518   5.104   3.271 -0.1559 -0.0829  1.2469
 4088SOL    HW316125   3.476   5.245   3.306 -1.4318 -0.4625  1.3052
 4088SOL    MW416126   3.535   5.181   3.307 -0.4943 -0.0055 -0.1930
 4089SOL     OW16127   0.633   1.462   0.660  0.0973 -0.1496 -0.4594
 4089SOL    HW216128   0.576   1.521   0.709  1.0237  0.6641 -0.3427
 4089SOL    HW316129   0.689   1.421   0.726  0.6210  0.1473 -0.7091
 4089SOL    MW416130   0.633   1.464   0.675 -0.3690  0.2666  0.2268
 4090SOL     OW16131   4.106   4.888   5.086 -0.0691 -0.3684  0.0443
 4090SOL    HW216132   4.024   4.935   5.070 -0.4096 -1.4467 -1.4756
 4090SOL    HW316133   4.085   4.827   5.156 -0.8375 -1.2740 -0.9551
 4090SOL    MW416134   4.092   4.886   5.093 -0.6350  0.3057 -0.1457
 4091SOL     OW16135   2.518   3.033   2.271  0.2345  0.2531 -0.2288
 4091SOL    HW216136   2.535   2.970   2.202 -1.1968  0.7354 -1.0746
 4091SOL    HW316137   2.490   3.112   2.225  0.7356  1.0979  0.8556
 4091SOL    MW416138   2.516   3.035   2.256 -0.0257 -0.2663  0.0620
 4092SOL     OW16139   4.360   5.295   3.424 -0.4233 -0.1217  0.5766
 4092SOL    HW216140   4.375   5.293   3.330  0.2887  0.7251  0.6649
 4092SOL    HW316141   4.379   5.206   3.454  1.6308  0.1656  0.2527
 4092SOL    MW416142   4.364   5.283   3.416 -0.1121 -0.2500  0.4878
 4093SOL     OW16143   5.754   1.626   0.313 -0.6685 -0.0453  0.3295
 4093SOL    HW216144   5.661   1.626   0.339 -0.9757 -1.1263 -0.7130
 4093SOL    HW316145   5.763   1.702   0.256 -0.7977  0.3267  0.7963
 4093SOL    MW416146   5.743   1.636   0.309 -0.0409  0.5147 -0.5508
 4094SOL     OW16147   5.527   5.185   2.704  0.7573 -0.0145 -0.1593
 4094SOL    HW216148   5.587   5.252   2.673  0.7554  0.5599  1.0260
 4094SOL    HW316149   5.443   5.230   2.715  0.4477 -0.4931 -0.5066
 4094SOL    MW416150   5.524   5.200   2.702 -0.5515  0.3698 -0.0119
 4095SOL     OW16151   4.166   4.462   2.496  0.2945  0.3890 -0.0700
 4095SOL    HW216152   4.162   4.405   2.573 -0.0061  3.1801  2.1638
 4095SOL    HW316153   4.083   4.510   2.497  1.0028  1.7100 -1.0999
 4095SOL    MW416154   4.155   4.461   2.506 -0.3931  0.0558  0.4218
 4096SOL     OW16155   0.922   3.796   1.756 -0.5303  0.0769  0.3344
 4096SOL    HW216156   0.882   3.837   1.679 -0.0689 -0.1899 -0.0559
 4096SOL    HW316157   0.955   3.870   1.808  2.3641  0.2368 -1.4771
 4096SOL    MW416158   0.921   3.811   1.753 -0.1704 -0.6001  0.4104
 4097SOL     OW16159   6.323   5.520   2.232  0.5103  0.4891  0.2417
 4097SOL    HW216160   6.313   5.602   2.279 -1.1361  0.3715  0.1411
 4097SOL    HW316161   6.331   5.453   2.300  1.9486  0.7077  0.3239
 4097SOL    MW416162   6.323   5.522   2.247  0.1994  0.5221 -0.2868
 4098SOL     OW16163   3.502   0.189   2.205 -0.4543 -0.3647  0.3693
 4098SOL    HW216164   3.550   0.115   2.244 -0.3898 -1.1467 -1.1231
 4098SOL    HW316165   3.561   0.264   2.216  1.4674 -1.4105 -1.9325
 4098SOL    MW416166   3.516   0.189   2.212 -0.3273 -0.3508  0.3873
 4099SOL     OW16167   0.283   4.520   5.813 -0.2552  0.0748  0.5013
 4099SOL    HW216168   0.296   4.448   5.752  2.9728 -0.3035  1.4265
 4099SOL    HW316169   0.358   4.578   5.798 -2.4341  3.0327  0.1834
 4099SOL    MW416170   0.294   4.518   5.803  0.0277  0.1969 -0.2220
 4100SOL     OW16171   0.529   2.081   1.961 -0.0836  0.2059  0.1987
 4100SOL    HW216172   0.571   2.076   1.875  0.4421  0.1135  0.4624
 4100SOL    HW316173   0.438   2.056   1.944  0.4144 -1.5659 -0.0388
 4100SOL    MW416174   0.522   2.077   1.947  0.5138 -0.1762 -0.2516
 4101SOL     OW16175   1.332   3.430   0.436  0.2579  0.0447 -0.0539
 4101SOL    HW216176   1.427   3.435   0.447  0.2225 -0.0419  0.3001
 4101SOL    HW316177   1.316   3.340   0.409  0.0756 -0.6116  2.0545
 4101SOL    MW416178   1.343   3.419   0.434  0.0667  0.0343  0.0775
 4102SOL     OW16179   2.399   4.699   2.171  0.0722 -0.1037 -0.3043
 4102SOL    HW216180   2.354   4.731   2.249  2.4767  0.6992  0.8695
 4102SOL    HW316181   2.412   4.606   2.188 -1.3884 -0.4132 -0.8082
 4102SOL    MW416182   2.395   4.691   2.184  0.3970  0.2857  0.0404
 4103SOL     OW16183   5.899   6.089   2.027  0.3183 -0.3080 -0.1954
 4103SOL    HW216184   5.882   6.141   1.948  2.5781 -0.9646 -1.1899
 4103SOL    HW316185   5.836   6.122   2.091 -1.6811  0.1882 -2.2570
 4103SOL    MW416186   5.888   6.100   2.025  0.8026 -0.4223  0.0135
 4104SOL     OW16187   2.621   5.464   1.327  0.0662  0.0019  0.1059
 4104SOL    HW216188   2.599   5.376   1.299 -1.6297  0.4064  0.0256
 4104SOL    HW316189   2.716   5.463   1.340 -0.0411 -2.1140  1.1184
 4104SOL    MW416190   2.630   5.452   1.325  0.2009  0.0861 -0.8829
 4105SOL     OW16191   1.576   4.218   6.302  0.0575  1.0384  0.4308
 4105SOL    HW216192   1.571   4.132   6.343  0.4399  0.5163 -0.5898
 4105SOL    HW316193   1.500   4.223   6.244  2.0295 -0.2519 -2.4980
 4105SOL    MW416194   1.566   4.207   6.300  0.3803  0.3653 -0.6128
 4106SOL     OW16195   0.481   5.897   1.870  0.6724  0.1003  0.0418
 4106SOL    HW216196   0.515   5.983   1.893 -1.7012  1.0774  0.1929
 4106SOL    HW316197   0.428   5.912   1.792  1.5570 -1.5749 -0.9317
 4106SOL    MW416198   0.478   5.910   1.863 -0.2823 -0.3700  0.2114
 4107SOL     OW16199   2.301   3.211   0.837 -0.1736 -0.0831 -0.0434
 4107SOL    HW216200   2.242   3.242   0.768 -1.5842  0.6626  1.4397
 4107SOL    HW316201   2.318   3.288   0.891  1.7480 -0.4217 -0.0980
 4107SOL    MW416202   2.295   3.225   0.835 -0.4357 -1.2287  0.6536
 4108SOL     OW16203   4.386   5.993  -0.016  0.2843  0.3163 -0.2464
 4108SOL    HW216204   4.424   6.049  -0.084  0.0336  0.0363 -0.6286
 4108SOL    HW316205   4.400   6.040   0.065  1.0005  0.4453 -0.4400
 4108SOL    MW416206   4.393   6.006  -0.015 -0.1130 -0.1085 -0.1912
 4109SOL     OW16207   3.145   0.537   1.180 -0.0050  0.1152  0.1302
 4109SOL    HW216208   3.076   0.535   1.245  1.3555 -0.3956  1.6285
 4109SOL    HW316209   3.116   0.475   1.113 -2.1095  1.7292 -0.5556
 4109SOL    MW416210   3.132   0.529   1.180  0.3263 -0.3705  0.0669
 4110SOL     OW16211   1.360   4.455   0.483 -0.3905  0.2135 -0.3871
 4110SOL    HW216212   1.313   4.450   0.399 -1.1893 -0.3165  0.0751
 4110SOL    HW316213   1.444   4.413   0.467 -0.4971  0.2110 -0.9516
 4110SOL    MW416214   1.365   4.449   0.470 -0.2263 -0.7969  0.3944
 4111SOL     OW16215   1.768   4.184   0.271 -0.2218  0.4397 -0.0516
 4111SOL    HW216216   1.721   4.129   0.209  1.7543 -0.6980 -0.6565
 4111SOL    HW316217   1.705   4.204   0.340 -1.4947 -1.1516 -0.7157
 4111SOL    MW416218   1.754   4.180   0.272  0.3885  0.0454 -0.4641
 4112SOL     OW16219   3.557   0.165   6.149 -0.5503 -0.1224 -0.5065
 4112SOL    HW216220   3.539   0.148   6.057 -2.1295  1.7327 -0.6023
 4112SOL    HW316221   3.641   0.212   6.149 -0.3018 -0.5562 -0.9361
 4112SOL    MW416222   3.566   0.169   6.137 -0.2892 -0.1570 -0.6186
 4113SOL     OW16223   0.398   5.157   4.680 -0.3867 -0.3959 -0.5087
 4113SOL    HW216224   0.428   5.247   4.688 -2.2624  0.2101  0.5216
 4113SOL    HW316225   0.309   5.164   4.646 -0.9440 -1.7674  0.5282
 4113SOL    MW416226   0.390   5.170   4.677 -0.0677  0.2747 -0.1216
 4114SOL     OW16227   4.013   6.306   3.719 -0.6280 -0.1623  0.1768
 4114SOL    HW216228   4.000   6.248   3.794 -0.7876 -0.0167  0.2609
 4114SOL    HW316229   4.103   6.337   3.728 -0.9011  0.4938  0.7578
 4114SOL    MW416230   4.023   6.303   3.730  0.0900 -0.3743 -0.4062
 4115SOL     OW16231   1.812   0.467   3.000 -0.6605 -0.6821 -0.0961
 4115SOL    HW216232   1.865   0.538   3.035 -1.9166  0.5747 -0.6469
 4115SOL    HW316233   1.846   0.388   3.042  0.0921  0.3638  1.3198
 4115SOL    MW416234   1.823   0.466   3.010 -0.8625  0.0433  0.1314
 4116SOL     OW16235   2.722   6.094   1.673 -0.1209 -0.2401  0.3870
 4116SOL    HW216236   2.729   6.114   1.579 -1.1014  0.0650  0.3686
 4116SOL    HW316237   2.654   6.028   1.679 -1.4382  1.1038  1.0291
 4116SOL    MW416238   2.714   6.088   1.661  0.7871 -0.8876 -0.4682
 4117SOL     OW16239   4.771   2.301   3.326  0.1977  0.0411  0.3997
 4117SOL    HW216240   4.776   2.310   3.231 -1.6272  1.4978  0.3784
 4117SOL    HW316241   4.856   2.266   3.352  1.5956  1.7971 -1.5195
 4117SOL    MW416242   4.783   2.297   3.317  0.3800  0.9391 -0.1063
 4118SOL     OW16243   5.575   2.467   5.361 -0.7167  0.1412  0.6324
 4118SOL    HW216244   5.588   2.468   5.266 -0.6152 -1.4967  0.6009
 4118SOL    HW316245   5.664   2.459   5.397 -0.8224 -0.2693  0.8123
 4118SOL    MW416246   5.589   2.466   5.353  0.1726  0.0444 -0.3642
 4119SOL     OW16247   1.217   2.550   3.602  0.0955 -0.3640 -0.1808
 4119SOL    HW216248   1.163   2.576   3.677  0.6413  0.9884 -0.2399
 4119SOL    HW316249   1.154   2.518   3.538 -0.7990  2.2076 -0.6799
 4119SOL    MW416250   1.202   2.549   3.604  0.0012 -0.6980  1.0018
 4120SOL     OW16251   0.884   2.437   1.241 -0.2647 -0.5131 -0.0199
 4120SOL    HW216252   0.936   2.424   1.320  0.6208 -0.5911 -0.6103
 4120SOL    HW316253   0.937   2.401   1.171  0.9024  3.3466 -1.3157
 4120SOL    MW416254   0.898   2.430   1.243  0.3562 -0.4647 -0.2026
 4121SOL     OW16255   0.344   4.901   1.167 -0.0836  0.4731 -0.0678
 4121SOL    HW216256   0.265   4.946   1.137 -0.1462  0.8499  0.6222
 4121SOL    HW316257   0.405   4.907   1.094 -0.3260  1.1201 -0.2267
 4121SOL    MW416258   0.341   4.908   1.154 -0.3626  0.2856 -0.0551
 4122SOL     OW16259   2.669   3.776   3.431  0.7646 -0.3431  0.0697
 4122SOL    HW216260   2.628   3.784   3.517  0.0844 -1.1037 -0.1812
 4122SOL    HW316261   2.652   3.861   3.389  0.1918 -0.3516  0.2842
 4122SOL    MW416262   2.662   3.788   3.437  0.2499  0.5415  0.0582
 4123SOL     OW16263   4.882   5.876   6.223 -0.2355  0.5696  0.9499
 4123SOL    HW216264   4.799   5.881   6.271 -0.6633 -0.4919  0.3475
 4123SOL    HW316265   4.861   5.828   6.143  1.1773 -0.6408  1.2706
 4123SOL    MW416266   4.868   5.871   6.219 -0.2010  0.1038 -0.3230
 4124SOL     OW16267   5.569   3.453   0.299  0.0567 -0.0289  0.4017
 4124SOL    HW216268   5.545   3.468   0.391 -0.8965 -0.4953  0.2437
 4124SOL    HW316269   5.495   3.403   0.263  0.9943 -0.9584 -0.2878
 4124SOL    MW416270   5.556   3.448   0.306  0.0333 -0.0644  0.3947
 4125SOL     OW16271   4.720   4.611   3.541 -0.0610  0.2080 -0.2517
 4125SOL    HW216272   4.673   4.694   3.549  0.4151  0.4636 -0.0660
 4125SOL    HW316273   4.702   4.582   3.451  0.2520  0.8080 -0.5143
 4125SOL    MW416274   4.711   4.618   3.530 -0.3592  0.0684 -0.0944
 4126SOL     OW16275   2.850   2.264   2.822 -0.3501 -0.0875 -0.6362
 4126SOL    HW216276   2.930   2.238   2.867  0.5879  0.2905 -2.0102
 4126SOL    HW316277   2.816   2.183   2.783 -0.6122 -0.2345 -0.1140
 4126SOL    MW416278   2.856   2.250   2.823 -0.2441  0.0248  0.1326
 4127SOL     OW16279   3.705   0.057   0.601 -0.1639 -0.0819 -0.0886
 4127SOL    HW216280   3.774   0.088   0.660  1.0116 -1.1761 -0.8502
 4127SOL    HW316281   3.653   0.135   0.583  1.1552  0.8782  0.1302
 4127SOL    MW416282   3.707   0.072   0.607 -0.0031  0.1706 -0.1711
 4128SOL     OW16283   4.383   0.705   3.740 -0.0237 -0.3345  0.6263
 4128SOL    HW216284   4.382   0.771   3.670 -2.6852  1.6574  2.3318
 4128SOL    HW316285   4.302   0.655   3.727  1.2956 -2.4857  0.1717
 4128SOL    MW416286   4.372   0.707   3.729  0.8261  0.2947 -0.1683
 4129SOL     OW16287   1.274   0.440   3.691 -0.3429  0.2050 -0.5347
 4129SOL    HW216288   1.281   0.400   3.778  0.3493  2.0708  0.3094
 4129SOL    HW316289   1.362   0.473   3.673 -0.4582 -0.2340 -2.0021
 4129SOL    MW416290   1.286   0.439   3.701 -0.0567 -0.2423 -0.3117
 4130SOL     OW16291   1.218   4.982   2.204  0.0366 -0.0731 -0.6522
 4130SOL    HW216292   1.235   4.905   2.259 -0.0102  0.2156 -0.2319
 4130SOL    HW316293   1.274   5.051   2.240 -0.4722  0.2986 -0.5675
 4130SOL    MW416294   1.228   4.981   2.216 -0.3150  0.1339 -0.2010
 4131SOL     OW16295   5.280   1.820   5.270 -0.5067  0.2182 -0.3072
 4131SOL    HW216296   5.314   1.759   5.335  0.0852  0.3842 -0.4554
 4131SOL    HW316297   5.355   1.843   5.216 -0.5400  1.6413  0.1858
 4131SOL    MW416298   5.294   1.815   5.271 -0.1791  0.5023 -0.1678
 4132SOL     OW16299   3.671   0.017   0.319  0.5389 -0.5727 -0.7123
 4132SOL    HW216300   3.754   0.059   0.298  1.5674 -1.3028  1.5620
 4132SOL    HW316301   3.683  -0.016   0.408 -1.7231 -1.8984 -0.8273
 4132SOL    MW416302   3.683   0.018   0.328 -0.0977 -0.4801  0.2029
 4133SOL     OW16303   3.962   4.168   6.170 -0.7177  0.3236 -0.2103
 4133SOL    HW216304   3.948   4.261   6.185  1.0624  0.3292  1.8504
 4133SOL    HW316305   3.878   4.127   6.192 -0.7180  1.2235  1.6960
 4133SOL    MW416306   3.949   4.175   6.175 -0.5316 -0.4713  0.1650
 4134SOL     OW16307   1.396   1.878   0.255  0.1267  0.3156  0.0352
 4134SOL    HW216308   1.486   1.862   0.228 -0.5681 -0.3514 -2.0841
 4134SOL    HW316309   1.359   1.791   0.270  0.0920  0.6218  1.9639
 4134SOL    MW416310   1.403   1.865   0.253  0.2458  0.2697 -0.1653
 4135SOL     OW16311   6.239   4.661   3.039  0.3941 -0.9268 -0.1469
 4135SOL    HW216312   6.326   4.675   3.075 -0.1929  0.6355  0.7703
 4135SOL    HW316313   6.182   4.659   3.116 -0.7001  0.8714 -0.8591
 4135SOL    MW416314   6.243   4.662   3.054  0.8438  0.4367 -0.8934
 4136SOL     OW16315   1.423   4.506   3.423 -0.0495 -0.4618 -0.0878
 4136SOL    HW216316   1.464   4.450   3.489  2.1025  0.3439 -0.6557
 4136SOL    HW316317   1.460   4.593   3.440 -0.3573 -0.0123 -1.6052
 4136SOL    MW416318   1.434   4.510   3.434  0.0167  0.1555  0.4222
 4137SOL     OW16319   5.786   5.193   3.815  0.4749  0.4239  0.0200
 4137SOL    HW216320   5.753   5.114   3.774  0.9495  1.3512 -2.3044
 4137SOL    HW316321   5.714   5.224   3.869 -0.7310 -0.1276 -1.2217
 4137SOL    MW416322   5.772   5.187   3.817 -0.5822  0.2239 -0.3052
 4138SOL     OW16323   0.012   3.541   1.974  0.0894  0.2055 -0.3705
 4138SOL    HW216324  -0.064   3.558   2.029  0.7722 -0.8966  0.9524
 4138SOL    HW316325  -0.024   3.532   1.886 -1.0377  1.8611 -0.1246
 4138SOL    MW416326  -0.003   3.542   1.970 -0.4030 -0.0146 -0.3023
 4139SOL     OW16327   1.049   4.889   0.276 -0.1510  0.1829 -0.1929
 4139SOL    HW216328   1.024   4.982   0.271 -1.3670 -0.1824 -1.5434
 4139SOL    HW316329   1.142   4.889   0.257 -0.2683  1.0901 -0.8689
 4139SOL    MW416330   1.058   4.901   0.273  0.9248  0.1983 -0.4194
 4140SOL     OW16331   5.445   1.805   0.201 -0.1695  0.3114  0.3418
 4140SOL    HW216332   5.399   1.724   0.178  1.6651 -0.8882  0.6795
 4140SOL    HW316333   5.479   1.838   0.118 -0.0991  0.2030  0.3274
 4140SOL    MW416334   5.444   1.799   0.187  0.4661 -0.0992 -0.1200
 4141SOL     OW16335   1.741   1.966   0.052  0.7280 -0.0419 -0.5660
 4141SOL    HW216336   1.755   2.018   0.130  0.8798 -1.2019  0.2117
 4141SOL    HW316337   1.652   1.986   0.024  0.4327 -0.1215  0.3049
 4141SOL    MW416338   1.731   1.975   0.058  0.1595  0.8137  0.3127
 4142SOL     OW16339   5.020   3.130   3.357 -0.4999 -0.4724 -0.6868
 4142SOL    HW216340   5.008   3.111   3.264  0.6847 -0.0438 -0.9445
 4142SOL    HW316341   4.992   3.050   3.401 -0.1287 -1.0469 -1.4685
 4142SOL    MW416342   5.015   3.117   3.350  0.5235  0.1049  0.0194
 4143SOL     OW16343   0.586   5.308   0.016  0.3087  0.5166 -0.3527
 4143SOL    HW216344   0.670   5.351   0.028  0.1735  1.8646 -3.2774
 4143SOL    HW316345   0.591   5.229   0.070  2.8246  1.3031  0.7049
 4143SOL    MW416346   0.597   5.303   0.025  0.4072  0.5500  0.1587
 4144SOL     OW16347   1.802   2.421   2.364  0.2600 -0.2701  0.0015
 4144SOL    HW216348   1.789   2.331   2.393  0.9416 -0.3598  0.0500
 4144SOL    HW316349   1.892   2.442   2.388  0.1948  0.3378 -0.2421
 4144SOL    MW416350   1.812   2.412   2.371  0.3004 -0.0983 -0.0467
 4145SOL     OW16351   2.791   1.568   6.333 -0.5156  0.0242  0.1905
 4145SOL    HW216352   2.728   1.638   6.348 -1.0681 -0.1169 -1.3136
 4145SOL    HW316353   2.875   1.613   6.327 -1.0591  0.8532 -2.5078
 4145SOL    MW416354   2.794   1.583   6.334  0.2414 -0.4809 -0.1473
 4146SOL     OW16355   0.871   3.520   1.392  0.1081 -0.1281  0.2576
 4146SOL    HW216356   0.850   3.432   1.424 -0.3789 -0.1009  0.0168
 4146SOL    HW316357   0.869   3.511   1.297  0.0865  0.1387  0.2334
 4146SOL    MW416358   0.868   3.507   1.384 -0.1690  0.2333  0.1747
 4147SOL     OW16359   1.484   0.905   3.408 -0.0954 -0.1255 -0.2538
 4147SOL    HW216360   1.506   0.824   3.363  0.5810 -0.3829  0.5189
 4147SOL    HW316361   1.547   0.911   3.481  0.7032  1.7209 -1.0215
 4147SOL    MW416362   1.495   0.895   3.412 -0.1008  0.2027  0.1640
 4148SOL     OW16363   1.622   4.372   0.120  0.5538  0.3714 -0.0903
 4148SOL    HW216364   1.656   4.315   0.188  0.1771  1.0115  0.6586
 4148SOL    HW316365   1.624   4.320   0.040  1.3734 -0.2616  0.3345
 4148SOL    MW416366   1.627   4.358   0.119 -0.2006 -0.0814 -0.2347
 4149SOL     OW16367   3.737   6.359   4.465 -0.1936  0.4920 -0.5498
 4149SOL    HW216368   3.822   6.357   4.421 -0.4601  0.1934 -1.0611
 4149SOL    HW316369   3.750   6.307   4.545 -0.2037 -0.5888 -1.2206
 4149SOL    MW416370   3.750   6.352   4.470  0.6651  0.3128 -0.3349
 4150SOL     OW16371   4.475   2.692   3.692 -0.3022 -0.0659 -0.1480
 4150SOL    HW216372   4.390   2.706   3.651 -0.5107  1.0341  0.6198
 4150SOL    HW316373   4.518   2.777   3.689  0.5652 -0.4889 -0.0510
 4150SOL    MW416374   4.470   2.705   3.686  0.1639  0.1210 -0.1156
 4151SOL     OW16375   1.828   3.295   3.038 -0.3293 -0.1059 -0.2660
 4151SOL    HW216376   1.888   3.246   2.981 -0.1807 -0.6060  0.3139
 4151SOL    HW316377   1.847   3.264   3.126 -1.7220 -0.5687 -0.1025
 4151SOL    MW416378   1.838   3.285   3.042 -0.1485  0.7450 -0.0803
 4152SOL     OW16379   2.637   5.469   5.948  0.1381 -0.2740 -0.1818
 4152SOL    HW216380   2.647   5.422   5.864  0.1589 -1.3993  0.4239
 4152SOL    HW316381   2.638   5.399   6.014 -0.5873  0.5389  0.7103
 4152SOL    MW416382   2.639   5.453   5.945 -0.2710  0.2874 -0.8305
 4153SOL     OW16383   0.720   3.929   4.725  0.4883  0.1503 -0.2795
 4153SOL    HW216384   0.717   3.938   4.820 -0.5232 -0.5727 -0.2277
 4153SOL    HW316385   0.632   3.901   4.700  0.7036  0.4416 -1.4445
 4153SOL    MW416386   0.708   3.926   4.734 -0.5732  0.1381  0.4209
 4154SOL     OW16387   5.388   0.424   0.989 -0.2394 -0.2215 -0.0308
 4154SOL    HW216388   5.399   0.379   0.905  0.1062 -0.9258  0.3774
 4154SOL    HW316389   5.459   0.488   0.992 -0.8427  0.5010 -0.6969
 4154SOL    MW416390   5.398   0.426   0.978 -0.0959 -0.1897 -0.1636
 4155SOL     OW16391   6.315   4.274   5.722  0.0545  0.5775  0.3087
 4155SOL    HW216392   6.288   4.338   5.656  1.8108 -0.1558 -1.2014
 4155SOL    HW316393   6.375   4.323   5.779 -1.9090  1.3704  1.8061
 4155SOL    MW416394   6.320   4.289   5.721 -0.2256 -0.3627 -0.1817
 4156SOL     OW16395   5.804   4.631   2.886 -0.3252 -0.0285  0.0609
 4156SOL    HW216396   5.784   4.629   2.792 -2.2537  0.1012  0.4398
 4156SOL    HW316397   5.802   4.724   2.909 -2.1252 -0.1892  0.6575
 4156SOL    MW416398   5.801   4.643   2.877 -0.6951  0.2800 -0.1097
 4157SOL     OW16399   3.694   0.243   5.070 -0.0857 -0.3155  0.0961
 4157SOL    HW216400   3.629   0.312   5.079 -1.0985 -0.8607 -2.1873
 4157SOL    HW316401   3.702   0.230   4.975  1.4019 -2.0884  0.4040
 4157SOL    MW416402   3.687   0.250   5.058  0.8026 -0.2228  0.5595
 4158SOL     OW16403   1.802   5.773   3.554  0.0604  0.4835 -0.6580
 4158SOL    HW216404   1.806   5.845   3.490 -0.2804  1.5911  0.5388
 4158SOL    HW316405   1.731   5.797   3.613  0.4503 -0.4733  0.2217
 4158SOL    MW416406   1.793   5.786   3.553 -0.1020  0.3389  0.8636
 4159SOL     OW16407   1.829   4.724   2.946 -0.1825  0.3075 -0.5920
 4159SOL    HW216408   1.874   4.643   2.923  2.4647  2.0018 -1.9775
 4159SOL    HW316409   1.841   4.733   3.040  0.5017 -0.3627 -0.6065
 4159SOL    MW416410   1.836   4.714   2.955 -0.2299  0.3405  0.2343
 4160SOL     OW16411   1.445   0.413   4.652 -0.0570 -0.2037  0.1373
 4160SOL    HW216412   1.410   0.438   4.737  1.6819  3.6617 -0.0490
 4160SOL    HW316413   1.369   0.409   4.594 -0.9507 -0.0538  1.2795
 4160SOL    MW416414   1.431   0.416   4.656  0.1876  0.4511  0.0267
 4161SOL     OW16415   5.387   5.330   5.117 -0.2755  0.2308 -0.2534
 4161SOL    HW216416   5.438   5.399   5.160 -0.8291  1.0759 -0.9163
 4161SOL    HW316417   5.306   5.374   5.089 -1.4701 -1.1216  0.9371
 4161SOL    MW416418   5.383   5.345   5.119  0.3169  0.2131  0.3018
 4162SOL     OW16419   2.681   0.011   4.110 -0.2512 -0.3855 -0.3180
 4162SOL    HW216420   2.669  -0.067   4.164 -0.2973 -0.5178 -0.5183
 4162SOL    HW316421   2.775   0.013   4.092 -0.3511 -0.7855 -0.8938
 4162SOL    MW416422   2.692   0.001   4.115  0.6795 -0.1330 -0.3147
 4163SOL     OW16423   5.493   6.068   4.357 -0.4101 -0.0634  0.1006
 4163SOL    HW216424   5.399   6.052   4.349 -0.2092 -1.5589  0.3155
 4163SOL    HW316425   5.520   6.014   4.431  0.3915  1.4662  0.9554
 4163SOL    MW416426   5.484   6.058   4.366 -0.2375  0.1341 -0.0137
 4164SOL     OW16427   0.175   1.711   2.798 -0.0442 -0.0752  0.6006
 4164SOL    HW216428   0.196   1.670   2.882  0.9531  1.0191  0.9161
 4164SOL    HW316429   0.217   1.797   2.802  1.1302 -0.4837 -1.5258
 4164SOL    MW416430   0.183   1.717   2.810  0.3557 -0.1331 -0.3368
 4165SOL     OW16431   0.626   5.853   4.540 -0.1153  0.2354  0.0171
 4165SOL    HW216432   0.612   5.944   4.567 -1.8417  0.1286 -0.4092
 4165SOL    HW316433   0.541   5.825   4.506  0.5145 -1.4032 -0.2769
 4165SOL    MW416434   0.613   5.861   4.539  0.1902  0.1641 -0.6303
 4166SOL     OW16435   2.599   1.155   0.111  0.1236 -0.0546 -0.2931
 4166SOL    HW216436   2.519   1.106   0.091  0.2584 -0.6866  0.6398
 4166SOL    HW316437   2.665   1.120   0.051  0.0440 -0.5219 -0.1100
 4166SOL    MW416438   2.597   1.144   0.101  0.3607 -0.1455  0.2357
 4167SOL     OW16439   5.558   0.115   2.398  1.1740 -0.3219 -0.2497
 4167SOL    HW216440   5.495   0.053   2.435  1.0844  0.1667  0.4463
 4167SOL    HW316441   5.642   0.068   2.398  0.9495 -0.7207 -0.4925
 4167SOL    MW416442   5.561   0.101   2.403  0.1193 -0.2410  1.2140
 4168SOL     OW16443   3.150   5.830   1.318 -0.3239 -0.0640  0.1298
 4168SOL    HW216444   3.120   5.907   1.269 -3.2695 -0.4255  1.1564
 4168SOL    HW316445   3.124   5.755   1.263  0.2272 -0.3896  0.3024
 4168SOL    MW416446   3.142   5.830   1.304 -0.4457 -0.4850  0.1489
 4169SOL     OW16447   4.074   0.190   1.892 -0.5023 -0.5460 -0.3798
 4169SOL    HW216448   4.095   0.283   1.897 -0.2849 -0.5310 -1.5032
 4169SOL    HW316449   4.157   0.147   1.871 -0.6694 -0.9635 -0.2105
 4169SOL    MW416450   4.088   0.196   1.890 -0.2473  0.0096  0.1594
 4170SOL     OW16451   0.247   4.331   5.587 -0.2781  0.3134  0.1129
 4170SOL    HW216452   0.224   4.405   5.530 -0.4181  0.5273  0.4473
 4170SOL    HW316453   0.195   4.258   5.553 -0.5928  0.5161  0.1573
 4170SOL    MW416454   0.237   4.331   5.575 -1.0194  0.0561 -0.1469
 4171SOL     OW16455   6.029   5.170   0.665 -0.2709 -0.0624 -0.0561
 4171SOL    HW216456   6.071   5.084   0.663 -0.2771 -0.0614 -0.2396
 4171SOL    HW316457   5.938   5.153   0.639  0.3896  0.3831 -3.0479
 4171SOL    MW416458   6.023   5.157   0.661 -0.2788  0.6991 -0.0331
 4172SOL     OW16459   5.590   5.232   1.089  0.4683  0.5458  0.4240
 4172SOL    HW216460   5.646   5.272   1.022  1.7602 -2.6465 -0.6041
 4172SOL    HW316461   5.509   5.212   1.044  0.8081 -0.3159  0.1778
 4172SOL    MW416462   5.587   5.235   1.075 -0.3114  0.3241  0.7639
 4173SOL     OW16463   5.155   3.586   1.314  0.2602  0.1384 -0.3342
 4173SOL    HW216464   5.110   3.589   1.230  0.6533  0.8483 -0.5264
 4173SOL    HW316465   5.090   3.619   1.377  1.1409  3.3324 -0.9189
 4173SOL    MW416466   5.140   3.591   1.311  0.7737  0.2162  0.6079
 4174SOL     OW16467   4.930   4.046   0.688 -0.2530  0.1935 -0.0337
 4174SOL    HW216468   4.911   4.063   0.595 -0.5435  1.3520  0.2118
 4174SOL    HW316469   4.848   4.013   0.724 -0.3910  0.5554 -0.0129
 4174SOL    MW416470   4.917   4.044   0.680  0.3588 -0.6925 -0.1834
 4175SOL     OW16471   3.337   2.658   1.853 -0.1347  0.0696  0.2542
 4175SOL    HW216472   3.257   2.707   1.832  0.0962 -0.2506 -1.4878
 4175SOL    HW316473   3.370   2.627   1.769  1.9482  0.3339  0.9122
 4175SOL    MW416474   3.331   2.660   1.839 -0.0420  0.3913 -0.5574
 4176SOL     OW16475   4.888   4.128   0.419 -0.3734 -0.1437 -0.0449
 4176SOL    HW216476   4.818   4.190   0.440  0.6598  1.3708 -0.9015
 4176SOL    HW316477   4.876   4.108   0.326  0.8384  0.8678 -0.4497
 4176SOL    MW416478   4.877   4.134   0.410  1.0538 -0.7757 -0.5498
 4177SOL     OW16479   0.015   6.131   0.714 -0.0721 -0.1916 -0.0422
 4177SOL    HW216480  -0.078   6.122   0.734  0.0744  1.5148  1.8267
 4177SOL    HW316481   0.055   6.153   0.799  1.8283  0.3135 -1.0172
 4177SOL    MW416482   0.008   6.133   0.728  0.4116 -0.1944 -0.2843
 4178SOL     OW16483   0.099   2.908   3.881 -0.0737 -0.2231  0.4870
 4178SOL    HW216484   0.194   2.905   3.872 -0.1991 -2.0538 -0.9322
 4178SOL    HW316485   0.066   2.894   3.792 -1.7203  2.5955  0.5460
 4178SOL    MW416486   0.107   2.906   3.868 -0.0213 -0.0678 -0.1190
 4179SOL     OW16487   5.409   6.293   4.163  0.0393 -0.1449  0.3433
 4179SOL    HW216488   5.339   6.309   4.226  1.3646  2.6004  1.3238
 4179SOL    HW316489   5.485   6.271   4.217  0.4737 -0.8380 -0.5295
 4179SOL    MW416490   5.410   6.292   4.178  0.9075  0.1265  0.1723
 4180SOL     OW16491   0.387   4.564   3.732  0.1750 -0.1486  0.1142
 4180SOL    HW216492   0.401   4.485   3.680 -0.2392  0.6843 -1.3092
 4180SOL    HW316493   0.303   4.599   3.702 -0.0618  0.3941  1.3209
 4180SOL    MW416494   0.378   4.558   3.722 -0.2324  0.1276 -0.1847
 4181SOL     OW16495   1.845   3.977   3.119 -0.0691 -0.2573 -0.2531
 4181SOL    HW216496   1.827   4.069   3.140  0.0778  0.6827 -3.5555
 4181SOL    HW316497   1.763   3.945   3.081  0.3054 -1.0718 -0.3842
 4181SOL    MW416498   1.832   3.985   3.116 -0.7753 -0.7033  0.0277
 4182SOL     OW16499   2.264   0.411   4.323  0.2615 -0.5520 -0.6884
 4182SOL    HW216500   2.359   0.421   4.335  0.2086 -1.7147  1.0206
 4182SOL    HW316501   2.231   0.501   4.319  1.5460 -0.0915 -2.7891
 4182SOL    MW416502   2.272   0.424   4.324  0.3005 -0.6811 -0.0242
 4183SOL     OW16503   3.430   0.063   1.961  0.0474  0.3286  0.3951
 4183SOL    HW216504   3.507   0.009   1.943 -0.0048  0.4064 -0.0892
 4183SOL    HW316505   3.447   0.102   2.046 -0.4044 -1.3201  1.2995
 4183SOL    MW416506   3.442   0.061   1.970  0.3105 -0.5065 -0.0845
 4184SOL     OW16507   3.633   4.748   1.016  0.6965  0.6349  0.1222
 4184SOL    HW216508   3.670   4.834   1.037  1.9800  0.2443 -0.4622
 4184SOL    HW316509   3.560   4.738   1.077  0.7834  1.9579  0.4767
 4184SOL    MW416510   3.628   4.758   1.027 -0.4376  0.0464  0.4747
 4185SOL     OW16511   2.670   1.605   5.296 -0.3255  1.1500  0.0690
 4185SOL    HW216512   2.669   1.553   5.376  1.2176  0.9634 -0.0075
 4185SOL    HW316513   2.640   1.692   5.323 -1.4761  0.6474  0.4860
 4185SOL    MW416514   2.666   1.610   5.310 -0.4091 -0.3432 -0.0818
 4186SOL     OW16515   1.208   1.143   4.573  0.0357  0.3517  0.2855
 4186SOL    HW216516   1.299   1.116   4.590  0.0001  0.5466  0.8135
 4186SOL    HW316517   1.213   1.238   4.566 -0.0079  0.3010 -0.4902
 4186SOL    MW416518   1.221   1.152   4.575  0.7375 -0.1929  0.1975
 4187SOL     OW16519   5.725   1.981   1.011  0.0542  0.0528 -0.4114
 4187SOL    HW216520   5.774   1.959   0.932  0.4584  2.1330 -0.7859
 4187SOL    HW316521   5.633   1.982   0.984  0.2349  1.3795 -1.0501
 4187SOL    MW416522   5.719   1.978   0.997 -0.2273 -0.2758  0.1225
 4188SOL     OW16523   1.349   3.784   3.629  0.5472  0.5646  0.1858
 4188SOL    HW216524   1.432   3.811   3.591  0.2967  2.0190  0.6067
 4188SOL    HW316525   1.283   3.829   3.576  0.0347 -0.3072  0.0654
 4188SOL    MW416526   1.351   3.794   3.617  0.8731  0.0163 -0.4426
 4189SOL     OW16527   2.474   1.253   6.221  0.1013  0.2185 -0.1986
 4189SOL    HW216528   2.380   1.263   6.204  0.4247  1.1121 -1.5938
 4189SOL    HW316529   2.490   1.308   6.299 -0.4928  0.2442 -0.0918
 4189SOL    MW416530   2.464   1.262   6.229 -0.1297 -0.0148  0.2441
 4190SOL     OW16531   5.800   4.013   6.008 -0.5079  0.3671  0.6215
 4190SOL    HW216532   5.875   4.009   6.067  1.1801  2.0103 -1.2502
 4190SOL    HW316533   5.822   3.952   5.937 -0.8894  0.9414 -0.0050
 4190SOL    MW416534   5.813   4.004   6.006 -0.6685 -0.1627  0.3446
 4191SOL     OW16535   4.936   2.704   1.612  0.1101 -0.1292  0.3651
 4191SOL    HW216536   4.952   2.731   1.521 -0.9507 -0.8994 -0.0658
 4191SOL    HW316537   4.921   2.609   1.606  1.3690 -0.4299  1.5278
 4191SOL    MW416538   4.937   2.695   1.599  0.2549  0.0706  0.0343
 4192SOL     OW16539   5.536   3.574   2.886  0.0039  1.0921  0.4044
 4192SOL    HW216540   5.498   3.525   2.813 -1.8055  0.9884  1.3698
 4192SOL    HW316541   5.629   3.551   2.884 -0.4812 -1.0231 -0.2153
 4192SOL    MW416542   5.543   3.564   2.876  0.4080  0.2542 -0.5871
 4193SOL     OW16543   5.776   0.265   3.643 -0.2596  0.0622  0.1414
 4193SOL    HW216544   5.749   0.226   3.560 -0.1772 -1.8842  0.9786
 4193SOL    HW316545   5.860   0.223   3.663  0.4006  1.5334  0.5558
 4193SOL    MW416546   5.783   0.254   3.635 -0.8385  0.0897 -0.1125
 4194SOL     OW16547   0.639   3.614   5.466 -0.0943 -0.5399 -0.5004
 4194SOL    HW216548   0.665   3.525   5.491 -0.0312 -0.2618  0.4554
 4194SOL    HW316549   0.684   3.629   5.383 -0.4698 -1.5668 -0.9100
 4194SOL    MW416550   0.648   3.604   5.459  0.3876  0.0248  0.1211
 4195SOL     OW16551   3.968   6.134   3.931  0.3339  0.6146 -0.0229
 4195SOL    HW216552   4.023   6.077   3.985 -1.8478 -1.1849  0.4301
 4195SOL    HW316553   3.946   6.208   3.988  0.4799  0.2314  0.5369
 4195SOL    MW416554   3.973   6.136   3.946 -0.1321  0.4597  0.4846
 4196SOL     OW16555   4.622   0.222   0.943 -0.5256  0.4909 -0.3069
 4196SOL    HW216556   4.679   0.180   0.879 -1.1493  0.8068 -1.0862
 4196SOL    HW316557   4.567   0.152   0.976 -0.5953  0.4345 -0.5452
 4196SOL    MW416558   4.622   0.208   0.939 -0.7835 -0.4251  0.2906
 4197SOL     OW16559   6.105   1.217   1.540  0.0861 -0.6134  0.2147
 4197SOL    HW216560   6.201   1.214   1.536  0.1487  1.0783 -0.3940
 4197SOL    HW316561   6.080   1.269   1.463 -1.2468 -0.1065  0.9664
 4197SOL    MW416562   6.115   1.224   1.529 -0.1451 -0.3567  0.5263
 4198SOL     OW16563   5.422   3.643   6.137 -0.2835 -0.7130 -0.1981
 4198SOL    HW216564   5.409   3.729   6.176  0.6530 -1.3833  1.7485
 4198SOL    HW316565   5.513   3.621   6.156 -0.8068 -2.5996  0.4076
 4198SOL    MW416566   5.432   3.651   6.145 -0.2324 -0.0658 -0.9375
 4199SOL     OW16567   0.405   0.603   5.670 -0.0002 -0.4757  0.4612
 4199SOL    HW216568   0.320   0.562   5.678  1.0709 -3.3970 -1.4816
 4199SOL    HW316569   0.460   0.558   5.735  0.7557 -0.8290 -0.4048
 4199SOL    MW416570   0.401   0.592   5.680 -0.2710 -0.2003  1.2209
 4200SOL     OW16571   2.149   1.089   6.339  0.1899 -0.1375  0.3695
 4200SOL    HW216572   2.202   1.042   6.403  1.1020 -0.1416 -0.3617
 4200SOL    HW316573   2.175   1.052   6.255 -0.5791  0.2553 -0.0491
 4200SOL    MW416574   2.159   1.078   6.336 -0.0895  0.0834 -0.1157
 4201SOL     OW16575   2.618   4.206   0.033 -0.6206  0.2705  0.0192
 4201SOL    HW216576   2.700   4.184   0.078 -0.2097  1.3823 -0.1488
 4201SOL    HW316577   2.610   4.141  -0.036  0.2986  0.3562 -0.1716
 4201SOL    MW416578   2.628   4.195   0.030  0.5436 -0.0294  0.1917
 4202SOL     OW16579   4.355   3.088   1.417  0.2674  0.7413 -0.1609
 4202SOL    HW216580   4.266   3.098   1.384 -1.2398  0.6858  3.4288
 4202SOL    HW316581   4.370   3.167   1.470  0.1028 -1.5940  3.6933
 4202SOL    MW416582   4.345   3.100   1.420  0.6089  0.7116  0.3365
 4203SOL     OW16583   1.528   4.570   2.149  0.1032  0.1301 -0.0629
 4203SOL    HW216584   1.610   4.544   2.191  0.9509  0.7996 -1.2414
 4203SOL    HW316585   1.466   4.582   2.222  1.0014 -0.5234  0.8335
 4203SOL    MW416586   1.531   4.568   2.164 -0.2201 -0.3159 -0.3914
 4204SOL     OW16587   3.901   3.471   0.727 -0.3282 -0.1473  0.0910
 4204SOL    HW216588   3.857   3.498   0.807  1.4729 -0.5098  1.2710
 4204SOL    HW316589   3.995   3.481   0.747  0.2001 -1.3333 -1.5776
 4204SOL    MW416590   3.908   3.476   0.740 -0.7075 -0.2076  0.3238
 4205SOL     OW16591   5.627   3.850   5.441  0.2586  0.0266 -0.2521
 4205SOL    HW216592   5.645   3.943   5.454 -1.5974  0.2922  0.7536
 4205SOL    HW316593   5.692   3.822   5.376  0.7540  2.0555 -0.7054
 4205SOL    MW416594   5.638   3.858   5.434 -0.1601  0.4868 -0.2507
 4206SOL     OW16595   0.941   5.581   1.758 -0.0260 -0.1285 -0.5794
 4206SOL    HW216596   0.910   5.496   1.787 -1.6411  1.4553  2.9223
 4206SOL    HW316597   1.037   5.573   1.759 -0.1457 -1.8864 -0.3902
 4206SOL    MW416598   0.950   5.569   1.762  0.1109  0.1830  0.1856
 4207SOL     OW16599   1.372   2.660   4.584  0.3026  0.4425  0.0666
 4207SOL    HW216600   1.321   2.686   4.661 -2.7675  0.1497 -1.6909
 4207SOL    HW316601   1.354   2.728   4.519  2.1406  0.2504 -0.7136
 4207SOL    MW416602   1.363   2.672   4.586  0.3265 -0.3560  0.2262
 4208SOL     OW16603   0.167   4.251   3.669  0.5247  0.1854  0.4586
 4208SOL    HW216604   0.193   4.318   3.606 -1.6694  0.8082  0.1496
 4208SOL    HW316605   0.111   4.192   3.619  0.9675 -0.8913  1.1869
 4208SOL    MW416606   0.163   4.252   3.654 -0.1611  0.7010  0.3325
 4209SOL     OW16607   1.014   0.261   2.181  0.3832 -0.0625 -0.1438
 4209SOL    HW216608   1.012   0.307   2.265 -1.3731 -0.5321  0.1233
 4209SOL    HW316609   1.107   0.248   2.162  0.8083 -0.3184  1.9344
 4209SOL    MW416610   1.026   0.265   2.189  0.0559  0.4901  0.3323
 4210SOL     OW16611   3.153   2.190   3.458  0.1319  0.5862 -0.1037
 4210SOL    HW216612   3.224   2.200   3.394  0.1816  0.0944 -0.1260
 4210SOL    HW316613   3.140   2.096   3.465 -1.3835  0.6971 -1.0392
 4210SOL    MW416614   3.161   2.179   3.450  0.0240  0.4483  0.4724
 4211SOL     OW16615   4.812   3.245   4.905  0.0763 -0.2887 -0.0249
 4211SOL    HW216616   4.733   3.278   4.862 -0.4327 -1.0410  0.2854
 4211SOL    HW316617   4.779   3.206   4.987  1.0592  1.4223  1.2334
 4211SOL    MW416618   4.797   3.244   4.910  0.0745 -0.6476 -0.9308
 4212SOL     OW16619   3.494   2.697   2.560  0.5870  0.5330 -0.4861
 4212SOL    HW216620   3.419   2.638   2.558  0.4000  0.5535  2.2173
 4212SOL    HW316621   3.518   2.708   2.469  0.1137 -3.0617 -1.2049
 4212SOL    MW416622   3.487   2.691   2.548  0.3150  0.1934 -0.1075
 4213SOL     OW16623   3.826   1.143   2.049 -0.4141  0.0966  0.3696
 4213SOL    HW216624   3.771   1.207   2.004  1.5048  2.4694  1.2032
 4213SOL    HW316625   3.871   1.097   1.978 -2.4367 -1.0348 -0.2701
 4213SOL    MW416626   3.825   1.145   2.034 -0.3275 -0.1123 -0.2264
 4214SOL     OW16627   6.018   5.543   0.993  0.4810 -0.2061 -0.1366
 4214SOL    HW216628   6.053   5.632   0.999  0.9462 -0.4930  2.4480
 4214SOL    HW316629   6.083   5.495   0.941  0.6276  0.7354 -0.8549
 4214SOL    MW416630   6.031   5.549   0.987 -0.8054 -0.0872  0.0586
 4215SOL     OW16631   4.111   3.656   4.137 -0.1184 -0.7734 -0.2549
 4215SOL    HW216632   4.047   3.594   4.103 -1.8029  0.8888 -0.2751
 4215SOL    HW316633   4.059   3.728   4.173  1.7133  1.7725 -2.2932
 4215SOL    MW416634   4.096   3.658   4.138 -0.4229  0.1253 -0.0676
 4216SOL     OW16635   3.575   2.793   0.574  0.0834 -0.2875 -0.2982
 4216SOL    HW216636   3.624   2.871   0.600 -1.5369  0.6552  0.0427
 4216SOL    HW316637   3.548   2.753   0.657 -0.3040 -0.3950 -0.4733
 4216SOL    MW416638   3.578   2.798   0.589 -0.1777 -0.1053  0.0525
 4217SOL     OW16639   0.066   5.424   1.011 -0.1316 -0.1964 -0.1022
 4217SOL    HW216640   0.148   5.374   1.017  0.4927  0.8600  0.5271
 4217SOL    HW316641   0.028   5.417   1.099  0.9765  2.0513  0.6269
 4217SOL    MW416642   0.072   5.416   1.024  0.5091 -0.3253 -0.1213
 4218SOL     OW16643   5.947   2.005   3.368 -0.5643 -0.3937 -1.3246
 4218SOL    HW216644   6.010   1.973   3.303 -0.2603 -0.1484 -1.1592
 4218SOL    HW316645   5.995   2.074   3.415 -0.7360 -0.6624 -0.7494
 4218SOL    MW416646   5.962   2.010   3.366 -0.1076  0.6034 -0.1707
 4219SOL     OW16647   4.968   5.464   1.199 -0.3327 -0.4138  1.0809
 4219SOL    HW216648   4.892   5.521   1.189 -0.9641 -1.4801 -0.6008
 4219SOL    HW316649   4.946   5.384   1.151  2.2250 -0.3818 -0.3658
 4219SOL    MW416650   4.955   5.461   1.192 -0.3198 -0.5347  0.0479
 4220SOL     OW16651   5.855   4.915   0.361 -0.1741  0.5206 -0.4548
 4220SOL    HW216652   5.870   4.989   0.301  0.4896 -0.3222 -1.3617
 4220SOL    HW316653   5.784   4.866   0.320  0.5354 -0.2663 -0.7774
 4220SOL    MW416654   5.848   4.918   0.348  0.0178 -0.1063 -0.2848
 4221SOL     OW16655   2.522   2.260   2.572 -0.4428  0.3440  0.0035
 4221SOL    HW216656   2.487   2.178   2.537  0.9088  0.0877 -0.8343
 4221SOL    HW316657   2.598   2.234   2.624 -0.0594  1.0500 -0.1862
 4221SOL    MW416658   2.528   2.246   2.574 -0.4582 -0.1053  0.0355
 4222SOL     OW16659   0.726   3.415   3.679 -0.1192  0.0850  0.0871
 4222SOL    HW216660   0.713   3.387   3.770  1.6378 -0.7724  0.1248
 4222SOL    HW316661   0.695   3.341   3.627 -1.3217  0.6596 -0.0488
 4222SOL    MW416662   0.720   3.401   3.684  0.2614 -0.2195  0.3024
 4223SOL     OW16663   1.885   6.345   4.873 -0.0567 -0.2163  0.4942
 4223SOL    HW216664   1.792   6.357   4.855 -0.4271 -1.9404  1.0753
 4223SOL    HW316665   1.930   6.393   4.803 -1.3680  0.4352  0.0716
 4223SOL    MW416666   1.879   6.353   4.862 -0.0493 -0.3395 -0.0797
 4224SOL     OW16667   1.814   6.034   2.186 -0.6421  0.1389  0.4370
 4224SOL    HW216668   1.797   6.116   2.141  0.1134  0.5078  0.8100
 4224SOL    HW316669   1.902   6.044   2.222  0.6658 -1.9032 -1.9108
 4224SOL    MW416670   1.823   6.046   2.185 -0.1607  0.1532  0.2732
 4225SOL     OW16671   2.839   0.741   0.798  0.2390  0.6423 -0.6111
 4225SOL    HW216672   2.786   0.820   0.787 -2.3807 -0.8031  0.7695
 4225SOL    HW316673   2.851   0.733   0.892 -1.9957 -1.9962 -0.4303
 4225SOL    MW416674   2.834   0.750   0.809 -0.1663  0.2943  0.2975
 4226SOL     OW16675   2.499   1.961   2.109 -0.0078  0.4240  0.0890
 4226SOL    HW216676   2.486   2.025   2.179 -1.9691  1.8475 -1.4441
 4226SOL    HW316677   2.581   1.917   2.131  0.2823  1.9460  2.3750
 4226SOL    MW416678   2.508   1.963   2.121 -0.2326  0.5083  0.0337
 4227SOL     OW16679   6.008   3.755   1.992 -0.1755  0.5128  0.0189
 4227SOL    HW216680   5.920   3.717   2.005 -0.3368  1.3090  1.4388
 4227SOL    HW316681   5.995   3.821   1.924 -0.6164  0.4362  0.0199
 4227SOL    MW416682   5.994   3.758   1.985 -0.0840 -0.6129 -0.2954
 4228SOL     OW16683   4.989   5.736   5.804 -0.0067 -0.2184  0.1031
 4228SOL    HW216684   5.075   5.728   5.845  0.9905 -0.7037 -1.9664
 4228SOL    HW316685   4.945   5.653   5.823  1.4636 -1.5467 -1.9075
 4228SOL    MW416686   4.994   5.724   5.812 -0.0057  0.1651  0.8440
 4229SOL     OW16687   3.231   4.723   6.133 -0.4988  0.2173  0.1546
 4229SOL    HW216688   3.247   4.776   6.211  1.3711 -0.7207  0.4827
 4229SOL    HW316689   3.216   4.635   6.167  0.3572 -0.2024 -0.5068
 4229SOL    MW416690   3.231   4.719   6.148 -1.0512  0.1584  0.4878
 4230SOL     OW16691   2.380   5.843   3.227  0.1938  0.0449  0.8303
 4230SOL    HW216692   2.304   5.898   3.245  0.6986  0.9746  0.1991
 4230SOL    HW316693   2.343   5.759   3.200 -0.7327  1.3170 -2.2429
 4230SOL    MW416694   2.365   5.839   3.226  0.2986  0.1024 -0.0221
 4231SOL     OW16695   5.114   6.244   4.807  0.4571 -0.8849 -0.3769
 4231SOL    HW216696   5.145   6.174   4.864 -0.3853 -1.0097 -0.0687
 4231SOL    HW316697   5.053   6.201   4.747  2.1707 -1.0097 -2.1799
 4231SOL    MW416698   5.110   6.230   4.806 -0.0132 -0.5481  0.5122
 4232SOL     OW16699   3.566   5.357   0.141 -0.0723  0.1713  0.1800
 4232SOL    HW216700   3.476   5.331   0.160 -0.1121 -1.0470 -1.4427
 4232SOL    HW316701   3.619   5.282   0.170  0.2616  0.2199 -0.2918
 4232SOL    MW416702   3.562   5.344   0.148  0.2104 -0.3198  0.0571
 4233SOL     OW16703   1.452   4.927   1.085  0.1385  0.4845 -0.3190
 4233SOL    HW216704   1.512   4.873   1.033  1.0845  1.6941 -0.5446
 4233SOL    HW316705   1.463   4.895   1.174  1.0554  0.6006 -0.3774
 4233SOL    MW416706   1.462   4.916   1.090  0.1932 -0.2097 -0.1812
 4234SOL     OW16707   1.719   4.791   4.220 -0.0743 -0.3764  0.1422
 4234SOL    HW216708   1.744   4.884   4.221  0.3147 -0.4826  1.1962
 4234SOL    HW316709   1.786   4.749   4.167 -0.3201 -0.0426 -0.4453
 4234SOL    MW416710   1.731   4.798   4.213  0.7422 -0.6312  0.3545
 4235SOL     OW16711   0.029   2.978   0.476  0.9560 -0.2342  0.2102
 4235SOL    HW216712  -0.058   2.991   0.438  1.3859  0.2749 -0.6347
 4235SOL    HW316713   0.089   3.022   0.415  1.8120 -0.6122  0.7530
 4235SOL    MW416714   0.026   2.985   0.463  0.6603  0.5322 -0.2944
 4236SOL     OW16715   4.949   0.480   0.822 -0.1305 -0.0559 -0.2087
 4236SOL    HW216716   4.909   0.441   0.744  1.2366  0.6435 -1.3030
 4236SOL    HW316717   4.904   0.564   0.832  0.5026  0.3846 -0.9736
 4236SOL    MW416718   4.938   0.486   0.813 -0.2849  0.6664  0.0829
 4237SOL     OW16719   3.572   1.740   4.659 -0.1711  0.2341  0.1023
 4237SOL    HW216720   3.660   1.762   4.688 -0.4515  1.7655 -0.1066
 4237SOL    HW316721   3.526   1.824   4.656 -1.7597 -0.5688  0.6013
 4237SOL    MW416722   3.577   1.754   4.663 -0.1620  0.2250 -0.3157
 4238SOL     OW16723   4.515   5.482   5.934  0.0844 -0.4600  0.1305
 4238SOL    HW216724   4.465   5.564   5.931  0.0574 -0.4788  0.0380
 4238SOL    HW316725   4.449   5.415   5.951 -0.0548 -0.5894 -0.8624
 4238SOL    MW416726   4.500   5.484   5.935 -0.3981 -0.7880 -0.5774
 4239SOL     OW16727   1.518   2.671   4.276  0.5161  0.0149  0.3496
 4239SOL    HW216728   1.485   2.759   4.295  2.5199  1.1839 -1.0803
 4239SOL    HW316729   1.472   2.644   4.197 -0.4117 -0.4247  1.0311
 4239SOL    MW416730   1.508   2.679   4.268  0.0815 -0.0412  0.1706
 4240SOL     OW16731   5.196   4.741   3.357  0.0421  1.1045  0.3953
 4240SOL    HW216732   5.263   4.776   3.297  1.2806  0.3746  1.3009
 4240SOL    HW316733   5.222   4.774   3.443 -2.1139  2.7172  0.5026
 4240SOL    MW416734   5.209   4.750   3.360 -0.1285  0.3858  0.3890
 4241SOL     OW16735   1.765   4.106   5.050  0.6044 -0.0302 -0.4237
 4241SOL    HW216736   1.721   4.098   5.135 -0.5451 -1.9409 -1.1149
 4241SOL    HW316737   1.809   4.022   5.038  1.0957  0.3696 -1.5384
 4241SOL    MW416738   1.765   4.094   5.059  0.0450 -0.0442  0.0172
 4242SOL     OW16739   6.088   4.019   3.912  0.2696  0.3782  0.2121
 4242SOL    HW216740   6.086   4.050   3.822 -0.9872  0.7738  0.3664
 4242SOL    HW316741   6.000   3.987   3.929  1.0133 -1.5530  0.6764
 4242SOL    MW416742   6.076   4.019   3.903 -0.1597 -0.0109  0.5604
 4243SOL     OW16743   3.213   3.116   0.142  0.7923 -0.2337  0.6041
 4243SOL    HW216744   3.210   3.055   0.215  0.9754  0.5136  1.2485
 4243SOL    HW316745   3.303   3.150   0.143  0.0877  1.7900  1.7489
 4243SOL    MW416746   3.225   3.113   0.152  0.3135 -0.1974 -0.0472
 4244SOL     OW16747   2.305   0.423   3.823 -0.0390 -0.1735 -0.2093
 4244SOL    HW216748   2.233   0.375   3.782 -0.7926  0.2366  0.6063
 4244SOL    HW316749   2.284   0.515   3.808  0.6860 -0.0660 -0.5733
 4244SOL    MW416750   2.293   0.429   3.816  0.1762  0.1938 -0.3783
 4245SOL     OW16751   6.387   3.680   1.173 -0.2495  0.5553  0.1264
 4245SOL    HW216752   6.454   3.696   1.106  0.6290  0.3035  0.9156
 4245SOL    HW316753   6.436   3.683   1.256 -0.7367 -2.0651  0.5970
 4245SOL    MW416754   6.403   3.682   1.175 -0.0505 -0.0460 -0.2418
 4246SOL     OW16755   4.104   3.154   1.670  0.1273  0.3172  0.0589
 4246SOL    HW216756   4.103   3.175   1.577 -1.3383 -1.4930 -0.3883
 4246SOL    HW316757   4.153   3.226   1.710 -0.6256  2.0070 -1.8814
 4246SOL    MW416758   4.110   3.166   1.663  0.4120  0.3723  0.0968
 4247SOL     OW16759   4.927   2.052   1.174  0.0344  0.0353  0.0426
 4247SOL    HW216760   4.874   2.123   1.137 -0.3942  0.7981  1.9952
 4247SOL    HW316761   4.995   2.097   1.225  0.2315 -0.9576  0.6807
 4247SOL    MW416762   4.929   2.067   1.176  0.2828  0.0731 -0.1449
 4248SOL     OW16763   1.553   2.061   2.917  0.0701 -0.1695  0.2629
 4248SOL    HW216764   1.498   1.993   2.880  0.4036 -0.2371 -0.1148
 4248SOL    HW316765   1.511   2.143   2.891 -0.5633 -0.2237  1.0702
 4248SOL    MW416766   1.540   2.063   2.909  0.2486  0.2758  0.3546
 4249SOL     OW16767   1.176   1.782   3.600 -0.1476 -0.1573 -0.0017
 4249SOL    HW216768   1.208   1.713   3.659  0.6267  2.4468  2.9381
 4249SOL    HW316769   1.083   1.789   3.620 -0.2708 -0.5015 -0.4590
 4249SOL    MW416770   1.168   1.774   3.610  0.2439 -0.4274  0.3438
 4250SOL     OW16771   5.964   1.610   0.571  0.4198  0.1482 -0.2581
 4250SOL    HW216772   6.000   1.630   0.484 -1.3965  2.0459 -0.6490
 4250SOL    HW316773   5.900   1.541   0.555  1.0054 -0.4197 -0.1947
 4250SOL    MW416774   5.960   1.603   0.557 -0.0495  0.2169  0.1187
 4251SOL     OW16775   2.453   1.999   2.763 -0.1404 -0.1811  0.3506
 4251SOL    HW216776   2.488   1.930   2.819  1.7531  0.2757 -0.1909
 4251SOL    HW316777   2.389   1.954   2.707 -0.9859 -0.9150  1.8380
 4251SOL    MW416778   2.449   1.984   2.763 -0.1221  0.0843  0.5409
 4252SOL     OW16779   3.549   0.172   3.317 -0.1818 -0.0070 -0.3484
 4252SOL    HW216780   3.636   0.141   3.294  0.5785  0.1954  2.0002
 4252SOL    HW316781   3.540   0.256   3.272  1.0906  0.2714 -0.1147
 4252SOL    MW416782   3.559   0.179   3.308  0.4255 -0.2218  0.3868
 4253SOL     OW16783   5.693   3.282   5.048 -0.0212  0.3737 -0.0086
 4253SOL    HW216784   5.616   3.302   4.994  0.6353 -0.7651 -1.4399
 4253SOL    HW316785   5.660   3.218   5.112 -0.1634 -0.5865 -1.0066
 4253SOL    MW416786   5.678   3.276   5.050  0.3925 -0.4593 -0.8094
 4254SOL     OW16787   2.313   4.048   1.294  0.0999  0.7869  0.4072
 4254SOL    HW216788   2.247   4.028   1.228 -2.3021 -0.9298  3.0855
 4254SOL    HW316789   2.281   4.127   1.337  1.1454  1.3618  0.1676
 4254SOL    MW416790   2.300   4.056   1.291 -0.9302 -0.5649 -0.2602
 4255SOL     OW16791   3.331   0.248   0.831 -0.1028  0.2751 -0.1383
 4255SOL    HW216792   3.407   0.206   0.870 -1.5365 -0.3100  2.2552
 4255SOL    HW316793   3.285   0.288   0.905 -2.9819 -0.8262 -1.1973
 4255SOL    MW416794   3.335   0.248   0.846 -0.2338  0.5755 -0.0741
 4256SOL     OW16795   3.456   2.455   2.974 -0.2034  0.4352 -0.1048
 4256SOL    HW216796   3.391   2.459   2.904 -0.9324  0.6982  0.5715
 4256SOL    HW316797   3.503   2.538   2.969  1.1607 -0.3697 -1.5828
 4256SOL    MW416798   3.454   2.466   2.965 -0.0903 -0.7002 -0.3904
 4257SOL     OW16799   5.128   1.024   6.386 -0.8100 -0.4441 -0.1176
 4257SOL    HW216800   5.142   1.095   6.322  2.2484 -0.9838 -0.2218
 4257SOL    HW316801   5.061   1.058   6.444 -0.9129  1.7144 -1.3457
 4257SOL    MW416802   5.121   1.038   6.385 -0.1192  0.3195 -0.1100
 4258SOL     OW16803   0.276   2.108   1.803 -0.5777 -0.3155  0.3633
 4258SOL    HW216804   0.300   2.200   1.797 -0.5914 -0.2163  1.6293
 4258SOL    HW316805   0.342   2.063   1.749  0.1667  0.3218  0.7170
 4258SOL    MW416806   0.288   2.114   1.795  0.4868 -0.1435 -0.2117
 4259SOL     OW16807   4.379   4.186   0.663  0.0224 -0.5370 -0.3603
 4259SOL    HW216808   4.362   4.092   0.652  0.6278 -0.6361 -0.4336
 4259SOL    HW316809   4.441   4.191   0.736  1.5433 -0.3276 -1.6199
 4259SOL    MW416810   4.385   4.174   0.672 -0.5002 -0.6496  0.9867
 4260SOL     OW16811   6.178   3.898   2.676  0.3721  0.0218  0.3932
 4260SOL    HW216812   6.182   3.977   2.730  0.2632 -0.8434  1.7104
 4260SOL    HW316813   6.109   3.845   2.716  1.6523 -1.5264  0.6595
 4260SOL    MW416814   6.170   3.901   2.689  0.0419  0.0817 -0.0910
 4261SOL     OW16815   5.832   4.823   0.627  0.0286 -0.2618 -0.1335
 4261SOL    HW216816   5.855   4.858   0.541  0.6710  0.6008  0.3734
 4261SOL    HW316817   5.737   4.813   0.625  0.0799 -0.5779 -1.0636
 4261SOL    MW416818   5.823   4.827   0.616  0.1331 -0.0168 -0.3424
 4262SOL     OW16819   1.377   5.325   1.905  0.2441  0.0834  0.1877
 4262SOL    HW216820   1.349   5.257   1.843 -0.9180  1.0120 -0.3552
 4262SOL    HW316821   1.295   5.369   1.929  1.0417  1.6931  0.0382
 4262SOL    MW416822   1.362   5.322   1.900  0.7174  0.2552 -0.3187
 4263SOL     OW16823   4.877   5.742   2.814  0.3276 -0.4239 -0.2842
 4263SOL    HW216824   4.803   5.777   2.862  1.9031  0.0415  1.9590
 4263SOL    HW316825   4.910   5.671   2.868  1.2360 -0.9530 -1.4761
 4263SOL    MW416826   4.872   5.737   2.827  0.4144  0.0605  0.1161
 4264SOL     OW16827   0.027   4.910   4.056  0.5883 -0.3691 -0.3897
 4264SOL    HW216828   0.019   4.844   3.987 -1.6162 -0.7021  0.1311
 4264SOL    HW316829  -0.040   4.975   4.036  0.3916 -0.0946  1.0235
 4264SOL    MW416830   0.017   4.910   4.044  0.2030  0.1430 -0.6172
 4265SOL     OW16831   5.034   0.898   5.903 -0.9263  0.6678  0.3157
 4265SOL    HW216832   5.034   0.903   5.998 -0.9571 -0.8925  0.4269
 4265SOL    HW316833   5.009   0.986   5.874 -1.4826  1.0136  1.7548
 4265SOL    MW416834   5.030   0.910   5.912  0.0571  0.1119 -0.0821
 4266SOL     OW16835   1.627   2.411   1.788  0.8559 -0.1889  0.1860
 4266SOL    HW216836   1.656   2.324   1.759 -0.3272 -0.2048 -1.0377
 4266SOL    HW316837   1.699   2.443   1.843  2.4712 -0.8987 -1.3904
 4266SOL    MW416838   1.640   2.404   1.791  0.2619  0.3702  0.0894
 4267SOL     OW16839   3.160   1.358   5.075 -0.0646 -0.2062 -0.4239
 4267SOL    HW216840   3.232   1.417   5.095  0.3463 -0.2740 -1.6598
 4267SOL    HW316841   3.089   1.415   5.046  0.0845 -0.2613 -0.9023
 4267SOL    MW416842   3.160   1.373   5.074 -0.1443 -0.0737  0.3724
 4268SOL     OW16843   5.646   2.646   2.508  0.0187 -0.3032  0.3842
 4268SOL    HW216844   5.607   2.666   2.593  1.3039  1.2645  0.6520
 4268SOL    HW316845   5.610   2.560   2.484  0.6002 -1.4130  3.1055
 4268SOL    MW416846   5.636   2.637   2.516  0.0202  0.2659 -0.4587
 4269SOL     OW16847   0.507   3.822   3.332  0.2228  0.1677 -0.0946
 4269SOL    HW216848   0.464   3.837   3.417 -0.0042 -1.3251  0.0777
 4269SOL    HW316849   0.476   3.895   3.278  0.9648  1.5940  1.2856
 4269SOL    MW416850   0.497   3.834   3.336 -0.0740  0.1031 -0.0695
 4270SOL     OW16851   1.727   5.662   2.646 -0.1932 -0.1347  0.0467
 4270SOL    HW216852   1.673   5.741   2.648  1.3489  0.9753 -0.4958
 4270SOL    HW316853   1.690   5.610   2.576 -1.1076  0.1861  0.2758
 4270SOL    MW416854   1.715   5.666   2.637 -0.1835 -0.3067 -0.6103
 4271SOL     OW16855   4.606   2.870   0.384  0.0506  0.0677  0.1053
 4271SOL    HW216856   4.649   2.866   0.298 -0.6125  4.1713 -0.6503
 4271SOL    HW316857   4.512   2.867   0.363 -0.1064 -0.1613  0.8253
 4271SOL    MW416858   4.599   2.869   0.370 -0.1621 -0.1646 -0.4916
 4272SOL     OW16859   5.148   0.805   4.863 -0.3230 -0.0353  0.0225
 4272SOL    HW216860   5.114   0.750   4.934  1.0610 -0.1210  0.6410
 4272SOL    HW316861   5.198   0.874   4.907 -1.2560  1.2023 -0.7936
 4272SOL    MW416862   5.150   0.807   4.878 -0.3128 -0.1535 -0.2897
 4273SOL     OW16863   4.185   4.357   0.259 -0.1522 -0.1863  0.3364
 4273SOL    HW216864   4.102   4.338   0.304 -0.2326 -2.1960 -0.5604
 4273SOL    HW316865   4.251   4.351   0.327 -0.7330  1.9934  1.1864
 4273SOL    MW416866   4.183   4.354   0.274 -0.4642  0.1172  0.1440
 4274SOL     OW16867   5.496   1.285   5.506  0.2460 -0.2556  0.2364
 4274SOL    HW216868   5.542   1.360   5.468  2.0402 -1.1677  0.5005
 4274SOL    HW316869   5.527   1.210   5.455 -2.0964 -0.7835 -0.5373
 4274SOL    MW416870   5.506   1.285   5.494  0.1361 -0.0275  0.3520
 4275SOL     OW16871   4.252   3.850   4.726 -0.3677 -0.4134 -0.2237
 4275SOL    HW216872   4.247   3.882   4.816 -0.7651  1.8803 -0.9930
 4275SOL    HW316873   4.344   3.861   4.702 -0.3550 -0.5819 -0.2550
 4275SOL    MW416874   4.263   3.856   4.735 -0.9590 -0.1886 -0.1551
 4276SOL     OW16875   4.850   0.365   1.684 -0.2822  0.2425  0.3181
 4276SOL    HW216876   4.914   0.361   1.614 -0.3226 -0.3187  0.3095
 4276SOL    HW316877   4.789   0.293   1.666  0.3417 -0.6273  1.5276
 4276SOL    MW416878   4.850   0.355   1.673 -0.1919  0.0852 -0.7532
 4277SOL     OW16879   1.009   1.262   1.403 -0.0255  0.0475 -0.1675
 4277SOL    HW216880   1.002   1.234   1.494  0.9896  0.3498  0.0251
 4277SOL    HW316881   0.975   1.351   1.402  2.1665  0.9789  0.4573
 4277SOL    MW416882   1.004   1.270   1.415  0.2876 -0.1340  0.4056
 4278SOL     OW16883   1.710   1.765   2.065 -0.5100  0.1635 -0.0880
 4278SOL    HW216884   1.693   1.793   1.975 -0.0967 -2.8178 -1.2252
 4278SOL    HW316885   1.805   1.770   2.074 -0.5025 -0.0478 -0.0346
 4278SOL    MW416886   1.720   1.769   2.054  0.3702 -0.3290  0.0025
 4279SOL     OW16887   2.333   4.763   0.259 -0.3768  0.2657 -0.0836
 4279SOL    HW216888   2.277   4.719   0.323  0.6799 -1.6930 -0.4212
 4279SOL    HW316889   2.273   4.819   0.209 -1.7761 -0.6293  0.5265
 4279SOL    MW416890   2.318   4.765   0.260 -0.2153  0.3008  0.2308
 4280SOL     OW16891   6.213   0.621   3.286  0.1579  0.4958  0.1672
 4280SOL    HW216892   6.186   0.577   3.366 -0.2244  2.2493  1.0500
 4280SOL    HW316893   6.162   0.579   3.217 -0.7569  0.0876  1.0705
 4280SOL    MW416894   6.203   0.610   3.287  0.3841  0.0171  0.1493
 4281SOL     OW16895   0.306   2.725   3.777 -0.0090 -0.0570 -0.3214
 4281SOL    HW216896   0.345   2.691   3.696 -0.1834 -0.7640 -0.1176
 4281SOL    HW316897   0.215   2.697   3.773  0.1379 -0.6961  0.4276
 4281SOL    MW416898   0.299   2.717   3.766 -0.1920 -0.2851 -0.4966
 4282SOL     OW16899   6.105   0.902   2.034  0.1543  0.5789 -0.7660
 4282SOL    HW216900   6.050   0.848   2.091 -0.0792 -0.5421 -1.9908
 4282SOL    HW316901   6.047   0.932   1.965  0.7312  0.7215 -1.2021
 4282SOL    MW416902   6.090   0.899   2.033 -0.1718 -0.5410  0.5696
 4283SOL     OW16903   3.297   4.287   4.420 -0.1125 -0.2270 -0.0210
 4283SOL    HW216904   3.237   4.347   4.375  0.6638  1.5594  1.2283
 4283SOL    HW316905   3.253   4.202   4.415 -2.1710  0.7731 -0.1904
 4283SOL    MW416906   3.283   4.283   4.413 -0.6020 -0.4789 -0.1752
 4284SOL     OW16907   5.035   5.343   1.755  0.3555 -0.9113 -0.3638
 4284SOL    HW216908   5.063   5.261   1.797  1.5749 -1.1830 -1.6319
 4284SOL    HW316909   4.974   5.315   1.687 -0.1308 -0.6467 -0.0408
 4284SOL    MW416910   5.031   5.329   1.752 -0.2974  0.1037 -0.0604
 4285SOL     OW16911   5.436   4.083   4.209  0.4285  0.5491  0.1257
 4285SOL    HW216912   5.491   4.142   4.159 -2.3922  1.7010 -1.8350
 4285SOL    HW316913   5.434   4.121   4.297  3.2507 -0.0019  0.5522
 4285SOL    MW416914   5.443   4.095   4.214 -0.2643 -0.0648  0.2373
 4286SOL     OW16915   4.314   4.606   0.162  0.4640  0.3133 -0.1596
 4286SOL    HW216916   4.322   4.700   0.177  0.6180  0.1880  0.5862
 4286SOL    HW316917   4.242   4.579   0.218 -0.1515  0.1274 -1.0273
 4286SOL    MW416918   4.306   4.615   0.172 -0.1511  0.3167  0.3410
 4287SOL     OW16919   0.260   2.313   0.926  0.0128 -0.5490 -0.5029
 4287SOL    HW216920   0.214   2.306   0.843  1.5922  3.1708 -1.9002
 4287SOL    HW316921   0.195   2.349   0.986 -0.3799 -0.6671 -0.8524
 4287SOL    MW416922   0.245   2.317   0.923  0.1181  0.0432  0.0443
 4288SOL     OW16923   6.279   3.135   3.877 -0.4078  0.2050  0.0711
 4288SOL    HW216924   6.254   3.222   3.907 -0.4462  0.2504 -0.0931
 4288SOL    HW316925   6.286   3.143   3.782  3.6462  1.1270  0.2905
 4288SOL    MW416926   6.277   3.148   3.869 -0.3666 -0.2459 -0.6883
 4289SOL     OW16927   5.194   6.148   2.417  0.2539 -0.1436  0.2440
 4289SOL    HW216928   5.213   6.154   2.323  0.5605 -1.0488  0.2384
 4289SOL    HW316929   5.265   6.196   2.459 -0.2936  0.9194 -0.0091
 4289SOL    MW416930   5.206   6.155   2.410  0.0001  0.3922 -0.4278
 4290SOL     OW16931   1.724   3.928   4.661  0.4531  0.3542 -0.0523
 4290SOL    HW216932   1.766   3.850   4.626  1.1263  0.6422  0.0773
 4290SOL    HW316933   1.633   3.923   4.632  1.5323  2.1712 -4.7932
 4290SOL    MW416934   1.718   3.917   4.653 -0.4151 -0.0677 -0.1002
 4291SOL     OW16935   1.310   4.914   1.953  0.1348  0.3562  0.0603
 4291SOL    HW216936   1.331   4.822   1.968  0.2118  0.3778  0.0812
 4291SOL    HW316937   1.274   4.945   2.036 -2.0768 -0.2725 -0.5859
 4291SOL    MW416938   1.308   4.906   1.966 -0.2465 -0.3723 -0.1994
 4292SOL     OW16939   0.818   5.725   1.555  0.4327  0.4045  0.3155
 4292SOL    HW216940   0.853   5.671   1.626  0.0124 -1.9845 -1.1817
 4292SOL    HW316941   0.766   5.665   1.502 -0.5101  2.4261 -1.2105
 4292SOL    MW416942   0.816   5.710   1.558 -0.1770  0.2916 -0.4218
 4293SOL     OW16943   5.703   3.597   1.331 -0.0036  0.0849 -0.1802
 4293SOL    HW216944   5.663   3.670   1.378  2.3087  1.5956 -0.3533
 4293SOL    HW316945   5.696   3.620   1.239  3.7702  2.0548 -0.1844
 4293SOL    MW416946   5.697   3.609   1.325 -0.1390 -0.2199 -0.5464
 4294SOL     OW16947   4.401   2.801   6.385 -0.0107 -0.0352 -0.2403
 4294SOL    HW216948   4.448   2.872   6.429 -2.2692  2.2837 -1.2527
 4294SOL    HW316949   4.355   2.756   6.455 -0.1965  0.8840  0.2483
 4294SOL    MW416950   4.401   2.805   6.400 -0.3128 -0.2965  0.0356
 4295SOL     OW16951   5.969   2.557   1.028  0.4275  1.0732  0.1394
 4295SOL    HW216952   5.994   2.647   1.048  1.1673  1.1280 -0.9715
 4295SOL    HW316953   5.899   2.565   0.964  0.0405  0.8583  0.5300
 4295SOL    MW416954   5.963   2.570   1.022 -0.4726  0.3258  0.2304
 4296SOL     OW16955   3.683   4.895   2.735  0.1572  0.0406  0.0905
 4296SOL    HW216956   3.736   4.823   2.769  1.2172 -0.1682 -1.9055
 4296SOL    HW316957   3.737   4.936   2.668 -0.8342  2.0686  0.4389
 4296SOL    MW416958   3.697   4.891   2.731 -0.2319  0.4660  0.1206
 4297SOL     OW16959   0.205   1.791   5.848  0.4108  0.4439 -0.3911
 4297SOL    HW216960   0.230   1.720   5.788  2.0405  0.2141  0.4935
 4297SOL    HW316961   0.267   1.862   5.828  0.3601  0.7082  0.3716
 4297SOL    MW416962   0.217   1.791   5.837  0.2222  0.2630  0.3400
 4298SOL     OW16963   0.606   2.135   0.106 -0.0613 -0.0285  0.0237
 4298SOL    HW216964   0.581   2.225   0.130 -1.0625 -0.3702  0.2750
 4298SOL    HW316965   0.578   2.126   0.015 -0.3908 -0.2465  0.1480
 4298SOL    MW416966   0.599   2.146   0.098  0.6390  0.2989  0.1120
 4299SOL     OW16967   6.149   2.040   5.411  0.5165  0.2887  0.1412
 4299SOL    HW216968   6.239   2.059   5.384  1.0828 -1.3679  0.7107
 4299SOL    HW316969   6.121   1.970   5.352  0.0503 -0.0432  0.7415
 4299SOL    MW416970   6.157   2.033   5.400  0.1728  0.1225 -0.3056
 4300SOL     OW16971   3.849   1.328   5.876 -0.1287  0.0329 -0.0374
 4300SOL    HW216972   3.771   1.275   5.892  0.7372 -0.6930  2.2104
 4300SOL    HW316973   3.842   1.354   5.784 -1.7907 -2.0325 -0.5854
 4300SOL    MW416974   3.838   1.324   5.866 -0.4327 -0.1302  0.2703
 4301SOL     OW16975   1.588   5.331   2.768  0.5158 -0.0874  0.2632
 4301SOL    HW216976   1.578   5.359   2.859  0.1022  0.1768  0.1402
 4301SOL    HW316977   1.669   5.280   2.767  1.6368  1.5765  0.4001
 4301SOL    MW416978   1.598   5.328   2.780  0.6227  0.1853  0.2686
 4302SOL     OW16979   3.467   3.465   0.703 -0.1836  0.1605 -0.1315
 4302SOL    HW216980   3.536   3.530   0.713 -0.6381  0.3680  2.4141
 4302SOL    HW316981   3.386   3.515   0.717 -0.9579 -0.0170 -3.3361
 4302SOL    MW416982   3.465   3.480   0.706 -0.0781 -0.5536 -0.0721
 4303SOL     OW16983   2.901   3.784   2.011  0.2621  0.3997 -0.7367
 4303SOL    HW216984   2.880   3.761   1.920 -1.0019 -0.3553 -0.2854
 4303SOL    HW316985   2.961   3.858   2.004  1.7534 -0.8693 -2.2066
 4303SOL    MW416986   2.906   3.790   1.998 -0.2304 -0.1769 -0.3966
 4304SOL     OW16987   0.763   4.974   2.589  0.1072 -0.4671  0.0060
 4304SOL    HW216988   0.690   4.912   2.597 -1.2816  0.3285 -3.9152
 4304SOL    HW316989   0.725   5.058   2.613 -0.6246  0.0447 -2.5905
 4304SOL    MW416990   0.748   4.977   2.593 -0.0034  0.1044 -0.0980
 4305SOL     OW16991   3.826   2.431   5.203  0.0979 -0.0076  0.0869
 4305SOL    HW216992   3.811   2.412   5.111  1.4267  1.3386 -0.4582
 4305SOL    HW316993   3.903   2.488   5.204 -0.6886  1.1455  1.9183
 4305SOL    MW416994   3.834   2.436   5.191  0.2640 -0.0976  0.0009
 4306SOL     OW16995   4.443   4.540   4.092  0.3301 -0.3630 -0.1605
 4306SOL    HW216996   4.513   4.592   4.054 -0.5159  0.6732 -0.3678
 4306SOL    HW316997   4.388   4.515   4.017 -0.4575  0.3077  0.1807
 4306SOL    MW416998   4.445   4.543   4.077  0.5811 -0.3044 -0.1498
 4307SOL     OW16999   6.192   2.645   4.048  0.0856  0.1828  0.0945
 4307SOL    HW217000   6.177   2.721   3.991 -0.5622  0.8234  1.0825
 4307SOL    HW317001   6.282   2.618   4.028 -0.0108  0.5996 -0.9780
 4307SOL    MW417002   6.202   2.652   4.038 -0.1919 -0.3076 -0.3177
 4308SOL     OW17003   2.611   5.377   3.603 -0.8380 -0.0674 -0.0364
 4308SOL    HW217004   2.622   5.418   3.689  1.7618 -2.8958  1.1794
 4308SOL    HW317005   2.697   5.386   3.561 -1.3763 -0.7521 -1.3454
 4308SOL    MW417006   2.624   5.383   3.609 -0.3140 -0.3152 -0.6860
 4309SOL     OW17007   0.597   2.120   3.173  0.0521  0.0554  0.4493
 4309SOL    HW217008   0.571   2.129   3.265  0.1556  0.9023  0.3990
 4309SOL    HW317009   0.514   2.117   3.125  0.0102  1.1931  0.4319
 4309SOL    MW417010   0.582   2.120   3.179  0.5937 -0.0243  0.4567
 4310SOL     OW17011   3.510   0.198   5.846 -0.0216 -0.2755 -0.1351
 4310SOL    HW217012   3.511   0.291   5.825 -2.2623  0.0390  0.8818
 4310SOL    HW317013   3.579   0.160   5.792  0.4240  1.8447 -1.1394
 4310SOL    MW417014   3.519   0.205   5.836 -0.2287  0.1989  0.2872
 4311SOL     OW17015   0.557   4.123   0.649  0.1852 -0.0939 -0.3466
 4311SOL    HW217016   0.462   4.131   0.661  0.2001 -1.2274  0.7613
 4311SOL    HW317017   0.569   4.124   0.554 -0.9837 -0.4077 -0.5224
 4311SOL    MW417018   0.546   4.124   0.638  0.4820 -0.2889  0.4785
 4312SOL     OW17019   6.174   1.605   1.605  0.0869  0.5093 -0.0529
 4312SOL    HW217020   6.203   1.564   1.686  3.4002 -0.0745 -1.3625
 4312SOL    HW317021   6.133   1.535   1.555  0.7668  0.1228 -0.0765
 4312SOL    MW417022   6.173   1.591   1.609  0.0494 -0.2644 -0.0365
 4313SOL     OW17023   1.437   2.098   5.406  0.1888  0.0292 -0.6043
 4313SOL    HW217024   1.489   2.018   5.412 -0.3116 -0.2741 -0.2103
 4313SOL    HW317025   1.377   2.081   5.334 -0.8406 -0.5162  0.3443
 4313SOL    MW417026   1.436   2.085   5.397  0.5551 -0.1152  0.0940
 4314SOL     OW17027   5.831   1.036   4.468  0.4592 -0.3867 -0.0924
 4314SOL    HW217028   5.864   1.054   4.556 -2.8065  0.4663  1.1011
 4314SOL    HW317029   5.821   1.122   4.427 -0.7346 -0.5458 -0.1770
 4314SOL    MW417030   5.834   1.049   4.474 -0.1770  0.1771 -0.5980
 4315SOL     OW17031   1.464   5.713   2.380  0.2057 -0.5127 -0.0509
 4315SOL    HW217032   1.434   5.803   2.396 -1.2018 -1.0272  0.2842
 4315SOL    HW317033   1.559   5.722   2.367  0.0404  1.0586 -0.3604
 4315SOL    MW417034   1.473   5.726   2.380 -0.0303 -0.0557  0.4587
 4316SOL     OW17035   2.925   5.780   4.268  0.0900 -0.4327  0.0329
 4316SOL    HW217036   2.901   5.872   4.262  1.7536 -0.0568 -2.7034
 4316SOL    HW317037   3.014   5.780   4.302  0.3680 -0.9475 -0.6601
 4316SOL    MW417038   2.934   5.792   4.272  0.0720  0.3481 -0.1800
 4317SOL     OW17039   2.612   2.117   0.923  0.0019 -0.1386 -0.0345
 4317SOL    HW217040   2.568   2.156   0.998 -0.8936 -1.2239  0.0259
 4317SOL    HW317041   2.695   2.083   0.958 -1.2372 -2.3528  0.9326
 4317SOL    MW417042   2.617   2.118   0.937  0.2695 -0.0151 -0.0361
 4318SOL     OW17043   5.503   2.844   5.947  0.2960  0.1948  0.1511
 4318SOL    HW217044   5.525   2.920   6.001 -0.1964  0.4508  0.0073
 4318SOL    HW317045   5.583   2.793   5.941  0.3637  0.1879  1.0844
 4318SOL    MW417046   5.516   2.847   5.953  0.5072 -0.4289  0.6507
 4319SOL     OW17047   5.232   1.428   1.544  0.5830  0.1372 -0.5752
 4319SOL    HW217048   5.202   1.473   1.623 -0.7845  0.5142 -1.2834
 4319SOL    HW317049   5.248   1.499   1.482 -1.3926 -0.2930 -1.6398
 4319SOL    MW417050   5.230   1.444   1.546 -0.1858 -0.4537  0.0723
 4320SOL     OW17051   5.965   5.288   1.533 -0.2600  0.0602  1.1669
 4320SOL    HW217052   5.943   5.261   1.622 -0.5335 -0.2627  1.0055
 4320SOL    HW317053   5.913   5.230   1.477  0.3973 -0.1801  0.7872
 4320SOL    MW417054   5.955   5.277   1.537  0.0369  0.2399  0.2245
 4321SOL     OW17055   3.491   5.455   2.999 -0.3997 -0.1920 -0.0012
 4321SOL    HW217056   3.577   5.412   3.003 -0.9428 -1.2380  1.6013
 4321SOL    HW317057   3.478   5.474   2.906  1.0128 -1.1641 -0.4323
 4321SOL    MW417058   3.500   5.452   2.987 -0.0640  0.4815 -0.5347
 4322SOL     OW17059   5.305   5.306   4.638  0.0277  0.3450  0.0404
 4322SOL    HW217060   5.243   5.360   4.688 -0.0219 -0.3382  0.7408
 4322SOL    HW317061   5.353   5.368   4.584 -0.9074  0.9498 -0.1212
 4322SOL    MW417062   5.303   5.321   4.637 -0.3269  0.1797 -0.0312
 4323SOL     OW17063   6.369   2.031   3.339 -0.0015 -0.2978  0.4606
 4323SOL    HW217064   6.383   2.001   3.429  1.7811 -1.0015 -0.0032
 4323SOL    HW317065   6.455   2.021   3.298 -1.0467 -1.0224 -1.6345
 4323SOL    MW417066   6.382   2.026   3.346 -0.4099  0.0689  0.0769
 4324SOL     OW17067   2.902   5.402   3.285  0.9943 -0.2168 -0.3435
 4324SOL    HW217068   2.899   5.436   3.375 -2.8018  0.7481 -0.6969
 4324SOL    HW317069   2.898   5.307   3.295 -0.9587 -0.0846  0.5801
 4324SOL    MW417070   2.901   5.394   3.298 -0.5672 -0.1614  0.2464
 4325SOL     OW17071   6.275   2.293   3.355 -0.2818 -0.4434  0.0409
 4325SOL    HW217072   6.327   2.213   3.364 -0.5278 -0.8184 -1.6528
 4325SOL    HW317073   6.206   2.270   3.293 -0.7693  0.8969  0.0530
 4325SOL    MW417074   6.273   2.279   3.348  0.3142  0.3520  0.9372
 4326SOL     OW17075   6.045   0.538   3.061 -0.7562  0.0284  0.3797
 4326SOL    HW217076   6.001   0.475   3.004 -0.6683 -1.2403  1.6607
 4326SOL    HW317077   6.012   0.623   3.033 -0.8212 -0.5561 -1.4461
 4326SOL    MW417078   6.035   0.541   3.050  0.0145 -0.0592  0.1257
 4327SOL     OW17079   6.003   4.922   1.633  0.6050 -0.2351  0.3511
 4327SOL    HW217080   6.058   4.983   1.584 -0.4652  0.9293  0.5369
 4327SOL    HW317081   5.977   4.971   1.711 -1.8034 -0.1973 -0.3991
 4327SOL    MW417082   6.007   4.937   1.637  0.6051  0.2007  0.1764
 4328SOL     OW17083   6.050   6.343   4.242  0.0031 -0.4320  0.4955
 4328SOL    HW217084   5.964   6.377   4.220  0.5318  2.0930  1.9198
 4328SOL    HW317085   6.083   6.306   4.160 -0.6588  2.6447 -1.3010
 4328SOL    MW417086   6.043   6.343   4.229  0.4773 -0.0182  0.3088
 4329SOL     OW17087   5.403   0.995   4.668 -0.3337  0.5226 -0.4014
 4329SOL    HW217088   5.326   0.982   4.613  1.6459 -0.0448 -3.2754
 4329SOL    HW317089   5.462   0.923   4.644  1.1476  0.9870  1.5998
 4329SOL    MW417090   5.401   0.984   4.657 -0.3938 -0.4881 -0.2723
 4330SOL     OW17091   1.775   0.522   4.650  0.3285 -0.1211 -0.5125
 4330SOL    HW217092   1.863   0.551   4.626  0.0415  0.0635 -1.3859
 4330SOL    HW317093   1.789   0.440   4.696  0.9103 -0.7238 -1.7003
 4330SOL    MW417094   1.789   0.515   4.653 -0.2008  0.1629  0.2553
 4331SOL     OW17095   1.302   5.414   2.935  0.2569  0.3926  0.2741
 4331SOL    HW217096   1.260   5.330   2.921  0.9922 -0.1500  1.2101
 4331SOL    HW317097   1.278   5.466   2.858  0.6410 -1.0035 -0.8263
 4331SOL    MW417098   1.293   5.410   2.923  0.0408 -0.2578 -0.5720
 4332SOL     OW17099   5.218   4.538   1.956  0.0793 -0.0416 -0.3453
 4332SOL    HW217100   5.266   4.457   1.941 -1.9406 -1.0603 -1.8915
 4332SOL    HW317101   5.211   4.578   1.870 -1.5267  0.1863 -0.1517
 4332SOL    MW417102   5.223   4.532   1.943  0.6504 -0.3776  0.0889
 4333SOL     OW17103   6.157   5.405   3.788  0.1382 -0.4280 -0.5408
 4333SOL    HW217104   6.169   5.447   3.873 -1.1918 -1.8162  0.3907
 4333SOL    HW317105   6.068   5.425   3.763  0.6342  0.2803 -1.8258
 4333SOL    MW417106   6.147   5.413   3.796  0.2372 -0.6484 -0.1894
 4334SOL     OW17107   2.022   0.416   2.108  0.1229  0.0171  0.2238
 4334SOL    HW217108   2.067   0.488   2.063 -1.1259  0.7129  0.0495
 4334SOL    HW317109   2.011   0.348   2.042  1.0481 -0.2325  0.3118
 4334SOL    MW417110   2.027   0.417   2.094 -0.2384  0.4429  0.2213
 4335SOL     OW17111   2.659   6.192   4.304  0.3606  0.4033 -0.2506
 4335SOL    HW217112   2.694   6.230   4.385  0.6082 -1.8003  0.7517
 4335SOL    HW317113   2.580   6.146   4.331  0.7220 -0.7990 -1.1423
 4335SOL    MW417114   2.653   6.191   4.318 -0.2409 -0.1072 -0.2256
 4336SOL     OW17115   0.264   2.342   2.110  0.4316  0.2906  0.1229
 4336SOL    HW217116   0.314   2.369   2.033  1.1378  0.0815  0.4943
 4336SOL    HW317117   0.292   2.402   2.179  3.1659 -2.1882  1.3667
 4336SOL    MW417118   0.274   2.353   2.109  0.1174  0.1869 -0.6356
 4337SOL     OW17119   6.094   4.523   6.240  0.0208 -0.1483  0.5102
 4337SOL    HW217120   6.146   4.480   6.172  0.5211 -0.0786  0.8404
 4337SOL    HW317121   6.022   4.565   6.193 -0.2480 -1.0009  0.1370
 4337SOL    MW417122   6.092   4.523   6.225 -0.1292  0.2092 -0.0681
 4338SOL     OW17123   2.147   5.343   4.546  0.2247 -0.1810 -0.4964
 4338SOL    HW217124   2.069   5.365   4.598 -0.0766  0.3619 -1.1542
 4338SOL    HW317125   2.174   5.427   4.509  1.1346 -0.3697 -0.2635
 4338SOL    MW417126   2.140   5.357   4.548  0.2797  0.3168 -0.0146
 4339SOL     OW17127   0.731   4.130   1.334  0.1430  0.7433  0.3271
 4339SOL    HW217128   0.668   4.176   1.278 -0.4513 -0.0591  0.3197
 4339SOL    HW317129   0.815   4.174   1.317  0.4244 -0.6533 -2.7358
 4339SOL    MW417130   0.734   4.142   1.324  0.2006  0.0785  0.2973
 4340SOL     OW17131   4.038   2.630   2.675  0.5127  0.2466 -0.5730
 4340SOL    HW217132   4.036   2.653   2.582 -0.6461 -0.6562 -0.7851
 4340SOL    HW317133   4.086   2.547   2.678  2.4278  1.3100 -0.0928
 4340SOL    MW417134   4.044   2.622   2.663 -0.2804 -0.2147 -0.3940
 4341SOL     OW17135   4.037   4.019   0.697 -0.4737  0.0244 -0.1298
 4341SOL    HW217136   3.967   3.959   0.723 -0.9367  0.7564  0.3593
 4341SOL    HW317137   4.000   4.106   0.710 -0.2668  0.4377 -2.0363
 4341SOL    MW417138   4.023   4.023   0.703 -0.1353 -0.0243  0.7129
 4342SOL     OW17139   5.964   6.387   2.098  0.0132  0.1206  0.2798
 4342SOL    HW217140   5.957   6.296   2.068  1.0414  0.5420 -1.3888
 4342SOL    HW317141   6.046   6.390   2.148 -0.8244 -0.1907  1.7272
 4342SOL    MW417142   5.974   6.376   2.100  0.7234  0.4070  0.1374
 4343SOL     OW17143   1.126   0.304   0.265  0.3804  0.1734  0.0944
 4343SOL    HW217144   1.086   0.264   0.342  0.3355 -2.1223 -1.0439
 4343SOL    HW317145   1.112   0.241   0.195  3.0835  0.7629 -1.1167
 4343SOL    MW417146   1.119   0.290   0.266 -0.6242  0.5124  0.0487
 4344SOL     OW17147   5.464   4.989   3.620  0.3229  0.6273  0.1623
 4344SOL    HW217148   5.448   5.050   3.547  2.0536  2.0288  0.9018
 4344SOL    HW317149   5.559   4.983   3.626  0.2393 -2.4007 -0.0188
 4344SOL    MW417150   5.474   4.996   3.611  0.6182  0.0309 -0.0567
 4345SOL     OW17151   5.509   0.041   3.698 -0.0453 -0.6548  0.0179
 4345SOL    HW217152   5.573   0.069   3.765 -1.6341 -0.0534  1.3529
 4345SOL    HW317153   5.547   0.070   3.615  0.4627  1.5909  0.9663
 4345SOL    MW417154   5.523   0.049   3.696 -0.3206 -0.0908 -0.1051
 4346SOL     OW17155   4.046   4.821   2.365 -0.1826  0.4416 -0.3458
 4346SOL    HW217156   4.019   4.869   2.287 -0.9772 -0.0238 -0.3630
 4346SOL    HW317157   4.131   4.784   2.341 -0.3072  0.5061 -0.9046
 4346SOL    MW417158   4.054   4.822   2.351  0.1064  0.1840 -0.3522
 4347SOL     OW17159   4.590   4.101   2.532 -0.4179  0.1197  0.1040
 4347SOL    HW217160   4.573   4.009   2.549 -0.9486  0.3114  0.6353
 4347SOL    HW317161   4.571   4.145   2.614  0.8945  0.5801  0.1762
 4347SOL    MW417162   4.585   4.095   2.545 -0.2371  0.3179  0.3934
 4348SOL     OW17163   5.792   4.510   4.883 -0.0700 -0.9341 -0.1870
 4348SOL    HW217164   5.826   4.569   4.816 -0.4156 -1.3710 -0.7594
 4348SOL    HW317165   5.713   4.553   4.916  1.0049  0.1075  1.1826
 4348SOL    MW417166   5.786   4.523   4.879  0.1592 -0.2335 -0.3964
 4349SOL     OW17167   0.318   5.056   1.473 -0.0363 -0.3014 -0.6438
 4349SOL    HW217168   0.280   4.976   1.510  0.0551 -1.8390 -3.5438
 4349SOL    HW317169   0.263   5.076   1.398  1.8180  0.4475 -1.8710
 4349SOL    MW417170   0.306   5.048   1.468 -0.0217 -0.7268 -0.0465
 4350SOL     OW17171   2.788   1.787   1.207 -0.3531 -0.7217  0.3893
 4350SOL    HW217172   2.742   1.720   1.157 -1.0940  0.4733 -0.6074
 4350SOL    HW317173   2.723   1.818   1.271 -0.6106  0.2430 -0.3226
 4350SOL    MW417174   2.773   1.782   1.209  0.1044  0.5069  0.3291
 4351SOL     OW17175   2.971   2.957   6.145 -0.3477  0.4639  0.2680
 4351SOL    HW217176   3.005   2.873   6.114  0.4556  0.8693  0.0080
 4351SOL    HW317177   2.915   2.935   6.219 -1.3280 -0.4293 -0.7080
 4351SOL    MW417178   2.968   2.943   6.150 -0.9782 -0.6746 -0.0594
 4352SOL     OW17179   4.439   5.432   5.008 -0.0997  0.2767 -0.4653
 4352SOL    HW217180   4.478   5.433   5.096 -0.0404 -3.6231 -0.2420
 4352SOL    HW317181   4.513   5.430   4.948 -0.0229 -0.9124 -0.3548
 4352SOL    MW417182   4.454   5.432   5.012  0.6744  0.0772 -0.6349
 4353SOL     OW17183   4.811   5.959   2.068 -0.1255  0.2144 -0.0249
 4353SOL    HW217184   4.816   6.052   2.049 -2.4150  0.5905  0.8836
 4353SOL    HW317185   4.811   5.954   2.163  0.9807 -0.8240 -0.0537
 4353SOL    MW417186   4.811   5.971   2.078  0.2340 -0.1673  0.5455
 4354SOL     OW17187   5.208   3.609   2.654 -0.5496  0.0457  0.2739
 4354SOL    HW217188   5.146   3.560   2.708 -1.8380  0.7355 -0.5422
 4354SOL    HW317189   5.220   3.692   2.700  2.9481 -1.4832  2.5791
 4354SOL    MW417190   5.202   3.613   2.667  0.0756 -0.5008 -0.3719
 4355SOL     OW17191   5.879   6.401   4.509 -0.4521 -0.7450  0.0217
 4355SOL    HW217192   5.956   6.403   4.454 -0.3652 -0.1395  0.1582
 4355SOL    HW317193   5.911   6.370   4.594  0.1263  1.6506  0.7736
 4355SOL    MW417194   5.893   6.398   4.513 -0.4982 -0.4062 -0.7012
 4356SOL     OW17195   4.925   5.904   3.625 -0.4175 -0.0589 -0.7060
 4356SOL    HW217196   4.950   5.830   3.681  0.5988  1.4929  1.0167
 4356SOL    HW317197   4.837   5.928   3.655 -1.3796 -1.4049 -2.2685
 4356SOL    MW417198   4.917   5.897   3.636 -0.5880 -0.0360  0.0968
 4357SOL     OW17199   2.936   4.588   4.016 -0.2714 -0.0461 -0.1423
 4357SOL    HW217200   2.955   4.498   4.043  0.6005  0.3798  0.7309
 4357SOL    HW317201   2.850   4.583   3.974 -1.2062 -0.9496  1.7792
 4357SOL    MW417202   2.927   4.576   4.014 -0.4386  0.3655  0.7319
 4358SOL     OW17203   3.859   3.261   4.406  0.1377  0.2627 -0.1400
 4358SOL    HW217204   3.883   3.346   4.442 -0.1906  0.0323  0.6602
 4358SOL    HW317205   3.850   3.276   4.312 -2.3891  1.7311  0.2446
 4358SOL    MW417206   3.861   3.274   4.399  0.2793 -0.1834  0.2136
 4359SOL     OW17207   0.535   0.345   1.833 -0.2453 -0.3109  0.2106
 4359SOL    HW217208   0.517   0.340   1.739 -0.7872  2.4201  0.0884
 4359SOL    HW317209   0.627   0.369   1.838 -0.7760  1.8755  0.2422
 4359SOL    MW417210   0.545   0.347   1.821 -0.0885 -0.1932  0.1014
 4360SOL     OW17211   2.269   4.143   1.737 -0.1805 -0.3744  0.8918
 4360SOL    HW217212   2.195   4.095   1.701  0.6845 -0.6211 -0.6511
 4360SOL    HW317213   2.291   4.097   1.818  0.5549 -2.5851 -0.4918
 4360SOL    MW417214   2.262   4.131   1.743  0.1318 -0.0417  0.3235
 4361SOL     OW17215   2.504   2.411   5.870  0.2011  0.0833 -0.8148
 4361SOL    HW217216   2.572   2.348   5.894  1.3194  1.2097 -0.9177
 4361SOL    HW317217   2.547   2.496   5.876 -1.3308  0.8690 -0.4564
 4361SOL    MW417218   2.518   2.414   5.874  0.4316 -0.0441  0.5596
 4362SOL     OW17219   0.248   6.336   0.533  0.0248 -0.4188 -0.0811
 4362SOL    HW217220   0.202   6.326   0.450  1.0091  1.8856 -0.9917
 4362SOL    HW317221   0.312   6.405   0.516 -0.2362  0.6455  2.8041
 4362SOL    MW417222   0.250   6.343   0.520 -0.2903 -0.3759 -0.0858
 4363SOL     OW17223   2.080   3.132   2.516 -0.3151  0.1656  0.6465
 4363SOL    HW217224   2.111   3.042   2.506  1.5093  0.8295 -0.2836
 4363SOL    HW317225   1.985   3.126   2.509 -0.1896 -1.6033 -0.0797
 4363SOL    MW417226   2.072   3.120   2.514 -0.5909  0.5130  0.2800
 4364SOL     OW17227   2.987   3.324   3.858 -0.0070  0.0288  0.5891
 4364SOL    HW217228   3.068   3.365   3.887  0.2396 -0.5879  0.7791
 4364SOL    HW317229   2.955   3.276   3.934 -0.3587 -0.0390  0.4033
 4364SOL    MW417230   2.993   3.323   3.872 -0.3727  0.1207 -0.7990
 4365SOL     OW17231   1.477   2.010  -0.008 -0.0964 -0.1755 -0.3117
 4365SOL    HW217232   1.466   2.101   0.022  0.2132  0.0795 -0.9524
 4365SOL    HW317233   1.412   1.961   0.042  0.1853  0.2899  0.5280
 4365SOL    MW417234   1.467   2.016   0.002  0.3626  0.0030 -0.2421
 4366SOL     OW17235   2.021   0.880   2.979  0.2041 -0.8653  1.2379
 4366SOL    HW217236   2.054   0.878   2.889 -1.2098 -0.7636  0.7016
 4366SOL    HW317237   2.056   0.962   3.015  0.7470 -0.8866  0.7749
 4366SOL    MW417238   2.030   0.891   2.972 -0.0467  0.2478 -0.4213
 4367SOL     OW17239   3.605   4.604   5.653  0.4090 -0.2421  0.0990
 4367SOL    HW217240   3.614   4.649   5.569 -0.0885  1.9326  1.1313
 4367SOL    HW317241   3.524   4.553   5.644  0.8849 -0.8165 -1.0570
 4367SOL    MW417242   3.595   4.603   5.641  0.6288 -0.3337  0.2714
 4368SOL     OW17243   3.293   1.418   5.395  0.3075 -0.3762 -0.0617
 4368SOL    HW217244   3.215   1.459   5.358  1.2123  2.2184  0.6484
 4368SOL    HW317245   3.273   1.324   5.396 -2.9843  0.1932  0.5406
 4368SOL    MW417246   3.280   1.411   5.390  0.0783 -0.1579 -0.1420
 4369SOL     OW17247   4.947   0.744   1.488 -0.3744  0.5303 -0.2482
 4369SOL    HW217248   4.871   0.785   1.447 -3.0790 -1.6818  2.1461
 4369SOL    HW317249   4.960   0.662   1.439 -0.1939  0.4126 -0.0056
 4369SOL    MW417250   4.939   0.739   1.476  0.4937  0.4461  0.0829
 4370SOL     OW17251   4.464   0.463   3.327 -0.0499  0.4396  0.4985
 4370SOL    HW217252   4.449   0.464   3.232  1.3070  2.1976  0.2340
 4370SOL    HW317253   4.383   0.496   3.364 -0.6840 -0.4974 -0.0205
 4370SOL    MW417254   4.452   0.468   3.319  0.6273  0.4202  0.1261
 4371SOL     OW17255   1.493   2.924   4.685  0.0397  0.5949 -0.5000
 4371SOL    HW217256   1.497   2.837   4.726 -1.2129 -0.7293 -2.9671
 4371SOL    HW317257   1.400   2.947   4.688  0.1620  1.1996 -1.1493
 4371SOL    MW417258   1.481   2.916   4.691 -0.0664 -0.2534 -0.1350
 4372SOL     OW17259   1.630   0.362   2.256 -0.1776 -0.7962  0.0939
 4372SOL    HW217260   1.689   0.438   2.255 -0.3517 -0.6652 -0.4860
 4372SOL    HW317261   1.544   0.399   2.275  0.1964 -1.2019  2.9774
 4372SOL    MW417262   1.626   0.377   2.258  0.6128 -0.0020  0.0676
 4373SOL     OW17263   1.928   0.396   0.616  0.8141  0.0902 -0.5228
 4373SOL    HW217264   1.905   0.385   0.708 -1.5205  0.0726 -1.0460
 4373SOL    HW317265   1.956   0.487   0.609 -0.4755  0.5504 -0.0285
 4373SOL    MW417266   1.929   0.407   0.627  0.4016  0.4563 -0.6663
 4374SOL     OW17267   4.110   1.081   0.562  0.0758  0.1637  0.0094
 4374SOL    HW217268   4.186   1.024   0.574 -0.9126 -0.9321  1.5372
 4374SOL    HW317269   4.101   1.089   0.468  1.3788 -0.6649 -0.2139
 4374SOL    MW417270   4.119   1.074   0.552 -0.0977  0.2710  0.5091
 4375SOL     OW17271   0.772   3.913   6.368  0.3525  0.0233  0.2258
 4375SOL    HW217272   0.790   3.970   6.443 -0.9762  1.7342 -0.6918
 4375SOL    HW317273   0.737   3.833   6.407  0.0840  0.7109  1.4502
 4375SOL    MW417274   0.770   3.910   6.383  0.2911  0.3566 -0.1300
 4376SOL     OW17275   0.518   1.152   1.905  0.0344  0.0082  0.1396
 4376SOL    HW217276   0.431   1.112   1.900  0.1020 -0.7862  3.1981
 4376SOL    HW317277   0.572   1.088   1.951  1.9684  0.9675 -0.6649
 4376SOL    MW417278   0.513   1.139   1.911  0.3739 -0.1680  0.1744
 4377SOL     OW17279   5.140   4.828   0.834  0.6748  0.0072  0.4404
 4377SOL    HW217280   5.056   4.800   0.870  0.4973  0.5688  0.4694
 4377SOL    HW317281   5.181   4.747   0.804  0.0035 -0.2407  0.1688
 4377SOL    MW417282   5.134   4.814   0.834 -0.3887 -0.1892 -0.2316
 4378SOL     OW17283   1.361   3.783   4.100 -0.0166  0.0801 -0.2714
 4378SOL    HW217284   1.324   3.753   4.016  0.4125  1.5026 -0.9922
 4378SOL    HW317285   1.310   3.736   4.166 -1.4191  0.0920 -1.2913
 4378SOL    MW417286   1.349   3.773   4.097  0.4172 -0.3644  0.1548
 4379SOL     OW17287   2.824   1.048   4.266  0.7302  0.5976 -0.1838
 4379SOL    HW217288   2.799   1.110   4.197  0.5925  0.0277 -0.6528
 4379SOL    HW317289   2.742   1.025   4.309  0.8950  1.4549  0.6070
 4379SOL    MW417290   2.810   1.053   4.262  0.1922  0.1959  0.3887
 4380SOL     OW17291   5.075   5.832   1.741  0.0909  0.4637  0.1616
 4380SOL    HW217292   5.165   5.811   1.714  0.1380  1.3593 -0.4130
 4380SOL    HW317293   5.085   5.891   1.816 -0.0379 -0.3012  0.8005
 4380SOL    MW417294   5.088   5.837   1.747  0.0495 -0.2918  0.2368
 4381SOL     OW17295   4.043   5.449   0.021 -0.0236 -0.5030  0.3873
 4381SOL    HW217296   3.950   5.471   0.018 -0.1866 -1.0274  1.2976
 4381SOL    HW317297   4.067   5.457   0.113  1.3846  1.7629 -0.0851
 4381SOL    MW417298   4.034   5.453   0.033  0.0113  0.0159 -0.2960
 4382SOL     OW17299   5.956   0.759   2.710  0.0750  0.0102 -0.7914
 4382SOL    HW217300   5.999   0.844   2.722 -0.6177  0.0723  2.0226
 4382SOL    HW317301   5.864   0.781   2.695  0.0889 -0.2317 -1.2361
 4382SOL    MW417302   5.950   0.773   2.710 -0.2841  0.3307 -0.0545
 4383SOL     OW17303   3.222   0.261   3.852  0.1158  0.0869 -0.2290
 4383SOL    HW217304   3.275   0.257   3.932  1.0782  0.0673 -0.8582
 4383SOL    HW317305   3.280   0.297   3.786  0.0539 -1.9384 -1.4898
 4383SOL    MW417306   3.237   0.265   3.854 -0.4163 -0.0175 -0.3787
 4384SOL     OW17307   3.700   3.817   4.575 -0.3167  0.6930  0.2568
 4384SOL    HW217308   3.667   3.905   4.560  1.1875  1.0970 -0.8856
 4384SOL    HW317309   3.762   3.802   4.504 -2.1812 -2.1691 -0.9916
 4384SOL    MW417310   3.704   3.826   4.564 -0.3783 -0.9174  0.0332
 4385SOL     OW17311   1.724   5.735   1.609 -0.5969  0.0453 -0.3639
 4385SOL    HW217312   1.736   5.684   1.688 -1.1499 -1.0213 -0.9523
 4385SOL    HW317313   1.775   5.690   1.542 -1.5850 -0.1097 -1.0347
 4385SOL    MW417314   1.732   5.723   1.610  0.3356  0.0305  0.1394
 4386SOL     OW17315   6.142   1.643   0.366 -0.8257  0.1917 -0.1568
 4386SOL    HW217316   6.182   1.726   0.392  1.3025 -0.6982 -0.4094
 4386SOL    HW317317   6.116   1.656   0.275 -0.2366  0.5135 -0.2844
 4386SOL    MW417318   6.144   1.656   0.358 -0.5434  0.4049  0.1127
 4387SOL     OW17319   6.302   3.904   3.644 -0.1552 -0.6119 -0.0901
 4387SOL    HW217320   6.330   3.852   3.569  1.0483 -0.4756  0.2528
 4387SOL    HW317321   6.209   3.882   3.656 -0.2154 -1.0406 -1.2721
 4387SOL    MW417322   6.293   3.894   3.636  0.1122 -0.0542 -0.3299
 4388SOL     OW17323   6.312   3.590   4.142 -0.1527 -0.5370 -0.6270
 4388SOL    HW217324   6.279   3.647   4.073 -0.5131 -0.0476 -0.0502
 4388SOL    HW317325   6.275   3.625   4.223  0.9384 -0.6019 -0.0867
 4388SOL    MW417326   6.303   3.602   4.143  0.3911 -0.4291  0.2319
 4389SOL     OW17327   5.513   5.828   0.409 -0.2292  0.2060 -0.2443
 4389SOL    HW217328   5.604   5.843   0.388 -0.1570 -1.0088 -0.9137
 4389SOL    HW317329   5.505   5.732   0.415 -0.9716  0.3414  1.9866
 4389SOL    MW417330   5.524   5.817   0.407  0.4589  0.0559 -0.1159
 4390SOL     OW17331   3.731   3.024   0.643 -0.1518 -0.2482 -0.5247
 4390SOL    HW217332   3.707   3.063   0.727  1.9881  0.8990 -0.3675
 4390SOL    HW317333   3.705   3.089   0.578  0.5413  0.0546 -0.5130
 4390SOL    MW417334   3.725   3.038   0.646  0.5840  0.3315 -0.3806
 4391SOL     OW17335   3.871   3.196   3.747 -0.9023  1.1911  0.6081
 4391SOL    HW217336   3.815   3.213   3.671 -0.4571  0.2886  0.0581
 4391SOL    HW317337   3.853   3.104   3.769  1.0517  0.5813 -0.1810
 4391SOL    MW417338   3.861   3.186   3.740  0.1073 -0.0183  0.4019
 4392SOL     OW17339   5.788   1.676   1.878 -0.0189  0.0454 -0.0509
 4392SOL    HW217340   5.795   1.581   1.877 -1.5530 -0.0781 -0.5152
 4392SOL    HW317341   5.868   1.706   1.835  1.2850 -0.9488  1.5607
 4392SOL    MW417342   5.800   1.668   1.873  0.1837 -0.1710 -0.0921
 4393SOL     OW17343   0.640   3.218   2.181  0.0879  0.8859 -0.2956
 4393SOL    HW217344   0.648   3.172   2.097  0.8103  0.6375 -0.1016
 4393SOL    HW317345   0.616   3.307   2.157 -1.3078  0.4374 -0.6808
 4393SOL    MW417346   0.638   3.223   2.167  0.4272 -0.1829  0.5604
 4394SOL     OW17347   4.998   3.509   2.812  0.1680  0.2732  0.1317
 4394SOL    HW217348   5.015   3.471   2.898 -1.4550 -1.4791 -0.2646
 4394SOL    HW317349   4.928   3.455   2.775  0.5214  1.2518 -2.1235
 4394SOL    MW417350   4.991   3.497   2.818  0.3657  0.0359  0.1751
 4395SOL     OW17351   1.360   1.230   3.719 -0.0431  0.0695  0.0066
 4395SOL    HW217352   1.434   1.289   3.728 -0.8752  1.5801 -2.1651
 4395SOL    HW317353   1.287   1.286   3.693 -2.2260 -1.2424  2.8234
 4395SOL    MW417354   1.360   1.245   3.717  0.4899 -0.0697  0.3642
 4396SOL     OW17355   5.005   1.609   4.219 -0.5940 -0.5056  0.2881
 4396SOL    HW217356   5.065   1.678   4.247  0.3392 -1.3328  0.3666
 4396SOL    HW317357   4.918   1.645   4.235 -0.1120  0.2297  1.3490
 4396SOL    MW417358   5.002   1.623   4.225  0.6527 -0.1372 -0.1977
 4397SOL     OW17359   5.399   0.252   0.773 -0.4009  0.1475 -0.0771
 4397SOL    HW217360   5.492   0.270   0.758 -0.3723 -0.7581 -1.0765
 4397SOL    HW317361   5.353   0.306   0.709 -0.5539  0.2925  0.1510
 4397SOL    MW417362   5.405   0.262   0.763 -0.5690  0.4948  0.9333
 4398SOL     OW17363   1.412   0.227   0.243 -0.0004 -0.4100 -0.4906
 4398SOL    HW217364   1.317   0.237   0.254  0.0557 -0.7489  0.4254
 4398SOL    HW317365   1.439   0.307   0.198 -0.5197  0.3980  0.5783
 4398SOL    MW417366   1.403   0.239   0.239 -0.3714 -1.1802  0.0752
 4399SOL     OW17367   2.797   5.101   0.178  0.5107 -0.4946  0.3492
 4399SOL    HW217368   2.721   5.054   0.213 -0.3629  0.6907  0.1127
 4399SOL    HW317369   2.786   5.191   0.209  1.1676 -0.0285 -0.7193
 4399SOL    MW417370   2.786   5.106   0.187  0.1763  0.3973  0.3009
 4400SOL     OW17371   3.310   1.430   0.916 -0.2648  0.5812 -0.2474
 4400SOL    HW217372   3.382   1.368   0.931 -1.4266 -0.7234  0.2388
 4400SOL    HW317373   3.237   1.393   0.966 -0.9159  2.5591  0.3349
 4400SOL    MW417374   3.310   1.417   0.925 -0.1616  0.0621  0.2904
 4401SOL     OW17375   2.479   5.704   6.002 -0.2286 -0.0854  0.5177
 4401SOL    HW217376   2.386   5.684   6.018  0.3293 -2.6297  0.9648
 4401SOL    HW317377   2.521   5.619   5.998  2.5753  1.0036  3.0280
 4401SOL    MW417378   2.472   5.691   6.004  0.6997  0.4984  0.6395
 4402SOL     OW17379   4.045   6.339   2.935 -0.3603 -0.1298  0.5265
 4402SOL    HW217380   3.960   6.378   2.958  0.9029  2.4073  1.3178
 4402SOL    HW317381   4.097   6.347   3.015  0.2458 -2.9795  0.5114
 4402SOL    MW417382   4.041   6.345   2.949 -0.2418  0.7413  0.1374
 4403SOL     OW17383   0.418   1.659   0.372  0.4191  0.4306  0.0929
 4403SOL    HW217384   0.433   1.657   0.277 -0.0380  1.7497 -0.0361
 4403SOL    HW317385   0.389   1.571   0.394  1.8533 -0.2923 -0.7512
 4403SOL    MW417386   0.416   1.647   0.362  0.0740 -0.1781 -0.0360
 4404SOL     OW17387   6.113   6.317   5.393  0.1303  0.6652  0.1766
 4404SOL    HW217388   6.203   6.327   5.363  0.8717 -3.1476  0.5847
 4404SOL    HW317389   6.117   6.335   5.487  0.8754 -1.0105  0.4978
 4404SOL    MW417390   6.126   6.321   5.402 -0.3737  0.4923  0.5694
 4405SOL     OW17391   2.257   3.834   0.213  0.1419 -0.3334  0.0309
 4405SOL    HW217392   2.313   3.805   0.286 -0.6109 -0.7214  0.4637
 4405SOL    HW317393   2.284   3.780   0.139  1.8028  0.9356 -0.3453
 4405SOL    MW417394   2.268   3.823   0.213 -0.6225 -0.1868 -0.0439
 4406SOL     OW17395   3.058   0.378   5.857 -0.2641  0.0261 -1.0930
 4406SOL    HW217396   3.050   0.343   5.946 -4.2876 -0.7433 -1.5668
 4406SOL    HW317397   3.074   0.471   5.869  3.1663 -0.5569  0.2456
 4406SOL    MW417398   3.059   0.386   5.870 -0.1610  0.2653 -0.6891
 4407SOL     OW17399   4.821   2.704   1.151  0.4307  0.1804  0.3128
 4407SOL    HW217400   4.849   2.612   1.154 -1.0385 -0.2968  0.3230
 4407SOL    HW317401   4.798   2.719   1.059  0.8340  0.5949  0.2775
 4407SOL    MW417402   4.822   2.694   1.139  0.1680 -0.0282  0.0111
 4408SOL     OW17403   5.461   0.815   5.546  0.0487  0.0175  0.3343
 4408SOL    HW217404   5.555   0.820   5.527  0.0964 -0.1200  0.5212
 4408SOL    HW317405   5.421   0.882   5.491 -0.1612 -2.1166 -2.3103
 4408SOL    MW417406   5.469   0.825   5.536  0.6609 -0.3630  0.5712
 4409SOL     OW17407   0.495   3.115   5.178 -0.4447 -0.8879  0.1455
 4409SOL    HW217408   0.544   3.044   5.219  1.1704 -0.1782 -0.4683
 4409SOL    HW317409   0.504   3.099   5.084 -1.5873 -0.8411  0.0112
 4409SOL    MW417410   0.503   3.103   5.171 -0.0072 -0.3721 -0.4191
 4410SOL     OW17411   3.330   2.504   6.136  0.4360  0.4992  0.3796
 4410SOL    HW217412   3.260   2.548   6.183  0.7084  1.8999 -0.4516
 4410SOL    HW317413   3.287   2.460   6.063  0.4285  1.7447 -0.4020
 4410SOL    MW417414   3.315   2.504   6.132  0.4725  0.2551 -0.3238
 4411SOL     OW17415   2.729   1.705   3.363  0.1669 -0.3615 -0.5642
 4411SOL    HW217416   2.809   1.666   3.328 -0.2919  0.7370 -2.9802
 4411SOL    HW317417   2.672   1.630   3.382  1.4808 -1.1155  0.6090
 4411SOL    MW417418   2.732   1.690   3.361  0.5185 -0.0953  0.0243
 4412SOL     OW17419   0.074   1.593   5.344  0.0382  0.4281  0.5033
 4412SOL    HW217420   0.164   1.611   5.318  0.1629 -0.8191  0.0616
 4412SOL    HW317421   0.048   1.516   5.294 -1.0715  0.3975  1.0855
 4412SOL    MW417422   0.082   1.585   5.334 -0.2215 -0.5959 -0.5749
 4413SOL     OW17423   5.388   3.065   1.498  0.1953  0.0026  0.0554
 4413SOL    HW217424   5.356   3.140   1.548  0.3223  0.0647  0.0433
 4413SOL    HW317425   5.483   3.074   1.500  0.2169 -0.2481  0.1935
 4413SOL    MW417426   5.396   3.076   1.505 -0.2503 -0.2111 -0.0190
 4414SOL     OW17427   1.481   2.739   2.443 -1.1686 -0.0607 -0.0416
 4414SOL    HW217428   1.471   2.654   2.402 -1.2940 -0.8225  1.4888
 4414SOL    HW317429   1.391   2.770   2.458 -1.2058  1.7161 -3.1635
 4414SOL    MW417430   1.467   2.732   2.440  0.1201 -0.0364  0.1576
 4415SOL     OW17431   6.212   1.254   5.949 -0.2708  1.1702  0.0274
 4415SOL    HW217432   6.308   1.253   5.952 -0.2693 -0.3938  0.0751
 4415SOL    HW317433   6.186   1.244   6.041 -0.4316 -1.7427 -0.2655
 4415SOL    MW417434   6.221   1.253   5.962 -0.1133  0.4891  0.0076
 4416SOL     OW17435   3.306   5.253   0.293 -0.2447 -0.3436 -0.1617
 4416SOL    HW217436   3.220   5.292   0.310 -0.4235 -0.8215  0.0599
 4416SOL    HW317437   3.317   5.189   0.364  0.5016  0.0499  0.0872
 4416SOL    MW417438   3.296   5.249   0.305 -0.1026  0.5405  0.0645
 4417SOL     OW17439   3.914   3.773   3.784  0.0899 -0.2334  0.0110
 4417SOL    HW217440   3.909   3.820   3.866 -0.6387 -1.3789  0.6547
 4417SOL    HW317441   4.002   3.736   3.782 -0.0926 -0.7199  0.5925
 4417SOL    MW417442   3.925   3.774   3.794  0.5267 -0.7228 -0.0964
 4418SOL     OW17443   5.918   2.593   2.600  0.5406  0.1742 -0.2509
 4418SOL    HW217444   5.913   2.508   2.644  0.7492 -0.4494 -1.3935
 4418SOL    HW317445   5.827   2.618   2.585  0.4253  0.8216  1.2677
 4418SOL    MW417446   5.905   2.585   2.604  0.0070 -0.6151  0.5888
 4419SOL     OW17447   6.056   0.522   2.230  0.4438  0.4734  0.2887
 4419SOL    HW217448   5.994   0.452   2.209  1.4744  0.0319 -1.4544
 4419SOL    HW317449   6.026   0.597   2.179  0.3403  0.7864  0.8064
 4419SOL    MW417450   6.044   0.523   2.221 -0.3676 -0.0413 -0.3021
 4420SOL     OW17451   1.368   5.901   1.096 -0.1150 -0.0880 -0.5064
 4420SOL    HW217452   1.306   5.973   1.100 -3.0935 -2.3559 -1.7985
 4420SOL    HW317453   1.424   5.921   1.021 -1.4935  0.4665 -1.4117
 4420SOL    MW417454   1.368   5.913   1.087  0.2293  0.1224  0.1878
 4421SOL     OW17455   4.856   1.488   1.754 -0.1217  0.0320  0.2813
 4421SOL    HW217456   4.789   1.473   1.688 -0.5076  0.0591  0.6648
 4421SOL    HW317457   4.857   1.583   1.767  0.3478  0.0855 -0.0867
 4421SOL    MW417458   4.847   1.499   1.747  0.1584 -0.2944 -0.1880
 4422SOL     OW17459   0.461   4.882   0.562  0.3384 -0.3282 -0.3786
 4422SOL    HW217460   0.444   4.952   0.625  1.0811  1.0368 -1.6418
 4422SOL    HW317461   0.556   4.881   0.551  0.2980 -1.1751 -0.8002
 4422SOL    MW417462   0.471   4.891   0.569  1.0230  0.4609  0.6098
 4423SOL     OW17463   5.196   5.418   5.875 -0.0862  0.1818 -0.3092
 4423SOL    HW217464   5.163   5.464   5.952  0.1799  1.7010 -1.0709
 4423SOL    HW317465   5.256   5.480   5.833  0.1730 -0.8018 -1.4698
 4423SOL    MW417466   5.200   5.432   5.880 -0.1437 -0.0084 -0.1582
 4424SOL     OW17467   5.321   2.248   2.299 -0.3403 -0.1527  0.4601
 4424SOL    HW217468   5.348   2.169   2.252  2.1767  0.1025  1.2711
 4424SOL    HW317469   5.262   2.217   2.367  0.7113 -1.3976  0.8418
 4424SOL    MW417470   5.317   2.234   2.302 -0.3509  0.4635 -0.4666
 4425SOL     OW17471   4.439   4.293   2.723  0.2781  0.2164 -0.0641
 4425SOL    HW217472   4.353   4.272   2.686  1.4867 -0.3068 -2.8730
 4425SOL    HW317473   4.461   4.378   2.683  1.4106 -0.0834 -0.0968
 4425SOL    MW417474   4.431   4.302   2.713  0.1565  0.0512 -0.1141
 4426SOL     OW17475   1.786   0.406   1.551  0.2347  0.5643  0.3821
 4426SOL    HW217476   1.734   0.412   1.471  2.2030 -1.1632 -1.1550
 4426SOL    HW317477   1.846   0.480   1.546  0.1877  0.5998  0.3495
 4426SOL    MW417478   1.787   0.416   1.540 -0.2129 -0.1578 -0.2270
 4427SOL     OW17479   3.006   4.997   0.337  0.4042 -0.1701  0.5900
 4427SOL    HW217480   2.932   5.046   0.301  0.0516 -0.6530  0.6594
 4427SOL    HW317481   3.027   4.932   0.271  0.3268 -0.4809  0.8722
 4427SOL    MW417482   2.999   4.995   0.324  0.0601  0.4582 -0.5134
 4428SOL     OW17483   3.566   2.132   4.030 -0.1731 -0.0218 -0.1395
 4428SOL    HW217484   3.491   2.104   4.083  1.0039 -1.7575  0.7035
 4428SOL    HW317485   3.575   2.225   4.048 -1.1337 -0.1355  1.0378
 4428SOL    MW417486   3.557   2.140   4.039  0.7821  0.0312 -0.6489
 4429SOL     OW17487   5.334   5.330   1.808  0.0568  0.0071  0.4656
 4429SOL    HW217488   5.269   5.375   1.754 -0.1763  0.0479  0.7819
 4429SOL    HW317489   5.284   5.261   1.852 -0.2355  1.3443  2.3600
 4429SOL    MW417490   5.319   5.327   1.807  0.3001  0.2094 -0.0659
 4430SOL     OW17491   1.101   1.450   0.524 -0.1284 -0.3099 -0.1893
 4430SOL    HW217492   1.121   1.414   0.438 -1.5627 -1.5654 -0.0364
 4430SOL    HW317493   1.018   1.496   0.512  1.2792  2.4452 -0.2055
 4430SOL    MW417494   1.093   1.452   0.511 -0.4528 -0.0957 -0.1442
 4431SOL     OW17495   4.619   3.376   5.166  0.0100  0.6257  0.1096
 4431SOL    HW217496   4.684   3.440   5.137 -0.4331  0.3605 -1.5513
 4431SOL    HW317497   4.541   3.428   5.185  0.0497  0.7216  0.0115
 4431SOL    MW417498   4.617   3.391   5.165  0.6043  0.1449  0.2619
 4432SOL     OW17499   2.173   2.127   5.693 -0.1082 -0.1189  0.3110
 4432SOL    HW217500   2.151   2.096   5.605  0.5384  0.1741  0.0366
 4432SOL    HW317501   2.232   2.201   5.678 -0.6560  0.4649  0.9792
 4432SOL    MW417502   2.178   2.133   5.679  0.5673 -0.0621  0.8262
 4433SOL     OW17503   4.286   3.772   1.653  0.3457 -0.1956  0.1935
 4433SOL    HW217504   4.205   3.722   1.645 -0.3054  0.9426 -0.6364
 4433SOL    HW317505   4.262   3.849   1.705  1.2899 -0.6229  1.3093
 4433SOL    MW417506   4.272   3.775   1.659  0.0595  0.7988  0.5963
 4434SOL     OW17507   4.636   5.749   3.623 -0.2275  0.4096 -0.2686
 4434SOL    HW217508   4.543   5.725   3.617 -0.7405  1.1962  3.0198
 4434SOL    HW317509   4.677   5.675   3.668  0.6487  0.3699 -1.0931
 4434SOL    MW417510   4.629   5.736   3.628 -0.1610  0.4690 -0.4234
 4435SOL     OW17511   4.044   4.629   5.193 -0.5480  0.3329 -0.3460
 4435SOL    HW217512   4.131   4.595   5.214 -0.2989  1.5196  0.6465
 4435SOL    HW317513   4.015   4.576   5.118  1.1979  0.1798 -0.9572
 4435SOL    MW417514   4.052   4.618   5.186  0.0963 -0.1497 -0.3383
 4436SOL     OW17515   6.042   4.145   1.335  0.8207 -0.6385  0.6660
 4436SOL    HW217516   6.044   4.054   1.305  0.6932  0.1520 -2.0084
 4436SOL    HW317517   6.110   4.188   1.283 -1.3315  1.4351 -0.6327
 4436SOL    MW417518   6.052   4.138   1.324  0.6616 -0.1360  0.2603
 4437SOL     OW17519   3.689   2.977   2.145 -0.5600 -0.2245 -0.3537
 4437SOL    HW217520   3.646   2.915   2.086  0.2386 -0.7855 -0.3612
 4437SOL    HW317521   3.781   2.950   2.145  0.1266  1.8853 -1.5400
 4437SOL    MW417522   3.695   2.965   2.137 -0.0901  0.3230  0.2328
 4438SOL     OW17523   4.880   3.072   2.489 -0.5302 -0.2229  0.0454
 4438SOL    HW217524   4.841   3.066   2.402 -0.8083 -1.4287  0.2375
 4438SOL    HW317525   4.959   3.017   2.483 -0.8879 -0.8159  0.7300
 4438SOL    MW417526   4.886   3.064   2.476  0.1107 -0.7466  0.7574
 4439SOL     OW17527   5.682   3.118   3.636  0.1258 -0.5496 -0.3181
 4439SOL    HW217528   5.650   3.208   3.649  3.0553  0.6043 -0.2918
 4439SOL    HW317529   5.654   3.071   3.715 -1.2695  0.3722 -0.2300
 4439SOL    MW417530   5.674   3.124   3.648  0.4929  0.5526  0.0914
 4440SOL     OW17531   2.442   6.371   0.057 -0.2339  0.3520 -0.3536
 4440SOL    HW217532   2.385   6.295   0.045  0.9857 -0.6304 -0.1259
 4440SOL    HW317533   2.439   6.417  -0.026 -2.4908  1.1611  0.1006
 4440SOL    MW417534   2.434   6.367   0.045  0.0736  0.1461 -0.1288
 4441SOL     OW17535   0.789   1.283   5.201  0.1143 -0.1305 -0.0302
 4441SOL    HW217536   0.728   1.211   5.220 -0.3940  0.1012 -0.7474
 4441SOL    HW317537   0.740   1.342   5.145  0.9531  0.1502 -0.4884
 4441SOL    MW417538   0.775   1.281   5.196 -0.2376  0.2461  0.0685
 4442SOL     OW17539   1.563   3.429   5.597  0.1684 -0.3726 -0.0618
 4442SOL    HW217540   1.512   3.483   5.537 -1.1858 -1.4495  0.0874
 4442SOL    HW317541   1.621   3.378   5.540 -0.4197 -0.6800 -0.3905
 4442SOL    MW417542   1.564   3.430   5.581  0.8373 -0.0827 -0.8098
 4443SOL     OW17543   5.226   6.094   3.544  0.4313 -0.0305 -0.1269
 4443SOL    HW217544   5.205   6.152   3.471 -1.0109 -1.0487 -0.5803
 4443SOL    HW317545   5.262   6.151   3.611 -1.2996  1.4657 -0.3981
 4443SOL    MW417546   5.228   6.109   3.543 -0.0553 -0.6238  0.3698
 4444SOL     OW17547   1.554   0.739   1.599 -0.1546 -0.4011  0.6083
 4444SOL    HW217548   1.491   0.666   1.595 -0.4385 -0.1350 -0.0563
 4444SOL    HW317549   1.517   0.805   1.541  0.8816 -0.3517 -0.0254
 4444SOL    MW417550   1.541   0.738   1.591 -0.5040  0.0792 -0.3166
 4445SOL     OW17551   6.304   1.645   4.052  0.1629  0.3685  0.2084
 4445SOL    HW217552   6.340   1.632   3.964  0.3436 -2.8142  0.6042
 4445SOL    HW317553   6.224   1.593   4.052 -0.6211  1.5369  1.5005
 4445SOL    MW417554   6.298   1.636   4.041  0.1462 -0.3317  0.4927
 4446SOL     OW17555   5.205   3.964   0.325  0.2404 -0.3624  0.4349
 4446SOL    HW217556   5.288   3.928   0.294 -0.1732 -1.3142  0.3856
 4446SOL    HW317557   5.190   4.041   0.271  1.4069  0.2097  0.8871
 4446SOL    MW417558   5.214   3.969   0.314  0.5470  0.2136 -0.2848
 4447SOL     OW17559   0.555   2.064   1.661  0.4025 -0.2061  0.2545
 4447SOL    HW217560   0.534   2.129   1.593  2.3134 -0.4450 -0.6367
 4447SOL    HW317561   0.513   1.984   1.631 -0.2634  0.1154  0.3034
 4447SOL    MW417562   0.547   2.062   1.648 -0.2284  0.5423 -0.2728
 4448SOL     OW17563   4.209   1.897   2.544 -0.0410  0.8908  0.1895
 4448SOL    HW217564   4.265   1.824   2.516  0.8810  1.3485  0.8076
 4448SOL    HW317565   4.213   1.960   2.472 -1.6787 -0.0782 -0.8245
 4448SOL    MW417566   4.217   1.896   2.531  0.0058 -0.2638  0.7664
 4449SOL     OW17567   6.258   5.132   3.149  0.2560  0.2489  0.1377
 4449SOL    HW217568   6.334   5.127   3.091  0.0272  0.5999 -0.2036
 4449SOL    HW317569   6.195   5.071   3.111 -0.2094  1.0919 -0.4750
 4449SOL    MW417570   6.260   5.124   3.136 -0.2179  0.6098 -0.5429
 4450SOL     OW17571   4.624   5.878   2.602  0.0185 -0.1272  0.1805
 4450SOL    HW217572   4.576   5.814   2.655 -0.5177 -0.9350 -1.2128
 4450SOL    HW317573   4.575   5.960   2.612  0.4151 -0.0538  1.5842
 4450SOL    MW417574   4.611   5.880   2.610  0.8284 -0.4249  0.0057
 4451SOL     OW17575   3.516   0.404   3.180 -0.1732 -0.4558 -0.5150
 4451SOL    HW217576   3.479   0.492   3.179 -0.8384 -0.7297 -1.4902
 4451SOL    HW317577   3.537   0.386   3.089 -0.2328 -1.3938 -0.3502
 4451SOL    MW417578   3.514   0.413   3.168 -0.1602 -0.7489 -0.0582
 4452SOL     OW17579   1.431   1.955   1.408 -0.1398 -0.0902 -0.0699
 4452SOL    HW217580   1.415   2.000   1.325 -0.3613  0.9155  0.4887
 4452SOL    HW317581   1.421   2.024   1.474 -1.4020 -1.1601  0.9086
 4452SOL    MW417582   1.428   1.970   1.406  0.2555 -0.3418  0.5394
 4453SOL     OW17583   1.573   0.826   0.862  0.4560 -0.4276 -0.0997
 4453SOL    HW217584   1.646   0.792   0.809  0.8616 -2.9209  1.8332
 4453SOL    HW317585   1.495   0.801   0.813  0.8338  0.6507 -1.3091
 4453SOL    MW417586   1.573   0.818   0.848 -0.3767  0.3383 -0.1986
 4454SOL     OW17587   5.235   3.003   3.719 -0.5948 -0.2909  0.0168
 4454SOL    HW217588   5.234   3.067   3.648  0.6993 -0.2110  0.0449
 4454SOL    HW317589   5.310   2.946   3.700 -1.2312 -1.3067  0.4290
 4454SOL    MW417590   5.245   3.004   3.707  0.1614 -0.0309 -0.0681
 4455SOL     OW17591   1.132   3.268   6.211 -0.1519 -0.7591 -0.1678
 4455SOL    HW217592   1.153   3.316   6.291 -1.1132 -1.3607  0.4730
 4455SOL    HW317593   1.172   3.182   6.223  1.0189 -0.3588 -1.0304
 4455SOL    MW417594   1.140   3.263   6.223 -0.6299  0.2468  0.1063
 4456SOL     OW17595   6.274   5.220   2.862 -0.0603 -0.2570  1.1161
 4456SOL    HW217596   6.340   5.283   2.888 -0.0895  0.0509  0.4752
 4456SOL    HW317597   6.239   5.254   2.779 -1.4549 -0.0847  1.7438
 4456SOL    MW417598   6.278   5.233   2.854 -0.2611 -0.5205 -0.6365
 4457SOL     OW17599   4.240   3.898   5.021 -0.4463  0.3438  0.2022
 4457SOL    HW217600   4.222   3.979   5.069  2.6242  0.8261  0.7726
 4457SOL    HW317601   4.228   3.829   5.086 -1.7813  0.4221  0.0702
 4457SOL    MW417602   4.236   3.900   5.036  0.2512 -0.4993 -0.8858
 4458SOL     OW17603   1.167   2.076   0.693 -0.2243 -0.4694 -0.0221
 4458SOL    HW217604   1.262   2.083   0.677 -0.0281 -1.6080  0.4980
 4458SOL    HW317605   1.133   2.163   0.675  0.6191 -0.5197 -2.1685
 4458SOL    MW417606   1.175   2.088   0.689 -0.2008  0.3220 -0.0382
 4459SOL     OW17607   5.039   5.824   4.378 -0.4212 -0.3481  0.0454
 4459SOL    HW217608   5.036   5.845   4.471 -0.6481  0.9298 -0.2403
 4459SOL    HW317609   4.948   5.831   4.349 -0.2522 -0.0534 -0.4177
 4459SOL    MW417610   5.026   5.827   4.387  0.2324  0.3869 -0.3619
 4460SOL     OW17611   0.974   5.783   3.254  0.9080 -0.0500  0.5119
 4460SOL    HW217612   0.897   5.831   3.284  0.1228 -0.7999 -0.2457
 4460SOL    HW317613   0.983   5.808   3.162  0.7118 -1.0467  0.2094
 4460SOL    MW417614   0.965   5.793   3.246 -0.6932 -0.6448 -0.1834
 4461SOL     OW17615   2.326   3.477   2.717  0.6958 -0.5832  0.2411
 4461SOL    HW217616   2.306   3.571   2.711  2.5222 -0.1864 -0.3009
 4461SOL    HW317617   2.291   3.440   2.637  0.8723 -0.1674 -0.0325
 4461SOL    MW417618   2.319   3.485   2.706 -0.3000  0.1546  0.2174
 4462SOL     OW17619   1.975   1.141   2.470  0.3941  0.7504 -0.1646
 4462SOL    HW217620   2.025   1.059   2.459 -1.0813 -0.4256  1.4572
 4462SOL    HW317621   1.953   1.167   2.380 -0.6035 -1.6294 -0.6999
 4462SOL    MW417622   1.979   1.134   2.457 -0.0764 -0.3021  0.6294
 4463SOL     OW17623   0.748   6.220   6.361  0.2986 -0.8226  0.0771
 4463SOL    HW217624   0.805   6.208   6.437  0.4235 -2.7440 -0.2691
 4463SOL    HW317625   0.681   6.153   6.371 -1.3228  0.7113 -0.0923
 4463SOL    MW417626   0.747   6.210   6.372  0.4994 -0.4286  0.3176
 4464SOL     OW17627   1.789   4.496   0.528  0.2899 -0.3373 -0.4158
 4464SOL    HW217628   1.873   4.455   0.510  1.2282  0.7936  1.1564
 4464SOL    HW317629   1.799   4.586   0.499 -0.3884 -0.1935 -0.2264
 4464SOL    MW417630   1.801   4.502   0.522 -0.5605  0.6807 -0.5928
 4465SOL     OW17631   3.104   4.998   6.032  0.0397  0.0922 -0.2356
 4465SOL    HW217632   3.094   5.001   5.937 -0.2915 -0.5073 -0.2235
 4465SOL    HW317633   3.199   4.998   6.047  0.1100 -1.2768 -0.6198
 4465SOL    MW417634   3.115   4.999   6.022  0.0307  0.6501  0.3099
 4466SOL     OW17635   0.734   3.654   2.117 -0.4437  0.3239  0.6758
 4466SOL    HW217636   0.673   3.580   2.112 -0.1585  0.1296 -0.1082
 4466SOL    HW317637   0.710   3.710   2.043  0.3729  0.2041  0.3099
 4466SOL    MW417638   0.723   3.651   2.106 -0.0756 -0.4599  0.1475
 4467SOL     OW17639   5.945   6.163   5.228 -0.1452  0.2282  0.2923
 4467SOL    HW217640   5.903   6.096   5.282  0.0544 -1.7319 -1.8707
 4467SOL    HW317641   6.013   6.200   5.286 -1.2503 -0.3214  2.0279
 4467SOL    MW417642   5.949   6.159   5.243 -0.7624  0.0467  0.0019
 4468SOL     OW17643   2.758   4.819   3.703  0.0169  0.3602 -0.0574
 4468SOL    HW217644   2.833   4.790   3.651 -0.4018 -1.0778  0.1137
 4468SOL    HW317645   2.686   4.824   3.641 -0.4037 -1.0289  0.2967
 4468SOL    MW417646   2.758   4.816   3.688 -0.0158 -0.3434  0.3751
 4469SOL     OW17647   0.207   5.720   6.172  0.3917 -0.5489  0.2409
 4469SOL    HW217648   0.140   5.788   6.167 -2.0153 -2.7234  0.4540
 4469SOL    HW317649   0.229   5.714   6.265  1.4225  0.5915  0.0946
 4469SOL    MW417650   0.201   5.728   6.184  0.1911  0.5202  0.2819
 4470SOL     OW17651   2.493   3.570   3.398 -0.1382  0.4293  0.2357
 4470SOL    HW217652   2.466   3.571   3.307  3.9981 -0.2878 -1.2237
 4470SOL    HW317653   2.563   3.636   3.403  1.4040 -1.2201  2.2168
 4470SOL    MW417654   2.499   3.579   3.387 -0.1260 -0.7476  0.0716
 4471SOL     OW17655   0.924   1.711   1.744  0.2319  0.4996 -0.6922
 4471SOL    HW217656   0.901   1.623   1.714 -2.7882  1.5226 -1.7287
 4471SOL    HW317657   0.982   1.696   1.819  0.1926 -2.3272 -1.0933
 4471SOL    MW417658   0.929   1.697   1.750  0.0580  0.6496 -0.0357
 4472SOL     OW17659   2.037   2.309   2.612 -0.3694 -0.0981 -0.1871
 4472SOL    HW217660   2.098   2.305   2.685 -2.4123 -1.6923  1.5742
 4472SOL    HW317661   2.031   2.219   2.581  0.4819  0.5573 -2.4128
 4472SOL    MW417662   2.044   2.297   2.618 -0.3450 -0.3188 -0.4331
 4473SOL     OW17663   0.023   1.948   3.917 -0.5929  0.0280  0.0217
 4473SOL    HW217664   0.020   1.878   3.853 -0.1501 -0.2260  0.2709
 4473SOL    HW317665   0.042   2.027   3.866 -0.7913 -0.0849 -0.2229
 4473SOL    MW417666   0.025   1.949   3.902  0.0101  0.1600 -0.4788
 4474SOL     OW17667   6.134   5.953   1.962 -0.6851 -0.2173 -0.1789
 4474SOL    HW217668   6.065   6.012   1.992 -0.6839 -0.8426  1.1239
 4474SOL    HW317669   6.090   5.869   1.948 -0.1991 -0.6292  0.6967
 4474SOL    MW417670   6.119   5.950   1.964 -0.1389 -0.3103  0.1394
 4475SOL     OW17671   5.263   0.432   5.273 -0.1791  0.1268  0.3946
 4475SOL    HW217672   5.209   0.488   5.328  0.2701 -0.1794  1.1719
 4475SOL    HW317673   5.346   0.424   5.322  0.2254 -0.1556 -0.3280
 4475SOL    MW417674   5.267   0.438   5.287 -0.3487  0.7876  0.3495
 4476SOL     OW17675   3.082   3.853   0.657  0.2575 -0.0569 -0.0829
 4476SOL    HW217676   3.034   3.862   0.739 -1.8794  0.3559 -1.2938
 4476SOL    HW317677   3.118   3.764   0.659  0.4906  0.0515  1.3981
 4476SOL    MW417678   3.081   3.842   0.668 -0.6190 -0.0580  0.1996
 4477SOL     OW17679   4.278   5.465   1.435 -0.2561  0.0286  0.3033
 4477SOL    HW217680   4.250   5.554   1.456  0.0076  0.5460 -1.3337
 4477SOL    HW317681   4.248   5.452   1.345  0.1535 -1.3625  0.3457
 4477SOL    MW417682   4.271   5.475   1.426 -0.3333 -0.1565 -0.2191
 4478SOL     OW17683   1.413   0.643   4.075 -0.1850 -0.0381 -0.1839
 4478SOL    HW217684   1.504   0.638   4.045 -0.0436  0.3793  0.1580
 4478SOL    HW317685   1.366   0.685   4.003 -0.3307 -1.2788 -0.8276
 4478SOL    MW417686   1.419   0.648   4.062 -0.1961  0.0074 -0.4242
 4479SOL     OW17687   4.488   3.249   5.718  0.0400 -0.3344 -0.9192
 4479SOL    HW217688   4.456   3.224   5.805 -1.4281 -0.6669 -1.5216
 4479SOL    HW317689   4.569   3.296   5.735  0.3733 -1.3528  0.5669
 4479SOL    MW417690   4.494   3.252   5.732 -0.6038 -0.6395  0.2512
 4480SOL     OW17691   2.290   1.323   3.279 -0.7302  0.0762  0.1130
 4480SOL    HW217692   2.230   1.396   3.293  0.3286  0.9452  0.2612
 4480SOL    HW317693   2.335   1.345   3.197  1.1254  0.6908  1.2480
 4480SOL    MW417694   2.288   1.335   3.270 -0.3847  0.6521  0.1506
 4481SOL     OW17695   1.875   2.994   3.678  0.7201 -0.2190  0.1292
 4481SOL    HW217696   1.904   3.068   3.731 -0.7321  2.7744 -2.8586
 4481SOL    HW317697   1.793   3.025   3.638 -0.0566 -3.5670 -1.1681
 4481SOL    MW417698   1.868   3.008   3.680 -0.2987  0.0121 -0.3167
 4482SOL     OW17699   2.722   2.810   3.154  0.5386  0.0223  0.4428
 4482SOL    HW217700   2.647   2.859   3.123  0.5279 -0.1358  0.2175
 4482SOL    HW317701   2.706   2.720   3.126  2.2827  0.4780 -2.4139
 4482SOL    MW417702   2.710   2.805   3.146  0.0614  0.4083 -0.5453
 4483SOL     OW17703   5.047   2.710   3.295  0.2019 -0.1207 -0.6236
 4483SOL    HW217704   5.002   2.773   3.351  0.7075 -0.0768 -0.2688
 4483SOL    HW317705   4.977   2.674   3.240 -0.1484  0.4890 -0.5905
 4483SOL    MW417706   5.032   2.714   3.295  0.4290  0.6707  0.0663
 4484SOL     OW17707   5.087   4.304   2.012  0.0457  0.2112  0.1285
 4484SOL    HW217708   5.007   4.305   1.959 -0.9104  0.5552  1.5269
 4484SOL    HW317709   5.118   4.394   2.011  0.3237  0.1138 -0.2636
 4484SOL    MW417710   5.081   4.316   2.005  0.6440  0.9482 -0.5892
 4485SOL     OW17711   4.828   3.575   0.495 -0.3749 -0.7917 -0.0261
 4485SOL    HW217712   4.796   3.511   0.559  0.2605  0.2694  1.4197
 4485SOL    HW317713   4.919   3.591   0.521 -0.7442  1.2752  0.1846
 4485SOL    MW417714   4.836   3.569   0.507  0.2950 -0.0788  0.2662
 4486SOL     OW17715   4.217   1.352   4.257  0.4002  0.5896 -0.6059
 4486SOL    HW217716   4.261   1.282   4.307 -0.9450 -0.1359 -0.3951
 4486SOL    HW317717   4.248   1.433   4.298 -0.1279  0.0312  0.9801
 4486SOL    MW417718   4.227   1.353   4.269 -0.0209 -0.5277 -0.4499
 4487SOL     OW17719   2.156   3.573   4.148 -0.8405  0.0499 -0.5488
 4487SOL    HW217720   2.101   3.512   4.197 -2.0741  1.5189  0.0160
 4487SOL    HW317721   2.239   3.575   4.196 -0.4492 -1.7804 -1.0858
 4487SOL    MW417722   2.159   3.565   4.161 -0.6717 -0.0967 -0.5289
 4488SOL     OW17723   3.966   3.482   6.109  0.5471  0.1598 -0.6726
 4488SOL    HW217724   4.054   3.515   6.127  0.2099  0.2931  0.8482
 4488SOL    HW317725   3.950   3.416   6.176 -0.7031  0.5053 -0.5963
 4488SOL    MW417726   3.975   3.478   6.120 -0.4586 -0.0554  0.4137
 4489SOL     OW17727   3.045   0.431   2.339  0.0144  0.1285  0.1325
 4489SOL    HW217728   3.137   0.433   2.367 -0.3249  0.3981  1.2693
 4489SOL    HW317729   3.034   0.509   2.285  1.1876 -1.4005 -2.5416
 4489SOL    MW417730   3.056   0.442   2.335 -0.1483  0.0148 -0.6651
 4490SOL     OW17731   5.854   2.189   4.772  0.8282  0.2592 -0.1801
 4490SOL    HW217732   5.794   2.138   4.826  2.6934 -1.4219  0.4502
 4490SOL    HW317733   5.798   2.234   4.709 -1.2984  1.1881  2.2369
 4490SOL    MW417734   5.839   2.188   4.771 -0.4100  0.0530 -0.1418
 4491SOL     OW17735   0.771   0.502   0.194  0.0854  0.3147 -0.8592
 4491SOL    HW217736   0.675   0.502   0.186  0.0459 -1.5002 -0.6687
 4491SOL    HW317737   0.803   0.516   0.105 -0.3655 -0.2144 -1.1110
 4491SOL    MW417738   0.762   0.504   0.182 -0.6257 -0.0632  0.2214
 4492SOL     OW17739   0.353   0.200   4.566  0.1675 -0.0189 -0.3984
 4492SOL    HW217740   0.405   0.183   4.645  0.1625  1.1832 -0.1157
 4492SOL    HW317741   0.309   0.116   4.548 -0.4757 -0.1104  1.3666
 4492SOL    MW417742   0.354   0.186   4.574 -0.1031 -0.1762  0.1335
 4493SOL     OW17743   6.077   0.910   0.210 -0.5525 -0.5175  0.0967
 4493SOL    HW217744   6.115   0.988   0.169 -1.9157 -0.0738 -0.3749
 4493SOL    HW317745   6.148   0.875   0.264 -0.1862  1.6232  1.1258
 4493SOL    MW417746   6.091   0.916   0.212 -0.4754 -0.5240  0.7421
 4494SOL     OW17747   0.611   2.464   6.341 -0.0702 -0.5638 -0.1313
 4494SOL    HW217748   0.621   2.381   6.294  1.2657  0.3852 -1.6326
 4494SOL    HW317749   0.588   2.528   6.273 -1.1919  0.3015  1.0096
 4494SOL    MW417750   0.610   2.462   6.326 -0.6463 -0.0395 -0.2028
 4495SOL     OW17751   2.975   2.239   6.186 -0.0488 -0.0064  0.2849
 4495SOL    HW217752   3.041   2.180   6.150 -0.2618 -1.3489  1.9879
 4495SOL    HW317753   3.025   2.303   6.237  0.0728  0.4246 -0.3577
 4495SOL    MW417754   2.990   2.240   6.188  0.0013  0.0179 -0.4922
 4496SOL     OW17755   5.098   5.476   2.385  0.3248 -0.1254 -0.0368
 4496SOL    HW217756   5.069   5.536   2.316  2.0921 -1.0370 -1.6738
 4496SOL    HW317757   5.178   5.437   2.351  0.7102 -1.4138  2.1306
 4496SOL    MW417758   5.105   5.479   2.371  0.1691  0.0255  0.0212
 4497SOL     OW17759   2.035   6.312   3.135  0.1966 -0.7524  0.2241
 4497SOL    HW217760   2.016   6.219   3.124 -1.5918 -0.5885  1.5005
 4497SOL    HW317761   1.963   6.345   3.189 -0.8394  1.9697 -2.4624
 4497SOL    MW417762   2.023   6.304   3.140  0.0142 -0.1024 -0.2389
 4498SOL     OW17763   3.099   5.071   5.753  0.0724 -0.1412  0.0744
 4498SOL    HW217764   3.018   5.044   5.710  0.0206 -0.5721  0.4332
 4498SOL    HW317765   3.169   5.040   5.695 -0.0211  1.5752 -1.0258
 4498SOL    MW417766   3.098   5.063   5.740 -0.0363  0.3337  0.6047
 4499SOL     OW17767   2.479   2.367   3.952 -0.5161  0.4503 -0.1818
 4499SOL    HW217768   2.486   2.278   3.918  0.6194 -0.2259  1.6699
 4499SOL    HW317769   2.403   2.363   4.011 -1.0628  0.9893 -0.8363
 4499SOL    MW417770   2.470   2.355   3.955 -0.1574 -0.3538  0.5575
 4500SOL     OW17771   1.160   4.611   3.318 -0.1189  0.2274  0.1986
 4500SOL    HW217772   1.141   4.594   3.225 -1.6965 -1.1063  0.7282
 4500SOL    HW317773   1.239   4.560   3.335 -1.2868 -1.7127  0.1836
 4500SOL    MW417774   1.168   4.602   3.308  0.8042 -0.5478  0.5100
 4501SOL     OW17775   2.320   5.541   6.282 -0.0020 -0.1164  0.0054
 4501SOL    HW217776   2.320   5.635   6.267 -0.6017 -0.2518 -0.8962
 4501SOL    HW317777   2.410   5.521   6.310  0.3295  0.6049 -0.5425
 4501SOL    MW417778   2.332   5.551   6.284 -0.0712  0.3034 -0.1507
 4502SOL     OW17779   2.558   3.759   2.866  0.1071  0.2620 -0.1154
 4502SOL    HW217780   2.479   3.768   2.813 -0.3955 -0.3024  0.5307
 4502SOL    HW317781   2.627   3.740   2.803 -0.5531 -0.8048 -0.5374
 4502SOL    MW417782   2.557   3.758   2.851 -0.1247  0.0010 -0.0687
 4503SOL     OW17783   4.771   6.329   3.922 -0.0633 -0.0468 -0.6027
 4503SOL    HW217784   4.721   6.262   3.969 -1.7493  0.4838 -1.5879
 4503SOL    HW317785   4.835   6.279   3.871  0.6779 -0.7200  0.9152
 4503SOL    MW417786   4.773   6.313   3.922  0.2097 -0.1936 -0.1533
 4504SOL     OW17787   4.179   0.937   6.051  0.4125 -0.2086  0.0992
 4504SOL    HW217788   4.194   0.885   6.129 -0.1913 -1.0818 -0.3471
 4504SOL    HW317789   4.085   0.956   6.052  0.5481  0.4854  0.0194
 4504SOL    MW417790   4.169   0.933   6.061  0.1996 -0.1629  0.2188
 4505SOL     OW17791   3.322   1.100   2.105  0.1971  0.0472  0.3089
 4505SOL    HW217792   3.360   1.102   2.193 -1.0268  1.5363  0.8588
 4505SOL    HW317793   3.270   1.180   2.100  1.3000  0.6947 -2.2792
 4505SOL    MW417794   3.320   1.111   2.116  0.0787  0.8172 -0.1567
 4506SOL     OW17795   2.949   0.855   1.586  0.4541 -0.0853  0.0168
 4506SOL    HW217796   2.994   0.921   1.640  1.9790 -0.9746 -0.1043
 4506SOL    HW317797   3.016   0.825   1.524 -1.1087  0.5599 -2.1079
 4506SOL    MW417798   2.964   0.860   1.585  0.3217 -0.2680 -0.0932
 4507SOL     OW17799   2.260   0.437   5.924  0.2857 -0.1480  0.4400
 4507SOL    HW217800   2.251   0.501   5.995  1.1554  1.1467 -0.5531
 4507SOL    HW317801   2.171   0.409   5.905  0.1196 -1.7351  3.0450
 4507SOL    MW417802   2.247   0.442   5.931 -0.3564  0.0097  0.0645
 4508SOL     OW17803   2.581   5.185   1.270  0.2315  0.1297 -0.1296
 4508SOL    HW217804   2.620   5.106   1.307  0.5158 -0.7086 -2.1157
 4508SOL    HW317805   2.488   5.177   1.291  0.1604 -1.0573 -0.8074
 4508SOL    MW417806   2.574   5.174   1.278  0.2283 -0.0155  0.1683
 4509SOL     OW17807   0.939   3.353   1.796  0.0742  0.1803 -0.1572
 4509SOL    HW217808   0.975   3.302   1.869 -0.1104  0.3407  0.0474
 4509SOL    HW317809   0.997   3.429   1.789  0.1013  0.1569 -0.1881
 4509SOL    MW417810   0.952   3.357   1.805  0.2315  0.4635 -0.0996
 4510SOL     OW17811   2.940   6.321   2.537 -0.3734  0.0717  0.1952
 4510SOL    HW217812   3.003   6.322   2.609  0.9073 -0.2788 -0.8871
 4510SOL    HW317813   2.868   6.267   2.569  2.0336 -3.7291 -0.2385
 4510SOL    MW417814   2.938   6.314   2.551 -0.4531  0.4934 -0.2314
 4511SOL     OW17815   0.791   2.754   5.689 -0.4768 -0.3173 -0.4053
 4511SOL    HW217816   0.811   2.847   5.699 -0.9202 -0.2358 -0.2147
 4511SOL    HW317817   0.867   2.708   5.725 -1.3553 -0.0205  2.0461
 4511SOL    MW417818   0.804   2.760   5.695 -0.1272 -0.5438 -0.3007
 4512SOL     OW17819   3.367   2.833   2.791  0.2562  0.0053  0.5902
 4512SOL    HW217820   3.418   2.797   2.718 -0.3710 -0.5465  0.4143
 4512SOL    HW317821   3.393   2.925   2.795 -0.3486  0.2634 -0.9073
 4512SOL    MW417822   3.377   2.840   2.782  0.2741 -0.3122  0.2682
 4513SOL     OW17823   4.292   0.883   1.268  0.0904  0.3217  0.0074
 4513SOL    HW217824   4.218   0.909   1.214  1.0059  1.8987 -0.5891
 4513SOL    HW317825   4.366   0.881   1.207  0.5217 -1.4594  0.5351
 4513SOL    MW417826   4.292   0.886   1.253  0.2246  0.5797 -0.3616
 4514SOL     OW17827   1.321   0.576   5.927 -0.2928 -0.9832 -0.2149
 4514SOL    HW217828   1.304   0.591   5.834 -1.3694 -1.0028 -0.0365
 4514SOL    HW317829   1.262   0.636   5.972 -1.5385 -2.6274  0.4680
 4514SOL    MW417830   1.311   0.586   5.920  0.0994  0.0408  0.5079
 4515SOL     OW17831   6.077   0.459   5.866 -0.0546 -0.2318  0.4721
 4515SOL    HW217832   6.108   0.390   5.808  2.0471  0.8576  0.1831
 4515SOL    HW317833   6.008   0.504   5.815  1.1542  0.1700 -0.8912
 4515SOL    MW417834   6.072   0.456   5.851 -0.9322  0.7767  0.4430
 4516SOL     OW17835   0.542   1.426   2.975  0.0472 -0.3994 -0.5280
 4516SOL    HW217836   0.600   1.495   3.007 -3.0042  2.6376 -0.9018
 4516SOL    HW317837   0.526   1.370   3.051  2.3203 -0.5386 -0.1058
 4516SOL    MW417838   0.547   1.428   2.990 -0.0775  0.2150 -0.0372
 4517SOL     OW17839   3.489   2.855   1.980 -0.3854  0.3696  0.0495
 4517SOL    HW217840   3.441   2.936   1.965 -1.8859 -0.3609  0.7384
 4517SOL    HW317841   3.431   2.786   1.949 -0.4046 -0.6371  2.1415
 4517SOL    MW417842   3.475   2.857   1.974 -0.2576  0.6140 -0.0037
 4518SOL     OW17843   3.075   1.374   1.808 -0.2980  0.1898  0.4217
 4518SOL    HW217844   2.981   1.392   1.812 -0.1525  0.8305  1.0856
 4518SOL    HW317845   3.095   1.374   1.714 -1.4486 -2.7016  0.0548
 4518SOL    MW417846   3.065   1.376   1.796 -0.0031  0.3654  0.4700
 4519SOL     OW17847   6.321   1.021   1.725  0.0368  0.0340 -0.3249
 4519SOL    HW217848   6.289   1.077   1.795 -0.6384 -0.1108 -0.5122
 4519SOL    HW317849   6.357   1.081   1.659  0.6853  0.1690  0.1461
 4519SOL    MW417850   6.322   1.036   1.725  0.3908  0.1930 -0.4592
 4520SOL     OW17851   0.532   3.673   3.072 -0.9428  0.0776  0.2859
 4520SOL    HW217852   0.601   3.702   3.013  0.1552 -2.0248  0.4691
 4520SOL    HW317853   0.563   3.697   3.159 -1.5470  1.1762  0.2270
 4520SOL    MW417854   0.545   3.680   3.076  0.0376 -0.0081 -0.0079
 4521SOL     OW17855   3.609   1.709   6.371  0.2718 -0.5996  0.8838
 4521SOL    HW217856   3.571   1.784   6.418  1.3194 -0.7004  1.9220
 4521SOL    HW317857   3.684   1.745   6.325  0.1192 -0.8022  0.4682
 4521SOL    MW417858   3.614   1.724   6.371 -0.7273 -0.8751  0.6445
 4522SOL     OW17859   5.384   0.692   5.986 -0.0329 -0.2732 -0.7209
 4522SOL    HW217860   5.345   0.695   6.074 -0.0963  1.9041 -0.7691
 4522SOL    HW317861   5.473   0.726   5.998 -0.9447  2.8632 -1.8491
 4522SOL    MW417862   5.390   0.697   6.000  0.1195 -0.2988 -0.0270
 4523SOL     OW17863   3.375   5.335   1.152 -0.2065 -0.1889 -0.3413
 4523SOL    HW217864   3.331   5.354   1.235  1.2196 -0.0408  0.4211
 4523SOL    HW317865   3.316   5.276   1.106 -0.7916 -0.7145  1.0249
 4523SOL    MW417866   3.362   5.330   1.157  0.2177 -0.2651  0.4131
 4524SOL     OW17867   5.304   5.293   1.032 -0.0494 -1.0052  0.1422
 4524SOL    HW217868   5.281   5.384   1.049 -1.7595 -1.5644  1.0769
 4524SOL    HW317869   5.318   5.255   1.119  0.3850 -1.7066 -0.2222
 4524SOL    MW417870   5.303   5.300   1.046  0.2713  0.2232  0.0189
 4525SOL     OW17871   5.468   1.606   3.133  0.4138 -0.5858 -0.5376
 4525SOL    HW217872   5.461   1.668   3.061  0.9292 -0.4956 -0.5085
 4525SOL    HW317873   5.473   1.660   3.212  1.6480 -0.6397 -0.5691
 4525SOL    MW417874   5.467   1.621   3.134  0.2884 -0.4284  0.3700
 4526SOL     OW17875   2.760   5.639   0.390 -0.0679  0.1646  0.0222
 4526SOL    HW217876   2.714   5.660   0.309  0.2028  1.3155  0.1625
 4526SOL    HW317877   2.733   5.706   0.452 -0.3205 -0.7355  0.9234
 4526SOL    MW417878   2.750   5.650   0.388 -0.2042  0.5612 -0.1119
 4527SOL     OW17879   1.113   1.633   4.092  0.1430  0.1930  0.1227
 4527SOL    HW217880   1.179   1.677   4.038  0.1890 -0.3796 -0.2982
 4527SOL    HW317881   1.153   1.549   4.113 -0.4040 -0.1086 -0.0360
 4527SOL    MW417882   1.127   1.628   4.088 -0.0950  0.1935 -0.2921
 4528SOL     OW17883   0.409   5.451   4.675  0.3169  0.1261  0.0647
 4528SOL    HW217884   0.388   5.472   4.584  1.5652 -0.0350 -0.2797
 4528SOL    HW317885   0.324   5.435   4.716 -0.3603  1.4307 -0.7522
 4528SOL    MW417886   0.395   5.452   4.668  0.1842 -0.2643  0.3155
 4529SOL     OW17887   2.144   1.545   5.669  0.5914 -0.2290  0.0503
 4529SOL    HW217888   2.138   1.471   5.607  0.8932  0.8419 -1.3016
 4529SOL    HW317889   2.236   1.570   5.668  0.6610 -0.3875  1.2030
 4529SOL    MW417890   2.155   1.538   5.660 -0.1468  0.2275 -0.3946
 4530SOL     OW17891   2.643   2.430   3.531  0.1358  0.1629 -0.0014
 4530SOL    HW217892   2.703   2.357   3.548 -1.5171 -0.9404  1.5046
 4530SOL    HW317893   2.647   2.483   3.610 -2.0899 -0.9089  0.9282
 4530SOL    MW417894   2.652   2.427   3.544 -0.1286 -0.0659  0.0397
 4531SOL     OW17895   5.255   5.548   0.423 -0.2470 -0.0608 -0.1634
 4531SOL    HW217896   5.343   5.572   0.395 -1.3051  2.2065 -1.9360
 4531SOL    HW317897   5.244   5.592   0.507  0.3973 -0.5896  0.2022
 4531SOL    MW417898   5.265   5.557   0.430  0.0021  0.5838  0.0240
 4532SOL     OW17899   0.763   2.190   2.958 -0.5205  0.0655  0.3013
 4532SOL    HW217900   0.714   2.181   3.040 -0.6307  0.1268  0.2422
 4532SOL    HW317901   0.768   2.284   2.944 -0.2096  0.0671  0.4122
 4532SOL    MW417902   0.757   2.201   2.967 -0.0730 -0.0580  0.0626
 4533SOL     OW17903   2.429   6.090   5.581  0.4389  0.0395 -0.1498
 4533SOL    HW217904   2.415   6.005   5.622  2.2899 -0.0963  0.3060
 4533SOL    HW317905   2.398   6.153   5.646 -0.5023 -0.2615 -0.2949
 4533SOL    MW417906   2.423   6.087   5.595  0.3718  0.0864  0.2176
 4534SOL     OW17907   2.779   5.437   5.697 -0.1563 -0.2687 -0.1922
 4534SOL    HW217908   2.775   5.528   5.729 -1.5785 -0.6895  0.9530
 4534SOL    HW317909   2.852   5.398   5.746 -2.1596 -0.8402  2.6056
 4534SOL    MW417910   2.788   5.444   5.708 -0.8528 -0.6258  0.0463
 4535SOL     OW17911   4.913   1.657   5.410  0.2897 -0.3078  0.3352
 4535SOL    HW217912   4.845   1.716   5.378  0.1226 -0.7076 -0.0426
 4535SOL    HW317913   4.978   1.654   5.339 -0.2020 -1.3869 -0.0754
 4535SOL    MW417914   4.913   1.665   5.397 -0.0133  0.3531 -0.5461
 4536SOL     OW17915   1.700   2.393   0.867 -0.1825  0.6102  0.2591
 4536SOL    HW217916   1.686   2.455   0.795 -0.1794  0.3653  0.0471
 4536SOL    HW317917   1.766   2.435   0.922 -0.5599  1.0334  0.3982
 4536SOL    MW417918   1.707   2.407   0.865 -0.0982  0.0552  0.0230
 4537SOL     OW17919   0.958   2.860   4.452  0.1720  0.5907  0.0562
 4537SOL    HW217920   0.904   2.912   4.511  0.2873  1.5346 -0.6540
 4537SOL    HW317921   0.898   2.831   4.383  0.1070 -0.2348  0.4489
 4537SOL    MW417922   0.943   2.863   4.451  0.1843  0.2795 -0.6269
 4538SOL     OW17923   5.566   2.578   4.228  0.3174 -0.3957  0.2250
 4538SOL    HW217924   5.545   2.612   4.315 -1.9235 -1.0115 -0.0097
 4538SOL    HW317925   5.569   2.655   4.172 -1.2013 -0.2381  0.3290
 4538SOL    MW417926   5.564   2.592   4.232  0.0856  0.3326  0.0003
 4539SOL     OW17927   5.778   3.492   5.410 -0.4492 -0.0318 -0.1530
 4539SOL    HW217928   5.686   3.514   5.398 -0.5357 -0.5391 -0.4505
 4539SOL    HW317929   5.819   3.515   5.326 -0.2582  0.4099  0.0560
 4539SOL    MW417930   5.772   3.498   5.397 -0.5593 -0.9515  0.2710
 4540SOL     OW17931   5.694   3.252   1.980 -0.4270 -0.2831 -0.5731
 4540SOL    HW217932   5.612   3.254   1.930  0.7592 -0.0539 -2.6077
 4540SOL    HW317933   5.713   3.159   1.992 -0.9225 -0.3382 -0.1644
 4540SOL    MW417934   5.686   3.240   1.975 -0.2198 -0.0206 -0.0462
 4541SOL     OW17935   1.863   5.094   3.310  0.0903 -0.6519  0.3963
 4541SOL    HW217936   1.893   5.013   3.353 -1.4548 -1.1930  0.5271
 4541SOL    HW317937   1.771   5.101   3.335  0.2527  1.2819  0.5535
 4541SOL    MW417938   1.855   5.084   3.319 -0.2420 -0.4691  0.5917
 4542SOL     OW17939   2.734   0.590   2.111 -0.4137  0.0348  0.1294
 4542SOL    HW217940   2.774   0.673   2.134  0.3118 -0.0127 -0.8990
 4542SOL    HW317941   2.700   0.556   2.194 -1.5401  1.7547  0.4341
 4542SOL    MW417942   2.734   0.596   2.125  0.7456  0.2662 -0.1725
 4543SOL     OW17943   4.142   0.596   3.129  0.5925 -0.0759 -0.4337
 4543SOL    HW217944   4.057   0.630   3.100  0.5852 -0.1585 -0.5082
 4543SOL    HW317945   4.143   0.612   3.223  2.0236  3.3274 -0.8969
 4543SOL    MW417946   4.131   0.603   3.138 -0.1342 -0.9099  0.1594
 4544SOL     OW17947   1.225   1.930   5.796  0.2811 -0.4561 -0.1377
 4544SOL    HW217948   1.204   1.988   5.723 -0.4071 -0.8119 -0.2367
 4544SOL    HW317949   1.291   1.870   5.761  0.9576  0.2239 -0.0507
 4544SOL    MW417950   1.231   1.930   5.782  0.2958 -0.1075 -0.1852
 4545SOL     OW17951   1.227   4.536   1.660  0.2738 -0.5587  0.4751
 4545SOL    HW217952   1.193   4.450   1.637 -0.1949  0.1313 -1.6767
 4545SOL    HW317953   1.158   4.597   1.634  2.0187  0.6845 -1.6325
 4545SOL    MW417954   1.214   4.533   1.654 -0.5105  0.0158  0.2575
 4546SOL     OW17955   4.405   3.942   0.939 -0.5627 -0.1697 -0.4115
 4546SOL    HW217956   4.444   3.966   1.023 -1.4233 -1.8846  0.5523
 4546SOL    HW317957   4.318   3.980   0.941 -0.3366  0.3787 -0.8470
 4546SOL    MW417958   4.399   3.950   0.950  0.1284 -0.4843  0.2610
 4547SOL     OW17959   1.097   2.703   0.907 -0.0604  0.5963  0.0487
 4547SOL    HW217960   1.041   2.630   0.880  1.2426 -0.7405  0.8491
 4547SOL    HW317961   1.067   2.725   0.996  0.2452  0.3304  0.2170
 4547SOL    MW417962   1.085   2.696   0.915  0.4659  0.2909 -0.4878
 4548SOL     OW17963   0.890   4.572   5.682  0.1751 -0.6478 -0.1087
 4548SOL    HW217964   0.877   4.490   5.634 -1.1365 -0.1876 -0.6060
 4548SOL    HW317965   0.801   4.602   5.701  0.6241  0.7570 -0.1297
 4548SOL    MW417966   0.876   4.565   5.678  0.4817  0.4106 -0.5244
 4549SOL     OW17967   5.320   3.256   6.365 -0.3381  0.3636  0.0524
 4549SOL    HW217968   5.412   3.268   6.343 -0.6078  1.7418 -0.4263
 4549SOL    HW317969   5.317   3.266   6.460 -0.0371  0.6789  0.0308
 4549SOL    MW417970   5.332   3.259   6.375  0.2381 -0.8346 -0.0074
 4550SOL     OW17971   3.438   4.972   2.592 -0.2098  0.1944  0.1758
 4550SOL    HW217972   3.412   5.044   2.650  0.7158  1.6486 -1.1188
 4550SOL    HW317973   3.526   4.948   2.622 -0.1490  0.2421  0.0387
 4550SOL    MW417974   3.446   4.979   2.603  0.5511  0.8154 -0.4877
 4551SOL     OW17975   5.507   3.594   5.386 -0.4908  0.3920  0.0584
 4551SOL    HW217976   5.485   3.550   5.468 -3.6769 -0.2896 -1.0494
 4551SOL    HW317977   5.552   3.674   5.414  0.2143 -0.7048  2.3353
 4551SOL    MW417978   5.510   3.599   5.401 -0.1303  0.0076  0.4629
 4552SOL     OW17979   5.074   2.537   0.223  0.1579  0.1825 -0.0703
 4552SOL    HW217980   5.068   2.564   0.131  0.3795  2.1296  0.4322
 4552SOL    HW317981   5.166   2.515   0.235 -0.3679 -2.9540 -0.9827
 4552SOL    MW417982   5.085   2.538   0.212 -0.3945 -0.0930 -0.5189
 4553SOL     OW17983   4.811   1.515   4.854  0.8072 -0.1461  0.3909
 4553SOL    HW217984   4.749   1.448   4.883  0.7263 -1.0642 -1.7482
 4553SOL    HW317985   4.897   1.479   4.877  0.6943 -0.2174  0.7135
 4553SOL    MW417986   4.814   1.502   4.861 -0.5060 -0.7082 -0.0367
 4554SOL     OW17987   3.082   2.749   4.897 -0.4953 -0.3721  0.2891
 4554SOL    HW217988   3.176   2.746   4.882 -0.5893  0.6708 -0.6350
 4554SOL    HW317989   3.072   2.749   4.992  0.4099 -1.0163  0.3918
 4554SOL    MW417990   3.093   2.749   4.908  0.4022 -0.2890 -0.8077
 4555SOL     OW17991   1.066   3.996   0.287  0.0523 -0.1950  0.1524
 4555SOL    HW217992   1.042   3.904   0.296 -0.3775 -0.4177 -2.5960
 4555SOL    HW317993   1.026   4.038   0.363  0.9626 -2.3399  1.9494
 4555SOL    MW417994   1.058   3.989   0.298 -0.0988 -0.0693  0.3814
 4556SOL     OW17995   3.638   4.374   3.827 -0.4384 -0.5952  0.3744
 4556SOL    HW217996   3.693   4.400   3.901  0.5335 -1.3147 -0.0769
 4556SOL    HW317997   3.649   4.279   3.822 -0.0808 -0.5008 -1.0126
 4556SOL    MW417998   3.647   4.365   3.836 -0.2546 -0.0143  0.1132
 4557SOL     OW17999   3.320   2.044   2.047 -0.2800  0.2316  0.2670
 4557SOL    HW218000   3.338   2.084   1.962  1.2258 -0.9189  0.0091
 4557SOL    HW318001   3.407   2.023   2.083 -0.9465 -0.6929  1.4126
 4557SOL    MW418002   3.334   2.047   2.041  0.6266 -0.8594  0.7194
 4558SOL     OW18003   5.859   5.819   5.083 -0.5372 -0.0421  0.1731
 4558SOL    HW218004   5.850   5.793   4.991 -0.8124  2.1676 -0.4865
 4558SOL    HW318005   5.868   5.736   5.130  1.0207 -1.2038 -1.9629
 4558SOL    MW418006   5.859   5.804   5.077 -0.6384 -0.5780  0.3842
 4559SOL     OW18007   1.598   1.362   2.247  0.1225  0.1092  0.3102
 4559SOL    HW218008   1.520   1.418   2.252 -0.3616 -0.2682 -2.0055
 4559SOL    HW318009   1.606   1.325   2.335 -0.8829  2.0292  1.2618
 4559SOL    MW418010   1.589   1.364   2.259 -0.1421  0.1628 -0.4786
 4560SOL     OW18011   2.768   5.217   5.314  0.1941 -0.2381  0.7663
 4560SOL    HW218012   2.849   5.167   5.309 -1.6412 -3.3492 -0.6107
 4560SOL    HW318013   2.722   5.181   5.390 -1.1172 -0.6023 -0.1658
 4560SOL    MW418014   2.773   5.206   5.323 -0.1335 -0.4909  0.6354
 4561SOL     OW18015   3.375   3.901   2.223  0.0986 -0.0176 -0.3324
 4561SOL    HW218016   3.313   3.935   2.288 -0.6835  4.4280 -2.9290
 4561SOL    HW318017   3.461   3.926   2.257  0.1912 -1.9749  1.0518
 4561SOL    MW418018   3.378   3.909   2.236 -0.3084 -0.3713 -0.3755
 4562SOL     OW18019   4.066   3.525   1.969  0.7794 -0.3178  0.1809
 4562SOL    HW218020   3.987   3.571   1.998  0.7856  0.3501 -0.8240
 4562SOL    HW318021   4.046   3.433   1.981  0.2547 -0.1177  0.9431
 4562SOL    MW418022   4.053   3.519   1.975  0.3352 -0.1280  0.1341
 4563SOL     OW18023   5.083   5.346   3.125 -0.3726 -0.0034  0.2669
 4563SOL    HW218024   5.027   5.371   3.052 -0.7642  1.0030  0.9060
 4563SOL    HW318025   5.106   5.428   3.168  1.6746 -0.3751 -0.0215
 4563SOL    MW418026   5.079   5.360   3.121  0.1071  0.1174 -1.0101
 4564SOL     OW18027   0.190   4.492   4.866 -0.0031 -0.3862 -0.4724
 4564SOL    HW218028   0.209   4.561   4.802 -0.5830 -0.2426 -0.4973
 4564SOL    HW318029   0.274   4.474   4.908  0.1572  0.3287 -0.4752
 4564SOL    MW418030   0.204   4.499   4.863 -0.0991  0.0077 -0.4697
 4565SOL     OW18031   4.168   3.291   4.376  0.0742  0.2017 -0.2890
 4565SOL    HW218032   4.126   3.236   4.309 -1.7425  0.2671  0.7384
 4565SOL    HW318033   4.184   3.231   4.449 -0.9540  0.7958  0.4404
 4565SOL    MW418034   4.165   3.276   4.376 -0.5272 -0.0812 -0.1006
 4566SOL     OW18035   5.875   2.210   3.949 -0.0870 -0.4010 -0.3718
 4566SOL    HW218036   5.920   2.133   3.985 -0.1559 -1.5526 -2.5804
 4566SOL    HW318037   5.937   2.281   3.959  0.7493 -1.1655 -0.0154
 4566SOL    MW418038   5.889   2.209   3.955 -0.4821 -0.3011  0.1264
 4567SOL     OW18039   5.183   1.026   3.324 -0.2544 -0.3009  0.0601
 4567SOL    HW218040   5.273   1.047   3.347 -0.9903  2.5555  0.7299
 4567SOL    HW318041   5.167   0.940   3.363  1.6995 -0.1742  1.2493
 4567SOL    MW418042   5.193   1.017   3.332  0.0804  0.1847 -0.2020
 4568SOL     OW18043   3.281   5.942   3.959 -0.1768  0.4477 -0.3681
 4568SOL    HW218044   3.216   5.999   3.999 -1.0751 -0.2931 -0.7371
 4568SOL    HW318045   3.235   5.860   3.943  1.5717 -1.0573  1.8061
 4568SOL    MW418046   3.266   5.939   3.962  0.5168 -0.0958  0.0700
 4569SOL     OW18047   0.399   2.314   2.811 -0.4898  0.4086 -0.1361
 4569SOL    HW218048   0.365   2.376   2.747  2.0922  3.0960  0.8653
 4569SOL    HW318049   0.441   2.246   2.759 -0.5495  1.2356 -1.3017
 4569SOL    MW418050   0.400   2.313   2.796 -0.1112 -0.0748  0.3095
 4570SOL     OW18051   5.640   0.604   6.301  0.4180  0.6362 -0.3239
 4570SOL    HW218052   5.695   0.677   6.272 -0.6865  2.2407  1.4068
 4570SOL    HW318053   5.551   0.630   6.280 -0.0033 -0.2602  0.2557
 4570SOL    MW418054   5.636   0.617   6.294 -0.3641  0.1991 -0.0217
 4571SOL     OW18055   4.796   4.168   2.177 -0.6298  0.4477 -0.3376
 4571SOL    HW218056   4.711   4.198   2.144 -1.2646 -0.2719  0.5653
 4571SOL    HW318057   4.796   4.073   2.161 -1.6648 -0.2511  3.0115
 4571SOL    MW418058   4.785   4.159   2.171 -0.5605 -0.0868 -0.3556
 4572SOL     OW18059   2.028   6.358   4.420 -0.0837 -0.5086 -0.5482
 4572SOL    HW218060   2.114   6.362   4.461 -0.3514  0.8003 -0.0555
 4572SOL    HW318061   2.026   6.432   4.359 -1.1768  0.0456  0.1244
 4572SOL    MW418062   2.039   6.368   4.417  0.0837  0.2991 -0.1972
 4573SOL     OW18063   3.808   0.483   5.215  0.6905 -0.1647 -0.2276
 4573SOL    HW218064   3.853   0.562   5.245 -0.4085  0.4616 -0.1508
 4573SOL    HW318065   3.792   0.433   5.295  2.0148 -0.8269 -0.3558
 4573SOL    MW418066   3.812   0.487   5.230 -0.1852 -0.2900 -0.0470
 4574SOL     OW18067   4.366   1.666   6.235  0.0459  0.1861 -0.2894
 4574SOL    HW218068   4.409   1.622   6.161  0.2668  0.3908 -0.2846
 4574SOL    HW318069   4.427   1.654   6.308  0.1937  0.6560 -0.3321
 4574SOL    MW418070   4.380   1.658   6.235  0.3584  0.2459 -0.0841
 4575SOL     OW18071   1.264   3.237   3.924  0.5128 -0.4323  0.0682
 4575SOL    HW218072   1.227   3.315   3.965 -0.9106 -0.5303 -0.9666
 4575SOL    HW318073   1.278   3.262   3.833  0.4890 -1.2371 -0.1604
 4575SOL    MW418074   1.261   3.251   3.917  0.2431  0.2998 -0.2694
 4576SOL     OW18075   1.030   3.865   2.257 -0.0029 -0.1920  0.8190
 4576SOL    HW218076   1.037   3.782   2.211  2.1448 -0.7827  2.0299
 4576SOL    HW318077   0.989   3.843   2.341 -1.1883  0.3474  0.4040
 4576SOL    MW418078   1.026   3.851   2.262 -0.1699 -0.4906 -0.0659
 4577SOL     OW18079   6.261   1.212   4.005  0.1913 -0.7166 -0.0633
 4577SOL    HW218080   6.304   1.242   4.085 -1.5851 -1.2978  1.1862
 4577SOL    HW318081   6.313   1.137   3.976  0.5128 -0.8800  0.9026
 4577SOL    MW418082   6.273   1.206   4.012  0.0671 -0.2838  0.1254
 4578SOL     OW18083   4.991   4.973   3.552 -0.3715  0.4749  0.1421
 4578SOL    HW218084   4.914   5.009   3.597 -1.0885  0.3431 -0.9114
 4578SOL    HW318085   4.971   4.987   3.459 -0.5170 -2.2632 -0.3166
 4578SOL    MW418086   4.978   4.979   3.545 -0.2979  0.1182  0.8129
 4579SOL     OW18087   3.268   4.857  -0.028 -0.1488  0.3266 -0.1609
 4579SOL    HW218088   3.331   4.802   0.020 -1.0736 -0.8049 -0.2115
 4579SOL    HW318089   3.287   4.946   0.003  0.8925 -0.0891  0.4773
 4579SOL    MW418090   3.279   4.861  -0.018  0.0521  0.4651 -0.0341
 4580SOL     OW18091   6.279   0.853   0.425 -0.0356  0.3770 -0.1661
 4580SOL    HW218092   6.264   0.946   0.440  0.7155  0.5003 -0.0993
 4580SOL    HW318093   6.356   0.850   0.368  2.4541 -0.2351  2.9281
 4580SOL    MW418094   6.288   0.865   0.419 -0.6455  0.8589  0.4525
 4581SOL     OW18095   2.167   3.980   0.564 -0.2047  0.1202  0.2098
 4581SOL    HW218096   2.097   3.954   0.504  0.0005 -2.0374  0.8260
 4581SOL    HW318097   2.124   4.040   0.625 -1.3122 -0.4619  0.0416
 4581SOL    MW418098   2.152   3.985   0.564  0.4002  0.0613 -0.2172
 4582SOL     OW18099   2.800   6.375   6.167  0.0490  0.6547 -0.4324
 4582SOL    HW218100   2.841   6.299   6.209 -0.2677  1.2211  0.9717
 4582SOL    HW318101   2.873   6.429   6.139  0.2726  0.1141 -0.9079
 4582SOL    MW418102   2.815   6.372   6.169 -0.0657  0.7075 -0.2756
 4583SOL     OW18103   2.558   3.393   2.582  0.2520  0.0751  0.2813
 4583SOL    HW218104   2.522   3.307   2.559 -0.9500  1.2260 -2.6219
 4583SOL    HW318105   2.483   3.442   2.616  0.4727  0.6037  0.0140
 4583SOL    MW418106   2.543   3.388   2.583  0.1395 -0.1774 -0.2427
 4584SOL     OW18107   3.276   1.443   0.364  0.1983 -0.3507 -0.5744
 4584SOL    HW218108   3.340   1.483   0.305  0.1320 -0.4258 -0.6967
 4584SOL    HW318109   3.328   1.382   0.417  0.3197 -0.0158 -0.3057
 4584SOL    MW418110   3.291   1.440   0.363  0.7326  0.2644 -0.5465
 4585SOL     OW18111   3.530   5.355   0.909  0.0967 -0.7144 -0.5300
 4585SOL    HW218112   3.486   5.370   0.993  1.6559  0.4889  0.1438
 4585SOL    HW318113   3.614   5.316   0.934  0.6279 -0.2329 -1.5278
 4585SOL    MW418114   3.536   5.351   0.923 -0.2426 -0.2618 -0.4569
 4586SOL     OW18115   3.575   6.112   0.905 -0.2929  0.2566  0.0709
 4586SOL    HW218116   3.573   6.180   0.838  1.0706  0.8802  0.6248
 4586SOL    HW318117   3.568   6.159   0.988 -1.2225 -0.4433  0.4034
 4586SOL    MW418118   3.574   6.127   0.907  0.1075 -0.5960 -0.7437
 4587SOL     OW18119   5.630   5.294   4.572  0.1822  0.4436  0.0340
 4587SOL    HW218120   5.599   5.205   4.553  1.9587 -0.2056 -0.0857
 4587SOL    HW318121   5.610   5.307   4.664  1.2642 -0.7200  0.4717
 4587SOL    MW418122   5.623   5.284   4.582  0.0871  0.3731 -0.0548
 4588SOL     OW18123   0.080   4.092   0.154 -0.4676 -0.0229  0.4196
 4588SOL    HW218124  -0.003   4.046   0.145 -0.2685 -1.0077  2.8515
 4588SOL    HW318125   0.138   4.051   0.090 -0.9731 -1.5392  0.8984
 4588SOL    MW418126   0.077   4.081   0.144  0.1373  0.2088 -0.1328
 4589SOL     OW18127   5.321   1.470   6.096  0.0398 -0.4106  0.0534
 4589SOL    HW218128   5.373   1.546   6.070  0.0831 -0.5233 -0.1897
 4589SOL    HW318129   5.231   1.494   6.074 -0.1328  0.1332  1.2654
 4589SOL    MW418130   5.316   1.483   6.090 -0.6994  0.0589  0.9111
 4590SOL     OW18131   4.707   2.099   5.214  0.6380  0.1399  0.0183
 4590SOL    HW218132   4.772   2.152   5.260 -0.8117  0.4053  1.8877
 4590SOL    HW318133   4.628   2.105   5.268 -1.3807  0.8594 -2.7400
 4590SOL    MW418134   4.705   2.107   5.227  0.3599 -0.2122  0.7831
 4591SOL     OW18135   1.419   3.264   5.797 -0.9925 -0.3900 -0.0244
 4591SOL    HW218136   1.443   3.330   5.732 -2.1677 -0.3640 -0.4412
 4591SOL    HW318137   1.503   3.230   5.828 -0.4073 -0.0165 -1.1456
 4591SOL    MW418138   1.434   3.268   5.793 -0.7102 -0.5079 -0.7238
 4592SOL     OW18139   5.220   0.205   1.370 -0.2216 -0.0276 -0.3279
 4592SOL    HW218140   5.292   0.148   1.344  0.0143  0.0904  0.0494
 4592SOL    HW318141   5.210   0.267   1.298 -0.8394 -0.8707 -0.9875
 4592SOL    MW418142   5.228   0.206   1.357 -0.3941 -0.2404 -0.1323
 4593SOL     OW18143   0.268   4.318   6.292  0.1434  0.0244 -0.0235
 4593SOL    HW218144   0.182   4.358   6.284  0.4462  0.8284  0.6235
 4593SOL    HW318145   0.285   4.279   6.206 -0.4032  0.7976 -0.4907
 4593SOL    MW418146   0.259   4.318   6.280  0.0233  0.5916  0.3368
 4594SOL     OW18147   0.222   0.364   3.936  0.0452  0.5174 -0.0773
 4594SOL    HW218148   0.299   0.313   3.962  0.4225  1.3630  0.5195
 4594SOL    HW318149   0.258   0.446   3.901 -0.5758  0.7907 -0.0884
 4594SOL    MW418150   0.237   0.368   3.935 -0.7317  0.1565 -0.1679
 4595SOL     OW18151   0.445   4.903   3.123  0.2786  0.2356  0.0873
 4595SOL    HW218152   0.495   4.891   3.203 -0.0423 -0.7100  0.1703
 4595SOL    HW318153   0.507   4.939   3.060  0.3168  1.8431  0.9903
 4595SOL    MW418154   0.459   4.906   3.125 -0.2801 -0.1453 -0.2824
 4596SOL     OW18155   2.696   1.000   0.725 -0.3710  0.2238  0.0776
 4596SOL    HW218156   2.640   1.027   0.798 -0.4511  0.6016 -0.1151
 4596SOL    HW318157   2.635   0.987   0.652 -0.1259  1.6647 -0.4231
 4596SOL    MW418158   2.680   1.002   0.725  0.1267 -0.3827  0.4959
 4597SOL     OW18159   2.941   0.066   0.323 -0.1773 -0.0148  0.2102
 4597SOL    HW218160   3.011   0.017   0.366  0.4146  1.5818  1.1204
 4597SOL    HW318161   2.953   0.047   0.230  0.9975 -0.3820  0.4171
 4597SOL    MW418162   2.952   0.057   0.316  0.1986  0.2317 -0.1478
 4598SOL     OW18163   3.474   6.081   3.134 -0.4778 -0.0046  0.9735
 4598SOL    HW218164   3.440   6.006   3.182 -0.2623 -0.5895  0.2275
 4598SOL    HW318165   3.467   6.154   3.196 -0.8173 -0.6040  1.6580
 4598SOL    MW418166   3.469   6.081   3.148  0.0275  0.3165  0.6357
 4599SOL     OW18167   3.759   6.399   5.388  0.4354 -0.1192  0.3550
 4599SOL    HW218168   3.681   6.361   5.349 -0.0872  0.3566  0.9104
 4599SOL    HW318169   3.737   6.491   5.400  0.7027 -0.1826  1.4447
 4599SOL    MW418170   3.746   6.406   5.385 -0.4662  0.3424  0.0447
 4600SOL     OW18171   2.101   4.877   3.991 -0.2704  0.0825 -0.2301
 4600SOL    HW218172   2.174   4.902   4.047  0.0678  0.0041 -0.6297
 4600SOL    HW318173   2.046   4.955   3.986  1.0311  0.9633 -1.8719
 4600SOL    MW418174   2.103   4.891   3.997  0.5391 -0.0983  0.3748
 4601SOL     OW18175   1.101   3.595   1.803  0.2554 -0.5404 -0.0847
 4601SOL    HW218176   1.044   3.670   1.788  0.7994 -0.7496 -4.4217
 4601SOL    HW318177   1.175   3.630   1.852 -0.1878  1.4628 -0.7750
 4601SOL    MW418178   1.103   3.609   1.807  0.1883 -0.3911 -0.0514
 4602SOL     OW18179   3.080   1.605   4.100  0.4622  0.3766 -0.2486
 4602SOL    HW218180   3.142   1.541   4.064  0.1021  0.5862 -1.2790
 4602SOL    HW318181   3.039   1.644   4.023 -0.1179  1.0664  0.3990
 4602SOL    MW418182   3.082   1.602   4.085 -0.0050  0.0860  0.0491
 4603SOL     OW18183   5.499   1.465   4.236  0.1070 -0.5568 -0.2888
 4603SOL    HW218184   5.495   1.503   4.324  1.7941  3.8041 -1.8660
 4603SOL    HW318185   5.588   1.431   4.229 -0.1333 -1.2108 -0.2350
 4603SOL    MW418186   5.510   1.465   4.247 -0.2917  0.5486 -0.0974
 4604SOL     OW18187   5.827   2.726   2.197 -0.4732 -0.2152  0.0574
 4604SOL    HW218188   5.831   2.814   2.234  0.5911  0.1028 -0.7716
 4604SOL    HW318189   5.765   2.733   2.125  0.3285  0.1077 -0.6165
 4604SOL    MW418190   5.819   2.738   2.193 -0.3623  0.1271  0.0093
 4605SOL     OW18191   2.102   0.871   5.141  0.9520 -0.0880  0.1819
 4605SOL    HW218192   2.038   0.802   5.158  2.7371 -1.0913  4.2132
 4605SOL    HW318193   2.058   0.951   5.169  0.2412 -0.1679 -0.6621
 4605SOL    MW418194   2.088   0.872   5.147 -0.2460  0.1020 -0.2608
 4606SOL     OW18195   1.201   5.823   0.167  0.5184 -0.0100 -0.0131
 4606SOL    HW218196   1.281   5.865   0.197  0.3019  0.6070 -0.2906
 4606SOL    HW318197   1.175   5.872   0.089  0.7992 -1.2684 -0.9418
 4606SOL    MW418198   1.208   5.835   0.161 -0.3637 -0.5417 -0.0405
 4607SOL     OW18199   3.783   0.856   3.485 -0.0869 -0.2272  0.4776
 4607SOL    HW218200   3.849   0.907   3.440  0.7668  0.7379  2.6715
 4607SOL    HW318201   3.723   0.921   3.522 -0.8160 -0.9708  0.6483
 4607SOL    MW418202   3.784   0.871   3.484 -0.0563  0.0434 -0.3486
 4608SOL     OW18203   1.921   1.967   2.946 -0.3742  0.1217 -0.0075
 4608SOL    HW218204   1.859   1.969   2.873  0.3289  1.7758 -0.6053
 4608SOL    HW318205   1.902   1.885   2.991 -3.6330  0.9731  0.4116
 4608SOL    MW418206   1.911   1.956   2.942 -1.0122 -0.6869  0.4206
 4609SOL     OW18207   0.378   5.005   3.501  0.1758 -0.4177  0.2150
 4609SOL    HW218208   0.411   5.026   3.589  0.0514 -0.3955  0.2565
 4609SOL    HW318209   0.443   4.944   3.466 -0.4527 -1.4767  0.8317
 4609SOL    MW418210   0.391   5.000   3.508  0.5250  0.5794  0.0740
 4610SOL     OW18211   6.260   3.016   1.343  0.3272  0.1008 -0.1509
 4610SOL    HW218212   6.293   3.089   1.290 -0.5698  1.5229  1.1975
 4610SOL    HW318213   6.166   3.012   1.323  0.1935 -0.0828  0.5094
 4610SOL    MW418214   6.252   3.025   1.333 -0.1291  0.1042  0.2591
 4611SOL     OW18215   6.068   2.416   5.622  0.4012  0.2998 -0.5575
 4611SOL    HW218216   5.998   2.439   5.683  0.9145 -0.3711  0.3140
 4611SOL    HW318217   6.135   2.484   5.636  0.8885 -0.3256  0.2821
 4611SOL    MW418218   6.068   2.428   5.632 -0.2084  0.7540  0.0936
 4612SOL     OW18219   0.359   2.733   2.329 -0.2662 -0.1690 -0.1643
 4612SOL    HW218220   0.435   2.764   2.279 -1.2882  0.2530 -1.5215
 4612SOL    HW318221   0.313   2.813   2.355 -0.5623 -0.4349  0.1371
 4612SOL    MW418222   0.363   2.748   2.326  0.2334  0.2385  0.1153
 4613SOL     OW18223   2.918   0.298   3.071  0.5067  0.4983 -0.0134
 4613SOL    HW218224   2.824   0.305   3.090  0.8087 -1.2801  2.5457
 4613SOL    HW318225   2.954   0.382   3.100 -0.0927  0.6180  0.4161
 4613SOL    MW418226   2.910   0.310   3.077  0.2302  0.6198 -0.6492
 4614SOL     OW18227   4.477   2.177   2.463 -0.3352  0.0491 -0.1148
 4614SOL    HW218228   4.485   2.256   2.410 -1.3472  0.2860  0.0684
 4614SOL    HW318229   4.562   2.170   2.508 -0.7916  1.9882  1.1612
 4614SOL    MW418230   4.489   2.187   2.462 -0.6627 -0.2021  0.0871
 4615SOL     OW18231   5.468   3.999   1.831  0.1826  0.1284  0.3643
 4615SOL    HW218232   5.470   4.026   1.739  0.3377 -0.3067  0.2370
 4615SOL    HW318233   5.552   4.029   1.867  1.0706 -1.5490 -0.1827
 4615SOL    MW418234   5.480   4.007   1.824  0.6868 -0.1612 -0.1040
 4616SOL     OW18235   5.415   4.986   4.764 -0.1864 -0.3430  0.3053
 4616SOL    HW218236   5.350   4.918   4.779  0.6920 -1.2477  0.0991
 4616SOL    HW318237   5.417   4.997   4.669  1.3778 -1.7925  0.1141
 4616SOL    MW418238   5.407   4.979   4.753 -0.8539  0.0087 -0.0342
 4617SOL     OW18239   4.778   2.569   6.011 -0.2499  0.1738 -0.6719
 4617SOL    HW218240   4.787   2.630   5.938 -1.6225  0.4965 -0.6062
 4617SOL    HW318241   4.686   2.544   6.011  0.3421 -2.2847 -0.9511
 4617SOL    MW418242   4.767   2.574   6.002 -0.1539  0.7594  0.0439
 4618SOL     OW18243   3.581   0.834   3.089 -0.0716 -0.1611  0.7584
 4618SOL    HW218244   3.524   0.776   3.038  2.1235 -0.9125 -1.0182
 4618SOL    HW318245   3.609   0.901   3.026  0.8881  0.2610  1.6055
 4618SOL    MW418246   3.577   0.835   3.074  0.2977 -0.1631  0.2780
 4619SOL     OW18247   4.086   0.040   2.281 -0.3471  0.4038 -0.1977
 4619SOL    HW218248   4.115  -0.013   2.355 -1.8701 -1.8328 -1.0898
 4619SOL    HW318249   4.167   0.075   2.243  0.5642  0.1988  1.4770
 4619SOL    MW418250   4.101   0.038   2.285 -0.1884  0.2007 -0.3051
 4620SOL     OW18251   1.870   4.117   1.155 -0.3656 -0.1043 -0.3296
 4620SOL    HW218252   1.849   4.047   1.216  0.0329  0.9271  1.0429
 4620SOL    HW318253   1.801   4.112   1.089 -2.1633  0.1398  1.4216
 4620SOL    MW418254   1.858   4.107   1.154 -0.5042 -0.1688  0.5096
 4621SOL     OW18255   5.122   3.648   2.385 -0.0074  0.4655  0.2178
 4621SOL    HW218256   5.180   3.614   2.453 -1.8143 -0.2305  1.4888
 4621SOL    HW318257   5.157   3.735   2.365  0.9630  0.4196  1.5661
 4621SOL    MW418258   5.134   3.655   2.392  0.2786 -0.1176 -0.3211
 4622SOL     OW18259   2.871   2.016   0.959 -0.5173  0.5717 -0.0749
 4622SOL    HW218260   2.920   2.095   0.937  0.1715  0.1462 -0.1087
 4622SOL    HW318261   2.862   2.018   1.054  0.6707  0.0320  0.0655
 4622SOL    MW418262   2.876   2.026   0.968 -0.6263  0.4131  0.5897
 4623SOL     OW18263   3.989   6.004   4.971  0.1992 -0.5482  0.3590
 4623SOL    HW218264   4.048   6.079   4.974  0.2588 -0.4944 -1.2463
 4623SOL    HW318265   3.970   5.993   4.878 -0.6631 -1.8613  0.6731
 4623SOL    MW418266   3.995   6.012   4.959 -0.1989 -0.4591  0.0941
 4624SOL     OW18267   4.585   4.926   1.974 -0.4913  0.4632  0.3308
 4624SOL    HW218268   4.588   4.842   2.021 -0.5391  0.5319  0.4587
 4624SOL    HW318269   4.561   4.902   1.885 -2.9434  0.5142  0.8804
 4624SOL    MW418270   4.582   4.912   1.969 -0.0081  0.3746 -0.3837
 4625SOL     OW18271   5.453   3.868   0.224 -0.1949  0.0639  0.1105
 4625SOL    HW218272   5.547   3.877   0.238 -0.4360 -0.1386  2.2252
 4625SOL    HW318273   5.441   3.777   0.200  0.0878 -0.1143  0.6218
 4625SOL    MW418274   5.464   3.857   0.223  0.2277  0.1014  0.1675
 4626SOL     OW18275   4.622   4.922   2.536 -0.4943 -0.2638 -0.0532
 4626SOL    HW218276   4.590   4.990   2.476 -0.4759 -1.1813 -1.1291
 4626SOL    HW318277   4.549   4.860   2.543  0.8984 -2.3925 -2.5355
 4626SOL    MW418278   4.608   4.923   2.529  0.3758  0.5342 -0.3077
 4627SOL     OW18279   2.605   2.743   2.608 -0.0608  0.3266 -0.0456
 4627SOL    HW218280   2.671   2.751   2.540  0.3917 -1.8285  0.0707
 4627SOL    HW318281   2.637   2.672   2.665 -1.8017  0.1385  0.7785
 4627SOL    MW418282   2.618   2.734   2.607 -0.7080 -0.3338 -0.5119
 4628SOL     OW18283   0.234   4.887   5.257 -0.5335 -0.0037  0.1132
 4628SOL    HW218284   0.281   4.812   5.292 -0.4892  0.5940  1.4013
 4628SOL    HW318285   0.210   4.862   5.168 -0.5167 -1.5343  0.5199
 4628SOL    MW418286   0.237   4.874   5.250  0.5006  0.2185  0.3128
 4629SOL     OW18287   2.869   5.678   2.245  0.3423  0.2285  0.2983
 4629SOL    HW218288   2.916   5.662   2.163  0.5553 -0.2472  0.5090
 4629SOL    HW318289   2.815   5.755   2.228  0.6572  0.3432 -0.1750
 4629SOL    MW418290   2.868   5.686   2.232 -0.1140 -0.2484  0.4585
 4630SOL     OW18291   1.629   1.760   0.185 -0.4230 -0.0558 -0.5335
 4630SOL    HW218292   1.681   1.806   0.119 -0.5567 -0.0820 -0.6602
 4630SOL    HW318293   1.599   1.681   0.140 -0.9631  0.1899 -0.6175
 4630SOL    MW418294   1.632   1.756   0.170 -0.0989 -0.3758  0.1565
 4631SOL     OW18295   4.768   1.210   5.203  0.5245 -0.2286 -0.2371
 4631SOL    HW218296   4.773   1.306   5.194  1.4470 -0.3283 -0.9285
 4631SOL    HW318297   4.859   1.182   5.206  0.3069 -0.9048  2.3594
 4631SOL    MW418298   4.780   1.219   5.202 -0.4121  0.0380  0.0301
 4632SOL     OW18299   1.400   4.990   5.674 -0.1657 -0.3486 -0.2667
 4632SOL    HW218300   1.485   4.953   5.653  0.3734  1.2029 -0.9755
 4632SOL    HW318301   1.378   5.046   5.599 -2.5504 -1.8830 -0.8221
 4632SOL    MW418302   1.408   4.993   5.662 -0.1729 -0.1220  0.5814
 4633SOL     OW18303   0.063   2.691   4.247 -0.2837 -0.3326 -0.1205
 4633SOL    HW218304   0.158   2.695   4.235 -0.1506 -1.5886  0.3148
 4633SOL    HW318305   0.032   2.780   4.229  0.7558 -0.3098 -2.1186
 4633SOL    MW418306   0.072   2.703   4.243  0.5201  0.2552 -0.1818
 4634SOL     OW18307   1.964   3.920   4.274  0.1863  0.1272 -0.2370
 4634SOL    HW218308   2.030   3.984   4.248  1.2826 -0.1070  1.7971
 4634SOL    HW318309   1.979   3.906   4.367 -0.1427 -2.9471 -0.5492
 4634SOL    MW418310   1.975   3.927   4.283 -0.3055 -0.7605 -0.1796
 4635SOL     OW18311   0.304   5.072   6.305  0.1351  0.5109 -0.8183
 4635SOL    HW218312   0.343   5.138   6.249  1.2632 -1.3083 -2.2970
 4635SOL    HW318313   0.302   4.992   6.252 -0.1044 -0.9601  1.2367
 4635SOL    MW418314   0.309   5.070   6.291  0.5505 -0.0353  0.3878
 4636SOL     OW18315   3.789   5.900   1.475 -0.3175 -0.5057  0.2669
 4636SOL    HW218316   3.845   5.853   1.413 -1.1762 -1.9790  0.5814
 4636SOL    HW318317   3.850   5.939   1.538  0.3687 -2.5252  0.9224
 4636SOL    MW418318   3.804   5.899   1.475  0.1106  0.1430 -0.3415
 4637SOL     OW18319   5.926   1.092   5.154 -0.1888  0.2493  0.8089
 4637SOL    HW218320   5.839   1.130   5.145 -0.4080  0.1641  2.3933
 4637SOL    HW318321   5.914   1.013   5.207  0.7804 -0.0389  0.6375
 4637SOL    MW418322   5.913   1.086   5.160 -0.1118 -0.3447 -0.2032
 4638SOL     OW18323   0.650   1.841   3.158 -0.1202 -0.2715  0.1735
 4638SOL    HW218324   0.663   1.936   3.160  0.2885 -0.2996 -0.4898
 4638SOL    HW318325   0.676   1.811   3.245 -0.9057  0.2974  0.6100
 4638SOL    MW418326   0.655   1.849   3.169 -0.2622 -0.1331  0.1013
 4639SOL     OW18327   1.455   5.363   5.498 -0.3330 -0.3947 -0.1390
 4639SOL    HW218328   1.372   5.409   5.512  0.9833  2.7927 -1.5620
 4639SOL    HW318329   1.492   5.354   5.585 -1.7327 -1.0203  0.4229
 4639SOL    MW418330   1.449   5.368   5.511  0.2036 -0.7190  0.4335
 4640SOL     OW18331   4.957   2.233   5.295  0.4502  0.0915 -0.3901
 4640SOL    HW218332   5.028   2.175   5.268 -1.1018 -2.0697 -0.0721
 4640SOL    HW318333   4.972   2.249   5.388  0.6969 -0.0775 -0.4003
 4640SOL    MW418334   4.968   2.228   5.303 -0.7820  0.4289  0.2620
 4641SOL     OW18335   3.316   1.397   6.106  0.3935  0.2213 -0.1850
 4641SOL    HW218336   3.368   1.461   6.057  0.7014 -0.0286 -0.1928
 4641SOL    HW318337   3.305   1.436   6.192  1.0370  0.0565 -0.0190
 4641SOL    MW418338   3.321   1.410   6.111  0.0158 -0.1555  0.7360
 4642SOL     OW18339   5.214   0.093   3.224 -0.4302 -0.4223 -0.3356
 4642SOL    HW218340   5.187   0.156   3.290 -0.8638 -0.1526 -0.7661
 4642SOL    HW318341   5.295   0.129   3.187 -1.0098  0.2161 -1.0204
 4642SOL    MW418342   5.221   0.106   3.227  0.0305 -0.6933 -0.6695
 4643SOL     OW18343   4.247   1.065   3.641 -0.5680 -0.6043  0.5672
 4643SOL    HW218344   4.302   0.998   3.601  0.6061  0.9907 -0.5718
 4643SOL    HW318345   4.182   1.015   3.691  0.7305 -2.5693  0.4089
 4643SOL    MW418346   4.245   1.050   3.643 -0.2884  1.0386 -0.0667
 4644SOL     OW18347   0.350   6.157   0.737  0.3355  0.7585 -0.3687
 4644SOL    HW218348   0.442   6.184   0.727 -0.0286  2.1132 -0.3116
 4644SOL    HW318349   0.301   6.225   0.690 -0.7351  0.9912  1.0257
 4644SOL    MW418350   0.356   6.170   0.729  0.1218  0.0165 -0.4186
 4645SOL     OW18351   2.254   2.114   3.711  0.0116  0.1668 -0.3311
 4645SOL    HW218352   2.321   2.095   3.776  2.3144 -1.3488 -2.9310
 4645SOL    HW318353   2.265   2.207   3.692 -0.4529  0.5424  1.1020
 4645SOL    MW418354   2.265   2.124   3.717  0.6720  0.0301 -0.2689
 4646SOL     OW18355   4.388   0.236   2.759 -0.6588 -0.3787  0.4638
 4646SOL    HW218356   4.468   0.184   2.750  2.0410  3.4282  0.3597
 4646SOL    HW318357   4.361   0.223   2.850  0.2974 -1.4031  0.6255
 4646SOL    MW418358   4.395   0.227   2.769 -0.0809  0.2174 -0.2558
 4647SOL     OW18359   5.187   0.845   1.632  0.0380  0.1951  0.0908
 4647SOL    HW218360   5.107   0.824   1.585  0.2144 -0.1490 -0.0667
 4647SOL    HW318361   5.257   0.823   1.571  0.2374  1.2492 -0.0687
 4647SOL    MW418362   5.186   0.839   1.618 -0.1345 -0.4162 -0.3966
 4648SOL     OW18363   5.641   4.743   0.284  0.4282 -0.2712 -0.2591
 4648SOL    HW218364   5.671   4.682   0.217 -0.4877 -1.7816  0.6731
 4648SOL    HW318365   5.572   4.697   0.330 -0.0442  1.3441  0.7232
 4648SOL    MW418366   5.636   4.729   0.281 -0.4463  0.2218 -0.5148
 4649SOL     OW18367   5.969   5.078   3.993 -0.6665 -0.6180  0.2409
 4649SOL    HW218368   5.930   5.111   3.912  0.9666 -1.3805 -0.9092
 4649SOL    HW318369   5.895   5.044   4.043 -1.5345 -1.9225 -1.8174
 4649SOL    MW418370   5.954   5.078   3.989 -0.0155  0.1299 -0.2984
 4650SOL     OW18371   4.128   5.053   3.914 -0.0253  0.2135  0.4259
 4650SOL    HW218372   4.123   4.977   3.856 -0.7388  0.4290  0.1868
 4650SOL    HW318373   4.050   5.045   3.969 -1.3538  1.9199 -1.0713
 4650SOL    MW418374   4.117   5.042   3.914  0.0612  0.0339 -0.0179
 4651SOL     OW18375   5.579   4.612   4.604 -0.2478  0.8225  0.3817
 4651SOL    HW218376   5.519   4.622   4.530 -1.1203  1.7505  1.1826
 4651SOL    HW318377   5.590   4.701   4.638 -1.9835  0.1786  2.9648
 4651SOL    MW418378   5.572   4.625   4.599 -0.0910 -0.2682  0.2857
 4652SOL     OW18379   6.174   3.656   0.873 -0.3144 -0.0533 -0.1866
 4652SOL    HW218380   6.151   3.745   0.900  1.3881  0.5360 -0.5249
 4652SOL    HW318381   6.172   3.605   0.955  0.2467  0.6657  0.2866
 4652SOL    MW418382   6.171   3.661   0.887 -0.1118 -0.2057  0.3777
 4653SOL     OW18383   1.722   3.189   0.278 -0.2911 -0.2336  0.0265
 4653SOL    HW218384   1.728   3.134   0.199  1.9732  0.5741 -0.4226
 4653SOL    HW318385   1.756   3.133   0.348 -2.2263 -0.9214  0.4837
 4653SOL    MW418386   1.727   3.174   0.277 -0.2566 -0.7226 -0.2440
 4654SOL     OW18387   1.645   1.278   2.989 -0.1143  0.8176 -0.3468
 4654SOL    HW218388   1.576   1.256   3.051 -1.0506  1.5658 -1.1118
 4654SOL    HW318389   1.692   1.196   2.976 -0.7272  0.3480  0.3316
 4654SOL    MW418390   1.642   1.264   2.995 -0.2585  0.6254 -0.4952
 4655SOL     OW18391   4.737   1.523   5.848 -0.2352  0.0312 -0.1837
 4655SOL    HW218392   4.758   1.509   5.755 -3.1929 -2.1109 -0.7045
 4655SOL    HW318393   4.750   1.437   5.888  1.7781  1.1224  1.6476
 4655SOL    MW418394   4.741   1.510   5.841  0.5580  0.5222 -0.1119
 4656SOL     OW18395   2.914   1.897   0.059 -0.1745 -0.6547 -0.1197
 4656SOL    HW218396   2.853   1.853   0.118  1.4364 -0.9023  1.4660
 4656SOL    HW318397   2.859   1.943  -0.004 -1.9559 -1.4112  0.8353
 4656SOL    MW418398   2.899   1.898   0.059  0.0409 -0.1406 -0.1442
 4657SOL     OW18399   5.049   4.039   5.990  0.2463  0.3424  0.7893
 4657SOL    HW218400   4.970   3.995   5.957 -0.3269  3.2415 -2.2496
 4657SOL    HW318401   5.118   3.973   5.983 -0.7271 -0.5596 -2.6427
 4657SOL    MW418402   5.047   4.024   5.984  0.1988  0.1651 -1.2465
 4658SOL     OW18403   1.314   1.655   0.598  0.5357  0.6631  0.4854
 4658SOL    HW218404   1.221   1.640   0.581  0.6149 -1.6580  1.6588
 4658SOL    HW318405   1.316   1.702   0.682  0.3818 -0.8994  1.4170
 4658SOL    MW418406   1.302   1.659   0.607 -0.2248 -0.2289  0.4403
 4659SOL     OW18407   1.627   6.422   4.778  0.0063 -0.5061 -0.0124
 4659SOL    HW218408   1.622   6.507   4.734 -2.1283 -1.2580 -1.3887
 4659SOL    HW318409   1.554   6.372   4.742  1.3928 -3.0738  0.4858
 4659SOL    MW418410   1.616   6.427   4.768 -0.0596  0.4939 -0.1630
 4660SOL     OW18411   4.522   3.930   4.655 -0.0322  0.1876  0.2566
 4660SOL    HW218412   4.525   3.904   4.563  1.1764  1.6107 -0.1539
 4660SOL    HW318413   4.593   3.880   4.696  0.4125  0.6513  0.0729
 4660SOL    MW418414   4.532   3.920   4.648 -0.2491  0.1208 -0.0284
 4661SOL     OW18415   1.222   5.774   3.930  0.2486 -0.1842  0.3925
 4661SOL    HW218416   1.210   5.807   3.841 -0.2717 -1.6701 -0.1238
 4661SOL    HW318417   1.275   5.840   3.974  2.1606 -0.3272 -1.5888
 4661SOL    MW418418   1.227   5.787   3.924  0.0956 -0.1188  0.5718
 4662SOL     OW18419   2.263   0.956   5.361  0.2153  0.6988 -0.0039
 4662SOL    HW218420   2.278   1.050   5.352 -1.5047  0.9848 -0.3190
 4662SOL    HW318421   2.226   0.929   5.277  0.9448 -0.3351 -0.0164
 4662SOL    MW418422   2.260   0.964   5.349  0.2492 -0.5575 -0.3025
 4663SOL     OW18423   0.616   5.328   2.222  0.1782  0.0979  0.3771
 4663SOL    HW218424   0.701   5.336   2.178  0.3063  0.3739  0.6705
 4663SOL    HW318425   0.602   5.413   2.263 -0.7948  0.4695 -0.6452
 4663SOL    MW418426   0.625   5.340   2.221  0.0927  0.4443  0.2778
 4664SOL     OW18427   4.310   4.442   5.939  0.5948 -0.1874  0.3806
 4664SOL    HW218428   4.314   4.416   6.031  3.5195  0.3697  0.5348
 4664SOL    HW318429   4.337   4.535   5.940  0.6387 -0.1721 -1.0065
 4664SOL    MW418430   4.314   4.451   5.952 -0.2666 -0.1294 -0.1014
 4665SOL     OW18431   2.438   5.598   4.941  0.4806  0.2317 -0.0844
 4665SOL    HW218432   2.533   5.590   4.950  0.7696  0.1763 -2.5673
 4665SOL    HW318433   2.419   5.689   4.965  1.5443  0.9732 -1.8457
 4665SOL    MW418434   2.448   5.609   4.946  0.7094 -0.0616 -0.2480
 4666SOL     OW18435   1.319   2.972   3.039 -0.1135  0.4574 -0.5587
 4666SOL    HW218436   1.265   2.950   2.963 -1.5959  1.8775  0.0006
 4666SOL    HW318437   1.379   3.039   3.006  0.8160 -0.5794 -1.0049
 4666SOL    MW418438   1.320   2.978   3.024  0.0010  0.0624  0.0808
 4667SOL     OW18439   2.928   4.066   4.238 -0.4394  0.6189  0.4240
 4667SOL    HW218440   2.873   3.988   4.237 -1.9650  1.6534 -0.7858
 4667SOL    HW318441   3.006   4.039   4.286  0.2065 -2.4075 -1.9634
 4667SOL    MW418442   2.931   4.052   4.244  0.1032 -0.1761  0.0351
 4668SOL     OW18443   2.337   0.801   4.050 -0.1693  0.1893  0.0254
 4668SOL    HW218444   2.423   0.834   4.074  0.8049  0.6142 -3.5170
 4668SOL    HW318445   2.277   0.874   4.067  0.7907  1.2094 -0.8580
 4668SOL    MW418446   2.340   0.815   4.056 -0.0612 -0.1700 -0.3993
 4669SOL     OW18447   3.494   0.226   2.700 -0.8668 -0.5580  0.7631
 4669SOL    HW218448   3.557   0.241   2.629  1.1096 -1.5550  2.1979
 4669SOL    HW318449   3.409   0.245   2.661  0.1193 -1.0948 -1.8718
 4669SOL    MW418450   3.491   0.230   2.686  0.5102  0.4389  0.0281
 4670SOL     OW18451   4.756   4.444   4.942  0.1657  0.5684 -0.3365
 4670SOL    HW218452   4.669   4.439   4.901  0.6674  0.0017 -1.3720
 4670SOL    HW318453   4.744   4.405   5.029 -0.6392  0.6044 -0.4238
 4670SOL    MW418454   4.743   4.438   4.948  0.1838  0.2673 -0.1781
 4671SOL     OW18455   0.238   5.914   4.207 -0.3702  0.5028 -0.2630
 4671SOL    HW218456   0.159   5.966   4.227  0.3063  1.8878 -1.0368
 4671SOL    HW318457   0.298   5.976   4.166  1.5560 -0.2498  1.2256
 4671SOL    MW418458   0.235   5.929   4.204 -0.0156  0.0523  0.7076
 4672SOL     OW18459   5.786   3.857   5.747 -0.6713  0.2760  0.3003
 4672SOL    HW218460   5.804   3.798   5.820 -1.6247  0.9844  1.1228
 4672SOL    HW318461   5.850   3.832   5.680 -2.1890 -3.0003 -0.1532
 4672SOL    MW418462   5.797   3.846   5.748  0.0611  0.4646 -0.4219
 4673SOL     OW18463   1.418   0.148   3.259  0.2786  0.4224 -0.3318
 4673SOL    HW218464   1.375   0.183   3.181 -1.1179  3.7152  1.7048
 4673SOL    HW318465   1.365   0.179   3.331  2.8760 -0.3830  2.1002
 4673SOL    MW418466   1.405   0.156   3.258  0.5357  0.3486 -0.2824
 4674SOL     OW18467   2.979   3.316   1.451 -0.0860 -0.4106  0.1270
 4674SOL    HW218468   2.918   3.390   1.452  0.3494 -0.0289  1.7835
 4674SOL    HW318469   3.047   3.343   1.389 -1.2555 -0.6071 -1.3258
 4674SOL    MW418470   2.980   3.330   1.443 -0.6194 -0.0409  0.2536
 4675SOL     OW18471   4.528   0.074   4.022 -0.1598 -0.3403 -0.3657
 4675SOL    HW218472   4.584   0.029   4.086 -1.5093  0.4510  1.4424
 4675SOL    HW318473   4.571   0.158   4.008  0.3017 -0.6333 -0.7827
 4675SOL    MW418474   4.541   0.079   4.028  0.0870  0.2104 -0.0046
 4676SOL     OW18475   2.999   3.903   0.918 -0.2553 -0.1319 -0.3754
 4676SOL    HW218476   2.917   3.907   0.968  0.8056 -0.5152  1.5241
 4676SOL    HW318477   3.046   3.983   0.944  0.1069 -0.0721 -1.2001
 4676SOL    MW418478   2.994   3.914   0.928  0.1401 -0.2012  0.2781
 4677SOL     OW18479   4.882   0.265   1.409  0.2272  0.3716 -0.6022
 4677SOL    HW218480   4.801   0.235   1.368 -0.9978  0.6044  1.5016
 4677SOL    HW318481   4.938   0.188   1.411 -0.0310  0.1275 -1.8256
 4677SOL    MW418482   4.879   0.251   1.404  0.3102 -0.1535 -0.4727
 4678SOL     OW18483   3.248   1.198   4.879 -0.1082  0.3079  0.0026
 4678SOL    HW218484   3.342   1.215   4.874  0.7265 -3.2444  0.8195
 4678SOL    HW318485   3.218   1.255   4.950  1.6694  0.6987  0.5098
 4678SOL    MW418486   3.257   1.208   4.888 -0.3068  0.4855 -0.5827
 4679SOL     OW18487   4.361   0.608   5.904  0.0074  0.2580  0.0107
 4679SOL    HW218488   4.358   0.626   5.998 -0.3672  2.9580 -0.4229
 4679SOL    HW318489   4.453   0.620   5.880  0.5280 -2.5241  0.2955
 4679SOL    MW418490   4.373   0.612   5.913 -0.2747  0.3186 -0.0256
 4680SOL     OW18491   3.113   2.753   5.176 -0.2764 -0.4053  0.5012
 4680SOL    HW218492   3.180   2.820   5.186 -0.6906 -0.1251  1.4911
 4680SOL    HW318493   3.162   2.672   5.163  0.2623 -0.2018  1.1970
 4680SOL    MW418494   3.128   2.751   5.175  0.6430  0.1720  0.8173
 4681SOL     OW18495   4.227   2.020   3.834  0.1262  0.1172 -0.4160
 4681SOL    HW218496   4.243   2.093   3.774  1.6270 -0.2560 -0.4992
 4681SOL    HW318497   4.215   1.945   3.776 -1.1133  0.2133 -0.3174
 4681SOL    MW418498   4.227   2.020   3.818 -0.2088 -0.1061 -0.3275
 4682SOL     OW18499   5.309   2.178   3.721  0.0997 -0.0898  0.1753
 4682SOL    HW218500   5.231   2.232   3.708 -0.5479 -1.2826 -1.0988
 4682SOL    HW318501   5.360   2.190   3.641  1.0968  0.4335  0.8666
 4682SOL    MW418502   5.306   2.187   3.709 -0.2681  0.1546  0.0029
 4683SOL     OW18503   6.207   0.277   5.695  0.2292 -0.0749  0.5182
 4683SOL    HW218504   6.300   0.263   5.713  0.4843  0.0729 -0.5970
 4683SOL    HW318505   6.205   0.322   5.610 -0.8243  1.0149  1.0874
 4683SOL    MW418506   6.219   0.281   5.686  0.4585  0.2785 -0.1300
 4684SOL     OW18507   5.227   3.618   3.307  0.4663 -0.0118  0.2198
 4684SOL    HW218508   5.245   3.609   3.213  1.4459 -1.8290  0.5311
 4684SOL    HW318509   5.132   3.607   3.314  0.1700  1.6420 -0.6755
 4684SOL    MW418510   5.217   3.615   3.296 -0.5200 -0.7510  0.5874
 4685SOL     OW18511   4.495   0.371   4.319  0.0765  0.0591 -0.3299
 4685SOL    HW218512   4.401   0.379   4.305 -0.0941 -1.4121 -0.1647
 4685SOL    HW318513   4.534   0.406   4.240 -0.5782  1.2814 -0.1396
 4685SOL    MW418514   4.488   0.377   4.307  0.9651  0.1070  0.5724
 4686SOL     OW18515   4.874   3.521   4.248  0.4295  0.1868  0.0975
 4686SOL    HW218516   4.887   3.478   4.332  0.7725  0.8792  0.4110
 4686SOL    HW318517   4.961   3.521   4.207  0.4903  0.8134  0.2189
 4686SOL    MW418518   4.887   3.516   4.254  0.0978 -0.1917  0.1502
 4687SOL     OW18519   4.712   0.118   1.184 -0.0959  0.6620 -0.0467
 4687SOL    HW218520   4.698   0.187   1.119  0.1362 -0.2176 -1.0417
 4687SOL    HW318521   4.626   0.106   1.225 -0.0574  1.7878  0.4014
 4687SOL    MW418522   4.699   0.126   1.181 -0.1968  0.4579  0.2745
 4688SOL     OW18523   0.221   1.047   3.643 -0.3868  0.1021 -0.3224
 4688SOL    HW218524   0.283   1.107   3.601 -0.2410  0.2316  0.0694
 4688SOL    HW318525   0.266   0.962   3.642  0.5570  0.5142  1.4762
 4688SOL    MW418526   0.235   1.043   3.638  0.4355 -0.2453  0.3791
 4689SOL     OW18527   2.919   0.966   5.087 -0.0778  0.0256 -0.2718
 4689SOL    HW218528   2.859   0.905   5.043  1.0196 -0.2770 -1.4012
 4689SOL    HW318529   2.972   0.910   5.144  1.1510 -0.1760 -1.5519
 4689SOL    MW418530   2.918   0.950   5.088  0.2041  0.4338  0.4017
 4690SOL     OW18531   2.727   5.831   5.935 -0.3314  0.2360 -0.6288
 4690SOL    HW218532   2.741   5.806   5.843  0.1482 -0.9996 -0.2447
 4690SOL    HW318533   2.640   5.798   5.955 -1.0625  1.8316 -1.0446
 4690SOL    MW418534   2.718   5.823   5.925  0.0863  0.0280  0.3371
 4691SOL     OW18535   2.756   5.400   0.584 -0.3260  0.2517  0.4987
 4691SOL    HW218536   2.791   5.313   0.604 -0.2600  0.2762  0.4912
 4691SOL    HW318537   2.826   5.460   0.608  0.1947  0.2157 -0.8544
 4691SOL    MW418538   2.770   5.396   0.590 -0.0998 -0.3408 -0.1056
 4692SOL     OW18539   5.801   5.957   0.053 -0.2169 -0.0746  0.1651
 4692SOL    HW218540   5.749   6.031   0.020 -0.2219  0.2825  0.9419
 4692SOL    HW318541   5.892   5.986   0.044 -0.1393 -0.6452 -1.0657
 4692SOL    MW418542   5.806   5.971   0.048  0.3529  0.5463  0.1051
 4693SOL     OW18543   1.645   1.782   3.821 -0.0475  0.3446 -0.0459
 4693SOL    HW218544   1.684   1.726   3.754 -0.0594 -0.3419  0.5140
 4693SOL    HW318545   1.699   1.769   3.898 -0.5425  0.4719  0.3269
 4693SOL    MW418546   1.657   1.773   3.822 -0.4012 -0.0129 -0.3863
 4694SOL     OW18547   3.997   6.319   4.364  0.3954  0.0907 -0.2931
 4694SOL    HW218548   4.005   6.289   4.455  1.3961  0.2067 -0.3229
 4694SOL    HW318549   4.068   6.384   4.355 -0.1813  0.6439 -0.9363
 4694SOL    MW418550   4.008   6.324   4.375  0.5470  0.1566  0.2195
 4695SOL     OW18551   0.973   2.443   4.293  0.3584  0.1300  0.0366
 4695SOL    HW218552   1.017   2.476   4.371 -1.5431 -0.5217  1.4613
 4695SOL    HW318553   1.000   2.503   4.223  0.1076  2.3241  1.7017
 4695SOL    MW418554   0.983   2.455   4.294  0.6130  0.0270 -0.2467
 4696SOL     OW18555   1.876   3.914   3.860  0.2202 -0.3245 -0.2498
 4696SOL    HW218556   1.924   3.853   3.916 -0.3777 -0.5336  0.0462
 4696SOL    HW318557   1.944   3.968   3.819  0.7244 -0.8397 -0.1052
 4696SOL    MW418558   1.891   3.913   3.862  0.0224  0.0247  0.7582
 4697SOL     OW18559   1.559   0.900   6.263  0.5976 -0.1838  0.0888
 4697SOL    HW218560   1.464   0.889   6.259  0.4433  0.9498  0.4059
 4697SOL    HW318561   1.592   0.811   6.275 -0.3988 -0.6292 -0.2868
 4697SOL    MW418562   1.551   0.887   6.264  0.6242  0.3266 -0.1657
 4698SOL     OW18563   4.744   1.059   1.741  0.0615  0.9084  0.4505
 4698SOL    HW218564   4.721   1.137   1.791 -0.1192  1.9615 -1.1884
 4698SOL    HW318565   4.812   1.016   1.793 -1.4517  0.8657  2.5321
 4698SOL    MW418566   4.750   1.064   1.754  0.2881  0.2134 -0.0632
 4699SOL     OW18567   5.937   3.482   3.121 -0.0212  0.4262 -0.2813
 4699SOL    HW218568   5.920   3.504   3.213  0.0656  1.7192 -0.5522
 4699SOL    HW318569   5.913   3.390   3.113 -1.0858  0.5917  0.7733
 4699SOL    MW418570   5.932   3.473   3.132  0.3425 -0.3519 -0.1892
 4700SOL     OW18571   5.657   6.328   4.318  0.1219 -0.1817  0.6766
 4700SOL    HW218572   5.733   6.310   4.373 -0.1481  1.4730  1.6530
 4700SOL    HW318573   5.693   6.355   4.234  0.5663 -1.0523  0.5777
 4700SOL    MW418574   5.671   6.329   4.314 -0.1894  0.3104  0.2374
 4701SOL     OW18575   2.766   5.818   6.213  0.2991  0.3930 -0.2124
 4701SOL    HW218576   2.809   5.733   6.216 -2.8317 -1.3434  0.5070
 4701SOL    HW318577   2.744   5.830   6.120 -1.7250 -1.0846 -0.0031
 4701SOL    MW418578   2.769   5.808   6.201 -0.1669  0.0820 -0.2224
 4702SOL     OW18579   3.369   2.597   1.267  0.0679 -0.4216  0.0747
 4702SOL    HW218580   3.276   2.613   1.282  0.1616  0.7322 -0.4565
 4702SOL    HW318581   3.372   2.508   1.231 -0.7868 -0.6069  0.4220
 4702SOL    MW418582   3.357   2.587   1.265 -0.1413 -0.4025  0.5846
 4703SOL     OW18583   1.914   2.663   5.711 -0.2834 -0.1394  0.1369
 4703SOL    HW218584   1.920   2.737   5.772 -0.6635 -0.4821  0.5918
 4703SOL    HW318585   1.895   2.587   5.766 -1.0675 -0.3856 -0.4465
 4703SOL    MW418586   1.912   2.663   5.726 -0.0327 -0.6159  0.6891
 4704SOL     OW18587   3.639   1.949   1.827  0.1616 -0.4265 -0.1075
 4704SOL    HW218588   3.596   1.884   1.883  0.9020 -0.2189  0.7152
 4704SOL    HW318589   3.699   1.995   1.885 -0.0631  0.7386 -0.7703
 4704SOL    MW418590   3.641   1.946   1.842  0.3459  0.2487 -0.6856
 4705SOL     OW18591   4.160   3.616   5.196 -0.1595 -0.3177  0.7839
 4705SOL    HW218592   4.184   3.529   5.166 -0.1529  0.0610 -0.3404
 4705SOL    HW318593   4.070   3.628   5.165  0.2693  0.5550 -0.1762
 4705SOL    MW418594   4.151   3.606   5.188 -0.1430  0.0760  0.7207
 4706SOL     OW18595   1.331   3.246   0.766  0.0338 -0.2244 -0.4234
 4706SOL    HW218596   1.295   3.241   0.678 -0.1784 -1.7512 -0.2670
 4706SOL    HW318597   1.318   3.159   0.803 -1.0712  0.7459  1.6078
 4706SOL    MW418598   1.325   3.234   0.759  0.3632 -0.1296  0.4495
 4707SOL     OW18599   4.961   3.956   2.329  0.6737 -0.4940 -0.3144
 4707SOL    HW218600   4.901   3.984   2.398  0.3873 -1.7625 -0.0107
 4707SOL    HW318601   5.007   4.035   2.303  0.2288  0.1514  0.7888
 4707SOL    MW418602   4.959   3.970   2.334  0.0822 -0.0711 -0.3960
 4708SOL     OW18603   6.214   1.368   2.431  0.7668 -0.3459 -0.6483
 4708SOL    HW218604   6.302   1.397   2.405  0.4807  0.7964 -0.4192
 4708SOL    HW318605   6.214   1.274   2.416  1.8126 -0.2602 -1.2867
 4708SOL    MW418606   6.226   1.360   2.426 -0.4898  0.2994  0.3194
 4709SOL     OW18607   6.338   5.158   6.098 -0.4114 -0.4203  0.4299
 4709SOL    HW218608   6.399   5.189   6.031  2.0794 -0.2794  2.5704
 4709SOL    HW318609   6.347   5.063   6.096 -0.3970 -0.4207  0.5163
 4709SOL    MW418610   6.347   5.149   6.089 -0.0499  0.1097 -0.4188
 4710SOL     OW18611   5.078   5.763   0.368 -0.7114 -0.0525 -0.5841
 4710SOL    HW218612   5.133   5.686   0.382  0.7667  1.4009  2.6757
 4710SOL    HW318613   5.134   5.824   0.321 -0.6038  0.3452  0.0623
 4710SOL    MW418614   5.092   5.761   0.363  0.5640 -0.0203 -0.8278
 4711SOL     OW18615   6.385   5.789   4.821  0.3875 -0.4537  0.4753
 4711SOL    HW218616   6.309   5.845   4.838  1.1205  0.9911 -0.7236
 4711SOL    HW318617   6.439   5.798   4.900 -0.0941 -0.4573  0.8050
 4711SOL    MW418618   6.382   5.798   4.834 -0.3291  0.5127 -0.5943
 4712SOL     OW18619   4.052   4.161   5.480 -0.6325 -0.6457 -0.2610
 4712SOL    HW218620   4.029   4.231   5.419 -1.4431  0.5517  1.3220
 4712SOL    HW318621   3.975   4.153   5.537  0.1173 -1.6466  0.6513
 4712SOL    MW418622   4.039   4.169   5.479 -0.1101 -0.0649 -0.1112
 4713SOL     OW18623   4.800   5.669   1.150 -0.0775  0.3750  0.4162
 4713SOL    HW218624   4.852   5.723   1.090 -0.4324 -0.2115 -0.4449
 4713SOL    HW318625   4.819   5.705   1.237  0.2450  1.4183 -0.0615
 4713SOL    MW418626   4.810   5.681   1.154  0.0772  0.7867 -0.9255
 4714SOL     OW18627   2.377   6.254   0.643  0.5535 -0.3090  0.1840
 4714SOL    HW218628   2.385   6.315   0.570 -0.3432 -0.1459  0.2124
 4714SOL    HW318629   2.463   6.255   0.684  0.2469  1.8447  0.8931
 4714SOL    MW418630   2.389   6.262   0.639  0.3791 -0.2305  0.2360
 4715SOL     OW18631   0.924   1.626   3.229 -0.3377  0.1847 -0.1650
 4715SOL    HW218632   0.944   1.719   3.222  1.1505 -0.0404  0.5364
 4715SOL    HW318633   0.901   1.599   3.141 -3.8586  1.8127  0.1197
 4715SOL    MW418634   0.924   1.635   3.217  0.3591 -0.0946  0.2211
 4716SOL     OW18635   5.732   1.444   0.098 -0.4778 -0.4298 -0.3967
 4716SOL    HW218636   5.687   1.374   0.145  0.1255 -1.4228 -1.2624
 4716SOL    HW318637   5.762   1.503   0.167  0.5424 -1.9307  0.5082
 4716SOL    MW418638   5.730   1.443   0.113  0.4334  0.0720  0.9624
 4717SOL     OW18639   5.847   4.803   6.359 -0.2317  0.1530  0.1277
 4717SOL    HW218640   5.832   4.724   6.411 -1.7907 -0.1806 -0.7491
 4717SOL    HW318641   5.789   4.869   6.398  0.5461  0.6785  0.4252
 4717SOL    MW418642   5.837   4.802   6.371  0.5661  0.1098 -0.0112
 4718SOL     OW18643   4.182   0.303   4.688 -0.3966 -0.3075 -0.5364
 4718SOL    HW218644   4.265   0.319   4.734 -0.2833 -0.8294 -0.5505
 4718SOL    HW318645   4.132   0.383   4.700  0.9368  0.8798 -2.3167
 4718SOL    MW418646   4.187   0.316   4.696  0.1309  0.0950  0.1616
 4719SOL     OW18647   6.150   6.394   5.666  0.3834  0.1076 -0.0893
 4719SOL    HW218648   6.064   6.386   5.708 -0.0220  0.9938 -0.7159
 4719SOL    HW318649   6.176   6.484   5.683  1.1925 -0.1519  0.0782
 4719SOL    MW418650   6.142   6.405   5.674 -0.1473 -0.0406  0.5969
 4720SOL     OW18651   3.483   3.062   0.364 -0.1403  0.3422 -0.5364
 4720SOL    HW218652   3.398   3.060   0.408  0.4862 -0.3703  0.7120
 4720SOL    HW318653   3.534   3.127   0.412  0.0203  0.7764 -1.2824
 4720SOL    MW418654   3.479   3.070   0.376  0.1754  0.4045  0.0200
 4721SOL     OW18655   4.704   0.144   0.042 -0.4207 -0.0573 -0.2474
 4721SOL    HW218656   4.647   0.175   0.112  1.0569 -1.9005  1.9073
 4721SOL    HW318657   4.737   0.224   0.001 -1.1886  1.0797  1.2653
 4721SOL    MW418658   4.701   0.159   0.045 -0.2175  0.4538  0.4262
 4722SOL     OW18659   4.537   5.632   1.027  0.1364 -0.4945 -0.4684
 4722SOL    HW218660   4.616   5.608   1.075  0.7434 -1.0315 -1.7024
 4722SOL    HW318661   4.514   5.553   0.977 -1.1301 -0.3210 -0.2067
 4722SOL    MW418662   4.544   5.618   1.027 -0.1916 -0.3264  0.8811
 4723SOL     OW18663   1.028   0.910   4.608  0.4821 -0.2692  0.0755
 4723SOL    HW218664   0.960   0.913   4.541 -1.1174 -0.4929  1.6112
 4723SOL    HW318665   1.076   0.992   4.596 -0.6542  0.3527 -0.4752
 4723SOL    MW418666   1.025   0.921   4.598  0.0694 -0.5379  0.4948
 4724SOL     OW18667   5.031   0.953   3.927  0.2017 -0.5760 -0.2136
 4724SOL    HW218668   4.948   0.904   3.921  0.8625 -1.9032  0.8560
 4724SOL    HW318669   5.008   1.032   3.975 -0.6680 -0.3743 -0.9308
 4724SOL    MW418670   5.017   0.957   3.933  0.6689 -0.1664  0.7586
 4725SOL     OW18671   4.160   4.615   1.765  0.3166 -0.0212  0.0450
 4725SOL    HW218672   4.197   4.703   1.752 -0.8806  0.4734 -0.1683
 4725SOL    HW318673   4.140   4.584   1.676  1.0149 -0.6489  0.0973
 4725SOL    MW418674   4.162   4.623   1.751 -0.2224  0.6431  0.5960
 4726SOL     OW18675   3.820   4.649   2.785  0.6975  0.6268  0.2599
 4726SOL    HW218676   3.763   4.601   2.725  0.4653  0.8865  0.2662
 4726SOL    HW318677   3.810   4.604   2.869 -2.2787  2.6754  1.2112
 4726SOL    MW418678   3.811   4.637   2.788  0.0551  0.6510  0.0915
 4727SOL     OW18679   1.228   2.987   6.229  0.3023  0.2010  0.2117
 4727SOL    HW218680   1.304   2.953   6.180 -1.0381 -0.3530 -1.6012
 4727SOL    HW318681   1.254   2.980   6.321  1.7819 -1.6078 -0.2752
 4727SOL    MW418682   1.242   2.982   6.235  0.2072  0.4229  0.8154
 4728SOL     OW18683   4.387   0.871   3.508  0.1659  0.6612  0.0709
 4728SOL    HW218684   4.347   0.930   3.443  0.4242 -0.6609 -1.3515
 4728SOL    HW318685   4.481   0.890   3.503  0.2444  0.1669 -0.3549
 4728SOL    MW418686   4.394   0.881   3.499 -0.1989 -0.0556 -0.6829
 4729SOL     OW18687   4.035   2.627   5.160  0.2174  0.2124 -0.2544
 4729SOL    HW218688   4.107   2.655   5.217  2.0887  1.8173 -3.1857
 4729SOL    HW318689   4.078   2.587   5.085 -1.8642  1.7458 -2.3887
 4729SOL    MW418690   4.050   2.625   5.158 -0.4061 -0.1111 -0.3696
 4730SOL     OW18691   4.451   6.316   4.993 -0.0210 -0.8245  0.2597
 4730SOL    HW218692   4.490   6.336   4.908 -1.3351 -2.0206 -0.6938
 4730SOL    HW318693   4.493   6.234   5.020  1.2824  0.1798  1.4012
 4730SOL    MW418694   4.461   6.307   4.986  0.2030  0.1300 -0.4827
 4731SOL     OW18695   2.357   3.691   5.062  0.3803 -0.6248  0.4053
 4731SOL    HW218696   2.397   3.625   5.006  1.7921 -2.0052  2.8262
 4731SOL    HW318697   2.418   3.701   5.135 -0.8085  1.8609  1.1875
 4731SOL    MW418698   2.370   3.684   5.065 -0.8487  0.5927 -0.0998
 4732SOL     OW18699   2.560   4.561   0.322 -0.1811 -0.7232  0.3732
 4732SOL    HW218700   2.500   4.580   0.250 -0.0021 -3.2994 -0.5436
 4732SOL    HW318701   2.645   4.547   0.279  0.0390 -1.7623  1.1182
 4732SOL    MW418702   2.563   4.562   0.307  0.5426  0.0794  0.3918
 4733SOL     OW18703   4.877   0.391   5.394  0.1729 -0.0496 -0.2268
 4733SOL    HW218704   4.913   0.340   5.467  1.8567 -0.2111 -1.1163
 4733SOL    HW318705   4.784   0.401   5.416  0.2180 -1.7367  0.9912
 4733SOL    MW418706   4.869   0.385   5.407 -0.4404  0.1095  0.0543
 4734SOL     OW18707   3.515   2.702   5.700 -0.1336 -0.5346  0.1021
 4734SOL    HW218708   3.436   2.744   5.736 -0.1540 -0.2899 -0.2253
 4734SOL    HW318709   3.482   2.644   5.632 -0.0427 -0.5566  0.0777
 4734SOL    MW418710   3.500   2.700   5.696  0.1914  0.6087 -0.3603
 4735SOL     OW18711   4.669   0.065   3.716  0.2283  0.4513 -0.1324
 4735SOL    HW218712   4.715   0.029   3.792  1.2495  2.6794  0.4070
 4735SOL    HW318713   4.739   0.097   3.659 -0.5801  0.6770 -1.0219
 4735SOL    MW418714   4.684   0.065   3.718  1.0419 -0.7044  0.8690
 4736SOL     OW18715   1.586   3.579   3.213  0.1159  0.0281  0.1582
 4736SOL    HW218716   1.579   3.672   3.236  2.2787  1.0839 -2.7319
 4736SOL    HW318717   1.522   3.567   3.143  0.0197 -0.5785  0.3484
 4736SOL    MW418718   1.577   3.590   3.207 -0.1918 -0.4228 -0.4749
 4737SOL     OW18719   0.203   3.868   4.587  0.1915  0.0785 -0.0217
 4737SOL    HW218720   0.200   3.772   4.586  1.9884 -0.0146 -1.3627
 4737SOL    HW318721   0.150   3.894   4.512 -0.8707  0.1861  0.7504
 4737SOL    MW418722   0.196   3.858   4.577  0.1786  0.8516 -0.4450
 4738SOL     OW18723   6.184   3.682   0.375 -0.2420  0.8089 -0.4228
 4738SOL    HW218724   6.221   3.663   0.461 -1.9027  2.3678  0.7118
 4738SOL    HW318725   6.258   3.672   0.314  0.5776 -2.0963  0.8696
 4738SOL    MW418726   6.199   3.679   0.378 -0.5736  0.0491  0.3867
 4739SOL     OW18727   6.423   3.624   5.777  0.6078  0.2096  0.3398
 4739SOL    HW218728   6.414   3.569   5.698 -0.2121 -0.0694  0.6217
 4739SOL    HW318729   6.336   3.662   5.790  0.8703  0.6464  0.8328
 4739SOL    MW418730   6.411   3.621   5.768 -0.1312 -0.4091 -0.0077
 4740SOL     OW18731   3.429   2.013   5.852  0.5689  0.5949  0.2325
 4740SOL    HW218732   3.480   1.973   5.922 -0.3862 -0.0295  0.5921
 4740SOL    HW318733   3.377   1.941   5.816  1.7272  0.6850 -1.7651
 4740SOL    MW418734   3.429   1.998   5.857 -0.1998  0.0892 -0.4067
 4741SOL     OW18735   4.086   1.815   2.793 -0.0222  0.1082  0.2809
 4741SOL    HW218736   4.154   1.783   2.852 -0.8367 -0.9432  0.6844
 4741SOL    HW318737   4.134   1.844   2.715  1.1787  2.5856  1.8065
 4741SOL    MW418738   4.101   1.815   2.790  0.0111  0.3236  0.0472
 4742SOL     OW18739   2.740   3.006   3.776  0.1687 -0.7581 -0.2107
 4742SOL    HW218740   2.784   3.050   3.849  1.4115  0.3181 -1.5407
 4742SOL    HW318741   2.811   2.962   3.728 -0.3163  0.1795 -1.8614
 4742SOL    MW418742   2.755   3.006   3.779  0.2418  0.0804  0.1967
 4743SOL     OW18743   2.777   0.871   3.746  0.1342  0.0931  0.0725
 4743SOL    HW218744   2.782   0.777   3.729  0.5267 -0.5684  3.3134
 4743SOL    HW318745   2.838   0.910   3.683  2.3813 -2.1515  0.7052
 4743SOL    MW418746   2.786   0.864   3.736 -0.3013 -0.0495  0.1199
 4744SOL     OW18747   5.407   1.479   2.826  0.1072 -0.0815 -0.1152
 4744SOL    HW218748   5.316   1.481   2.799 -0.6774 -0.6434  2.2819
 4744SOL    HW318749   5.455   1.517   2.752 -2.0120 -0.0259 -1.5266
 4744SOL    MW418750   5.402   1.484   2.812 -0.1039 -0.1445 -0.6403
 4745SOL     OW18751   1.818   5.245   5.505  0.2152  0.4500  0.3298
 4745SOL    HW218752   1.795   5.212   5.418 -3.3438  1.6343  0.6770
 4745SOL    HW318753   1.856   5.331   5.489  2.4170 -0.5032 -0.0983
 4745SOL    MW418754   1.820   5.252   5.491  0.4304 -0.2856  0.1327
 4746SOL     OW18755   5.808   2.272   1.786 -0.0215 -0.2164  0.2261
 4746SOL    HW218756   5.868   2.334   1.827 -0.0011  0.3045 -0.5594
 4746SOL    HW318757   5.739   2.328   1.749 -0.6060 -0.7533  0.4833
 4746SOL    MW418758   5.807   2.288   1.787 -0.0843 -0.3307  0.2914
 4747SOL     OW18759   3.781   2.773   0.027 -0.1136  0.4576  0.5072
 4747SOL    HW218760   3.716   2.723   0.076 -1.1012  0.1587 -1.0263
 4747SOL    HW318761   3.763   2.751  -0.065  2.0126  0.5573  0.0257
 4747SOL    MW418762   3.770   2.764   0.021 -0.2758 -0.4248 -0.0765
 4748SOL     OW18763   2.298   2.306   4.899  0.3795  0.3775  0.2694
 4748SOL    HW218764   2.244   2.312   4.978  0.8332 -1.0815  0.7394
 4748SOL    HW318765   2.236   2.310   4.827 -0.4436 -1.4531  0.7983
 4748SOL    MW418766   2.283   2.307   4.900  0.0605  0.2742  0.6982
 4749SOL     OW18767   2.071   4.990   1.640  0.0923  0.4920 -0.1052
 4749SOL    HW218768   2.000   4.945   1.685  0.0629  0.8487  0.2145
 4749SOL    HW318769   2.045   5.082   1.641  0.2612  0.5460 -0.5446
 4749SOL    MW418770   2.058   4.996   1.646 -0.2124 -0.3965  0.6111
 4750SOL     OW18771   5.082   4.295   4.257  0.4861  0.0276 -0.4327
 4750SOL    HW218772   5.022   4.346   4.203  0.1627 -1.0047 -1.0655
 4750SOL    HW318773   5.034   4.280   4.339  0.9678  1.5685  0.1684
 4750SOL    MW418774   5.068   4.300   4.261  0.0355 -0.2189 -0.0005
 4751SOL     OW18775   3.283   6.079   5.464  0.5298 -0.3828  0.3522
 4751SOL    HW218776   3.222   6.058   5.535 -0.2992 -0.2853 -0.3119
 4751SOL    HW318777   3.363   6.105   5.509  0.0953 -0.5443  1.2534
 4751SOL    MW418778   3.285   6.080   5.479  0.0431  0.0051 -0.0480
 4752SOL     OW18779   3.104   1.850   2.021 -0.0475  0.5276 -0.1378
 4752SOL    HW218780   3.176   1.911   2.006 -0.4515  1.3511  1.1114
 4752SOL    HW318781   3.038   1.875   1.956  0.1819  0.7775 -0.2792
 4752SOL    MW418782   3.104   1.862   2.011  0.0935 -0.2100 -0.1479
 4753SOL     OW18783   6.070   5.122   1.177 -0.9874  0.0867  0.0662
 4753SOL    HW218784   6.143   5.080   1.221 -0.6938 -0.2864 -0.7578
 4753SOL    HW318785   6.070   5.212   1.209  0.3414  0.3192 -0.5372
 4753SOL    MW418786   6.079   5.128   1.187  0.6947 -0.0514  0.1540
 4754SOL     OW18787   5.468   3.526   1.060  0.0128 -0.7332 -0.0557
 4754SOL    HW218788   5.496   3.436   1.042 -1.8333 -1.1778 -0.9342
 4754SOL    HW318789   5.483   3.573   0.978 -0.8930 -0.7591 -0.2481
 4754SOL    MW418790   5.474   3.520   1.047 -0.6001 -0.5970  0.1206
 4755SOL     OW18791   1.825   2.211   3.787  0.2927  0.6497  0.5048
 4755SOL    HW218792   1.831   2.307   3.783 -0.3573  0.6665 -0.3665
 4755SOL    HW318793   1.820   2.184   3.695  0.4972 -0.2250  0.7471
 4755SOL    MW418794   1.825   2.220   3.774 -0.2713  0.1851 -0.0956
 4756SOL     OW18795   3.166   4.033   4.447  0.5254 -0.4403  0.3126
 4756SOL    HW218796   3.127   4.023   4.534 -1.5545 -0.6513 -0.5673
 4756SOL    HW318797   3.238   3.970   4.445 -1.5632 -3.0539  0.7668
 4756SOL    MW418798   3.170   4.023   4.458  0.1963  0.3017 -0.0032
 4757SOL     OW18799   5.580   3.410   3.586  0.1369 -0.5160  0.3904
 4757SOL    HW218800   5.613   3.359   3.512  0.0210 -0.1422  0.0765
 4757SOL    HW318801   5.658   3.451   3.623 -0.0156  0.8036 -0.6849
 4757SOL    MW418802   5.594   3.409   3.581 -0.4055  0.5417  0.5829
 4758SOL     OW18803   3.898   3.713   5.849  0.0600 -0.0708 -0.0688
 4758SOL    HW218804   3.850   3.655   5.908  0.3778 -2.1277 -1.7025
 4758SOL    HW318805   3.963   3.657   5.808  1.8180  1.9492 -0.2372
 4758SOL    MW418806   3.900   3.698   5.851 -0.3362  0.0866 -0.3786
 4759SOL     OW18807   0.865   0.808   5.976  0.4527 -0.0013  0.6215
 4759SOL    HW218808   0.879   0.899   5.951 -1.3477  0.6283  1.6689
 4759SOL    HW318809   0.893   0.804   6.068  0.7900 -0.5943  0.5021
 4759SOL    MW418810   0.871   0.819   5.985  0.0808  0.1944  0.1079
 4760SOL     OW18811   0.295   5.007   0.832  0.0182 -0.5152  0.1953
 4760SOL    HW218812   0.249   4.940   0.780 -0.2670 -1.2157  1.3178
 4760SOL    HW318813   0.376   4.964   0.860  0.7693  0.2818 -0.6925
 4760SOL    MW418814   0.299   4.992   0.829  0.0308  0.3435 -0.0679
 4761SOL     OW18815   6.354   6.120   3.136  0.6167 -0.5455 -0.0061
 4761SOL    HW218816   6.439   6.135   3.093  2.2804 -0.1334  3.1146
 4761SOL    HW318817   6.339   6.200   3.187 -0.7527 -1.3190  0.8683
 4761SOL    MW418818   6.363   6.133   3.137 -0.3677 -0.1460  0.1530
 4762SOL     OW18819   3.144   1.596   2.160  0.4099  0.3900 -0.1880
 4762SOL    HW218820   3.071   1.590   2.222  0.2011 -1.5187 -0.5520
 4762SOL    HW318821   3.138   1.685   2.125 -0.3898  0.9948  1.3881
 4762SOL    MW418822   3.133   1.607   2.163 -0.6161 -0.4626  0.1422
 4763SOL     OW18823   2.857   2.878   2.910  0.2394 -0.2705  0.2017
 4763SOL    HW218824   2.801   2.851   2.982 -0.0476 -1.2751 -0.3775
 4763SOL    HW318825   2.796   2.915   2.845  0.1263 -1.9230 -0.6912
 4763SOL    MW418826   2.841   2.879   2.911 -0.0725  0.4929  0.0052
 4764SOL     OW18827   5.611   4.782   3.958  0.1427 -0.2041 -0.3841
 4764SOL    HW218828   5.677   4.824   4.012  1.3944  1.0001 -2.6710
 4764SOL    HW318829   5.660   4.725   3.899 -1.0651 -0.8925 -0.7715
 4764SOL    MW418830   5.626   4.780   3.957 -0.7282 -0.5165  0.0161
 4765SOL     OW18831   1.119   6.323   4.273 -0.8123  0.2283  0.2722
 4765SOL    HW218832   1.148   6.241   4.313 -4.6076 -1.2063  0.4527
 4765SOL    HW318833   1.158   6.391   4.328  2.7399 -1.2654 -0.0600
 4765SOL    MW418834   1.128   6.321   4.285  0.1116 -0.2908  0.3392
 4766SOL     OW18835   3.145   3.455   4.492 -0.4948 -0.2861  0.0005
 4766SOL    HW218836   3.101   3.403   4.424 -1.4553  2.5738 -1.7507
 4766SOL    HW318837   3.147   3.397   4.569 -0.9398 -3.0500 -1.9092
 4766SOL    MW418838   3.139   3.440   4.493 -0.0703 -0.1156  0.2312
 4767SOL     OW18839   4.143   5.474   5.920 -0.3734  0.3937  0.0737
 4767SOL    HW218840   4.181   5.400   5.967  0.9261  0.7182 -0.4038
 4767SOL    HW318841   4.198   5.483   5.842 -0.3787  1.9610  0.2077
 4767SOL    MW418842   4.155   5.465   5.916  0.2319  0.3507  0.4876
 4768SOL     OW18843   3.769   2.611   4.729  0.7196 -0.2443 -0.3127
 4768SOL    HW218844   3.773   2.521   4.761  1.1115 -0.5613 -1.2309
 4768SOL    HW318845   3.845   2.654   4.767  1.2357 -0.6458 -0.8552
 4768SOL    MW418846   3.779   2.605   4.738  0.7893  0.0907  0.5768
 4769SOL     OW18847   5.941   1.041   1.105  0.2903 -0.3444  0.2366
 4769SOL    HW218848   5.883   0.976   1.144  1.0478 -0.1591  1.7736
 4769SOL    HW318849   5.899   1.125   1.127 -0.1717 -0.2688 -0.8831
 4769SOL    MW418850   5.927   1.044   1.113  0.1246  0.3123  0.0438
 4770SOL     OW18851   5.091   2.361   3.647 -0.1825  0.1935 -0.1352
 4770SOL    HW218852   5.076   2.453   3.627 -1.4686 -0.1013 -0.6403
 4770SOL    HW318853   5.015   2.334   3.698  0.3786 -0.4959  0.3639
 4770SOL    MW418854   5.079   2.369   3.651 -0.0302 -0.9025 -0.0811
 4771SOL     OW18855   3.551   5.387   4.768  0.3244 -0.4033 -0.3235
 4771SOL    HW218856   3.535   5.450   4.838  1.5723  0.0176 -0.4018
 4771SOL    HW318857   3.517   5.429   4.690  1.3375  0.2789 -0.4102
 4771SOL    MW418858   3.545   5.401   4.767  0.0490  0.5442  0.5699
 4772SOL     OW18859   0.786   5.220   1.575  0.1573  0.1243  0.2844
 4772SOL    HW218860   0.877   5.195   1.560 -0.0176  0.2237 -1.0669
 4772SOL    HW318861   0.736   5.160   1.520 -0.5408  0.5881  0.4078
 4772SOL    MW418862   0.792   5.208   1.566  0.5076 -0.0618 -0.2773
 4773SOL     OW18863   2.311   1.041   6.061  0.0988  0.4645 -0.0916
 4773SOL    HW218864   2.398   1.036   6.022 -0.8388  1.2724 -2.4267
 4773SOL    HW318865   2.250   1.025   5.989 -1.7245  0.8870  1.2631
 4773SOL    MW418866   2.314   1.038   6.047 -0.2244 -0.3092 -0.5474
 4774SOL     OW18867   0.592   0.122   3.079  0.3588  0.1483 -0.0093
 4774SOL    HW218868   0.633   0.205   3.053 -2.3319  1.3477 -0.7671
 4774SOL    HW318869   0.527   0.147   3.145 -1.9581 -0.9949 -1.7390
 4774SOL    MW418870   0.589   0.137   3.084 -0.0751 -0.8708 -0.2265
 4775SOL     OW18871   4.541   0.831  -0.035  0.4663  0.4080  0.5633
 4775SOL    HW218872   4.524   0.804  -0.125  0.1791  0.6523  0.5419
 4775SOL    HW318873   4.604   0.767  -0.002  2.4420  1.6783 -0.5518
 4775SOL    MW418874   4.547   0.819  -0.043  0.2575  0.6654 -0.1039
 4776SOL     OW18875   4.101   3.417   0.374 -0.1233 -0.5560  0.3021
 4776SOL    HW218876   4.128   3.490   0.430 -2.7343  1.1154 -0.4216
 4776SOL    HW318877   4.088   3.456   0.288 -3.1249 -1.4259  0.2418
 4776SOL    MW418878   4.102   3.432   0.370 -0.2995  0.5097 -0.4379
 4777SOL     OW18879   0.091   4.415   0.656 -0.1127 -0.7749 -0.3403
 4777SOL    HW218880   0.038   4.367   0.592 -1.0005  0.0325 -0.2287
 4777SOL    HW318881   0.095   4.504   0.622  1.7020 -0.9279 -0.6516
 4777SOL    MW418882   0.085   4.420   0.643  0.5164  0.1108 -0.1619
 4778SOL     OW18883   0.720   0.590   4.285 -0.4292 -0.5072  0.3443
 4778SOL    HW218884   0.794   0.630   4.331 -0.9874 -0.2473  1.0324
 4778SOL    HW318885   0.717   0.636   4.201  0.7148 -1.1138 -0.0563
 4778SOL    MW418886   0.730   0.601   4.280  0.2798 -0.3219  1.1267
 4779SOL     OW18887   5.640   5.176   5.722 -0.2824  0.1164 -0.1602
 4779SOL    HW218888   5.689   5.157   5.802 -1.7808 -0.8879  0.5939
 4779SOL    HW318889   5.664   5.105   5.662  0.5225  0.6319 -0.4584
 4779SOL    MW418890   5.649   5.164   5.725  0.1619  0.0176  0.2101
 4780SOL     OW18891   6.222   3.463   2.812 -0.4762 -0.5449 -0.0648
 4780SOL    HW218892   6.254   3.527   2.748  0.9246 -0.7890  0.3546
 4780SOL    HW318893   6.219   3.512   2.894  3.0224 -1.5355  0.8102
 4780SOL    MW418894   6.226   3.478   2.814  0.5123 -0.0567 -0.0095
 4781SOL     OW18895   1.280   0.986   5.516 -0.3464 -0.1248  0.2997
 4781SOL    HW218896   1.342   0.913   5.512 -0.7786 -0.6141  1.8153
 4781SOL    HW318897   1.336   1.063   5.534  0.1693  0.0780 -1.8315
 4781SOL    MW418898   1.296   0.987   5.518 -0.4227 -0.2768 -0.2772
 4782SOL     OW18899   2.117   2.809   3.326 -0.5731 -0.2124  0.1877
 4782SOL    HW218900   2.146   2.816   3.417  0.9744 -3.2080  0.0283
 4782SOL    HW318901   2.084   2.720   3.318 -1.7427  0.3506 -1.9439
 4782SOL    MW418902   2.116   2.798   3.337  0.1354 -0.2155 -0.3059
 4783SOL     OW18903   0.281   3.384   4.407  0.6206  0.7811  0.1784
 4783SOL    HW218904   0.208   3.396   4.348 -0.2596 -0.8478  0.8706
 4783SOL    HW318905   0.356   3.423   4.362 -0.3308  0.9778 -1.2720
 4783SOL    MW418906   0.282   3.391   4.393  0.2354  0.4504 -0.4921
 4784SOL     OW18907   5.582   5.138   4.253 -0.8091  0.3603 -0.1597
 4784SOL    HW218908   5.616   5.227   4.266 -1.4100  0.5056  0.4417
 4784SOL    HW318909   5.566   5.105   4.341 -0.2690 -0.4844 -0.3611
 4784SOL    MW418910   5.585   5.145   4.266 -0.4876  0.3089 -0.3395
 4785SOL     OW18911   1.784   3.677   5.490 -0.7086  0.2206  0.1928
 4785SOL    HW218912   1.744   3.668   5.403 -0.7942 -0.0062  0.2537
 4785SOL    HW318913   1.865   3.625   5.484 -0.4080  0.6962  0.0617
 4785SOL    MW418914   1.790   3.669   5.477  0.1920  0.1751 -0.3414
 4786SOL     OW18915   3.392   2.819   0.889 -0.2013  0.6534  0.4150
 4786SOL    HW218916   3.397   2.741   0.833  0.3313  0.7252  0.3585
 4786SOL    HW318917   3.309   2.809   0.936 -0.3635  0.2896  0.0602
 4786SOL    MW418918   3.381   2.807   0.888 -0.4836 -0.1632  0.6243
 4787SOL     OW18919   6.371   4.716   1.967 -0.1496  0.6669  0.8056
 4787SOL    HW218920   6.440   4.712   2.033  0.6185 -0.3115 -0.0313
 4787SOL    HW318921   6.311   4.646   1.992  0.6268 -0.3254 -0.0359
 4787SOL    MW418922   6.372   4.706   1.979 -0.1037  0.1988  0.0425
 4788SOL     OW18923   3.763   5.718   2.452  0.3813 -0.6350 -0.3978
 4788SOL    HW218924   3.840   5.772   2.433 -0.2979 -0.2439 -2.1929
 4788SOL    HW318925   3.740   5.740   2.542  0.0951  2.1716 -1.0655
 4788SOL    MW418926   3.770   5.728   2.462 -0.1069 -0.1885  0.3024
 4789SOL     OW18927   0.741   4.957   0.576 -0.2842 -0.8390 -0.3026
 4789SOL    HW218928   0.817   4.959   0.635 -0.5717 -2.2350  0.1491
 4789SOL    HW318929   0.773   4.914   0.497 -0.5017 -1.0905 -0.2553
 4789SOL    MW418930   0.755   4.951   0.573  0.3588  0.0608 -0.3562
 4790SOL     OW18931   2.966   4.609   1.510 -0.3731  0.4391  0.0796
 4790SOL    HW218932   3.042   4.563   1.544  0.1343  0.1831 -1.3166
 4790SOL    HW318933   2.919   4.542   1.459  0.1991  1.3296 -1.7094
 4790SOL    MW418934   2.969   4.594   1.508 -0.2598  0.5190 -0.1693
 4791SOL     OW18935   0.371   2.800   5.351 -0.0991  0.1618  0.0752
 4791SOL    HW218936   0.298   2.853   5.383 -1.2173 -1.8468  1.0132
 4791SOL    HW318937   0.353   2.712   5.384  2.5768 -0.4783  0.0334
 4791SOL    MW418938   0.359   2.795   5.359  0.7796 -0.3414 -0.0429
 4792SOL     OW18939   2.852   4.322   3.790 -0.4372  0.0787  0.1166
 4792SOL    HW218940   2.794   4.360   3.724 -0.2617 -0.8017 -0.5574
 4792SOL    HW318941   2.937   4.362   3.773 -0.6291  0.6712  0.5146
 4792SOL    MW418942   2.856   4.332   3.779 -0.0344  0.3625 -0.5763
 4793SOL     OW18943   6.116   5.643   4.719  0.0055  0.2933  0.9107
 4793SOL    HW218944   6.166   5.579   4.770 -0.0684 -0.5391 -0.0277
 4793SOL    HW318945   6.031   5.647   4.761  0.0098 -0.2344  0.9716
 4793SOL    MW418946   6.112   5.635   4.731 -0.2049  0.0007  0.2565
 4794SOL     OW18947   1.797   2.734   5.467 -0.4924 -0.0647 -0.0067
 4794SOL    HW218948   1.839   2.711   5.551 -0.7463  0.5607  0.2976
 4794SOL    HW318949   1.868   2.773   5.416 -0.6743  0.9709  0.4997
 4794SOL    MW418950   1.812   2.736   5.472  0.2055  0.7401 -0.0915
 4795SOL     OW18951   2.921   1.174   0.677 -0.7129 -0.1220 -0.3617
 4795SOL    HW218952   2.901   1.246   0.736 -0.8647  0.5269 -1.1873
 4795SOL    HW318953   2.850   1.111   0.690 -0.7176 -0.0103  0.1695
 4795SOL    MW418954   2.909   1.175   0.687  0.2145 -0.1709 -0.8072
 4796SOL     OW18955   0.481   1.073   0.768 -0.5121  0.1601 -0.3283
 4796SOL    HW218956   0.499   0.994   0.717  0.4274  1.0517 -1.4250
 4796SOL    HW318957   0.470   1.142   0.703  1.6788  1.5319  0.6492
 4796SOL    MW418958   0.482   1.071   0.752  0.6748  0.3832 -0.5063
 4797SOL     OW18959   0.481   4.242   1.241  0.1164  0.4425 -0.2252
 4797SOL    HW218960   0.496   4.252   1.147 -0.1965  0.1701 -0.3062
 4797SOL    HW318961   0.423   4.314   1.264 -1.5409 -0.6863 -0.6655
 4797SOL    MW418962   0.475   4.253   1.232 -0.7444  0.2315  0.2588
 4798SOL     OW18963   3.322   6.404   6.029  0.2225  0.6399  0.3617
 4798SOL    HW218964   3.287   6.493   6.034  1.8873  1.2926  0.7088
 4798SOL    HW318965   3.338   6.389   5.936 -0.7231  0.4105  0.2206
 4798SOL    MW418966   3.319   6.414   6.018  0.5798 -0.3020  0.3267
 4799SOL     OW18967   6.009   2.882   5.762 -0.0418  0.2166  0.4308
 4799SOL    HW218968   6.025   2.868   5.668 -0.3028 -1.1481  0.5603
 4799SOL    HW318969   6.013   2.977   5.774 -3.8314  0.8730 -1.7142
 4799SOL    MW418970   6.012   2.893   5.751 -0.1480  0.3932 -0.0908
 4800SOL     OW18971   1.411   2.149   1.599 -0.1083 -0.6369 -0.6987
 4800SOL    HW218972   1.505   2.163   1.582  0.2669 -2.1036  0.0255
 4800SOL    HW318973   1.370   2.233   1.575  1.1402 -0.5200 -2.7386
 4800SOL    MW418974   1.418   2.162   1.593  0.2318  0.0582  0.7141
 4801SOL     OW18975   0.429   1.084   2.265 -0.1971 -0.5545 -0.4286
 4801SOL    HW218976   0.439   0.993   2.238 -1.7854 -0.8919  0.0865
 4801SOL    HW318977   0.500   1.098   2.328  0.9067 -0.9953 -1.5069
 4801SOL    MW418978   0.440   1.074   2.270 -0.2660 -0.3200  0.1217
 4802SOL     OW18979   4.627   5.293   1.222 -0.3041  0.0096  0.4594
 4802SOL    HW218980   4.720   5.272   1.207 -0.3062  0.1799  0.1948
 4802SOL    HW318981   4.628   5.383   1.255 -0.4545  0.5247 -0.8573
 4802SOL    MW418982   4.640   5.302   1.224  0.1548 -0.3135 -0.3215
 4803SOL     OW18983   2.025   1.528   4.264  0.8139 -0.4617  0.3408
 4803SOL    HW218984   1.971   1.464   4.218  0.8390 -1.1749  1.2914
 4803SOL    HW318985   2.014   1.609   4.213  0.3554 -1.0682 -0.5587
 4803SOL    MW418986   2.017   1.530   4.251  0.9187  0.2851 -0.3821
 4804SOL     OW18987   3.957   1.263   4.351  0.2640 -0.4801  0.6731
 4804SOL    HW218988   4.041   1.283   4.309  0.0866  1.5280  1.1948
 4804SOL    HW318989   3.971   1.281   4.444 -1.1977  1.6789  0.5444
 4804SOL    MW418990   3.970   1.268   4.357 -0.1638  0.3022  0.5939
 4805SOL     OW18991   3.324   3.164   1.880 -0.1916 -0.0603 -0.0946
 4805SOL    HW218992   3.253   3.118   1.925 -1.7705  1.3982 -0.9623
 4805SOL    HW318993   3.289   3.252   1.863  2.2135  1.0805  0.3409
 4805SOL    MW418994   3.310   3.170   1.884  1.0788 -0.8216  0.6156
 4806SOL     OW18995   5.854   1.232   5.554  0.2890 -0.7246 -0.1521
 4806SOL    HW218996   5.926   1.250   5.493 -0.0859  1.4808 -0.0149
 4806SOL    HW318997   5.779   1.215   5.497 -0.2810  2.2431 -0.4089
 4806SOL    MW418998   5.854   1.232   5.538  0.5973 -0.2945 -0.2213
 4807SOL     OW18999   4.109   5.109   1.803 -0.7935  0.3355 -0.3291
 4807SOL    HW219000   4.145   5.171   1.740 -0.1850  0.6414  0.3150
 4807SOL    HW319001   4.089   5.161   1.881 -2.2300  0.0932 -0.4973
 4807SOL    MW419002   4.111   5.124   1.805  0.0926 -0.5577 -0.0988
 4808SOL     OW19003   5.891   5.540   4.472 -0.0311  0.2489  0.4389
 4808SOL    HW219004   5.936   5.579   4.398 -0.2939  0.5158  0.4195
 4808SOL    HW319005   5.856   5.614   4.521 -0.9009  0.0287  0.1718
 4808SOL    MW419006   5.893   5.555   4.469 -0.3918 -0.0841 -0.4132
 4809SOL     OW19007   3.787   6.028   1.851  0.5330 -0.8876  0.0520
 4809SOL    HW219008   3.723   5.983   1.795 -0.5871 -1.0370  1.3916
 4809SOL    HW319009   3.734   6.085   1.906  1.6848 -0.1467  0.4240
 4809SOL    MW419010   3.772   6.030   1.851  0.0273 -0.2859 -0.1713
 4810SOL     OW19011   1.253   3.780   2.559  0.3585 -0.4215  0.7060
 4810SOL    HW219012   1.269   3.719   2.630  0.1826 -1.6167 -0.2551
 4810SOL    HW319013   1.328   3.771   2.501  0.8552  1.0670  1.0678
 4810SOL    MW419014   1.265   3.771   2.561 -0.0568 -0.2270 -0.1082
 4811SOL     OW19015   1.631   0.971   3.628  0.0785 -0.8914 -0.5145
 4811SOL    HW219016   1.660   0.886   3.658  2.2114 -0.1112 -0.2258
 4811SOL    HW319017   1.645   1.030   3.702  0.8124  0.1340 -1.4315
 4811SOL    MW419018   1.637   0.968   3.642  0.1265  0.0098  0.1886
 4812SOL     OW19019   4.404   2.499   4.970 -0.2312  0.1779  0.3702
 4812SOL    HW219020   4.457   2.467   4.897 -2.3606 -1.9040 -0.4050
 4812SOL    HW319021   4.391   2.592   4.952  0.1011 -0.0759 -1.3853
 4812SOL    MW419022   4.410   2.507   4.958 -0.1936  0.7554  0.0978
 4813SOL     OW19023   1.603   3.878   3.004 -0.4816 -0.2377  0.0932
 4813SOL    HW219024   1.521   3.865   3.051 -0.0531 -1.8517  0.4681
 4813SOL    HW319025   1.615   3.798   2.953  0.9615 -0.1339  0.2125
 4813SOL    MW419026   1.594   3.866   3.004 -0.4085  0.0223  0.3711
 4814SOL     OW19027   3.047   6.254   4.734 -0.0108  0.2012  0.0957
 4814SOL    HW219028   3.094   6.174   4.757 -0.3367 -0.4274 -1.2775
 4814SOL    HW319029   3.092   6.286   4.656  0.0134  1.2840  0.5470
 4814SOL    MW419030   3.059   6.247   4.727 -0.0072  0.1810  0.1212
 4815SOL     OW19031   2.893   2.698   0.299 -0.5398  0.2598  0.2722
 4815SOL    HW219032   2.868   2.775   0.350 -0.2936  0.5562 -0.0569
 4815SOL    HW319033   2.868   2.624   0.355 -1.3724  0.5586  0.3080
 4815SOL    MW419034   2.886   2.698   0.313  0.0797 -0.1223 -0.0469
 4816SOL     OW19035   1.413   4.287   5.684 -0.0583  0.4807 -0.3117
 4816SOL    HW219036   1.330   4.307   5.727 -0.7729 -0.4928 -1.1788
 4816SOL    HW319037   1.480   4.323   5.743 -1.0062 -0.4707  1.4350
 4816SOL    MW419038   1.411   4.294   5.698 -0.0943  0.0274  0.6669
 4817SOL     OW19039   0.592   2.396   1.223 -0.0456 -0.0541  0.1796
 4817SOL    HW219040   0.684   2.405   1.198 -0.2671  0.4708 -0.4788
 4817SOL    HW319041   0.553   2.347   1.151 -0.9474  2.4814 -1.1988
 4817SOL    MW419042   0.599   2.391   1.210 -0.0544  0.0445 -0.0024
 4818SOL     OW19043   6.154   2.435   0.525 -0.3918 -0.2125 -0.3725
 4818SOL    HW219044   6.175   2.512   0.577  0.3166 -0.4289 -0.3323
 4818SOL    HW319045   6.059   2.427   0.533 -0.2523 -0.5727  1.3611
 4818SOL    MW419046   6.144   2.444   0.533 -0.1944 -0.1985  0.0883
 4819SOL     OW19047   4.034   1.970   1.756  0.3919 -0.6495 -0.6803
 4819SOL    HW219048   4.085   2.040   1.797 -1.0403 -1.2169  2.2444
 4819SOL    HW319049   3.997   2.010   1.677  1.0936  1.3056 -0.0614
 4819SOL    MW419050   4.036   1.984   1.751  0.3351  0.2759  0.2631
 4820SOL     OW19051   5.044   5.631   4.919  0.7015  0.0432 -0.4592
 4820SOL    HW219052   5.050   5.704   4.980  0.1783 -1.3974  1.3921
 4820SOL    HW319053   4.969   5.653   4.863 -0.2893  0.3114  0.9375
 4820SOL    MW419054   5.035   5.644   4.919  0.0369 -0.6022  0.1796
 4821SOL     OW19055   4.248   0.668   0.420  0.2449  0.2380  0.2285
 4821SOL    HW219056   4.160   0.701   0.404 -0.2967 -0.8800  0.8349
 4821SOL    HW319057   4.299   0.698   0.344 -0.6259  0.9609 -0.0832
 4821SOL    MW419058   4.243   0.677   0.408  0.1694 -0.0656 -0.0532
 4822SOL     OW19059   2.066   0.304   1.291 -0.4629  0.6938  0.1076
 4822SOL    HW219060   2.015   0.243   1.344 -1.3176  0.0353 -1.4353
 4822SOL    HW319061   2.014   0.384   1.290 -1.6767 -0.0505 -1.6636
 4822SOL    MW419062   2.053   0.307   1.298 -0.0323  0.0848 -0.3571
 4823SOL     OW19063   6.078   1.870   4.960 -0.0185  0.3963  0.8494
 4823SOL    HW219064   5.998   1.884   4.909  0.1273  1.1304  0.8084
 4823SOL    HW319065   6.048   1.866   5.051 -0.3054 -1.1337  0.7091
 4823SOL    MW419066   6.063   1.872   4.965  0.0375  0.1787 -0.1918
 4824SOL     OW19067   6.383   3.253   2.593  0.0892 -0.1033  0.2976
 4824SOL    HW219068   6.349   3.300   2.517 -0.0118  1.6266  1.3429
 4824SOL    HW319069   6.305   3.227   2.642  0.1761 -0.1496  0.4107
 4824SOL    MW419070   6.368   3.256   2.589 -0.0204 -0.3147 -0.2699
 4825SOL     OW19071   0.791   1.460   2.675 -0.2192  0.0847 -0.0739
 4825SOL    HW219072   0.714   1.477   2.730 -1.1136 -1.2018 -0.8606
 4825SOL    HW319073   0.851   1.411   2.732  0.0352  1.1047  0.5497
 4825SOL    MW419074   0.789   1.456   2.690  0.0870  0.3629 -0.1674
 4826SOL     OW19075   3.569   0.998   1.279  0.0696  0.5469 -0.2045
 4826SOL    HW219076   3.663   1.009   1.286  0.2584 -0.8179 -0.4258
 4826SOL    HW319077   3.545   0.940   1.351  0.0133 -2.2760 -2.3250
 4826SOL    MW419078   3.578   0.992   1.289 -0.2299  0.1446 -0.4129
 4827SOL     OW19079   0.425   4.102   2.234  0.0624 -0.0883  0.4749
 4827SOL    HW219080   0.374   4.174   2.272 -0.2254 -1.0078  1.9187
 4827SOL    HW319081   0.514   4.135   2.230 -0.3473  0.9671 -0.5603
 4827SOL    MW419082   0.430   4.116   2.238 -0.1016  0.1848  0.5126
 4828SOL     OW19083   2.380   1.702   1.036 -0.0772  0.1418 -0.0551
 4828SOL    HW219084   2.403   1.776   0.980 -0.5858 -0.7145 -1.4507
 4828SOL    HW319085   2.303   1.732   1.085  0.3336  0.8802  0.1553
 4828SOL    MW419086   2.373   1.716   1.035 -0.2232  0.7382  0.6485
 4829SOL     OW19087   1.354   0.698   0.231 -0.2764  0.1876 -0.4057
 4829SOL    HW219088   1.346   0.663   0.320  0.7998 -0.4078 -0.5322
 4829SOL    HW319089   1.263   0.715   0.205 -0.5887  0.7752  0.9526
 4829SOL    MW419090   1.341   0.696   0.240 -0.1134  0.1069 -0.0749
 4830SOL     OW19091   5.156   4.194   3.744 -0.1888  0.1756  0.3153
 4830SOL    HW219092   5.121   4.210   3.657  2.1025 -0.9899 -0.9093
 4830SOL    HW319093   5.249   4.218   3.737 -0.2205  1.4067  2.8655
 4830SOL    MW419094   5.164   4.199   3.732 -0.4981 -0.2399 -0.2495
 4831SOL     OW19095   1.692   4.647   1.826 -0.2491  0.2281 -0.1046
 4831SOL    HW219096   1.765   4.684   1.776 -0.4377  0.0222 -0.5412
 4831SOL    HW319097   1.639   4.602   1.761 -0.3026 -0.3663  0.3411
 4831SOL    MW419098   1.694   4.646   1.811  0.1127  0.2082 -0.2204
 4832SOL     OW19099   1.861   5.741   3.997 -0.1990  0.0806 -0.0902
 4832SOL    HW219100   1.856   5.791   4.079  0.7132  0.8414 -0.4811
 4832SOL    HW319101   1.946   5.764   3.960  0.3230 -1.8826 -0.2230
 4832SOL    MW419102   1.871   5.750   4.003 -0.5473 -0.2012 -0.4704
 4833SOL     OW19103   1.804   1.630   0.779  0.1502  0.0317  0.7741
 4833SOL    HW219104   1.845   1.582   0.851  4.6491  0.3579 -1.2530
 4833SOL    HW319105   1.757   1.563   0.729  0.4758 -0.9632  1.7626
 4833SOL    MW419106   1.803   1.615   0.782 -0.1828  0.2785  0.0576
 4834SOL     OW19107   2.476   0.580   2.831 -0.2458  0.2229 -0.7199
 4834SOL    HW219108   2.458   0.632   2.753 -0.4540  1.3914  0.0835
 4834SOL    HW319109   2.572   0.571   2.832  0.0545  2.7635  0.4344
 4834SOL    MW419110   2.486   0.585   2.821  0.0847 -0.1435 -0.7481
 4835SOL     OW19111   1.727   0.346   5.496 -0.1979  0.2690  0.0915
 4835SOL    HW219112   1.726   0.263   5.544  0.4520  0.7621  0.9817
 4835SOL    HW319113   1.751   0.411   5.561 -2.1785  1.4120 -0.2223
 4835SOL    MW419114   1.730   0.343   5.511  0.1965  0.1292 -0.3246
 4836SOL     OW19115   6.352   0.715   4.458  0.2827  0.7050  0.4210
 4836SOL    HW219116   6.262   0.707   4.489 -0.5818  3.6936 -0.9851
 4836SOL    HW319117   6.372   0.629   4.422 -2.2190  0.0986  0.2728
 4836SOL    MW419118   6.343   0.703   4.458 -0.6567  0.2158  0.1461
 4837SOL     OW19119   6.341   0.938   4.249  0.2506  0.2644 -0.2768
 4837SOL    HW219120   6.335   1.017   4.303  0.7052 -0.3255  0.6640
 4837SOL    HW319121   6.315   0.867   4.308 -1.1639 -0.2003 -1.3860
 4837SOL    MW419122   6.336   0.939   4.264  0.2569  0.5543  0.3015
 4838SOL     OW19123   0.082   5.535   4.395 -0.3330 -0.1910  0.2604
 4838SOL    HW219124   0.088   5.586   4.476 -1.6224 -1.3836  1.1466
 4838SOL    HW319125   0.062   5.600   4.327 -0.6973  0.6381  1.1424
 4838SOL    MW419126   0.080   5.551   4.397  0.2629  0.2409  0.2716
 4839SOL     OW19127   1.092   2.809   2.173 -0.0319  0.4991  0.3118
 4839SOL    HW219128   1.103   2.788   2.080  1.6073 -0.0539  0.5969
 4839SOL    HW319129   1.109   2.726   2.218 -0.2869  0.8848  1.1353
 4839SOL    MW419130   1.096   2.795   2.166 -0.5747  0.0995  0.1589
 4840SOL     OW19131   2.408   5.813   4.726  0.3541 -0.2185 -0.1915
 4840SOL    HW219132   2.399   5.747   4.657 -1.3176 -0.1770 -0.0471
 4840SOL    HW319133   2.323   5.857   4.729  0.6534  0.3194  1.3464
 4840SOL    MW419134   2.396   5.810   4.718  0.2635 -0.0681 -0.0796
 4841SOL     OW19135   2.810   3.712   2.730 -0.5228 -0.1970 -0.6558
 4841SOL    HW219136   2.843   3.684   2.645  0.2711 -3.4239  0.5298
 4841SOL    HW319137   2.846   3.648   2.791 -1.9556  1.3241  1.9784
 4841SOL    MW419138   2.819   3.700   2.727  0.7633  0.4282  0.7472
 4842SOL     OW19139   4.370   6.083   1.638  0.4983  0.2704  0.3447
 4842SOL    HW219140   4.429   6.129   1.697 -0.2280  1.2814  0.3049
 4842SOL    HW319141   4.296   6.143   1.626 -1.5728 -1.7451  2.0362
 4842SOL    MW419142   4.368   6.097   1.644 -0.1846 -0.4745  0.2571
 4843SOL     OW19143   1.703   3.573   3.875 -0.3188  0.3336 -0.3644
 4843SOL    HW219144   1.730   3.517   3.947 -0.1285  1.0443  0.1283
 4843SOL    HW319145   1.612   3.548   3.857 -0.9011  1.2287  1.1859
 4843SOL    MW419146   1.694   3.563   3.882 -0.0377  0.2096  0.3195
 4844SOL     OW19147   1.717   0.463   0.143 -0.3140 -0.3128 -0.1488
 4844SOL    HW219148   1.730   0.468   0.237  0.7067  0.0227 -0.2999
 4844SOL    HW319149   1.756   0.379   0.118 -0.6232 -0.4223 -0.2681
 4844SOL    MW419150   1.724   0.453   0.152 -0.0723 -0.4307  0.5374
 4845SOL     OW19151   2.411   1.176   4.205 -0.0032  0.4678 -0.0931
 4845SOL    HW219152   2.450   1.114   4.266 -0.7829 -0.4037 -0.4516
 4845SOL    HW319153   2.471   1.250   4.203  1.5468 -0.7588 -0.5110
 4845SOL    MW419154   2.424   1.178   4.213 -0.0361 -0.2462 -0.1714
 4846SOL     OW19155   1.024   0.089   5.682  0.3766  0.0486 -0.1293
 4846SOL    HW219156   1.025  -0.006   5.689  1.0319  0.1808  2.6334
 4846SOL    HW319157   0.980   0.118   5.762 -1.0842  2.0712 -1.5697
 4846SOL    MW419158   1.018   0.080   5.694  0.1749 -0.0110 -0.0712
 4847SOL     OW19159   0.701   0.261   0.318 -0.1640 -0.2170  0.1106
 4847SOL    HW219160   0.729   0.343   0.278 -1.4023 -0.1923 -0.7658
 4847SOL    HW319161   0.631   0.286   0.378 -0.1232 -0.5683  0.3092
 4847SOL    MW419162   0.695   0.275   0.321 -0.0394  0.4038  0.1918
 4848SOL     OW19163   1.094   5.501   0.940 -0.0681 -0.1288  0.4212
 4848SOL    HW219164   1.157   5.550   0.992  1.0387 -1.3268  0.2808
 4848SOL    HW319165   1.103   5.536   0.851  0.6980 -0.5360  0.3275
 4848SOL    MW419166   1.103   5.512   0.935 -0.5191  0.6908  0.2197
 4849SOL     OW19167   2.823   1.559   5.708  0.2991  0.2261  0.4142
 4849SOL    HW219168   2.781   1.629   5.758  1.7081  1.1687  0.3228
 4849SOL    HW319169   2.853   1.497   5.775  1.1702  0.9193  0.6856
 4849SOL    MW419170   2.822   1.560   5.723  0.2043  0.5382 -0.1586
 4850SOL     OW19171   4.197   0.644   2.679 -0.0410  0.2915  0.1430
 4850SOL    HW219172   4.254   0.704   2.727  1.0027 -0.6360  0.1076
 4850SOL    HW319173   4.174   0.576   2.742 -0.4119  0.2049 -0.0806
 4850SOL    MW419174   4.201   0.643   2.693  0.1621  0.0557  0.1269
 4851SOL     OW19175   2.914   2.981   4.847  0.1887 -0.2163 -0.1328
 4851SOL    HW219176   2.966   2.904   4.869  1.8313  1.0969  0.8071
 4851SOL    HW319177   2.887   2.967   4.757  1.6115 -1.2542 -0.4303
 4851SOL    MW419178   2.917   2.969   4.838  0.8818  0.2727 -0.1065
 4852SOL     OW19179   6.214   1.402   5.673 -0.5733 -0.1494  0.1172
 4852SOL    HW219180   6.224   1.334   5.739 -2.3661 -0.8938 -0.3130
 4852SOL    HW319181   6.296   1.402   5.624  0.1417 -0.7155  1.2939
 4852SOL    MW419182   6.226   1.393   5.675  0.2392 -0.1075 -0.5040
 4853SOL     OW19183   6.402   1.682   3.795 -0.3583 -0.0961 -0.0278
 4853SOL    HW219184   6.322   1.678   3.742 -0.5272  0.5872  0.1650
 4853SOL    HW319185   6.461   1.619   3.754 -1.1101 -0.8559  0.0208
 4853SOL    MW419186   6.399   1.673   3.783  0.4664  0.5877 -0.0667
 4854SOL     OW19187   3.068   1.917   5.860  0.3235  0.1950 -0.0925
 4854SOL    HW219188   2.995   1.952   5.809  0.4061 -0.9339 -1.0304
 4854SOL    HW319189   3.117   1.994   5.889  0.0799  0.8917 -1.4581
 4854SOL    MW419190   3.065   1.932   5.857  0.2661  0.7852 -0.0161
 4855SOL     OW19191   2.003   0.107   5.480 -0.3275 -0.3991 -0.5044
 4855SOL    HW219192   2.087   0.100   5.435 -0.0975 -2.6329  0.1783
 4855SOL    HW319193   1.941   0.127   5.410  0.8841  2.8847 -0.8274
 4855SOL    MW419194   2.006   0.109   5.465  0.1905 -0.4149 -0.4120
 4856SOL     OW19195   4.700   0.634   3.361  0.0192  0.7006 -0.3817
 4856SOL    HW219196   4.627   0.582   3.395  1.2221 -0.8438 -0.0236
 4856SOL    HW319197   4.746   0.664   3.439  1.5152 -0.9917 -0.5239
 4856SOL    MW419198   4.697   0.631   3.376 -0.2214 -0.1879  0.4150
 4857SOL     OW19199   4.199   5.279   4.731 -0.9246 -0.3077 -0.4323
 4857SOL    HW219200   4.264   5.213   4.758  0.7865  0.6013 -2.0852
 4857SOL    HW319201   4.152   5.237   4.659  0.4024  0.3143 -1.7226
 4857SOL    MW419202   4.202   5.265   4.725  0.1256  0.1065  0.1257
 4858SOL     OW19203   2.017   0.061   4.649  0.1615  0.0335 -0.3920
 4858SOL    HW219204   2.062   0.142   4.623 -0.5746  0.6127  0.0852
 4858SOL    HW319205   1.995   0.019   4.566 -0.2525  0.7767 -0.6715
 4858SOL    MW419206   2.020   0.066   4.634 -0.6002 -0.4216  0.3641
 4859SOL     OW19207   1.468   0.403   0.042  0.1618 -0.1820 -0.1738
 4859SOL    HW219208   1.490   0.319   0.001  3.6266  0.2840  0.4312
 4859SOL    HW319209   1.552   0.441   0.065 -1.4064  2.1889  2.2126
 4859SOL    MW419210   1.482   0.397   0.040  0.1965  0.5384  0.4399
 4860SOL     OW19211   4.368   2.175   2.870 -0.6794 -0.4700 -0.1084
 4860SOL    HW219212   4.348   2.219   2.787  0.9858  1.6192  0.5020
 4860SOL    HW319213   4.283   2.163   2.912 -1.4902 -0.9841 -1.8123
 4860SOL    MW419214   4.354   2.179   2.864  0.3152 -0.4408  0.0014
 4861SOL     OW19215   1.164   2.545   5.502  0.1850 -0.5971 -0.1256
 4861SOL    HW219216   1.183   2.471   5.446  0.9133  0.2746 -1.0726
 4861SOL    HW319217   1.108   2.602   5.449 -1.2490 -0.9203  0.9611
 4861SOL    MW419218   1.159   2.543   5.488 -0.0449 -0.1322 -0.1836
 4862SOL     OW19219   1.887   4.987   0.229  0.0673 -0.1983 -0.1875
 4862SOL    HW219220   1.872   5.016   0.139  0.3232 -1.6117 -0.7039
 4862SOL    HW319221   1.842   4.904   0.237 -0.6459  0.2818  1.2694
 4862SOL    MW419222   1.879   4.980   0.218  0.1780  0.2416 -0.4243
 4863SOL     OW19223   3.477   2.521   4.702 -0.2621  0.1461  0.6017
 4863SOL    HW219224   3.563   2.546   4.735 -0.7906  1.0664  1.2940
 4863SOL    HW319225   3.466   2.573   4.623 -0.5612  0.6924  1.0037
 4863SOL    MW419226   3.487   2.531   4.696 -0.0609 -0.0611 -0.5995
 4864SOL     OW19227   6.187   2.769   3.683  0.0466  0.6721  0.3717
 4864SOL    HW219228   6.220   2.828   3.615  0.0817 -0.6271 -0.7712
 4864SOL    HW319229   6.182   2.684   3.641 -0.2037 -0.1188  1.9352
 4864SOL    MW419230   6.190   2.766   3.669 -0.2062 -0.3399  0.6889
 4865SOL     OW19231   2.545   3.243   1.153 -0.5992 -0.5280 -0.2718
 4865SOL    HW219232   2.484   3.309   1.123 -0.4868 -0.0058  0.6116
 4865SOL    HW319233   2.544   3.250   1.248 -1.8895 -2.9555 -0.0116
 4865SOL    MW419234   2.537   3.252   1.162  0.2099  0.3086 -0.5310
 4866SOL     OW19235   5.842   4.300   2.673  0.6463 -0.3753  0.0746
 4866SOL    HW219236   5.821   4.390   2.647  1.7258 -0.2233 -0.3697
 4866SOL    HW319237   5.760   4.264   2.705 -0.3418  0.0849 -1.7485
 4866SOL    MW419238   5.829   4.307   2.674 -0.1569  1.3211  0.1172
 4867SOL     OW19239   1.883   3.802   2.532 -0.2862  0.1537  0.2616
 4867SOL    HW219240   1.792   3.779   2.550  0.1394 -1.2193  0.8051
 4867SOL    HW319241   1.883   3.897   2.526 -1.7359  0.1812  0.3524
 4867SOL    MW419242   1.871   3.811   2.534  0.2187 -0.6657  0.1654
 4868SOL     OW19243   5.951   4.442   3.372  0.2412  0.4808 -0.4558
 4868SOL    HW219244   5.918   4.387   3.302 -1.3175  1.0561 -0.2258
 4868SOL    HW319245   5.974   4.525   3.329  0.9703  0.2393 -0.5430
 4868SOL    MW419246   5.949   4.446   3.357 -0.1547  0.1130 -0.2267
 4869SOL     OW19247   0.838   6.203   1.775  0.1509 -0.7737 -0.5484
 4869SOL    HW219248   0.789   6.121   1.764  0.9026 -1.0831 -1.9266
 4869SOL    HW319249   0.781   6.270   1.739  0.2532 -0.9723 -1.1035
 4869SOL    MW419250   0.824   6.201   1.769  0.2651  0.4332 -0.1618
 4870SOL     OW19251   3.197   5.841   4.387  0.1138 -0.0103 -0.3698
 4870SOL    HW219252   3.220   5.933   4.378 -1.7459  0.5133 -0.2132
 4870SOL    HW319253   3.251   5.809   4.459 -1.3320  1.7723  1.6358
 4870SOL    MW419254   3.207   5.849   4.395 -0.1577 -0.2672  0.4262
 4871SOL     OW19255   3.094   3.144   4.159 -0.8724 -0.2057  0.3465
 4871SOL    HW219256   3.104   3.060   4.204  0.5099  0.0267  0.5220
 4871SOL    HW319257   3.166   3.146   4.096 -0.0649  1.3980  1.2654
 4871SOL    MW419258   3.105   3.133   4.156 -0.1308  0.3973 -0.6176
 4872SOL     OW19259   5.465   2.163   5.816 -0.0749  0.1775 -0.1916
 4872SOL    HW219260   5.402   2.231   5.841  0.5838  1.6995 -2.3506
 4872SOL    HW319261   5.547   2.210   5.805  1.0606 -1.4785  0.8609
 4872SOL    MW419262   5.467   2.178   5.818 -0.0641  0.4732  0.4860
 4873SOL     OW19263   4.114   0.276   3.621  0.5347  0.5630 -0.2589
 4873SOL    HW219264   4.180   0.254   3.687 -0.3499  1.2879  0.9012
 4873SOL    HW319265   4.115   0.202   3.561 -1.6559 -2.3720  2.9422
 4873SOL    MW419266   4.123   0.263   3.622  0.4729 -0.5621  0.4088
 4874SOL     OW19267   0.911   4.525   2.798 -0.3243  0.1540 -0.2910
 4874SOL    HW219268   0.909   4.524   2.702 -1.6112 -0.0822 -0.2749
 4874SOL    HW319269   0.940   4.436   2.821 -2.1271 -0.5145 -0.4558
 4874SOL    MW419270   0.915   4.513   2.788 -0.2028  0.0504  0.2261
 4875SOL     OW19271   1.383   2.385   4.374  0.4997 -0.5952  0.2080
 4875SOL    HW219272   1.395   2.467   4.326  2.4616 -0.5989  0.5947
 4875SOL    HW319273   1.342   2.326   4.310 -2.0789  0.9674  0.2830
 4875SOL    MW419274   1.379   2.388   4.359 -0.2522  0.0489  0.4221
 4876SOL     OW19275   2.389   3.785   2.075  0.6816 -0.0051  0.3136
 4876SOL    HW219276   2.337   3.833   2.010 -0.9351 -0.8785  0.9110
 4876SOL    HW319277   2.442   3.724   2.024  0.2219  0.0646 -0.2493
 4876SOL    MW419278   2.389   3.783   2.060 -0.2927 -0.1243 -0.2364
 4877SOL     OW19279   4.177   3.965   2.373  0.0776 -0.1681 -0.0836
 4877SOL    HW219280   4.134   4.000   2.452 -0.9879  2.0110 -1.5289
 4877SOL    HW319281   4.196   3.874   2.395 -2.3768 -0.3301  1.8301
 4877SOL    MW419282   4.174   3.957   2.386 -0.7038  0.3265  0.1430
 4878SOL     OW19283   3.969   3.284   1.102  0.0371 -0.1864  0.0609
 4878SOL    HW219284   3.905   3.351   1.079  0.1963 -0.3500 -0.8889
 4878SOL    HW319285   3.994   3.244   1.018  0.7664 -0.6828  0.5005
 4878SOL    MW419286   3.964   3.288   1.088  0.3819 -0.7997 -0.5853
 4879SOL     OW19287   5.904   2.503   1.935 -0.4074  0.3848 -0.2059
 4879SOL    HW219288   5.988   2.492   1.979 -0.1688  1.8224 -0.2697
 4879SOL    HW319289   5.927   2.533   1.847 -0.9625 -0.3903 -0.6317
 4879SOL    MW419290   5.918   2.505   1.929 -0.0107  0.1464  0.4595
 4880SOL     OW19291   0.512   0.323   0.509  0.0135  0.0008  0.3692
 4880SOL    HW219292   0.437   0.379   0.489  2.1434  2.1915 -2.3294
 4880SOL    HW319293   0.555   0.366   0.583 -0.2444 -0.0360  0.5395
 4880SOL    MW419294   0.508   0.336   0.516  0.2670 -0.3343  0.5196
 4881SOL     OW19295   0.531   2.409   0.301  0.0591  0.1543  0.0520
 4881SOL    HW219296   0.452   2.367   0.268  1.1557 -1.5808 -0.5184
 4881SOL    HW319297   0.501   2.491   0.340 -2.0710 -0.6999  0.3164
 4881SOL    MW419298   0.517   2.414   0.302  0.4038  0.0006 -0.4770
 4882SOL     OW19299   0.994   0.424  -0.027  0.4252 -0.0652  0.1165
 4882SOL    HW219300   1.079   0.455  -0.059  0.2274  0.7558  0.3734
 4882SOL    HW319301   1.012   0.335   0.005  1.0502 -0.1381 -0.4166
 4882SOL    MW419302   1.008   0.416  -0.027 -0.1529  0.3908  0.2332
 4883SOL     OW19303   5.455   3.916   4.676  0.0541 -0.0488  0.5102
 4883SOL    HW219304   5.446   3.852   4.606 -0.6313 -0.5012  0.9945
 4883SOL    HW319305   5.514   3.983   4.641  1.1794 -1.1794  0.1779
 4883SOL    MW419306   5.461   3.917   4.662 -0.2754 -0.4862  0.3163
 4884SOL     OW19307   1.246   5.171   3.460 -0.2077  0.2033  0.2507
 4884SOL    HW219308   1.162   5.153   3.502 -2.4887  1.3035 -3.2933
 4884SOL    HW319309   1.265   5.092   3.410 -0.8973  1.0429 -1.4222
 4884SOL    MW419310   1.237   5.158   3.459 -0.0182 -0.2181  0.2116
 4885SOL     OW19311   0.606   2.658   2.915 -0.1000 -0.5799 -0.2567
 4885SOL    HW219312   0.519   2.657   2.876  0.1692  0.3859 -0.9335
 4885SOL    HW319313   0.663   2.693   2.846  0.3819  1.3144  1.0262
 4885SOL    MW419314   0.602   2.663   2.901 -0.4614  0.2234 -0.0342
 4886SOL     OW19315   4.830   2.695   0.871  0.2459 -0.4078  0.1571
 4886SOL    HW219316   4.917   2.662   0.850  0.9970  2.1995 -1.2185
 4886SOL    HW319317   4.771   2.623   0.848  1.8740 -1.3905 -1.1699
 4886SOL    MW419318   4.833   2.681   0.865  0.0065  0.1536 -0.1779
 4887SOL     OW19319   0.437   0.469   3.022 -0.4166 -0.1874  0.1675
 4887SOL    HW219320   0.418   0.537   2.958 -1.7528 -1.0289 -0.3835
 4887SOL    HW319321   0.521   0.433   2.993  0.0812  0.9076  0.2056
 4887SOL    MW419322   0.445   0.473   3.009  0.4274 -0.3328 -0.4025
 4888SOL     OW19323   0.173   5.764   5.893  0.0548 -0.0279  0.1097
 4888SOL    HW219324   0.201   5.766   5.984 -1.3433  0.2396  0.5609
 4888SOL    HW319325   0.250   5.734   5.845  1.0006  0.4133  1.2953
 4888SOL    MW419326   0.187   5.760   5.899  0.5109  0.0950 -0.2907
 4889SOL     OW19327   2.952   3.993   5.442 -0.0567 -0.3853 -0.2618
 4889SOL    HW219328   2.954   4.013   5.348  1.0183 -1.6264 -0.5369
 4889SOL    HW319329   2.861   3.971   5.460 -0.6229  1.4518 -0.6205
 4889SOL    MW419330   2.941   3.993   5.432  0.3554 -0.6183 -0.0027
 4890SOL     OW19331   5.776   2.746   4.880 -0.2738 -0.7088  0.3801
 4890SOL    HW219332   5.829   2.822   4.905 -0.5895 -0.2255 -0.3981
 4890SOL    HW319333   5.815   2.715   4.798 -0.4396 -1.1156  0.4492
 4890SOL    MW419334   5.788   2.752   4.873 -0.5134  0.4402  0.4782
 4891SOL     OW19335   3.494   4.006   0.336 -0.9229 -0.3241  0.1850
 4891SOL    HW219336   3.427   3.940   0.354 -2.1800  0.3984 -1.5506
 4891SOL    HW319337   3.533   3.978   0.253  0.0561 -0.0478  0.5403
 4891SOL    MW419338   3.491   3.994   0.328  0.2037 -0.3111  0.6189
 4892SOL     OW19339   0.692   3.421   2.826  0.1934 -0.2125 -0.2816
 4892SOL    HW219340   0.616   3.414   2.885 -0.2556 -1.8814 -1.0064
 4892SOL    HW319341   0.730   3.507   2.846 -0.5376 -0.3039  1.7059
 4892SOL    MW419342   0.687   3.431   2.837 -0.3388 -0.1495  0.0641
 4893SOL     OW19343   5.238   0.380   4.733 -0.3596 -0.0876 -0.7302
 4893SOL    HW219344   5.235   0.416   4.821  1.4443 -0.3107 -0.5329
 4893SOL    HW319345   5.216   0.287   4.744  0.7081 -0.3082 -0.3716
 4893SOL    MW419346   5.235   0.373   4.746  0.4031 -0.2755 -0.1080
 4894SOL     OW19347   3.731   4.973   3.717 -0.0652  0.5976 -0.3403
 4894SOL    HW219348   3.791   5.042   3.745  0.3097 -0.3934  1.4367
 4894SOL    HW319349   3.722   4.917   3.794 -2.3889  0.0841 -0.9309
 4894SOL    MW419350   3.738   4.975   3.731  0.1027  0.1032 -0.2011
 4895SOL     OW19351   6.274   3.414   0.247  0.0525 -0.3647 -0.2573
 4895SOL    HW219352   6.248   3.479   0.312 -0.4247 -1.3498  0.5605
 4895SOL    HW319353   6.342   3.362   0.291 -1.1320 -1.8062 -0.0801
 4895SOL    MW419354   6.280   3.416   0.261  0.2250  0.0020 -0.2434
 4896SOL     OW19355   1.224   2.030   3.252 -0.4558 -0.6631  0.1622
 4896SOL    HW219356   1.146   1.976   3.239 -2.1611  1.6351  0.1590
 4896SOL    HW319357   1.211   2.069   3.339  0.5845 -0.0572  0.0627
 4896SOL    MW419358   1.212   2.028   3.262  0.2079  0.5638  0.7372
 4897SOL     OW19359   2.270   5.165   2.658  0.0117 -0.5383 -0.6102
 4897SOL    HW219360   2.294   5.110   2.733 -0.4622  0.1430  0.0550
 4897SOL    HW319361   2.351   5.173   2.607  0.5354 -0.3759  0.2314
 4897SOL    MW419362   2.284   5.159   2.661 -0.1010  0.0593 -0.4020
 4898SOL     OW19363   6.314   3.907   5.175  0.4358  0.5756  0.5528
 4898SOL    HW219364   6.279   3.882   5.090 -0.0772  1.6487  0.4350
 4898SOL    HW319365   6.264   3.854   5.238  0.9250 -0.3323  0.1955
 4898SOL    MW419366   6.302   3.897   5.172  0.1492 -0.0872  0.3190
 4899SOL     OW19367   4.955   3.591   5.736 -0.0223 -0.0837 -0.8243
 4899SOL    HW219368   4.933   3.673   5.780 -2.6711 -0.1311 -1.8791
 4899SOL    HW319369   4.877   3.536   5.746  1.1315 -1.9185 -1.4260
 4899SOL    MW419370   4.942   3.595   5.743  0.2612 -0.0487  0.1727
 4900SOL     OW19371   4.395   3.308   4.212 -0.2042  0.3962 -0.6101
 4900SOL    HW219372   4.317   3.287   4.262  0.5499 -0.6741  0.1705
 4900SOL    HW319373   4.405   3.403   4.221  0.5414  0.1336  2.2853
 4900SOL    MW419374   4.386   3.318   4.220  0.0322 -0.2549 -0.4164
 4901SOL     OW19375   4.547   4.347   4.257 -0.4832  0.0678  0.3338
 4901SOL    HW219376   4.522   4.420   4.201  0.2538 -1.0056 -1.4793
 4901SOL    HW319377   4.465   4.319   4.298 -1.0007  1.0417  0.0011
 4901SOL    MW419378   4.533   4.353   4.255  0.1455  0.4888  0.3366
 4902SOL     OW19379   2.347   6.268   1.162 -0.2471 -0.2299 -0.0850
 4902SOL    HW219380   2.305   6.284   1.246  2.6009  1.7674  1.1207
 4902SOL    HW319381   2.302   6.326   1.101  0.0389  1.1621  0.9586
 4902SOL    MW419382   2.336   6.278   1.165  0.3019 -0.4709  0.2836
 4903SOL     OW19383   3.388   3.649   4.480  0.4590  0.3297 -0.1979
 4903SOL    HW219384   3.341   3.567   4.484 -1.1918  1.2315 -0.3172
 4903SOL    HW319385   3.479   3.624   4.465  0.1480 -1.4852  0.7244
 4903SOL    MW419386   3.394   3.635   4.479 -0.0612  0.0956 -0.0794
 4904SOL     OW19387   2.322   1.933   4.950 -0.1735  0.2712 -0.4077
 4904SOL    HW219388   2.322   2.002   4.883  0.2697  0.1629 -0.5261
 4904SOL    HW319389   2.390   1.872   4.921  0.5117  0.5840  0.5025
 4904SOL    MW419390   2.331   1.934   4.937  0.4223 -0.4581  0.3849
 4905SOL     OW19391   3.958   0.438   6.033 -0.4467  0.4943  0.1549
 4905SOL    HW219392   3.999   0.521   6.006 -1.1452  1.1574  1.0747
 4905SOL    HW319393   3.911   0.408   5.955 -0.9749  1.4711  0.0795
 4905SOL    MW419394   3.957   0.445   6.019  0.2610 -0.3000  0.3245
 4906SOL     OW19395   5.361   5.145   3.417 -0.1575 -0.6355 -0.3390
 4906SOL    HW219396   5.307   5.122   3.342 -1.8391  0.6875  0.4080
 4906SOL    HW319397   5.301   5.185   3.480  1.6764  1.0339  0.4917
 4906SOL    MW419398   5.346   5.147   3.415  0.2940  0.1145  0.5422
 4907SOL     OW19399   6.330   2.202   2.250 -0.3161 -0.4889  0.5917
 4907SOL    HW219400   6.296   2.137   2.312 -1.4643 -0.0719  0.4202
 4907SOL    HW319401   6.377   2.151   2.185  0.9532 -0.9364  1.8018
 4907SOL    MW419402   6.332   2.187   2.250 -0.7483 -0.3486  0.2057
 4908SOL     OW19403   5.773   5.249   0.552  0.2937  0.0926 -0.2757
 4908SOL    HW219404   5.783   5.288   0.465  0.7386 -1.1589 -0.8095
 4908SOL    HW319405   5.777   5.323   0.612 -0.4294  1.0228 -1.3394
 4908SOL    MW419406   5.775   5.264   0.549  0.0628  0.0615  0.0350
 4909SOL     OW19407   2.200   5.936   4.431  0.3116 -0.0071  0.5852
 4909SOL    HW219408   2.191   5.966   4.521 -0.9751  0.1123  0.4276
 4909SOL    HW319409   2.112   5.911   4.405  0.1853  2.3369 -1.4988
 4909SOL    MW419410   2.187   5.936   4.439  0.2746 -0.2750  0.0702
 4910SOL     OW19411   2.154   4.657   1.191  0.0182  0.6592  0.1300
 4910SOL    HW219412   2.117   4.638   1.278  2.1189 -0.5162  0.8631
 4910SOL    HW319413   2.096   4.613   1.130 -1.5894  1.6260  0.8951
 4910SOL    MW419414   2.142   4.648   1.195 -0.4209 -0.1036  0.3594
 4911SOL     OW19415   3.043   6.298   1.824 -0.0399  0.3194  0.1643
 4911SOL    HW219416   3.086   6.312   1.909 -0.1372  0.7311  0.1479
 4911SOL    HW319417   2.949   6.297   1.845 -0.1901  2.4169 -0.1827
 4911SOL    MW419418   3.036   6.300   1.838  0.1156 -0.3191 -1.1123
 4912SOL     OW19419   3.814   3.647   1.586  0.1954  0.8186 -0.0850
 4912SOL    HW219420   3.864   3.726   1.567 -0.8322  1.3431 -0.6845
 4912SOL    HW319421   3.828   3.591   1.509 -0.2809  1.0505 -0.3476
 4912SOL    MW419422   3.822   3.650   1.573  0.1627  0.7374  0.1582
 4913SOL     OW19423   4.281   0.312   1.245 -0.4147  0.7518  0.2614
 4913SOL    HW219424   4.370   0.305   1.279  0.2708  1.7486 -1.2420
 4913SOL    HW319425   4.251   0.399   1.271 -1.2974  0.1124  1.4841
 4913SOL    MW419426   4.289   0.322   1.253 -0.0487  0.0266  0.1781
 4914SOL     OW19427   1.183   2.042   2.690 -0.2690 -0.2021 -0.2085
 4914SOL    HW219428   1.142   1.961   2.661  1.9038 -1.3890 -0.2021
 4914SOL    HW319429   1.239   2.067   2.616  1.7257 -0.6705  1.0595
 4914SOL    MW419430   1.185   2.035   2.676  0.0213 -0.7660  0.1652
 4915SOL     OW19431   5.790   3.496   0.099 -0.4806 -0.2887  0.1912
 4915SOL    HW219432   5.719   3.511   0.037 -0.6449  2.5924  0.9387
 4915SOL    HW319433   5.747   3.466   0.179 -1.2322  2.9830  1.1825
 4915SOL    MW419434   5.775   3.494   0.101  0.4098  0.2934 -0.4175
 4916SOL     OW19435   1.447   3.108   0.294  0.1308  0.3650 -0.1947
 4916SOL    HW219436   1.449   3.072   0.382 -0.2253  2.0754  0.5431
 4916SOL    HW319437   1.533   3.150   0.283 -0.0482  0.6785 -0.4238
 4916SOL    MW419438   1.459   3.109   0.304  0.2615  0.3333 -0.2520
 4917SOL     OW19439   0.654   1.410   4.266  0.3428 -0.1531  0.2135
 4917SOL    HW219440   0.648   1.343   4.198 -0.2956  0.0506  0.0570
 4917SOL    HW319441   0.695   1.485   4.224 -1.5713  0.5819 -0.4655
 4917SOL    MW419442   0.658   1.411   4.252  0.0085 -0.3226 -0.2514
 4918SOL     OW19443   5.441   2.702   0.605  0.0846 -0.2481  0.3003
 4918SOL    HW219444   5.413   2.613   0.584 -2.0122  0.5346 -0.4728
 4918SOL    HW319445   5.483   2.694   0.691 -0.2531 -1.9462  0.3389
 4918SOL    MW419446   5.443   2.689   0.614  0.0659  0.4438  0.3088
 4919SOL     OW19447   3.478   1.122   2.620  0.7789 -0.3322 -0.0089
 4919SOL    HW219448   3.471   1.110   2.526 -0.7166  1.5665 -0.2034
 4919SOL    HW319449   3.388   1.121   2.652  1.3150 -2.8702  1.7379
 4919SOL    MW419450   3.465   1.120   2.612  1.0719 -0.0773  0.1266
 4920SOL     OW19451   0.542   5.824   5.343 -0.2375  0.2467 -0.1552
 4920SOL    HW219452   0.509   5.739   5.314 -2.2922  0.5318  1.1421
 4920SOL    HW319453   0.509   5.886   5.278  0.3848  0.1878 -0.5351
 4920SOL    MW419454   0.533   5.821   5.331  0.3041  0.0799  0.3204
 4921SOL     OW19455   5.256   1.369   5.144 -0.3291 -0.3900 -0.6544
 4921SOL    HW219456   5.273   1.278   5.168 -1.5352  0.0243  2.0332
 4921SOL    HW319457   5.338   1.398   5.104  0.1841 -2.5287 -1.3120
 4921SOL    MW419458   5.269   1.361   5.142  0.0698  0.2340  0.2018
 4922SOL     OW19459   0.762   4.276   4.848 -0.2298 -0.3687  0.5440
 4922SOL    HW219460   0.690   4.227   4.887  1.2734 -0.0838  4.0164
 4922SOL    HW319461   0.839   4.248   4.897  1.4348  1.9585 -0.5810
 4922SOL    MW419462   0.762   4.266   4.860  0.1065 -0.2348  0.4051
 4923SOL     OW19463   0.042   0.232   5.709 -0.1624 -0.0178 -0.5283
 4923SOL    HW219464   0.097   0.236   5.631 -0.1557 -0.0756 -0.5264
 4923SOL    HW319465   0.063   0.148   5.749  1.0277  0.6708  0.3987
 4923SOL    MW419466   0.052   0.222   5.704 -0.2077  0.5163  0.4509
 4924SOL     OW19467   2.585   1.975   0.186  0.0431 -0.2595 -0.0766
 4924SOL    HW219468   2.636   2.054   0.203 -0.2787  0.1762 -1.0911
 4924SOL    HW319469   2.636   1.927   0.120 -0.7081  0.0604 -0.9163
 4924SOL    MW419470   2.599   1.979   0.179 -0.1792 -0.6442  0.2964
 4925SOL     OW19471   5.024   3.459   3.879 -0.1286  0.3984  0.0673
 4925SOL    HW219472   5.013   3.553   3.861 -2.7467  0.1142 -0.1816
 4925SOL    HW319473   5.065   3.457   3.965 -1.3852  1.8156  0.7560
 4925SOL    MW419474   5.028   3.471   3.888 -0.1116  0.0786 -0.0103
 4926SOL     OW19475   3.123   0.013   0.883 -0.6002 -0.3383  0.9451
 4926SOL    HW219476   3.076   0.070   0.823 -0.3389 -2.2278 -1.1701
 4926SOL    HW319477   3.062  -0.060   0.899  0.4394 -1.3230  0.5546
 4926SOL    MW419478   3.109   0.011   0.877  0.3826  0.1310 -0.4622
 4927SOL     OW19479   3.743   0.289   1.650  0.1416  0.0532 -0.4335
 4927SOL    HW219480   3.770   0.270   1.740  0.8219 -2.1133 -1.0308
 4927SOL    HW319481   3.651   0.312   1.656  0.6398  1.8901  1.0088
 4927SOL    MW419482   3.735   0.289   1.662 -0.6176 -0.2042  0.0940
 4928SOL     OW19483   2.744   6.100   5.551  0.4946 -0.1422  0.1744
 4928SOL    HW219484   2.756   6.154   5.629 -0.4611  1.1952 -0.5713
 4928SOL    HW319485   2.664   6.050   5.569  1.4160 -1.4397  0.8937
 4928SOL    MW419486   2.735   6.100   5.564  0.2223 -0.1317  0.3846
 4929SOL     OW19487   1.949   1.838   3.544  0.1455  0.2545  0.3197
 4929SOL    HW219488   1.970   1.891   3.622  0.2878  0.0689  0.4077
 4929SOL    HW319489   2.030   1.834   3.495 -0.4058  1.9778 -0.8203
 4929SOL    MW419490   1.962   1.845   3.548 -0.2569 -0.3510 -1.0686
 4930SOL     OW19491   4.848   0.641   5.931 -0.2579  0.2236 -0.3221
 4930SOL    HW219492   4.882   0.599   6.010 -1.5677  1.6115  1.0424
 4930SOL    HW319493   4.925   0.676   5.887  0.5130 -0.7700  0.1956
 4930SOL    MW419494   4.862   0.640   5.936 -0.4447  0.1790 -0.0076
 4931SOL     OW19495   5.491   5.523   3.936  0.1841 -0.2739 -0.2785
 4931SOL    HW219496   5.576   5.566   3.944 -0.4507  0.7066  2.3879
 4931SOL    HW319497   5.508   5.431   3.954  0.5716  0.1017  1.4756
 4931SOL    MW419498   5.504   5.517   3.939 -0.0013  0.0539  0.3928
 4932SOL     OW19499   0.925   4.530   4.657 -0.4101 -0.2508  0.6534
 4932SOL    HW219500   0.908   4.491   4.571 -2.1666 -0.0981  0.8968
 4932SOL    HW319501   0.975   4.464   4.705  0.6126 -0.3288 -0.4745
 4932SOL    MW419502   0.930   4.516   4.652 -0.4038  0.4655 -0.1895
 4933SOL     OW19503   1.830   0.969   1.379  0.0198  0.0690  0.0021
 4933SOL    HW219504   1.777   0.990   1.456 -0.4770  1.1671 -0.6139
 4933SOL    HW319505   1.917   0.952   1.414 -0.9204 -2.8723  1.1614
 4933SOL    MW419506   1.834   0.970   1.394 -0.1834 -0.2961  0.1515
 4934SOL     OW19507   2.930   3.826   3.547  0.2804 -0.2260 -0.2517
 4934SOL    HW219508   2.846   3.789   3.518  0.0527  1.2597 -1.6553
 4934SOL    HW319509   2.914   3.921   3.548  2.2150  0.1723 -1.6075
 4934SOL    MW419510   2.917   3.834   3.543 -0.2683 -0.0822  0.4231
 4935SOL     OW19511   1.623   0.679   5.019 -0.4634 -0.0560 -0.3136
 4935SOL    HW219512   1.592   0.756   5.068  1.9411  0.0308  1.2283
 4935SOL    HW319513   1.592   0.604   5.070  1.2500  0.0198  0.8973
 4935SOL    MW419514   1.615   0.680   5.032  0.2265  0.0243 -0.3343
 4936SOL     OW19515   4.899   2.232   0.038  0.1323 -0.2137  0.2476
 4936SOL    HW219516   4.866   2.147   0.066  0.8649 -0.6722 -0.2357
 4936SOL    HW319517   4.989   2.234   0.070  0.2801  0.1684 -0.1862
 4936SOL    MW419518   4.907   2.221   0.046 -0.0294  0.0014  0.2650
 4937SOL     OW19519   0.940   1.204   4.673 -0.6039 -0.3770 -0.4221
 4937SOL    HW219520   0.872   1.246   4.620  1.4837  0.2962 -2.7526
 4937SOL    HW319521   1.004   1.273   4.687  0.7969 -1.6273 -0.4788
 4937SOL    MW419522   0.939   1.219   4.668 -0.3410  0.4497  0.2848
 4938SOL     OW19523   6.191   5.794   5.420  0.0239 -0.0531 -0.4066
 4938SOL    HW219524   6.192   5.885   5.448  0.1864  0.2043 -1.2310
 4938SOL    HW319525   6.199   5.744   5.502 -1.0219  0.6451  0.1401
 4938SOL    MW419526   6.192   5.799   5.435  0.0952  0.1575  0.0715
 4939SOL     OW19527   1.233   0.032   4.063  0.9642 -0.5056  0.5014
 4939SOL    HW219528   1.288   0.097   4.106  0.8599 -0.4426  0.5404
 4939SOL    HW319529   1.183  -0.008   4.135  1.1326 -0.7268  0.4940
 4939SOL    MW419530   1.233   0.035   4.078 -0.1012  0.1563 -0.1679
 4940SOL     OW19531   3.821   3.307   4.144  0.6703 -0.1105 -0.8637
 4940SOL    HW219532   3.727   3.293   4.150  0.4781  1.5816  1.4015
 4940SOL    HW319533   3.857   3.221   4.123 -1.3275 -0.8786 -1.3664
 4940SOL    MW419534   3.814   3.294   4.142  0.1158 -0.0132 -0.3022
 4941SOL     OW19535   4.105   3.273   3.388 -0.1013  0.9689  0.5931
 4941SOL    HW219536   4.108   3.232   3.301  0.0023  0.7710  0.6910
 4941SOL    HW319537   4.042   3.345   3.378  0.2823  1.2580  0.2198
 4941SOL    MW419538   4.097   3.277   3.375 -0.9259  0.1294  0.2034
 4942SOL     OW19539   2.793   5.568   0.063 -0.0875 -0.2600 -0.4165
 4942SOL    HW219540   2.870   5.554   0.008 -0.3334  1.7309 -1.3747
 4942SOL    HW319541   2.719   5.546   0.006 -0.3194  1.1261 -0.6784
 4942SOL    MW419542   2.793   5.563   0.048  0.0922 -1.1592  0.0602
 4943SOL     OW19543   3.380   2.367   1.129  0.2815 -0.3687 -0.3763
 4943SOL    HW219544   3.303   2.373   1.072  0.7195  0.2538 -0.9198
 4943SOL    HW319545   3.452   2.401   1.076  0.9922 -1.2093  0.0242
 4943SOL    MW419546   3.379   2.372   1.114 -0.4563  0.2874  0.1578
 4944SOL     OW19547   3.971   2.818   2.025  0.5277  0.2175  0.7140
 4944SOL    HW219548   3.948   2.904   1.991 -0.8930 -0.4941 -0.1812
 4944SOL    HW319549   4.009   2.772   1.951 -1.9195 -1.0921  0.1773
 4944SOL    MW419550   3.973   2.824   2.011 -0.6463  0.1024 -0.3799
 4945SOL     OW19551   2.299   3.198   0.006 -0.7750  0.2538 -0.4842
 4945SOL    HW219552   2.269   3.271   0.060  1.0637 -0.4077  1.5980
 4945SOL    HW319553   2.385   3.225  -0.026 -1.2814  0.0974 -2.0531
 4945SOL    MW419554   2.306   3.211   0.009 -0.8114 -0.2573  0.0901
 4946SOL     OW19555   5.690   5.234   0.233 -0.2595  0.5781  0.2226
 4946SOL    HW219556   5.774   5.205   0.199  0.3826 -0.8483  2.7346
 4946SOL    HW319557   5.637   5.154   0.238 -0.5012  0.8092  1.9380
 4946SOL    MW419558   5.694   5.220   0.229 -0.2270  0.4568 -0.2024
 4947SOL     OW19559   5.171   4.642   5.855  0.2013 -0.5700 -0.3848
 4947SOL    HW219560   5.132   4.647   5.768  0.5805 -0.0147 -0.5356
 4947SOL    HW319561   5.151   4.727   5.895  0.5588 -0.5884 -0.1611
 4947SOL    MW419562   5.163   4.654   5.849 -0.1770 -0.1879 -0.4317
 4948SOL     OW19563   1.813   4.965   5.062  0.1053  0.0702  0.4054
 4948SOL    HW219564   1.887   5.002   5.013 -0.2608  1.9013  1.1485
 4948SOL    HW319565   1.736   4.999   5.016 -0.2439  1.4357  1.8938
 4948SOL    MW419566   1.813   4.974   5.049 -0.1656 -0.5818 -0.7429
 4949SOL     OW19567   2.726   0.199   3.403  0.0512  0.3164 -0.0862
 4949SOL    HW219568   2.800   0.147   3.370 -0.3144  0.0499 -0.4814
 4949SOL    HW319569   2.653   0.177   3.346 -0.0084  1.6113 -0.5428
 4949SOL    MW419570   2.726   0.189   3.391  0.1645  0.1130  0.5193
 4950SOL     OW19571   1.752   3.517   1.985 -0.1244 -0.2392  0.6547
 4950SOL    HW219572   1.666   3.495   1.950 -0.1552  1.0013 -0.0985
 4950SOL    HW319573   1.737   3.530   2.078 -1.5192  3.2936  0.0930
 4950SOL    MW419574   1.739   3.516   1.993 -0.4653  0.0030  0.0831
 4951SOL     OW19575   3.851   0.989   4.809 -0.3980  0.3533 -0.1860
 4951SOL    HW219576   3.795   0.924   4.768 -0.9654  1.1538 -0.6955
 4951SOL    HW319577   3.807   1.010   4.892  0.0078 -0.2150  0.1804
 4951SOL    MW419578   3.838   0.983   4.815 -0.2838  0.4298  0.0324
 4952SOL     OW19579   4.270   0.121   6.354 -0.3392 -0.1302 -0.5464
 4952SOL    HW219580   4.262   0.095   6.446 -0.8379  0.7457 -0.3394
 4952SOL    HW319581   4.207   0.065   6.308  0.2505 -0.9103 -0.4397
 4952SOL    MW419582   4.261   0.110   6.361 -0.2904 -0.2654 -0.0761
 4953SOL     OW19583   3.600   0.517   0.508  0.0192  0.4512 -0.2229
 4953SOL    HW219584   3.627   0.449   0.446 -0.7969 -0.2216  0.1306
 4953SOL    HW319585   3.596   0.472   0.593 -0.0527  1.0595  0.1065
 4953SOL    MW419586   3.603   0.502   0.511  0.5497  0.0190 -0.3233
 4954SOL     OW19587   2.743   3.662   2.212  0.4358  0.3242  0.4186
 4954SOL    HW219588   2.801   3.668   2.287 -0.9969  1.2253  1.5139
 4954SOL    HW319589   2.768   3.737   2.157  1.2604 -0.1411  0.1388
 4954SOL    MW419590   2.754   3.673   2.215 -0.4116 -0.6534 -0.1858
 4955SOL     OW19591   0.862   2.134   0.272 -0.0979 -0.6917  0.1188
 4955SOL    HW219592   0.858   2.048   0.230 -1.7724 -0.4941 -0.1868
 4955SOL    HW319593   0.814   2.192   0.213 -0.5197  0.0724  1.1844
 4955SOL    MW419594   0.855   2.130   0.259 -0.1338 -0.8999 -0.0969
 4956SOL     OW19595   3.720   4.862   4.320 -0.0048 -0.9049  0.4648
 4956SOL    HW219596   3.633   4.898   4.337 -0.3677 -2.1386  1.4009
 4956SOL    HW319597   3.706   4.767   4.315  0.8811 -0.9843 -1.9647
 4956SOL    MW419598   3.707   4.854   4.321  0.2843 -0.2858 -0.4561
 4957SOL     OW19599   6.355   3.628   2.631 -0.2198 -0.0431 -0.2568
 4957SOL    HW219600   6.387   3.708   2.672 -0.7252  0.2486 -0.4262
 4957SOL    HW319601   6.434   3.575   2.617 -0.1260 -0.5902  1.9822
 4957SOL    MW419602   6.370   3.631   2.634  0.4189  0.0889 -0.1395
 4958SOL     OW19603   3.172   2.753   0.564  0.0585 -0.3271  0.4106
 4958SOL    HW219604   3.089   2.708   0.579 -0.4188 -0.0306 -1.1719
 4958SOL    HW319605   3.233   2.710   0.625 -1.1203 -0.8717  1.2593
 4958SOL    MW419606   3.169   2.741   0.574  0.2069  0.2822 -0.4033
 4959SOL     OW19607   0.338   3.246   4.729  0.0149  0.1740  0.6574
 4959SOL    HW219608   0.251   3.214   4.705 -0.0880  0.2249  0.9577
 4959SOL    HW319609   0.388   3.244   4.647 -0.6148  1.2635  0.2259
 4959SOL    MW419610   0.333   3.241   4.715 -0.0091 -0.1156 -0.0133
 4960SOL     OW19611   4.547   4.077   3.266  0.3241  0.1050 -0.0437
 4960SOL    HW219612   4.464   4.115   3.237 -0.2973  0.9556  2.6095
 4960SOL    HW319613   4.522   4.007   3.326  1.5044  0.8140  1.3249
 4960SOL    MW419614   4.533   4.073   3.270  0.8863 -0.5603  0.2955
 4961SOL     OW19615   5.214   1.801   2.677  0.1782  0.2725  0.6360
 4961SOL    HW219616   5.264   1.728   2.641 -1.3813  0.1492 -1.4968
 4961SOL    HW319617   5.203   1.779   2.769  0.0821 -2.0028  0.1445
 4961SOL    MW419618   5.219   1.789   2.684  0.1590  0.1716  0.2600
 4962SOL     OW19619   6.118   5.780   3.122  0.0010 -0.8102  0.3149
 4962SOL    HW219620   6.119   5.721   3.047 -1.3922 -0.7131  0.1878
 4962SOL    HW319621   6.034   5.762   3.166 -1.1623  1.9928 -0.5111
 4962SOL    MW419622   6.107   5.770   3.118  0.1046  0.3457 -0.0599
 4963SOL     OW19623   3.008   2.053   4.808  0.2915 -0.7402  0.1043
 4963SOL    HW219624   3.095   2.017   4.789 -0.2618 -1.9686 -0.2508
 4963SOL    HW319625   2.967   2.063   4.722 -0.3012 -1.2062  0.3244
 4963SOL    MW419626   3.014   2.049   4.794  0.5341 -0.0273  0.2724
 4964SOL     OW19627   3.562   1.265   0.929 -0.5577 -0.4542 -0.3560
 4964SOL    HW219628   3.609   1.291   0.850  0.4078 -0.5552  0.1651
 4964SOL    HW319629   3.577   1.170   0.935 -2.6896 -0.9144 -1.3681
 4964SOL    MW419630   3.570   1.256   0.919 -0.3160 -0.0164  0.0036
 4965SOL     OW19631   2.811   0.477   1.872 -0.3788  0.2305 -0.0414
 4965SOL    HW219632   2.747   0.532   1.826 -0.2012  0.4122 -0.0716
 4965SOL    HW319633   2.815   0.513   1.960  1.0440  1.3873 -0.5506
 4965SOL    MW419634   2.803   0.489   1.877  0.7713 -0.0805  0.6012
 4966SOL     OW19635   0.670   4.212   2.205 -0.5011 -0.3102  0.0332
 4966SOL    HW219636   0.690   4.305   2.190  0.2697 -0.4561  0.1466
 4966SOL    HW319637   0.743   4.179   2.256 -0.0981 -1.3160 -1.1508
 4966SOL    MW419638   0.682   4.220   2.210 -0.2459  0.1680  0.2135
 4967SOL     OW19639   5.663   0.527   1.502 -0.1974  0.2317 -0.4917
 4967SOL    HW219640   5.634   0.511   1.412  1.7243 -2.0737 -0.8034
 4967SOL    HW319641   5.642   0.446   1.548 -0.5932  1.1593  1.0110
 4967SOL    MW419642   5.656   0.514   1.496 -0.7866  0.8960 -0.6017
 4968SOL     OW19643   1.263   4.482   6.050  0.1920  0.0455 -0.1934
 4968SOL    HW219644   1.243   4.447   5.964  2.9064 -0.6710 -0.6195
 4968SOL    HW319645   1.240   4.575   6.044 -0.0802 -0.0916 -1.5239
 4968SOL    MW419646   1.257   4.490   6.038  0.1103  0.2523 -0.7529
 4969SOL     OW19647   0.739   2.045   3.607  0.0177  0.0252 -0.2239
 4969SOL    HW219648   0.738   1.952   3.626  1.0222  0.4715  2.5001
 4969SOL    HW319649   0.802   2.082   3.669 -1.6672  2.7530  0.0679
 4969SOL    MW419650   0.747   2.038   3.618  0.1798  0.0825  0.0718
 4970SOL     OW19651   3.101   2.565   6.284 -0.5665 -0.3296  0.5593
 4970SOL    HW219652   3.076   2.637   6.341 -0.4192 -0.6250  0.9985
 4970SOL    HW319653   3.116   2.491   6.343 -1.5705 -0.9716  0.0558
 4970SOL    MW419654   3.099   2.565   6.299 -0.2623  0.2570  0.1102
 4971SOL     OW19655   3.461   2.071   0.131  0.5904 -0.0096 -0.0643
 4971SOL    HW219656   3.486   1.988   0.173  2.2179  0.8677  0.7695
 4971SOL    HW319657   3.365   2.071   0.136  0.5506 -1.7419  0.0988
 4971SOL    MW419658   3.451   2.060   0.137  0.3805 -0.1250  0.3272
 4972SOL     OW19659   1.709   0.754   4.408 -0.2975  0.1632 -0.3595
 4972SOL    HW219660   1.694   0.662   4.430 -1.1381  0.1134 -1.0580
 4972SOL    HW319661   1.726   0.797   4.491  1.1298 -0.8011 -0.1279
 4972SOL    MW419662   1.709   0.748   4.422 -0.2779  0.2015  0.2521
 4973SOL     OW19663   0.971   6.241   5.619 -0.8626 -0.3252 -0.3598
 4973SOL    HW219664   0.972   6.277   5.530 -0.6918 -0.2113 -0.3128
 4973SOL    HW319665   0.917   6.162   5.613 -1.0319 -0.1952 -0.5161
 4973SOL    MW419666   0.964   6.235   5.607  0.4322  0.0830 -0.3067
 4974SOL     OW19667   5.989   1.661   0.932 -0.3441  0.3596  0.4228
 4974SOL    HW219668   6.080   1.676   0.907  0.1982 -1.5050  1.0897
 4974SOL    HW319669   5.973   1.724   1.002 -0.0168  1.5914 -0.5585
 4974SOL    MW419670   5.999   1.671   0.938 -0.0943 -0.3315  0.2566
 4975SOL     OW19671   3.501   3.051   1.400 -0.4121 -0.2492  0.5053
 4975SOL    HW219672   3.553   3.119   1.357 -1.3079  0.8071  1.0249
 4975SOL    HW319673   3.432   3.031   1.338 -1.1879  0.6327  1.0590
 4975SOL    MW419674   3.499   3.058   1.386 -0.0492 -0.0843  0.3541
 4976SOL     OW19675   0.858   4.311   5.593  0.1553 -0.0520  0.1747
 4976SOL    HW219676   0.915   4.247   5.637  1.4879  0.3514 -0.9017
 4976SOL    HW319677   0.870   4.292   5.500  1.0107  2.0916 -0.2015
 4976SOL    MW419678   0.867   4.300   5.586  0.6231  0.0309 -0.5754
 4977SOL     OW19679   2.720   0.440   5.329 -0.1446  0.3228 -0.4631
 4977SOL    HW219680   2.728   0.378   5.256 -0.3156 -1.0702  0.6643
 4977SOL    HW319681   2.673   0.515   5.292 -0.2390 -0.3560 -1.7722
 4977SOL    MW419682   2.715   0.442   5.314 -0.0983  0.1550 -0.4068
 4978SOL     OW19683   2.522   2.505   4.559 -0.2204  0.1677  0.0068
 4978SOL    HW219684   2.593   2.555   4.600 -0.9453 -1.3953  3.5465
 4978SOL    HW319685   2.542   2.414   4.579 -1.5890 -0.5931 -1.7893
 4978SOL    MW419686   2.534   2.499   4.567  0.1588 -0.4946 -0.2530
 4979SOL     OW19687   1.587   0.643   2.728  0.2999  0.0874 -0.1987
 4979SOL    HW219688   1.665   0.589   2.714 -0.3327 -1.3721  1.5823
 4979SOL    HW319689   1.619   0.723   2.769  0.8534 -0.5508  0.6239
 4979SOL    MW419690   1.601   0.646   2.731  0.7405 -0.0504  0.4262
 4980SOL     OW19691   4.915   1.592   0.772 -0.0095  0.0791  0.0589
 4980SOL    HW219692   4.843   1.598   0.836  0.0756 -1.2844  0.3109
 4980SOL    HW319693   4.934   1.683   0.749 -0.1907  0.5958  1.8093
 4980SOL    MW419694   4.908   1.605   0.777 -0.8675 -0.2859 -0.0467
 4981SOL     OW19695   3.110   5.378   2.166  0.4845 -0.0056  0.0203
 4981SOL    HW219696   3.128   5.412   2.254  1.0275  1.7029 -0.7119
 4981SOL    HW319697   3.188   5.401   2.115 -0.8425  1.3662 -1.5203
 4981SOL    MW419698   3.123   5.386   2.171  0.2692  0.2126  0.3717
 4982SOL     OW19699   0.024   3.160   5.393  0.0727  0.0276  0.7296
 4982SOL    HW219700  -0.051   3.176   5.335  0.9195  0.9604 -0.1618
 4982SOL    HW319701   0.032   3.240   5.445  1.5810  0.7691 -0.5462
 4982SOL    MW419702   0.015   3.173   5.392 -0.2430 -0.2073  0.1687
 4983SOL     OW19703   1.721   5.427   4.751  0.1098  0.0847 -0.2550
 4983SOL    HW219704   1.692   5.339   4.727  0.8577 -0.0572 -0.6520
 4983SOL    HW319705   1.740   5.421   4.845  1.4177 -0.5426 -0.5367
 4983SOL    MW419706   1.720   5.415   4.760  0.3888  0.0480  0.1208
 4984SOL     OW19707   6.123   3.498   5.368  0.1396 -0.8941 -0.0927
 4984SOL    HW219708   6.109   3.470   5.277 -2.3798  0.4770 -0.2432
 4984SOL    HW319709   6.081   3.430   5.420  1.1390 -1.4243  0.0323
 4984SOL    MW419710   6.115   3.485   5.363  0.2341  0.5664 -0.3524
 4985SOL     OW19711   1.004   0.241   1.830 -0.0371  0.1083  0.2760
 4985SOL    HW219712   1.095   0.263   1.811  0.6227 -3.1234 -1.1456
 4985SOL    HW319713   1.010   0.170   1.894 -1.4781 -0.4246 -0.1402
 4985SOL    MW419714   1.017   0.234   1.836  0.4108 -0.1163  0.2752
 4986SOL     OW19715   0.003   2.593   2.378  0.4894  0.0012  0.4760
 4986SOL    HW219716  -0.026   2.645   2.453 -0.3822  1.8233 -1.0435
 4986SOL    HW319717  -0.071   2.536   2.358 -1.2458  2.8138 -1.7882
 4986SOL    MW419718  -0.010   2.593   2.385 -0.0104  0.0723  0.2960
 4987SOL     OW19719   6.315   3.765   3.388  0.1958 -0.1497 -0.4675
 4987SOL    HW219720   6.387   3.731   3.335  0.5447 -1.3353  0.6997
 4987SOL    HW319721   6.248   3.697   3.382 -0.8275  0.9055 -1.4732
 4987SOL    MW419722   6.316   3.752   3.380 -0.2789  0.4369 -0.2194
 4988SOL     OW19723   0.567   6.140   1.941 -0.0301 -0.1831  0.3329
 4988SOL    HW219724   0.484   6.133   1.989  0.8196 -1.6677  1.6820
 4988SOL    HW319725   0.629   6.175   2.004  0.3526  1.1737 -0.7476
 4988SOL    MW419726   0.564   6.144   1.956  0.1548 -0.1567  0.2034
 4989SOL     OW19727   6.116   5.610   2.846 -0.3573 -0.1888 -0.0194
 4989SOL    HW219728   6.104   5.534   2.902 -0.6669 -0.5759 -0.6026
 4989SOL    HW319729   6.187   5.586   2.787  1.1503  0.8499  1.2621
 4989SOL    MW419730   6.124   5.597   2.846 -0.2428 -0.0442 -1.1658
 4990SOL     OW19731   5.719   3.327   3.361  0.0864  0.2313  0.1385
 4990SOL    HW219732   5.795   3.385   3.368 -0.0724  0.4511  0.0439
 4990SOL    HW319733   5.680   3.349   3.276  1.0184 -1.2164 -0.6991
 4990SOL    MW419734   5.724   3.338   3.350  0.1745 -0.3154  0.1823
 4991SOL     OW19735   0.715   1.277   4.492 -0.0242 -0.7909 -0.5314
 4991SOL    HW219736   0.683   1.327   4.417  0.9234  1.2629  0.3559
 4991SOL    HW319737   0.642   1.278   4.554 -0.2172 -1.0520 -0.7500
 4991SOL    MW419738   0.701   1.283   4.490  0.0519  0.3203 -0.3907
 4992SOL     OW19739   4.455   2.798   2.309  0.4004 -0.0970 -0.0134
 4992SOL    HW219740   4.544   2.809   2.343  0.1541  1.1236  0.2645
 4992SOL    HW319741   4.447   2.864   2.240 -0.3334 -0.1384  0.0244
 4992SOL    MW419742   4.466   2.808   2.304 -0.2003 -0.3036 -0.2646
 4993SOL     OW19743   4.186   1.261   0.152  0.0820  0.7653 -0.2049
 4993SOL    HW219744   4.213   1.352   0.140 -0.0561  0.7423 -0.7324
 4993SOL    HW319745   4.171   1.229   0.063  0.1870  0.2090 -0.0275
 4993SOL    MW419746   4.188   1.269   0.138  0.4979  0.1761  0.5429
 4994SOL     OW19747   0.693   4.824   4.900 -0.3284  0.0155  0.1905
 4994SOL    HW219748   0.627   4.875   4.854  1.2623  0.6084 -1.5990
 4994SOL    HW319749   0.771   4.830   4.844  1.7118  0.5677  2.8537
 4994SOL    MW419750   0.695   4.832   4.886 -0.0265  0.4178 -0.0121
 4995SOL     OW19751   0.565   6.270   1.396 -0.6356  0.4744 -0.3272
 4995SOL    HW219752   0.584   6.330   1.469  0.8637  0.3872 -0.6076
 4995SOL    HW319753   0.484   6.303   1.359 -1.0954  0.8993  0.9942
 4995SOL    MW419754   0.557   6.283   1.401 -0.4748 -0.2649  0.4455
 4996SOL     OW19755   6.046   1.974   4.335  0.0725 -0.0485 -0.1079
 4996SOL    HW219756   6.032   2.010   4.422  1.4247  0.8139 -0.2294
 4996SOL    HW319757   6.100   1.896   4.349  0.9841  0.5540 -0.2392
 4996SOL    MW419758   6.051   1.968   4.348 -0.5125 -0.4018 -0.0180
 4997SOL     OW19759   1.543   5.240   2.146 -0.2723  0.0059  0.2759
 4997SOL    HW219760   1.639   5.233   2.147 -0.0545  1.9788 -1.0053
 4997SOL    HW319761   1.521   5.249   2.053 -1.6287  0.2886  0.6133
 4997SOL    MW419762   1.553   5.240   2.134 -0.2547 -0.1308  0.4645
 4998SOL     OW19763   5.571   4.738   1.535  0.1507  0.2038  0.0524
 4998SOL    HW219764   5.578   4.832   1.519  1.9442  0.3941  1.5970
 4998SOL    HW319765   5.653   4.701   1.502  0.3951 -0.4905  1.3370
 4998SOL    MW419766   5.583   4.745   1.529  0.3447  1.0628  0.4728
 4999SOL     OW19767   3.613   0.748   0.836  0.0403  0.2556 -0.4466
 4999SOL    HW219768   3.677   0.749   0.765  0.1759  1.3045 -0.3314
 4999SOL    HW319769   3.647   0.683   0.898  0.7077  0.4038 -0.6441
 4999SOL    MW419770   3.626   0.740   0.835 -0.3469  0.0798 -0.2633
 5000SOL     OW19771   1.104   6.263   2.163 -0.1392  0.2231  0.3978
 5000SOL    HW219772   1.039   6.300   2.222 -1.6758 -1.0924 -0.3925
 5000SOL    HW319773   1.078   6.294   2.076  0.4417 -0.1136  0.0957
 5000SOL    MW419774   1.092   6.272   2.159 -0.7042  0.2067  0.1350
 5001SOL     OW19775   2.765   0.361   2.675  0.2417 -0.0728 -0.6401
 5001SOL    HW219776   2.740   0.374   2.584 -1.0465 -0.8381 -0.4182
 5001SOL    HW319777   2.694   0.308   2.713  2.0074 -2.0750  0.1247
 5001SOL    MW419778   2.753   0.355   2.668 -0.1088 -0.0391  0.3168
 5002SOL     OW19779   3.998   4.714   6.067  0.4682  0.1504 -0.0533
 5002SOL    HW219780   4.038   4.739   6.150  0.6209  0.4815 -0.2222
 5002SOL    HW319781   3.963   4.796   6.032  1.2838  0.1967 -0.7882
 5002SOL    MW419782   3.999   4.728   6.073 -0.3507  0.4430  0.2498
 5003SOL     OW19783   0.028   6.112   4.239  0.6275 -0.0949 -0.0673
 5003SOL    HW219784   0.020   6.188   4.183 -1.9442  0.4838  0.9212
 5003SOL    HW319785   0.044   6.148   4.327 -0.5152 -0.6437  0.3906
 5003SOL    MW419786   0.029   6.126   4.243 -0.0768 -0.2407  0.6172
 5004SOL     OW19787   0.239   1.609   6.197  0.1004  0.7484  0.0127
 5004SOL    HW219788   0.188   1.675   6.151 -0.3343 -0.4311 -1.2816
 5004SOL    HW319789   0.309   1.586   6.136 -1.0766 -1.5782 -0.6411
 5004SOL    MW419790   0.241   1.614   6.183  0.3873 -0.1366  0.5958
 5005SOL     OW19791   0.734   5.319   1.091  0.2543  0.1326 -0.2468
 5005SOL    HW219792   0.746   5.409   1.060  1.0214 -0.5810 -2.2400
 5005SOL    HW319793   0.644   5.316   1.123  0.0442  1.4767 -0.6467
 5005SOL    MW419794   0.724   5.331   1.091  0.2540 -0.0630 -0.3212
 5006SOL     OW19795   1.216   3.970   2.990 -0.8790 -0.4915 -0.2827
 5006SOL    HW219796   1.220   4.058   3.028 -0.2060 -1.2262  1.4536
 5006SOL    HW319797   1.221   3.984   2.895 -1.4841  1.3679 -0.0642
 5006SOL    MW419798   1.217   3.983   2.983  0.8775 -0.1792 -0.1768
 5007SOL     OW19799   0.400   0.655   3.449 -0.1779  0.1840  0.0266
 5007SOL    HW219800   0.372   0.695   3.531 -2.2220 -1.1707  0.0469
 5007SOL    HW319801   0.342   0.694   3.383 -0.4986 -0.8484 -0.3201
 5007SOL    MW419802   0.388   0.666   3.451  0.1447  0.3462  0.0002
 5008SOL     OW19803   5.786   4.127   5.721  0.0955 -0.5415  0.5212
 5008SOL    HW219804   5.790   4.035   5.744 -0.5401 -0.9670 -0.9679
 5008SOL    HW319805   5.877   4.157   5.722  0.1828 -0.7458  2.5592
 5008SOL    MW419806   5.798   4.119   5.724 -0.1533 -0.0690  0.4542
 5009SOL     OW19807   0.958   3.259   5.591  0.4594  0.1662 -0.5994
 5009SOL    HW219808   0.933   3.173   5.624 -1.6656  0.7531 -0.5457
 5009SOL    HW319809   0.984   3.308   5.670  1.5899 -0.3631 -0.6215
 5009SOL    MW419810   0.958   3.254   5.606 -0.2325 -0.1781  0.5277
 5010SOL     OW19811   5.220   3.910   2.427  0.4085  0.1737 -0.0967
 5010SOL    HW219812   5.244   3.931   2.517  0.9159  0.8335 -0.3744
 5010SOL    HW319813   5.137   3.955   2.412 -0.6995 -1.5311  0.6417
 5010SOL    MW419814   5.212   3.919   2.437 -0.2484 -0.3977  0.4361
 5011SOL     OW19815   4.162   0.540   3.646  0.3552  0.2538  0.1344
 5011SOL    HW219816   4.083   0.594   3.651  0.0017 -0.1958 -0.4983
 5011SOL    HW319817   4.129   0.450   3.634  0.9339 -0.1066  1.1186
 5011SOL    MW419818   4.147   0.535   3.645  0.2701 -0.0127  0.5978
 5012SOL     OW19819   3.405   4.286   4.690 -0.1988  0.5161 -0.1824
 5012SOL    HW219820   3.435   4.197   4.673  0.4648  0.7794 -0.4380
 5012SOL    HW319821   3.346   4.306   4.617  0.4845  0.6543 -0.7141
 5012SOL    MW419822   3.401   4.277   4.678  0.5008 -0.2483 -0.6795
 5013SOL     OW19823   1.486   6.290   3.296 -0.3314  0.3283  0.2788
 5013SOL    HW219824   1.429   6.361   3.269  1.3269  2.1921  1.4356
 5013SOL    HW319825   1.530   6.262   3.215 -1.6347 -0.0508 -0.3305
 5013SOL    MW419826   1.485   6.296   3.282  0.8057  0.7165  0.1717
 5014SOL     OW19827   0.055   0.602   2.966 -0.1586  0.1248 -0.1290
 5014SOL    HW219828   0.045   0.697   2.965 -0.3106  0.1087 -0.1419
 5014SOL    HW319829   0.056   0.579   3.059  1.2280  0.2789 -0.0793
 5014SOL    MW419830   0.054   0.611   2.978  0.4802 -0.1355  0.0502
 5015SOL     OW19831   5.551   0.957   4.403  0.2196 -0.2163 -0.1955
 5015SOL    HW219832   5.521   1.040   4.365 -0.1094  0.7098  1.9422
 5015SOL    HW319833   5.638   0.977   4.437  1.1657 -1.4636 -1.7422
 5015SOL    MW419834   5.558   0.971   4.402 -0.2771  0.3794 -0.3823
 5016SOL     OW19835   4.509   0.039   2.492 -0.1006 -0.3747 -0.7968
 5016SOL    HW219836   4.463  -0.029   2.443  0.2590 -0.8728 -0.4500
 5016SOL    HW319837   4.582   0.064   2.435  0.5721 -1.2613 -0.3430
 5016SOL    MW419838   4.512   0.033   2.478  0.3564 -0.0718  0.3293
 5017SOL     OW19839   3.057   2.902   1.365  0.4037  0.1179  0.0616
 5017SOL    HW219840   3.005   2.975   1.329  2.7735  1.6039 -0.5474
 5017SOL    HW319841   3.070   2.926   1.457 -1.5319 -1.2518  0.7659
 5017SOL    MW419842   3.052   2.915   1.372 -0.2941 -0.0212 -0.1179
 5018SOL     OW19843   3.959   2.549   0.432  0.0770 -0.9796  0.1750
 5018SOL    HW219844   4.032   2.490   0.451  0.8221 -0.1764 -0.1187
 5018SOL    HW319845   3.995   2.611   0.368 -0.5147  0.1262  0.8904
 5018SOL    MW419846   3.973   2.550   0.426 -0.9681  0.0539  0.7510
 5019SOL     OW19847   3.784   2.790   5.044 -0.4651 -0.1932 -0.4115
 5019SOL    HW219848   3.847   2.766   5.113  0.2487 -0.6344 -1.1891
 5019SOL    HW319849   3.720   2.719   5.044  0.6837 -1.2861 -1.5484
 5019SOL    MW419850   3.784   2.777   5.053  0.3015 -0.0622  0.4155
 5020SOL     OW19851   3.701   1.369   4.394 -0.8673 -0.3456  0.9144
 5020SOL    HW219852   3.789   1.331   4.387 -1.3079 -1.2618  0.1940
 5020SOL    HW319853   3.694   1.396   4.486 -0.2740 -1.3489  1.2697
 5020SOL    MW419854   3.712   1.368   4.405 -0.8271  0.2089  0.0132
 5021SOL     OW19855   0.259   0.272   2.876 -0.0007  0.1041 -0.0255
 5021SOL    HW219856   0.209   0.331   2.821  0.8093  1.0382  0.2265
 5021SOL    HW319857   0.302   0.328   2.940 -0.7908 -0.9188  1.4929
 5021SOL    MW419858   0.258   0.287   2.877  0.2640 -0.6792  0.4862
 5022SOL     OW19859   1.062   5.189   1.531 -0.4010  0.3625  0.0077
 5022SOL    HW219860   1.096   5.270   1.569 -0.9705  1.2389 -1.2830
 5022SOL    HW319861   1.103   5.185   1.444 -1.0157 -0.3111 -0.2591
 5022SOL    MW419862   1.072   5.199   1.524 -0.0800 -0.2842  0.1981
 5023SOL     OW19863   3.197   3.016   2.297  0.6933 -0.1530 -0.2720
 5023SOL    HW219864   3.163   3.004   2.209  1.7362  1.1031 -0.8838
 5023SOL    HW319865   3.146   3.089   2.333  0.3451 -0.5901  0.1425
 5023SOL    MW419866   3.186   3.024   2.290  0.0988 -0.6665 -0.2701
 5024SOL     OW19867   4.380   0.934   5.404  0.3095 -0.0628 -0.2418
 5024SOL    HW219868   4.434   1.013   5.392 -1.0570  1.1571  1.1734
 5024SOL    HW319869   4.298   0.967   5.440 -1.0618 -1.9705 -1.4592
 5024SOL    MW419870   4.376   0.949   5.407 -0.3313 -0.7644 -0.2832
 5025SOL     OW19871   0.421   1.590   4.503 -0.3359 -0.6032 -0.0569
 5025SOL    HW219872   0.422   1.545   4.419  0.1903  0.3878 -0.6059
 5025SOL    HW319873   0.333   1.629   4.509  0.1918  0.8293 -1.0118
 5025SOL    MW419874   0.410   1.589   4.493 -0.1920 -0.4336 -0.3402
 5026SOL     OW19875   4.706   1.391   0.923  0.1283 -0.6436  0.7834
 5026SOL    HW219876   4.686   1.484   0.938 -3.1846 -0.8466 -1.4865
 5026SOL    HW319877   4.624   1.346   0.937  0.1929 -2.4846 -3.3639
 5026SOL    MW419878   4.693   1.397   0.927  0.2047 -0.2192 -0.0487
 5027SOL     OW19879   2.066   1.859   4.954 -0.1718  0.7240  0.1540
 5027SOL    HW219880   2.156   1.883   4.974 -0.7062  1.6821  1.5656
 5027SOL    HW319881   2.026   1.941   4.924 -1.0037  0.7009  1.1742
 5027SOL    MW419882   2.072   1.873   4.952  0.1905  0.0904 -0.0895
 5028SOL     OW19883   3.907   0.996   3.069  0.1631 -0.0583  0.4973
 5028SOL    HW219884   3.833   1.040   3.111 -0.0057 -0.1462  0.2909
 5028SOL    HW319885   3.893   0.903   3.086 -0.8960 -0.2703 -1.3114
 5028SOL    MW419886   3.895   0.990   3.077 -0.1000  0.3756 -0.4825
 5029SOL     OW19887   1.866   2.938   3.182 -0.5462  0.4194 -0.2981
 5029SOL    HW219888   1.943   2.926   3.237  1.7315 -1.1981 -3.4929
 5029SOL    HW319889   1.837   3.028   3.198  2.5215  1.3619  0.4702
 5029SOL    MW419890   1.872   2.948   3.191 -0.3203  0.0141 -0.0087
 5030SOL     OW19891   2.149   1.811   1.155 -0.5111  0.4899 -0.3880
 5030SOL    HW219892   2.055   1.792   1.149 -0.5541  0.5999 -0.0771
 5030SOL    HW319893   2.167   1.813   1.249 -0.2898  0.9371 -0.4388
 5030SOL    MW419894   2.139   1.809   1.166  0.6592  0.0631 -0.3549
 5031SOL     OW19895   4.588   0.832   2.988  0.6145  0.3742 -0.5544
 5031SOL    HW219896   4.663   0.818   3.047  0.7197  0.8762 -0.5666
 5031SOL    HW319897   4.618   0.899   2.927  0.1531  0.5813 -0.5584
 5031SOL    MW419898   4.602   0.839   2.988 -0.6834  0.4628 -0.1461
 5032SOL     OW19899   3.704   5.280   1.797 -0.0637  0.0043 -0.6544
 5032SOL    HW219900   3.784   5.303   1.750  0.4600 -0.1388  0.1345
 5032SOL    HW319901   3.637   5.336   1.760  0.8612  1.7095  0.1387
 5032SOL    MW419902   3.706   5.290   1.786 -0.2055 -0.5689  0.9851
 5033SOL     OW19903   5.525   2.936   3.485  0.3264 -0.4837 -0.6134
 5033SOL    HW219904   5.541   2.966   3.396 -0.5256 -0.9176 -0.9235
 5033SOL    HW319905   5.576   2.995   3.540  0.5683  0.0156 -1.3658
 5033SOL    MW419906   5.533   2.948   3.481  0.2145  0.1751  0.5497
 5034SOL     OW19907   0.077   3.928   3.843  0.2083  0.0066 -0.1032
 5034SOL    HW219908   0.011   3.922   3.775 -1.2852 -1.4214  1.3901
 5034SOL    HW319909   0.037   3.981   3.911  1.1131  0.2238  0.2717
 5034SOL    MW419910   0.063   3.934   3.843 -0.4772 -0.0082 -0.9407
 5035SOL     OW19911   0.850   5.889   4.716 -0.1644 -0.2836  0.2346
 5035SOL    HW219912   0.769   5.857   4.675 -0.2499 -0.6860  0.7031
 5035SOL    HW319913   0.826   5.904   4.808  0.0877  0.3681  0.1970
 5035SOL    MW419914   0.836   5.886   4.723 -0.0910  0.4725  0.2398
 5036SOL     OW19915   5.634   2.616   5.110  1.0928 -0.2520 -0.4153
 5036SOL    HW219916   5.634   2.683   5.178  1.7112 -0.7718  0.1059
 5036SOL    HW319917   5.671   2.659   5.033  1.6917 -0.0604 -0.0212
 5036SOL    MW419918   5.639   2.630   5.109  0.1553 -0.4045  0.0390
 5037SOL     OW19919   2.419   5.617   1.696 -0.0677  0.1321 -0.1650
 5037SOL    HW219920   2.462   5.701   1.711  0.2572  0.1611 -1.1556
 5037SOL    HW319921   2.358   5.634   1.624  2.0585 -1.0911 -2.4393
 5037SOL    MW419922   2.417   5.630   1.688  0.3931 -0.0037 -0.3835
 5038SOL     OW19923   5.152   0.125   4.727 -0.0884  0.0340 -0.1578
 5038SOL    HW219924   5.083   0.068   4.694  0.9147 -0.6580 -1.1571
 5038SOL    HW319925   5.222   0.066   4.754  1.4402  0.7234 -2.2801
 5038SOL    MW419926   5.152   0.110   4.726 -0.0276  0.1793 -0.4475
 5039SOL     OW19927   4.855   0.203   5.182  0.1468  0.1189 -0.1472
 5039SOL    HW219928   4.856   0.269   5.251 -0.9856 -1.4851  1.5018
 5039SOL    HW319929   4.948   0.184   5.165  0.4628  1.5066 -0.0600
 5039SOL    MW419930   4.868   0.209   5.189  0.2301 -0.1252  0.4750
 5040SOL     OW19931   4.896   0.200   1.927 -0.2306  0.2112  0.4659
 5040SOL    HW219932   4.956   0.126   1.914  1.5071  1.6067  0.0877
 5040SOL    HW319933   4.900   0.250   1.846  1.2040  2.4245  1.7683
 5040SOL    MW419934   4.905   0.197   1.915 -0.2300  0.5064 -0.2781
 5041SOL     OW19935   5.297   5.980   0.262  0.3486  0.1658 -0.0935
 5041SOL    HW219936   5.291   6.076   0.264 -0.3463  0.1387 -0.5195
 5041SOL    HW319937   5.391   5.962   0.264  0.4736  0.8416  0.4668
 5041SOL    MW419938   5.309   5.990   0.262  0.3660 -0.1492 -0.1399
 5042SOL     OW19939   6.346   5.536   3.619 -0.3232 -0.4503 -0.0686
 5042SOL    HW219940   6.302   5.558   3.537  0.1268  4.2644  0.6744
 5042SOL    HW319941   6.279   5.490   3.670 -2.1938  0.6647 -1.3801
 5042SOL    MW419942   6.331   5.533   3.615  0.0444  0.7215 -0.1348
 5043SOL     OW19943   2.472   1.589   2.137 -0.3124  0.5028 -0.2827
 5043SOL    HW219944   2.429   1.657   2.189 -1.9612 -0.1786 -0.6724
 5043SOL    HW319945   2.420   1.510   2.153  2.3165 -1.0873  1.2369
 5043SOL    MW419946   2.459   1.587   2.146 -0.0615 -0.6942 -0.4693
 5044SOL     OW19947   4.870   2.301   1.380  0.2486 -0.0578  0.1605
 5044SOL    HW219948   4.847   2.215   1.413  0.9999 -0.2043  0.3126
 5044SOL    HW319949   4.938   2.333   1.441  0.1303  0.5440 -0.0173
 5044SOL    MW419950   4.876   2.294   1.393  0.1849 -0.1530  0.0317
 5045SOL     OW19951   2.996   1.542   2.723 -0.2975  0.1009 -0.4144
 5045SOL    HW219952   3.046   1.493   2.658 -0.2025  1.1349 -1.1371
 5045SOL    HW319953   3.055   1.547   2.799 -0.9695 -2.4030  0.3728
 5045SOL    MW419954   3.011   1.536   2.725 -0.1967  0.6044  0.3586
 5046SOL     OW19955   4.625   2.027   4.696 -0.1446  0.0796 -0.5870
 5046SOL    HW219956   4.642   2.052   4.605 -1.4481  1.5997 -0.4683
 5046SOL    HW319957   4.531   2.037   4.706  0.2091  2.5523  1.5778
 5046SOL    MW419958   4.615   2.032   4.685 -0.1392 -0.0904  0.0371
 5047SOL     OW19959   4.026   2.716   4.859  0.9437 -0.0051 -0.9425
 5047SOL    HW219960   4.044   2.626   4.883  0.0501  0.1647  0.5145
 5047SOL    HW319961   3.988   2.755   4.938 -0.0585  1.2362 -1.9714
 5047SOL    MW419962   4.023   2.709   4.872  1.2057 -0.3753 -0.3121
 5048SOL     OW19963   3.518   4.892   2.009  0.1799 -0.1252 -0.7777
 5048SOL    HW219964   3.595   4.948   2.023  0.5601 -0.3351 -1.9072
 5048SOL    HW319965   3.500   4.853   2.095  1.3416 -0.0845 -0.4992
 5048SOL    MW419966   3.526   4.895   2.022 -0.0447  0.0828  0.2139
 5049SOL     OW19967   5.629   0.475   1.219 -0.0946  0.8321 -0.3578
 5049SOL    HW219968   5.622   0.387   1.183 -0.0285  0.9923 -0.7650
 5049SOL    HW319969   5.654   0.530   1.145 -1.8453  1.4928 -0.5180
 5049SOL    MW419970   5.631   0.470   1.204 -0.1778  0.0394 -0.2741
 5050SOL     OW19971   0.923   4.501   2.521 -0.2882  0.3069  0.5509
 5050SOL    HW219972   0.843   4.453   2.500  0.7163 -2.2480  2.2326
 5050SOL    HW319973   0.988   4.466   2.461  0.6883 -1.2576  2.4350
 5050SOL    MW419974   0.921   4.490   2.510  0.1238  0.2305 -0.0273
 5051SOL     OW19975   4.708   2.003   0.879  0.7695  0.1287 -0.4825
 5051SOL    HW219976   4.672   2.056   0.808  0.3299  1.1893  0.4960
 5051SOL    HW319977   4.657   1.922   0.876 -0.1108  0.6723 -0.5851
 5051SOL    MW419978   4.697   1.999   0.869  0.1072  0.3631  0.3142
 5052SOL     OW19979   0.897   0.107   1.617  0.0728  0.0194  0.2580
 5052SOL    HW219980   0.970   0.084   1.560 -1.2095  0.7990 -1.8339
 5052SOL    HW319981   0.936   0.161   1.686  1.7424 -1.2630  0.3616
 5052SOL    MW419982   0.912   0.111   1.618  0.2851 -0.6266 -0.3066
 5053SOL     OW19983   3.638   5.680   0.626  0.1582 -0.1352 -0.0572
 5053SOL    HW219984   3.666   5.613   0.563  0.8216  1.8761 -2.0189
 5053SOL    HW319985   3.663   5.645   0.711  0.9974 -2.1221 -1.0604
 5053SOL    MW419986   3.645   5.666   0.629 -0.3356 -0.3341  0.1239
 5054SOL     OW19987   4.128   3.135   0.391 -0.2091 -0.0402 -0.1625
 5054SOL    HW219988   4.049   3.110   0.343 -1.0802  0.2809  1.0485
 5054SOL    HW319989   4.120   3.230   0.401  0.8876  0.1494 -0.9695
 5054SOL    MW419990   4.116   3.144   0.386  0.0642 -0.2235 -0.2992
 5055SOL     OW19991   0.318   5.497   5.540  0.0600  0.3351 -0.1456
 5055SOL    HW219992   0.386   5.439   5.574  1.5018  3.1555  2.1881
 5055SOL    HW319993   0.351   5.525   5.455  0.6608 -0.1352 -0.0746
 5055SOL    MW419994   0.331   5.493   5.533 -0.2948  0.4296  0.0198
 5056SOL     OW19995   3.766   5.200   4.688  0.1710 -0.1680  0.2645
 5056SOL    HW219996   3.818   5.141   4.742  1.3863  1.8955  1.4798
 5056SOL    HW319997   3.703   5.238   4.749 -0.1957  0.2365 -0.3567
 5056SOL    MW419998   3.764   5.197   4.703 -0.1031  0.4167 -0.2270
 5057SOL     OW19999   4.328   4.752   6.200  0.1064 -0.1058 -0.2363
 5057SOL    HW220000   4.292   4.696   6.269  2.9780 -0.8758  0.7595
 5057SOL    HW320001   4.321   4.841   6.235  0.5706 -0.3935  0.6195
 5057SOL    MW420002   4.322   4.756   6.214  0.0776 -0.3759  0.8501
 5058SOL     OW20003   6.208   5.132   3.721  0.2661 -0.0912 -0.3146
 5058SOL    HW220004   6.198   5.225   3.741  1.8105 -0.0047  0.1716
 5058SOL    HW320005   6.302   5.118   3.718  0.0707 -1.7708  0.2680
 5058SOL    MW420006   6.219   5.142   3.724 -0.5804 -0.0583 -0.2052
 5059SOL     OW20007   1.982   0.042   2.682  0.1709  0.5479  0.3250
 5059SOL    HW220008   1.892   0.066   2.704 -0.5457 -1.4220 -0.3440
 5059SOL    HW320009   2.020   0.123   2.646 -1.1257  1.5577  1.1328
 5059SOL    MW420010   1.975   0.056   2.681 -0.1171 -0.1463 -0.2129
 5060SOL     OW20011   2.026   4.605   0.208 -0.0053  0.1961  0.5332
 5060SOL    HW220012   1.958   4.654   0.254 -0.2051  1.1036 -0.6785
 5060SOL    HW320013   1.980   4.529   0.171 -0.1624  0.2859  0.5429
 5060SOL    MW420014   2.011   4.601   0.209 -0.3272  0.0746  0.5612
 5061SOL     OW20015   4.112   5.888   2.070  0.6955 -0.6614  0.2537
 5061SOL    HW220016   4.140   5.857   1.984 -1.3222  0.4394 -0.8498
 5061SOL    HW320017   4.018   5.876   2.071  0.2606  2.0579  1.1242
 5061SOL    MW420018   4.103   5.882   2.059 -0.2046  0.0653  0.1774
 5062SOL     OW20019   5.003   4.348   1.646 -0.2254  0.0351 -0.4953
 5062SOL    HW220020   4.970   4.424   1.599  0.1078  0.7535  0.4102
 5062SOL    HW320021   5.087   4.328   1.604 -0.5777 -0.1948 -1.1051
 5062SOL    MW420022   5.010   4.355   1.634  0.1662  0.1057 -0.5146
 5063SOL     OW20023   0.247   5.346   3.746  0.2696 -0.3673  0.0633
 5063SOL    HW220024   0.337   5.318   3.726  0.2154 -0.4728 -0.0326
 5063SOL    HW320025   0.234   5.320   3.837  0.4484 -0.0626  0.1790
 5063SOL    MW420026   0.257   5.339   3.755  0.0849 -0.8945  0.0529
 5064SOL     OW20027   6.316   5.532   6.038  0.0189  0.0214  0.0868
 5064SOL    HW220028   6.348   5.608   5.989  2.4488 -0.7801  0.2643
 5064SOL    HW320029   6.352   5.457   5.991  1.4898 -0.8099  2.3598
 5064SOL    MW420030   6.325   5.532   6.025 -0.2336  1.0312 -0.2577
 5065SOL     OW20031   2.410   2.559   2.251  0.1809 -0.2405  0.1741
 5065SOL    HW220032   2.373   2.617   2.185  0.2597 -0.2749  0.0999
 5065SOL    HW320033   2.358   2.478   2.244  1.1830 -0.8171 -0.9073
 5065SOL    MW420034   2.398   2.556   2.242  0.2226 -0.3334 -0.1785
 5066SOL     OW20035   0.118   5.168   2.531 -0.1482 -0.3054 -0.0651
 5066SOL    HW220036   0.196   5.200   2.485 -0.6950  0.4299 -0.4849
 5066SOL    HW320037   0.109   5.077   2.501 -0.3908  0.1038 -1.2712
 5066SOL    MW420038   0.127   5.160   2.521 -0.1810 -0.4738 -0.6116
 5067SOL     OW20039   5.660   1.056   2.592  0.5113  0.2177 -0.4298
 5067SOL    HW220040   5.643   1.096   2.678 -1.1175  0.4838 -0.8302
 5067SOL    HW320041   5.577   1.065   2.545  1.2852 -0.1918 -1.9391
 5067SOL    MW420042   5.647   1.063   2.597 -0.4434  0.4078  0.3501
 5068SOL     OW20043   1.994   3.193   2.819  0.1030  0.4469  0.0463
 5068SOL    HW220044   2.070   3.146   2.784 -0.6697 -0.8134  0.0259
 5068SOL    HW320045   1.979   3.264   2.757  1.3362  0.7879  0.1153
 5068SOL    MW420046   2.002   3.196   2.807  0.3798  0.0702  0.4200
 5069SOL     OW20047   4.444   4.209   0.104  0.2011  0.8747  0.0771
 5069SOL    HW220048   4.498   4.286   0.123 -0.4030  1.3356 -0.0693
 5069SOL    HW320049   4.355   4.236   0.122 -0.0334  0.2366 -0.0798
 5069SOL    MW420050   4.440   4.222   0.109 -0.5548 -0.6011  0.8911
 5070SOL     OW20051   5.669   6.058   3.820  0.1441 -0.2647 -0.5768
 5070SOL    HW220052   5.727   5.987   3.791 -0.2282 -0.1472 -1.6772
 5070SOL    HW320053   5.672   6.054   3.915  1.4150 -0.7059 -0.6060
 5070SOL    MW420054   5.677   6.048   3.829  0.0339 -0.4634  0.4409
 5071SOL     OW20055   4.510   4.701   2.880  0.1133  0.1936  0.3105
 5071SOL    HW220056   4.417   4.697   2.902 -0.8861  1.3017 -3.0727
 5071SOL    HW320057   4.515   4.666   2.791  2.8998  0.6473  0.1916
 5071SOL    MW420058   4.498   4.696   2.871  0.2203 -0.6729 -0.0157
 5072SOL     OW20059   0.854   6.221   3.236  0.0034 -0.0395 -0.0456
 5072SOL    HW220060   0.948   6.212   3.221  0.1840 -0.5893  1.2546
 5072SOL    HW320061   0.847   6.274   3.316 -0.7719 -0.2642  0.0489
 5072SOL    MW420062   0.865   6.226   3.245 -0.0066 -0.5169 -0.2705
 5073SOL     OW20063   2.183   6.211   5.168 -0.0935  0.5369  0.6490
 5073SOL    HW220064   2.155   6.301   5.154 -0.4154  0.4767  0.8971
 5073SOL    HW320065   2.235   6.214   5.249 -1.1358  0.2944  1.3442
 5073SOL    MW420066   2.186   6.223   5.177 -0.0112 -0.3682 -0.4484
 5074SOL     OW20067   1.868   0.078   5.097  0.3369  0.2482 -0.2599
 5074SOL    HW220068   1.801   0.139   5.066 -0.3775 -0.7438 -0.6991
 5074SOL    HW320069   1.871   0.010   5.030  0.4332 -0.7165  0.7152
 5074SOL    MW420070   1.859   0.077   5.084  0.1910 -0.2849 -0.0506
 5075SOL     OW20071   4.490   4.014   1.185  0.1178 -0.0791  0.1457
 5075SOL    HW220072   4.463   4.105   1.167 -1.1755 -0.5991 -0.6559
 5075SOL    HW320073   4.578   4.023   1.221 -0.0767  1.5212  0.3323
 5075SOL    MW420074   4.498   4.027   1.187 -0.2994  0.4107  0.4579
 5076SOL     OW20075   5.645   6.089   2.997 -0.0279 -0.0767 -0.1133
 5076SOL    HW220076   5.628   6.120   3.086 -0.5953  1.8622 -0.8392
 5076SOL    HW320077   5.581   6.135   2.943  3.1574  2.5219 -2.1356
 5076SOL    MW420078   5.635   6.100   3.001  0.3222 -0.1193  0.2328
 5077SOL     OW20079   6.423   4.753   3.840 -0.3357 -0.3171  0.3158
 5077SOL    HW220080   6.342   4.755   3.789 -0.5684  1.3384  0.6917
 5077SOL    HW320081   6.493   4.768   3.777 -0.7026  2.9276  0.5259
 5077SOL    MW420082   6.421   4.755   3.825  0.5137 -0.1439  0.4700
 5078SOL     OW20083   1.976   2.413   1.082  0.4199 -0.5126  0.3661
 5078SOL    HW220084   1.928   2.485   1.122 -0.6930 -1.0696  0.0521
 5078SOL    HW320085   1.948   2.335   1.130  3.5202 -0.5117  2.4574
 5078SOL    MW420086   1.966   2.412   1.093 -0.0373 -0.1132  0.1187
 5079SOL     OW20087   5.112   2.231   4.938 -0.3245  0.2184  0.1919
 5079SOL    HW220088   5.122   2.179   5.018  1.5335  0.8642  0.4315
 5079SOL    HW320089   5.142   2.174   4.868 -2.0259 -0.3747 -0.1053
 5079SOL    MW420090   5.117   2.217   4.940  0.2418  0.0481 -0.2341
 5080SOL     OW20091   1.431   2.481   2.120  0.2497 -0.2081  0.5159
 5080SOL    HW220092   1.443   2.557   2.062  0.1443 -0.7880 -0.2805
 5080SOL    HW320093   1.451   2.405   2.065  0.0741 -0.7779  1.2239
 5080SOL    MW420094   1.435   2.481   2.105  1.0670 -0.1305 -0.1216
 5081SOL     OW20095   0.068   3.787   0.498  0.0826  0.7105  0.2377
 5081SOL    HW220096   0.159   3.817   0.504  0.0612  1.0707 -0.9804
 5081SOL    HW320097   0.060   3.756   0.408 -1.4418  2.1163 -0.1418
 5081SOL    MW420098   0.079   3.787   0.487 -0.5344  0.1387  0.1178
 5082SOL     OW20099   5.559   6.065   3.573  0.0299  0.2187  0.1447
 5082SOL    HW220100   5.592   6.076   3.662 -0.1885  0.7035  0.1697
 5082SOL    HW320101   5.494   6.135   3.563 -1.1130 -0.8173  0.1571
 5082SOL    MW420102   5.555   6.076   3.584 -0.0987  0.7871 -0.3800
 5083SOL     OW20103   4.895   3.325   1.432  0.3934 -0.4283  0.2011
 5083SOL    HW220104   4.892   3.386   1.359 -0.6755 -0.2561  0.3823
 5083SOL    HW320105   4.943   3.249   1.398  1.1406  0.2294 -0.2279
 5083SOL    MW420106   4.901   3.323   1.418 -0.1130  0.2407 -0.4837
 5084SOL     OW20107   4.537   5.669   4.453  0.3298 -0.4670  0.6122
 5084SOL    HW220108   4.471   5.688   4.520 -0.2916  0.6386 -0.2937
 5084SOL    HW320109   4.504   5.591   4.408 -0.4464  0.1487  0.0835
 5084SOL    MW420110   4.524   5.661   4.456  0.2683  0.1630 -0.5993
 5085SOL     OW20111   4.574   6.244   0.399  0.5424 -0.1303  0.1822
 5085SOL    HW220112   4.637   6.245   0.327  1.5930 -1.1983  1.0388
 5085SOL    HW320113   4.526   6.326   0.390  1.1104  0.0773 -1.3171
 5085SOL    MW420114   4.576   6.255   0.388 -0.7010  0.2136  0.4712
 5086SOL     OW20115   2.047   4.127   4.447 -0.3730  0.2427  0.0144
 5086SOL    HW220116   2.064   4.186   4.374  0.2287  0.4183  0.2960
 5086SOL    HW320117   2.133   4.098   4.476 -0.6811 -2.8644 -1.8059
 5086SOL    MW420118   2.060   4.131   4.441 -0.8222 -0.4584  0.7737
 5087SOL     OW20119   6.426   4.343   3.243 -0.1287  0.2950 -0.0347
 5087SOL    HW220120   6.425   4.378   3.154 -1.8680  0.9228  0.1958
 5087SOL    HW320121   6.336   4.354   3.274  0.1894 -0.9187  1.4161
 5087SOL    MW420122   6.414   4.349   3.235 -0.6998 -0.0517  0.2449
 5088SOL     OW20123   2.933   5.020   1.597  0.4361  0.3928  0.1394
 5088SOL    HW220124   2.889   4.942   1.562 -2.2503  1.1452  1.5560
 5088SOL    HW320125   2.937   5.080   1.523  0.0322 -0.1111 -0.3013
 5088SOL    MW420126   2.927   5.017   1.583 -0.0586 -0.0641  0.8110
 5089SOL     OW20127   4.125   1.243   1.261  0.5809  0.3982  0.1520
 5089SOL    HW220128   4.193   1.242   1.328  0.2085 -0.4018  0.5291
 5089SOL    HW320129   4.142   1.323   1.210  0.3741  1.4694  1.7080
 5089SOL    MW420130   4.136   1.254   1.263 -0.6106 -0.3689  0.2540
 5090SOL     OW20131   5.816   3.251   3.021 -0.1154 -0.0799  0.0018
 5090SOL    HW220132   5.789   3.242   2.929 -0.1987 -0.0720  0.0248
 5090SOL    HW320133   5.738   3.285   3.065 -2.4316 -5.8940  1.3038
 5090SOL    MW420134   5.802   3.254   3.014  0.5887  0.2955 -0.0615
 5091SOL     OW20135   6.348   1.092   6.219  0.0543 -0.2266 -0.0127
 5091SOL    HW220136   6.330   1.180   6.253  0.9254 -0.1072  0.1573
 5091SOL    HW320137   6.263   1.048   6.222 -0.5359  0.8084 -0.7260
 5091SOL    MW420138   6.335   1.098   6.224 -0.3367 -0.4956  0.9110
 5092SOL     OW20139   2.704   4.244   1.004  0.7744 -0.0279  0.0836
 5092SOL    HW220140   2.771   4.273   0.943  0.4582 -0.4473 -0.4727
 5092SOL    HW320141   2.734   4.158   1.034 -0.3148 -0.9894 -1.4564
 5092SOL    MW420142   2.717   4.236   1.000 -0.9081 -0.1427 -0.2035
 5093SOL     OW20143   2.670   5.929   4.803 -0.0870 -0.1522  0.4064
 5093SOL    HW220144   2.578   5.909   4.786 -0.4688  1.0230  0.9464
 5093SOL    HW320145   2.694   5.875   4.878 -0.2873 -0.5901  0.1544
 5093SOL    MW420146   2.661   5.919   4.810  0.5293 -0.4267 -0.1253
 5094SOL     OW20147   1.567   1.200   2.011  0.5353 -0.1358  0.0110
 5094SOL    HW220148   1.563   1.246   1.927 -2.6773  1.3419  0.8086
 5094SOL    HW320149   1.564   1.270   2.076  1.1750 -1.3200  1.3744
 5094SOL    MW420150   1.566   1.216   2.008  0.4079 -0.6147  0.0346
 5095SOL     OW20151   1.224   4.187   3.538 -0.2804  0.0072 -0.3332
 5095SOL    HW220152   1.276   4.180   3.458  0.6992 -2.2516  0.4057
 5095SOL    HW320153   1.148   4.239   3.513  1.2052  1.5008 -2.0458
 5095SOL    MW420154   1.221   4.193   3.524 -0.5637  0.3406 -0.1048
 5096SOL     OW20155   4.913   5.016   3.284 -0.1149  0.0764 -0.8065
 5096SOL    HW220156   4.970   4.969   3.223 -1.6721  1.1509 -3.2585
 5096SOL    HW320157   4.841   4.956   3.302  0.5797 -0.4161  0.4081
 5096SOL    MW420158   4.911   5.002   3.278 -0.2824 -0.0530  0.3203
 5097SOL     OW20159   1.890   1.546   5.963  0.2863 -0.0617  0.5442
 5097SOL    HW220160   1.967   1.494   5.938  1.4875  0.2454  3.2918
 5097SOL    HW320161   1.925   1.614   6.021 -1.9452  0.7228  1.0624
 5097SOL    MW420162   1.905   1.548   5.967  0.0342  0.0367  0.1548
 5098SOL     OW20163   2.940   1.117   2.827 -0.3787  0.1144 -0.1715
 5098SOL    HW220164   3.028   1.151   2.845 -0.5544  0.8363 -0.6351
 5098SOL    HW320165   2.937   1.106   2.732 -0.6657 -0.2643 -0.1208
 5098SOL    MW420166   2.951   1.120   2.817  0.1607 -0.3162 -0.3710
 5099SOL     OW20167   0.523   3.245   3.575 -0.1134 -0.3667  0.3812
 5099SOL    HW220168   0.496   3.158   3.605  2.3408 -1.2632  0.1828
 5099SOL    HW320169   0.522   3.238   3.479 -2.0245  0.5794  0.2760
 5099SOL    MW420170   0.519   3.233   3.566 -0.2652  0.9436  0.4253
 5100SOL     OW20171   1.784   1.494   2.079 -0.0666  0.0755 -0.4596
 5100SOL    HW220172   1.747   1.582   2.087 -1.5558 -0.5130 -0.5513
 5100SOL    HW320173   1.742   1.444   2.150  1.1419 -0.4548 -0.0806
 5100SOL    MW420174   1.774   1.499   2.090  0.1406 -0.6270  0.2725
 5101SOL     OW20175   1.655   0.464   4.378 -0.1868  0.2201  0.2979
 5101SOL    HW220176   1.683   0.439   4.466  0.0604  2.8666  1.0533
 5101SOL    HW320177   1.560   0.449   4.378 -0.1267 -0.1806  0.8606
 5101SOL    MW420178   1.646   0.458   4.389 -0.4498 -0.4812 -0.0805
 5102SOL     OW20179   0.425   2.409   5.482  0.0819  0.5338  0.0844
 5102SOL    HW220180   0.499   2.433   5.426  1.3048 -0.0687  1.3785
 5102SOL    HW320181   0.365   2.483   5.476  1.0422  1.2911 -0.5467
 5102SOL    MW420182   0.427   2.422   5.474 -0.5013 -0.2123 -0.0776
 5103SOL     OW20183   4.247   2.615   0.090  0.2616 -0.2543  0.4990
 5103SOL    HW220184   4.316   2.573   0.142  0.0838 -0.0617  0.8944
 5103SOL    HW320185   4.194   2.662   0.154  1.0823  1.4842 -0.0162
 5103SOL    MW420186   4.249   2.616   0.105 -0.1117  0.5573 -0.2261
 5104SOL     OW20187   2.194   1.017   4.112  0.6168 -0.5768 -0.7124
 5104SOL    HW220188   2.111   1.043   4.152  1.5856  0.1829  0.9200
 5104SOL    HW320189   2.258   1.079   4.147  2.0372 -1.7029 -1.2157
 5104SOL    MW420190   2.192   1.029   4.122  0.2116 -0.6320 -1.6625
 5105SOL     OW20191   5.193   5.495   3.843 -0.0576  0.1482 -0.3450
 5105SOL    HW220192   5.172   5.508   3.936  1.1705  0.6738 -0.1256
 5105SOL    HW320193   5.287   5.510   3.837 -0.1114  0.0842 -1.6776
 5105SOL    MW420194   5.202   5.499   3.854  0.2948 -0.2863 -0.0235
 5106SOL     OW20195   3.177   3.625   2.525 -0.3051  0.1617  0.5349
 5106SOL    HW220196   3.223   3.696   2.480  0.1735 -1.2066 -1.2782
 5106SOL    HW320197   3.186   3.550   2.466  0.0813 -1.6959  2.8114
 5106SOL    MW420198   3.184   3.624   2.511 -0.2058  0.1775 -0.4206
 5107SOL     OW20199   0.591   4.172   3.586 -0.0475 -0.3063 -0.1425
 5107SOL    HW220200   0.658   4.240   3.575 -1.1123  0.6423 -0.8314
 5107SOL    HW320201   0.530   4.208   3.650  0.5438 -1.5405  1.1738
 5107SOL    MW420202   0.592   4.186   3.593 -0.1921 -0.2404  0.2928
 5108SOL     OW20203   4.284   1.946   4.925  0.2104 -0.1096 -0.1783
 5108SOL    HW220204   4.273   1.986   5.011  2.2801  1.0418 -0.3891
 5108SOL    HW320205   4.201   1.900   4.909 -1.0541  1.4737  1.4425
 5108SOL    MW420206   4.271   1.945   4.934 -0.1839  0.1679  0.2805
 5109SOL     OW20207   0.492   1.288   6.256  0.2053 -0.1587 -0.0772
 5109SOL    HW220208   0.472   1.264   6.346 -0.6674 -0.4324 -0.3355
 5109SOL    HW320209   0.529   1.376   6.262  0.9331 -0.5019  0.6174
 5109SOL    MW420210   0.494   1.296   6.269 -0.0856 -0.5302  0.4621
 5110SOL     OW20211   3.940   1.909   4.398  0.2257  0.3003 -0.0815
 5110SOL    HW220212   3.948   1.909   4.302 -2.0454 -0.4340 -0.3377
 5110SOL    HW320213   3.938   1.816   4.422 -0.6696  0.4552  0.4942
 5110SOL    MW420214   3.940   1.897   4.388 -0.3684 -0.8935 -0.1888
 5111SOL     OW20215   1.968   0.135   6.316 -0.3518  0.0833  0.4368
 5111SOL    HW220216   1.890   0.091   6.283  1.1518 -0.2805 -3.0726
 5111SOL    HW320217   2.037   0.069   6.311  0.6248  0.9934  1.3611
 5111SOL    MW420218   1.967   0.121   6.311  0.4658  0.0783 -0.0757
 5112SOL     OW20219   5.518   5.825   4.502 -0.3876  0.3321 -0.1038
 5112SOL    HW220220   5.495   5.766   4.430  0.7272 -0.0792 -0.1349
 5112SOL    HW320221   5.440   5.825   4.558 -0.5439 -0.9089 -0.2780
 5112SOL    MW420222   5.504   5.817   4.500  0.4335  0.2180  0.0713
 5113SOL     OW20223   1.928   4.726   1.690 -0.0336  0.5743  0.0361
 5113SOL    HW220224   1.962   4.714   1.601  0.1008  1.8266 -0.0988
 5113SOL    HW320225   1.999   4.695   1.746 -0.1773 -0.3645 -0.2757
 5113SOL    MW420226   1.942   4.720   1.686 -0.6399  0.5917  0.0056
 5114SOL     OW20227   4.733   5.608   3.050 -0.1061  0.2787 -0.1854
 5114SOL    HW220228   4.659   5.557   3.017  1.0012 -0.3510 -1.8460
 5114SOL    HW320229   4.746   5.577   3.140 -2.9071  1.6603  0.8057
 5114SOL    MW420230   4.725   5.597   3.058 -0.0990 -0.2429 -0.1260
 5115SOL     OW20231   5.520   1.974   5.578 -0.1098  0.3415  0.0902
 5115SOL    HW220232   5.571   1.899   5.548  0.1192  0.0338  1.1750
 5115SOL    HW320233   5.489   1.948   5.665 -1.8606  0.6486 -0.3943
 5115SOL    MW420234   5.522   1.960   5.586  0.5239 -0.7628 -0.1795
 5116SOL     OW20235   5.084   0.819   0.764  0.3219 -0.6638 -0.0289
 5116SOL    HW220236   5.017   0.783   0.822 -0.6734  1.1934  0.0223
 5116SOL    HW320237   5.077   0.766   0.684 -1.5083 -0.2537 -0.1845
 5116SOL    MW420238   5.074   0.807   0.761  0.2127  0.6695 -0.3531
 5117SOL     OW20239   0.751   0.667   5.762  0.7704 -0.4944 -0.5946
 5117SOL    HW220240   0.791   0.721   5.831 -0.5446 -0.0798 -0.1239
 5117SOL    HW320241   0.756   0.722   5.684 -0.9788  0.5733 -0.0182
 5117SOL    MW420242   0.757   0.682   5.761  0.0314  0.9359 -0.0311
 5118SOL     OW20243   0.160   2.886   3.504 -0.2180  0.0923  0.1309
 5118SOL    HW220244   0.244   2.920   3.535 -1.0882  0.1641  2.6249
 5118SOL    HW320245   0.178   2.795   3.481  0.5555  0.1052  0.6297
 5118SOL    MW420246   0.173   2.879   3.505  0.3398  0.0889  0.3669
 5119SOL     OW20247   4.223   0.431   1.574  0.0297  0.1889  0.1972
 5119SOL    HW220248   4.233   0.468   1.486  1.0622 -2.1940 -0.7655
 5119SOL    HW320249   4.144   0.377   1.568  1.0018 -1.2856  0.2043
 5119SOL    MW420250   4.214   0.428   1.562  0.1021  0.6456  0.3732
 5120SOL     OW20251   2.266   1.867   5.393 -0.3729 -0.2036 -0.1132
 5120SOL    HW220252   2.335   1.881   5.457  0.1846  0.5513 -0.8522
 5120SOL    HW320253   2.188   1.906   5.433  0.1431  0.9715 -0.1998
 5120SOL    MW420254   2.265   1.874   5.407 -0.2267 -0.2651  0.0466
 5121SOL     OW20255   0.244   6.401   4.435  0.1509  0.8675 -0.0895
 5121SOL    HW220256   0.169   6.352   4.468 -0.3070  0.4346 -1.7013
 5121SOL    HW320257   0.211   6.447   4.358  2.1354 -1.4495 -2.4963
 5121SOL    MW420258   0.230   6.401   4.429 -0.2719 -0.9102 -0.3011
 5122SOL     OW20259   2.253   2.310   4.101 -0.0744  0.0250  0.1988
 5122SOL    HW220260   2.183   2.375   4.113  0.5809  0.6147  0.8500
 5122SOL    HW320261   2.273   2.279   4.189  0.4793 -0.1649  0.0080
 5122SOL    MW420262   2.246   2.314   4.114 -0.0689  0.3072  0.0164
 5123SOL     OW20263   4.284   0.533   0.103 -0.0849 -0.5437  0.1066
 5123SOL    HW220264   4.212   0.534   0.041 -0.0758  0.4247  0.0913
 5123SOL    HW320265   4.347   0.472   0.066 -0.4584 -0.6275 -0.3984
 5123SOL    MW420266   4.283   0.525   0.090 -0.1764  0.2887  0.4060
 5124SOL     OW20267   3.794   0.502   3.509  0.0319 -0.6343 -0.1570
 5124SOL    HW220268   3.797   0.411   3.539  0.4234 -0.2855  0.9393
 5124SOL    HW320269   3.815   0.553   3.588 -2.0928  0.4942 -0.2543
 5124SOL    MW420270   3.797   0.497   3.524  0.3103 -0.3385 -0.0884
 5125SOL     OW20271   6.396   6.420   1.925 -0.3379  0.5129 -0.5929
 5125SOL    HW220272   6.473   6.369   1.899 -1.1798  0.4983 -3.3705
 5125SOL    HW320273   6.323   6.376   1.882 -1.9221  0.6982  1.7498
 5125SOL    MW420274   6.397   6.408   1.916  0.2227  0.3489 -0.0509
 5126SOL     OW20275   0.786   4.384   3.569  0.1202  0.6146  0.5817
 5126SOL    HW220276   0.866   4.379   3.516 -0.0012 -0.8681  0.5041
 5126SOL    HW320277   0.806   4.451   3.635  0.2018  2.6758 -1.3960
 5126SOL    MW420278   0.799   4.393   3.571 -0.0403  0.2510 -0.8657
 5127SOL     OW20279   1.288   1.623   0.947  0.3098  0.6061  0.2920
 5127SOL    HW220280   1.272   1.580   1.032 -0.8729  0.1318 -0.1521
 5127SOL    HW320281   1.277   1.716   0.965  1.1719  0.6095  0.8907
 5127SOL    MW420282   1.284   1.629   0.961 -0.2114  0.2444  0.5130
 5128SOL     OW20283   0.700   3.699   4.981  0.5786  0.0379 -0.2943
 5128SOL    HW220284   0.646   3.661   4.912  0.7618 -0.0599 -0.3856
 5128SOL    HW320285   0.659   3.784   4.999  0.2119 -0.1754 -0.1353
 5128SOL    MW420286   0.687   3.705   4.974 -0.6017 -0.3716 -0.5856
 5129SOL     OW20287   3.461   5.816   0.327  0.2715 -0.2205 -0.4568
 5129SOL    HW220288   3.388   5.794   0.385  0.1621  0.6124 -0.2752
 5129SOL    HW320289   3.425   5.879   0.265  1.4090  2.1864  1.1617
 5129SOL    MW420290   3.447   5.821   0.327 -1.1488 -0.1633 -0.0831
 5130SOL     OW20291   2.161   1.899   3.158  0.2913  0.4158 -0.0506
 5130SOL    HW220292   2.089   1.952   3.193  1.2510  1.3905  0.5090
 5130SOL    HW320293   2.151   1.905   3.063 -0.6924  0.0661  0.0207
 5130SOL    MW420294   2.150   1.907   3.150 -0.4574  0.7207  0.0796
 5131SOL     OW20295   2.392   4.765   4.258 -0.5271  0.4248  0.6714
 5131SOL    HW220296   2.470   4.796   4.303  0.1461 -0.3135  0.0446
 5131SOL    HW320297   2.349   4.845   4.227  0.5894  0.8023  0.0413
 5131SOL    MW420298   2.396   4.779   4.260  0.1292  0.7398  0.6285
 5132SOL     OW20299   0.629   3.646   1.416  0.3232 -0.2464 -0.1087
 5132SOL    HW220300   0.631   3.722   1.358  1.8510 -1.3596 -1.6239
 5132SOL    HW320301   0.717   3.608   1.409 -0.2262 -1.8413  1.0109
 5132SOL    MW420302   0.641   3.651   1.407 -0.0338 -0.0713 -0.0405
 5133SOL     OW20303   2.020   1.988   3.789 -0.4595 -0.3966  0.1976
 5133SOL    HW220304   2.103   2.033   3.773  0.0773 -1.6755 -0.8840
 5133SOL    HW320305   1.954   2.056   3.785  0.5398  0.6730  1.1817
 5133SOL    MW420306   2.023   2.003   3.786 -0.6044 -0.0043  0.1506
 5134SOL     OW20307   5.586   1.322   3.381 -0.7658  0.1902 -0.0379
 5134SOL    HW220308   5.505   1.373   3.382  0.1055  1.6227  1.1805
 5134SOL    HW320309   5.589   1.279   3.466 -1.1710 -1.4776 -0.8098
 5134SOL    MW420310   5.575   1.323   3.392  0.1644  0.5748 -0.0883
 5135SOL     OW20311   2.855   4.347   2.218 -0.0354 -0.3414 -0.2827
 5135SOL    HW220312   2.917   4.312   2.282 -0.8117 -0.6207  0.3348
 5135SOL    HW320313   2.909   4.370   2.142  0.6317 -2.1593 -0.4186
 5135SOL    MW420314   2.870   4.345   2.216 -0.2575 -0.0767 -0.4560
 5136SOL     OW20315   2.373   2.041   5.210  0.1320 -0.1076  0.0001
 5136SOL    HW220316   2.354   1.969   5.271  0.8209 -0.3970 -0.1227
 5136SOL    HW320317   2.359   2.002   5.124  0.2050 -0.0033 -0.0579
 5136SOL    MW420318   2.369   2.026   5.207  0.1665 -0.7445  0.1445
 5137SOL     OW20319   4.880   5.264   3.844 -0.2400  0.2309 -0.3844
 5137SOL    HW220320   4.879   5.307   3.929 -0.1860 -0.1918 -0.1684
 5137SOL    HW320321   4.829   5.322   3.787  1.7067  1.7543 -0.6837
 5137SOL    MW420322   4.873   5.277   3.848 -0.4388 -0.1956 -0.1794
 5138SOL     OW20323   3.919   5.866   2.809 -0.5023  0.3944  0.0859
 5138SOL    HW220324   3.920   5.961   2.805 -0.4509  0.4825  1.6287
 5138SOL    HW320325   3.827   5.844   2.825 -0.4998  0.1755 -0.1790
 5138SOL    MW420326   3.907   5.875   2.810 -0.1871  0.3377 -0.9998
 5139SOL     OW20327   1.363   5.900   5.745  0.4362  0.2178 -0.5568
 5139SOL    HW220328   1.287   5.958   5.737  0.6044  0.4292 -0.6104
 5139SOL    HW320329   1.332   5.829   5.802  0.1764  0.2662 -0.6361
 5139SOL    MW420330   1.349   5.898   5.752  0.5966 -0.4073 -0.0714
 5140SOL     OW20331   0.406   4.676   0.049  0.0910  0.0045 -0.2960
 5140SOL    HW220332   0.435   4.585   0.042 -1.2130 -0.3574 -1.4879
 5140SOL    HW320333   0.333   4.673   0.111  0.0312  0.2237 -0.3544
 5140SOL    MW420334   0.400   4.663   0.056  0.4764 -0.0144  0.1992
 5141SOL     OW20335   4.322   1.684   4.047 -0.2536 -0.2011 -0.6421
 5141SOL    HW220336   4.236   1.697   4.007 -0.0777 -0.0745 -0.9817
 5141SOL    HW320337   4.353   1.773   4.066 -0.6393 -0.2772  0.4430
 5141SOL    MW420338   4.314   1.698   4.045 -0.5432  0.0289 -0.2927
 5142SOL     OW20339   0.984   1.906   3.189  0.4148  0.3309 -0.6568
 5142SOL    HW220340   0.944   1.980   3.234  1.0495 -0.4371  1.2673
 5142SOL    HW320341   0.974   1.926   3.096  0.4362  2.7587 -0.2004
 5142SOL    MW420342   0.977   1.919   3.182  0.1724  0.6253 -0.2052
 5143SOL     OW20343   6.048   2.150   2.779  0.5053 -0.0262 -0.2244
 5143SOL    HW220344   6.110   2.085   2.811  0.1983 -0.2675 -0.1205
 5143SOL    HW320345   6.098   2.201   2.715  0.2651 -1.4778 -1.6160
 5143SOL    MW420346   6.062   2.148   2.775  0.7132 -0.0986 -0.0174
 5144SOL     OW20347   6.232   1.123   0.117 -0.6278  0.2247  0.0209
 5144SOL    HW220348   6.293   1.154   0.184 -1.3778  0.1381  0.7596
 5144SOL    HW320349   6.241   1.185   0.046 -1.2807  1.5150  1.0229
 5144SOL    MW420350   6.241   1.135   0.117  0.0336 -0.4307  0.4630
 5145SOL     OW20351   3.543   5.795   4.093  0.3405 -0.6410 -0.2734
 5145SOL    HW220352   3.536   5.788   3.998  1.3306 -1.7049 -0.2869
 5145SOL    HW320353   3.540   5.889   4.110  3.5533 -0.1472 -1.6896
 5145SOL    MW420354   3.541   5.807   4.083 -0.0066 -0.0972 -0.2757
 5146SOL     OW20355   1.187   3.100   1.618  0.7441 -0.1863 -0.0380
 5146SOL    HW220356   1.125   3.098   1.545 -0.0804 -0.3593  0.6448
 5146SOL    HW320357   1.194   3.193   1.641  0.2547 -0.2277  0.2816
 5146SOL    MW420358   1.180   3.112   1.611 -0.0509 -0.1174  0.1831
 5147SOL     OW20359   5.938   3.560   5.660 -0.1134 -0.1373 -0.5401
 5147SOL    HW220360   5.866   3.555   5.597  0.9369 -0.9851 -1.7235
 5147SOL    HW320361   5.977   3.472   5.658 -0.9488 -0.6828  2.4429
 5147SOL    MW420362   5.934   3.547   5.651 -0.1469 -0.3864  0.2546
 5148SOL     OW20363   3.372   1.153   0.049  0.2571 -0.8689  0.0744
 5148SOL    HW220364   3.314   1.227   0.064  0.6132 -0.7882  1.1383
 5148SOL    HW320365   3.417   1.174  -0.033 -0.8011 -0.6766 -0.4731
 5148SOL    MW420366   3.370   1.165   0.040  0.1974 -0.1909  0.2929
 5149SOL     OW20367   6.110   5.852   5.142  0.4056  0.4961  0.1256
 5149SOL    HW220368   6.133   5.831   5.233  1.6159  0.4191 -0.1829
 5149SOL    HW320369   6.015   5.849   5.140  0.3917 -0.2767  1.2122
 5149SOL    MW420370   6.101   5.849   5.154 -0.0193  0.1173 -0.0871
 5150SOL     OW20371   6.130   1.945   3.754 -0.2867  0.5598 -0.0086
 5150SOL    HW220372   6.150   1.960   3.846  0.9829  1.0713 -0.3446
 5150SOL    HW320373   6.099   2.030   3.722  1.6173  1.0782 -0.6042
 5150SOL    MW420374   6.128   1.959   3.762 -0.2702  0.6345  0.2390
 5151SOL     OW20375   4.439   3.529   0.476  0.1621  0.0094 -0.5284
 5151SOL    HW220376   4.419   3.451   0.526 -1.0035  0.8078  0.2992
 5151SOL    HW320377   4.456   3.498   0.387 -1.1052 -1.0940 -0.3988
 5151SOL    MW420378   4.439   3.515   0.471 -0.1508 -0.5829  0.0313
 5152SOL     OW20379   4.492   5.887   0.474 -0.1780 -0.5498  0.3767
 5152SOL    HW220380   4.474   5.863   0.383  1.0346 -0.1547  0.0143
 5152SOL    HW320381   4.548   5.818   0.506 -0.3375 -0.5155  0.7312
 5152SOL    MW420382   4.497   5.875   0.466 -0.2596  0.1866  0.4795
 5153SOL     OW20383   3.912   1.967   3.472  0.1420 -0.0625  0.4854
 5153SOL    HW220384   3.977   2.032   3.497  1.7870 -1.7360  0.7313
 5153SOL    HW320385   3.962   1.897   3.430 -1.6398 -0.9163 -0.3337
 5153SOL    MW420386   3.927   1.966   3.470 -0.1296 -0.2197  0.0818
 5154SOL     OW20387   0.393   5.384   0.250  0.2419  0.3087  0.1387
 5154SOL    HW220388   0.456   5.376   0.179  0.4346  0.4430  0.2935
 5154SOL    HW320389   0.309   5.399   0.206  0.0921 -1.1370 -0.1144
 5154SOL    MW420390   0.390   5.385   0.235  0.7332 -0.0021  0.0860
 5155SOL     OW20391   2.417   3.598   0.791  0.2040 -0.0610  0.9132
 5155SOL    HW220392   2.365   3.674   0.765  1.6301  0.5795 -0.2035
 5155SOL    HW320393   2.503   3.633   0.812  0.6360 -1.2733  1.2686
 5155SOL    MW420394   2.421   3.613   0.790 -0.2350 -0.1835 -0.0482
 5156SOL     OW20395   0.565   4.795   2.604  0.0657 -0.3086  0.1109
 5156SOL    HW220396   0.583   4.749   2.522 -1.1578 -0.0437 -0.3233
 5156SOL    HW320397   0.597   4.737   2.673  3.0668  0.3527 -0.5826
 5156SOL    MW420398   0.572   4.782   2.602 -0.3447 -0.1961 -0.2085
 5157SOL     OW20399   5.057   0.779   4.282  0.1472 -0.3641  0.2599
 5157SOL    HW220400   5.048   0.710   4.217 -0.9823  1.5931 -1.8174
 5157SOL    HW320401   5.151   0.795   4.287  0.3021 -1.0300 -0.3611
 5157SOL    MW420402   5.068   0.772   4.274  0.2535 -0.4819  0.2592
 5158SOL     OW20403   4.478   0.431   1.916 -0.1118 -0.1340  0.1818
 5158SOL    HW220404   4.497   0.520   1.884 -1.0435  0.6532  1.6814
 5158SOL    HW320405   4.561   0.399   1.949 -0.0282  0.7188  0.8332
 5158SOL    MW420406   4.491   0.439   1.916 -0.2025 -0.3124 -0.3559
 5159SOL     OW20407   1.643   3.098   3.530 -0.1113  0.1375  0.0785
 5159SOL    HW220408   1.562   3.050   3.516  0.4107 -1.0103  0.8275
 5159SOL    HW320409   1.685   3.102   3.444 -1.7119  2.2461 -0.6881
 5159SOL    MW420410   1.638   3.092   3.517 -0.4746 -0.0785 -0.3033
 5160SOL     OW20411   2.350   6.039   3.019 -0.6612  0.6496  0.0555
 5160SOL    HW220412   2.388   5.962   3.061 -0.3801 -0.1338 -1.5492
 5160SOL    HW320413   2.389   6.113   3.065  1.2033 -0.1531 -0.1352
 5160SOL    MW420414   2.360   6.038   3.030  0.0039 -0.2554 -0.2213
 5161SOL     OW20415   4.907   5.907   3.965  0.0384 -0.1158  0.2180
 5161SOL    HW220416   4.838   5.931   3.904  0.0104  0.3475  0.4280
 5161SOL    HW320417   4.988   5.925   3.917  0.0123 -0.1789  0.1516
 5161SOL    MW420418   4.909   5.913   3.951  0.0648 -0.6295 -0.2208
 5162SOL     OW20419   4.346   2.411   3.092 -0.0830 -0.0788 -0.1716
 5162SOL    HW220420   4.361   2.449   3.178  0.4422  1.1580 -0.7801
 5162SOL    HW320421   4.251   2.399   3.087 -0.2487  0.9434  0.1643
 5162SOL    MW420422   4.336   2.415   3.102 -0.5296  0.1515  0.0505
 5163SOL     OW20423   2.643   3.101   4.577  0.0107  0.0741  0.8730
 5163SOL    HW220424   2.663   3.158   4.503  1.1099 -1.0386  0.2867
 5163SOL    HW320425   2.573   3.146   4.623  0.3090  1.5079 -0.0167
 5163SOL    MW420426   2.636   3.114   4.573 -0.1411  0.4447  0.2571
 5164SOL     OW20427   3.099   5.699   5.088 -0.0474  0.2453 -0.2402
 5164SOL    HW220428   3.089   5.775   5.146  1.5242  0.4888 -0.2307
 5164SOL    HW320429   3.188   5.668   5.105 -0.2262 -0.8321 -1.1685
 5164SOL    MW420430   3.110   5.705   5.098 -0.4923  0.7189  0.6739
 5165SOL     OW20431   2.863   1.824   3.650 -0.1844 -0.8127  0.1746
 5165SOL    HW220432   2.823   1.746   3.611  1.5762 -2.9387  2.2548
 5165SOL    HW320433   2.918   1.860   3.581 -1.9167 -0.6702 -1.1947
 5165SOL    MW420434   2.865   1.818   3.636 -0.3948  0.0596  0.0573
 5166SOL     OW20435   5.997   3.374   1.890  0.3813  0.1075 -0.0450
 5166SOL    HW220436   6.031   3.299   1.938 -0.7424 -0.7154 -0.5002
 5166SOL    HW320437   5.906   3.352   1.872  0.4786  0.8666 -1.6300
 5166SOL    MW420438   5.989   3.361   1.894  0.5490 -0.0874  0.0436
 5167SOL     OW20439   3.763   5.134   1.285 -0.3463 -0.1998  0.3885
 5167SOL    HW220440   3.716   5.194   1.343  0.3103  0.5780  0.1272
 5167SOL    HW320441   3.853   5.166   1.284  0.0372 -1.2267  0.2878
 5167SOL    MW420442   3.768   5.146   1.292 -0.7976 -0.1705  0.2296
 5168SOL     OW20443   4.504   4.318   1.795  0.5055  0.3976 -0.5279
 5168SOL    HW220444   4.538   4.369   1.869  1.6573  0.6199 -1.1765
 5168SOL    HW320445   4.552   4.236   1.798 -0.1712 -0.0016 -0.4483
 5168SOL    MW420446   4.515   4.314   1.805  0.3172  0.4270  0.4408
 5169SOL     OW20447   1.715   3.045   0.047 -0.4938 -0.5511  0.1404
 5169SOL    HW220448   1.697   2.952   0.054  0.4457 -0.8032 -0.5964
 5169SOL    HW320449   1.705   3.065  -0.047  0.6132 -0.2016  0.0844
 5169SOL    MW420450   1.711   3.036   0.035 -0.1069  0.1218  1.0093
 5170SOL     OW20451   3.757   5.059   3.445 -0.2182  0.9615 -0.0690
 5170SOL    HW220452   3.698   5.115   3.396 -2.9513 -1.3575  0.2931
 5170SOL    HW320453   3.720   5.056   3.533  0.9419  0.0996  0.4139
 5170SOL    MW420454   3.745   5.066   3.450 -0.1539  0.0702 -0.1967
 5171SOL     OW20455   5.506   1.635   2.616 -0.5564 -0.0628  0.0496
 5171SOL    HW220456   5.519   1.637   2.521  0.6276  0.0666  0.1963
 5171SOL    HW320457   5.529   1.723   2.646 -0.6382 -0.1849  0.4864
 5171SOL    MW420458   5.510   1.647   2.608 -0.2758  0.2549 -0.1340
 5172SOL     OW20459   5.834   4.137   4.161 -0.2422  0.0710 -0.0159
 5172SOL    HW220460   5.898   4.208   4.156  0.2748 -0.4231 -0.6309
 5172SOL    HW320461   5.759   4.169   4.110  0.0318  0.1383 -0.3835
 5172SOL    MW420462   5.832   4.151   4.153 -0.0943 -0.2270 -0.1598
 5173SOL     OW20463   2.740   1.986   3.843  0.0127  0.4366 -0.1900
 5173SOL    HW220464   2.759   1.924   3.773  0.4544  0.0522  0.2635
 5173SOL    HW320465   2.816   2.045   3.844 -0.1093  0.5950 -0.1980
 5173SOL    MW420466   2.753   1.986   3.834 -0.1799  0.1419 -0.3565
 5174SOL     OW20467   0.598   5.077   0.178  0.3668  0.1862 -0.0810
 5174SOL    HW220468   0.603   4.984   0.154 -0.3025  0.8721 -3.4503
 5174SOL    HW320469   0.516   5.084   0.227 -0.6167 -0.7413 -1.5167
 5174SOL    MW420470   0.588   5.066   0.181 -0.2027 -0.0821 -0.3743
 5175SOL     OW20471   4.851   6.155   2.895  0.8380 -0.2147  0.0845
 5175SOL    HW220472   4.924   6.162   2.957  1.4742 -2.2057 -0.3646
 5175SOL    HW320473   4.873   6.080   2.840 -1.0674 -0.2367 -0.7333
 5175SOL    MW420474   4.864   6.146   2.896  0.0494 -0.0878 -0.1415
 5176SOL     OW20475   4.912   2.339   0.669 -0.3098 -0.3112  0.1083
 5176SOL    HW220476   4.871   2.401   0.729 -1.3704 -1.2213  0.3579
 5176SOL    HW320477   4.895   2.253   0.708  0.9794 -0.7903 -0.3208
 5176SOL    MW420478   4.905   2.336   0.682 -0.1308 -0.8832 -0.6387
 5177SOL     OW20479   5.384   4.525   3.359  0.4252 -1.0474 -0.0176
 5177SOL    HW220480   5.315   4.591   3.356  0.2355 -0.9918  2.9176
 5177SOL    HW320481   5.337   4.442   3.365  0.6608 -1.2485 -0.8171
 5177SOL    MW420482   5.369   4.523   3.359  0.0492  0.3654  0.1354
 5178SOL     OW20483   2.216   0.345   0.154 -0.3565 -0.6147  0.3023
 5178SOL    HW220484   2.156   0.419   0.162 -0.1276 -0.4100  0.1434
 5178SOL    HW320485   2.299   0.376   0.191  0.5792  0.1960 -2.2845
 5178SOL    MW420486   2.219   0.359   0.160  0.1088  0.1870 -0.2857
 5179SOL     OW20487   0.589   0.857   3.509 -0.4932 -0.0765 -0.3117
 5179SOL    HW220488   0.538   0.899   3.440  0.5087 -1.1028 -1.7394
 5179SOL    HW320489   0.563   0.765   3.506  0.8044 -0.4604 -0.5193
 5179SOL    MW420490   0.579   0.851   3.499  0.5109 -0.6159  0.8422
 5180SOL     OW20491   5.768   1.817   0.579 -0.4287  0.4904  0.4383
 5180SOL    HW220492   5.840   1.755   0.570 -0.7339 -0.0627  1.6746
 5180SOL    HW320493   5.728   1.819   0.492 -0.5567 -1.2450  0.4296
 5180SOL    MW420494   5.772   1.809   0.566 -0.4132 -0.1489  0.1755
 5181SOL     OW20495   4.931   3.736   5.418  0.1763  0.5941  0.0438
 5181SOL    HW220496   4.997   3.747   5.349 -0.0035 -0.5592 -0.3219
 5181SOL    HW320497   4.847   3.751   5.375  0.2043  4.1547  0.9313
 5181SOL    MW420498   4.929   3.739   5.404  0.2007 -0.3578  0.2740
 5182SOL     OW20499   4.707   0.192   2.323 -0.0413 -0.1706  0.4330
 5182SOL    HW220500   4.730   0.242   2.401  0.3330  0.9388 -0.3623
 5182SOL    HW320501   4.775   0.124   2.317  0.2350  0.0747  0.7665
 5182SOL    MW420502   4.719   0.189   2.332 -0.1635  0.0458  0.4628
 5183SOL     OW20503   6.093   1.290   2.873  0.4777  0.4572  0.0802
 5183SOL    HW220504   6.062   1.331   2.792 -0.8273 -1.1105 -0.2682
 5183SOL    HW320505   6.151   1.220   2.844  0.7156  0.4587  0.5493
 5183SOL    MW420506   6.096   1.286   2.858  0.6521  0.4884 -0.2772
 5184SOL     OW20507   2.617   2.338   4.233 -0.4577 -0.3333  0.2492
 5184SOL    HW220508   2.602   2.338   4.138  2.2937 -0.4356 -0.2823
 5184SOL    HW320509   2.598   2.248   4.260 -2.7459  0.0572  0.1528
 5184SOL    MW420510   2.612   2.326   4.224  0.1512  0.4567  0.0726
 5185SOL     OW20511   0.247   3.404   2.834  0.0060  0.1254 -0.2515
 5185SOL    HW220512   0.187   3.465   2.877  0.0697 -1.5226  2.3998
 5185SOL    HW320513   0.329   3.412   2.883  1.1275  0.3622 -2.0727
 5185SOL    MW420514   0.250   3.413   2.847 -0.3776  0.5703 -0.0052
 5186SOL     OW20515   5.634   4.122   4.609  0.5953 -0.1633  0.1361
 5186SOL    HW220516   5.633   4.178   4.687  1.5236 -0.3027  0.2500
 5186SOL    HW320517   5.587   4.173   4.543 -1.2086 -0.5057  1.0854
 5186SOL    MW420518   5.627   4.136   4.611  0.0408  0.0654 -0.1376
 5187SOL     OW20519   0.488   0.125   2.813  0.5026  0.2296  0.1366
 5187SOL    HW220520   0.520   0.118   2.903 -0.9090 -0.3477  0.6284
 5187SOL    HW320521   0.408   0.178   2.820 -0.7115 -1.4234 -0.4437
 5187SOL    MW420522   0.481   0.131   2.826  0.1018 -0.1664 -0.0211
 5188SOL     OW20523   3.375   4.267   0.310 -0.4899 -0.3617 -0.6099
 5188SOL    HW220524   3.383   4.255   0.215  0.7038  1.0071 -0.7073
 5188SOL    HW320525   3.436   4.204   0.347 -0.1480 -0.1410 -0.7953
 5188SOL    MW420526   3.384   4.257   0.302 -0.1928  0.0974  0.0889
 5189SOL     OW20527   2.890   2.538   4.881  0.2072 -0.0492  0.2027
 5189SOL    HW220528   2.830   2.549   4.955 -1.0090 -1.3693 -0.5210
 5189SOL    HW320529   2.966   2.591   4.903 -0.6509  0.5836  1.8102
 5189SOL    MW420530   2.892   2.546   4.894 -0.0084  0.2250 -0.1388
 5190SOL     OW20531   4.081   0.571   4.769  0.3471 -0.0363 -0.6714
 5190SOL    HW220532   4.161   0.622   4.779 -0.6020  1.3448  0.2397
 5190SOL    HW320533   4.046   0.563   4.858  0.3626 -2.1839 -0.7961
 5190SOL    MW420534   4.087   0.576   4.782  0.2482 -0.1015 -0.5765
 5191SOL     OW20535   3.387   0.990   1.861 -0.2638 -0.2896  0.3558
 5191SOL    HW220536   3.353   0.901   1.851 -0.9170 -0.0680  0.5755
 5191SOL    HW320537   3.362   1.015   1.950 -2.1871  0.9879 -0.4931
 5191SOL    MW420538   3.379   0.981   1.872 -0.1137 -0.0988  0.1640
 5192SOL     OW20539   6.074   0.489   4.359  0.0355 -0.5674  0.3518
 5192SOL    HW220540   6.022   0.418   4.321  0.6718 -0.7653 -0.1489
 5192SOL    HW320541   6.165   0.459   4.353  0.9485  2.2096 -4.3668
 5192SOL    MW420542   6.079   0.475   4.353  0.2315 -0.1670  0.2034
 5193SOL     OW20543   0.733   5.839   5.755 -0.2624 -0.2277  0.5069
 5193SOL    HW220544   0.726   5.744   5.763  0.1147 -0.3190 -0.1535
 5193SOL    HW320545   0.656   5.864   5.703 -0.7318 -0.0867  1.2674
 5193SOL    MW420546   0.722   5.830   5.749  0.0075  0.3595  0.2565
 5194SOL     OW20547   4.951   0.054   0.097 -0.0757  0.0832  0.0490
 5194SOL    HW220548   4.864   0.069   0.060 -0.1619  2.3175  0.9708
 5194SOL    HW320549   5.010   0.061   0.022 -0.6373 -0.8731 -0.4935
 5194SOL    MW420550   4.947   0.057   0.082  0.0272  0.0770 -0.4574
 5195SOL     OW20551   3.606   0.694   4.989  0.5071 -0.1403 -0.7404
 5195SOL    HW220552   3.530   0.717   4.935  1.3605 -0.2348 -2.0402
 5195SOL    HW320553   3.635   0.610   4.954  0.7058 -0.5303  0.3235
 5195SOL    MW420554   3.599   0.686   4.977 -0.1147 -0.3637 -0.5246
 5196SOL     OW20555   6.273   3.292   4.521 -0.1069 -0.0360  0.1303
 5196SOL    HW220556   6.279   3.384   4.543  1.1540 -0.0195 -0.2042
 5196SOL    HW320557   6.331   3.281   4.445 -2.3565 -0.5576 -1.6556
 5196SOL    MW420558   6.282   3.303   4.514  0.3370  0.2597 -0.2444
 5197SOL     OW20559   2.984   5.226   1.771 -0.0530 -0.2865 -0.5932
 5197SOL    HW220560   2.965   5.227   1.865  2.5934 -1.5076  0.0419
 5197SOL    HW320561   2.944   5.144   1.740 -0.7124 -0.0065 -0.4975
 5197SOL    MW420562   2.976   5.215   1.779 -0.0145  0.4377 -0.2057
 5198SOL     OW20563   5.116   3.738   5.225 -0.4574 -0.4088 -0.1033
 5198SOL    HW220564   5.101   3.773   5.137  0.0128  0.0868  0.0134
 5198SOL    HW320565   5.167   3.658   5.210 -2.6112 -1.8020 -0.4645
 5198SOL    MW420566   5.121   3.732   5.211 -0.0609  0.5849  0.3539
 5199SOL     OW20567   3.484   1.185   5.231  0.3317 -0.3080  0.0905
 5199SOL    HW220568   3.568   1.223   5.257  0.4759 -0.0431 -0.7216
 5199SOL    HW320569   3.434   1.259   5.195 -0.1795 -0.4978  0.3981
 5199SOL    MW420570   3.488   1.200   5.230  0.1691 -0.4994 -0.5273
 5200SOL     OW20571   5.019   2.486   6.137  0.7643 -0.2451  0.3558
 5200SOL    HW220572   4.966   2.534   6.073  2.7329  0.6171 -0.7192
 5200SOL    HW320573   4.987   2.396   6.133  0.9635 -0.2602 -2.0268
 5200SOL    MW420574   5.008   2.481   6.128  0.0227  0.2373 -0.8828
 5201SOL     OW20575   3.792   6.402   6.357  0.3298  0.5769  0.2418
 5201SOL    HW220576   3.710   6.357   6.334 -0.2945  2.0943 -0.6956
 5201SOL    HW320577   3.816   6.450   6.277  0.7802  2.1288  1.2589
 5201SOL    MW420578   3.784   6.402   6.343  0.2304  0.7612 -0.0502
 5202SOL     OW20579   1.428   2.307   2.855  0.5717  0.4124 -0.4363
 5202SOL    HW220580   1.459   2.396   2.875 -1.0932  1.2604 -1.4057
 5202SOL    HW320581   1.414   2.308   2.760 -1.2553 -0.2641 -0.2080
 5202SOL    MW420582   1.430   2.319   2.845 -0.4552  0.1535 -0.6547
 5203SOL     OW20583   3.824   6.149   1.295 -0.4921 -0.0005  0.6976
 5203SOL    HW220584   3.824   6.082   1.363  1.5368 -0.2495  0.5326
 5203SOL    HW320585   3.847   6.101   1.215 -0.3442  0.6839  0.3274
 5203SOL    MW420586   3.827   6.134   1.293 -0.5615 -0.2413 -0.8712
 5204SOL     OW20587   3.242   1.546   5.641  0.2375  0.9562 -0.5814
 5204SOL    HW220588   3.182   1.504   5.703  1.3314  1.1150  0.6159
 5204SOL    HW320589   3.258   1.478   5.575 -2.3001  1.3595 -1.7200
 5204SOL    MW420590   3.236   1.531   5.641  0.1553 -0.3778 -0.4944
 5205SOL     OW20591   2.493   0.594   3.427 -0.8387  0.1685  0.6336
 5205SOL    HW220592   2.513   0.507   3.461  0.1419 -0.4473 -1.3934
 5205SOL    HW320593   2.404   0.588   3.394  0.0685 -0.8978 -1.8257
 5205SOL    MW420594   2.484   0.582   3.427 -0.6531  0.7011 -0.1407
 5206SOL     OW20595   4.327   0.095   1.820  0.4605  0.2744 -0.1827
 5206SOL    HW220596   4.367   0.165   1.768  1.8266 -0.2168  0.1935
 5206SOL    HW320597   4.388   0.080   1.892 -2.1239  2.0979  2.6374
 5206SOL    MW420598   4.340   0.102   1.823  0.2323  0.3751  0.0849
 5207SOL     OW20599   4.362   5.979   5.568 -0.2899  0.3075 -0.3426
 5207SOL    HW220600   4.371   5.889   5.539 -1.6430  0.5775 -1.7339
 5207SOL    HW320601   4.415   5.985   5.647 -1.0169 -1.9819  0.3802
 5207SOL    MW420602   4.370   5.968   5.575  0.2891 -0.1289 -0.0829
 5208SOL     OW20603   0.169   4.843   1.589  0.6480 -0.1368 -1.0663
 5208SOL    HW220604   0.121   4.917   1.626  0.3739 -0.4974 -0.6962
 5208SOL    HW320605   0.112   4.809   1.521  1.0585  0.3916 -1.6951
 5208SOL    MW420606   0.155   4.848   1.585 -0.4090 -0.1102 -0.4782
 5209SOL     OW20607   4.693   1.278   0.195  0.3390  0.1740  0.4812
 5209SOL    HW220608   4.611   1.267   0.243  0.7409 -0.9772  0.9257
 5209SOL    HW320609   4.761   1.248   0.255  0.9360 -0.4356 -0.4677
 5209SOL    MW420610   4.691   1.273   0.209  0.3524  0.1745  0.3234
 5210SOL     OW20611   6.089   0.400   1.623 -0.4972  0.0600  0.0390
 5210SOL    HW220612   6.034   0.468   1.583 -2.3076 -1.5532 -0.3797
 5210SOL    HW320613   6.148   0.372   1.553 -1.3407 -0.4045 -0.4968
 5210SOL    MW420614   6.089   0.406   1.609 -0.2155 -0.1749 -0.0870
 5211SOL     OW20615   4.308   3.643   1.291  0.2081  0.3206  0.1070
 5211SOL    HW220616   4.225   3.688   1.277  0.0588  0.6942  1.8468
 5211SOL    HW320617   4.285   3.560   1.332  0.5792 -0.7466 -1.7444
 5211SOL    MW420618   4.294   3.638   1.295  0.3016  0.0661 -0.2795
 5212SOL     OW20619   4.664   3.208   4.254 -0.1973 -0.0835 -0.3768
 5212SOL    HW220620   4.585   3.258   4.234  0.5848  1.6894  0.7470
 5212SOL    HW320621   4.732   3.247   4.199 -0.0584 -1.6048 -1.3516
 5212SOL    MW420622   4.663   3.219   4.244 -0.4671  0.1458  0.4475
 5213SOL     OW20623   4.538   2.091   5.485  0.4313 -0.2164  0.1449
 5213SOL    HW220624   4.593   2.159   5.522 -0.8883  1.9613 -1.6299
 5213SOL    HW320625   4.448   2.123   5.496 -0.2523 -1.6629 -0.7727
 5213SOL    MW420626   4.533   2.104   5.491  0.2850  0.2610 -0.2204
 5214SOL     OW20627   0.424   1.495   4.764 -0.2399  0.2695  0.1149
 5214SOL    HW220628   0.420   1.543   4.682 -1.4511  0.2238  0.1317
 5214SOL    HW320629   0.430   1.404   4.739 -0.5971  0.2566  0.0756
 5214SOL    MW420630   0.425   1.490   4.750 -0.1885 -0.0019 -0.0173
 5215SOL     OW20631   1.369   2.504   5.000 -0.1751  0.3218  0.6122
 5215SOL    HW220632   1.280   2.470   5.011  0.0958 -0.2777  0.9262
 5215SOL    HW320633   1.410   2.494   5.086 -0.1360  1.5945  0.7745
 5215SOL    MW420634   1.362   2.498   5.013  0.2221  0.4203  0.6801
 5216SOL     OW20635   2.783   6.415   2.834 -0.1413  0.8250  0.1317
 5216SOL    HW220636   2.856   6.462   2.792  0.7783 -1.3183 -0.8993
 5216SOL    HW320637   2.763   6.344   2.772 -0.9093 -0.5710  1.8845
 5216SOL    MW420638   2.790   6.412   2.820  0.4701 -0.4881  0.6435
 5217SOL     OW20639   2.411   0.037   0.452 -0.1276  0.2989 -0.4303
 5217SOL    HW220640   2.492   0.034   0.400 -0.0694  0.8989 -0.3825
 5217SOL    HW320641   2.341   0.035   0.388 -0.0470  2.0083 -0.5951
 5217SOL    MW420642   2.413   0.036   0.437 -0.3334  0.0884  0.1094
 5218SOL     OW20643   5.508   5.821   5.674  0.1454 -0.1256 -0.2661
 5218SOL    HW220644   5.593   5.800   5.637  0.9257  0.9866  0.7991
 5218SOL    HW320645   5.469   5.883   5.612  1.5569  1.9389  0.7615
 5218SOL    MW420646   5.514   5.827   5.661  0.2643  0.0409 -0.0851
 5219SOL     OW20647   4.504   0.541   0.275 -0.4994 -0.3706  0.1949
 5219SOL    HW220648   4.564   0.584   0.214 -0.9826  0.5696  0.3648
 5219SOL    HW320649   4.418   0.546   0.232 -0.4190 -2.0589 -0.2286
 5219SOL    MW420650   4.500   0.547   0.261  0.4038  0.0908 -0.5498
 5220SOL     OW20651   1.058   2.983   5.998 -1.3425 -0.3069  0.6082
 5220SOL    HW220652   1.105   2.909   5.961 -0.5925 -0.8228  2.4785
 5220SOL    HW320653   1.116   3.017   6.066 -2.3655  1.0017  0.8711
 5220SOL    MW420654   1.072   2.978   6.002  0.1614  0.5477  0.3921
 5221SOL     OW20655   2.638   4.239   5.211  0.3381 -0.5105  0.2722
 5221SOL    HW220656   2.556   4.190   5.223  0.6946 -0.9122  1.1716
 5221SOL    HW320657   2.649   4.287   5.293  1.2531 -0.8585  0.3649
 5221SOL    MW420658   2.629   4.239   5.224  0.1774  0.3333 -0.3073
 5222SOL     OW20659   3.164   0.978   4.092  0.2059  0.1449  0.3865
 5222SOL    HW220660   3.116   1.060   4.100 -0.8502 -0.3789 -0.3898
 5222SOL    HW320661   3.111   0.924   4.033  0.1403 -1.6324  1.9632
 5222SOL    MW420662   3.151   0.982   4.085  0.2640 -0.1461 -0.3025
 5223SOL     OW20663   3.132   4.776   3.192 -0.0414  0.4617 -0.2563
 5223SOL    HW220664   3.193   4.797   3.262  0.0044 -1.2179  0.2525
 5223SOL    HW320665   3.159   4.832   3.119  0.9815  1.0174  0.5206
 5223SOL    MW420666   3.144   4.786   3.192 -0.2244 -0.0710  0.5113
 5224SOL     OW20667   2.491   5.457   0.479 -0.3542 -0.1812  0.2677
 5224SOL    HW220668   2.461   5.368   0.460 -0.6459 -0.4673  1.8870
 5224SOL    HW320669   2.581   5.447   0.509 -0.3509  0.0784  0.3495
 5224SOL    MW420670   2.499   5.444   0.481 -0.6055  0.4529  0.1071
 5225SOL     OW20671   6.383   1.964   1.683  0.2270 -0.2296  0.7553
 5225SOL    HW220672   6.355   1.982   1.772  3.5442  0.9085  1.6989
 5225SOL    HW320673   6.453   1.900   1.692  1.3705  0.7082 -0.8812
 5225SOL    MW420674   6.388   1.958   1.696 -0.1385  0.0166 -0.1300
 5226SOL     OW20675   0.018   3.747   0.828  0.3948  0.2842  0.1010
 5226SOL    HW220676   0.037   3.840   0.816  0.2409  0.0845 -2.0952
 5226SOL    HW320677  -0.077   3.743   0.841  0.3518  0.4048 -0.1777
 5226SOL    MW420678   0.008   3.758   0.828  0.2152  0.1862 -0.4502
 5227SOL     OW20679   0.010   2.181   2.730  1.2826 -0.0714  0.0517
 5227SOL    HW220680  -0.034   2.265   2.717 -0.5173 -0.8973  0.4801
 5227SOL    HW320681   0.046   2.158   2.644 -0.6510 -0.1614 -0.7755
 5227SOL    MW420682   0.009   2.189   2.717  0.0631 -0.4711  0.4289
 5228SOL     OW20683   2.876   2.379   2.418  0.4872 -0.2935 -0.4900
 5228SOL    HW220684   2.850   2.411   2.504  1.7702  3.3914 -1.2761
 5228SOL    HW320685   2.822   2.428   2.356  1.7412 -0.5028 -1.8183
 5228SOL    MW420686   2.866   2.390   2.421  0.9137  0.3761 -0.0631
 5229SOL     OW20687   1.059   1.701   1.326  0.8006 -0.4647 -0.3162
 5229SOL    HW220688   1.051   1.781   1.274  0.1367 -1.1124 -1.2528
 5229SOL    HW320689   1.119   1.724   1.397 -0.5368  1.3036  0.3182
 5229SOL    MW420690   1.066   1.714   1.328  1.0534  0.0280 -0.4850
 5230SOL     OW20691   6.247   5.916   4.176 -0.0811 -0.1393  0.2117
 5230SOL    HW220692   6.171   5.952   4.221 -1.5730  0.0586 -2.2580
 5230SOL    HW320693   6.318   5.978   4.195 -0.7573  0.2115  1.7431
 5230SOL    MW420694   6.247   5.929   4.184 -0.6322 -0.5888  0.2216
 5231SOL     OW20695   5.288   4.922   1.701 -0.2248 -0.2934 -0.8088
 5231SOL    HW220696   5.255   4.973   1.627 -3.1255  0.6144  0.9767
 5231SOL    HW320697   5.369   4.967   1.727 -1.3068  1.8169 -0.9225
 5231SOL    MW420698   5.295   4.934   1.694  0.2797 -0.0329  0.4554
 5232SOL     OW20699   1.354   3.056   2.293 -0.1347  0.0367 -0.1744
 5232SOL    HW220700   1.428   3.065   2.353 -0.0035 -3.7029  0.4400
 5232SOL    HW320701   1.284   3.020   2.347 -0.4310 -2.1726 -1.8995
 5232SOL    MW420702   1.354   3.052   2.308  0.1455 -0.0991 -0.3639
 5233SOL     OW20703   6.266   1.760   4.336 -0.1652  0.5909 -0.2882
 5233SOL    HW220704   6.260   1.665   4.351  1.6648  0.3284 -0.9983
 5233SOL    HW320705   6.263   1.769   4.240  1.6362  1.0551 -0.3287
 5233SOL    MW420706   6.265   1.748   4.325  0.4498 -0.2821  0.3103
 5234SOL     OW20707   2.662   0.641   1.716 -0.1588 -0.5189 -0.3481
 5234SOL    HW220708   2.568   0.653   1.731 -0.1898  0.7705 -1.3890
 5234SOL    HW320709   2.675   0.664   1.624  1.3222  0.2763  0.0241
 5234SOL    MW420710   2.652   0.646   1.706  0.2944  0.3670 -0.1704
 5235SOL     OW20711   1.357   1.810   2.042  0.4459 -0.5201 -0.2247
 5235SOL    HW220712   1.396   1.882   1.992 -0.7911  0.6890  0.4953
 5235SOL    HW320713   1.406   1.810   2.124 -2.2767  2.4698  1.6306
 5235SOL    MW420714   1.369   1.819   2.046 -0.0217 -0.4534 -0.3278
 5236SOL     OW20715   3.237   3.863   1.862 -0.5022  0.1699  0.1984
 5236SOL    HW220716   3.192   3.807   1.798  0.0197 -0.6802  0.5472
 5236SOL    HW320717   3.288   3.801   1.915  0.0592  0.9877  0.6259
 5236SOL    MW420718   3.238   3.847   1.861 -0.2179  0.4677  0.6633
 5237SOL     OW20719   3.727   4.512   0.922 -0.2337 -0.3159  0.0371
 5237SOL    HW220720   3.690   4.588   0.967 -0.9398 -0.4034 -0.3838
 5237SOL    HW320721   3.652   4.468   0.882  0.2123 -1.0244 -0.0472
 5237SOL    MW420722   3.712   4.516   0.923  0.2148  0.1400  0.5190
 5238SOL     OW20723   4.459   1.581   3.311 -0.6872 -0.2665  0.0689
 5238SOL    HW220724   4.407   1.654   3.277 -0.7795 -0.3029  0.1325
 5238SOL    HW320725   4.549   1.611   3.306 -0.8474  0.7166  2.1447
 5238SOL    MW420726   4.464   1.594   3.306 -0.9278  0.1470 -0.1418
 5239SOL     OW20727   5.378   0.248   3.067  0.0717  0.4108  0.1559
 5239SOL    HW220728   5.437   0.311   3.109  0.3584 -0.4658  1.1182
 5239SOL    HW320729   5.435   0.194   3.013  0.1687 -0.3644  0.9980
 5239SOL    MW420730   5.393   0.249   3.065  0.0417 -0.5281 -0.5020
 5240SOL     OW20731   2.350   5.337   0.889  0.2605  0.3232 -0.2814
 5240SOL    HW220732   2.268   5.361   0.845 -0.7629 -0.6274  1.0124
 5240SOL    HW320733   2.407   5.306   0.818 -1.1715 -0.7657 -1.0265
 5240SOL    MW420734   2.347   5.336   0.874  0.5360 -0.0532 -0.2300
 5241SOL     OW20735   5.219   4.392   5.106 -0.1572 -0.1386  0.5500
 5241SOL    HW220736   5.196   4.437   5.025 -0.7167  1.2296  1.4124
 5241SOL    HW320737   5.137   4.389   5.156  0.3078 -0.3601  1.3232
 5241SOL    MW420738   5.205   4.398   5.102  0.0066  0.6596 -0.1947
 5242SOL     OW20739   1.845   4.739   4.671 -0.4378  0.5458 -0.5236
 5242SOL    HW220740   1.871   4.697   4.753 -1.2234  0.2574 -0.4147
 5242SOL    HW320741   1.871   4.678   4.603 -2.8751 -0.8626 -0.2977
 5242SOL    MW420742   1.852   4.726   4.673  0.2046  0.1406  0.1305
 5243SOL     OW20743   5.554   5.476   1.236  0.1600  0.1579  0.1992
 5243SOL    HW220744   5.621   5.520   1.184 -0.3846  0.4232 -0.2927
 5243SOL    HW320745   5.534   5.396   1.188  0.5699 -0.2378  0.6747
 5243SOL    MW420746   5.560   5.471   1.223 -0.7705  0.2411 -0.6617
 5244SOL     OW20747   1.863   2.087   1.217  0.5357  0.3088 -1.0318
 5244SOL    HW220748   1.858   2.126   1.304  1.1078 -0.8025 -0.4805
 5244SOL    HW320749   1.956   2.090   1.194  0.6196 -0.8115 -0.9177
 5244SOL    MW420750   1.875   2.092   1.225  0.1246 -0.3707 -0.0754
 5245SOL     OW20751   0.524   2.644   1.335  0.0168 -0.0493  0.0792
 5245SOL    HW220752   0.517   2.711   1.267  1.4627 -0.3661 -0.4119
 5245SOL    HW320753   0.551   2.565   1.288  0.0428 -0.5397  0.8921
 5245SOL    MW420754   0.526   2.642   1.320 -0.5125  0.0393 -0.2685
 5246SOL     OW20755   6.250   4.362   0.475 -0.4144  0.4062  0.1396
 5246SOL    HW220756   6.204   4.302   0.534  0.1803 -0.9249 -0.7046
 5246SOL    HW320757   6.183   4.393   0.415 -0.4930 -0.4121 -0.2043
 5246SOL    MW420758   6.235   4.359   0.475 -0.0298 -0.2249 -0.5010
 5247SOL     OW20759   2.784   6.204   1.903  0.5212  0.4814 -0.1180
 5247SOL    HW220760   2.786   6.134   1.969  4.8853 -0.5289 -1.0039
 5247SOL    HW320761   2.752   6.161   1.823  1.1198  0.0413 -0.1280
 5247SOL    MW420762   2.780   6.189   1.901  0.0249  0.1473  0.2978
 5248SOL     OW20763   5.701   5.534   1.984  0.2077 -0.1066 -0.0539
 5248SOL    HW220764   5.703   5.456   2.039  1.6031  0.6100  0.9776
 5248SOL    HW320765   5.669   5.603   2.042 -0.4778  0.2119 -0.7965
 5248SOL    MW420766   5.697   5.533   1.999  0.2961 -0.4849  0.1600
 5249SOL     OW20767   6.032   2.635   4.274 -0.2707  0.2008 -0.3171
 5249SOL    HW220768   6.105   2.637   4.213 -0.4669  1.3926 -0.5439
 5249SOL    HW320769   5.976   2.564   4.242  1.1632 -1.2771  0.3484
 5249SOL    MW420770   6.034   2.626   4.262  0.1054 -0.1568  0.3153
 5250SOL     OW20771   6.012   6.191   6.237 -0.3177 -0.0323 -0.6422
 5250SOL    HW220772   6.022   6.111   6.288  0.4684  0.4925  0.0484
 5250SOL    HW320773   6.022   6.262   6.300 -4.1752  0.6909 -0.6064
 5250SOL    MW420774   6.015   6.190   6.252  0.1932  0.7008 -0.3260
 5251SOL     OW20775   2.567   5.651   2.110  0.6998 -0.4064  0.6024
 5251SOL    HW220776   2.634   5.597   2.152  1.2848 -0.1957 -0.0448
 5251SOL    HW320777   2.615   5.702   2.044 -0.1321 -0.3902 -0.0032
 5251SOL    MW420778   2.582   5.651   2.107  0.3186 -0.4355 -0.9629
 5252SOL     OW20779   2.165   6.031   3.287  0.2343 -0.4266 -0.3321
 5252SOL    HW220780   2.138   5.944   3.317 -1.3323  0.1812  0.0798
 5252SOL    HW320781   2.237   6.055   3.346 -0.6852 -0.6060  0.8998
 5252SOL    MW420782   2.171   6.023   3.299 -0.5127 -1.1366 -0.1144
 5253SOL     OW20783   2.672   2.508   5.572 -0.1140  0.1261 -0.7491
 5253SOL    HW220784   2.672   2.525   5.666 -0.1392 -0.6978 -0.5995
 5253SOL    HW320785   2.580   2.489   5.551  0.1891 -1.6343 -0.5767
 5253SOL    MW420786   2.660   2.508   5.582  0.7389 -0.5460  0.2695
 5254SOL     OW20787   3.200   0.611   4.106 -0.6003  0.4009 -0.2016
 5254SOL    HW220788   3.181   0.681   4.169 -0.2220 -0.7928  1.2898
 5254SOL    HW320789   3.116   0.568   4.092 -0.6252  0.4777 -0.2924
 5254SOL    MW420790   3.187   0.615   4.113  0.0240 -0.1188  0.2664
 5255SOL     OW20791   2.535   1.238   0.540 -0.3628  0.1701 -0.3805
 5255SOL    HW220792   2.518   1.332   0.542  0.5033  0.4000 -2.2087
 5255SOL    HW320793   2.628   1.231   0.516  0.0677 -1.1459  1.4745
 5255SOL    MW420794   2.545   1.249   0.537  0.6783 -0.2109 -0.4792
 5256SOL     OW20795   3.343   6.083   4.329  0.5692  0.4199 -0.1951
 5256SOL    HW220796   3.403   6.059   4.258 -1.2344 -1.3290 -1.2252
 5256SOL    HW320797   3.289   6.152   4.291  0.5709  0.5412  0.0229
 5256SOL    MW420798   3.344   6.089   4.314  0.3340 -0.4860 -0.2367
 5257SOL     OW20799   4.600   1.317   4.087  0.1336  0.0681  0.0945
 5257SOL    HW220800   4.554   1.370   4.022 -0.9865 -0.1042  0.7147
 5257SOL    HW320801   4.682   1.293   4.045 -0.4902  0.0970 -1.1865
 5257SOL    MW420802   4.604   1.321   4.073 -0.4299  0.0329  0.3332
 5258SOL     OW20803   3.522   6.351   1.626  0.6159  0.7576 -0.0976
 5258SOL    HW220804   3.511   6.258   1.606  2.5367  0.4387  0.1380
 5258SOL    HW320805   3.589   6.353   1.693  0.0107  2.2985  0.5067
 5258SOL    MW420806   3.529   6.339   1.632  0.0266 -0.2606 -0.2756
 5259SOL     OW20807   4.070   3.040   5.039 -0.0703 -1.1213 -0.3693
 5259SOL    HW220808   4.015   3.030   5.116  0.4516 -0.3168  0.1216
 5259SOL    HW320809   4.159   3.037   5.072  0.1587 -0.4903 -0.9048
 5259SOL    MW420810   4.074   3.038   5.053  0.0864  0.0060 -0.3572
 5260SOL     OW20811   3.700   2.264   4.441 -0.5738 -0.5869 -0.0966
 5260SOL    HW220812   3.623   2.310   4.407  1.1677  0.7644 -2.4786
 5260SOL    HW320813   3.682   2.171   4.422 -1.7393 -0.3548 -0.2341
 5260SOL    MW420814   3.687   2.258   4.434  0.6017  0.4479  0.3548
 5261SOL     OW20815   3.619   3.716   5.025 -0.0220 -0.0500 -0.1870
 5261SOL    HW220816   3.558   3.654   5.065  1.2777 -1.4773 -0.3496
 5261SOL    HW320817   3.663   3.667   4.956  1.4531  0.8838  0.0417
 5261SOL    MW420818   3.617   3.702   5.021 -0.5034  0.5220  0.0291
 5262SOL     OW20819   5.811   5.491   2.308  0.3135  0.6355 -0.7802
 5262SOL    HW220820   5.826   5.585   2.314  0.5984  0.4894  1.8143
 5262SOL    HW320821   5.899   5.453   2.300  0.3597  0.5093  0.2117
 5262SOL    MW420822   5.825   5.498   2.308 -0.0604 -0.3106  0.2555
 5263SOL     OW20823   2.663   6.102   1.397  0.2406 -0.0732  0.2455
 5263SOL    HW220824   2.575   6.097   1.433 -0.3633  2.8187 -0.5443
 5263SOL    HW320825   2.666   6.034   1.330 -1.4259 -0.1747  0.2401
 5263SOL    MW420826   2.652   6.092   1.393  0.2366 -0.6406 -0.4401
 5264SOL     OW20827   5.841   2.875   2.921  0.3944  0.1943 -0.2570
 5264SOL    HW220828   5.848   2.958   2.873  0.4718  0.5681  0.3931
 5264SOL    HW320829   5.747   2.857   2.923  0.4205 -0.0527 -0.9257
 5264SOL    MW420830   5.829   2.883   2.915  0.0268 -0.2909  0.2583
 5265SOL     OW20831   6.232   4.296   1.546  0.5877 -0.4280 -0.0546
 5265SOL    HW220832   6.256   4.211   1.509  0.4956  0.0773 -1.3437
 5265SOL    HW320833   6.171   4.276   1.616 -0.8668 -1.3546 -1.5213
 5265SOL    MW420834   6.227   4.282   1.550  0.9570  0.1943 -0.1977
 5266SOL     OW20835   2.069   1.181   3.473 -0.1668  0.5838  0.2599
 5266SOL    HW220836   2.036   1.267   3.499  0.4026  0.5905  0.9960
 5266SOL    HW320837   2.163   1.195   3.461  0.1580 -0.2059  1.6556
 5266SOL    MW420838   2.077   1.195   3.475 -0.6657 -0.0438  0.7635
 5267SOL     OW20839   0.971   5.181   0.261  0.7724  0.3196  0.4077
 5267SOL    HW220840   0.905   5.211   0.323  0.5762  2.7987 -0.8660
 5267SOL    HW320841   1.052   5.222   0.291  0.8615  0.7451 -0.3809
 5267SOL    MW420842   0.973   5.191   0.273 -0.1681 -0.0460  0.3015
 5268SOL     OW20843   0.644   5.650   5.038  0.1799  0.0636 -0.0751
 5268SOL    HW220844   0.631   5.674   4.946  0.6777 -0.8368 -0.3917
 5268SOL    HW320845   0.630   5.556   5.041  0.6959  0.0003  0.6777
 5268SOL    MW420846   0.641   5.641   5.026  0.7965  0.0721  0.7440
 5269SOL     OW20847   1.371   0.276   2.072 -0.2442 -0.1595 -0.4441
 5269SOL    HW220848   1.371   0.372   2.072 -0.0683 -0.1594 -0.6141
 5269SOL    HW320849   1.463   0.252   2.062 -0.3784 -0.3493 -1.3233
 5269SOL    MW420850   1.383   0.286   2.071  0.4783  0.4045 -0.3510
 5270SOL     OW20851   2.577   6.086   0.263 -0.1091 -0.0759  0.2455
 5270SOL    HW220852   2.613   6.156   0.210 -1.1742 -1.3154 -2.2809
 5270SOL    HW320853   2.633   6.011   0.245  0.2479 -0.2364  1.8897
 5270SOL    MW420854   2.589   6.085   0.254 -0.0083  0.0119  0.0943
 5271SOL     OW20855   0.748   2.587   1.001  0.1820 -0.5386 -0.6336
 5271SOL    HW220856   0.660   2.590   0.966 -1.1297 -2.3837  2.1069
 5271SOL    HW320857   0.772   2.678   1.017 -2.8369 -0.0329  1.9567
 5271SOL    MW420858   0.740   2.599   0.998  0.2392 -0.3152  0.6249
 5272SOL     OW20859   0.794   6.421   6.167  0.5590 -0.2789 -0.2331
 5272SOL    HW220860   0.709   6.461   6.186  0.2331  0.0952 -2.2000
 5272SOL    HW320861   0.792   6.336   6.211 -0.2373  0.3298  0.9455
 5272SOL    MW420862   0.782   6.415   6.175 -0.2040  0.5700 -0.6776
 5273SOL     OW20863   2.969   6.176   6.261  0.3548  0.1114  0.2993
 5273SOL    HW220864   2.947   6.133   6.178 -0.9069  2.1441 -0.5063
 5273SOL    HW320865   3.062   6.198   6.253  0.0246  1.1738 -1.0677
 5273SOL    MW420866   2.978   6.173   6.249 -0.2988 -0.6685  0.0172
 5274SOL     OW20867   3.626   4.557   0.457 -0.1850 -0.0072  1.0217
 5274SOL    HW220868   3.632   4.636   0.511 -0.2738  0.0473  0.9511
 5274SOL    HW320869   3.680   4.493   0.503 -0.2277  0.0518  1.1537
 5274SOL    MW420870   3.634   4.559   0.470  0.0409 -0.1014 -0.3460
 5275SOL     OW20871   2.423   2.450   5.444 -0.1406  0.2661  0.1944
 5275SOL    HW220872   2.413   2.539   5.410  0.6897  0.5320  0.6081
 5275SOL    HW320873   2.369   2.449   5.523 -1.7825 -0.2424 -0.8856
 5275SOL    MW420874   2.415   2.462   5.450 -0.0848 -0.0472 -0.1742
 5276SOL     OW20875   4.957   4.648   1.603 -0.4080 -0.0693 -0.2614
 5276SOL    HW220876   4.944   4.611   1.516  0.3502 -2.2017  0.4708
 5276SOL    HW320877   4.890   4.716   1.610  0.2539  0.9926 -2.9079
 5276SOL    MW420878   4.946   4.652   1.593 -0.6318 -0.0034 -0.1673
 5277SOL     OW20879   1.499   0.814   5.522  0.7801 -0.0465 -0.3931
 5277SOL    HW220880   1.523   0.815   5.615  1.1961 -0.0252 -0.5004
 5277SOL    HW320881   1.577   0.844   5.477 -0.1880  2.4391 -0.5735
 5277SOL    MW420882   1.512   0.818   5.528  0.1944 -0.3248 -0.1126
 5278SOL     OW20883   2.620   4.559   4.606 -0.3219  0.0391 -0.1044
 5278SOL    HW220884   2.704   4.598   4.629  0.5895 -1.9499  0.1351
 5278SOL    HW320885   2.572   4.553   4.689 -1.0794  1.8718 -0.3492
 5278SOL    MW420886   2.625   4.563   4.620 -0.4720  0.0571  0.1454
 5279SOL     OW20887   1.881   0.338   2.432  0.1842 -0.2537 -0.4654
 5279SOL    HW220888   1.855   0.417   2.385  0.8893 -0.7183 -1.6680
 5279SOL    HW320889   1.937   0.370   2.503 -2.5094  0.6465  1.4139
 5279SOL    MW420890   1.885   0.353   2.435  0.3300  0.3497 -0.1393
 5280SOL     OW20891   0.485   0.491   0.205  0.3806  0.0581  0.3164
 5280SOL    HW220892   0.410   0.551   0.201 -0.1626 -0.5375  1.2979
 5280SOL    HW320893   0.467   0.425   0.138  0.9475  0.9248 -0.7223
 5280SOL    MW420894   0.473   0.490   0.195 -0.2827  0.0718 -0.6814
 5281SOL     OW20895   5.251   5.201   2.749 -0.0928  0.2523  0.6850
 5281SOL    HW220896   5.159   5.203   2.720 -0.0571 -0.4262  0.5088
 5281SOL    HW320897   5.267   5.290   2.781 -0.0152  1.2264 -1.7838
 5281SOL    MW420898   5.241   5.213   2.749  0.0847 -0.4070 -0.2507
 5282SOL     OW20899   3.464   4.019   1.220  0.2891 -0.2381 -0.1032
 5282SOL    HW220900   3.465   4.010   1.125 -0.2955  1.5556 -0.3328
 5282SOL    HW320901   3.531   3.959   1.251  1.8136  0.4981 -1.7950
 5282SOL    MW420902   3.473   4.010   1.212 -0.1302 -0.2355 -0.0977
 5283SOL     OW20903   6.240   0.436   2.891 -0.7186 -0.1791  0.3182
 5283SOL    HW220904   6.315   0.480   2.932  0.0645 -0.3255 -0.8788
 5283SOL    HW320905   6.165   0.459   2.945  0.3120 -0.7213  2.0656
 5283SOL    MW420906   6.240   0.445   2.903 -0.4983  0.1778 -0.0310
 5284SOL     OW20907   5.504   1.435   1.185 -0.4189  0.3378 -0.1122
 5284SOL    HW220908   5.532   1.353   1.225 -2.5000 -0.8876 -0.9578
 5284SOL    HW320909   5.562   1.447   1.110  0.4386  0.1015  0.5088
 5284SOL    MW420910   5.515   1.426   1.180 -0.3114 -0.4652  0.0662
 5285SOL     OW20911   3.524   4.050   4.593 -0.9693  1.0239  0.3426
 5285SOL    HW220912   3.509   4.023   4.684  1.0540 -0.8721  0.1723
 5285SOL    HW320913   3.586   4.122   4.600  0.3309 -0.0728  0.4437
 5285SOL    MW420914   3.530   4.056   4.606 -0.5378  0.4978  0.5048
 5286SOL     OW20915   4.527   5.456   0.809 -0.2905 -0.3478 -0.0934
 5286SOL    HW220916   4.604   5.500   0.772 -0.8721  0.9796  0.2075
 5286SOL    HW320917   4.482   5.418   0.734  0.6042 -1.0467 -0.2829
 5286SOL    MW420918   4.531   5.457   0.794 -0.1206  0.6056 -0.7221
 5287SOL     OW20919   4.456   2.902   4.468  0.1497 -0.2087  0.4720
 5287SOL    HW220920   4.473   2.893   4.374  2.5410 -2.7235  1.0308
 5287SOL    HW320921   4.366   2.871   4.479 -0.8406  1.8465 -1.1353
 5287SOL    MW420922   4.446   2.897   4.457  0.1628  0.5947 -0.3356
 5288SOL     OW20923   4.185   0.814   1.534 -0.2522  0.6172 -0.1076
 5288SOL    HW220924   4.139   0.731   1.519 -0.2276  0.5112  0.3851
 5288SOL    HW320925   4.210   0.843   1.447  1.9897 -1.1608 -0.1508
 5288SOL    MW420926   4.182   0.807   1.521 -0.3253 -0.1083  0.0053
 5289SOL     OW20927   4.006   3.761  -0.030  1.1878 -0.1437  0.1041
 5289SOL    HW220928   4.050   3.834  -0.073  0.3799  0.2024 -0.1634
 5289SOL    HW320929   3.918   3.762  -0.067  2.0094 -3.2443 -2.3384
 5289SOL    MW420930   4.000   3.771  -0.041 -0.5339  0.2029 -0.0958
 5290SOL     OW20931   1.987   6.408   2.404  0.7846 -0.9310 -0.2741
 5290SOL    HW220932   1.971   6.435   2.495  0.4957 -1.5813 -0.1247
 5290SOL    HW320933   1.926   6.461   2.352  0.6031 -0.9054 -0.0397
 5290SOL    MW420934   1.977   6.418   2.409  0.0068 -0.2429 -0.3489
 5291SOL     OW20935   4.657   2.082   2.162  0.3218  0.1758 -0.6611
 5291SOL    HW220936   4.581   2.087   2.219 -0.4496  1.2953 -1.7277
 5291SOL    HW320937   4.659   1.991   2.132 -1.0813  0.3116 -1.2270
 5291SOL    MW420938   4.647   2.071   2.165  0.0847  0.1389 -0.2784
 5292SOL     OW20939   1.357   4.118   3.297  0.3716 -0.5645  0.2690
 5292SOL    HW220940   1.371   4.182   3.228  0.3390  1.5515  2.1096
 5292SOL    HW320941   1.444   4.086   3.318  0.5958  0.1707  0.4811
 5292SOL    MW420942   1.370   4.122   3.291  0.5687 -0.2728  0.2916
 5293SOL     OW20943   1.700   5.445   1.011 -0.4363  0.0381 -0.4963
 5293SOL    HW220944   1.650   5.474   1.087 -0.6812 -0.2976 -0.5220
 5293SOL    HW320945   1.672   5.354   0.998  0.8846 -0.4745  0.0581
 5293SOL    MW420946   1.690   5.437   1.019 -0.5874 -0.4779  0.9804
 5294SOL     OW20947   6.175   2.209   2.007  0.5788 -0.7886 -0.2527
 5294SOL    HW220948   6.153   2.115   2.003 -0.4907 -0.6958  1.9071
 5294SOL    HW320949   6.238   2.216   2.078  0.2701  0.2038 -0.0650
 5294SOL    MW420950   6.180   2.197   2.016 -0.7590 -0.1615  0.4244
 5295SOL     OW20951   0.673   1.787   5.404 -0.4379 -0.6261 -0.5946
 5295SOL    HW220952   0.672   1.801   5.309 -1.2555 -0.6849 -0.6001
 5295SOL    HW320953   0.718   1.864   5.439 -1.6533  0.2577 -0.9077
 5295SOL    MW420954   0.679   1.799   5.396  0.5754 -0.3486 -0.0995
 5296SOL     OW20955   1.553   6.213   0.563  0.4323  0.4885  0.3537
 5296SOL    HW220956   1.638   6.254   0.578  0.9528  0.1367 -1.4230
 5296SOL    HW320957   1.570   6.120   0.572  0.6091  0.3132 -1.5056
 5296SOL    MW420958   1.567   6.206   0.566 -0.1626 -0.3201 -0.3008
 5297SOL     OW20959   5.551   5.468   1.548 -0.8001 -0.2464 -0.1924
 5297SOL    HW220960   5.560   5.484   1.454  0.5390 -0.6427 -0.1460
 5297SOL    HW320961   5.623   5.409   1.570 -1.4471 -0.6344  0.9796
 5297SOL    MW420962   5.561   5.462   1.539 -0.3806  0.3647 -0.7662
 5298SOL     OW20963   2.055   3.540   4.673 -0.1752  0.1119 -0.6355
 5298SOL    HW220964   2.037   3.548   4.767 -2.8640  0.7318 -1.1235
 5298SOL    HW320965   2.037   3.448   4.653 -0.0958  0.0946 -0.6266
 5298SOL    MW420966   2.050   3.529   4.683 -0.4699  0.5253 -0.0157
 5299SOL     OW20967   1.105   0.177   2.790 -0.3702  0.8518 -0.5692
 5299SOL    HW220968   1.047   0.155   2.863 -0.1153  0.3109 -0.5255
 5299SOL    HW320969   1.053   0.162   2.712 -0.9400  2.2748 -0.5002
 5299SOL    MW420970   1.091   0.172   2.790  0.1714  0.2822 -0.1238
 5300SOL     OW20971   1.270   1.569   5.852  0.9322 -0.9581 -0.2396
 5300SOL    HW220972   1.238   1.651   5.888 -1.6248 -1.5357 -1.0224
 5300SOL    HW320973   1.357   1.558   5.891  0.7199  1.3331  1.0404
 5300SOL    MW420974   1.278   1.578   5.862 -0.2563 -0.0217 -0.0135
 5301SOL     OW20975   0.117   1.018   5.701  0.5393 -0.2476 -0.1064
 5301SOL    HW220976   0.168   0.947   5.661 -0.9445 -1.2467 -0.3018
 5301SOL    HW320977   0.120   0.999   5.795  1.5795  0.4436  0.0214
 5301SOL    MW420978   0.124   1.006   5.708 -0.1895 -0.4640 -1.3419
 5302SOL     OW20979   1.239   5.613   4.290  1.3138  0.1019  0.0956
 5302SOL    HW220980   1.321   5.604   4.242  1.5610 -0.4783  0.6037
 5302SOL    HW320981   1.179   5.553   4.247  1.5351 -0.4179  0.4913
 5302SOL    MW420982   1.242   5.604   4.278 -0.6374 -0.2021  0.0749
 5303SOL     OW20983   3.247   0.185   2.317 -0.2906 -0.0091 -0.7138
 5303SOL    HW220984   3.253   0.093   2.290  2.6004 -0.1225 -0.0034
 5303SOL    HW320985   3.336   0.218   2.307 -0.1370  1.3953  3.5526
 5303SOL    MW420986   3.259   0.177   2.312  0.0980  0.3510 -0.1200
 5304SOL     OW20987   2.887   4.310   4.378  0.4344  0.0436  0.0292
 5304SOL    HW220988   2.884   4.222   4.343  0.0112 -0.6216  1.6320
 5304SOL    HW320989   2.923   4.300   4.466 -0.1626  1.3779  0.4589
 5304SOL    MW420990   2.891   4.297   4.385  0.7215 -0.3024 -0.3106
 5305SOL     OW20991   0.449   2.744   1.712  0.7207  0.3997 -0.1645
 5305SOL    HW220992   0.402   2.688   1.649 -0.0425 -0.7159  1.3466
 5305SOL    HW320993   0.536   2.755   1.673 -0.2949  1.3259 -2.3359
 5305SOL    MW420994   0.454   2.738   1.698  0.0600  0.1104 -0.2129
 5306SOL     OW20995   4.473   1.573   5.995  0.5843  0.4172 -0.4742
 5306SOL    HW220996   4.545   1.526   5.953  1.0847 -0.2694  1.0812
 5306SOL    HW320997   4.419   1.605   5.922  0.3757 -2.3254 -1.6428
 5306SOL    MW420998   4.475   1.571   5.980 -0.3194 -0.0566 -0.1608
 5307SOL     OW20999   1.925   1.675   5.442 -0.0909  0.1062 -0.9173
 5307SOL    HW221000   1.867   1.660   5.367 -0.6090  0.0168 -0.5055
 5307SOL    HW321001   2.003   1.623   5.423 -0.4812 -0.4195 -1.0962
 5307SOL    MW421002   1.928   1.666   5.430  0.2281 -0.0732  0.3141
 5308SOL     OW21003   4.751   5.980   1.772 -0.1793  0.3772 -0.5152
 5308SOL    HW221004   4.812   6.033   1.721  0.6599 -0.9358 -0.9187
 5308SOL    HW321005   4.791   5.975   1.859  1.2971 -1.9694 -1.2453
 5308SOL    MW421006   4.764   5.987   1.777 -0.1391 -0.0046 -0.0628
 5309SOL     OW21007   4.993   3.170   0.742 -0.1847 -0.0912 -0.7121
 5309SOL    HW221008   4.989   3.178   0.647 -1.6387  0.5599 -0.6228
 5309SOL    HW321009   4.926   3.105   0.764  0.0423 -0.1358 -0.1110
 5309SOL    MW421010   4.984   3.162   0.733 -0.1775 -0.2541  0.1720
 5310SOL     OW21011   3.886   5.420   1.559  0.3247 -0.3961  0.0799
 5310SOL    HW221012   3.934   5.369   1.494  0.2774  1.3370 -1.3866
 5310SOL    HW321013   3.953   5.471   1.605  0.1455  0.2150 -0.3183
 5310SOL    MW421014   3.901   5.420   1.556  0.0301  0.6633 -0.8272
 5311SOL     OW21015   1.783   6.407   3.316  0.5476  0.0269  0.4980
 5311SOL    HW221016   1.829   6.336   3.361  1.9109  0.0800 -0.7348
 5311SOL    HW321017   1.700   6.414   3.362  1.3113 -0.8318  2.1032
 5311SOL    MW421018   1.778   6.398   3.328 -1.0630  0.2382  0.3761
 5312SOL     OW21019   2.335   6.153   3.459  0.6213 -0.0890 -0.0271
 5312SOL    HW221020   2.271   6.223   3.447  0.1636 -0.5891 -0.5979
 5312SOL    HW321021   2.315   6.117   3.546  0.0498 -0.3029 -0.2380
 5312SOL    MW421022   2.324   6.158   3.469 -0.3667 -0.2047 -0.5029
 5313SOL     OW21023   2.667   4.392   4.941 -0.0786  0.2192 -0.3229
 5313SOL    HW221024   2.591   4.416   4.995 -2.3722 -1.7741 -2.4499
 5313SOL    HW321025   2.709   4.321   4.989 -3.4341 -3.1590 -1.9408
 5313SOL    MW421026   2.662   4.386   4.955  0.7899  0.2238  0.5638
 5314SOL     OW21027   4.551   0.288   5.763  0.5628  0.2791 -0.2062
 5314SOL    HW221028   4.566   0.313   5.672 -0.4109  0.4156 -0.3469
 5314SOL    HW321029   4.456   0.274   5.768  0.4910  1.0603  0.9855
 5314SOL    MW421030   4.540   0.289   5.752  0.1758  0.1661 -0.0162
 5315SOL     OW21031   5.313   1.543   0.183  0.1672 -0.2699 -0.2231
 5315SOL    HW221032   5.393   1.494   0.165 -0.7369 -1.6646 -0.5725
 5315SOL    HW321033   5.270   1.550   0.098  0.2499  1.1509 -0.1846
 5315SOL    MW421034   5.318   1.538   0.169  0.4743 -0.4385  0.2599
 5316SOL     OW21035   0.380   1.473   4.268 -0.5515  0.1217  0.5739
 5316SOL    HW221036   0.319   1.402   4.253 -1.9243  1.6606 -1.8368
 5316SOL    HW321037   0.467   1.433   4.258 -1.2512 -1.3680  0.2000
 5316SOL    MW421038   0.384   1.459   4.265  0.2319  0.0987 -0.1919
 5317SOL     OW21039   2.993   3.936   5.948  0.3169 -0.2509  0.4579
 5317SOL    HW221040   2.913   3.977   5.980  0.4527 -0.6108  1.2853
 5317SOL    HW321041   3.055   3.945   6.021  1.5017  1.2961 -0.6651
 5317SOL    MW421042   2.991   3.943   5.962  0.1769  0.2085 -0.1203
 5318SOL     OW21043   1.229   1.889   0.981 -0.3790  0.3492  0.4729
 5318SOL    HW221044   1.278   1.948   1.039  0.7323  1.1500 -1.1852
 5318SOL    HW321045   1.140   1.891   1.015 -0.0903  1.9837  1.2597
 5318SOL    MW421046   1.224   1.897   0.993 -0.9212  0.4254  0.5133
 5319SOL     OW21047   5.341   4.192   0.747 -0.0664  0.6255 -0.7914
 5319SOL    HW221048   5.415   4.228   0.795 -1.0067 -0.4202  1.6272
 5319SOL    HW321049   5.367   4.102   0.726 -0.6717  0.1895  0.2424
 5319SOL    MW421050   5.354   4.185   0.751  0.1421 -0.1137 -0.3487
 5320SOL     OW21051   0.064   2.855   4.791  0.2246  0.3636  0.1494
 5320SOL    HW221052   0.003   2.801   4.841  0.4686  1.1076  1.3164
 5320SOL    HW321053   0.016   2.879   4.712 -0.4414 -0.2735  0.3500
 5320SOL    MW421054   0.050   2.851   4.787  0.4577 -0.7155  0.7778
 5321SOL     OW21055   2.213   2.348   2.837 -0.1434 -0.3545 -0.0610
 5321SOL    HW221056   2.211   2.399   2.918  0.2409 -1.9863  0.9990
 5321SOL    HW321057   2.256   2.406   2.774  2.4216 -0.1683  1.7093
 5321SOL    MW421058   2.218   2.363   2.839 -0.2944 -0.0333 -0.1827
 5322SOL     OW21059   3.069   0.392   0.610 -0.6000 -0.2813 -0.3534
 5322SOL    HW221060   2.998   0.442   0.650 -1.3811 -1.8998  0.4241
 5322SOL    HW321061   3.041   0.378   0.520 -0.1056  1.1208 -0.7404
 5322SOL    MW421062   3.056   0.397   0.604  0.6272  0.0277  0.2056
 5323SOL     OW21063   3.572   6.215   5.331  0.4271  0.4667  0.2792
 5323SOL    HW221064   3.612   6.130   5.352  2.8806  1.7033  0.9503
 5323SOL    HW321065   3.485   6.192   5.299  0.7046 -2.2579  1.1515
 5323SOL    MW421066   3.566   6.201   5.330 -0.3476  0.3606 -0.0498
 5324SOL     OW21067   2.937   3.371   4.303  0.0746  0.8354 -0.7384
 5324SOL    HW221068   2.989   3.319   4.242  0.4816  0.8280 -0.3893
 5324SOL    HW321069   2.952   3.462   4.276  2.0680  1.0005  0.7185
 5324SOL    MW421070   2.946   3.376   4.291  0.2226 -0.2199 -0.2148
 5325SOL     OW21071   2.871   4.740   5.328  0.2098  0.7388 -0.3210
 5325SOL    HW221072   2.874   4.672   5.261  0.4118  1.2214 -0.8003
 5325SOL    HW321073   2.877   4.822   5.280  1.2386  1.0694  0.3559
 5325SOL    MW421074   2.872   4.742   5.313 -0.5520  0.3623 -0.1328
 5326SOL     OW21075   1.512   3.793   0.267 -0.1283 -0.2213 -0.2623
 5326SOL    HW221076   1.440   3.732   0.247  0.3396 -0.3725 -1.6133
 5326SOL    HW321077   1.500   3.814   0.359 -0.3636 -2.2912  0.2306
 5326SOL    MW421078   1.501   3.787   0.276  0.3577 -0.1413  0.4876
 5327SOL     OW21079   3.968   0.344   1.467  0.1037 -0.2621  0.3920
 5327SOL    HW221080   3.886   0.311   1.502  0.1690 -1.4696 -0.5378
 5327SOL    HW321081   3.948   0.370   1.377  0.5047  0.4456  0.4944
 5327SOL    MW421082   3.955   0.343   1.459  0.0223 -0.2718 -0.4279
 5328SOL     OW21083   3.139   4.824   5.242 -0.3278 -0.5674  0.3762
 5328SOL    HW221084   3.132   4.818   5.147 -0.6560 -1.2773  0.4384
 5328SOL    HW321085   3.048   4.823   5.273 -0.3037  1.1782  0.6355
 5328SOL    MW421086   3.126   4.823   5.233 -0.4806  0.7221 -0.4558
 5329SOL     OW21087   1.625   4.056   3.368  0.1553 -0.0652  0.6516
 5329SOL    HW221088   1.670   4.104   3.299 -0.5896  0.9557  0.8543
 5329SOL    HW321089   1.656   4.095   3.449  0.4171 -0.7154  0.8651
 5329SOL    MW421090   1.635   4.067   3.369 -0.3760  0.4349 -0.0089
 5330SOL     OW21091   2.787   0.547   0.428  0.1708 -0.2919  0.1165
 5330SOL    HW221092   2.799   0.517   0.518  1.5440  2.7531  1.0612
 5330SOL    HW321093   2.714   0.607   0.431  0.4554  0.1165 -0.7356
 5330SOL    MW421094   2.779   0.551   0.440 -0.1540  0.6474  0.4967
 5331SOL     OW21095   2.793   0.610   6.225 -0.4150  0.0176  0.6929
 5331SOL    HW221096   2.800   0.676   6.156 -1.2668  0.1099  0.6856
 5331SOL    HW321097   2.755   0.534   6.181 -1.2758  0.1895  1.1243
 5331SOL    MW421098   2.789   0.609   6.210  0.0907  0.0865  0.0828
 5332SOL     OW21099   1.555   5.740   0.065  0.3865  0.2281  0.0232
 5332SOL    HW221100   1.511   5.670   0.113  0.9150 -0.8816 -1.0664
 5332SOL    HW321101   1.500   5.817   0.080  0.1875 -0.2212  1.8339
 5332SOL    MW421102   1.542   5.741   0.073 -0.0917  0.0133 -0.2354
 5333SOL     OW21103   1.235   5.996   3.468 -0.0511  0.1233 -0.3382
 5333SOL    HW221104   1.285   6.067   3.506  0.9166 -0.8185  0.1976
 5333SOL    HW321105   1.204   6.030   3.384  1.2213  0.8259 -0.5372
 5333SOL    MW421106   1.237   6.010   3.462 -0.4145  0.2895 -0.5835
 5334SOL     OW21107   1.712   5.755   2.918  0.2314  0.1553  0.5196
 5334SOL    HW221108   1.735   5.695   2.846  0.4906  0.8457  0.0206
 5334SOL    HW321109   1.725   5.702   2.997  0.4116 -0.4658  0.0882
 5334SOL    MW421110   1.717   5.740   2.919  0.3331  0.1284  0.1206
 5335SOL     OW21111   3.169   2.030   0.241  0.6376  0.1190 -0.2074
 5335SOL    HW221112   3.182   1.968   0.314  1.3717  1.2982  0.6956
 5335SOL    HW321113   3.089   1.999   0.198  1.3073 -1.8388 -0.1847
 5335SOL    MW421114   3.160   2.018   0.245 -0.0061  0.0861 -0.0527
 5336SOL     OW21115   0.700   5.131   1.832 -0.0446 -0.3237 -0.0098
 5336SOL    HW221116   0.725   5.153   1.742 -0.6280 -1.1154 -0.3730
 5336SOL    HW321117   0.783   5.114   1.876  0.2480  0.0741 -0.3937
 5336SOL    MW421118   0.714   5.132   1.826 -0.0216 -0.3382 -0.0888
 5337SOL     OW21119   3.692   4.559   5.027  0.1691  0.4605 -0.1915
 5337SOL    HW221120   3.633   4.511   4.970  1.5995 -0.4145 -0.9985
 5337SOL    HW321121   3.724   4.632   4.974  1.9325 -0.6704 -0.7738
 5337SOL    MW421122   3.688   4.562   5.013  0.3777 -0.6277  0.1303
 5338SOL     OW21123   4.184   6.242   5.015  0.0178 -0.5103  0.1706
 5338SOL    HW221124   4.126   6.303   5.060  0.5539  0.9097 -0.9895
 5338SOL    HW321125   4.260   6.294   4.991  0.9674 -1.8943  0.0524
 5338SOL    MW421126   4.186   6.257   5.018  0.3929  0.0666  0.2201
 5339SOL     OW21127   2.289   4.376   6.263 -0.2537 -0.2468  0.2674
 5339SOL    HW221128   2.280   4.406   6.354 -0.7662 -0.7202  0.3769
 5339SOL    HW321129   2.218   4.313   6.251 -0.7310  0.4555 -0.7312
 5339SOL    MW421130   2.279   4.372   6.273 -0.2861 -0.2255  0.4804
 5340SOL     OW21131   3.964   6.123   5.293 -0.0595  0.0201  0.0175
 5340SOL    HW221132   4.045   6.074   5.284 -0.4048 -0.4051 -0.9138
 5340SOL    HW321133   3.973   6.169   5.377  0.6980 -0.8150  0.4127
 5340SOL    MW421134   3.976   6.123   5.303  0.0027  0.3745  0.6219
 5341SOL     OW21135   2.502   5.436   5.533 -0.1909  0.1734 -0.3887
 5341SOL    HW221136   2.460   5.350   5.543 -0.9853  0.7060  1.3061
 5341SOL    HW321137   2.587   5.426   5.577  0.2620 -0.0710 -1.2849
 5341SOL    MW421138   2.508   5.423   5.540  0.0862  0.2444  0.1327
 5342SOL     OW21139   4.276   2.324   0.745  0.1714  0.0351  1.0980
 5342SOL    HW221140   4.288   2.229   0.745  0.6094  0.0461 -1.1488
 5342SOL    HW321141   4.191   2.338   0.786 -0.7411 -1.4758 -0.1832
 5342SOL    MW421142   4.266   2.314   0.751 -0.4349  0.5919 -0.3149
 5343SOL     OW21143   5.950   0.499   2.561  0.3036 -0.1328 -0.8424
 5343SOL    HW221144   5.982   0.586   2.586 -1.3705  0.3184 -0.1654
 5343SOL    HW321145   6.019   0.439   2.590  0.4396  0.7755  0.8324
 5343SOL    MW421146   5.964   0.503   2.568  0.1571 -0.2098  0.1818
 5344SOL     OW21147   4.647   3.708   5.997 -0.4061  0.1744  0.2930
 5344SOL    HW221148   4.628   3.732   6.087  0.2758 -1.3545  0.8652
 5344SOL    HW321149   4.563   3.721   5.951 -1.5779 -1.6703  1.7397
 5344SOL    MW421150   4.633   3.713   6.003  0.2721 -0.0956 -0.7178
 5345SOL     OW21151   3.974   4.960   2.092  0.1705  0.6403 -0.7015
 5345SOL    HW221152   3.992   5.041   2.045 -0.1211  0.5459 -0.9759
 5345SOL    HW321153   3.965   4.894   2.024 -1.5706  0.7387 -0.6115
 5345SOL    MW421154   3.976   4.962   2.077  0.1102  0.4266 -0.0417
 5346SOL     OW21155   5.325   6.334   1.757 -0.5559  0.0743 -0.3694
 5346SOL    HW221156   5.398   6.329   1.819 -1.5117 -0.5576  0.7563
 5346SOL    HW321157   5.348   6.406   1.699 -0.0827  1.4019  1.3563
 5346SOL    MW421158   5.338   6.343   1.758  0.3687 -0.4947  0.3296
 5347SOL     OW21159   2.714   0.684   1.189 -0.0738  0.4155 -0.0683
 5347SOL    HW221160   2.706   0.726   1.274 -1.2202  1.4588 -0.6534
 5347SOL    HW321161   2.802   0.710   1.159 -0.0189  0.8060  0.4066
 5347SOL    MW421162   2.725   0.693   1.196  0.0361  0.3575  0.6084
 5348SOL     OW21163   4.741   4.089   5.967  0.0370 -0.4715 -0.2256
 5348SOL    HW221164   4.777   4.109   6.054 -0.9307  2.3470 -0.3666
 5348SOL    HW321165   4.651   4.062   5.984 -0.9980  2.4827 -0.3378
 5348SOL    MW421166   4.734   4.088   5.981  0.1125  0.5805 -0.2774
 5349SOL     OW21167   1.070   2.545   2.299 -0.1841  0.1961  0.5749
 5349SOL    HW221168   0.974   2.545   2.301 -0.1883 -0.3946  0.6360
 5349SOL    HW321169   1.094   2.453   2.283  0.3495  0.5609 -0.8207
 5349SOL    MW421170   1.061   2.533   2.297  0.4001  0.5340  0.1037
 5350SOL     OW21171   0.995   5.313   3.420 -0.4005  0.3522  0.2276
 5350SOL    HW221172   0.928   5.381   3.422 -1.0637 -0.2644  2.7590
 5350SOL    HW321173   0.956   5.239   3.467  0.6824 -1.4400 -1.5361
 5350SOL    MW421174   0.981   5.312   3.427 -0.1739 -0.2545 -0.9249
 5351SOL     OW21175   6.364   4.380   4.795 -0.4917  0.5064  0.1730
 5351SOL    HW221176   6.322   4.322   4.858 -0.1500  1.6394  1.5126
 5351SOL    HW321177   6.447   4.404   4.837 -0.2832  1.3387 -0.6804
 5351SOL    MW421178   6.370   4.376   4.809  0.5021 -0.5829 -0.4335
 5352SOL     OW21179   0.171   4.815   3.635 -0.0112 -0.0390 -0.5575
 5352SOL    HW221180   0.220   4.888   3.671  0.2017  1.2794 -3.3046
 5352SOL    HW321181   0.138   4.846   3.551  0.6625 -3.2617 -2.2040
 5352SOL    MW421182   0.173   4.828   3.629 -0.6076 -0.2099  0.0789
 5353SOL     OW21183   3.516   4.773   2.271  0.1740  0.1293  0.0397
 5353SOL    HW221184   3.587   4.747   2.329 -0.0418  0.4429  0.4530
 5353SOL    HW321185   3.444   4.795   2.330  0.1285  0.9881 -0.3212
 5353SOL    MW421186   3.516   4.772   2.286  0.4532  0.2932 -0.1102
 5354SOL     OW21187   3.109   2.712   5.808  0.0827 -0.1151  0.5012
 5354SOL    HW221188   3.032   2.689   5.861 -1.6381 -0.8733 -2.1585
 5354SOL    HW321189   3.130   2.633   5.760 -1.3163  1.5823 -3.2761
 5354SOL    MW421190   3.101   2.699   5.809 -0.4353  0.5549  0.2322
 5355SOL     OW21191   2.010   2.890   4.340 -0.6023 -0.0711 -0.1629
 5355SOL    HW221192   2.079   2.844   4.388  2.3040  0.2585 -3.6309
 5355SOL    HW321193   1.961   2.821   4.296  0.6945 -0.1653 -1.5333
 5355SOL    MW421194   2.013   2.875   4.340  0.3013 -0.0478 -0.0406
 5356SOL     OW21195   3.584   3.635   0.328  0.3004 -0.3765  0.1451
 5356SOL    HW221196   3.648   3.587   0.379  0.2879  0.3462  0.8606
 5356SOL    HW321197   3.512   3.652   0.389  1.5588  3.1468  0.9088
 5356SOL    MW421198   3.583   3.631   0.343  0.2021 -0.2894  0.6788
 5357SOL     OW21199   2.783   2.358   1.268  0.1474 -0.0754  0.0919
 5357SOL    HW221200   2.752   2.406   1.345  0.5445  1.7664 -0.8372
 5357SOL    HW321201   2.703   2.335   1.220 -0.1030 -1.2714  1.0565
 5357SOL    MW421202   2.769   2.361   1.272  0.3803  0.1563  0.1414
 5358SOL     OW21203   5.458   1.205   3.005  0.0783  0.2306  0.6134
 5358SOL    HW221204   5.367   1.237   3.009  0.1601  0.3669  1.4215
 5358SOL    HW321205   5.451   1.112   3.024  0.3022  0.6002  2.7096
 5358SOL    MW421206   5.445   1.197   3.008  0.2932  0.4741 -0.5567
 5359SOL     OW21207   4.288   0.006   4.341  0.0030 -0.2030 -0.3041
 5359SOL    HW221208   4.292   0.002   4.245 -2.9519  1.1497 -0.6221
 5359SOL    HW321209   4.317  -0.080   4.370 -0.1506 -1.0794 -2.5131
 5359SOL    MW421210   4.292  -0.006   4.332 -0.8963 -0.4538  0.2190
 5360SOL     OW21211   4.339   1.942   2.007 -0.4018  0.1969  0.4030
 5360SOL    HW221212   4.300   1.855   2.012  1.6145 -0.8346 -0.6508
 5360SOL    HW321213   4.363   1.963   2.097  0.7419 -1.1766  0.4505
 5360SOL    MW421214   4.337   1.934   2.020 -0.1318 -0.0853  0.6584
 5361SOL     OW21215   0.681   6.236   0.381 -0.0553 -0.3130 -0.2754
 5361SOL    HW221216   0.626   6.194   0.315 -0.3810 -1.8486  0.9189
 5361SOL    HW321217   0.755   6.178   0.391 -1.0141 -1.2354  2.1524
 5361SOL    MW421218   0.683   6.223   0.374  0.2879  0.5837  0.4497
 5362SOL     OW21219   3.123   3.682   2.166  0.1014 -0.3311 -0.1680
 5362SOL    HW221220   3.127   3.756   2.226 -0.8060  1.2166 -1.8989
 5362SOL    HW321221   3.041   3.695   2.117  0.0790 -2.3133 -0.7465
 5362SOL    MW421222   3.113   3.694   2.168  0.1463  0.5598 -0.3235
 5363SOL     OW21223   4.928   2.887   3.478 -0.0325  0.2899  0.0277
 5363SOL    HW221224   4.909   2.890   3.571  1.8328 -0.4033  0.4635
 5363SOL    HW321225   4.842   2.873   3.437 -0.5938 -2.3172  1.8351
 5363SOL    MW421226   4.914   2.885   3.485 -0.2757 -0.4143  0.2856
 5364SOL     OW21227   0.399   6.010   6.120 -0.1651  0.6335 -0.2026
 5364SOL    HW221228   0.453   6.084   6.092 -1.4280  1.8157  0.3824
 5364SOL    HW321229   0.333   6.001   6.051  0.1449 -0.1439 -0.4089
 5364SOL    MW421230   0.398   6.019   6.107  0.3623  0.1201 -0.7619
 5365SOL     OW21231   3.653   1.623   3.287 -0.1699 -0.2054 -0.1182
 5365SOL    HW221232   3.579   1.678   3.311 -0.0315 -0.3902  0.7570
 5365SOL    HW321233   3.730   1.670   3.321  0.2904  0.6508 -2.1258
 5365SOL    MW421234   3.654   1.637   3.294 -0.2134  0.1018 -0.2047
 5366SOL     OW21235   4.827   0.740   3.587 -0.0438  0.1776 -0.0903
 5366SOL    HW221236   4.791   0.769   3.671 -0.2402 -0.8342  0.1881
 5366SOL    HW321237   4.907   0.694   3.610  0.2884  0.5236 -0.5289
 5366SOL    MW421238   4.832   0.738   3.601 -1.1684  0.6659  0.3148
 5367SOL     OW21239   3.598   4.579   1.355  0.7102 -0.8953 -0.1086
 5367SOL    HW221240   3.625   4.574   1.447  1.5032 -0.8940 -0.3335
 5367SOL    HW321241   3.666   4.531   1.308  2.4782  2.2852 -1.1140
 5367SOL    MW421242   3.611   4.572   1.361 -0.2397  0.6713  0.5162
 5368SOL     OW21243   6.075   2.810   5.487 -0.0004 -0.6930  0.2799
 5368SOL    HW221244   6.106   2.806   5.397 -0.6966  2.5556 -0.2079
 5368SOL    HW321245   5.995   2.757   5.487  1.0937 -2.4540 -0.4111
 5368SOL    MW421246   6.068   2.802   5.475  0.0550 -1.0708  0.1053
 5369SOL     OW21247   2.849   5.189   3.818 -0.2247  0.0194  0.7096
 5369SOL    HW221248   2.886   5.119   3.872  1.0851 -1.2678 -1.7026
 5369SOL    HW321249   2.772   5.151   3.777  0.6068 -0.1452 -0.7721
 5369SOL    MW421250   2.844   5.175   3.820 -0.4277 -0.5501 -0.0274
 5370SOL     OW21251   3.861   2.803   3.095  0.3783  0.0743 -0.3828
 5370SOL    HW221252   3.910   2.764   3.023 -0.0595  1.0894 -1.2625
 5370SOL    HW321253   3.928   2.842   3.152  0.6569  1.0601 -1.3382
 5370SOL    MW421254   3.876   2.803   3.093 -0.4636  0.1042  0.3195
 5371SOL     OW21255   3.040   1.718   3.838  0.3118 -0.0415 -0.3006
 5371SOL    HW221256   2.983   1.775   3.787  1.3365  0.7215 -0.6447
 5371SOL    HW321257   3.074   1.654   3.775 -0.9286 -1.1421  0.1080
 5371SOL    MW421258   3.037   1.717   3.823  0.4721 -0.1422  0.3085
 5372SOL     OW21259   3.079   5.492   3.718 -0.3490 -0.7545 -0.3957
 5372SOL    HW221260   3.174   5.492   3.705 -0.2447  2.4438 -0.4804
 5372SOL    HW321261   3.068   5.508   3.811 -0.6956  0.9651 -0.6896
 5372SOL    MW421262   3.090   5.494   3.728  0.0100  0.1910 -1.0071
 5373SOL     OW21263   2.844   2.812   1.129  0.0691  0.6805 -0.1052
 5373SOL    HW221264   2.860   2.719   1.113 -1.0484  0.6126 -0.8939
 5373SOL    HW321265   2.859   2.822   1.223 -1.6650 -0.7145  0.3849
 5373SOL    MW421266   2.848   2.801   1.140 -0.0408 -0.2580 -0.2373
 5374SOL     OW21267   3.180   1.840   3.294 -0.3892 -0.0213  0.0927
 5374SOL    HW221268   3.272   1.814   3.284 -0.7674 -1.0793 -0.8399
 5374SOL    HW321269   3.134   1.793   3.225 -1.4238  1.7017 -0.4568
 5374SOL    MW421270   3.186   1.830   3.284 -0.5784 -0.5325  0.3591
 5375SOL     OW21271   6.221   5.605   3.390 -0.2901  0.1731 -0.5889
 5375SOL    HW221272   6.201   5.525   3.341  2.3552 -0.4017 -0.8920
 5375SOL    HW321273   6.192   5.676   3.332 -2.9170 -0.4647 -0.2100
 5375SOL    MW421274   6.214   5.604   3.376  0.0114  0.2076 -0.0815
 5376SOL     OW21275   5.321   0.474   5.003  0.3070 -0.6095 -0.5167
 5376SOL    HW221276   5.327   0.459   5.098  0.0260  0.2911 -0.3552
 5376SOL    HW321277   5.392   0.420   4.967 -0.7300 -2.4128  0.0275
 5376SOL    MW421278   5.331   0.465   5.011 -0.1413 -0.0948 -0.0324
 5377SOL     OW21279   5.580   5.256   3.996 -0.0564 -0.3543 -0.4231
 5377SOL    HW221280   5.556   5.252   4.089  0.3519  2.6165 -0.1069
 5377SOL    HW321281   5.548   5.173   3.960 -1.7714 -0.8693  2.0102
 5377SOL    MW421282   5.573   5.244   4.004  0.3820 -0.2302 -0.2778
 5378SOL     OW21283   3.735   2.718   4.489 -0.0912 -0.0389 -0.4765
 5378SOL    HW221284   3.773   2.806   4.484 -0.6840  0.2635  0.2066
 5378SOL    HW321285   3.766   2.684   4.573  1.5000 -1.1401 -1.4618
 5378SOL    MW421286   3.744   2.725   4.499 -0.1005 -0.1891  0.1347
 5379SOL     OW21287   1.921   3.581   0.701 -0.7942 -0.1337 -0.0105
 5379SOL    HW221288   2.004   3.627   0.712 -0.5857 -0.0610 -1.5814
 5379SOL    HW321289   1.940   3.491   0.729 -0.7807  0.3365  1.5932
 5379SOL    MW421290   1.935   3.575   0.706  0.3386  0.3023  0.5261
 5380SOL     OW21291   1.733   5.086   6.096 -0.3749 -0.9652 -0.4677
 5380SOL    HW221292   1.637   5.079   6.093 -0.4915 -0.3646  1.0073
 5380SOL    HW321293   1.757   5.051   6.181  0.6622 -0.4461 -0.5336
 5380SOL    MW421294   1.723   5.081   6.107  0.5852  0.3132 -0.3917
 5381SOL     OW21295   3.713   0.368   0.284  0.1651  0.0439 -0.4231
 5381SOL    HW221296   3.792   0.316   0.297  0.1252 -0.4693 -2.0430
 5381SOL    HW321297   3.665   0.322   0.215 -0.0986  1.9456 -1.5833
 5381SOL    MW421298   3.717   0.355   0.277  0.0914  0.4812  0.0884
 5382SOL     OW21299   3.212   2.585   3.441  0.0537  0.3800  0.3788
 5382SOL    HW221300   3.264   2.613   3.516  1.4872 -0.3556 -0.2919
 5382SOL    HW321301   3.277   2.565   3.373 -1.1329 -0.2742 -0.6101
 5382SOL    MW421302   3.228   2.586   3.442 -0.2932 -0.0037  0.3170
 5383SOL     OW21303   4.582   4.216   3.992 -0.0172  0.3414  0.0288
 5383SOL    HW221304   4.563   4.247   4.081  1.5490 -0.1962  0.5707
 5383SOL    HW321305   4.555   4.124   3.993  3.0125 -0.6485  1.0332
 5383SOL    MW421306   4.576   4.208   4.004 -0.1615  0.2049  0.1933
 5384SOL     OW21307   3.550   1.487   5.494  0.1471 -0.1169  0.2794
 5384SOL    HW221308   3.550   1.582   5.508  1.2765  0.0764 -0.8252
 5384SOL    HW321309   3.462   1.468   5.462 -0.1159  0.5500  0.5893
 5384SOL    MW421310   3.538   1.497   5.491  0.1906  0.4367  0.4382
 5385SOL     OW21311   1.341   2.741   3.405  0.0257  0.7896  0.1665
 5385SOL    HW221312   1.312   2.687   3.480  0.8038  1.2290  0.7907
 5385SOL    HW321313   1.432   2.716   3.391 -0.7097 -0.9547 -2.1227
 5385SOL    MW421314   1.349   2.730   3.413 -0.2301  0.3190  0.0434
 5386SOL     OW21315   0.967   6.171   0.109 -0.3151  0.0614 -0.2080
 5386SOL    HW221316   0.960   6.230   0.183  0.8847 -0.2549  0.1911
 5386SOL    HW321317   1.062   6.159   0.097 -0.4539  0.5249 -2.1206
 5386SOL    MW421318   0.979   6.177   0.117  0.2698  0.0893  0.0390
 5387SOL     OW21319   1.839   4.248   4.041 -0.5270 -0.0114 -0.0330
 5387SOL    HW221320   1.786   4.308   4.093 -0.7107 -0.7570  0.6562
 5387SOL    HW321321   1.904   4.213   4.103 -1.3576 -1.6501 -0.0152
 5387SOL    MW421322   1.841   4.251   4.056 -0.3364  0.8192 -0.4277
 5388SOL     OW21323   2.811   4.375   1.417 -0.1161 -0.0442  0.5948
 5388SOL    HW221324   2.770   4.378   1.331 -0.8919  0.3825  0.9693
 5388SOL    HW321325   2.738   4.369   1.478  0.4420 -1.0890  1.2016
 5388SOL    MW421326   2.796   4.374   1.414  0.4704 -0.2452  0.1593
 5389SOL     OW21327   4.716   1.742   3.538 -0.3056 -0.1563 -0.1520
 5389SOL    HW221328   4.697   1.652   3.510 -1.2977 -0.1538  0.4646
 5389SOL    HW321329   4.644   1.765   3.596  0.4601  0.6955  0.4905
 5389SOL    MW421330   4.704   1.733   3.542  0.1070  0.2519 -0.0343
 5390SOL     OW21331   4.921   3.821   5.883 -0.0641  0.3242 -0.1488
 5390SOL    HW221332   4.830   3.802   5.907 -0.7690  3.0736 -0.3866
 5390SOL    HW321333   4.915   3.869   5.801  1.7169 -0.3400 -0.7175
 5390SOL    MW421334   4.908   3.825   5.875  0.5519 -0.0002 -0.1722
 5391SOL     OW21335   2.406   4.292   0.216  0.2340  0.4338 -0.0058
 5391SOL    HW221336   2.368   4.371   0.177  1.5098  1.6782  1.1503
 5391SOL    HW321337   2.469   4.260   0.151  1.5530  1.8681  0.5020
 5391SOL    MW421338   2.409   4.298   0.202 -0.2913 -0.0895  0.2152
 5392SOL     OW21339   0.332   5.140   2.146  0.0978  0.8858 -0.3098
 5392SOL    HW221340   0.386   5.175   2.076 -0.4418  0.6232 -0.8607
 5392SOL    HW321341   0.357   5.047   2.152 -0.0098  0.8571 -0.2968
 5392SOL    MW421342   0.343   5.132   2.138  0.3414  0.2313 -0.5128
 5393SOL     OW21343   1.706   1.834   1.810  0.7932 -0.1155  0.0283
 5393SOL    HW221344   1.633   1.820   1.750  0.8962 -0.8058  0.0482
 5393SOL    HW321345   1.740   1.921   1.788  0.7175 -0.2820 -0.7940
 5393SOL    MW421346   1.701   1.844   1.799 -0.0226  0.4198  0.5604
 5394SOL     OW21347   0.467   3.344   0.279  0.5587  0.6044  0.4201
 5394SOL    HW221348   0.545   3.329   0.332 -0.0550  1.2917  1.5502
 5394SOL    HW321349   0.501   3.371   0.193  1.5528  0.0853  0.6349
 5394SOL    MW421350   0.482   3.346   0.274  0.1169  0.3454 -0.5594
 5395SOL     OW21351   2.640   5.075   5.514  0.1125 -0.2558  0.1992
 5395SOL    HW221352   2.568   5.118   5.559 -1.3306 -1.2142 -1.0894
 5395SOL    HW321353   2.599   5.005   5.463  2.0179 -1.2074 -0.1504
 5395SOL    MW421354   2.625   5.071   5.513  0.1593  0.0761  0.3283
 5396SOL     OW21355   3.061   2.783  -0.012  0.2943 -0.4672 -0.4657
 5396SOL    HW221356   2.990   2.847  -0.020 -0.6710 -1.5071 -0.5077
 5396SOL    HW321357   3.141   2.835  -0.013 -0.4573  0.7153 -0.7068
 5396SOL    MW421358   3.062   2.798  -0.013 -0.2062 -0.0850  0.1749
 5397SOL     OW21359   5.677   4.928   5.555 -0.5408  0.1677  0.2942
 5397SOL    HW221360   5.639   4.932   5.468 -0.2319 -0.2321  0.1353
 5397SOL    HW321361   5.767   4.897   5.540 -1.2158 -2.2793  0.9515
 5397SOL    MW421362   5.684   4.924   5.541  1.0064 -0.7213 -0.6003
 5398SOL     OW21363   5.256   0.954   3.049  0.1216 -0.0048 -0.3353
 5398SOL    HW221364   5.206   1.010   3.109  1.5699 -0.1253  1.0642
 5398SOL    HW321365   5.191   0.900   3.005 -1.0114  0.2103  1.0282
 5398SOL    MW421366   5.241   0.955   3.051  0.6472  0.2484 -0.1876
 5399SOL     OW21367   5.538   5.928   1.897 -0.4567  0.1024 -0.0129
 5399SOL    HW221368   5.627   5.900   1.921  0.0596  1.0469 -0.7613
 5399SOL    HW321369   5.486   5.848   1.902 -0.0550 -0.0782  2.5688
 5399SOL    MW421370   5.543   5.914   1.900  0.0477  0.8561 -0.0964
 5400SOL     OW21371   5.369   3.230   5.462  0.0580 -0.4937 -0.2919
 5400SOL    HW221372   5.296   3.269   5.413 -0.9741 -0.8067  0.9574
 5400SOL    HW321373   5.342   3.140   5.478  0.1933 -0.2882  1.1923
 5400SOL    MW421374   5.356   3.223   5.458 -0.3438 -0.2612  0.5137
 5401SOL     OW21375   4.538   4.632   5.508 -0.2012  0.5515  0.5267
 5401SOL    HW221376   4.610   4.623   5.570 -0.7200 -0.4480  1.0202
 5401SOL    HW321377   4.504   4.720   5.523 -1.3260 -0.1894  2.8692
 5401SOL    MW421378   4.543   4.642   5.518 -0.0093 -0.5073 -0.3710
 5402SOL     OW21379   4.725   0.655   5.297 -0.2037 -0.0996  0.8199
 5402SOL    HW221380   4.751   0.649   5.389 -0.5532 -0.8520  0.8765
 5402SOL    HW321381   4.764   0.737   5.266  0.5981 -0.2349  1.4266
 5402SOL    MW421382   4.734   0.665   5.305 -0.1971  0.0038  0.2283
 5403SOL     OW21383   1.768   2.010   2.712 -0.3603  0.3935  0.0027
 5403SOL    HW221384   1.704   2.073   2.746 -0.3188  1.2192 -1.3922
 5403SOL    HW321385   1.808   2.054   2.637 -0.7886 -1.5249 -1.4385
 5403SOL    MW421386   1.765   2.024   2.707 -0.1059 -0.7909  0.2767
 5404SOL     OW21387   5.572   3.364   3.112  0.1711 -0.1584  0.0711
 5404SOL    HW221388   5.545   3.412   3.033  2.2480  2.3981  0.7954
 5404SOL    HW321389   5.498   3.305   3.130 -0.9473  0.1208 -2.9645
 5404SOL    MW421390   5.558   3.362   3.104 -0.2725  0.2067 -0.3352
 5405SOL     OW21391   1.370   5.916   6.151  0.3528 -0.1427  0.3554
 5405SOL    HW221392   1.424   5.848   6.191  1.4574 -0.9986 -2.3560
 5405SOL    HW321393   1.428   5.959   6.088 -1.4859  0.3855 -1.0813
 5405SOL    MW421394   1.385   5.913   6.148  0.0757 -0.2680  0.0112
 5406SOL     OW21395   2.993   5.933   4.869 -0.9039  0.6480 -0.4649
 5406SOL    HW221396   3.002   5.899   4.780 -0.3827 -0.7004  0.0754
 5406SOL    HW321397   3.083   5.943   4.900 -1.0746  1.4695 -0.2101
 5406SOL    MW421398   3.006   5.929   4.862 -0.3537  0.0155  0.4143
 5407SOL     OW21399   0.426   0.623   1.438 -0.2456  0.3455  0.0576
 5407SOL    HW221400   0.367   0.692   1.470  0.8456  1.3351  0.0037
 5407SOL    HW321401   0.486   0.608   1.511 -0.2701 -0.3175 -0.0578
 5407SOL    MW421402   0.426   0.630   1.452 -0.2252 -0.2808  0.0488
 5408SOL     OW21403   0.938   2.210   3.744  0.1205  0.7064 -0.1314
 5408SOL    HW221404   0.915   2.291   3.698  2.4774  2.9889  2.3394
 5408SOL    HW321405   0.877   2.206   3.818 -1.7803 -1.3931 -1.6830
 5408SOL    MW421406   0.927   2.220   3.748  0.1176 -0.3907  0.4272
 5409SOL     OW21407   3.963   5.590   1.089  0.2169 -0.3468 -0.1601
 5409SOL    HW221408   4.004   5.669   1.054 -1.0462 -0.2535 -1.5200
 5409SOL    HW321409   3.941   5.613   1.179 -0.8808  1.1627 -0.7794
 5409SOL    MW421410   3.966   5.604   1.096 -0.2619 -0.1128  0.0527
 5410SOL     OW21411   0.932   4.514   0.879  0.2999 -0.5347  0.2881
 5410SOL    HW221412   1.013   4.542   0.921  0.6844 -1.0744 -0.0805
 5410SOL    HW321413   0.939   4.545   0.789  0.0693 -0.5313  0.2698
 5410SOL    MW421414   0.943   4.522   0.873 -0.4255  0.0446  0.3596
 5411SOL     OW21415   6.402   0.724   1.340 -0.0408  0.3928  0.1323
 5411SOL    HW221416   6.335   0.711   1.272 -0.0743 -1.5793  0.4684
 5411SOL    HW321417   6.356   0.708   1.422  0.7652 -0.7780  0.3811
 5411SOL    MW421418   6.387   0.720   1.342  0.1975  0.4196 -0.4080
 5412SOL     OW21419   2.548   3.765   2.410 -0.4818  0.3187  0.2374
 5412SOL    HW221420   2.470   3.719   2.380  1.2658 -2.4487 -0.4155
 5412SOL    HW321421   2.607   3.763   2.335  1.0854  0.2851  1.4357
 5412SOL    MW421422   2.545   3.759   2.396  0.2047  0.3977  0.6291
 5413SOL     OW21423   4.214   2.976   3.971  0.2791  0.4537  0.4068
 5413SOL    HW221424   4.247   2.899   4.016 -1.6057 -0.9541 -0.4629
 5413SOL    HW321425   4.154   3.017   4.033 -0.7381 -0.3336 -0.0014
 5413SOL    MW421426   4.210   2.971   3.985 -0.3226  0.0009  0.4594
 5414SOL     OW21427   1.109   5.759   4.700 -0.6785 -0.1274 -0.1824
 5414SOL    HW221428   1.145   5.709   4.627 -1.9173 -2.0193  0.4530
 5414SOL    HW321429   1.015   5.757   4.686 -0.8648  0.3621  0.9387
 5414SOL    MW421430   1.102   5.752   4.688 -0.2892 -0.5344 -0.1032
 5415SOL     OW21431   0.388   0.888   4.917  0.4793 -0.0576  0.2391
 5415SOL    HW221432   0.424   0.892   5.006  0.9845 -2.5209  0.2265
 5415SOL    HW321433   0.408   0.799   4.888 -0.1527  0.5273 -2.1600
 5415SOL    MW421434   0.396   0.876   4.925  0.1193  0.0230 -0.1032
 5416SOL     OW21435   1.964   3.442   5.537  0.0438  0.4233  0.2716
 5416SOL    HW221436   2.029   3.407   5.599  2.0665  0.5186 -1.6983
 5416SOL    HW321437   2.015   3.469   5.461 -2.4786 -1.6541 -2.3986
 5416SOL    MW421438   1.979   3.441   5.535 -0.0144  0.3438 -0.4260
 5417SOL     OW21439   3.020   4.890   0.824  0.1301 -1.1079 -0.3788
 5417SOL    HW221440   3.054   4.978   0.836 -2.1311  0.1926 -2.6277
 5417SOL    HW321441   2.969   4.873   0.903  0.5606 -0.4314  0.0587
 5417SOL    MW421442   3.018   4.899   0.836 -0.4261  0.9773  0.9266
 5418SOL     OW21443   2.317   1.671   1.486 -0.0131  0.2753  0.3040
 5418SOL    HW221444   2.267   1.753   1.490  0.5988  0.6787 -0.2157
 5418SOL    HW321445   2.296   1.626   1.568 -2.7070 -0.4287 -0.6526
 5418SOL    MW421446   2.307   1.676   1.497  0.5294 -0.1040  0.0871
 5419SOL     OW21447   1.546   3.263   1.278  0.3019  0.0167 -0.4611
 5419SOL    HW221448   1.496   3.212   1.214  2.4947 -0.2234 -2.1227
 5419SOL    HW321449   1.607   3.314   1.225  0.6339  1.6347  1.3673
 5419SOL    MW421450   1.547   3.263   1.263  0.0123 -0.1078  0.3387
 5420SOL     OW21451   2.423   5.942   5.834  0.4663 -0.1047 -0.2481
 5420SOL    HW221452   2.467   5.866   5.873  1.8580  1.0378  0.4638
 5420SOL    HW321453   2.453   6.017   5.885 -3.3920  0.6859  1.2297
 5420SOL    MW421454   2.433   5.942   5.846  0.3699 -0.4522 -0.1374
 5421SOL     OW21455   6.112   1.682   0.083  0.1143 -0.3093  0.1794
 5421SOL    HW221456   6.076   1.643   0.003 -0.0222  1.1711 -0.5141
 5421SOL    HW321457   6.192   1.727   0.054  0.2033  0.0286  0.9171
 5421SOL    MW421458   6.118   1.683   0.068  0.3287 -0.3391 -0.1144
 5422SOL     OW21459   3.215   3.541   6.313  0.3736 -0.6128  0.0429
 5422SOL    HW221460   3.162   3.474   6.357  0.8064 -0.8286  0.2450
 5422SOL    HW321461   3.208   3.520   6.220  1.4809 -1.6901  0.1746
 5422SOL    MW421462   3.207   3.529   6.306 -0.2444 -0.0900  0.2713
 5423SOL     OW21463   0.170   0.625   5.366 -0.4424  0.3516  0.0226
 5423SOL    HW221464   0.098   0.615   5.303 -0.5004 -0.7356  0.2418
 5423SOL    HW321465   0.239   0.568   5.333 -0.0616  0.6116  0.3614
 5423SOL    MW421466   0.169   0.616   5.353  0.0245 -0.0347 -0.3825
 5424SOL     OW21467   5.985   3.001   1.856  0.3264  0.1124  0.3330
 5424SOL    HW221468   6.024   3.057   1.924 -1.4433 -0.3300  1.8055
 5424SOL    HW321469   6.048   2.931   1.843  2.2461  1.9438 -0.9889
 5424SOL    MW421470   5.998   2.999   1.864 -0.5865  0.4283 -0.3931
 5425SOL     OW21471   4.931   6.193   2.448 -0.3541  0.8287 -0.2856
 5425SOL    HW221472   4.921   6.237   2.532  2.2803  0.4858  0.2919
 5425SOL    HW321473   5.025   6.178   2.439 -0.8700 -2.9973 -1.3098
 5425SOL    MW421474   4.942   6.196   2.458 -0.2542 -0.3324 -0.0663
 5426SOL     OW21475   0.660   2.078   4.298 -0.3776 -0.0868  0.2572
 5426SOL    HW221476   0.608   2.087   4.377 -0.8267 -1.2324  0.1069
 5426SOL    HW321477   0.703   1.993   4.306 -1.8407 -1.0812 -1.5076
 5426SOL    MW421478   0.659   2.068   4.309 -0.1753  0.4555 -0.2762
 5427SOL     OW21479   5.891   2.804   3.583  0.1005 -0.3314  0.3417
 5427SOL    HW221480   5.902   2.890   3.542  0.1966  0.0375  1.1180
 5427SOL    HW321481   5.979   2.779   3.609 -0.0363 -0.2965  0.8421
 5427SOL    MW421482   5.904   2.812   3.581 -1.2834 -0.1597 -0.3393
 5428SOL     OW21483   0.349   3.181   4.157 -0.5049 -0.5685 -0.0675
 5428SOL    HW221484   0.288   3.211   4.225 -0.6741 -1.4335  0.1846
 5428SOL    HW321485   0.296   3.178   4.077 -0.0877  1.2713 -0.4379
 5428SOL    MW421486   0.334   3.184   4.156  0.5928  0.4332  0.3563
 5429SOL     OW21487   4.580   4.718   1.172  0.2415  0.1763 -0.6202
 5429SOL    HW221488   4.585   4.625   1.196  0.3255 -0.3602 -2.5598
 5429SOL    HW321489   4.604   4.765   1.252 -0.7383 -1.4312  0.6908
 5429SOL    MW421490   4.584   4.712   1.186  0.2674 -0.0073 -0.4455
 5430SOL     OW21491   4.596   5.311   5.510 -0.1837 -0.3433  0.1429
 5430SOL    HW221492   4.646   5.237   5.478 -0.3325 -0.0409 -0.8088
 5430SOL    HW321493   4.509   5.300   5.472 -0.5976 -0.3910  1.0719
 5430SOL    MW421494   4.591   5.300   5.501  0.0117 -0.6755 -0.1273
 5431SOL     OW21495   3.144   6.204   1.447 -0.7182 -0.1296 -0.4376
 5431SOL    HW221496   3.049   6.217   1.438 -0.8457  0.0467  0.9690
 5431SOL    HW321497   3.166   6.249   1.528  0.3165 -1.4806  0.0561
 5431SOL    MW421498   3.134   6.212   1.457  0.0174 -0.4555 -0.5272
 5432SOL     OW21499   1.369   2.277   2.565  0.2546 -0.2299 -0.2766
 5432SOL    HW221500   1.355   2.199   2.512 -0.1328 -0.3091 -0.0561
 5432SOL    HW321501   1.419   2.336   2.508  1.0647 -0.8622 -0.2397
 5432SOL    MW421502   1.374   2.275   2.550  0.1419  0.3588 -0.5224
 5433SOL     OW21503   3.000   6.403   4.062 -0.1042 -0.0287  0.2821
 5433SOL    HW221504   3.014   6.485   4.111  0.3918 -0.3207  0.6347
 5433SOL    HW321505   3.001   6.430   3.970 -0.7851  0.4887  0.4173
 5433SOL    MW421506   3.002   6.418   4.056  0.0860 -0.1857 -0.4463
 5434SOL     OW21507   3.036   0.602   1.738  0.2285  0.3573  0.1386
 5434SOL    HW221508   2.972   0.551   1.787  0.8535  1.3278  2.0753
 5434SOL    HW321509   2.990   0.681   1.710  0.5229  1.0805  1.5773
 5434SOL    MW421510   3.022   0.606   1.741 -0.4434 -0.0659  0.0084
 5435SOL     OW21511   2.887   3.264   5.201 -0.3759  0.5444  0.2537
 5435SOL    HW221512   2.927   3.230   5.281 -0.2034  0.8130  0.2847
 5435SOL    HW321513   2.800   3.224   5.198 -1.3877  2.4658  1.9042
 5435SOL    MW421514   2.881   3.254   5.211 -0.8195  0.9567 -0.1497
 5436SOL     OW21515   5.740   0.944   4.900 -0.1268  0.2541  0.4802
 5436SOL    HW221516   5.821   0.908   4.864 -0.4434  1.8272 -2.1224
 5436SOL    HW321517   5.671   0.897   4.853 -0.6058  1.1897  0.2234
 5436SOL    MW421518   5.742   0.933   4.889 -0.5209 -0.3891 -0.0263
 5437SOL     OW21519   0.103   2.734   2.129  0.1225 -0.4754 -0.2774
 5437SOL    HW221520   0.078   2.728   2.222 -1.7770  1.0466 -0.6232
 5437SOL    HW321521   0.189   2.693   2.125  0.4915 -0.1333  2.2512
 5437SOL    MW421522   0.111   2.728   2.141  0.0829  0.5177 -0.1596
 5438SOL     OW21523   1.922   0.659   5.048  0.8870  0.3693 -0.2742
 5438SOL    HW221524   1.885   0.578   5.082  1.4760  0.1716 -0.0808
 5438SOL    HW321525   1.847   0.714   5.026  0.4279 -0.8337 -1.8789
 5438SOL    MW421526   1.908   0.656   5.049 -0.2509  0.6275  0.7106
 5439SOL     OW21527   5.292   4.887   5.267  0.0275  0.1308  0.4444
 5439SOL    HW221528   5.241   4.928   5.197  0.8182 -0.3595 -0.4496
 5439SOL    HW321529   5.232   4.822   5.305 -0.3681  0.3116  0.1402
 5439SOL    MW421530   5.277   4.884   5.263 -0.1585 -0.0166  0.0447
 5440SOL     OW21531   3.438   1.093   5.652  0.2183  0.2884  0.4111
 5440SOL    HW221532   3.437   1.090   5.556  1.0334 -0.0695  0.4087
 5440SOL    HW321533   3.350   1.124   5.676 -0.2807 -0.4193 -0.4292
 5440SOL    MW421534   3.426   1.097   5.643 -0.1399 -0.4785  0.3334
 5441SOL     OW21535   3.746   3.539   3.677 -0.2661  0.2230 -0.3311
 5441SOL    HW221536   3.817   3.508   3.620 -0.1502 -2.0662  0.9409
 5441SOL    HW321537   3.784   3.616   3.722  1.4766 -0.9419  0.3218
 5441SOL    MW421538   3.761   3.545   3.676 -0.3066 -0.3480  0.3355
 5442SOL     OW21539   0.083   5.809   2.939  0.0288 -0.8619  0.3923
 5442SOL    HW221540   0.144   5.882   2.932 -0.6289 -0.3620 -0.2678
 5442SOL    HW321541   0.064   5.802   3.033 -0.3466  0.1814  0.3994
 5442SOL    MW421542   0.089   5.818   2.951  0.7331  0.0139 -0.6718
 5443SOL     OW21543   1.888   4.716   3.250 -0.3124 -0.3563  0.2676
 5443SOL    HW221544   1.963   4.658   3.262 -0.0268  0.1059  0.7383
 5443SOL    HW321545   1.813   4.657   3.247  0.0495 -0.8092 -0.0594
 5443SOL    MW421546   1.888   4.700   3.251 -0.1790 -0.0539  0.0015
 5444SOL     OW21547   1.977   4.838   0.937 -0.0918  0.0156 -0.4406
 5444SOL    HW221548   2.035   4.863   0.864  1.7648 -1.6618  0.3520
 5444SOL    HW321549   1.975   4.742   0.934 -0.1783 -0.0865  1.5506
 5444SOL    MW421550   1.985   4.829   0.927  0.2017 -0.3975  0.8776
 5445SOL     OW21551   4.693   5.543   1.916 -0.4239 -0.5194  0.1784
 5445SOL    HW221552   4.780   5.583   1.909 -0.4688 -0.5542 -0.6885
 5445SOL    HW321553   4.641   5.607   1.964 -0.1895 -0.0419 -0.1942
 5445SOL    MW421554   4.698   5.557   1.921  0.0850 -0.0708  0.0207
 5446SOL     OW21555   1.695   4.231   3.606 -0.7683  0.1544  0.0207
 5446SOL    HW221556   1.768   4.292   3.613 -0.5532 -0.2567  1.6117
 5446SOL    HW321557   1.689   4.189   3.692 -2.8795  0.1745 -0.0575
 5446SOL    MW421558   1.704   4.233   3.618 -0.4903  0.2750  0.3344
 5447SOL     OW21559   1.812   1.053   5.718 -0.0974 -0.0379 -0.4454
 5447SOL    HW221560   1.853   1.061   5.632 -0.0108  0.5537 -0.3561
 5447SOL    HW321561   1.765   0.970   5.715  1.6857 -1.0995 -0.3053
 5447SOL    MW421562   1.812   1.043   5.706 -0.3707 -0.5535 -0.2517
 5448SOL     OW21563   5.563   1.494   4.744 -0.3735  0.4090  0.1950
 5448SOL    HW221564   5.589   1.406   4.717  1.2818  1.9516 -3.9216
 5448SOL    HW321565   5.626   1.517   4.813  0.3228 -0.9341  0.0496
 5448SOL    MW421566   5.575   1.485   4.750 -0.3327  0.4574 -0.5145
 5449SOL     OW21567   1.100   0.963   1.880 -0.3016  0.4908  0.4707
 5449SOL    HW221568   1.039   0.896   1.909 -0.0362 -0.6966 -1.5673
 5449SOL    HW321569   1.126   1.008   1.961 -0.5986 -1.7295  1.8820
 5449SOL    MW421570   1.096   0.960   1.895  0.1773 -0.1142 -0.4120
 5450SOL     OW21571   3.381   5.643   1.415  0.1446 -0.6311 -0.4997
 5450SOL    HW221572   3.476   5.645   1.413  0.1412 -0.7083 -0.9452
 5450SOL    HW321573   3.354   5.723   1.369 -0.0087 -0.1338  0.4424
 5450SOL    MW421574   3.390   5.654   1.408 -0.4471 -0.1211  0.1402
 5451SOL     OW21575   4.301   1.450   1.710 -0.3931 -0.1350 -0.0692
 5451SOL    HW221576   4.205   1.452   1.716 -0.4394 -1.6520  0.1470
 5451SOL    HW321577   4.328   1.390   1.779  0.9365  2.1894  1.5654
 5451SOL    MW421578   4.292   1.442   1.720 -0.2190  0.7158 -0.3061
 5452SOL     OW21579   5.509   4.447   1.783  0.1576  0.0750  0.6387
 5452SOL    HW221580   5.540   4.538   1.789  0.9749 -0.2775  2.1636
 5452SOL    HW321581   5.495   4.434   1.689 -0.1520  1.8283  0.3937
 5452SOL    MW421582   5.512   4.457   1.771 -0.3708 -0.1026  0.0745
 5453SOL     OW21583   5.803   0.176   6.186 -0.2379 -0.4375  0.2048
 5453SOL    HW221584   5.709   0.178   6.170 -0.1506  1.5230 -0.3109
 5453SOL    HW321585   5.815   0.226   6.267  0.5247  1.6470 -1.0980
 5453SOL    MW421586   5.792   0.183   6.195  0.1245 -0.0171 -0.1784
 5454SOL     OW21587   0.134   1.659   0.116 -0.0190  0.0515 -0.0856
 5454SOL    HW221588   0.212   1.691   0.070  0.3359 -1.8549 -0.9334
 5454SOL    HW321589   0.149   1.682   0.208  0.7509  1.1768 -0.4753
 5454SOL    MW421590   0.146   1.666   0.122  0.0285 -0.1138  0.2247
 5455SOL     OW21591   5.767   1.420   4.225 -0.8121  0.6681  0.5367
 5455SOL    HW221592   5.772   1.332   4.188 -0.3729  0.4415  1.1195
 5455SOL    HW321593   5.786   1.478   4.151 -0.5950  0.2532  0.2616
 5455SOL    MW421594   5.770   1.416   4.210 -0.3165  0.1072 -0.1928
 5456SOL     OW21595   3.126   5.153   0.745  0.3978  0.1922  0.5815
 5456SOL    HW221596   3.033   5.176   0.741 -0.0409 -1.3635  1.1270
 5456SOL    HW321597   3.170   5.234   0.770 -0.6585  1.2506 -0.8236
 5456SOL    MW421598   3.120   5.166   0.748 -0.1967  0.1365  0.7415
 5457SOL     OW21599   1.853   0.974   3.424  0.1884 -0.0991  0.3539
 5457SOL    HW221600   1.779   0.970   3.485  1.6961 -0.2390  2.2639
 5457SOL    HW321601   1.911   1.040   3.462  1.4693 -0.6370 -0.6294
 5457SOL    MW421602   1.851   0.982   3.437  0.5575 -0.3632  0.0164
 5458SOL     OW21603   0.469   5.397   0.743  0.0960  0.6859 -0.3326
 5458SOL    HW221604   0.563   5.378   0.741  0.3963  2.0471  0.1736
 5458SOL    HW321605   0.434   5.345   0.671  1.4989  1.4450 -1.6360
 5458SOL    MW421606   0.477   5.387   0.733  0.1424 -0.8225  0.2144
 5459SOL     OW21607   2.509   4.816   5.398  0.3278 -0.2849 -0.3423
 5459SOL    HW221608   2.472   4.862   5.323  0.7439 -0.9230 -0.9503
 5459SOL    HW321609   2.567   4.751   5.360 -0.6484 -1.6805  0.4750
 5459SOL    MW421610   2.512   4.814   5.383 -1.0164  0.4270  0.0453
 5460SOL     OW21611   4.087   4.528   4.103 -0.1917  0.6464 -0.1134
 5460SOL    HW221612   4.005   4.553   4.060  0.1658 -0.0879 -1.2736
 5460SOL    HW321613   4.155   4.546   4.038  0.5306  0.9296  0.7132
 5460SOL    MW421614   4.085   4.534   4.089 -0.2340 -0.7034  0.7679
 5461SOL     OW21615   1.330   1.016   1.747  0.3131  0.4039 -0.2110
 5461SOL    HW221616   1.253   1.012   1.803  0.8621 -0.0720  0.5451
 5461SOL    HW321617   1.319   0.944   1.685  0.7488 -0.5164  0.7351
 5461SOL    MW421618   1.319   1.006   1.746  0.0390  0.4768  0.1580
 5462SOL     OW21619   5.331   2.671   3.435 -0.0352 -0.1763  0.4569
 5462SOL    HW221620   5.369   2.658   3.349  0.2665 -0.0419  0.5684
 5462SOL    HW321621   5.300   2.584   3.461 -1.0380 -0.0333 -0.2057
 5462SOL    MW421622   5.332   2.658   3.427 -0.3859 -0.3871  0.2906
 5463SOL     OW21623   2.137   4.343   2.684 -0.0007  0.0717 -0.3995
 5463SOL    HW221624   2.094   4.275   2.633 -0.9829  1.5033 -1.5778
 5463SOL    HW321625   2.182   4.397   2.619 -0.3267  1.2884  0.3409
 5463SOL    MW421626   2.138   4.341   2.669  0.0739  0.5549 -0.0856
 5464SOL     OW21627   2.405   0.956   5.034  0.0988 -0.2990 -0.2446
 5464SOL    HW221628   2.444   0.965   5.121  0.1934 -1.5016 -0.1475
 5464SOL    HW321629   2.371   0.867   5.032  2.5393 -1.2861 -2.4004
 5464SOL    MW421630   2.406   0.946   5.046  0.9635 -0.1980 -0.2344
 5465SOL     OW21631   0.829   1.956   4.643  0.3125  0.3074  0.3503
 5465SOL    HW221632   0.808   1.978   4.734  1.5251  0.9700  0.4889
 5465SOL    HW321633   0.916   1.993   4.629  0.5248 -0.5807 -0.8052
 5465SOL    MW421634   0.838   1.964   4.653 -0.8808 -0.1780 -0.3553
 5466SOL     OW21635   6.247   0.237   1.929  0.6141  0.1863 -0.3384
 5466SOL    HW221636   6.295   0.155   1.944 -2.0734 -1.1352  1.9243
 5466SOL    HW321637   6.261   0.287   2.009  1.7087  1.7548 -1.4532
 5466SOL    MW421638   6.255   0.233   1.941 -0.4494  0.1701  0.0249
 5467SOL     OW21639   0.858   2.814   2.780  0.5076  0.4520 -0.4935
 5467SOL    HW221640   0.868   2.909   2.792  1.2326  0.5203 -1.4523
 5467SOL    HW321641   0.948   2.782   2.773  0.2405 -0.0744 -1.7508
 5467SOL    MW421642   0.871   2.822   2.781 -0.4804  0.2914  0.1959
 5468SOL     OW21643   4.914   1.431   1.287 -0.0930  0.4106 -0.5920
 5468SOL    HW221644   4.988   1.398   1.237  0.5307  1.3786 -0.3378
 5468SOL    HW321645   4.947   1.511   1.328 -0.4521 -0.5231  1.6532
 5468SOL    MW421646   4.928   1.437   1.286 -0.7708 -0.1325  0.4221
 5469SOL     OW21647   3.542   2.181   2.315  0.2348  0.1137 -0.1384
 5469SOL    HW221648   3.591   2.200   2.395  0.6814 -0.7026 -0.2128
 5469SOL    HW321649   3.453   2.162   2.345 -0.0579  1.5523  0.0019
 5469SOL    MW421650   3.537   2.181   2.329 -0.6680 -0.0213  0.6393
 5470SOL     OW21651   4.027   5.555   1.804  0.0483  0.0300  0.4134
 5470SOL    HW221652   4.096   5.489   1.796  0.1361  0.2311 -0.5620
 5470SOL    HW321653   4.074   5.638   1.802 -0.2305  0.1731 -0.4331
 5470SOL    MW421654   4.042   5.557   1.803 -0.3973 -0.0635  0.2878
 5471SOL     OW21655   1.837   1.441   1.804  0.0170 -0.1455  0.4427
 5471SOL    HW221656   1.800   1.455   1.891 -0.3468  0.2167  0.2377
 5471SOL    HW321657   1.873   1.526   1.779  0.9598 -0.4905  0.6213
 5471SOL    MW421658   1.837   1.454   1.812  0.6264  0.4032  0.1538
 5472SOL     OW21659   6.038   2.089   4.582  0.2580 -0.3020 -0.0926
 5472SOL    HW221660   5.985   2.127   4.651 -1.0288 -0.3362 -1.0250
 5472SOL    HW321661   6.128   2.093   4.615 -0.0815  1.5755  0.7167
 5472SOL    MW421662   6.043   2.094   4.595 -0.1004 -0.2479 -0.0421
 5473SOL     OW21663   3.001   4.740   4.964 -0.0969 -0.4095 -0.1144
 5473SOL    HW221664   3.026   4.648   4.974 -0.8390 -0.5871  0.2041
 5473SOL    HW321665   2.906   4.740   4.975 -0.1481  0.3473 -0.5005
 5473SOL    MW421666   2.992   4.728   4.967  0.0961 -0.8121  0.7766
 5474SOL     OW21667   5.400   0.582   1.338  0.1505  0.1162  0.0252
 5474SOL    HW221668   5.477   0.529   1.317 -0.7040 -1.0415 -0.2309
 5474SOL    HW321669   5.394   0.577   1.434  0.3216  0.1165  0.0369
 5474SOL    MW421670   5.410   0.574   1.348 -0.8053 -0.1341  0.1338
 5475SOL     OW21671   0.485   2.552   0.908 -0.3809  0.4021 -0.3706
 5475SOL    HW221672   0.504   2.459   0.923 -2.2320  0.0348 -0.1317
 5475SOL    HW321673   0.439   2.553   0.824 -1.1589  0.9964  0.0564
 5475SOL    MW421674   0.482   2.540   0.899  0.2015  0.4216 -0.3507
 5476SOL     OW21675   2.871   5.526   2.468  0.0238 -0.4998 -0.4636
 5476SOL    HW221676   2.863   5.578   2.388  0.1732 -0.3736 -0.3965
 5476SOL    HW321677   2.962   5.495   2.468  0.6627  1.1936  0.6872
 5476SOL    MW421678   2.882   5.529   2.458  0.0963  0.1923  0.1783
 5477SOL     OW21679   0.680   1.110   6.195  0.0322 -0.5921  0.3853
 5477SOL    HW221680   0.653   1.073   6.111  0.5820  0.6584 -0.3751
 5477SOL    HW321681   0.605   1.164   6.222 -0.0279 -0.7628  0.5667
 5477SOL    MW421682   0.666   1.112   6.188 -0.3933 -0.6750 -0.7168
 5478SOL     OW21683   2.164   6.377   6.255  0.1049 -0.1772 -0.6368
 5478SOL    HW221684   2.173   6.323   6.177  0.7039 -1.8992  0.5536
 5478SOL    HW321685   2.243   6.431   6.255  0.4196 -0.6242 -0.9067
 5478SOL    MW421686   2.176   6.377   6.245  0.4844  0.0022  0.1487
 5479SOL     OW21687   5.522   2.058   2.539 -0.1301 -0.9893  0.6035
 5479SOL    HW221688   5.497   2.026   2.453  1.8322 -3.8264  0.9327
 5479SOL    HW321689   5.440   2.065   2.588 -1.0786 -1.1161 -0.9307
 5479SOL    MW421690   5.508   2.055   2.534 -0.0724  0.0670 -0.7481
 5480SOL     OW21691   6.374   1.062   3.622  0.3917 -0.0265  0.5843
 5480SOL    HW221692   6.342   1.028   3.538  0.6244 -0.3117  0.6098
 5480SOL    HW321693   6.469   1.067   3.611  0.4137  0.0340  0.7973
 5480SOL    MW421694   6.383   1.058   3.609 -0.1544  0.4696  0.0743
 5481SOL     OW21695   3.139   4.761   5.866  0.0196 -0.3923  0.2527
 5481SOL    HW221696   3.045   4.745   5.872 -0.4267  1.8448 -0.0697
 5481SOL    HW321697   3.168   4.775   5.956 -0.4540  1.2540  0.1816
 5481SOL    MW421698   3.131   4.761   5.879 -0.6527  0.2110 -0.5898
 5482SOL     OW21699   3.909   1.705   3.343 -0.3247 -0.1794  0.0829
 5482SOL    HW221700   3.916   1.671   3.253 -1.2035  0.1384 -0.1091
 5482SOL    HW321701   3.894   1.628   3.396  1.3021 -0.5154  0.1206
 5482SOL    MW421702   3.908   1.690   3.338  0.2333  0.2753  0.1560
 5483SOL     OW21703   4.793   0.312   2.557  0.7834 -0.8242 -0.1015
 5483SOL    HW221704   4.779   0.403   2.585  0.6436 -0.5636 -0.9732
 5483SOL    HW321705   4.796   0.262   2.638  2.5747  0.1839  0.5063
 5483SOL    MW421706   4.791   0.317   2.571  0.1813  0.3524 -0.5930
 5484SOL     OW21707   6.349   1.775   6.374 -0.0874 -0.4092  0.2542
 5484SOL    HW221708   6.416   1.750   6.438  0.5950  0.4725 -0.0910
 5484SOL    HW321709   6.325   1.864   6.398  1.9088  0.8647 -2.0706
 5484SOL    MW421710   6.355   1.783   6.385 -0.4210  0.5124 -0.2160
 5485SOL     OW21711   3.862   6.113   5.850 -0.1603 -0.2146 -0.0768
 5485SOL    HW221712   3.831   6.053   5.781  0.8437 -1.4976  0.5479
 5485SOL    HW321713   3.832   6.073   5.932  0.7863 -0.0322  0.3678
 5485SOL    MW421714   3.854   6.100   5.851 -0.0051  0.0361  0.4961
 5486SOL     OW21715   0.987   4.226   5.286  0.0539  0.2097  0.0698
 5486SOL    HW221716   1.042   4.170   5.341  0.4110  0.3361 -0.1612
 5486SOL    HW321717   0.902   4.181   5.285 -0.4398  1.0102  2.0153
 5486SOL    MW421718   0.983   4.213   5.293 -0.0499  0.5514 -0.3288
 5487SOL     OW21719   3.260   5.973   2.563  0.1218  0.0773 -0.1106
 5487SOL    HW221720   3.194   6.024   2.517 -0.1240 -0.7811 -0.7381
 5487SOL    HW321721   3.215   5.940   2.641 -0.5767 -1.4330 -1.0953
 5487SOL    MW421722   3.245   5.975   2.567 -0.5335  0.8871 -0.4124
 5488SOL     OW21723   1.073   1.113   5.671 -0.4153 -0.3733  0.1155
 5488SOL    HW221724   1.115   1.196   5.693 -1.5081  0.2594 -0.1110
 5488SOL    HW321725   1.143   1.060   5.633  0.3352  0.3791  0.4193
 5488SOL    MW421726   1.088   1.117   5.668 -0.8007  0.0867  0.5827
 5489SOL     OW21727   3.354   5.554   3.945 -0.2700 -0.3990 -0.0669
 5489SOL    HW221728   3.348   5.499   3.867 -4.0019 -0.0852 -0.1584
 5489SOL    HW321729   3.329   5.497   4.017 -1.2428  0.3866  0.2459
 5489SOL    MW421730   3.350   5.540   3.944 -0.3803  0.7854 -0.1150
 5490SOL     OW21731   0.286   0.286   4.880 -0.6254 -0.1652  0.2186
 5490SOL    HW221732   0.362   0.240   4.843 -0.4624 -1.3807  1.9398
 5490SOL    HW321733   0.268   0.240   4.962 -1.5136  1.8261  1.2180
 5490SOL    MW421734   0.294   0.274   4.886  0.0195  0.5706 -0.1728
 5491SOL     OW21735   0.818   3.394   3.315 -0.2219  0.0440 -0.1477
 5491SOL    HW221736   0.830   3.387   3.221 -0.7627  1.1147 -0.3110
 5491SOL    HW321737   0.859   3.315   3.351 -0.3846 -0.5753 -1.2976
 5491SOL    MW421738   0.825   3.383   3.307  0.6481  0.0980  0.3096
 5492SOL     OW21739   3.537   5.704   3.613 -0.7135  0.3796  0.2144
 5492SOL    HW221740   3.535   5.756   3.693  0.2005 -1.0532  1.1940
 5492SOL    HW321741   3.597   5.752   3.555 -1.4822  1.4884  0.2943
 5492SOL    MW421742   3.544   5.717   3.616  0.1440  0.1880 -0.3790
 5493SOL     OW21743   4.198   3.348   5.100  0.0237 -0.0712  0.0139
 5493SOL    HW221744   4.135   3.313   5.162  0.5529 -1.4621 -0.2112
 5493SOL    HW321745   4.153   3.345   5.015  0.2576 -0.7002 -0.0870
 5493SOL    MW421746   4.184   3.343   5.097 -0.0313  0.2598  0.0534
 5494SOL     OW21747   1.676   0.820   1.111  0.1867  0.2699 -0.1758
 5494SOL    HW221748   1.636   0.818   1.024  0.4705 -0.1070 -0.2980
 5494SOL    HW321749   1.604   0.843   1.169 -0.0387  0.3731 -0.4907
 5494SOL    MW421750   1.661   0.822   1.107  0.6405  0.1464 -0.2546
 5495SOL     OW21751   3.301   5.315   6.025 -0.6046 -0.3180 -0.0568
 5495SOL    HW221752   3.339   5.228   6.018  0.9131  0.1960  1.1596
 5495SOL    HW321753   3.211   5.300   6.053 -0.0854 -1.4841  1.0921
 5495SOL    MW421754   3.294   5.302   6.027 -0.1937  0.0656  0.3972
 5496SOL     OW21755   3.107   1.523   5.890  0.0787  0.2522  0.5605
 5496SOL    HW221756   3.149   1.514   5.975  0.6279  0.9054  0.3668
 5496SOL    HW321757   3.037   1.587   5.904  0.6166  0.9049  0.3845
 5496SOL    MW421758   3.103   1.531   5.903  0.5873  0.1960 -0.2583
 5497SOL     OW21759   4.224   4.757   1.403 -0.5304  0.0608  0.2955
 5497SOL    HW221760   4.191   4.691   1.342 -0.4585  1.1827 -0.9991
 5497SOL    HW321761   4.305   4.720   1.438 -1.1622 -1.0804  0.6063
 5497SOL    MW421762   4.230   4.743   1.400 -0.0587 -0.0649  0.0428
 5498SOL     OW21763   4.825   5.036   1.922  0.0061 -0.7273 -0.0960
 5498SOL    HW221764   4.754   4.976   1.945 -0.8321  0.0400 -0.6087
 5498SOL    HW321765   4.836   5.023   1.828 -0.5530  0.2833 -0.3177
 5498SOL    MW421766   4.817   5.026   1.913  0.5813  0.6985 -0.0977
 5499SOL     OW21767   2.238   5.018   4.194 -0.1498  0.6642  0.1184
 5499SOL    HW221768   2.314   5.072   4.217 -0.3774  0.2346  2.0985
 5499SOL    HW321769   2.173   5.039   4.262 -1.7218  0.8172 -1.3723
 5499SOL    MW421770   2.240   5.028   4.206  0.5063 -0.0951 -0.1106
 5500SOL     OW21771   3.053   1.704   3.080 -0.5154  0.3741 -0.4941
 5500SOL    HW221772   3.097   1.642   3.022 -4.7441 -2.4289 -1.1885
 5500SOL    HW321773   2.992   1.750   3.022 -1.5708  0.8752  0.9798
 5500SOL    MW421774   3.051   1.702   3.064 -0.4356 -0.1562  0.3640
 5501SOL     OW21775   4.247   5.333   6.313 -0.1997 -0.9068 -0.3585
 5501SOL    HW221776   4.314   5.333   6.381 -0.4576  0.1275 -0.0821
 5501SOL    HW321777   4.174   5.382   6.351 -0.4278 -0.4850 -1.3072
 5501SOL    MW421778   4.246   5.339   6.327  0.6359 -0.1593 -0.0771
 5502SOL     OW21779   4.492   2.292   3.404  0.0955  0.5042  0.0290
 5502SOL    HW221780   4.584   2.297   3.430  0.3438  1.6700 -0.9632
 5502SOL    HW321781   4.492   2.236   3.326  0.0269  0.8180 -0.1988
 5502SOL    MW421782   4.504   2.285   3.397  0.1710  0.7183 -0.7904
 5503SOL     OW21783   4.078   4.282   2.975 -0.0570  0.0536 -0.3161
 5503SOL    HW221784   4.171   4.298   2.990  0.5767 -2.1013 -1.4850
 5503SOL    HW321785   4.068   4.187   2.988 -2.4688  0.4790  1.5061
 5503SOL    MW421786   4.089   4.271   2.979  0.2813  0.3621  0.4453
 5504SOL     OW21787   1.301   1.049   2.842 -0.1077  0.0411  0.1261
 5504SOL    HW221788   1.233   0.983   2.827 -0.1103  0.2913 -1.0426
 5504SOL    HW321789   1.327   1.036   2.933 -1.8330  0.0412  0.6578
 5504SOL    MW421790   1.295   1.038   2.852 -0.5625  0.0263  0.2466
 5505SOL     OW21791   3.894   5.785   5.368 -0.3811 -0.2174 -0.1513
 5505SOL    HW221792   3.952   5.832   5.428 -0.5326 -1.3179  0.8996
 5505SOL    HW321793   3.946   5.775   5.288  0.8198 -0.9521  0.6731
 5505SOL    MW421794   3.909   5.790   5.366  0.1890 -0.4813  0.3687
 5506SOL     OW21795   6.083   2.170   3.543  0.1707 -0.2899 -0.3237
 5506SOL    HW221796   6.021   2.241   3.554 -0.3177 -0.5593 -1.2486
 5506SOL    HW321797   6.150   2.205   3.484  0.5812 -0.2054  0.1798
 5506SOL    MW421798   6.084   2.184   3.537 -0.7664  0.0988 -0.5858
 5507SOL     OW21799   2.139   6.408   0.700  0.1080 -0.0023 -0.2755
 5507SOL    HW221800   2.217   6.359   0.676 -1.2792 -2.6706  0.2617
 5507SOL    HW321801   2.138   6.406   0.796 -0.6673 -0.0630 -0.2814
 5507SOL    MW421802   2.149   6.402   0.710 -0.1748 -0.2943  0.2598
 5508SOL     OW21803   5.418   2.215   2.891 -0.1360  0.1422  0.1443
 5508SOL    HW221804   5.361   2.261   2.952 -0.9396  0.4756 -0.8391
 5508SOL    HW321805   5.360   2.185   2.821  0.1035 -3.4087  1.2560
 5508SOL    MW421806   5.403   2.217   2.890  0.2257 -0.1388  0.0280
 5509SOL     OW21807   1.221   5.678   1.788  0.0176 -0.0205 -0.1718
 5509SOL    HW221808   1.252   5.653   1.701  1.1998  0.1422  0.1940
 5509SOL    HW321809   1.185   5.766   1.777 -0.2880 -0.1931 -0.5860
 5509SOL    MW421810   1.220   5.686   1.775 -0.0826  0.1110 -0.0003
 5510SOL     OW21811   2.565   0.007   5.686  0.3425  0.3013  0.2797
 5510SOL    HW221812   2.579  -0.002   5.592 -2.0031  0.8965 -0.2026
 5510SOL    HW321813   2.537   0.098   5.697  1.2069  0.4280  1.6635
 5510SOL    MW421814   2.563   0.018   5.675 -0.1016  0.0733  0.7096
 5511SOL     OW21815   3.873   1.588   0.947  1.2389 -0.1226 -0.3051
 5511SOL    HW221816   3.791   1.623   0.913  0.8591 -0.7846 -0.0997
 5511SOL    HW321817   3.854   1.496   0.965  1.6353  0.0167  0.9784
 5511SOL    MW421818   3.860   1.580   0.945  0.0990  0.2983  0.2046
 5512SOL     OW21819   2.250   3.380   2.470 -0.0161 -0.0312 -0.0308
 5512SOL    HW221820   2.194   3.304   2.485  0.4831 -0.2595  0.7203
 5512SOL    HW321821   2.318   3.348   2.410 -0.5198  0.1667 -0.7108
 5512SOL    MW421822   2.252   3.365   2.464 -0.1177 -0.5321  0.4570
 5513SOL     OW21823   2.319   6.036   3.730 -0.1093 -0.5083 -0.3969
 5513SOL    HW221824   2.242   5.980   3.736  0.8666 -1.8290  0.4678
 5513SOL    HW321825   2.288   6.123   3.754 -1.7162 -0.5803 -1.9951
 5513SOL    MW421826   2.305   6.040   3.734 -0.1384 -0.2906 -0.4203
 5514SOL     OW21827   5.011   1.274   5.572  0.2765 -0.2282  0.3442
 5514SOL    HW221828   4.944   1.338   5.550 -0.5789 -0.0587  3.0177
 5514SOL    HW321829   5.075   1.279   5.501 -2.1896  0.0439 -2.0050
 5514SOL    MW421830   5.010   1.283   5.560  0.1831  0.3561  0.2285
 5515SOL     OW21831   1.621   3.284   2.294 -0.0842 -0.2248  0.1831
 5515SOL    HW221832   1.530   3.290   2.266  0.1934 -1.2797 -1.0567
 5515SOL    HW321833   1.665   3.238   2.222  1.5056  0.6197  0.5758
 5515SOL    MW421834   1.615   3.279   2.281 -0.3333 -0.1409 -0.1417
 5516SOL     OW21835   0.100   2.152   3.745 -0.2251 -0.5116 -0.0003
 5516SOL    HW221836   0.071   2.086   3.682 -1.2994 -0.1248  0.0698
 5516SOL    HW321837   0.077   2.235   3.705  1.1804 -0.1552 -0.1160
 5516SOL    MW421838   0.093   2.154   3.731  0.0204  0.0464 -0.1106
 5517SOL     OW21839   3.278   1.760   4.306 -0.2654 -0.2135 -0.1874
 5517SOL    HW221840   3.281   1.707   4.226 -0.0345 -0.8556  0.2461
 5517SOL    HW321841   3.286   1.850   4.274 -0.8791 -0.4125 -0.9433
 5517SOL    MW421842   3.280   1.765   4.291 -0.5212  0.2374  0.0441
 5518SOL     OW21843   2.548   2.244   5.313  0.1877  0.4318  0.0922
 5518SOL    HW221844   2.497   2.178   5.267  0.7298  0.1242 -0.0720
 5518SOL    HW321845   2.483   2.310   5.340 -0.1308  0.6679 -1.1840
 5518SOL    MW421846   2.533   2.244   5.311  0.1788  0.5050 -0.4035
 5519SOL     OW21847   3.671   1.723   4.134  0.3457  0.3196  0.0045
 5519SOL    HW221848   3.705   1.812   4.123  2.4846 -0.3838  0.4159
 5519SOL    HW321849   3.634   1.723   4.222 -0.7482  1.1035 -0.4344
 5519SOL    MW421850   3.671   1.735   4.144  0.4668  0.7186 -0.3419
 5520SOL     OW21851   2.686   0.183   6.335 -0.1444 -0.2684  0.3148
 5520SOL    HW221852   2.667   0.105   6.283  0.3236 -0.3104  0.2012
 5520SOL    HW321853   2.782   0.185   6.341  0.1441  2.2349 -2.6669
 5520SOL    MW421854   2.696   0.173   6.329  0.4038  0.3624 -0.5629
 5521SOL     OW21855   3.521   1.674   4.387  0.4542  0.5883  0.0015
 5521SOL    HW221856   3.524   1.706   4.477  0.3739  0.2274  0.1316
 5521SOL    HW321857   3.435   1.701   4.355  1.2500  2.5633 -0.6535
 5521SOL    MW421858   3.510   1.682   4.395 -0.2176  0.6534  0.3612
 5522SOL     OW21859   3.657   4.065   0.585 -0.4377 -0.8962  0.4823
 5522SOL    HW221860   3.599   4.040   0.512 -0.4750 -0.8966  0.5117
 5522SOL    HW321861   3.621   4.018   0.660 -0.1000 -1.2937  0.4002
 5522SOL    MW421862   3.644   4.055   0.585 -0.3554  0.6381 -0.6682
 5523SOL     OW21863   2.841   0.259   5.163 -0.2914  0.0543 -0.2602
 5523SOL    HW221864   2.881   0.322   5.103 -2.1731  0.8268 -0.7977
 5523SOL    HW321865   2.908   0.241   5.228  1.1865  0.5913 -1.5865
 5523SOL    MW421866   2.855   0.265   5.163 -0.2588 -0.6612  0.0677
 5524SOL     OW21867   1.699   6.071   5.621 -0.5334 -0.3570  0.3368
 5524SOL    HW221868   1.716   5.987   5.664  1.3908 -0.3950 -0.3605
 5524SOL    HW321869   1.625   6.055   5.563 -0.9856 -1.2220  1.1445
 5524SOL    MW421870   1.692   6.058   5.619  0.3488 -0.3004  0.5603
 5525SOL     OW21871   5.639   0.829   5.145  0.3350  0.3401  0.2171
 5525SOL    HW221872   5.555   0.785   5.136  0.6792 -0.4832  0.9460
 5525SOL    HW321873   5.660   0.860   5.057  0.0071 -0.8060 -0.2781
 5525SOL    MW421874   5.631   0.828   5.132  0.0812  0.1675  0.5878
 5526SOL     OW21875   6.359   1.390   1.312 -0.0090 -0.0485  0.3154
 5526SOL    HW221876   6.371   1.337   1.234 -1.5439 -1.2963  0.8607
 5526SOL    HW321877   6.373   1.330   1.385  2.0038  1.2272  1.0816
 5526SOL    MW421878   6.362   1.375   1.312 -0.4381  0.3768  0.2258
 5527SOL     OW21879   3.065   3.213   6.188  0.2510  0.3749 -0.2492
 5527SOL    HW221880   3.063   3.118   6.193 -2.9339  0.3590  0.0925
 5527SOL    HW321881   3.070   3.241   6.280  0.7297  0.5567 -0.3275
 5527SOL    MW421882   3.065   3.204   6.201 -0.0735 -0.3427  0.1662
 5528SOL     OW21883   2.831   0.304   1.545 -0.0107 -0.4719 -0.0859
 5528SOL    HW221884   2.848   0.350   1.628  1.6756 -0.5598 -0.3403
 5528SOL    HW321885   2.742   0.329   1.522 -0.0459  0.6139  1.0888
 5528SOL    MW421886   2.822   0.313   1.553  0.0338 -0.1161  0.0252
 5529SOL     OW21887   0.524   0.179   4.785  0.2895 -0.3972  0.3330
 5529SOL    HW221888   0.587   0.146   4.849 -0.3735  0.1214  1.2780
 5529SOL    HW321889   0.555   0.267   4.763  1.0683 -0.9443 -0.8342
 5529SOL    MW421890   0.536   0.186   4.790 -0.0661 -0.2543  0.2462
 5530SOL     OW21891   4.589   2.981   4.087  0.1803 -0.0019  0.1103
 5530SOL    HW221892   4.586   3.050   4.153 -1.9169  0.2242 -0.1378
 5530SOL    HW321893   4.507   2.932   4.100  0.9367 -1.5398 -0.6664
 5530SOL    MW421894   4.578   2.983   4.098 -0.3659  0.3255  0.4850
 5531SOL     OW21895   6.157   4.921   0.627 -0.2179 -0.7274  0.5731
 5531SOL    HW221896   6.128   4.859   0.560  0.0965  0.6714 -0.9236
 5531SOL    HW321897   6.244   4.950   0.598  1.5282 -2.6269  3.4297
 5531SOL    MW421898   6.164   4.917   0.614 -0.5144 -0.0753 -0.1001
 5532SOL     OW21899   4.150   0.644   5.235 -0.2528  0.1162 -0.4171
 5532SOL    HW221900   4.076   0.667   5.292  0.2070 -0.0613  0.2685
 5532SOL    HW321901   4.197   0.726   5.224  1.6607 -0.4595  2.4280
 5532SOL    MW421902   4.146   0.658   5.241  0.0906  0.0099 -0.2021
 5533SOL     OW21903   1.096   6.254   3.724  0.5597 -0.0107  0.5393
 5533SOL    HW221904   1.165   6.203   3.765  1.6247  0.6635 -0.3332
 5533SOL    HW321905   1.027   6.259   3.790  1.0682 -1.2363  1.2014
 5533SOL    MW421906   1.096   6.248   3.738 -0.4445 -0.8655  0.5091
 5534SOL     OW21907   3.139   4.442   4.257  1.2135  0.4526 -0.0095
 5534SOL    HW221908   3.142   4.532   4.291  1.4062  0.2051  0.6383
 5534SOL    HW321909   3.051   4.412   4.277  1.1167  0.5258 -0.3152
 5534SOL    MW421910   3.128   4.450   4.264 -0.4735  0.7686  0.8087
 5535SOL     OW21911   4.524   0.834   5.690 -0.0618 -0.1970  0.0493
 5535SOL    HW221912   4.496   0.773   5.622 -1.7191 -1.5469  1.8377
 5535SOL    HW321913   4.446   0.888   5.707  0.7821  1.1308 -0.1117
 5535SOL    MW421914   4.510   0.833   5.683  0.7275 -0.2558 -0.4330
 5536SOL     OW21915   1.207   1.080   6.368  0.2863 -0.8110  0.1859
 5536SOL    HW221916   1.225   0.987   6.353 -0.1462 -0.8865  0.1227
 5536SOL    HW321917   1.293   1.122   6.364  0.3820 -1.0822 -0.7035
 5536SOL    MW421918   1.221   1.073   6.366  0.0137 -0.0258 -0.1747
 5537SOL     OW21919   4.758   2.026   1.773 -0.6729  0.0337  0.1465
 5537SOL    HW221920   4.777   2.099   1.832  1.4753  0.6454 -1.1771
 5537SOL    HW321921   4.665   2.007   1.786 -0.3947  0.3983  3.3855
 5537SOL    MW421922   4.749   2.033   1.783 -0.1901  0.1014  0.4438
 5538SOL     OW21923   2.696   4.141   0.339  0.2968 -0.0205 -0.6700
 5538SOL    HW221924   2.742   4.098   0.412 -0.5787 -0.4826 -0.3711
 5538SOL    HW321925   2.750   4.122   0.262 -1.1553 -3.6901 -0.9735
 5538SOL    MW421926   2.709   4.133   0.339  0.1551  0.9434 -0.2102
 5539SOL     OW21927   0.157   5.275   1.575 -0.0609 -0.2815 -0.0664
 5539SOL    HW221928   0.232   5.227   1.540 -0.2232 -0.8069  0.2866
 5539SOL    HW321929   0.194   5.350   1.620  0.2255 -0.3039 -0.2656
 5539SOL    MW421930   0.172   5.278   1.576  0.4148 -1.0165 -0.0024
 5540SOL     OW21931   3.902   0.154   0.271  0.7045 -0.0670 -0.0317
 5540SOL    HW221932   3.972   0.183   0.212  2.1045 -0.5421  1.2997
 5540SOL    HW321933   3.938   0.169   0.359 -0.8341 -0.4617  0.6984
 5540SOL    MW421934   3.916   0.160   0.275 -0.5971  0.0204  0.5922
 5541SOL     OW21935   0.848   2.954   2.170  0.3910 -0.0450  0.3355
 5541SOL    HW221936   0.857   3.003   2.088 -0.8358  0.4041  0.4555
 5541SOL    HW321937   0.927   2.900   2.174  0.7874  0.4201 -0.8086
 5541SOL    MW421938   0.860   2.953   2.160 -0.7226  0.1168  0.2787
 5542SOL     OW21939   0.790   3.233   5.308 -0.8179 -0.5792 -0.4757
 5542SOL    HW221940   0.828   3.302   5.361  0.3087 -1.6032  0.0981
 5542SOL    HW321941   0.769   3.275   5.224  1.7429  0.0375 -0.8843
 5542SOL    MW421942   0.792   3.248   5.304 -0.3311  0.3444  0.4302
 5543SOL     OW21943   5.837   0.544   1.942  0.1831 -0.0494  0.1280
 5543SOL    HW221944   5.799   0.456   1.938 -1.4175  0.4543  2.2829
 5543SOL    HW321945   5.808   0.587   1.862 -2.1916 -0.3453  0.7724
 5543SOL    MW421946   5.828   0.538   1.931 -0.3521 -0.1099 -0.5786
 5544SOL     OW21947   5.237   3.519   6.301 -0.3253  0.0167 -0.4113
 5544SOL    HW221948   5.305   3.556   6.245  0.1334 -1.0610 -0.6001
 5544SOL    HW321949   5.264   3.428   6.314 -0.2628  0.3081  1.8257
 5544SOL    MW421950   5.249   3.512   6.295  0.0704  0.6871 -0.0613
 5545SOL     OW21951   0.216   4.148   4.149  0.2866  0.1449  0.7814
 5545SOL    HW221952   0.234   4.113   4.237  0.7891 -0.0959  0.5851
 5545SOL    HW321953   0.297   4.135   4.101 -0.5061 -1.2465 -0.2335
 5545SOL    MW421954   0.229   4.142   4.154 -0.2129  0.0667 -0.0660
 5546SOL     OW21955   4.253   0.501   4.431 -0.4399 -0.0757  0.1127
 5546SOL    HW221956   4.295   0.447   4.498 -0.8432 -3.9526 -2.3986
 5546SOL    HW321957   4.165   0.516   4.464 -0.8262 -2.4024  0.3282
 5546SOL    MW421958   4.247   0.496   4.444 -0.0374 -0.3499  0.5199
 5547SOL     OW21959   5.977   1.768   5.978 -0.5986  0.3981  0.2665
 5547SOL    HW221960   6.005   1.724   5.898  1.0704  1.2109  0.3514
 5547SOL    HW321961   6.058   1.799   6.018 -0.9727 -2.5906  3.9173
 5547SOL    MW421962   5.991   1.766   5.973 -0.2209  0.1039  0.3732
 5548SOL     OW21963   4.043   5.600   4.748 -0.1250 -0.5074 -0.0023
 5548SOL    HW221964   4.094   5.642   4.678 -0.6865  0.2959  0.0456
 5548SOL    HW321965   3.985   5.540   4.702 -1.0701  0.6127 -0.3390
 5548SOL    MW421966   4.042   5.598   4.732  0.5178  0.2978 -0.0005
 5549SOL     OW21967   4.773   5.836   1.429 -0.0689  0.7224  0.0021
 5549SOL    HW221968   4.774   5.785   1.510  3.1802  1.5096  0.6105
 5549SOL    HW321969   4.856   5.885   1.430 -1.6196  3.7595 -1.9520
 5549SOL    MW421970   4.784   5.836   1.440 -0.2681  0.2231  0.1485
 5550SOL     OW21971   2.953   2.111   1.684  0.3942  0.1987  0.9856
 5550SOL    HW221972   3.006   2.185   1.655  0.3849  0.3530  1.3595
 5550SOL    HW321973   2.897   2.091   1.609  2.3628 -1.2816 -0.1916
 5550SOL    MW421974   2.952   2.118   1.670  0.0467 -0.2124 -0.2003
 5551SOL     OW21975   2.948   2.678   6.050 -0.4567 -0.5201  0.6987
 5551SOL    HW221976   3.008   2.642   6.115  0.0847  0.8424  0.9825
 5551SOL    HW321977   2.865   2.686   6.097  0.5086  2.8055  2.1241
 5551SOL    MW421978   2.945   2.674   6.065 -0.3939 -0.2264 -0.3441
 5552SOL     OW21979   2.934   6.032   4.538 -0.4840  0.0952 -0.3578
 5552SOL    HW221980   2.933   6.104   4.601  0.9593 -0.6098  0.5243
 5552SOL    HW321981   2.861   5.976   4.566  0.7174 -0.7082  1.3417
 5552SOL    MW421982   2.924   6.034   4.550 -0.4793  0.0844  0.2201
 5553SOL     OW21983   4.936   3.771   3.545  0.0802  0.1807  0.3840
 5553SOL    HW221984   4.961   3.861   3.523  0.6408 -0.1418 -0.3706
 5553SOL    HW321985   4.967   3.758   3.634 -0.2954  0.8446  0.6135
 5553SOL    MW421986   4.944   3.781   3.554 -0.5824 -0.1719 -0.1266
 5554SOL     OW21987   3.362   5.407   2.033 -0.9110  0.4382 -0.0550
 5554SOL    HW221988   3.397   5.347   2.099 -0.1101 -0.7509 -1.4906
 5554SOL    HW321989   3.376   5.494   2.070  2.4888 -0.0085  0.0250
 5554SOL    MW421990   3.369   5.410   2.047 -0.3798 -0.3481 -0.1180
 5555SOL     OW21991   1.157   0.795   6.044 -0.2040 -0.2266 -0.0419
 5555SOL    HW221992   1.069   0.789   6.007  0.0797  1.0353 -1.0000
 5555SOL    HW321993   1.179   0.888   6.039 -0.7565  0.4021  4.8980
 5555SOL    MW421994   1.148   0.806   6.038 -0.1868  0.1958  0.3984
 5556SOL     OW21995   3.024   2.255   0.893  0.6050 -0.2491  0.0754
 5556SOL    HW221996   3.055   2.260   0.803  2.8718  1.1267  0.8544
 5556SOL    HW321997   2.943   2.306   0.894  1.3098  0.9355 -0.9289
 5556SOL    MW421998   3.017   2.262   0.882  0.1218 -0.1067 -0.1589
 5557SOL     OW21999   1.741   4.522   1.251  0.7275  0.0638 -0.5165
 5557SOL    HW222000   1.813   4.460   1.248  0.1013 -0.8549  1.7600
 5557SOL    HW322001   1.664   4.471   1.224  0.1306 -0.3628  1.8008
 5557SOL    MW422002   1.740   4.507   1.247  0.2518  0.2310 -0.3276
 5558SOL     OW22003   0.593   1.001   3.758  0.0522 -0.0995 -0.0879
 5558SOL    HW222004   0.676   0.987   3.805  0.4243  2.0993 -0.0128
 5558SOL    HW322005   0.600   0.944   3.682  0.9634 -1.0821  0.6904
 5558SOL    MW422006   0.605   0.991   3.754  0.0375 -0.0416  0.1894
 5559SOL     OW22007   4.081   3.205   1.346 -0.2155  0.1951  0.2309
 5559SOL    HW222008   4.104   3.294   1.372 -0.5576 -0.0083  1.2549
 5559SOL    HW322009   4.032   3.216   1.264  0.4241  0.8817 -0.0684
 5559SOL    MW422010   4.077   3.218   1.338  0.7819  0.1469 -0.2904
 5560SOL     OW22011   2.795   5.102   4.847 -0.7646  0.5277 -0.1214
 5560SOL    HW222012   2.770   5.170   4.909 -1.1799  1.1529 -0.9525
 5560SOL    HW322013   2.719   5.044   4.842 -0.3138 -0.1756  0.7870
 5560SOL    MW422014   2.782   5.103   4.855 -0.2155  0.2646 -0.4055
 5561SOL     OW22015   3.764   2.729   6.174  0.0830  0.0442  0.7065
 5561SOL    HW222016   3.823   2.683   6.114  0.5189  1.9194 -0.3713
 5561SOL    HW322017   3.677   2.710   6.140  0.2087 -0.6002  0.7334
 5561SOL    MW422018   3.760   2.720   6.162  0.2400  0.4605  0.8113
 5562SOL     OW22019   3.428   5.369   1.779 -0.1612  0.2620 -0.6872
 5562SOL    HW222020   3.439   5.460   1.754 -0.1450 -0.1939 -2.4501
 5562SOL    HW322021   3.406   5.372   1.873 -1.2551  2.1313 -0.9576
 5562SOL    MW422022   3.426   5.381   1.788 -0.1478  0.2761 -0.2357
 5563SOL     OW22023   2.487   5.181   0.414  0.1467  0.1043  0.2300
 5563SOL    HW222024   2.445   5.156   0.496 -2.0757 -0.8796 -1.1317
 5563SOL    HW322025   2.580   5.160   0.428 -0.2333 -0.4624  2.2848
 5563SOL    MW422026   2.494   5.175   0.427  0.6581  0.7782 -0.4354
 5564SOL     OW22027   1.659   5.103   0.309 -0.5931  0.6272 -0.0541
 5564SOL    HW222028   1.633   5.040   0.376 -1.8670  0.8854 -0.2751
 5564SOL    HW322029   1.738   5.066   0.270 -1.5864 -1.1135 -0.5315
 5564SOL    MW422030   1.666   5.090   0.312 -0.0200  0.3369 -0.0611
 5565SOL     OW22031   1.926   1.216   0.899 -0.6168  0.1305 -0.0265
 5565SOL    HW222032   1.879   1.185   0.821 -0.8933  0.7087 -0.0927
 5565SOL    HW322033   1.898   1.158   0.969  0.2305 -0.8998 -0.5092
 5565SOL    MW422034   1.916   1.204   0.898  0.5520  0.0912 -0.0187
 5566SOL     OW22035   5.205   2.402   4.270  0.2801 -0.8814  0.0489
 5566SOL    HW222036   5.294   2.415   4.238  0.6928 -2.2885  0.5711
 5566SOL    HW322037   5.202   2.452   4.351  0.1792  0.2113 -0.6107
 5566SOL    MW422038   5.216   2.410   4.277  0.2071  0.4483 -0.1450
 5567SOL     OW22039   2.964   0.420   4.991  0.0167 -0.2008  0.2916
 5567SOL    HW222040   2.926   0.456   4.911 -0.0053 -1.3025 -0.2130
 5567SOL    HW322041   3.031   0.484   5.016 -2.1821  1.8693  1.2879
 5567SOL    MW422042   2.968   0.433   4.983 -0.2837 -0.4216 -0.1877
 5568SOL     OW22043   3.125   0.230   1.504 -0.3805 -0.1085 -0.3332
 5568SOL    HW222044   3.160   0.152   1.546  0.4553  1.0132  1.1382
 5568SOL    HW322045   3.038   0.203   1.473 -0.5469 -1.3459  1.0765
 5568SOL    MW422046   3.118   0.216   1.506  0.9903 -0.0247  0.3049
 5569SOL     OW22047   1.072   0.852   3.701 -0.0196  0.1384  0.0013
 5569SOL    HW222048   1.125   0.856   3.621 -1.5972  2.7886 -1.0324
 5569SOL    HW322049   1.053   0.943   3.722  0.8264 -0.3979  3.8287
 5569SOL    MW422050   1.077   0.864   3.693 -0.1775 -0.0724  0.2693
 5570SOL     OW22051   5.793   1.726   3.204 -0.1868 -0.0145  0.2767
 5570SOL    HW222052   5.877   1.691   3.234  0.5302 -1.5551 -3.1060
 5570SOL    HW322053   5.813   1.815   3.176  0.7804 -0.8865 -1.9925
 5570SOL    MW422054   5.807   1.733   3.204  0.0881  0.3764 -0.3489
 5571SOL     OW22055   2.518   1.085   3.601  0.3423  0.2711  0.1925
 5571SOL    HW222056   2.547   1.010   3.548  1.5399  0.7929  0.0769
 5571SOL    HW322057   2.458   1.047   3.665  1.4693 -0.9102  0.5959
 5571SOL    MW422058   2.514   1.070   3.602  0.0541  0.3541  0.1877
 5572SOL     OW22059   4.625   1.445   1.252  0.4849  0.1438 -0.4211
 5572SOL    HW222060   4.721   1.448   1.245  0.6529 -0.4986  1.1815
 5572SOL    HW322061   4.598   1.386   1.181  1.4413 -0.9795  0.1019
 5572SOL    MW422062   4.634   1.438   1.242  0.5581 -0.5917  0.3253
 5573SOL     OW22063   0.724   0.436   2.327  0.2716  0.0164  0.5408
 5573SOL    HW222064   0.712   0.473   2.239 -1.5801  0.5336  0.9588
 5573SOL    HW322065   0.661   0.364   2.331 -0.6937  0.8835  1.8785
 5573SOL    MW422066   0.714   0.432   2.316  0.0263 -1.0689 -0.3085
 5574SOL     OW22067   1.887   1.052   4.837  0.7779  0.1666 -1.0323
 5574SOL    HW222068   1.972   1.008   4.830  0.4527 -0.5125 -0.8074
 5574SOL    HW322069   1.831   1.005   4.776  0.8432  1.3408 -2.0448
 5574SOL    MW422070   1.891   1.040   4.828  0.7744 -0.6427 -0.1938
 5575SOL     OW22071   4.703   6.349   4.833 -0.1744 -0.1195 -0.2662
 5575SOL    HW222072   4.777   6.355   4.772 -0.2873 -1.1171 -0.5101
 5575SOL    HW322073   4.692   6.256   4.849 -0.3152  0.1036  1.0989
 5575SOL    MW422074   4.711   6.338   4.827  0.0004 -0.0730 -0.2761
 5576SOL     OW22075   5.441   3.687   4.018 -0.4372 -0.0421  0.2787
 5576SOL    HW222076   5.420   3.756   3.956 -0.7562 -0.8366 -0.5244
 5576SOL    HW322077   5.491   3.623   3.966  0.4439 -0.1000  1.1668
 5576SOL    MW422078   5.445   3.687   4.003  0.1437  0.1139 -0.0256
 5577SOL     OW22079   2.216   2.259   5.344 -0.1409 -0.1679  0.0895
 5577SOL    HW222080   2.277   2.194   5.309  1.4950  1.1098  0.4158
 5577SOL    HW322081   2.271   2.336   5.361 -1.7408  0.8147  1.0509
 5577SOL    MW422082   2.231   2.261   5.342 -0.8545 -0.2412 -0.3359
 5578SOL     OW22083   6.374   2.054   0.836  0.2122 -0.1143 -0.3744
 5578SOL    HW222084   6.293   2.086   0.798  0.3348  0.6377 -0.0346
 5578SOL    HW322085   6.368   2.078   0.929  0.2707 -1.1792 -0.0806
 5578SOL    MW422086   6.363   2.061   0.843 -0.0708 -0.3864  0.1694
 5579SOL     OW22087   3.888   5.054   4.047  0.2845  0.2225 -0.0885
 5579SOL    HW222088   3.816   5.103   4.086 -1.3070 -1.3553 -0.8909
 5579SOL    HW322089   3.937   5.020   4.122 -1.5409 -1.0781  0.6040
 5579SOL    MW422090   3.885   5.056   4.062  0.0698 -0.6305 -0.1532
 5580SOL     OW22091   1.451   3.749   4.786  0.0143  0.1096 -0.0312
 5580SOL    HW222092   1.413   3.712   4.706  0.0670  2.0708 -1.0128
 5580SOL    HW322093   1.438   3.843   4.777  0.3449  0.4013  2.1268
 5580SOL    MW422094   1.444   3.756   4.774 -0.0014 -0.3304  0.6111
 5581SOL     OW22095   3.551   2.421   2.635 -0.1175 -0.0508 -0.9090
 5581SOL    HW222096   3.604   2.400   2.711 -0.1245 -0.7812 -1.0891
 5581SOL    HW322097   3.561   2.515   2.623 -1.3904  0.3758  0.9435
 5581SOL    MW422098   3.559   2.430   2.643  0.2687  0.3153 -0.0833
 5582SOL     OW22099   0.927   1.463   4.933 -0.3992 -0.1907  0.0512
 5582SOL    HW222100   0.906   1.555   4.951 -2.1875 -0.5085 -0.2605
 5582SOL    HW322101   0.861   1.435   4.870 -0.1110 -1.8086  0.4177
 5582SOL    MW422102   0.916   1.472   4.927 -0.4417 -0.4908 -0.0073
 5583SOL     OW22103   3.580   0.972   5.862  0.1826  0.1371  0.0541
 5583SOL    HW222104   3.500   0.957   5.913  0.4009  0.9040  0.6367
 5583SOL    HW322105   3.551   1.017   5.783 -0.0100  0.0691  0.0870
 5583SOL    MW422106   3.566   0.976   5.859  0.7482  0.0632 -0.2052
 5584SOL     OW22107   3.480   2.640   1.509  0.1489  0.2343  0.2419
 5584SOL    HW222108   3.443   2.631   1.421 -3.5602  0.2490  1.6300
 5584SOL    HW322109   3.469   2.732   1.531  1.8099  0.4019  0.4505
 5584SOL    MW422110   3.473   2.651   1.500  0.2221  0.4595 -0.1131
 5585SOL     OW22111   0.317   3.852   3.938 -0.8888 -0.9977  0.4183
 5585SOL    HW222112   0.320   3.758   3.959 -0.3339 -1.0172  0.2598
 5585SOL    HW322113   0.230   3.864   3.900 -0.7531 -1.5677 -0.0908
 5585SOL    MW422114   0.306   3.841   3.936 -0.2119 -0.2233 -0.8772
 5586SOL     OW22115   4.695   5.355   2.341 -0.4635  0.5178 -0.6659
 5586SOL    HW222116   4.712   5.449   2.339  0.7523  0.5648  3.1956
 5586SOL    HW322117   4.782   5.316   2.352 -0.9262 -1.1156 -2.3685
 5586SOL    MW422118   4.709   5.362   2.342  0.5435 -0.0488 -0.1124
 5587SOL     OW22119   5.676   4.494   1.345  0.4634  0.6098 -0.1681
 5587SOL    HW222120   5.669   4.411   1.298  0.9494 -0.7093  1.9063
 5587SOL    HW322121   5.749   4.540   1.304  0.5063 -0.2244 -1.0380
 5587SOL    MW422122   5.685   4.489   1.334  0.1267  0.0759 -0.1824
 5588SOL     OW22123   0.029   4.470   3.530 -0.2975 -0.2764 -0.2195
 5588SOL    HW222124  -0.024   4.442   3.605 -0.9275  0.5265 -0.3446
 5588SOL    HW322125   0.005   4.409   3.460 -0.5985 -0.3005 -0.0977
 5588SOL    MW422126   0.019   4.459   3.530  0.0220  0.7952 -0.1862
 5589SOL     OW22127   3.908   0.671   2.787  0.0584 -0.1286 -0.0127
 5589SOL    HW222128   3.894   0.723   2.865 -0.1588 -0.6437  0.2932
 5589SOL    HW322129   3.979   0.717   2.741 -0.6022  0.8266 -0.1095
 5589SOL    MW422130   3.916   0.684   2.791 -0.7237  0.0778 -0.8977
 5590SOL     OW22131   0.116   3.458   4.175 -0.2418 -0.3606 -0.6317
 5590SOL    HW222132   0.044   3.519   4.159 -0.8130 -1.1483 -1.1417
 5590SOL    HW322133   0.107   3.392   4.106  0.0746 -1.2828  0.1862
 5590SOL    MW422134   0.105   3.457   4.164 -0.1014  0.3816  0.0479
 5591SOL     OW22135   4.901   3.436   5.375 -0.7196  0.6214  0.2394
 5591SOL    HW222136   4.866   3.470   5.293 -0.0200  0.9059  0.0510
 5591SOL    HW322137   4.933   3.513   5.422 -0.8049  0.4248  0.6280
 5591SOL    MW422138   4.901   3.450   5.370 -0.7090 -0.2665  0.0105
 5592SOL     OW22139   6.398   2.073   5.802 -0.2652 -0.1284  0.6165
 5592SOL    HW222140   6.313   2.087   5.759  1.3601 -0.4486 -3.1104
 5592SOL    HW322141   6.411   1.978   5.798 -0.5537 -0.3292  3.1119
 5592SOL    MW422142   6.388   2.062   5.796  0.1026  0.2678  0.4812
 5593SOL     OW22143   2.160   1.334   5.121  0.0097 -0.0908  0.1029
 5593SOL    HW222144   2.211   1.389   5.180  0.0472  1.2500 -1.1148
 5593SOL    HW322145   2.225   1.295   5.063 -0.1339 -0.4685  0.1936
 5593SOL    MW422146   2.175   1.336   5.121 -0.1327  0.3964  0.0751
 5594SOL     OW22147   5.291   3.514   5.192 -0.3635  0.3453 -0.0482
 5594SOL    HW222148   5.363   3.529   5.253 -1.8100  0.5672  1.7004
 5594SOL    HW322149   5.312   3.567   5.116  1.9464 -0.6319 -0.1528
 5594SOL    MW422150   5.303   3.523   5.190  0.2229  0.0756  0.3220
 5595SOL     OW22151   1.383   0.045   0.664 -0.0273  0.1418 -0.4843
 5595SOL    HW222152   1.412  -0.046   0.659 -0.1550  0.1408 -1.2288
 5595SOL    HW322153   1.446   0.093   0.612 -0.0951  0.4510 -0.2826
 5595SOL    MW422154   1.395   0.039   0.657  0.8995 -0.4763 -0.1845
 5596SOL     OW22155   5.251   1.536   2.516 -0.0601  0.1189  0.1291
 5596SOL    HW222156   5.344   1.543   2.534 -0.1594  0.0215  0.6793
 5596SOL    HW322157   5.218   1.474   2.580 -0.8790  1.7306  1.3390
 5596SOL    MW422158   5.259   1.529   2.527  0.4001 -0.1162 -0.4306
 5597SOL     OW22159   0.833   4.195   4.561 -0.1432  0.1366  0.3942
 5597SOL    HW222160   0.800   4.200   4.650 -1.3642 -0.1437 -0.0285
 5597SOL    HW322161   0.814   4.105   4.533 -1.2305  0.6840 -0.6951
 5597SOL    MW422162   0.826   4.184   4.569 -0.6883 -0.1399  0.5377
 5598SOL     OW22163   6.408   0.741   3.726 -0.2612 -0.0742  0.0378
 5598SOL    HW222164   6.351   0.814   3.702 -1.3904 -0.8784  0.1801
 5598SOL    HW322165   6.369   0.706   3.806  0.0061 -1.0992 -0.2674
 5598SOL    MW422166   6.395   0.746   3.733  0.6891 -0.5442  0.2385
 5599SOL     OW22167   2.202   2.376   2.195 -0.4084 -0.0587  0.4557
 5599SOL    HW222168   2.143   2.414   2.261 -1.9081  0.5161 -1.1198
 5599SOL    HW322169   2.169   2.287   2.182 -0.0917 -0.1863  0.5368
 5599SOL    MW422170   2.190   2.369   2.202  0.0900 -0.2611  0.1106
 5600SOL     OW22171   4.258   4.515   3.865 -0.2934 -0.4154 -0.0020
 5600SOL    HW222172   4.286   4.599   3.829 -0.6124 -0.6044 -0.7099
 5600SOL    HW322173   4.264   4.454   3.791  0.1265 -1.0637  0.5537
 5600SOL    MW422174   4.262   4.518   3.850  0.1452  0.4115 -0.5995
 5601SOL     OW22175   5.205   3.293   4.862 -0.7040  0.4995 -0.5806
 5601SOL    HW222176   5.171   3.225   4.919  0.9099 -0.2408 -0.4510
 5601SOL    HW322177   5.299   3.279   4.861 -0.4755  1.8628 -1.6871
 5601SOL    MW422178   5.213   3.282   4.869 -0.1938  0.1031  0.4403
 5602SOL     OW22179   5.382   1.082   2.729  0.2300  0.0914 -0.2432
 5602SOL    HW222180   5.420   1.129   2.803  1.5738  0.2388 -0.9827
 5602SOL    HW322181   5.397   0.989   2.749 -0.3493  0.0825  0.1505
 5602SOL    MW422182   5.389   1.076   2.741  0.6505  0.0382 -0.5283
 5603SOL     OW22183   2.029   0.264   3.360 -0.4215  0.4132  0.1623
 5603SOL    HW222184   2.005   0.184   3.406  0.1151 -0.1153 -0.4461
 5603SOL    HW322185   1.970   0.331   3.394 -0.6488 -0.1673  0.9261
 5603SOL    MW422186   2.018   0.263   3.370 -0.5482  0.6916 -0.0035
 5604SOL     OW22187   4.562   0.898   1.607 -0.8498 -0.0307  0.4480
 5604SOL    HW222188   4.631   0.946   1.652  0.0519 -2.0777  1.3558
 5604SOL    HW322189   4.508   0.966   1.567  0.1694  1.7405  1.9297
 5604SOL    MW422190   4.564   0.913   1.608 -0.6139  0.0722 -0.6194
 5605SOL     OW22191   1.320   0.167   0.956 -0.1704 -0.1830 -0.3357
 5605SOL    HW222192   1.375   0.150   0.880  0.2880  0.9525 -0.2695
 5605SOL    HW322193   1.261   0.091   0.960  1.0033 -1.1456 -0.7318
 5605SOL    MW422194   1.320   0.155   0.946 -0.9805  0.3937 -0.5020
 5606SOL     OW22195   5.759   2.220   5.481  0.0877 -0.3983 -0.3994
 5606SOL    HW222196   5.664   2.231   5.477  0.1131  0.9380  1.0983
 5606SOL    HW322197   5.793   2.310   5.488  1.3873 -0.8843 -0.0928
 5606SOL    MW422198   5.751   2.234   5.482 -0.3609  0.1718 -0.0213
 5607SOL     OW22199   0.646   4.028   0.389 -0.2982 -0.0551 -0.1776
 5607SOL    HW222200   0.613   4.074   0.312 -1.2405  0.8308  0.7315
 5607SOL    HW322201   0.736   4.058   0.398 -0.4419  0.4732 -0.4596
 5607SOL    MW422202   0.653   4.038   0.380  0.1975  0.0336  0.4185
 5608SOL     OW22203   4.832   0.067   0.829 -1.1736 -0.2641  0.9261
 5608SOL    HW222204   4.857  -0.005   0.886  0.1002  0.6401  1.5710
 5608SOL    HW322205   4.820   0.028   0.743 -1.8333 -1.4436  1.5368
 5608SOL    MW422206   4.833   0.053   0.825  0.3142 -0.2664  0.0560
 5609SOL     OW22207   4.116   0.814   0.097  0.0218  0.5159 -0.6305
 5609SOL    HW222208   4.049   0.746   0.092  0.4826  0.1056 -1.2469
 5609SOL    HW322209   4.171   0.800   0.021  1.6601 -0.0192  0.5938
 5609SOL    MW422210   4.114   0.803   0.087  0.2607 -0.2165 -0.9480
 5610SOL     OW22211   0.522   2.987   5.620  0.1712 -0.4923 -0.1050
 5610SOL    HW222212   0.485   2.919   5.565 -0.6232  0.2031 -0.4469
 5610SOL    HW322213   0.511   3.068   5.570  2.5278 -0.2835 -0.4157
 5610SOL    MW422214   0.516   2.989   5.606  0.3391 -0.0846 -0.2029
 5611SOL     OW22215   2.023   4.552   4.514 -0.5249  0.2316  0.0943
 5611SOL    HW222216   2.104   4.519   4.552 -0.4190  0.2896 -0.0801
 5611SOL    HW322217   2.050   4.592   4.431 -0.7163  0.3466  0.0873
 5611SOL    MW422218   2.037   4.553   4.508 -0.0643 -0.0931 -0.1081
 5612SOL     OW22219   2.810   1.230   2.522 -0.2337 -0.4504  0.4393
 5612SOL    HW222220   2.804   1.138   2.496 -1.2761 -0.2916  0.0638
 5612SOL    HW322221   2.720   1.263   2.515  0.0056  0.4144  1.2664
 5612SOL    MW422222   2.797   1.222   2.517 -0.3987  0.1912  0.3206
 5613SOL     OW22223   4.538   4.815   3.543  0.0284 -0.1542  0.1838
 5613SOL    HW222224   4.493   4.801   3.627 -2.9382 -0.9341 -1.3934
 5613SOL    HW322225   4.486   4.883   3.499  0.4929 -0.9273 -1.6571
 5613SOL    MW422226   4.525   4.822   3.548  0.2007  0.0479  0.1620
 5614SOL     OW22227   0.145   5.679   1.044  0.2417 -0.2544  0.3334
 5614SOL    HW222228   0.119   5.705   1.132  1.4266 -0.3727  0.7354
 5614SOL    HW322229   0.119   5.587   1.037  2.4314 -1.0400  1.5390
 5614SOL    MW422230   0.138   5.671   1.055 -0.0557 -0.2197 -0.8333
 5615SOL     OW22231   0.603   0.693   0.383 -0.3330 -0.3082  0.8476
 5615SOL    HW222232   0.611   0.714   0.476  0.9002 -0.4914  0.7931
 5615SOL    HW322233   0.567   0.604   0.382 -3.2453  0.7693  1.0915
 5615SOL    MW422234   0.599   0.684   0.395 -0.4999  0.2123  0.2508
 5616SOL     OW22235   3.223   1.911   4.766 -0.1446  0.6569 -0.0402
 5616SOL    HW222236   3.216   1.818   4.790  0.8817  0.8521  1.1248
 5616SOL    HW322237   3.281   1.911   4.690 -0.9288  0.2828 -0.6575
 5616SOL    MW422238   3.230   1.899   4.759 -0.2493 -0.4813 -0.0227
 5617SOL     OW22239   6.312   4.181   5.273  0.2429  0.4519  0.1017
 5617SOL    HW222240   6.352   4.191   5.359  1.1451  1.1019 -0.3840
 5617SOL    HW322241   6.310   4.086   5.259  0.1891  0.3436  0.7846
 5617SOL    MW422242   6.317   4.169   5.283 -0.1063 -0.2136 -0.6625
 5618SOL     OW22243   0.025   2.415   5.531  0.1311 -0.1765  0.2556
 5618SOL    HW222244   0.064   2.356   5.595 -0.3552 -0.3958  0.3572
 5618SOL    HW322245  -0.022   2.479   5.583 -1.1167 -0.9449  0.1186
 5618SOL    MW422246   0.024   2.415   5.546 -0.0245  0.0410  0.1994
 5619SOL     OW22247   4.630   2.764   2.620 -0.1725 -0.0256  0.7223
 5619SOL    HW222248   4.610   2.856   2.638 -1.7931 -0.4821  1.5146
 5619SOL    HW322249   4.545   2.720   2.625  0.5069 -1.5190 -0.0365
 5619SOL    MW422250   4.616   2.770   2.623  0.0959 -0.6666  0.2615
 5620SOL     OW22251   6.113   0.964   0.897  0.2754 -0.1260  0.1869
 5620SOL    HW222252   6.073   1.005   0.821  0.1597  0.3876  0.5152
 5620SOL    HW322253   6.049   0.975   0.967  2.1533  3.6331  1.5950
 5620SOL    MW422254   6.099   0.971   0.897  0.7138 -0.0488  0.6504
 5621SOL     OW22255   4.484   3.405   6.262  0.1182  0.3687  0.3126
 5621SOL    HW222256   4.507   3.479   6.318  0.0600  0.6670 -0.0534
 5621SOL    HW322257   4.554   3.402   6.197  1.2469 -1.1815  1.5281
 5621SOL    MW422258   4.496   3.414   6.260 -0.1588  0.1419  0.1638
 5622SOL     OW22259   1.278   5.511   3.842  0.1108  0.1935  0.4263
 5622SOL    HW222260   1.248   5.595   3.878 -2.0684 -1.3370  2.5966
 5622SOL    HW322261   1.229   5.501   3.761 -2.0628 -0.2356  1.6953
 5622SOL    MW422262   1.267   5.520   3.836  0.2193  0.2022 -0.0977
 5623SOL     OW22263   2.135   0.821   5.587  0.0053  0.0585  0.1041
 5623SOL    HW222264   2.176   0.869   5.515 -1.0817  1.2050  0.2078
 5623SOL    HW322265   2.046   0.804   5.557  0.0817 -1.0454  0.4766
 5623SOL    MW422266   2.129   0.825   5.574 -0.1484 -0.4898 -0.4633
 5624SOL     OW22267   2.156   5.822   1.414  0.4940  0.0252 -0.1233
 5624SOL    HW222268   2.148   5.799   1.507  0.1291 -0.5082 -0.2828
 5624SOL    HW322269   2.175   5.916   1.415 -2.6188  0.7559  0.4284
 5624SOL    MW422270   2.157   5.831   1.427  0.0777 -0.7057  0.0740
 5625SOL     OW22271   3.684   4.109   0.928  0.9581  0.0031  0.1631
 5625SOL    HW222272   3.607   4.067   0.892 -0.7030  1.4808  1.7497
 5625SOL    HW322273   3.718   4.047   0.993  0.7130 -0.3865 -0.0824
 5625SOL    MW422274   3.678   4.096   0.932 -0.6941 -0.2502 -0.2338
 5626SOL     OW22275   3.369   5.782   5.249 -0.1233  0.6850 -0.0653
 5626SOL    HW222276   3.391   5.691   5.272  0.9078  0.9133 -0.1018
 5626SOL    HW322277   3.279   5.793   5.281 -0.1185 -0.2211  0.3139
 5626SOL    MW422278   3.360   5.771   5.256 -0.0843 -0.1945  0.1847
 5627SOL     OW22279   1.396   2.132   5.897  0.2348  0.2975  0.1708
 5627SOL    HW222280   1.336   2.065   5.865  0.9434 -0.5910  0.6463
 5627SOL    HW322281   1.483   2.095   5.882  0.6502  1.2772  0.1006
 5627SOL    MW422282   1.400   2.118   5.891 -0.4180  0.2055 -0.2966
 5628SOL     OW22283   2.705   2.508   5.118  0.8992  0.2296 -0.2742
 5628SOL    HW222284   2.623   2.506   5.069  0.4482  3.2789  0.1667
 5628SOL    HW322285   2.738   2.418   5.113 -3.4118 -1.7404  1.2046
 5628SOL    MW422286   2.699   2.496   5.111  0.4093 -0.2391  0.2828
 5629SOL     OW22287   2.066   4.808   0.646 -1.0791 -0.0925 -0.9828
 5629SOL    HW222288   2.056   4.899   0.617  1.5731  0.0063 -1.8898
 5629SOL    HW322289   2.074   4.758   0.565 -3.6992 -1.3979 -0.5329
 5629SOL    MW422290   2.066   4.814   0.631 -0.1922  0.1971 -0.1050
 5630SOL     OW22291   2.126   5.973   4.716  0.1806  0.1751  0.5132
 5630SOL    HW222292   2.141   6.041   4.781 -1.8881  1.5785 -0.4020
 5630SOL    HW322293   2.040   5.936   4.737  0.0007 -0.1662 -0.7095
 5630SOL    MW422294   2.117   5.977   4.727  0.2675 -0.0700  0.3264
 5631SOL     OW22295   2.875   3.620   3.142 -0.0702 -0.4225 -0.8135
 5631SOL    HW222296   2.829   3.549   3.186  0.0533 -0.7509 -1.2053
 5631SOL    HW322297   2.944   3.646   3.203 -0.2226 -0.5209 -0.5985
 5631SOL    MW422298   2.878   3.614   3.156  0.2953 -0.3094  0.0410
 5632SOL     OW22299   4.089   2.806   2.889 -0.4241  0.2245  0.1350
 5632SOL    HW222300   4.169   2.771   2.928 -0.8294  0.9682  1.7203
 5632SOL    HW322301   4.048   2.730   2.846 -0.3791 -0.8761  1.9243
 5632SOL    MW422302   4.094   2.791   2.889  0.0962 -0.1084 -0.0406
 5633SOL     OW22303   6.109   0.518   1.905  0.1649 -0.2377  0.0820
 5633SOL    HW222304   6.015   0.519   1.925  0.1710 -0.0640  0.0986
 5633SOL    HW322305   6.116   0.457   1.832 -0.1461  0.8214 -0.8494
 5633SOL    MW422306   6.097   0.510   1.898  0.2837 -0.7454 -0.6517
 5634SOL     OW22307   5.658   2.403   3.451  0.3429 -0.2377  0.2193
 5634SOL    HW222308   5.593   2.355   3.502 -0.0260 -0.4950 -0.4786
 5634SOL    HW322309   5.633   2.495   3.461 -0.3423 -0.3578 -0.3240
 5634SOL    MW422310   5.646   2.409   3.459 -0.7868  0.1887  0.0824
 5635SOL     OW22311   4.970   0.383   4.957 -0.0427  0.2186  0.0447
 5635SOL    HW222312   5.010   0.297   4.948 -1.0687 -0.2177 -0.4412
 5635SOL    HW322313   4.930   0.400   4.872 -1.4957  0.3308  0.7310
 5635SOL    MW422314   4.970   0.374   4.944  0.2497  0.3410 -0.3429
 5636SOL     OW22315   3.966   3.023   3.504  0.2062 -0.3495  0.2409
 5636SOL    HW222316   4.037   3.080   3.534 -1.3208  1.4172  0.6673
 5636SOL    HW322317   3.895   3.083   3.482 -0.8197 -2.0021 -1.1494
 5636SOL    MW422318   3.966   3.038   3.505  0.0399 -0.1917  0.5855
 5637SOL     OW22319   3.404   0.201   0.291 -0.3253 -0.2366 -0.1193
 5637SOL    HW222320   3.389   0.296   0.292 -1.3929 -0.3826 -0.9374
 5637SOL    HW322321   3.494   0.191   0.260  0.6124  0.5669  2.1212
 5637SOL    MW422322   3.414   0.212   0.287  0.5667  0.1705  0.0533
 5638SOL     OW22323   0.744   3.832   2.669 -0.4169 -0.4390 -0.4825
 5638SOL    HW222324   0.777   3.794   2.588 -0.3814  1.1895 -1.2642
 5638SOL    HW322325   0.811   3.896   2.694 -1.1661  0.1683 -0.0012
 5638SOL    MW422326   0.757   3.836   2.662 -0.1096 -0.2738  0.4648
 5639SOL     OW22327   3.380   3.730   5.875 -0.3538 -0.0512 -0.1190
 5639SOL    HW222328   3.469   3.752   5.903 -0.4105  0.9245 -0.6482
 5639SOL    HW322329   3.380   3.747   5.781 -1.0152 -0.3608 -0.1814
 5639SOL    MW422330   3.392   3.735   5.866 -0.3516  0.4736 -0.3602
 5640SOL     OW22331   3.969   1.036   2.447  0.2081  0.3941  0.1318
 5640SOL    HW222332   3.918   1.082   2.381 -0.1108 -0.7104 -0.4285
 5640SOL    HW322333   3.916   1.040   2.526 -1.5181 -1.9705 -0.7925
 5640SOL    MW422334   3.956   1.042   2.449 -0.3114 -0.1069 -0.4659
 5641SOL     OW22335   1.427   6.389   5.025  0.1645  0.2598 -0.3384
 5641SOL    HW222336   1.482   6.433   4.960 -2.0041  3.0938 -0.4581
 5641SOL    HW322337   1.391   6.314   4.979  2.2062 -0.4564 -0.8932
 5641SOL    MW422338   1.430   6.385   5.011 -0.4391 -0.6085  0.4205
 5642SOL     OW22339   6.162   2.535   3.543  0.4299  0.2725  0.0032
 5642SOL    HW222340   6.081   2.486   3.557 -0.1459  0.8903 -1.0867
 5642SOL    HW322341   6.184   2.520   3.451  0.0946  2.2719 -0.4364
 5642SOL    MW422342   6.154   2.526   3.533 -0.1684 -0.3577  0.5288
 5643SOL     OW22343   5.376   4.533   0.109  0.3525  0.6664 -0.4988
 5643SOL    HW222344   5.393   4.488   0.026 -0.0659  0.3486 -0.4159
 5643SOL    HW322345   5.435   4.490   0.171 -0.9349 -0.6805 -0.1337
 5643SOL    MW422346   5.386   4.521   0.106  0.4146 -0.3810 -0.3948
 5644SOL     OW22347   4.485   3.722   0.232  0.6988  0.2529  0.1678
 5644SOL    HW222348   4.413   3.784   0.244 -0.8647 -1.3410 -0.4203
 5644SOL    HW322349   4.501   3.722   0.138  0.3304 -0.5599  0.0923
 5644SOL    MW422350   4.478   3.730   0.221  0.3882 -0.5994  0.1235
 5645SOL     OW22351   3.943   3.918   0.206  0.2306 -0.3079 -0.0261
 5645SOL    HW222352   3.957   3.853   0.137  1.1639 -0.0190 -0.1136
 5645SOL    HW322353   3.939   3.866   0.287 -2.8241 -0.8761 -0.4264
 5645SOL    MW422354   3.944   3.903   0.208 -0.0215 -0.0997 -0.3643
 5646SOL     OW22355   5.063   5.006   0.376  0.0269  0.0088  0.2163
 5646SOL    HW222356   4.982   5.033   0.334 -0.1699 -0.1913  0.4647
 5646SOL    HW322357   5.132   5.048   0.325 -0.1490 -1.1862 -1.0525
 5646SOL    MW422358   5.062   5.015   0.364  0.2747  0.2408 -0.3173
 5647SOL     OW22359   3.282   3.097   4.747  0.0589  0.3942 -0.1923
 5647SOL    HW222360   3.350   3.030   4.743  0.2859  0.5893  0.2937
 5647SOL    HW322361   3.231   3.074   4.824 -1.5995 -0.8445 -1.5718
 5647SOL    MW422362   3.284   3.085   4.757  0.2419  0.5691 -0.3812
 5648SOL     OW22363   3.367   0.940   5.238  0.0385 -0.1721 -0.1728
 5648SOL    HW222364   3.414   1.023   5.230  0.9010 -0.4849  1.2415
 5648SOL    HW322365   3.426   0.884   5.289 -1.3879 -0.9697  0.6750
 5648SOL    MW422366   3.381   0.943   5.244 -0.2024 -0.3164 -0.1169
 5649SOL     OW22367   5.384   5.298   0.406 -0.2311 -0.2280 -0.3132
 5649SOL    HW222368   5.321   5.370   0.412 -0.8460 -0.7561 -0.2898
 5649SOL    HW322369   5.462   5.337   0.366 -0.8614  0.2601 -1.0989
 5649SOL    MW422370   5.386   5.313   0.402  0.1161 -0.1474  0.2722
 5650SOL     OW22371   3.701   0.454  -0.033  0.2026 -0.1091 -0.6014
 5650SOL    HW222372   3.664   0.367  -0.016  0.4938  0.0540  1.0600
 5650SOL    HW322373   3.756   0.472   0.043  1.0182  1.0822 -1.4367
 5650SOL    MW422374   3.703   0.445  -0.021  0.1973  0.2321  0.0217
 5651SOL     OW22375   5.153   4.678   0.003 -0.4286 -0.3689  0.1351
 5651SOL    HW222376   5.103   4.722   0.072 -0.5927 -1.0101  0.4281
 5651SOL    HW322377   5.227   4.638   0.049 -0.2278 -0.3241 -0.1464
 5651SOL    MW422378   5.157   4.679   0.018  0.2471 -0.2721  0.2124
 5652SOL     OW22379   1.775   3.482   5.762 -0.5669 -0.2101  0.1535
 5652SOL    HW222380   1.692   3.472   5.717 -0.8440 -2.9408  1.0411
 5652SOL    HW322381   1.840   3.486   5.692 -1.3265  0.5565 -0.5242
 5652SOL    MW422382   1.773   3.481   5.747 -0.5143  0.1300 -0.2263
 5653SOL     OW22383   0.743   4.650   1.705  0.8333 -0.4797  0.2800
 5653SOL    HW222384   0.780   4.736   1.688  1.1166 -0.4477  1.0027
 5653SOL    HW322385   0.650   4.665   1.721  0.5055 -0.5444 -1.4224
 5653SOL    MW422386   0.736   4.663   1.705  0.5857 -0.6264 -0.2676
 5654SOL     OW22387   1.266   3.369   1.297 -0.0544  0.4589 -0.5511
 5654SOL    HW222388   1.275   3.463   1.279  0.3287  0.6617  0.5823
 5654SOL    HW322389   1.356   3.336   1.295  0.3457  0.9410  3.0321
 5654SOL    MW422390   1.279   3.377   1.294 -0.0890 -0.3093  0.4717
 5655SOL     OW22391   3.571   3.908   2.694 -0.1043  0.1347 -0.0641
 5655SOL    HW222392   3.524   3.890   2.776 -0.6447  0.0936 -0.3820
 5655SOL    HW322393   3.636   3.973   2.718 -1.5302  1.6073  0.0081
 5655SOL    MW422394   3.573   3.914   2.708  0.1089 -0.2450 -0.0859
 5656SOL     OW22395   4.891   3.737   2.585 -0.1014  0.5591  0.5711
 5656SOL    HW222396   4.905   3.662   2.643 -0.9563 -0.4855 -0.4993
 5656SOL    HW322397   4.969   3.739   2.529 -0.4610 -0.1216  0.0183
 5656SOL    MW422398   4.903   3.727   2.585  0.6975  0.3747  0.0302
 5657SOL     OW22399   0.099   3.087   6.035  0.3404 -0.2307 -0.3862
 5657SOL    HW222400   0.109   3.085   6.131 -1.0979 -1.4273 -0.2240
 5657SOL    HW322401   0.108   3.179   6.012  1.2264  0.0126  0.8386
 5657SOL    MW422402   0.101   3.099   6.045  0.1136  0.2355  0.2023
 5658SOL     OW22403   0.265   3.234   3.348 -0.0644  0.2746 -0.3962
 5658SOL    HW222404   0.296   3.322   3.327 -2.1641  0.8384 -1.3822
 5658SOL    HW322405   0.252   3.236   3.443  2.2256  0.1831 -0.0235
 5658SOL    MW422406   0.268   3.246   3.358 -0.0223 -0.6867 -0.4041
 5659SOL     OW22407   2.910   0.606   3.560  0.2488 -0.9632 -0.0964
 5659SOL    HW222408   2.822   0.599   3.595 -0.1001 -0.0397 -0.7636
 5659SOL    HW322409   2.932   0.517   3.533 -1.0962 -0.9515 -1.3678
 5659SOL    MW422410   2.902   0.593   3.561  0.3186 -0.2924  0.1794
 5660SOL     OW22411   5.230   4.589   0.719 -0.1961 -0.0526 -0.0231
 5660SOL    HW222412   5.203   4.556   0.805 -1.0594  0.2721 -0.1604
 5660SOL    HW322413   5.309   4.539   0.697  0.9656  0.9229  1.6566
 5660SOL    MW422414   5.237   4.578   0.728 -0.7915  0.2623  0.7609
 5661SOL     OW22415   5.079   4.496   0.969  0.5790 -0.0510  0.0884
 5661SOL    HW222416   5.144   4.431   0.997  2.2186  1.3138 -0.3922
 5661SOL    HW322417   5.068   4.553   1.045  1.9236  1.2211 -0.6173
 5661SOL    MW422418   5.086   4.495   0.983  0.5983 -0.5572 -0.4454
 5662SOL     OW22419   1.011   3.942   4.710  0.1035 -0.1983 -0.1043
 5662SOL    HW222420   0.919   3.949   4.685  0.6527 -1.6705 -2.9593
 5662SOL    HW322421   1.048   4.028   4.691 -0.3706 -0.0587 -0.4209
 5662SOL    MW422422   1.003   3.954   4.704 -0.1882 -0.3928 -0.1629
 5663SOL     OW22423   0.266   4.559   1.571  0.3089  0.2442 -0.1041
 5663SOL    HW222424   0.259   4.540   1.664  2.3128  4.3176  1.1584
 5663SOL    HW322425   0.236   4.650   1.562  1.5668  0.5155 -3.1250
 5663SOL    MW422426   0.261   4.569   1.582 -0.1818  0.3443  0.1432
 5664SOL     OW22427   4.481   0.335   1.635 -0.4602  0.6289 -0.2508
 5664SOL    HW222428   4.405   0.365   1.586  1.5125  1.5587 -3.0170
 5664SOL    HW322429   4.471   0.374   1.722 -3.3580  0.1902 -0.2866
 5664SOL    MW422430   4.470   0.344   1.640 -0.2919  0.5534 -0.4311
 5665SOL     OW22431   2.504   3.339   6.299  0.3023  0.0359 -0.1541
 5665SOL    HW222432   2.577   3.399   6.314  0.4708  0.0184 -0.8659
 5665SOL    HW322433   2.537   3.278   6.233 -0.8048  0.8400 -1.4908
 5665SOL    MW422434   2.518   3.339   6.292 -0.6006  0.2288  0.2231
 5666SOL     OW22435   5.577   3.132   5.281 -0.2499  0.0293  0.0058
 5666SOL    HW222436   5.522   3.171   5.349 -1.3874  0.6225 -1.1956
 5666SOL    HW322437   5.666   3.159   5.303 -0.8109  1.9204  0.1508
 5666SOL    MW422438   5.581   3.141   5.293 -0.2544  0.9186  0.0926
 5667SOL     OW22439   3.823   2.211   0.686 -0.5105  0.5905  0.4101
 5667SOL    HW222440   3.763   2.257   0.745 -2.4942  0.0068 -1.0488
 5667SOL    HW322441   3.858   2.139   0.739 -0.8329  1.1275  1.3856
 5667SOL    MW422442   3.820   2.208   0.701  0.4496 -0.5650  0.1667
 5668SOL     OW22443   5.181   5.197   3.610 -0.2756  0.2080 -0.0552
 5668SOL    HW222444   5.213   5.203   3.700  1.3412 -0.8648 -0.5212
 5668SOL    HW322445   5.139   5.111   3.605 -1.5613  0.8070  0.0099
 5668SOL    MW422446   5.179   5.186   3.621  0.1737 -0.5084 -0.6691
 5669SOL     OW22447   1.606   2.307   0.332  0.0459  0.6543 -0.0659
 5669SOL    HW222448   1.538   2.244   0.305  1.3573  1.0010 -5.0527
 5669SOL    HW322449   1.687   2.256   0.333  0.5170  1.3918  0.0758
 5669SOL    MW422450   1.607   2.292   0.329  0.2114  0.5871 -0.3820
 5670SOL     OW22451   1.184   4.375   5.786  0.0498 -0.1559 -0.3232
 5670SOL    HW222452   1.161   4.445   5.724 -0.6137  0.1431  0.2563
 5670SOL    HW322453   1.134   4.299   5.755 -0.5483  0.0848  0.0387
 5670SOL    MW422454   1.175   4.374   5.774  0.5667  0.2587  0.2905
 5671SOL     OW22455   5.447   0.616   4.082  0.6143 -0.1731 -0.1635
 5671SOL    HW222456   5.462   0.619   4.177  1.3257  1.0043 -0.3000
 5671SOL    HW322457   5.376   0.679   4.068  0.4504 -0.4132 -0.4014
 5671SOL    MW422458   5.439   0.625   4.093 -0.0191  0.3993 -0.7235
 5672SOL     OW22459   3.988   0.780   0.424 -0.3567  0.1393  0.2047
 5672SOL    HW222460   3.923   0.743   0.485 -0.6623  0.9362  0.3683
 5672SOL    HW322461   3.978   0.874   0.432 -0.8773  0.2677 -1.5970
 5672SOL    MW422462   3.978   0.787   0.433 -0.1434  0.6482  0.0406
 5673SOL     OW22463   3.255   0.695   6.122  0.2247  0.1030  0.0468
 5673SOL    HW222464   3.181   0.687   6.182  0.6053 -0.2646  0.4821
 5673SOL    HW322465   3.298   0.609   6.125  0.1232  0.0100 -0.9264
 5673SOL    MW422466   3.251   0.683   6.131  0.9221  0.3592  0.4654
 5674SOL     OW22467   0.793   6.241   2.057 -0.3884  0.2121  0.0576
 5674SOL    HW222468   0.783   6.335   2.042  1.0213  0.2152 -1.0763
 5674SOL    HW322469   0.821   6.206   1.973 -0.3003 -1.1417  0.6183
 5674SOL    MW422470   0.795   6.249   2.044 -0.0580  0.4037  0.3753
 5675SOL     OW22471   0.168   2.030  -0.025  0.0041 -0.1238 -0.2440
 5675SOL    HW222472   0.220   1.957   0.009 -0.4214 -0.2985  0.0332
 5675SOL    HW322473   0.077   2.006  -0.007 -0.2181 -0.0983 -1.2551
 5675SOL    MW422474   0.163   2.017  -0.018 -0.2226  0.3513  0.1481
 5676SOL     OW22475   5.981   2.788   3.152  0.1010 -0.7673  0.1875
 5676SOL    HW222476   5.948   2.799   3.063 -0.7151  1.2879  0.7020
 5676SOL    HW322477   5.937   2.709   3.184  1.7497 -2.5933 -1.7615
 5676SOL    MW422478   5.971   2.779   3.145 -0.1268  0.2450  0.7080
 5677SOL     OW22479   3.866   0.938   0.031  0.1490  1.0728  0.2905
 5677SOL    HW222480   3.955   0.920   0.002  0.0974  0.8535  0.2693
 5677SOL    HW322481   3.810   0.897  -0.035  0.0310  0.3432  0.8333
 5677SOL    MW422482   3.870   0.930   0.019 -0.6300 -0.3373 -0.2816
 5678SOL     OW22483   0.356   2.412   3.101 -0.1786  0.4865 -0.3407
 5678SOL    HW222484   0.285   2.354   3.128  0.2028  0.7103  1.2187
 5678SOL    HW322485   0.364   2.398   3.007 -0.1815 -1.8820 -0.0375
 5678SOL    MW422486   0.348   2.403   3.092 -0.3891  0.7362 -0.0472
 5679SOL     OW22487   0.395   4.854   4.330  1.2863  0.0884  0.2526
 5679SOL    HW222488   0.473   4.887   4.285  1.9321  0.4931  1.6167
 5679SOL    HW322489   0.417   4.858   4.423  0.2109 -1.2757  0.6029
 5679SOL    MW422490   0.408   4.859   4.336  0.3490 -0.0980 -0.4077
 5680SOL     OW22491   1.736   6.057   1.284 -0.5345 -0.6886  0.1231
 5680SOL    HW222492   1.723   5.962   1.285 -0.8626 -0.6532  1.6410
 5680SOL    HW322493   1.757   6.080   1.374  0.0999  0.6235 -0.3258
 5680SOL    MW422494   1.737   6.048   1.296  0.1667  0.2272 -0.1869
 5681SOL     OW22495   1.639   5.163   4.685  0.0724  0.1106 -0.6921
 5681SOL    HW222496   1.639   5.179   4.591  0.1015 -0.7340 -0.8403
 5681SOL    HW322497   1.710   5.100   4.699  1.0078  1.2833  0.0923
 5681SOL    MW422498   1.648   5.157   4.675  0.4399 -0.4039 -0.3081
 5682SOL     OW22499   4.276   1.254   0.706  0.8146  0.0825 -0.1080
 5682SOL    HW222500   4.208   1.202   0.663  0.4909  0.8899 -0.6121
 5682SOL    HW322501   4.347   1.258   0.642  0.1074  1.7627 -0.8681
 5682SOL    MW422502   4.276   1.248   0.692 -0.4204  0.2652  0.2561
 5683SOL     OW22503   3.904   1.553   4.133 -0.3151  0.0536 -0.2685
 5683SOL    HW222504   3.868   1.466   4.112  0.7961 -1.2831  2.8209
 5683SOL    HW322505   3.831   1.613   4.118 -1.5870 -1.6039 -1.0584
 5683SOL    MW422506   3.890   1.549   4.128  0.4059 -0.0534  0.0474
 5684SOL     OW22507   0.680   0.447   0.705 -0.0360 -0.1528 -0.3794
 5684SOL    HW222508   0.731   0.407   0.775  0.9764  1.8695  0.1360
 5684SOL    HW322509   0.615   0.501   0.750  0.0620  0.4918 -0.9821
 5684SOL    MW422510   0.678   0.449   0.720  0.3677  0.1164  0.1727
 5685SOL     OW22511   4.395   6.089   3.380  0.0273  0.5890  0.5953
 5685SOL    HW222512   4.463   6.115   3.443  0.0990  1.0484  0.3266
 5685SOL    HW322513   4.336   6.034   3.431 -0.0270  1.1265  1.1234
 5685SOL    MW422514   4.397   6.085   3.395 -0.2363 -0.4434 -0.5713
 5686SOL     OW22515   1.190   3.807   5.119  0.0966 -0.2653  0.3481
 5686SOL    HW222516   1.157   3.830   5.206  0.4234 -1.1157  0.7093
 5686SOL    HW322517   1.113   3.807   5.063  0.1363  2.2996  0.1679
 5686SOL    MW422518   1.176   3.810   5.123  0.0266 -0.4429 -0.3150
 5687SOL     OW22519   1.026   4.406   4.178  0.0203  0.2239  0.7580
 5687SOL    HW222520   1.094   4.356   4.223 -0.7420 -0.0099  1.6822
 5687SOL    HW322521   1.044   4.391   4.085  2.6107  2.0344  0.8472
 5687SOL    MW422522   1.038   4.397   4.171  0.0945  0.2935 -0.3441
 5688SOL     OW22523   5.377   0.813   0.792 -0.8610 -0.0782  0.3074
 5688SOL    HW222524   5.287   0.846   0.791 -0.7602  0.2400  1.0116
 5688SOL    HW322525   5.378   0.751   0.865 -0.2585  0.6701  0.9509
 5688SOL    MW422526   5.365   0.809   0.802 -0.0822 -0.0777 -0.0395
 5689SOL     OW22527   1.382   2.578   5.640 -0.2184  0.0728 -0.3764
 5689SOL    HW222528   1.453   2.598   5.580 -0.0751 -0.3311 -0.3443
 5689SOL    HW322529   1.304   2.572   5.585  0.0074 -0.8848 -0.6163
 5689SOL    MW422530   1.381   2.580   5.625  0.1088  0.1874 -0.3458
 5690SOL     OW22531   4.876   5.097   1.627 -0.6477 -0.7078 -0.2131
 5690SOL    HW222532   4.858   5.161   1.559  0.1935 -0.9049 -0.6294
 5690SOL    HW322533   4.814   5.026   1.611 -0.9555 -0.4199 -0.3094
 5690SOL    MW422534   4.865   5.096   1.616  0.5054  0.3097  0.2878
 5691SOL     OW22535   6.402   1.929   3.613  0.1271  0.0246  0.1698
 5691SOL    HW222536   6.449   1.858   3.571 -2.4119 -2.1586  0.7752
 5691SOL    HW322537   6.327   1.888   3.654  0.4418  2.5467  3.7272
 5691SOL    MW422538   6.398   1.914   3.613  0.3625  0.2284  0.0650
 5692SOL     OW22539   4.017   5.764   5.100 -0.1615  0.0085 -0.2540
 5692SOL    HW222540   4.014   5.852   5.063  0.3144 -0.6985 -2.0812
 5692SOL    HW322541   4.081   5.718   5.047  1.9024 -0.6454  2.5440
 5692SOL    MW422542   4.025   5.770   5.088 -0.2532  0.2964  0.0585
 5693SOL     OW22543   2.948   1.801   1.582  0.0062 -0.0625 -0.3073
 5693SOL    HW222544   3.021   1.816   1.522  1.0593  0.4246  1.0393
 5693SOL    HW322545   2.887   1.873   1.563  0.1281 -0.1421 -1.0446
 5693SOL    MW422546   2.949   1.813   1.571  0.4926  0.0511 -0.3873
 5694SOL     OW22547   5.960   5.603   1.841 -0.1959 -0.3902  0.4591
 5694SOL    HW222548   5.971   5.652   1.760 -1.7963  0.0056  0.4342
 5694SOL    HW322549   5.872   5.626   1.871 -0.1768 -1.6200  1.5730
 5694SOL    MW422550   5.950   5.612   1.834  0.1941 -0.6937  0.0773
 5695SOL     OW22551   4.438   2.000   3.514  0.2168 -0.4863 -0.3961
 5695SOL    HW222552   4.473   1.952   3.589  1.1383 -1.4472 -1.3863
 5695SOL    HW322553   4.475   2.088   3.522  0.0183 -0.4750  0.4557
 5695SOL    MW422554   4.447   2.005   3.525  0.1426 -0.4871  0.0348
 5696SOL     OW22555   2.767   3.943   3.835 -0.2511 -0.4510  0.0736
 5696SOL    HW222556   2.812   3.862   3.857  0.4718 -0.4811 -1.4139
 5696SOL    HW322557   2.685   3.914   3.795  0.5745 -0.5250 -1.6643
 5696SOL    MW422558   2.762   3.928   3.832 -0.1462 -0.3346  0.4279
 5697SOL     OW22559   0.573   3.410   0.560 -0.3006 -0.3810 -0.8986
 5697SOL    HW222560   0.631   3.466   0.612 -0.1704 -2.5680  1.5061
 5697SOL    HW322561   0.632   3.348   0.517 -0.5984 -0.1004 -1.7285
 5697SOL    MW422562   0.588   3.410   0.562  0.2255 -0.1339 -0.2708
 5698SOL     OW22563   1.259   2.476   0.505  0.3695 -0.0355 -0.1249
 5698SOL    HW222564   1.190   2.437   0.560  0.3340 -0.1642 -0.2582
 5698SOL    HW322565   1.245   2.437   0.418  2.4830 -2.4797  0.4941
 5698SOL    MW422566   1.248   2.465   0.501 -0.4067  0.5529  0.1213
 5699SOL     OW22567   5.569   6.214   4.729 -0.2412 -0.2104 -0.2966
 5699SOL    HW222568   5.509   6.251   4.793  0.7748 -0.1333  0.6335
 5699SOL    HW322569   5.548   6.260   4.647 -0.5902  0.7176  0.2982
 5699SOL    MW422570   5.558   6.225   4.726 -0.5067  0.2190 -0.3296
 5700SOL     OW22571   0.317   4.968   5.841 -0.8156 -0.3062  0.0125
 5700SOL    HW222572   0.255   4.947   5.771 -1.0730 -1.8304  0.6511
 5700SOL    HW322573   0.380   4.896   5.840 -0.6569 -0.2077  1.1522
 5700SOL    MW422574   0.317   4.956   5.832 -0.0443 -0.3477 -0.7301
 5701SOL     OW22575   1.630   5.694   3.331 -0.4117 -0.3147  0.0270
 5701SOL    HW222576   1.673   5.720   3.413  1.3319 -0.6760 -0.7183
 5701SOL    HW322577   1.581   5.771   3.304  2.8429  1.6315 -0.9853
 5701SOL    MW422578   1.630   5.708   3.339  0.0793  0.4905 -0.7364
 5702SOL     OW22579   0.282   0.606   1.769  0.0226  0.2851 -0.5641
 5702SOL    HW222580   0.219   0.676   1.753  0.7425  1.1906  0.4250
 5702SOL    HW322581   0.233   0.541   1.819 -0.5521  0.2237 -1.1825
 5702SOL    MW422582   0.267   0.607   1.773 -0.5659 -0.1531 -0.1402
 5703SOL     OW22583   5.485   6.075   5.050  0.0536  0.1385 -0.0686
 5703SOL    HW222584   5.399   6.090   5.009  0.5834 -1.5814 -1.9607
 5703SOL    HW322585   5.531   6.158   5.039 -0.9021  0.6652 -0.2231
 5703SOL    MW422586   5.479   6.088   5.043 -0.4302 -0.5972  0.4686
 5704SOL     OW22587   2.896   1.827   4.958  0.0334  0.2457 -0.2986
 5704SOL    HW222588   2.921   1.892   4.892  1.2705 -1.0585 -1.1808
 5704SOL    HW322589   2.980   1.799   4.996 -0.2032 -2.3981 -1.5081
 5704SOL    MW422590   2.911   1.832   4.955  0.0426 -0.0032 -0.4243
 5705SOL     OW22591   1.898   2.215   4.088 -0.2476  0.0870  0.1809
 5705SOL    HW222592   1.884   2.126   4.121  0.5789 -0.7242 -1.5311
 5705SOL    HW322593   1.840   2.222   4.013 -0.1855  0.9552  0.2029
 5705SOL    MW422594   1.889   2.204   4.083 -0.5466 -0.3703  0.2320
 5706SOL     OW22595   1.283   0.276   3.465  0.1449  0.9201 -0.3023
 5706SOL    HW222596   1.302   0.196   3.513  0.7518  1.0627 -0.3018
 5706SOL    HW322597   1.282   0.345   3.532  1.5650  1.2107 -0.5420
 5706SOL    MW422598   1.285   0.275   3.480  0.0775  0.6390 -0.1356
 5707SOL     OW22599   1.771   0.871   4.636 -0.0032 -0.5003 -0.3541
 5707SOL    HW222600   1.855   0.829   4.653  0.4922  0.1857 -1.0198
 5707SOL    HW322601   1.705   0.809   4.667  0.7299 -1.3295 -0.4477
 5707SOL    MW422602   1.773   0.858   4.642 -0.0473 -0.1858 -0.2883
 5708SOL     OW22603   1.903   1.007   0.593 -0.8203 -0.1504  0.0717
 5708SOL    HW222604   1.983   1.057   0.574 -0.7562 -0.0832  0.5203
 5708SOL    HW322605   1.839   1.073   0.620 -1.1318 -0.1660 -0.5973
 5708SOL    MW422606   1.905   1.022   0.594  0.7423 -0.0641 -0.2309
 5709SOL     OW22607   1.599   4.339   1.612  0.4655 -0.1250  0.3076
 5709SOL    HW222608   1.599   4.294   1.696  1.4254  1.2119  1.0634
 5709SOL    HW322609   1.583   4.431   1.634  2.3940  0.5322 -0.7794
 5709SOL    MW422610   1.597   4.345   1.626  0.2633 -0.3234  0.3010
 5710SOL     OW22611   0.924   3.927   5.719 -0.1203  0.3435  0.3297
 5710SOL    HW222612   0.854   3.905   5.658 -2.6808 -1.3602  3.5194
 5710SOL    HW322613   0.968   3.843   5.734 -0.3271  0.4512  1.6376
 5710SOL    MW422614   0.921   3.913   5.713  0.0565 -0.2329  0.0335
 5711SOL     OW22615   4.032   0.226   5.383 -0.2975  0.1916 -0.4730
 5711SOL    HW222616   4.110   0.259   5.340 -1.3715 -0.2168 -2.9325
 5711SOL    HW322617   4.055   0.138   5.411  0.0514 -0.0577 -1.4946
 5711SOL    MW422618   4.045   0.219   5.381 -0.1876 -0.1626  0.0195
 5712SOL     OW22619   2.481   0.628   0.378 -0.2760 -0.0238  0.0411
 5712SOL    HW222620   2.482   0.536   0.351  0.5751  0.0326 -0.1450
 5712SOL    HW322621   2.466   0.676   0.297 -0.8196 -0.0029  0.1539
 5712SOL    MW422622   2.479   0.622   0.364 -0.0247  0.9381 -0.3562
 5713SOL     OW22623   4.977   1.188   4.778  0.8102  0.2238 -0.0053
 5713SOL    HW222624   4.947   1.098   4.766  0.3379  0.1826  1.3732
 5713SOL    HW322625   5.015   1.212   4.693 -1.3362 -0.3977 -1.2133
 5713SOL    MW422626   4.978   1.179   4.765  0.4440 -0.3098  0.1475
 5714SOL     OW22627   2.170   1.388   5.903 -0.0046 -0.2807  0.4136
 5714SOL    HW222628   2.165   1.456   5.836 -1.2809  2.0300  2.6907
 5714SOL    HW322629   2.100   1.327   5.881 -1.1893  1.0931  0.2444
 5714SOL    MW422630   2.160   1.389   5.891  0.2905  0.3112  0.1651
 5715SOL     OW22631   2.308   6.371   4.521  0.0911  0.0771 -0.5082
 5715SOL    HW222632   2.286   6.433   4.591 -0.7091 -0.8889  0.1279
 5715SOL    HW322633   2.372   6.312   4.559  0.7679  0.4338 -1.0751
 5715SOL    MW422634   2.313   6.371   4.535 -0.7151 -0.4060 -0.6562
 5716SOL     OW22635   0.019   5.421   2.945 -0.5533 -0.1423  0.5308
 5716SOL    HW222636   0.105   5.433   2.906  0.3748 -0.2819  2.4251
 5716SOL    HW322637   0.024   5.466   3.030 -2.3890 -0.0412  0.6374
 5716SOL    MW422638   0.031   5.429   2.951 -0.2000 -0.2200 -0.2967
 5717SOL     OW22639   5.825   0.104   1.227  0.2127 -0.3996 -0.0246
 5717SOL    HW222640   5.914   0.069   1.236 -0.0716 -0.9904  0.6376
 5717SOL    HW322641   5.832   0.170   1.158  1.5485  0.8742  1.2591
 5717SOL    MW422642   5.837   0.108   1.219  0.0928  0.6182 -0.2068
 5718SOL     OW22643   1.651   5.418   0.617  0.1598  0.2703  0.1708
 5718SOL    HW222644   1.669   5.402   0.524 -0.2914  0.2587  0.0839
 5718SOL    HW322645   1.614   5.336   0.650  1.2569 -0.0601  0.6095
 5718SOL    MW422646   1.648   5.405   0.609 -0.6330  0.1251  0.2094
 5719SOL     OW22647   5.975   4.335   4.559  0.1598  0.0006 -1.0366
 5719SOL    HW222648   6.016   4.314   4.643 -0.0987  0.2721 -0.8351
 5719SOL    HW322649   5.951   4.251   4.522  0.0246 -0.1121 -0.7025
 5719SOL    MW422650   5.977   4.321   4.565  0.2060  0.9502 -0.3530
 5720SOL     OW22651   0.924   0.283   6.171 -0.1141 -0.0749  0.1980
 5720SOL    HW222652   0.895   0.195   6.195  0.8086 -0.6380 -0.6898
 5720SOL    HW322653   0.935   0.328   6.254 -0.6750 -0.7667  0.6597
 5720SOL    MW422654   0.922   0.278   6.185  0.9129 -0.1189  0.3579
 5721SOL     OW22655   2.609   0.882   3.992  0.4093 -0.0163 -0.4215
 5721SOL    HW222656   2.662   0.846   3.921  0.9184  1.1357 -0.6433
 5721SOL    HW322657   2.625   0.976   3.989 -1.1252  0.2886 -0.0464
 5721SOL    MW422658   2.618   0.889   3.982 -0.3481 -0.5306  0.1731
 5722SOL     OW22659   3.560   6.143   4.470  0.0367 -0.4491  0.1789
 5722SOL    HW222660   3.609   6.195   4.407  0.8853 -0.7758  0.5621
 5722SOL    HW322661   3.470   6.144   4.436  0.5980 -1.2565 -1.4839
 5722SOL    MW422662   3.554   6.150   4.457  0.1744  0.2424  0.3602
 5723SOL     OW22663   1.741   1.496   2.815 -0.1216 -0.3004  0.5421
 5723SOL    HW222664   1.834   1.481   2.831 -0.1649 -1.4661 -0.2021
 5723SOL    HW322665   1.697   1.427   2.863 -0.4571 -1.2577 -1.0704
 5723SOL    MW422666   1.748   1.485   2.823  0.0956  0.4098 -0.2117
 5724SOL     OW22667   6.133   3.126   4.949 -0.2135  0.4629 -0.4931
 5724SOL    HW222668   6.225   3.126   4.974  0.0184  0.9426 -1.3157
 5724SOL    HW322669   6.131   3.167   4.863 -1.4448  2.5555  0.4472
 5724SOL    MW422670   6.145   3.132   4.941 -0.0397  0.4928  0.1025
 5725SOL     OW22671   4.289   0.480   0.609  0.1246 -0.5113 -0.6808
 5725SOL    HW222672   4.270   0.554   0.551 -1.1860 -1.5743 -1.6962
 5725SOL    HW322673   4.303   0.519   0.695  1.5092  1.0660 -1.5746
 5725SOL    MW422674   4.288   0.495   0.613  0.4754 -0.3519 -0.4320
 5726SOL     OW22675   5.132   2.628   4.751  0.2624  0.3920 -0.6532
 5726SOL    HW222676   5.160   2.556   4.807  1.0812  1.3200  0.1748
 5726SOL    HW322677   5.176   2.612   4.667 -0.2353 -0.5064 -0.7565
 5726SOL    MW422678   5.141   2.616   4.747  0.0965  0.0331 -0.1595
 5727SOL     OW22679   1.060   4.610   3.043  0.2419 -0.0992 -0.3039
 5727SOL    HW222680   0.988   4.667   3.071  1.3935  2.0981 -1.5847
 5727SOL    HW322681   1.024   4.560   2.970 -0.2109  0.4633 -0.4753
 5727SOL    MW422682   1.046   4.611   3.037 -0.3816  1.0928 -0.0340
 5728SOL     OW22683   3.465   1.821   3.341 -0.8404  0.3080 -0.0379
 5728SOL    HW222684   3.533   1.874   3.299 -0.0991 -0.5463  0.0584
 5728SOL    HW322685   3.483   1.830   3.435 -0.8252  0.0313 -0.0144
 5728SOL    MW422686   3.476   1.829   3.348  0.1112  0.4269  0.2102
 5729SOL     OW22687   5.367   1.965   1.270  0.3618  0.3587  0.2068
 5729SOL    HW222688   5.441   1.991   1.324  1.0539 -0.2096 -0.4454
 5729SOL    HW322689   5.351   1.874   1.293  0.0016  0.4156  0.1911
 5729SOL    MW422690   5.375   1.957   1.280 -0.4408  0.0352 -0.1497
 5730SOL     OW22691   0.799   2.651   6.168  0.5034 -0.1130 -0.1441
 5730SOL    HW222692   0.713   2.649   6.128 -1.4844 -0.4351  3.7040
 5730SOL    HW322693   0.830   2.561   6.165 -0.2600 -0.3966  0.2623
 5730SOL    MW422694   0.792   2.639   6.162  0.5577 -0.8395  0.2616
 5731SOL     OW22695   6.388   2.929   4.526  0.0125 -0.2712 -0.2052
 5731SOL    HW222696   6.392   2.984   4.448 -0.2612  2.0449  1.2983
 5731SOL    HW322697   6.306   2.880   4.517 -1.2920  1.8111 -0.2728
 5731SOL    MW422698   6.377   2.930   4.515  0.4510  0.8072  0.4749
 5732SOL     OW22699   5.930   4.411   4.170  0.2336 -0.1377 -0.6160
 5732SOL    HW222700   5.841   4.446   4.164  0.1432 -0.0503  0.7967
 5732SOL    HW322701   5.979   4.457   4.102 -0.6007  0.4513 -0.8346
 5732SOL    MW422702   5.924   4.422   4.160  0.1001  0.0141 -0.0874
 5733SOL     OW22703   3.552   4.842   5.751  0.3893 -0.7906 -0.6099
 5733SOL    HW222704   3.571   4.755   5.717 -0.3369 -0.9195 -0.7058
 5733SOL    HW322705   3.459   4.856   5.730 -0.3534 -1.2382  2.0702
 5733SOL    MW422706   3.542   4.833   5.743 -0.5801 -0.6145 -0.0594
 5734SOL     OW22707   4.571   0.675   2.213  0.0827 -0.3605  0.2256
 5734SOL    HW222708   4.504   0.743   2.215 -0.5507 -0.9132 -0.9816
 5734SOL    HW322709   4.616   0.688   2.129  2.1008  0.5245  1.3446
 5734SOL    MW422710   4.568   0.686   2.202  0.3073  0.2832  0.1084
 5735SOL     OW22711   5.244   1.381   4.558  0.0523 -0.0744  0.0127
 5735SOL    HW222712   5.281   1.313   4.502  0.3249  1.2843 -1.5383
 5735SOL    HW322713   5.287   1.369   4.643  3.0547  0.5434 -1.3044
 5735SOL    MW422714   5.254   1.370   4.562  0.1104  0.0563 -0.3628
 5736SOL     OW22715   4.725   3.250   1.646 -0.4679 -0.0455 -0.4343
 5736SOL    HW222716   4.712   3.158   1.624 -0.1741 -0.0325 -0.6768
 5736SOL    HW322717   4.781   3.284   1.575  2.7285 -0.6153  1.5919
 5736SOL    MW422718   4.731   3.243   1.633  0.0941 -0.0764 -0.1931
 5737SOL     OW22719   0.099   5.228   4.988 -0.4554 -0.0873 -0.0550
 5737SOL    HW222720   0.034   5.164   5.017 -2.5609  1.7738 -0.4644
 5737SOL    HW322721   0.181   5.198   5.029 -1.5398 -2.4405  0.5701
 5737SOL    MW422722   0.101   5.215   4.998 -0.0928  0.4335 -0.0599
 5738SOL     OW22723   1.625   0.139   2.006 -0.1354  0.3713  0.3554
 5738SOL    HW222724   1.639   0.190   1.926  1.0228  0.7396  0.7722
 5738SOL    HW322725   1.546   0.087   1.988 -0.2796  0.9466 -0.7635
 5738SOL    MW422726   1.616   0.139   1.993 -0.0466 -0.3290  0.1897
 5739SOL     OW22727   3.991   1.456   0.691  0.1995  0.7361  0.2562
 5739SOL    HW222728   4.027   1.437   0.604  0.6605 -0.7886  0.7507
 5739SOL    HW322729   3.917   1.514   0.675  0.5895  0.8849 -1.1030
 5739SOL    MW422730   3.986   1.461   0.678  0.1967  0.6961  0.1696
 5740SOL     OW22731   5.152   2.195   1.284 -0.1938  0.3955 -0.0933
 5740SOL    HW222732   5.147   2.259   1.355  0.0184 -1.2511  1.4630
 5740SOL    HW322733   5.239   2.156   1.292 -0.9912 -1.4127  0.2139
 5740SOL    MW422734   5.163   2.198   1.295 -0.1674 -0.0676 -0.6799
 5741SOL     OW22735   1.317   1.123   3.451 -0.8635  0.1705  0.2728
 5741SOL    HW222736   1.339   1.155   3.538  1.2989  2.2745 -0.9334
 5741SOL    HW322737   1.376   1.049   3.436  0.1252  1.0115 -0.0826
 5741SOL    MW422738   1.328   1.118   3.460 -0.2426  0.2384 -0.2689
 5742SOL     OW22739   5.281   1.969   3.909  0.1728 -0.6726  0.8055
 5742SOL    HW222740   5.194   1.979   3.945  0.0619 -1.9634  0.9522
 5742SOL    HW322741   5.285   2.033   3.837 -0.9385 -0.6921  0.7062
 5742SOL    MW422742   5.270   1.979   3.904  0.9254 -0.2930 -0.2804
 5743SOL     OW22743   6.051   6.126   3.444  0.3844  0.4375  0.1076
 5743SOL    HW222744   6.020   6.147   3.532 -1.1835  1.3519 -0.6195
 5743SOL    HW322745   6.134   6.080   3.458 -0.2280 -0.1642  2.0786
 5743SOL    MW422746   6.058   6.123   3.457  0.5618  0.5876  0.3413
 5744SOL     OW22747   2.283   0.574   3.216  0.3244  0.5724 -0.3152
 5744SOL    HW222748   2.290   0.479   3.214 -1.8670  0.3041  0.9608
 5744SOL    HW322749   2.197   0.593   3.178 -0.2220  1.8513  1.4235
 5744SOL    MW422750   2.272   0.564   3.211 -0.7739 -0.5622 -0.6829
 5745SOL     OW22751   6.367   5.755  -0.011 -0.5869 -0.4027  0.1193
 5745SOL    HW222752   6.451   5.749   0.034  0.7381 -0.1901 -2.1622
 5745SOL    HW322753   6.340   5.664  -0.023  0.8552 -0.6768 -1.6673
 5745SOL    MW422754   6.375   5.742  -0.007  0.2370 -0.3695  0.3791
 5746SOL     OW22755   3.136   1.513   1.271  0.3818 -0.1588  0.8860
 5746SOL    HW222756   3.078   1.588   1.257 -0.3856 -1.2719 -3.4123
 5746SOL    HW322757   3.222   1.544   1.241  0.3281 -0.5951  0.2570
 5746SOL    MW422758   3.140   1.527   1.265 -0.7845  0.3648 -0.3908
 5747SOL     OW22759   6.113   2.861   4.743 -0.0121 -0.1054  0.1629
 5747SOL    HW222760   6.168   2.838   4.818  0.1038 -1.3984 -0.2938
 5747SOL    HW322761   6.099   2.956   4.752 -3.8277 -0.7021  4.4982
 5747SOL    MW422762   6.118   2.871   4.754 -0.2568 -0.0500 -0.2085
 5748SOL     OW22763   4.023   1.408   0.403  0.7158  0.1603 -0.4565
 5748SOL    HW222764   4.072   1.490   0.418 -0.4685  0.4792  2.3689
 5748SOL    HW322765   4.020   1.399   0.308  2.1228  2.6375 -0.8374
 5748SOL    MW422766   4.029   1.418   0.392 -0.3548  0.1282  0.1489
 5749SOL     OW22767   6.401   3.088   4.985 -0.5985  0.6830 -0.1309
 5749SOL    HW222768   6.415   3.037   4.905 -3.5060  0.6368 -0.7275
 5749SOL    HW322769   6.485   3.085   5.031  1.1094  0.4536 -3.0138
 5749SOL    MW422770   6.414   3.081   4.980  0.3873 -0.0915 -0.0953
 5750SOL     OW22771   2.538   3.445   3.893 -0.1195  0.6352  0.0195
 5750SOL    HW222772   2.514   3.430   3.802  0.1194  2.1043 -0.3004
 5750SOL    HW322773   2.631   3.464   3.891 -0.4854  2.6515  0.2914
 5750SOL    MW422774   2.547   3.445   3.881 -0.2093 -0.9043 -0.0330
 5751SOL     OW22775   0.926   1.260   3.086 -0.0955 -0.2761  0.5414
 5751SOL    HW222776   1.003   1.216   3.123  2.0372  3.3504  0.9285
 5751SOL    HW322777   0.953   1.284   2.997 -0.5598  1.4314  0.8331
 5751SOL    MW422778   0.940   1.257   3.079  0.5778 -0.5849 -0.1709
 5752SOL     OW22779   4.135   2.887   4.406 -0.0009 -0.3560  0.5716
 5752SOL    HW222780   4.166   2.949   4.472  2.4141 -0.3405 -0.4825
 5752SOL    HW322781   4.117   2.807   4.455  1.8076 -0.3667  1.2983
 5752SOL    MW422782   4.137   2.885   4.421  0.0610  0.0953  0.1065
 5753SOL     OW22783   1.128   5.918   6.343 -0.1196  0.1760 -0.7823
 5753SOL    HW222784   1.078   5.997   6.323 -0.6700 -0.4889 -2.1425
 5753SOL    HW322785   1.206   5.925   6.288  0.6492  0.5547  0.3288
 5753SOL    MW422786   1.132   5.930   6.333  0.2416  0.2686  0.1779
 5754SOL     OW22787   2.918   4.835   0.540 -0.3683 -0.2620  0.2788
 5754SOL    HW222788   2.975   4.895   0.493 -0.5558 -0.3860 -0.1156
 5754SOL    HW322789   2.943   4.844   0.632 -0.4756  0.5112  0.2402
 5754SOL    MW422790   2.929   4.844   0.546  0.6142  0.2366  0.1222
 5755SOL     OW22791   3.657   6.298   5.786  0.0595 -0.1376 -0.3677
 5755SOL    HW222792   3.736   6.245   5.794 -0.0840 -0.4522 -0.9407
 5755SOL    HW322793   3.607   6.280   5.866  1.5548  1.7920  1.1041
 5755SOL    MW422794   3.661   6.289   5.797  0.0623 -0.0943 -0.0713
 5756SOL     OW22795   3.427   2.511   5.493 -0.3279 -0.3652  0.4222
 5756SOL    HW222796   3.386   2.477   5.413 -0.8643 -1.7550  1.2393
 5756SOL    HW322797   3.502   2.453   5.507  0.0300  0.1568  0.6900
 5756SOL    MW422798   3.432   2.499   5.484  0.2046  0.0851  0.0681
 5757SOL     OW22799   2.343   4.813   0.704 -0.1185  0.1192 -0.8015
 5757SOL    HW222800   2.401   4.767   0.643  0.3813  0.6762 -0.7615
 5757SOL    HW322801   2.256   4.780   0.684  0.2722 -1.1501 -0.4909
 5757SOL    MW422802   2.339   4.802   0.693 -0.3561  0.2940  0.5681
 5758SOL     OW22803   5.418   3.461   5.616 -0.1564  0.2342 -0.0536
 5758SOL    HW222804   5.331   3.488   5.644 -0.1952 -1.2110  1.3755
 5758SOL    HW322805   5.411   3.367   5.600  1.2431 -0.0066  0.5648
 5758SOL    MW422806   5.406   3.452   5.617  0.5449  0.0153  0.1619
 5759SOL     OW22807   3.254   3.917   3.422 -0.6591 -0.3112  0.1738
 5759SOL    HW222808   3.344   3.940   3.397 -0.7662 -1.0043 -0.9294
 5759SOL    HW322809   3.216   3.880   3.342 -1.3536 -1.7215  1.1076
 5759SOL    MW422810   3.261   3.915   3.408 -0.7570  0.0040 -0.1585
 5760SOL     OW22811   4.293   4.136   1.961  0.4397  0.8919  0.4042
 5760SOL    HW222812   4.283   4.133   1.865 -1.1289  1.2897  0.5279
 5760SOL    HW322813   4.268   4.048   1.990  1.6913  0.5210  0.4083
 5760SOL    MW422814   4.289   4.124   1.952 -0.4348  0.5892  0.5178
 5761SOL     OW22815   1.595   2.126   1.049  0.4481 -0.2046 -0.0379
 5761SOL    HW222816   1.684   2.114   1.083  0.3852 -5.0339 -0.8382
 5761SOL    HW322817   1.605   2.118   0.954 -0.8339 -0.9853 -0.1300
 5761SOL    MW422818   1.608   2.124   1.041 -0.5012 -0.0710 -0.3592
 5762SOL     OW22819   0.654   2.298   4.868 -0.0247  0.3365  0.4381
 5762SOL    HW222820   0.571   2.258   4.843 -0.6868  0.3871  2.4029
 5762SOL    HW322821   0.705   2.300   4.787 -1.8905  0.2277 -0.7958
 5762SOL    MW422822   0.650   2.293   4.854 -0.2224 -0.5264  0.1413
 5763SOL     OW22823   5.167   5.876   2.449 -0.1310 -0.2434 -0.2295
 5763SOL    HW222824   5.202   5.822   2.378  1.5388  0.3743  0.0784
 5763SOL    HW322825   5.183   5.966   2.421 -1.2188  0.0588  0.0765
 5763SOL    MW422826   5.174   5.881   2.436 -0.3090 -0.1341  0.3793
 5764SOL     OW22827   3.390   4.037   5.277  0.0236 -0.0955  0.4162
 5764SOL    HW222828   3.472   4.020   5.231  1.2285 -0.1551  2.4923
 5764SOL    HW322829   3.378   3.961   5.334 -1.3795  0.0133  0.3014
 5764SOL    MW422830   3.399   4.024   5.278 -0.2426  0.2087  0.0865
 5765SOL     OW22831   6.261   0.886   3.421 -0.2623  0.2846  0.1551
 5765SOL    HW222832   6.168   0.871   3.438 -0.2831 -0.7986 -0.8651
 5765SOL    HW322833   6.297   0.799   3.403  0.6893  0.8384 -0.7228
 5765SOL    MW422834   6.253   0.872   3.421  0.4728 -0.3931 -0.5239
 5766SOL     OW22835   0.390   3.642   1.149  0.7783  0.0371 -0.4906
 5766SOL    HW222836   0.316   3.593   1.113  0.2869 -0.2647  0.8689
 5766SOL    HW322837   0.359   3.732   1.156  0.9345  0.1303 -0.9673
 5766SOL    MW422838   0.376   3.647   1.145 -0.2433 -0.1645  0.4076
 5767SOL     OW22839   0.450   2.011   0.295  0.2276 -0.0604  0.2083
 5767SOL    HW222840   0.513   2.054   0.237 -0.0488  0.9665  0.6451
 5767SOL    HW322841   0.504   1.977   0.367  0.6763 -2.0375 -0.9887
 5767SOL    MW422842   0.466   2.012   0.297  0.1180  0.2983  0.3040
 5768SOL     OW22843   3.424   4.738   1.191 -0.6865  0.1789 -0.3158
 5768SOL    HW222844   3.428   4.832   1.208 -0.2948  0.0310  0.4738
 5768SOL    HW322845   3.477   4.699   1.261  1.0448 -0.4807 -1.8937
 5768SOL    MW422846   3.432   4.745   1.202 -0.2914  0.3035  0.4458
 5769SOL     OW22847   0.122   5.129   4.578 -0.5421  0.2260  0.2183
 5769SOL    HW222848   0.087   5.216   4.599 -0.1604  0.2919  0.5852
 5769SOL    HW322849   0.076   5.104   4.498 -1.4968  0.2640  0.7460
 5769SOL    MW422850   0.111   5.137   4.570 -0.0834  0.3436  0.5061
 5770SOL     OW22851   2.164   4.970   0.124  0.4683 -0.2656 -0.5565
 5770SOL    HW222852   2.136   4.945   0.036  0.7494 -0.4523 -0.5965
 5770SOL    HW322853   2.086   4.959   0.178  0.9184 -2.7828 -0.2685
 5770SOL    MW422854   2.150   4.965   0.119  0.3117  0.0580 -0.1054
 5771SOL     OW22855   3.707   0.550   6.123 -0.0398 -0.5244 -0.2782
 5771SOL    HW222856   3.793   0.515   6.103  0.6547  1.5145 -1.1355
 5771SOL    HW322857   3.683   0.509   6.206  0.7336 -2.8124 -1.0920
 5771SOL    MW422858   3.715   0.540   6.131 -0.0233  1.0753 -0.3000
 5772SOL     OW22859   3.917   1.498   5.644 -0.6221  0.5753 -0.3946
 5772SOL    HW222860   3.920   1.574   5.701 -2.0158  0.2894  0.1133
 5772SOL    HW322861   3.903   1.533   5.557  0.6918  0.9794 -0.4508
 5772SOL    MW422862   3.915   1.512   5.640 -0.4440 -0.0670 -0.1250
 5773SOL     OW22863   2.473   0.082   2.368  0.2141  0.0097  0.0150
 5773SOL    HW222864   2.390   0.091   2.322  0.0918 -2.5232 -0.3783
 5773SOL    HW322865   2.533   0.140   2.321 -0.9221  0.6224 -0.7160
 5773SOL    MW422866   2.470   0.091   2.356 -0.3586  0.4348  0.0849
 5774SOL     OW22867   4.222   1.548   5.233 -0.0502  0.2105  0.0764
 5774SOL    HW222868   4.305   1.504   5.217 -0.7756 -0.8647 -0.8897
 5774SOL    HW322869   4.192   1.513   5.317  0.9561  1.4238  0.9830
 5774SOL    MW422870   4.229   1.538   5.242  0.2859 -0.6941  0.4690
 5775SOL     OW22871   4.637   5.695   0.638 -0.2415  0.3737  0.1971
 5775SOL    HW222872   4.569   5.692   0.705  0.4117 -0.3453  0.8495
 5775SOL    HW322873   4.717   5.716   0.686 -0.1134  2.0623 -0.6762
 5775SOL    MW422874   4.639   5.697   0.653 -0.3782  0.5720 -0.3369
 5776SOL     OW22875   0.753   0.077   0.094 -0.0377  0.3434  0.3284
 5776SOL    HW222876   0.697   0.094   0.019 -0.2266  0.5537  0.5173
 5776SOL    HW322877   0.736   0.149   0.155  2.4251  1.9591 -0.7349
 5776SOL    MW422878   0.743   0.089   0.092 -0.0788  0.5441 -0.1593
 5777SOL     OW22879   3.962   6.231   0.353  0.2452  0.1488 -0.1077
 5777SOL    HW222880   3.944   6.234   0.259 -0.9273 -2.6007 -0.0552
 5777SOL    HW322881   3.875   6.233   0.394  0.7657  3.1102  1.1032
 5777SOL    MW422882   3.948   6.232   0.346 -0.5462  0.0649  0.0376
 5778SOL     OW22883   2.840   0.287   4.670  0.2127 -0.3163  0.0949
 5778SOL    HW222884   2.765   0.252   4.623  0.1907  0.0969 -0.1871
 5778SOL    HW322885   2.874   0.213   4.720 -0.0226 -0.6537 -0.2391
 5778SOL    MW422886   2.835   0.273   4.670  0.2421 -0.1810 -0.2524
 5779SOL     OW22887   3.335   0.915   0.923 -0.2029  0.1565  0.3943
 5779SOL    HW222888   3.313   0.962   1.003  2.0789  2.1613 -0.0205
 5779SOL    HW322889   3.261   0.931   0.864 -0.1320  2.1390  0.7741
 5779SOL    MW422890   3.322   0.923   0.925 -0.3310  0.3641  0.5190
 5780SOL     OW22891   2.528   4.991   4.763 -0.1066 -0.1947  0.1504
 5780SOL    HW222892   2.551   5.081   4.739 -1.8367 -0.0379 -1.0943
 5780SOL    HW322893   2.519   4.945   4.679 -2.4455 -0.6701  0.5976
 5780SOL    MW422894   2.530   4.997   4.749 -0.3180 -0.1599  0.1726
 5781SOL     OW22895   4.635   2.519   1.498  0.4107  0.2130 -0.1795
 5781SOL    HW222896   4.644   2.604   1.454  0.6351  0.6054  0.5970
 5781SOL    HW322897   4.724   2.487   1.509  0.2759 -0.6696 -1.4681
 5781SOL    MW422898   4.648   2.526   1.494 -0.5405  1.0647 -0.3790
 5782SOL     OW22899   3.272   2.248   3.710  0.3454  0.2496  0.1507
 5782SOL    HW222900   3.245   2.230   3.620  1.5722  0.7611 -0.3405
 5782SOL    HW322901   3.324   2.172   3.734  0.4654  0.3586  0.2350
 5782SOL    MW422902   3.275   2.235   3.701  0.1306  0.1060 -0.2687
 5783SOL     OW22903   5.090   2.720   5.779 -0.7677 -0.1087 -0.4797
 5783SOL    HW222904   5.108   2.676   5.696  1.1207  0.8228 -0.6103
 5783SOL    HW322905   5.097   2.813   5.758  2.1502  0.1218  1.1680
 5783SOL    MW422906   5.093   2.726   5.765 -0.0620  0.0779 -0.3361
 5784SOL     OW22907   1.698   1.155   3.834  0.3398  0.3607  0.1664
 5784SOL    HW222908   1.751   1.234   3.833 -0.4375  0.8829 -0.0623
 5784SOL    HW322909   1.673   1.144   3.926 -0.0095  0.6822  0.1072
 5784SOL    MW422910   1.702   1.164   3.846  1.3084 -0.4810  0.6704
 5785SOL     OW22911   3.819   5.467   4.106  0.1738  0.4346  0.4266
 5785SOL    HW222912   3.771   5.385   4.116  1.0345 -0.2951 -0.9730
 5785SOL    HW322913   3.782   5.507   4.027  0.8342  0.5695  0.1719
 5785SOL    MW422914   3.808   5.461   4.097  0.6066  0.0063 -0.0451
 5786SOL     OW22915   2.501   1.906   6.118 -0.0340 -0.2825 -0.0520
 5786SOL    HW222916   2.443   1.857   6.059 -0.7583 -0.8771  1.1229
 5786SOL    HW322917   2.572   1.937   6.061 -2.5785  2.4784 -2.0766
 5786SOL    MW422918   2.503   1.904   6.103  0.0304 -0.3956 -0.6453
 5787SOL     OW22919   2.282   0.463   0.672 -0.4105 -0.1743  0.4073
 5787SOL    HW222920   2.218   0.501   0.612  0.3842  0.4668 -0.0565
 5787SOL    HW322921   2.233   0.447   0.752 -0.8393  1.7030  0.5780
 5787SOL    MW422922   2.267   0.466   0.675  0.1646  0.2117  0.1100
 5788SOL     OW22923   5.672   5.308   2.164 -0.1690  0.5966 -0.0627
 5788SOL    HW222924   5.590   5.346   2.199  0.3303  0.5841  1.1862
 5788SOL    HW322925   5.740   5.341   2.223  1.1176  2.5622 -2.4298
 5788SOL    MW422926   5.670   5.318   2.177 -0.3721  0.2818  0.5329
 5789SOL     OW22927   4.652   5.221   0.881 -0.0403  0.3415  0.2323
 5789SOL    HW222928   4.588   5.180   0.939 -0.3085  1.2704  0.6203
 5789SOL    HW322929   4.613   5.306   0.859 -0.4454 -0.4027 -2.1965
 5789SOL    MW422930   4.638   5.227   0.886  0.3255  0.3093  0.0157
 5790SOL     OW22931   2.427   1.493   5.225  0.5654  0.4767  0.1373
 5790SOL    HW222932   2.496   1.542   5.269  0.4221  2.5473 -1.7750
 5790SOL    HW322933   2.346   1.541   5.246  0.2938  0.5422 -1.0182
 5790SOL    MW422934   2.425   1.506   5.234  0.0423  0.2262  0.4098
 5791SOL     OW22935   0.992   3.980   1.992  0.1437  0.2735  0.3520
 5791SOL    HW222936   0.992   3.944   2.081  1.7591  0.7901  0.5962
 5791SOL    HW322937   0.911   4.030   1.985  0.0068  0.2262  1.5303
 5791SOL    MW422938   0.982   3.982   2.003 -0.4010  0.2827  0.3805
 5792SOL     OW22939   5.473   6.047   0.792  0.3569 -0.7914 -0.4044
 5792SOL    HW222940   5.428   6.026   0.710 -0.5968  0.3780 -0.2143
 5792SOL    HW322941   5.412   6.020   0.860 -0.2737  1.1254 -0.1440
 5792SOL    MW422942   5.459   6.041   0.790  0.0069 -0.6699  0.0282
 5793SOL     OW22943   4.909   1.916   5.828  0.4096  0.1722 -0.5087
 5793SOL    HW222944   4.938   1.850   5.766 -0.3123 -0.3089 -0.3490
 5793SOL    HW322945   4.841   1.872   5.880  0.3793  0.8369  0.0286
 5793SOL    MW422946   4.904   1.902   5.827  0.9078 -0.4609 -0.4489
 5794SOL     OW22947   1.629   1.656   4.350  0.1298 -0.5306 -0.2177
 5794SOL    HW222948   1.671   1.608   4.278  1.6563 -0.4223  0.5600
 5794SOL    HW322949   1.645   1.602   4.427  0.1909  0.2802  0.3470
 5794SOL    MW422950   1.637   1.643   4.351  0.6786  0.3751 -0.6261
 5795SOL     OW22951   0.191   6.260   1.858  0.2767 -0.0193  0.0513
 5795SOL    HW222952   0.273   6.273   1.810  0.7719  0.5894  1.0340
 5795SOL    HW322953   0.217   6.263   1.950 -0.3741 -2.8920  0.4211
 5795SOL    MW422954   0.206   6.262   1.864 -0.7872 -0.1184  0.8198
 5796SOL     OW22955   2.617   3.574   5.340  0.0437  0.5729  0.5531
 5796SOL    HW222956   2.555   3.642   5.317  0.9786  1.6130  1.0442
 5796SOL    HW322957   2.674   3.566   5.264 -1.5004 -1.4075 -0.5020
 5796SOL    MW422958   2.616   3.582   5.327  0.4251 -0.1149 -0.0303
 5797SOL     OW22959   4.324   3.334   3.531  0.6169 -0.3938  0.5251
 5797SOL    HW222960   4.298   3.323   3.623 -0.8408  2.7749  0.6587
 5797SOL    HW322961   4.252   3.296   3.481 -0.1178  0.5684  0.8025
 5797SOL    MW422962   4.311   3.328   3.537 -0.4361 -0.0296  0.2732
 5798SOL     OW22963   0.916   0.000   3.027  0.2797  0.1728 -0.3720
 5798SOL    HW222964   0.895  -0.042   2.944  1.2072  0.0560 -0.5610
 5798SOL    HW322965   0.875  -0.056   3.094 -1.9308  1.1742 -0.7905
 5798SOL    MW422966   0.908  -0.013   3.025  0.3138 -0.0675 -0.0920
 5799SOL     OW22967   1.499   4.825   3.179  0.3707 -0.3649 -0.2216
 5799SOL    HW222968   1.441   4.797   3.108 -0.1185  0.5797 -0.2004
 5799SOL    HW322969   1.544   4.902   3.144 -1.0032  1.0609  1.0085
 5799SOL    MW422970   1.497   4.831   3.165  0.0879 -0.0526 -0.6108
 5800SOL     OW22971   1.655   6.060   4.010  0.1525  0.2701 -1.1719
 5800SOL    HW222972   1.696   6.008   4.079 -0.3832  0.9759 -0.2950
 5800SOL    HW322973   1.564   6.031   4.009  0.0413  0.6208 -1.2357
 5800SOL    MW422974   1.648   6.049   4.019 -0.3119  0.5275  0.3550
 5801SOL     OW22975   2.906   5.434   1.330  0.1675  0.1190  0.3591
 5801SOL    HW222976   2.957   5.454   1.409 -0.2423  1.3894  0.3194
 5801SOL    HW322977   2.963   5.462   1.258  0.0495  0.0762  0.2502
 5801SOL    MW422978   2.920   5.440   1.331  0.2594  0.1016  0.2940
 5802SOL     OW22979   5.130   1.774   5.979  0.0397  0.0086  0.2605
 5802SOL    HW222980   5.035   1.764   5.979 -0.1500  1.5108  0.4198
 5802SOL    HW322981   5.146   1.849   5.922  1.3088 -1.3739 -1.3153
 5802SOL    MW422982   5.120   1.783   5.972 -0.1291 -0.1047 -0.2343
 5803SOL     OW22983   5.102   3.617   0.098  0.2079  0.6545 -0.7136
 5803SOL    HW222984   5.178   3.578   0.053  0.9982  1.2549  0.0735
 5803SOL    HW322985   5.031   3.555   0.081  1.1942 -0.6466 -0.3187
 5803SOL    MW422986   5.103   3.603   0.090  0.1121 -0.0891 -0.3039
 5804SOL     OW22987   0.469   2.824   2.637 -0.0963  0.1700  0.3844
 5804SOL    HW222988   0.524   2.890   2.679 -1.0276 -0.1772  2.2521
 5804SOL    HW322989   0.415   2.790   2.708 -1.4158 -0.8083 -1.0463
 5804SOL    MW422990   0.469   2.828   2.652  0.2996  0.3100  0.3264
 5805SOL     OW22991   0.315   3.487   4.848 -0.7887 -0.2274 -0.0955
 5805SOL    HW222992   0.319   3.486   4.943  2.1946  1.1753 -0.0919
 5805SOL    HW322993   0.342   3.399   4.822  0.7289  0.0467  0.4168
 5805SOL    MW422994   0.319   3.475   4.857  0.0924  0.1734  0.1140
 5806SOL     OW22995   6.255   6.019   2.798 -0.7601 -1.2128 -0.6460
 5806SOL    HW222996   6.242   5.924   2.799  1.2838 -1.5280 -0.0704
 5806SOL    HW322997   6.340   6.032   2.757 -0.4354  0.2623  0.3920
 5806SOL    MW422998   6.264   6.008   2.793 -0.0384  0.4996  0.0619
 5807SOL     OW22999   2.213   4.955   3.156  0.4024 -0.2591 -0.1687
 5807SOL    HW223000   2.139   5.015   3.153 -0.0381 -0.7235  0.9269
 5807SOL    HW323001   2.180   4.874   3.117 -0.0690 -0.8432  1.3493
 5807SOL    MW423002   2.199   4.952   3.151 -0.1166  0.1239  0.3188
 5808SOL     OW23003   0.216   3.569   0.736  0.3659  0.7815 -0.4161
 5808SOL    HW223004   0.157   3.644   0.734  0.3772  0.7837 -0.7824
 5808SOL    HW323005   0.302   3.607   0.753  0.2181  0.7474  0.4309
 5808SOL    MW423006   0.220   3.584   0.738  0.6704 -0.1228  0.0378
 5809SOL     OW23007   5.879   5.163   1.771  0.1837 -0.6667  0.4559
 5809SOL    HW223008   5.796   5.210   1.776  0.9736  0.8924 -0.0558
 5809SOL    HW323009   5.909   5.158   1.862 -0.3327 -0.9711  0.6104
 5809SOL    MW423010   5.872   5.169   1.784  0.5245  0.4997  0.7136
 5810SOL     OW23011   2.578   4.786   1.977  0.3877  0.4120 -0.1389
 5810SOL    HW223012   2.504   4.762   2.034 -1.0683  1.6810 -1.4015
 5810SOL    HW323013   2.544   4.777   1.888  2.6307 -1.5890 -0.8963
 5810SOL    MW423014   2.564   4.782   1.973 -0.1520  0.3567  0.6350
 5811SOL     OW23015   2.220   4.198   2.945  0.0631 -0.3290  0.4361
 5811SOL    HW223016   2.286   4.167   3.007 -0.2429 -1.8455  0.0586
 5811SOL    HW323017   2.232   4.142   2.868  0.1513  1.2292 -0.7291
 5811SOL    MW423018   2.231   4.187   2.943  0.5138  0.5017  0.0942
 5812SOL     OW23019   4.033   3.355   2.609  0.1845  0.6071 -0.0380
 5812SOL    HW223020   3.997   3.295   2.675  0.2060 -0.2197 -0.7654
 5812SOL    HW323021   4.034   3.440   2.653 -2.1928  0.5820  0.2164
 5812SOL    MW423022   4.028   3.358   2.624  0.0511  0.1227 -0.2300
 5813SOL     OW23023   1.194   5.572   2.743 -0.1921 -0.3099  0.0841
 5813SOL    HW223024   1.249   5.650   2.748 -1.6478  0.8736 -1.4136
 5813SOL    HW323025   1.221   5.529   2.662 -0.6697 -0.3484 -0.0575
 5813SOL    MW423026   1.205   5.577   2.733 -0.2024  0.2712  0.2353
 5814SOL     OW23027   5.251   3.045   0.824  0.1264  0.0059 -0.0609
 5814SOL    HW223028   5.233   2.967   0.772 -0.0734 -1.7222  2.4638
 5814SOL    HW323029   5.168   3.094   0.824  0.4332  0.6326 -2.1771
 5814SOL    MW423030   5.237   3.041   0.817  0.6383  0.6281  0.4801
 5815SOL     OW23031   2.800   2.753   2.410  0.2228  0.2451  0.1932
 5815SOL    HW223032   2.783   2.666   2.373  2.2842  0.2566 -0.9104
 5815SOL    HW323033   2.859   2.737   2.483  0.8979  0.7156 -0.2340
 5815SOL    MW423034   2.805   2.740   2.415 -0.3922 -0.7243 -0.0252
 5816SOL     OW23035   0.582   0.783   0.006 -0.4528  0.3239 -0.2108
 5816SOL    HW223036   0.528   0.779  -0.073 -1.3358 -1.5768  0.4123
 5816SOL    HW323037   0.646   0.851  -0.011 -0.7717  0.1176 -2.4560
 5816SOL    MW423038   0.583   0.791  -0.007  0.4788  0.2534 -0.0973
 5817SOL     OW23039   3.264   5.025   4.250  0.2818 -0.2257  0.1473
 5817SOL    HW223040   3.196   5.072   4.298  0.0167 -0.4608  0.0017
 5817SOL    HW323041   3.218   4.981   4.179  0.4837 -0.9411  0.4557
 5817SOL    MW423042   3.249   5.025   4.247  0.1265  0.0153  0.1773
 5818SOL     OW23043   0.630   4.610   4.334 -0.3644 -0.3552 -0.3325
 5818SOL    HW223044   0.609   4.629   4.242 -1.8113  2.5590  0.4784
 5818SOL    HW323045   0.710   4.559   4.330 -0.8388 -1.0737 -3.2414
 5818SOL    MW423046   0.638   4.606   4.321 -0.0923  0.4289 -0.8383
 5819SOL     OW23047   4.609   2.260   5.689 -0.6581 -0.1775  0.6243
 5819SOL    HW223048   4.543   2.271   5.757  0.1649  1.4227  1.2222
 5819SOL    HW323049   4.649   2.346   5.679 -0.3182 -0.5108 -1.4729
 5819SOL    MW423050   4.606   2.273   5.696 -0.6279  0.3137  0.0400
 5820SOL     OW23051   0.367   0.886   5.639  0.4902 -0.7221 -0.2540
 5820SOL    HW223052   0.385   0.793   5.625  0.2454 -0.7099 -0.6482
 5820SOL    HW323053   0.430   0.931   5.583  2.8393 -0.5563  2.2765
 5820SOL    MW423054   0.378   0.880   5.630  0.3913 -0.0663 -0.5747
 5821SOL     OW23055   2.228   4.918   1.175 -0.4522  0.3486 -0.0202
 5821SOL    HW223056   2.179   4.964   1.107  0.8152 -1.4459 -2.2610
 5821SOL    HW323057   2.188   4.831   1.178 -2.7171  1.2562  4.0313
 5821SOL    MW423058   2.216   4.913   1.167  0.0967 -0.4245 -0.2655
 5822SOL     OW23059   1.026   2.713   5.344 -0.4977  0.2364 -0.4008
 5822SOL    HW223060   1.062   2.801   5.348 -0.7955  0.3455 -0.0924
 5822SOL    HW323061   1.023   2.692   5.251 -0.4553  0.5610 -0.4748
 5822SOL    MW423062   1.031   2.722   5.333 -0.3094  0.5942 -0.2231
 5823SOL     OW23063   6.246   6.003   1.708  0.1936 -0.0560 -0.5049
 5823SOL    HW223064   6.212   5.998   1.798 -1.2912  1.6595 -0.9327
 5823SOL    HW323065   6.338   5.980   1.717  0.0283 -0.1661  1.4187
 5823SOL    MW423066   6.253   5.999   1.721  0.0160  0.0214 -0.1027
 5824SOL     OW23067   0.124   6.016   4.726 -0.0435  0.2543  0.1524
 5824SOL    HW223068   0.085   5.929   4.719 -1.2540  0.9066 -2.1518
 5824SOL    HW323069   0.068   6.062   4.788 -0.8332  0.0875 -0.4170
 5824SOL    MW423070   0.111   6.010   4.733 -0.0791 -0.3537 -0.4072
 5825SOL     OW23071   2.974   0.309   3.940  0.0490  0.1304 -0.1556
 5825SOL    HW223072   2.925   0.271   3.866  1.3222 -0.7682 -0.5623
 5825SOL    HW323073   3.066   0.295   3.918  0.4800  0.7726  1.1368
 5825SOL    MW423074   2.979   0.303   3.927 -0.2300 -0.2395 -0.2077
 5826SOL     OW23075   0.301   4.184   5.203  0.3203  0.3010 -0.0363
 5826SOL    HW223076   0.241   4.251   5.171  0.1806  0.9430  1.4564
 5826SOL    HW323077   0.246   4.106   5.215 -0.2134  0.8210  1.1089
 5826SOL    MW423078   0.286   4.182   5.200 -0.4883  0.2657 -0.3791
 5827SOL     OW23079   1.969   4.395   1.576  0.1311 -0.1719  0.2795
 5827SOL    HW223080   1.996   4.384   1.667 -3.6674 -0.1355  1.5837
 5827SOL    HW323081   1.921   4.315   1.554 -1.2551  0.8899 -0.7656
 5827SOL    MW423082   1.967   4.383   1.585 -0.5167  0.4331 -0.2705
 5828SOL     OW23083   2.547   5.029   1.567 -0.3138  0.1610  0.1692
 5828SOL    HW223084   2.561   5.124   1.558  1.8447  0.1194  2.2214
 5828SOL    HW323085   2.558   4.995   1.478  0.0579  1.7261 -0.4156
 5828SOL    MW423086   2.551   5.037   1.554 -0.5024  0.0367  0.2109
 5829SOL     OW23087   4.351   2.458   4.336  0.4491  0.1689  0.6120
 5829SOL    HW223088   4.387   2.462   4.425 -0.0875  0.6392  0.8155
 5829SOL    HW323089   4.427   2.442   4.280  0.9640  1.0929  1.0303
 5829SOL    MW423090   4.366   2.456   4.341 -0.0973  0.0209 -0.6959
 5830SOL     OW23091   6.078   2.405   0.103  0.4651 -0.1157  0.1016
 5830SOL    HW223092   6.069   2.318   0.064 -0.2011  0.0646 -0.1613
 5830SOL    HW323093   6.127   2.391   0.183  2.1560 -0.4490 -0.9584
 5830SOL    MW423094   6.083   2.392   0.109  0.1392  0.1081  0.1951
 5831SOL     OW23095   1.800   5.640   1.862 -0.1078 -0.1169 -0.1615
 5831SOL    HW223096   1.711   5.623   1.893  0.4629 -1.4053  0.8635
 5831SOL    HW323097   1.833   5.707   1.922  0.2668 -1.0532  0.6875
 5831SOL    MW423098   1.792   5.647   1.874  0.6134 -0.0235 -0.3460
 5832SOL     OW23099   3.814   2.036   4.990  0.0388 -0.4747 -0.1282
 5832SOL    HW223100   3.806   2.070   4.901 -0.9119  0.2942  0.2308
 5832SOL    HW323101   3.768   2.100   5.044  1.4687 -0.4058  1.0501
 5832SOL    MW423102   3.806   2.049   4.985 -0.0105 -0.0815 -0.6018
 5833SOL     OW23103   4.488   1.448   0.007  0.2733 -0.3766  0.1744
 5833SOL    HW223104   4.507   1.403  -0.075  0.6773  0.2728 -0.0978
 5833SOL    HW323105   4.568   1.439   0.059  0.2681 -0.1965  0.2156
 5833SOL    MW423106   4.501   1.441   0.003 -0.1137 -0.2767 -0.5726
 5834SOL     OW23107   1.197   2.695   2.514  0.1327  0.3545  0.0168
 5834SOL    HW223108   1.168   2.644   2.439 -1.8268  0.3220  0.7456
 5834SOL    HW323109   1.204   2.632   2.586  0.9807  0.5639  0.1378
 5834SOL    MW423110   1.194   2.680   2.514 -1.1088  0.3616  0.1129
 5835SOL     OW23111   4.477   2.673   1.044  0.7480 -0.3708  0.0295
 5835SOL    HW223112   4.386   2.648   1.029  0.3798  0.9283 -0.0233
 5835SOL    HW323113   4.474   2.736   1.115  1.5108  0.3334 -0.5346
 5835SOL    MW423114   4.465   2.678   1.051 -0.2799 -0.3077  0.6655
 5836SOL     OW23115   3.935   6.365   4.089 -0.2510  0.2801  0.7259
 5836SOL    HW223116   3.943   6.362   4.184  0.5789  1.3542  0.7121
 5836SOL    HW323117   3.885   6.444   4.071  0.0921  0.3995  0.2610
 5836SOL    MW423118   3.930   6.375   4.099  0.1338  0.5220 -0.4775
 5837SOL     OW23119   4.033   4.153   3.258  0.2832  0.7298 -0.3476
 5837SOL    HW223120   4.041   4.163   3.353 -1.5067  0.2339 -0.1003
 5837SOL    HW323121   4.042   4.059   3.244 -0.1624  0.7224 -0.5842
 5837SOL    MW423122   4.035   4.142   3.269  0.1662  0.0160 -0.0649
 5838SOL     OW23123   4.826   3.079   6.179  0.1166 -0.3776 -0.4575
 5838SOL    HW223124   4.734   3.054   6.177  0.1591 -0.5183 -0.6384
 5838SOL    HW323125   4.838   3.131   6.099  0.8404 -2.6071 -1.8778
 5838SOL    MW423126   4.815   3.083   6.168  0.4870  0.4540  0.0960
 5839SOL     OW23127   3.647   2.046   5.637 -0.1473  0.2424  0.3728
 5839SOL    HW223128   3.731   2.029   5.679 -0.4764 -1.7950  0.2939
 5839SOL    HW323129   3.582   2.027   5.705 -0.6311 -1.7594 -0.5673
 5839SOL    MW423130   3.649   2.041   5.652 -0.1128 -0.7166 -0.8235
 5840SOL     OW23131   4.818   1.506   5.154 -0.0917  0.2924  0.2248
 5840SOL    HW223132   4.761   1.559   5.099  0.1379  0.5350  0.2163
 5840SOL    HW323133   4.880   1.466   5.093  0.5363  1.0333  0.3599
 5840SOL    MW423134   4.819   1.508   5.139 -0.3386  0.4928 -1.3936
 5841SOL     OW23135   2.151   1.998   0.823 -0.3514  0.0373 -0.2105
 5841SOL    HW223136   2.069   1.951   0.833  0.1376 -0.5350  1.3384
 5841SOL    HW323137   2.129   2.090   0.838 -0.7258 -0.1003  0.0626
 5841SOL    MW423138   2.138   2.004   0.826 -0.1333  0.0672  0.5511
 5842SOL     OW23139   1.178   4.166   1.321  0.1790  0.2284  0.1132
 5842SOL    HW223140   1.175   4.092   1.382 -0.8652  0.0224 -0.1735
 5842SOL    HW323141   1.253   4.218   1.350  2.4709 -2.1623 -1.0769
 5842SOL    MW423142   1.188   4.163   1.333 -0.1801  0.0621  0.2754
 5843SOL     OW23143   4.574   5.501   1.406  0.5169 -0.5022  0.0543
 5843SOL    HW223144   4.570   5.592   1.435  3.0485 -0.1133 -0.5891
 5843SOL    HW323145   4.485   5.468   1.418 -0.7047  2.3097 -0.5774
 5843SOL    MW423146   4.562   5.509   1.411  0.3105  0.0328  0.0828
 5844SOL     OW23147   1.300   4.668   3.872 -0.5629 -0.0214 -0.4795
 5844SOL    HW223148   1.326   4.674   3.780 -3.9569  0.0335 -1.5619
 5844SOL    HW323149   1.254   4.584   3.878  0.0941 -0.2927  1.3574
 5844SOL    MW423150   1.297   4.658   3.860  0.2055  0.0387  0.3427
 5845SOL     OW23151   0.636   5.839   6.080 -0.2504  0.4702  0.3010
 5845SOL    HW223152   0.684   5.879   6.007  0.5390 -2.2812 -0.8089
 5845SOL    HW323153   0.551   5.884   6.080  0.0615  1.1765 -1.7272
 5845SOL    MW423154   0.631   5.850   6.070 -0.4201 -0.4094 -0.2911
 5846SOL     OW23155   1.908   0.351   6.110  0.5504 -0.3018  0.1980
 5846SOL    HW223156   1.825   0.392   6.137  0.0965 -1.1435  0.1245
 5846SOL    HW323157   1.923   0.283   6.175  0.6297 -0.8492 -0.3789
 5846SOL    MW423158   1.899   0.348   6.122  0.4165 -0.1174  0.7703
 5847SOL     OW23159   3.783   4.761   4.873  0.8698  0.1648  0.4748
 5847SOL    HW223160   3.878   4.757   4.863  0.8419  0.0290  0.2615
 5847SOL    HW323161   3.751   4.799   4.791  0.6997 -0.2946  0.3218
 5847SOL    MW423162   3.791   4.766   4.861 -0.0600  0.1365 -0.4255
 5848SOL     OW23163   3.211   4.466   0.049 -0.0334 -0.3057  0.3932
 5848SOL    HW223164   3.288   4.521   0.064  0.3340 -0.3140 -1.2698
 5848SOL    HW323165   3.158   4.515  -0.014 -1.0631 -0.6194  0.9893
 5848SOL    MW423166   3.214   4.480   0.043  0.1072 -0.5598  0.0620
 5849SOL     OW23167   0.255   2.452   3.917 -0.4431  0.5810 -0.5692
 5849SOL    HW223168   0.306   2.533   3.913 -0.1092  0.4258  0.2703
 5849SOL    HW323169   0.304   2.395   3.976 -1.4303  0.3210  0.0369
 5849SOL    MW423170   0.268   2.455   3.924 -0.0743 -0.1628  0.5074
 5850SOL     OW23171   0.270   3.279   1.233 -0.6658  0.0615 -0.0956
 5850SOL    HW223172   0.241   3.233   1.312  1.7032 -1.1800  0.1464
 5850SOL    HW323173   0.348   3.328   1.261  0.4932 -0.7673 -1.7292
 5850SOL    MW423174   0.276   3.280   1.247 -0.2456 -0.3733  0.7459
 5851SOL     OW23175   1.283   4.429   1.136 -0.1197  0.2794 -0.3914
 5851SOL    HW223176   1.256   4.468   1.053  0.3078 -3.0350 -2.2409
 5851SOL    HW323177   1.377   4.417   1.128  0.0395  0.4845  0.8731
 5851SOL    MW423178   1.292   4.433   1.124  0.2572  0.2135 -0.2235
 5852SOL     OW23179   1.004   5.254   1.066 -0.2369 -0.0686 -0.1118
 5852SOL    HW223180   0.913   5.279   1.080 -0.5856 -0.7762 -1.0410
 5852SOL    HW323181   1.043   5.330   1.023 -0.4160  0.1717  0.1413
 5852SOL    MW423182   0.997   5.268   1.063 -0.8126 -0.2136  0.1555
 5853SOL     OW23183   1.162   0.135   4.403  0.3107 -0.1708 -0.0917
 5853SOL    HW223184   1.119   0.188   4.335 -0.1903 -0.0607  0.3094
 5853SOL    HW323185   1.183   0.197   4.472 -0.3146 -0.4970  0.3970
 5853SOL    MW423186   1.159   0.150   4.403  0.4503 -0.1693  0.4219
 5854SOL     OW23187   4.286   0.863   0.860 -0.2273  0.0186  0.0438
 5854SOL    HW223188   4.199   0.824   0.865  0.7047 -2.0928  1.3319
 5854SOL    HW323189   4.307   0.865   0.767 -1.8865  1.2121 -0.3402
 5854SOL    MW423190   4.278   0.858   0.848  0.2350 -0.1761  0.0475
 5855SOL     OW23191   0.099   4.032   0.857  0.3148  0.5510 -0.1127
 5855SOL    HW223192   0.122   4.016   0.949  0.3100  1.0308 -0.0224
 5855SOL    HW323193   0.021   4.088   0.862 -1.4204 -1.7062 -0.4092
 5855SOL    MW423194   0.092   4.037   0.870  0.0716 -0.0614  0.1347
 5856SOL     OW23195   1.223   4.077   4.987  0.9247 -0.2664 -0.1733
 5856SOL    HW223196   1.286   4.142   5.020  0.6863 -0.3851  0.5270
 5856SOL    HW323197   1.253   3.994   5.024  0.3296 -0.3157  0.2105
 5856SOL    MW423198   1.235   4.075   4.997 -0.0121 -0.5667 -0.2070
 5857SOL     OW23199   1.209   0.855   1.531  0.4474  0.2724 -0.4636
 5857SOL    HW223200   1.256   0.794   1.475  0.7106  0.3749 -0.3565
 5857SOL    HW323201   1.123   0.864   1.490  1.2448  1.7919 -1.9090
 5857SOL    MW423202   1.204   0.848   1.518  0.0863 -0.0591  1.1062
 5858SOL     OW23203   0.548   0.193   2.303  0.6956  0.1692  0.0865
 5858SOL    HW223204   0.587   0.203   2.390 -0.8197  0.7033  0.7254
 5858SOL    HW323205   0.462   0.233   2.311  0.1580 -0.6577 -1.4008
 5858SOL    MW423206   0.542   0.200   2.316  0.0673 -0.8662  0.0154
 5859SOL     OW23207   1.260   0.802   3.902  0.0544 -0.1151 -0.1424
 5859SOL    HW223208   1.195   0.827   3.836  0.6275  0.7444 -0.3994
 5859SOL    HW323209   1.305   0.883   3.923  2.5429 -0.9954 -1.5949
 5859SOL    MW423210   1.257   0.816   3.896 -0.4176 -0.6138 -0.1107
 5860SOL     OW23211   2.667   6.222   3.757  0.2606 -0.0699 -0.0077
 5860SOL    HW223212   2.619   6.283   3.813 -0.8360 -0.7447 -0.1850
 5860SOL    HW323213   2.717   6.168   3.817 -0.3514 -0.3221  0.2803
 5860SOL    MW423214   2.668   6.223   3.772  0.0298 -0.3101 -0.6132
 5861SOL     OW23215   4.308   5.753   0.674 -0.3447 -0.3835  0.7175
 5861SOL    HW223216   4.226   5.792   0.705 -1.0978  0.2508 -1.8412
 5861SOL    HW323217   4.343   5.817   0.611  0.5844 -1.9554 -0.4312
 5861SOL    MW423218   4.302   5.767   0.670  0.1591 -0.3702 -0.2488
 5862SOL     OW23219   0.466   3.409   5.170  0.5752  0.1680  0.0040
 5862SOL    HW223220   0.465   3.313   5.171  2.0127  0.0922  2.3321
 5862SOL    HW323221   0.548   3.432   5.126  0.3125  0.3442 -0.4015
 5862SOL    MW423222   0.477   3.399   5.164 -0.3421 -0.1040 -0.0939
 5863SOL     OW23223   4.967   4.387   3.168 -0.0502 -0.2280 -0.2659
 5863SOL    HW223224   4.936   4.432   3.246 -1.1131  1.7959 -1.7538
 5863SOL    HW323225   4.891   4.338   3.136 -0.0659  0.1223 -0.7880
 5863SOL    MW423226   4.953   4.387   3.174 -0.7612  0.7169  0.1767
 5864SOL     OW23227   1.067   4.743   2.428 -0.0857 -0.2383  0.5128
 5864SOL    HW223228   1.014   4.814   2.393  0.5421 -0.6751 -1.4512
 5864SOL    HW323229   1.003   4.679   2.459 -0.6672  0.4192  0.6872
 5864SOL    MW423230   1.051   4.744   2.427 -0.4749  0.0070 -0.1019
 5865SOL     OW23231   4.969   5.241   2.308  0.2291  0.4134 -0.7435
 5865SOL    HW223232   5.021   5.307   2.352 -0.7466 -0.5224  2.0529
 5865SOL    HW323233   5.032   5.177   2.276  0.9783  0.9078 -0.2708
 5865SOL    MW423234   4.984   5.241   2.309 -0.5599  0.1342 -0.2365
 5866SOL     OW23235   0.473   0.794   2.309 -0.7307  0.7731 -0.1958
 5866SOL    HW223236   0.422   0.796   2.390  3.3299 -0.8818  2.7105
 5866SOL    HW323237   0.449   0.711   2.268  0.7399 -0.8825  2.0774
 5866SOL    MW423238   0.463   0.783   2.314  0.2740  0.9287 -1.0603
 5867SOL     OW23239   2.786   1.419   1.932 -0.6249  0.1377  0.7381
 5867SOL    HW223240   2.783   1.493   1.872 -2.1963  3.1052  4.0622
 5867SOL    HW323241   2.707   1.369   1.912 -0.9427  0.8794  0.0790
 5867SOL    MW423242   2.775   1.422   1.922  0.2079  0.9548  0.1630
 5868SOL     OW23243   5.670   4.496   4.133 -0.4342 -0.0292 -0.1163
 5868SOL    HW223244   5.659   4.497   4.038 -1.2905 -3.4189 -0.1839
 5868SOL    HW323245   5.616   4.568   4.165 -1.1942  0.3412 -2.1234
 5868SOL    MW423246   5.662   4.505   4.125  0.2555 -0.2377 -0.2390
 5869SOL     OW23247   0.587   4.643   1.363  0.0533 -0.2026 -0.4379
 5869SOL    HW223248   0.516   4.580   1.350 -0.7906  0.8728 -1.2107
 5869SOL    HW323249   0.667   4.591   1.356 -0.6313 -1.2257 -0.8307
 5869SOL    MW423250   0.588   4.628   1.360  0.0574  0.0929  0.1464
 5870SOL     OW23251   3.791   3.513   1.338 -0.2735  0.5655  0.4989
 5870SOL    HW223252   3.721   3.572   1.311  0.8613  0.3984 -3.4529
 5870SOL    HW323253   3.863   3.533   1.279  0.5461 -3.9843 -0.4555
 5870SOL    MW423254   3.791   3.523   1.327  0.3202 -0.1851 -0.3151
 5871SOL     OW23255   6.203   0.675   6.090 -0.5242  0.5748  0.3564
 5871SOL    HW223256   6.187   0.765   6.118  1.7322  1.2345 -0.2725
 5871SOL    HW323257   6.201   0.679   5.994  0.5992  0.1694  0.3101
 5871SOL    MW423258   6.200   0.687   6.081  0.7251 -0.2122  0.0749
 5872SOL     OW23259   0.461   5.563   5.311  0.2092  0.0549 -0.3749
 5872SOL    HW223260   0.438   5.558   5.218 -1.9063 -0.8073  0.1481
 5872SOL    HW323261   0.508   5.481   5.328 -0.2374 -0.2244 -0.4769
 5872SOL    MW423262   0.464   5.551   5.301  0.0301  0.0733 -0.6254
 5873SOL     OW23263   2.223   3.963   1.944 -0.1091  0.0486 -0.8193
 5873SOL    HW223264   2.134   3.940   1.917 -0.1384 -0.8138 -0.0502
 5873SOL    HW323265   2.214   3.988   2.036  0.5869 -1.1043 -0.4173
 5873SOL    MW423266   2.210   3.963   1.953  0.9498  0.7983  0.4163
 5874SOL     OW23267   1.682   2.916   5.150 -0.1013 -0.2293  0.1830
 5874SOL    HW223268   1.673   2.943   5.059 -1.4040 -0.0108  0.3599
 5874SOL    HW323269   1.712   2.825   5.145  1.2746  0.2279 -0.4330
 5874SOL    MW423270   1.685   2.907   5.138 -0.2220  0.3731 -0.2730
 5875SOL     OW23271   5.574   2.713   0.845  0.1125 -0.0220  0.0324
 5875SOL    HW223272   5.549   2.685   0.933 -1.2125 -0.7085 -0.5288
 5875SOL    HW323273   5.609   2.801   0.856 -0.7065  0.1837  1.1674
 5875SOL    MW423274   5.575   2.721   0.858  0.1427  0.0460  0.4796
 5876SOL     OW23275   4.115   1.714   5.523 -0.8905 -0.0179  0.1791
 5876SOL    HW223276   4.171   1.649   5.566 -1.2101 -0.7091 -0.4375
 5876SOL    HW323277   4.168   1.748   5.452 -1.1056 -0.3803 -0.1561
 5876SOL    MW423278   4.129   1.710   5.520  0.5486  0.0118 -0.0253
 5877SOL     OW23279   2.528   4.435   3.296  0.2317  0.0031  0.1322
 5877SOL    HW223280   2.543   4.437   3.202  0.2243  0.8244  0.1396
 5877SOL    HW323281   2.615   4.452   3.335 -0.0285  1.2116  0.2343
 5877SOL    MW423282   2.542   4.437   3.289  0.8510  0.2463  0.0322
 5878SOL     OW23283   2.138   1.119   3.094 -0.0330  0.6783  0.5949
 5878SOL    HW223284   2.050   1.156   3.102  0.2099  1.2452  0.7016
 5878SOL    HW323285   2.196   1.195   3.084  0.3869  0.2877 -0.0648
 5878SOL    MW423286   2.134   1.134   3.094  0.4806  0.4803  0.3555
 5879SOL     OW23287   1.204   5.568   0.047 -0.0462  0.2615 -0.3197
 5879SOL    HW223288   1.119   5.553   0.089  1.5753 -1.7497  2.6225
 5879SOL    HW323289   1.225   5.658   0.069 -0.8325  0.3472  0.1539
 5879SOL    MW423290   1.195   5.578   0.056 -0.6147  0.0838  0.0863
 5880SOL     OW23291   3.534   5.617   3.243  0.3352  0.1650  0.6441
 5880SOL    HW223292   3.557   5.544   3.301 -0.0894  0.6355  1.4144
 5880SOL    HW323293   3.467   5.581   3.185  0.6358 -0.2599  0.5548
 5880SOL    MW423294   3.528   5.603   3.243 -0.2194  0.3433 -0.2812
 5881SOL     OW23295   2.584   0.949   5.953 -0.5450  0.0014  0.2010
 5881SOL    HW223296   2.551   0.963   5.864  0.2051 -0.5946 -0.1851
 5881SOL    HW323297   2.568   0.856   5.969 -1.5397  0.2979  1.0674
 5881SOL    MW423298   2.578   0.938   5.943  0.0839 -0.2168 -0.4093
 5882SOL     OW23299   2.544   3.238   3.175  0.0067  0.3318 -0.1689
 5882SOL    HW223300   2.469   3.238   3.234  0.4998 -0.0643  0.4821
 5882SOL    HW323301   2.537   3.155   3.128  1.8329 -1.3889  2.3228
 5882SOL    MW423302   2.533   3.227   3.177 -0.0879  0.0782  0.1452
 5883SOL     OW23303   5.335   1.528   3.410 -0.4779  0.4112 -0.1084
 5883SOL    HW223304   5.277   1.465   3.455  0.8980  0.4123  1.7901
 5883SOL    HW323305   5.315   1.612   3.451 -0.6765  0.8239 -1.0245
 5883SOL    MW423306   5.325   1.531   3.421  0.0473  0.3448 -0.2306
 5884SOL     OW23307   3.676   3.517   1.763  0.1134 -0.1598  0.0064
 5884SOL    HW223308   3.638   3.449   1.707 -2.2788  0.3437  0.9027
 5884SOL    HW323309   3.725   3.572   1.703  0.3279 -1.4561 -1.0655
 5884SOL    MW423310   3.677   3.515   1.748  0.1842 -1.1751  0.2023
 5885SOL     OW23311   5.034   6.230   4.131  0.1259  0.2263 -0.0404
 5885SOL    HW223312   5.072   6.206   4.046  0.1266  2.3719 -0.7048
 5885SOL    HW323313   5.050   6.324   4.139 -1.4105  0.4104  1.5519
 5885SOL    MW423314   5.041   6.239   4.121 -0.0859 -0.0200  0.2576
 5886SOL     OW23315   2.556   4.804   3.052 -0.4231 -0.2469  0.3677
 5886SOL    HW223316   2.492   4.846   2.994  0.6140  0.1917 -0.4983
 5886SOL    HW323317   2.533   4.834   3.140 -1.2452  0.0961  0.0427
 5886SOL    MW423318   2.544   4.813   3.056  0.1736  0.3917 -0.5770
 5887SOL     OW23319   2.116   4.765   2.639 -0.3468  0.6222  0.3039
 5887SOL    HW223320   2.156   4.730   2.560 -0.0471 -0.6333  0.9787
 5887SOL    HW323321   2.022   4.751   2.627 -0.2455 -0.2752  0.4810
 5887SOL    MW423322   2.109   4.759   2.627  0.1567 -0.4500 -0.3436
 5888SOL     OW23323   1.487   5.587   4.152  1.0815  0.4895 -0.5052
 5888SOL    HW223324   1.514   5.643   4.080  2.6232  0.7181  0.2074
 5888SOL    HW323325   1.498   5.498   4.119  4.6694  0.4865  0.2867
 5888SOL    MW423326   1.492   5.582   4.139  0.1635 -0.0671 -0.0637
 5889SOL     OW23327   0.985   3.189   0.682 -0.4387 -0.2059 -0.1409
 5889SOL    HW223328   0.963   3.270   0.729 -0.8295 -0.7707  0.6916
 5889SOL    HW323329   1.043   3.217   0.611  0.1469  0.6909  0.6617
 5889SOL    MW423330   0.989   3.203   0.679  0.0319  0.0283 -0.0361
 5890SOL     OW23331   0.148   1.790   0.374  0.0491 -0.7660 -0.6243
 5890SOL    HW223332   0.125   1.712   0.426  1.0614  0.1036  1.1991
 5890SOL    HW323333   0.243   1.791   0.373  0.0802 -0.7727 -2.6352
 5890SOL    MW423334   0.157   1.780   0.380  0.4573  0.2274  0.0909
 5891SOL     OW23335   0.265   5.426   2.801  0.2451 -0.0419 -0.1620
 5891SOL    HW223336   0.308   5.511   2.809  2.7212 -1.2409  0.2509
 5891SOL    HW323337   0.291   5.379   2.880 -3.1327 -0.4239  0.9148
 5891SOL    MW423338   0.274   5.431   2.813  0.3610  0.4677 -0.2881
 5892SOL     OW23339   5.600   4.705   1.808  0.6871 -0.5919 -0.0034
 5892SOL    HW223340   5.691   4.691   1.835  0.4018 -1.8775  0.3567
 5892SOL    HW323341   5.607   4.731   1.716  1.3675 -2.1831 -0.4368
 5892SOL    MW423342   5.613   4.707   1.799 -0.0452  0.4193  0.0155
 5893SOL     OW23343   3.220   1.655   1.647 -0.3542  0.2568 -0.2817
 5893SOL    HW223344   3.299   1.659   1.593 -0.8726 -0.0130 -1.0715
 5893SOL    HW323345   3.204   1.747   1.671  0.5505  0.2451  0.4210
 5893SOL    MW423346   3.229   1.668   1.643  0.2398 -0.2215  0.0950
 5894SOL     OW23347   0.440   0.979   2.854  0.2475 -0.4851  0.2017
 5894SOL    HW223348   0.518   0.958   2.906 -0.0380 -0.3555  0.6911
 5894SOL    HW323349   0.464   1.059   2.807  0.5012 -0.5900  0.1504
 5894SOL    MW423350   0.454   0.987   2.855 -0.5647  0.2071  0.4430
 5895SOL     OW23351   0.931   2.484   0.385  0.7995  0.0580 -0.0770
 5895SOL    HW223352   0.965   2.559   0.337  0.7557 -0.0426 -0.2675
 5895SOL    HW323353   0.873   2.440   0.322 -1.1160  1.2231  0.7713
 5895SOL    MW423354   0.928   2.488   0.370  0.7274 -0.2357  0.4587
 5896SOL     OW23355   4.931   2.119   0.806 -0.5042 -0.2637  0.0917
 5896SOL    HW223356   4.986   2.155   0.875  0.3262 -0.1472 -0.6087
 5896SOL    HW323357   4.853   2.087   0.851 -0.5051  0.8630  0.9294
 5896SOL    MW423358   4.928   2.119   0.821  0.4323 -0.0424 -0.2317
 5897SOL     OW23359   5.327   5.140   2.111  0.2526 -0.0482  0.3105
 5897SOL    HW223360   5.280   5.112   2.189  1.4380  3.1096  2.3547
 5897SOL    HW323361   5.261   5.138   2.041 -0.8138 -3.0318  1.2433
 5897SOL    MW423362   5.312   5.136   2.112 -0.3947  0.3395  0.7341
 5898SOL     OW23363   4.739   2.776   0.134 -0.3127 -0.0906  0.1052
 5898SOL    HW223364   4.723   2.688   0.167  1.4219 -0.7462 -0.7223
 5898SOL    HW323365   4.712   2.773   0.042  0.3070  0.0647 -0.0857
 5898SOL    MW423366   4.733   2.764   0.126  0.0209 -0.2088 -0.8320
 5899SOL     OW23367   2.138   0.652   1.978 -0.1921  0.1375  0.5846
 5899SOL    HW223368   2.203   0.698   2.031  1.0746 -1.2051  0.2297
 5899SOL    HW323369   2.081   0.722   1.945  1.1963  1.3787  0.7223
 5899SOL    MW423370   2.139   0.668   1.980  0.3574 -0.2370  0.3133
 5900SOL     OW23371   3.608   5.223   4.416  0.3392 -0.4178  0.1276
 5900SOL    HW223372   3.538   5.224   4.482 -0.6063  1.6482 -0.7993
 5900SOL    HW323373   3.687   5.204   4.466 -0.6303 -1.0574  1.5094
 5900SOL    MW423374   3.609   5.221   4.432 -0.1205  0.0717  0.4059
 5901SOL     OW23375   0.048   2.294   0.731 -0.2123  1.0953  0.3998
 5901SOL    HW223376   0.076   2.270   0.642 -1.8622  1.8019 -0.3726
 5901SOL    HW323377   0.014   2.212   0.768  1.2452  0.6156  0.7082
 5901SOL    MW423378   0.047   2.280   0.724 -0.2138 -0.3289 -0.3214
 5902SOL     OW23379   3.768   6.100   3.160  0.8033  0.6562  1.1022
 5902SOL    HW223380   3.681   6.132   3.137  1.7148  1.7075 -1.1902
 5902SOL    HW323381   3.767   6.007   3.138  0.3117  0.6911  0.9761
 5902SOL    MW423382   3.757   6.092   3.154 -0.0446  0.3980 -0.0589
 5903SOL     OW23383   1.813   2.691   4.278 -0.6909 -0.6436  0.5739
 5903SOL    HW223384   1.718   2.691   4.273 -0.8438 -0.1402  2.6770
 5903SOL    HW323385   1.836   2.603   4.307 -0.4632 -0.8566 -0.2100
 5903SOL    MW423386   1.804   2.679   4.281  0.2948 -0.5238  0.0743
 5904SOL     OW23387   1.178   6.314   2.452  0.2628  0.2382 -0.0378
 5904SOL    HW223388   1.266   6.313   2.490 -0.1830 -0.9474  1.0125
 5904SOL    HW323389   1.190   6.357   2.367  1.6464  1.0932  0.5498
 5904SOL    MW423390   1.191   6.319   2.446 -0.1923  0.2138 -0.7391
 5905SOL     OW23391   5.054   2.626   3.595 -0.0375  0.0513 -0.4854
 5905SOL    HW223392   4.963   2.648   3.614  0.5825  1.2339  1.4613
 5905SOL    HW323393   5.070   2.661   3.507 -0.7261  2.4163  0.2648
 5905SOL    MW423394   5.044   2.634   3.586  0.0879 -0.2729  0.3469
 5906SOL     OW23395   4.152   1.786   3.672 -0.0824  0.0745  0.4164
 5906SOL    HW223396   4.156   1.783   3.576  1.5329 -2.9132  0.4711
 5906SOL    HW323397   4.058   1.797   3.691 -0.5050  0.1536 -1.5010
 5906SOL    MW423398   4.140   1.787   3.662  0.4517  0.6829  0.2799
 5907SOL     OW23399   3.076   4.414   5.323 -0.4459  0.6894 -0.6562
 5907SOL    HW223400   3.147   4.393   5.261 -0.6595 -0.6119 -0.4996
 5907SOL    HW323401   3.100   4.367   5.403 -1.0342  0.9641 -0.3146
 5907SOL    MW423402   3.089   4.405   5.325 -0.2927  0.5403 -0.4394
 5908SOL     OW23403   3.372   5.141   5.143  0.1587 -0.2236  0.1095
 5908SOL    HW223404   3.313   5.175   5.076 -0.1342  1.6847  1.2545
 5908SOL    HW323405   3.459   5.171   5.115  0.2294 -0.6700 -0.1545
 5908SOL    MW423406   3.376   5.150   5.131  0.3613 -0.4861 -0.0034
 5909SOL     OW23407   0.855   4.068   2.382 -0.1817 -0.0412  0.0247
 5909SOL    HW223408   0.907   4.001   2.339 -2.1485 -0.2756 -2.1431
 5909SOL    HW323409   0.911   4.146   2.380  0.2308 -0.3371 -2.0003
 5909SOL    MW423410   0.869   4.070   2.376 -0.1614 -0.3338 -0.1668
 5910SOL     OW23411   0.608   1.540   1.311 -0.0139  0.4882  0.3925
 5910SOL    HW223412   0.604   1.531   1.215  0.8324  1.7464  0.2083
 5910SOL    HW323413   0.564   1.462   1.344 -0.1012 -0.1041 -1.0227
 5910SOL    MW423414   0.602   1.529   1.303 -0.2792 -0.5643 -0.6291
 5911SOL     OW23415   2.187   5.565   5.282  0.5658  0.5529  0.0598
 5911SOL    HW223416   2.160   5.566   5.373 -0.6681  0.0618 -0.2866
 5911SOL    HW323417   2.279   5.539   5.285  0.4589  0.2516  1.1390
 5911SOL    MW423418   2.196   5.562   5.294 -0.3832 -0.1892 -0.2668
 5912SOL     OW23419   5.639   1.354   2.058  0.0231 -0.5132 -0.0524
 5912SOL    HW223420   5.562   1.369   2.004  0.5173  0.5845 -0.4805
 5912SOL    HW323421   5.672   1.268   2.029 -0.5327 -0.5933 -0.4673
 5912SOL    MW423422   5.634   1.344   2.047 -0.4073 -0.1263  0.4305
 5913SOL     OW23423   1.636   1.582   4.732 -0.3726 -0.0548 -0.0645
 5913SOL    HW223424   1.688   1.661   4.720 -1.3328  0.6752  0.4575
 5913SOL    HW323425   1.546   1.611   4.723 -0.7110 -1.6410 -2.9988
 5913SOL    MW423426   1.631   1.596   4.730 -0.1566  0.0416  0.0151
 5914SOL     OW23427   2.424   0.728   2.581 -0.0554 -0.2854 -0.2477
 5914SOL    HW223428   2.407   0.820   2.562 -2.2733 -0.4980  0.4464
 5914SOL    HW323429   2.381   0.680   2.510  1.3110 -0.8304 -0.7556
 5914SOL    MW423430   2.416   0.734   2.569  1.0669  0.0252  0.3365
 5915SOL     OW23431   4.559   0.492   3.640  0.6915 -0.3857  0.0809
 5915SOL    HW223432   4.596   0.550   3.707 -1.9062  1.5260  0.0153
 5915SOL    HW323433   4.471   0.526   3.625 -0.0372 -2.8425 -1.8894
 5915SOL    MW423434   4.552   0.504   3.647 -0.4575  0.0319 -0.1980
 5916SOL     OW23435   0.603   1.245   4.048 -0.1899 -0.4205  0.0688
 5916SOL    HW223436   0.602   1.150   4.061 -0.3202 -0.6378 -1.3925
 5916SOL    HW323437   0.516   1.264   4.013  0.4920 -0.0677 -1.5159
 5916SOL    MW423438   0.591   1.235   4.045  0.5803  0.4743 -0.5314
 5917SOL     OW23439   2.525   6.182   2.441 -0.8221  0.1690 -0.7041
 5917SOL    HW223440   2.455   6.117   2.442 -0.4929 -0.1896  0.2953
 5917SOL    HW323441   2.480   6.265   2.424 -1.5625  0.0040  0.3369
 5917SOL    MW423442   2.510   6.184   2.439  0.0990  0.0553  0.3668
 5918SOL     OW23443   4.135   0.998   4.851 -0.2481 -0.0827 -0.1989
 5918SOL    HW223444   4.039   0.993   4.854 -0.3563  1.0579 -1.0679
 5918SOL    HW323445   4.155   1.013   4.759  0.8161 -0.8363 -0.1030
 5918SOL    MW423446   4.125   0.999   4.839 -0.0168 -0.1462 -0.0170
 5919SOL     OW23447   6.122   3.763   5.319  0.1146  0.2019 -0.5655
 5919SOL    HW223448   6.103   3.813   5.398 -0.1444  1.0716 -1.1699
 5919SOL    HW323449   6.134   3.673   5.350 -1.7269  0.1995  0.2558
 5919SOL    MW423450   6.121   3.757   5.334  0.0993 -0.0474 -0.1323
 5920SOL     OW23451   2.801   0.343   5.745 -1.1723 -0.8354 -0.3251
 5920SOL    HW223452   2.893   0.354   5.770 -1.6210  0.2857  0.9360
 5920SOL    HW323453   2.805   0.309   5.656  0.4687 -1.9798  0.1307
 5920SOL    MW423454   2.814   0.340   5.737 -0.4848 -0.0653  0.1791
 5921SOL     OW23455   1.649   5.493   4.385 -0.5595  0.5271  0.0698
 5921SOL    HW223456   1.616   5.541   4.461 -1.7252 -1.9341  1.2557
 5921SOL    HW323457   1.601   5.530   4.311 -2.5810  0.2255  1.1426
 5921SOL    MW423458   1.638   5.504   4.386 -0.0045  0.4608 -0.0395
 5922SOL     OW23459   4.719   3.733   1.127  0.1949  0.9242 -0.3354
 5922SOL    HW223460   4.678   3.701   1.047 -1.7531  0.8282  0.6432
 5922SOL    HW323461   4.740   3.825   1.109  2.4455  0.2035 -1.8802
 5922SOL    MW423462   4.717   3.741   1.114 -0.0173  0.0318  0.3704
 5923SOL     OW23463   0.780   2.132   2.450  0.2202  0.5063  0.0493
 5923SOL    HW223464   0.793   2.173   2.365 -0.7234  0.8346  0.0453
 5923SOL    HW323465   0.850   2.167   2.505  2.0876 -1.2499 -1.0817
 5923SOL    MW423466   0.791   2.142   2.446 -0.2998 -0.5087  0.2158
 5924SOL     OW23467   5.513   3.752   1.456  0.1129  0.4393  0.1473
 5924SOL    HW223468   5.469   3.760   1.371  0.7475 -0.4483 -0.2792
 5924SOL    HW323469   5.446   3.775   1.520 -0.3495  1.2169 -0.5905
 5924SOL    MW423470   5.498   3.756   1.453 -0.1197 -0.0504  0.2046
 5925SOL     OW23471   2.831   0.980   5.833 -0.3887  0.0721 -0.0119
 5925SOL    HW223472   2.745   0.998   5.871 -0.1314 -0.0725  0.6628
 5925SOL    HW323473   2.829   1.023   5.748 -0.7848  0.9142  0.4039
 5925SOL    MW423474   2.819   0.988   5.827 -0.2668  0.7383  0.6271
 5926SOL     OW23475   3.729   5.944   0.221 -0.1268 -0.1781  0.5715
 5926SOL    HW223476   3.732   6.011   0.290 -2.8735  2.9845 -2.0311
 5926SOL    HW323477   3.640   5.909   0.225  0.1201 -0.9800 -0.4537
 5926SOL    MW423478   3.718   5.949   0.231  0.0304 -0.2881  0.3404
 5927SOL     OW23479   3.523   0.627   5.240 -0.2396  0.2618  0.3573
 5927SOL    HW223480   3.563   0.642   5.154 -2.0798  0.4205 -0.5273
 5927SOL    HW323481   3.593   0.588   5.292  0.6205 -0.9298 -1.5628
 5927SOL    MW423482   3.538   0.624   5.235  0.0907 -0.4217 -0.5833
 5928SOL     OW23483   4.467   5.418   4.356  0.1088 -0.7084 -0.2528
 5928SOL    HW223484   4.552   5.390   4.322 -0.1804  0.4405 -2.0350
 5928SOL    HW323485   4.459   5.373   4.440  2.4096 -0.9687 -0.1110
 5928SOL    MW423486   4.477   5.409   4.363 -0.0465  0.6686  0.1206
 5929SOL     OW23487   2.985   3.210   5.486 -0.1139  0.1379  0.1240
 5929SOL    HW223488   2.915   3.193   5.550  1.2986 -2.2164  1.2078
 5929SOL    HW323489   3.033   3.284   5.522 -0.3151 -0.1172  0.9524
 5929SOL    MW423490   2.982   3.217   5.499 -0.1327 -0.2786  0.5302
 5930SOL     OW23491   5.951   4.470   3.660 -0.1904  0.0427 -0.1543
 5930SOL    HW223492   6.041   4.448   3.683 -0.6582 -1.5551  0.3033
 5930SOL    HW323493   5.947   4.461   3.565  0.3153  0.8817 -0.2578
 5930SOL    MW423494   5.962   4.466   3.650  0.2266 -0.1572  0.3442
 5931SOL     OW23495   2.421   0.429   2.159 -0.7052 -0.1452  0.1845
 5931SOL    HW223496   2.365   0.373   2.213  0.8953 -2.7078 -0.6636
 5931SOL    HW323497   2.405   0.400   2.069  3.5160 -2.7502  0.0081
 5931SOL    MW423498   2.412   0.418   2.154  0.4236 -0.1718 -0.7108
 5932SOL     OW23499   0.645   3.690   0.048 -0.0690  0.0830  0.3547
 5932SOL    HW223500   0.634   3.605   0.006  0.3367  0.0086  0.3938
 5932SOL    HW323501   0.597   3.683   0.131  1.3624 -0.6974  1.1538
 5932SOL    MW423502   0.637   3.678   0.054 -0.1668 -0.1849  0.0999
 5933SOL     OW23503   2.659   6.361   5.427 -0.1398  0.6227 -0.4700
 5933SOL    HW223504   2.690   6.275   5.456 -1.7749 -0.0558 -0.6619
 5933SOL    HW323505   2.627   6.346   5.338  0.1202  1.5743 -0.7329
 5933SOL    MW423506   2.659   6.348   5.419 -0.3349 -0.2527  0.1795
 5934SOL     OW23507   3.196   4.165   3.055  0.4831 -0.0284  0.0326
 5934SOL    HW223508   3.236   4.191   2.972  0.1817  0.4307  0.0255
 5934SOL    HW323509   3.123   4.108   3.029  1.4315 -1.2919  0.0708
 5934SOL    MW423510   3.192   4.161   3.041  0.0815  0.3504  0.5380
 5935SOL     OW23511   2.410   1.432   4.617  0.1591  0.2510 -0.2602
 5935SOL    HW223512   2.373   1.387   4.693  1.1165  0.3820  0.2998
 5935SOL    HW323513   2.447   1.361   4.564  0.3585  0.2441 -0.1133
 5935SOL    MW423514   2.410   1.417   4.620  0.0847 -0.5692  0.1994
 5936SOL     OW23515   2.751   1.566   2.179  0.4767 -0.0418 -0.2232
 5936SOL    HW223516   2.655   1.563   2.179  0.4145 -3.0346  2.4105
 5936SOL    HW323517   2.777   1.514   2.103  0.1013  1.6116 -1.5357
 5936SOL    MW423518   2.742   1.559   2.169  0.1161  0.1499  0.0866
 5937SOL     OW23519   2.392   3.406   1.021 -0.3320  0.1953 -0.4812
 5937SOL    HW223520   2.430   3.487   0.988 -0.3918  0.5529  0.3040
 5937SOL    HW323521   2.319   3.435   1.077 -0.7498 -0.4215 -0.6974
 5937SOL    MW423522   2.387   3.421   1.024  0.1481 -0.6671 -0.0955
 5938SOL     OW23523   5.594   3.697   3.193  0.1452  0.0400  0.0072
 5938SOL    HW223524   5.535   3.759   3.150  0.7975  0.1562 -0.7481
 5938SOL    HW323525   5.547   3.614   3.190 -0.6607  0.4418  0.8643
 5938SOL    MW423526   5.580   3.694   3.187  0.3557 -0.2355 -0.1812
 5939SOL     OW23527   2.153   3.315   0.613 -0.3164 -0.2692 -0.5060
 5939SOL    HW223528   2.118   3.259   0.543 -0.0849  0.2885 -1.0762
 5939SOL    HW323529   2.221   3.367   0.570  0.1238 -0.2225  0.2377
 5939SOL    MW423530   2.157   3.314   0.598  0.0469  0.1351 -0.3739
 5940SOL     OW23531   3.590   1.890   6.039 -0.0302 -0.1333  0.1853
 5940SOL    HW223532   3.642   1.938   6.104 -0.2670 -0.1762  0.4092
 5940SOL    HW323533   3.628   1.802   6.038  0.1054 -0.0742  0.1155
 5940SOL    MW423534   3.602   1.885   6.047  0.6711  0.1474 -0.1358
 5941SOL     OW23535   1.417   5.282   1.293  0.2863 -0.1991  0.0058
 5941SOL    HW223536   1.484   5.247   1.233  1.3351  3.8309 -1.4842
 5941SOL    HW323537   1.416   5.220   1.366  0.8919 -3.9295 -2.8638
 5941SOL    MW423538   1.426   5.269   1.295 -0.1521 -0.3986 -0.2210
 5942SOL     OW23539   2.341   1.286   2.999 -0.3236  0.0223 -0.3440
 5942SOL    HW223540   2.371   1.365   2.955 -1.2269 -0.7776 -2.5085
 5942SOL    HW323541   2.412   1.223   2.986  0.4593  0.4485  1.5020
 5942SOL    MW423542   2.354   1.288   2.992  0.2686  0.6993 -0.2475
 5943SOL     OW23543   2.448   0.131   3.561 -0.1310  0.0582 -0.3558
 5943SOL    HW223544   2.511   0.061   3.544 -0.5257 -0.1432 -0.9941
 5943SOL    HW323545   2.404   0.105   3.641 -0.4536 -0.5519 -0.7286
 5943SOL    MW423546   2.451   0.119   3.569  0.3322  0.2957  0.2983
 5944SOL     OW23547   1.937   6.391   2.024  0.2176  0.1048 -0.3062
 5944SOL    HW223548   1.861   6.336   2.005  0.0570  0.5680 -1.0324
 5944SOL    HW323549   1.906   6.454   2.089  0.7024 -1.3326  1.4066
 5944SOL    MW423550   1.923   6.392   2.030  0.1563  0.4702  0.5407
 5945SOL     OW23551   2.209   2.940   5.365 -0.3324 -0.4388 -0.0163
 5945SOL    HW223552   2.279   2.879   5.342 -1.3145 -0.8361 -2.2015
 5945SOL    HW323553   2.225   3.017   5.310  0.3109  0.9467  1.9745
 5945SOL    MW423554   2.220   2.942   5.355  0.2761  0.1401  0.7404
 5946SOL     OW23555   4.745   4.664   0.726 -0.0859  0.2304 -0.2544
 5946SOL    HW223556   4.703   4.727   0.668 -2.0918  0.8915  1.7498
 5946SOL    HW323557   4.704   4.581   0.705  0.2731  0.1734 -0.7546
 5946SOL    MW423558   4.734   4.662   0.716 -0.4415  0.3506  0.2331
 5947SOL     OW23559   0.048   4.533   6.279 -0.0743  0.0419  0.2219
 5947SOL    HW223560  -0.005   4.612   6.281 -0.5989 -0.3164  0.7497
 5947SOL    HW323561   0.006   4.474   6.342  1.1944 -0.0994  0.9674
 5947SOL    MW423562   0.035   4.535   6.288  0.5896 -0.4188  0.6907
 5948SOL     OW23563   5.721   2.732   0.481  0.0020 -0.2123 -0.3826
 5948SOL    HW223564   5.630   2.720   0.508 -0.2853 -0.4226 -1.4176
 5948SOL    HW323565   5.751   2.808   0.532 -0.2866 -1.0180  1.0497
 5948SOL    MW423566   5.713   2.741   0.491 -0.2540 -0.1104 -0.0569
 5949SOL     OW23567   0.376   3.812   2.874  0.3219  0.1759  0.4389
 5949SOL    HW223568   0.405   3.752   2.805  1.8529  0.4041  0.8525
 5949SOL    HW323569   0.394   3.766   2.956 -2.1697 -0.4064  0.7444
 5949SOL    MW423570   0.382   3.798   2.876  0.0057  0.1826  0.3023
 5950SOL     OW23571   2.012   1.441   1.525  0.1261  0.1799 -0.1417
 5950SOL    HW223572   1.956   1.515   1.501  1.3509  0.7939 -1.2886
 5950SOL    HW323573   2.067   1.475   1.596  0.2899  0.1852 -0.2701
 5950SOL    MW423574   2.012   1.455   1.531  0.3401 -0.1180 -0.2170
 5951SOL     OW23575   0.772   2.580   2.278  0.1292 -0.4706  0.0782
 5951SOL    HW223576   0.747   2.649   2.339 -0.0928 -1.1338  0.7397
 5951SOL    HW323577   0.760   2.620   2.191 -0.3644  0.1971  0.4454
 5951SOL    MW423578   0.767   2.594   2.274  0.4509 -0.1797  0.2248
 5952SOL     OW23579   3.917   4.306   1.756 -0.2035  0.2529 -0.0725
 5952SOL    HW223580   3.836   4.352   1.735  0.3708  1.7116  0.7635
 5952SOL    HW323581   3.945   4.344   1.840  0.9006 -0.8237  0.0738
 5952SOL    MW423582   3.910   4.317   1.765  0.2682  1.0195  0.0382
 5953SOL     OW23583   2.135   4.748   3.006  0.3187 -0.1369 -0.1766
 5953SOL    HW223584   2.068   4.706   2.953  0.3280 -0.2941 -0.0620
 5953SOL    HW323585   2.216   4.735   2.956  0.6709 -1.9715  0.7829
 5953SOL    MW423586   2.137   4.741   2.992  0.1145 -0.6625 -0.0518
 5954SOL     OW23587   4.779   0.719   4.268 -0.0729 -0.0161 -0.2340
 5954SOL    HW223588   4.866   0.758   4.270 -0.1670  0.1958  1.7018
 5954SOL    HW323589   4.720   0.791   4.248 -0.0460  0.4997  1.3658
 5954SOL    MW423590   4.783   0.733   4.266 -0.2252 -0.4216  0.2676
 5955SOL     OW23591   1.921   5.584   4.399 -0.4219 -0.0342 -0.1896
 5955SOL    HW223592   1.845   5.526   4.394 -1.0195  0.7338 -0.3458
 5955SOL    HW323593   1.950   5.579   4.490 -1.1635  0.2776  0.0729
 5955SOL    MW423594   1.915   5.576   4.410 -0.1334 -0.1448  0.0816
 5956SOL     OW23595   3.352   4.596   0.705 -0.6585  0.1260 -0.4793
 5956SOL    HW223596   3.340   4.533   0.634 -0.1714 -0.1672 -0.3037
 5956SOL    HW323597   3.385   4.675   0.661 -0.9046  0.1363 -0.6490
 5956SOL    MW423598   3.354   4.598   0.690  0.7172 -0.0640 -0.2787
 5957SOL     OW23599   5.900   5.044   4.987 -0.3364 -0.3098 -0.0182
 5957SOL    HW223600   5.951   5.091   5.053 -0.6517 -0.9276  0.6853
 5957SOL    HW323601   5.958   5.037   4.912 -0.3081  1.2612 -0.1842
 5957SOL    MW423602   5.914   5.049   4.986  0.2751  0.2477 -0.7460
 5958SOL     OW23603   2.320   0.800   2.129 -0.1987 -0.1872  0.1751
 5958SOL    HW223604   2.391   0.784   2.068 -1.9376 -1.7211 -1.5831
 5958SOL    HW323605   2.331   0.733   2.197  0.6293  0.2841  0.5201
 5958SOL    MW423606   2.331   0.789   2.130  0.2530  0.2311 -0.3324
 5959SOL     OW23607   0.397   2.626   0.411  0.1613 -0.5180 -0.0123
 5959SOL    HW223608   0.408   2.720   0.397 -1.7997 -0.0869  0.9192
 5959SOL    HW323609   0.402   2.615   0.506 -1.3368 -1.0514  0.0333
 5959SOL    MW423610   0.399   2.637   0.422  0.8924  0.7479 -0.4712
 5960SOL     OW23611   4.303   6.127   2.665 -0.5983 -0.4133 -0.3104
 5960SOL    HW223612   4.306   6.035   2.637  0.1310 -0.2051 -0.9585
 5960SOL    HW323613   4.395   6.152   2.676 -0.8262 -0.1391  1.1863
 5960SOL    MW423614   4.316   6.118   2.662 -1.1212 -0.5448 -0.0442
 5961SOL     OW23615   4.560   6.274   0.875  0.5588 -0.4082  0.1028
 5961SOL    HW223616   4.624   6.280   0.946  0.9343  2.1416 -0.3567
 5961SOL    HW323617   4.494   6.339   0.896 -0.4703 -1.0981 -0.8410
 5961SOL    MW423618   4.560   6.283   0.887  0.7022 -0.0479 -0.1432
 5962SOL     OW23619   0.131   1.225   3.298 -0.6580  0.2712  0.4935
 5962SOL    HW223620   0.126   1.296   3.235 -0.7156 -2.2852 -2.6748
 5962SOL    HW323621   0.180   1.261   3.372 -0.0347  3.3299 -1.2581
 5962SOL    MW423622   0.137   1.239   3.299 -0.4042 -0.2376 -0.2743
 5963SOL     OW23623   1.526   2.663   5.412 -0.5010  0.8003 -0.3245
 5963SOL    HW223624   1.619   2.685   5.423  0.0464 -1.1489 -0.8261
 5963SOL    HW323625   1.492   2.732   5.355  0.1089  2.7159  1.4945
 5963SOL    MW423626   1.534   2.675   5.406 -0.6807  0.0211 -0.3223
 5964SOL     OW23627   0.324   1.957   2.758 -0.2193  0.5566  0.2805
 5964SOL    HW223628   0.279   1.999   2.685 -0.0860 -0.0420 -0.1470
 5964SOL    HW323629   0.416   1.958   2.733 -0.1705  0.3549  0.4485
 5964SOL    MW423630   0.330   1.963   2.745 -0.0060 -0.0527  0.4428
 5965SOL     OW23631   2.810   2.206   1.978 -0.6879  0.0663  0.1697
 5965SOL    HW223632   2.866   2.160   2.040 -0.5357 -1.5774 -1.1038
 5965SOL    HW323633   2.773   2.137   1.923 -0.8432  1.4200 -1.5380
 5965SOL    MW423634   2.812   2.191   1.979  0.5736 -0.1546  0.4785
 5966SOL     OW23635   4.941   2.615   4.257  0.1485  0.1306  0.0455
 5966SOL    HW223636   4.936   2.520   4.266  1.0076  0.1777  1.3187
 5966SOL    HW323637   5.031   2.631   4.227 -0.1434  0.5177 -0.6396
 5966SOL    MW423638   4.952   2.605   4.254  0.4361 -0.1681 -0.0781
 5967SOL     OW23639   5.285   1.204   0.706 -0.1344 -0.1034 -0.2308
 5967SOL    HW223640   5.259   1.294   0.723  0.5858 -0.1068  1.0801
 5967SOL    HW323641   5.375   1.199   0.738 -0.6927 -1.6789  1.2770
 5967SOL    MW423642   5.294   1.215   0.713  0.6052 -0.3681  0.5584
 5968SOL     OW23643   4.258   5.545   2.136 -0.2857 -0.0685  0.0199
 5968SOL    HW223644   4.308   5.589   2.204 -1.1012 -0.6189  0.9976
 5968SOL    HW323645   4.169   5.538   2.172 -0.2812 -2.1180 -0.2805
 5968SOL    MW423646   4.253   5.550   2.149  0.6062 -0.2747 -0.1172
 5969SOL     OW23647   0.652   2.770   3.591  0.0772 -0.0968  0.0705
 5969SOL    HW223648   0.573   2.731   3.552  1.4565 -2.3847 -0.6271
 5969SOL    HW323649   0.705   2.796   3.516 -0.1759  1.9721  0.5356
 5969SOL    MW423650   0.648   2.769   3.576  0.3262  0.0711  0.4405
 5970SOL     OW23651   5.135   2.799   1.786 -0.3622 -0.3059  0.0938
 5970SOL    HW223652   5.078   2.745   1.732  0.3214 -1.1526  0.1940
 5970SOL    HW323653   5.223   2.785   1.750 -0.1258  0.4695  0.3457
 5970SOL    MW423654   5.139   2.790   1.774 -0.3560  0.4120 -0.4879
 5971SOL     OW23655   1.188   0.086   5.193  0.2343  0.5620  0.1208
 5971SOL    HW223656   1.202   0.145   5.267  1.5641  0.3038  0.1127
 5971SOL    HW323657   1.276   0.073   5.157  0.0067 -1.5581  0.2320
 5971SOL    MW423658   1.202   0.093   5.198  0.4713  0.1070 -0.2086
 5972SOL     OW23659   3.476   1.423   1.751 -0.2606 -0.0424  0.2310
 5972SOL    HW223660   3.555   1.399   1.800  0.5858  0.4834 -0.8524
 5972SOL    HW323661   3.432   1.487   1.807  0.4689  0.2291  0.5076
 5972SOL    MW423662   3.481   1.428   1.765  0.2086 -0.1977  0.4822
 5973SOL     OW23663   3.969   5.290   5.541 -0.4160 -0.2157 -0.0216
 5973SOL    HW223664   3.876   5.275   5.562 -0.2868 -0.4373  0.4073
 5973SOL    HW323665   3.968   5.364   5.481 -0.9454 -0.8846 -0.8507
 5973SOL    MW423666   3.956   5.298   5.536  0.1086  0.4915  0.2540
 5974SOL     OW23667   1.644   2.212   5.563  0.6558 -0.4751  0.0148
 5974SOL    HW223668   1.571   2.175   5.512  0.4688 -1.4432  0.9495
 5974SOL    HW323669   1.634   2.173   5.650  0.6759  1.5067  0.9588
 5974SOL    MW423670   1.633   2.202   5.568  0.1639 -0.3630  0.8263
 5975SOL     OW23671   1.485   1.200   4.293 -0.0542  0.1773  0.0533
 5975SOL    HW223672   1.524   1.155   4.367  0.2690  0.0915 -0.1671
 5975SOL    HW323673   1.392   1.180   4.298  0.0922 -0.5488 -0.0665
 5975SOL    MW423674   1.478   1.192   4.303 -0.1630 -0.3947 -0.1520
 5976SOL     OW23675   5.037   5.572   0.745 -0.5869  0.6967  0.3805
 5976SOL    HW223676   4.967   5.631   0.771 -1.0447  0.4034 -0.1571
 5976SOL    HW323677   4.992   5.498   0.704  0.0368  0.5425 -0.0487
 5976SOL    MW423678   5.022   5.570   0.743  0.7612  0.2723 -0.0159
 5977SOL     OW23679   3.121   0.938   2.284 -0.1912 -0.3075 -0.7638
 5977SOL    HW223680   3.074   0.973   2.208 -1.0507  0.8841  0.2839
 5977SOL    HW323681   3.212   0.931   2.255  0.4516  4.5169 -0.5926
 5977SOL    MW423682   3.127   0.941   2.270 -0.4930  0.3702  0.3458
 5978SOL     OW23683   0.274   5.617   3.753 -0.4875  0.2546  0.6086
 5978SOL    HW223684   0.226   5.651   3.829 -1.4947  1.2601 -0.4361
 5978SOL    HW323685   0.261   5.523   3.758  1.5939 -0.0262  3.0653
 5978SOL    MW423686   0.266   5.609   3.764 -0.5038  0.0418  0.2603
 5979SOL     OW23687   2.083   3.699   5.135  0.6347  0.1644  0.4415
 5979SOL    HW223688   2.176   3.710   5.114  0.7614  0.9960  1.3799
 5979SOL    HW323689   2.055   3.624   5.082  1.8702 -0.1892  0.2610
 5979SOL    MW423690   2.091   3.691   5.125 -0.6935  0.3809  0.2993
 5980SOL     OW23691   0.536   0.949   4.102 -0.1982  0.0004  0.4305
 5980SOL    HW223692   0.617   0.899   4.105  0.4127  0.9830  0.8314
 5980SOL    HW323693   0.507   0.943   4.011  0.5190 -0.0593  0.2011
 5980SOL    MW423694   0.543   0.942   4.090 -0.3108 -0.0320  0.0298
 5981SOL     OW23695   4.022   1.116   5.825  0.7268 -0.2814 -0.1784
 5981SOL    HW223696   3.974   1.052   5.879  1.1605 -1.2105 -0.8684
 5981SOL    HW323697   3.969   1.195   5.830  0.6823 -0.3752  1.4962
 5981SOL    MW423698   4.008   1.118   5.833 -0.3954  0.4742 -0.1580
 5982SOL     OW23699   4.311   4.480   2.967 -0.1746  0.7416  0.2211
 5982SOL    HW223700   4.359   4.478   2.884 -0.7455  1.8708 -0.1624
 5982SOL    HW323701   4.238   4.541   2.951 -1.2450 -0.2808  1.0409
 5982SOL    MW423702   4.308   4.488   2.954  0.3786 -0.6936  0.3326
 5983SOL     OW23703   0.298   3.624   1.736  0.0091  0.6750  0.7523
 5983SOL    HW223704   0.249   3.690   1.686  1.1067  0.7498 -0.2519
 5983SOL    HW323705   0.390   3.642   1.717  0.3345 -1.4336  0.0600
 5983SOL    MW423706   0.304   3.635   1.727 -0.3269 -0.0131  0.2543
 5984SOL     OW23707   2.444   5.277   2.180  0.3122 -0.2740  0.3087
 5984SOL    HW223708   2.442   5.196   2.129  1.0610 -0.5241  0.6583
 5984SOL    HW323709   2.352   5.304   2.187  0.0172 -1.2810  0.4836
 5984SOL    MW423710   2.432   5.270   2.175  0.2856 -0.6112 -0.2776
 5985SOL     OW23711   3.329   5.242   2.484 -0.0986  0.2209 -0.8618
 5985SOL    HW223712   3.396   5.235   2.415  1.7048 -0.4609  0.8638
 5985SOL    HW323713   3.329   5.155   2.524 -2.4448  0.0489 -1.1259
 5985SOL    MW423714   3.338   5.229   2.480  0.4168 -0.4474 -0.0033
 5986SOL     OW23715   1.253   2.046   5.209  0.0857  0.5148  0.5181
 5986SOL    HW223716   1.278   1.955   5.200  0.2145  0.6656 -0.7685
 5986SOL    HW323717   1.304   2.092   5.142  2.1873  1.9887  2.9489
 5986SOL    MW423718   1.263   2.040   5.199 -0.0972  0.1944 -0.1235
 5987SOL     OW23719   4.227   6.222   1.311 -0.2356  0.1833  0.2585
 5987SOL    HW223720   4.163   6.286   1.278 -0.2780  0.8560  1.5734
 5987SOL    HW323721   4.179   6.139   1.310  0.0881 -0.0469 -2.2669
 5987SOL    MW423722   4.212   6.220   1.306 -0.3098 -0.0204 -0.6675
 5988SOL     OW23723   0.587   4.748   3.660 -0.3026  0.4181  1.0795
 5988SOL    HW223724   0.515   4.689   3.681 -0.9801  1.5473  1.9847
 5988SOL    HW323725   0.665   4.701   3.692 -0.2277 -1.9155 -2.0355
 5988SOL    MW423726   0.588   4.734   3.667 -0.0348  0.2320 -0.0778
 5989SOL     OW23727   1.737   2.037   0.361 -0.4710 -0.2001  0.6661
 5989SOL    HW223728   1.674   1.983   0.409  0.2117 -0.8120  0.9056
 5989SOL    HW323729   1.801   2.063   0.427  0.6923 -1.3698  0.0553
 5989SOL    MW423730   1.737   2.033   0.376  0.3507 -0.0384  0.4342
 5990SOL     OW23731   5.227   4.082   4.668  0.6462  0.3184 -0.0422
 5990SOL    HW223732   5.298   4.035   4.710  1.1123  2.1260  1.3120
 5990SOL    HW323733   5.161   4.015   4.649  2.4870 -1.3447 -0.9972
 5990SOL    MW423734   5.227   4.067   4.671 -0.1817  0.2626  0.1428
 5991SOL     OW23735   4.087   3.545   4.745 -0.7198 -0.2032  0.0694
 5991SOL    HW223736   4.168   3.568   4.790 -0.4285  1.1351 -1.0546
 5991SOL    HW323737   4.054   3.469   4.792  0.7598 -0.2779  1.0586
 5991SOL    MW423738   4.093   3.538   4.757 -0.1585  0.1215 -0.1531
 5992SOL     OW23739   4.123   2.139   2.985  0.0634  0.2168 -0.3205
 5992SOL    HW223740   4.081   2.204   3.041 -1.4329 -0.6580 -0.3778
 5992SOL    HW323741   4.060   2.123   2.915  0.5391 -1.0318 -0.4953
 5992SOL    MW423742   4.109   2.145   2.983  0.6264  0.3170 -0.1717
 5993SOL     OW23743   5.339   3.996   1.028 -0.3245  0.0172 -0.1830
 5993SOL    HW223744   5.253   4.036   1.020 -0.1137  0.5180  0.0477
 5993SOL    HW323745   5.324   3.917   1.082 -0.4803  0.5991  0.6432
 5993SOL    MW423746   5.326   3.991   1.034 -0.6761 -0.4874 -0.0023
 5994SOL     OW23747   4.281   2.842   2.548  0.2759 -0.4682 -0.4181
 5994SOL    HW223748   4.336   2.838   2.471  0.2484  1.2557 -0.5719
 5994SOL    HW323749   4.192   2.847   2.514  0.2139 -0.4251 -0.2527
 5994SOL    MW423750   4.276   2.842   2.534  0.0186  0.0641 -0.0245
 5995SOL     OW23751   0.870   2.087   3.364  0.4603 -0.1917 -0.2226
 5995SOL    HW223752   0.834   2.171   3.335 -0.3406 -0.5546 -0.3075
 5995SOL    HW323753   0.813   2.059   3.435  0.1589 -1.0887 -0.7915
 5995SOL    MW423754   0.858   2.094   3.369 -0.0259 -0.2358 -0.0670
 5996SOL     OW23755   2.573   1.230   4.497 -0.1982  0.0591  0.3867
 5996SOL    HW223756   2.651   1.265   4.454 -0.0238 -1.4590 -0.6091
 5996SOL    HW323757   2.606   1.195   4.580 -0.1571  1.0682  0.8070
 5996SOL    MW423758   2.588   1.230   4.502 -0.1005  0.2343  0.5705
 5997SOL     OW23759   2.437   3.548   4.235  0.2589  0.4522 -0.0691
 5997SOL    HW223760   2.485   3.619   4.192 -1.1269  1.7083  0.3638
 5997SOL    HW323761   2.468   3.469   4.191  0.8751  1.4418 -1.5190
 5997SOL    MW423762   2.447   3.547   4.223 -0.6822  0.0010 -0.4079
 5998SOL     OW23763   0.130   3.237   3.914  0.5514  0.6541  0.1648
 5998SOL    HW223764   0.054   3.179   3.920  0.8614  0.0949 -0.9431
 5998SOL    HW323765   0.197   3.184   3.871  1.2781  1.4283  0.3149
 5998SOL    MW423766   0.129   3.222   3.909  0.4876  0.1192 -0.3074
 5999SOL     OW23767   1.180   1.377   0.784 -0.4910 -0.1398 -0.1355
 5999SOL    HW223768   1.161   1.421   0.701 -0.2091 -1.4691 -0.9329
 5999SOL    HW323769   1.228   1.442   0.835 -0.3024  0.5648 -1.1822
 5999SOL    MW423770   1.184   1.391   0.780 -0.2423 -0.0323 -0.0575
 6000SOL     OW23771   6.075   1.396   0.743 -0.0414  0.1543  0.4521
 6000SOL    HW223772   6.165   1.424   0.753 -0.0829  1.0953 -1.3377
 6000SOL    HW323773   6.034   1.465   0.691 -2.1399  0.3592  2.2219
 6000SOL    MW423774   6.081   1.409   0.737 -0.2760 -0.4795 -0.4134
 6001SOL     OW23775   1.096   4.252   6.266 -0.0416  0.4512  0.0532
 6001SOL    HW223776   1.116   4.180   6.326 -0.2142  0.7014  0.4104
 6001SOL    HW323777   1.166   4.316   6.280  0.4183  0.1152 -0.6588
 6001SOL    MW423778   1.108   4.251   6.276  0.0835 -0.4431 -0.4305
 6002SOL     OW23779   2.330   2.222   1.367  0.0598  0.9453  0.0632
 6002SOL    HW223780   2.274   2.150   1.336  0.8251  0.2356  0.2930
 6002SOL    HW323781   2.269   2.295   1.381 -0.9552 -0.0539  1.1404
 6002SOL    MW423782   2.314   2.222   1.364  0.5075  0.7499  0.2025
 6003SOL     OW23783   0.496   0.628   4.870 -0.1538  0.0943 -0.1353
 6003SOL    HW223784   0.544   0.561   4.821 -0.2301  1.3505 -2.0077
 6003SOL    HW323785   0.414   0.585   4.895 -0.9035 -0.1044 -2.6829
 6003SOL    MW423786   0.492   0.613   4.867 -0.2368  0.1227 -0.4529
 6004SOL     OW23787   3.337   0.548   2.323  0.0402 -0.2489  0.1871
 6004SOL    HW223788   3.298   0.554   2.236 -0.7723  0.7217  0.6026
 6004SOL    HW323789   3.363   0.637   2.344 -0.5507 -0.3210  1.2811
 6004SOL    MW423790   3.335   0.560   2.314 -0.5801 -0.4426 -0.0357
 6005SOL     OW23791   1.691   1.445   5.735 -0.1405 -0.4438  0.0569
 6005SOL    HW223792   1.765   1.398   5.774 -0.0945 -1.4265 -1.1500
 6005SOL    HW323793   1.725   1.533   5.717 -0.2699  0.1786  2.4814
 6005SOL    MW423794   1.706   1.451   5.738  0.0019 -0.1451  0.4422
 6006SOL     OW23795   5.992   1.300   0.405  0.1438  0.2229 -0.0675
 6006SOL    HW223796   6.066   1.361   0.407 -0.8525  1.4815  1.8722
 6006SOL    HW323797   5.926   1.341   0.460 -0.8578 -2.3180  0.7783
 6006SOL    MW423798   5.993   1.314   0.412 -0.3105 -0.0731  0.6368
 6007SOL     OW23799   2.517   5.904   1.669 -0.0032 -0.4499 -0.0674
 6007SOL    HW223800   2.472   5.924   1.751 -2.6785 -1.3623 -1.1977
 6007SOL    HW323801   2.489   5.972   1.609  0.8501 -0.5528 -0.6055
 6007SOL    MW423802   2.508   5.915   1.672 -0.3519  0.2684  0.3874
 6008SOL     OW23803   4.741   3.447   6.087 -1.0413  0.1378  0.8818
 6008SOL    HW223804   4.821   3.462   6.138 -1.0530 -1.5764  1.4714
 6008SOL    HW323805   4.716   3.533   6.055  0.8645  0.7626  0.9584
 6008SOL    MW423806   4.748   3.460   6.089 -0.4410 -0.0837 -0.6598
 6009SOL     OW23807   4.897   1.712   2.691  0.3109  0.7860  0.4957
 6009SOL    HW223808   4.874   1.748   2.605 -0.7013  0.7434  0.7289
 6009SOL    HW323809   4.936   1.786   2.738  0.6236  0.8802  0.0914
 6009SOL    MW423810   4.899   1.726   2.686 -0.2624 -0.2379  0.5294
 6010SOL     OW23811   5.370   1.698   4.975  0.5410  0.5382  1.1035
 6010SOL    HW223812   5.304   1.724   4.911  1.3884  0.5963  0.2328
 6010SOL    HW323813   5.427   1.774   4.983  0.6474  0.4043  1.6734
 6010SOL    MW423814   5.369   1.712   4.968  0.9882 -0.5621 -0.3359
 6011SOL     OW23815   1.736   6.099   0.984  0.2630 -0.2034 -0.3381
 6011SOL    HW223816   1.795   6.125   0.913 -1.2058 -0.7478 -1.8443
 6011SOL    HW323817   1.728   6.177   1.039  1.3793  0.2659 -0.8134
 6011SOL    MW423818   1.742   6.113   0.981 -0.2616  0.2676  0.0505
 6012SOL     OW23819   5.603   5.243   5.393  0.0937  0.3858 -0.0758
 6012SOL    HW223820   5.529   5.283   5.440  0.0657 -0.0289  0.2373
 6012SOL    HW323821   5.575   5.153   5.378  1.3388 -0.3933  1.8614
 6012SOL    MW423822   5.589   5.237   5.398  0.0839  0.0980  0.7137
 6013SOL     OW23823   2.558   0.466   3.955 -0.0992 -0.1504 -0.3207
 6013SOL    HW223824   2.584   0.398   4.016 -2.3620  1.8229  3.2086
 6013SOL    HW323825   2.468   0.444   3.931 -0.4497  0.9203 -0.0688
 6013SOL    MW423826   2.549   0.454   3.960 -0.1906  0.4876 -0.4007
 6014SOL     OW23827   5.331   2.511   0.266 -0.4931  0.1568  0.1555
 6014SOL    HW223828   5.398   2.578   0.251 -0.4015 -0.0734 -0.4980
 6014SOL    HW323829   5.348   2.479   0.354  0.4533 -0.1178 -0.1194
 6014SOL    MW423830   5.342   2.516   0.276 -0.3616  0.0537  0.1715
 6015SOL     OW23831   1.486   4.698   4.394  0.5336 -0.1885 -0.1189
 6015SOL    HW223832   1.494   4.703   4.489 -0.4465  0.9134 -0.0752
 6015SOL    HW323833   1.570   4.731   4.361  0.8440 -0.4954  0.3569
 6015SOL    MW423834   1.498   4.703   4.402 -0.6143  0.0801 -0.6042
 6016SOL     OW23835   2.940   2.539   3.710 -0.1849 -0.3904 -0.0765
 6016SOL    HW223836   2.889   2.598   3.655 -2.6426 -0.3465  2.0606
 6016SOL    HW323837   2.915   2.451   3.680  0.3784 -0.3787 -0.6044
 6016SOL    MW423838   2.930   2.535   3.699 -0.4152  0.2295 -0.5431
 6017SOL     OW23839   0.795   5.230   5.314 -0.1811  0.0369 -0.0820
 6017SOL    HW223840   0.808   5.192   5.401 -0.4057  3.6321  1.7370
 6017SOL    HW323841   0.703   5.259   5.315 -0.0009  0.7077 -1.2683
 6017SOL    MW423842   0.784   5.229   5.326  0.0068  0.0345 -0.5410
 6018SOL     OW23843   1.703   3.015   5.514  0.0391 -0.1209  0.3387
 6018SOL    HW223844   1.742   2.929   5.502  0.1640 -0.1327  0.7879
 6018SOL    HW323845   1.623   3.012   5.462 -0.2841 -0.7405  0.8456
 6018SOL    MW423846   1.697   3.003   5.506  0.5737 -0.4226 -0.6329
 6019SOL     OW23847   3.029   6.398   5.189  0.8133  0.3296  0.0065
 6019SOL    HW223848   3.053   6.307   5.202  0.3781  0.4904  2.2583
 6019SOL    HW323849   2.939   6.404   5.221 -0.9825  0.6384 -4.3371
 6019SOL    MW423850   3.020   6.387   5.195  0.4175 -0.1328 -0.3651
 6020SOL     OW23851   2.850   4.295   4.068 -0.2245  0.6101  0.2795
 6020SOL    HW223852   2.873   4.275   3.977  1.0348  2.4037  0.1385
 6020SOL    HW323853   2.884   4.222   4.118 -1.1887 -0.5506 -0.6894
 6020SOL    MW423854   2.858   4.283   4.062  0.0612 -0.2707  0.4545
 6021SOL     OW23855   1.852   1.885   3.253 -0.0392 -0.1568  0.3260
 6021SOL    HW223856   1.786   1.949   3.226  0.6194  0.7527  0.8151
 6021SOL    HW323857   1.861   1.898   3.348 -0.3264 -1.3993  0.5414
 6021SOL    MW423858   1.845   1.895   3.262  0.0250 -0.5505  0.3069
 6022SOL     OW23859   2.371   2.555   0.361 -0.4787 -0.1646  0.1005
 6022SOL    HW223860   2.362   2.512   0.446 -0.1082  0.9379  0.7161
 6022SOL    HW323861   2.420   2.635   0.380  1.1958 -0.7473 -1.4173
 6022SOL    MW423862   2.376   2.560   0.375 -0.1542 -0.2604 -0.5221
 6023SOL     OW23863   0.215   1.232   4.216  0.1125  0.1405  0.3819
 6023SOL    HW223864   0.244   1.266   4.132 -2.1043  0.8449 -0.1787
 6023SOL    HW323865   0.124   1.262   4.223 -0.2866 -1.3483  2.2560
 6023SOL    MW423866   0.207   1.240   4.206 -0.3480 -0.1379 -0.4643
 6024SOL     OW23867   2.450   1.885   3.200  0.0190  0.1055  0.9255
 6024SOL    HW223868   2.497   1.946   3.256  0.7288  0.9777 -0.5715
 6024SOL    HW323869   2.392   1.940   3.147 -0.5893 -0.6858  0.7449
 6024SOL    MW423870   2.449   1.900   3.201  0.4125  0.4113 -0.6012
 6025SOL     OW23871   4.263   1.803   0.739  0.2245  0.1907 -0.0276
 6025SOL    HW223872   4.206   1.786   0.814  3.2529 -0.1359  2.4047
 6025SOL    HW323873   4.266   1.720   0.691 -1.4752  0.3010 -0.3669
 6025SOL    MW423874   4.256   1.790   0.742 -0.0092  0.3792  0.6261
 6026SOL     OW23875   6.159   1.904   3.216 -0.1738  0.1221  0.2481
 6026SOL    HW223876   6.165   1.900   3.120 -1.8840  3.6276 -0.1494
 6026SOL    HW323877   6.250   1.918   3.244  0.2634 -0.2284 -0.8844
 6026SOL    MW423878   6.172   1.905   3.207  0.7195 -0.2006 -0.6249
 6027SOL     OW23879   2.508   2.760   4.822  0.1134 -0.0606 -0.1581
 6027SOL    HW223880   2.572   2.812   4.870  0.5118 -0.8187  0.1502
 6027SOL    HW323881   2.512   2.794   4.733  0.1443  0.6345  0.0969
 6027SOL    MW423882   2.517   2.771   4.817  0.1152 -0.1925  0.1112
 6028SOL     OW23883   2.939   0.331   3.523 -0.0216  0.0944  0.5752
 6028SOL    HW223884   3.006   0.299   3.462 -0.6468 -0.7452  0.3022
 6028SOL    HW323885   2.857   0.321   3.475 -0.4337  0.2375  1.2442
 6028SOL    MW423886   2.937   0.325   3.509  0.5971 -0.3503  0.1900
 6029SOL     OW23887   3.512   5.240   0.647  0.6244  0.0118  0.1812
 6029SOL    HW223888   3.550   5.258   0.733 -0.4349 -0.0460  0.6780
 6029SOL    HW323889   3.426   5.203   0.666  0.3977 -0.0657 -0.9097
 6029SOL    MW423890   3.506   5.237   0.661 -0.3395 -0.0695  0.4381
 6030SOL     OW23891   4.936   1.697   6.369  0.0566 -0.2497 -0.2180
 6030SOL    HW223892   4.979   1.732   6.447  0.1039 -0.2855 -0.2278
 6030SOL    HW323893   5.008   1.671   6.312  0.0377  0.7836 -0.7349
 6030SOL    MW423894   4.951   1.698   6.372 -0.2833 -0.1033 -0.6445
 6031SOL     OW23895   4.934   4.627   2.389  0.0301  0.1958 -0.0447
 6031SOL    HW223896   4.943   4.575   2.309 -0.7688 -0.7570  0.4545
 6031SOL    HW323897   4.889   4.707   2.362 -0.6478 -0.3206 -0.4870
 6031SOL    MW423898   4.929   4.630   2.375 -0.1831  0.2762  0.2247
 6032SOL     OW23899   3.856   1.029   4.189  0.0849  0.1624  0.9366
 6032SOL    HW223900   3.799   0.992   4.257 -1.7482  0.8851 -0.1244
 6032SOL    HW323901   3.917   1.085   4.237 -0.6588  0.0465  2.0479
 6032SOL    MW423902   3.856   1.032   4.204  0.2452  0.0971  0.1743
 6033SOL     OW23903   1.897   2.122   0.557  0.0151  0.0121  0.1524
 6033SOL    HW223904   1.953   2.052   0.589 -1.6181 -1.1902  0.4555
 6033SOL    HW323905   1.946   2.202   0.577  2.5803 -1.0120 -1.4478
 6033SOL    MW423906   1.911   2.124   0.564 -0.2353 -0.5598  0.5740
 6034SOL     OW23907   2.457   0.605   5.452 -0.2884 -0.4755  0.5913
 6034SOL    HW223908   2.388   0.607   5.519 -0.5974  1.2108  0.2600
 6034SOL    HW323909   2.527   0.659   5.487 -0.0663 -0.3366 -0.0557
 6034SOL    MW423910   2.457   0.612   5.465  1.0297  0.2304  0.1328
 6035SOL     OW23911   4.650   4.490   3.281 -0.3485  0.5504 -0.2030
 6035SOL    HW223912   4.686   4.507   3.194  0.5399  1.8412  0.3788
 6035SOL    HW323913   4.555   4.493   3.269 -0.2929 -0.9817 -1.4098
 6035SOL    MW423914   4.642   4.492   3.268  0.5405 -0.4623 -0.3002
 6036SOL     OW23915   3.236   5.240   1.630  0.0518  0.0689  0.7706
 6036SOL    HW223916   3.151   5.242   1.674 -0.8484 -0.3064 -0.8616
 6036SOL    HW323917   3.296   5.279   1.693 -1.7178  2.3738  1.1956
 6036SOL    MW423918   3.233   5.246   1.644  0.2210 -0.0631  0.8125
 6037SOL     OW23919   0.177   2.187   0.487 -0.6491  0.1381  0.2179
 6037SOL    HW223920   0.195   2.277   0.460 -0.0349  0.0517  0.3236
 6037SOL    HW323921   0.251   2.164   0.544 -0.1146 -0.8784 -0.8416
 6037SOL    MW423922   0.189   2.196   0.491  0.4590  0.2350 -0.1907
 6038SOL     OW23923   1.271   6.188   2.976  0.2482 -0.3521 -0.3053
 6038SOL    HW223924   1.365   6.186   2.993  0.0145  1.0732  1.5309
 6038SOL    HW323925   1.260   6.141   2.893  2.6138 -0.1197 -0.8168
 6038SOL    MW423926   1.282   6.182   2.967 -0.0259 -0.7450  0.4189
 6039SOL     OW23927   4.132   5.391   1.194 -0.1114 -0.1054 -0.3587
 6039SOL    HW223928   4.151   5.324   1.129 -0.6558  0.9049 -1.6110
 6039SOL    HW323929   4.082   5.457   1.146  0.2679  1.1137  0.8600
 6039SOL    MW423930   4.128   5.391   1.179  0.4549 -1.0688  0.2175
 6040SOL     OW23931   3.344   6.388   0.019  0.1440 -0.0671  0.1895
 6040SOL    HW223932   3.357   6.476  -0.017 -2.3076  0.2792  0.0167
 6040SOL    HW323933   3.335   6.332  -0.058  1.2033 -0.4167  0.3029
 6040SOL    MW423934   3.345   6.392   0.004  0.3224  0.8394 -0.5679
 6041SOL     OW23935   0.043   4.478   2.590 -0.2283  0.4624  0.5079
 6041SOL    HW223936   0.021   4.390   2.619  0.3310 -0.1149 -0.7380
 6041SOL    HW323937   0.128   4.497   2.630  0.4197 -0.2280 -0.4982
 6041SOL    MW423938   0.051   4.469   2.599 -0.3488  0.1742 -0.0909
 6042SOL     OW23939   4.327   3.781   6.203 -0.0297  0.0321 -0.4632
 6042SOL    HW223940   4.362   3.846   6.142  1.7738 -0.5446 -0.0946
 6042SOL    HW323941   4.273   3.832   6.264 -2.2248  0.5830 -2.6966
 6042SOL    MW423942   4.325   3.796   6.203 -0.7325  0.6455  0.0300
 6043SOL     OW23943   3.503   6.067   1.659  0.5584  0.2204  0.6430
 6043SOL    HW223944   3.423   6.079   1.711  1.0352  1.2906  1.1429
 6043SOL    HW323945   3.529   5.976   1.676 -1.4144 -0.7073 -0.7886
 6043SOL    MW423946   3.496   6.056   1.668 -0.5820 -0.1894 -0.0416
 6044SOL     OW23947   0.532   5.300   5.366 -0.1400  0.1143  0.1689
 6044SOL    HW223948   0.467   5.233   5.344 -1.4942  1.7016 -0.9586
 6044SOL    HW323949   0.537   5.298   5.461 -1.8152 -0.1172  0.2787
 6044SOL    MW423950   0.524   5.291   5.376 -0.0293  0.1949  0.0558
 6045SOL     OW23951   3.015   4.727   3.584 -0.0829  0.0388  0.1958
 6045SOL    HW223952   3.063   4.718   3.666  0.9827 -0.9195 -0.5027
 6045SOL    HW323953   3.020   4.640   3.543 -0.3340  0.5695 -1.0189
 6045SOL    MW423954   3.022   4.714   3.589  0.4622 -0.2114 -0.1899
 6046SOL     OW23955   3.504   0.780   1.453  0.3336 -0.8377  0.0702
 6046SOL    HW223956   3.433   0.717   1.443 -1.6299  0.9295  1.8125
 6046SOL    HW323957   3.545   0.758   1.537 -1.2332  0.8611  1.3722
 6046SOL    MW423958   3.500   0.769   1.463 -0.3739  0.2045 -0.6953
 6047SOL     OW23959   5.005   4.011   3.426 -0.5246 -0.3037  0.1926
 6047SOL    HW223960   4.949   3.989   3.351  1.1756 -0.8828 -0.9483
 6047SOL    HW323961   4.990   4.105   3.440 -1.7655 -0.4425 -0.0646
 6047SOL    MW423962   4.995   4.021   3.418  0.1192  0.4425  0.1030
 6048SOL     OW23963   0.739   1.950   1.296  0.5119  0.5745  0.2452
 6048SOL    HW223964   0.786   2.014   1.350  0.4415 -0.9249  2.2055
 6048SOL    HW323965   0.805   1.917   1.236  1.4131  0.2132  1.3807
 6048SOL    MW423966   0.754   1.954   1.296 -0.0896  0.0076 -0.3026
 6049SOL     OW23967   1.846   1.525   2.455  0.4655 -0.1942  0.1346
 6049SOL    HW223968   1.796   1.592   2.502 -0.5701  1.3846 -2.9366
 6049SOL    HW323969   1.794   1.445   2.465 -0.7328  0.5571  0.1295
 6049SOL    MW423970   1.832   1.524   2.463 -1.0112  0.1409  0.2962
 6050SOL     OW23971   2.050   5.019   1.345 -0.0990 -0.6261 -0.2227
 6050SOL    HW223972   2.109   4.959   1.300  0.0801 -0.3278 -0.3876
 6050SOL    HW323973   2.057   4.995   1.437 -3.6495 -4.1601 -0.6077
 6050SOL    MW423974   2.059   5.008   1.351 -0.0294  0.3977 -0.1781
 6051SOL     OW23975   5.388   3.905   0.768  0.6573 -0.2584  0.1899
 6051SOL    HW223976   5.301   3.909   0.729  1.4801  3.5520 -1.6878
 6051SOL    HW323977   5.374   3.926   0.861 -0.3391  2.9020 -0.5510
 6051SOL    MW423978   5.375   3.908   0.775  0.4376  0.8646  0.3078
 6052SOL     OW23979   3.518   6.073   4.117 -0.2520 -0.0506 -0.0373
 6052SOL    HW223980   3.491   6.078   4.026  0.2340  0.3079 -0.1667
 6052SOL    HW323981   3.543   6.163   4.140 -2.3181  0.3125  1.0654
 6052SOL    MW423982   3.517   6.086   4.108 -0.1675  0.7462  0.4796
 6053SOL     OW23983   5.044   0.232   0.957  0.2514  0.3559 -0.5188
 6053SOL    HW223984   4.991   0.192   0.888  0.0964 -0.4671  0.0603
 6053SOL    HW323985   5.012   0.322   0.962  1.1727  0.8408 -2.4063
 6053SOL    MW423986   5.033   0.239   0.949 -0.2605  0.2682  0.2975
 6054SOL     OW23987   3.168   4.709   4.323 -0.1382 -0.3476 -0.5377
 6054SOL    HW223988   3.164   4.774   4.394  1.0381  0.6180 -1.3115
 6054SOL    HW323989   3.262   4.697   4.307 -0.3798 -0.5193 -1.9511
 6054SOL    MW423990   3.180   4.716   4.330 -0.4878 -0.2102  0.2749
 6055SOL     OW23991   0.991   1.925   1.122  0.5486 -0.1946  0.0492
 6055SOL    HW223992   0.975   1.990   1.054 -0.2217  0.3471  0.7245
 6055SOL    HW323993   1.008   1.977   1.201  0.0095 -0.8009  0.5758
 6055SOL    MW423994   0.991   1.941   1.124  0.4636 -0.0815  0.0959
 6056SOL     OW23995   3.916   3.137   5.766  0.2309  0.2137  0.3894
 6056SOL    HW223996   3.967   3.064   5.732 -0.0001  0.0917  0.3100
 6056SOL    HW323997   3.828   3.102   5.780  0.2599  0.3228  0.8817
 6056SOL    MW423998   3.911   3.123   5.763 -0.0921  0.0891  0.2139
 6057SOL     OW23999   0.458   3.690   0.801  0.2470 -0.2268 -0.1031
 6057SOL    HW224000   0.482   3.659   0.888  1.7182  0.4148 -0.2397
 6057SOL    HW324001   0.528   3.657   0.744  0.4776  1.1712 -0.6644
 6057SOL    MW424002   0.471   3.681   0.805  0.3624  0.4518  1.1985
 6058SOL     OW24003   4.207   6.290   0.501 -0.1150 -0.2779  0.1027
 6058SOL    HW224004   4.125   6.286   0.453  0.1368 -0.6417 -0.3038
 6058SOL    HW324005   4.244   6.376   0.480  0.3611 -0.7271 -0.9736
 6058SOL    MW424006   4.201   6.301   0.492  0.1628 -0.0772 -0.1839
 6059SOL     OW24007   0.053   3.697   4.920 -0.1740 -0.7736  0.0633
 6059SOL    HW224008   0.149   3.689   4.919 -0.0338  0.5592 -0.3263
 6059SOL    HW324009   0.036   3.779   4.872 -1.4876 -0.7863  0.4684
 6059SOL    MW424010   0.064   3.707   4.913 -0.3683 -0.1052 -0.2508
 6060SOL     OW24011   2.690   1.558   5.017 -0.1428  0.7228  0.0327
 6060SOL    HW224012   2.670   1.570   5.110 -2.2161  2.0924 -0.5157
 6060SOL    HW324013   2.632   1.487   4.989 -0.7788  1.4337 -0.5273
 6060SOL    MW424014   2.680   1.551   5.026 -0.1621  0.0034  0.3335
 6061SOL     OW24015   1.672   0.605   3.927  0.2111 -0.4606 -0.3221
 6061SOL    HW224016   1.748   0.625   3.981 -0.5045  2.6535 -0.2317
 6061SOL    HW324017   1.688   0.652   3.845 -1.1055 -0.6566 -0.7188
 6061SOL    MW424018   1.684   0.614   3.923 -0.1226 -0.0440  0.3231
 6062SOL     OW24019   6.111   1.388   5.397  0.3197  0.1094  0.2414
 6062SOL    HW224020   6.161   1.349   5.468 -0.3231  1.1649  1.2966
 6062SOL    HW324021   6.108   1.481   5.417 -1.0301  0.2381 -0.4383
 6062SOL    MW424022   6.117   1.395   5.409  0.1064 -0.3469 -0.4493
 6063SOL     OW24023   5.070   2.516   2.527  0.0001 -0.7009 -0.4421
 6063SOL    HW224024   4.997   2.574   2.550 -0.2483 -0.9042 -0.7071
 6063SOL    HW324025   5.104   2.553   2.446  0.4519 -0.3700 -0.1042
 6063SOL    MW424026   5.064   2.529   2.519 -0.0051 -0.8842 -0.1422
 6064SOL     OW24027   2.889   4.130   0.132 -0.1565  0.7464  1.1580
 6064SOL    HW224028   2.911   4.108   0.041 -0.4008  0.9547  1.0455
 6064SOL    HW324029   2.951   4.200   0.154  0.1457  0.4401  1.2746
 6064SOL    MW424030   2.900   4.136   0.123 -0.2234 -0.0915 -0.1330
 6065SOL     OW24031   0.005   2.015   0.323 -0.5192  0.0059 -0.4815
 6065SOL    HW224032   0.061   2.091   0.340  0.4312 -0.5403 -1.1263
 6065SOL    HW324033   0.065   1.940   0.322 -1.3183 -0.6472 -0.7731
 6065SOL    MW424034   0.021   2.015   0.325  0.0996 -0.4300  0.8571
 6066SOL     OW24035   3.067   3.671   3.344 -0.1025 -0.4815  0.0592
 6066SOL    HW224036   3.101   3.591   3.384  1.6637  0.6141  0.8860
 6066SOL    HW324037   3.024   3.717   3.415  1.3710  0.5851  0.3050
 6066SOL    MW424038   3.066   3.666   3.358  0.1187 -0.2132  0.7126
 6067SOL     OW24039   6.356   2.558   5.740 -0.3976  0.1687  0.2301
 6067SOL    HW224040   6.392   2.642   5.711 -0.6462  0.4439  0.6887
 6067SOL    HW324041   6.277   2.583   5.789 -0.5738 -0.3468  0.2080
 6067SOL    MW424042   6.350   2.573   5.743  0.2112  0.1542  0.0082
 6068SOL     OW24043   0.834   5.450   0.499 -0.5221  0.6318 -0.1624
 6068SOL    HW224044   0.835   5.485   0.410 -0.7847  2.2872  0.4544
 6068SOL    HW324045   0.780   5.371   0.492  0.1168  0.2786 -1.6065
 6068SOL    MW424046   0.827   5.444   0.486  0.3372  0.5784  0.4450
 6069SOL     OW24047   2.845   6.059   3.883  0.1051 -0.6251 -0.4512
 6069SOL    HW224048   2.930   6.073   3.925 -0.7749 -1.1130  1.6350
 6069SOL    HW324049   2.813   5.977   3.921 -2.5511  1.0105  1.1418
 6069SOL    MW424050   2.852   6.050   3.894 -0.3833  0.7116 -0.0977
 6070SOL     OW24051   5.908   2.923   0.277  0.2144 -0.1813  0.0350
 6070SOL    HW224052   5.896   2.988   0.208  0.6298 -0.8329 -0.6687
 6070SOL    HW324053   5.857   2.847   0.248  1.5265 -0.9706 -0.2687
 6070SOL    MW424054   5.900   2.922   0.264  0.0913 -0.4584  0.5439
 6071SOL     OW24055   0.674   5.763   2.531 -0.5038 -0.0285 -0.1168
 6071SOL    HW224056   0.648   5.833   2.471  0.1208 -0.8945 -1.4595
 6071SOL    HW324057   0.736   5.804   2.591 -0.9696  0.8138 -0.2081
 6071SOL    MW424058   0.679   5.777   2.531 -1.1460  0.6425  0.8271
 6072SOL     OW24059   6.395   5.715   5.214  0.3342  0.3928 -0.2714
 6072SOL    HW224060   6.407   5.630   5.173 -0.9302  0.2914 -0.4723
 6072SOL    HW324061   6.424   5.703   5.305  2.5500  0.4477 -0.8917
 6072SOL    MW424062   6.401   5.702   5.221 -0.4264  0.2385 -0.1701
 6073SOL     OW24063   5.593   1.739   1.664  0.0553  0.7357  0.1721
 6073SOL    HW224064   5.664   1.735   1.729  1.4111 -0.1270 -1.2923
 6073SOL    HW324065   5.599   1.656   1.617 -1.5131  0.9417 -0.4501
 6073SOL    MW424066   5.603   1.728   1.666  0.3298  0.3706  0.1580
 6074SOL     OW24067   4.854   6.136   0.796 -0.1527  0.1102 -0.0540
 6074SOL    HW224068   4.773   6.181   0.772 -0.2315 -0.0526 -0.0959
 6074SOL    HW324069   4.920   6.170   0.735 -0.0766  0.6089  0.2966
 6074SOL    MW424070   4.852   6.147   0.785 -0.1015  0.3432 -0.3637
 6075SOL     OW24071   1.298   0.818   6.301  0.0910  0.0845  0.4998
 6075SOL    HW224072   1.295   0.732   6.342  0.1748  0.4023  1.1768
 6075SOL    HW324073   1.257   0.805   6.215  1.1835 -0.8918  0.1007
 6075SOL    MW424074   1.292   0.805   6.295  0.3135  0.4596  0.1868
 6076SOL     OW24075   2.593   4.302   1.572  0.1094  0.0136  0.1269
 6076SOL    HW224076   2.622   4.301   1.664 -4.6044  0.8127  1.8984
 6076SOL    HW324077   2.545   4.220   1.562 -0.1544  0.3371 -1.3777
 6076SOL    MW424078   2.591   4.291   1.583  0.2207  0.4346 -0.1976
 6077SOL     OW24079   2.167   6.295   3.717 -0.4370 -0.0357 -0.1719
 6077SOL    HW224080   2.158   6.342   3.634 -0.1794  2.8083  1.2814
 6077SOL    HW324081   2.078   6.269   3.740 -0.3693 -2.1525 -1.9209
 6077SOL    MW424082   2.154   6.298   3.709 -0.4204 -0.3700 -0.5890
 6078SOL     OW24083   3.671   1.432   4.678  0.2871 -0.0324 -0.0845
 6078SOL    HW224084   3.726   1.494   4.725  0.0629  1.2042 -1.4036
 6078SOL    HW324085   3.719   1.350   4.681  2.0549  0.9243 -0.8995
 6078SOL    MW424086   3.684   1.429   4.685 -0.2142  0.0024  0.4602
 6079SOL     OW24087   6.147   1.515   2.664  0.4315 -0.2393 -0.3604
 6079SOL    HW224088   6.164   1.455   2.592  1.9826 -1.2796  0.8248
 6079SOL    HW324089   6.233   1.545   2.692 -0.2147  1.1923  0.2257
 6079SOL    MW424090   6.160   1.511   2.658 -0.1162 -0.1166  0.1922
 6080SOL     OW24091   6.327   5.987   3.433  0.2209 -0.3081 -0.1819
 6080SOL    HW224092   6.331   5.926   3.506  1.2727  0.1969  0.1947
 6080SOL    HW324093   6.344   5.933   3.356  0.5323 -0.5938  0.0869
 6080SOL    MW424094   6.330   5.972   3.432  0.0354 -0.1945  0.1637
 6081SOL     OW24095   4.066   4.918   1.556  0.0375 -0.0978  0.0536
 6081SOL    HW224096   4.126   4.984   1.591 -0.5697  0.4332  0.1125
 6081SOL    HW324097   4.123   4.856   1.511  0.7977 -0.4881  1.4774
 6081SOL    MW424098   4.082   4.919   1.555 -0.2127 -0.6465 -0.1407
 6082SOL     OW24099   0.441   5.591   1.289 -0.0843 -0.5102 -0.1932
 6082SOL    HW224100   0.425   5.501   1.260 -0.6191 -0.0305 -1.4674
 6082SOL    HW324101   0.430   5.644   1.210 -2.7469  1.0237  1.0367
 6082SOL    MW424102   0.437   5.586   1.275 -0.3511  0.2277  0.4440
 6083SOL     OW24103   5.800   5.846   1.979 -0.0273  0.3212  0.1122
 6083SOL    HW224104   5.787   5.841   2.074 -0.5804  1.1654  0.0947
 6083SOL    HW324105   5.841   5.932   1.965 -1.1135  0.7665 -0.5132
 6083SOL    MW424106   5.803   5.857   1.990 -0.1312  0.1201 -0.0394
 6084SOL     OW24107   1.378   5.999   2.439 -0.1995 -0.2621 -0.3517
 6084SOL    HW224108   1.355   6.062   2.371  2.5743  0.7326 -0.4917
 6084SOL    HW324109   1.371   6.048   2.521  1.2899  0.0830 -0.4021
 6084SOL    MW424110   1.374   6.014   2.441  0.0291 -0.1208 -0.0892
 6085SOL     OW24111   3.162   2.305  -0.018  0.5180  0.0745 -0.4517
 6085SOL    HW224112   3.210   2.333   0.061  1.0566  0.6634 -0.9788
 6085SOL    HW324113   3.070   2.308   0.008  0.6993 -0.0134  0.2397
 6085SOL    MW424114   3.156   2.309  -0.004 -0.0603 -0.0343  0.2647
 6086SOL     OW24115   6.329   3.961   5.866  0.1716  0.2324 -0.0625
 6086SOL    HW224116   6.307   4.053   5.849  0.6909  0.1354 -1.3976
 6086SOL    HW324117   6.400   3.942   5.806 -0.3613 -1.2408 -0.2730
 6086SOL    MW424118   6.335   3.971   5.856 -0.1466 -0.0890 -0.2334
 6087SOL     OW24119   3.896   5.418   4.573 -0.2597  0.2279  0.0554
 6087SOL    HW224120   3.812   5.461   4.559 -0.9849 -0.7848  1.0745
 6087SOL    HW324121   3.874   5.338   4.620  1.3179  0.1233  0.6787
 6087SOL    MW424122   3.882   5.413   4.578  0.2226 -0.1201 -0.0532
 6088SOL     OW24123   5.817   0.000   2.346 -0.7163 -0.4666 -0.1663
 6088SOL    HW224124   5.870   0.037   2.417  0.0026  0.2675 -1.0604
 6088SOL    HW324125   5.875   0.000   2.270 -1.5413 -1.0464 -0.8182
 6088SOL    MW424126   5.832   0.005   2.345 -0.4979 -0.1039 -0.0723
 6089SOL     OW24127   6.216   5.293   4.640  0.4698 -0.2040 -0.3579
 6089SOL    HW224128   6.141   5.352   4.648  0.2664 -0.1737 -2.0363
 6089SOL    HW324129   6.189   5.213   4.685  0.5339  0.7457  1.4656
 6089SOL    MW424130   6.203   5.290   4.647 -0.6572 -1.2223  0.0756
 6090SOL     OW24131   4.743   1.035   2.549  0.1766  0.0177 -0.3059
 6090SOL    HW224132   4.806   1.105   2.529 -1.4062  1.3081 -0.9715
 6090SOL    HW324133   4.766   0.966   2.487  1.5426  0.0579  0.1136
 6090SOL    MW424134   4.755   1.035   2.538  0.1472 -0.9261  0.6357
 6091SOL     OW24135   2.095   2.210   1.634 -0.2355 -0.2441  0.3198
 6091SOL    HW224136   2.031   2.205   1.563  0.7508  0.3705 -0.6558
 6091SOL    HW324137   2.049   2.175   1.710 -1.5303 -0.3606 -0.4738
 6091SOL    MW424138   2.080   2.205   1.634 -0.0769  0.0844  0.4911
 6092SOL     OW24139   0.046   5.267   5.846  0.1330 -0.6974  0.0890
 6092SOL    HW224140   0.122   5.214   5.823  1.0496  1.0107 -1.0701
 6092SOL    HW324141  -0.022   5.240   5.784  0.7362 -0.2461 -0.7945
 6092SOL    MW424142   0.047   5.256   5.834 -0.8905  0.2703 -0.1904
 6093SOL     OW24143   1.593   5.337   3.067  0.5327  0.4435  0.6113
 6093SOL    HW224144   1.562   5.247   3.054 -1.5323  1.4497 -2.7825
 6093SOL    HW324145   1.517   5.384   3.101  0.3997  1.5690 -1.1073
 6093SOL    MW424146   1.579   5.332   3.070  0.1521  1.1094  0.2541
 6094SOL     OW24147   1.821   5.508   5.975 -0.0801 -0.1971  0.2699
 6094SOL    HW224148   1.772   5.545   5.901  0.2259  0.4582  0.3883
 6094SOL    HW324149   1.754   5.483   6.038 -0.2559  1.2935  0.7129
 6094SOL    MW424150   1.806   5.509   5.973 -0.1737 -0.0164 -0.2508
 6095SOL     OW24151   0.729   2.474   2.610 -0.3823  0.4262  0.1013
 6095SOL    HW224152   0.648   2.438   2.572  0.6290  0.0842 -1.8773
 6095SOL    HW324153   0.734   2.563   2.573  0.0674  0.5012  0.3397
 6095SOL    MW424154   0.719   2.481   2.600 -0.0932 -0.5900 -0.0176
 6096SOL     OW24155   1.474   0.472   3.276 -0.0417  0.1905 -0.0429
 6096SOL    HW224156   1.492   0.382   3.251 -0.2479  0.2769 -0.5252
 6096SOL    HW324157   1.379   0.481   3.267  0.0941  0.7785 -1.1600
 6096SOL    MW424158   1.464   0.461   3.271 -0.1829 -0.0049  0.3431
 6097SOL     OW24159   2.877   4.095   5.159 -0.2935  0.0848 -0.0562
 6097SOL    HW224160   2.791   4.129   5.182 -0.0787 -0.4298  1.6295
 6097SOL    HW324161   2.859   4.015   5.110 -0.7725  0.1121  0.0722
 6097SOL    MW424162   2.863   4.089   5.156 -0.2660  0.2224  0.2218
 6098SOL     OW24163   4.630   4.478   5.963 -0.3206  0.2400 -0.0531
 6098SOL    HW224164   4.584   4.419   5.903 -0.4066 -0.8266  1.0073
 6098SOL    HW324165   4.623   4.435   6.049  0.7294  1.1681  0.5310
 6098SOL    MW424166   4.623   4.464   5.967  0.1027 -0.7348  0.8736
 6099SOL     OW24167   5.432   0.805   2.719 -0.3565 -0.6479  0.1846
 6099SOL    HW224168   5.520   0.779   2.693 -0.0983 -1.3475  1.6577
 6099SOL    HW324169   5.374   0.751   2.665  0.1098 -0.7736 -0.2009
 6099SOL    MW424170   5.436   0.795   2.708  0.3998 -0.2303 -0.0320
 6100SOL     OW24171   4.162   2.103   3.544  0.1250 -0.3846 -0.3262
 6100SOL    HW224172   4.187   2.187   3.584 -1.2961  0.2833 -0.7766
 6100SOL    HW324173   4.245   2.064   3.518  0.8054  1.0867 -0.4934
 6100SOL    MW424174   4.176   2.109   3.546  0.1449 -0.5647  0.1068
 6101SOL     OW24175   1.905   5.584   1.451 -0.7017  0.1778 -0.3740
 6101SOL    HW224176   1.967   5.626   1.391 -0.3085 -0.3456 -0.3353
 6101SOL    HW324177   1.905   5.492   1.425 -1.5239  0.1851 -0.4221
 6101SOL    MW424178   1.913   5.577   1.439 -0.6485 -0.3946 -0.4220
 6102SOL     OW24179   6.268   5.426   5.462 -0.4497 -0.0814 -0.6084
 6102SOL    HW224180   6.237   5.440   5.373  0.4700  0.5528 -0.8360
 6102SOL    HW324181   6.363   5.416   5.454 -0.2810  0.5747  0.3566
 6102SOL    MW424182   6.276   5.426   5.449  0.4672 -0.6303 -0.3883
 6103SOL     OW24183   1.059   0.290   4.206  0.0036  0.2821  0.3157
 6103SOL    HW224184   0.964   0.277   4.206 -0.0106  0.3855  0.3530
 6103SOL    HW324185   1.070   0.385   4.205  0.1071  0.2679  0.0162
 6103SOL    MW424186   1.048   0.301   4.205  0.2910 -0.2735  0.2898
 6104SOL     OW24187   5.594   2.421   5.793  0.0323  0.4691  0.1330
 6104SOL    HW224188   5.544   2.479   5.736 -0.8144 -0.9132 -0.5835
 6104SOL    HW324189   5.542   2.414   5.873 -0.9156 -0.8642 -0.5611
 6104SOL    MW424190   5.581   2.427   5.796 -0.4448 -0.0364 -0.0167
 6105SOL     OW24191   1.542   0.241   2.904 -0.4823 -0.1654 -0.0571
 6105SOL    HW224192   1.508   0.319   2.949 -2.2371 -1.7735  1.6476
 6105SOL    HW324193   1.465   0.203   2.861 -0.3550 -2.4174  1.5280
 6105SOL    MW424194   1.527   0.246   2.905 -0.2146  0.2731 -0.2147
 6106SOL     OW24195   0.563   4.029   5.816  0.0150  0.4528 -0.2764
 6106SOL    HW224196   0.591   3.938   5.803  1.3997  0.7371  0.5468
 6106SOL    HW324197   0.574   4.044   5.910  1.8062  2.0853 -0.6867
 6106SOL    MW424198   0.568   4.019   5.826 -0.0496 -0.0373  0.2119
 6107SOL     OW24199   6.361   3.324   0.635  0.7297  0.3731  0.0480
 6107SOL    HW224200   6.344   3.418   0.627 -0.4304  0.1505 -0.3641
 6107SOL    HW324201   6.388   3.297   0.547  1.7766  0.4392  0.3376
 6107SOL    MW424202   6.362   3.333   0.622  0.0591 -0.0229 -0.2338
 6108SOL     OW24203   5.869   3.040   1.071 -0.0647 -0.3667 -0.4358
 6108SOL    HW224204   5.823   3.109   1.023 -0.2984  1.2509  1.9293
 6108SOL    HW324205   5.962   3.065   1.065  0.2549 -1.7802 -2.3795
 6108SOL    MW424206   5.875   3.053   1.063  0.9912 -0.0302 -0.3093
 6109SOL     OW24207   1.561   1.385   1.770 -0.3039  0.1902  0.4830
 6109SOL    HW224208   1.519   1.461   1.809 -1.7261  1.1102 -2.5890
 6109SOL    HW324209   1.654   1.409   1.764 -0.2135  0.4206  2.1586
 6109SOL    MW424210   1.568   1.398   1.775 -0.1422  0.1222  0.1644
 6110SOL     OW24211   3.211   1.260   0.613  0.2132 -0.1791 -0.1431
 6110SOL    HW224212   3.118   1.239   0.610  0.4509 -1.3370  0.0105
 6110SOL    HW324213   3.244   1.213   0.690  1.0277 -0.2307 -0.5133
 6110SOL    MW424214   3.203   1.251   0.623 -0.3697 -0.6936 -0.0575
 6111SOL     OW24215   2.542   0.450   4.352 -0.1216 -0.4187  0.5390
 6111SOL    HW224216   2.538   0.469   4.446 -1.3124  2.4242  0.0029
 6111SOL    HW324217   2.584   0.527   4.314  0.6966 -1.6942 -1.2689
 6111SOL    MW424218   2.547   0.463   4.360 -0.6051  0.0186  0.0999
 6112SOL     OW24219   0.859   0.104   3.286 -0.6614  0.2867 -0.3716
 6112SOL    HW224220   0.793   0.102   3.356  0.7367 -1.4694  0.9827
 6112SOL    HW324221   0.808   0.111   3.206 -2.4096  0.6299  0.7047
 6112SOL    MW424222   0.844   0.105   3.285  0.2865 -0.1365  0.2401
 6113SOL     OW24223   0.650   5.346   2.913 -0.1622 -0.0580  0.5421
 6113SOL    HW224224   0.648   5.420   2.852  1.1567  0.2699  0.8845
 6113SOL    HW324225   0.660   5.269   2.857  0.8259  0.2229  0.3246
 6113SOL    MW424226   0.651   5.346   2.897 -0.2968  0.7127  0.1433
 6114SOL     OW24227   3.563   5.253   3.659  0.5995  0.1982 -0.4051
 6114SOL    HW224228   3.586   5.308   3.584  0.8268 -3.3700 -3.2612
 6114SOL    HW324229   3.526   5.174   3.619 -0.7344 -1.3209  3.4014
 6114SOL    MW424230   3.561   5.250   3.643  0.0060  0.3683 -0.0858
 6115SOL     OW24231   0.293   3.420   0.524 -0.6357  0.3803  0.2926
 6115SOL    HW224232   0.268   3.473   0.600  0.0971  1.0177  0.0962
 6115SOL    HW324233   0.389   3.420   0.525 -0.6170  0.4689 -0.6862
 6115SOL    MW424234   0.303   3.427   0.534  0.4738 -0.1353 -0.3151
 6116SOL     OW24235   3.944   0.035   5.935  0.1411  0.4900  0.0038
 6116SOL    HW224236   4.005  -0.019   5.884 -1.0669 -1.8565  0.9087
 6116SOL    HW324237   3.923   0.108   5.876  1.3197 -0.3574 -1.5643
 6116SOL    MW424238   3.950   0.038   5.920 -0.0711  0.1115 -0.1112
 6117SOL     OW24239   5.355   3.331   0.765 -0.1226 -0.4654  0.4508
 6117SOL    HW224240   5.348   3.238   0.785  1.9002 -0.6464  0.5107
 6117SOL    HW324241   5.295   3.373   0.827 -0.2782 -1.6477  1.1303
 6117SOL    MW424242   5.346   3.324   0.776  0.1224 -0.1565  0.2340
 6118SOL     OW24243   0.149   6.049   1.670 -0.6472  0.1490 -0.6137
 6118SOL    HW224244   0.181   6.103   1.742 -1.7087 -1.2953  1.0328
 6118SOL    HW324245   0.227   6.005   1.636  0.0294  1.6919 -1.1334
 6118SOL    MW424246   0.164   6.050   1.675 -1.1059 -0.7348  0.2178
 6119SOL     OW24247   5.517   5.573   2.735 -0.6114 -0.4265  0.4281
 6119SOL    HW224248   5.548   5.656   2.771  0.7257 -0.4934 -0.4918
 6119SOL    HW324249   5.424   5.587   2.720 -0.1491  1.4640 -1.0739
 6119SOL    MW424250   5.509   5.586   2.738 -0.0946  0.1453  0.3879
 6120SOL     OW24251   3.308   0.252   4.595  0.3027  0.5589 -0.8011
 6120SOL    HW224252   3.301   0.228   4.688 -0.4410  0.7189 -0.8092
 6120SOL    HW324253   3.218   0.253   4.564  0.3656  2.3772 -1.0477
 6120SOL    MW424254   3.295   0.249   4.603 -0.5111 -0.2286 -0.1416
 6121SOL     OW24255   4.654   3.174   1.316  0.4406  0.3335 -0.4291
 6121SOL    HW224256   4.649   3.266   1.343  0.2105  0.2041 -0.0246
 6121SOL    HW324257   4.568   3.138   1.337 -0.2430  0.5433 -2.5609
 6121SOL    MW424258   4.642   3.181   1.322 -0.1146 -0.2909  0.5857
 6122SOL     OW24259   2.473   5.872   0.416  0.3529 -0.3545  0.0429
 6122SOL    HW224260   2.462   5.805   0.349 -0.5792 -0.0350 -0.1494
 6122SOL    HW324261   2.492   5.952   0.367 -0.3449 -0.1181  0.1401
 6122SOL    MW424262   2.474   5.874   0.401  0.3748  0.0233 -0.1875
 6123SOL     OW24263   6.161   5.542   4.045 -0.1840  0.2409  0.1188
 6123SOL    HW224264   6.246   5.521   4.084  0.0802  0.2027 -0.4717
 6123SOL    HW324265   6.105   5.467   4.066  0.9666 -1.5643 -2.6588
 6123SOL    MW424266   6.165   5.529   4.053  0.2514 -0.7206  0.0942
 6124SOL     OW24267   1.807   0.686   3.327  0.2364 -0.2940  0.1155
 6124SOL    HW224268   1.723   0.694   3.283  1.5197 -0.7470 -2.5779
 6124SOL    HW324269   1.836   0.776   3.340  1.4511 -0.0305 -3.4474
 6124SOL    MW424270   1.800   0.699   3.323 -0.1454 -0.2429  0.1670
 6125SOL     OW24271   1.894   3.404   2.683  0.3196  0.2149 -0.0531
 6125SOL    HW224272   1.929   3.444   2.603  1.8012 -0.5045  0.2020
 6125SOL    HW324273   1.933   3.455   2.754  0.3813 -0.2265  0.2330
 6125SOL    MW424274   1.904   3.416   2.682  0.1475 -0.2543 -0.1634
 6126SOL     OW24275   5.818   1.150   4.734  0.5592 -0.0732 -0.3949
 6126SOL    HW224276   5.789   1.073   4.782  0.9684  0.6349  1.0461
 6126SOL    HW324277   5.847   1.211   4.802 -0.2075  1.5474 -1.4653
 6126SOL    MW424278   5.818   1.148   4.749  0.2462  0.4372 -0.2759
 6127SOL     OW24279   4.841   6.052   5.109 -0.4930 -0.5167 -0.1683
 6127SOL    HW224280   4.745   6.044   5.105 -0.4899 -0.9269  0.4473
 6127SOL    HW324281   4.856   6.143   5.132 -0.7060 -0.2246 -1.1236
 6127SOL    MW424282   4.830   6.063   5.111 -0.2543  0.3180 -0.5008
 6128SOL     OW24283   3.825   5.834   2.036  0.1456  0.1322  0.7397
 6128SOL    HW224284   3.815   5.901   1.969 -0.6960  0.1987  0.9132
 6128SOL    HW324285   3.817   5.751   1.989 -0.8277  0.1822  0.7993
 6128SOL    MW424286   3.822   5.832   2.021  0.0917  0.1614  0.0185
 6129SOL     OW24287   4.006   3.621   1.208 -0.0441 -0.2626 -0.2629
 6129SOL    HW224288   4.048   3.535   1.213 -1.2323 -0.8872 -0.7280
 6129SOL    HW324289   4.014   3.646   1.116  0.9910  0.5120  0.0091
 6129SOL    MW424290   4.013   3.613   1.196 -0.0590 -0.3981  0.6882
 6130SOL     OW24291   3.043   4.687   2.520 -0.5517  0.0780  0.0707
 6130SOL    HW224292   3.114   4.735   2.479 -0.0321  0.3786  1.2808
 6130SOL    HW324293   3.084   4.610   2.559 -0.9111  0.1699  0.6439
 6130SOL    MW424294   3.058   4.683   2.520  0.4494  0.1384 -0.5271
 6131SOL     OW24295   4.486   2.577   3.938  0.0870 -0.1692  0.1081
 6131SOL    HW224296   4.581   2.573   3.946  0.0607 -0.2135  0.3930
 6131SOL    HW324297   4.471   2.611   3.849  0.3616 -0.5228 -0.0753
 6131SOL    MW424298   4.496   2.581   3.927 -0.1527 -0.7244 -0.1097
 6132SOL     OW24299   1.197   1.790   6.241  0.6879  0.1198  0.1705
 6132SOL    HW224300   1.161   1.835   6.318 -0.8207 -1.0070  0.1863
 6132SOL    HW324301   1.270   1.845   6.212  0.4789  1.2338  1.6422
 6132SOL    MW424302   1.202   1.803   6.248 -0.0605  0.6595 -0.4756
 6133SOL     OW24303   3.617   4.014   5.093  0.0154  0.5359  0.6582
 6133SOL    HW224304   3.604   3.920   5.104 -1.7623  0.2855 -2.5319
 6133SOL    HW324305   3.711   4.024   5.076  0.1982 -0.6495  0.8953
 6133SOL    MW424306   3.628   4.003   5.092  0.4789 -0.1980 -0.5830
 6134SOL     OW24307   3.200   5.901   2.844 -0.1309  0.3254  0.6569
 6134SOL    HW224308   3.154   5.824   2.877  0.0153  0.5822  1.4832
 6134SOL    HW324309   3.158   5.975   2.888 -1.9779  1.0061 -1.9558
 6134SOL    MW424310   3.188   5.900   2.854  0.2271  0.7610 -0.5883
 6135SOL     OW24311   0.628   2.512   5.298 -0.0139  0.3695 -0.3125
 6135SOL    HW224312   0.702   2.464   5.262 -0.0112 -0.1125  0.3019
 6135SOL    HW324313   0.666   2.591   5.336  0.3837 -0.4303  1.0560
 6135SOL    MW424314   0.643   2.516   5.298  0.0960  1.1534  0.3994
 6136SOL     OW24315   1.994   0.340   5.830 -0.3048 -0.9294  0.0475
 6136SOL    HW224316   1.939   0.368   5.903  0.1930 -1.6130  0.6903
 6136SOL    HW324317   2.010   0.248   5.846 -0.9426 -1.3253 -1.4187
 6136SOL    MW424318   1.989   0.332   5.842  0.3915  0.1977  0.0039
 6137SOL     OW24319   4.007   5.240   2.032  0.1037  0.3309  0.2005
 6137SOL    HW224320   4.060   5.235   2.112  1.4293 -0.4513 -0.6867
 6137SOL    HW324321   3.923   5.273   2.062  1.4920  3.0639  1.4904
 6137SOL    MW424322   4.003   5.244   2.047  0.0816 -0.6031 -0.0419
 6138SOL     OW24323   3.339   4.521   0.412  0.1908 -0.2046 -0.0709
 6138SOL    HW224324   3.327   4.436   0.370  2.4155  0.3283 -1.9945
 6138SOL    HW324325   3.431   4.522   0.436  0.3332  1.8538 -0.5625
 6138SOL    MW424326   3.349   4.510   0.410  0.0634 -1.0196  0.3018
 6139SOL     OW24327   5.917   3.074   3.451  0.5261  0.2148 -0.8047
 6139SOL    HW224328   5.883   3.055   3.363  0.8166  0.4926 -0.9782
 6139SOL    HW324329   5.850   3.131   3.490  0.9264  1.0214 -1.2610
 6139SOL    MW424330   5.903   3.079   3.445  0.4044  0.9030 -0.2930
 6140SOL     OW24331   4.775   0.146   2.790  0.6510  0.3821  0.1788
 6140SOL    HW224332   4.834   0.074   2.766  0.5359 -0.3693  1.9772
 6140SOL    HW324333   4.805   0.172   2.877 -1.1096  0.5765  0.7607
 6140SOL    MW424334   4.787   0.140   2.798  0.0780  0.3833 -0.6029
 6141SOL     OW24335   0.765   1.121   4.907  0.7440 -0.1037 -0.1309
 6141SOL    HW224336   0.724   1.206   4.924  1.6877 -0.0491  2.3569
 6141SOL    HW324337   0.822   1.136   4.832  0.7208  1.4117  0.1212
 6141SOL    MW424338   0.767   1.134   4.900  0.1900 -0.2258  0.5428
 6142SOL     OW24339   3.219   3.266   5.963  0.0650 -0.1958  0.5473
 6142SOL    HW224340   3.164   3.246   6.039 -0.6857  2.1118  0.6718
 6142SOL    HW324341   3.229   3.361   5.964 -0.7994  0.0725 -2.7710
 6142SOL    MW424342   3.213   3.276   5.973  0.2917  0.0695 -0.0136
 6143SOL     OW24343   6.072   2.682   2.869  0.0750  0.1195 -0.5660
 6143SOL    HW224344   5.993   2.732   2.849 -0.6276 -1.1576 -1.1590
 6143SOL    HW324345   6.054   2.594   2.834  1.9202 -0.0974 -1.1002
 6143SOL    MW424346   6.059   2.677   2.861 -0.0578  0.5123  0.0013
 6144SOL     OW24347   4.485   2.234   5.969  0.1988 -0.5682 -0.0527
 6144SOL    HW224348   4.405   2.182   5.972  0.2149 -0.7508 -2.0109
 6144SOL    HW324349   4.554   2.174   5.995  0.0539 -1.2116 -1.1088
 6144SOL    MW424350   4.484   2.219   5.973  0.3996  0.4776  0.1666
 6145SOL     OW24351   0.561   3.314   3.258  0.1745  0.3757  0.2172
 6145SOL    HW224352   0.630   3.375   3.284 -0.7648  1.2461  0.7368
 6145SOL    HW324353   0.607   3.232   3.238  1.4447  1.2079 -0.3814
 6145SOL    MW424354   0.576   3.311   3.259 -0.8140 -0.0470  0.0351
 6146SOL     OW24355   1.819   6.136   2.481 -0.1871 -0.0182  0.1372
 6146SOL    HW224356   1.889   6.185   2.438 -0.3239 -0.0736 -0.1494
 6146SOL    HW324357   1.854   6.116   2.568  0.0199  0.2489  0.1179
 6146SOL    MW424358   1.833   6.140   2.487 -0.4229  0.1919  0.0132
 6147SOL     OW24359   5.885   1.935   2.679  0.0687  0.5988 -0.0660
 6147SOL    HW224360   5.921   2.011   2.725  0.8899  1.3613 -1.8949
 6147SOL    HW324361   5.888   1.959   2.586 -1.3636 -0.9601 -0.5678
 6147SOL    MW424362   5.890   1.948   2.673 -0.2174 -0.0730 -0.1266
 6148SOL     OW24363   6.385   3.282   2.098  0.4345 -0.3436  0.5243
 6148SOL    HW224364   6.390   3.320   2.185  3.2529 -0.9180  0.6990
 6148SOL    HW324365   6.416   3.350   2.039 -0.1716 -0.4080  0.1193
 6148SOL    MW424366   6.390   3.296   2.101 -0.1339  0.1558  0.1167
 6149SOL     OW24367   2.158   0.041   5.049 -0.4086 -0.2199 -0.0765
 6149SOL    HW224368   2.227   0.095   5.088  0.0897 -1.0513  0.1957
 6149SOL    HW324369   2.077   0.072   5.092 -0.0475 -0.1407  0.5567
 6149SOL    MW424370   2.156   0.052   5.060 -0.2803 -0.0567  0.2528
 6150SOL     OW24371   3.264   3.038   1.243  0.0979 -0.3588  0.4602
 6150SOL    HW224372   3.203   2.970   1.271  0.3484 -0.2162  1.3727
 6150SOL    HW324373   3.232   3.065   1.157 -2.4775  1.3163  1.8425
 6150SOL    MW424374   3.252   3.032   1.235  0.5200 -0.0139 -0.4610
 6151SOL     OW24375   4.716   1.660   3.194 -0.6487  0.2844 -0.4596
 6151SOL    HW224376   4.790   1.667   3.254 -2.3909 -0.0530  1.8755
 6151SOL    HW324377   4.699   1.751   3.167 -0.5055  0.6057  0.4767
 6151SOL    MW424378   4.723   1.673   3.199  0.2491  0.1622 -0.6491
 6152SOL     OW24379   3.077   2.400   4.640  0.5249  0.3566  0.0413
 6152SOL    HW224380   3.050   2.439   4.723 -1.2384  0.2225 -0.4290
 6152SOL    HW324381   3.079   2.474   4.579 -0.5302  0.1247 -0.3093
 6152SOL    MW424382   3.073   2.415   4.643  0.0419 -0.0394  0.2167
 6153SOL     OW24383   2.774   1.945   6.043  0.1162  0.7871  0.4776
 6153SOL    HW224384   2.777   1.850   6.054  0.7680  0.7724  0.1893
 6153SOL    HW324385   2.783   1.979   6.132 -1.3193  0.5757  0.7324
 6153SOL    MW424386   2.775   1.937   6.057  0.1674 -0.4617  0.4350
 6154SOL     OW24387   5.289   4.254   4.450 -0.0652  0.3676 -0.5506
 6154SOL    HW224388   5.280   4.172   4.498 -0.0922  1.1260  0.7989
 6154SOL    HW324389   5.214   4.255   4.390  1.6915 -2.0458 -2.9611
 6154SOL    MW424390   5.278   4.244   4.449 -0.1944 -0.5340  0.3581
 6155SOL     OW24391   4.937   4.689   4.377  0.2328  0.2117  0.3994
 6155SOL    HW224392   4.902   4.754   4.439  0.1024 -0.9059  1.5512
 6155SOL    HW324393   4.863   4.669   4.320 -0.0171  0.3482  0.6699
 6155SOL    MW424394   4.922   4.695   4.378 -0.2240 -0.4953 -0.1011
 6156SOL     OW24395   1.773   5.061   1.804 -0.7451  0.5308 -0.1563
 6156SOL    HW224396   1.713   5.014   1.862  0.4578 -0.2927  0.4493
 6156SOL    HW324397   1.755   5.154   1.821 -1.0370  0.2992  0.8561
 6156SOL    MW424398   1.763   5.067   1.814 -0.6308 -0.1683  0.1185
 6157SOL     OW24399   5.332   1.362   4.814  0.3997  0.3807  0.0143
 6157SOL    HW224400   5.266   1.409   4.865  1.4347  1.7200  0.1871
 6157SOL    HW324401   5.388   1.431   4.778  1.6904 -0.7051 -0.1480
 6157SOL    MW424402   5.331   1.378   4.816  0.3632  0.6903  0.2144
 6158SOL     OW24403   2.226   5.317   3.520 -0.0117  0.0363 -0.2298
 6158SOL    HW224404   2.248   5.285   3.607  1.2377 -0.3788 -0.6687
 6158SOL    HW324405   2.131   5.306   3.513  0.1940 -2.4519  0.1032
 6158SOL    MW424406   2.217   5.311   3.530 -0.3019 -0.4542  0.1706
 6159SOL     OW24407   5.006   0.857   6.174 -0.1586 -0.2734  0.0900
 6159SOL    HW224408   5.061   0.894   6.243  0.7006  0.6656 -1.0430
 6159SOL    HW324409   4.937   0.922   6.162  0.1611 -0.0213 -0.4642
 6159SOL    MW424410   5.004   0.871   6.181  0.1498 -0.7266 -0.4395
 6160SOL     OW24411   0.174   2.817   0.219  0.7269  0.2688  0.2977
 6160SOL    HW224412   0.249   2.767   0.251  0.3686 -1.4796 -1.4387
 6160SOL    HW324413   0.098   2.777   0.261  0.6185  1.1420  0.9758
 6160SOL    MW424414   0.174   2.805   0.229  0.2892 -0.3312  0.3698
 6161SOL     OW24415   5.967   5.122   0.192 -0.3248 -0.3563  0.2864
 6161SOL    HW224416   6.036   5.061   0.164  1.5616  1.6575  0.2804
 6161SOL    HW324417   6.013   5.191   0.239 -1.9991  2.2611 -1.6106
 6161SOL    MW424418   5.982   5.123   0.194  0.0991  0.3434 -0.5334
 6162SOL     OW24419   1.969   2.097   1.865  0.0658  0.1241  0.0488
 6162SOL    HW224420   1.881   2.123   1.890  0.2213  0.1286  0.6020
 6162SOL    HW324421   2.024   2.125   1.939  0.4876 -0.1413 -0.1614
 6162SOL    MW424422   1.965   2.104   1.878  0.0282 -0.3255 -0.4383
 6163SOL     OW24423   4.766   0.885   2.301 -0.0116  0.1453  0.0244
 6163SOL    HW224424   4.713   0.959   2.271 -1.1273 -1.1419 -1.4317
 6163SOL    HW324425   4.718   0.808   2.269  0.7403 -1.2361  2.0574
 6163SOL    MW424426   4.752   0.884   2.293  0.0144 -0.1073  0.1254
 6164SOL     OW24427   3.623   2.447   0.017  0.1237  0.4313 -0.3499
 6164SOL    HW224428   3.573   2.524   0.045 -1.1351 -0.7422  0.8191
 6164SOL    HW324429   3.660   2.412   0.098 -1.8040 -1.8328 -0.3557
 6164SOL    MW424430   3.621   2.453   0.031 -0.0262 -0.0638 -0.1451
 6165SOL     OW24431   3.036   5.494   4.009  0.4137  0.1060 -0.4769
 6165SOL    HW224432   2.958   5.549   4.001  1.2658  1.2432 -1.3415
 6165SOL    HW324433   3.004   5.405   3.998 -0.9349  0.4448  0.4412
 6165SOL    MW424434   3.022   5.490   4.007 -0.4261  0.0061 -0.3447
 6166SOL     OW24435   2.294   5.611   3.087 -0.0939  0.3861 -0.0273
 6166SOL    HW224436   2.228   5.676   3.063 -1.7200 -1.3246 -0.4414
 6166SOL    HW324437   2.252   5.526   3.068  2.3260 -0.7787 -0.5636
 6166SOL    MW424438   2.280   5.608   3.081 -0.4314 -0.2857  0.2877
 6167SOL     OW24439   5.849   4.890   2.960 -0.1872  0.5438 -0.5444
 6167SOL    HW224440   5.766   4.932   2.982 -0.7844  0.4426 -2.3876
 6167SOL    HW324441   5.912   4.962   2.952 -0.2369  0.6796  0.2369
 6167SOL    MW424442   5.847   4.905   2.962 -0.1759 -0.0304  0.1244
 6168SOL     OW24443   4.034   0.699   5.976  0.5279 -0.6816 -0.3411
 6168SOL    HW224444   4.097   0.771   5.987  0.6848 -0.9012  0.2089
 6168SOL    HW324445   3.958   0.740   5.936 -0.6779  0.4778  2.8378
 6168SOL    MW424446   4.033   0.714   5.972  0.7756 -0.4154  0.1444
 6169SOL     OW24447   2.772   2.603   4.641 -0.3118 -0.4612  0.1289
 6169SOL    HW224448   2.788   2.696   4.630  1.2807 -0.7679 -0.3489
 6169SOL    HW324449   2.813   2.582   4.725 -0.7839 -0.7127  0.2999
 6169SOL    MW424450   2.779   2.612   4.651 -0.1870 -0.0737  0.6640
 6170SOL     OW24451   6.252   3.605   3.056 -0.3357  0.4014  0.3965
 6170SOL    HW224452   6.192   3.680   3.063 -1.8494 -0.6071 -1.0587
 6170SOL    HW324453   6.237   3.555   3.137 -0.5072  0.8332  0.6333
 6170SOL    MW424454   6.242   3.608   3.068  0.2121 -0.0924  0.2333
 6171SOL     OW24455   2.302   0.125   5.435 -0.4745  0.0710  0.0855
 6171SOL    HW224456   2.333   0.171   5.357 -0.1688 -0.5304 -0.1520
 6171SOL    HW324457   2.276   0.195   5.496  0.9026  0.5832  0.1084
 6171SOL    MW424458   2.302   0.141   5.433  0.5610 -0.1040  0.4980
 6172SOL     OW24459   5.632   2.346   0.381  0.3663  0.6351 -0.5743
 6172SOL    HW224460   5.705   2.298   0.420  0.3029  0.3989 -0.7421
 6172SOL    HW324461   5.673   2.418   0.333  0.5648 -0.1173 -1.5537
 6172SOL    MW424462   5.647   2.349   0.380  0.0100  0.7901  0.0127
 6173SOL     OW24463   5.260   3.192   2.785  0.6954  0.6587  0.0356
 6173SOL    HW224464   5.350   3.162   2.774  0.9438  1.7630 -1.0937
 6173SOL    HW324465   5.230   3.211   2.697 -0.3062  1.2730  0.4940
 6173SOL    MW424466   5.268   3.190   2.772 -0.1340 -0.4560 -0.0411
 6174SOL     OW24467   4.128   6.212   1.588 -0.0689 -0.2458 -0.0430
 6174SOL    HW224468   4.062   6.277   1.612 -0.0122 -0.3088  0.2830
 6174SOL    HW324469   4.151   6.234   1.498 -1.1354 -0.7347 -0.4507
 6174SOL    MW424470   4.122   6.223   1.579 -0.0267  0.3598 -0.0208
 6175SOL     OW24471   2.054   4.185   6.302  0.7376  0.6416 -0.0415
 6175SOL    HW224472   1.975   4.174   6.249 -0.3064  1.0149  1.3752
 6175SOL    HW324473   2.078   4.096   6.329  2.2982  0.2290 -2.4556
 6175SOL    MW424474   2.047   4.172   6.299  0.2002  0.6808 -0.4775
 6176SOL     OW24475   0.103   3.120   6.315 -0.2225 -0.1374 -0.1103
 6176SOL    HW224476   0.029   3.175   6.289 -2.8262 -1.7320  3.1991
 6176SOL    HW324477   0.159   3.177   6.367 -1.5862  0.0479  1.2004
 6176SOL    MW424478   0.101   3.134   6.318  0.6454  0.0207  0.0162
 6177SOL     OW24479   4.358   5.770   4.685 -0.5289 -0.2385 -0.7178
 6177SOL    HW224480   4.280   5.801   4.638 -1.6446 -0.4274  0.9452
 6177SOL    HW324481   4.354   5.674   4.678 -1.4092 -0.3437  0.7742
 6177SOL    MW424482   4.347   5.761   4.678 -0.0914  0.4270  0.6811
 6178SOL     OW24483   4.869   0.274   4.478  0.0234 -0.1043 -0.2111
 6178SOL    HW224484   4.938   0.314   4.426 -1.1022  3.8107  0.9421
 6178SOL    HW324485   4.855   0.336   4.550 -2.5168 -2.3117  1.3796
 6178SOL    MW424486   4.876   0.287   4.481  0.0909 -0.0211  0.1144
 6179SOL     OW24487   5.605   0.091   3.420 -0.0001  0.4535  0.2559
 6179SOL    HW224488   5.639   0.005   3.444 -0.9408 -0.0512 -0.1628
 6179SOL    HW324489   5.570   0.080   3.332  1.0511  1.6228 -0.3416
 6179SOL    MW424490   5.605   0.078   3.412  0.4215  0.6586  0.1072
 6180SOL     OW24491   0.570   1.145   0.306 -0.5176 -0.4683  0.4127
 6180SOL    HW224492   0.547   1.053   0.291 -0.3075 -0.4631  0.0358
 6180SOL    HW324493   0.666   1.148   0.296 -0.5770 -0.1166 -0.0831
 6180SOL    MW424494   0.580   1.133   0.303 -0.0882  0.3868 -0.6048
 6181SOL     OW24495   3.056   0.642   0.361  0.5465 -0.1330  0.3790
 6181SOL    HW224496   3.075   0.658   0.269  3.7248  0.5768  1.0058
 6181SOL    HW324497   2.988   0.575   0.361 -0.4237  0.7247 -2.4258
 6181SOL    MW424498   3.050   0.635   0.349  0.0892  0.3198 -0.7000
 6182SOL     OW24499   3.359   4.825   1.660 -0.0204 -0.0324  0.3814
 6182SOL    HW224500   3.369   4.744   1.711  1.7688 -0.1127 -0.0318
 6182SOL    HW324501   3.447   4.862   1.657 -0.4076  0.8341 -1.2510
 6182SOL    MW424502   3.372   4.819   1.667 -0.6903 -0.3901  0.1129
 6183SOL     OW24503   0.237   1.914   6.081 -0.2856 -0.2264  0.3423
 6183SOL    HW224504   0.219   1.863   6.002 -0.5731 -0.8228  0.7800
 6183SOL    HW324505   0.150   1.930   6.119 -0.3252  1.6661 -0.4139
 6183SOL    MW424506   0.223   1.909   6.076  0.2922  0.6270 -0.8043
 6184SOL     OW24507   2.617   2.035   5.777  0.0233  0.6168  0.1032
 6184SOL    HW224508   2.603   2.120   5.735  0.2984  0.5695 -0.0854
 6184SOL    HW324509   2.550   1.979   5.740 -0.4050  0.8471  0.5106
 6184SOL    MW424510   2.607   2.039   5.767 -0.5144  0.4041  0.1817
 6185SOL     OW24511   2.328   3.810   4.405  0.6488 -0.3552  0.5135
 6185SOL    HW224512   2.277   3.837   4.328 -1.4197  1.5093  2.3934
 6185SOL    HW324513   2.394   3.749   4.370 -1.4194 -1.1354 -2.4158
 6185SOL    MW424514   2.330   3.805   4.390  0.0785  0.2861 -0.0619
 6186SOL     OW24515   1.736   0.051   5.942  0.4594 -0.1808  0.0416
 6186SOL    HW224516   1.659   0.097   5.907  1.0808  0.6167 -0.3047
 6186SOL    HW324517   1.731  -0.037   5.904  0.2495  0.1728 -0.7675
 6186SOL    MW424518   1.725   0.046   5.932  0.4256  0.3690 -0.0755
 6187SOL     OW24519   1.590   5.909   3.736  0.0722 -0.1102 -0.0594
 6187SOL    HW224520   1.674   5.949   3.755  1.0137 -1.1970 -1.6839
 6187SOL    HW324521   1.536   5.982   3.705  0.1543  0.7085  1.5835
 6187SOL    MW424522   1.594   5.924   3.734 -0.0339 -0.2227  0.5095
 6188SOL     OW24523   2.189   1.280   1.335 -0.8525 -0.2719  0.9230
 6188SOL    HW224524   2.248   1.350   1.308 -0.1220 -0.9585  0.7055
 6188SOL    HW324525   2.104   1.323   1.345 -0.8450  0.3050 -1.0589
 6188SOL    MW424526   2.185   1.294   1.333 -0.3925  0.0243 -0.8359
 6189SOL     OW24527   1.741   4.969   0.791 -0.8481  0.3598  0.3735
 6189SOL    HW224528   1.739   4.929   0.878  0.1069  0.5636  0.5064
 6189SOL    HW324529   1.808   5.037   0.798 -0.7385  0.3600 -0.5302
 6189SOL    MW424530   1.750   4.973   0.803 -0.4311  0.6761  0.3939
 6190SOL     OW24531   3.655   4.875   6.215 -0.1439  0.1816  0.4723
 6190SOL    HW224532   3.730   4.907   6.166 -1.0770  0.7259 -0.6612
 6190SOL    HW324533   3.599   4.834   6.149 -0.6640 -0.5552  1.3516
 6190SOL    MW424534   3.657   4.874   6.200 -0.0336  0.5337 -0.3947
 6191SOL     OW24535   3.374   6.191   4.701  0.7850  0.3627 -0.3839
 6191SOL    HW224536   3.374   6.264   4.639 -0.0348 -1.3614 -2.4890
 6191SOL    HW324537   3.413   6.118   4.654  0.8197 -0.8385  1.4013
 6191SOL    MW424538   3.379   6.191   4.687 -0.4494 -0.1756  0.5852
 6192SOL     OW24539   2.197   0.676   4.259 -0.4298 -0.0103 -0.3956
 6192SOL    HW224540   2.106   0.703   4.256 -0.0745  1.2794 -0.2446
 6192SOL    HW324541   2.230   0.694   4.170 -0.4333 -0.8983 -0.5828
 6192SOL    MW424542   2.190   0.682   4.247  0.0487 -0.1178 -0.5626
 6193SOL     OW24543   2.588   2.557   3.770 -0.0143 -0.8503 -0.1265
 6193SOL    HW224544   2.531   2.633   3.758  0.1016 -0.7063  0.2160
 6193SOL    HW324545   2.539   2.499   3.828 -0.0344 -0.9623 -0.2567
 6193SOL    MW424546   2.574   2.559   3.776  0.7706  0.2337 -0.4223
 6194SOL     OW24547   1.344   0.737   2.169 -0.2540 -0.0514  0.8467
 6194SOL    HW224548   1.387   0.809   2.124 -2.0405  1.0919  0.8646
 6194SOL    HW324549   1.251   0.751   2.153 -0.6532 -3.2196 -0.4527
 6194SOL    MW424550   1.337   0.748   2.161 -0.1069 -0.0838 -0.2675
 6195SOL     OW24551   3.998   1.004   3.353  0.3410 -0.4249 -0.0211
 6195SOL    HW224552   3.966   0.998   3.263  0.6716 -2.2243 -0.0444
 6195SOL    HW324553   4.093   1.004   3.344  0.3742 -0.6628  0.3397
 6195SOL    MW424554   4.006   1.004   3.340  0.1017  0.2633 -0.5126
 6196SOL     OW24555   1.041   4.934   5.684  0.0975 -0.2587  0.4817
 6196SOL    HW224556   1.106   4.876   5.645 -0.0360 -0.3521  0.3964
 6196SOL    HW324557   0.963   4.924   5.629  0.0265 -0.1101  0.5530
 6196SOL    MW424558   1.039   4.925   5.671  0.8278  0.3641  0.0956
 6197SOL     OW24559   4.895   1.856   4.558 -0.4503  0.3923 -0.2845
 6197SOL    HW224560   4.812   1.890   4.524 -1.9800  0.9907  3.4910
 6197SOL    HW324561   4.883   1.856   4.653  3.7123 -0.0500  0.4281
 6197SOL    MW424562   4.883   1.861   4.566 -0.6585 -0.3641 -0.7488
 6198SOL     OW24563   0.587   4.553   5.733 -0.0728  0.9419  0.5383
 6198SOL    HW224564   0.598   4.481   5.795  1.3025  0.9677  0.3619
 6198SOL    HW324565   0.590   4.512   5.647 -2.3297  0.8614  0.4563
 6198SOL    MW424566   0.589   4.538   5.730  0.0351 -0.5875  0.1572
 6199SOL     OW24567   5.320   2.876   2.318  0.2141  0.1419 -0.2138
 6199SOL    HW224568   5.357   2.828   2.243 -0.5567 -1.7254  0.5260
 6199SOL    HW324569   5.393   2.889   2.378  0.5887  0.5927 -0.7600
 6199SOL    MW424570   5.335   2.871   2.316  0.8031 -0.1966  0.4002
 6200SOL     OW24571   1.881   5.418   2.714  0.3098 -0.0743  0.1846
 6200SOL    HW224572   1.875   5.379   2.801 -1.6785 -1.9049 -0.6667
 6200SOL    HW324573   1.827   5.497   2.720  0.3493 -0.0787  0.6554
 6200SOL    MW424574   1.873   5.423   2.726  0.3559  0.3210  0.0715
 6201SOL     OW24575   5.187   3.629   1.880  0.0083  0.0992 -0.3009
 6201SOL    HW224576   5.099   3.663   1.895 -0.8671 -0.6225 -3.1871
 6201SOL    HW324577   5.204   3.572   1.955 -1.6978  0.7634  0.6302
 6201SOL    MW424578   5.178   3.626   1.892  0.4702  0.8329  0.1437
 6202SOL     OW24579   4.767   5.574   5.833  0.6575 -0.2291  0.3843
 6202SOL    HW224580   4.758   5.636   5.905  2.2560  0.2335  0.2257
 6202SOL    HW324581   4.682   5.530   5.828  0.4756 -0.1901  2.4582
 6202SOL    MW424582   4.754   5.576   5.842 -0.1213  0.2756  0.0894
 6203SOL     OW24583   3.615   5.096   5.411 -0.1310 -0.2335  0.4430
 6203SOL    HW224584   3.661   5.163   5.361  1.0205 -0.4820  1.1364
 6203SOL    HW324585   3.586   5.139   5.491  0.5896 -0.5523  0.8791
 6203SOL    MW424586   3.617   5.110   5.415  0.3153 -0.7563  0.2125
 6204SOL     OW24587   3.517   4.041   1.778  0.1212 -0.1850 -0.3881
 6204SOL    HW224588   3.519   3.946   1.786  2.4620 -0.0643  1.5702
 6204SOL    HW324589   3.585   4.062   1.714 -0.0754  0.1967 -0.4797
 6204SOL    MW424590   3.526   4.032   1.770 -0.6924 -0.4347 -0.0194
 6205SOL     OW24591   5.767   1.258   2.437 -0.3058 -0.0122  0.1685
 6205SOL    HW224592   5.725   1.184   2.480 -2.0836 -0.1084 -1.5849
 6205SOL    HW324593   5.695   1.313   2.407  0.8590  0.7900 -1.3531
 6205SOL    MW424594   5.752   1.256   2.438 -0.8506  0.2310  0.0823
 6206SOL     OW24595   2.577   2.619   1.295 -0.1286 -0.1137  0.0582
 6206SOL    HW224596   2.630   2.697   1.312  0.7625 -0.7905  0.4361
 6206SOL    HW324597   2.597   2.595   1.204 -1.7641  1.1094 -0.6733
 6206SOL    MW424598   2.587   2.626   1.285  0.2061  0.2290  0.0591
 6207SOL     OW24599   0.717   6.129   3.668 -0.4738  0.2441  0.1636
 6207SOL    HW224600   0.755   6.198   3.613 -0.5320  1.7592  1.9328
 6207SOL    HW324601   0.623   6.146   3.665 -0.9401 -2.0926 -2.3416
 6207SOL    MW424602   0.709   6.140   3.660 -0.0128  0.0018 -0.3027
 6208SOL     OW24603   2.549   4.014   5.700 -0.2019  0.1313 -0.2699
 6208SOL    HW224604   2.462   4.055   5.705 -0.1415  0.2419 -0.1195
 6208SOL    HW324605   2.610   4.085   5.720 -0.0497  0.1571 -0.7897
 6208SOL    MW424606   2.546   4.029   5.703 -0.2698  0.1105 -0.5385
 6209SOL     OW24607   6.066   4.204   5.357  0.5856  0.6353 -0.3180
 6209SOL    HW224608   6.154   4.193   5.321  0.1457  2.1106 -2.0029
 6209SOL    HW324609   6.042   4.294   5.334 -1.6388  0.0288 -0.5840
 6209SOL    MW424610   6.074   4.215   5.349  0.1217  0.3429 -0.0675
 6210SOL     OW24611   5.804   1.136   4.120  0.0651  0.7001  0.6063
 6210SOL    HW224612   5.861   1.067   4.154  0.7067  0.3753 -1.0431
 6210SOL    HW324613   5.748   1.091   4.056  0.4006  1.6570 -0.3982
 6210SOL    MW424614   5.804   1.121   4.116 -0.3477  0.5489 -0.0534
 6211SOL     OW24615   5.346   5.778   1.676  0.2347 -0.3044 -0.7656
 6211SOL    HW224616   5.435   5.747   1.690  0.1149 -1.1719 -1.7800
 6211SOL    HW324617   5.357   5.869   1.647  0.7729 -0.3554 -0.7350
 6211SOL    MW424618   5.359   5.786   1.674  0.1105  0.1947  0.3493
 6212SOL     OW24619   0.746   6.114   4.302 -0.3912  0.3748 -0.1922
 6212SOL    HW224620   0.654   6.123   4.328 -0.2656  0.3435  0.2855
 6212SOL    HW324621   0.793   6.110   4.385  0.4173  3.8007 -0.3772
 6212SOL    MW424622   0.740   6.114   4.317 -0.1428  0.0499  0.1755
 6213SOL     OW24623   5.417   6.046   2.131 -0.1276  0.1197 -0.4326
 6213SOL    HW224624   5.475   6.020   2.059 -0.5983  0.0781 -0.8014
 6213SOL    HW324625   5.445   5.993   2.205  0.7301  0.5648 -0.4307
 6213SOL    MW424626   5.428   6.035   2.131  0.4572  0.2246  0.2782
 6214SOL     OW24627   5.002   1.163   4.092  0.0957 -0.1822  0.0735
 6214SOL    HW224628   5.085   1.211   4.088  0.2614  0.0805  3.5462
 6214SOL    HW324629   4.975   1.170   4.183 -3.6385 -0.5563 -0.8534
 6214SOL    MW424630   5.009   1.170   4.103 -0.3248  0.1808 -0.0034
 6215SOL     OW24631   2.785   4.733   5.619  0.4641 -0.2879 -0.0377
 6215SOL    HW224632   2.793   4.688   5.535  0.1772  0.5513 -0.5184
 6215SOL    HW324633   2.812   4.823   5.601 -0.4750  0.1227  0.5682
 6215SOL    MW424634   2.790   4.739   5.606 -0.1522 -0.3083 -0.1041
 6216SOL     OW24635   4.373   5.716   5.520  0.5053  0.7372  0.4989
 6216SOL    HW224636   4.366   5.691   5.428 -2.9301  2.4043  0.1466
 6216SOL    HW324637   4.368   5.633   5.567  1.3800 -0.0724 -0.7447
 6216SOL    MW424638   4.372   5.702   5.514  0.4131  0.3340 -0.3774
 6217SOL     OW24639   0.970   0.833   2.523 -0.7881  0.2007  0.5408
 6217SOL    HW224640   0.886   0.803   2.488 -1.1019 -0.4968  1.8420
 6217SOL    HW324641   1.034   0.768   2.494 -0.8188  0.3275  0.1846
 6217SOL    MW424642   0.968   0.821   2.514  0.1810  0.0747  0.2599
 6218SOL     OW24643   3.870   4.376   3.550  0.0196  0.4838  0.1654
 6218SOL    HW224644   3.948   4.354   3.601 -0.2110  0.0191  0.3234
 6218SOL    HW324645   3.846   4.464   3.579 -1.3025 -0.5482  2.3708
 6218SOL    MW424646   3.877   4.385   3.560  0.0383  0.2766 -0.1971
 6219SOL     OW24647   3.737   5.927   5.694 -0.9940 -0.3051  0.1371
 6219SOL    HW224648   3.764   5.837   5.676  1.2095  0.7466 -2.5343
 6219SOL    HW324649   3.693   5.955   5.614 -1.3710  1.0851  0.8068
 6219SOL    MW424650   3.735   5.919   5.681 -0.0787 -0.0000 -0.7027
 6220SOL     OW24651   0.415   3.822   0.438 -0.1082 -0.3801 -0.1858
 6220SOL    HW224652   0.390   3.827   0.531  0.0741 -1.6279 -0.0474
 6220SOL    HW324653   0.465   3.902   0.422  0.8180 -0.6677  1.0959
 6220SOL    MW424654   0.418   3.833   0.448 -0.3374  0.0563  0.1967
 6221SOL     OW24655   4.115   3.752   5.478 -0.1520  0.7211 -0.2494
 6221SOL    HW224656   4.061   3.674   5.487  0.6467  0.1819 -0.0071
 6221SOL    HW324657   4.152   3.746   5.390 -0.0340  0.7902 -0.2048
 6221SOL    MW424658   4.113   3.741   5.467 -0.3635  0.4058  0.3991
 6222SOL     OW24659   3.938   0.088   1.011  0.2450 -0.0728  0.1976
 6222SOL    HW224660   3.854   0.054   1.044  0.6734 -2.5965 -1.0212
 6222SOL    HW324661   4.002   0.061   1.076  0.6395 -2.0984 -0.9523
 6222SOL    MW424662   3.935   0.080   1.024  0.1960 -0.5540  0.4871
 6223SOL     OW24663   5.169   1.759   2.952  0.3754  0.3521 -0.0489
 6223SOL    HW224664   5.261   1.787   2.947 -0.3724  2.9240 -1.4958
 6223SOL    HW324665   5.172   1.674   2.996  3.3693  0.6545  0.5623
 6223SOL    MW424666   5.182   1.751   2.957 -0.1605 -0.3339 -0.1926
 6224SOL     OW24667   3.510   5.436   2.711  0.2435 -0.1647  0.2352
 6224SOL    HW224668   3.462   5.353   2.711  0.9838 -0.6097 -0.2737
 6224SOL    HW324669   3.456   5.496   2.660 -0.1375 -0.4270  0.3295
 6224SOL    MW424670   3.497   5.433   2.705  0.6761 -0.3019 -0.6640
 6225SOL     OW24671   6.061   3.946   0.363 -0.3839 -0.3780  0.3255
 6225SOL    HW224672   6.109   3.999   0.298  1.8037  0.3891  2.4266
 6225SOL    HW324673   6.099   3.858   0.354 -0.0792 -0.2713  0.5742
 6225SOL    MW424674   6.073   3.941   0.353 -0.3429  0.2462  0.0986
 6226SOL     OW24675   5.975   6.400   0.841 -0.4211 -0.2498 -1.0651
 6226SOL    HW224676   5.976   6.304   0.844 -0.7223 -0.2521 -0.9887
 6226SOL    HW324677   5.883   6.422   0.827 -0.9902  0.1399  2.5068
 6226SOL    MW424678   5.963   6.390   0.839 -0.2159 -0.2521 -0.3103
 6227SOL     OW24679   5.354   3.623   4.955  0.1158  0.3636  0.2918
 6227SOL    HW224680   5.424   3.688   4.947  0.6031 -0.1923  0.0527
 6227SOL    HW324681   5.387   3.545   4.911 -0.0361 -0.4083  1.4975
 6227SOL    MW424682   5.367   3.621   4.948 -0.2647 -0.7455 -0.0828
 6228SOL     OW24683   1.665   2.120   0.753  0.6001 -0.5819  0.3799
 6228SOL    HW224684   1.747   2.114   0.704  0.1990  2.2169 -0.8279
 6228SOL    HW324685   1.640   2.212   0.747 -2.0842 -1.1218  1.6538
 6228SOL    MW424686   1.673   2.131   0.746  0.0803  0.0821  0.0718
 6229SOL     OW24687   3.213   4.922   3.996 -0.3116  0.6141 -0.1723
 6229SOL    HW224688   3.181   4.854   3.936 -1.7119  1.2253 -0.1481
 6229SOL    HW324689   3.307   4.906   4.001 -0.5683 -1.1867 -0.3502
 6229SOL    MW424690   3.221   4.911   3.989 -0.4302  0.3783 -0.2633
 6230SOL     OW24691   2.101   3.170   6.240  0.4695 -0.5559 -0.5762
 6230SOL    HW224692   2.039   3.219   6.293 -0.2723  0.0422 -1.9412
 6230SOL    HW324693   2.184   3.174   6.288  0.1765  1.1801 -0.1820
 6230SOL    MW424694   2.104   3.177   6.253 -0.2720  0.1833  0.5438
 6231SOL     OW24695   1.219   4.989   0.960 -0.1962 -0.1589  0.4656
 6231SOL    HW224696   1.303   4.973   1.003  0.2956 -0.6499 -0.6435
 6231SOL    HW324697   1.219   5.082   0.940  0.2414 -0.2257  0.1541
 6231SOL    MW424698   1.230   4.999   0.963  0.2651 -0.2357  0.0213
 6232SOL     OW24699   0.841   0.492   2.777  0.1328  0.3850  0.0085
 6232SOL    HW224700   0.894   0.455   2.706 -1.3040  0.4769 -1.1798
 6232SOL    HW324701   0.767   0.533   2.732  0.0111  1.8748  1.4952
 6232SOL    MW424702   0.838   0.492   2.762 -0.3940  0.2166 -0.3449
 6233SOL     OW24703   5.499   0.278   0.363  0.9934 -0.1916  0.2234
 6233SOL    HW224704   5.495   0.343   0.433  0.1320 -1.0311  0.9834
 6233SOL    HW324705   5.481   0.329   0.283  0.3910  0.5211  0.7914
 6233SOL    MW424706   5.496   0.294   0.362 -0.0533 -0.2123 -0.1603
 6234SOL     OW24707   1.512   5.829   4.547  0.3400 -0.4902  0.6350
 6234SOL    HW224708   1.607   5.826   4.537  0.5054 -0.3304  1.9506
 6234SOL    HW324709   1.498   5.832   4.642 -0.9153  1.1392  0.4536
 6234SOL    MW424710   1.523   5.829   4.558 -0.3581 -0.0088  0.1785
 6235SOL     OW24711   6.303   6.359   0.879 -0.0358 -0.5139  0.0372
 6235SOL    HW224712   6.243   6.294   0.840 -1.7318  0.1113  1.5074
 6235SOL    HW324713   6.312   6.331   0.970  0.4073  0.4846  0.3044
 6235SOL    MW424714   6.296   6.346   0.886 -0.7077 -0.6152  0.2778
 6236SOL     OW24715   1.826   5.207   2.215 -0.5039 -0.3580 -0.1976
 6236SOL    HW224716   1.893   5.154   2.173 -0.6780 -0.7008 -0.0543
 6236SOL    HW324717   1.790   5.150   2.283 -1.4643 -0.4632 -0.7730
 6236SOL    MW424718   1.830   5.193   2.218 -0.4990 -0.5055  0.1104
 6237SOL     OW24719   0.332   5.564   5.062  0.2215 -0.3022 -0.2152
 6237SOL    HW224720   0.354   5.640   5.008 -1.4035 -0.3734 -1.0422
 6237SOL    HW324721   0.360   5.489   5.011  0.9691 -0.3047  0.1835
 6237SOL    MW424722   0.339   5.564   5.049 -0.3481  0.0925 -0.2485
 6238SOL     OW24723   4.476   4.683   5.103  0.3823 -0.5199 -0.1828
 6238SOL    HW224724   4.401   4.639   5.143  0.6905  0.0021  1.0185
 6238SOL    HW324725   4.508   4.622   5.037  0.1407 -1.6422  0.7006
 6238SOL    MW424726   4.471   4.669   5.100  0.4316  0.4686 -0.1207
 6239SOL     OW24727   3.466   3.985   4.330  0.0101 -0.5387 -0.1284
 6239SOL    HW224728   3.520   3.913   4.298  0.8668  0.1960 -0.3664
 6239SOL    HW324729   3.497   4.000   4.419 -0.3748 -0.6482  0.0287
 6239SOL    MW424730   3.477   3.977   4.337 -1.3507  0.4080  0.3661
 6240SOL     OW24731   6.075   4.151   2.793  0.2163 -0.2509 -0.0021
 6240SOL    HW224732   6.024   4.231   2.778 -0.4336 -0.8823 -1.3886
 6240SOL    HW324733   6.024   4.102   2.857 -1.8727 -1.5720 -2.4710
 6240SOL    MW424734   6.061   4.155   2.799 -0.4062  0.0998 -0.0003
 6241SOL     OW24735   0.518   1.441   1.077  0.0146 -0.4788  0.1825
 6241SOL    HW224736   0.548   1.495   1.004 -0.3257 -1.1763 -0.4878
 6241SOL    HW324737   0.505   1.354   1.039  0.2677 -0.9658  1.1758
 6241SOL    MW424738   0.520   1.437   1.063  0.0866 -0.1433 -0.0085
 6242SOL     OW24739   2.121   2.072   0.302 -0.4363 -0.3066 -0.2611
 6242SOL    HW224740   2.102   1.988   0.260 -1.2233 -0.8561  1.1250
 6242SOL    HW324741   2.153   2.048   0.389  1.3144  0.7897 -0.5444
 6242SOL    MW424742   2.123   2.058   0.308  0.2083  0.2758  0.2578
 6243SOL     OW24743   0.723   1.188   3.254 -0.1657 -0.6556 -0.7047
 6243SOL    HW224744   0.643   1.237   3.235  1.6836  2.8976 -0.2537
 6243SOL    HW324745   0.786   1.219   3.188  1.8462 -0.3515  1.2363
 6243SOL    MW424746   0.721   1.199   3.242  0.2360  0.5793 -0.1489
 6244SOL     OW24747   1.254   4.653   1.303 -0.4212 -0.4298  0.0471
 6244SOL    HW224748   1.287   4.566   1.280 -0.5713 -0.6915  0.7960
 6244SOL    HW324749   1.201   4.679   1.228 -0.7862 -1.1994  0.0308
 6244SOL    MW424750   1.251   4.645   1.290  0.2353 -0.2237 -0.1308
 6245SOL     OW24751   4.790   0.839   3.867  0.1983 -0.2272  0.5639
 6245SOL    HW224752   4.740   0.761   3.893 -0.8790  0.5100  0.7912
 6245SOL    HW324753   4.727   0.911   3.876 -0.1452  0.2007 -3.4786
 6245SOL    MW424754   4.775   0.838   3.872  0.1051  0.4755  0.0311
 6246SOL     OW24755   3.082   1.080   4.388 -0.0452 -0.1955  0.3709
 6246SOL    HW224756   2.993   1.066   4.357 -0.3998 -0.5810  1.5040
 6246SOL    HW324757   3.082   1.170   4.421 -0.5936 -0.8171  2.1582
 6246SOL    MW424758   3.071   1.090   4.388 -0.0541 -0.5134  0.1730
 6247SOL     OW24759   2.116   0.223   3.703  0.6911 -0.0944 -0.7964
 6247SOL    HW224760   2.097   0.158   3.636 -0.2688 -0.7693  0.1028
 6247SOL    HW324761   2.179   0.181   3.761 -0.2891 -0.4283  0.0543
 6247SOL    MW424762   2.122   0.209   3.701 -0.2570  0.1270  0.1403
 6248SOL     OW24763   2.484   4.929  -0.021 -0.4486 -0.3186 -0.2704
 6248SOL    HW224764   2.509   4.884   0.060 -1.5233 -0.8574 -0.2106
 6248SOL    HW324765   2.422   4.869  -0.063 -2.3232  1.2825  0.0592
 6248SOL    MW424766   2.479   4.915  -0.016 -0.0314 -0.5569 -0.2913
 6249SOL     OW24767   5.633   5.098   5.074 -0.2919 -0.3808 -0.5473
 6249SOL    HW224768   5.585   5.154   5.013 -0.0465  1.2428  0.6882
 6249SOL    HW324769   5.715   5.078   5.030  0.9460  2.7720  0.1169
 6249SOL    MW424770   5.637   5.103   5.060  0.1678  0.4038 -0.2591
 6250SOL     OW24771   3.708   0.298   3.835  0.3043 -0.1956  0.0370
 6250SOL    HW224772   3.719   0.272   3.744 -1.4726  0.2241 -0.3433
 6250SOL    HW324773   3.793   0.333   3.861  0.6161  0.4524 -1.7136
 6250SOL    MW424774   3.721   0.299   3.826  0.2403  0.0484  0.7203
 6251SOL     OW24775   3.991   0.787   4.170 -0.0122  0.3752 -0.3554
 6251SOL    HW224776   4.027   0.753   4.089 -1.3492 -0.1512 -0.7529
 6251SOL    HW324777   3.959   0.875   4.147  3.3466  2.0438  0.6422
 6251SOL    MW424778   3.992   0.794   4.156 -0.1072  0.1529 -0.5714
 6252SOL     OW24779   6.035   1.802   1.756  0.5146  0.2151  0.5106
 6252SOL    HW224780   6.017   1.888   1.718 -0.7403 -0.2956 -0.0848
 6252SOL    HW324781   6.072   1.751   1.684 -2.5298 -0.9803 -0.3582
 6252SOL    MW424782   6.038   1.807   1.742  0.3017  0.6001 -0.2569
 6253SOL     OW24783   5.144   1.445   0.743  0.2625 -0.0173  0.3028
 6253SOL    HW224784   5.056   1.481   0.752  0.2072  0.1507 -0.7570
 6253SOL    HW324785   5.202   1.515   0.775  0.1246  0.8224 -1.2007
 6253SOL    MW424786   5.140   1.459   0.749 -0.3648  0.1795  0.4131
 6254SOL     OW24787   4.037   2.276   1.273  0.4605 -0.6501  0.2314
 6254SOL    HW224788   4.060   2.289   1.365  2.0666 -2.9324  0.2346
 6254SOL    HW324789   3.958   2.329   1.260  1.0390  0.9122  2.4919
 6254SOL    MW424790   4.030   2.285   1.283 -0.4369  0.2986  0.5247
 6255SOL     OW24791   4.384   3.152   6.288 -0.7733 -0.1037 -0.5060
 6255SOL    HW224792   4.417   3.128   6.375  0.1194 -0.5672 -0.9589
 6255SOL    HW324793   4.430   3.233   6.267  1.8202 -1.7927 -2.0132
 6255SOL    MW424794   4.394   3.159   6.297 -0.0686 -0.1889 -0.0172
 6256SOL     OW24795   3.341   2.856   5.841 -0.3367  0.1282  0.0807
 6256SOL    HW224796   3.336   2.951   5.848 -1.7973  0.0653  0.0223
 6256SOL    HW324797   3.250   2.827   5.839  0.0417 -1.4491  2.3681
 6256SOL    MW424798   3.329   2.865   5.842  0.1138  0.1949  0.0908
 6257SOL     OW24799   3.632   3.668   0.766 -0.5226 -0.4311  0.1542
 6257SOL    HW224800   3.650   3.679   0.860 -1.7459 -2.1350  0.6293
 6257SOL    HW324801   3.565   3.733   0.747  0.2822  0.4480  0.2643
 6257SOL    MW424802   3.625   3.678   0.776  0.4626 -0.5564 -0.1406
 6258SOL     OW24803   2.614   1.172   5.474 -0.1948 -0.0420 -0.4817
 6258SOL    HW224804   2.651   1.156   5.387  0.6543 -1.2387  0.0713
 6258SOL    HW324805   2.631   1.265   5.491  2.1853 -0.4190 -0.4477
 6258SOL    MW424806   2.621   1.182   5.465 -0.3773 -0.0847  0.0816
 6259SOL     OW24807   6.243   0.742   1.117  0.2747 -0.5190 -0.0785
 6259SOL    HW224808   6.211   0.826   1.150  0.2083 -0.8290  0.6760
 6259SOL    HW324809   6.254   0.756   1.023 -0.8766 -0.0198 -0.1622
 6259SOL    MW424810   6.240   0.755   1.109  0.3109  0.2942 -0.1892
 6260SOL     OW24811   4.569   1.243   6.199 -0.1118 -0.6985  0.3718
 6260SOL    HW224812   4.566   1.180   6.271 -1.9059  0.8451  1.7548
 6260SOL    HW324813   4.486   1.231   6.154  0.6348 -1.0516 -0.9568
 6260SOL    MW424814   4.558   1.233   6.203 -0.3303  0.2176  0.5965
 6261SOL     OW24815   5.665   3.150   1.541 -0.3039 -0.1148  0.1894
 6261SOL    HW224816   5.742   3.100   1.570  0.3694  2.0612  2.6112
 6261SOL    HW324817   5.678   3.237   1.579 -2.4853  1.2674 -1.9533
 6261SOL    MW424818   5.677   3.155   1.550 -0.8995 -0.5873 -0.3183
 6262SOL     OW24819   3.650   6.422   2.328  0.1531  0.0169  0.2513
 6262SOL    HW224820   3.686   6.336   2.350  1.4335  0.3343 -0.4851
 6262SOL    HW324821   3.719   6.484   2.351 -0.6463  0.8288  0.5115
 6262SOL    MW424822   3.664   6.419   2.334  0.3304 -0.0031 -0.1059
 6263SOL     OW24823   1.430   5.110   6.078  0.7226  0.3286 -0.0353
 6263SOL    HW224824   1.403   5.024   6.047  1.7175  0.4691 -1.4083
 6263SOL    HW324825   1.445   5.098   6.172  0.5875 -0.9314 -0.1582
 6263SOL    MW424826   1.429   5.097   6.086 -0.7249  0.0129 -0.3858
 6264SOL     OW24827   3.928   2.841   0.794 -0.4579  0.2205  0.1716
 6264SOL    HW224828   3.873   2.915   0.767  0.9083  0.9616 -0.6983
 6264SOL    HW324829   3.865   2.773   0.819 -1.7754  1.0179 -0.8010
 6264SOL    MW424830   3.912   2.841   0.794 -0.2901  0.2245 -0.1900
 6265SOL     OW24831   3.879   6.134   2.804  0.2396 -0.1435 -0.5183
 6265SOL    HW224832   3.933   6.199   2.849  0.2462 -0.7968  0.4386
 6265SOL    HW324833   3.796   6.179   2.789  0.6175  0.4546 -0.8899
 6265SOL    MW424834   3.875   6.148   2.808  0.1282 -0.6126 -0.3423
 6266SOL     OW24835   4.467   5.513   3.595  0.4453 -0.1080 -0.8844
 6266SOL    HW224836   4.468   5.428   3.552  0.7900 -0.5042 -0.1039
 6266SOL    HW324837   4.472   5.493   3.688 -0.9481  0.7154 -0.6093
 6266SOL    MW424838   4.468   5.499   3.601  0.4116 -0.1871  0.0318
 6267SOL     OW24839   0.466   0.126   5.650  0.0977  0.2742  0.3065
 6267SOL    HW224840   0.449   0.159   5.561 -2.8029  0.1532  0.7167
 6267SOL    HW324841   0.441   0.198   5.707  3.7542  1.0921  1.1462
 6267SOL    MW424842   0.460   0.140   5.646 -0.4490 -0.1964  0.2823
 6268SOL     OW24843   4.035   6.276   0.743 -0.0802  0.7322  0.2306
 6268SOL    HW224844   3.945   6.243   0.748 -0.8783  2.5993 -0.5539
 6268SOL    HW324845   4.063   6.254   0.655  0.3808 -0.1941  0.6077
 6268SOL    MW424846   4.027   6.269   0.732 -0.1038 -0.3419 -0.3198
 6269SOL     OW24847   5.185   4.351   5.589  0.2723  0.2478  0.5339
 6269SOL    HW224848   5.194   4.318   5.679  0.5219 -0.3256  0.3040
 6269SOL    HW324849   5.254   4.307   5.540 -0.6163 -0.3768 -0.1961
 6269SOL    MW424850   5.195   4.341   5.595  0.5083 -0.3575 -0.0851
 6270SOL     OW24851   6.010   2.634   6.360  0.1360  0.0657  0.7489
 6270SOL    HW224852   5.934   2.692   6.369  1.0899  1.2401  1.6036
 6270SOL    HW324853   5.984   2.554   6.407 -0.3430  0.6885  1.5767
 6270SOL    MW424854   5.996   2.631   6.367 -1.2230 -0.0661 -0.0599
 6271SOL     OW24855   1.597   5.735   3.951  0.4459  0.3563 -0.6435
 6271SOL    HW224856   1.692   5.724   3.952  0.3252 -1.2314 -1.8832
 6271SOL    HW324857   1.581   5.808   3.892  0.8957  0.4868 -0.6029
 6271SOL    MW424858   1.608   5.743   3.943 -0.2615  0.2654  0.3145
 6272SOL     OW24859   3.187   5.416   4.253  0.5274  0.0542 -0.0066
 6272SOL    HW224860   3.256   5.481   4.266  0.0038  0.4643  0.8550
 6272SOL    HW324861   3.135   5.450   4.180  1.2980 -0.3232 -0.7471
 6272SOL    MW424862   3.189   5.429   4.245 -0.0515  0.0554  0.3500
 6273SOL     OW24863   2.408   2.728   5.335 -0.1267  0.2763 -0.0355
 6273SOL    HW224864   2.497   2.753   5.307  0.3937 -1.6315 -0.2330
 6273SOL    HW324865   2.360   2.715   5.253  0.0544 -0.7511  0.0003
 6273SOL    MW424866   2.414   2.729   5.321 -0.7083  0.4419 -0.2717
 6274SOL     OW24867   2.800   6.156   3.422 -0.7403 -0.3165  0.2096
 6274SOL    HW224868   2.739   6.096   3.379  0.5803 -0.1014 -2.1251
 6274SOL    HW324869   2.748   6.233   3.442 -1.6965 -0.9418  0.1784
 6274SOL    MW424870   2.785   6.158   3.419  0.5210 -0.3134  0.0605
 6275SOL     OW24871   0.460   0.702   1.957  0.0902  0.4758 -0.1260
 6275SOL    HW224872   0.492   0.791   1.967 -1.3515  1.0130 -0.1100
 6275SOL    HW324873   0.398   0.706   1.883 -0.3549 -0.4002  0.1755
 6275SOL    MW424874   0.456   0.714   1.948 -0.6542  0.2152 -0.1304
 6276SOL     OW24875   1.413   1.858   2.782  0.2723 -0.2669  0.1886
 6276SOL    HW224876   1.329   1.905   2.779  0.2322 -0.3619 -0.2590
 6276SOL    HW324877   1.447   1.865   2.693  0.8449 -0.0458  0.4212
 6276SOL    MW424878   1.406   1.865   2.770  0.0419  0.2169  0.3436
 6277SOL     OW24879   0.475   5.916   0.808 -0.6034  0.5494 -0.1440
 6277SOL    HW224880   0.462   5.847   0.743  1.3596  1.1650 -1.2771
 6277SOL    HW324881   0.405   5.979   0.791 -0.7951  0.1439 -0.8931
 6277SOL    MW424882   0.464   5.915   0.797  0.0828  0.0441 -0.0460
 6278SOL     OW24883   0.297   4.875   6.114  0.3147  0.1990  0.3780
 6278SOL    HW224884   0.324   4.783   6.123  0.0335  0.2150  1.5764
 6278SOL    HW324885   0.316   4.897   6.023  0.9494 -0.8709  0.2364
 6278SOL    MW424886   0.303   4.866   6.104  0.0039  0.4002  0.2283
 6279SOL     OW24887   2.984   4.676   1.916  0.6683  0.5182 -0.3182
 6279SOL    HW224888   2.968   4.731   1.993 -1.2933 -0.2725 -0.0916
 6279SOL    HW324889   3.032   4.733   1.855  2.2899  1.1483  1.4527
 6279SOL    MW424890   2.988   4.691   1.918 -0.5541  0.6433 -0.3621
 6280SOL     OW24891   3.136   2.247   0.626 -0.0692 -0.1480  0.5735
 6280SOL    HW224892   3.139   2.260   0.531 -1.7672  0.4485  0.5553
 6280SOL    HW324893   3.225   2.222   0.650  0.5416  0.2921 -1.0865
 6280SOL    MW424894   3.148   2.245   0.617 -0.4585 -0.2256  0.1042
 6281SOL     OW24895   6.363   1.058   4.989 -0.3150 -0.3384  0.2539
 6281SOL    HW224896   6.357   1.153   4.979 -2.2892 -0.5745 -1.3268
 6281SOL    HW324897   6.448   1.035   4.950 -0.9648  0.5416 -1.8280
 6281SOL    MW424898   6.374   1.068   4.982 -0.5662  0.2220 -0.2495
 6282SOL     OW24899   1.014   2.563   5.714  0.2295  0.1637 -0.0563
 6282SOL    HW224900   1.065   2.552   5.634  0.9104  1.3500  0.1835
 6282SOL    HW324901   1.075   2.603   5.776 -0.0559 -1.4200  1.3248
 6282SOL    MW424902   1.029   2.567   5.712  0.6836  0.0036  0.0920
 6283SOL     OW24903   3.880   3.830   2.648 -0.0530 -0.1422  0.2293
 6283SOL    HW224904   3.876   3.771   2.573  1.2923  0.2880 -0.2254
 6283SOL    HW324905   3.789   3.847   2.671 -0.4730 -1.5598 -0.2830
 6283SOL    MW424906   3.868   3.825   2.641 -0.0503  0.1613 -0.1054
 6284SOL     OW24907   2.408   6.129   1.509 -0.3861  0.2045  0.4408
 6284SOL    HW224908   2.316   6.120   1.486 -0.7996 -1.1251  2.4184
 6284SOL    HW324909   2.421   6.223   1.522 -0.0601  1.2346 -4.8534
 6284SOL    MW424910   2.398   6.141   1.508  0.0787 -0.3962 -0.4227
 6285SOL     OW24911   5.195   0.229   1.855  0.6402 -0.3222  0.2567
 6285SOL    HW224912   5.170   0.321   1.862 -0.7682 -0.6806  0.2427
 6285SOL    HW324913   5.248   0.223   1.776  2.1029  0.7370  1.1066
 6285SOL    MW424914   5.199   0.240   1.846 -0.5769  0.3199  0.1027
 6286SOL     OW24915   1.908   0.739   5.470  0.2187 -0.3702 -0.3114
 6286SOL    HW224916   1.973   0.679   5.435 -0.5489 -0.6459 -1.3120
 6286SOL    HW324917   1.855   0.685   5.529 -0.8140 -0.8485 -1.6301
 6286SOL    MW424918   1.909   0.724   5.473 -0.6930  0.3711 -0.0409
 6287SOL     OW24919   2.291   0.620   2.349 -0.0423  0.2035  0.0366
 6287SOL    HW224920   2.309   0.559   2.277 -0.6402 -0.5642  0.5170
 6287SOL    HW324921   2.195   0.625   2.353 -0.1436 -1.6080  2.2227
 6287SOL    MW424922   2.281   0.612   2.340  0.2067  0.2142  0.2937
 6288SOL     OW24923   5.033   1.421   4.977 -0.3350  0.3053  0.5122
 6288SOL    HW224924   5.031   1.332   4.941 -0.4074  0.3446  0.4176
 6288SOL    HW324925   5.095   1.416   5.049  0.8002  0.5164 -0.4128
 6288SOL    MW424926   5.041   1.408   4.982 -0.6223 -0.6695  0.1461
 6289SOL     OW24927   4.658   2.553   3.385  0.3017  0.2625 -0.7157
 6289SOL    HW224928   4.716   2.480   3.365 -0.2957 -0.4368  0.0327
 6289SOL    HW324929   4.578   2.534   3.337 -0.6066 -0.6687  1.0679
 6289SOL    MW424930   4.655   2.541   3.376 -0.2562  0.0991 -0.2458
 6290SOL     OW24931   6.202   3.594   3.722 -0.9144  0.0885  0.6533
 6290SOL    HW224932   6.157   3.632   3.647  1.4898  0.3620 -0.7615
 6290SOL    HW324933   6.204   3.665   3.786 -3.6131 -0.3666  1.3723
 6290SOL    MW424934   6.196   3.608   3.721  0.2440  0.2155  0.2908
 6291SOL     OW24935   1.086   5.203   2.900  0.0880  0.7443 -0.1791
 6291SOL    HW224936   1.074   5.212   2.806 -1.5096 -2.1498 -0.3540
 6291SOL    HW324937   0.998   5.217   2.937  0.0923 -0.9353  0.5553
 6291SOL    MW424938   1.072   5.206   2.893  0.4726  0.0521  0.0270
 6292SOL     OW24939   4.679   4.025   0.785 -0.5621 -0.0616 -0.0775
 6292SOL    HW224940   4.650   4.116   0.781 -1.1306 -0.2797 -1.5598
 6292SOL    HW324941   4.603   3.977   0.817 -0.0429  0.0414  1.3979
 6292SOL    MW424942   4.665   4.030   0.789 -0.1684  0.2252  0.0174
 6293SOL     OW24943   1.188   3.553   2.344 -0.2999 -0.2984 -0.0190
 6293SOL    HW224944   1.115   3.525   2.400 -1.5394  1.5830 -0.6005
 6293SOL    HW324945   1.156   3.541   2.255  0.1941  0.3072 -0.2840
 6293SOL    MW424946   1.174   3.548   2.340 -0.3961 -0.0311 -0.1095
 6294SOL     OW24947   5.894   6.067   2.847  0.3964  0.1947 -0.1526
 6294SOL    HW224948   5.823   6.053   2.909 -1.2255 -0.5477 -2.0370
 6294SOL    HW324949   5.971   6.085   2.901 -0.9920  0.0077  2.0064
 6294SOL    MW424950   5.895   6.068   2.862  0.0128 -0.1876  0.3648
 6295SOL     OW24951   6.380   1.329   4.232  0.3334  0.2986  0.1631
 6295SOL    HW224952   6.363   1.300   4.322  3.4316 -0.2845  0.6648
 6295SOL    HW324953   6.421   1.415   4.242  0.0814  0.5325 -0.7383
 6295SOL    MW424954   6.383   1.336   4.245  0.6226 -1.0369 -0.6076
 6296SOL     OW24955   5.933   5.128   3.137  0.4034 -0.2064  0.4891
 6296SOL    HW224956   5.957   5.037   3.123  0.6969  0.2066 -2.2486
 6296SOL    HW324957   5.872   5.148   3.066 -0.6757  1.3932  1.7947
 6296SOL    MW424958   5.928   5.119   3.125 -0.4109  0.5506  0.7377
 6297SOL     OW24959   1.077   0.733   5.474  0.3031  0.0757  0.5425
 6297SOL    HW224960   1.049   0.823   5.459  0.4888  0.1870  0.8565
 6297SOL    HW324961   1.146   0.740   5.541  1.0190 -0.2048 -0.1589
 6297SOL    MW424962   1.082   0.746   5.481 -0.5250  0.2784 -0.2010
 6298SOL     OW24963   3.876   1.376   2.647 -0.3072 -0.3096 -0.2160
 6298SOL    HW224964   3.819   1.439   2.691  1.4243  1.0367  0.2068
 6298SOL    HW324965   3.900   1.419   2.564  0.5135 -0.5931 -0.1349
 6298SOL    MW424966   3.872   1.390   2.642  0.3653  0.6102 -0.0665
 6299SOL     OW24967   4.562   4.666   1.781 -0.5467  1.1245  0.2105
 6299SOL    HW224968   4.475   4.665   1.822 -1.0579  0.9808 -0.8500
 6299SOL    HW324969   4.619   4.626   1.847 -1.4397  0.4198  0.5913
 6299SOL    MW424970   4.558   4.661   1.795 -0.3066  0.0060 -0.0794
 6300SOL     OW24971   3.646   3.547   4.428 -0.2851 -0.2207  0.6537
 6300SOL    HW224972   3.630   3.473   4.369 -1.1149  0.4166  0.0694
 6300SOL    HW324973   3.674   3.506   4.510  0.8686 -1.1216 -0.1558
 6300SOL    MW424974   3.648   3.532   4.431  0.2998  0.0585 -0.0998
 6301SOL     OW24975   5.175   2.776   1.063 -0.4285  0.0229 -0.3408
 6301SOL    HW224976   5.249   2.817   1.107  0.7444 -1.0940 -1.1899
 6301SOL    HW324977   5.120   2.849   1.036  0.1143  0.8554  0.6951
 6301SOL    MW424978   5.178   2.791   1.065 -0.9155  0.6932 -0.2010
 6302SOL     OW24979   2.265   4.712   5.482  1.0096  0.2088 -0.1161
 6302SOL    HW224980   2.341   4.759   5.449  0.5400  1.2437  0.2113
 6302SOL    HW324981   2.300   4.649   5.545  1.6713  0.0477 -0.6462
 6302SOL    MW424982   2.279   4.710   5.486  0.6361  0.3111  0.2076
 6303SOL     OW24983   0.127   1.467   3.161  0.2604 -0.1481  0.5464
 6303SOL    HW224984   0.073   1.452   3.083 -0.0792 -1.5124  1.0223
 6303SOL    HW324985   0.204   1.513   3.128  0.4093 -1.2413 -0.7186
 6303SOL    MW424986   0.130   1.471   3.146  0.2640 -0.0967 -0.0934
 6304SOL     OW24987   2.785   4.584   1.002 -0.1489  0.0417  0.0233
 6304SOL    HW224988   2.722   4.558   1.069 -1.5368  1.5550 -0.6116
 6304SOL    HW324989   2.811   4.673   1.027 -0.2626  0.4148 -1.1276
 6304SOL    MW424990   2.780   4.592   1.014 -0.3912  0.5783 -0.6933
 6305SOL     OW24991   4.252   0.652   3.394  0.5379  0.7339 -0.3630
 6305SOL    HW224992   4.242   0.618   3.482 -1.8820 -0.5270 -1.0396
 6305SOL    HW324993   4.288   0.740   3.406  0.0719  0.6617  1.8785
 6305SOL    MW424994   4.256   0.659   3.407  0.5325 -0.3046  0.2189
 6306SOL     OW24995   1.855   1.122   3.178  0.0436 -0.0996  0.0565
 6306SOL    HW224996   1.875   1.071   3.257  2.1292  0.1635 -0.2366
 6306SOL    HW324997   1.827   1.207   3.211 -1.0017 -0.6042  0.5124
 6306SOL    MW424998   1.854   1.127   3.193 -0.1735  0.0789 -0.0695
 6307SOL     OW24999   0.153   5.923   0.586  0.1452 -0.3466  0.5636
 6307SOL    HW225000   0.112   5.992   0.637  1.4015  0.7329  0.1812
 6307SOL    HW325001   0.142   5.844   0.638  0.0474  0.4433  1.7697
 6307SOL    MW425002   0.146   5.921   0.600 -0.4374  0.1427  0.4553
 6308SOL     OW25003   5.418   4.484   0.933 -0.3393  0.0267 -0.4708
 6308SOL    HW225004   5.384   4.462   1.020 -2.0013  1.1390 -0.7950
 6308SOL    HW325005   5.475   4.559   0.949 -0.0377 -0.2446 -0.2514
 6308SOL    MW425006   5.421   4.491   0.947 -0.0874 -0.3408  0.1193
 6309SOL     OW25007   5.104   4.299   0.454  0.4375  0.2923  0.0273
 6309SOL    HW225008   5.108   4.343   0.369 -1.3626  1.3800  0.4454
 6309SOL    HW325009   5.026   4.243   0.448 -0.1590  0.9580  1.1845
 6309SOL    MW425010   5.094   4.297   0.442 -0.2832 -0.5362  0.3390
 6310SOL     OW25011   1.735   5.987   3.087 -0.0469 -0.2830 -0.1807
 6310SOL    HW225012   1.745   5.917   3.024  1.2287 -0.1230 -0.1817
 6310SOL    HW325013   1.789   6.059   3.053 -1.1154  0.6150 -0.0517
 6310SOL    MW425014   1.743   5.987   3.074 -0.5432 -0.4046  0.4487
 6311SOL     OW25015   0.342   2.273   4.143  0.4374  0.5720 -0.2992
 6311SOL    HW225016   0.430   2.290   4.176  0.3239 -0.4944  0.6015
 6311SOL    HW325017   0.286   2.277   4.220 -0.2608  0.8984 -0.8151
 6311SOL    MW425018   0.346   2.275   4.157  0.0896  0.5033 -0.0659
 6312SOL     OW25019   1.491   5.135   6.347  0.0119 -0.2214 -0.2939
 6312SOL    HW225020   1.474   5.107   6.437 -2.0756 -0.6918 -0.7748
 6312SOL    HW325021   1.437   5.213   6.336 -0.6092 -0.7937 -1.4454
 6312SOL    MW425022   1.481   5.141   6.358 -0.3623  0.6574 -0.2788
 6313SOL     OW25023   5.511   0.478   0.567 -1.0173  0.4197 -0.0290
 6313SOL    HW225024   5.581   0.524   0.521 -0.1608  1.4764  2.2065
 6313SOL    HW325025   5.437   0.539   0.566 -0.6237  0.9225  0.9646
 6313SOL    MW425026   5.510   0.492   0.560 -0.3412 -0.0616 -0.2544
 6314SOL     OW25027   3.219   2.746   2.349 -0.5247 -0.2511 -0.8202
 6314SOL    HW225028   3.143   2.762   2.293 -0.5599 -0.1337 -0.7409
 6314SOL    HW325029   3.250   2.834   2.372 -1.3308 -0.2677  0.4451
 6314SOL    MW425030   3.213   2.760   2.345 -0.1676  1.2081  0.1724
 6315SOL     OW25031   5.678   6.365   5.096 -0.1922 -0.0840  0.1602
 6315SOL    HW225032   5.660   6.420   5.173  1.5477 -0.6204  1.0134
 6315SOL    HW325033   5.773   6.367   5.088 -0.2732 -1.0116 -1.2790
 6315SOL    MW425034   5.688   6.372   5.105 -0.4748  0.0074  0.4727
 6316SOL     OW25035   2.072   3.206   5.220  0.2828  0.1643 -0.2618
 6316SOL    HW225036   2.147   3.182   5.166  0.2912  1.5225 -0.9098
 6316SOL    HW325037   2.097   3.289   5.261  0.4157 -0.9854  2.1591
 6316SOL    MW425038   2.085   3.214   5.218 -0.0753 -0.1445  0.5634
 6317SOL     OW25039   2.146   5.965   5.752 -0.1464  0.1616  0.4287
 6317SOL    HW225040   2.167   5.991   5.662 -0.4454  0.3913  0.4233
 6317SOL    HW325041   2.231   5.960   5.796 -0.0913  1.3317  0.4762
 6317SOL    MW425042   2.160   5.968   5.746  0.0756  0.0329  0.4536
 6318SOL     OW25043   4.248   3.343   1.088  0.3174  0.1192  0.3272
 6318SOL    HW225044   4.156   3.326   1.108 -0.1949  0.9875 -1.1292
 6318SOL    HW325045   4.279   3.260   1.050  0.2436 -0.2712  1.0897
 6318SOL    MW425046   4.240   3.330   1.086 -0.0864 -0.8029  0.2407
 6319SOL     OW25047   5.712   1.693   0.826  0.4393  0.4629 -0.7946
 6319SOL    HW225048   5.800   1.674   0.856  0.4475  1.4686 -0.1203
 6319SOL    HW325049   5.724   1.737   0.742  0.6157  1.1187 -0.4311
 6319SOL    MW425050   5.725   1.696   0.819  0.5183  0.9142 -0.3608
 6320SOL     OW25051   4.224   3.774   2.873  0.3398 -0.1014 -0.5577
 6320SOL    HW225052   4.224   3.739   2.962  1.2738  0.1324 -0.4602
 6320SOL    HW325053   4.316   3.775   2.847 -0.0260 -1.3579 -2.0036
 6320SOL    MW425054   4.236   3.770   2.882  0.5259  0.0444  0.3450
 6321SOL     OW25055   1.361   5.735   1.493 -0.4622  0.2931  0.6949
 6321SOL    HW225056   1.389   5.648   1.520 -0.2463 -0.1934 -0.9568
 6321SOL    HW325057   1.413   5.754   1.415 -1.0675  1.5776  0.5688
 6321SOL    MW425058   1.372   5.726   1.486 -0.1493 -0.1602 -0.2670
 6322SOL     OW25059   1.789   3.370   3.684 -0.0697 -0.0596 -0.1109
 6322SOL    HW225060   1.775   3.390   3.777 -0.9629 -0.6462 -0.1028
 6322SOL    HW325061   1.741   3.288   3.670  2.4787 -1.5967 -0.4219
 6322SOL    MW425062   1.781   3.362   3.694 -0.4809  0.0585 -0.4235
 6323SOL     OW25063   3.055   4.441   2.021  0.4030 -0.6191  0.0098
 6323SOL    HW225064   3.131   4.453   2.078  0.9436 -0.4504 -0.7296
 6323SOL    HW325065   3.033   4.529   1.991 -1.7884 -0.2745  2.2997
 6323SOL    MW425066   3.062   4.454   2.025  0.7366 -0.8727 -0.0722
 6324SOL     OW25067   5.003   0.248   2.206 -0.8117 -0.4317  0.0003
 6324SOL    HW225068   4.961   0.208   2.130 -1.0754  0.4178 -0.3050
 6324SOL    HW325069   4.971   0.338   2.208 -1.3985 -0.6308  1.5533
 6324SOL    MW425070   4.993   0.254   2.196 -0.1272 -0.1638  0.4877
 6325SOL     OW25071   5.707   0.696   2.349  0.2358  0.1027 -0.5468
 6325SOL    HW225072   5.706   0.600   2.357 -1.8523  0.1937  1.2652
 6325SOL    HW325073   5.619   0.718   2.319 -0.0004  1.5618  1.1048
 6325SOL    MW425074   5.695   0.686   2.346 -0.1820 -0.2534 -0.3480
 6326SOL     OW25075   4.882   6.385   3.438 -0.2757 -0.1529  0.6996
 6326SOL    HW225076   4.896   6.441   3.362 -0.3570  0.6907  1.3037
 6326SOL    HW325077   4.885   6.296   3.403  1.7027  0.1476  0.0144
 6326SOL    MW425078   4.884   6.380   3.424 -0.2429 -0.0181 -0.2397
 6327SOL     OW25079   6.072   5.209   6.034 -0.4775  0.0440  0.2465
 6327SOL    HW225080   6.165   5.215   6.056 -0.4987  0.8461  0.1490
 6327SOL    HW325081   6.042   5.300   6.033 -1.1103 -0.1665 -0.3943
 6327SOL    MW425082   6.080   5.221   6.037 -0.0239  0.3087 -0.4910
 6328SOL     OW25083   2.637   0.380   6.150 -0.4518  0.1776  0.1316
 6328SOL    HW225084   2.542   0.386   6.148 -0.4672 -0.0134 -1.9712
 6328SOL    HW325085   2.656   0.319   6.222 -1.9488 -0.3288  0.1283
 6328SOL    MW425086   2.627   0.372   6.160 -0.0519 -0.1994  0.2331
 6329SOL     OW25087   0.615   1.841   5.133 -0.2323 -0.3353  0.5611
 6329SOL    HW225088   0.543   1.903   5.143 -1.0703 -0.8671 -1.7406
 6329SOL    HW325089   0.683   1.890   5.086  0.4724 -0.2199  1.6391
 6329SOL    MW425090   0.615   1.856   5.128 -0.3936  0.1552  0.0341
 6330SOL     OW25091   5.096   5.075   4.254  0.2783 -0.4663 -0.1114
 6330SOL    HW225092   5.156   5.031   4.315  0.8904 -1.0545 -1.1078
 6330SOL    HW325093   5.143   5.154   4.227  0.8565 -1.1708 -1.2653
 6330SOL    MW425094   5.110   5.080   4.259  0.0267 -0.1179  0.0322
 6331SOL     OW25095   5.048   1.498   5.741 -0.1135  0.2106  0.1059
 6331SOL    HW225096   5.010   1.576   5.701 -0.3718  0.2764  0.4637
 6331SOL    HW325097   5.020   1.426   5.685 -0.9105  0.2411  0.4489
 6331SOL    MW425098   5.039   1.499   5.729 -0.0969  0.2549  1.1814
 6332SOL     OW25099   0.397   2.176   4.821 -0.4139  0.0743 -0.9638
 6332SOL    HW225100   0.407   2.141   4.910 -3.8238  1.4033  0.0933
 6332SOL    HW325101   0.396   2.098   4.766 -1.1843 -1.0334  0.5251
 6332SOL    MW425102   0.398   2.161   4.826  0.6164 -0.3119  0.2488
 6333SOL     OW25103   5.103   2.638   0.836  0.6722  0.2212 -0.4285
 6333SOL    HW225104   5.133   2.711   0.781 -0.8950  1.5375  0.3940
 6333SOL    HW325105   5.134   2.660   0.924  1.3504 -0.8208 -0.3829
 6333SOL    MW425106   5.111   2.651   0.841  0.0786 -0.2663 -0.3364
 6334SOL     OW25107   4.104   1.327   4.885  0.2588  0.7422 -0.0729
 6334SOL    HW225108   4.142   1.415   4.881 -0.2117  0.9068 -2.1647
 6334SOL    HW325109   4.179   1.269   4.893  0.5840  1.2832  1.1776
 6334SOL    MW425110   4.119   1.331   4.886  1.0881 -0.3034 -0.2701
 6335SOL     OW25111   3.719   3.047   6.351  0.2768 -0.6173 -0.6643
 6335SOL    HW225112   3.639   3.014   6.309 -0.3679  0.7710 -0.5881
 6335SOL    HW325113   3.761   2.969   6.387 -2.2528 -1.2158  1.3305
 6335SOL    MW425114   3.714   3.032   6.350  0.5027 -0.0901 -0.1488
 6336SOL     OW25115   4.023   2.394   0.860  0.7292  0.3599  0.1546
 6336SOL    HW225116   3.994   2.387   0.951  1.6787 -0.5808  0.4186
 6336SOL    HW325117   3.968   2.331   0.812  1.6229 -0.7125  0.4817
 6336SOL    MW425118   4.012   2.385   0.865  0.2834 -0.0967  0.0995
 6337SOL     OW25119   3.842   3.799   0.726  0.3555  0.3961 -0.7111
 6337SOL    HW225120   3.887   3.757   0.799 -0.1041 -0.3327 -0.8375
 6337SOL    HW325121   3.756   3.758   0.724 -0.2557  1.6221 -0.6054
 6337SOL    MW425122   3.837   3.788   0.735  0.0878  0.1841 -0.1819
 6338SOL     OW25123   2.403   3.942   3.504  0.7571 -0.5180 -0.2136
 6338SOL    HW225124   2.367   3.906   3.423  1.3914  0.0870 -0.7852
 6338SOL    HW325125   2.440   4.027   3.478 -1.6747  1.1204  1.2844
 6338SOL    MW425126   2.403   3.949   3.490  0.2403 -0.6208  0.0845
 6339SOL     OW25127   0.345   5.274   0.506 -0.1445  0.2886  0.1245
 6339SOL    HW225128   0.354   5.316   0.421 -1.0418 -0.4949 -0.3871
 6339SOL    HW325129   0.252   5.283   0.527 -0.7211 -2.6102 -0.6935
 6339SOL    MW425130   0.334   5.280   0.498 -0.3804  0.4362  0.4981
 6340SOL     OW25131   1.528   4.758   6.359 -0.5982  0.8397 -0.1596
 6340SOL    HW225132   1.512   4.694   6.290  1.0511  0.2135 -0.0059
 6340SOL    HW325133   1.611   4.799   6.335 -0.3542  1.0971  1.0718
 6340SOL    MW425134   1.537   4.755   6.347 -0.1522  0.0840  0.0673
 6341SOL     OW25135   4.617   2.541   4.259  0.6213 -0.1859 -0.2131
 6341SOL    HW225136   4.629   2.635   4.272  0.5913 -0.3949  1.5953
 6341SOL    HW325137   4.651   2.524   4.171  2.2308  1.2304  0.0823
 6341SOL    MW425138   4.623   2.551   4.249  0.1075  0.1530  0.5188
 6342SOL     OW25139   3.526   2.247   0.339  0.0068  0.0469  0.5237
 6342SOL    HW225140   3.615   2.277   0.319  0.4452 -1.4326  0.1534
 6342SOL    HW325141   3.513   2.171   0.283 -1.0504 -0.4660  1.4285
 6342SOL    MW425142   3.536   2.241   0.329  0.3263  0.1608 -0.8012
 6343SOL     OW25143   1.955   6.211   3.397  0.1353  0.1576  0.2961
 6343SOL    HW225144   2.017   6.152   3.354 -2.3009 -0.1876 -3.0847
 6343SOL    HW325145   1.883   6.154   3.425  0.2357  0.8508  2.1420
 6343SOL    MW425146   1.953   6.195   3.395  0.3210 -0.2340 -0.3149
 6344SOL     OW25147   4.946   4.009   4.285 -0.3644  0.8396  0.0984
 6344SOL    HW225148   5.014   4.020   4.219 -0.5154  1.1136 -0.0149
 6344SOL    HW325149   4.912   3.921   4.271  0.6081  0.3487  0.7685
 6344SOL    MW425150   4.950   3.999   4.274 -0.2000 -0.4201 -0.5104
 6345SOL     OW25151   5.353   1.606   1.815 -0.6374 -0.4157 -0.6973
 6345SOL    HW225152   5.279   1.663   1.793  0.2054  0.0077 -2.6037
 6345SOL    HW325153   5.420   1.628   1.751  0.9907 -1.1400  0.6809
 6345SOL    MW425154   5.352   1.616   1.804 -0.2274  0.1762 -0.0158
 6346SOL     OW25155   5.198   2.830   0.648  0.4419  0.9157  0.0901
 6346SOL    HW225156   5.147   2.801   0.572  0.2606  2.6205 -0.4925
 6346SOL    HW325157   5.283   2.788   0.637 -0.2462 -0.5685  0.1330
 6346SOL    MW425158   5.202   2.821   0.636 -0.5862 -0.3014 -0.5562
 6347SOL     OW25159   5.077   2.948   0.295 -0.2514 -0.2940 -0.0943
 6347SOL    HW225160   5.071   2.904   0.210  1.9836  0.8017 -0.9101
 6347SOL    HW325161   4.994   2.994   0.304 -0.3746 -0.0816 -1.9227
 6347SOL    MW425162   5.065   2.948   0.285  0.1104  0.0366  0.2971
 6348SOL     OW25163   1.977   4.262   3.464 -0.4454  0.4404 -0.3025
 6348SOL    HW225164   2.021   4.339   3.499  1.2957 -0.5653 -0.1577
 6348SOL    HW325165   2.037   4.228   3.397 -0.2941 -1.7504  0.8394
 6348SOL    MW425166   1.991   4.268   3.460  0.7522 -0.4164  0.2197
 6349SOL     OW25167   3.406   1.508   5.106 -0.3090  0.3307  0.0349
 6349SOL    HW225168   3.409   1.564   5.184 -1.1799 -0.5557  0.7302
 6349SOL    HW325169   3.412   1.568   5.033 -0.6747  1.2901  0.7712
 6349SOL    MW425170   3.407   1.523   5.107 -0.2833 -0.2196  0.9322
 6350SOL     OW25171   1.895   0.368   3.827  0.3647  0.5446 -0.2818
 6350SOL    HW225172   1.953   0.312   3.775 -0.7336 -0.5874 -0.3528
 6350SOL    HW325173   1.931   0.456   3.818  1.8318 -0.0596 -0.6280
 6350SOL    MW425174   1.907   0.372   3.819  0.2365 -0.7059 -0.2997
 6351SOL     OW25175   2.572   0.991   6.241  0.9227 -0.4503  0.2452
 6351SOL    HW225176   2.591   0.966   6.151 -0.3421 -1.7926  0.3197
 6351SOL    HW325177   2.522   1.072   6.234  2.1338  0.2898 -0.1617
 6351SOL    MW425178   2.568   0.998   6.229 -0.0998 -0.0181 -0.5450
 6352SOL     OW25179   2.040   5.319   4.990 -0.1333 -0.3989  0.3090
 6352SOL    HW225180   2.082   5.395   4.950  1.1656 -1.1334  0.1932
 6352SOL    HW325181   1.955   5.350   5.020  1.0999  1.6092  1.9677
 6352SOL    MW425182   2.035   5.333   4.989  0.4621 -0.0613 -0.0058
 6353SOL     OW25183   1.804   2.404   4.810 -0.0248 -0.0298  0.0207
 6353SOL    HW225184   1.807   2.387   4.716  0.6094  0.9317 -0.1511
 6353SOL    HW325185   1.731   2.351   4.842 -1.5775  1.1491 -1.3475
 6353SOL    MW425186   1.794   2.395   4.802 -0.0219 -0.4144 -0.7933
 6354SOL     OW25187   4.264   4.069   1.692 -0.1285 -0.2058  0.0389
 6354SOL    HW225188   4.179   4.104   1.664  0.1908  0.8021  0.2795
 6354SOL    HW325189   4.314   4.063   1.611 -1.1936 -3.2079 -0.5364
 6354SOL    MW425190   4.259   4.073   1.678 -0.4077 -0.0059 -0.9662
 6355SOL     OW25191   1.641   3.408   0.425  0.4034  0.2353  0.5242
 6355SOL    HW225192   1.661   3.340   0.360 -1.0792 -0.5740  0.8680
 6355SOL    HW325193   1.680   3.487   0.388  0.3322 -0.3680 -0.9453
 6355SOL    MW425194   1.649   3.409   0.411  0.5144 -0.1667  0.6264
 6356SOL     OW25195   3.441   5.626   1.696 -0.1525 -0.5281 -0.3179
 6356SOL    HW225196   3.358   5.649   1.737 -0.2526 -0.4993 -0.5325
 6356SOL    HW325197   3.419   5.614   1.603  0.2585  0.4473 -0.5534
 6356SOL    MW425198   3.427   5.627   1.689  0.5817 -0.5109 -0.0807
 6357SOL     OW25199   2.244   1.679   4.435 -0.1452  0.2500 -0.1202
 6357SOL    HW225200   2.335   1.663   4.460  0.3247 -0.4086 -2.0853
 6357SOL    HW325201   2.197   1.679   4.518  1.7285  1.3596  1.0151
 6357SOL    MW425202   2.250   1.677   4.449 -0.1028  0.0991 -0.3908
 6358SOL     OW25203   0.468   1.636   2.746  0.1853  0.6446  0.2722
 6358SOL    HW225204   0.513   1.713   2.711  1.0563  0.9243  1.9147
 6358SOL    HW325205   0.437   1.663   2.832  4.3609 -1.9558  2.9908
 6358SOL    MW425206   0.470   1.650   2.753 -0.3577 -0.1559  0.4590
 6359SOL     OW25207   0.032   1.502   2.627 -0.2471  0.0155 -0.1835
 6359SOL    HW225208   0.067   1.587   2.651 -0.3068 -0.4562  1.7215
 6359SOL    HW325209   0.092   1.439   2.668 -2.0942 -0.8076  1.4144
 6359SOL    MW425210   0.044   1.505   2.635  0.1150 -0.6368  0.1901
 6360SOL     OW25211   1.911   0.724   1.031  0.7594  0.4252  0.0102
 6360SOL    HW225212   1.827   0.766   1.050  0.0556 -0.7907 -0.3332
 6360SOL    HW325213   1.921   0.733   0.936  0.7338  0.0519 -0.0277
 6360SOL    MW425214   1.901   0.731   1.021  0.3176  0.2462  0.1076
 6361SOL     OW25215   4.234   1.869   1.187  0.0633  0.0216  0.1634
 6361SOL    HW225216   4.303   1.924   1.149 -0.7793  0.1854 -1.1993
 6361SOL    HW325217   4.198   1.923   1.258  0.5560  0.4132  0.1277
 6361SOL    MW425218   4.238   1.884   1.192  0.2053 -0.3882 -0.0646
 6362SOL     OW25219   3.213   4.989   3.019 -0.4862 -0.2388 -0.5972
 6362SOL    HW225220   3.224   5.083   3.012 -0.2738 -0.2221 -0.0087
 6362SOL    HW325221   3.175   4.963   2.934 -1.5707  0.5173 -0.3586
 6362SOL    MW425222   3.209   4.998   3.007  0.2323 -0.0189 -0.1178
 6363SOL     OW25223   3.906   6.399   1.377 -0.0097 -0.2039  0.3560
 6363SOL    HW225224   3.837   6.443   1.427 -1.2472  0.6206 -1.9354
 6363SOL    HW325225   3.873   6.310   1.364 -0.0400 -0.1986  0.3952
 6363SOL    MW425226   3.893   6.393   1.382 -0.3952  0.5155  0.0963
 6364SOL     OW25227   6.266   0.749   0.800  0.3963 -0.2647 -0.4255
 6364SOL    HW225228   6.214   0.707   0.731  0.2819  0.5587 -0.8481
 6364SOL    HW325229   6.231   0.838   0.805  1.1424  0.0118 -0.0601
 6364SOL    MW425230   6.254   0.755   0.792 -0.1883  0.1806  0.3040
 6365SOL     OW25231   5.349   0.815   4.302  0.1485  0.5690  0.7840
 6365SOL    HW225232   5.415   0.881   4.323  1.1041  0.0173 -0.3777
 6365SOL    HW325233   5.377   0.736   4.349  0.8723  0.0658 -0.4431
 6365SOL    MW425234   5.361   0.813   4.311  0.2755  0.5355 -0.0533
 6366SOL     OW25235   3.334   5.356   3.301  0.0021 -0.0797 -0.0319
 6366SOL    HW225236   3.289   5.439   3.311 -0.5223 -0.3144 -0.3888
 6366SOL    HW325237   3.269   5.290   3.327  0.4552 -0.3702  0.3831
 6366SOL    MW425238   3.319   5.358   3.306  0.4757  0.1024 -0.4456
 6367SOL     OW25239   0.135   0.721   5.973 -0.0398  0.0445 -0.0575
 6367SOL    HW225240   0.083   0.799   5.958  0.2811  0.6325  1.6726
 6367SOL    HW325241   0.108   0.690   6.060  1.9613 -0.0293  0.5869
 6367SOL    MW425242   0.125   0.727   5.983  0.0135 -0.1326 -0.4223
 6368SOL     OW25243   5.899   0.588   5.703  0.2951  0.2137  0.7637
 6368SOL    HW225244   5.923   0.678   5.679 -0.4995  0.3668  0.5183
 6368SOL    HW325245   5.803   0.588   5.704  0.2942 -0.5202  1.1946
 6368SOL    MW425246   5.889   0.600   5.700 -0.2256 -0.0540  0.0767
 6369SOL     OW25247   0.820   4.032   3.099 -0.3105  0.4125  0.3257
 6369SOL    HW225248   0.749   4.033   3.164 -0.5107  1.2383  0.1097
 6369SOL    HW325249   0.778   4.060   3.018  0.3410  1.3530  0.2929
 6369SOL    MW425250   0.805   4.036   3.097  0.5914 -0.1596  0.3807
 6370SOL     OW25251   1.791   0.242   1.066  0.5580 -0.2702 -0.2998
 6370SOL    HW225252   1.727   0.199   1.009 -0.7451  1.7605 -0.4809
 6370SOL    HW325253   1.844   0.295   1.007 -0.7134  1.7470  0.2486
 6370SOL    MW425254   1.789   0.243   1.051  0.1263 -0.0114  0.1354
 6371SOL     OW25255   1.230   1.827   1.532  0.0021 -0.2880  0.1419
 6371SOL    HW225256   1.183   1.884   1.593 -1.5609 -1.5357  0.1533
 6371SOL    HW325257   1.275   1.888   1.473 -1.6855  0.9864  0.0905
 6371SOL    MW425258   1.230   1.843   1.532 -0.4043 -0.2533  0.4694
 6372SOL     OW25259   0.686   4.232   2.960 -0.2440  0.1444  0.0583
 6372SOL    HW225260   0.607   4.212   3.009 -0.4299 -0.1497 -0.3594
 6372SOL    HW325261   0.656   4.287   2.888  0.0674  0.8009  0.4182
 6372SOL    MW425262   0.672   4.237   2.957 -0.1020 -0.0851  0.0115
 6373SOL     OW25263   3.039   5.271   6.100 -0.5102 -0.1222  0.1298
 6373SOL    HW225264   3.052   5.179   6.077 -0.5508  0.0859 -0.7334
 6373SOL    HW325265   2.994   5.309   6.025  2.3995  1.3785 -1.0395
 6373SOL    MW425266   3.035   5.264   6.087 -0.1933  0.3564  0.4249
 6374SOL     OW25267   1.024   6.170   6.220 -0.2462 -0.2324 -0.0323
 6374SOL    HW225268   1.063   6.257   6.209  0.2852 -0.7092 -2.6665
 6374SOL    HW325269   0.947   6.184   6.275  0.5734  1.6572  0.6991
 6374SOL    MW425270   1.019   6.183   6.226  0.0713 -0.1183 -0.2037
 6375SOL     OW25271   3.843   2.879   1.587  0.9286 -0.4654 -0.1187
 6375SOL    HW225272   3.777   2.907   1.651  1.4624 -0.3959  0.4060
 6375SOL    HW325273   3.847   2.952   1.525  0.7957 -0.2960  0.0675
 6375SOL    MW425274   3.835   2.893   1.587 -0.1154  0.2730 -0.6052
 6376SOL     OW25275   3.217   4.730   0.939  0.3089 -0.1656  0.0033
 6376SOL    HW225276   3.273   4.704   0.865  1.2185 -0.7263  0.8704
 6376SOL    HW325277   3.145   4.778   0.898  0.5328 -0.8820 -1.3021
 6376SOL    MW425278   3.215   4.733   0.923 -0.3620 -0.0944 -1.5356
 6377SOL     OW25279   1.411   0.576   5.187  0.4038  0.3058  0.2785
 6377SOL    HW225280   1.429   0.549   5.277 -0.1343  0.5344  0.4585
 6377SOL    HW325281   1.334   0.631   5.194  0.1913  0.0952 -0.3601
 6377SOL    MW425282   1.404   0.579   5.200  0.5962  0.1949 -0.3079
 6378SOL     OW25283   1.977   1.060   4.304  0.0330  0.2360  0.0908
 6378SOL    HW225284   1.888   1.065   4.340 -0.3678 -1.4893 -0.5850
 6378SOL    HW325285   2.034   1.062   4.381 -0.6918 -0.8255  0.6793
 6378SOL    MW425286   1.973   1.061   4.319 -0.2447 -0.4812  0.2115
 6379SOL     OW25287   1.797   3.788   0.574 -0.4596  0.0613 -0.1573
 6379SOL    HW225288   1.864   3.791   0.505  1.3634  3.6417  1.4734
 6379SOL    HW325289   1.826   3.718   0.633 -0.1564 -0.7701 -1.2604
 6379SOL    MW425290   1.809   3.779   0.572  0.1407 -0.1673 -0.1306
 6380SOL     OW25291   4.788   2.923   5.339  0.3167  0.1327  0.0506
 6380SOL    HW225292   4.766   2.967   5.258  1.3516  0.9388  0.1883
 6380SOL    HW325293   4.747   2.976   5.408 -0.7408 -0.6679  0.0618
 6380SOL    MW425294   4.780   2.936   5.338  0.2050  0.2522 -0.0101
 6381SOL     OW25295   4.669   1.418   2.971 -0.1827 -0.5451  0.5648
 6381SOL    HW225296   4.676   1.493   2.912 -1.7433 -0.0786  0.9149
 6381SOL    HW325297   4.703   1.450   3.055 -1.3942 -0.0134  0.8703
 6381SOL    MW425298   4.674   1.432   2.974 -0.4822  0.8832  0.1726
 6382SOL     OW25299   5.434   3.019   4.777  0.4180 -0.1475 -0.1690
 6382SOL    HW225300   5.486   2.946   4.744  0.9794  0.2740 -0.2292
 6382SOL    HW325301   5.440   3.012   4.872 -0.3395 -0.7473 -0.1516
 6382SOL    MW425302   5.441   3.008   4.785 -0.0611  0.2098  0.0834
 6383SOL     OW25303   5.676   5.496   0.639  0.3020  0.5172 -0.2778
 6383SOL    HW225304   5.752   5.549   0.663  2.0599 -2.0079  0.1854
 6383SOL    HW325305   5.626   5.488   0.721 -0.3105  1.8885 -0.4956
 6383SOL    MW425306   5.680   5.502   0.653  0.3152 -0.0989  0.3188
 6384SOL     OW25307   6.143   3.551   1.123  0.1341  0.1176 -0.7023
 6384SOL    HW225308   6.116   3.475   1.174  0.3349 -0.4194 -1.3819
 6384SOL    HW325309   6.222   3.583   1.168  0.0524 -0.0818 -0.4161
 6384SOL    MW425310   6.150   3.545   1.136 -0.2617 -0.1928 -0.1194
 6385SOL     OW25311   5.747   3.649   4.593 -0.0778  0.4310 -0.1955
 6385SOL    HW225312   5.752   3.743   4.607 -3.4963  0.4995  1.7349
 6385SOL    HW325313   5.834   3.616   4.617  0.8265  2.9461  0.2517
 6385SOL    MW425314   5.759   3.657   4.598  0.0561  0.3299 -0.1891
 6386SOL     OW25315   3.899   4.712   1.124  1.1873 -0.1712  0.3336
 6386SOL    HW225316   3.954   4.776   1.080  1.3104  0.0722  0.8331
 6386SOL    HW325317   3.826   4.698   1.064  2.3818 -1.4227 -0.9004
 6386SOL    MW425318   3.896   4.719   1.111 -1.0508 -0.3283  0.2988
 6387SOL     OW25319   2.282   4.955   3.766  0.5563  0.9626  0.0486
 6387SOL    HW225320   2.241   4.934   3.850  0.0671  1.2314 -0.1171
 6387SOL    HW325321   2.233   4.903   3.702  0.8216  0.8815 -0.0895
 6387SOL    MW425322   2.270   4.945   3.769 -0.3097  0.1376  0.1149
 6388SOL     OW25323   0.426   4.504   2.188 -0.3952  0.3184  0.0849
 6388SOL    HW225324   0.383   4.533   2.107 -1.8247 -0.8794  0.3576
 6388SOL    HW325325   0.359   4.452   2.233  0.6984  0.1220  1.5669
 6388SOL    MW425326   0.411   4.501   2.183  0.1142  0.2675  0.9018
 6389SOL     OW25327   1.903   3.841   6.195 -0.0909 -0.2573  0.3371
 6389SOL    HW225328   1.809   3.828   6.196 -0.1336 -0.0273 -0.0863
 6389SOL    HW325329   1.918   3.896   6.117  0.3556 -0.0528  0.5655
 6389SOL    MW425330   1.893   3.847   6.185 -0.0058  0.0028 -0.3522
 6390SOL     OW25331   1.995   3.232   4.642 -0.5091 -0.2963 -0.3811
 6390SOL    HW225332   1.911   3.190   4.623 -0.9702 -1.1161  2.8095
 6390SOL    HW325333   2.058   3.160   4.645 -0.1663 -0.0040 -0.4621
 6390SOL    MW425334   1.992   3.217   4.640 -0.3610  0.1324  0.0245
 6391SOL     OW25335   0.090   3.879   5.686 -0.4557 -0.0129 -0.1405
 6391SOL    HW225336   0.056   3.793   5.712 -0.5521  0.3639  1.0484
 6391SOL    HW325337   0.160   3.860   5.624 -1.2898 -0.8951 -0.8497
 6391SOL    MW425338   0.095   3.865   5.682 -0.7491  0.3307  0.0952
 6392SOL     OW25339   0.828   0.803   0.226  0.1961  0.0010  0.1187
 6392SOL    HW225340   0.813   0.821   0.133  1.1888 -3.6966 -0.9017
 6392SOL    HW325341   0.768   0.732   0.247  0.9874 -0.1810  1.9174
 6392SOL    MW425342   0.818   0.796   0.216 -0.1124 -0.0912 -0.6677
 6393SOL     OW25343   1.240   2.328   1.471 -0.2876 -0.4074  0.1183
 6393SOL    HW225344   1.283   2.412   1.487  1.6951 -1.6129  1.7912
 6393SOL    HW325345   1.249   2.313   1.377  0.7304  0.5748  0.0406
 6393SOL    MW425346   1.247   2.337   1.461 -0.2106 -0.1546  0.4999
 6394SOL     OW25347   1.506   2.795   3.861  0.0095 -0.2843  0.5176
 6394SOL    HW225348   1.429   2.840   3.827  0.1433 -0.5296 -0.1264
 6394SOL    HW325349   1.519   2.721   3.801  0.8884 -0.1069  0.4690
 6394SOL    MW425350   1.498   2.791   3.849  0.0181  0.0315 -0.1754
 6395SOL     OW25351   0.553   1.378   2.103 -0.3067 -0.2350  0.2762
 6395SOL    HW225352   0.637   1.416   2.079  0.9150 -1.1134  2.7567
 6395SOL    HW325353   0.541   1.305   2.041  0.7470 -0.0860 -0.1273
 6395SOL    MW425354   0.562   1.373   2.092  0.0454 -0.1307  0.0772
 6396SOL     OW25355   0.262   2.870   1.289  0.1295 -0.1389 -0.1569
 6396SOL    HW225356   0.280   2.816   1.212 -0.2124  0.1680 -0.4569
 6396SOL    HW325357   0.197   2.821   1.339  0.3266 -0.3223 -0.0794
 6396SOL    MW425358   0.256   2.857   1.285  0.2789  0.3250  0.1108
 6397SOL     OW25359   5.464   2.395   6.043  0.4332  0.5980  0.0835
 6397SOL    HW225360   5.485   2.415   6.134  0.3540  2.1692 -0.2200
 6397SOL    HW325361   5.391   2.453   6.022 -0.5667 -0.8327 -0.5418
 6397SOL    MW425362   5.457   2.405   6.052 -0.1080 -0.0026  0.4159
 6398SOL     OW25363   0.419   1.407   2.589 -0.3856 -0.0584 -0.3137
 6398SOL    HW225364   0.415   1.423   2.495 -0.7496  0.3066 -0.2416
 6398SOL    HW325365   0.443   1.492   2.627  0.3201 -0.3417 -0.1176
 6398SOL    MW425366   0.422   1.420   2.582  0.2147  0.3636  0.4678
 6399SOL     OW25367   5.094   5.538   4.427 -0.1885  0.1187  0.4053
 6399SOL    HW225368   5.035   5.522   4.502 -0.5740  2.1528  0.5918
 6399SOL    HW325369   5.089   5.633   4.413  0.2829 -0.1554 -1.8888
 6399SOL    MW425370   5.085   5.548   4.435 -0.5395 -0.1216 -0.4741
 6400SOL     OW25371   5.886   3.346   4.576  0.2018  0.0034  0.0145
 6400SOL    HW225372   5.930   3.369   4.494  0.1832 -0.5011 -0.1368
 6400SOL    HW325373   5.936   3.393   4.644  0.0244  0.6784 -0.3112
 6400SOL    MW425374   5.898   3.355   4.574  0.5182 -0.2916  0.3035
 6401SOL     OW25375   3.422   2.375   1.667 -0.2978  0.6017  0.7569
 6401SOL    HW225376   3.439   2.373   1.573 -2.7975  1.6219  0.2176
 6401SOL    HW325377   3.459   2.293   1.700  0.5436  0.1825 -1.1016
 6401SOL    MW425378   3.429   2.364   1.659 -0.2687  0.3564 -0.1450
 6402SOL     OW25379   4.733   2.650   5.351  0.0463 -0.1994 -0.5526
 6402SOL    HW225380   4.737   2.746   5.353  2.2078 -0.2468 -0.5247
 6402SOL    HW325381   4.799   2.625   5.286  0.7540 -1.7159  0.7086
 6402SOL    MW425382   4.742   2.659   5.342  0.1898 -0.1112  0.0905
 6403SOL     OW25383   0.154   4.239   1.323  0.3510 -0.1024 -0.0410
 6403SOL    HW225384   0.208   4.280   1.390 -1.0616  0.7531  0.6161
 6403SOL    HW325385   0.204   4.247   1.242  0.8985  1.3087  0.4184
 6403SOL    MW425386   0.167   4.245   1.321  0.5187  0.1391 -0.2280
 6404SOL     OW25387   4.068   0.810   4.450  0.7775  0.6532  0.0810
 6404SOL    HW225388   4.048   0.826   4.358 -1.0919  0.5618  0.4418
 6404SOL    HW325389   4.038   0.720   4.465  1.5360  0.4905  0.6693
 6404SOL    MW425390   4.062   0.800   4.440 -0.3034  0.3270 -0.4910
 6405SOL     OW25391   1.547   1.453   0.149  0.7124 -0.7338  0.0345
 6405SOL    HW225392   1.586   1.436   0.235 -0.4271 -0.4040  0.6322
 6405SOL    HW325393   1.479   1.518   0.166 -0.4327 -1.6476 -0.8924
 6405SOL    MW425394   1.543   1.460   0.163 -0.3272 -0.7413  0.0610
 6406SOL     OW25395   2.125   5.412   2.267  0.0844  0.3928  1.0060
 6406SOL    HW225396   2.187   5.481   2.292 -0.8580  1.6915 -0.0819
 6406SOL    HW325397   2.066   5.404   2.342 -1.0544  2.2922  0.3731
 6406SOL    MW425398   2.126   5.420   2.280 -0.1979  0.9529 -0.3226
 6407SOL     OW25399   4.380   1.952   4.076 -0.0905  0.0078  0.0068
 6407SOL    HW225400   4.337   1.956   3.991  1.8879 -0.6002 -1.0850
 6407SOL    HW325401   4.465   1.994   4.062  0.8076 -1.2608  1.3253
 6407SOL    MW425402   4.386   1.958   4.063  0.0468 -0.6396 -0.4864
 6408SOL     OW25403   4.518   0.528   4.572  0.4587 -0.1318  0.0384
 6408SOL    HW225404   4.598   0.580   4.569  0.2908  0.0875 -1.3337
 6408SOL    HW325405   4.527   0.466   4.499 -1.7326  1.6595 -1.9178
 6408SOL    MW425406   4.530   0.527   4.562  0.3251 -0.5746 -0.1123
 6409SOL     OW25407   1.776   1.206   5.041 -0.2704 -0.6075 -0.4224
 6409SOL    HW225408   1.754   1.297   5.021 -0.6342 -0.5668  0.1369
 6409SOL    HW325409   1.804   1.169   4.957 -0.3937 -0.0578 -0.7110
 6409SOL    MW425410   1.777   1.213   5.027  0.2688  0.4500 -0.2787
 6410SOL     OW25411   3.760   4.397   1.178  0.7918  0.1337 -0.5138
 6410SOL    HW225412   3.747   4.424   1.087  0.7105  2.5752  0.1685
 6410SOL    HW325413   3.687   4.338   1.196 -0.2357  1.0620 -1.4853
 6410SOL    MW425414   3.749   4.393   1.168 -0.2154  0.6354  0.1689
 6411SOL     OW25415   3.821   4.953   5.582 -0.1764  0.3127 -0.1173
 6411SOL    HW225416   3.771   4.881   5.620  1.1798 -0.9316 -0.6258
 6411SOL    HW325417   3.765   4.986   5.512 -1.4353  0.7349  1.0424
 6411SOL    MW425418   3.807   4.948   5.578  0.5092 -0.0238  0.1329
 6412SOL     OW25419   1.281   1.650   3.365  0.1714  0.9787  0.0722
 6412SOL    HW225420   1.329   1.726   3.334  0.1995  1.3509  0.9980
 6412SOL    HW325421   1.231   1.681   3.440  0.2369  0.0750  0.5075
 6412SOL    MW425422   1.281   1.664   3.371 -0.4456 -0.5933 -0.5593
 6413SOL     OW25423   5.301   0.746   3.711  0.2654  0.4042 -0.0723
 6413SOL    HW225424   5.329   0.660   3.678  0.2884  0.1008  0.7196
 6413SOL    HW325425   5.350   0.809   3.658 -0.2680 -0.0433 -1.1413
 6413SOL    MW425426   5.311   0.743   3.700 -0.8811 -0.2943 -0.1684
 6414SOL     OW25427   0.975   5.731   4.405 -0.0489 -0.3430  0.0082
 6414SOL    HW225428   0.912   5.777   4.349  2.4773  2.2000 -0.9467
 6414SOL    HW325429   1.054   5.724   4.352  1.5314 -0.4632  2.2561
 6414SOL    MW425430   0.977   5.736   4.391 -0.4197  0.2383 -0.1982
 6415SOL     OW25431   2.943   1.350   5.260  0.6517  0.7123  0.0686
 6415SOL    HW225432   2.916   1.441   5.251  0.7603  0.6625 -0.7921
 6415SOL    HW325433   3.024   1.344   5.211  0.9839  0.2965  0.6604
 6415SOL    MW425434   2.950   1.361   5.252  0.3305  0.1117  0.2692
 6416SOL     OW25435   5.865   5.266   3.379  1.3416  0.8340 -0.1152
 6416SOL    HW225436   5.855   5.190   3.436 -3.0919  1.6375  0.5753
 6416SOL    HW325437   5.838   5.235   3.293  0.8833  1.2753 -0.1339
 6416SOL    MW425438   5.860   5.252   3.375 -0.0657  0.0130 -0.0292
 6417SOL     OW25439   5.385   1.650   5.478 -0.0056  0.0556 -0.3445
 6417SOL    HW225440   5.331   1.576   5.449  0.2633 -0.0650 -0.5419
 6417SOL    HW325441   5.368   1.656   5.572 -0.3971  0.0479 -0.4101
 6417SOL    MW425442   5.375   1.641   5.486  0.4597 -0.2385 -1.2227
 6418SOL     OW25443   6.030   1.272   4.389 -0.1377  0.5104  0.4789
 6418SOL    HW225444   6.090   1.346   4.389 -0.3501  0.7865  3.1194
 6418SOL    HW325445   5.957   1.300   4.444 -1.0102 -1.0809  0.1907
 6418SOL    MW425446   6.029   1.285   4.396 -0.2540 -0.3661  0.0789
 6419SOL     OW25447   3.332   5.982   5.910  0.1630 -0.4891 -0.1993
 6419SOL    HW225448   3.403   5.919   5.917  1.0055  0.5940  2.1449
 6419SOL    HW325449   3.268   5.954   5.976 -0.6716 -0.3427 -0.9296
 6419SOL    MW425450   3.333   5.970   5.920  0.1136  0.4831  0.2140
 6420SOL     OW25451   3.206   3.137   0.981  0.4434 -0.4121 -0.4197
 6420SOL    HW225452   3.170   3.224   0.964  0.4628  0.0222  1.4985
 6420SOL    HW325453   3.156   3.078   0.924 -0.4640  0.6950 -0.7916
 6420SOL    MW425454   3.195   3.140   0.971  0.2841 -0.5428 -0.3929
 6421SOL     OW25455   6.401   5.082   0.260  0.0880  0.6644  0.1423
 6421SOL    HW225456   6.479   5.059   0.210  0.2797  0.0019  0.7252
 6421SOL    HW325457   6.328   5.044   0.210  0.2823 -0.0400  0.3778
 6421SOL    MW425458   6.401   5.074   0.247 -0.3376  0.0237 -0.1970
 6422SOL     OW25459   1.500   3.418   1.598 -0.5139  0.0608  0.3499
 6422SOL    HW225460   1.509   3.326   1.572  0.0783 -0.0016  0.7529
 6422SOL    HW325461   1.408   3.438   1.584 -1.0094 -1.0585  1.7263
 6422SOL    MW425462   1.489   3.409   1.593 -0.1731 -0.1046 -0.6643
 6423SOL     OW25463   6.069   1.344   5.128  0.3239  0.5253  0.0969
 6423SOL    HW225464   6.028   1.260   5.146  2.4200 -0.4926  0.3698
 6423SOL    HW325465   6.119   1.364   5.207  2.4498  0.3939 -1.1397
 6423SOL    MW425466   6.071   1.336   5.140  0.1640  0.2982 -0.0513
 6424SOL     OW25467   1.183   1.511   1.160 -0.1800 -0.5633 -0.1165
 6424SOL    HW225468   1.235   1.452   1.214 -1.9885 -0.5503  1.7655
 6424SOL    HW325469   1.145   1.573   1.222 -3.0717 -1.0742 -1.2290
 6424SOL    MW425470   1.185   1.511   1.175  0.5097  0.2000  0.0463
 6425SOL     OW25471   0.242   2.185   1.352 -0.4019 -0.1491 -0.4664
 6425SOL    HW225472   0.238   2.103   1.302 -0.1587 -0.7394  0.4626
 6425SOL    HW325473   0.178   2.173   1.422 -1.1221  0.8828 -0.9189
 6425SOL    MW425474   0.233   2.172   1.355  0.1053  0.2387  0.4170
 6426SOL     OW25475   4.351   0.681   4.807  0.2267  0.3821  0.6970
 6426SOL    HW225476   4.405   0.680   4.886 -1.0079 -2.5902  1.6189
 6426SOL    HW325477   4.394   0.620   4.748 -0.8291 -0.2211  0.5311
 6426SOL    MW425478   4.364   0.673   4.810  0.2480  0.0564 -0.3284
 6427SOL     OW25479   4.818   4.095   0.157  1.2012 -0.2056  0.1016
 6427SOL    HW225480   4.858   4.017   0.120  0.5336 -0.0655 -0.9481
 6427SOL    HW325481   4.822   4.160   0.087  0.8887  0.4061  0.6366
 6427SOL    MW425482   4.824   4.093   0.143 -0.3004  0.9867 -0.7562
 6428SOL     OW25483   4.784   3.413   0.282  0.0948  0.2647 -0.4336
 6428SOL    HW225484   4.796   3.472   0.357 -0.6552  0.3270 -0.3495
 6428SOL    HW325485   4.689   3.406   0.273  0.1765 -0.8310 -0.5268
 6428SOL    MW425486   4.773   3.420   0.291  0.7118 -0.0001  0.2411
 6429SOL     OW25487   5.001   6.374   1.806 -0.0519 -0.0410  0.1628
 6429SOL    HW225488   4.977   6.300   1.749  0.3684 -0.1637  0.1391
 6429SOL    HW325489   5.096   6.365   1.817 -0.3114 -0.8753  2.0883
 6429SOL    MW425490   5.010   6.363   1.800  0.1220 -1.1479  0.2120
 6430SOL     OW25491   5.325   2.959   4.071  0.4485 -0.0328 -0.1540
 6430SOL    HW225492   5.361   2.944   4.158  1.3068 -0.2075 -0.5314
 6430SOL    HW325493   5.306   3.052   4.068  1.8683  0.2685 -0.3068
 6430SOL    MW425494   5.327   2.969   4.082  0.2141 -0.3137  1.2095
 6431SOL     OW25495   2.858   1.478   3.712  0.1254 -0.2280  0.3258
 6431SOL    HW225496   2.950   1.479   3.738  0.3318  0.4102 -0.4082
 6431SOL    HW325497   2.830   1.388   3.730  1.0826 -0.6295 -0.0824
 6431SOL    MW425498   2.867   1.466   3.717 -0.1527  0.2321  0.0944
 6432SOL     OW25499   0.378   4.393   4.163 -0.4093 -0.4767  0.5411
 6432SOL    HW225500   0.359   4.432   4.249 -1.0767 -0.1506  0.2563
 6432SOL    HW325501   0.309   4.327   4.151 -0.6090 -0.1877  0.0532
 6432SOL    MW425502   0.366   4.389   4.173 -0.0050 -0.2187  0.1212
 6433SOL     OW25503   0.075   2.505   4.485  0.2994 -0.0309 -0.6674
 6433SOL    HW225504   0.069   2.588   4.438 -0.4325 -0.1671 -0.8241
 6433SOL    HW325505  -0.011   2.465   4.476  0.4082 -0.4622  0.0521
 6433SOL    MW425506   0.063   2.511   4.478  0.4498  0.0695  0.7911
 6434SOL     OW25507   4.228   2.588   0.920  0.0027  0.0062  0.5706
 6434SOL    HW225508   4.184   2.543   0.848 -0.2669  0.9692  0.1207
 6434SOL    HW325509   4.198   2.678   0.914  0.7382  0.3120  1.3027
 6434SOL    MW425510   4.218   2.594   0.910  0.1741  0.3691  0.1768
 6435SOL     OW25511   5.541   0.309   2.713 -0.2281  0.2650 -0.0957
 6435SOL    HW225512   5.508   0.324   2.625 -0.1561  2.3426  0.1781
 6435SOL    HW325513   5.484   0.363   2.769  0.9893  0.5972  0.8719
 6435SOL    MW425514   5.529   0.318   2.709 -0.1072  0.3521  0.2983
 6436SOL     OW25515   3.488   1.940   4.878  0.0676  0.0769 -0.4495
 6436SOL    HW225516   3.537   1.878   4.932  1.3545  0.6380 -0.9399
 6436SOL    HW325517   3.396   1.919   4.896  0.4616 -1.6764 -0.2783
 6436SOL    MW425518   3.483   1.929   4.888 -0.1999 -0.3391  0.5687
 6437SOL     OW25519   6.263   0.598   4.783  0.1602 -0.1973  0.0636
 6437SOL    HW225520   6.342   0.646   4.805  0.4013  0.3176 -1.8356
 6437SOL    HW325521   6.287   0.506   4.794  0.4585  0.0044  1.2280
 6437SOL    MW425522   6.276   0.592   4.788 -0.3394 -0.1189 -0.0976
 6438SOL     OW25523   5.055   3.157   5.064 -0.3413  0.2110  0.0352
 6438SOL    HW225524   4.961   3.170   5.056 -0.4514  0.3166  1.3253
 6438SOL    HW325525   5.080   3.206   5.142  0.4121 -1.5168  0.9437
 6438SOL    MW425526   5.046   3.165   5.074  0.1730 -0.7285 -0.1432
 6439SOL     OW25527   1.073   1.833   0.593  0.1652  0.2784  0.5181
 6439SOL    HW225528   1.009   1.804   0.658  0.6474 -0.2675  0.7608
 6439SOL    HW325529   1.102   1.919   0.623  0.0556  0.2226  0.7803
 6439SOL    MW425530   1.069   1.841   0.605 -0.4197  0.2115 -0.3934
 6440SOL     OW25531   2.645   4.909   6.187 -0.2202 -0.2596  0.4116
 6440SOL    HW225532   2.738   4.919   6.205 -0.4441 -0.5599  1.8112
 6440SOL    HW325533   2.601   4.930   6.269 -1.4590  0.7723 -0.4654
 6440SOL    MW425534   2.651   4.913   6.200  0.0013  0.1424 -0.0956
 6441SOL     OW25535   5.873   1.123   2.887 -0.1335  0.6739 -0.3535
 6441SOL    HW225536   5.941   1.188   2.903 -0.5394  1.0713 -0.2321
 6441SOL    HW325537   5.907   1.042   2.926  0.7418  0.5945 -1.2485
 6441SOL    MW425538   5.887   1.121   2.894  0.6144 -0.4796 -0.1860
 6442SOL     OW25539   0.973   5.758   5.980  0.4272  0.1601  0.1907
 6442SOL    HW225540   0.922   5.710   5.914 -0.6087 -0.8946  1.7114
 6442SOL    HW325541   0.951   5.850   5.963 -1.3724 -0.2101  0.2652
 6442SOL    MW425542   0.963   5.764   5.969  0.2201  0.0093 -0.1800
 6443SOL     OW25543   4.029   4.470   3.248  0.1312 -0.2054  0.4128
 6443SOL    HW225544   3.989   4.425   3.322  0.3862 -2.2407 -0.6134
 6443SOL    HW325545   4.052   4.400   3.187 -0.4692  1.3938 -1.8001
 6443SOL    MW425546   4.027   4.454   3.250 -0.1636 -0.6166  0.5698
 6444SOL     OW25547   3.842   1.685   2.888 -0.1960  0.7219  0.0399
 6444SOL    HW225548   3.922   1.725   2.854  0.5617 -0.5563  0.2539
 6444SOL    HW325549   3.799   1.648   2.810  0.8831 -1.0684  0.2477
 6444SOL    MW425550   3.847   1.686   2.873  0.1395 -0.1520  0.3221
 6445SOL     OW25551   6.124   0.321   2.651 -0.0226 -0.0744  0.3602
 6445SOL    HW225552   6.210   0.316   2.609 -0.8627  0.2301 -1.4521
 6445SOL    HW325553   6.144   0.347   2.741  1.8706 -1.2536  0.3563
 6445SOL    MW425554   6.138   0.324   2.658 -0.1500  0.6994 -0.2957
 6446SOL     OW25555   1.939   3.334   3.460  0.2836 -0.0004 -0.0689
 6446SOL    HW225556   1.957   3.419   3.420 -3.4435  0.7189 -0.5727
 6446SOL    HW325557   1.914   3.355   3.550  2.1844 -0.9462  0.7310
 6446SOL    MW425558   1.938   3.348   3.466  0.4767  0.1246 -0.5511
 6447SOL     OW25559   0.184   3.656   3.653 -0.7457 -0.1844 -0.4118
 6447SOL    HW225560   0.160   3.611   3.572 -2.0026  0.8898 -0.6738
 6447SOL    HW325561   0.152   3.599   3.723 -0.3469 -0.7448 -0.6820
 6447SOL    MW425562   0.177   3.642   3.652  0.1640  0.0963  0.4630
 6448SOL     OW25563   6.010   0.271   2.950 -0.4790  0.1394 -0.1936
 6448SOL    HW225564   5.968   0.218   3.019 -0.4726 -1.3423 -1.2785
 6448SOL    HW325565   5.946   0.274   2.880  0.2920 -0.1031 -0.9218
 6448SOL    MW425566   5.996   0.264   2.950  0.9304 -0.1604 -0.3405
 6449SOL     OW25567   3.369   5.564   5.942 -0.4894  0.2644  0.5476
 6449SOL    HW225568   3.336   5.484   5.982 -0.2910 -0.1860 -0.1564
 6449SOL    HW325569   3.391   5.621   6.015  0.4081 -0.7486  1.0908
 6449SOL    MW425570   3.367   5.561   5.957  0.1566 -0.5348  0.0613
 6450SOL     OW25571   1.205   3.700   3.842 -0.2410  0.0076 -0.3987
 6450SOL    HW225572   1.280   3.689   3.784  1.5167  1.9780  1.3158
 6450SOL    HW325573   1.182   3.611   3.869  0.2179 -0.7695 -2.4491
 6450SOL    MW425574   1.212   3.687   3.838  0.1714  0.6845  0.7724
 6451SOL     OW25575   0.796   1.882   0.212 -0.9158 -0.1081 -0.3243
 6451SOL    HW225576   0.720   1.845   0.168 -1.7748  0.6422  0.4823
 6451SOL    HW325577   0.780   1.867   0.306  1.2998 -2.4956 -0.2122
 6451SOL    MW425578   0.784   1.875   0.219  0.2159 -0.1226 -0.3268
 6452SOL     OW25579   5.032   3.919   1.834 -0.4097 -0.1175 -0.5363
 6452SOL    HW225580   5.079   4.002   1.828  1.1643 -1.0196 -1.2466
 6452SOL    HW325581   4.986   3.923   1.918  0.4851  1.0288 -0.0819
 6452SOL    MW425582   5.032   3.930   1.844 -0.2266  0.1239  0.3583
 6453SOL     OW25583   1.099   5.046   4.850  0.1687 -0.5342  0.1068
 6453SOL    HW225584   1.160   5.120   4.853 -0.3273 -0.0408 -1.1563
 6453SOL    HW325585   1.147   4.977   4.804 -0.5236  0.2130 -1.8572
 6453SOL    MW425586   1.113   5.047   4.845  0.0280 -0.2426 -0.3029
 6454SOL     OW25587   6.079   3.147   4.665 -0.1750 -0.4838  0.9635
 6454SOL    HW225588   6.158   3.180   4.622 -0.1011 -1.5733  0.2465
 6454SOL    HW325589   6.009   3.206   4.634  0.6729  2.2074  3.6679
 6454SOL    MW425590   6.080   3.159   4.655 -0.6015  0.2085 -0.2479
 6455SOL     OW25591   3.845   2.122   3.779 -0.0436  0.6853 -0.8597
 6455SOL    HW225592   3.760   2.136   3.736  0.3902  0.3105 -1.8703
 6455SOL    HW325593   3.841   2.176   3.858 -2.0866 -1.0511  0.3116
 6455SOL    MW425594   3.833   2.131   3.784 -0.3890  0.0191  0.2000
 6456SOL     OW25595   6.034   3.857   5.604 -0.4090 -0.6955 -0.0822
 6456SOL    HW225596   6.087   3.795   5.654 -0.3415 -0.1333  0.5556
 6456SOL    HW325597   6.059   3.943   5.638 -0.7600 -0.3360 -0.7086
 6456SOL    MW425598   6.045   3.860   5.615 -0.4238 -0.0451 -0.2288
 6457SOL     OW25599   4.906   2.223   6.162  0.3446  0.2790  0.5746
 6457SOL    HW225600   4.993   2.186   6.148  0.9291  1.4505  0.9462
 6457SOL    HW325601   4.892   2.214   6.256 -0.1295 -0.3012  0.4511
 6457SOL    MW425602   4.916   2.217   6.173  0.0820  0.5408  0.0886
 6458SOL     OW25603   5.166   4.204   3.082  0.4489 -0.0061  0.0145
 6458SOL    HW225604   5.097   4.256   3.124  1.0517  0.9035 -0.0805
 6458SOL    HW325605   5.139   4.113   3.093  0.5395  0.1894  2.3218
 6458SOL    MW425606   5.154   4.199   3.089 -0.1416  0.1506  0.1197
 6459SOL     OW25607   0.615   1.529   5.096  0.0415 -0.5142 -0.0682
 6459SOL    HW225608   0.539   1.515   5.154  1.4697 -2.3308  1.4920
 6459SOL    HW325609   0.623   1.624   5.090 -1.4844 -0.2851  0.9126
 6459SOL    MW425610   0.606   1.540   5.103 -0.0611  0.0064  0.1340
 6460SOL     OW25611   2.953   5.837   0.721  0.6165 -0.6595  0.0036
 6460SOL    HW225612   2.869   5.836   0.675 -0.0352  0.6894  1.0861
 6460SOL    HW325613   2.970   5.930   0.739  1.6998 -1.0122  0.9425
 6460SOL    MW425614   2.944   5.849   0.717  0.1461  0.4500  0.2352
 6461SOL     OW25615   4.520   0.837   1.105  0.4209  0.0782  0.1153
 6461SOL    HW225616   4.581   0.766   1.086  1.7645  1.2525 -0.0389
 6461SOL    HW325617   4.574   0.908   1.138 -0.6839  1.5989 -1.1695
 6461SOL    MW425618   4.535   0.837   1.107  0.4054 -0.1610  0.1364
 6462SOL     OW25619   3.123   4.511   4.646  0.3667  1.0052  0.1196
 6462SOL    HW225620   3.101   4.423   4.616  1.7113  0.3896  0.8531
 6462SOL    HW325621   3.043   4.561   4.632 -0.2106 -0.1403 -0.9872
 6462SOL    MW425622   3.109   4.506   4.640 -0.2149 -0.1810  0.2780
 6463SOL     OW25623   5.517   0.706   3.386  0.1791 -0.2788  0.3085
 6463SOL    HW225624   5.427   0.678   3.369  0.4140 -2.4719  2.2157
 6463SOL    HW325625   5.509   0.769   3.457  0.0869  0.3042 -0.2126
 6463SOL    MW425626   5.504   0.711   3.393  0.0663 -0.3626 -0.4535
 6464SOL     OW25627   5.583   4.758   2.254 -0.4646 -0.1992  0.2896
 6464SOL    HW225628   5.531   4.761   2.174  0.7231 -0.4673 -0.5318
 6464SOL    HW325629   5.585   4.848   2.285 -2.1055 -0.3257  0.8163
 6464SOL    MW425630   5.576   4.770   2.247  0.0737  0.0005 -0.2906
 6465SOL     OW25631   5.970   0.852   5.654  0.5782 -0.2513 -0.1723
 6465SOL    HW225632   6.036   0.906   5.610 -1.4723  1.6918 -1.0876
 6465SOL    HW325633   5.909   0.915   5.691 -0.1834 -1.9538  1.6718
 6465SOL    MW425634   5.971   0.867   5.653  0.1964  0.1271  0.1419
 6466SOL     OW25635   1.494   0.058   4.395  0.4020  0.4965 -0.7144
 6466SOL    HW225636   1.454   0.122   4.336 -0.2485  1.3363  0.5899
 6466SOL    HW325637   1.423   0.031   4.453  1.1289  0.0420 -0.0171
 6466SOL    MW425638   1.479   0.063   4.394  0.0124  0.0593  0.1441
 6467SOL     OW25639   4.747   0.606   5.567  0.3903 -0.3548  0.1974
 6467SOL    HW225640   4.697   0.591   5.648 -0.1172  1.5189  0.2697
 6467SOL    HW325641   4.823   0.657   5.595  0.2733  0.1999 -0.4877
 6467SOL    MW425642   4.750   0.610   5.582 -0.2540  0.5049 -0.3844
 6468SOL     OW25643   6.143   5.907   4.870 -0.1202 -0.1489 -0.6292
 6468SOL    HW225644   6.137   5.884   4.962 -1.9273 -0.6816 -0.8401
 6468SOL    HW325645   6.136   5.824   4.823  2.0509 -0.0256 -1.2571
 6468SOL    MW425646   6.141   5.893   4.876 -0.4842 -0.1577 -0.0452
 6469SOL     OW25647   0.979   2.121   0.920 -0.0228  0.3661 -0.1640
 6469SOL    HW225648   1.000   2.196   0.975 -1.1173  1.2813 -0.9365
 6469SOL    HW325649   1.061   2.099   0.876  0.0969  1.7963 -0.7042
 6469SOL    MW425650   0.992   2.128   0.921  0.2758  0.3669 -0.3705
 6470SOL     OW25651   0.624   5.596   4.755 -0.7078 -0.4806  0.6962
 6470SOL    HW225652   0.552   5.539   4.728 -0.7839 -0.6703  1.2747
 6470SOL    HW325653   0.614   5.675   4.702 -0.8262 -0.8539  0.1605
 6470SOL    MW425654   0.613   5.599   4.745  0.1190 -0.1402  0.0847
 6471SOL     OW25655   5.721   4.031   3.793 -0.1658 -0.0399 -0.3084
 6471SOL    HW225656   5.651   3.993   3.740 -0.4164 -0.8886  0.6115
 6471SOL    HW325657   5.734   4.118   3.756  0.7429 -1.1255 -2.7914
 6471SOL    MW425658   5.713   4.038   3.781 -0.4832  0.0841 -0.2103
 6472SOL     OW25659   5.702   0.784   2.611  0.3326 -0.7241 -0.7257
 6472SOL    HW225660   5.689   0.878   2.599 -0.5999 -0.5082  1.4430
 6472SOL    HW325661   5.708   0.749   2.522  0.6720  1.3637 -1.5901
 6472SOL    MW425662   5.701   0.792   2.598  0.0527  0.4133 -0.3828
 6473SOL     OW25663   4.286   1.929   6.178  0.5516 -0.0641  0.6449
 6473SOL    HW225664   4.320   1.843   6.200  0.4908  0.1483  1.6465
 6473SOL    HW325665   4.203   1.935   6.225 -0.9067 -0.5444 -1.7035
 6473SOL    MW425666   4.279   1.919   6.187  0.2437 -0.5658  0.0185
 6474SOL     OW25667   4.954   5.779   3.388 -0.1368 -0.3354  0.5091
 6474SOL    HW225668   4.867   5.739   3.382 -0.8672  1.3389 -0.9841
 6474SOL    HW325669   4.960   5.813   3.477 -0.3886 -1.7410  1.0848
 6474SOL    MW425670   4.943   5.778   3.399  0.6013 -0.4128 -0.0654
 6475SOL     OW25671   1.487   4.373   0.853 -0.1866  0.2257  0.1698
 6475SOL    HW225672   1.432   4.301   0.822 -0.9499  1.2541 -0.9278
 6475SOL    HW325673   1.426   4.442   0.878  0.5319  0.4623  1.3538
 6475SOL    MW425674   1.472   4.372   0.853  0.0602  0.0270  0.0934
 6476SOL     OW25675   2.364   1.496   1.258  0.0511 -0.1685 -0.5614
 6476SOL    HW225676   2.365   1.557   1.184  1.8252 -0.3306 -0.7092
 6476SOL    HW325677   2.355   1.552   1.335 -0.0055  0.1463 -0.7931
 6476SOL    MW425678   2.363   1.512   1.258 -0.6467 -0.1906  0.0809
 6477SOL     OW25679   0.165   0.628   1.100 -0.1652 -0.1660 -0.5429
 6477SOL    HW225680   0.102   0.644   1.170 -0.3783 -0.6737 -0.6131
 6477SOL    HW325681   0.144   0.540   1.069  0.5858 -0.3472 -0.5577
 6477SOL    MW425682   0.154   0.619   1.105  0.3115  0.3633  0.0318
 6478SOL     OW25683   6.233   4.219   2.435  0.4723  0.4234 -0.6231
 6478SOL    HW225684   6.232   4.125   2.417 -1.7886  0.2253  0.2382
 6478SOL    HW325685   6.261   4.225   2.526 -2.8287  0.2209  0.5294
 6478SOL    MW425686   6.237   4.207   2.445  0.1683  0.1100 -0.3013
 6479SOL     OW25687   1.907   1.019   0.001  0.3487 -0.2288  0.1155
 6479SOL    HW225688   1.998   1.037  -0.019  1.3479 -2.2962  2.3214
 6479SOL    HW325689   1.896   1.045   0.093 -1.0826 -0.6981  0.1087
 6479SOL    MW425690   1.917   1.025   0.010  0.2334  0.2593 -0.1058
 6480SOL     OW25691   4.401   0.041   5.212 -0.0248 -0.3602 -0.2618
 6480SOL    HW225692   4.423  -0.005   5.131  1.0783  0.0440 -0.2037
 6480SOL    HW325693   4.406   0.134   5.189  0.1236 -0.2451  0.2260
 6480SOL    MW425694   4.404   0.047   5.198 -0.1346 -0.3292  0.4532
 6481SOL     OW25695   6.230   3.945   1.207 -0.0482  0.1185 -0.4873
 6481SOL    HW225696   6.284   3.985   1.276 -1.5825 -0.3866  1.0603
 6481SOL    HW325697   6.163   3.895   1.254 -1.1278 -0.2872 -2.3542
 6481SOL    MW425698   6.228   3.944   1.222  0.1887  0.4651 -0.2334
 6482SOL     OW25699   0.544   4.806   3.397 -0.7154 -0.5550 -0.7180
 6482SOL    HW225700   0.480   4.743   3.364 -0.0777 -1.2636 -0.6264
 6482SOL    HW325701   0.567   4.774   3.484  0.7930 -1.0921 -1.2952
 6482SOL    MW425702   0.538   4.794   3.404  0.4032 -0.3097  0.0058
 6483SOL     OW25703   2.756   1.840   2.145  0.0667 -0.0585  0.2257
 6483SOL    HW225704   2.784   1.858   2.055 -2.3138  0.1168 -0.5572
 6483SOL    HW325705   2.746   1.745   2.148 -0.4343 -0.0105  0.1106
 6483SOL    MW425706   2.758   1.830   2.133  0.3070  0.5834 -0.4432
 6484SOL     OW25707   0.471   5.759   3.916  0.2956 -0.5406  0.1762
 6484SOL    HW225708   0.416   5.826   3.875  0.2395 -1.1654 -0.7911
 6484SOL    HW325709   0.410   5.691   3.944  0.1948  0.3964  2.4066
 6484SOL    MW425710   0.456   5.759   3.914 -0.0775  0.8390 -0.6433
 6485SOL     OW25711   2.583   1.237   3.240  0.4808  0.1848 -0.3220
 6485SOL    HW225712   2.560   1.302   3.306  0.7710 -0.1254  0.0863
 6485SOL    HW325713   2.546   1.155   3.272 -0.0135  0.1672 -0.9097
 6485SOL    MW425714   2.575   1.235   3.253  0.1776 -0.6797 -0.2240
 6486SOL     OW25715   2.780   0.168   5.494  0.1900 -0.1690 -0.6253
 6486SOL    HW225716   2.853   0.184   5.434  0.9390 -0.1406  0.2787
 6486SOL    HW325717   2.759   0.075   5.481  1.9840 -0.8374  0.8016
 6486SOL    MW425718   2.787   0.158   5.484  0.2110 -0.9252 -0.2679
 6487SOL     OW25719   0.175   4.000   6.310 -0.5065  0.2588 -0.1976
 6487SOL    HW225720   0.252   4.035   6.355 -1.1667 -0.2969  1.4314
 6487SOL    HW325721   0.125   4.077   6.285 -0.8999  0.5746  1.4537
 6487SOL    MW425722   0.179   4.015   6.313  0.7648  0.1069  0.1279
 6488SOL     OW25723   3.434   0.142   5.515  0.2506 -0.1149  0.1426
 6488SOL    HW225724   3.386   0.186   5.585 -1.3840  0.0543 -1.0166
 6488SOL    HW325725   3.399   0.053   5.515  0.7317 -0.3051 -0.0281
 6488SOL    MW425726   3.423   0.136   5.524 -0.1490  0.2915 -0.2558
 6489SOL     OW25727   4.237   5.969   3.585 -0.5554 -0.2745  0.7343
 6489SOL    HW225728   4.142   5.979   3.594 -0.6341  0.2025 -0.4466
 6489SOL    HW325729   4.248   5.885   3.542 -0.6870  1.2194 -2.4704
 6489SOL    MW425730   4.226   5.959   3.581  0.7064  0.4632 -0.3252
 6490SOL     OW25731   2.651   3.416   4.928  0.3761 -0.2188 -0.5203
 6490SOL    HW225732   2.665   3.323   4.942  1.0113  0.0785  0.9791
 6490SOL    HW325733   2.686   3.458   5.006 -3.5205  1.0573  0.7718
 6490SOL    MW425734   2.658   3.410   4.940  0.1888 -0.0216  0.0391
 6491SOL     OW25735   2.910   4.025   0.494  0.1424  0.5698  0.1018
 6491SOL    HW225736   2.940   3.942   0.531  0.1842  1.6456  2.6748
 6491SOL    HW325737   2.990   4.070   0.468  0.0868 -0.4009 -1.9519
 6491SOL    MW425738   2.925   4.020   0.496 -0.3042  0.1025  0.8186
 6492SOL     OW25739   1.570   3.848   2.096 -0.1583 -0.4624  0.0545
 6492SOL    HW225740   1.533   3.784   2.157 -0.5791  0.6280  0.9843
 6492SOL    HW325741   1.504   3.917   2.091  1.0506  0.7629  0.4956
 6492SOL    MW425742   1.556   3.848   2.104 -0.1749  0.0505 -0.3036
 6493SOL     OW25743   4.500   6.409   3.533 -0.0344 -0.0737  0.1963
 6493SOL    HW225744   4.483   6.485   3.477  1.6694  0.6689  0.6288
 6493SOL    HW325745   4.553   6.444   3.605 -0.5351 -1.3893  1.2348
 6493SOL    MW425746   4.505   6.424   3.535 -0.4181 -0.5037 -0.1688
 6494SOL     OW25747   2.826   0.835   1.868 -0.2734  0.4476 -0.4752
 6494SOL    HW225748   2.777   0.767   1.822  1.4881 -0.0592 -1.7421
 6494SOL    HW325749   2.819   0.912   1.812 -1.7647  1.1636  0.6582
 6494SOL    MW425750   2.819   0.836   1.854 -0.1590 -0.2224 -0.0411
 6495SOL     OW25751   1.412   2.949   1.516 -0.4480  0.0649  0.5431
 6495SOL    HW225752   1.366   2.889   1.457  0.4292 -0.8671  0.7847
 6495SOL    HW325753   1.343   2.992   1.565 -1.0801 -1.2277  0.8242
 6495SOL    MW425754   1.397   2.947   1.515  0.1039 -0.2654 -0.1878
 6496SOL     OW25755   3.689   4.015   1.545  0.3147  0.0140 -0.1439
 6496SOL    HW225756   3.667   3.957   1.473  2.9393  0.5747 -1.5233
 6496SOL    HW325757   3.782   3.999   1.562  0.0573  0.6648  2.4434
 6496SOL    MW425758   3.698   4.005   1.538 -0.1049  0.1967  0.2276
 6497SOL     OW25759   4.120   2.787   0.551 -0.6532 -0.1035 -1.0041
 6497SOL    HW225760   4.028   2.762   0.563 -0.3712 -0.0336  2.3070
 6497SOL    HW325761   4.170   2.711   0.580  0.2551  1.0533  0.6362
 6497SOL    MW425762   4.114   2.774   0.556  0.1750  0.7637 -0.3548
 6498SOL     OW25763   1.842   3.291   5.983  0.1935  0.5334  0.0835
 6498SOL    HW225764   1.802   3.377   5.967 -0.4303  0.1758 -0.3109
 6498SOL    HW325765   1.799   3.232   5.921  0.1562 -0.2018  0.7850
 6498SOL    MW425766   1.831   3.295   5.973  0.0299  0.1356 -0.6743
 6499SOL     OW25767   1.243   5.565   4.551 -0.4265  0.8461 -0.1682
 6499SOL    HW225768   1.336   5.566   4.575 -0.3303 -0.8281 -0.3182
 6499SOL    HW325769   1.243   5.584   4.457 -0.1811  0.4480 -0.2545
 6499SOL    MW425770   1.255   5.568   4.541 -0.1881 -0.0978 -0.6380
 6500SOL     OW25771   2.995   4.559   5.647 -0.3631  0.6391 -0.5821
 6500SOL    HW225772   2.960   4.482   5.693  1.4397  1.3222  2.1311
 6500SOL    HW325773   2.922   4.621   5.646 -0.6964  0.2850  0.6128
 6500SOL    MW425774   2.981   4.557   5.653  0.3046 -0.2956 -0.2178
 6501SOL     OW25775   2.440   1.643   1.862 -0.7308 -0.0083 -0.6478
 6501SOL    HW225776   2.411   1.561   1.823  2.7406 -1.6883 -0.1130
 6501SOL    HW325777   2.462   1.619   1.952  0.4310  1.4883 -0.5037
 6501SOL    MW425778   2.439   1.629   1.869 -0.3237  0.2157 -0.0737
 6502SOL     OW25779   5.171   3.974   1.263  0.3790  0.7178 -0.2249
 6502SOL    HW225780   5.152   3.933   1.348 -0.4879  1.5355 -0.0063
 6502SOL    HW325781   5.113   4.051   1.260  0.7076  0.9382 -1.3750
 6502SOL    MW425782   5.161   3.979   1.274 -0.4342  0.2735  0.0486
 6503SOL     OW25783   6.026   3.795   3.566 -0.5476  0.2650 -0.5324
 6503SOL    HW225784   5.943   3.790   3.614 -1.1068 -2.8247 -1.6116
 6503SOL    HW325785   6.010   3.862   3.499 -2.4091 -0.5775 -1.0227
 6503SOL    MW425786   6.013   3.803   3.563 -0.6806  0.4807  0.3600
 6504SOL     OW25787   2.861   2.952  -0.020  0.6594  0.3025 -0.2309
 6504SOL    HW225788   2.773   2.929   0.010  1.5441 -0.6284  1.8738
 6504SOL    HW325789   2.871   3.044   0.006  0.9319 -0.1207  1.3164
 6504SOL    MW425790   2.851   2.961  -0.012  0.2103 -0.1392 -0.0819
 6505SOL     OW25791   2.117   3.733   0.992 -0.2761  0.1012 -0.0970
 6505SOL    HW225792   2.172   3.737   0.914 -0.5892  0.4228 -0.3076
 6505SOL    HW325793   2.114   3.823   1.024  0.6664 -0.1987  0.8737
 6505SOL    MW425794   2.124   3.745   0.986 -0.4347  0.9143 -0.0107
 6506SOL     OW25795   1.427   6.099   4.553  0.6318 -0.3577 -0.3548
 6506SOL    HW225796   1.472   6.136   4.477 -0.4087 -2.1649 -1.9443
 6506SOL    HW325797   1.464   6.011   4.562 -1.3132 -1.2668 -0.6793
 6506SOL    MW425798   1.438   6.092   4.544  0.2564  0.6150  0.2707
 6507SOL     OW25799   0.060   0.804   1.784  0.2596 -0.5236  0.0447
 6507SOL    HW225800   0.018   0.882   1.749  2.9429  0.8780 -0.3810
 6507SOL    HW325801   0.013   0.784   1.864 -0.6098  1.4569  0.0700
 6507SOL    MW425802   0.048   0.811   1.790 -0.3487 -0.6104  0.4822
 6508SOL     OW25803   6.176   2.926   0.387 -0.3517  0.3226  0.2865
 6508SOL    HW225804   6.090   2.968   0.387 -0.7639 -0.4775  0.8874
 6508SOL    HW325805   6.162   2.843   0.342  0.2976  0.5397 -0.3272
 6508SOL    MW425806   6.163   2.920   0.381 -0.0458 -0.3876  0.0530
 6509SOL     OW25807   3.059   4.204   5.819 -0.1012  0.1613  0.1488
 6509SOL    HW225808   3.031   4.129   5.871  1.5440  0.9573  2.3382
 6509SOL    HW325809   2.999   4.274   5.843 -0.9434 -0.1161 -1.0510
 6509SOL    MW425810   3.048   4.203   5.829  0.1611  0.0045  0.1051
 6510SOL     OW25811   0.187   3.050   0.933 -0.6150 -0.4453 -0.2671
 6510SOL    HW225812   0.180   3.105   0.856 -2.8691 -0.9313 -0.4878
 6510SOL    HW325813   0.098   3.015   0.946  0.2114 -2.2133  1.1770
 6510SOL    MW425814   0.174   3.052   0.925 -0.1922 -0.1209 -0.0501
 6511SOL     OW25815   3.863   0.303   4.282 -0.1421 -0.4828 -0.0739
 6511SOL    HW225816   3.947   0.280   4.322 -0.2599 -1.7877 -0.5380
 6511SOL    HW325817   3.877   0.390   4.246  0.4911  0.0132  1.3041
 6511SOL    MW425818   3.876   0.311   4.282 -0.1570  0.6251 -0.3926
 6512SOL     OW25819   5.796   6.411   2.900 -0.1470  0.4257  0.1714
 6512SOL    HW225820   5.807   6.416   2.805  0.2595 -0.1949  0.1775
 6512SOL    HW325821   5.883   6.391   2.934 -0.1779  1.1937  0.7287
 6512SOL    MW425822   5.809   6.409   2.892  0.6090 -0.3213  0.2184
 6513SOL     OW25823   1.652   0.750   1.857 -0.2375 -0.0930 -0.2579
 6513SOL    HW225824   1.614   0.713   1.776  1.8910 -2.9207 -0.1356
 6513SOL    HW325825   1.591   0.819   1.882 -1.7051  0.0264 -3.5448
 6513SOL    MW425826   1.639   0.754   1.849 -0.3083  0.0670  0.1951
 6514SOL     OW25827   3.327   3.840   5.477 -0.1559 -0.1644  0.0676
 6514SOL    HW225828   3.241   3.815   5.444 -1.1146  1.0529  1.5260
 6514SOL    HW325829   3.309   3.899   5.550  1.9248  0.3081  0.2683
 6514SOL    MW425830   3.313   3.844   5.482 -0.5787 -0.1104  0.2288
 6515SOL     OW25831   3.757   2.377   0.244 -0.2617  0.3494 -0.2447
 6515SOL    HW225832   3.844   2.340   0.227 -0.3463  1.4206 -3.8033
 6515SOL    HW325833   3.775   2.461   0.287  0.4623  0.3614 -0.5546
 6515SOL    MW425834   3.771   2.383   0.247  0.3010  0.5205 -0.1124
 6516SOL     OW25835   1.962   1.522  -0.028  0.8390 -0.3760  0.0725
 6516SOL    HW225836   2.027   1.469  -0.073 -0.0350 -2.1773  0.7878
 6516SOL    HW325837   1.878   1.494  -0.065  0.2520 -0.5126  1.4124
 6516SOL    MW425838   1.959   1.511  -0.039  0.2648  0.7058  0.4304
 6517SOL     OW25839   5.234   0.436   4.111  0.3878  0.2796 -0.4096
 6517SOL    HW225840   5.317   0.477   4.084  0.3207  1.0503  0.5179
 6517SOL    HW325841   5.222   0.364   4.049  1.4571  0.5210 -0.9208
 6517SOL    MW425842   5.244   0.432   4.099 -0.1436  0.1054 -0.1112
 6518SOL     OW25843   1.233   2.958   4.641 -0.0145 -0.1401  0.5498
 6518SOL    HW225844   1.213   3.052   4.642  0.5655 -0.0078  0.0365
 6518SOL    HW325845   1.175   2.921   4.708  0.6301  0.7553  1.6253
 6518SOL    MW425846   1.222   2.966   4.650 -0.3336 -0.5940 -0.0895
 6519SOL     OW25847   1.195   2.248   3.870  0.7291  0.1136  0.1437
 6519SOL    HW225848   1.211   2.155   3.856  0.3447  0.0664 -0.0177
 6519SOL    HW325849   1.106   2.261   3.837  0.2835  0.2712  1.3780
 6519SOL    MW425850   1.185   2.237   3.864  0.0938  0.6632  0.4412
 6520SOL     OW25851   0.594   0.569   1.661 -0.2577  0.4654  0.0899
 6520SOL    HW225852   0.617   0.658   1.686 -1.4290  0.9594 -0.5074
 6520SOL    HW325853   0.537   0.538   1.732 -0.5802  0.5246 -0.1408
 6520SOL    MW425854   0.589   0.577   1.674  0.0562  0.6090 -0.2031
 6521SOL     OW25855   4.764   0.481   2.784 -0.1242 -0.4979 -0.1995
 6521SOL    HW225856   4.814   0.556   2.752 -0.3609  0.6721  1.9890
 6521SOL    HW325857   4.675   0.516   2.796  0.0210 -0.7353  1.9466
 6521SOL    MW425858   4.759   0.496   2.781  0.8777 -1.0273  0.1746
 6522SOL     OW25859   5.362   5.166   5.802 -0.2572 -0.1658 -0.3846
 6522SOL    HW225860   5.330   5.252   5.830 -0.1881  0.1256 -1.1565
 6522SOL    HW325861   5.457   5.176   5.796 -0.3905  0.3023 -2.3189
 6522SOL    MW425862   5.370   5.179   5.805 -0.4808 -0.0179 -0.1610
 6523SOL     OW25863   4.909   4.218   5.520  0.2965 -0.4569 -0.0244
 6523SOL    HW225864   4.852   4.265   5.581 -1.0184 -0.0996 -1.4400
 6523SOL    HW325865   4.997   4.229   5.555 -0.1735  1.5575  0.6498
 6523SOL    MW425866   4.913   4.226   5.532 -0.0467 -0.0287  0.1384
 6524SOL     OW25867   3.784   2.704   1.366 -0.0389 -0.1446  0.0045
 6524SOL    HW225868   3.828   2.755   1.433  0.6756 -0.7900  0.0412
 6524SOL    HW325869   3.733   2.768   1.316 -1.3033  0.2432  1.6834
 6524SOL    MW425870   3.783   2.719   1.368  0.5073  0.0658 -0.0895
 6525SOL     OW25871   1.888   0.231   3.106 -0.3623 -0.1725 -0.2898
 6525SOL    HW225872   1.843   0.148   3.093  0.4056 -0.5899 -0.3697
 6525SOL    HW325873   1.928   0.223   3.193 -0.1802  0.0612 -0.3502
 6525SOL    MW425874   1.887   0.219   3.116 -0.6856  0.5078  0.3435
 6526SOL     OW25875   4.433   0.189   3.357  0.6531 -0.3543  0.2409
 6526SOL    HW225876   4.456   0.282   3.347 -0.6666 -0.1621 -1.3487
 6526SOL    HW325877   4.338   0.188   3.361  0.6911 -1.5820  1.2431
 6526SOL    MW425878   4.424   0.202   3.356  0.0044 -0.0118 -0.3215
 6527SOL     OW25879   0.254   5.461   6.022 -0.5077  0.2753 -0.2755
 6527SOL    HW225880   0.266   5.543   6.069  1.4222  0.0090 -0.2289
 6527SOL    HW325881   0.197   5.409   6.080  1.2168  0.2203  1.4722
 6527SOL    MW425882   0.248   5.465   6.036  0.7427 -0.1356 -0.1250
 6528SOL     OW25883   4.413   5.946   2.370  0.4145 -0.2855  0.1284
 6528SOL    HW225884   4.429   5.856   2.343 -0.8644 -0.9062  1.2996
 6528SOL    HW325885   4.353   5.938   2.444  0.2949  1.5343  0.2661
 6528SOL    MW425886   4.407   5.933   2.376  0.1622  0.1415  0.2381
 6529SOL     OW25887   2.553   4.354   1.917 -0.4162 -0.1205 -0.1019
 6529SOL    HW225888   2.599   4.271   1.915 -1.2595 -0.5853 -1.4862
 6529SOL    HW325889   2.621   4.420   1.900 -0.0818 -0.7033 -1.0772
 6529SOL    MW425890   2.568   4.352   1.915  0.1236  0.4639 -0.1830
 6530SOL     OW25891   1.632   4.182   1.867 -0.5478  0.4648  0.5351
 6530SOL    HW225892   1.601   4.092   1.855 -0.2946  0.5329 -0.8121
 6530SOL    HW325893   1.606   4.205   1.956  3.0168 -2.4197  2.5939
 6530SOL    MW425894   1.625   4.173   1.877  0.3084  0.0969  0.3706
 6531SOL     OW25895   3.801   1.174   0.429  0.8294 -0.3593  0.3253
 6531SOL    HW225896   3.884   1.218   0.448  1.5365 -1.6158  0.2504
 6531SOL    HW325897   3.808   1.147   0.338  0.2576 -0.3274  0.2673
 6531SOL    MW425898   3.813   1.176   0.420  0.2295  0.1042  0.1540
 6532SOL     OW25899   6.007   2.902   1.383 -0.4473 -0.6160  0.2360
 6532SOL    HW225900   5.972   2.956   1.454  0.9747  1.3806 -0.4744
 6532SOL    HW325901   6.043   2.825   1.428  1.9490  1.3569  2.0390
 6532SOL    MW425902   6.007   2.899   1.398 -0.6821 -0.4762 -0.5246
 6533SOL     OW25903   4.743   5.301   0.411 -0.4001 -0.2857  0.1430
 6533SOL    HW225904   4.771   5.231   0.353  0.0552  0.7545 -0.9337
 6533SOL    HW325905   4.799   5.376   0.388 -1.8624  0.8852  0.1876
 6533SOL    MW425906   4.754   5.302   0.401 -0.5068  0.3603  0.4953
 6534SOL     OW25907   1.100   5.465   3.608  0.1902  0.3655  0.3974
 6534SOL    HW225908   1.100   5.542   3.551 -2.8140  1.2091  1.3236
 6534SOL    HW325909   1.094   5.391   3.548  1.3255  0.9374 -0.4588
 6534SOL    MW425910   1.099   5.465   3.592  0.2153  0.3439 -1.0121
 6535SOL     OW25911   1.055   2.089   4.544  0.0391 -0.2030  0.0972
 6535SOL    HW225912   1.150   2.103   4.546 -0.1599  1.3804 -0.3595
 6535SOL    HW325913   1.039   2.049   4.458  0.0864  1.5144 -0.7578
 6535SOL    MW425914   1.066   2.085   4.533  0.3313 -0.4267  0.2622
 6536SOL     OW25915   0.997   1.081   1.205 -0.7028 -0.1878  0.6350
 6536SOL    HW225916   1.015   1.148   1.271 -0.5919  0.0354  0.3803
 6536SOL    HW325917   0.913   1.107   1.166 -1.4144 -1.0190  1.5616
 6536SOL    MW425918   0.988   1.093   1.208  0.4598  0.2144 -0.1217
 6537SOL     OW25919   5.189   6.253   3.294  0.1790 -0.6264  0.0992
 6537SOL    HW225920   5.202   6.347   3.282 -0.8427 -0.3950  0.6428
 6537SOL    HW325921   5.163   6.220   3.208  1.0131 -0.5058 -0.2045
 6537SOL    MW425922   5.187   6.261   3.281  0.0838  0.4173  0.6453
 6538SOL     OW25923   0.649   3.259   3.931 -0.4448 -0.0026 -0.2054
 6538SOL    HW225924   0.715   3.205   3.888 -0.6616  0.0921 -0.6579
 6538SOL    HW325925   0.669   3.251   4.025 -1.2373 -1.8662 -0.1612
 6538SOL    MW425926   0.660   3.251   3.938 -0.1437  0.4588  0.0784
 6539SOL     OW25927   3.818   2.102   1.987 -0.0602 -0.3250  0.3988
 6539SOL    HW225928   3.844   2.055   2.066  0.5414  1.4003  1.2850
 6539SOL    HW325929   3.752   2.164   2.016 -1.4155 -1.0939 -0.8919
 6539SOL    MW425930   3.813   2.104   2.001  0.1465  0.0062 -0.2260
 6540SOL     OW25931   3.389   2.125   0.705 -0.1700  0.4352 -0.2332
 6540SOL    HW225932   3.404   2.063   0.634 -0.9208 -1.0143  0.8220
 6540SOL    HW325933   3.462   2.186   0.699  1.3527 -1.3197 -0.5261
 6540SOL    MW425934   3.401   2.125   0.695  0.0143 -0.2101 -0.2172
 6541SOL     OW25935   0.764   2.681   1.959  0.0227 -0.3577 -0.1932
 6541SOL    HW225936   0.834   2.721   1.908 -0.1660 -0.6961 -0.7221
 6541SOL    HW325937   0.719   2.755   2.000  1.4219 -0.1907  1.1508
 6541SOL    MW425938   0.767   2.696   1.958  0.7693  0.1872  0.3948
 6542SOL     OW25939   2.978   5.067   4.021  0.0943 -0.2006  0.8283
 6542SOL    HW225940   3.061   5.037   3.985 -0.5830 -0.3717 -0.6929
 6542SOL    HW325941   2.955   5.003   4.088  1.0079 -0.3494  1.0004
 6542SOL    MW425942   2.986   5.054   4.025  0.1589 -1.0043 -0.6414
 6543SOL     OW25943   2.866   4.838   1.063 -0.7976 -0.0892  0.5692
 6543SOL    HW225944   2.910   4.814   1.145 -0.9798 -1.7953  0.2018
 6543SOL    HW325945   2.803   4.905   1.089  2.1660  2.8299  1.0558
 6543SOL    MW425946   2.864   4.844   1.077 -0.1382  0.9346  0.3972
 6544SOL     OW25947   0.330   2.476   0.001 -0.0516  0.3917  0.2220
 6544SOL    HW225948   0.416   2.446  -0.027 -0.2325  0.1117 -0.0398
 6544SOL    HW325949   0.272   2.402  -0.019 -0.3515  0.5842  0.3868
 6544SOL    MW425950   0.334   2.462  -0.005 -0.2501 -0.0265  0.4256
 6545SOL     OW25951   1.768   1.692   5.672 -0.0956 -0.5575  1.3051
 6545SOL    HW225952   1.834   1.672   5.606 -0.6145  2.1426 -0.2021
 6545SOL    HW325953   1.816   1.740   5.740 -0.4202  1.4124  0.2056
 6545SOL    MW425954   1.783   1.696   5.672  0.1808  0.0886  0.2067
 6546SOL     OW25955   4.544   5.120   2.375 -0.0118 -0.4443 -0.4449
 6546SOL    HW225956   4.521   5.101   2.284  0.0028  2.2241 -1.0785
 6546SOL    HW325957   4.603   5.195   2.370 -0.9413  0.5323  1.7999
 6546SOL    MW425958   4.549   5.127   2.362  0.2455  0.1056 -0.7740
 6547SOL     OW25959   1.553   3.233   3.900 -0.3184  0.7186  0.5983
 6547SOL    HW225960   1.606   3.235   3.979 -1.0163  2.3630  1.0802
 6547SOL    HW325961   1.467   3.204   3.929 -0.5935  1.3806  0.4733
 6547SOL    MW425962   1.548   3.230   3.914  0.0779 -0.4512  0.1491
 6548SOL     OW25963   1.721   2.549   0.244 -0.1076 -0.5143 -0.0465
 6548SOL    HW225964   1.809   2.539   0.280  0.2272 -0.4681 -0.8244
 6548SOL    HW325965   1.674   2.470   0.271 -0.2134  0.0249  1.4200
 6548SOL    MW425966   1.726   2.538   0.252  0.6026  0.0328 -0.1663
 6549SOL     OW25967   0.251   6.387   3.633 -0.3858 -0.2299 -0.7558
 6549SOL    HW225968   0.179   6.333   3.600  0.3671 -1.3573 -0.6036
 6549SOL    HW325969   0.230   6.400   3.725 -0.6735 -0.0851 -0.8389
 6549SOL    MW425970   0.239   6.381   3.640  0.0783 -0.6150 -0.4093
 6550SOL     OW25971   1.664   2.765   2.819  0.0869  0.0998 -0.2026
 6550SOL    HW225972   1.738   2.716   2.784  0.6217 -0.2902  1.3817
 6550SOL    HW325973   1.685   2.857   2.803  1.3964  0.0494  1.0621
 6550SOL    MW425974   1.676   2.770   2.812 -0.1852  0.0262  0.3371
 6551SOL     OW25975   4.032   5.385   0.573 -0.3630 -0.3124  0.1573
 6551SOL    HW225976   4.117   5.385   0.617  0.2155 -2.4362 -0.8191
 6551SOL    HW325977   3.982   5.454   0.617  2.4446  2.3451 -0.4791
 6551SOL    MW425978   4.036   5.394   0.585 -0.3577  0.3025  0.3173
 6552SOL     OW25979   5.741   4.559   2.605  0.3003  0.3690 -0.3335
 6552SOL    HW225980   5.661   4.569   2.554  0.0873 -1.5485 -0.4510
 6552SOL    HW325981   5.809   4.601   2.551 -0.5013  1.5560 -0.4675
 6552SOL    MW425982   5.740   4.566   2.591 -0.6246 -0.0796  0.4453
 6553SOL     OW25983   1.979   3.845   3.320  0.4606 -0.3366 -0.2909
 6553SOL    HW225984   1.930   3.884   3.247  1.1035 -0.8503 -1.0161
 6553SOL    HW325985   1.942   3.887   3.398 -0.9714 -0.5363 -0.8160
 6553SOL    MW425986   1.967   3.856   3.320 -0.1892 -0.4683  0.3610
 6554SOL     OW25987   1.544   2.571   3.680  0.2564  0.0873 -0.0146
 6554SOL    HW225988   1.503   2.485   3.690 -0.6824  0.4197 -0.8597
 6554SOL    HW325989   1.637   2.555   3.698 -0.0355 -0.9232  0.7155
 6554SOL    MW425990   1.551   2.557   3.684  0.0079  0.6636  0.2895
 6555SOL     OW25991   5.965   0.170   1.907 -0.1781  0.1019  0.1267
 6555SOL    HW225992   6.056   0.199   1.906  0.0996 -0.2011  3.4074
 6555SOL    HW325993   5.967   0.087   1.955 -2.3434  1.2164  2.3947
 6555SOL    MW425994   5.977   0.163   1.913  0.1864  0.4473  0.4012
 6556SOL     OW25995   3.154   6.106   0.599  0.0621 -0.0355  0.0259
 6556SOL    HW225996   3.091   6.101   0.671  1.0046 -2.2577  0.7652
 6556SOL    HW325997   3.105   6.073   0.523 -0.7287  1.7042 -0.2874
 6556SOL    MW425998   3.139   6.101   0.598 -0.2675 -0.8637  0.0996
 6557SOL     OW25999   3.707   4.016   0.116  0.1300 -0.1342  0.3638
 6557SOL    HW226000   3.789   3.971   0.136  1.2968  1.8246  0.2441
 6557SOL    HW326001   3.700   4.012   0.021 -0.4954 -1.2281  0.4425
 6557SOL    MW426002   3.717   4.010   0.106  0.3427  0.3603 -0.4138
 6558SOL     OW26003   3.474   5.672   5.683 -0.0022 -0.4807 -0.1384
 6558SOL    HW226004   3.392   5.714   5.656  0.1296 -0.0879  0.0614
 6558SOL    HW326005   3.447   5.589   5.721 -0.3490 -0.1531  0.3384
 6558SOL    MW426006   3.460   5.667   5.684  0.2327  0.1367 -0.5842
 6559SOL     OW26007   4.420   4.275   1.094  0.6312  0.4042 -0.0716
 6559SOL    HW226008   4.329   4.305   1.092  0.2072 -0.8192 -2.1579
 6559SOL    HW326009   4.460   4.324   1.166 -0.8033  3.4478 -1.1895
 6559SOL    MW426010   4.413   4.286   1.103  0.3665  0.1511 -0.8199
 6560SOL     OW26011   1.362   6.385   4.611 -0.4293  0.1787  0.1239
 6560SOL    HW226012   1.289   6.399   4.672 -1.9162  0.1598 -1.5415
 6560SOL    HW326013   1.365   6.290   4.599 -0.1051  0.1768  0.2359
 6560SOL    MW426014   1.353   6.375   4.617  0.4963 -0.0616 -0.4350
 6561SOL     OW26015   6.105   1.918   2.944 -0.1367  0.2928 -0.7852
 6561SOL    HW226016   6.043   1.969   2.996 -0.7824  1.0406 -2.2057
 6561SOL    HW326017   6.050   1.857   2.894  0.1480  1.4311 -2.5818
 6561SOL    MW426018   6.090   1.916   2.944 -0.2342  0.1880  0.3734
 6562SOL     OW26019   4.550   0.357   1.367  0.0684 -0.7326  0.2007
 6562SOL    HW226020   4.536   0.320   1.453 -1.2749 -0.3962  0.1402
 6562SOL    HW326021   4.531   0.450   1.377  0.2272 -0.6299 -0.3881
 6562SOL    MW426022   4.546   0.365   1.379 -0.9407 -0.0845 -0.0823
 6563SOL     OW26023   3.767   1.995   5.295  0.4596 -0.8218  0.1675
 6563SOL    HW226024   3.805   1.928   5.352  0.7453 -0.3024  0.5965
 6563SOL    HW326025   3.786   2.077   5.340 -1.3861 -0.5572  0.5140
 6563SOL    MW426026   3.775   1.997   5.309 -0.3031  0.2252 -0.0399
 6564SOL     OW26027   0.288   3.556   3.397  0.2693  0.2067 -0.1386
 6564SOL    HW226028   0.372   3.602   3.406  0.0373  1.3173 -2.8755
 6564SOL    HW326029   0.234   3.614   3.345 -1.1578 -1.8091 -1.0202
 6564SOL    MW426030   0.292   3.569   3.391  0.4465 -0.0137 -0.5199
 6565SOL     OW26031   3.174   5.653   1.775 -0.3055  0.2122 -0.0392
 6565SOL    HW226032   3.105   5.644   1.840 -0.6518 -0.1614 -0.4468
 6565SOL    HW326033   3.149   5.592   1.705  0.9405 -0.6660  0.2370
 6565SOL    MW426034   3.162   5.644   1.774 -0.0213 -0.0288  0.4793
 6566SOL     OW26035   0.809   2.725   4.798 -0.9848  0.1284 -0.2438
 6566SOL    HW226036   0.740   2.671   4.837 -0.6550  0.5395  0.9441
 6566SOL    HW326037   0.766   2.772   4.727 -1.2677 -1.7356 -1.3835
 6566SOL    MW426038   0.795   2.724   4.794  0.1640 -0.2548 -0.3573
 6567SOL     OW26039   0.305   6.106   5.663 -0.1203 -0.0349 -0.1187
 6567SOL    HW226040   0.380   6.050   5.642 -0.0306  0.0060  0.0919
 6567SOL    HW326041   0.277   6.141   5.579  0.7347  0.7650 -0.1002
 6567SOL    MW426042   0.311   6.103   5.649  0.0209  0.0452 -0.1229
 6568SOL     OW26043   3.866   0.206   0.766 -0.2919 -0.1261 -0.2098
 6568SOL    HW226044   3.803   0.278   0.768 -1.5382 -1.1966  0.3774
 6568SOL    HW326045   3.868   0.173   0.856  1.4345  0.1254 -0.1115
 6568SOL    MW426046   3.858   0.211   0.778 -0.8719 -0.8434 -0.0021
 6569SOL     OW26047   6.347   5.035   5.017  0.2623  0.2287  0.0634
 6569SOL    HW226048   6.369   5.002   4.930 -0.1028  0.8337 -0.2638
 6569SOL    HW326049   6.268   5.088   5.004  0.5163  0.7733  0.6648
 6569SOL    MW426050   6.339   5.038   5.004  0.3747  0.1929 -0.6946
 6570SOL     OW26051   3.683   0.985   3.894 -0.3963 -0.0778  0.1770
 6570SOL    HW226052   3.662   1.031   3.813  0.1729 -1.2281 -0.6543
 6570SOL    HW326053   3.598   0.962   3.931 -0.6821 -1.2785 -1.1380
 6570SOL    MW426054   3.669   0.988   3.888  0.0643  0.2532  0.2618
 6571SOL     OW26055   2.024   2.806   3.801  0.1129  0.1398 -0.2229
 6571SOL    HW226056   1.960   2.863   3.759 -1.4546 -0.4237  1.2887
 6571SOL    HW326057   2.080   2.865   3.852  1.0399  0.6631 -1.7932
 6571SOL    MW426058   2.023   2.821   3.802 -0.2790  0.3289 -0.0956
 6572SOL     OW26059   4.859   2.596   3.106  0.6075 -0.0329 -0.2729
 6572SOL    HW226060   4.803   2.644   3.045  0.9924 -0.6038 -1.1084
 6572SOL    HW326061   4.846   2.504   3.083  1.1375 -0.2267  0.1829
 6572SOL    MW426062   4.850   2.591   3.095 -0.3667 -0.0521  0.3336
 6573SOL     OW26063   4.673   1.680   6.267 -0.5616  0.1306  0.2911
 6573SOL    HW226064   4.694   1.588   6.249  0.5147  0.1101  1.4747
 6573SOL    HW326065   4.756   1.718   6.296 -1.1696  1.2745  0.5870
 6573SOL    MW426066   4.687   1.673   6.268 -0.1374 -0.3010 -0.3439
 6574SOL     OW26067   6.220   3.848   2.156 -0.3227 -0.6926  0.0538
 6574SOL    HW226068   6.201   3.886   2.242  0.2540 -0.8330  0.2471
 6574SOL    HW326069   6.134   3.832   2.117 -0.6768 -2.9145  1.5945
 6574SOL    MW426070   6.206   3.851   2.162 -0.1383 -0.3538 -0.6940
 6575SOL     OW26071   5.571   3.662   0.821 -0.6087  0.2441  0.3448
 6575SOL    HW226072   5.571   3.618   0.736  1.6154  1.0722 -0.1650
 6575SOL    HW326073   5.549   3.753   0.801  1.6320  0.8479  0.3139
 6575SOL    MW426074   5.568   3.668   0.807 -0.1049  0.3411  0.2071
 6576SOL     OW26075   0.721   5.027   4.614 -0.3916  0.3671  0.1221
 6576SOL    HW226076   0.734   4.947   4.564  1.6902  1.3592 -1.0786
 6576SOL    HW326077   0.658   5.078   4.563  0.0514  0.4574 -0.3393
 6576SOL    MW426078   0.715   5.023   4.601 -0.5527  0.1853  0.1647
 6577SOL     OW26079   2.749   3.398   3.282 -0.7630 -0.5314 -0.4449
 6577SOL    HW226080   2.671   3.369   3.235 -0.5295  0.0410 -1.2120
 6577SOL    HW326081   2.815   3.331   3.262 -1.5467 -2.1034  1.8064
 6577SOL    MW426082   2.747   3.385   3.273 -0.4921  0.1835 -0.4333
 6578SOL     OW26083   4.114   1.735   2.263 -0.2789  0.5283  0.8287
 6578SOL    HW226084   4.207   1.753   2.249 -0.5113  0.0383 -1.9438
 6578SOL    HW326085   4.111   1.645   2.297  0.2363 -1.4313 -3.6483
 6578SOL    MW426086   4.126   1.725   2.266  0.6043  0.3630 -0.0341
 6579SOL     OW26087   5.187   2.637   3.851 -0.1394 -0.1157  0.0108
 6579SOL    HW226088   5.129   2.652   3.777 -0.8418 -0.8330  0.3992
 6579SOL    HW326089   5.275   2.643   3.814 -0.4785 -0.7867 -0.9526
 6579SOL    MW426090   5.191   2.640   3.836 -0.0480 -0.1088 -0.0181
 6580SOL     OW26091   1.927   2.909   2.319  0.0685  0.2320  0.0705
 6580SOL    HW226092   2.018   2.896   2.294  0.7163  1.4530  1.6225
 6580SOL    HW326093   1.883   2.827   2.295  1.8187 -0.8586  0.4328
 6580SOL    MW426094   1.933   2.897   2.312  0.3759  0.2048 -0.4883
 6581SOL     OW26095   0.633   3.739   2.422  0.1955  0.1517 -0.3330
 6581SOL    HW226096   0.686   3.670   2.384  0.9787  0.2785  0.4911
 6581SOL    HW326097   0.549   3.735   2.375  1.3480  0.7979 -2.5734
 6581SOL    MW426098   0.629   3.730   2.411  0.2547  0.6860  0.3471
 6582SOL     OW26099   1.590   3.238   0.650  0.1293 -0.4099 -0.2732
 6582SOL    HW226100   1.616   3.313   0.597 -0.3812 -1.6733 -2.4358
 6582SOL    HW326101   1.500   3.258   0.678  0.0883 -0.1004 -0.6205
 6582SOL    MW426102   1.581   3.250   0.647 -0.0686 -0.2327 -0.1872
 6583SOL     OW26103   0.844   0.709   3.184  0.4379 -0.7280 -0.6758
 6583SOL    HW226104   0.812   0.627   3.221 -2.3256  1.0712  1.2474
 6583SOL    HW326105   0.876   0.758   3.259  0.1847  0.7557 -1.5024
 6583SOL    MW426106   0.844   0.704   3.199 -0.1607 -0.0014  0.4459
 6584SOL     OW26107   2.717   2.068   2.668 -0.0068  0.3802 -0.2319
 6584SOL    HW226108   2.665   1.990   2.686  0.2986  0.4051  0.8305
 6584SOL    HW326109   2.783   2.038   2.605 -1.2714  0.3499 -1.5803
 6584SOL    MW426110   2.719   2.054   2.662 -0.1041  0.1956  0.3537
 6585SOL     OW26111   6.044   0.738   1.725  0.3598  0.4967 -0.0811
 6585SOL    HW226112   5.956   0.706   1.706  0.3869  0.4125 -0.0656
 6585SOL    HW326113   6.069   0.692   1.805  0.3391  0.6714  0.0280
 6585SOL    MW426114   6.036   0.728   1.733  0.1379 -0.4693 -0.2794
 6586SOL     OW26115   0.634   1.565   6.313 -0.1394  0.0986 -0.2314
 6586SOL    HW226116   0.587   1.646   6.291  0.7787  0.4539 -0.9548
 6586SOL    HW326117   0.726   1.584   6.292  0.4502 -0.3636  1.7367
 6586SOL    MW426118   0.640   1.578   6.307  0.1089  0.4778  0.5418
 6587SOL     OW26119   2.155   4.043   5.224  0.1989 -0.0501  0.0356
 6587SOL    HW226120   2.108   4.089   5.155  2.0202  1.9238  0.0162
 6587SOL    HW326121   2.242   4.027   5.188  0.3910 -1.2920  0.9795
 6587SOL    MW426122   2.160   4.047   5.210 -0.1014  0.2577 -0.1068
 6588SOL     OW26123   4.778   1.550   0.139 -0.3326 -0.2494  0.2370
 6588SOL    HW226124   4.839   1.594   0.080  0.0529  0.1953  0.9533
 6588SOL    HW326125   4.807   1.458   0.139 -0.5290 -0.3154 -0.4963
 6588SOL    MW426126   4.790   1.544   0.132 -0.1721  0.5252 -0.0289
 6589SOL     OW26127   5.850   5.844   3.715  0.1221  0.1036 -0.5768
 6589SOL    HW226128   5.937   5.806   3.728  0.3439  1.3231  2.3673
 6589SOL    HW326129   5.820   5.809   3.631  2.4498 -2.2353 -0.5474
 6589SOL    MW426130   5.857   5.834   3.705 -0.2313  0.0263 -0.7097
 6590SOL     OW26131   2.581   5.281   3.252 -0.8410  0.4026  0.0771
 6590SOL    HW226132   2.618   5.354   3.203 -1.0211  0.0031 -0.6759
 6590SOL    HW326133   2.488   5.301   3.258 -1.3752 -0.8898 -2.2962
 6590SOL    MW426134   2.573   5.293   3.246 -0.2878  0.0331 -0.1489
 6591SOL     OW26135   2.307   0.097   3.870  0.3884  0.1677 -0.1235
 6591SOL    HW226136   2.298   0.145   3.953  0.3549  0.4708 -0.3009
 6591SOL    HW326137   2.399   0.070   3.868  0.2069 -0.5175  0.3777
 6591SOL    MW426138   2.318   0.100   3.881 -0.3253 -0.3892  0.2332
 6592SOL     OW26139   4.492   4.357   4.588 -0.0794 -0.3893 -0.2474
 6592SOL    HW226140   4.579   4.318   4.586 -0.5266 -1.4150 -0.0440
 6592SOL    HW326141   4.432   4.283   4.602 -0.8076  0.5718  2.3877
 6592SOL    MW426142   4.495   4.342   4.590  0.3706  0.2192 -0.6129
 6593SOL     OW26143   5.857   0.756   2.979  0.3204  0.8097 -0.1632
 6593SOL    HW226144   5.893   0.755   2.890 -1.0162 -0.2955 -0.7184
 6593SOL    HW326145   5.788   0.690   2.978  1.3001 -0.3468  2.1532
 6593SOL    MW426146   5.853   0.747   2.967  0.1585  0.8978 -0.1701
 6594SOL     OW26147   4.283   2.668   6.017 -0.3822 -0.0351 -0.5079
 6594SOL    HW226148   4.234   2.683   5.936 -2.3000 -1.2481  0.3421
 6594SOL    HW326149   4.215   2.663   6.085  1.0679 -0.3793  0.9771
 6594SOL    MW426150   4.267   2.670   6.015 -0.6063  0.3881  0.2539
 6595SOL     OW26151   5.157   1.777   2.337  0.0824  0.3915  0.3671
 6595SOL    HW226152   5.061   1.772   2.331  0.1217  0.4243 -0.3196
 6595SOL    HW326153   5.177   1.740   2.423 -0.5290  0.1298  0.4036
 6595SOL    MW426154   5.147   1.771   2.348 -0.1850  0.1008  0.0273
 6596SOL     OW26155   0.412   5.192   6.004 -0.2543  0.2816 -0.2249
 6596SOL    HW226156   0.387   5.161   5.916  0.0500 -1.3907  0.2450
 6596SOL    HW326157   0.379   5.282   6.007 -1.8010 -0.1800 -1.4372
 6596SOL    MW426158   0.404   5.200   5.993  0.0011  0.3204 -0.0539
 6597SOL     OW26159   2.995   2.104   2.152  0.1112 -0.4192  0.5743
 6597SOL    HW226160   3.054   2.030   2.133 -0.6525 -0.7215 -0.7415
 6597SOL    HW326161   3.053   2.174   2.181  1.3528 -0.2328 -2.0809
 6597SOL    MW426162   3.011   2.103   2.153  0.5724 -0.3370  0.0785
 6598SOL     OW26163   4.892   1.139   2.069  0.4051 -0.0345 -0.3650
 6598SOL    HW226164   4.909   1.218   2.018  1.3189 -0.3681 -0.6104
 6598SOL    HW326165   4.943   1.150   2.149 -1.7160  0.8867  0.9520
 6598SOL    MW426166   4.901   1.151   2.073 -0.3378 -0.0517 -0.1148
 6599SOL     OW26167   5.304   4.929   2.697 -0.1031  0.2514 -0.2682
 6599SOL    HW226168   5.301   5.019   2.730  0.3718 -0.1795  1.0343
 6599SOL    HW326169   5.247   4.880   2.756 -1.4267 -0.0896 -1.7814
 6599SOL    MW426170   5.296   4.934   2.709  0.7802 -0.1383  0.2769
 6600SOL     OW26171   0.635   1.778   5.968 -0.2322 -0.0766 -0.1407
 6600SOL    HW226172   0.681   1.827   6.037 -0.7610  1.7606 -1.0101
 6600SOL    HW326173   0.705   1.731   5.922  0.5550  1.1293 -0.2361
 6600SOL    MW426174   0.651   1.779   5.971  0.5860  0.0103  0.3173
 6601SOL     OW26175   2.728   5.928   2.193 -0.0218  0.1936  0.5562
 6601SOL    HW226176   2.697   5.909   2.281 -0.1632  1.3283  0.7609
 6601SOL    HW326177   2.715   6.022   2.182  1.4274  0.3478 -0.1095
 6601SOL    MW426178   2.723   5.938   2.203 -0.2330  0.0723  0.0314
 6602SOL     OW26179   2.745   0.748   4.964 -0.4390 -0.0936  0.2744
 6602SOL    HW226180   2.685   0.806   4.918 -0.0673  1.6174  1.8209
 6602SOL    HW326181   2.788   0.697   4.895 -1.7171  0.5523 -1.0361
 6602SOL    MW426182   2.743   0.749   4.949 -0.0709 -0.2098  0.2371
 6603SOL     OW26183   0.056   4.585   5.246  0.2899  0.2033 -0.6196
 6603SOL    HW226184  -0.001   4.548   5.314  0.8510 -1.2529 -0.9052
 6603SOL    HW326185   0.008   4.660   5.212 -0.5091  0.2661  0.5994
 6603SOL    MW426186   0.042   4.590   5.251 -0.1006  0.2018  0.0922
 6604SOL     OW26187   0.141   0.961   1.141 -0.1529 -0.0356  0.4174
 6604SOL    HW226188   0.134   0.868   1.120 -0.6967  0.2370 -0.7153
 6604SOL    HW326189   0.208   0.995   1.081  0.4135  0.2085  1.1780
 6604SOL    MW426190   0.149   0.953   1.130 -0.3241 -0.3057 -0.3953
 6605SOL     OW26191   1.737   5.839   5.850  0.0782 -0.1136  0.0568
 6605SOL    HW226192   1.784   5.802   5.925  0.5369 -0.9412 -0.6178
 6605SOL    HW326193   1.690   5.764   5.813  0.9386 -0.0354 -1.2776
 6605SOL    MW426194   1.737   5.824   5.855 -0.4277 -0.3412  0.8530
 6606SOL     OW26195   4.237   1.302   5.819 -0.4954  0.0531  0.1325
 6606SOL    HW226196   4.329   1.280   5.838  0.1090  0.8586 -1.6927
 6606SOL    HW326197   4.189   1.223   5.842  0.7241 -0.6162  0.5031
 6606SOL    MW426198   4.243   1.289   5.825 -0.3139  0.3065 -0.0177
 6607SOL     OW26199   0.478   1.348   1.476  0.1044  0.6958 -0.0871
 6607SOL    HW226200   0.552   1.310   1.524  0.9072  2.7895  0.4548
 6607SOL    HW326201   0.422   1.385   1.544 -1.8438 -1.3492 -0.4495
 6607SOL    MW426202   0.480   1.348   1.491 -0.4661 -0.2885  0.0051
 6608SOL     OW26203   6.104   5.480   5.847 -0.0082 -0.0774 -0.0900
 6608SOL    HW226204   6.144   5.519   5.769 -0.4392  3.7645  1.3901
 6608SOL    HW326205   6.159   5.511   5.919 -1.1661 -1.2579  1.3449
 6608SOL    MW426206   6.117   5.489   5.846 -0.6617 -0.0064 -0.3834
 6609SOL     OW26207   4.792   4.274   1.284  0.0595 -0.3709 -0.2032
 6609SOL    HW226208   4.781   4.195   1.336 -0.5607 -1.3349 -1.7158
 6609SOL    HW326209   4.874   4.261   1.236 -0.2162 -0.2638 -0.7137
 6609SOL    MW426210   4.801   4.262   1.285  0.1572 -0.1303  0.3062
 6610SOL     OW26211   5.329   5.631   0.701  0.8413  0.3071  0.2839
 6610SOL    HW226212   5.249   5.646   0.752  0.9334 -0.3156  0.6269
 6610SOL    HW326213   5.368   5.553   0.740  0.6404 -0.5090 -1.0984
 6610SOL    MW426214   5.324   5.623   0.713  0.1012  0.3187  0.2047
 6611SOL     OW26215   3.623   2.328   5.580 -0.1583 -0.4238  0.2048
 6611SOL    HW226216   3.665   2.361   5.659  1.2996  1.3050 -1.2076
 6611SOL    HW326217   3.630   2.233   5.586  1.3828 -0.2606  1.3958
 6611SOL    MW426218   3.629   2.320   5.591  0.1686 -0.1545 -0.1437
 6612SOL     OW26219   3.953   1.124   3.883 -0.7005  0.2310  0.0975
 6612SOL    HW226220   4.013   1.192   3.912 -1.9074  1.2588  0.2782
 6612SOL    HW326221   3.887   1.119   3.952 -1.5985  0.1510 -0.7429
 6612SOL    MW426222   3.952   1.133   3.896 -0.2510 -0.0928 -0.1083
 6613SOL     OW26223   3.106   4.898   1.778  0.0770  0.4490  0.4785
 6613SOL    HW226224   3.054   4.948   1.715  1.3983  3.0669  1.3198
 6613SOL    HW326225   3.189   4.880   1.732 -1.0085 -2.8114 -0.4929
 6613SOL    MW426226   3.110   4.902   1.763 -0.0241 -0.3189  0.6291
 6614SOL     OW26227   5.895   2.028   2.369 -0.1669 -0.1734 -0.2721
 6614SOL    HW226228   5.914   2.082   2.292 -2.1733 -1.0001 -1.4148
 6614SOL    HW326229   5.836   1.960   2.337 -1.4487 -0.2786  2.0942
 6614SOL    MW426230   5.890   2.026   2.355 -0.8237  0.5328 -0.1092
 6615SOL     OW26231   5.408   0.364   2.011 -0.8041  0.2530  0.5012
 6615SOL    HW226232   5.361   0.292   1.969  1.6107 -2.4562  2.1362
 6615SOL    HW326233   5.361   0.380   2.092 -1.9800  1.4005 -0.3505
 6615SOL    MW426234   5.396   0.357   2.016  0.6732  0.3068  0.3610
 6616SOL     OW26235   1.871   0.306   4.792  0.1736 -0.2643  0.4552
 6616SOL    HW226236   1.911   0.255   4.721  2.5243  1.0543  0.7030
 6616SOL    HW326237   1.945   0.331   4.847 -0.8472  3.1265  0.5005
 6616SOL    MW426238   1.886   0.302   4.790 -0.3265 -0.4398 -0.0681
 6617SOL     OW26239   5.122   5.097   1.509 -0.1798 -0.4324  0.2990
 6617SOL    HW226240   5.032   5.095   1.542 -0.9067 -0.2971 -1.5256
 6617SOL    HW326241   5.130   5.182   1.466  0.5785 -0.7147 -0.1422
 6617SOL    MW426242   5.111   5.108   1.508  0.3814 -0.5436 -0.3850
 6618SOL     OW26243   1.757   3.266   5.433  0.1171  0.1143 -0.6173
 6618SOL    HW226244   1.771   3.173   5.448 -0.3786  0.1247 -0.0388
 6618SOL    HW326245   1.838   3.308   5.462  0.7953 -0.2166 -1.9477
 6618SOL    MW426246   1.769   3.259   5.438 -0.2564 -0.1063  0.0689
 6619SOL     OW26247   5.200   1.652   3.803  0.6226  0.7980  0.6056
 6619SOL    HW226248   5.176   1.566   3.769  0.0786  1.3644 -0.4928
 6619SOL    HW326249   5.138   1.666   3.875 -1.9735  1.8612 -1.6450
 6619SOL    MW426250   5.188   1.643   3.808 -0.6617  0.6777  0.9175
 6620SOL     OW26251   1.086   3.296   1.087  0.1164 -0.0158 -0.4875
 6620SOL    HW226252   1.132   3.313   1.170  1.5902  0.8988 -1.4518
 6620SOL    HW326253   1.003   3.341   1.096 -0.4657 -1.3144  1.1274
 6620SOL    MW426254   1.081   3.304   1.099 -0.2664  0.3989  0.0388
 6621SOL     OW26255   2.592   4.036   1.337 -0.4743 -0.4199 -0.4225
 6621SOL    HW226256   2.503   4.037   1.302 -0.8588  1.7423  0.4723
 6621SOL    HW326257   2.581   4.020   1.431 -0.0226  0.9010 -0.1324
 6621SOL    MW426258   2.579   4.034   1.344 -0.2882  0.0336  0.9727
 6622SOL     OW26259   1.483   5.767   0.418  0.7815  0.1261 -0.0430
 6622SOL    HW226260   1.535   5.697   0.379  2.5180  0.9179  0.7539
 6622SOL    HW326261   1.547   5.825   0.460 -0.5654  2.3693 -0.9037
 6622SOL    MW426262   1.498   5.765   0.418 -0.7498 -0.4365 -0.2757
 6623SOL     OW26263   4.354   0.896   2.229  0.0737  0.2992 -0.0725
 6623SOL    HW226264   4.292   0.830   2.199  0.6026 -0.4368  0.4165
 6623SOL    HW326265   4.348   0.895   2.324  0.8168  0.2215 -0.0156
 6623SOL    MW426266   4.345   0.888   2.237 -0.1563  0.1987 -0.3582
 6624SOL     OW26267   1.801   4.670   4.981  0.0997  0.2468  0.2545
 6624SOL    HW226268   1.712   4.640   4.965 -0.1256  0.7788  0.4764
 6624SOL    HW326269   1.793   4.765   4.988 -0.0131  0.1010  4.4780
 6624SOL    MW426270   1.789   4.679   4.980 -0.0571 -0.4090 -0.0431
 6625SOL     OW26271   2.221   1.124   2.754  0.4747  0.2031 -0.3782
 6625SOL    HW226272   2.235   1.157   2.842  1.7888 -1.7287  0.2234
 6625SOL    HW326273   2.296   1.156   2.704 -0.1004  1.0287 -0.7253
 6625SOL    MW426274   2.233   1.132   2.759 -0.3992 -0.0646  0.1323
 6626SOL     OW26275   5.480   1.137   4.900  0.5976  0.5445 -0.6460
 6626SOL    HW226276   5.422   1.214   4.898 -0.8985 -0.5637 -1.5062
 6626SOL    HW326277   5.459   1.089   4.821  0.1431 -1.7253  0.7628
 6626SOL    MW426278   5.469   1.141   4.890  0.0291 -0.2372  0.7353
 6627SOL     OW26279   4.261   1.297   3.201 -0.2624 -0.2088 -0.1543
 6627SOL    HW226280   4.312   1.351   3.141  2.0063 -1.9080  0.0865
 6627SOL    HW326281   4.270   1.340   3.286 -0.2289  0.1573 -0.3429
 6627SOL    MW426282   4.269   1.310   3.204  0.3530  0.1371 -0.0888
 6628SOL     OW26283   3.509   0.676   2.868  0.2431  0.0315 -0.1831
 6628SOL    HW226284   3.547   0.694   2.783  2.4603 -1.3667  0.4426
 6628SOL    HW326285   3.433   0.620   2.849 -0.0517  0.7813 -1.2902
 6628SOL    MW426286   3.504   0.671   2.854  0.1179 -0.1791  0.3769
 6629SOL     OW26287   3.211   1.525   2.964 -0.0799  0.6291 -0.4850
 6629SOL    HW226288   3.301   1.502   2.941 -0.2860 -0.3303 -0.3865
 6629SOL    HW326289   3.176   1.447   3.007 -1.5390  0.2503 -2.1810
 6629SOL    MW426290   3.218   1.512   2.966  0.0891  0.0093  0.3045
 6630SOL     OW26291   0.271   1.672   0.675  0.0156  0.2866 -0.1410
 6630SOL    HW226292   0.242   1.761   0.698  0.0547 -0.1878  1.9903
 6630SOL    HW326293   0.209   1.643   0.609  0.0183  1.8973 -0.9084
 6630SOL    MW426294   0.259   1.680   0.669 -0.0937  0.0389  0.0125
 6631SOL     OW26295   3.716   4.457   5.899  0.8449 -0.7533  0.0102
 6631SOL    HW226296   3.638   4.421   5.942  0.1957  0.4911 -0.0996
 6631SOL    HW326297   3.683   4.493   5.816  1.5979 -0.4985 -0.1825
 6631SOL    MW426298   3.701   4.457   5.894  0.6355  0.6008 -0.1195
 6632SOL     OW26299   1.078   4.652   4.293 -0.8084 -1.0590  0.1154
 6632SOL    HW226300   1.068   4.566   4.254 -1.6739 -0.2065 -1.6496
 6632SOL    HW326301   1.101   4.710   4.220  0.5832  0.0838  1.3901
 6632SOL    MW426302   1.080   4.648   4.278  0.1345 -0.5426  0.4110
 6633SOL     OW26303   3.101   3.777   5.349 -0.3781 -0.6009 -0.2202
 6633SOL    HW226304   3.055   3.697   5.324 -0.6678 -0.3269 -0.5729
 6633SOL    HW326305   3.034   3.834   5.386 -0.3591 -0.1475 -0.8641
 6633SOL    MW426306   3.086   3.774   5.351  0.4606 -0.1908  0.0276
 6634SOL     OW26307   3.693   1.592   6.028 -0.1276 -0.2759 -0.5137
 6634SOL    HW226308   3.734   1.505   6.030 -0.6163 -0.4909  0.7286
 6634SOL    HW326309   3.612   1.579   5.980  0.6841 -0.0832 -2.0045
 6634SOL    MW426310   3.688   1.578   6.022 -0.9630 -0.3282  0.1176
 6635SOL     OW26311   0.697   6.395   5.647 -0.2552  0.0865 -0.2933
 6635SOL    HW226312   0.758   6.455   5.604  0.3957  0.0464  0.5547
 6635SOL    HW326313   0.611   6.437   5.639 -0.3423 -0.3690 -2.4714
 6635SOL    MW426314   0.694   6.408   5.640  0.0484  0.3830  0.1598
 6636SOL     OW26315   0.199   3.700   5.978  0.1039  0.8243  0.0826
 6636SOL    HW226316   0.196   3.796   5.980 -0.0861  0.8153  0.7077
 6636SOL    HW326317   0.127   3.675   5.920 -1.4057  1.0267  1.7676
 6636SOL    MW426318   0.189   3.709   5.971  0.5810  1.0461  0.0636
 6637SOL     OW26319   1.321   4.435   6.353  0.2852 -0.0987 -0.0660
 6637SOL    HW226320   1.372   4.461   6.276  2.6675 -1.7665  0.8334
 6637SOL    HW326321   1.387   4.406   6.416 -1.7496 -1.4307  1.5567
 6637SOL    MW426322   1.337   4.434   6.351 -0.4993  0.0776  0.3323
 6638SOL     OW26323   2.121   1.570   3.330  0.0027 -0.0739  0.2539
 6638SOL    HW226324   2.090   1.581   3.240 -0.2176 -1.1705  0.1810
 6638SOL    HW326325   2.154   1.656   3.355 -2.8169  1.1393  0.2321
 6638SOL    MW426326   2.121   1.582   3.322  0.3102  0.4592 -0.1013
 6639SOL     OW26327   4.393   1.445   3.018 -0.3482 -0.0367 -0.5841
 6639SOL    HW226328   4.384   1.439   2.923  0.9394  0.6589 -0.7726
 6639SOL    HW326329   4.485   1.467   3.032 -0.6369  0.3826  0.8031
 6639SOL    MW426330   4.404   1.448   3.007 -0.3475 -0.1801 -0.1510
 6640SOL     OW26331   4.856   6.387   2.261 -0.0643  0.0405 -0.1725
 6640SOL    HW226332   4.878   6.309   2.311 -0.3481 -0.5310 -0.9128
 6640SOL    HW326333   4.931   6.446   2.272  0.6497 -0.7938 -0.5083
 6640SOL    MW426334   4.869   6.385   2.269 -0.1926 -0.0807 -0.2404
 6641SOL     OW26335   4.950   0.564   6.193  0.1659 -0.1413 -0.1265
 6641SOL    HW226336   5.039   0.530   6.187  0.7469  1.4578 -1.0604
 6641SOL    HW326337   4.960   0.658   6.202 -1.4274  0.3583 -2.5544
 6641SOL    MW426338   4.963   0.572   6.193  0.3604 -0.1927 -0.7356
 6642SOL     OW26339   5.010   5.836   1.036  0.2713  0.4697 -0.2679
 6642SOL    HW226340   5.068   5.867   0.966 -0.0254  0.9837 -0.2957
 6642SOL    HW326341   4.946   5.907   1.047 -1.3825 -0.7548 -1.4128
 6642SOL    MW426342   5.009   5.849   1.028  1.0506  0.2289 -0.2537
 6643SOL     OW26343   6.229   1.489   4.738 -0.2839  0.6982  0.1200
 6643SOL    HW226344   6.211   1.583   4.745 -2.3204  0.5328 -1.7704
 6643SOL    HW326345   6.321   1.485   4.710 -0.6557  2.2410 -1.5145
 6643SOL    MW426346   6.239   1.501   4.735 -0.2639 -0.0767  0.3333
 6644SOL     OW26347   0.477   4.459   0.692 -0.2780 -0.3087 -0.4227
 6644SOL    HW226348   0.419   4.389   0.661  1.0105 -1.5251 -0.2087
 6644SOL    HW326349   0.527   4.485   0.614  0.7084 -1.1290 -0.0958
 6644SOL    MW426350   0.476   4.453   0.678  0.2798  0.5382 -0.5373
 6645SOL     OW26351   3.064   3.062   2.991  0.3117 -0.2105 -0.2125
 6645SOL    HW226352   3.086   3.137   2.937  1.9414 -0.3591  0.1855
 6645SOL    HW326353   2.975   3.039   2.966 -0.4535  2.1904  0.0630
 6645SOL    MW426354   3.055   3.069   2.981  0.2227  0.4317  0.2127
 6646SOL     OW26355   3.444   1.732   2.252 -0.4702 -0.2109 -0.5581
 6646SOL    HW226356   3.511   1.797   2.273  0.2655 -0.7841 -1.0650
 6646SOL    HW326357   3.490   1.649   2.253 -1.2514 -0.6559 -0.5960
 6646SOL    MW426358   3.459   1.730   2.255  0.3999 -0.0817  0.0003
 6647SOL     OW26359   3.414   5.180   4.073 -0.5740 -0.3977  0.1555
 6647SOL    HW226360   3.386   5.169   3.983 -0.3291 -2.2548  0.2664
 6647SOL    HW326361   3.336   5.162   4.125 -0.2844 -1.1234  0.3497
 6647SOL    MW426362   3.400   5.176   4.068 -0.1899 -0.6316 -0.5565
 6648SOL     OW26363   2.585   1.256   1.788 -0.0931 -0.2949  0.4403
 6648SOL    HW226364   2.634   1.178   1.764 -0.0444  0.5666 -2.8009
 6648SOL    HW326365   2.496   1.225   1.804 -0.1258 -1.0622 -1.0359
 6648SOL    MW426366   2.580   1.242   1.787  0.0306 -0.1180  0.1578
 6649SOL     OW26367   5.180   5.555   1.007 -0.5365  0.3813  0.4614
 6649SOL    HW226368   5.121   5.544   0.933 -0.8312 -1.4721  0.9186
 6649SOL    HW326369   5.123   5.565   1.083 -0.3960 -2.4837  1.0608
 6649SOL    MW426370   5.165   5.555   1.007  0.3375  0.2501  0.0807
 6650SOL     OW26371   5.920   3.552   0.389  0.8022 -0.7760 -0.6449
 6650SOL    HW226372   5.875   3.624   0.433  0.8556 -1.0643 -0.1125
 6650SOL    HW326373   5.985   3.595   0.334  0.6027 -0.4041 -0.5967
 6650SOL    MW426374   5.922   3.568   0.387 -0.0258  0.0257 -0.0275
 6651SOL     OW26375   0.709   4.921   5.998  0.3377  0.3844 -0.1698
 6651SOL    HW226376   0.697   4.919   6.093  0.3130  0.9182 -0.1571
 6651SOL    HW326377   0.804   4.924   5.986  0.4142 -1.3155 -0.2093
 6651SOL    MW426378   0.720   4.921   6.009 -0.0690  0.1535 -0.3641
 6652SOL     OW26379   0.011   6.272   2.185  0.2357  0.0007  1.1168
 6652SOL    HW226380   0.027   6.336   2.115  2.9653  0.4942  2.0957
 6652SOL    HW326381  -0.010   6.191   2.138  0.9670  0.5667 -0.2582
 6652SOL    MW426382   0.010   6.270   2.170 -0.5686 -0.5236  0.1165
 6653SOL     OW26383   4.287   4.390   1.652 -0.4276  0.4783 -0.2894
 6653SOL    HW226384   4.238   4.450   1.709  0.1092  1.0317 -0.3971
 6653SOL    HW326385   4.352   4.351   1.710 -1.0331 -0.3054 -0.1314
 6653SOL    MW426386   4.289   4.393   1.667  0.7546  0.0817 -0.0533
 6654SOL     OW26387   2.667   6.205   5.172  0.2239 -0.5806  0.0883
 6654SOL    HW226388   2.734   6.211   5.105 -0.1381  0.1863 -0.2088
 6654SOL    HW326389   2.676   6.116   5.207  1.0482 -0.6540 -0.3010
 6654SOL    MW426390   2.677   6.194   5.168 -0.0327 -0.3245  0.1669
 6655SOL     OW26391   1.516   0.170   1.670 -0.2531 -0.5685  0.3808
 6655SOL    HW226392   1.444   0.222   1.706 -0.4657  2.0306 -3.2567
 6655SOL    HW326393   1.594   0.220   1.693  0.0812 -1.3705  1.0563
 6655SOL    MW426394   1.517   0.184   1.678  0.1527  0.2409 -0.6260
 6656SOL     OW26395   2.918   6.056   4.266  0.1567 -0.0795  0.5205
 6656SOL    HW226396   2.938   6.047   4.360 -1.0203 -0.0201  0.7938
 6656SOL    HW326397   2.826   6.080   4.264 -0.1032 -1.0883 -0.6904
 6656SOL    MW426398   2.909   6.058   4.278 -0.1541  0.3918 -0.1590
 6657SOL     OW26399   5.687   0.677   3.948  0.5311  0.1844  0.0116
 6657SOL    HW226400   5.619   0.647   4.008 -2.7416  1.8610 -2.5580
 6657SOL    HW326401   5.687   0.612   3.877  2.8412 -0.6240  0.6541
 6657SOL    MW426402   5.678   0.664   3.947  0.2657  0.7924 -0.6477
 6658SOL     OW26403   0.743   2.751   0.035  0.1179  0.0663  0.3305
 6658SOL    HW226404   0.761   2.740  -0.059 -1.1495  0.8739 -0.0416
 6658SOL    HW326405   0.651   2.727   0.044 -0.4454  2.2006  0.9197
 6658SOL    MW426406   0.733   2.747   0.024  0.3849  0.2182  0.2729
 6659SOL     OW26407   2.700   2.637   1.973 -0.1286  0.1721  0.1169
 6659SOL    HW226408   2.628   2.592   1.928  0.2118 -1.7302  1.3502
 6659SOL    HW326409   2.737   2.696   1.907 -1.6062 -0.2162 -1.1008
 6659SOL    MW426410   2.695   2.639   1.958  0.0608 -0.2325  0.6983
 6660SOL     OW26411   3.465   4.309   3.483  0.2427 -0.2456 -0.6072
 6660SOL    HW226412   3.526   4.245   3.521  0.0508 -0.5089 -0.7348
 6660SOL    HW326413   3.379   4.281   3.514  0.3258  1.0811  0.9077
 6660SOL    MW426414   3.462   4.297   3.492 -0.7958 -0.3009 -0.5477
 6661SOL     OW26415   4.409   0.041   1.010 -0.1238  0.6163 -0.3491
 6661SOL    HW226416   4.375   0.004   1.092  0.4283 -0.7887 -0.7146
 6661SOL    HW326417   4.331   0.055   0.956 -0.3263 -0.6230 -0.4121
 6661SOL    MW426418   4.394   0.038   1.013  0.4897 -0.4135 -0.4111
 6662SOL     OW26419   5.124   6.134   0.925  0.3580  0.6865 -0.3691
 6662SOL    HW226420   5.043   6.183   0.942 -0.4184 -1.3573  2.7228
 6662SOL    HW326421   5.172   6.137   1.007  2.6738  0.4209 -1.6281
 6662SOL    MW426422   5.119   6.141   0.938 -0.0406 -0.9940 -0.2079
 6663SOL     OW26423   4.336   3.573   1.984  0.5118 -0.5972 -0.0441
 6663SOL    HW226424   4.375   3.541   2.066  1.8019 -3.0542 -1.4900
 6663SOL    HW326425   4.257   3.519   1.974 -0.5601  0.8536  0.3619
 6663SOL    MW426426   4.331   3.561   1.994  0.1478  0.4207  0.2828
 6664SOL     OW26427   5.843   4.621   4.520  0.2297 -0.3111  0.0303
 6664SOL    HW226428   5.748   4.623   4.528  0.0429  2.0304 -1.9284
 6664SOL    HW326429   5.866   4.528   4.527 -2.0022 -0.8008  1.9976
 6664SOL    MW426430   5.834   4.609   4.522  0.0762 -0.3735  0.1597
 6665SOL     OW26431   3.498   1.231   0.488 -0.1220  0.3335  0.2698
 6665SOL    HW226432   3.575   1.254   0.541  0.3487 -1.8592  0.6544
 6665SOL    HW326433   3.442   1.183   0.549 -1.9148  1.9975  0.0251
 6665SOL    MW426434   3.501   1.228   0.503 -0.1382 -0.4808  0.0717
 6666SOL     OW26435   1.026   2.767   3.204  0.3308 -0.0778  0.2945
 6666SOL    HW226436   1.118   2.738   3.202  0.2879 -0.2305  0.4477
 6666SOL    HW326437   0.982   2.711   3.141  0.2889 -0.2054  0.4344
 6666SOL    MW426438   1.033   2.756   3.196  0.1907  0.6710 -0.4088
 6667SOL     OW26439   3.514   4.393   0.800 -0.0444 -0.0567 -0.4116
 6667SOL    HW226440   3.471   4.470   0.764  1.0214  1.7583  1.9163
 6667SOL    HW326441   3.456   4.364   0.871  0.6663  0.0256  0.2143
 6667SOL    MW426442   3.501   4.399   0.805  0.2339 -0.2771 -0.2334
 6668SOL     OW26443   0.970   1.562   3.847  1.0261 -0.0889  0.4504
 6668SOL    HW226444   0.997   1.599   3.931  1.1650 -0.1567  0.4362
 6668SOL    HW326445   0.915   1.487   3.870  2.2245 -0.9909  0.5045
 6668SOL    MW426446   0.966   1.557   3.861 -0.1109  0.0508 -0.9037
 6669SOL     OW26447   3.457   3.173   2.330 -0.5685 -0.5611  0.1451
 6669SOL    HW226448   3.368   3.139   2.326 -1.8005  2.2669  0.8410
 6669SOL    HW326449   3.464   3.232   2.255  0.5443 -0.3591  0.3878
 6669SOL    MW426450   3.446   3.176   2.320  0.1529 -0.7568  0.5411
 6670SOL     OW26451   1.299   3.666   0.155  0.0856  1.0110  0.2424
 6670SOL    HW226452   1.225   3.703   0.202 -1.0105  0.7377 -1.2271
 6670SOL    HW326453   1.289   3.571   0.164 -0.3530  0.9464 -0.8561
 6670SOL    MW426454   1.288   3.658   0.162  0.3206 -0.3558  0.3832
 6671SOL     OW26455   2.083   3.190   1.051 -0.5576  0.2469 -0.8482
 6671SOL    HW226456   2.091   3.229   1.138  0.0970 -1.1324 -0.2676
 6671SOL    HW326457   2.160   3.134   1.043 -0.6587  0.2886 -2.2839
 6671SOL    MW426458   2.094   3.188   1.061 -0.4169  1.0654 -0.2836
 6672SOL     OW26459   2.472   5.398   3.904 -0.7470 -0.2486 -0.1747
 6672SOL    HW226460   2.464   5.482   3.861  0.3053  0.0741  0.2385
 6672SOL    HW326461   2.406   5.343   3.862  1.0344 -0.3428 -3.1220
 6672SOL    MW426462   2.462   5.402   3.893  0.2170 -1.1908  0.1715
 6673SOL     OW26463   6.000   3.111   0.640  0.2626  0.6480 -0.0561
 6673SOL    HW226464   6.017   3.182   0.578  2.5543  1.1397  1.0350
 6673SOL    HW326465   6.028   3.145   0.724 -2.5841 -0.0858  1.3173
 6673SOL    MW426466   6.006   3.125   0.643 -0.4077 -0.2063 -0.6801
 6674SOL     OW26467   2.415   4.405   2.861 -0.5400  0.2886 -0.1407
 6674SOL    HW226468   2.346   4.344   2.889 -0.3186  0.3353  0.5468
 6674SOL    HW326469   2.369   4.475   2.816 -0.9432  0.3159  0.3083
 6674SOL    MW426470   2.400   4.406   2.859 -0.2097  0.2819  0.2465
 6675SOL     OW26471   3.035   5.771   0.344  0.0098 -0.3643  0.1012
 6675SOL    HW226472   2.949   5.730   0.338  0.1109 -0.4675 -0.8107
 6675SOL    HW326473   3.017   5.865   0.338 -0.1057 -0.3334  0.8188
 6675SOL    MW426474   3.021   5.778   0.342 -0.2103 -0.3960  0.3742
 6676SOL     OW26475   4.467   0.750   6.160  0.1121  0.2303  0.0521
 6676SOL    HW226476   4.522   0.785   6.089 -1.0437  0.3177 -0.8329
 6676SOL    HW326477   4.482   0.655   6.157  0.7772  0.3256  0.3077
 6676SOL    MW426478   4.476   0.742   6.150  0.6174  0.4292 -0.1372
 6677SOL     OW26479   4.388   2.008   2.264 -0.0702  0.2021  0.6648
 6677SOL    HW226480   4.426   2.052   2.339 -0.9274 -2.4709  2.8400
 6677SOL    HW326481   4.295   2.031   2.267  0.0960  1.1237 -0.4293
 6677SOL    MW426482   4.381   2.017   2.274  0.6562  1.1966 -0.4370
 6678SOL     OW26483   2.794   2.023   1.477  0.2076  0.5416 -0.2344
 6678SOL    HW226484   2.713   2.071   1.492  0.7822  1.9903 -1.5957
 6678SOL    HW326485   2.835   2.067   1.403  2.3995  0.0331  0.6166
 6678SOL    MW426486   2.788   2.035   1.470  0.0738  0.6131  0.3992
 6679SOL     OW26487   4.236   1.458   1.141  0.0928  0.4532  0.3056
 6679SOL    HW226488   4.252   1.523   1.210 -1.8784 -0.4863  1.7570
 6679SOL    HW326489   4.261   1.503   1.060 -0.3036  2.7032  1.3375
 6679SOL    MW426490   4.241   1.473   1.140 -0.0491 -0.0580 -0.4504
 6680SOL     OW26491   2.635   0.763   5.613 -0.1423  0.2655  0.0462
 6680SOL    HW226492   2.723   0.778   5.578  0.4067 -0.3045  1.1415
 6680SOL    HW326493   2.597   0.851   5.621 -0.3892  0.4351 -2.1197
 6680SOL    MW426494   2.641   0.777   5.609  0.3423 -0.0013  0.8357
 6681SOL     OW26495   4.986   6.223   0.035 -0.3921 -0.1384  0.1174
 6681SOL    HW226496   4.963   6.312   0.058  0.9115  0.5052 -0.9250
 6681SOL    HW326497   4.927   6.201  -0.038 -0.8375 -0.2104  0.4938
 6681SOL    MW426498   4.975   6.232   0.028  0.0952  1.0042  0.5374
 6682SOL     OW26499   2.824   1.018   1.250  0.7677  0.3089  0.3219
 6682SOL    HW226500   2.844   1.064   1.332 -0.3496 -1.2272  1.5303
 6682SOL    HW326501   2.803   0.929   1.278  1.2098 -0.5009 -1.7572
 6682SOL    MW426502   2.824   1.012   1.265 -0.1068 -0.0243  0.4850
 6683SOL     OW26503   1.709   6.062   0.284  0.6119  0.2134 -0.3231
 6683SOL    HW226504   1.774   5.997   0.255  1.2567  0.7356 -0.0550
 6683SOL    HW326505   1.726   6.073   0.377  0.4986  0.7616 -0.3651
 6683SOL    MW426506   1.720   6.055   0.292 -0.5061  0.2370  0.1898
 6684SOL     OW26507   3.019   4.584   6.298  0.2060  0.3570  0.5534
 6684SOL    HW226508   2.987   4.513   6.242  1.5425  0.8602 -0.9006
 6684SOL    HW326509   2.947   4.600   6.359 -1.4836  0.0293 -1.2491
 6684SOL    MW426510   3.005   4.577   6.299 -0.4937 -0.0698  0.1593
 6685SOL     OW26511   5.819   1.556   3.563 -0.0381 -0.6861 -0.0052
 6685SOL    HW226512   5.845   1.645   3.584  0.7428 -1.2298  1.4302
 6685SOL    HW326513   5.724   1.561   3.553 -0.0472  0.2294  0.4410
 6685SOL    MW426514   5.810   1.568   3.564  0.2770 -0.0251 -0.5693
 6686SOL     OW26515   1.622   1.785   1.036  0.0192  0.1453  0.0091
 6686SOL    HW226516   1.635   1.697   1.000  0.3501  0.6536 -1.1591
 6686SOL    HW326517   1.544   1.777   1.090 -1.0271 -0.4715 -1.5241
 6686SOL    MW426518   1.614   1.772   1.038 -0.1686  0.0301  0.2992
 6687SOL     OW26519   1.770   5.808   4.475 -0.2279  0.1006 -0.2511
 6687SOL    HW226520   1.821   5.848   4.545 -0.8208 -0.0620  0.2801
 6687SOL    HW326521   1.819   5.728   4.453  0.3541  0.5344 -0.5368
 6687SOL    MW426522   1.784   5.802   4.481 -0.3644 -0.0184 -0.1431
 6688SOL     OW26523   3.673   6.237   2.020 -0.0040  0.0202 -0.1255
 6688SOL    HW226524   3.743   6.244   2.084 -1.1084 -1.8085  1.3534
 6688SOL    HW326525   3.601   6.195   2.066 -1.3281 -0.1562 -2.2007
 6688SOL    MW426526   3.673   6.233   2.034 -0.5613 -0.0678  0.2363
 6689SOL     OW26527   0.337   0.621   3.862  0.2085  0.2063  0.3991
 6689SOL    HW226528   0.426   0.587   3.850 -0.3878 -1.3676  0.1320
 6689SOL    HW326529   0.341   0.669   3.945  1.2036 -0.2355  0.6269
 6689SOL    MW426530   0.349   0.623   3.871  0.3187 -0.7139  0.0277
 6690SOL     OW26531   5.960   0.978   3.175  0.5306 -0.0485  0.2298
 6690SOL    HW226532   5.906   0.913   3.130 -0.6232  0.8681  0.2545
 6690SOL    HW326533   5.946   0.960   3.268  0.9849 -0.3733  0.2408
 6690SOL    MW426534   5.951   0.967   3.181 -0.2856  0.0264  0.0314
 6691SOL     OW26535   4.869   6.388   1.513 -0.6533 -0.4434  0.1998
 6691SOL    HW226536   4.799   6.345   1.464 -0.3771  1.1952 -1.7515
 6691SOL    HW326537   4.824   6.434   1.584 -1.5563  0.3873 -0.8820
 6691SOL    MW426538   4.854   6.388   1.516 -0.0938  0.0367  0.5410
 6692SOL     OW26539   6.195   0.416   0.787  0.0312  0.0953 -0.2070
 6692SOL    HW226540   6.155   0.349   0.732 -0.5221  1.8240 -2.0315
 6692SOL    HW326541   6.240   0.474   0.726  2.7073  0.0116  1.5332
 6692SOL    MW426542   6.195   0.415   0.772  0.0907 -0.8458 -0.1040
 6693SOL     OW26543   6.303   0.635   3.966  0.1003 -0.1254 -0.4948
 6693SOL    HW226544   6.234   0.569   3.967 -0.2802  0.2613 -0.9262
 6693SOL    HW326545   6.260   0.716   3.993  0.3273  0.1725 -1.0109
 6693SOL    MW426546   6.288   0.637   3.970  0.2875 -0.3440 -0.3225
 6694SOL     OW26547   6.226   1.431   3.481 -0.6715  0.0869 -0.1516
 6694SOL    HW226548   6.132   1.418   3.470 -0.9432  1.4692  0.4158
 6694SOL    HW326549   6.249   1.373   3.554 -1.4104  0.9384  0.7867
 6694SOL    MW426550   6.217   1.421   3.489 -0.3184  0.3844 -0.0414
 6695SOL     OW26551   5.713   0.431   2.396 -0.0220 -0.0319 -0.0398
 6695SOL    HW226552   5.760   0.383   2.327 -0.0803 -0.4340  0.1958
 6695SOL    HW326553   5.781   0.453   2.460  0.0397  0.3798 -0.2440
 6695SOL    MW426554   5.728   0.427   2.395 -0.1278  0.4066 -0.3065
 6696SOL     OW26555   4.604   3.034   2.678  0.2280 -0.5870  0.3226
 6696SOL    HW226556   4.514   3.055   2.704  0.8411  0.1424  1.9871
 6696SOL    HW326557   4.630   3.107   2.621  0.5958  0.5571  1.8993
 6696SOL    MW426558   4.596   3.046   2.674  0.2933 -0.1138  0.1124
 6697SOL     OW26559   2.763   4.783   1.548 -0.1079  0.4709  0.0323
 6697SOL    HW226560   2.705   4.745   1.615  1.4443  0.2212  1.2878
 6697SOL    HW326561   2.824   4.713   1.526 -0.5719  0.5616 -1.6874
 6697SOL    MW426562   2.763   4.769   1.554 -0.2746 -0.9210  0.3931
 6698SOL     OW26563   5.105   0.137   3.556 -0.1096  0.3176  0.5881
 6698SOL    HW226564   5.161   0.100   3.624 -0.5317 -0.9388  0.2803
 6698SOL    HW326565   5.059   0.062   3.519  0.2969  0.9350 -1.2754
 6698SOL    MW426566   5.106   0.123   3.561 -0.0678  0.3129  0.1075
 6699SOL     OW26567   1.955   6.028   0.798  0.2193 -0.3738 -0.0058
 6699SOL    HW226568   2.023   6.052   0.735  0.8662 -0.5630  0.6146
 6699SOL    HW326569   2.000   5.975   0.864 -0.4142 -0.0089  0.7352
 6699SOL    MW426570   1.970   6.024   0.798 -0.0375  0.1837 -0.0226
 6700SOL     OW26571   2.231   3.227   5.979  0.2147 -0.0690  0.2467
 6700SOL    HW226572   2.155   3.181   6.013 -1.0613  0.7333 -1.3905
 6700SOL    HW326573   2.242   3.302   6.037 -2.5483  1.8565 -1.4658
 6700SOL    MW426574   2.223   3.231   5.991  0.0740 -0.0615 -0.3875
 6701SOL     OW26575   0.733   1.390   3.619  0.2811  0.0887  0.0681
 6701SOL    HW226576   0.762   1.396   3.710 -0.2765 -0.8450  0.3236
 6701SOL    HW326577   0.775   1.310   3.587 -0.9874 -0.6075  0.0758
 6701SOL    MW426578   0.743   1.380   3.627  0.3786 -0.1950  0.1873
 6702SOL     OW26579   4.366   5.497   4.639 -0.2330  0.0078  0.5458
 6702SOL    HW226580   4.439   5.442   4.666 -0.0655 -0.3001 -0.4751
 6702SOL    HW326581   4.290   5.438   4.637  0.0506 -0.3760 -1.0817
 6702SOL    MW426582   4.365   5.482   4.642 -0.1243  0.4702  0.2628
 6703SOL     OW26583   3.157   4.317   3.310 -0.1819  0.3558  0.5503
 6703SOL    HW226584   3.186   4.374   3.238  2.1075 -1.5433 -0.1936
 6703SOL    HW326585   3.135   4.234   3.267 -0.7395 -0.2039  1.8652
 6703SOL    MW426586   3.158   4.313   3.295  0.2247  0.3898  0.0056
 6704SOL     OW26587   2.271   5.797   0.610  0.8295  0.1725 -0.2500
 6704SOL    HW226588   2.343   5.809   0.548  0.1661  0.1543 -1.0486
 6704SOL    HW326589   2.312   5.762   0.688  1.8092  0.9830 -0.3799
 6704SOL    MW426590   2.286   5.794   0.612 -0.0988 -0.0077  0.3810
 6705SOL     OW26591   4.211   5.679   0.418  0.2893  0.3529  0.1668
 6705SOL    HW226592   4.268   5.698   0.344 -1.0459  2.9033 -0.3179
 6705SOL    HW326593   4.260   5.709   0.494  0.8748 -0.4712  0.1257
 6705SOL    MW426594   4.225   5.686   0.418  0.4074 -0.6974 -0.0150
 6706SOL     OW26595   5.024   5.933   1.471  0.0503  0.5446 -0.3599
 6706SOL    HW226596   5.047   5.871   1.540 -1.5649  0.0165 -0.2664
 6706SOL    HW326597   5.100   5.934   1.413  0.9211  0.0504  0.7381
 6706SOL    MW426598   5.037   5.925   1.473  0.3769 -0.0836  0.4999
 6707SOL     OW26599   5.980   4.459   5.272 -0.2100 -0.2642 -0.2249
 6707SOL    HW226600   5.997   4.444   5.179 -0.0976 -0.6298 -0.1464
 6707SOL    HW326601   6.040   4.530   5.296 -0.8681  0.4488 -0.6399
 6707SOL    MW426602   5.990   4.466   5.263 -0.0894  0.2834 -0.3831
 6708SOL     OW26603   2.760   3.672   0.619  0.4993  0.3490 -0.2106
 6708SOL    HW226604   2.757   3.580   0.645  0.2697  0.0415 -1.3220
 6708SOL    HW326605   2.830   3.676   0.555 -0.4472  0.6681 -1.2464
 6708SOL    MW426606   2.769   3.660   0.614  0.2649 -0.1373  0.1716
 6709SOL     OW26607   1.124   3.253   4.992  0.6296 -0.4807  0.1359
 6709SOL    HW226608   1.073   3.191   5.045  0.0673 -0.4883 -0.4029
 6709SOL    HW326609   1.163   3.199   4.923  0.2541 -0.2634 -0.2519
 6709SOL    MW426610   1.123   3.238   4.990 -0.0975  0.3824  0.5207
 6710SOL     OW26611   2.135   0.914   4.844  0.8271  0.1882 -0.0871
 6710SOL    HW226612   2.137   0.822   4.817 -0.2139 -0.1075  0.7480
 6710SOL    HW326613   2.129   0.910   4.940  0.6416  1.1230 -0.0536
 6710SOL    MW426614   2.135   0.901   4.853 -0.3685  0.1887  0.1939
 6711SOL     OW26615   2.327   3.776   2.665 -0.1446  0.5929 -0.3207
 6711SOL    HW226616   2.235   3.799   2.678 -0.0810  0.8127 -0.2607
 6711SOL    HW326617   2.332   3.750   2.573 -0.2964  0.4407 -0.2862
 6711SOL    MW426618   2.315   3.776   2.655  0.4498  0.0897 -0.5995
 6712SOL     OW26619   3.034   1.742   4.633 -0.1720  0.1051 -0.0364
 6712SOL    HW226620   2.949   1.705   4.610 -0.5299 -0.3083  1.8093
 6712SOL    HW326621   3.097   1.675   4.606 -0.4172  0.3978 -1.3803
 6712SOL    MW426622   3.031   1.728   4.627 -0.1893  0.0698 -0.7115
 6713SOL     OW26623   2.971   3.619   4.201  0.5993 -0.4697  0.1072
 6713SOL    HW226624   2.896   3.665   4.237  0.2905 -0.5553 -0.4267
 6713SOL    HW326625   3.047   3.672   4.229  0.1404  1.9217 -2.6813
 6713SOL    MW426626   2.971   3.632   4.209 -0.7034  0.3764  0.4613
 6714SOL     OW26627   4.714   0.931   0.272  0.1412 -0.5058  0.2632
 6714SOL    HW226628   4.675   0.972   0.349  0.2606 -0.9904  0.5895
 6714SOL    HW326629   4.760   0.855   0.307  1.6022  0.1924 -0.0695
 6714SOL    MW426630   4.715   0.926   0.287  0.2114  0.2244 -0.3246
 6715SOL     OW26631   4.033   1.241   5.144  0.4632  0.1206 -0.3140
 6715SOL    HW226632   4.056   1.153   5.174  0.0847 -0.0968 -0.6387
 6715SOL    HW326633   4.057   1.241   5.051 -1.3243 -0.3141 -0.8220
 6715SOL    MW426634   4.039   1.229   5.136 -0.1745  0.4094 -0.3321
 6716SOL     OW26635   1.420   4.755   0.531  0.1902  0.4053  0.9557
 6716SOL    HW226636   1.375   4.793   0.606 -0.4990 -0.9211  1.2335
 6716SOL    HW326637   1.392   4.664   0.529  0.9510  0.1698 -0.3444
 6716SOL    MW426638   1.410   4.748   0.540 -0.2318  0.2521 -0.2052
 6717SOL     OW26639   1.234   0.660   1.022  0.1274 -0.4509  0.2823
 6717SOL    HW226640   1.262   0.687   0.935 -0.1841 -1.8423 -0.2857
 6717SOL    HW326641   1.315   0.641   1.069  0.2710 -1.3027 -0.2779
 6717SOL    MW426642   1.248   0.661   1.017 -0.0708 -0.0880 -0.7415
 6718SOL     OW26643   2.325   5.592   5.698 -0.1767  0.6243  0.1878
 6718SOL    HW226644   2.267   5.529   5.654 -0.2133 -0.3336  1.5421
 6718SOL    HW326645   2.413   5.562   5.675 -0.1930  0.8544 -0.1946
 6718SOL    MW426646   2.329   5.579   5.689  0.0996  0.3177  0.0949
 6719SOL     OW26647   1.128   2.724   5.904  0.1426  0.4103  0.1690
 6719SOL    HW226648   1.203   2.760   5.856  0.9933 -1.2516  0.1740
 6719SOL    HW326649   1.165   2.652   5.956 -1.4539 -0.4284  0.2075
 6719SOL    MW426650   1.143   2.719   5.905  0.1237 -0.1682  0.0570
 6720SOL     OW26651   6.145   3.721   6.321  0.7280  0.3164  0.2970
 6720SOL    HW226652   6.193   3.645   6.354  3.0957  2.5723  2.5052
 6720SOL    HW326653   6.091   3.750   6.395  0.8078  1.4766 -0.0769
 6720SOL    MW426654   6.144   3.715   6.335  0.1847  0.3482 -0.4590
 6721SOL     OW26655   0.087   6.176   4.497 -0.1435 -0.1762  0.1401
 6721SOL    HW226656   0.120   6.113   4.561  1.0790  1.4312  1.1649
 6721SOL    HW326657   0.006   6.209   4.536 -0.3853 -0.5488 -0.0404
 6721SOL    MW426658   0.080   6.172   4.511 -0.6422 -0.4372  0.4351
 6722SOL     OW26659   1.108   1.565   2.237  0.1238  0.2221 -0.0861
 6722SOL    HW226660   1.176   1.498   2.248  1.0028  1.1821  0.4715
 6722SOL    HW326661   1.031   1.526   2.278  0.8415 -0.1327  0.9891
 6722SOL    MW426662   1.107   1.551   2.244  0.2931 -0.2698 -0.8581
 6723SOL     OW26663   0.551   4.480   3.983 -0.1830 -0.2143 -0.4750
 6723SOL    HW226664   0.497   4.433   4.047 -0.8362 -1.2965 -1.7542
 6723SOL    HW326665   0.491   4.500   3.911  0.4017  1.4565 -0.5471
 6723SOL    MW426666   0.536   4.476   3.982 -0.1920  0.8831 -0.0928
 6724SOL     OW26667   0.052   2.346   5.114  0.0181 -0.2832 -0.3575
 6724SOL    HW226668   0.020   2.397   5.188 -1.6269 -0.0068 -1.1947
 6724SOL    HW326669  -0.014   2.278   5.102  0.1766 -0.2333 -1.6475
 6724SOL    MW426670   0.039   2.343   5.122 -0.5744  0.2368 -0.6061
 6725SOL     OW26671   5.051   0.606   5.362  0.5817 -0.7643  0.2203
 6725SOL    HW226672   5.048   0.616   5.267 -1.1580  3.5969  0.4824
 6725SOL    HW326673   4.990   0.534   5.380 -1.2988  0.1816 -1.8827
 6725SOL    MW426674   5.042   0.598   5.352 -0.5547 -0.2681 -0.2074
 6726SOL     OW26675   5.530   5.547   0.403 -0.4180  0.1225  0.3842
 6726SOL    HW226676   5.569   5.521   0.487 -1.3047  1.1338  1.1225
 6726SOL    HW326677   5.605   5.553   0.344  0.1529 -1.2486  0.9159
 6726SOL    MW426678   5.545   5.544   0.407 -0.3563 -0.1084 -0.0688
 6727SOL     OW26679   4.516   2.504   6.042 -0.1098  0.8947  0.2265
 6727SOL    HW226680   4.440   2.557   6.019  0.6324  1.6405 -0.5702
 6727SOL    HW326681   4.485   2.414   6.034 -0.5142  1.1519 -1.6296
 6727SOL    MW426682   4.502   2.499   6.038 -0.5102  0.0829  0.4019
 6728SOL     OW26683   4.947   1.645   1.493  0.1012 -0.4129  0.1723
 6728SOL    HW226684   4.912   1.573   1.545  0.6802 -0.4020  0.5802
 6728SOL    HW326685   4.872   1.703   1.480 -0.8852 -1.9836 -1.7805
 6728SOL    MW426686   4.932   1.643   1.498 -0.4734 -0.0244 -0.3033
 6729SOL     OW26687   5.706   0.303   1.864 -0.3893  0.0417 -0.1920
 6729SOL    HW226688   5.653   0.236   1.908  0.5938 -0.3014  0.4883
 6729SOL    HW326689   5.795   0.268   1.864 -0.0529  0.8662 -0.8126
 6729SOL    MW426690   5.710   0.289   1.870  0.0913  0.1628  0.6801
 6730SOL     OW26691   1.126   2.273   2.277 -0.3081 -0.5461  0.0805
 6730SOL    HW226692   1.185   2.265   2.202 -0.3908 -0.6303  0.0250
 6730SOL    HW326693   1.045   2.230   2.249  0.2412 -2.1643  0.8621
 6730SOL    MW426694   1.123   2.267   2.264 -0.5410 -0.0491  0.7188
 6731SOL     OW26695   1.456   0.545   5.447 -0.0174 -0.5072 -0.2198
 6731SOL    HW226696   1.532   0.487   5.445 -0.3984 -0.9988 -0.6851
 6731SOL    HW326697   1.493   0.633   5.461  0.4913 -0.9671  1.4762
 6731SOL    MW426698   1.471   0.549   5.448  0.0265  0.0395 -0.6612
 6732SOL     OW26699   3.545   6.184   6.009 -0.3430  0.0584 -0.3342
 6732SOL    HW226700   3.491   6.112   5.977 -0.4120 -1.2332  2.4244
 6732SOL    HW326701   3.619   6.142   6.053  0.0999  1.6690  0.5679
 6732SOL    MW426702   3.548   6.169   6.011 -0.3731 -0.3294 -0.3182
 6733SOL     OW26703   0.247   1.009   1.925 -0.0938 -0.0771 -0.0308
 6733SOL    HW226704   0.237   0.957   1.846 -0.4644  2.5355 -1.8344
 6733SOL    HW326705   0.223   0.949   1.996  0.0931 -2.4760 -1.8637
 6733SOL    MW426706   0.242   0.994   1.924  0.0872  0.3543 -0.0780
 6734SOL     OW26707   4.735   4.459   2.485  0.5521  0.9894  0.3772
 6734SOL    HW226708   4.803   4.525   2.470  1.6949 -0.6611 -2.7412
 6734SOL    HW326709   4.777   4.376   2.461 -2.1184 -0.2958 -0.2568
 6734SOL    MW426710   4.750   4.457   2.480 -0.4226  0.4089  0.2274
 6735SOL     OW26711   5.484   5.589   2.456 -0.3475 -0.0151  0.0830
 6735SOL    HW226712   5.443   5.608   2.540 -2.4724 -2.3548 -0.3276
 6735SOL    HW326713   5.566   5.546   2.478  0.4153  1.7576  0.9035
 6735SOL    MW426714   5.490   5.586   2.470 -0.2699  0.4483 -0.2832
 6736SOL     OW26715   2.299   1.247   1.584  0.2123  0.0270 -0.1087
 6736SOL    HW226716   2.266   1.255   1.494  2.0259 -1.3106 -0.9684
 6736SOL    HW326717   2.228   1.205   1.632 -0.4941  0.0140 -1.1244
 6736SOL    MW426718   2.286   1.242   1.578 -0.0163 -0.2072  0.1498
 6737SOL     OW26719   3.731   3.110   0.916 -0.3332 -0.0519 -0.0401
 6737SOL    HW226720   3.675   3.186   0.929 -0.5502  0.7653 -4.2093
 6737SOL    HW326721   3.816   3.147   0.890 -0.2996 -1.1696 -1.6630
 6737SOL    MW426722   3.735   3.124   0.914  0.3944 -0.3910  0.0057
 6738SOL     OW26723   5.488   5.619   4.961  0.4978  0.6392 -0.1375
 6738SOL    HW226724   5.518   5.703   4.928 -1.3043  2.6138  2.8202
 6738SOL    HW326725   5.512   5.619   5.054 -0.2781 -1.7693  0.1373
 6738SOL    MW426726   5.495   5.630   4.969 -0.1996  0.4131  0.0336
 6739SOL     OW26727   1.528   5.185   0.727  0.1514  0.1513  0.2621
 6739SOL    HW226728   1.455   5.193   0.789 -0.4361  0.9707 -0.5079
 6739SOL    HW326729   1.597   5.142   0.776 -0.4462  0.4289  1.3695
 6739SOL    MW426730   1.527   5.181   0.741  0.0478  0.4040  0.6589
 6740SOL     OW26731   1.494   1.517   0.462 -0.1935 -0.0102  0.3724
 6740SOL    HW226732   1.571   1.573   0.463  0.2354 -0.5662  2.2833
 6740SOL    HW326733   1.423   1.573   0.495 -0.2779  0.0505  0.0939
 6740SOL    MW426734   1.495   1.532   0.466 -0.1732 -0.6234  0.4160
 6741SOL     OW26735   2.475   1.419   0.025 -0.4557 -0.6392 -0.6142
 6741SOL    HW226736   2.510   1.347   0.078  0.0589 -0.0112 -0.0960
 6741SOL    HW326737   2.389   1.437   0.063  0.3871  0.5967  0.8016
 6741SOL    MW426738   2.468   1.412   0.037  0.3404 -0.1863  0.0321
 6742SOL     OW26739   5.575   4.250   4.070  0.2421 -0.0611  0.4572
 6742SOL    HW226740   5.556   4.272   3.979 -3.4199 -1.1883  0.7827
 6742SOL    HW326741   5.588   4.335   4.113 -0.8857  0.6804 -0.5941
 6742SOL    MW426742   5.574   4.264   4.063 -0.1753  0.0017  0.5290
 6743SOL     OW26743   5.202   1.546   6.363  0.6408  0.5749 -0.7999
 6743SOL    HW226744   5.224   1.629   6.319  3.0629 -0.3114 -1.4099
 6743SOL    HW326745   5.199   1.482   6.293 -0.3656 -0.0281 -0.2248
 6743SOL    MW426746   5.205   1.549   6.348 -0.3333 -0.1627 -0.2759
 6744SOL     OW26747   5.420   4.270   1.990 -0.2238  0.7212 -0.1969
 6744SOL    HW226748   5.459   4.316   1.915  2.7458  0.1723  0.8769
 6744SOL    HW326749   5.364   4.203   1.950  2.9397 -1.0394 -2.1530
 6744SOL    MW426750   5.418   4.267   1.975 -0.8760  0.0423 -0.6031
 6745SOL     OW26751   6.010   6.085   0.981  0.1826  0.0102 -0.6117
 6745SOL    HW226752   6.036   5.994   0.991  0.1314  0.1767  1.4455
 6745SOL    HW326753   5.919   6.081   0.951 -0.6552 -0.7051  1.7849
 6745SOL    MW426754   6.001   6.073   0.978  0.1959 -0.2616 -0.4484
 6746SOL     OW26755   4.229   2.598   2.271 -0.1303 -0.4109 -0.1867
 6746SOL    HW226756   4.243   2.602   2.177  1.4825 -1.7547 -0.0489
 6746SOL    HW326757   4.315   2.617   2.309 -0.7467  0.0682  1.0211
 6746SOL    MW426758   4.242   2.601   2.264 -0.4191  0.2215 -0.2681
 6747SOL     OW26759   1.497   4.930   4.862  0.0124  0.5273 -0.1320
 6747SOL    HW226760   1.422   4.936   4.803 -0.7296 -2.4588  0.3324
 6747SOL    HW326761   1.468   4.871   4.932  2.6850 -0.5979  0.1645
 6747SOL    MW426762   1.483   4.923   4.864  0.6127  0.1957  0.2724
 6748SOL     OW26763   0.614   0.821   3.072 -0.3389  0.2676  0.3051
 6748SOL    HW226764   0.691   0.789   3.119 -0.1730 -0.6974 -0.5725
 6748SOL    HW326765   0.562   0.742   3.054 -0.1878  0.5276 -1.4618
 6748SOL    MW426766   0.617   0.807   3.075 -0.0549  0.1134  0.5546
 6749SOL     OW26767   2.729   4.443   6.334  0.0226  0.1883  0.2342
 6749SOL    HW226768   2.647   4.393   6.323  0.4283 -0.3535 -0.3977
 6749SOL    HW326769   2.792   4.396   6.280  0.3224  1.6345 -0.7127
 6749SOL    MW426770   2.726   4.430   6.326  0.2710 -0.6821  0.0275
 6750SOL     OW26771   3.812   5.275   3.806  0.2080 -0.0927 -0.4836
 6750SOL    HW226772   3.808   5.346   3.870 -0.0661  0.4186 -1.0587
 6750SOL    HW326773   3.723   5.271   3.770  0.4832 -0.0517 -1.1738
 6750SOL    MW426774   3.800   5.284   3.810 -0.0275 -0.1274  0.3482
 6751SOL     OW26775   1.576   6.042   4.825 -0.3633 -0.4888 -0.0928
 6751SOL    HW226776   1.613   6.035   4.913 -0.5283 -1.8840 -0.1133
 6751SOL    HW326777   1.498   6.096   4.836 -0.6133 -0.9906  0.7044
 6751SOL    MW426778   1.570   6.048   4.838 -0.0334  0.2942 -0.2693
 6752SOL     OW26779   2.366   5.247   5.132  0.3591 -0.3583  0.1863
 6752SOL    HW226780   2.372   5.326   5.187  0.5536 -0.3258  0.1188
 6752SOL    HW326781   2.286   5.259   5.082 -0.2231 -0.7286  0.9992
 6752SOL    MW426782   2.356   5.259   5.133  0.7217 -1.0743 -0.0755
 6753SOL     OW26783   0.681   4.015   4.990 -0.4614  0.0813  0.3575
 6753SOL    HW226784   0.595   4.057   4.980  0.1362  0.8850 -2.1207
 6753SOL    HW326785   0.714   4.046   5.074 -1.2113  2.4156 -0.1528
 6753SOL    MW426786   0.674   4.024   5.000  0.6306 -0.5031 -0.4213
 6754SOL     OW26787   5.420   3.622   0.122  0.4680 -0.1146 -0.5169
 6754SOL    HW226788   5.476   3.582   0.188 -0.6013  0.0356  0.5232
 6754SOL    HW326789   5.465   3.605   0.039  1.4058 -1.0760  0.1530
 6754SOL    MW426790   5.433   3.614   0.120 -0.1976  0.1592  0.2705
 6755SOL     OW26791   4.112   2.727   5.814 -0.0910  0.0966  0.4761
 6755SOL    HW226792   4.085   2.800   5.758 -2.6030 -0.9232  0.1877
 6755SOL    HW326793   4.120   2.652   5.754  0.3116 -0.3325  1.0538
 6755SOL    MW426794   4.109   2.726   5.799 -0.0750  0.0184 -0.1138
 6756SOL     OW26795   3.580   3.943   5.796  0.1293  0.7087  0.3071
 6756SOL    HW226796   3.671   3.971   5.800  0.4788 -0.2381 -0.6860
 6756SOL    HW326797   3.543   3.991   5.723  0.1580  0.1883 -0.0508
 6756SOL    MW426798   3.587   3.953   5.787 -0.2765 -0.4010  0.0669
 6757SOL     OW26799   2.322   1.316   3.902  0.1147  0.6202 -0.3990
 6757SOL    HW226800   2.375   1.341   3.977 -1.6793  1.1514  0.7472
 6757SOL    HW326801   2.348   1.226   3.883  1.6032  0.9618 -0.0754
 6757SOL    MW426802   2.332   1.307   3.909 -0.3848 -0.2811  0.0532
 6758SOL     OW26803   0.160   5.011   3.112  0.1652 -0.0703 -1.0170
 6758SOL    HW226804   0.165   5.041   3.021  0.5123 -3.3979 -2.2343
 6758SOL    HW326805   0.250   4.995   3.137  0.0685  0.8202 -0.0270
 6758SOL    MW426806   0.172   5.013   3.103  0.2839 -0.3331 -0.1505
 6759SOL     OW26807   2.973   3.238   3.210  0.7621 -0.1558 -0.4759
 6759SOL    HW226808   3.005   3.226   3.120  0.1192 -2.9216 -0.4161
 6759SOL    HW326809   2.939   3.152   3.235 -2.0976  1.3173  1.2669
 6759SOL    MW426810   2.973   3.225   3.201 -0.1297  0.0398 -0.3038
 6760SOL     OW26811   4.155   5.128   4.482 -0.5198  0.1529  0.1825
 6760SOL    HW226812   4.238   5.080   4.477  0.4802  1.8501 -0.6737
 6760SOL    HW326813   4.107   5.100   4.404  0.0108  0.4354 -0.2563
 6760SOL    MW426814   4.160   5.118   4.471 -0.2232 -0.2036 -0.1053
 6761SOL     OW26815   0.601   4.971   5.487  0.1436  0.4818 -0.1614
 6761SOL    HW226816   0.690   4.935   5.493 -0.7269 -1.7147  1.1991
 6761SOL    HW326817   0.581   4.971   5.394  1.2164  0.0340 -0.4059
 6761SOL    MW426818   0.610   4.966   5.476  0.2657  0.1667  0.2219
 6762SOL     OW26819   2.098   3.629   1.906 -0.3151  0.0478 -0.0198
 6762SOL    HW226820   2.129   3.589   1.825  1.2767  1.2087 -0.0332
 6762SOL    HW326821   2.121   3.566   1.974  0.5726  0.1463 -0.2226
 6762SOL    MW426822   2.105   3.615   1.904  0.0485 -0.7243  0.6652
 6763SOL     OW26823   5.211   1.535   3.108 -0.1252 -0.0815  0.2430
 6763SOL    HW226824   5.304   1.555   3.114 -0.4741  2.3190 -1.0548
 6763SOL    HW326825   5.178   1.548   3.196  0.6801 -0.4861  0.6130
 6763SOL    MW426826   5.219   1.539   3.120  0.0188  0.4321  0.0667
 6764SOL     OW26827   5.626   3.271   0.623 -0.0294  0.1380 -0.3782
 6764SOL    HW226828   5.561   3.200   0.616  2.1315 -2.1419  0.8039
 6764SOL    HW326829   5.663   3.260   0.711  1.4700  1.7825 -0.7520
 6764SOL    MW426830   5.622   3.260   0.634  0.5229  1.1391  0.7435
 6765SOL     OW26831   0.478   0.894   0.243 -0.2327  0.5680  0.3212
 6765SOL    HW226832   0.509   0.858   0.160 -1.3710 -0.9545  0.5113
 6765SOL    HW326833   0.518   0.837   0.309 -1.4602  0.0945  0.6762
 6765SOL    MW426834   0.488   0.881   0.241 -0.5416  0.4157 -0.1361
 6766SOL     OW26835   4.927   3.608   0.858 -0.5178 -0.2194  0.3936
 6766SOL    HW226836   4.986   3.532   0.860  0.7511  0.7188 -0.2966
 6766SOL    HW326837   4.938   3.649   0.943  0.1134  0.1512  0.1401
 6766SOL    MW426838   4.936   3.603   0.869 -0.0151 -0.1651 -0.0078
 6767SOL     OW26839   4.086   3.625   2.684 -0.3232 -0.1458  0.3961
 6767SOL    HW226840   4.013   3.687   2.684 -1.2579 -1.1884  2.1042
 6767SOL    HW326841   4.143   3.653   2.756  0.1299 -0.2996  0.1080
 6767SOL    MW426842   4.084   3.637   2.693 -0.6368 -0.2602 -0.0544
 6768SOL     OW26843   2.867   0.037   4.823  0.0102 -0.3238 -0.3621
 6768SOL    HW226844   2.928  -0.019   4.776 -0.7023 -0.2245 -1.4184
 6768SOL    HW326845   2.921   0.078   4.891  1.3257  0.3994 -1.7718
 6768SOL    MW426846   2.882   0.035   4.826 -0.3284  0.1017 -0.6197
 6769SOL     OW26847   6.161   2.895   3.924 -0.4900  0.0470 -0.6150
 6769SOL    HW226848   6.210   2.977   3.915  1.9704 -0.9129  2.2584
 6769SOL    HW326849   6.157   2.859   3.835  1.3983  1.6568 -1.4203
 6769SOL    MW426850   6.167   2.901   3.911 -0.3406 -0.4101  0.1507
 6770SOL     OW26851   0.840   5.396   0.043 -0.2524 -0.3273 -0.4223
 6770SOL    HW226852   0.905   5.326   0.047  1.4370  1.2201  1.0725
 6770SOL    HW326853   0.851   5.433  -0.045 -1.4720 -2.1198 -1.3982
 6770SOL    MW426854   0.850   5.392   0.032 -0.2259  0.2927 -0.8486
 6771SOL     OW26855   5.529   0.150   6.104  0.7250 -0.3321  0.2993
 6771SOL    HW226856   5.582   0.148   6.024 -1.0893 -1.3844 -0.9475
 6771SOL    HW326857   5.505   0.242   6.115  0.7218 -0.2276 -0.5449
 6771SOL    MW426858   5.533   0.162   6.095 -0.0596  0.0679  0.2764
 6772SOL     OW26859   5.502   2.359   1.439  0.4834  0.1101  0.2778
 6772SOL    HW226860   5.433   2.386   1.379 -0.1759 -2.3550 -0.2170
 6772SOL    HW326861   5.455   2.313   1.509  1.5394 -0.7088  0.4744
 6772SOL    MW426862   5.487   2.356   1.441  0.1192 -0.2200 -0.0407
 6773SOL     OW26863   2.598   2.876   0.014  0.1324  0.1621  0.3915
 6773SOL    HW226864   2.538   2.918   0.075  0.6404  0.6687  0.5523
 6773SOL    HW326865   2.601   2.784   0.042 -1.6801 -0.2185 -0.5180
 6773SOL    MW426866   2.590   2.869   0.025 -0.3018  0.5981  0.4723
 6774SOL     OW26867   4.067   5.841   0.763  0.3030  0.7996  0.3611
 6774SOL    HW226868   4.027   5.907   0.706  0.2478  0.4840  0.0265
 6774SOL    HW326869   4.022   5.760   0.740  0.5267  0.6022  0.6106
 6774SOL    MW426870   4.056   5.839   0.752 -0.0169 -0.2341 -0.0770
 6775SOL     OW26871   1.435   4.838   1.376  0.1132 -0.2443  0.5376
 6775SOL    HW226872   1.389   4.912   1.415  0.3644 -0.0239  0.4180
 6775SOL    HW326873   1.366   4.773   1.360 -0.2065  0.2077  0.0644
 6775SOL    MW426874   1.420   4.839   1.379  0.3748 -0.2994 -0.3056
 6776SOL     OW26875   2.970   4.265   4.631  0.1403 -0.3331  0.0953
 6776SOL    HW226876   2.883   4.279   4.670 -1.0836 -4.5995 -0.5931
 6776SOL    HW326877   2.999   4.181   4.667  2.7324 -0.4314 -1.9140
 6776SOL    MW426878   2.962   4.255   4.641 -0.4683 -0.0616 -0.7633
 6777SOL     OW26879   4.596   0.019   3.155 -0.4931 -0.4502 -0.2039
 6777SOL    HW226880   4.577  -0.075   3.152 -0.2312 -0.5646  1.1327
 6777SOL    HW326881   4.545   0.051   3.230  0.9027  0.0945  0.5598
 6777SOL    MW426882   4.587   0.011   3.165 -0.0724 -1.1199 -0.2265
 6778SOL     OW26883   0.158   4.860   2.132 -0.2547 -0.1438 -0.2109
 6778SOL    HW226884   0.112   4.904   2.061 -0.3135 -1.0437 -0.7405
 6778SOL    HW326885   0.250   4.863   2.107 -0.0462  1.2593  0.6325
 6778SOL    MW426886   0.164   4.866   2.120 -0.1759  0.2150  0.2441
 6779SOL     OW26887   5.440   2.886   4.314  0.2389 -0.0364  0.0397
 6779SOL    HW226888   5.495   2.962   4.334 -0.6583  0.9649 -1.0994
 6779SOL    HW326889   5.364   2.895   4.371  0.7016 -0.7867  0.7948
 6779SOL    MW426890   5.438   2.897   4.324  0.2951 -0.1208  0.4861
 6780SOL     OW26891   0.875   6.360   2.351  0.0256 -0.0746  0.0658
 6780SOL    HW226892   0.793   6.311   2.356 -0.8390  1.4262  1.6994
 6780SOL    HW326893   0.868   6.409   2.269 -0.3682 -0.4946 -0.1604
 6780SOL    MW426894   0.863   6.360   2.341 -0.4671  0.6509 -0.3360
 6781SOL     OW26895   4.239   4.556   4.736 -0.4112 -0.4326  0.4816
 6781SOL    HW226896   4.313   4.527   4.788 -0.6286  1.2839  1.8516
 6781SOL    HW326897   4.196   4.622   4.790 -0.1422  2.1412 -2.1725
 6781SOL    MW426898   4.243   4.561   4.750 -0.1417  0.3336  0.1196
 6782SOL     OW26899   2.572   1.108   2.657 -0.2304  0.4757  0.1472
 6782SOL    HW226900   2.517   1.068   2.589  1.0493  2.2716 -2.0657
 6782SOL    HW326901   2.657   1.065   2.648 -0.7151 -1.1364  2.4727
 6782SOL    MW426902   2.576   1.097   2.647  0.1470  0.1097 -0.0142
 6783SOL     OW26903   2.380   3.674   3.847 -0.3673 -0.2438 -0.0837
 6783SOL    HW226904   2.320   3.632   3.785 -0.9913  1.3036 -0.5630
 6783SOL    HW326905   2.432   3.602   3.882 -0.1638 -1.1960 -2.2070
 6783SOL    MW426906   2.379   3.659   3.843  0.7400  0.4111 -0.2428
 6784SOL     OW26907   5.257   0.406   2.259  0.7536  0.2038 -0.2001
 6784SOL    HW226908   5.205   0.327   2.276  0.7053  0.0024 -1.2159
 6784SOL    HW326909   5.312   0.416   2.336 -0.4639  0.1520  0.7001
 6784SOL    MW426910   5.257   0.397   2.271 -0.0901 -0.5394  0.3860
 6785SOL     OW26911   4.582   4.052   0.334  0.3567 -0.2437  0.5920
 6785SOL    HW226912   4.607   4.088   0.249  0.2346  0.4098  0.8324
 6785SOL    HW326913   4.635   3.973   0.343 -0.2394 -0.7866 -0.4679
 6785SOL    MW426914   4.592   4.046   0.324  0.5718 -0.0991 -0.0248
 6786SOL     OW26915   6.371   0.397   2.566 -0.8583 -0.0274  0.8045
 6786SOL    HW226916   6.414   0.336   2.507  0.4362 -0.0759  1.7555
 6786SOL    HW326917   6.442   0.442   2.611 -1.7976  0.4723  1.8544
 6786SOL    MW426918   6.386   0.395   2.564 -0.1003 -0.1334  0.4986
 6787SOL     OW26919   2.512   6.121   4.940 -0.2145 -0.4643  0.3117
 6787SOL    HW226920   2.581   6.067   4.899  0.2470  0.8908 -0.7939
 6787SOL    HW326921   2.538   6.127   5.032  0.0752 -1.5768  0.3182
 6787SOL    MW426922   2.525   6.114   4.946 -0.3284 -0.0930  0.3706
 6788SOL     OW26923   2.189   5.278   5.812 -0.0880  0.3367 -0.4230
 6788SOL    HW226924   2.212   5.341   5.743  1.6121 -1.5268 -1.6483
 6788SOL    HW326925   2.139   5.210   5.767 -0.0986 -0.2391  0.4366
 6788SOL    MW426926   2.185   5.278   5.797  0.6973 -0.3040  0.0560
 6789SOL     OW26927   4.233   3.830   2.064 -0.1290 -0.3075  0.2279
 6789SOL    HW226928   4.258   3.741   2.040 -1.2960 -0.5150 -0.2907
 6789SOL    HW326929   4.140   3.824   2.087 -0.3487  0.8508 -0.2602
 6789SOL    MW426930   4.224   3.818   2.064  0.1353 -0.2231 -0.1463
 6790SOL     OW26931   4.875   5.897   4.831  0.0129 -0.6100 -0.2093
 6790SOL    HW226932   4.802   5.946   4.794 -1.5987 -1.2017  1.9328
 6790SOL    HW326933   4.912   5.955   4.897  1.8621 -0.1241 -1.6173
 6790SOL    MW426934   4.870   5.911   4.835 -0.3908 -0.2817  0.0749
 6791SOL     OW26935   4.863   0.120   3.196  0.0598  0.4310 -0.1316
 6791SOL    HW226936   4.865   0.215   3.201 -1.6270  0.4812  0.3185
 6791SOL    HW326937   4.771   0.099   3.178  0.5430 -1.0829 -0.9970
 6791SOL    MW426938   4.851   0.129   3.195 -0.5421  0.3525 -0.0381
 6792SOL     OW26939   1.563   0.428   0.988 -0.7746  0.5832 -0.0345
 6792SOL    HW226940   1.513   0.478   1.052 -2.0563 -1.4463  0.6562
 6792SOL    HW326941   1.605   0.359   1.040  0.7669  0.7619 -0.9692
 6792SOL    MW426942   1.562   0.425   1.003 -0.4634  0.1699 -0.1728
 6793SOL     OW26943   1.819   5.916   4.210  0.5631  0.1110  0.4175
 6793SOL    HW226944   1.784   5.864   4.283  0.5083 -1.3801 -0.6273
 6793SOL    HW326945   1.861   5.991   4.252  1.6580 -1.3501  2.0666
 6793SOL    MW426946   1.820   5.919   4.226 -0.0003  0.5190 -0.0234
 6794SOL     OW26947   3.727   5.724   4.319 -0.7036 -0.3542  0.0912
 6794SOL    HW226948   3.708   5.642   4.364  2.0946 -1.5816 -0.7438
 6794SOL    HW326949   3.695   5.711   4.230  1.2161 -1.2854 -0.5138
 6794SOL    MW426950   3.720   5.711   4.313 -0.5068 -0.1337 -0.0654
 6795SOL     OW26951   1.287   5.514   0.416 -0.2234 -0.8568  0.2774
 6795SOL    HW226952   1.318   5.559   0.495 -0.5188 -1.9552  1.0331
 6795SOL    HW326953   1.229   5.577   0.374 -2.7016 -1.3548  2.6569
 6795SOL    MW426954   1.284   5.528   0.421 -0.5104 -0.0894 -0.0882
 6796SOL     OW26955   0.804   2.326   1.713  0.2037 -0.0948  0.7057
 6796SOL    HW226956   0.801   2.255   1.649  0.6532  0.2966  0.2506
 6796SOL    HW326957   0.722   2.374   1.699  0.7237  0.5348 -0.2022
 6796SOL    MW426958   0.793   2.323   1.703 -0.4380 -0.3874  0.0307
 6797SOL     OW26959   0.981   0.142   5.002 -0.1303  0.3996  0.0212
 6797SOL    HW226960   0.972   0.237   4.991 -0.8254  0.4167  0.6925
 6797SOL    HW326961   1.048   0.132   5.069  1.0153  0.3736 -1.0920
 6797SOL    MW426962   0.988   0.153   5.009 -0.6438 -0.2489 -0.3500
 6798SOL     OW26963   0.410   2.564   5.141  0.2461 -0.2406 -0.0725
 6798SOL    HW226964   0.371   2.651   5.135 -1.5447 -0.9996 -0.0631
 6798SOL    HW326965   0.487   2.575   5.198  0.0576  1.3170 -0.0942
 6798SOL    MW426966   0.415   2.577   5.148 -0.3948 -0.1834 -0.1607
 6799SOL     OW26967   0.318   0.463   6.222  0.0923 -0.0129 -0.2441
 6799SOL    HW226968   0.290   0.452   6.313  0.3406  1.0695 -0.0297
 6799SOL    HW326969   0.251   0.418   6.171 -0.5120  0.1175  0.4242
 6799SOL    MW426970   0.306   0.456   6.227 -0.0366 -0.4919 -0.2346
 6800SOL     OW26971   3.916   1.224   6.215  0.6792  0.2523 -0.0711
 6800SOL    HW226972   3.836   1.245   6.264  0.7827  0.0924  0.1683
 6800SOL    HW326973   3.944   1.308   6.178 -0.2212  0.1292 -1.1038
 6800SOL    MW426974   3.909   1.238   6.216 -0.3518 -0.0649  0.0975
 6801SOL     OW26975   6.282   6.156   0.448  0.0582  0.2267 -0.0210
 6801SOL    HW226976   6.347   6.137   0.516 -1.3865 -0.9527  1.1149
 6801SOL    HW326977   6.332   6.160   0.367  1.5287 -0.8188  0.7819
 6801SOL    MW426978   6.297   6.154   0.447  0.3181  0.0915  1.0055
 6802SOL     OW26979   2.737   0.731   3.366  0.0060  0.0894 -0.2041
 6802SOL    HW226980   2.663   0.694   3.414  0.1006  3.2150  2.7923
 6802SOL    HW326981   2.815   0.693   3.407  0.0796 -0.3644 -0.7603
 6802SOL    MW426982   2.738   0.721   3.378 -0.3364 -0.3105  0.5529
 6803SOL     OW26983   3.169   1.515   3.655 -0.2125 -0.2193 -0.1381
 6803SOL    HW226984   3.126   1.458   3.591  0.0758  0.4004 -0.8966
 6803SOL    HW326985   3.259   1.524   3.624  0.3135 -0.9681  1.0825
 6803SOL    MW426986   3.175   1.509   3.642  0.2035  0.3100 -0.6122
 6804SOL     OW26987   0.924   2.398   6.146  0.0561  0.0991 -0.4365
 6804SOL    HW226988   0.990   2.427   6.083  0.8876 -1.9771 -0.5968
 6804SOL    HW326989   0.961   2.421   6.231  0.3783  0.1256 -0.5817
 6804SOL    MW426990   0.938   2.405   6.149  0.1723 -0.6852  0.1333
 6805SOL     OW26991   0.861   4.443   4.398  0.3512 -0.0158  0.5248
 6805SOL    HW226992   0.890   4.416   4.311 -0.0246 -1.0386  0.7093
 6805SOL    HW326993   0.812   4.368   4.432 -0.3573  0.7450  1.2262
 6805SOL    MW426994   0.859   4.430   4.391 -0.1192 -0.2455 -0.0526
 6806SOL     OW26995   6.360   1.612   3.296 -0.0115  0.1834  0.3689
 6806SOL    HW226996   6.428   1.555   3.259 -0.9458 -0.5495 -0.2647
 6806SOL    HW326997   6.294   1.552   3.330 -0.5714  0.8842  0.5555
 6806SOL    MW426998   6.360   1.597   3.296 -0.1993 -0.0000  0.2879
 6807SOL     OW26999   3.556   6.323   6.255  1.0387 -0.0056 -0.2616
 6807SOL    HW227000   3.537   6.412   6.226 -0.3420 -0.7106 -1.6565
 6807SOL    HW327001   3.531   6.267   6.182 -0.0971 -1.6954  1.3050
 6807SOL    MW427002   3.550   6.327   6.242  0.4193  0.2287 -0.7475
 6808SOL     OW27003   1.274   1.352   1.391 -0.2453  0.3358 -0.0507
 6808SOL    HW227004   1.301   1.315   1.475 -0.7225  0.1852  0.0423
 6808SOL    HW327005   1.192   1.306   1.370 -1.1253  1.7086  0.3098
 6808SOL    MW427006   1.267   1.341   1.399 -0.2965 -0.1998 -0.0014
 6809SOL     OW27007   5.838   5.541   5.794  0.0420 -0.1345 -0.2214
 6809SOL    HW227008   5.813   5.583   5.876 -3.5613 -2.3179  0.0063
 6809SOL    HW327009   5.927   5.509   5.810 -0.8032 -1.1820  3.2048
 6809SOL    MW427010   5.847   5.542   5.807  0.1048  0.1646  0.5807
 6810SOL     OW27011   3.653   0.689   1.219 -0.3380  0.4088 -0.0363
 6810SOL    HW227012   3.589   0.675   1.150 -1.9617  0.9891  1.2824
 6810SOL    HW327013   3.601   0.699   1.299  1.3583  1.4964  1.0035
 6810SOL    MW427014   3.638   0.689   1.221 -0.2937 -0.1669 -0.3319
 6811SOL     OW27015   2.294   1.081   2.160 -0.0005 -0.2916 -0.0766
 6811SOL    HW227016   2.284   0.986   2.154 -1.0378 -0.1107 -2.5355
 6811SOL    HW327017   2.206   1.112   2.182 -1.2990  0.2971 -4.8672
 6811SOL    MW427018   2.281   1.072   2.162 -0.2833  0.0020 -0.2052
 6812SOL     OW27019   0.635   0.637   2.667 -0.2183 -0.4947 -0.0436
 6812SOL    HW227020   0.653   0.653   2.574 -0.9865  0.9437  0.0239
 6812SOL    HW327021   0.673   0.713   2.712 -0.3950 -0.8724  0.7655
 6812SOL    MW427022   0.642   0.649   2.661  0.4674 -0.5349 -0.8915
 6813SOL     OW27023   0.309   5.282   0.942  0.2691 -0.0744 -0.3453
 6813SOL    HW227024   0.298   5.202   0.892  0.9970  0.2350 -1.0358
 6813SOL    HW327025   0.366   5.337   0.887 -2.7251  2.2345 -1.4288
 6813SOL    MW427026   0.315   5.279   0.928 -1.2454  0.1642  0.4319
 6814SOL     OW27027   3.457   4.728   3.806 -0.3327  0.2974  0.3124
 6814SOL    HW227028   3.511   4.679   3.744 -0.7405 -0.3539  0.4677
 6814SOL    HW327029   3.520   4.765   3.868  0.2598  2.3483 -1.3904
 6814SOL    MW427030   3.472   4.726   3.806  0.1915 -0.1705  0.1439
 6815SOL     OW27031   5.355   6.108   3.964  0.4869  0.1299  0.3607
 6815SOL    HW227032   5.388   6.162   4.036  2.4172 -0.5813  0.0909
 6815SOL    HW327033   5.415   6.033   3.961 -0.6084 -0.7490 -0.8614
 6815SOL    MW427034   5.368   6.105   3.973  0.3280 -0.2329 -0.0336
 6816SOL     OW27035   3.414   5.885   3.319  0.3914 -0.3088 -0.2628
 6816SOL    HW227036   3.438   5.794   3.305  0.4131 -0.4610  0.6882
 6816SOL    HW327037   3.350   5.882   3.390  2.3745  0.6059  1.7000
 6816SOL    MW427038   3.409   5.873   3.326  0.3532 -0.0281  0.0663
 6817SOL     OW27039   0.115   0.784   0.753  0.2769 -0.4400  0.0715
 6817SOL    HW227040   0.020   0.798   0.755  0.3388  0.4229 -1.4914
 6817SOL    HW327041   0.125   0.689   0.745 -0.4137 -0.6132  1.0303
 6817SOL    MW427042   0.103   0.773   0.752 -0.2791  0.1159  0.1286
 6818SOL     OW27043   0.822   2.923   5.051  0.0174 -0.0047  0.3760
 6818SOL    HW227044   0.889   2.964   5.106 -0.0649  0.7185 -0.0490
 6818SOL    HW327045   0.752   2.898   5.112  1.2964 -2.1808  1.0668
 6818SOL    MW427046   0.822   2.925   5.067  0.2242 -0.3475 -0.5857
 6819SOL     OW27047   0.027   0.617   6.216 -0.0770 -0.1129  0.1932
 6819SOL    HW227048   0.028   0.679   6.289 -0.8452 -0.5996  0.6344
 6819SOL    HW327049  -0.055   0.634   6.171 -0.1740 -0.6333  0.1654
 6819SOL    MW427050   0.017   0.628   6.220  0.1670 -0.3111  0.1487
 6820SOL     OW27051   0.459   1.308   3.193 -0.5131  0.0349 -0.1658
 6820SOL    HW227052   0.426   1.383   3.242 -1.3169  0.2660 -1.0308
 6820SOL    HW327053   0.384   1.276   3.143 -0.2954 -1.6078  0.4721
 6820SOL    MW427054   0.445   1.313   3.193 -0.3704  0.1459  0.3946
 6821SOL     OW27055   6.010   0.837   0.616  0.1166 -0.5958  0.2450
 6821SOL    HW227056   6.041   0.767   0.558  1.3480 -1.2751  1.6429
 6821SOL    HW327057   5.975   0.904   0.557  0.4413 -1.6695 -1.2124
 6821SOL    MW427058   6.010   0.837   0.600 -0.2501  0.3485 -0.3274
 6822SOL     OW27059   6.199   5.068   1.505  0.0900 -0.0150  0.1703
 6822SOL    HW227060   6.280   5.085   1.553  0.5234 -0.6457 -0.3116
 6822SOL    HW327061   6.156   5.153   1.499  0.0227  0.0842  1.6523
 6822SOL    MW427062   6.204   5.082   1.510 -0.3015  0.1970 -0.3278
 6823SOL     OW27063   3.179   3.917   2.407 -0.0264 -0.1248 -0.0088
 6823SOL    HW227064   3.090   3.954   2.400  0.8952  2.0064 -1.8626
 6823SOL    HW327065   3.220   3.967   2.477  0.1496 -0.0561 -0.1593
 6823SOL    MW427066   3.172   3.928   2.415 -0.1989  0.2163  0.5892
 6824SOL     OW27067   0.484   0.712   1.194 -0.7456  0.2292 -0.7405
 6824SOL    HW227068   0.441   0.672   1.270  0.1005  3.4235  1.6576
 6824SOL    HW327069   0.412   0.738   1.137 -1.5198 -0.6351 -0.1990
 6824SOL    MW427070   0.469   0.710   1.197 -0.0699 -0.4083 -0.0590
 6825SOL     OW27071   4.637   1.066   4.463 -0.1012  0.0337  0.0714
 6825SOL    HW227072   4.609   1.013   4.388  2.6389 -0.3396 -0.8246
 6825SOL    HW327073   4.584   1.145   4.458  0.0381  0.0513 -2.3227
 6825SOL    MW427074   4.626   1.069   4.453 -0.1179 -0.0276 -0.2079
 6826SOL     OW27075   1.198   3.217   2.956  0.2002  0.2590 -1.0357
 6826SOL    HW227076   1.192   3.141   3.013 -1.6631  1.0484 -0.1007
 6826SOL    HW327077   1.218   3.181   2.870 -0.9398 -1.3416 -0.6704
 6826SOL    MW427078   1.200   3.202   2.952 -0.0695  0.1161 -0.0195
 6827SOL     OW27079   6.410   1.796   5.503 -0.0231 -0.3193 -0.0911
 6827SOL    HW227080   6.440   1.723   5.449 -0.2247 -0.1583 -0.4221
 6827SOL    HW327081   6.439   1.874   5.456  1.6517 -0.1838  1.0837
 6827SOL    MW427082   6.418   1.797   5.490 -0.1631 -0.6167  0.4277
 6828SOL     OW27083   5.297   3.578   3.044  0.5658 -0.4219 -0.2801
 6828SOL    HW227084   5.374   3.575   2.986  0.8898  1.0499  0.0438
 6828SOL    HW327085   5.244   3.503   3.016  0.4849  0.4683 -2.8311
 6828SOL    MW427086   5.300   3.568   3.032 -0.0813 -0.1461 -0.3646
 6829SOL     OW27087   0.403   0.806   5.911 -0.3190  0.4819  0.3068
 6829SOL    HW227088   0.313   0.789   5.940 -0.1756  1.7621  1.6052
 6829SOL    HW327089   0.394   0.827   5.818 -1.2475 -0.2126  0.2239
 6829SOL    MW427090   0.390   0.807   5.902 -0.0362  0.0294 -0.7057
 6830SOL     OW27091   0.267   5.655   1.491 -0.1901  0.7944 -0.4484
 6830SOL    HW227092   0.181   5.661   1.449 -0.0857  0.4592 -0.7082
 6830SOL    HW327093   0.328   5.636   1.419 -0.1584 -0.9595 -0.0039
 6830SOL    MW427094   0.264   5.654   1.476 -0.3155 -0.0366  0.3673
 6831SOL     OW27095   4.399   3.626   4.510 -0.2902  0.3976  0.0070
 6831SOL    HW227096   4.396   3.609   4.416  1.1867 -0.1361  0.0286
 6831SOL    HW327097   4.315   3.667   4.530 -1.4047 -1.1741 -1.2003
 6831SOL    MW427098   4.388   3.629   4.500  0.9367 -0.1597  0.2738
 6832SOL     OW27099   1.300   3.186   3.279 -0.2673 -0.0058 -0.0115
 6832SOL    HW227100   1.323   3.115   3.219 -1.5177 -0.5953  0.1717
 6832SOL    HW327101   1.380   3.238   3.286  0.4057 -0.8793 -0.8592
 6832SOL    MW427102   1.314   3.183   3.272 -0.3552  0.0782  0.5102
 6833SOL     OW27103   3.426   3.802   2.926  0.4762  0.6504  0.3133
 6833SOL    HW227104   3.405   3.860   2.999  0.0527  0.7168  0.1425
 6833SOL    HW327105   3.426   3.714   2.964 -0.0682  0.6534  0.3332
 6833SOL    MW427106   3.423   3.798   2.941  0.4836 -0.3167  0.2913
 6834SOL     OW27107   6.007   4.509   1.494  0.1038  0.3072  0.1844
 6834SOL    HW227108   6.048   4.553   1.568 -0.8343 -1.4395  1.8102
 6834SOL    HW327109   6.074   4.510   1.426  1.3529  1.0834  1.3685
 6834SOL    MW427110   6.021   4.515   1.495 -0.2594  0.3809  0.4847
 6835SOL     OW27111   3.306   5.163   3.813  0.0145 -0.3844  0.0020
 6835SOL    HW227112   3.228   5.179   3.761 -0.3853  1.0919  0.9889
 6835SOL    HW327113   3.344   5.083   3.776 -1.4725 -0.6390 -1.0476
 6835SOL    MW427114   3.301   5.154   3.801  0.0628 -0.0546 -0.7159
 6836SOL     OW27115   0.291   5.118   5.379 -0.1051 -0.1092 -0.0817
 6836SOL    HW227116   0.277   5.033   5.337 -1.5238  0.5124 -0.9404
 6836SOL    HW327117   0.212   5.168   5.359  0.4803  1.2495  0.8407
 6836SOL    MW427118   0.278   5.113   5.371  0.3816  0.3037  0.1315
 6837SOL     OW27119   1.551   5.704   6.226 -0.3010  0.0618  0.4711
 6837SOL    HW227120   1.557   5.720   6.321 -0.5854  2.2865  0.1687
 6837SOL    HW327121   1.636   5.729   6.192 -0.3953 -0.1728  0.0588
 6837SOL    MW427122   1.563   5.709   6.234  0.1563  0.8433  0.2585
 6838SOL     OW27123   5.486   4.189   3.639  0.3004  0.2608  0.1081
 6838SOL    HW227124   5.444   4.109   3.608 -1.5009  1.1926  0.0089
 6838SOL    HW327125   5.573   4.188   3.599 -0.0183 -1.1950 -0.5997
 6838SOL    MW427126   5.492   4.179   3.629  0.0054  0.2428 -0.5951
 6839SOL     OW27127   4.625   0.539   2.464  0.3129  0.2245  0.1242
 6839SOL    HW227128   4.635   0.574   2.376 -0.7564  0.4416  0.0714
 6839SOL    HW327129   4.550   0.480   2.458  2.1009 -2.1537  0.2100
 6839SOL    MW427130   4.616   0.536   2.452 -0.1646 -0.2123 -0.1573
 6840SOL     OW27131   0.182   3.098   2.106  0.3357 -0.0997 -0.3193
 6840SOL    HW227132   0.153   3.176   2.059  1.5530 -0.5809 -2.0179
 6840SOL    HW327133   0.123   3.029   2.077 -0.0556 -0.0357  0.3178
 6840SOL    MW427134   0.171   3.099   2.096 -0.2131 -0.5133  0.1100
 6841SOL     OW27135   0.818   1.974   2.072 -0.2337  0.2126  0.2200
 6841SOL    HW227136   0.842   1.941   2.159 -0.3461 -0.4186  0.0203
 6841SOL    HW327137   0.722   1.973   2.071 -0.2474 -1.3729 -0.4713
 6841SOL    MW427138   0.809   1.969   2.083  0.0516  0.2452  0.2137
 6842SOL     OW27139   3.833   3.043   4.081 -0.2720  0.4138  0.2447
 6842SOL    HW227140   3.784   2.994   4.147 -0.1452  0.9230  0.7227
 6842SOL    HW327141   3.838   2.984   4.006 -0.9150  0.0452  0.4838
 6842SOL    MW427142   3.827   3.029   4.080  0.0127 -0.3104  0.3351
 6843SOL     OW27143   0.814   1.618   4.158 -0.2546 -0.8828  0.3851
 6843SOL    HW227144   0.876   1.663   4.101 -1.2532 -1.6040 -1.3497
 6843SOL    HW327145   0.730   1.626   4.113 -1.3363 -0.4351  2.3855
 6843SOL    MW427146   0.811   1.625   4.144 -0.0129 -0.5923  0.2743
 6844SOL     OW27147   3.794   4.269   0.199 -0.2413 -0.3904 -0.1232
 6844SOL    HW227148   3.778   4.182   0.161 -0.0970 -0.2988 -0.4018
 6844SOL    HW327149   3.850   4.252   0.274 -0.7964 -0.6090  0.2492
 6844SOL    MW427150   3.799   4.255   0.204 -0.5795 -0.4081  0.6639
 6845SOL     OW27151   0.843   2.232   2.186  0.4627  0.1157 -0.0802
 6845SOL    HW227152   0.833   2.150   2.139  1.2112 -0.0657  0.0563
 6845SOL    HW327153   0.855   2.298   2.118  1.8086 -0.1847 -0.1609
 6845SOL    MW427154   0.843   2.230   2.171  0.0121 -0.2771 -0.0223
 6846SOL     OW27155   4.195   5.921   1.336 -0.2321  0.6944  0.4103
 6846SOL    HW227156   4.210   5.868   1.414 -0.0619 -0.8770 -0.6401
 6846SOL    HW327157   4.275   5.912   1.285 -0.3409  1.6968  0.0356
 6846SOL    MW427158   4.207   5.913   1.340 -0.6116 -0.1113 -0.2437
 6847SOL     OW27159   1.507   2.427   5.239 -0.7429 -0.1028 -0.0891
 6847SOL    HW227160   1.595   2.393   5.224 -0.8808 -0.4998  0.0132
 6847SOL    HW327161   1.515   2.483   5.316 -1.0420 -1.9260  1.3100
 6847SOL    MW427162   1.520   2.430   5.247  0.3057  0.3924  0.5127
 6848SOL     OW27163   2.734   2.558   3.059  0.6675  0.5348 -0.1403
 6848SOL    HW227164   2.713   2.487   3.120 -0.3662  1.3176  0.4525
 6848SOL    HW327165   2.655   2.566   3.005 -0.0792  2.5358  1.1169
 6848SOL    MW427166   2.721   2.550   3.060 -0.4401  0.4565  0.1915
 6849SOL     OW27167   4.267   2.183   5.505  0.2540  0.1932  0.4896
 6849SOL    HW227168   4.279   2.261   5.560  0.4086  0.4692  0.0650
 6849SOL    HW327169   4.254   2.217   5.417 -1.1159 -0.1950  0.5159
 6849SOL    MW427170   4.267   2.198   5.501 -0.0261  0.2503 -0.4686
 6850SOL     OW27171   2.075   6.332   5.659  0.2677 -0.2402 -0.0977
 6850SOL    HW227172   2.035   6.375   5.734 -2.1200 -0.4958 -1.1591
 6850SOL    HW327173   2.061   6.392   5.585  1.1927 -0.6826 -0.6542
 6850SOL    MW427174   2.068   6.345   5.659  0.2884  0.1232  0.4936
 6851SOL     OW27175   3.387   2.438   0.477  0.2327 -0.0767 -0.0417
 6851SOL    HW227176   3.449   2.377   0.437  0.4886  0.1621 -0.0174
 6851SOL    HW327177   3.310   2.435   0.421  0.1506 -0.6078  0.1025
 6851SOL    MW427178   3.385   2.430   0.464 -0.0152  0.7148  0.0627
 6852SOL     OW27179   6.297   4.021   0.501 -0.0070  0.0222 -0.1272
 6852SOL    HW227180   6.345   3.939   0.513  0.0223 -0.3440 -2.3223
 6852SOL    HW327181   6.212   3.995   0.467  0.1166  0.8820 -1.1663
 6852SOL    MW427182   6.292   4.007   0.498  0.0604 -0.1192 -0.4829
 6853SOL     OW27183   0.466   1.239   4.586  0.3619  0.0033 -0.4128
 6853SOL    HW227184   0.467   1.186   4.507 -1.3838 -1.0442  0.2201
 6853SOL    HW327185   0.492   1.180   4.656  0.2859  0.4827  0.0323
 6853SOL    MW427186   0.469   1.224   4.585 -0.1343  0.2674  0.9640
 6854SOL     OW27187   4.379   4.982   3.976  0.4437 -0.0573  0.0055
 6854SOL    HW227188   4.422   5.067   3.988 -0.0485  0.3909 -1.2330
 6854SOL    HW327189   4.286   5.003   3.974  0.1705 -0.9266  1.9242
 6854SOL    MW427190   4.372   4.996   3.977  0.4261  0.4099 -0.2673
 6855SOL     OW27191   1.776   1.365   3.317 -0.1248  0.0365 -0.5637
 6855SOL    HW227192   1.819   1.383   3.400 -0.2253 -1.1031 -0.2402
 6855SOL    HW327193   1.768   1.450   3.274  1.7831  0.3690 -0.3212
 6855SOL    MW427194   1.781   1.379   3.323  0.2556  0.1107 -0.6551
 6856SOL     OW27195   3.781   2.918   1.133 -0.0898  0.2790 -0.2280
 6856SOL    HW227196   3.715   2.850   1.117  0.9177 -0.9084  0.4796
 6856SOL    HW327197   3.776   2.975   1.057 -0.5406 -0.9507 -1.1550
 6856SOL    MW427198   3.771   2.917   1.121 -0.5159  0.5753  0.6362
 6857SOL     OW27199   1.353   6.183   6.255 -0.5186  0.0905  0.2479
 6857SOL    HW227200   1.345   6.114   6.190  1.5807  0.2736 -0.2705
 6857SOL    HW327201   1.445   6.181   6.282 -0.4426  2.4749  0.4069
 6857SOL    MW427202   1.364   6.174   6.250 -0.3902  0.0583 -0.0760
 6858SOL     OW27203   6.130   2.218   4.220  0.1515 -0.4731  0.3989
 6858SOL    HW227204   6.166   2.291   4.271  2.9673 -1.3966 -0.0908
 6858SOL    HW327205   6.075   2.171   4.282 -1.2487  1.6479  0.8926
 6858SOL    MW427206   6.128   2.222   4.235  0.2016 -0.4098  0.2418
 6859SOL     OW27207   2.439   5.913   0.032 -0.4103 -0.3814  0.4844
 6859SOL    HW227208   2.389   5.986   0.069 -0.4125  0.0477 -0.3500
 6859SOL    HW327209   2.378   5.869  -0.027  0.1146  0.0304 -0.3909
 6859SOL    MW427210   2.425   5.917   0.029  0.4234  0.3038 -0.2418
 6860SOL     OW27211   2.879   1.869   1.876  0.2833  0.3222 -0.2134
 6860SOL    HW227212   2.874   1.782   1.837  3.0150 -0.1423  0.2734
 6860SOL    HW327213   2.895   1.928   1.802 -0.0111  0.2156 -0.3654
 6860SOL    MW427214   2.880   1.865   1.861  1.1240  0.1128 -0.3364
 6861SOL     OW27215   5.361   3.592   3.564 -0.0476 -0.2516  0.1880
 6861SOL    HW227216   5.447   3.551   3.551  0.0184 -0.0248 -0.0844
 6861SOL    HW327217   5.330   3.612   3.476 -0.5782 -0.7334  0.2615
 6861SOL    MW427218   5.368   3.589   3.551 -0.2364 -0.0808 -0.3793
 6862SOL     OW27219   3.749   4.396   4.113  0.6326  0.7068  0.3054
 6862SOL    HW227220   3.794   4.411   4.196  0.8743 -2.4492  0.8554
 6862SOL    HW327221   3.767   4.305   4.092 -2.7185  0.2351 -1.1730
 6862SOL    MW427222   3.757   4.386   4.121 -0.0056  0.4208  0.2320
 6863SOL     OW27223   6.156   2.206   0.724  0.3388  0.3780 -0.0868
 6863SOL    HW227224   6.171   2.279   0.664 -2.2310  0.0419 -1.2804
 6863SOL    HW327225   6.111   2.246   0.799 -0.7405  0.1078 -0.5763
 6863SOL    MW427226   6.152   2.221   0.726  0.7111 -0.0859 -0.2665
 6864SOL     OW27227   0.211   6.054   6.342  0.1484  0.2690 -0.2575
 6864SOL    HW227228   0.265   6.046   6.263 -0.9330  0.4007 -1.0314
 6864SOL    HW327229   0.122   6.062   6.309 -0.2812  0.7461  0.9794
 6864SOL    MW427230   0.206   6.054   6.327  0.8107 -0.6124  0.1403
 6865SOL     OW27231   5.006   5.770   0.014  0.0254 -0.5096 -0.0736
 6865SOL    HW227232   4.947   5.809  -0.050  0.1826 -1.1562 -0.6193
 6865SOL    HW327233   5.071   5.837   0.031 -1.0963  0.3870  0.8637
 6865SOL    MW427234   5.006   5.784   0.008  0.5303  0.3851 -0.1044
 6866SOL     OW27235   4.767   1.985   0.121  0.3443  0.1492 -0.2826
 6866SOL    HW227236   4.695   1.942   0.075  0.9083 -0.6901 -0.3999
 6866SOL    HW327237   4.728   2.013   0.205 -0.0352 -0.5768 -0.2094
 6866SOL    MW427238   4.752   1.983   0.126  0.4300 -0.8819  0.3037
 6867SOL     OW27239   2.112   0.458   6.271  0.1788  0.0260 -0.1539
 6867SOL    HW227240   2.043   0.432   6.210 -1.4018  0.5303  1.3307
 6867SOL    HW327241   2.138   0.546   6.242  1.2119 -0.6968 -1.5304
 6867SOL    MW427242   2.106   0.466   6.259  0.3018  0.0246 -0.5631
 6868SOL     OW27243   0.060   5.476   5.094  0.2513 -0.0327  0.4694
 6868SOL    HW227244   0.148   5.510   5.076 -0.3167  0.6495 -1.2682
 6868SOL    HW327245   0.067   5.382   5.080  0.4515  0.1642 -0.8930
 6868SOL    MW427246   0.072   5.468   5.090 -0.4097 -0.5411 -0.1113
 6869SOL     OW27247   0.352   1.702   2.268 -0.1353 -0.8339  0.6133
 6869SOL    HW227248   0.372   1.609   2.259 -2.7175 -1.2439 -2.4227
 6869SOL    HW327249   0.399   1.744   2.196  0.5046  0.1877  1.5836
 6869SOL    MW427250   0.361   1.695   2.258  0.4786  0.5732 -0.1083
 6870SOL     OW27251   3.067   5.376   0.339  0.2039  1.0060  0.1274
 6870SOL    HW227252   3.035   5.395   0.427 -1.4871  3.2603 -0.8750
 6870SOL    HW327253   2.988   5.367   0.286  1.1652 -0.9690 -1.0851
 6870SOL    MW427254   3.053   5.378   0.343 -0.2695 -0.5553 -0.0181
 6871SOL     OW27255   2.674   5.630   3.776 -0.2081  0.4742  0.3167
 6871SOL    HW227256   2.688   5.678   3.695  0.2420  0.6916  0.5174
 6871SOL    HW327257   2.751   5.652   3.830  1.6733 -2.8857 -0.7305
 6871SOL    MW427258   2.686   5.639   3.773 -0.3301  0.2797 -0.3459
 6872SOL     OW27259   1.642   3.482   4.476 -0.1333 -0.0929  0.5341
 6872SOL    HW227260   1.688   3.566   4.465  0.8623 -0.6297  0.4490
 6872SOL    HW327261   1.656   3.460   4.568  0.6842 -0.7487  0.2728
 6872SOL    MW427262   1.650   3.490   4.487  0.2356  0.8746 -0.3531
 6873SOL     OW27263   4.140   0.812   2.420 -0.2861 -0.5650 -0.2582
 6873SOL    HW227264   4.135   0.734   2.476  3.4504 -0.9888 -0.2329
 6873SOL    HW327265   4.094   0.880   2.469  1.7155 -1.2380  2.8959
 6873SOL    MW427266   4.134   0.810   2.434 -0.1734 -0.0085  0.1241
 6874SOL     OW27267   4.786   2.425   2.673 -0.4621 -0.0139  0.0626
 6874SOL    HW227268   4.867   2.413   2.721  0.3663 -1.8343 -1.6750
 6874SOL    HW327269   4.717   2.411   2.738  0.5873  0.2936  1.2791
 6874SOL    MW427270   4.787   2.422   2.688 -0.0448  0.4637 -0.4972
 6875SOL     OW27271   4.598   1.091   1.230  0.2101 -0.3085 -0.0577
 6875SOL    HW227272   4.667   1.144   1.269  0.6141 -1.6078  1.0733
 6875SOL    HW327273   4.554   1.150   1.169  2.2171  0.5931 -0.7271
 6875SOL    MW427274   4.601   1.106   1.227  0.6011  0.5968 -0.4570
 6876SOL     OW27275   3.887   1.945   0.809 -0.0771 -0.1107  1.2104
 6876SOL    HW227276   3.821   1.879   0.828  0.7934 -1.0917  0.9657
 6876SOL    HW327277   3.970   1.904   0.836  0.6838  0.1894 -0.5004
 6876SOL    MW427278   3.889   1.931   0.815  0.7430  0.3293 -0.0289
 6877SOL     OW27279   6.243   1.020   3.175 -0.8336  1.1921  0.7245
 6877SOL    HW227280   6.151   1.002   3.155 -0.8904  1.8975  0.3095
 6877SOL    HW327281   6.255   0.987   3.264 -1.2989  0.4691  0.5254
 6877SOL    MW427282   6.232   1.013   3.184  0.2175 -0.0812  0.5590
 6878SOL     OW27283   3.424   3.256   2.587 -0.3557  0.0496 -0.2068
 6878SOL    HW227284   3.437   3.219   2.500 -0.7894 -0.6685  0.0272
 6878SOL    HW327285   3.450   3.186   2.647 -0.3842  0.4197  0.2473
 6878SOL    MW427286   3.429   3.242   2.584  0.2164  0.1492  0.9410
 6879SOL     OW27287   1.403   0.276   5.124  0.6713  0.4176  0.6921
 6879SOL    HW227288   1.406   0.369   5.148  0.8185  0.2074  1.5285
 6879SOL    HW327289   1.445   0.231   5.198  0.8820 -0.2877  0.1513
 6879SOL    MW427290   1.409   0.283   5.137 -0.2944 -0.1422 -0.6300
 6880SOL     OW27291   3.906   1.182   3.589 -0.3582 -1.0225 -0.1365
 6880SOL    HW227292   3.961   1.147   3.660  1.0897 -1.2184 -1.3054
 6880SOL    HW327293   3.948   1.150   3.509 -1.1468  0.3577 -1.1301
 6880SOL    MW427294   3.919   1.173   3.588 -0.0556 -0.5390 -0.3725
 6881SOL     OW27295   4.177   1.975   1.434 -0.2678 -0.0387 -0.1828
 6881SOL    HW227296   4.163   1.890   1.476 -2.2161  0.3479  0.0252
 6881SOL    HW327297   4.108   2.031   1.469 -0.7342  0.8633 -2.3719
 6881SOL    MW427298   4.166   1.971   1.444  0.0673 -0.7396  0.4656
 6882SOL     OW27299   2.706   2.621   0.108 -0.5248  0.3232  0.3765
 6882SOL    HW227300   2.647   2.573   0.166 -2.0473  2.2991  0.6007
 6882SOL    HW327301   2.771   2.660   0.166  0.6385 -1.3113  0.2068
 6882SOL    MW427302   2.707   2.620   0.123  0.1664 -0.0190  0.1176
 6883SOL     OW27303   0.894   4.179   4.043 -0.4374 -0.6243  0.2194
 6883SOL    HW227304   0.879   4.108   3.980 -1.4732 -0.2477  0.0161
 6883SOL    HW327305   0.947   4.140   4.112 -2.8133 -2.2588  1.2494
 6883SOL    MW427306   0.899   4.164   4.044 -0.0060  0.1566 -0.1943
 6884SOL     OW27307   0.389   5.896   1.611 -0.0422  0.5894  0.6983
 6884SOL    HW227308   0.464   5.916   1.556  1.4659  0.5734  2.6188
 6884SOL    HW327309   0.342   5.827   1.565  0.7829  1.0261 -0.8414
 6884SOL    MW427310   0.393   5.890   1.598  0.2044  0.7262 -0.3378
 6885SOL     OW27311   5.292   4.791   4.939 -0.0547 -0.3179 -0.2664
 6885SOL    HW227312   5.344   4.738   5.000  0.4732 -1.0476 -1.3274
 6885SOL    HW327313   5.213   4.812   4.988  0.7222 -0.1644  0.9790
 6885SOL    MW427314   5.289   4.787   4.954  0.1247 -0.6134  0.4392
 6886SOL     OW27315   0.319   5.732   4.835 -0.6728 -0.2233 -0.0557
 6886SOL    HW227316   0.265   5.776   4.901 -0.2849 -1.1828  0.9330
 6886SOL    HW327317   0.384   5.797   4.809 -2.0220  0.8162 -0.9577
 6886SOL    MW427318   0.320   5.746   4.840  0.3285  0.1549 -0.3727
 6887SOL     OW27319   5.017   1.748   5.639  0.1243 -0.0926  0.1027
 6887SOL    HW227320   4.974   1.715   5.560  0.4852 -0.4808  0.0635
 6887SOL    HW327321   5.100   1.784   5.607  1.2171 -2.0710  0.5138
 6887SOL    MW427322   5.022   1.748   5.624 -0.1350  0.4716 -0.1722
 6888SOL     OW27323   5.152   0.761   1.929  0.1816 -0.5043 -0.3693
 6888SOL    HW227324   5.139   0.688   1.869  0.1802 -0.9925  0.2141
 6888SOL    HW327325   5.078   0.820   1.912 -1.5003 -2.0446  1.1730
 6888SOL    MW427326   5.141   0.759   1.919  0.2312  0.3834 -0.0191
 6889SOL     OW27327   4.227   1.433   3.469  0.0030  0.2484  0.6428
 6889SOL    HW227328   4.224   1.521   3.432  1.2579  0.9549  2.1139
 6889SOL    HW327329   4.168   1.436   3.544 -1.6916 -0.8586 -0.5736
 6889SOL    MW427330   4.219   1.445   3.474 -0.4589 -0.1986  0.4543
 6890SOL     OW27331   0.893   6.301   4.134 -0.1854 -0.7841 -0.5769
 6890SOL    HW227332   0.975   6.318   4.180 -0.2718  0.7402 -0.9184
 6890SOL    HW327333   0.853   6.229   4.182 -0.3451  0.8403  1.9198
 6890SOL    MW427334   0.898   6.294   4.147  0.3917 -0.2563 -0.4934
 6891SOL     OW27335   3.398   4.628   5.210 -0.1747 -0.1331 -0.4430
 6891SOL    HW227336   3.458   4.570   5.256  0.4846  0.6765 -0.2640
 6891SOL    HW327337   3.378   4.582   5.128  2.0048  0.2799 -1.2746
 6891SOL    MW427338   3.403   4.614   5.205  0.3544  0.1958 -0.3022
 6892SOL     OW27339   2.262   5.659   3.539  0.7068  0.3121  0.0367
 6892SOL    HW227340   2.321   5.612   3.480  0.7107  0.9496 -0.4698
 6892SOL    HW327341   2.316   5.677   3.617  1.1319  0.7135 -0.3430
 6892SOL    MW427342   2.277   5.655   3.542 -0.5157 -0.5624  0.3970
 6893SOL     OW27343   0.951   0.351   2.564 -0.1031 -0.0990  0.0046
 6893SOL    HW227344   1.007   0.393   2.498 -0.1713  0.6879  0.4393
 6893SOL    HW327345   0.951   0.258   2.539 -0.1984  0.1937 -1.1601
 6893SOL    MW427346   0.958   0.344   2.552 -0.3088  0.2416  0.2188
 6894SOL     OW27347   6.011   5.669   4.258 -0.4630 -0.0802 -0.3953
 6894SOL    HW227348   5.933   5.705   4.216 -1.6438 -1.8316  0.2001
 6894SOL    HW327349   6.061   5.630   4.186 -0.9241 -0.3069 -0.5985
 6894SOL    MW427350   6.008   5.668   4.243 -0.5077 -0.1473  0.0854
 6895SOL     OW27351   0.811   3.742   3.844 -0.1453  0.1447 -0.3511
 6895SOL    HW227352   0.866   3.818   3.861 -0.6452  0.5772 -0.6009
 6895SOL    HW327353   0.722   3.777   3.842 -0.6549 -0.8179  1.8946
 6895SOL    MW427354   0.806   3.756   3.846 -1.0783 -0.0177  0.4028
 6896SOL     OW27355   5.731   3.605   1.745  0.1224  0.1339 -0.2896
 6896SOL    HW227356   5.726   3.686   1.694  0.3933  0.4710  0.2036
 6896SOL    HW327357   5.779   3.630   1.824  1.7547 -0.9120 -0.9103
 6896SOL    MW427358   5.737   3.619   1.749 -0.4352  0.0195 -0.1652
 6897SOL     OW27359   4.543   2.628   5.742 -0.7162  0.4128 -0.1423
 6897SOL    HW227360   4.531   2.600   5.833  0.4959 -0.9575 -0.3513
 6897SOL    HW327361   4.489   2.706   5.733 -2.6885 -0.7374  1.0938
 6897SOL    MW427362   4.534   2.634   5.753 -0.1741 -0.7831 -0.4207
 6898SOL     OW27363   1.932   2.691   0.444  0.1319  0.0348 -0.2048
 6898SOL    HW227364   1.935   2.782   0.473 -1.9467  0.1075 -0.0209
 6898SOL    HW327365   1.966   2.641   0.518  2.1456  0.6730 -0.6408
 6898SOL    MW427366   1.937   2.697   0.457  0.0910  0.3439 -0.4218
 6899SOL     OW27367   1.821   0.127   2.228  0.7127  0.4192  0.4453
 6899SOL    HW227368   1.773   0.161   2.152  0.2927  0.1621  0.5942
 6899SOL    HW327369   1.784   0.173   2.303  1.7311  1.3186  0.4118
 6899SOL    MW427370   1.809   0.137   2.228 -0.7215 -0.4108 -1.0494
 6900SOL     OW27371   4.536   3.829   1.860  0.0986  0.1858 -0.1914
 6900SOL    HW227372   4.571   3.868   1.780  3.2031 -0.3383  0.7405
 6900SOL    HW327373   4.476   3.761   1.830  0.3160  0.7521 -2.0273
 6900SOL    MW427374   4.533   3.825   1.845 -0.1914  0.3331 -0.1572
 6901SOL     OW27375   6.294   3.008   2.270 -0.3502  0.0283 -0.1258
 6901SOL    HW227376   6.227   2.940   2.265  0.0446 -0.3652 -0.1818
 6901SOL    HW327377   6.352   2.980   2.341 -1.7566  1.7835  1.8185
 6901SOL    MW427378   6.293   2.995   2.278 -0.1083  0.3089 -0.1456
 6902SOL     OW27379   2.897   3.493   2.883 -0.8725  0.3567 -0.2558
 6902SOL    HW227380   2.903   3.539   2.967 -0.6206 -0.2891  0.0847
 6902SOL    HW327381   2.836   3.421   2.899 -0.9201  0.3031 -0.6615
 6902SOL    MW427382   2.890   3.490   2.896  0.0333 -0.5360 -0.7338
 6903SOL     OW27383   5.664   0.535   5.994 -0.1336  0.1553 -0.5619
 6903SOL    HW227384   5.752   0.523   6.029 -1.4883 -1.7510  2.7225
 6903SOL    HW327385   5.673   0.519   5.900  2.8290 -1.2736 -0.1667
 6903SOL    MW427386   5.677   0.531   5.986 -0.6798  0.1612 -0.0221
 6904SOL     OW27387   2.348   4.462   1.101 -1.1668 -0.0436 -0.9063
 6904SOL    HW227388   2.368   4.504   1.017  0.3911  2.9519  0.7930
 6904SOL    HW327389   2.297   4.527   1.149 -0.3171 -0.8326  1.1963
 6904SOL    MW427390   2.344   4.476   1.096  0.4937 -0.0510  0.5770
 6905SOL     OW27391   6.382   0.576   5.202 -0.3647  0.7578  0.7502
 6905SOL    HW227392   6.364   0.656   5.153 -0.2009 -0.9997 -2.4565
 6905SOL    HW327393   6.300   0.556   5.246 -1.0336  1.6589 -0.0353
 6905SOL    MW427394   6.369   0.584   5.201  0.2994 -0.5877 -0.6311
 6906SOL     OW27395   3.118   2.643   1.333  0.3579  0.1930 -0.1793
 6906SOL    HW227396   3.124   2.606   1.421 -0.0749 -0.3331 -0.3661
 6906SOL    HW327397   3.091   2.734   1.346 -2.2854 -0.5592  0.1414
 6906SOL    MW427398   3.115   2.650   1.346  0.0839  0.2473  0.0411
 6907SOL     OW27399   4.900   2.438   1.143  0.8369 -0.6183 -0.5679
 6907SOL    HW227400   4.895   2.388   1.224 -0.4434 -0.0950 -0.3032
 6907SOL    HW327401   4.821   2.414   1.094  0.9914 -0.0307 -1.1258
 6907SOL    MW427402   4.889   2.428   1.147  0.3602  0.1240 -0.9229
 6908SOL     OW27403   1.765   1.734   2.634 -0.1634 -0.1041 -0.5250
 6908SOL    HW227404   1.763   1.698   2.723  0.1416  0.2721 -0.3655
 6908SOL    HW327405   1.764   1.829   2.646 -2.6416 -0.0080 -0.9702
 6908SOL    MW427406   1.765   1.741   2.647  0.2915  0.0946 -0.0792
 6909SOL     OW27407   3.507   5.852   2.468  0.1201 -0.0443 -0.9285
 6909SOL    HW227408   3.551   5.879   2.388 -0.6727  1.6081 -0.8496
 6909SOL    HW327409   3.425   5.903   2.469  0.5235  0.6794  1.3583
 6909SOL    MW427410   3.502   5.862   2.457  0.6990  0.2256  0.1193
 6910SOL     OW27411   5.804   5.016   2.666  0.5990 -0.4354  0.2033
 6910SOL    HW227412   5.849   4.951   2.720  0.6497 -0.8150 -0.2793
 6910SOL    HW327413   5.716   4.980   2.654  0.4086 -0.0732  0.5035
 6910SOL    MW427414   5.799   5.002   2.671  0.5296 -0.2253  0.0513
 6911SOL     OW27415   5.616   1.958   0.377 -0.4125 -0.2564 -0.3325
 6911SOL    HW227416   5.579   1.932   0.293  0.2358  0.1369 -0.7461
 6911SOL    HW327417   5.683   2.023   0.355  0.1856 -0.5972  0.4430
 6911SOL    MW427418   5.620   1.963   0.363 -0.6694 -0.0037 -0.1366
 6912SOL     OW27419   3.587   3.383   6.080  0.8524  0.1196  0.1375
 6912SOL    HW227420   3.668   3.333   6.092  0.1425 -1.0642  0.1417
 6912SOL    HW327421   3.552   3.393   6.168  1.4377  1.4453  0.2467
 6912SOL    MW427422   3.593   3.378   6.093  0.0100 -0.2482  0.7913
 6913SOL     OW27423   4.681   4.276   3.446 -0.2051 -0.2712 -0.5443
 6913SOL    HW227424   4.675   4.195   3.393 -0.9980 -0.9414  0.5279
 6913SOL    HW327425   4.676   4.346   3.381  1.3314 -1.0510 -1.5948
 6913SOL    MW427426   4.679   4.274   3.430  0.2398 -0.4240  0.4095
 6914SOL     OW27427   2.792   2.901   0.490 -0.2924 -0.5496 -0.1792
 6914SOL    HW227428   2.782   2.986   0.447  3.4564 -0.2543 -0.7682
 6914SOL    HW327429   2.804   2.922   0.583 -0.2231 -0.4947 -0.2004
 6914SOL    MW427430   2.792   2.915   0.497 -0.0901  0.0923  0.2497
 6915SOL     OW27431   2.704   5.371   0.869  0.1578 -0.1626 -0.3347
 6915SOL    HW227432   2.731   5.370   0.778  2.2735  0.0043  0.2426
 6915SOL    HW327433   2.784   5.356   0.919 -0.8360  0.2779  1.5250
 6915SOL    MW427434   2.718   5.369   0.864  0.1114  0.0934 -0.0512
 6916SOL     OW27435   6.265   1.230   0.916 -0.3801 -0.6699  0.1959
 6916SOL    HW227436   6.210   1.152   0.902 -0.9317 -0.5980  1.7518
 6916SOL    HW327437   6.313   1.211   0.997 -1.9097  1.3254  1.6685
 6916SOL    MW427438   6.264   1.217   0.925  0.1173  0.1962  0.4035
 6917SOL     OW27439   4.848   2.791   5.866  0.5346  0.0108  0.6396
 6917SOL    HW227440   4.918   2.768   5.803  0.8879  0.7380  0.7539
 6917SOL    HW327441   4.893   2.795   5.950  0.1545 -0.4793  0.8654
 6917SOL    MW427442   4.863   2.788   5.869 -0.9454 -0.5792 -0.3186
 6918SOL     OW27443   0.101   4.179   0.419 -0.0896 -0.4901 -0.1309
 6918SOL    HW227444   0.097   4.147   0.329  0.1126  0.6510 -0.5551
 6918SOL    HW327445   0.025   4.139   0.462 -1.5450  0.7852 -1.4187
 6918SOL    MW427446   0.091   4.169   0.413  0.0931  0.0525  0.0581
 6919SOL     OW27447   5.856   2.093   1.392  0.0108 -0.6748  0.3728
 6919SOL    HW227448   5.776   2.091   1.445 -0.5438 -1.6903 -0.4626
 6919SOL    HW327449   5.826   2.096   1.302  0.9506  0.7533  0.0701
 6919SOL    MW427450   5.842   2.093   1.387 -0.0759 -0.2424  0.1610
 6920SOL     OW27451   4.126   5.824   4.534 -0.1550  0.3929 -0.2050
 6920SOL    HW227452   4.074   5.799   4.458 -0.0433  0.8148 -0.4222
 6920SOL    HW327453   4.061   5.858   4.596 -0.3151 -0.4974  0.1233
 6920SOL    MW427454   4.110   5.825   4.533 -0.1240 -0.3678  0.4959
 6921SOL     OW27455   4.551   3.133   5.269  0.2378 -0.2655  0.6557
 6921SOL    HW227456   4.557   3.139   5.365 -1.6029  2.3239  0.7078
 6921SOL    HW327457   4.575   3.220   5.238 -1.6167 -0.2826 -1.0459
 6921SOL    MW427458   4.555   3.146   5.278 -1.1247  0.1969  0.3434
 6922SOL     OW27459   4.458   2.884   5.721  0.1190 -0.0726  0.3063
 6922SOL    HW227460   4.396   2.936   5.772 -0.6265  0.8380 -1.4392
 6922SOL    HW327461   4.543   2.901   5.762 -0.4885  0.2956  1.4660
 6922SOL    MW427462   4.462   2.893   5.733  0.5158 -0.2000 -0.4976
 6923SOL     OW27463   1.113   5.877   3.009  0.0504  0.4139 -0.0283
 6923SOL    HW227464   1.203   5.845   3.018 -0.0797 -0.2337 -0.9420
 6923SOL    HW327465   1.069   5.812   2.955 -0.9861  0.7207  0.4169
 6923SOL    MW427466   1.119   5.864   3.003  0.2583 -0.0891  0.6890
 6924SOL     OW27467   5.503   5.368   6.232  0.8036 -0.7010  0.5537
 6924SOL    HW227468   5.574   5.306   6.250  1.3242 -0.2993 -0.0632
 6924SOL    HW327469   5.426   5.329   6.273  1.2647 -1.4211  0.7569
 6924SOL    MW427470   5.502   5.355   6.240 -0.7554  0.2996 -0.5382
 6925SOL     OW27471   0.700   4.473   1.040 -0.2861  0.7637  0.2350
 6925SOL    HW227472   0.770   4.467   0.976 -0.2823  1.0464  0.2109
 6925SOL    HW327473   0.741   4.512   1.117  0.6904 -3.0208  1.8333
 6925SOL    MW427474   0.715   4.477   1.042 -0.0384  0.4838  0.3645
 6926SOL     OW27475   4.796   0.409   6.379  0.1132 -0.0830  0.5092
 6926SOL    HW227476   4.886   0.394   6.408 -0.1989 -1.3352  0.9163
 6926SOL    HW327477   4.804   0.446   6.291  1.0212 -0.5763  0.3732
 6926SOL    MW427478   4.809   0.412   6.371 -0.2265  0.3719 -0.2572
 6927SOL     OW27479   2.582   2.209   1.552 -0.1620 -0.6633 -0.2609
 6927SOL    HW227480   2.626   2.285   1.591  1.0093 -1.6737  0.4814
 6927SOL    HW327481   2.526   2.246   1.483 -0.9769  1.0195  1.2278
 6927SOL    MW427482   2.581   2.224   1.548  0.0519  0.1688  0.5055
 6928SOL     OW27483   3.772   1.259   2.931  0.1189 -0.1632 -0.1333
 6928SOL    HW227484   3.855   1.264   2.979  1.6134 -1.4675 -2.4201
 6928SOL    HW327485   3.765   1.167   2.904 -0.6039  0.4854 -2.3844
 6928SOL    MW427486   3.782   1.248   2.934  0.8888 -0.7359 -0.2329
 6929SOL     OW27487   1.055   2.965   1.840 -0.3944  0.2170  0.1349
 6929SOL    HW227488   1.003   2.893   1.806  0.5498 -0.0190 -0.8493
 6929SOL    HW327489   1.112   2.991   1.768 -0.3442  1.6080  0.6319
 6929SOL    MW427490   1.056   2.959   1.826  0.1401 -0.4106  0.1984
 6930SOL     OW27491   2.391   3.202   4.652 -0.1577  0.3532 -0.2684
 6930SOL    HW227492   2.329   3.129   4.648  0.6899 -0.4183  0.2726
 6930SOL    HW327493   2.396   3.234   4.562 -0.2435 -0.5116 -0.5921
 6930SOL    MW427494   2.384   3.197   4.640 -0.2093 -0.1969 -0.0396
 6931SOL     OW27495   4.416   0.375   2.488  0.1097  0.4022  0.0108
 6931SOL    HW227496   4.411   0.344   2.578  0.9352  1.3318  0.3942
 6931SOL    HW327497   4.325   0.384   2.460 -0.1573 -1.1391  0.2925
 6931SOL    MW427498   4.403   0.372   2.496  0.3028  0.1752 -0.1561
 6932SOL     OW27499   2.104   3.567   3.310 -0.3359  0.3972  0.5391
 6932SOL    HW227500   2.046   3.641   3.293  0.0209  0.6462  0.3870
 6932SOL    HW327501   2.099   3.515   3.230 -0.1336  0.5668  0.4148
 6932SOL    MW427502   2.096   3.570   3.297 -0.1065  0.3443  0.0648
 6933SOL     OW27503   3.955   2.344   2.514 -0.1144 -0.0971  0.2488
 6933SOL    HW227504   3.909   2.428   2.515 -0.6063 -0.3639  1.0531
 6933SOL    HW327505   3.993   2.339   2.426 -1.5481  0.1761 -0.4214
 6933SOL    MW427506   3.954   2.355   2.503  0.1668  0.6008 -0.5526
 6934SOL     OW27507   5.426   4.503   3.064 -0.6316 -0.4287 -0.3651
 6934SOL    HW227508   5.415   4.519   3.158 -0.7870  1.3625 -0.6552
 6934SOL    HW327509   5.454   4.587   3.029  0.5670 -1.3721 -1.7659
 6934SOL    MW427510   5.428   4.516   3.072  0.4435  0.8603 -0.0638
 6935SOL     OW27511   0.866   1.797   2.809 -0.7708  0.1781  0.5033
 6935SOL    HW227512   0.791   1.839   2.767 -2.0044 -1.3382  1.1210
 6935SOL    HW327513   0.918   1.870   2.843 -1.6461  1.2757 -0.4232
 6935SOL    MW427514   0.863   1.812   2.808  0.1072  0.0506 -0.0040
 6936SOL     OW27515   1.567   5.056   3.036 -0.3941 -0.0734  0.2795
 6936SOL    HW227516   1.480   5.057   2.997  0.1603  1.9252 -1.0614
 6936SOL    HW327517   1.623   5.022   2.966  0.1300  0.1645  0.5807
 6936SOL    MW427518   1.563   5.052   3.021  0.0178  0.0174 -0.4535
 6937SOL     OW27519   0.044   4.416   5.929  0.4918 -0.0278 -0.0003
 6937SOL    HW227520   0.128   4.457   5.908 -1.3334  2.8411 -2.5919
 6937SOL    HW327521  -0.015   4.490   5.945 -1.7404 -1.9195  1.0629
 6937SOL    MW427522   0.048   4.432   5.928 -0.0544 -0.4268 -0.7696
 6938SOL     OW27523   6.159   0.917   6.240 -0.1307  0.3467  0.0953
 6938SOL    HW227524   6.169   0.876   6.326 -1.0158  1.0956  0.5830
 6938SOL    HW327525   6.069   0.950   6.240 -0.8957 -1.4401 -1.9221
 6938SOL    MW427526   6.148   0.916   6.251 -0.0756  0.1937 -0.6281
 6939SOL     OW27527   4.993   5.167   2.607 -0.0034 -0.5726 -0.1482
 6939SOL    HW227528   4.950   5.162   2.522 -1.2386  0.7523  0.3669
 6939SOL    HW327529   4.954   5.096   2.658  0.2994 -0.9834 -0.4780
 6939SOL    MW427530   4.982   5.157   2.603  0.1379 -0.1355 -1.0105
 6940SOL     OW27531   2.249   3.658   3.537  0.1548  0.3752 -0.3842
 6940SOL    HW227532   2.343   3.669   3.518  0.1839  0.6273 -0.0977
 6940SOL    HW327533   2.214   3.614   3.459  0.8166 -1.2449  0.1971
 6940SOL    MW427534   2.257   3.654   3.524  0.6515 -0.0949 -0.4860
 6941SOL     OW27535   6.034   3.434   2.277 -0.2646 -0.1260  0.0066
 6941SOL    HW227536   5.943   3.428   2.247 -0.0298 -2.9237 -0.3751
 6941SOL    HW327537   6.081   3.471   2.202 -1.0016  1.1345  0.1322
 6941SOL    MW427538   6.028   3.438   2.263 -0.2693 -0.7273  0.0645
 6942SOL     OW27539   3.165   2.101   1.106 -0.6544  0.0182  0.2466
 6942SOL    HW227540   3.124   2.124   1.022  1.1842  2.5204 -0.0856
 6942SOL    HW327541   3.193   2.010   1.094 -2.3957 -0.4120 -0.9827
 6942SOL    MW427542   3.164   2.092   1.093  0.5049  0.4314 -0.3822
 6943SOL     OW27543   4.062   4.539   5.871  0.0479  0.0171  0.2635
 6943SOL    HW227544   4.024   4.591   5.942 -2.3922  0.9560 -1.5909
 6943SOL    HW327545   4.150   4.519   5.901 -0.2038  2.0176  2.7050
 6943SOL    MW427546   4.069   4.543   5.885 -0.4407 -0.1976  0.2066
 6944SOL     OW27547   5.091   0.969   3.645 -0.5034 -0.2590 -0.4943
 6944SOL    HW227548   5.028   1.032   3.610  0.1737  1.1533  0.7313
 6944SOL    HW327549   5.058   0.948   3.732  1.3882  1.6155  0.7672
 6944SOL    MW427550   5.079   0.975   3.652  0.1638 -0.1964 -0.1041
 6945SOL     OW27551   1.214   1.384   4.076 -0.5354 -0.2895  0.2124
 6945SOL    HW227552   1.175   1.299   4.059  0.6123 -0.5325 -1.4622
 6945SOL    HW327553   1.275   1.398   4.003  1.3107  0.7720  1.8413
 6945SOL    MW427554   1.217   1.375   4.064  0.0399 -0.1126 -0.4898
 6946SOL     OW27555   1.641   3.722   6.281  0.5669  0.3054  0.2986
 6946SOL    HW227556   1.564   3.777   6.300  1.9322  2.0344  1.0958
 6946SOL    HW327557   1.609   3.658   6.218 -1.0973  2.1577 -0.8810
 6946SOL    MW427558   1.626   3.721   6.275  0.2291  0.2355 -0.3784
 6947SOL     OW27559   2.947   0.069   5.942 -0.4160  0.6364 -0.0902
 6947SOL    HW227560   2.857   0.100   5.948 -0.7949 -0.0443 -1.6907
 6947SOL    HW327561   2.967   0.070   5.848  0.3951 -1.5233 -0.0000
 6947SOL    MW427562   2.938   0.073   5.930  0.4740 -0.4696  0.2711
 6948SOL     OW27563   0.089   4.759   3.081  0.1126 -0.2506  0.1009
 6948SOL    HW227564   0.178   4.732   3.060  0.5212 -0.1689  1.5842
 6948SOL    HW327565   0.089   4.854   3.068 -0.4270 -0.4875 -2.0426
 6948SOL    MW427566   0.101   4.768   3.077  0.6222  0.0116  1.1196
 6949SOL     OW27567   1.962   4.549   0.993 -0.1052  0.0248  0.0645
 6949SOL    HW227568   1.972   4.469   1.044 -0.1905 -0.0516 -0.0388
 6949SOL    HW327569   1.883   4.535   0.940 -0.3791  0.3567  0.3813
 6949SOL    MW427570   1.953   4.537   0.993 -0.2498 -0.1721  0.0568
 6950SOL     OW27571   0.336   5.085   5.052 -0.0143 -0.0067 -0.4841
 6950SOL    HW227572   0.358   5.046   4.968 -0.1152 -1.1053 -0.0240
 6950SOL    HW327573   0.381   5.031   5.116 -1.7451 -0.6167  0.2991
 6950SOL    MW427574   0.345   5.073   5.049  0.1295  0.5688 -0.1393
 6951SOL     OW27575   1.475   0.578   1.192  0.8334 -0.7108 -0.0771
 6951SOL    HW227576   1.490   0.669   1.215 -1.5083  0.6949 -3.3447
 6951SOL    HW327577   1.546   0.530   1.234  2.2713  2.6055  1.5911
 6951SOL    MW427578   1.486   0.583   1.201  0.0081  0.3951  0.4747
 6952SOL     OW27579   5.548   1.644   4.506  0.2177 -0.2193  0.4703
 6952SOL    HW227580   5.458   1.675   4.516  0.6945  0.9047  1.4227
 6952SOL    HW327581   5.562   1.586   4.582  0.3435 -0.2631  0.4139
 6952SOL    MW427582   5.538   1.640   4.518 -0.1566 -0.0381 -0.2667
 6953SOL     OW27583   6.425   0.169   0.845 -0.3675  0.2483  0.2118
 6953SOL    HW227584   6.362   0.096   0.841 -1.6996  1.2106  2.0122
 6953SOL    HW327585   6.381   0.234   0.900  0.2492  2.9407 -2.2784
 6953SOL    MW427586   6.411   0.168   0.852 -0.0521  0.2914  0.2674
 6954SOL     OW27587   0.571   3.416   2.580  0.1029 -0.8386 -0.2625
 6954SOL    HW227588   0.610   3.430   2.666 -0.7999 -0.0653  0.0376
 6954SOL    HW327589   0.510   3.344   2.592  1.0542 -1.7223 -0.6177
 6954SOL    MW427590   0.568   3.409   2.593  0.4384  0.3221 -0.6954
 6955SOL     OW27591   3.732   3.615   6.041  0.2682 -0.1745  1.1358
 6955SOL    HW227592   3.671   3.543   6.025  0.9987 -0.5197 -0.3000
 6955SOL    HW327593   3.807   3.573   6.083  0.2423 -0.0537  1.3040
 6955SOL    MW427594   3.734   3.600   6.044 -0.4096 -0.0978  0.0660
 6956SOL     OW27595   1.311   2.841   1.222 -0.1328 -0.5262 -0.2829
 6956SOL    HW227596   1.314   2.746   1.209  0.2712 -0.4055 -1.1980
 6956SOL    HW327597   1.222   2.866   1.196  0.4218 -0.3955 -2.2378
 6956SOL    MW427598   1.300   2.832   1.217 -0.6046  0.4360  0.3094
 6957SOL     OW27599   0.826   3.352   0.123 -0.3139  0.7179 -0.2290
 6957SOL    HW227600   0.889   3.281   0.112 -0.5593  0.1540  1.6354
 6957SOL    HW327601   0.876   3.432   0.111  0.5017  0.2539  0.0378
 6957SOL    MW427602   0.841   3.353   0.120 -0.0678 -0.0814 -0.2215
 6958SOL     OW27603   6.196   3.135   5.232  0.4116 -0.2255  0.0625
 6958SOL    HW227604   6.128   3.146   5.299  0.0601  1.9889 -0.5725
 6958SOL    HW327605   6.157   3.168   5.152  1.6881 -0.4489 -0.6881
 6958SOL    MW427606   6.182   3.141   5.230  0.3892 -0.3126 -0.0814
 6959SOL     OW27607   2.804   4.997   5.726 -0.3133 -0.1200  0.0359
 6959SOL    HW227608   2.745   5.039   5.664 -1.5500  0.8234  1.7756
 6959SOL    HW327609   2.775   5.027   5.812  0.1550 -2.8118  1.2520
 6959SOL    MW427610   2.792   5.007   5.729  0.3526 -0.2699 -0.5979
 6960SOL     OW27611   4.557   2.347   4.752 -0.3977  0.2607 -0.2199
 6960SOL    HW227612   4.638   2.319   4.793 -0.2354  0.4859 -0.3867
 6960SOL    HW327613   4.503   2.267   4.749 -0.1246  0.0769 -0.2519
 6960SOL    MW427614   4.560   2.333   4.757 -0.1073  0.8398 -0.2434
 6961SOL     OW27615   6.302   3.927   2.434  0.0325  0.0977 -0.0508
 6961SOL    HW227616   6.391   3.893   2.443  0.3568  0.8648 -0.2465
 6961SOL    HW327617   6.268   3.931   2.523  1.2209  2.4348  0.3863
 6961SOL    MW427618   6.310   3.923   2.447 -0.1595 -0.1138  0.1618
 6962SOL     OW27619   5.728   4.628   3.765 -0.0914 -0.1899 -0.2798
 6962SOL    HW227620   5.671   4.551   3.756 -0.0342 -0.2637 -0.0327
 6962SOL    HW327621   5.814   4.597   3.738 -0.3564  0.1820 -1.5873
 6962SOL    MW427622   5.732   4.614   3.760 -0.4917  0.5775 -0.3194
 6963SOL     OW27623   2.270   2.951   2.463  0.2174  0.0450  0.4844
 6963SOL    HW227624   2.276   2.856   2.467  0.9291  0.0520 -0.2836
 6963SOL    HW327625   2.257   2.971   2.371  2.4559  0.7973  0.2755
 6963SOL    MW427626   2.269   2.942   2.452  0.0888  0.1806 -0.0602
 6964SOL     OW27627   5.482   3.287   4.803  0.2681 -0.4118 -0.2882
 6964SOL    HW227628   5.493   3.343   4.725  2.8652 -0.3783  0.0106
 6964SOL    HW327629   5.467   3.199   4.767 -0.7500 -0.0654 -0.7703
 6964SOL    MW427630   5.481   3.283   4.788 -0.4415  0.2727  0.0276
 6965SOL     OW27631   1.117   3.432   4.048 -0.1476 -0.3113  0.0529
 6965SOL    HW227632   1.034   3.478   4.058  0.6311  1.0265  0.6673
 6965SOL    HW327633   1.147   3.417   4.138  1.2969  1.1973 -0.1289
 6965SOL    MW427634   1.110   3.436   4.062 -0.1269  0.2319  0.2690
 6966SOL     OW27635   5.376   6.370   2.500 -0.2003 -0.0424  0.0624
 6966SOL    HW227636   5.347   6.387   2.590  1.6795  0.6079  0.6025
 6966SOL    HW327637   5.447   6.306   2.510  1.3174  1.4475 -0.7474
 6966SOL    MW427638   5.382   6.364   2.513  0.2532  0.6918 -0.3657
 6967SOL     OW27639   3.387   1.423   4.650  0.1891  0.1799  0.4515
 6967SOL    HW227640   3.482   1.420   4.660  0.1496  0.0033  0.7839
 6967SOL    HW327641   3.363   1.335   4.619  0.2848  0.6464 -1.0254
 6967SOL    MW427642   3.396   1.411   4.647  0.1494 -0.0961 -0.4504
 6968SOL     OW27643   6.242   6.161   1.374 -0.1112  0.3369 -0.2802
 6968SOL    HW227644   6.195   6.097   1.427 -1.1576  2.1723  1.1153
 6968SOL    HW327645   6.323   6.177   1.422 -0.3427  0.8281 -0.0428
 6968SOL    MW427646   6.246   6.155   1.387 -0.0199  0.3781 -0.4334
 6969SOL     OW27647   2.638   4.455   1.180 -0.4167 -0.6003 -0.1001
 6969SOL    HW227648   2.648   4.379   1.122 -3.0143 -1.1832  0.1148
 6969SOL    HW327649   2.544   4.464   1.191 -0.2885  3.3423 -0.9777
 6969SOL    MW427650   2.627   4.446   1.174 -0.3391  0.2739  0.3782
 6970SOL     OW27651   6.088   5.949   1.510  0.2802 -0.0113  0.2228
 6970SOL    HW227652   6.136   5.959   1.592  0.5744  2.1098 -0.1566
 6970SOL    HW327653   5.997   5.967   1.533  0.3848  0.7373  0.0744
 6970SOL    MW427654   6.082   5.953   1.524  0.4925  0.3110 -0.2296
 6971SOL     OW27655   4.506   0.075   5.962 -0.4707  0.3712  0.3477
 6971SOL    HW227656   4.526   0.148   5.903  1.0966  1.2935  1.9264
 6971SOL    HW327657   4.427   0.102   6.008 -0.1887  0.8563  0.5554
 6971SOL    MW427658   4.499   0.088   5.960 -0.2956  0.0772 -0.0901
 6972SOL     OW27659   0.300   1.135   0.969 -0.2725 -0.1649  0.0549
 6972SOL    HW227660   0.237   1.188   0.921 -0.1347 -0.1959 -0.1645
 6972SOL    HW327661   0.376   1.129   0.910 -0.3039 -0.6387  0.0625
 6972SOL    MW427662   0.302   1.141   0.955  0.5473 -0.3368 -0.2404
 6973SOL     OW27663   4.603   1.829   4.421 -0.1891  0.0566 -0.3138
 6973SOL    HW227664   4.521   1.874   4.401 -1.1954 -1.3478  0.5100
 6973SOL    HW327665   4.583   1.773   4.496  2.0151  1.0343  1.1331
 6973SOL    MW427666   4.590   1.827   4.428  0.2962 -0.3949  0.4443
 6974SOL     OW27667   0.963   5.824   1.079 -0.3903  0.4141  0.5840
 6974SOL    HW227668   1.002   5.824   1.167  1.4872  1.3874 -0.1758
 6974SOL    HW327669   0.912   5.743   1.075  0.4908 -0.2686  2.1536
 6974SOL    MW427670   0.962   5.813   1.090  0.1802  0.3832 -0.2221
 6975SOL     OW27671   1.042   0.578   3.614 -0.6010  0.3500  0.1505
 6975SOL    HW227672   1.045   0.672   3.630 -0.4055  0.0853  1.8777
 6975SOL    HW327673   1.124   0.545   3.651 -0.6779 -0.5135 -0.4088
 6975SOL    MW427674   1.053   0.586   3.621  0.5909  0.1360 -0.2760
 6976SOL     OW27675   3.093   4.988   1.256 -0.4962 -0.1497  0.3661
 6976SOL    HW227676   3.160   4.997   1.323  1.3523 -0.5017 -1.3553
 6976SOL    HW327677   3.022   5.046   1.285  1.3234  1.7324  1.2773
 6976SOL    MW427678   3.092   4.997   1.269 -0.6892 -0.2356 -0.3835
 6977SOL     OW27679   4.059   2.034   4.069 -0.2441  0.5823  0.0267
 6977SOL    HW227680   4.113   2.068   4.141 -0.4813  0.4510  0.2683
 6977SOL    HW327681   4.114   2.045   3.991 -0.7120  2.5136 -0.0910
 6977SOL    MW427682   4.074   2.040   4.068 -0.1173  0.0969 -0.1203
 6978SOL     OW27683   5.650   1.101   0.381 -0.6141 -0.4440 -0.0927
 6978SOL    HW227684   5.616   1.053   0.457 -0.1459  0.3000  0.6107
 6978SOL    HW327685   5.735   1.060   0.363 -0.9223 -0.9144 -0.5121
 6978SOL    MW427686   5.657   1.089   0.389 -0.0050 -0.1938  0.1538
 6979SOL     OW27687   1.610   4.107   0.644 -0.1540 -0.5302  0.5058
 6979SOL    HW227688   1.682   4.074   0.699 -0.3115 -1.2644  0.2727
 6979SOL    HW327689   1.581   4.031   0.594 -0.0101  0.1328 -0.6108
 6979SOL    MW427690   1.616   4.093   0.645  0.2988 -0.5247  0.2176
 6980SOL     OW27691   1.881   5.005   4.657 -0.2137  0.2332 -0.1699
 6980SOL    HW227692   1.877   4.909   4.651  2.6120  0.0139  0.1142
 6980SOL    HW327693   1.934   5.022   4.735 -0.1220  2.0412 -0.5865
 6980SOL    MW427694   1.887   4.995   4.667  0.4067  0.5818 -0.4120
 6981SOL     OW27695   0.254   1.177   6.167  0.3976  0.4757 -0.3014
 6981SOL    HW227696   0.338   1.218   6.191 -0.6791  2.0310  1.0127
 6981SOL    HW327697   0.208   1.244   6.117 -0.8855  0.4643  0.7977
 6981SOL    MW427698   0.259   1.191   6.164  0.3427  0.3303 -0.4000
 6982SOL     OW27699   6.285   5.350   1.588  0.2500  0.0130  0.5401
 6982SOL    HW227700   6.226   5.370   1.661  1.0974  0.1484  1.1953
 6982SOL    HW327701   6.363   5.313   1.628  0.4768 -0.5163 -0.3503
 6982SOL    MW427702   6.287   5.348   1.603  0.1781 -0.4561  0.3686
 6983SOL     OW27703   0.066   2.339   0.241  0.9450 -1.1097 -0.0028
 6983SOL    HW227704   0.112   2.374   0.317  0.6153 -1.0157  0.1560
 6983SOL    HW327705   0.051   2.415   0.184 -0.1847 -0.8984  0.5570
 6983SOL    MW427706   0.070   2.353   0.243 -0.3292  0.0648 -0.4298
 6984SOL     OW27707   0.154   0.097   4.200  0.1324  0.2960  0.1652
 6984SOL    HW227708   0.120   0.020   4.155 -1.5090  0.3507  1.2381
 6984SOL    HW327709   0.077   0.141   4.235  1.1881  1.4084  1.2089
 6984SOL    MW427710   0.140   0.093   4.199  0.3471 -0.1191  0.3332
 6985SOL     OW27711   2.061   0.512   5.411  0.1589  0.5071  0.0669
 6985SOL    HW227712   2.059   0.449   5.338 -0.9895  0.8645 -0.2207
 6985SOL    HW327713   2.105   0.464   5.482 -2.0879 -1.2292  0.3908
 6985SOL    MW427714   2.067   0.497   5.411  0.7493 -0.0154  0.3211
 6986SOL     OW27715   2.840   5.293   4.624  0.0687 -0.3841 -0.0147
 6986SOL    HW227716   2.750   5.266   4.608 -0.2853  0.2103  0.8989
 6986SOL    HW327717   2.864   5.250   4.706 -0.5923  2.1245  1.6185
 6986SOL    MW427718   2.831   5.284   4.632 -0.0674  0.3106 -0.3371
 6987SOL     OW27719   4.103   6.017   0.003 -0.7332  0.5694  0.8364
 6987SOL    HW227720   4.197   6.031  -0.010 -0.3675 -0.8489  1.7432
 6987SOL    HW327721   4.088   5.928  -0.028 -1.2678 -0.1587  3.0604
 6987SOL    MW427722   4.113   6.007  -0.003 -0.2013 -0.4648 -0.3129
 6988SOL     OW27723   3.729   1.672   3.670  0.5535 -0.4593 -0.8117
 6988SOL    HW227724   3.746   1.600   3.610 -0.6708 -1.2386 -0.2717
 6988SOL    HW327725   3.679   1.632   3.741  1.3946  0.5667  0.4105
 6988SOL    MW427726   3.725   1.657   3.671 -0.5110  0.0995  0.5001
 6989SOL     OW27727   0.638   0.005   1.616  0.2281  0.2372  0.2114
 6989SOL    HW227728   0.567   0.068   1.627 -1.0642 -1.0660 -0.2781
 6989SOL    HW327729   0.718   0.056   1.625 -0.7304  2.3460 -2.2769
 6989SOL    MW427730   0.639   0.020   1.619 -0.2616  0.5601  0.0926
 6990SOL     OW27731   2.036   1.864   4.370  0.3303  0.2674  0.3897
 6990SOL    HW227732   2.062   1.914   4.293  0.0320 -0.1753 -0.0058
 6990SOL    HW327733   2.107   1.802   4.384  2.0957  2.5951  2.5747
 6990SOL    MW427734   2.049   1.863   4.362  0.0143 -0.2741 -0.0535
 6991SOL     OW27735   2.175   4.387   5.968 -0.1791  0.0695 -0.0587
 6991SOL    HW227736   2.203   4.426   6.050 -0.2281  0.0209 -0.0190
 6991SOL    HW327737   2.129   4.457   5.922 -1.8468 -0.4393  0.7836
 6991SOL    MW427738   2.173   4.401   5.972  0.2483 -0.5052 -0.0863
 6992SOL     OW27739   1.433   1.747   1.228 -0.0549 -0.2937 -0.0872
 6992SOL    HW227740   1.487   1.678   1.266  0.8821  0.2370 -0.4007
 6992SOL    HW327741   1.430   1.815   1.296 -0.4423 -0.3805 -0.0188
 6992SOL    MW427742   1.440   1.747   1.242  0.3495 -0.3198 -0.1007
 6993SOL     OW27743   5.050   1.474   6.040 -0.6142 -0.6479  0.3168
 6993SOL    HW227744   4.968   1.511   6.071 -1.1109 -2.1251  0.8450
 6993SOL    HW327745   5.047   1.483   5.945  0.5568  3.1795  0.4864
 6993SOL    MW427746   5.039   1.480   6.032  0.0318  0.0480  0.3405
 6994SOL     OW27747   0.730   4.272   0.786  0.0002 -0.1880  0.2808
 6994SOL    HW227748   0.660   4.234   0.733  0.1469 -1.2398  0.8070
 6994SOL    HW327749   0.759   4.200   0.842  1.5677  0.2060  0.0164
 6994SOL    MW427750   0.725   4.258   0.786  0.2640  0.2927 -0.5930
 6995SOL     OW27751   0.172   5.694   0.765  0.0893 -0.2261  0.5370
 6995SOL    HW227752   0.148   5.654   0.849  0.6091 -0.1799  0.7116
 6995SOL    HW327753   0.266   5.677   0.756  0.2428  0.6111  0.4351
 6995SOL    MW427754   0.181   5.686   0.775 -0.4290  0.0421  0.2684
 6996SOL     OW27755   4.731   2.648   0.513 -0.4269  0.5108  0.1301
 6996SOL    HW227756   4.824   2.669   0.503 -0.3320  0.3659  0.6822
 6996SOL    HW327757   4.685   2.718   0.466 -0.1022  1.5542  1.3257
 6996SOL    MW427758   4.737   2.660   0.505  0.3571  0.1118  0.6486
 6997SOL     OW27759   2.040   1.611   3.051  0.1266  0.5862 -0.7104
 6997SOL    HW227760   2.031   1.554   2.975 -2.1625  2.5618 -2.0562
 6997SOL    HW327761   1.965   1.670   3.046 -0.3354  0.6054  3.3203
 6997SOL    MW427762   2.029   1.611   3.040  0.6968  0.1675  0.3203
 6998SOL     OW27763   4.748   2.125   0.368 -0.1917 -0.3004  1.0394
 6998SOL    HW227764   4.836   2.161   0.376 -0.1517 -0.2478  0.3694
 6998SOL    HW327765   4.748   2.049   0.426  0.3541 -0.4134  0.8950
 6998SOL    MW427766   4.759   2.119   0.377 -0.9342 -0.4955 -0.0492
 6999SOL     OW27767   1.480   5.924   3.264  0.0567 -0.4699  0.2927
 6999SOL    HW227768   1.434   5.881   3.192  0.7532 -1.0132  0.1731
 6999SOL    HW327769   1.413   5.934   3.332 -0.1838 -1.4892  0.2196
 6999SOL    MW427770   1.465   5.920   3.264  0.0879  0.3323 -0.1708
 7000SOL     OW27771   6.060   1.536   6.246 -0.2557  0.0268 -0.4578
 7000SOL    HW227772   6.040   1.446   6.223  0.4355 -0.3924  0.5309
 7000SOL    HW327773   6.105   1.572   6.170  0.1359 -0.6902 -0.5678
 7000SOL    MW427774   6.063   1.529   6.233  0.2169  0.3805  0.5299
 7001SOL     OW27775   2.582   0.990   4.379 -0.1122 -0.3907 -0.0843
 7001SOL    HW227776   2.509   0.931   4.399  0.0013 -1.0370 -1.4111
 7001SOL    HW327777   2.565   1.069   4.430 -2.5730  0.0561 -1.4265
 7001SOL    MW427778   2.570   0.993   4.388 -0.0862  0.2317 -0.0411
 7002SOL     OW27779   1.621   4.867   2.818 -0.2418  0.0911  0.2239
 7002SOL    HW227780   1.683   4.924   2.774 -0.9792  1.9615  1.4758
 7002SOL    HW327781   1.675   4.801   2.862  0.6226 -0.2707 -1.3295
 7002SOL    MW427782   1.636   4.865   2.818  0.1246 -0.5643  0.3306
 7003SOL     OW27783   6.100   4.554   3.984  0.0748 -0.5309  0.0117
 7003SOL    HW227784   6.076   4.641   3.953 -2.7894  0.2446  3.6806
 7003SOL    HW327785   6.177   4.569   4.040  0.0994 -0.5019 -0.0301
 7003SOL    MW427786   6.107   4.567   3.988  0.0520 -0.6970  0.2494
 7004SOL     OW27787   0.088   1.557   1.508  0.1702 -0.2012  0.3882
 7004SOL    HW227788   0.048   1.514   1.432 -0.1305 -0.8647  0.9040
 7004SOL    HW327789   0.157   1.613   1.472 -1.3695  1.1709 -0.5596
 7004SOL    MW427790   0.092   1.559   1.493  0.0569  0.3224 -0.2611
 7005SOL     OW27791   4.258   5.371   1.750 -0.3359  0.1565  0.0189
 7005SOL    HW227792   4.287   5.352   1.839  0.9176 -0.2438 -0.4497
 7005SOL    HW327793   4.319   5.438   1.719  1.3963 -2.0144 -1.6326
 7005SOL    MW427794   4.270   5.377   1.758  0.4748  0.3143 -0.1027
 7006SOL     OW27795   4.588   3.055   0.591 -0.0388  0.4018 -0.0589
 7006SOL    HW227796   4.653   3.029   0.656  0.4789  1.1493 -0.2625
 7006SOL    HW327797   4.594   2.988   0.523  1.7451  1.3213 -0.8923
 7006SOL    MW427798   4.597   3.043   0.591  0.2813  0.1904 -0.0115
 7007SOL     OW27799   4.293   6.337   3.696 -0.1494  0.4264 -0.1101
 7007SOL    HW227800   4.304   6.421   3.740  1.0544  1.0657 -1.5302
 7007SOL    HW327801   4.353   6.342   3.621 -2.1212 -0.5727 -1.8413
 7007SOL    MW427802   4.302   6.349   3.692  0.1979  0.4181  0.0569
 7008SOL     OW27803   5.267   1.410   5.418 -0.0056 -0.5046  0.0603
 7008SOL    HW227804   5.341   1.354   5.438  1.8407  1.4977 -0.7674
 7008SOL    HW327805   5.263   1.413   5.322  0.5302  1.3972  0.0462
 7008SOL    MW427806   5.276   1.403   5.408 -0.4870  0.4640  0.4654
 7009SOL     OW27807   1.614   1.429   4.193  0.4057 -0.2015  0.7853
 7009SOL    HW227808   1.563   1.352   4.218  0.0490  0.2557  1.4767
 7009SOL    HW327809   1.703   1.395   4.181 -0.1137 -1.1023 -0.9003
 7009SOL    MW427810   1.619   1.414   4.194 -0.2005  0.7608 -0.1621
 7010SOL     OW27811   0.939   1.218   2.419 -0.0639 -0.2595 -0.9878
 7010SOL    HW227812   1.026   1.181   2.408  0.4295 -0.2802  1.9743
 7010SOL    HW327813   0.919   1.204   2.512 -2.4467  1.4061 -1.1548
 7010SOL    MW427814   0.948   1.211   2.430 -0.3872 -0.4190 -0.4665
 7011SOL     OW27815   3.981   4.073   2.569 -0.0826  0.4232  0.4959
 7011SOL    HW227816   3.954   3.991   2.610  2.7760 -0.8036  0.1389
 7011SOL    HW327817   3.904   4.099   2.517 -0.7077 -2.7386 -0.4307
 7011SOL    MW427818   3.967   4.065   2.567  0.0765 -0.4480 -0.0124
 7012SOL     OW27819   3.948   4.447   5.016 -0.0869  0.2123 -0.0146
 7012SOL    HW227820   3.856   4.473   5.025  0.1732  1.0509  0.3628
 7012SOL    HW327821   3.963   4.388   5.090 -0.1449  0.6160  0.3268
 7012SOL    MW427822   3.938   4.443   5.027 -0.2892  0.2549 -0.5154
 7013SOL     OW27823   5.300   6.322   5.202 -0.1355 -0.0886  0.4751
 7013SOL    HW227824   5.301   6.415   5.225  0.5063  0.1801 -0.5856
 7013SOL    HW327825   5.379   6.287   5.244  1.9607  0.7336 -2.4058
 7013SOL    MW427826   5.311   6.330   5.210 -0.3545 -0.3648 -0.7250
 7014SOL     OW27827   4.876   0.682   0.269 -0.1431 -0.5461  0.3571
 7014SOL    HW227828   4.957   0.718   0.232  0.4278 -1.8284  0.2985
 7014SOL    HW327829   4.895   0.589   0.281 -1.2672 -0.6716  1.3128
 7014SOL    MW427830   4.890   0.674   0.265 -0.1640  0.1957 -0.5814
 7015SOL     OW27831   3.686   1.629   1.624  0.4733  0.1305  0.5133
 7015SOL    HW227832   3.601   1.671   1.613  0.2751  0.0706  1.6916
 7015SOL    HW327833   3.665   1.537   1.642  0.8428 -0.1478 -0.4159
 7015SOL    MW427834   3.672   1.622   1.625  0.0483 -0.7697  0.5353
 7016SOL     OW27835   5.739   1.857   5.243  0.5755  0.2281  0.3225
 7016SOL    HW227836   5.718   1.842   5.336 -1.4377 -1.5966 -0.3500
 7016SOL    HW327837   5.752   1.952   5.237  0.9583  0.3755  2.4870
 7016SOL    MW427838   5.738   1.868   5.255 -0.3042  0.1007  0.1191
 7017SOL     OW27839   1.993   6.405   0.254 -0.1807  0.4715  0.1991
 7017SOL    HW227840   2.080   6.430   0.224 -0.1273 -0.0028 -0.0372
 7017SOL    HW327841   1.987   6.442   0.343  0.7126 -0.4866  0.6824
 7017SOL    MW427842   2.004   6.413   0.262 -0.0627 -0.0245 -0.0635
 7018SOL     OW27843   3.756   6.007   6.119  0.1780 -0.2165 -0.0200
 7018SOL    HW227844   3.726   6.031   6.207 -0.3733 -1.2370  0.0874
 7018SOL    HW327845   3.753   5.912   6.119  1.6814 -0.2826 -0.6339
 7018SOL    MW427846   3.752   5.998   6.131 -0.7409  0.0969  0.0772
 7019SOL     OW27847   4.484   2.932   1.747  0.5545 -0.6808  0.1183
 7019SOL    HW227848   4.481   3.027   1.749 -1.6928 -0.7199  1.5216
 7019SOL    HW327849   4.577   2.911   1.734  0.8395  1.6606 -2.7208
 7019SOL    MW427850   4.496   2.942   1.746  0.4427 -0.3085 -0.4516
 7020SOL     OW27851   3.278   5.035   2.021  0.1001 -0.1397 -0.1997
 7020SOL    HW227852   3.215   5.003   1.956 -1.2679 -0.8478  1.4170
 7020SOL    HW327853   3.361   4.994   1.995 -0.8160 -1.9677 -0.4078
 7020SOL    MW427854   3.281   5.025   2.009 -0.7447  0.7751  0.4921
 7021SOL     OW27855   2.952   0.049   1.269 -0.1255  0.0684 -0.3490
 7021SOL    HW227856   3.027  -0.002   1.238 -0.2487  0.0254 -0.5791
 7021SOL    HW327857   2.912  -0.006   1.336  0.5520  0.4641  0.3932
 7021SOL    MW427858   2.956   0.035   1.274  0.2645  0.8430 -0.6351
 7022SOL     OW27859   4.137   1.000   5.500  0.1842 -0.6678  0.5520
 7022SOL    HW227860   4.096   1.087   5.507 -0.1923 -0.8522  0.7108
 7022SOL    HW327861   4.083   0.945   5.557  1.5451 -0.6018  1.9786
 7022SOL    MW427862   4.124   1.004   5.509 -0.2218  0.2426  0.0628
 7023SOL     OW27863   6.102   3.957   4.365  0.3746 -0.3664 -0.2591
 7023SOL    HW227864   6.020   3.998   4.395 -0.3952 -1.8958 -0.1780
 7023SOL    HW327865   6.127   4.007   4.288 -1.3419 -0.6423 -1.0415
 7023SOL    MW427866   6.094   3.969   4.359 -0.5279  0.4961 -0.0300
 7024SOL     OW27867   0.910   4.075   2.682  0.4879 -0.5938 -0.6641
 7024SOL    HW227868   0.877   4.077   2.592  2.1267 -0.8798 -1.2949
 7024SOL    HW327869   0.997   4.036   2.676  0.0874 -1.9554  1.2406
 7024SOL    MW427870   0.917   4.070   2.670 -0.1736  0.2628 -0.0358
 7025SOL     OW27871   5.081   1.050   0.426 -0.3063  0.3169 -0.4616
 7025SOL    HW227872   5.145   0.980   0.431 -0.9764 -0.3240 -0.6114
 7025SOL    HW327873   5.073   1.081   0.516 -2.7853 -2.4084  0.4227
 7025SOL    MW427874   5.088   1.045   0.439  0.4046 -0.2076  0.0809
 7026SOL     OW27875   1.934   5.786   5.394  0.3680 -0.4726  0.2845
 7026SOL    HW227876   2.017   5.832   5.390 -0.3876  0.8957 -0.6508
 7026SOL    HW327877   1.921   5.768   5.487  0.7087  1.2357  0.6950
 7026SOL    MW427878   1.943   5.790   5.406  0.6082  0.5595  0.3057
 7027SOL     OW27879   2.797   6.111   3.016 -0.1950 -0.0068 -0.2453
 7027SOL    HW227880   2.891   6.099   3.004 -0.3031  0.0477 -1.3157
 7027SOL    HW327881   2.787   6.198   3.054  0.1394  0.5706 -1.4192
 7027SOL    MW427882   2.808   6.121   3.019  0.0168 -0.1299 -0.5098
 7028SOL     OW27883   6.169   6.130   2.477 -0.3126  0.4973 -0.1908
 7028SOL    HW227884   6.144   6.186   2.403 -0.1582  0.5535 -0.2027
 7028SOL    HW327885   6.165   6.188   2.553 -1.0800  0.2772 -0.0633
 7028SOL    MW427886   6.165   6.145   2.477  0.0032  0.2052  0.1057
 7029SOL     OW27887   5.756   4.696   1.045 -0.3053  0.0287  0.3189
 7029SOL    HW227888   5.666   4.708   1.017 -0.3815  0.2322  0.6477
 7029SOL    HW327889   5.805   4.685   0.964 -0.6017  0.0758  0.1324
 7029SOL    MW427890   5.751   4.696   1.031  0.0333  0.2494  0.0153
 7030SOL     OW27891   1.649   4.347   4.586  0.2553  0.0776 -0.2375
 7030SOL    HW227892   1.710   4.350   4.512 -0.4052 -1.0084 -0.8484
 7030SOL    HW327893   1.686   4.281   4.645  0.5346  0.6081  0.1856
 7030SOL    MW427894   1.662   4.339   4.584  0.0988 -0.0226  0.0026
 7031SOL     OW27895   5.174   0.377   0.655  0.0078 -0.2851  0.1302
 7031SOL    HW227896   5.126   0.414   0.729 -1.8866 -1.1745 -0.5798
 7031SOL    HW327897   5.199   0.453   0.603  1.1327  0.3338  1.4971
 7031SOL    MW427898   5.171   0.392   0.658  0.0134  0.3977  0.4663
 7032SOL     OW27899   2.848   4.411   3.179 -0.7086 -0.1955  0.2158
 7032SOL    HW227900   2.806   4.493   3.154 -1.0930 -0.4449  0.0276
 7032SOL    HW327901   2.831   4.351   3.106  1.4224  0.1704 -0.6499
 7032SOL    MW427902   2.840   4.414   3.166  0.2281 -0.7987 -0.1280
 7033SOL     OW27903   4.978   3.951   4.597  0.3051  0.3556  0.2449
 7033SOL    HW227904   5.015   3.890   4.533  2.0624  0.7468  0.8197
 7033SOL    HW327905   4.941   4.022   4.544 -0.1427 -0.3339 -0.3801
 7033SOL    MW427906   4.978   3.953   4.581 -0.1449  0.1766  0.1467
 7034SOL     OW27907   4.079   1.766   0.948  0.2066  0.2238  0.7249
 7034SOL    HW227908   4.008   1.703   0.950  0.0045  0.3371 -1.0943
 7034SOL    HW327909   4.104   1.777   1.040 -1.6892 -0.2824  1.3494
 7034SOL    MW427910   4.073   1.759   0.961 -0.4568  0.1350 -0.0003
 7035SOL     OW27911   4.941   5.327   4.873  0.1456 -0.3576  0.0128
 7035SOL    HW227912   4.971   5.414   4.897 -0.3402 -0.2208  0.1386
 7035SOL    HW327913   4.907   5.290   4.954  0.2573 -0.6295 -0.0618
 7035SOL    MW427914   4.941   5.333   4.887 -0.0341 -1.2161  0.1876
 7036SOL     OW27915   4.043   2.377   2.262 -0.3927 -0.5127 -0.7401
 7036SOL    HW227916   4.031   2.347   2.172  0.5492 -1.3762 -0.5996
 7036SOL    HW327917   4.108   2.447   2.255  0.8967 -1.6535 -0.5873
 7036SOL    MW427918   4.050   2.382   2.249 -0.2319 -0.4613  0.1044
 7037SOL     OW27919   2.185   5.449   2.719  0.0284 -0.0336  0.0721
 7037SOL    HW227920   2.230   5.378   2.674  1.2857 -0.5641  1.9982
 7037SOL    HW327921   2.093   5.439   2.696 -0.0291 -3.0747  1.2063
 7037SOL    MW427922   2.179   5.438   2.710 -0.2318 -0.3508  0.4864
 7038SOL     OW27923   2.972   2.999   0.880  0.5507 -0.3037  0.4586
 7038SOL    HW227924   2.956   2.906   0.861 -1.3527  0.5024 -2.5730
 7038SOL    HW327925   2.895   3.028   0.927 -0.3690  0.3704 -1.3783
 7038SOL    MW427926   2.960   2.990   0.883 -0.3861 -0.0136 -0.3349
 7039SOL     OW27927   3.555   1.389   5.754  0.1563 -0.3585  0.0414
 7039SOL    HW227928   3.580   1.393   5.662 -1.4601 -1.6314 -0.4918
 7039SOL    HW327929   3.546   1.296   5.772  0.1414 -0.1131  1.4231
 7039SOL    MW427930   3.557   1.377   5.745  0.3895  0.0652 -0.0663
 7040SOL     OW27931   1.727   0.463   0.424  1.1439 -0.1222 -0.0391
 7040SOL    HW227932   1.680   0.380   0.436  1.9785 -0.6040 -0.0329
 7040SOL    HW327933   1.817   0.444   0.451  1.0229  1.2097  1.4665
 7040SOL    MW427934   1.733   0.449   0.429  0.4075 -0.0446 -0.2370
 7041SOL     OW27935   3.585   4.335   4.389  0.2312  0.1232  0.2056
 7041SOL    HW227936   3.611   4.288   4.310 -1.8102 -2.1372  0.7436
 7041SOL    HW327937   3.489   4.329   4.390  0.0868  1.6385  1.9654
 7041SOL    MW427938   3.576   4.328   4.379  0.5965 -0.0556  0.2175
 7042SOL     OW27939   4.751   3.608   2.376 -0.5013 -0.3422 -0.3108
 7042SOL    HW227940   4.658   3.633   2.381  0.3502  4.2979 -2.2191
 7042SOL    HW327941   4.786   3.630   2.462 -1.1775 -3.0200  0.7525
 7042SOL    MW427942   4.743   3.614   2.388  0.3382  1.1093 -0.0610
 7043SOL     OW27943   3.198   2.873   0.281 -0.0300 -0.2817 -0.1943
 7043SOL    HW227944   3.259   2.813   0.325 -2.4155 -2.1875  0.7247
 7043SOL    HW327945   3.147   2.817   0.223 -1.9074  0.9583  0.1810
 7043SOL    MW427946   3.199   2.858   0.279  0.0034  0.1374  0.3060
 7044SOL     OW27947   2.010   2.573   0.672 -0.0387 -0.0366  0.0947
 7044SOL    HW227948   1.940   2.605   0.729  1.1327  0.3980  1.3413
 7044SOL    HW327949   2.087   2.571   0.728  0.6873 -1.7974 -0.8728
 7044SOL    MW427950   2.011   2.577   0.687 -0.5709 -0.0094 -0.2042
 7045SOL     OW27951   0.854   5.271   3.095  0.3944  0.0335 -0.4450
 7045SOL    HW227952   0.806   5.201   3.139 -0.1139 -0.6417 -2.0073
 7045SOL    HW327953   0.786   5.323   3.051  0.9305  0.2624 -1.0140
 7045SOL    MW427954   0.839   5.269   3.095  0.2844 -0.3422 -0.2617
 7046SOL     OW27955   5.237   3.706   4.219  0.3472 -0.7944  0.2078
 7046SOL    HW227956   5.194   3.785   4.187 -0.7106 -0.8536  1.4148
 7046SOL    HW327957   5.320   3.702   4.170  0.2945  0.8903 -0.0721
 7046SOL    MW427958   5.243   3.716   4.208 -0.5720  0.2900 -0.2890
 7047SOL     OW27959   5.767   3.568   4.234  0.4737 -0.3508  0.4211
 7047SOL    HW227960   5.725   3.653   4.244  1.6065  0.0781  1.7808
 7047SOL    HW327961   5.822   3.576   4.156  0.4434  0.1030  0.4460
 7047SOL    MW427962   5.768   3.580   4.225 -0.0892  0.6772  0.0048
 7048SOL     OW27963   1.704   1.153   0.674 -0.1739 -0.2813 -0.2628
 7048SOL    HW227964   1.652   1.136   0.753 -0.7704  2.0742 -0.0770
 7048SOL    HW327965   1.653   1.116   0.603 -1.0665  0.0895  0.1665
 7048SOL    MW427966   1.690   1.146   0.675  0.2948  0.2015  0.6149
 7049SOL     OW27967   5.789   4.629   2.108 -0.2568 -0.3983 -0.7232
 7049SOL    HW227968   5.719   4.691   2.130 -1.3998 -1.1701 -2.0041
 7049SOL    HW327969   5.869   4.671   2.140 -1.3680  0.1493  1.5259
 7049SOL    MW427970   5.790   4.643   2.115 -0.0742 -0.3245  0.2897
 7050SOL     OW27971   2.152   4.751   3.571  0.1652 -0.0999 -0.1001
 7050SOL    HW227972   2.226   4.724   3.516 -0.1248 -1.3927  0.1046
 7050SOL    HW327973   2.100   4.671   3.582 -0.7895  0.5809  0.4963
 7050SOL    MW427974   2.155   4.737   3.565  0.4365  0.0043  0.0316
 7051SOL     OW27975   5.607   5.879   5.234 -0.2245  0.1319  0.0563
 7051SOL    HW227976   5.556   5.944   5.186  0.9487  2.9565  2.3782
 7051SOL    HW327977   5.687   5.868   5.183 -0.3352  0.7068 -0.2486
 7051SOL    MW427978   5.610   5.886   5.221  0.4305 -0.2510 -0.6883
 7052SOL     OW27979   2.771   0.513   0.146  0.0218 -0.1826 -0.1696
 7052SOL    HW227980   2.785   0.493   0.238  0.3200 -0.9444 -0.3658
 7052SOL    HW327981   2.771   0.609   0.141  1.6935 -0.1174  0.3932
 7052SOL    MW427982   2.773   0.523   0.157  0.3130 -0.2790 -0.3019
 7053SOL     OW27983   4.572   3.045   0.082 -0.6629  0.3702  0.5608
 7053SOL    HW227984   4.665   3.020   0.078 -1.0652 -1.1608  0.0311
 7053SOL    HW327985   4.558   3.071   0.173  0.2132  0.3308  0.7213
 7053SOL    MW427986   4.583   3.045   0.093  0.2637 -0.3805 -0.4032
 7054SOL     OW27987   4.938   4.692   2.687 -0.2728  0.0295  0.8700
 7054SOL    HW227988   5.027   4.698   2.723  0.9093 -0.5798 -1.7326
 7054SOL    HW327989   4.951   4.680   2.593 -3.1402 -0.1811  0.4206
 7054SOL    MW427990   4.951   4.691   2.679 -0.3424  0.2624  0.2875
 7055SOL     OW27991   5.611   4.249   1.165 -0.2047 -0.6579 -0.0558
 7055SOL    HW227992   5.698   4.216   1.140 -1.1073 -2.4092 -1.0614
 7055SOL    HW327993   5.568   4.174   1.206 -1.4879 -0.0060 -0.1786
 7055SOL    MW427994   5.617   4.235   1.167  0.1589 -0.1479  0.0252
 7056SOL     OW27995   1.249   1.420   3.212  0.5692 -0.3642 -0.5564
 7056SOL    HW227996   1.325   1.366   3.231 -0.1171 -0.7615  1.3543
 7056SOL    HW327997   1.261   1.498   3.267  1.1683  1.1344 -2.6936
 7056SOL    MW427998   1.261   1.423   3.222 -0.1928  0.3942 -0.9164
 7057SOL     OW27999   5.661   4.162   5.473  0.1492 -0.3450  0.2499
 7057SOL    HW228000   5.685   4.241   5.425 -1.3677  0.7756  1.2497
 7057SOL    HW328001   5.716   4.164   5.552  0.5836 -0.6579 -0.0399
 7057SOL    MW428002   5.671   4.172   5.477 -0.0361  0.2684  0.5451
 7058SOL     OW28003   2.752   6.377   3.130 -0.7280 -0.0624  0.1659
 7058SOL    HW228004   2.815   6.436   3.170 -0.8839  0.0047  0.3118
 7058SOL    HW328005   2.752   6.400   3.037 -1.6480  0.9493  0.4077
 7058SOL    MW428006   2.760   6.388   3.123  0.1084 -0.4318  0.1844
 7059SOL     OW28007   0.672   5.597   2.761 -0.0422 -0.2565  0.0003
 7059SOL    HW228008   0.662   5.660   2.689 -0.5159  0.2686  0.5174
 7059SOL    HW328009   0.767   5.584   2.767  0.1370  1.0470  0.4076
 7059SOL    MW428010   0.684   5.604   2.752 -1.0738 -0.0680  0.2368
 7060SOL     OW28011   4.056   2.930   3.235  0.3950  0.1270 -0.5144
 7060SOL    HW228012   4.055   2.957   3.327 -1.9742 -1.0962 -0.1186
 7060SOL    HW328013   4.031   3.008   3.187 -0.2045  0.2913  0.0521
 7060SOL    MW428014   4.053   2.944   3.241  0.1445  0.3095 -0.2981
 7061SOL     OW28015   1.173   4.244   3.049  0.2675 -0.0741  0.0065
 7061SOL    HW228016   1.088   4.284   3.066 -0.7682 -0.6526 -3.1701
 7061SOL    HW328017   1.237   4.312   3.071 -1.0736  0.9675  0.8558
 7061SOL    MW428018   1.170   4.258   3.054 -0.0754  0.1533  0.1945
 7062SOL     OW28019   3.757   6.024   5.124  0.4988 -0.0291 -0.2967
 7062SOL    HW228020   3.796   6.078   5.192  2.6248 -1.0738 -0.6115
 7062SOL    HW328021   3.829   6.003   5.065 -0.5676 -1.9196 -1.0386
 7062SOL    MW428022   3.771   6.028   5.125  0.0299  0.1786  0.3800
 7063SOL     OW28023   4.291   5.387   4.098 -0.3859  0.7410  0.2021
 7063SOL    HW228024   4.213   5.334   4.110  1.1663 -1.5889  0.6158
 7063SOL    HW328025   4.322   5.405   4.187 -0.4890  1.7834  0.0460
 7063SOL    MW428026   4.285   5.383   4.111  0.7885 -0.1726  0.6651
 7064SOL     OW28027   0.008   2.254   4.007 -0.6032 -0.2843  0.4767
 7064SOL    HW228028   0.036   2.216   3.924  0.7327 -1.4251  1.4126
 7064SOL    HW328029  -0.041   2.332   3.981  1.9718  0.8888 -1.3578
 7064SOL    MW428030   0.005   2.260   3.992  0.5829 -0.2471 -0.2097
 7065SOL     OW28031   4.237   6.086   2.204  0.2948 -0.2668  0.4420
 7065SOL    HW228032   4.287   6.026   2.259  0.7713  0.9639  1.3928
 7065SOL    HW328033   4.180   6.029   2.152  0.5981 -1.5207  1.4381
 7065SOL    MW428034   4.236   6.071   2.205  0.2664 -0.5262 -0.1823
 7066SOL     OW28035   3.701   3.020   4.883  0.2614 -0.7178  0.1283
 7066SOL    HW228036   3.710   3.081   4.956 -0.1397  0.6978 -0.9558
 7066SOL    HW328037   3.745   2.940   4.913  2.5893  0.7253  0.8816
 7066SOL    MW428038   3.708   3.017   4.896  0.3415  0.2029 -0.0439
 7067SOL     OW28039   1.546   3.734   5.671 -0.1885 -0.0174 -0.4533
 7067SOL    HW228040   1.526   3.820   5.707  0.6813 -0.2462  0.6440
 7067SOL    HW328041   1.629   3.746   5.625  0.4199 -0.4374  0.4867
 7067SOL    MW428042   1.554   3.747   5.670 -0.1557 -0.0571  0.6589
 7068SOL     OW28043   1.005   3.703   6.026  0.2695  0.8216 -0.0469
 7068SOL    HW228044   1.052   3.759   5.964  2.6658  0.4708  1.3444
 7068SOL    HW328045   1.011   3.749   6.109 -0.0419 -0.2658  0.5914
 7068SOL    MW428046   1.012   3.716   6.028  0.4162  0.2281  0.9269
 7069SOL     OW28047   0.376   3.354   0.949 -0.3322  0.4628  0.3742
 7069SOL    HW228048   0.356   3.330   0.859  0.8889  0.0760  0.1900
 7069SOL    HW328049   0.371   3.271   0.998 -1.3878  0.7325  0.7569
 7069SOL    MW428050   0.372   3.340   0.944 -0.1209 -0.2502  0.3881
 7070SOL     OW28051   6.047   3.781   6.070  0.0588 -0.4909  0.7831
 7070SOL    HW228052   6.061   3.721   5.997  1.3764  1.1801 -0.4207
 7070SOL    HW328053   6.092   3.742   6.144  2.6431 -0.0857 -0.4885
 7070SOL    MW428054   6.055   3.768   6.070 -0.4186  0.2227  0.0174
 7071SOL     OW28055   1.587   4.314   0.460  0.6903 -0.1892 -0.1551
 7071SOL    HW228056   1.594   4.238   0.519  3.6973  0.1964  0.1561
 7071SOL    HW328057   1.659   4.371   0.486  1.5401  0.5054 -3.5096
 7071SOL    MW428058   1.597   4.311   0.471 -0.2996  0.8068  0.1396
 7072SOL     OW28059   5.185   2.477   5.009  0.1014  0.1579 -0.4781
 7072SOL    HW228060   5.132   2.520   5.076  1.1490  1.9589 -0.7297
 7072SOL    HW328061   5.147   2.390   4.999  0.0855 -0.2792  2.6408
 7072SOL    MW428062   5.173   2.471   5.016  0.6778  1.3471 -0.3598
 7073SOL     OW28063   5.761   4.784   5.055  0.5920 -0.1218  0.0223
 7073SOL    HW228064   5.693   4.769   4.989  0.3890  0.3116  0.1263
 7073SOL    HW328065   5.804   4.865   5.026  0.0238  0.4786  0.8070
 7073SOL    MW428066   5.757   4.793   5.042 -0.6895  0.4040 -0.3486
 7074SOL     OW28067   2.373   5.948   2.437 -0.2263  0.1917  0.1523
 7074SOL    HW228068   2.320   5.915   2.510 -0.8813 -0.2558 -0.4983
 7074SOL    HW328069   2.316   5.936   2.360  0.5133  0.4847 -0.4484
 7074SOL    MW428070   2.358   5.942   2.436  0.0634  0.2573  0.0483
 7075SOL     OW28071   1.610   1.341   1.215  0.4932 -0.4452  0.0567
 7075SOL    HW228072   1.706   1.339   1.218  0.5578  1.5155  0.4632
 7075SOL    HW328073   1.590   1.375   1.128  0.2051  0.1165  0.3386
 7075SOL    MW428074   1.620   1.345   1.204  0.5693  0.0157  0.8155
 7076SOL     OW28075   0.821   4.392   3.885 -0.0262 -0.4634 -0.4341
 7076SOL    HW228076   0.729   4.402   3.909  0.5938  2.2164  1.2019
 7076SOL    HW328077   0.850   4.313   3.931 -1.4802 -1.3611 -1.0122
 7076SOL    MW428078   0.813   4.383   3.894  0.3673  0.0655  0.0623
 7077SOL     OW28079   4.184   0.359   5.196  0.2643 -0.7792  0.4146
 7077SOL    HW228080   4.271   0.340   5.162 -0.2884 -0.3934 -1.3056
 7077SOL    HW328081   4.186   0.452   5.218  0.2816 -0.7771  0.4036
 7077SOL    MW428082   4.196   0.368   5.195  0.5585  0.8680  0.8214
 7078SOL     OW28083   0.285   1.213   2.992  0.0128  0.0308 -0.0493
 7078SOL    HW228084   0.192   1.192   3.002 -0.3089  0.2376 -2.1552
 7078SOL    HW328085   0.326   1.129   2.971  0.0607  0.1664 -0.5074
 7078SOL    MW428086   0.278   1.199   2.991 -0.4961 -0.1657  0.1442
 7079SOL     OW28087   1.092   2.411   3.382  0.3772  0.5107  0.0619
 7079SOL    HW228088   1.118   2.329   3.425 -0.2553  0.0358 -0.4506
 7079SOL    HW328089   1.151   2.419   3.307 -0.1507  0.0548 -0.4070
 7079SOL    MW428090   1.104   2.402   3.378  0.1476 -0.1683 -0.1965
 7080SOL     OW28091   1.440   1.855   3.250 -0.5032  0.0630 -0.0024
 7080SOL    HW228092   1.524   1.902   3.246  1.0029 -2.4059  0.3535
 7080SOL    HW328093   1.375   1.924   3.264  1.5623  2.0203  0.6849
 7080SOL    MW428094   1.443   1.871   3.252  0.4554  0.5345  0.3525
 7081SOL     OW28095   0.321   2.399   3.648 -0.0548  0.5023  0.1021
 7081SOL    HW228096   0.413   2.372   3.645  0.2272  1.4817 -0.3477
 7081SOL    HW328097   0.294   2.381   3.738  0.7007  0.5974  0.3554
 7081SOL    MW428098   0.330   2.393   3.660  0.0331  0.3918 -0.0305
 7082SOL     OW28099   2.326   4.383   0.527 -0.4711 -0.0768  0.0308
 7082SOL    HW228100   2.265   4.341   0.467 -0.7990 -3.1238  2.2263
 7082SOL    HW328101   2.276   4.394   0.608  1.2149 -0.7200  1.2371
 7082SOL    MW428102   2.311   4.379   0.530  0.6274  0.9119  0.1236
 7083SOL     OW28103   4.008   3.339   4.919  0.6464 -0.3538 -0.1888
 7083SOL    HW228104   3.925   3.363   4.961  1.4054 -0.4862  1.4533
 7083SOL    HW328105   3.986   3.261   4.868  0.1959 -1.8195  2.0803
 7083SOL    MW428106   3.994   3.332   4.918  0.2487  0.1354 -0.0339
 7084SOL     OW28107   1.984   6.318   1.594  0.3274  0.6678  0.5445
 7084SOL    HW228108   1.924   6.244   1.582  0.9167  0.2133  0.3090
 7084SOL    HW328109   2.025   6.302   1.679  0.9939  0.3087  0.1721
 7084SOL    MW428110   1.982   6.306   1.604 -0.6688  0.4247 -0.0597
 7085SOL     OW28111   2.060   3.979   4.749  0.5503 -0.6802 -0.2995
 7085SOL    HW228112   1.992   4.032   4.708 -0.1397 -1.4465 -0.1765
 7085SOL    HW328113   2.021   3.949   4.831  0.8934 -1.4320 -0.3984
 7085SOL    MW428114   2.046   3.982   4.755  0.5325  0.4429  0.5610
 7086SOL     OW28115   3.726   3.603   4.788 -0.0369 -0.7986 -0.0619
 7086SOL    HW228116   3.717   3.649   4.704  0.9312 -0.9504 -0.2720
 7086SOL    HW328117   3.762   3.518   4.764 -0.1393 -0.9940  0.4771
 7086SOL    MW428118   3.730   3.598   4.774 -0.2655 -0.2489 -0.0027
 7087SOL     OW28119   0.585   1.856   2.366  0.4892 -0.4113  0.3656
 7087SOL    HW228120   0.515   1.794   2.343  0.7219 -0.8325  0.7619
 7087SOL    HW328121   0.665   1.804   2.358  0.6614 -0.2420  0.9976
 7087SOL    MW428122   0.586   1.841   2.362 -0.7073  0.3199 -0.2718
 7088SOL     OW28123   0.350   3.313   6.187 -0.3599  0.1514 -0.0052
 7088SOL    HW228124   0.313   3.313   6.099 -0.8360  1.8907  0.1437
 7088SOL    HW328125   0.417   3.245   6.186 -2.4743 -2.0700 -0.7627
 7088SOL    MW428126   0.354   3.304   6.176 -0.1841 -0.2178 -0.5588
 7089SOL     OW28127   5.428   0.752   1.816 -0.0394  0.1554  0.0019
 7089SOL    HW228128   5.443   0.712   1.901 -0.2698  1.7503  0.8217
 7089SOL    HW328129   5.365   0.821   1.832  1.5891  1.9872 -0.9885
 7089SOL    MW428130   5.422   0.756   1.829 -0.2381  0.0564 -0.4060
 7090SOL     OW28131   3.239   5.267   3.007  0.3269 -0.1742 -0.0159
 7090SOL    HW228132   3.304   5.329   3.040 -0.6995  1.4206 -0.8726
 7090SOL    HW328133   3.159   5.318   2.996 -1.5095 -2.3467  2.1571
 7090SOL    MW428134   3.237   5.282   3.010  0.0956 -0.0194 -0.1554
 7091SOL     OW28135   0.599   0.673   5.250  0.6841 -0.3516 -0.5045
 7091SOL    HW228136   0.632   0.720   5.326  1.2066  0.6992 -1.3572
 7091SOL    HW328137   0.673   0.670   5.189  0.1705 -0.8429 -1.1224
 7091SOL    MW428138   0.613   0.679   5.252 -0.2752  0.1413 -0.1842
 7092SOL     OW28139   0.777   3.103   4.613 -0.5455  0.3867 -0.4304
 7092SOL    HW228140   0.776   3.101   4.709 -1.4345 -2.1937 -0.4291
 7092SOL    HW328141   0.727   3.026   4.587  0.4306  0.5419 -2.9918
 7092SOL    MW428142   0.770   3.093   4.622  0.1757 -1.0441  0.4063
 7093SOL     OW28143   1.108   0.549   4.070  0.2539 -0.2386  0.0258
 7093SOL    HW228144   1.056   0.561   3.990  0.1404  0.3888  0.1956
 7093SOL    HW328145   1.144   0.635   4.089 -0.2461 -0.2393  1.0258
 7093SOL    MW428146   1.106   0.562   4.062  0.3466 -0.3195 -0.8845
 7094SOL     OW28147   1.329   3.313   3.656  0.5405  1.0167  0.0249
 7094SOL    HW228148   1.316   3.393   3.606  0.6186  1.3459  0.5151
 7094SOL    HW328149   1.424   3.306   3.666  0.7630 -0.7358 -2.5262
 7094SOL    MW428150   1.340   3.323   3.651  0.5563 -0.2500  0.2682
 7095SOL     OW28151   5.886   6.081   5.681  0.0214  0.7797 -1.0457
 7095SOL    HW228152   5.974   6.085   5.718 -0.6228  0.7076  0.5594
 7095SOL    HW328153   5.900   6.054   5.590  1.7305  2.0005 -1.2063
 7095SOL    MW428154   5.899   6.078   5.674 -0.0165 -0.3623 -1.0220
 7096SOL     OW28155   2.773   2.525   0.493  0.2280 -0.2124  0.3576
 7096SOL    HW228156   2.711   2.593   0.518  1.1134  0.1423  1.6896
 7096SOL    HW328157   2.718   2.447   0.479 -0.6218  0.3446  0.4997
 7096SOL    MW428158   2.757   2.524   0.495  0.4349  0.2518  0.5485
 7097SOL     OW28159   1.122   5.086   1.255  0.0737  0.6364  0.0652
 7097SOL    HW228160   1.089   5.152   1.195 -0.6445  0.0620 -0.1822
 7097SOL    HW328161   1.217   5.089   1.245 -0.0384  0.5922 -1.0553
 7097SOL    MW428162   1.130   5.095   1.246 -0.2546 -0.7371 -0.0370
 7098SOL     OW28163   6.321   0.662   5.534  0.2585 -0.0031  0.0374
 7098SOL    HW228164   6.413   0.635   5.535  0.7934  1.7054 -0.1781
 7098SOL    HW328165   6.291   0.648   5.624  1.2885  1.1698  0.5905
 7098SOL    MW428166   6.329   0.656   5.546  1.0216 -0.1225  1.0320
 7099SOL     OW28167   1.778   0.571   5.685 -0.2013 -0.3548  0.2551
 7099SOL    HW228168   1.864   0.556   5.723  0.1527  0.9323  0.0146
 7099SOL    HW328169   1.716   0.531   5.747  0.4868 -0.1417  1.0928
 7099SOL    MW428170   1.781   0.564   5.698 -0.0412  0.5302 -0.2388
 7100SOL     OW28171   4.731   3.060   5.079  0.4568  1.1793 -0.1815
 7100SOL    HW228172   4.688   2.998   5.020  0.1100  0.7467  0.5106
 7100SOL    HW328173   4.661   3.088   5.139  1.3021 -0.3140  1.6115
 7100SOL    MW428174   4.716   3.055   5.079  0.3978 -0.0325 -0.4351
 7101SOL     OW28175   4.476   5.838   4.014 -0.0001  0.0280  0.2717
 7101SOL    HW228176   4.492   5.875   4.101 -1.0639  0.0345  0.4875
 7101SOL    HW328177   4.456   5.914   3.959 -3.8592 -0.1643  1.0884
 7101SOL    MW428178   4.475   5.853   4.018  0.0026  0.1943  0.2306
 7102SOL     OW28179   4.836   4.768   0.986 -0.0306 -0.7100 -0.2589
 7102SOL    HW228180   4.763   4.797   1.040 -0.2208 -1.2848 -0.2101
 7102SOL    HW328181   4.796   4.724   0.912  0.2503 -0.5015 -0.5396
 7102SOL    MW428182   4.821   4.766   0.983 -0.2487 -0.3673  0.3286
 7103SOL     OW28183   0.790   3.607   5.899 -0.2397  0.0216  0.8854
 7103SOL    HW228184   0.855   3.664   5.941 -1.3933  0.5363  2.0537
 7103SOL    HW328185   0.729   3.668   5.857 -0.2885 -0.4330  0.2932
 7103SOL    MW428186   0.791   3.623   5.899 -0.1939 -0.0721 -0.0348
 7104SOL     OW28187   2.947   4.832   4.200  0.3463 -0.0671  0.3028
 7104SOL    HW228188   2.928   4.764   4.135 -0.5501 -0.2069  0.6949
 7104SOL    HW328189   3.008   4.792   4.261 -1.2892 -1.0565  1.3713
 7104SOL    MW428190   2.952   4.818   4.199  0.0796  0.0892 -0.0607
 7105SOL     OW28191   6.402   2.933   2.007  0.5316  0.0912  0.1470
 7105SOL    HW228192   6.353   2.979   2.074 -2.6393 -0.9508 -1.2925
 7105SOL    HW328193   6.434   2.854   2.050 -3.3228 -1.6810  0.0760
 7105SOL    MW428194   6.400   2.929   2.021 -0.0040 -0.1537 -0.4592
 7106SOL     OW28195   3.720   0.213   4.513 -0.5571 -0.3337 -0.7722
 7106SOL    HW228196   3.713   0.118   4.498  0.1922 -0.5428  0.1645
 7106SOL    HW328197   3.779   0.244   4.444 -0.6807 -0.5635 -0.9855
 7106SOL    MW428198   3.727   0.204   4.502  0.0200  0.3997  0.2464
 7107SOL     OW28199   3.696   1.318   5.331  0.1987 -0.3359  0.1414
 7107SOL    HW228200   3.645   1.369   5.394 -0.5117 -1.3528  0.4256
 7107SOL    HW328201   3.758   1.380   5.294 -1.6274  1.1078 -0.6477
 7107SOL    MW428202   3.698   1.333   5.335  0.2771  0.2494 -0.8006
 7108SOL     OW28203   0.375   1.821   5.427  0.4744 -0.2109 -0.0808
 7108SOL    HW228204   0.463   1.844   5.455 -0.2446  0.6462  1.6388
 7108SOL    HW328205   0.325   1.902   5.437 -0.8328 -1.0444  0.4263
 7108SOL    MW428206   0.380   1.835   5.432 -0.7281  0.1059 -0.1290
 7109SOL     OW28207   0.560   2.210   5.794  0.3137  0.3720  0.3467
 7109SOL    HW228208   0.580   2.176   5.707  1.6512 -1.3092  1.2557
 7109SOL    HW328209   0.645   2.239   5.828 -0.3520  1.9739  0.7245
 7109SOL    MW428210   0.574   2.209   5.787  0.2365 -0.8799 -0.2485
 7110SOL     OW28211   3.707   5.032   1.038  0.1954 -0.4246  0.7559
 7110SOL    HW228212   3.708   5.051   1.132  1.3886 -0.0863  0.6934
 7110SOL    HW328213   3.739   5.113   0.997  2.5285 -1.4807  0.2870
 7110SOL    MW428214   3.712   5.045   1.045 -0.3292  0.2714 -0.6788
 7111SOL     OW28215   0.314   2.973   2.490  0.1445  0.1717  0.1970
 7111SOL    HW228216   0.380   2.909   2.515 -1.3650 -1.7073 -0.3762
 7111SOL    HW328217   0.351   3.018   2.414  0.2870 -1.7387 -0.9183
 7111SOL    MW428218   0.327   2.971   2.483  0.4978  0.0636 -0.0423
 7112SOL     OW28219   2.992   2.689   2.601 -0.2437  0.0656 -0.1088
 7112SOL    HW228220   3.019   2.771   2.641  1.7567 -0.1121 -0.9424
 7112SOL    HW328221   3.070   2.658   2.555 -1.6590 -1.0114 -1.9731
 7112SOL    MW428222   3.006   2.696   2.600 -0.1357  0.2063  0.5516
 7113SOL     OW28223   4.569   3.712   4.069  0.1929  0.3269 -0.2029
 7113SOL    HW228224   4.656   3.723   4.106  0.0434  1.6375 -0.1912
 7113SOL    HW328225   4.583   3.667   3.986  0.8142 -0.0261  0.0881
 7113SOL    MW428226   4.582   3.708   4.063 -0.0228 -0.5049 -0.3657
 7114SOL     OW28227   6.396   1.871   4.595  0.6220  0.2234 -0.1543
 7114SOL    HW228228   6.340   1.833   4.663  1.6269  0.4384  0.8250
 7114SOL    HW328229   6.376   1.821   4.517 -0.9258  0.2862  0.1642
 7114SOL    MW428230   6.386   1.860   4.594  0.1486 -0.2517  0.2958
 7115SOL     OW28231   3.135   4.930   4.814 -0.0882  0.1092 -0.0728
 7115SOL    HW228232   3.226   4.906   4.834  0.3980  1.0076 -1.1073
 7115SOL    HW328233   3.083   4.876   4.874  1.1059 -0.6217  0.3582
 7115SOL    MW428234   3.140   4.920   4.825  0.6061  0.0069  0.3026
 7116SOL     OW28235   5.449   5.973   5.450 -0.7029 -0.7402 -0.4651
 7116SOL    HW228236   5.501   5.928   5.384 -0.8671  0.6142 -1.5719
 7116SOL    HW328237   5.467   6.066   5.436 -2.2099 -0.3164  0.1505
 7116SOL    MW428238   5.458   5.979   5.440 -0.0525 -0.2810  0.6327
 7117SOL     OW28239   2.441   1.591   5.658  0.2906  0.1416  0.1359
 7117SOL    HW228240   2.486   1.673   5.680 -0.0776 -0.2987  2.8690
 7117SOL    HW328241   2.445   1.539   5.738 -2.4185 -1.1537 -0.4500
 7117SOL    MW428242   2.448   1.595   5.671 -0.6374  0.3236 -0.1533
 7118SOL     OW28243   5.821   0.308   2.731  0.2323 -0.4008 -0.0130
 7118SOL    HW228244   5.726   0.314   2.728  0.2251  1.1296  1.4661
 7118SOL    HW328245   5.850   0.370   2.664  0.2000 -1.1789 -0.7548
 7118SOL    MW428246   5.812   0.317   2.722 -0.1478  0.4447  0.1210
 7119SOL     OW28247   4.744   0.312   3.553 -0.2965  0.0120  0.4523
 7119SOL    HW228248   4.667   0.367   3.568 -0.4997 -0.1742  0.1106
 7119SOL    HW328249   4.774   0.338   3.465  1.0554  1.3161  1.2578
 7119SOL    MW428250   4.738   0.323   3.543 -0.5511  0.2594  0.4464
 7120SOL     OW28251   5.563   4.884   2.603 -0.2395 -0.4437 -0.4862
 7120SOL    HW228252   5.482   4.883   2.653 -1.0495 -0.6528 -1.7542
 7120SOL    HW328253   5.569   4.796   2.566  1.7850 -1.2254  1.4082
 7120SOL    MW428254   5.553   4.872   2.605 -0.0039 -0.2389 -0.0445
 7121SOL     OW28255   1.980   4.365   1.226  0.3274  0.4360  0.7995
 7121SOL    HW228256   1.930   4.284   1.211 -1.6337  1.4097  1.6762
 7121SOL    HW328257   2.055   4.337   1.279  1.0896 -1.1621 -0.9903
 7121SOL    MW428258   1.983   4.350   1.231  0.1969 -0.1770 -0.2350
 7122SOL     OW28259   2.758   2.238   0.453  0.6034 -0.3543  0.7293
 7122SOL    HW228260   2.831   2.176   0.450  0.0673 -1.0043  0.8162
 7122SOL    HW328261   2.715   2.228   0.368 -0.1771 -0.9656  1.1827
 7122SOL    MW428262   2.762   2.228   0.442  0.7687  1.0605 -0.0332
 7123SOL     OW28263   1.101   3.376   4.327 -0.3749  0.1420  0.2494
 7123SOL    HW228264   1.010   3.383   4.355 -0.3424 -1.4646  0.8565
 7123SOL    HW328265   1.141   3.315   4.390  0.8202 -0.0867 -0.6938
 7123SOL    MW428266   1.094   3.369   4.339  0.1254 -0.3438  0.4192
 7124SOL     OW28267   4.593   2.083   3.975  0.3197 -0.0308  0.3807
 7124SOL    HW228268   4.537   2.157   3.998 -0.0303  0.0446 -0.6635
 7124SOL    HW328269   4.661   2.082   4.042 -0.1532  0.7219  0.8793
 7124SOL    MW428270   4.595   2.093   3.987  0.0921 -0.3164 -0.1228
 7125SOL     OW28271   2.243   5.541   0.111  0.6105  0.3249  0.5826
 7125SOL    HW228272   2.274   5.528   0.021  0.7141  1.4705  0.4339
 7125SOL    HW328273   2.156   5.579   0.101  0.2785 -0.3136  0.9832
 7125SOL    MW428274   2.236   5.544   0.098  0.0703  0.2594 -0.0539
 7126SOL     OW28275   5.427   2.656   3.687 -0.0006  0.0087 -0.5767
 7126SOL    HW228276   5.403   2.685   3.599  0.1343 -0.9263 -0.9371
 7126SOL    HW328277   5.468   2.733   3.728 -1.1504  0.8100 -0.8963
 7126SOL    MW428278   5.429   2.670   3.681 -0.1059 -0.1809  0.2793
 7127SOL     OW28279   4.681   6.385   4.278  0.1310  0.0115 -0.1196
 7127SOL    HW228280   4.758   6.410   4.227  1.3925 -1.4702  0.9387
 7127SOL    HW328281   4.670   6.455   4.343  0.2020  0.5308 -0.6670
 7127SOL    MW428282   4.690   6.397   4.280  0.3649 -0.5286 -0.2722
 7128SOL     OW28283   4.307   1.708   5.816  0.1897 -0.4065  0.5417
 7128SOL    HW228284   4.316   1.791   5.770  0.6093 -1.2568 -0.9976
 7128SOL    HW328285   4.261   1.730   5.896  0.5958  1.3571  0.3360
 7128SOL    MW428286   4.302   1.722   5.820 -0.6613  0.7336  0.5870
 7129SOL     OW28287   0.861   4.864   5.480  0.3483  0.0432 -0.1218
 7129SOL    HW228288   0.838   4.771   5.479  1.0473 -0.1342 -0.2577
 7129SOL    HW328289   0.870   4.888   5.388 -1.6505  0.7271 -0.1855
 7129SOL    MW428290   0.859   4.855   5.468 -0.1910  0.3234  0.3656
 7130SOL     OW28291   3.259   4.427   1.329 -0.1857 -0.4761  0.3764
 7130SOL    HW228292   3.252   4.473   1.413  1.1146  0.3664  0.0467
 7130SOL    HW328293   3.268   4.335   1.354  2.0261 -0.0768  1.2979
 7130SOL    MW428294   3.259   4.421   1.344  0.2431 -0.5273 -0.1501
 7131SOL     OW28295   0.386   5.682   5.744 -0.3928 -0.1228 -0.3676
 7131SOL    HW228296   0.450   5.657   5.811 -0.7149  0.8310  0.3190
 7131SOL    HW328297   0.373   5.602   5.693  0.6943 -0.5656  0.0150
 7131SOL    MW428298   0.393   5.668   5.746 -0.0040  0.0303  0.4465
 7132SOL     OW28299   3.705   1.340   1.890 -0.5301 -0.0818  0.0375
 7132SOL    HW228300   3.751   1.322   1.808  0.3766  0.3355  0.4536
 7132SOL    HW328301   3.753   1.412   1.930 -2.3468  1.2913 -0.1541
 7132SOL    MW428302   3.717   1.347   1.884  0.5809 -0.3493  0.3857
 7133SOL     OW28303   2.183   4.574   5.220 -0.2089  0.4180  0.0831
 7133SOL    HW228304   2.092   4.546   5.216 -0.1060  0.2431 -1.5605
 7133SOL    HW328305   2.196   4.598   5.312 -2.1541  1.2695  0.1945
 7133SOL    MW428306   2.173   4.574   5.232 -0.1286 -0.2238 -0.9350
 7134SOL     OW28307   5.536   6.183   2.558  0.0010  0.1917 -1.0253
 7134SOL    HW228308   5.631   6.193   2.552  0.0469 -0.1702 -0.9448
 7134SOL    HW328309   5.518   6.102   2.511 -0.1905 -0.0969 -0.4612
 7134SOL    MW428310   5.546   6.174   2.551 -0.4365 -0.3464 -0.0151
 7135SOL     OW28311   3.698   6.283   4.989  0.0171 -0.1348  0.3282
 7135SOL    HW228312   3.769   6.336   5.025 -0.8360  0.0897  1.7501
 7135SOL    HW328313   3.702   6.201   5.039 -2.2685  0.8357  2.2606
 7135SOL    MW428314   3.708   6.279   5.001 -0.3180 -0.3338  0.0383
 7136SOL     OW28315   1.648   0.745   2.191  0.1661  0.6730 -0.1519
 7136SOL    HW228316   1.666   0.653   2.173  0.8336  0.3592  1.8674
 7136SOL    HW328317   1.558   0.758   2.159  0.5519 -0.2720 -1.7456
 7136SOL    MW428318   1.638   0.734   2.184 -0.2182  0.0972 -0.6054
 7137SOL     OW28319   3.471   6.178   1.179 -0.2458 -0.1326  0.0507
 7137SOL    HW228320   3.400   6.242   1.185 -0.8449 -0.9031  2.0121
 7137SOL    HW328321   3.474   6.138   1.266  0.8203 -2.0170 -0.8019
 7137SOL    MW428322   3.462   6.181   1.191 -0.0917  0.3096  0.7383
 7138SOL     OW28323   0.806   1.462   1.656 -0.0037  0.4214 -0.4819
 7138SOL    HW228324   0.889   1.420   1.678  0.1799  1.2904  0.5737
 7138SOL    HW328325   0.817   1.494   1.567  0.3066 -0.6233 -0.8355
 7138SOL    MW428326   0.818   1.460   1.647  0.6923 -0.5686 -0.0909
 7139SOL     OW28327   5.773   5.768   4.583  0.0325  0.1004 -0.2720
 7139SOL    HW228328   5.681   5.776   4.560 -0.3579 -1.0865  0.7863
 7139SOL    HW328329   5.801   5.857   4.604 -0.5595  0.6441 -1.6530
 7139SOL    MW428330   5.765   5.781   4.582 -0.0468 -0.3173 -0.0700
 7140SOL     OW28331   3.540   2.323   6.194  0.3242 -0.3903 -0.4772
 7140SOL    HW228332   3.550   2.376   6.272 -0.1334  0.2646 -0.8588
 7140SOL    HW328333   3.466   2.362   6.147  0.6628 -0.7026 -1.2892
 7140SOL    MW428334   3.532   2.335   6.198 -0.0659  0.1435 -0.3276
 7141SOL     OW28335   3.493   4.993   1.296 -0.2842 -0.0907 -0.6245
 7141SOL    HW228336   3.424   4.995   1.363 -0.8401  0.3991 -1.1924
 7141SOL    HW328337   3.571   5.026   1.341 -0.6899  0.3923 -0.2602
 7141SOL    MW428338   3.494   4.998   1.311 -0.0780  0.0146 -0.0002
 7142SOL     OW28339   2.927   5.090   3.257 -0.0827 -0.4624  0.2766
 7142SOL    HW228340   3.014   5.095   3.298 -0.1913 -0.1564  0.4737
 7142SOL    HW328341   2.943   5.108   3.164  0.2030 -1.4310  0.1334
 7142SOL    MW428342   2.940   5.093   3.250 -0.3822 -0.0482  0.3164
 7143SOL     OW28343   4.843   3.558   5.122  0.3005  0.3641 -0.2107
 7143SOL    HW228344   4.907   3.521   5.061  0.8995  0.1105  0.5477
 7143SOL    HW328345   4.828   3.647   5.089  3.3399  1.5612  1.1993
 7143SOL    MW428346   4.850   3.565   5.109 -0.3984 -0.3785  0.1217
 7144SOL     OW28347   6.091   4.337   6.017 -0.8809  0.5149 -0.2028
 7144SOL    HW228348   6.002   4.315   6.042 -1.0277 -1.5293 -2.1789
 7144SOL    HW328349   6.082   4.386   5.935 -0.2189  1.9920  0.5647
 7144SOL    MW428350   6.078   4.341   6.009  0.6889 -0.2271 -0.0269
 7145SOL     OW28351   0.823   1.858   4.324 -0.1077  0.0374  0.4699
 7145SOL    HW228352   0.838   1.799   4.251  0.4027 -0.6977  1.1525
 7145SOL    HW328353   0.776   1.805   4.389  1.3644  0.0136  1.5575
 7145SOL    MW428354   0.818   1.843   4.323  0.2881 -0.5035 -0.0099
 7146SOL     OW28355   3.255   4.224   2.142 -0.3051  0.3843 -0.5501
 7146SOL    HW228356   3.239   4.266   2.227 -1.2404  0.1122 -0.5883
 7146SOL    HW328357   3.214   4.138   2.149  2.1892 -0.8685 -0.2221
 7146SOL    MW428358   3.247   4.219   2.154  0.8739  0.3964 -0.5531
 7147SOL     OW28359   3.103   1.438   1.545 -0.0257  0.0423  0.6822
 7147SOL    HW228360   3.104   1.446   1.450 -0.5415  0.7517  0.7280
 7147SOL    HW328361   3.135   1.523   1.576  0.7088 -0.3900  1.1417
 7147SOL    MW428362   3.108   1.450   1.537  0.2622 -0.2209  0.7040
 7148SOL     OW28363   0.964   4.891   2.065  0.4112  0.0359 -0.1812
 7148SOL    HW228364   1.010   4.819   2.021  2.1346  1.1665 -0.3502
 7148SOL    HW328365   1.030   4.928   2.124 -1.2649 -0.2006  1.9546
 7148SOL    MW428366   0.979   4.886   2.067 -0.4041  0.0567  0.1028
 7149SOL     OW28367   5.701   1.807   2.309 -0.6376  0.4657 -0.5229
 7149SOL    HW228368   5.629   1.746   2.318 -1.0388  0.5776 -2.6560
 7149SOL    HW328369   5.704   1.829   2.216  1.5290  1.2159 -0.3445
 7149SOL    MW428370   5.692   1.802   2.298 -0.0929  0.0368  0.2039
 7150SOL     OW28371   2.392   4.496   1.518 -0.6386 -0.0212  0.1966
 7150SOL    HW228372   2.463   4.433   1.532  1.4051  2.3121  1.0262
 7150SOL    HW328373   2.335   4.487   1.594 -1.3407 -1.9817 -0.5148
 7150SOL    MW428374   2.394   4.487   1.530  0.4387 -0.0815  0.0146
 7151SOL     OW28375   5.372   2.732   5.005  0.3984 -0.6819 -1.1383
 7151SOL    HW228376   5.399   2.673   5.075  1.5550 -0.7804 -1.6557
 7151SOL    HW328377   5.277   2.743   5.018  0.5447 -0.9430  0.2391
 7151SOL    MW428378   5.363   2.726   5.016 -0.1248  0.3985 -0.1059
 7152SOL     OW28379   6.415   3.690   0.223  0.2187 -0.3120  0.0446
 7152SOL    HW228380   6.474   3.619   0.197  1.1198  0.3745  0.1320
 7152SOL    HW328381   6.393   3.734   0.141  0.1468 -0.3382  0.0505
 7152SOL    MW428382   6.420   3.686   0.209 -0.3673 -0.1456 -0.3093
 7153SOL     OW28383   1.762   4.117   2.277 -0.0442 -0.4474  0.1362
 7153SOL    HW228384   1.800   4.058   2.212 -0.8045 -0.5895 -0.1984
 7153SOL    HW328385   1.681   4.148   2.236  1.3375  2.5129 -0.6146
 7153SOL    MW428386   1.756   4.113   2.263  0.1642  0.1190  0.0992
 7154SOL     OW28387   4.068   4.863   5.493 -0.2182  0.8451  0.6992
 7154SOL    HW228388   4.064   4.777   5.534 -0.1852  0.9061  0.8305
 7154SOL    HW328389   3.978   4.895   5.493 -0.8150 -0.4587 -2.0815
 7154SOL    MW428390   4.056   4.856   5.498 -0.2803  0.1182  0.5972
 7155SOL     OW28391   4.676   0.306   2.079 -0.1785 -0.2333  0.0346
 7155SOL    HW228392   4.740   0.264   2.023  2.2834  3.1270  0.0584
 7155SOL    HW328393   4.681   0.259   2.162  1.3868 -0.7862 -0.3587
 7155SOL    MW428394   4.685   0.294   2.083 -0.4585 -1.0056  0.0014
 7156SOL     OW28395   3.338   0.470   0.349  0.6357  0.2985 -0.1240
 7156SOL    HW228396   3.369   0.519   0.273  0.3765 -0.3826 -0.6821
 7156SOL    HW328397   3.418   0.449   0.398  0.7993  0.7923 -0.1788
 7156SOL    MW428398   3.353   0.473   0.345  0.0207  0.1150 -0.1904
 7157SOL     OW28399   0.028   5.764   1.925  0.0107 -0.0984  0.2889
 7157SOL    HW228400   0.015   5.677   1.962  2.9760  0.3547  2.8665
 7157SOL    HW328401   0.066   5.748   1.838 -1.6959 -1.2887 -0.2724
 7157SOL    MW428402   0.031   5.751   1.918  0.1281  0.3669 -0.2477
 7158SOL     OW28403   4.451   0.671   5.444 -0.2474  0.3194  0.1486
 7158SOL    HW228404   4.543   0.658   5.420 -1.0627 -1.8224 -2.2769
 7158SOL    HW328405   4.434   0.763   5.427  0.9845  0.3152 -1.2624
 7158SOL    MW428406   4.461   0.681   5.439  0.2738 -0.3024 -0.1995
 7159SOL     OW28407   3.215   5.476   4.593 -0.1202  0.5003  0.1965
 7159SOL    HW228408   3.129   5.493   4.555 -0.0874  0.1137 -0.0508
 7159SOL    HW328409   3.195   5.443   4.681 -0.2004  1.1367  0.4289
 7159SOL    MW428410   3.201   5.474   4.600  0.4360  0.3736 -0.1237
 7160SOL     OW28411   3.984   0.292   3.073  0.1482  0.1357  0.1277
 7160SOL    HW228412   3.944   0.365   3.122 -1.5274 -0.3588 -0.4242
 7160SOL    HW328413   3.932   0.286   2.993 -0.0486 -1.9266  0.3513
 7160SOL    MW428414   3.972   0.301   3.069  0.4049 -0.5658  0.4181
 7161SOL     OW28415   6.150   1.842   1.145  0.4776 -0.0438  0.0369
 7161SOL    HW228416   6.069   1.814   1.188  0.6534 -0.4078  0.1410
 7161SOL    HW328417   6.211   1.770   1.162  1.2026  0.7698  1.0386
 7161SOL    MW428418   6.147   1.828   1.153  0.4731  0.8036  0.1159
 7162SOL     OW28419   5.291   4.295   2.426  0.3682  0.1371  0.2164
 7162SOL    HW228420   5.227   4.262   2.364  0.7750 -0.9846  0.3666
 7162SOL    HW328421   5.367   4.317   2.373  0.0705  0.9492  0.1067
 7162SOL    MW428422   5.293   4.294   2.411 -0.0945  0.5298  0.0282
 7163SOL     OW28423   4.403   4.699   5.929 -0.1213 -0.2164 -0.1089
 7163SOL    HW228424   4.382   4.722   6.020 -0.7105 -1.5832  0.1259
 7163SOL    HW328425   4.484   4.649   5.936 -0.3780 -0.6600 -0.2883
 7163SOL    MW428426   4.411   4.695   5.942 -0.3127 -0.1044  0.0003
 7164SOL     OW28427   3.324   4.218   2.772 -0.3505  0.8032  0.2603
 7164SOL    HW228428   3.309   4.313   2.768 -0.4072  0.7567 -0.9995
 7164SOL    HW328429   3.418   4.207   2.757 -0.2677  0.6748  0.8410
 7164SOL    MW428430   3.334   4.229   2.770  0.1408  0.1206 -0.1968
 7165SOL     OW28431   6.019   3.497   4.353 -0.1872 -0.1267 -0.2954
 7165SOL    HW228432   5.929   3.523   4.333  0.3171  0.0737 -2.5482
 7165SOL    HW328433   6.036   3.423   4.296  0.6058 -1.1761  1.2364
 7165SOL    MW428434   6.009   3.491   4.343 -0.2784  0.7926  0.0583
 7166SOL     OW28435   2.433   0.751   4.662 -0.5801 -0.2145 -0.3262
 7166SOL    HW228436   2.446   0.765   4.569  1.3936 -0.7825 -0.1811
 7166SOL    HW328437   2.493   0.812   4.705 -1.0212 -0.3781  0.5638
 7166SOL    MW428438   2.443   0.761   4.656  0.9883 -0.2800  0.2913
 7167SOL     OW28439   1.101   2.576   4.488 -0.3079  0.7697  0.1364
 7167SOL    HW228440   1.070   2.667   4.486  1.6158  1.4727 -0.0900
 7167SOL    HW328441   1.192   2.583   4.516 -0.2394 -1.1457  0.5027
 7167SOL    MW428442   1.109   2.589   4.491  0.3088 -0.0594  0.3876
 7168SOL     OW28443   6.200   4.832   3.651 -0.1797 -0.2712  0.2179
 7168SOL    HW228444   6.215   4.772   3.578  1.5875 -1.7526  1.6951
 7168SOL    HW328445   6.181   4.916   3.608  3.2822 -0.4194 -2.1107
 7168SOL    MW428446   6.200   4.835   3.635 -0.4600  0.2451  0.2023
 7169SOL     OW28447   4.727   1.811   2.055  0.1461  0.4723 -0.4019
 7169SOL    HW228448   4.776   1.796   1.974  0.7142  0.7052 -0.1065
 7169SOL    HW328449   4.656   1.747   2.052  0.7333 -0.1780 -0.6200
 7169SOL    MW428450   4.724   1.801   2.044  0.1759 -0.9330  0.1013
 7170SOL     OW28451   0.764   3.673   2.897  0.2753 -0.2132 -0.3334
 7170SOL    HW228452   0.860   3.675   2.899  0.2720 -0.6179  0.5998
 7170SOL    HW328453   0.741   3.729   2.823  1.2238  0.3673 -0.2141
 7170SOL    MW428454   0.774   3.681   2.888 -0.0951 -0.2553  0.5514
 7171SOL     OW28455   1.254   2.991   0.094  0.0034  0.1615  0.2536
 7171SOL    HW228456   1.277   3.049   0.167 -0.3467  2.1005 -1.0887
 7171SOL    HW328457   1.320   2.922   0.097  2.2929  2.1801  0.2620
 7171SOL    MW428458   1.266   2.990   0.104 -0.1507 -0.4003 -0.0359
 7172SOL     OW28459   0.259   6.360   5.138 -0.4790 -0.1087 -0.4435
 7172SOL    HW228460   0.347   6.332   5.165 -1.1846 -1.2830  0.7787
 7172SOL    HW328461   0.219   6.280   5.102 -1.4964  0.0705  0.2507
 7172SOL    MW428462   0.265   6.346   5.137 -0.1139 -0.5358  0.1232
 7173SOL     OW28463   5.962   3.068   5.432  0.5228 -0.1876  0.1385
 7173SOL    HW228464   5.873   3.096   5.452  0.1930 -0.0535 -1.3843
 7173SOL    HW328465   5.959   2.972   5.437 -0.2479 -0.3019 -1.8617
 7173SOL    MW428466   5.950   3.059   5.435  0.4853 -0.2051  0.3205
 7174SOL     OW28467   2.800   2.485   2.659 -0.3074  0.2968 -0.0856
 7174SOL    HW228468   2.811   2.422   2.731 -0.7880  2.1463  1.6980
 7174SOL    HW328469   2.877   2.541   2.666 -0.1737  0.2800 -1.2954
 7174SOL    MW428470   2.812   2.484   2.670  0.4005  0.3570  0.1272
 7175SOL     OW28471   6.048   3.287   6.138  0.3508  0.3354  0.3850
 7175SOL    HW228472   6.067   3.339   6.215 -0.6370  1.3274 -0.0122
 7175SOL    HW328473   6.031   3.199   6.171  1.9823  0.2558  1.0684
 7175SOL    MW428474   6.048   3.282   6.152  0.5016  0.4060 -0.0515
 7176SOL     OW28475   1.439   1.943   4.547 -0.2029 -0.1784  0.0908
 7176SOL    HW228476   1.422   2.034   4.568  0.7341 -0.1906  0.9685
 7176SOL    HW328477   1.417   1.936   4.454  1.0858  1.3001 -0.3658
 7176SOL    MW428478   1.434   1.954   4.537  0.1346 -0.0444  0.2545
 7177SOL     OW28479   0.553   3.675   1.675  0.1966 -0.0059 -0.2579
 7177SOL    HW228480   0.599   3.607   1.724 -0.0573  1.2891  1.9150
 7177SOL    HW328481   0.580   3.662   1.584  2.3818 -1.2232  0.4945
 7177SOL    MW428482   0.563   3.664   1.670  0.3297 -0.6060 -0.2403
 7178SOL     OW28483   2.407   1.742   2.399 -0.3389  0.4668 -0.4512
 7178SOL    HW228484   2.493   1.775   2.424  0.4350 -1.2074 -0.7420
 7178SOL    HW328485   2.404   1.653   2.435 -2.8031  1.1678  1.3689
 7178SOL    MW428486   2.418   1.735   2.407  0.0912  0.5918  0.5511
 7179SOL     OW28487   5.065   3.268   5.807  0.2016  0.5245 -0.2765
 7179SOL    HW228488   5.003   3.272   5.881 -0.2491 -0.5852 -0.5729
 7179SOL    HW328489   5.109   3.353   5.809  0.4632  0.3927  1.4935
 7179SOL    MW428490   5.063   3.280   5.817 -0.1987  0.5833  0.4834
 7180SOL     OW28491   4.922   3.637   1.532 -0.0446 -0.5188  0.1549
 7180SOL    HW228492   4.905   3.574   1.461  0.4784  0.1611 -0.5850
 7180SOL    HW328493   4.858   3.614   1.599  0.1983 -1.9043 -0.0600
 7180SOL    MW428494   4.911   3.625   1.531  0.1401  0.4737  0.0818
 7181SOL     OW28495   3.419   2.708   0.359 -0.4293  0.2601  0.2771
 7181SOL    HW228496   3.401   2.623   0.398 -0.1382  0.2768  0.4488
 7181SOL    HW328497   3.449   2.762   0.432  1.4044 -0.0762 -0.1914
 7181SOL    MW428498   3.420   2.704   0.374 -0.1921 -0.1135 -0.0642
 7182SOL     OW28499   1.013   0.163   3.622  0.6691  0.9101 -0.3038
 7182SOL    HW228500   1.108   0.169   3.611  0.8738 -0.1650  0.6922
 7182SOL    HW328501   1.001   0.147   3.716 -0.3754 -1.1519 -0.7429
 7182SOL    MW428502   1.024   0.162   3.633  0.1231  0.5083 -0.4526
 7183SOL     OW28503   3.370   5.309   5.522 -0.3423 -0.0917 -0.0631
 7183SOL    HW228504   3.322   5.231   5.495 -2.8209  1.0836  0.6990
 7183SOL    HW328505   3.391   5.294   5.614  1.5805 -0.9329 -0.5798
 7183SOL    MW428506   3.367   5.297   5.530 -0.6050 -0.2547  0.8075
 7184SOL     OW28507   1.571   1.877   0.523 -0.0857  0.5056  0.4239
 7184SOL    HW228508   1.482   1.854   0.496 -0.3457  0.8549  0.9720
 7184SOL    HW328509   1.571   1.866   0.618  0.9040 -1.0008  0.2908
 7184SOL    MW428510   1.559   1.872   0.532  0.2559  0.2529  0.0248
 7185SOL     OW28511   4.741   6.124   0.162 -0.0441  0.1457  0.1585
 7185SOL    HW228512   4.708   6.056   0.102 -1.0270  0.9566 -0.2565
 7185SOL    HW328513   4.808   6.170   0.112 -1.2673  1.1976 -0.5861
 7185SOL    MW428514   4.745   6.121   0.148  0.0333  0.1831 -0.3022
 7186SOL     OW28515   3.008   4.211   1.161  0.0339 -0.2953 -0.3610
 7186SOL    HW228516   3.074   4.165   1.109  0.1812  1.4853 -1.8188
 7186SOL    HW328517   3.043   4.208   1.250  1.1456 -1.0116 -0.7876
 7186SOL    MW428518   3.022   4.204   1.166 -0.2674 -0.1354  0.4096
 7187SOL     OW28519   1.357   1.588   4.307 -0.1098 -0.0025 -0.0846
 7187SOL    HW228520   1.343   1.536   4.228  0.7029 -0.1088 -0.1624
 7187SOL    HW328521   1.451   1.605   4.309 -0.3875  1.6993 -0.2030
 7187SOL    MW428522   1.368   1.583   4.297 -0.6944 -0.2160  0.1178
 7188SOL     OW28523   2.978   2.599   2.910  0.1072 -0.4145 -0.1936
 7188SOL    HW228524   2.955   2.685   2.875  0.2743 -0.1422  0.3574
 7188SOL    HW328525   2.898   2.567   2.951 -0.5607 -1.4176 -2.1243
 7188SOL    MW428526   2.964   2.606   2.911  0.0222 -0.1221 -0.5670
 7189SOL     OW28527   3.908   4.677   3.629  0.1634 -0.8097 -0.3734
 7189SOL    HW228528   3.816   4.676   3.655  0.8931  0.7734  2.7574
 7189SOL    HW328529   3.907   4.710   3.539 -2.2709  1.0817  0.2274
 7189SOL    MW428530   3.896   4.681   3.620  0.4987  0.2527  0.0897
 7190SOL     OW28531   4.824   4.961   2.719  0.2952 -1.0244  0.0095
 7190SOL    HW228532   4.750   4.959   2.658  0.8399  0.5075 -0.7746
 7190SOL    HW328533   4.865   4.875   2.711 -0.7434 -1.4922 -0.3892
 7190SOL    MW428534   4.820   4.950   2.710  0.1449 -0.2881  0.2225
 7191SOL     OW28535   4.386   2.910   0.796 -0.2795  0.5055  0.2468
 7191SOL    HW228536   4.367   2.907   0.702 -2.7176 -0.5197  0.7073
 7191SOL    HW328537   4.431   2.827   0.813 -1.1345  0.0156  0.1972
 7191SOL    MW428538   4.390   2.899   0.786  0.0182 -0.2357 -0.9321
 7192SOL     OW28539   2.377   2.466   3.472 -0.1214  1.3166 -0.1695
 7192SOL    HW228540   2.471   2.450   3.479  0.0504  1.8485 -1.0725
 7192SOL    HW328541   2.370   2.542   3.413 -1.0894  1.6329  0.3315
 7192SOL    MW428542   2.389   2.474   3.465  0.4266  0.3791 -0.1630
 7193SOL     OW28543   5.782   6.006   4.730  0.3558 -0.3299  0.2427
 7193SOL    HW228544   5.714   6.071   4.713  0.7702 -0.2547 -1.2144
 7193SOL    HW328545   5.833   6.043   4.803 -1.0296 -0.3108  1.2371
 7193SOL    MW428546   5.780   6.019   4.738 -0.3128 -0.7141 -0.7351
 7194SOL     OW28547   4.042   0.513   6.309  0.1252 -0.2957  0.3290
 7194SOL    HW228548   3.981   0.529   6.382 -1.3202 -0.6859 -0.7571
 7194SOL    HW328549   3.986   0.500   6.233  1.5985 -0.2455 -0.8102
 7194SOL    MW428550   4.027   0.514   6.309 -0.4132  0.1649  0.1103
 7195SOL     OW28551   4.983   1.366   1.959  0.0197  0.0470 -0.0221
 7195SOL    HW228552   4.942   1.407   1.883 -1.0041 -1.5592 -0.3689
 7195SOL    HW328553   5.009   1.440   2.015 -0.8721  1.1851 -1.0668
 7195SOL    MW428554   4.981   1.381   1.957  0.2609 -0.5106  0.0706
 7196SOL     OW28555   4.731   0.187   4.897  0.8298  0.1730 -0.4285
 7196SOL    HW228556   4.770   0.205   4.983  0.1620 -1.6768  0.3057
 7196SOL    HW328557   4.753   0.096   4.879 -0.1576  0.1437 -1.6184
 7196SOL    MW428558   4.739   0.178   4.906  0.2957 -0.0304 -0.2209
 7197SOL     OW28559   4.158   2.082   0.409 -0.2130 -0.5845 -0.1178
 7197SOL    HW228560   4.122   2.171   0.405  1.1200  0.0275  0.7629
 7197SOL    HW328561   4.211   2.082   0.489  4.4733 -0.3403 -2.8864
 7197SOL    MW428562   4.160   2.094   0.419 -0.0650 -0.6046 -0.0942
 7198SOL     OW28563   0.230   4.228   1.045 -0.5806 -0.1446 -0.0514
 7198SOL    HW228564   0.197   4.305   0.998  0.9970  1.4167  1.2372
 7198SOL    HW328565   0.325   4.236   1.040 -0.3231 -0.0202  3.0420
 7198SOL    MW428566   0.238   4.239   1.039 -0.2592  0.4791  0.2874
 7199SOL     OW28567   6.035   1.412   1.352  0.1024  0.0806 -0.0127
 7199SOL    HW228568   6.079   1.409   1.266  1.0956  1.7397  0.4062
 7199SOL    HW328569   5.971   1.483   1.344 -0.7680 -0.6517  0.2188
 7199SOL    MW428570   6.032   1.421   1.339  0.4085 -0.2888 -0.0131
 7200SOL     OW28571   5.667   1.941   6.153  0.7678  0.2758 -0.1350
 7200SOL    HW228572   5.721   1.924   6.075  2.0919  0.6741  0.6536
 7200SOL    HW328573   5.731   1.958   6.223 -0.3753 -0.6469  1.1808
 7200SOL    MW428574   5.683   1.941   6.152  0.1105  0.8294  0.7693
 7201SOL     OW28575   0.167   0.432   4.528  0.6649  0.4032  0.3868
 7201SOL    HW228576   0.127   0.428   4.615 -0.7053 -0.3526 -0.2423
 7201SOL    HW328577   0.225   0.356   4.524  1.6743  1.1231  1.0639
 7201SOL    MW428578   0.169   0.421   4.539  0.0385 -0.0764 -0.0512
 7202SOL     OW28579   3.885   0.290   5.804 -0.5161  0.7012 -0.4762
 7202SOL    HW228580   3.833   0.241   5.740 -0.3211  2.3333 -1.9553
 7202SOL    HW328581   3.958   0.326   5.753 -0.6705  2.5214  0.5207
 7202SOL    MW428582   3.888   0.288   5.789  0.3135  0.2008  0.0732
 7203SOL     OW28583   5.970   1.696   2.793 -0.2221 -0.4199 -0.0984
 7203SOL    HW228584   6.048   1.664   2.749 -0.4554 -0.5206 -0.4453
 7203SOL    HW328585   5.925   1.748   2.727  1.9527  3.8348  1.3595
 7203SOL    MW428586   5.974   1.699   2.779  0.0043  0.8002 -0.0289
 7204SOL     OW28587   3.106   2.088   5.506  0.1896 -0.3593  0.0159
 7204SOL    HW228588   3.094   2.168   5.456 -1.3622 -1.2205 -1.0572
 7204SOL    HW328589   3.050   2.099   5.583  0.7236 -0.0257  0.3610
 7204SOL    MW428590   3.097   2.100   5.510  0.5472  0.1695 -0.2267
 7205SOL     OW28591   4.997   2.859   0.056  0.1507 -0.3029  0.0761
 7205SOL    HW228592   4.914   2.822   0.087 -0.0732 -0.4891 -0.7204
 7205SOL    HW328593   5.037   2.788   0.006  0.5127 -0.0156 -0.0431
 7205SOL    MW428594   4.991   2.845   0.053  0.2908 -0.2025 -0.4561
 7206SOL     OW28595   6.330   5.172   1.884  0.1510  0.6050  0.0411
 7206SOL    HW228596   6.398   5.196   1.946 -0.5280 -0.6206  1.3354
 7206SOL    HW328597   6.288   5.255   1.860 -0.6518  1.0239  2.5653
 7206SOL    MW428598   6.333   5.186   1.889 -0.0541 -0.3407  0.0251
 7207SOL     OW28599   3.608   5.603   5.460  0.5006  0.6737  0.2341
 7207SOL    HW228600   3.702   5.613   5.472  0.2809  0.8361  2.0503
 7207SOL    HW328601   3.570   5.629   5.544 -1.0688 -0.8718  0.0591
 7207SOL    MW428602   3.615   5.608   5.472  0.8875 -0.0978  0.5526
 7208SOL     OW28603   4.283   1.512   5.634 -0.6568  1.3223  0.3369
 7208SOL    HW228604   4.299   1.567   5.711 -0.7442 -0.4202  1.6527
 7208SOL    HW328605   4.236   1.436   5.668 -0.4149  0.3512 -1.3935
 7208SOL    MW428606   4.279   1.510   5.649 -0.0296  0.3236  0.4656
 7209SOL     OW28607   3.581   6.271   0.137 -0.0346 -0.1927  0.0988
 7209SOL    HW228608   3.510   6.328   0.108 -0.3410 -0.2004  0.7949
 7209SOL    HW328609   3.626   6.323   0.204  0.4601 -0.2857 -0.1643
 7209SOL    MW428610   3.577   6.286   0.142 -0.4154  0.1156  0.0175
 7210SOL     OW28611   4.515   5.921   2.024 -0.0481 -0.3028  0.1521
 7210SOL    HW228612   4.511   6.016   2.032  1.7660 -0.2400  0.8375
 7210SOL    HW328613   4.608   5.902   2.014 -0.3699 -2.0181  0.1555
 7210SOL    MW428614   4.527   5.931   2.024  0.1169 -0.4072 -0.1470
 7211SOL     OW28615   6.293   1.998   0.069 -0.3442 -0.1241  0.0682
 7211SOL    HW228616   6.339   2.014   0.151  0.2375  0.5958 -0.3856
 7211SOL    HW328617   6.220   2.059   0.069 -0.2726 -0.0381 -0.0047
 7211SOL    MW428618   6.289   2.008   0.080  0.1221 -0.1216  0.3111
 7212SOL     OW28619   0.813   1.655   2.091  0.2325 -0.3432  0.2628
 7212SOL    HW228620   0.854   1.595   2.153 -0.1520 -1.6824 -0.7326
 7212SOL    HW328621   0.886   1.698   2.047  0.5339 -0.6551  0.4506
 7212SOL    MW428622   0.828   1.653   2.093 -0.0206 -0.1331 -0.0218
 7213SOL     OW28623   5.193   0.162   5.229  0.0830  0.1998  0.1187
 7213SOL    HW228624   5.194   0.163   5.324 -0.1804  1.5248  0.1261
 7213SOL    HW328625   5.193   0.255   5.204 -0.4565 -0.1233 -1.1531
 7213SOL    MW428626   5.193   0.175   5.238  0.2768  0.0386 -0.4490
 7214SOL     OW28627   2.052   3.344   1.282  0.1239  0.9992  0.5121
 7214SOL    HW228628   2.070   3.291   1.360 -0.1407  1.6406  1.0162
 7214SOL    HW328629   1.964   3.378   1.296  0.9903  3.1470  1.1298
 7214SOL    MW428630   2.043   3.342   1.294 -0.4987 -0.2378 -0.3791
 7215SOL     OW28631   3.321   1.851   6.263  0.0997 -0.3550 -0.1536
 7215SOL    HW228632   3.395   1.839   6.204 -0.4381  1.1392 -1.1825
 7215SOL    HW328633   3.317   1.946   6.279 -0.2903 -0.6233  1.6212
 7215SOL    MW428634   3.330   1.862   6.257  0.1926  0.1873 -0.3030
 7216SOL     OW28635   3.792   5.296   0.937 -0.1700 -0.7256  0.0798
 7216SOL    HW228636   3.820   5.388   0.936  1.3039 -1.0995 -2.7821
 7216SOL    HW328637   3.871   5.246   0.918 -1.3831 -2.4243 -0.7580
 7216SOL    MW428638   3.806   5.302   0.934  0.1549  0.1146  0.0368
 7217SOL     OW28639   1.403   5.702   2.105 -0.5374  0.6269 -0.1200
 7217SOL    HW228640   1.332   5.638   2.103 -0.3378  0.4104 -0.5209
 7217SOL    HW328641   1.430   5.705   2.197  0.3048 -0.8514 -0.2731
 7217SOL    MW428642   1.397   5.694   2.117  0.2750  0.4682  0.2827
 7218SOL     OW28643   3.709   6.140   0.422 -0.0706 -0.4634  0.0224
 7218SOL    HW228644   3.613   6.139   0.421 -0.1162  0.1591  1.5169
 7218SOL    HW328645   3.732   6.095   0.503  0.8973 -0.0279 -0.0025
 7218SOL    MW428646   3.699   6.134   0.432  0.2707 -0.2662  0.0009
 7219SOL     OW28647   0.692   0.576   1.071 -0.0729  0.3065 -0.5010
 7219SOL    HW228648   0.756   0.644   1.048  0.7034 -0.5681 -1.0047
 7219SOL    HW328649   0.634   0.618   1.134 -0.8274  2.0761 -2.2798
 7219SOL    MW428650   0.693   0.590   1.076  0.3308 -0.3025  0.5737
 7220SOL     OW28651   3.161   3.348   2.956  0.0892 -0.5481 -0.2488
 7220SOL    HW228652   3.083   3.394   2.926  1.4035  1.8612 -0.2394
 7220SOL    HW328653   3.227   3.366   2.889  1.0961 -1.1726  0.5340
 7220SOL    MW428654   3.160   3.356   2.943  0.7489 -0.4955 -0.6501
 7221SOL     OW28655   0.402   0.179   3.538 -0.0467  0.5266  0.2881
 7221SOL    HW228656   0.362   0.103   3.580 -0.2130 -0.5395 -1.6828
 7221SOL    HW328657   0.495   0.158   3.536 -0.4082 -1.5565 -3.6374
 7221SOL    MW428658   0.409   0.166   3.543  0.2946  0.3878  0.2318
 7222SOL     OW28659   5.214   1.058   1.269  0.2145 -0.2561  0.0533
 7222SOL    HW228660   5.243   1.129   1.211 -1.6464  1.8349  1.5396
 7222SOL    HW328661   5.146   1.098   1.324  0.9223 -2.4939  2.7609
 7222SOL    MW428662   5.209   1.073   1.268  0.1422 -0.4004 -0.2396
 7223SOL     OW28663   2.387   5.420   4.739 -0.1130 -0.5467 -0.0410
 7223SOL    HW228664   2.329   5.463   4.677 -0.3279 -1.2854 -0.3698
 7223SOL    HW328665   2.426   5.491   4.790 -2.9787 -0.0952  1.7273
 7223SOL    MW428666   2.385   5.435   4.738 -0.3484 -0.0284 -0.1745
 7224SOL     OW28667   2.128   2.103   1.141 -0.0813  0.3066 -0.2502
 7224SOL    HW228668   2.177   2.152   1.075  1.1533 -0.3722  0.1256
 7224SOL    HW328669   2.149   2.011   1.124 -3.4071 -0.3244 -1.8055
 7224SOL    MW428670   2.137   2.097   1.130  0.3231  0.0436  1.0703
 7225SOL     OW28671   3.532   1.262   3.929 -0.5730  0.0363 -0.5866
 7225SOL    HW228672   3.489   1.176   3.936 -0.9119  0.1133 -1.6193
 7225SOL    HW328673   3.598   1.261   3.999 -2.0368 -0.1908  0.8660
 7225SOL    MW428674   3.535   1.250   3.939  0.4578 -0.3607 -0.5096
 7226SOL     OW28675   4.553   6.075   5.082  0.3000 -0.1987 -0.2352
 7226SOL    HW228676   4.503   6.065   5.162  0.8706 -1.4204 -0.0179
 7226SOL    HW328677   4.537   5.994   5.033  2.1650 -0.7053 -0.0799
 7226SOL    MW428678   4.545   6.063   5.086 -0.1046 -0.4006  0.1399
 7227SOL     OW28679   5.078   6.149   3.061  0.0968  0.0796 -0.2754
 7227SOL    HW228680   5.078   6.237   3.022  1.8431 -0.3712 -1.4150
 7227SOL    HW328681   5.147   6.102   3.014 -0.2178 -1.6539  0.8998
 7227SOL    MW428682   5.087   6.154   3.050 -0.0091  0.2941  0.0466
 7228SOL     OW28683   4.113   5.251   2.281  0.3931 -0.5819 -0.2606
 7228SOL    HW228684   4.076   5.339   2.284  0.2923 -0.5460 -1.7554
 7228SOL    HW328685   4.202   5.261   2.313  0.2564 -0.0043 -0.0509
 7228SOL    MW428686   4.120   5.264   2.285  0.4860 -0.2678  0.2718
 7229SOL     OW28687   4.778   5.581   2.621  0.2085 -0.3701 -0.0024
 7229SOL    HW228688   4.822   5.646   2.676  0.1839  0.1665 -0.6065
 7229SOL    HW328689   4.702   5.627   2.586  0.0124 -0.8258 -0.1767
 7229SOL    MW428690   4.774   5.595   2.624 -0.3105  0.5643 -0.2485
 7230SOL     OW28691   3.073   5.068   2.303 -0.1112 -0.2506  0.0079
 7230SOL    HW228692   2.994   5.123   2.299 -0.0641 -0.0860  1.1944
 7230SOL    HW328693   3.141   5.122   2.262 -0.5776 -0.3681 -0.9702
 7230SOL    MW428694   3.072   5.082   2.297  0.2206 -0.2636 -0.1984
 7231SOL     OW28695   4.668   4.400   5.212 -0.3915 -0.0378  0.0274
 7231SOL    HW228696   4.677   4.493   5.232 -0.8620  0.7723 -3.1310
 7231SOL    HW328697   4.578   4.379   5.238 -1.1363  1.0693 -1.5376
 7231SOL    MW428698   4.657   4.409   5.218  0.0324  0.0759 -0.2385
 7232SOL     OW28699   4.494   3.970   6.387 -1.0409 -0.3372 -0.6953
 7232SOL    HW228700   4.586   3.993   6.373 -0.1966 -2.6515  0.5717
 7232SOL    HW328701   4.456   4.046   6.430  0.3770  0.4905 -0.8647
 7232SOL    MW428702   4.501   3.983   6.391  0.4719 -0.0476  0.0418
 7233SOL     OW28703   2.838   2.112   3.155  0.1915  0.3880  0.3921
 7233SOL    HW228704   2.907   2.173   3.181 -0.7445  1.7747 -0.2408
 7233SOL    HW328705   2.800   2.082   3.237 -1.3072  3.0323  0.7657
 7233SOL    MW428706   2.842   2.116   3.169 -0.0780 -0.4809 -0.2766
 7234SOL     OW28707   6.172   0.986   5.904 -0.2020  0.1137  0.1300
 7234SOL    HW228708   6.112   0.953   5.837 -0.2270 -0.8103  0.5842
 7234SOL    HW328709   6.169   1.081   5.895 -2.3197  0.1485  0.6070
 7234SOL    MW428710   6.164   0.994   5.894 -0.1166  0.0362  0.4391
 7235SOL     OW28711   5.809   2.466   4.229 -0.0359 -0.0997 -0.5502
 7235SOL    HW228712   5.805   2.371   4.220 -0.3855 -0.1227 -0.1688
 7235SOL    HW328713   5.717   2.494   4.229  0.0686  0.2540 -0.8214
 7235SOL    MW428714   5.796   2.457   4.228 -0.3561  0.2283 -0.3361
 7236SOL     OW28715   6.419   3.420   3.511 -0.0522  0.4319  0.3231
 7236SOL    HW228716   6.480   3.357   3.549  0.0769 -0.6031 -1.5031
 7236SOL    HW328717   6.445   3.426   3.419 -2.2164  0.5118 -0.3365
 7236SOL    MW428718   6.430   3.412   3.504 -0.2251  0.0250 -0.0910
 7237SOL     OW28719   2.882   0.853   0.416  0.0829  0.0552 -0.0808
 7237SOL    HW228720   2.931   0.935   0.412  1.4418 -0.7429 -0.1646
 7237SOL    HW328721   2.947   0.784   0.399 -0.8856 -1.0967  0.6947
 7237SOL    MW428722   2.897   0.855   0.413 -0.1960  0.1266  0.0284
 7238SOL     OW28723   3.361   0.232   3.558  0.4678  0.2221  0.1043
 7238SOL    HW228724   3.402   0.304   3.606 -0.5354  1.1557 -0.4169
 7238SOL    HW328725   3.435   0.178   3.529  1.1313 -0.1713  2.3339
 7238SOL    MW428726   3.376   0.234   3.561  0.2912  0.0162 -0.0220
 7239SOL     OW28727   3.017   4.448   1.023  0.7107 -0.4695 -0.1327
 7239SOL    HW228728   3.001   4.381   1.090 -0.2955  0.4835  0.6118
 7239SOL    HW328729   2.940   4.504   1.026  1.0077  0.0559 -1.5645
 7239SOL    MW428730   3.005   4.446   1.033 -0.1368  0.1448  0.0747
 7240SOL     OW28731   0.581   5.723   3.658  0.0098 -0.2146 -0.1892
 7240SOL    HW228732   0.512   5.744   3.596  0.3155 -0.2900 -0.5592
 7240SOL    HW328733   0.544   5.744   3.744 -0.4192 -0.1260 -0.3955
 7240SOL    MW428734   0.567   5.729   3.661  0.3593 -0.0936  0.0378
 7241SOL     OW28735   1.848   2.185   3.494 -0.1171  0.1693  0.1793
 7241SOL    HW228736   1.909   2.164   3.423 -1.1111 -0.8022 -0.4203
 7241SOL    HW328737   1.776   2.123   3.483 -0.8910  0.8309  1.2878
 7241SOL    MW428738   1.847   2.174   3.483  0.4255 -0.0333 -0.0613
 7242SOL     OW28739   1.948   3.993   3.556  0.1497 -0.4288 -0.4957
 7242SOL    HW228740   2.027   3.958   3.597 -0.3748 -0.0952  0.8580
 7242SOL    HW328741   1.959   4.088   3.560 -0.9282 -0.3329  1.0200
 7242SOL    MW428742   1.960   4.001   3.562 -0.5814  0.6332 -0.5757
 7243SOL     OW28743   6.304   0.161   4.278 -0.1382  0.0749 -0.1540
 7243SOL    HW228744   6.319   0.253   4.300  0.1777  0.2995 -1.2687
 7243SOL    HW328745   6.251   0.163   4.199  2.4070 -0.6406 -1.9929
 7243SOL    MW428746   6.299   0.174   4.271 -0.0982  0.0281 -0.3416
 7244SOL     OW28747   6.147   2.580   6.120 -0.5598  0.4049  0.4374
 7244SOL    HW228748   6.213   2.533   6.171  2.6948  4.4765  0.5749
 7244SOL    HW328749   6.097   2.629   6.186  0.0847  1.5741  0.0901
 7244SOL    MW428750   6.149   2.580   6.136 -0.0916 -0.0342  0.3861
 7245SOL     OW28751   0.567   2.460   3.938  0.1665 -0.2573  0.0726
 7245SOL    HW228752   0.583   2.388   3.877 -4.0304 -1.3729 -0.0505
 7245SOL    HW328753   0.569   2.419   4.024 -0.0717 -0.0637  0.1717
 7245SOL    MW428754   0.570   2.445   3.941 -0.3370 -0.0174  0.1950
 7246SOL     OW28755   0.349   4.660   3.034 -0.3037 -0.3153  0.2118
 7246SOL    HW228756   0.360   4.674   2.940  1.1700 -1.1844  0.2375
 7246SOL    HW328757   0.380   4.741   3.074  0.4731 -0.4979  0.0007
 7246SOL    MW428758   0.354   4.673   3.027 -0.0452  0.3960  0.4475
 7247SOL     OW28759   4.676   4.908   0.597  0.1820  0.3963  0.3851
 7247SOL    HW228760   4.752   4.941   0.645  1.0018  0.9632 -1.2205
 7247SOL    HW328761   4.609   4.974   0.610  0.2597  0.3425  1.0717
 7247SOL    MW428762   4.677   4.921   0.605  0.0462  0.3299  0.0482
 7248SOL     OW28763   5.655   3.512   3.910  0.2708  0.3289  0.2719
 7248SOL    HW228764   5.697   3.522   3.996 -0.8507 -0.0738  0.8931
 7248SOL    HW328765   5.720   3.544   3.848  1.5568 -0.4121  1.1718
 7248SOL    MW428766   5.669   3.517   3.913  0.0172 -0.1081  0.3984
 7249SOL     OW28767   3.337   4.512   3.898  0.0085 -0.0022 -0.3538
 7249SOL    HW228768   3.401   4.468   3.955 -0.3504 -2.3268 -1.6253
 7249SOL    HW328769   3.382   4.592   3.870  3.0806 -2.1568 -2.2840
 7249SOL    MW428770   3.352   4.517   3.902 -0.3936 -0.0776 -0.2565
 7250SOL     OW28771   0.354   1.624   3.865  0.2320  0.7315  0.1231
 7250SOL    HW228772   0.301   1.691   3.908 -1.9757  0.5225 -2.0834
 7250SOL    HW328773   0.386   1.667   3.785  2.4403  0.4329  0.7706
 7250SOL    MW428774   0.352   1.639   3.860  0.2779  0.2142 -0.0085
 7251SOL     OW28775   3.780   1.196   0.111  0.0446 -0.3160  0.3070
 7251SOL    HW228776   3.692   1.169   0.138  0.6065 -1.2448  1.2929
 7251SOL    HW328777   3.831   1.115   0.114  0.8408  0.1357 -0.6740
 7251SOL    MW428778   3.775   1.182   0.115  0.0837 -0.3160  0.5983
 7252SOL     OW28779   2.603   1.335   1.272  0.0361  0.0247  0.6791
 7252SOL    HW228780   2.542   1.405   1.246  0.4027  0.2798  0.4883
 7252SOL    HW328781   2.609   1.342   1.367 -0.0296  0.1697  0.6724
 7252SOL    MW428782   2.596   1.345   1.281 -0.3369 -0.1835 -0.0861
 7253SOL     OW28783   6.139   5.366   3.284  0.2618 -0.0898 -0.3287
 7253SOL    HW228784   6.198   5.295   3.258 -0.8327 -0.0585 -3.2370
 7253SOL    HW328785   6.054   5.324   3.297  0.4738  0.1117  2.3210
 7253SOL    MW428786   6.136   5.351   3.282 -0.1749  0.6431  0.3980
 7254SOL     OW28787   5.548   2.173   3.558  0.1218 -0.2787  0.2970
 7254SOL    HW228788   5.595   2.143   3.635 -0.7782 -0.7166  0.6945
 7254SOL    HW328789   5.601   2.144   3.484  0.6534 -0.4353  0.7361
 7254SOL    MW428790   5.561   2.166   3.558  0.0552 -0.6262 -0.1556
 7255SOL     OW28791   1.449   1.238   5.866  0.1951  0.0378 -0.1330
 7255SOL    HW228792   1.462   1.310   5.928 -0.6472  0.0720  0.0086
 7255SOL    HW328793   1.487   1.162   5.910 -0.9712 -0.0782  0.7333
 7255SOL    MW428794   1.456   1.238   5.880  0.3530  0.1257 -0.3521
 7256SOL     OW28795   3.056   0.851   3.881  0.1642 -0.3976  0.1042
 7256SOL    HW228796   3.105   0.815   3.807 -1.4615 -2.5830 -0.0231
 7256SOL    HW328797   2.986   0.788   3.896  0.9863 -0.6134  4.1832
 7256SOL    MW428798   3.053   0.838   3.873  0.1228  0.2734 -0.1086
 7257SOL     OW28799   4.653   1.283   1.870  0.0042 -0.2644  0.3690
 7257SOL    HW228800   4.561   1.257   1.872  0.0907 -0.7446 -0.9287
 7257SOL    HW328801   4.652   1.372   1.834  0.1199 -0.7315 -0.8199
 7257SOL    MW428802   4.641   1.291   1.866  0.1770 -0.4822 -0.2302
 7258SOL     OW28803   1.028   6.305   1.278  0.3889  0.3467 -0.4301
 7258SOL    HW228804   1.061   6.216   1.263  1.4994  1.1007 -3.0877
 7258SOL    HW328805   0.967   6.320   1.206  0.9267  2.0330 -0.5767
 7258SOL    MW428806   1.025   6.295   1.266 -0.0989  0.8247 -0.1368
 7259SOL     OW28807   4.620   2.143   3.692  0.2845  0.2271 -0.3790
 7259SOL    HW228808   4.584   2.111   3.774  2.1887 -0.3729  0.2674
 7259SOL    HW328809   4.681   2.211   3.717  0.9260  0.0070 -1.2888
 7259SOL    MW428810   4.623   2.148   3.706 -0.0295  0.2654  0.2253
 7260SOL     OW28811   4.281   4.563   0.999  0.1944 -0.0001 -0.1629
 7260SOL    HW228812   4.277   4.480   0.951 -0.7597  1.1707 -2.1865
 7260SOL    HW328813   4.356   4.609   0.962  1.8203 -0.5842  2.1542
 7260SOL    MW428814   4.290   4.558   0.988  0.0528 -0.2094  0.0816
 7261SOL     OW28815   2.997   0.201   6.284  0.4120 -0.3645  0.4103
 7261SOL    HW228816   3.014   0.272   6.346  1.4593 -0.4355  0.2347
 7261SOL    HW328817   3.001   0.122   6.337 -0.2395 -0.3281  0.5165
 7261SOL    MW428818   3.000   0.200   6.299  0.3387  0.5167  0.3071
 7262SOL     OW28819   0.369   6.028   0.439 -0.0439 -0.3212  0.0357
 7262SOL    HW228820   0.284   6.003   0.474 -0.6554  0.6516 -0.6942
 7262SOL    HW328821   0.404   6.091   0.503 -0.8014  0.8370 -0.6488
 7262SOL    MW428822   0.363   6.033   0.452  0.0799  0.4363 -0.2111
 7263SOL     OW28823   6.076   2.169  -0.031  0.3851 -0.0227  0.7759
 7263SOL    HW228824   6.094   2.183  -0.124  0.4889  0.2515  0.8374
 7263SOL    HW328825   5.983   2.145  -0.029  0.5916 -0.8855  0.5191
 7263SOL    MW428826   6.066   2.168  -0.043  0.3143 -1.1099 -0.0683
 7264SOL     OW28827   3.543   4.343   2.412  0.2900  0.4345  0.3196
 7264SOL    HW228828   3.572   4.262   2.454  0.3184  0.5635  0.5543
 7264SOL    HW328829   3.448   4.333   2.404  0.3417  0.2084 -0.0221
 7264SOL    MW428830   3.534   4.331   2.416 -0.0060 -0.7391 -0.3156
 7265SOL     OW28831   4.341   0.830   3.122  0.6571  0.1165  0.1260
 7265SOL    HW228832   4.302   0.744   3.109 -0.1652  0.5582 -0.4150
 7265SOL    HW328833   4.433   0.819   3.097  0.0565 -0.0743 -2.2200
 7265SOL    MW428834   4.348   0.817   3.117 -0.1770  0.3338 -0.4121
 7266SOL     OW28835   5.718   5.078   6.275 -0.1351  0.2422 -0.2165
 7266SOL    HW228836   5.805   5.044   6.251  0.7402  0.5586  2.2144
 7266SOL    HW328837   5.659   5.004   6.264  1.0877 -1.0499  1.4098
 7266SOL    MW428838   5.722   5.064   6.270  0.2619  0.5135 -0.1296
 7267SOL     OW28839   0.367   5.935   2.408 -0.1751  0.0770 -0.2368
 7267SOL    HW228840   0.292   5.928   2.349 -1.3164  1.3339  0.9952
 7267SOL    HW328841   0.441   5.902   2.357 -1.5836 -1.4054 -1.4213
 7267SOL    MW428842   0.367   5.930   2.394  0.7447  0.1378  0.2634
 7268SOL     OW28843   2.343   5.100   0.645  0.2033  0.3082 -0.0492
 7268SOL    HW228844   2.333   5.005   0.655  0.3535  0.2797 -0.1716
 7268SOL    HW328845   2.253   5.133   0.646  0.1980  0.3261  1.5370
 7268SOL    MW428846   2.330   5.092   0.647 -0.1607  0.2366  0.4019
 7269SOL     OW28847   4.826   3.967   1.040  0.1980  0.4456  0.1505
 7269SOL    HW228848   4.838   4.048   1.089  0.6364  1.1352 -1.0600
 7269SOL    HW328849   4.782   3.994   0.959 -2.3726 -0.9262  0.9780
 7269SOL    MW428850   4.821   3.982   1.036  0.1426  0.3925 -0.0728
 7270SOL     OW28851   4.968   2.266   4.354  0.5804 -0.3831  0.4956
 7270SOL    HW228852   5.056   2.294   4.328  1.2599 -1.5438  1.4276
 7270SOL    HW328853   4.980   2.226   4.440 -0.6617 -1.6164  0.1274
 7270SOL    MW428854   4.981   2.264   4.362  0.0712  0.0782  0.0588
 7271SOL     OW28855   1.465   3.161   4.291 -0.2531  0.4977 -0.4812
 7271SOL    HW228856   1.399   3.092   4.295 -1.1724  1.2075 -2.3150
 7271SOL    HW328857   1.548   3.114   4.278 -0.7559 -0.3080 -0.8906
 7271SOL    MW428858   1.467   3.146   4.290  0.3077 -0.4485  0.0042
 7272SOL     OW28859   3.971   1.956   6.031  0.4863 -0.2895  0.3120
 7272SOL    HW228860   3.929   1.962   5.945  0.3924 -0.8395  0.3165
 7272SOL    HW328861   3.966   2.045   6.066  1.4833  0.1974 -0.7009
 7272SOL    MW428862   3.965   1.969   6.024 -0.4692  0.1081 -0.0481
 7273SOL     OW28863   6.307   0.352   6.034  0.2725 -0.3385 -0.2161
 7273SOL    HW228864   6.258   0.276   6.004  1.2484 -1.1279  0.1444
 7273SOL    HW328865   6.252   0.427   6.010  0.4785 -0.9660 -2.9483
 7273SOL    MW428866   6.293   0.352   6.027  0.4174 -0.2203  0.6867
 7274SOL     OW28867   5.738   2.236   2.518  0.2676  0.2870  0.1704
 7274SOL    HW228868   5.783   2.176   2.458 -2.3838  1.0384 -2.8224
 7274SOL    HW328869   5.658   2.190   2.542  0.6436  0.5847  2.1005
 7274SOL    MW428870   5.734   2.222   2.513 -0.0712 -0.0172 -0.2550
 7275SOL     OW28871   5.680   0.805   6.108 -0.0361 -0.3806 -0.1233
 7275SOL    HW228872   5.748   0.866   6.080  0.2824  0.3632  2.0788
 7275SOL    HW328873   5.689   0.730   6.049  0.7521  0.9168 -1.7373
 7275SOL    MW428874   5.690   0.803   6.097  0.0823  0.1164 -0.0490
 7276SOL     OW28875   0.090   4.641   2.277 -0.2955  0.1074  0.1248
 7276SOL    HW228876   0.135   4.643   2.361  0.2508  0.2241 -0.1641
 7276SOL    HW328877   0.115   4.723   2.235 -0.6695  0.1083 -0.0979
 7276SOL    MW428878   0.100   4.652   2.283 -0.2941 -0.7424 -0.0089
 7277SOL     OW28879   4.500   5.106   6.039 -0.4313 -0.1320 -0.6610
 7277SOL    HW228880   4.469   5.051   5.967 -0.5243 -0.0292 -0.6999
 7277SOL    HW328881   4.594   5.090   6.042 -0.3355  0.3064 -1.1895
 7277SOL    MW428882   4.508   5.097   6.030 -0.0342 -0.0634 -0.3225
 7278SOL     OW28883   1.650   2.609   4.590 -0.4594 -0.4576  0.1450
 7278SOL    HW228884   1.563   2.622   4.552  0.1650  1.6421 -0.7120
 7278SOL    HW328885   1.694   2.694   4.580  1.4329 -1.2321  1.2544
 7278SOL    MW428886   1.644   2.622   4.584  0.3898 -0.0669  0.0224
 7279SOL     OW28887   1.112   5.393   4.160  0.1729  0.0130 -0.1980
 7279SOL    HW228888   1.073   5.405   4.073  0.8982  1.7184 -0.3360
 7279SOL    HW328889   1.037   5.395   4.220 -0.2992 -0.7897 -0.7407
 7279SOL    MW428890   1.097   5.395   4.156  0.6190  0.4976  0.3492
 7280SOL     OW28891   2.612   1.289   4.964  0.2686 -0.6857 -0.0931
 7280SOL    HW228892   2.644   1.261   5.050  1.5772  1.7616  0.3039
 7280SOL    HW328893   2.517   1.278   4.969  0.4036 -1.5113  1.2941
 7280SOL    MW428894   2.604   1.284   4.976 -0.2189 -0.2015  1.2755
 7281SOL     OW28895   3.402   1.664   4.028 -0.0877 -0.2268  0.0133
 7281SOL    HW228896   3.426   1.611   3.952  0.0638  0.0768 -0.1523
 7281SOL    HW328897   3.486   1.686   4.068 -0.1447 -0.0205  0.0185
 7281SOL    MW428898   3.417   1.660   4.023  0.0581  0.2455 -0.2168
 7282SOL     OW28899   6.335   4.456   5.516 -0.0276 -0.3543 -0.2914
 7282SOL    HW228900   6.269   4.502   5.464 -0.1946  0.2569  0.4489
 7282SOL    HW328901   6.384   4.525   5.560  0.5847 -0.8341 -0.2036
 7282SOL    MW428902   6.333   4.471   5.515 -0.7265 -0.0802 -0.1356
 7283SOL     OW28903   0.862   4.895   1.628  0.1425  0.0923  0.5272
 7283SOL    HW228904   0.810   4.970   1.600  1.1378  0.6537  0.1347
 7283SOL    HW328905   0.914   4.927   1.701  0.5065 -0.2388  0.4191
 7283SOL    MW428906   0.862   4.909   1.634 -0.7190  0.1158  0.0997
 7284SOL     OW28907   2.351   2.395   0.601  0.1264  0.3968  0.5519
 7284SOL    HW228908   2.337   2.452   0.677  0.7741  0.5617  0.5546
 7284SOL    HW328909   2.442   2.365   0.610  0.1618  0.3091 -0.0834
 7284SOL    MW428910   2.361   2.399   0.613  0.6835  0.3288 -0.1068
 7285SOL     OW28911   1.151   1.137   2.121 -0.3614  0.4034 -0.5707
 7285SOL    HW228912   1.058   1.158   2.119 -0.5433 -0.3664 -0.2565
 7285SOL    HW328913   1.194   1.219   2.097 -1.1010  0.8643 -0.3452
 7285SOL    MW428914   1.145   1.151   2.117  0.1336  0.3205  0.1811
 7286SOL     OW28915   5.425   2.552   5.612 -0.5159  0.2674 -0.1097
 7286SOL    HW228916   5.494   2.526   5.551 -0.7607 -0.0443 -0.2517
 7286SOL    HW328917   5.363   2.479   5.611 -0.0326 -0.2044  1.2561
 7286SOL    MW428918   5.426   2.539   5.604 -0.2587  0.4744 -0.1129
 7287SOL     OW28919   0.553   1.044   4.756  0.1753  0.0060  0.1902
 7287SOL    HW228920   0.493   0.995   4.811 -1.2409  1.5960  0.1365
 7287SOL    HW328921   0.627   1.065   4.813  0.9487 -2.2917  0.1527
 7287SOL    MW428922   0.555   1.040   4.771  0.3217  0.0717  0.0092
 7288SOL     OW28923   4.790   2.032   3.110  0.4669 -0.1386 -0.1578
 7288SOL    HW228924   4.766   2.001   3.197 -1.5853  1.2589 -0.1620
 7288SOL    HW328925   4.788   2.128   3.116 -1.0572  0.0209 -2.0300
 7288SOL    MW428926   4.787   2.041   3.122 -0.0547 -0.3448 -0.0607
 7289SOL     OW28927   0.061   4.228   6.112 -0.2348  0.3187  0.0004
 7289SOL    HW228928   0.090   4.152   6.062 -2.8996 -0.0186 -1.1812
 7289SOL    HW328929   0.056   4.299   6.048  1.3405  1.3191  0.9130
 7289SOL    MW428930   0.064   4.228   6.097 -0.3859  0.5484  0.4357
 7290SOL     OW28931   1.604   0.995   0.093  0.1502 -0.0338 -0.1866
 7290SOL    HW228932   1.640   0.919   0.139  1.2295 -0.7331 -2.0828
 7290SOL    HW328933   1.613   0.974  -0.000  0.1941  2.2896 -0.7703
 7290SOL    MW428934   1.610   0.982   0.087  0.1476  0.0434 -0.6605
 7291SOL     OW28935   5.764   1.349   3.150  0.1647  0.2394  0.2246
 7291SOL    HW228936   5.723   1.343   3.236 -0.1930 -0.1483  0.0276
 7291SOL    HW328937   5.857   1.335   3.168 -0.1594 -2.3506  0.2741
 7291SOL    MW428938   5.771   1.347   3.164  0.1333  0.0909  0.2888
 7292SOL     OW28939   6.056   1.619   2.360 -0.4537 -0.2728 -0.5426
 7292SOL    HW228940   5.969   1.633   2.399  0.1045  1.8822  0.0659
 7292SOL    HW328941   6.089   1.541   2.404 -0.6848  0.9257  1.9373
 7292SOL    MW428942   6.049   1.611   2.371  0.3094 -0.1218  0.0270
 7293SOL     OW28943   5.437   1.816   2.933  0.1171  0.2848 -0.1388
 7293SOL    HW228944   5.494   1.809   2.857  1.8092 -0.2047  1.1031
 7293SOL    HW328945   5.476   1.887   2.985 -0.6730  0.2384  0.5233
 7293SOL    MW428946   5.450   1.824   2.930  0.0183  0.7568 -0.0221
 7294SOL     OW28947   5.718   4.515   5.962 -0.0287 -0.2191 -0.0915
 7294SOL    HW228948   5.637   4.529   6.012 -0.3343  1.0737 -0.8984
 7294SOL    HW328949   5.781   4.577   6.000  0.1597 -0.2223 -0.3940
 7294SOL    MW428950   5.716   4.525   5.973 -0.0390  0.0122  0.1418
 7295SOL     OW28951   3.212   0.723   3.673 -0.2761  0.2749 -0.6821
 7295SOL    HW228952   3.146   0.679   3.620  0.6668 -0.9079 -0.9277
 7295SOL    HW328953   3.270   0.765   3.610 -0.4434  0.8086 -0.4900
 7295SOL    MW428954   3.211   0.723   3.658  0.1672  0.2358  0.1681
 7296SOL     OW28955   3.084   6.142   2.936  0.0045 -0.2688 -0.7123
 7296SOL    HW228956   3.073   6.198   3.012  0.9436 -1.1992  0.1374
 7296SOL    HW328957   3.109   6.202   2.865  1.7246  0.3359  0.3470
 7296SOL    MW428958   3.086   6.157   2.937 -0.1574  0.2990 -0.0604
 7297SOL     OW28959   0.450   4.163   4.475  0.9019  0.5762  0.4770
 7297SOL    HW228960   0.450   4.255   4.500  1.6502  1.0434 -1.0697
 7297SOL    HW328961   0.505   4.160   4.396 -0.5507 -0.8935 -0.5531
 7297SOL    MW428962   0.457   4.175   4.468  0.0422  0.0140 -0.1737
 7298SOL     OW28963   1.720   3.735   1.771  0.2034  0.0946  0.1907
 7298SOL    HW228964   1.727   3.676   1.846 -0.4413 -0.8981 -0.4967
 7298SOL    HW328965   1.745   3.681   1.696  1.4084  1.2289 -0.2599
 7298SOL    MW428966   1.724   3.720   1.771 -0.0105 -0.1592 -0.1019
 7299SOL     OW28967   5.939   4.030   2.260 -0.7866  0.2148  0.3152
 7299SOL    HW228968   5.854   4.047   2.220 -0.3272  2.0002  0.0415
 7299SOL    HW328969   6.002   4.079   2.207  0.5005 -1.4390  0.2385
 7299SOL    MW428970   5.936   4.039   2.248 -0.4877  0.0715  0.5775
 7300SOL     OW28971   3.850   5.626   2.982  0.2631 -0.2351 -0.1928
 7300SOL    HW228972   3.886   5.593   3.064 -1.0258 -0.4035  0.3271
 7300SOL    HW328973   3.848   5.549   2.924  0.2402 -0.3467 -0.0453
 7300SOL    MW428974   3.855   5.611   2.985  0.0248 -0.0142  0.2593
 7301SOL     OW28975   3.552   2.773   5.330  0.1447 -0.1030  0.1891
 7301SOL    HW228976   3.605   2.852   5.338  1.0831 -0.6640 -0.3124
 7301SOL    HW328977   3.593   2.710   5.390 -0.0638 -0.4818 -0.0588
 7301SOL    MW428978   3.564   2.775   5.339 -0.1000 -0.0871 -0.0549
 7302SOL     OW28979   1.193   3.946   1.500  0.1513 -0.5083  0.2776
 7302SOL    HW228980   1.175   3.948   1.594  0.9794 -0.4720  0.4460
 7302SOL    HW328981   1.136   3.877   1.466  0.5877 -1.2356  0.9772
 7302SOL    MW428982   1.183   3.937   1.508 -0.0025  0.7182 -0.0052
 7303SOL     OW28983   3.767   2.165   4.723 -0.4216  0.4509  0.4527
 7303SOL    HW228984   3.744   2.199   4.637  1.3190  2.0868  0.5599
 7303SOL    HW328985   3.687   2.174   4.774 -1.6137 -0.9893 -1.0821
 7303SOL    MW428986   3.754   2.171   4.719 -0.1036 -0.5707 -0.2969
 7304SOL     OW28987   5.539   4.977   1.800 -0.2477  0.0168  0.8608
 7304SOL    HW228988   5.543   5.028   1.881  2.1359  1.5678 -0.1159
 7304SOL    HW328989   5.569   4.890   1.824  1.2999  0.6970  1.5468
 7304SOL    MW428990   5.543   4.972   1.814  0.4631 -0.0591  0.1980
 7305SOL     OW28991   5.910   2.393   3.590 -0.1221  0.2968 -0.6787
 7305SOL    HW228992   5.884   2.430   3.674 -1.4828 -0.3716 -0.7704
 7305SOL    HW328993   5.827   2.379   3.544  0.4840 -0.9489 -1.4442
 7305SOL    MW428994   5.895   2.396   3.595  0.4380 -0.2645  0.1326
 7306SOL     OW28995   3.654   4.584   4.455  0.0886  0.0387 -0.4164
 7306SOL    HW228996   3.730   4.589   4.512 -0.4351  0.3032  0.2817
 7306SOL    HW328997   3.640   4.491   4.440 -1.4742 -0.2630  2.2914
 7306SOL    MW428998   3.662   4.573   4.460 -0.2592 -0.0483 -0.7094
 7307SOL     OW28999   5.738   4.934   3.650  0.2532  0.4777  0.3746
 7307SOL    HW229000   5.775   4.851   3.679  1.8567  1.5396  1.4731
 7307SOL    HW329001   5.800   4.968   3.586 -0.4065  0.8363 -0.0951
 7307SOL    MW429002   5.751   4.928   3.645  0.4305 -0.5111 -0.0515
 7308SOL     OW29003   1.084   0.210   3.901  0.1201  0.1220 -0.0613
 7308SOL    HW229004   1.123   0.138   3.951 -0.5239  0.6478  1.2458
 7308SOL    HW329005   1.144   0.283   3.913  1.4863 -0.4998 -2.5019
 7308SOL    MW429006   1.097   0.210   3.909  0.1478  0.3654  0.1127
 7309SOL     OW29007   5.239   0.033   2.083 -0.1267 -0.4820  0.0411
 7309SOL    HW229008   5.195   0.069   2.160 -0.7125 -1.2713  0.0881
 7309SOL    HW329009   5.229   0.101   2.016 -2.6316 -1.1299 -0.3735
 7309SOL    MW429010   5.232   0.047   2.084 -0.0761 -0.5491 -0.4545
 7310SOL     OW29011   3.445   1.156   1.641  0.2445 -0.2865  0.4873
 7310SOL    HW229012   3.444   1.086   1.706 -0.7660  0.4304  1.2708
 7310SOL    HW329013   3.439   1.237   1.692 -1.0679  0.2814 -0.4899
 7310SOL    MW429014   3.444   1.158   1.656  1.0719 -0.1017  0.2890
 7311SOL     OW29015   5.157   1.898   2.059  0.7269 -0.4458  0.9861
 7311SOL    HW229016   5.171   1.980   2.012 -1.8469  0.6385  1.9294
 7311SOL    HW329017   5.245   1.865   2.076  1.7984  1.1415 -1.0546
 7311SOL    MW429018   5.170   1.904   2.055 -0.0628  0.4086 -0.5727
 7312SOL     OW29019   5.460   3.320   3.873  1.0787 -0.1606 -0.4747
 7312SOL    HW229020   5.391   3.339   3.809  0.5361 -0.1845  0.0856
 7312SOL    HW329021   5.524   3.390   3.861  0.3922  0.5305 -0.2321
 7312SOL    MW429022   5.459   3.332   3.863  0.0883  0.1062  0.0376
 7313SOL     OW29023   4.532   1.380   4.364 -0.3536 -0.4024  0.0321
 7313SOL    HW229024   4.563   1.346   4.280 -3.0880 -3.5858  0.1354
 7313SOL    HW329025   4.607   1.370   4.423  1.1906  0.6765 -1.6141
 7313SOL    MW429026   4.546   1.374   4.361 -0.0401 -0.3127 -0.2240
 7314SOL     OW29027   3.386   0.972   3.911  0.4942  0.1120 -0.3582
 7314SOL    HW229028   3.310   0.998   3.963  0.7560  0.3905 -0.1156
 7314SOL    HW329029   3.360   0.889   3.871  0.6989 -0.6993  1.1124
 7314SOL    MW429030   3.373   0.964   3.912  0.4170  0.2181 -0.3885
 7315SOL     OW29031   5.832   6.166   2.579 -0.1886  0.1787 -0.1530
 7315SOL    HW229032   5.858   6.127   2.662  0.1398  0.0452 -0.3178
 7315SOL    HW329033   5.842   6.260   2.592 -2.1058  0.3343  0.6409
 7315SOL    MW429034   5.836   6.174   2.592 -0.4573 -0.1911 -0.0982
 7316SOL     OW29035   0.806   0.431   1.844 -0.1593 -0.6149 -0.2653
 7316SOL    HW229036   0.868   0.357   1.846  0.7340  0.0846 -1.0367
 7316SOL    HW329037   0.796   0.452   1.751 -1.3665 -0.5341 -0.1345
 7316SOL    MW429038   0.813   0.424   1.832  0.2783 -0.4288  0.3456
 7317SOL     OW29039   5.817   5.193   2.460 -0.3873  0.4538  0.0798
 7317SOL    HW229040   5.787   5.268   2.511 -0.0878  1.5756 -1.3359
 7317SOL    HW329041   5.827   5.123   2.524  0.2991  1.9015  1.6212
 7317SOL    MW429042   5.815   5.194   2.475 -0.5098  0.0414  0.2277
 7318SOL     OW29043   6.099   5.788   3.837  0.5466 -0.8641  0.3041
 7318SOL    HW229044   6.137   5.721   3.894  0.6171 -0.1506  1.1291
 7318SOL    HW329045   6.123   5.871   3.879 -0.2677 -0.3470 -0.2228
 7318SOL    MW429046   6.107   5.790   3.850  0.0342  0.9880 -0.2565
 7319SOL     OW29047   3.170   0.313   3.367 -0.0454 -0.0860  0.5140
 7319SOL    HW229048   3.256   0.296   3.405  0.6015  0.9730 -0.3891
 7319SOL    HW329049   3.184   0.301   3.272 -1.5568 -2.5228  0.5090
 7319SOL    MW429050   3.184   0.309   3.359 -0.0284  0.2603 -0.1267
 7320SOL     OW29051   2.233   1.587   3.911  0.1565  0.2372  0.0776
 7320SOL    HW229052   2.282   1.626   3.838  1.3554 -1.5959 -0.1649
 7320SOL    HW329053   2.221   1.495   3.885 -3.4082  0.5393  0.1778
 7320SOL    MW429054   2.238   1.580   3.898 -0.0407  0.2458  0.0042
 7321SOL     OW29055   3.709   5.835   3.089 -0.0598 -0.2454  0.5268
 7321SOL    HW229056   3.628   5.791   3.115 -0.3657 -1.1115 -1.6611
 7321SOL    HW329057   3.761   5.767   3.046  2.2638  0.0802  2.6182
 7321SOL    MW429058   3.705   5.820   3.087  0.2453  0.5781 -0.4613
 7322SOL     OW29059   3.076   0.987   2.552  0.4749  0.4814  0.1058
 7322SOL    HW229060   3.094   0.898   2.580  0.2973  1.0436  2.2188
 7322SOL    HW329061   3.085   0.985   2.457  3.0475 -1.1887  0.2827
 7322SOL    MW429062   3.080   0.975   2.544  0.4600 -0.0407  0.3886
 7323SOL     OW29063   2.535   0.890   5.298  0.4228  0.3094 -0.3241
 7323SOL    HW229064   2.453   0.893   5.347  0.5242 -0.9085 -0.0458
 7323SOL    HW329065   2.550   0.797   5.283  2.2905  0.4251  0.5458
 7323SOL    MW429066   2.526   0.878   5.302 -0.3805 -0.1401  0.1731
 7324SOL     OW29067   5.721   6.269   1.103 -0.0204  0.1454 -0.1342
 7324SOL    HW229068   5.643   6.297   1.054 -1.4418 -0.3452  1.7068
 7324SOL    HW329069   5.750   6.349   1.148  0.4264  0.2891 -0.6799
 7324SOL    MW429070   5.714   6.283   1.103 -0.5876  0.0720  0.1982
 7325SOL     OW29071   3.577   2.423   4.112 -0.6822  0.1227 -0.1944
 7325SOL    HW229072   3.627   2.481   4.170  0.9231 -0.3034 -1.0984
 7325SOL    HW329073   3.547   2.480   4.041 -1.1632  0.3100  0.1591
 7325SOL    MW429074   3.580   2.438   4.110  0.2130 -0.4159  0.3001
 7326SOL     OW29075   5.614   5.985   4.136 -0.2914 -0.4653  0.1536
 7326SOL    HW229076   5.653   5.903   4.168  1.9614  0.8501  1.0027
 7326SOL    HW329077   5.568   6.021   4.211  0.5251  0.0477  0.4235
 7326SOL    MW429078   5.613   5.979   4.150 -0.6036 -0.8371 -0.0983
 7327SOL     OW29079   6.233   5.628   5.667 -0.3336  0.3977 -0.0147
 7327SOL    HW229080   6.324   5.621   5.696 -0.3430 -0.6621 -0.2077
 7327SOL    HW329081   6.232   5.584   5.582 -1.4532 -1.5287  0.9458
 7327SOL    MW429082   6.245   5.622   5.659 -0.0813  0.0086  0.0327
 7328SOL     OW29083   1.322   3.023   4.956 -0.3918 -0.0632  0.0871
 7328SOL    HW229084   1.392   3.021   4.891 -0.9641 -1.0254 -0.5336
 7328SOL    HW329085   1.357   3.075   5.028  0.9616 -0.5250 -0.2021
 7328SOL    MW429086   1.336   3.029   4.957  0.5941 -0.5274 -0.2353
 7329SOL     OW29087   1.237   6.160   0.085 -0.1973  0.6135 -0.1133
 7329SOL    HW229088   1.267   6.243   0.123  0.9344 -0.5346  1.6326
 7329SOL    HW329089   1.260   6.166  -0.008  1.8520  1.4153  0.4015
 7329SOL    MW429090   1.244   6.172   0.078  0.0261  0.1828  0.0754
 7330SOL     OW29091   0.189   1.975   3.221 -0.3188 -0.4220 -0.0481
 7330SOL    HW229092   0.240   2.031   3.162 -0.8721 -0.4326 -0.5386
 7330SOL    HW329093   0.147   1.911   3.163 -3.0973  1.2187 -0.0209
 7330SOL    MW429094   0.190   1.974   3.205 -0.0213 -0.1708 -0.2134
 7331SOL     OW29095   4.788   6.163   5.463  0.2090  0.2599  0.2317
 7331SOL    HW229096   4.709   6.131   5.419  1.0222 -1.0240 -0.3529
 7331SOL    HW329097   4.832   6.217   5.397  0.3618  0.0757  0.1809
 7331SOL    MW429098   4.784   6.166   5.448  0.1618  0.2837 -0.5465
 7332SOL     OW29099   3.671   4.451   1.640  0.0434 -0.2479 -0.2726
 7332SOL    HW229100   3.633   4.493   1.717 -0.6968 -0.5977 -0.4402
 7332SOL    HW329101   3.614   4.375   1.624  1.2247 -1.2073 -0.0886
 7332SOL    MW429102   3.659   4.446   1.648  0.3472 -0.4716  0.5874
 7333SOL     OW29103   5.424   4.826   5.651 -0.4871 -0.1579  0.1016
 7333SOL    HW229104   5.466   4.843   5.735 -1.6210 -0.4238  0.7429
 7333SOL    HW329105   5.483   4.865   5.586  0.6775 -0.4353  0.9642
 7333SOL    MW429106   5.437   4.833   5.653 -0.0304 -0.2252 -0.2361
 7334SOL     OW29107   2.101   1.672   4.700 -0.6144 -0.1649  0.0021
 7334SOL    HW229108   2.096   1.742   4.766 -1.0447 -1.6791  1.6601
 7334SOL    HW329109   2.152   1.603   4.742 -0.4976 -1.0101 -1.4538
 7334SOL    MW429110   2.107   1.672   4.714  0.2559 -0.4952  0.7473
 7335SOL     OW29111   4.458   5.707   3.196  0.9300  0.8447  0.0471
 7335SOL    HW229112   4.439   5.793   3.158  0.6783  1.4695  1.5056
 7335SOL    HW329113   4.544   5.717   3.237  0.7538  0.5028  0.5101
 7335SOL    MW429114   4.467   5.720   3.196  0.2892 -0.2478  0.0770
 7336SOL     OW29115   5.237   2.293   3.076 -0.6745 -0.2217  0.3301
 7336SOL    HW229116   5.271   2.253   3.156  1.5813 -1.0832 -0.9937
 7336SOL    HW329117   5.253   2.387   3.088  0.5012 -0.4322  0.5387
 7336SOL    MW429118   5.243   2.300   3.089 -0.1873  0.5020 -0.6088
 7337SOL     OW29119   1.040   4.666   0.579 -0.0291  0.8352  0.6482
 7337SOL    HW229120   1.055   4.710   0.496  2.3283  0.9666  1.0876
 7337SOL    HW329121   0.974   4.599   0.559 -0.0403  1.3391 -1.1510
 7337SOL    MW429122   1.033   4.663   0.566 -0.1633 -0.4874  0.2439
 7338SOL     OW29123   5.589   5.724   2.194 -0.5231  0.1101  0.1266
 7338SOL    HW229124   5.580   5.683   2.280 -2.9539  0.4152  0.0774
 7338SOL    HW329125   5.501   5.725   2.158  0.4943 -0.4590 -2.6246
 7338SOL    MW429126   5.576   5.719   2.200 -0.1799  0.1997 -0.0935
 7339SOL     OW29127   5.473   4.064   1.559 -0.3444  0.0760 -0.4549
 7339SOL    HW229128   5.480   4.043   1.466  0.7683  2.0914 -0.8784
 7339SOL    HW329129   5.518   4.147   1.569  1.2927 -0.9760  2.2420
 7339SOL    MW429130   5.480   4.072   1.548  0.0159 -0.0108 -0.3503
 7340SOL     OW29131   3.317   2.286   4.676 -0.0406 -0.0846 -0.0930
 7340SOL    HW229132   3.361   2.370   4.671  1.7155 -1.0530 -2.8884
 7340SOL    HW329133   3.225   2.306   4.657  0.6044  1.0755 -2.2542
 7340SOL    MW429134   3.310   2.300   4.673 -0.1488  0.6162  0.2200
 7341SOL     OW29135   4.721   2.793   4.262  0.2128 -0.0503 -0.6802
 7341SOL    HW229136   4.713   2.860   4.194 -1.1673 -0.7466 -1.2438
 7341SOL    HW329137   4.803   2.748   4.242  1.0084  1.2756 -0.4627
 7341SOL    MW429138   4.731   2.796   4.250  0.6037  0.3294  0.2196
 7342SOL     OW29139   1.740  -0.001   6.230  0.5297  0.4628 -0.0887
 7342SOL    HW229140   1.701  -0.087   6.246  0.5278  0.6044  0.7119
 7342SOL    HW329141   1.710   0.023   6.142  0.9102 -0.5499 -0.5064
 7342SOL    MW429142   1.731  -0.009   6.220 -0.2148 -0.3001 -0.1263
 7343SOL     OW29143   6.323   6.296   1.145 -0.3607  0.0307  0.5394
 7343SOL    HW229144   6.362   6.355   1.210 -0.1709  0.5560 -0.0466
 7343SOL    HW329145   6.282   6.227   1.198  0.4435  0.0358  1.1969
 7343SOL    MW429146   6.323   6.295   1.161 -0.2389  0.2583 -0.0768
 7344SOL     OW29147   3.811   4.125   5.621  1.4405  0.1129  0.5153
 7344SOL    HW229148   3.805   4.058   5.553 -0.9718 -0.6058  1.3324
 7344SOL    HW329149   3.737   4.183   5.605  2.8574  2.0278  0.4872
 7344SOL    MW429150   3.801   4.124   5.610 -0.0777 -0.1750 -0.1261
 7345SOL     OW29151   0.349   5.717   3.501 -0.5062 -0.1272 -0.2140
 7345SOL    HW229152   0.309   5.708   3.587  0.9735 -0.3699  0.4715
 7345SOL    HW329153   0.329   5.635   3.456 -2.9994  0.7633 -0.8994
 7345SOL    MW429154   0.341   5.705   3.506  0.3640 -0.2031 -0.6435
 7346SOL     OW29155   1.902   5.838   2.011 -0.2667 -0.4407  0.9633
 7346SOL    HW229156   1.959   5.782   2.065 -0.2260  0.1705  1.5749
 7346SOL    HW329157   1.856   5.892   2.075  0.6209  1.0923  0.3445
 7346SOL    MW429158   1.904   5.838   2.027  0.6304 -0.7885  0.0686
 7347SOL     OW29159   0.781   0.743   4.018  0.1279 -0.0841  0.1114
 7347SOL    HW229160   0.824   0.828   4.008  0.1734  0.0248  1.1219
 7347SOL    HW329161   0.843   0.680   3.980  0.5230  0.2323  0.2209
 7347SOL    MW429162   0.795   0.746   4.012  0.1639  0.2716  0.5281
 7348SOL     OW29163   0.189   1.222   2.356  0.7027 -0.3241 -0.3176
 7348SOL    HW229164   0.248   1.160   2.314  0.5424 -1.5158  1.1589
 7348SOL    HW329165   0.173   1.186   2.443 -1.2599  0.5894 -0.2445
 7348SOL    MW429166   0.195   1.209   2.362 -0.2500 -0.6584 -0.5617
 7349SOL     OW29167   4.162   1.142   6.313  0.8295  0.0171  0.3017
 7349SOL    HW229168   4.230   1.162   6.249  1.1400 -0.6087  0.4186
 7349SOL    HW329169   4.080   1.167   6.271  1.0309 -0.3789 -0.3343
 7349SOL    MW429170   4.161   1.148   6.299 -0.1181  0.4992 -0.2485
 7350SOL     OW29171   2.817   3.879   5.000 -0.1968 -0.4849  0.0738
 7350SOL    HW229172   2.863   3.836   4.928  0.1872 -0.8981  0.5543
 7350SOL    HW329173   2.725   3.862   4.984 -0.1696  0.0397 -0.7025
 7350SOL    MW429174   2.811   3.871   4.989 -0.3614  0.5407 -0.0139
 7351SOL     OW29175   5.266   0.810   3.973 -0.0027  0.6383  0.1990
 7351SOL    HW229176   5.202   0.881   3.974  0.7081  1.3026 -0.5768
 7351SOL    HW329177   5.280   0.790   3.881 -1.5842 -1.8294  0.4012
 7351SOL    MW429178   5.259   0.817   3.961  0.5907 -0.0665  0.4766
 7352SOL     OW29179   3.800   1.978   4.124  0.3685 -0.6058 -0.7254
 7352SOL    HW229180   3.736   2.044   4.098  0.2036 -0.6541 -0.4376
 7352SOL    HW329181   3.884   2.014   4.096  0.2350 -0.4692 -0.9567
 7352SOL    MW429182   3.802   1.991   4.117 -0.5963  0.4139  0.1033
 7353SOL     OW29183   3.977   5.117   0.129  0.0536 -0.0633 -0.2132
 7353SOL    HW229184   4.046   5.168   0.173  1.4908 -3.1984  1.4748
 7353SOL    HW329185   3.896   5.154   0.163  0.7458  3.4190 -1.8719
 7353SOL    MW429186   3.976   5.129   0.140 -0.1957 -0.3400  0.4684
 7354SOL     OW29187   4.490   3.462   0.222  0.0630  0.4763 -0.0820
 7354SOL    HW229188   4.485   3.557   0.224 -0.4764  0.4469  0.2550
 7354SOL    HW329189   4.423   3.435   0.159 -1.1695  0.2517  1.2592
 7354SOL    MW429190   4.480   3.471   0.214 -0.3938  0.1852 -0.0204
 7355SOL     OW29191   5.817   3.281   5.979 -0.4228 -0.0526  0.0273
 7355SOL    HW229192   5.882   3.290   6.048  0.9170 -1.3095 -1.0127
 7355SOL    HW329193   5.800   3.371   5.949  0.4536  0.3308  0.6531
 7355SOL    MW429194   5.823   3.294   5.984  0.0344 -0.5736  0.3383
 7356SOL     OW29195   1.524   4.535   2.969  0.4854  0.4297 -0.0048
 7356SOL    HW229196   1.507   4.472   2.898 -1.4036 -1.3938  1.9193
 7356SOL    HW329197   1.469   4.610   2.949 -0.1894 -0.1529 -0.3846
 7356SOL    MW429198   1.515   4.536   2.957  0.5863  0.2572  0.2331
 7357SOL     OW29199   6.104   5.802   4.491 -0.0572  0.1911 -0.0874
 7357SOL    HW229200   6.108   5.746   4.569 -3.0294  0.5983  0.4672
 7357SOL    HW329201   6.095   5.741   4.418 -0.5559 -0.1461  0.2480
 7357SOL    MW429202   6.103   5.787   4.492  0.3816  0.2492  0.1181
 7358SOL     OW29203   5.629   3.327   4.343  0.2579  0.1297 -0.3419
 7358SOL    HW229204   5.664   3.409   4.309 -1.6249  1.1367 -0.0126
 7358SOL    HW329205   5.544   3.318   4.300 -1.9332  1.0994  3.3356
 7358SOL    MW429206   5.622   3.337   4.333 -0.0568 -0.0218  0.0133
 7359SOL     OW29207   2.254   0.611   1.488 -0.0184 -0.0323 -0.0151
 7359SOL    HW229208   2.282   0.677   1.425  2.0049  0.2132  1.0680
 7359SOL    HW329209   2.308   0.626   1.565 -1.6501 -1.0193  1.4120
 7359SOL    MW429210   2.265   0.622   1.490 -0.2714  0.1208 -0.6577
 7360SOL     OW29211   1.142   2.968   2.491 -0.8804  0.0113  0.9930
 7360SOL    HW229212   1.047   2.973   2.484 -0.9511 -2.0531 -0.1976
 7360SOL    HW329213   1.161   2.874   2.499  1.0613  0.3799  1.2579
 7360SOL    MW429214   1.132   2.956   2.491 -0.4093 -0.1595  0.2475
 7361SOL     OW29215   3.789   3.495   3.120 -0.3707 -0.1587  0.3209
 7361SOL    HW229216   3.775   3.584   3.154 -1.0691  0.4371 -1.4211
 7361SOL    HW329217   3.734   3.439   3.176  1.1810  0.2518  2.3676
 7361SOL    MW429218   3.780   3.499   3.132 -0.1780  0.1512 -0.4749
 7362SOL     OW29219   0.507   2.369   0.580 -0.0512  0.2060  0.0051
 7362SOL    HW229220   0.580   2.415   0.621 -2.0702  2.2754  1.5428
 7362SOL    HW329221   0.525   2.374   0.486  2.4141 -0.6214  0.3567
 7362SOL    MW429222   0.519   2.376   0.573 -0.2605 -0.0153  0.2009
 7363SOL     OW29223   0.938   4.846   1.294 -0.1645 -0.4729 -0.0524
 7363SOL    HW229224   0.989   4.927   1.285  1.5401 -1.4612  0.3883
 7363SOL    HW329225   0.850   4.871   1.266 -0.2052  2.0442  1.9858
 7363SOL    MW429226   0.933   4.860   1.289 -0.5109  0.2937  0.2476
 7364SOL     OW29227   2.953   2.627   3.329  0.1779  0.5854 -0.1275
 7364SOL    HW229228   3.033   2.604   3.377  0.0614 -0.4810 -0.4318
 7364SOL    HW329229   2.983   2.649   3.241  0.1665  0.4689 -0.1606
 7364SOL    MW429230   2.968   2.627   3.324 -0.0752  0.3484  0.4388
 7365SOL     OW29231   4.990   1.840   3.143 -0.3530  0.8747 -0.3958
 7365SOL    HW229232   5.047   1.824   3.068  0.9417  1.0503  0.5004
 7365SOL    HW329233   4.919   1.893   3.109 -0.1734  0.3425 -1.6369
 7365SOL    MW429234   4.988   1.845   3.129  0.3683 -0.4421  0.0773
 7366SOL     OW29235   4.508   1.842   3.720  0.3200  0.0727 -0.4232
 7366SOL    HW229236   4.464   1.764   3.688  0.1366  1.1453 -3.0221
 7366SOL    HW329237   4.539   1.818   3.808  0.3686 -2.9107 -1.1560
 7366SOL    MW429238   4.507   1.829   3.728  0.5440  0.6308  0.5847
 7367SOL     OW29239   2.113   5.579   4.151  0.7870 -0.4191  0.2516
 7367SOL    HW229240   2.118   5.659   4.099  0.6472  0.5662  1.6879
 7367SOL    HW329241   2.027   5.583   4.193  0.2430 -1.9751 -0.6075
 7367SOL    MW429242   2.103   5.590   4.150  0.2582 -0.9075  0.0005
 7368SOL     OW29243   6.002   3.580   4.748 -0.1157  0.1918  0.2652
 7368SOL    HW229244   6.066   3.650   4.736 -0.3799  0.6961  1.5967
 7368SOL    HW329245   6.032   3.533   4.826  0.1443 -1.3010 -0.7029
 7368SOL    MW429246   6.014   3.583   4.757  0.1030 -0.2608 -0.3813
 7369SOL     OW29247   1.879   5.771   0.704  0.1496 -0.3521 -0.1898
 7369SOL    HW229248   1.895   5.865   0.715  0.7805 -0.5251  0.4424
 7369SOL    HW329249   1.837   5.745   0.786 -0.4932 -0.5332 -0.5664
 7369SOL    MW429250   1.875   5.780   0.716 -0.2774 -0.1272  0.7569
 7370SOL     OW29251   4.051   1.523   4.633  0.5463 -0.3709  0.0890
 7370SOL    HW229252   4.141   1.490   4.625  0.8363  0.4912 -0.3073
 7370SOL    HW329253   4.033   1.564   4.548 -0.2973 -0.7155  0.0969
 7370SOL    MW429254   4.060   1.524   4.621 -0.0119 -0.4254 -0.0145
 7371SOL     OW29255   0.947   5.539   3.114 -0.5206  0.0764 -0.4057
 7371SOL    HW229256   0.939   5.447   3.138 -0.1431  0.0862 -0.2313
 7371SOL    HW329257   0.933   5.586   3.196 -0.0689  0.1465 -0.3671
 7371SOL    MW429258   0.944   5.533   3.128 -0.2862  0.4794  0.2845
 7372SOL     OW29259   0.766   4.710   2.221 -0.1611 -0.1823 -1.1734
 7372SOL    HW229260   0.788   4.634   2.168  0.6997  0.2084 -1.3945
 7372SOL    HW329261   0.816   4.782   2.182 -1.8910  0.7807 -1.7372
 7372SOL    MW429262   0.775   4.710   2.209 -0.2455  0.1593 -0.1744
 7373SOL     OW29263   1.496   1.699   2.525  0.1040  0.6144 -0.5023
 7373SOL    HW229264   1.581   1.701   2.568 -0.7865  1.2733  1.3363
 7373SOL    HW329265   1.438   1.655   2.587 -0.9110  0.1546 -1.7288
 7373SOL    MW429266   1.499   1.694   2.539  0.0892 -0.5447  0.1612
 7374SOL     OW29267   1.075   2.669   3.806  0.5095  0.1342 -0.1531
 7374SOL    HW229268   1.131   2.746   3.801  0.3544  0.2311 -0.4330
 7374SOL    HW329269   0.989   2.700   3.779  0.2972  0.0079  0.3702
 7374SOL    MW429270   1.071   2.683   3.802 -0.4894  0.2348 -0.1866
 7375SOL     OW29271   5.070   4.397   6.296  0.2966 -0.1233 -0.2161
 7375SOL    HW229272   5.081   4.485   6.332  0.7350  0.1873 -1.0944
 7375SOL    HW329273   5.032   4.411   6.209 -0.6397 -0.8611  0.0580
 7375SOL    MW429274   5.066   4.410   6.289  0.0220 -0.6350 -0.0823
 7376SOL     OW29275   1.785   4.800   2.180  0.4458 -0.2316  0.5474
 7376SOL    HW229276   1.751   4.842   2.100  0.4998 -0.4151  0.4283
 7376SOL    HW329277   1.878   4.789   2.164  0.7805  1.2614  1.3080
 7376SOL    MW429278   1.792   4.804   2.167  0.4232 -0.5982  0.0716
 7377SOL     OW29279   0.646   3.327   5.862 -0.2098  0.0547 -0.1848
 7377SOL    HW229280   0.706   3.258   5.891 -0.1724  0.0221 -0.3369
 7377SOL    HW329281   0.658   3.397   5.926 -0.7443 -0.3458  0.3606
 7377SOL    MW429282   0.656   3.327   5.874 -0.1430  0.3344  0.6955
 7378SOL     OW29283   0.868   1.190   0.511  0.1411  0.5444  0.4804
 7378SOL    HW229284   0.902   1.171   0.599 -0.0065  2.3302  0.9510
 7378SOL    HW329285   0.924   1.260   0.479 -0.0336  0.1431 -0.7346
 7378SOL    MW429286   0.880   1.196   0.519  0.5524  0.3564  0.3516
 7379SOL     OW29287   1.100   2.077   1.629 -0.2974  0.2778 -0.3704
 7379SOL    HW229288   1.116   2.169   1.611 -0.0177  0.0728 -1.1909
 7379SOL    HW329289   1.007   2.073   1.651 -0.4392  0.6774 -0.8773
 7379SOL    MW429290   1.090   2.089   1.630 -0.1261 -0.0633  0.3472
 7380SOL     OW29291   5.724   5.034   0.838  0.0340  0.3230  0.6996
 7380SOL    HW229292   5.770   4.976   0.778  0.7562  1.1837  0.3954
 7380SOL    HW329293   5.752   5.007   0.925 -0.6163 -0.5951  0.6320
 7380SOL    MW429294   5.734   5.023   0.842  0.5864 -0.6461  0.1051
 7381SOL     OW29295   5.174   4.495   4.840  0.0535  0.3408 -0.1014
 7381SOL    HW229296   5.112   4.468   4.773  1.4751  1.8106 -2.1014
 7381SOL    HW329297   5.260   4.487   4.798  0.9808  1.5348  1.4647
 7381SOL    MW429298   5.178   4.490   4.826  0.3088  0.3744  0.2715
 7382SOL     OW29299   4.730   0.458   5.102  0.3492  0.2049  0.3646
 7382SOL    HW229300   4.739   0.516   5.178 -0.4747  0.3509  0.3657
 7382SOL    HW329301   4.820   0.433   5.080  0.6178  0.3856  1.2100
 7382SOL    MW429302   4.743   0.463   5.110  0.2696 -0.0067  0.0333
 7383SOL     OW29303   5.697   4.643   3.257 -0.3013 -0.1893  0.0334
 7383SOL    HW229304   5.682   4.614   3.347  2.2929  0.7090  0.8713
 7383SOL    HW329305   5.703   4.563   3.206  0.8999 -0.8845  1.2060
 7383SOL    MW429306   5.696   4.629   3.262 -0.8244  0.2850 -0.1625
 7384SOL     OW29307   0.887   5.890   2.632 -0.0689  0.2513 -0.3253
 7384SOL    HW229308   0.927   5.971   2.664  1.2309 -1.1794  1.9796
 7384SOL    HW329309   0.949   5.857   2.567  1.4609 -0.7808  1.5568
 7384SOL    MW429310   0.901   5.897   2.628 -0.4317  0.3450 -0.4110
 7385SOL     OW29311   0.811   5.575   0.976 -0.1272  0.4552  0.2403
 7385SOL    HW229312   0.903   5.570   0.949  0.4460 -1.0004  2.1776
 7385SOL    HW329313   0.763   5.593   0.896  1.7695  0.3804 -0.9787
 7385SOL    MW429314   0.817   5.577   0.962  0.2707 -0.0688  0.1613
 7386SOL     OW29315   6.010   0.489  -0.020  0.3226 -0.6834  0.1029
 7386SOL    HW229316   5.920   0.460  -0.006  0.4844 -1.3320 -0.2079
 7386SOL    HW329317   6.004   0.585  -0.019 -0.2684 -0.7163  0.7166
 7386SOL    MW429318   5.997   0.498  -0.018 -0.7492 -0.6352 -0.1882
 7387SOL     OW29319   6.261   3.105   5.920  0.4251  0.2765  0.3237
 7387SOL    HW229320   6.326   3.091   5.990 -0.4460 -0.6661  0.9646
 7387SOL    HW329321   6.313   3.133   5.845  1.3570  1.7534  1.4482
 7387SOL    MW429322   6.277   3.107   5.919 -0.2651  0.1364 -0.3921
 7388SOL     OW29323   4.691   3.369   0.699  0.0741  0.4631  0.7617
 7388SOL    HW229324   4.735   3.301   0.648  0.6342  3.3574 -2.9989
 7388SOL    HW329325   4.600   3.341   0.704  0.8055 -2.0239  2.2569
 7388SOL    MW429326   4.685   3.356   0.693  0.1670 -0.2413 -0.1555
 7389SOL     OW29327   6.096   3.221   3.291 -0.4340 -0.3723 -0.6191
 7389SOL    HW229328   6.112   3.157   3.222 -2.1780  0.8817 -2.3119
 7389SOL    HW329329   6.045   3.174   3.357 -0.6034 -1.0586 -1.2315
 7389SOL    MW429330   6.091   3.206   3.290 -0.2028 -0.5526 -0.3875
 7390SOL     OW29331   4.467   5.600   1.676 -0.3126 -0.0141  0.4282
 7390SOL    HW229332   4.518   5.520   1.693  0.3876 -0.0585 -1.5549
 7390SOL    HW329333   4.442   5.632   1.762 -0.5298 -2.3243  1.2950
 7390SOL    MW429334   4.470   5.593   1.690 -0.2727  0.4311 -0.0130
 7391SOL     OW29335   1.384   1.109   0.620  0.3488  0.7867  0.1206
 7391SOL    HW229336   1.392   1.041   0.553 -1.6264 -0.2083  0.8163
 7391SOL    HW329337   1.369   1.190   0.571 -1.6211 -0.0064 -0.7022
 7391SOL    MW429338   1.383   1.111   0.604  0.2137 -0.2805 -0.1493
 7392SOL     OW29339   4.315   0.575   0.884 -0.1671 -0.3851 -0.0519
 7392SOL    HW229340   4.339   0.660   0.920 -0.8988 -0.6959  1.2449
 7392SOL    HW329341   4.384   0.516   0.913 -1.2978 -0.8528  1.8603
 7392SOL    MW429342   4.327   0.578   0.892 -0.3025  0.2482 -0.1887
 7393SOL     OW29343   4.781   0.024   6.165 -0.0891 -0.4090  0.5156
 7393SOL    HW229344   4.817  -0.061   6.190 -0.5849 -0.4164  1.2558
 7393SOL    HW329345   4.686   0.014   6.175 -0.1008  0.4811  1.4547
 7393SOL    MW429346   4.773   0.012   6.170 -0.1750 -0.2024  0.1182
 7394SOL     OW29347   1.076   1.235   4.311  0.3619 -0.3633  0.0608
 7394SOL    HW229348   1.128   1.192   4.378  0.3099  0.2686  0.5111
 7394SOL    HW329349   1.067   1.325   4.341  1.9734  0.4656 -1.7128
 7394SOL    MW429350   1.082   1.241   4.324  0.2650 -0.0797  0.0364
 7395SOL     OW29351   5.470   1.927   4.295 -0.2344  0.1946 -0.2678
 7395SOL    HW229352   5.516   1.976   4.362 -2.9255  1.2345  0.9421
 7395SOL    HW329353   5.412   1.990   4.253 -1.4423 -1.2606 -0.9067
 7395SOL    MW429354   5.468   1.942   4.298  0.2178 -0.3060 -0.3736
 7396SOL     OW29355   0.216   0.988   3.216 -0.2396  0.3982 -0.2201
 7396SOL    HW229356   0.183   1.073   3.244  1.6522  1.0378  0.2313
 7396SOL    HW329357   0.308   0.988   3.244  0.1566 -1.2659 -1.3834
 7396SOL    MW429358   0.224   0.999   3.224 -0.0172 -0.0069  0.2414
 7397SOL     OW29359   0.337   2.556   6.134 -0.0808 -0.0304 -0.4533
 7397SOL    HW229360   0.311   2.553   6.226  2.1170  0.4862  0.2359
 7397SOL    HW329361   0.268   2.508   6.088 -1.1658 -0.3983  1.4614
 7397SOL    MW429362   0.324   2.549   6.140  0.2383 -0.0527  0.6716
 7398SOL     OW29363   2.556   1.814   2.949  0.1615 -0.3432 -0.1194
 7398SOL    HW229364   2.552   1.719   2.938  0.0073 -0.3418 -0.0734
 7398SOL    HW329365   2.523   1.829   3.038  0.9125 -0.3128  0.1667
 7398SOL    MW429366   2.551   1.803   2.959  0.0984  0.6604  0.1946
 7399SOL     OW29367   2.468   0.779   0.148 -0.3516 -0.0309  0.3735
 7399SOL    HW229368   2.475   0.729   0.066 -1.3017 -0.7294  0.7023
 7399SOL    HW329369   2.559   0.795   0.174 -0.0370 -0.5847 -0.3450
 7399SOL    MW429370   2.481   0.775   0.140  0.0512 -0.0453  0.1624
 7400SOL     OW29371   0.630   5.927   2.320  0.6258  0.0926 -0.0669
 7400SOL    HW229372   0.679   6.009   2.333  1.0274 -0.1881  0.2069
 7400SOL    HW329373   0.674   5.885   2.246  1.6728 -0.8071  1.0407
 7400SOL    MW429374   0.642   5.932   2.312  0.4619 -0.5999  0.5842
 7401SOL     OW29375   0.094   1.664   4.869 -0.0020 -0.6404  0.2341
 7401SOL    HW229376   0.174   1.681   4.918 -0.2924  0.7563  0.2770
 7401SOL    HW329377   0.107   1.578   4.830  1.1964 -0.7646  0.8618
 7401SOL    MW429378   0.106   1.655   4.871 -0.1818 -0.5510 -0.0669
 7402SOL     OW29379   4.857   0.722   2.641  0.3008  0.0176 -0.1187
 7402SOL    HW229380   4.895   0.676   2.566 -0.6777 -1.9617  0.5368
 7402SOL    HW329381   4.765   0.734   2.618  0.4319  1.2677 -0.0656
 7402SOL    MW429382   4.850   0.718   2.628 -0.0588  0.9523  0.3367
 7403SOL     OW29383   1.122   4.462   2.160 -0.3254 -0.4005  0.4183
 7403SOL    HW229384   1.184   4.487   2.229 -0.6388  0.2726  0.4599
 7403SOL    HW329385   1.174   4.406   2.102  0.6906  1.0998 -0.1899
 7403SOL    MW429386   1.137   4.458   2.162  0.1056  0.4531 -0.6859
 7404SOL     OW29387   1.043   2.325   0.630  0.5195  0.9600 -0.1759
 7404SOL    HW229388   0.995   2.346   0.710 -1.0679  3.3205 -1.6146
 7404SOL    HW329389   0.975   2.304   0.567  1.7966 -2.0671 -0.6925
 7404SOL    MW429390   1.028   2.325   0.633 -0.2848  0.7269  0.1128
 7405SOL     OW29391   5.663   1.280   2.777  0.3323 -0.4285 -0.3522
 7405SOL    HW229392   5.730   1.224   2.817  2.3829  2.2710  0.2925
 7405SOL    HW329393   5.712   1.349   2.734 -2.0519  1.1872 -0.6847
 7405SOL    MW429394   5.678   1.281   2.777  0.8789  0.1736  0.4004
 7406SOL     OW29395   0.766   0.752   1.503 -0.0871 -0.7482  0.2779
 7406SOL    HW229396   0.702   0.818   1.477 -0.0246 -0.7348  0.1587
 7406SOL    HW329397   0.847   0.778   1.459 -0.2004 -1.2124 -0.2299
 7406SOL    MW429398   0.768   0.764   1.493 -0.1563 -0.0627 -0.2746
 7407SOL     OW29399   5.292   6.187   5.591  0.1214  0.2761  0.5843
 7407SOL    HW229400   5.274   6.098   5.619  0.7636  0.1594  0.6323
 7407SOL    HW329401   5.226   6.205   5.524 -1.2043  0.4238  1.8704
 7407SOL    MW429402   5.281   6.178   5.586 -0.3943 -0.3125  0.3345
 7408SOL     OW29403   2.357   1.103   0.716  0.9048 -0.2640  0.2007
 7408SOL    HW229404   2.363   1.158   0.794 -4.6866  3.4333 -1.4081
 7408SOL    HW329405   2.415   1.145   0.652  1.6566 -0.2912  0.8445
 7408SOL    MW429406   2.366   1.116   0.718  0.1377  0.2494  0.0583
 7409SOL     OW29407   6.378   2.021   1.127  0.0027  0.2073 -0.3426
 7409SOL    HW229408   6.304   1.962   1.115  1.6289 -2.4498  1.6071
 7409SOL    HW329409   6.364   2.060   1.214 -0.3208  1.6301 -1.0105
 7409SOL    MW429410   6.367   2.019   1.137  0.0880 -0.0614  0.1132
 7410SOL     OW29411   3.064   1.023   1.084  0.1362 -0.0149 -0.1920
 7410SOL    HW229412   3.052   1.013   0.989 -0.5698 -1.5624  0.0367
 7410SOL    HW329413   2.977   1.044   1.117  0.2912  0.0377  0.1859
 7410SOL    MW429414   3.051   1.025   1.076 -0.1524  0.2693 -0.2293
 7411SOL     OW29415   1.860   1.135   0.261  0.3556 -0.4700 -0.4776
 7411SOL    HW229416   1.884   1.225   0.241  2.5041 -1.2771 -1.8130
 7411SOL    HW329417   1.854   1.132   0.357  0.5136  1.0095 -0.4104
 7411SOL    MW429418   1.863   1.146   0.271 -0.4566  0.1536  0.2360
 7412SOL     OW29419   0.534   2.933   0.789  0.8578 -0.1422  0.5991
 7412SOL    HW229420   0.448   2.895   0.773 -0.8477  2.9282  1.6163
 7412SOL    HW329421   0.533   3.016   0.740  3.7332 -0.5315 -0.3020
 7412SOL    MW429422   0.523   2.939   0.780 -0.4731 -0.5459  0.3270
 7413SOL     OW29423   3.991   0.595   5.025 -0.5700  0.6069  0.4227
 7413SOL    HW229424   3.946   0.529   5.078  1.1389 -1.9231 -1.0516
 7413SOL    HW329425   4.067   0.620   5.078  0.6429 -1.2586 -0.3036
 7413SOL    MW429426   3.995   0.590   5.039 -0.0288  0.6028  0.2409
 7414SOL     OW29427   1.587   5.619   5.506  0.4942 -0.5952 -0.1368
 7414SOL    HW229428   1.509   5.670   5.485 -0.0673 -0.7419  1.4780
 7414SOL    HW329429   1.557   5.528   5.507  0.2342 -0.5370  2.1765
 7414SOL    MW429430   1.573   5.614   5.503 -0.2050 -0.3480 -0.3191
 7415SOL     OW29431   3.029   1.622   5.245 -0.3925  0.0759 -0.2239
 7415SOL    HW229432   2.978   1.688   5.291 -1.1617 -1.5010  1.2637
 7415SOL    HW329433   3.071   1.671   5.174 -0.7050  2.2134  0.9618
 7415SOL    MW429434   3.028   1.637   5.242  0.0936  0.3685  0.0789
 7416SOL     OW29435   4.597   2.485   0.884  0.0654 -0.5618  0.2951
 7416SOL    HW229436   4.606   2.406   0.937  0.6381 -0.8038 -0.1423
 7416SOL    HW329437   4.558   2.549   0.943  2.3501 -0.2597  1.6133
 7416SOL    MW429438   4.593   2.483   0.899 -0.0586 -0.2436  0.5260
 7417SOL     OW29439   6.189   4.557   2.560  0.2719 -0.5094  0.2891
 7417SOL    HW229440   6.158   4.596   2.642 -1.1136 -0.7826 -0.0844
 7417SOL    HW329441   6.282   4.541   2.575 -0.0714 -1.0806  2.0295
 7417SOL    MW429442   6.197   4.560   2.573 -0.0578 -0.8009 -0.1572
 7418SOL     OW29443   2.724   4.107   2.206  0.7921 -0.4088  0.1114
 7418SOL    HW229444   2.639   4.126   2.245 -0.3072 -1.0053 -1.8840
 7418SOL    HW329445   2.768   4.192   2.202 -0.4288  0.2245 -0.4342
 7418SOL    MW429446   2.719   4.120   2.211  0.1444 -0.2019  0.0037
 7419SOL     OW29447   0.122   1.255   1.986  0.2741 -0.4340  0.0458
 7419SOL    HW229448   0.167   1.173   1.969 -0.4099 -1.2910  2.1043
 7419SOL    HW329449   0.040   1.230   2.029 -0.3955  1.2727 -0.1478
 7419SOL    MW429450   0.117   1.241   1.990  0.0203  0.2672 -0.1123
 7420SOL     OW29451   1.816   3.560   3.084 -0.5990 -0.0895  0.1110
 7420SOL    HW229452   1.738   3.575   3.138 -0.0572 -1.2845  1.2810
 7420SOL    HW329453   1.813   3.468   3.061  1.0667 -0.4714  1.2064
 7420SOL    MW429454   1.806   3.550   3.089 -0.1466 -0.3648  0.5313
 7421SOL     OW29455   4.586   3.454   1.364 -0.0810 -0.4015  0.3498
 7421SOL    HW229456   4.606   3.547   1.376 -1.6226  0.0826 -0.4996
 7421SOL    HW329457   4.572   3.445   1.269  0.5945 -1.6394  0.3444
 7421SOL    MW429458   4.587   3.465   1.353 -0.5054 -0.4677  0.8828
 7422SOL     OW29459   1.316   5.036   2.909  0.0374 -0.0149  0.3657
 7422SOL    HW229460   1.325   5.004   2.819 -0.0177  0.7083  0.0988
 7422SOL    HW329461   1.230   5.079   2.911 -0.7554 -1.5643  1.2529
 7422SOL    MW429462   1.306   5.037   2.898 -0.3292 -0.1621 -0.1703
 7423SOL     OW29463   4.901   1.211   0.948  0.1727 -0.4826  0.4404
 7423SOL    HW229464   4.835   1.280   0.943  1.0939  0.5379  1.6905
 7423SOL    HW329465   4.951   1.220   0.867  0.1535  0.1722  0.4973
 7423SOL    MW429466   4.899   1.221   0.936 -0.0344  0.1729 -0.1563
 7424SOL     OW29467   1.314   1.772   3.950 -0.0201  0.2962  0.2327
 7424SOL    HW229468   1.308   1.840   3.883 -0.5498 -1.7773 -1.9932
 7424SOL    HW329469   1.363   1.702   3.908 -0.5172 -1.1787  1.9882
 7424SOL    MW429470   1.320   1.772   3.936 -0.5233 -0.3676  0.3588
 7425SOL     OW29471   5.820   3.361   1.624  0.3037  0.2527 -0.1715
 7425SOL    HW229472   5.842   3.387   1.535 -0.5473  0.4342 -0.3356
 7425SOL    HW329473   5.784   3.440   1.664 -1.0211 -0.2821 -0.2511
 7425SOL    MW429474   5.818   3.375   1.617 -0.0635  0.4432  0.1955
 7426SOL     OW29475   5.883   4.849   4.354  0.1710  0.2865  0.5075
 7426SOL    HW229476   5.974   4.860   4.324 -0.4288  0.8831 -1.1785
 7426SOL    HW329477   5.882   4.762   4.395  1.2970 -0.1005 -0.2454
 7426SOL    MW429478   5.895   4.839   4.356  0.1289  0.1773 -0.0073
 7427SOL     OW29479   0.311   1.398   0.394  0.2879  0.0084  0.4056
 7427SOL    HW229480   0.339   1.356   0.313  0.8750  0.1143  0.5479
 7427SOL    HW329481   0.355   1.349   0.463 -0.0952  0.0081  0.6540
 7427SOL    MW429482   0.321   1.386   0.393  0.6585  0.1885  0.2183
 7428SOL     OW29483   1.595   0.159   2.447  0.0710  0.3962 -0.1916
 7428SOL    HW229484   1.610   0.078   2.399  0.3690  0.5249 -0.3158
 7428SOL    HW329485   1.611   0.228   2.383 -0.6624  0.5472 -0.2230
 7428SOL    MW429486   1.599   0.158   2.432 -0.2927  0.0005 -0.2248
 7429SOL     OW29487   4.042   5.731   4.284 -0.2460  0.1094  0.4558
 7429SOL    HW229488   4.055   5.637   4.296  2.5247  0.2823 -0.5326
 7429SOL    HW329489   3.950   5.740   4.261 -0.0430 -2.6874 -2.0220
 7429SOL    MW429490   4.032   5.720   4.283 -0.3129  0.1130 -0.0041
 7430SOL     OW29491   0.191   4.990   0.104  0.3205  0.2131 -0.4381
 7430SOL    HW229492   0.227   5.023   0.021  1.0932  0.4076 -0.0411
 7430SOL    HW329493   0.269   4.973   0.158 -0.0383 -2.0759 -0.5507
 7430SOL    MW429494   0.206   4.992   0.100 -0.7957  0.2072 -0.3846
 7431SOL     OW29495   0.154   0.491   2.705  0.5689 -0.3968 -0.0438
 7431SOL    HW229496   0.139   0.552   2.777 -1.2580 -0.7357 -0.0844
 7431SOL    HW329497   0.244   0.508   2.677  0.7655  0.8664  1.2414
 7431SOL    MW429498   0.164   0.501   2.711 -0.3862  0.4059  0.0254
 7432SOL     OW29499   3.269   0.743   1.851  0.5203 -0.1877  0.4360
 7432SOL    HW229500   3.329   0.669   1.860 -1.3227 -1.9667 -1.1734
 7432SOL    HW329501   3.186   0.705   1.823 -0.5737  2.4728 -0.2975
 7432SOL    MW429502   3.266   0.729   1.849 -0.1570  0.4370 -0.4806
 7433SOL     OW29503   6.406   0.482   3.621  0.2537 -0.1337 -0.2799
 7433SOL    HW229504   6.489   0.482   3.575  0.4654 -1.2769  0.0936
 7433SOL    HW329505   6.404   0.567   3.666  0.4531  0.6073 -1.6195
 7433SOL    MW429506   6.416   0.493   3.621 -0.0873 -0.2021 -0.3703
 7434SOL     OW29507   4.754   3.650   3.199  0.1474 -0.2819 -0.1395
 7434SOL    HW229508   4.813   3.628   3.272 -0.5898 -0.0241  0.5549
 7434SOL    HW329509   4.668   3.660   3.240 -0.7666 -2.4603 -1.3782
 7434SOL    MW429510   4.751   3.649   3.214 -0.1787 -0.4293 -0.0693
 7435SOL     OW29511   0.120   5.924   2.272 -0.2545  0.1801 -0.0238
 7435SOL    HW229512   0.051   5.874   2.316 -0.3451 -0.0003 -0.3652
 7435SOL    HW329513   0.074   5.971   2.202  0.1091 -0.6943 -0.8693
 7435SOL    MW429514   0.105   5.924   2.269 -0.4191 -0.0566 -0.2965
 7436SOL     OW29515   4.325   1.601   4.348  0.3821  0.3392 -0.1531
 7436SOL    HW229516   4.343   1.640   4.263  0.1133 -1.5495 -1.1361
 7436SOL    HW329517   4.404   1.549   4.367  0.8099  1.4138  1.1908
 7436SOL    MW429518   4.338   1.599   4.340  0.9949 -0.1793 -0.2369
 7437SOL     OW29519   4.660   2.092   6.096  0.1330  0.1610  0.1006
 7437SOL    HW229520   4.734   2.151   6.107 -0.5518  1.0932 -0.1890
 7437SOL    HW329521   4.619   2.088   6.183 -1.7045  2.7033 -0.5620
 7437SOL    MW429522   4.664   2.099   6.109  0.0535 -0.1655  0.3130
 7438SOL     OW29523   5.933   3.180   3.918 -0.3272 -0.1051 -0.2254
 7438SOL    HW229524   5.978   3.095   3.920 -1.4708 -0.7607 -1.0296
 7438SOL    HW329525   5.844   3.159   3.946 -0.4385  0.9708  0.2531
 7438SOL    MW429526   5.927   3.166   3.922  0.0220  0.1919  0.7540
 7439SOL     OW29527   5.202   1.744   3.511  0.8423 -0.6122 -0.1725
 7439SOL    HW229528   5.195   1.712   3.601  1.4640  0.1688  0.1685
 7439SOL    HW329529   5.163   1.831   3.514  2.0385 -0.0524 -0.3531
 7439SOL    MW429530   5.196   1.751   3.524  0.2953  0.3303 -0.2192
 7440SOL     OW29531   3.432   4.610   3.415 -0.0364  0.0140  0.0558
 7440SOL    HW229532   3.502   4.635   3.354 -0.9371 -0.1422 -1.0773
 7440SOL    HW329533   3.381   4.545   3.368 -1.6690  1.0151  0.3662
 7440SOL    MW429534   3.435   4.605   3.401  0.1684  0.0348  0.0476
 7441SOL     OW29535   1.975   0.242   1.895 -0.2718  0.3144  0.2345
 7441SOL    HW229536   1.965   0.147   1.891 -1.3931  0.4662 -1.1079
 7441SOL    HW329537   2.037   0.262   1.825 -0.0450  0.5844  0.5107
 7441SOL    MW429538   1.982   0.232   1.885  0.1395  0.4677  0.2548
 7442SOL     OW29539   4.436   0.035   1.303  0.6813 -0.0328 -0.1669
 7442SOL    HW229540   4.342   0.028   1.317  0.3822  1.5654 -1.1751
 7442SOL    HW329541   4.475   0.017   1.389 -0.6235  0.7619  0.6109
 7442SOL    MW429542   4.429   0.032   1.316  0.0445 -0.2151 -0.4514
 7443SOL     OW29543   6.149   3.011   4.212  0.7262  0.2141  0.2732
 7443SOL    HW229544   6.108   2.965   4.139 -0.7757  1.0503  0.5546
 7443SOL    HW329545   6.129   2.958   4.288 -0.3711  0.9071  0.4913
 7443SOL    MW429546   6.141   2.998   4.212  0.5054  0.3792 -0.1096
 7444SOL     OW29547   3.244   2.948   3.406 -0.0351  0.1932  0.1839
 7444SOL    HW229548   3.258   3.001   3.327  0.8882  1.0492  0.8875
 7444SOL    HW329549   3.292   2.867   3.391 -1.0064 -0.2418 -0.6822
 7444SOL    MW429550   3.252   2.945   3.394 -0.3137  0.2870 -0.3307
 7445SOL     OW29551   0.071   3.162   4.663 -0.3338 -0.3788  0.8201
 7445SOL    HW229552   0.021   3.226   4.612  0.9693 -0.1550 -0.2466
 7445SOL    HW329553   0.068   3.082   4.610  2.6807  0.3830 -0.7578
 7445SOL    MW429554   0.064   3.160   4.649 -0.1897 -0.0232 -0.3297
 7446SOL     OW29555   3.492   2.729   6.073 -0.3733  0.3150 -0.3622
 7446SOL    HW229556   3.453   2.642   6.086  1.7164 -0.5572  0.4581
 7446SOL    HW329557   3.450   2.763   5.994 -0.3809 -1.9617 -1.3965
 7446SOL    MW429558   3.481   2.722   6.065  0.2915 -0.0472 -0.2610
 7447SOL     OW29559   0.509   3.206   4.502 -0.2858 -0.6392  0.0117
 7447SOL    HW229560   0.494   3.129   4.447 -0.9206 -0.3530 -0.2351
 7447SOL    HW329561   0.484   3.280   4.447 -0.9932 -0.3485  0.6906
 7447SOL    MW429562   0.503   3.205   4.488 -0.0916 -0.2593  0.1050
 7448SOL     OW29563   1.198   2.436   3.082  0.1243  0.6294  0.1491
 7448SOL    HW229564   1.220   2.526   3.059  2.0920 -0.0661 -0.9210
 7448SOL    HW329565   1.222   2.385   3.005  0.6203 -1.0108  1.3422
 7448SOL    MW429566   1.204   2.441   3.069 -0.0765  0.2171  0.9082
 7449SOL     OW29567   1.040   2.091   1.326 -0.4666 -0.1707  0.1455
 7449SOL    HW229568   1.095   2.166   1.304 -1.5616  0.7246  0.3150
 7449SOL    HW329569   1.066   2.067   1.415  1.6621 -1.6737 -0.8035
 7449SOL    MW429570   1.050   2.098   1.335 -0.3257  0.7900  0.7922
 7450SOL     OW29571   4.721   3.791   0.375 -0.2673 -0.5746 -0.2915
 7450SOL    HW229572   4.752   3.728   0.440 -2.0428  0.3173  1.5487
 7450SOL    HW329573   4.637   3.755   0.346  0.6084 -1.0854 -2.3681
 7450SOL    MW429574   4.714   3.778   0.380 -0.1534  0.3618 -0.0108
 7451SOL     OW29575   2.656   1.634   1.029  0.2232 -0.1833 -0.1187
 7451SOL    HW229576   2.567   1.662   1.050  0.6557  0.3008  1.1769
 7451SOL    HW329577   2.656   1.624   0.934 -1.0360  0.4321 -0.2060
 7451SOL    MW429578   2.644   1.637   1.019  0.0238  0.4671  0.3899
 7452SOL     OW29579   3.157   0.212   6.055  0.2095 -0.1812  0.2835
 7452SOL    HW229580   3.106   0.227   6.134 -0.4394  0.2141 -0.1944
 7452SOL    HW329581   3.105   0.151   6.003  0.6546 -0.4816  0.1788
 7452SOL    MW429582   3.144   0.206   6.058  0.5661  0.0164  0.1017
 7453SOL     OW29583   1.684   1.637   3.293 -0.5700 -0.3196 -0.6465
 7453SOL    HW229584   1.730   1.715   3.263  0.6027 -0.0614  1.5978
 7453SOL    HW329585   1.593   1.665   3.301 -0.2514  0.6892 -0.3612
 7453SOL    MW429586   1.678   1.651   3.290  0.2463  0.3572  0.2958
 7454SOL     OW29587   3.078   2.595   2.058 -0.2539 -0.0846  0.2035
 7454SOL    HW229588   3.052   2.526   1.997  1.6841 -1.0014  0.3249
 7454SOL    HW329589   3.164   2.567   2.090 -0.6055  1.0458  2.3288
 7454SOL    MW429590   3.086   2.582   2.055 -0.9378 -0.0632  0.2105
 7455SOL     OW29591   5.153   4.497   4.526  0.1265  0.1888  0.3685
 7455SOL    HW229592   5.181   4.407   4.507  1.6202  0.7198 -0.1040
 7455SOL    HW329593   5.076   4.510   4.470 -1.0735 -1.2881  1.6114
 7455SOL    MW429594   5.147   4.487   4.516 -0.3845 -0.5417 -0.1477
 7456SOL     OW29595   1.589   2.102   2.265  0.5840  0.1105 -0.8493
 7456SOL    HW229596   1.624   2.170   2.208 -0.7165 -0.6696 -2.7053
 7456SOL    HW329597   1.607   2.020   2.218  0.6609 -0.7014  0.5340
 7456SOL    MW429598   1.596   2.100   2.251  0.0442 -0.1804 -0.7586
 7457SOL     OW29599   3.363   5.610  -0.027  0.3537  0.2144 -0.0476
 7457SOL    HW229600   3.303   5.677  -0.060  0.3660 -0.1153 -0.7682
 7457SOL    HW329601   3.333   5.592   0.062  0.5053  1.3516  0.2374
 7457SOL    MW429602   3.351   5.616  -0.020 -0.4106  0.0503 -0.4331
 7458SOL     OW29603   0.988   0.856   1.371  0.4654  0.0638  0.0680
 7458SOL    HW229604   0.951   0.924   1.314 -1.6443 -1.0070  0.0674
 7458SOL    HW329605   1.021   0.790   1.310  1.0655  0.3416  0.0842
 7458SOL    MW429606   0.987   0.856   1.355  0.1935  0.0548 -0.3188
 7459SOL     OW29607   5.664   4.108   2.204 -0.5502  0.5861 -0.0619
 7459SOL    HW229608   5.577   4.100   2.243 -1.3997  0.8384 -1.7698
 7459SOL    HW329609   5.687   4.201   2.214  1.2863 -0.1006  3.7412
 7459SOL    MW429610   5.655   4.120   2.210  0.3363 -0.3122  0.1591
 7460SOL     OW29611   3.775   0.218   4.795  0.1698  0.3851 -0.3498
 7460SOL    HW229612   3.753   0.203   4.703 -0.7711  0.6813 -0.1897
 7460SOL    HW329613   3.866   0.189   4.803 -0.0839 -0.6863 -1.1147
 7460SOL    MW429614   3.784   0.212   4.784 -0.0373 -0.6808  0.6361
 7461SOL     OW29615   4.442   3.404   3.135 -0.0985 -0.1553 -0.0061
 7461SOL    HW229616   4.524   3.393   3.183  0.3904  0.2011 -0.7435
 7461SOL    HW329617   4.411   3.315   3.119  1.6984 -0.4639 -2.3299
 7461SOL    MW429618   4.449   3.391   3.139  0.1794 -0.2445 -0.6143
 7462SOL     OW29619   0.058   5.384   3.403 -0.7415  0.2878 -0.1922
 7462SOL    HW229620   0.081   5.296   3.433  0.9718 -0.1087 -2.3687
 7462SOL    HW329621   0.043   5.433   3.483 -0.7422 -1.7286  1.1308
 7462SOL    MW429622   0.059   5.379   3.417  0.0598 -0.1371  0.2285
 7463SOL     OW29623   6.322   5.788   5.908 -0.0318  0.1000  0.0555
 7463SOL    HW229624   6.365   5.808   5.825  1.4458 -0.2818  0.6899
 7463SOL    HW329625   6.230   5.808   5.893  0.5709  2.6072 -0.8507
 7463SOL    MW429626   6.316   5.793   5.895 -0.1146 -0.2430 -0.2189
 7464SOL     OW29627   1.923   2.919   2.918  0.2379  0.6863  0.1566
 7464SOL    HW229628   1.897   2.944   3.007 -0.7400  1.8965 -0.4345
 7464SOL    HW329629   1.992   2.981   2.895  0.5038  0.3605  0.0723
 7464SOL    MW429630   1.929   2.930   2.927 -0.0526 -0.1556  0.6733
 7465SOL     OW29631   0.635   4.822   0.116 -0.0060 -0.7154  0.1070
 7465SOL    HW229632   0.679   4.809   0.032  2.2517 -0.1905  1.1437
 7465SOL    HW329633   0.556   4.767   0.110  0.7997 -1.7690 -1.8220
 7465SOL    MW429634   0.630   4.813   0.104 -0.1909 -0.3639  0.8623
 7466SOL     OW29635   0.037   2.756   6.105 -0.1005 -0.3284 -0.0687
 7466SOL    HW229636  -0.045   2.801   6.086 -0.1012 -0.3349 -0.0808
 7466SOL    HW329637   0.057   2.781   6.196  1.2850  1.8992 -0.8914
 7466SOL    MW429638   0.029   2.765   6.115 -0.2943  0.0227 -0.1552
 7467SOL     OW29639   2.645   1.740   5.841 -0.5050 -0.2255  0.2820
 7467SOL    HW229640   2.667   1.830   5.862 -1.2760 -0.0653  0.4255
 7467SOL    HW329641   2.629   1.698   5.925 -0.6490 -0.3656  0.1860
 7467SOL    MW429642   2.646   1.746   5.855  0.2825  0.4048  0.1841
 7468SOL     OW29643   3.535   4.131   6.076 -0.0850  0.6497  0.8463
 7468SOL    HW229644   3.506   4.222   6.070  2.0868  1.3831  0.6615
 7468SOL    HW329645   3.592   4.120   6.000 -1.5333 -1.3947 -0.0470
 7468SOL    MW429646   3.538   4.142   6.065  0.8134  0.0066  0.1578
 7469SOL     OW29647   2.231   2.412   3.714 -0.1540  0.3300 -0.1840
 7469SOL    HW229648   2.250   2.466   3.790 -0.6731  0.9898 -0.5202
 7469SOL    HW329649   2.295   2.439   3.648 -0.5963  0.7369 -0.4478
 7469SOL    MW429650   2.242   2.422   3.716 -0.6477  0.1861 -0.1559
 7470SOL     OW29651   3.773   0.758   0.262 -0.1632 -0.0309  0.6213
 7470SOL    HW229652   3.782   0.821   0.190  0.4733 -0.6943  0.1007
 7470SOL    HW329653   3.853   0.770   0.314 -0.5724  0.3711  1.1623
 7470SOL    MW429654   3.785   0.768   0.259  0.1409  0.1768  0.2818
 7471SOL     OW29655   6.378   5.403   1.316 -0.7133 -0.7897  0.1056
 7471SOL    HW229656   6.296   5.404   1.267 -1.5155  0.2974  1.3917
 7471SOL    HW329657   6.351   5.404   1.408  0.7236  0.4541  0.5564
 7471SOL    MW429658   6.364   5.404   1.321  0.3740 -0.0363  0.0010
 7472SOL     OW29659   1.067   1.762   2.001 -0.2932 -0.1112  0.0086
 7472SOL    HW229660   1.161   1.769   2.019  0.2583 -0.7831 -2.2976
 7472SOL    HW329661   1.045   1.845   1.959  0.1922 -1.3184 -2.8618
 7472SOL    MW429662   1.077   1.774   1.998  0.4048  0.1307 -0.2361
 7473SOL     OW29663   5.109   5.410   5.167  0.0140 -0.3327 -0.2485
 7473SOL    HW229664   5.155   5.472   5.223 -0.8942  1.4102 -1.3466
 7473SOL    HW329665   5.067   5.348   5.228 -0.1161  0.9024  0.9468
 7473SOL    MW429666   5.109   5.410   5.183  0.1903 -0.5160 -0.5747
 7474SOL     OW29667   5.709   5.830   2.653  0.0926  0.1693 -0.3912
 7474SOL    HW229668   5.726   5.884   2.576 -0.3657  1.7533  0.5813
 7474SOL    HW329669   5.794   5.791   2.673 -0.1364 -1.7740 -2.7319
 7474SOL    MW429670   5.723   5.832   2.645  0.1982 -0.8738  0.0412
 7475SOL     OW29671   4.732   1.866   5.381 -0.4771  0.2769 -0.0126
 7475SOL    HW229672   4.733   1.935   5.314 -3.1863  2.7480  2.2320
 7475SOL    HW329673   4.769   1.907   5.459  1.0209 -1.9795  0.5506
 7475SOL    MW429674   4.737   1.881   5.382 -0.6611 -0.3103  0.2161
 7476SOL     OW29675   3.242   4.135   3.615  0.0316 -0.0844  0.5379
 7476SOL    HW229676   3.257   4.081   3.693 -0.2274 -1.1939 -0.1544
 7476SOL    HW329677   3.260   4.076   3.542 -0.7425  0.6254 -0.2482
 7476SOL    MW429678   3.246   4.120   3.616  0.0809  0.0915  0.1875
 7477SOL     OW29679   4.144   4.041   0.951 -0.5804 -0.0364  0.2974
 7477SOL    HW229680   4.144   4.130   0.987  0.0775  0.1901 -0.2212
 7477SOL    HW329681   4.116   4.052   0.860  1.2407 -0.0895 -0.3120
 7477SOL    MW429682   4.140   4.054   0.943 -0.0293 -0.0551  0.4623
 7478SOL     OW29683   3.471   0.893   4.253  0.1181 -0.5991  0.6722
 7478SOL    HW229684   3.398   0.851   4.300  0.5612  0.7273  2.6527
 7478SOL    HW329685   3.438   0.980   4.230  0.3443 -0.7868 -0.4134
 7478SOL    MW429686   3.457   0.899   4.256 -0.2087  0.0801 -0.0642
 7479SOL     OW29687   5.012   6.280   0.601 -0.3845 -0.1133  0.5484
 7479SOL    HW229688   5.103   6.291   0.628 -0.8252  0.7145  1.7560
 7479SOL    HW329689   5.007   6.328   0.518  0.8422 -2.2190 -0.8313
 7479SOL    MW429690   5.024   6.288   0.593 -0.5213  0.0640 -0.1057
 7480SOL     OW29691   5.180   2.075   5.193 -0.0746  0.1140 -0.5637
 7480SOL    HW229692   5.255   2.119   5.235  0.4682 -0.5910 -0.7839
 7480SOL    HW329693   5.182   1.986   5.227 -1.5409  0.3957  0.3583
 7480SOL    MW429694   5.190   2.069   5.203  0.6356 -0.6794 -0.8991
 7481SOL     OW29695   2.410   1.905   0.842  0.6373  0.6671 -0.1129
 7481SOL    HW229696   2.475   1.975   0.841  1.2006  0.1823 -1.6660
 7481SOL    HW329697   2.326   1.949   0.841  0.9542  1.3076  0.6437
 7481SOL    MW429698   2.407   1.920   0.841  0.1739 -0.3698 -0.7229
 7482SOL     OW29699   0.059   3.302   0.373  0.1247 -0.3300 -0.2743
 7482SOL    HW229700   0.145   3.318   0.412  0.5397  0.6346 -1.4865
 7482SOL    HW329701   0.076   3.235   0.306  0.6025  1.8956 -2.5270
 7482SOL    MW429702   0.073   3.295   0.369 -0.3644 -0.0412 -0.3309
 7483SOL     OW29703   0.867   0.745   0.910  0.4301 -0.1115  0.2475
 7483SOL    HW229704   0.876   0.680   0.840  0.1333  1.7033 -1.5626
 7483SOL    HW329705   0.955   0.780   0.921  0.1642  0.7634 -0.3901
 7483SOL    MW429706   0.880   0.741   0.902 -1.1365  0.4728 -0.5672
 7484SOL     OW29707   3.075   0.335   1.000 -0.4958 -0.3651 -0.2740
 7484SOL    HW229708   2.990   0.293   0.986 -1.7813  1.9587  0.0741
 7484SOL    HW329709   3.126   0.271   1.050 -2.2344 -1.5897  0.0095
 7484SOL    MW429710   3.071   0.321   1.004 -0.0246  0.4543  0.4586
 7485SOL     OW29711   5.276   2.444   2.098  0.7282 -0.0056  0.2753
 7485SOL    HW229712   5.313   2.392   2.169  0.9849 -0.4902 -0.2046
 7485SOL    HW329713   5.242   2.522   2.141  1.1298 -0.1616  0.8954
 7485SOL    MW429714   5.276   2.447   2.113 -0.1770  0.1198 -0.6280
 7486SOL     OW29715   5.208   1.626   1.068  0.4126 -0.3345 -0.3427
 7486SOL    HW229716   5.231   1.643   0.977 -1.9545 -0.4391 -1.0223
 7486SOL    HW329717   5.167   1.540   1.067 -0.9307  0.2607  0.5532
 7486SOL    MW429718   5.206   1.617   1.056  0.3032  0.0266 -0.3237
 7487SOL     OW29719   5.978   5.343   4.115 -0.3951  0.1561  0.0255
 7487SOL    HW229720   5.980   5.262   4.066  0.5640 -1.0871  1.9723
 7487SOL    HW329721   5.978   5.316   4.207 -1.8311  2.3493  0.7582
 7487SOL    MW429722   5.978   5.329   4.121  0.4923 -0.5166  0.3123
 7488SOL     OW29723   4.169   2.654   1.386 -0.7425  0.4676  0.2079
 7488SOL    HW229724   4.124   2.709   1.321  0.8266 -0.7692 -2.0602
 7488SOL    HW329725   4.257   2.692   1.393 -0.0964 -0.8838 -0.3138
 7488SOL    MW429726   4.174   2.667   1.378  0.5256  0.0408  0.3399
 7489SOL     OW29727   2.260   2.858   4.942  0.0209 -0.5319 -0.2949
 7489SOL    HW229728   2.235   2.791   5.006  0.2301 -0.4694 -0.1464
 7489SOL    HW329729   2.335   2.820   4.896  1.0756  0.1843  0.7784
 7489SOL    MW429730   2.267   2.844   4.944  0.2344  0.6507  0.1883
 7490SOL     OW29731   6.016   4.772   1.229  0.2042 -0.2365  0.3649
 7490SOL    HW229732   6.060   4.692   1.260 -0.2136 -0.6304 -0.0465
 7490SOL    HW329733   5.948   4.788   1.295 -0.1077 -0.5697  0.1285
 7490SOL    MW429734   6.013   4.763   1.242 -0.3927 -0.6115  0.5461
 7491SOL     OW29735   0.558   5.619   5.961 -0.4569  0.4958  0.1081
 7491SOL    HW229736   0.604   5.688   6.008  1.9603 -1.7096  1.2772
 7491SOL    HW329737   0.527   5.560   6.030 -1.0463 -0.4021 -0.8917
 7491SOL    MW429738   0.560   5.620   5.976 -0.4458  0.3434  0.3907
 7492SOL     OW29739   2.252   3.450   3.014 -0.2206  0.0837 -0.0527
 7492SOL    HW229740   2.206   3.504   2.950  1.6341  1.5198 -0.2718
 7492SOL    HW329741   2.306   3.392   2.961  0.3920  0.4256  0.1887
 7492SOL    MW429742   2.253   3.450   2.999 -0.2400 -0.5054 -0.7817
 7493SOL     OW29743   0.061   4.857   3.368 -0.6839 -0.2455 -0.1778
 7493SOL    HW229744   0.040   4.951   3.372  0.1698 -0.0760  0.8504
 7493SOL    HW329745   0.088   4.842   3.278 -1.2552  0.3972 -0.4661
 7493SOL    MW429746   0.061   4.867   3.357  0.1357 -0.1913  0.1370
 7494SOL     OW29747   2.547   2.078   4.275 -0.5718 -0.9058  0.1259
 7494SOL    HW229748   2.471   2.129   4.303 -0.7837 -1.4159  0.5109
 7494SOL    HW329749   2.511   2.013   4.214  0.0073  0.7404 -2.1078
 7494SOL    MW429750   2.532   2.076   4.271  0.2677  0.1820 -0.4215
 7495SOL     OW29751   0.080   5.748   1.300 -0.0418 -0.2332  0.2526
 7495SOL    HW229752  -0.015   5.747   1.295 -0.1055  0.5008  1.0105
 7495SOL    HW329753   0.103   5.841   1.306  0.7140 -0.4094  0.2731
 7495SOL    MW429754   0.071   5.760   1.300  0.2728  0.5004 -0.2082
 7496SOL     OW29755   5.343   2.610   5.278  0.1601 -0.4585 -0.2168
 7496SOL    HW229756   5.281   2.626   5.349 -0.6357  0.7424 -1.1388
 7496SOL    HW329757   5.406   2.548   5.315 -1.2462 -1.2808  0.9401
 7496SOL    MW429758   5.343   2.604   5.292 -0.5211 -0.3553  0.1247
 7497SOL     OW29759   0.970   2.017   2.939 -0.4021  0.1450 -0.3722
 7497SOL    HW229760   1.054   2.062   2.930  0.0732 -0.4833  0.6957
 7497SOL    HW329761   0.906   2.088   2.944  0.3736  0.7749  1.7208
 7497SOL    MW429762   0.973   2.033   2.939  0.1133  0.5536  0.4282
 7498SOL     OW29763   5.641   1.542   6.291  0.7993  0.1913  0.2017
 7498SOL    HW229764   5.703   1.531   6.218 -1.0116 -3.2171 -1.0597
 7498SOL    HW329765   5.691   1.517   6.369  1.4778 -0.9867 -0.5806
 7498SOL    MW429766   5.656   1.537   6.292 -0.0814 -0.5643  0.3849
 7499SOL     OW29767   4.245   1.985   0.142 -0.0672 -0.2930 -0.7418
 7499SOL    HW229768   4.301   2.061   0.124  0.6511  0.0714  2.4214
 7499SOL    HW329769   4.208   2.003   0.229 -0.8093 -3.0454 -0.4064
 7499SOL    MW429770   4.247   1.997   0.152 -0.4650  0.0888 -0.0754
 7500SOL     OW29771   4.862   1.708   6.042  0.3746 -0.6184 -0.6080
 7500SOL    HW229772   4.797   1.699   6.113 -1.8615  1.3103 -2.2395
 7500SOL    HW329773   4.821   1.665   5.967  2.0155 -1.2638 -1.1810
 7500SOL    MW429774   4.848   1.701   6.042 -0.2816  0.4118 -0.0454
 7501SOL     OW29775   0.507   5.991   5.078 -0.6645 -0.0059 -0.0394
 7501SOL    HW229776   0.597   6.003   5.049  0.5984 -2.7760  2.2329
 7501SOL    HW329777   0.455   5.997   4.998  1.5817  0.9788 -1.5269
 7501SOL    MW429778   0.512   5.994   5.064  0.8031 -0.6820  0.1871
 7502SOL     OW29779   2.638   4.908   3.968  0.4598  0.8705  0.6858
 7502SOL    HW229780   2.555   4.868   3.944 -0.2979  0.4096  3.6621
 7502SOL    HW329781   2.697   4.885   3.897 -0.7038 -3.0162  0.7445
 7502SOL    MW429782   2.635   4.900   3.956 -0.3894 -0.5672  0.6290
 7503SOL     OW29783   4.392   2.798   4.141 -0.2135 -0.0938  0.2668
 7503SOL    HW229784   4.455   2.730   4.116  0.3711  1.1242 -1.8247
 7503SOL    HW329785   4.308   2.753   4.142  0.2785 -1.0661 -0.1181
 7503SOL    MW429786   4.389   2.783   4.138 -0.5765 -0.6039 -0.1236
 7504SOL     OW29787   1.818   3.511   1.303  0.1291 -0.3647  0.3902
 7504SOL    HW229788   1.857   3.596   1.283  1.4268 -1.3123 -1.4380
 7504SOL    HW329789   1.790   3.518   1.395 -2.5324  2.9677 -0.4867
 7504SOL    MW429790   1.820   3.523   1.313 -0.1902  0.4084  0.6934
 7505SOL     OW29791   3.457   1.741   1.520 -0.2206 -0.3815  0.2178
 7505SOL    HW229792   3.470   1.671   1.457  2.6176  0.0822  0.1764
 7505SOL    HW329793   3.409   1.808   1.472 -1.1289 -1.4113 -0.3588
 7505SOL    MW429794   3.452   1.741   1.505  0.6607  0.2398  0.1277
 7506SOL     OW29795   1.779   1.895   4.442 -0.0071  0.0935  0.1304
 7506SOL    HW229796   1.871   1.878   4.421  0.7225  1.4764  1.9482
 7506SOL    HW329797   1.732   1.816   4.414  1.9755 -1.3714  0.7534
 7506SOL    MW429798   1.785   1.883   4.435  0.0247  0.0661  0.4475
 7507SOL     OW29799   1.781   1.004   1.709  0.4885  0.2929  0.2820
 7507SOL    HW229800   1.861   0.961   1.738 -0.1850 -1.1716  0.0716
 7507SOL    HW329801   1.711   0.945   1.737 -0.3912  0.5478 -1.2608
 7507SOL    MW429802   1.782   0.990   1.717 -0.1073 -0.6314 -0.3673
 7508SOL     OW29803   4.807   0.833   3.177 -0.0285 -0.0761 -0.3817
 7508SOL    HW229804   4.752   0.775   3.229  1.4617 -0.5141  0.7662
 7508SOL    HW329805   4.791   0.920   3.213  1.4647 -0.4548  1.3029
 7508SOL    MW429806   4.797   0.837   3.188  0.1857  0.3550 -0.4062
 7509SOL     OW29807   0.883   5.411   5.949 -0.1146  0.0080  0.1817
 7509SOL    HW229808   0.976   5.427   5.932 -0.1063 -0.8977 -0.7267
 7509SOL    HW329809   0.880   5.321   5.981 -0.6119  0.2756  0.9033
 7509SOL    MW429810   0.895   5.402   5.951 -0.1792 -0.5456 -0.7435
 7510SOL     OW29811   2.866   6.197   4.961 -0.1266  0.0040 -0.3556
 7510SOL    HW229812   2.842   6.123   4.906 -1.5141  0.0797  0.1166
 7510SOL    HW329813   2.917   6.254   4.904  0.4407 -1.0050 -0.8895
 7510SOL    MW429814   2.870   6.195   4.946  0.1689  0.0618 -0.3048
 7511SOL     OW29815   5.912   5.237   5.464 -0.1504  0.1089 -0.0980
 7511SOL    HW229816   5.820   5.242   5.436 -0.3295 -2.8298 -0.3219
 7511SOL    HW329817   5.908   5.242   5.560 -0.3362  1.5690 -0.1514
 7511SOL    MW429818   5.899   5.239   5.473  0.6062 -0.0708 -0.0822
 7512SOL     OW29819   3.332   6.275   5.182 -0.4277  0.0441  0.1787
 7512SOL    HW229820   3.348   6.363   5.218  1.1871  0.0950 -0.5979
 7512SOL    HW329821   3.352   6.283   5.089  0.5564 -1.3538  0.2502
 7512SOL    MW429822   3.337   6.288   5.175 -0.7228  0.5339  0.2121
 7513SOL     OW29823   4.012   6.118   6.191 -0.2908  0.3616 -0.0237
 7513SOL    HW229824   4.042   6.087   6.277 -1.1404 -2.7095 -0.7049
 7513SOL    HW329825   3.931   6.069   6.176 -2.1015  3.4548 -1.1027
 7513SOL    MW429826   4.005   6.107   6.201 -0.1121  0.3633  0.1510
 7514SOL     OW29827   1.708   6.237   2.010 -0.2782  0.0888  0.2661
 7514SOL    HW229828   1.676   6.163   1.957 -1.8213 -0.7370  2.2099
 7514SOL    HW329829   1.637   6.301   2.006  0.4150  0.8377 -0.1790
 7514SOL    MW429830   1.694   6.235   2.002 -0.2561  0.2621  0.2331
 7515SOL     OW29831   1.030   0.172   0.039 -0.2333 -0.1034  0.3523
 7515SOL    HW229832   0.964   0.112   0.072  1.8564 -0.8597  3.5748
 7515SOL    HW329833   1.081   0.120  -0.023  1.0557 -1.5798  2.5037
 7515SOL    MW429834   1.028   0.157   0.035 -0.6211  0.2345 -0.3004
 7516SOL     OW29835   2.954   0.090   3.266 -0.3359 -0.5496  0.1755
 7516SOL    HW229836   2.956   0.179   3.230 -0.1441 -0.6208  0.0072
 7516SOL    HW329837   3.042   0.056   3.251 -1.0983 -1.7126 -2.1206
 7516SOL    MW429838   2.966   0.097   3.259  0.6276  0.6424  0.7157
 7517SOL     OW29839   4.875   4.484   2.856  0.0178 -0.2260  0.1532
 7517SOL    HW229840   4.956   4.433   2.860  0.7175  0.8721  0.4503
 7517SOL    HW329841   4.895   4.557   2.797 -0.0906  1.1355  1.7201
 7517SOL    MW429842   4.888   4.487   2.849  0.0438  0.2673 -0.0127
 7518SOL     OW29843   0.174   0.303   1.119  0.2966  0.0663  0.6956
 7518SOL    HW229844   0.080   0.312   1.104  0.4565  1.3874  0.2832
 7518SOL    HW329845   0.190   0.347   1.202  0.9207  2.6974 -0.6764
 7518SOL    MW429846   0.164   0.310   1.128  0.5457  0.0513  0.7370
 7519SOL     OW29847   3.792   5.979   3.789 -0.1004 -0.5950  0.2702
 7519SOL    HW229848   3.833   5.981   3.703 -0.0840  0.7560  0.2858
 7519SOL    HW329849   3.851   6.029   3.845 -1.0661  0.1993  0.6100
 7519SOL    MW429850   3.805   5.986   3.785 -0.5160 -0.1745 -0.9712
 7520SOL     OW29851   4.970   4.383   5.253 -0.5289  0.3307 -0.2770
 7520SOL    HW229852   4.959   4.347   5.341 -0.2525  1.2325  0.1423
 7520SOL    HW329853   4.880   4.403   5.224 -0.4973  2.4236  0.8640
 7520SOL    MW429854   4.956   4.381   5.261  0.1652  0.6853 -0.0780
 7521SOL     OW29855   1.414   5.173   2.579  0.1977 -0.0936 -0.3983
 7521SOL    HW229856   1.469   5.224   2.639  0.9260 -1.1709 -0.1215
 7521SOL    HW329857   1.415   5.085   2.616 -0.3500 -0.4943 -1.3305
 7521SOL    MW429858   1.422   5.168   2.592  0.8770 -0.0528  0.7886
 7522SOL     OW29859   5.918   1.024   0.414 -0.5355 -0.1824 -0.2773
 7522SOL    HW229860   5.960   1.110   0.419 -0.0350 -0.4414  0.1296
 7522SOL    HW329861   5.967   0.977   0.347  0.4468 -0.7989  0.8230
 7522SOL    MW429862   5.930   1.029   0.406 -0.1111  0.2323 -0.0357
 7523SOL     OW29863   0.515   1.043   5.970  0.3968  0.2753 -0.1523
 7523SOL    HW229864   0.463   0.966   5.946  0.0270  0.2021  0.8411
 7523SOL    HW329865   0.450   1.112   5.984  0.7376  0.8379 -1.2134
 7523SOL    MW429866   0.499   1.042   5.968 -0.0010 -0.0507  0.4481
 7524SOL     OW29867   5.070   1.222   1.442  0.7224  0.2492 -0.1191
 7524SOL    HW229868   4.999   1.274   1.404 -0.2492 -0.5804  0.4848
 7524SOL    HW329869   5.129   1.287   1.481 -1.7001  0.9486  2.8160
 7524SOL    MW429870   5.068   1.238   1.442 -0.0250 -0.1596 -0.0799
 7525SOL     OW29871   1.979   5.798   2.748 -0.0044  0.3204 -0.0242
 7525SOL    HW229872   1.914   5.753   2.695  2.0213 -1.3939 -1.2141
 7525SOL    HW329873   1.955   5.891   2.742 -2.8269 -0.2860  0.4005
 7525SOL    MW429874   1.967   5.804   2.740  0.0891  0.4559  0.3080
 7526SOL     OW29875   0.764   5.997   4.965 -0.2257  0.3263  0.8699
 7526SOL    HW229876   0.821   6.072   4.984 -2.2401  1.9762  0.7235
 7526SOL    HW329877   0.786   5.933   5.032  1.6559  0.9757  0.9216
 7526SOL    MW429878   0.774   5.999   4.976 -0.2253 -0.2589 -0.0653
 7527SOL     OW29879   5.914   4.251   3.184  0.6798 -0.1600  0.0830
 7527SOL    HW229880   5.843   4.301   3.144  1.6275  0.9367 -0.2528
 7527SOL    HW329881   5.989   4.264   3.126  1.1851 -1.2844  0.4414
 7527SOL    MW429882   5.914   4.259   3.171  0.6592 -0.8229 -0.3793
 7528SOL     OW29883   1.026   3.743   1.384 -0.5101  0.4391 -0.1033
 7528SOL    HW229884   0.993   3.811   1.326  0.4535  1.9880  1.0618
 7528SOL    HW329885   0.958   3.676   1.385 -1.4677  1.3514 -1.3369
 7528SOL    MW429886   1.013   3.743   1.376 -0.3051 -0.1408  0.3117
 7529SOL     OW29887   5.125   6.234   5.389 -0.3716 -0.2288 -0.7215
 7529SOL    HW229888   5.097   6.144   5.373 -0.8863 -0.0422 -0.8905
 7529SOL    HW329889   5.186   6.253   5.318 -0.8585 -0.1858 -1.1339
 7529SOL    MW429890   5.129   6.224   5.378  0.6317  0.0006  0.4975
 7530SOL     OW29891   3.062   0.250   4.212  0.5832 -0.4671  0.1991
 7530SOL    HW229892   3.152   0.243   4.183  0.6317 -0.0640  0.2481
 7530SOL    HW329893   3.016   0.292   4.139  0.8119  1.0363  0.8885
 7530SOL    MW429894   3.068   0.254   4.199 -0.9511 -0.2779  0.3142
 7531SOL     OW29895   4.486   1.451   5.191 -0.7960  0.1147  0.3040
 7531SOL    HW229896   4.508   1.449   5.285  0.9178 -0.0624 -0.0689
 7531SOL    HW329897   4.528   1.530   5.158 -1.6850  0.3580 -0.2598
 7531SOL    MW429898   4.494   1.461   5.199 -0.0491  0.0462  0.4687
 7532SOL     OW29899   0.522   4.859   0.951  0.6914  0.5206  0.4926
 7532SOL    HW229900   0.616   4.866   0.932  0.7385  0.5581  0.7429
 7532SOL    HW329901   0.500   4.769   0.926  0.8192  0.4736  0.5453
 7532SOL    MW429902   0.532   4.848   0.945 -0.3009  0.6773 -0.7306
 7533SOL     OW29903   0.456   3.678   2.637  0.0065 -0.0010 -0.2959
 7533SOL    HW229904   0.482   3.593   2.602  0.0970 -1.3220  2.6440
 7533SOL    HW329905   0.517   3.740   2.596  2.7093 -1.9296  0.4476
 7533SOL    MW429906   0.468   3.675   2.627  0.1405 -0.9606 -0.4062
 7534SOL     OW29907   3.678   2.034   1.542 -0.6899 -0.0934  0.0987
 7534SOL    HW229908   3.651   1.959   1.489 -0.0828  0.8263 -1.5916
 7534SOL    HW329909   3.655   2.009   1.632 -4.0624 -0.7320 -0.7937
 7534SOL    MW429910   3.672   2.021   1.547 -0.5093 -0.1110  0.2407
 7535SOL     OW29911   1.532   1.512   5.946 -0.1940 -0.3968 -0.3144
 7535SOL    HW229912   1.592   1.488   5.875 -0.3130  0.5689 -0.7593
 7535SOL    HW329913   1.571   1.589   5.985 -0.8379 -0.1094 -0.2220
 7535SOL    MW429914   1.545   1.519   5.941 -0.4964 -0.5542  0.1516
 7536SOL     OW29915   0.259   1.489   1.182  0.0695  0.6363  0.4323
 7536SOL    HW229916   0.196   1.529   1.122  0.2976 -0.9342 -0.9533
 7536SOL    HW329917   0.341   1.487   1.132  0.7084  0.8449  1.4610
 7536SOL    MW429918   0.262   1.494   1.167  0.7353 -0.0204 -0.3554
 7537SOL     OW29919   6.110   4.228   4.792 -0.2929 -0.4044 -0.5276
 7537SOL    HW229920   6.065   4.158   4.839 -1.1678  0.9160  0.6606
 7537SOL    HW329921   6.161   4.182   4.725 -0.3565 -2.2134  0.6001
 7537SOL    MW429922   6.111   4.213   4.789 -0.3940 -0.3718 -0.4888
 7538SOL     OW29923   2.872   5.231   2.023 -0.3911 -0.0273  0.3839
 7538SOL    HW229924   2.842   5.140   2.017 -0.4008  0.0880 -2.9037
 7538SOL    HW329925   2.956   5.225   2.069 -0.7497 -1.5628  0.9227
 7538SOL    MW429926   2.879   5.218   2.029  0.0196  0.1700 -0.7240
 7539SOL     OW29927   3.366   6.046   0.144  0.5053 -0.4819 -0.8413
 7539SOL    HW229928   3.415   6.123   0.173 -0.4333 -0.5626  1.1470
 7539SOL    HW329929   3.390   6.035   0.052  3.5032  0.0181 -0.2476
 7539SOL    MW429930   3.376   6.055   0.136 -0.3655  0.2911 -0.6986
 7540SOL     OW29931   0.627   2.333   4.199 -0.1352  0.4078  0.3514
 7540SOL    HW229932   0.646   2.244   4.228  0.4374  1.4999  3.6631
 7540SOL    HW329933   0.673   2.389   4.261 -1.3003  3.0558 -1.0275
 7540SOL    MW429934   0.636   2.329   4.211  0.0693 -0.1429  0.7030
 7541SOL     OW29935   2.952   3.198   3.613 -0.2634  0.0422 -0.0592
 7541SOL    HW229936   2.999   3.257   3.554 -1.1616  0.3495 -0.4888
 7541SOL    HW329937   2.964   3.237   3.700 -0.3262  0.5180 -0.2583
 7541SOL    MW429938   2.960   3.211   3.617 -0.0260 -0.4761  0.0682
 7542SOL     OW29939   4.693   6.075   4.744 -0.2770 -0.3649 -0.1274
 7542SOL    HW229940   4.688   6.070   4.649  0.0231  0.7456 -0.2165
 7542SOL    HW329941   4.606   6.051   4.774 -0.9374  1.0949 -0.7818
 7542SOL    MW429942   4.681   6.071   4.735  0.1405  0.0489  0.4683
 7543SOL     OW29943   0.313   4.522   1.935  0.0348 -0.4963 -0.2675
 7543SOL    HW229944   0.310   4.618   1.926  0.6793 -0.5683 -1.3342
 7543SOL    HW329945   0.236   4.492   1.887 -0.1182 -0.5239 -0.0073
 7543SOL    MW429946   0.302   4.531   1.927 -0.4548 -0.0825 -0.2390
 7544SOL     OW29947   3.699   2.221   2.540  0.2194 -0.2365 -0.4958
 7544SOL    HW229948   3.781   2.270   2.545  0.3336 -0.4939  0.3239
 7544SOL    HW329949   3.631   2.285   2.562  0.2371 -0.1267 -0.7571
 7544SOL    MW429950   3.701   2.236   2.543 -0.3140  0.2327  0.3736
 7545SOL     OW29951   5.832   4.277   6.077  0.2740  0.2202 -0.4843
 7545SOL    HW229952   5.826   4.184   6.056  1.1163  0.3462 -1.3585
 7545SOL    HW329953   5.773   4.319   6.014  0.1990  0.3181 -0.3496
 7545SOL    MW429954   5.823   4.270   6.066  0.2470 -0.1476  0.1561
 7546SOL     OW29955   1.157   0.401   0.608 -0.1943  0.0296  0.4707
 7546SOL    HW229956   1.072   0.375   0.574  0.9442 -2.9412 -0.4016
 7546SOL    HW329957   1.139   0.430   0.698 -2.1520 -0.2635  0.2142
 7546SOL    MW429958   1.143   0.401   0.615 -0.0951  0.4103  0.3329
 7547SOL     OW29959   6.278   1.137   4.434 -0.2471  0.0125 -0.0213
 7547SOL    HW229960   6.285   1.115   4.527  1.8438 -0.5193 -0.2305
 7547SOL    HW329961   6.185   1.152   4.419 -0.9632 -2.1897  1.6477
 7547SOL    MW429962   6.267   1.136   4.444 -0.2550  0.1138 -0.3409
 7548SOL     OW29963   4.419   1.565   2.731  0.0628  0.2133  0.5790
 7548SOL    HW229964   4.498   1.590   2.780  0.3845  0.3366  0.0085
 7548SOL    HW329965   4.350   1.619   2.769 -0.0529 -0.8803  2.0352
 7548SOL    MW429966   4.420   1.576   2.743 -0.2556  0.4357  0.0561
 7549SOL     OW29967   5.105   1.120   2.734  0.2286 -0.1383  0.0119
 7549SOL    HW229968   5.200   1.111   2.726  0.2975  0.9295 -0.5839
 7549SOL    HW329969   5.075   1.032   2.757  1.5245 -0.1440  1.9295
 7549SOL    MW429970   5.114   1.107   2.736  0.1053 -0.2638 -0.0095
 7550SOL     OW29971   1.543   5.959   1.613 -0.1923  0.1493  0.0899
 7550SOL    HW229972   1.490   5.955   1.534 -2.0426 -1.2046  1.3240
 7550SOL    HW329973   1.591   5.876   1.615  0.2172  0.3827  0.1624
 7550SOL    MW429974   1.542   5.948   1.603  0.4289  0.4859 -0.9169
 7551SOL     OW29975   3.465   6.310   3.280 -0.1414  0.2852  0.4024
 7551SOL    HW229976   3.485   6.403   3.278  0.0433  0.2458  0.3931
 7551SOL    HW329977   3.444   6.292   3.371  1.3466  0.0206  0.7122
 7551SOL    MW429978   3.465   6.320   3.291  0.2485 -0.1260  0.3432
 7552SOL     OW29979   4.444   3.994   6.097 -0.3759  0.7472  0.1565
 7552SOL    HW229980   4.444   3.997   6.192  0.9979  1.7643  0.1468
 7552SOL    HW329981   4.368   4.046   6.071 -0.6266  0.6490  0.6839
 7552SOL    MW429982   4.434   4.001   6.106  0.4420 -0.4971 -0.7594
 7553SOL     OW29983   3.144   2.310   1.639  0.2310 -0.5205 -0.6075
 7553SOL    HW229984   3.238   2.307   1.656  0.0033 -0.2779  0.7710
 7553SOL    HW329985   3.136   2.287   1.546  1.7323  0.5737 -1.0442
 7553SOL    MW429986   3.155   2.307   1.629 -0.4302  0.4081  0.2139
 7554SOL     OW29987   4.797   0.927   4.676 -0.2022 -0.0598 -0.0173
 7554SOL    HW229988   4.763   0.839   4.692  1.1351 -0.4943  0.6216
 7554SOL    HW329989   4.743   0.962   4.606 -0.0052 -1.8562 -1.1200
 7554SOL    MW429990   4.786   0.920   4.669 -0.1440  0.3328 -0.1476
 7555SOL     OW29991   2.221   3.045   2.914 -0.1439 -0.4033 -0.0391
 7555SOL    HW229992   2.215   3.027   3.008 -1.5663 -0.3114 -0.0934
 7555SOL    HW329993   2.296   3.105   2.906  0.8055 -1.4129  0.8607
 7555SOL    MW429994   2.230   3.051   2.926 -0.0395 -0.1622 -0.3707
 7556SOL     OW29995   4.938   3.468   4.527  0.0638 -0.2802  0.6591
 7556SOL    HW229996   4.981   3.551   4.510  1.6530 -1.1029  0.4313
 7556SOL    HW329997   4.851   3.491   4.560  0.3875  1.4404  0.3736
 7556SOL    MW429998   4.932   3.482   4.529 -0.1838 -0.0068 -0.2142
 7557SOL     OW29999   3.053   5.627   1.144  0.3706 -0.0572  0.0349
 7557SOL    HW230000   3.110   5.596   1.074 -0.9430  0.4325 -1.2770
 7557SOL    HW330001   2.980   5.668   1.100 -1.7542 -1.8628  1.6191
 7557SOL    MW430002   3.051   5.628   1.129  0.5745  0.5052  0.0879
 7558SOL     OW30003   2.612   3.219   5.110 -0.2881 -0.6243  0.0140
 7558SOL    HW230004   2.611   3.130   5.076  0.5641 -1.8164  2.8745
 7558SOL    HW330005   2.531   3.226   5.160 -0.7495  0.5458 -0.8331
 7558SOL    MW430006   2.601   3.208   5.112 -0.1572 -0.1452  0.7443
 7559SOL     OW30007   2.985   0.889   2.984 -0.3619 -0.2528  0.5591
 7559SOL    HW230008   2.900   0.869   3.023 -0.8227  0.3422 -0.1126
 7559SOL    HW330009   2.966   0.955   2.918  0.5228 -0.6432 -0.1071
 7559SOL    MW430010   2.971   0.895   2.980  0.2689  0.5096  0.3802
 7560SOL     OW30011   1.838   3.772   0.978 -0.8454 -0.1155 -0.0273
 7560SOL    HW230012   1.783   3.701   0.945 -0.3150 -0.7844  0.5072
 7560SOL    HW330013   1.927   3.740   0.968 -0.6342  0.0326  1.1948
 7560SOL    MW430014   1.842   3.759   0.972  0.0167  0.0943  0.3871
 7561SOL     OW30015   2.593   0.626   5.162  0.0951  0.3355  0.1459
 7561SOL    HW230016   2.636   0.667   5.087 -1.5018  1.0584 -0.4257
 7561SOL    HW330017   2.548   0.550   5.124  1.4556 -0.8906  0.8706
 7561SOL    MW430018   2.593   0.621   5.147 -0.2720 -0.0833 -0.3056
 7562SOL     OW30019   1.044   3.683   4.534 -0.3635  0.2566  0.4860
 7562SOL    HW230020   1.012   3.758   4.585  1.2519 -0.3529  2.5614
 7562SOL    HW330021   1.136   3.704   4.517 -0.0634 -0.9653  0.5434
 7562SOL    MW430022   1.052   3.696   4.539  0.2225 -0.5004 -0.5779
 7563SOL     OW30023   0.801   3.071   1.256 -0.1280 -0.2795 -0.1043
 7563SOL    HW230024   0.755   3.136   1.204  0.8516 -0.2668 -0.9738
 7563SOL    HW330025   0.752   2.990   1.241  1.7560 -0.9545 -3.4327
 7563SOL    MW430026   0.788   3.069   1.247  0.1280  0.1565 -0.3279
 7564SOL     OW30027   1.834   5.371   1.892 -0.4428  0.7157 -0.5079
 7564SOL    HW230028   1.905   5.362   1.954 -0.5628 -2.1683 -0.6481
 7564SOL    HW330029   1.828   5.465   1.875  3.7680  1.0595 -1.0314
 7564SOL    MW430030   1.843   5.382   1.898  0.1547 -0.1692  0.1689
 7565SOL     OW30031   1.968   3.200   3.873  0.3810 -0.6194  0.4686
 7565SOL    HW230032   2.025   3.139   3.919  0.3157  0.0638  1.4870
 7565SOL    HW330033   2.017   3.282   3.872 -0.3264 -0.1799  0.8448
 7565SOL    MW430034   1.982   3.203   3.879  0.3262  0.4127  0.4616
 7566SOL     OW30035   6.103   2.809   2.237 -0.1214  0.7575  0.6107
 7566SOL    HW230036   6.083   2.811   2.331 -0.1300 -0.7798  0.6683
 7566SOL    HW330037   6.021   2.783   2.196 -0.0129  1.0438  0.2040
 7566SOL    MW430038   6.090   2.806   2.244  0.2024  0.4525  0.1789
 7567SOL     OW30039   0.779   2.734   5.428 -0.3779  0.3683 -0.0189
 7567SOL    HW230040   0.861   2.700   5.393 -0.2541 -1.5528  1.9670
 7567SOL    HW330041   0.795   2.745   5.521 -2.6957 -1.2461  0.6600
 7567SOL    MW430042   0.792   2.731   5.436 -0.4329 -0.7325 -0.3927
 7568SOL     OW30043   1.078   5.080   3.220 -0.1254 -0.3727  0.2574
 7568SOL    HW230044   1.074   5.126   3.136  1.8722 -0.9226 -0.1988
 7568SOL    HW330045   1.074   5.149   3.286  1.8942  0.4298 -0.3944
 7568SOL    MW430046   1.077   5.095   3.217 -0.5378 -0.2058 -0.4467
 7569SOL     OW30047   5.184   3.003   5.808 -0.4854 -0.8021  0.8656
 7569SOL    HW230048   5.133   3.084   5.813 -0.1761 -0.6516  1.9283
 7569SOL    HW330049   5.226   3.006   5.722 -0.9317 -0.1147  0.6614
 7569SOL    MW430050   5.183   3.014   5.797  0.0566  0.0080 -0.1803
 7570SOL     OW30051   3.869   4.803   3.378  0.1959 -0.4050  0.1825
 7570SOL    HW230052   3.824   4.881   3.411 -0.7065 -0.3669 -1.0849
 7570SOL    HW330053   3.806   4.761   3.321  1.1473 -1.3490 -0.2085
 7570SOL    MW430054   3.855   4.808   3.375 -0.0541  0.2324 -0.2018
 7571SOL     OW30055   2.579   3.865   0.539 -0.6011  0.0502 -0.1776
 7571SOL    HW230056   2.510   3.818   0.492 -1.3392 -0.6643  1.5534
 7571SOL    HW330057   2.642   3.797   0.564 -1.1042  0.1179  1.3649
 7571SOL    MW430058   2.578   3.850   0.536 -0.5205 -0.0158 -0.0910
 7572SOL     OW30059   4.321   4.450   5.186  0.3827 -0.1924  0.0777
 7572SOL    HW230060   4.352   4.374   5.136  2.2348  0.6940 -0.1727
 7572SOL    HW330061   4.340   4.427   5.277  2.2878  0.5141 -0.1011
 7572SOL    MW430062   4.327   4.437   5.191  0.1585  0.6174 -0.3559
 7573SOL     OW30063   5.588   2.981   0.223  0.4557  0.5048  0.8240
 7573SOL    HW230064   5.643   3.060   0.218 -0.3512  0.9803 -1.5229
 7573SOL    HW330065   5.505   3.012   0.259  0.0473  0.8043 -0.3508
 7573SOL    MW430066   5.584   2.996   0.227 -0.4184  0.1315  0.3593
 7574SOL     OW30067   2.444   1.965   3.551 -0.5729 -0.2401 -0.2688
 7574SOL    HW230068   2.472   1.906   3.621  1.2092  1.6639  0.7430
 7574SOL    HW330069   2.388   2.028   3.595  0.6215  1.0176 -0.4784
 7574SOL    MW430070   2.440   1.965   3.566 -0.2231  0.8040 -0.1962
 7575SOL     OW30071   3.611   5.832   0.970  0.1452 -0.4374 -0.5398
 7575SOL    HW230072   3.595   5.924   0.948 -1.7345 -0.9324 -1.3895
 7575SOL    HW330073   3.582   5.824   1.060  1.1310 -0.0323 -0.1670
 7575SOL    MW430074   3.605   5.843   0.979 -0.3936  0.2061 -0.3057
 7576SOL     OW30075   4.039   2.757   0.215  0.0009  0.1409 -0.3448
 7576SOL    HW230076   3.993   2.814   0.277  1.5628 -0.1082  1.1129
 7576SOL    HW330077   3.986   2.760   0.136 -1.7547  0.9485  0.8043
 7576SOL    MW430078   4.026   2.765   0.213  0.1618 -0.3137  0.2689
 7577SOL     OW30079   5.914   4.467   1.135  0.1781 -0.2602 -0.5495
 7577SOL    HW230080   5.857   4.537   1.104 -1.4651 -0.4974  1.7186
 7577SOL    HW330081   5.916   4.404   1.063 -0.0778  1.0725 -1.7754
 7577SOL    MW430082   5.907   4.468   1.121  0.2177  0.1300 -0.3435
 7578SOL     OW30083   1.345   1.419   4.554  0.3594  0.0175 -0.2486
 7578SOL    HW230084   1.347   1.469   4.473  1.1717 -2.2328 -1.7125
 7578SOL    HW330085   1.285   1.467   4.611  1.0700  2.5854 -1.5277
 7578SOL    MW430086   1.337   1.432   4.551 -0.0867 -0.4097  0.3235
 7579SOL     OW30087   0.048   4.754   4.294  0.0241  0.2946 -0.2211
 7579SOL    HW230088   0.137   4.781   4.319 -0.1273  1.0074 -0.4077
 7579SOL    HW330089   0.019   4.822   4.233 -0.2660 -0.4862 -0.9721
 7579SOL    MW430090   0.056   4.767   4.290 -0.0480 -0.6114 -0.4240
 7580SOL     OW30091   0.900   5.099   4.166  0.6949 -0.3198 -0.5344
 7580SOL    HW230092   0.878   5.182   4.210 -2.2936 -2.1642  1.8276
 7580SOL    HW330093   0.992   5.084   4.188  1.1258  1.9832 -0.4795
 7580SOL    MW430094   0.909   5.108   4.175  0.5348 -0.3930 -0.7754
 7581SOL     OW30095   2.953   1.806   4.265 -0.3053 -0.2482  0.1055
 7581SOL    HW230096   3.007   1.866   4.317 -0.5031  1.7519 -1.8216
 7581SOL    HW330097   3.017   1.753   4.217  0.1490  2.2727 -2.3489
 7581SOL    MW430098   2.969   1.807   4.265  0.2253  0.4714 -0.3876
 7582SOL     OW30099   1.073   5.001   4.519 -0.3272 -0.0845 -0.0622
 7582SOL    HW230100   1.037   5.073   4.570 -0.9223  0.8199 -1.6792
 7582SOL    HW330101   0.998   4.966   4.471  0.3304 -0.4020 -0.8821
 7582SOL    MW430102   1.059   5.006   4.519  0.6928 -0.5519 -0.3968
 7583SOL     OW30103   1.286   4.013   4.264 -1.1883  0.3520  0.3681
 7583SOL    HW230104   1.278   4.108   4.256  1.3296  0.7216  1.2868
 7583SOL    HW330105   1.358   3.990   4.206 -1.4964 -0.9452  0.4623
 7583SOL    MW430106   1.295   4.023   4.256 -0.0410  0.4084 -0.6359
 7584SOL     OW30107   5.474   5.114   0.824 -0.2210  0.5602  0.1209
 7584SOL    HW230108   5.563   5.081   0.829 -0.6569 -0.5891  0.5609
 7584SOL    HW330109   5.462   5.138   0.732  0.6733  1.1625  0.1492
 7584SOL    MW430110   5.484   5.113   0.813  0.0878 -0.1255  0.0372
 7585SOL     OW30111   5.253   2.592   3.142  0.6877  0.3426  0.1133
 7585SOL    HW230112   5.206   2.607   3.061 -0.5533 -0.5256  0.6480
 7585SOL    HW330113   5.193   2.622   3.211 -0.2911 -3.1844  0.9868
 7585SOL    MW430114   5.239   2.598   3.141  0.7948  0.1995 -0.4308
 7586SOL     OW30115   5.049   0.005   0.368 -0.4734  0.1775  0.0429
 7586SOL    HW230116   4.998   0.017   0.288 -0.8018 -0.0393  0.2175
 7586SOL    HW330117   5.086   0.092   0.386 -0.5682  0.2746 -0.2289
 7586SOL    MW430118   5.047   0.018   0.360  0.0339 -0.3473 -0.4225
 7587SOL     OW30119   4.760   1.430   6.228 -0.2697 -0.5673  0.3349
 7587SOL    HW230120   4.811   1.394   6.300  0.1053 -1.8112 -0.5105
 7587SOL    HW330121   4.697   1.361   6.207  0.1529 -0.5737 -1.0197
 7587SOL    MW430122   4.759   1.416   6.234  0.3763  0.1001 -0.5827
 7588SOL     OW30123   1.247   3.514   0.851  0.5803  0.1070  0.4441
 7588SOL    HW230124   1.277   3.428   0.820  1.0748  0.3831  0.1381
 7588SOL    HW330125   1.322   3.572   0.836  0.2015  0.6205  0.5215
 7588SOL    MW430126   1.261   3.510   0.845 -0.1362 -0.4486 -0.5121
 7589SOL     OW30127   2.308   2.671   6.226  0.3527 -0.6098  0.6580
 7589SOL    HW230128   2.374   2.725   6.183 -0.9571 -0.0008 -0.6716
 7589SOL    HW330129   2.278   2.723   6.301 -0.6002  0.3745 -0.3719
 7589SOL    MW430130   2.313   2.685   6.230 -0.3663 -0.2060 -0.2498
 7590SOL     OW30131   2.876   1.358   0.095  0.1579  0.3094  0.3538
 7590SOL    HW230132   2.850   1.405   0.016 -1.0903  0.7085  0.9741
 7590SOL    HW330133   2.816   1.390   0.162  0.1182 -1.2400  1.0869
 7590SOL    MW430134   2.865   1.369   0.093  0.9615  0.0519  0.3005
 7591SOL     OW30135   3.633   3.669   2.539  0.3980 -1.0810  0.9765
 7591SOL    HW230136   3.570   3.656   2.467  0.7665 -0.8113  0.5982
 7591SOL    HW330137   3.596   3.740   2.591  0.9282 -0.1352  0.1133
 7591SOL    MW430138   3.620   3.677   2.536 -0.4997 -0.8099  0.2557
 7592SOL     OW30139   5.591   0.921   2.083 -0.0014 -0.3008  0.7295
 7592SOL    HW230140   5.574   0.867   2.160 -1.6725  0.2486  0.7850
 7592SOL    HW330141   5.505   0.940   2.047  0.6617  0.7344 -0.4091
 7592SOL    MW430142   5.578   0.916   2.088  0.0622 -0.2293 -0.0103
 7593SOL     OW30143   0.214   3.587   4.600  0.0941 -0.9070 -0.1581
 7593SOL    HW230144   0.280   3.547   4.543  1.6917 -0.4588  1.3088
 7593SOL    HW330145   0.225   3.544   4.684  0.2741  0.9361  0.8096
 7593SOL    MW430146   0.225   3.576   4.603 -0.0281 -0.5512 -0.5410
 7594SOL     OW30147   2.584   0.359   3.657  0.2358  0.1881  0.4628
 7594SOL    HW230148   2.525   0.338   3.728 -0.2308 -0.9572 -0.2405
 7594SOL    HW330149   2.591   0.279   3.605  3.3164 -0.1186  1.1250
 7594SOL    MW430150   2.577   0.346   3.659 -0.5253 -0.1392 -0.3801
 7595SOL     OW30151   6.088   2.308   1.408 -0.1444  0.0834 -0.3355
 7595SOL    HW230152   6.160   2.260   1.448 -0.4777  0.0350  0.2048
 7595SOL    HW330153   6.012   2.250   1.418 -0.3531  0.3242 -0.5120
 7595SOL    MW430154   6.088   2.294   1.414 -0.0780  0.5396 -0.5244
 7596SOL     OW30155   1.525   2.386   0.611  0.3757  0.6673  0.2767
 7596SOL    HW230156   1.445   2.432   0.587  0.8938  0.7234 -1.4588
 7596SOL    HW330157   1.569   2.370   0.528  1.3322 -0.9070  1.0416
 7596SOL    MW430158   1.520   2.390   0.597  0.1123  0.0594 -0.3541
 7597SOL     OW30159   0.110   1.314   1.710  0.0012 -0.0378 -0.1307
 7597SOL    HW230160   0.186   1.367   1.688 -0.0501 -0.8128 -2.4730
 7597SOL    HW330161   0.129   1.278   1.796  2.7687 -0.9308 -1.0082
 7597SOL    MW430162   0.123   1.316   1.718 -0.5851  0.2359  0.4371
 7598SOL     OW30163   1.011   3.633   2.109  0.0847 -0.4493  0.2358
 7598SOL    HW230164   1.033   3.589   2.027 -0.3649  1.6958 -1.1332
 7598SOL    HW330165   0.915   3.626   2.115  0.1849 -1.2877  1.0224
 7598SOL    MW430166   1.001   3.627   2.099 -0.9935  0.0212 -0.5712
 7599SOL     OW30167   1.962   1.448   3.526 -0.1315 -0.6806  0.1448
 7599SOL    HW230168   2.021   1.484   3.460 -0.8515 -0.6314 -0.4810
 7599SOL    HW330169   1.891   1.513   3.533 -0.7251 -1.3023  0.0107
 7599SOL    MW430170   1.960   1.462   3.518 -0.2468  0.3589  0.2760
 7600SOL     OW30171   0.030   2.981   2.502 -0.1195 -0.2330 -0.2691
 7600SOL    HW230172  -0.011   3.064   2.526  0.4507 -0.1459  0.4452
 7600SOL    HW330173   0.124   2.998   2.506  0.0481 -1.2633  1.3486
 7600SOL    MW430174   0.037   2.994   2.506 -0.1310 -0.6727  0.8000
 7601SOL     OW30175   2.172   4.478   0.769 -0.4322 -0.4509 -0.3487
 7601SOL    HW230176   2.249   4.531   0.790 -0.3455 -0.1465 -1.3977
 7601SOL    HW330177   2.113   4.491   0.844 -0.0303  0.3945 -0.1679
 7601SOL    MW430178   2.174   4.487   0.782  0.5934  0.3481  0.2777
 7602SOL     OW30179   3.198   3.451   2.302  0.3584 -0.0580  0.0546
 7602SOL    HW230180   3.152   3.515   2.248 -1.8500  0.1982  2.0774
 7602SOL    HW330181   3.289   3.456   2.273  0.0151  2.9904 -0.8517
 7602SOL    MW430182   3.204   3.460   2.291 -0.0249 -0.0083 -0.2870
 7603SOL     OW30183   4.735   1.380   4.545 -0.4764 -0.2356  0.3102
 7603SOL    HW230184   4.827   1.404   4.540 -0.3999  0.7332  3.7471
 7603SOL    HW330185   4.726   1.337   4.630 -2.9485 -1.6941 -0.5838
 7603SOL    MW430186   4.746   1.378   4.555  0.1911  0.2159 -0.5991
 7604SOL     OW30187   0.103   6.116   1.010  0.2287 -0.3717  0.4925
 7604SOL    HW230188   0.120   6.066   1.090 -0.0075 -0.4246  0.5090
 7604SOL    HW330189   0.043   6.185   1.037  1.7330  0.8720  0.8112
 7604SOL    MW430190   0.097   6.118   1.024  0.0212  0.0034 -0.5703
 7605SOL     OW30191   0.804   4.915   6.288 -0.0608 -0.4786 -0.3472
 7605SOL    HW230192   0.743   4.988   6.301  0.1547 -0.3619  0.0195
 7605SOL    HW330193   0.884   4.942   6.333 -0.4787 -1.5748  1.1355
 7605SOL    MW430194   0.806   4.928   6.295  0.1156  0.2916  0.2439
 7606SOL     OW30195   2.368   0.579   1.741  0.4655  0.1605 -0.3874
 7606SOL    HW230196   2.407   0.517   1.803 -0.8400 -0.2113  0.0901
 7606SOL    HW330197   2.318   0.640   1.796 -0.8706 -0.2937 -1.0641
 7606SOL    MW430198   2.367   0.579   1.757  0.6765 -0.0564 -0.8804
 7607SOL     OW30199   1.156   6.064   4.401  0.0450  0.0644  0.3949
 7607SOL    HW230200   1.204   6.091   4.479  1.0279 -0.4405 -0.0213
 7607SOL    HW330201   1.219   6.013   4.350 -0.2241  1.3317 -1.2865
 7607SOL    MW430202   1.170   6.061   4.405  0.0454  0.4383  0.2297
 7608SOL     OW30203   2.830   1.907   2.966 -0.5029 -0.6051  0.1294
 7608SOL    HW230204   2.738   1.881   2.971 -0.5177 -0.4520  0.6337
 7608SOL    HW330205   2.845   1.958   3.045  0.3620 -1.7541  0.7388
 7608SOL    MW430206   2.820   1.910   2.977 -0.1556  0.2376 -0.5274
 7609SOL     OW30207   3.453   4.174   5.529  0.2719  0.6538  0.1290
 7609SOL    HW230208   3.456   4.164   5.434  4.2767  0.5812  0.1195
 7609SOL    HW330209   3.423   4.264   5.542 -0.5080  0.6163 -1.1430
 7609SOL    MW430210   3.449   4.185   5.518 -0.2756 -0.3085 -0.0526
 7610SOL     OW30211   0.572   6.199   3.963  0.1802  0.0279 -0.3129
 7610SOL    HW230212   0.577   6.126   3.901 -0.5103  0.3852 -0.7871
 7610SOL    HW330213   0.515   6.263   3.922 -1.7293 -0.4501  1.4056
 7610SOL    MW430214   0.565   6.198   3.950  0.3633  0.5158  0.5342
 7611SOL     OW30215   3.877   0.157   2.683  0.3329  0.4089  0.6961
 7611SOL    HW230216   3.972   0.141   2.683  0.8712  3.0032  0.3328
 7611SOL    HW330217   3.869   0.244   2.722 -1.9900 -0.0063  1.2506
 7611SOL    MW430218   3.889   0.167   2.688 -0.3183 -0.1503 -0.2547
 7612SOL     OW30219   4.203   2.940   6.202 -0.4535  0.1926  0.3166
 7612SOL    HW230220   4.256   3.001   6.252  0.0705 -0.9695  1.2180
 7612SOL    HW330221   4.253   2.859   6.200 -1.4733 -0.4579 -0.1838
 7612SOL    MW430222   4.216   2.937   6.208 -0.0615  0.1705  0.0286
 7613SOL     OW30223   4.402   4.392   5.459  0.5835  0.0706  0.4435
 7613SOL    HW230224   4.327   4.388   5.518 -1.4660 -0.1387 -1.9784
 7613SOL    HW330225   4.448   4.473   5.484  0.4663 -0.5528  2.9291
 7613SOL    MW430226   4.398   4.402   5.470  0.3968  0.1275  0.0131
 7614SOL     OW30227   5.747   1.087   0.720 -0.3733  0.7826 -0.1915
 7614SOL    HW230228   5.750   1.000   0.681 -1.8753  0.5809  0.0937
 7614SOL    HW330229   5.838   1.105   0.744  0.3473  0.2523 -2.2720
 7614SOL    MW430230   5.760   1.078   0.718  0.3239 -0.6488  0.0203
 7615SOL     OW30231   6.352   5.513   2.710 -0.6315  0.2869 -0.3820
 7615SOL    HW230232   6.396   5.597   2.715 -0.7189  0.3462 -0.6183
 7615SOL    HW330233   6.365   5.474   2.797  1.2964 -0.4041 -0.9435
 7615SOL    MW430234   6.359   5.519   2.722  0.5087 -0.0202  0.2823
 7616SOL     OW30235   1.409   2.898   4.405  0.2368 -0.1249 -0.1095
 7616SOL    HW230236   1.316   2.921   4.414  0.2516 -0.2910  0.5416
 7616SOL    HW330237   1.449   2.931   4.485  0.4781 -1.3166  0.2691
 7616SOL    MW430238   1.402   2.905   4.417  0.3363 -0.4208  0.1007
 7617SOL     OW30239   3.248   6.213   6.227 -0.6621 -0.2084 -0.0954
 7617SOL    HW230240   3.271   6.271   6.154  0.2414 -0.3433  0.0735
 7617SOL    HW330241   3.316   6.146   6.226 -0.7183 -0.2850  0.7943
 7617SOL    MW430242   3.260   6.212   6.217  0.0876 -0.5171  0.2435
 7618SOL     OW30243   6.030   3.043   6.277 -0.1817  0.0189 -0.0768
 7618SOL    HW230244   6.096   3.045   6.346 -2.0274 -0.4923  1.7821
 7618SOL    HW330245   6.044   2.959   6.233 -0.4265 -0.6865  1.1652
 7618SOL    MW430246   6.041   3.032   6.280  0.5213  0.2301  0.3108
 7619SOL     OW30247   1.488   3.456   1.880  0.3915  0.4769 -0.2330
 7619SOL    HW230248   1.463   3.376   1.926  0.6994 -0.3928 -1.5364
 7619SOL    HW330249   1.475   3.436   1.787  0.4565  1.9454 -0.5817
 7619SOL    MW430250   1.483   3.443   1.874  0.2540 -0.2885  0.3052
 7620SOL     OW30251   2.574   6.003   0.847 -0.0803 -0.0281 -0.0713
 7620SOL    HW230252   2.596   6.093   0.824  0.0361  0.0560  0.3598
 7620SOL    HW330253   2.595   5.952   0.769 -0.6842  0.3944 -0.5214
 7620SOL    MW430254   2.579   6.008   0.834 -0.2348 -0.0439 -0.6884
 7621SOL     OW30255   2.620   6.035   6.291 -0.0250  0.1156  0.0477
 7621SOL    HW230256   2.559   5.984   6.346 -1.5187 -0.2614 -1.8455
 7621SOL    HW330257   2.687   5.972   6.266  0.8358  0.3613  1.5994
 7621SOL    MW430258   2.621   6.020   6.295 -0.5178 -0.2507 -0.1637
 7622SOL     OW30259   0.033   3.506   3.855 -0.0706  0.6511 -0.6741
 7622SOL    HW230260  -0.052   3.513   3.813 -2.0408 -0.9287  2.5761
 7622SOL    HW330261   0.055   3.413   3.849 -0.5903  0.2907  1.7883
 7622SOL    MW430262   0.025   3.494   3.849 -0.1074 -0.0252  0.7325
 7623SOL     OW30263   6.369   2.029   6.071  0.1601  0.4530  0.1232
 7623SOL    HW230264   6.304   1.960   6.079  1.7957 -1.1790  0.0628
 7623SOL    HW330265   6.381   2.039   5.976  0.2224  0.5111  0.1370
 7623SOL    MW430266   6.362   2.021   6.059 -0.4725  0.0274 -0.0486
 7624SOL     OW30267   5.683   5.391   4.305  0.1113  0.1494 -0.0821
 7624SOL    HW230268   5.636   5.379   4.388 -0.7096  1.0075 -0.4040
 7624SOL    HW330269   5.751   5.454   4.324  1.4800 -1.4283  0.4964
 7624SOL    MW430270   5.686   5.397   4.318 -0.0247 -0.2274 -0.2857
 7625SOL     OW30271   4.637   0.629   3.906  0.2839  0.0877 -0.2154
 7625SOL    HW230272   4.553   0.673   3.918  0.4894  0.8546 -1.3986
 7625SOL    HW330273   4.648   0.577   3.986 -1.1917  0.1485  0.0715
 7625SOL    MW430274   4.627   0.628   3.918 -0.3201  0.0862  0.0734
 7626SOL     OW30275   5.839   4.045   3.395 -0.1060 -0.7738 -0.5163
 7626SOL    HW230276   5.844   4.106   3.322  1.0733 -1.3017 -0.9135
 7626SOL    HW330277   5.906   4.076   3.457 -0.7397 -0.6287  0.1075
 7626SOL    MW430278   5.849   4.057   3.394  0.6326 -0.6486 -0.5665
 7627SOL     OW30279   1.532   1.116   1.386 -0.5480 -0.1760 -0.0235
 7627SOL    HW230280   1.527   1.183   1.317 -0.3897  0.4741  0.5772
 7627SOL    HW330281   1.472   1.148   1.454  0.8005  0.2663  1.0165
 7627SOL    MW430282   1.523   1.129   1.386 -0.3386 -0.0334 -0.1086
 7628SOL     OW30283   1.424   0.445   0.702 -0.4353  0.2817 -0.0813
 7628SOL    HW230284   1.342   0.396   0.698  0.8386 -1.9381 -0.4425
 7628SOL    HW330285   1.469   0.412   0.779  0.8094  0.2891 -0.7779
 7628SOL    MW430286   1.419   0.434   0.711  0.1490  0.1294  0.1296
 7629SOL     OW30287   4.288   0.219   5.773 -0.1409 -0.1250  0.6468
 7629SOL    HW230288   4.222   0.272   5.728 -0.3800 -0.4079  0.6600
 7629SOL    HW330289   4.272   0.130   5.742  1.8155  0.1195 -1.2464
 7629SOL    MW430290   4.277   0.214   5.763  0.3252 -0.7436  0.1455
 7630SOL     OW30291   2.775   2.389   0.864 -0.1070 -0.4716  0.0639
 7630SOL    HW230292   2.705   2.373   0.800  0.2772  2.0071 -1.0969
 7630SOL    HW330293   2.746   2.466   0.912  1.8200  0.7164 -0.5443
 7630SOL    MW430294   2.762   2.397   0.862 -0.3070 -0.5919  0.3220
 7631SOL     OW30295   0.089   1.545   0.501  0.1496  0.0572  0.0000
 7631SOL    HW230296   0.002   1.511   0.522  0.2562 -0.2142  0.0082
 7631SOL    HW330297   0.135   1.470   0.464  0.1041  0.4202 -0.8072
 7631SOL    MW430298   0.083   1.531   0.499 -0.2894  0.3778  0.1073
 7632SOL     OW30299   5.158   6.363   3.820 -0.4620  0.0541 -0.3130
 7632SOL    HW230300   5.089   6.318   3.770  0.6701 -1.6024 -0.4468
 7632SOL    HW330301   5.239   6.320   3.793  0.2012 -1.1502  3.1117
 7632SOL    MW430302   5.159   6.351   3.810 -0.2244 -0.2132  0.0322
 7633SOL     OW30303   0.637   4.917   4.207 -0.3804 -0.1394 -0.0338
 7633SOL    HW230304   0.679   4.853   4.149 -1.0409 -0.2291 -0.4108
 7633SOL    HW330305   0.706   4.982   4.223  0.4221 -1.1099  0.6395
 7633SOL    MW430306   0.652   4.917   4.202  0.2183 -0.5143 -0.0890
 7634SOL     OW30307   4.727   5.151   2.912  0.2948 -0.0457  0.6453
 7634SOL    HW230308   4.761   5.240   2.907  1.7320 -0.5926 -0.0215
 7634SOL    HW330309   4.764   5.107   2.835  0.1174 -1.3778  1.2841
 7634SOL    MW430310   4.737   5.157   2.901  0.6038  0.3070  0.2311
 7635SOL     OW30311   2.347   0.500   5.219 -0.3701 -0.0508  0.5996
 7635SOL    HW230312   2.379   0.542   5.298 -1.6721  0.6879  0.7608
 7635SOL    HW330313   2.252   0.492   5.232 -0.9380  1.8274 -1.6309
 7635SOL    MW430314   2.338   0.504   5.231 -0.5586  0.3887 -0.1224
 7636SOL     OW30315   4.813   5.033   0.275  0.5982  0.0287  0.4010
 7636SOL    HW230316   4.760   4.958   0.301  2.1416 -1.2592  0.0335
 7636SOL    HW330317   4.817   5.028   0.179 -0.0470  1.1509  0.2962
 7636SOL    MW430318   4.806   5.022   0.266 -0.0276  0.1566 -0.4519
 7637SOL     OW30319   5.838   0.648   0.729  0.5459 -0.1935 -0.1503
 7637SOL    HW230320   5.893   0.722   0.703 -0.2292 -0.3468 -2.4420
 7637SOL    HW330321   5.890   0.602   0.795  2.0369  1.0966 -0.3533
 7637SOL    MW430322   5.852   0.652   0.734 -0.1773  0.4331  0.6757
 7638SOL     OW30323   5.281   5.630   4.776 -0.0420  0.0393 -0.1696
 7638SOL    HW230324   5.343   5.617   4.847 -0.3283  2.6075  0.6490
 7638SOL    HW330325   5.195   5.616   4.816 -0.1320 -0.4620 -0.5284
 7638SOL    MW430326   5.278   5.627   4.790  0.1675  0.5643 -0.2203
 7639SOL     OW30327   4.406   2.296   0.995  0.0597 -0.4543  0.3538
 7639SOL    HW230328   4.368   2.359   1.056  0.1130 -0.9792  0.9351
 7639SOL    HW330329   4.373   2.322   0.909 -0.9405 -0.4005  0.7515
 7639SOL    MW430330   4.397   2.308   0.992  0.1765  0.0768 -0.1956
 7640SOL     OW30331   4.818   2.323   3.756 -0.9194  0.1961  0.1996
 7640SOL    HW230332   4.783   2.405   3.720  0.5404  0.7333 -0.0786
 7640SOL    HW330333   4.784   2.320   3.846 -3.1270 -0.2536 -0.5943
 7640SOL    MW430334   4.809   2.334   3.763 -0.2774  0.0795  0.1196
 7641SOL     OW30335   6.351   6.399   5.277 -0.0579 -0.4811 -0.2702
 7641SOL    HW230336   6.402   6.331   5.321 -0.9082 -0.6080  0.5397
 7641SOL    HW330337   6.352   6.374   5.185  2.8425  0.4705 -0.6103
 7641SOL    MW430338   6.358   6.387   5.271 -0.3298 -0.6265 -0.3574
 7642SOL     OW30339   4.006   5.744  -0.035  0.1259  0.0853  0.1062
 7642SOL    HW230340   3.983   5.744   0.058 -1.5692 -1.6266 -0.2515
 7642SOL    HW330341   4.058   5.665  -0.047  0.4935  0.3934 -0.3807
 7642SOL    MW430342   4.010   5.734  -0.024  0.2847 -1.2191 -0.0563
 7643SOL     OW30343   0.394   5.801   1.041 -0.0199  0.2932  0.0003
 7643SOL    HW230344   0.437   5.822   0.958  2.1219 -0.9419  0.7325
 7643SOL    HW330345   0.307   5.770   1.015  0.3452  0.5719 -1.7253
 7643SOL    MW430346   0.388   5.800   1.026 -0.8106  0.1289  0.1615
 7644SOL     OW30347   0.428   2.047   5.074  0.0657 -0.5404 -0.1587
 7644SOL    HW230348   0.421   2.137   5.105  1.6782  0.1065 -1.5618
 7644SOL    HW330349   0.340   2.010   5.087 -0.0648  0.4875  2.5369
 7644SOL    MW430350   0.415   2.054   5.080 -0.1372 -0.0283  0.5094
 7645SOL     OW30351   0.905   2.079   5.882  0.0988 -0.5455 -0.3869
 7645SOL    HW230352   0.864   2.052   5.799 -1.0815 -0.5695  0.1921
 7645SOL    HW330353   0.974   2.141   5.855  0.2380 -1.1255 -1.4344
 7645SOL    MW430354   0.909   2.084   5.867 -0.2301 -0.0011  0.1087
 7646SOL     OW30355   4.781   5.423   3.344  0.0375 -0.2221 -0.4150
 7646SOL    HW230356   4.762   5.345   3.292 -1.5483 -1.8267  2.3626
 7646SOL    HW330357   4.862   5.402   3.391  0.1598  0.2476 -0.4065
 7646SOL    MW430358   4.789   5.410   3.343 -0.2335  0.3491  0.5867
 7647SOL     OW30359   3.324   0.787   0.485 -0.3896 -0.2524 -0.0335
 7647SOL    HW230360   3.251   0.849   0.485  1.5205  2.1529 -0.0349
 7647SOL    HW330361   3.365   0.797   0.399  1.2420  0.1733  0.7491
 7647SOL    MW430362   3.320   0.796   0.474  0.1720 -0.4968 -0.0089
 7648SOL     OW30363   0.042   2.566   0.744 -0.2316 -0.4318  0.4438
 7648SOL    HW230364   0.045   2.598   0.834 -0.3999 -0.5237  0.4820
 7648SOL    HW330365   0.036   2.471   0.753  0.6582 -0.5111  0.3295
 7648SOL    MW430366   0.042   2.558   0.757  0.0329  0.3257 -0.1842
 7649SOL     OW30367   2.596   4.638   6.150 -0.2431  0.3025  0.0072
 7649SOL    HW230368   2.666   4.591   6.197  0.7625 -0.7234 -2.3356
 7649SOL    HW330369   2.626   4.729   6.148  0.2012  0.1723  0.4790
 7649SOL    MW430370   2.609   4.643   6.156 -0.1099  0.2467  0.3723
 7650SOL     OW30371   2.209   6.245   2.426 -0.1318  0.3407  0.5202
 7650SOL    HW230372   2.198   6.226   2.520  1.1738 -1.1936  0.3931
 7650SOL    HW330373   2.140   6.309   2.407 -1.5281 -0.5834  2.1468
 7650SOL    MW430374   2.198   6.251   2.436  0.5142 -0.2341  0.2118
 7651SOL     OW30375   3.400   1.942   4.562  0.2412 -0.0181  0.1663
 7651SOL    HW230376   3.470   1.946   4.497 -0.5888 -0.7200 -0.8021
 7651SOL    HW330377   3.386   2.033   4.587  1.9927  0.0786  0.9574
 7651SOL    MW430378   3.407   1.955   4.557  0.0362  0.0568  0.6160
 7652SOL     OW30379   3.535   3.757   1.830  1.2844 -0.6654 -0.4013
 7652SOL    HW230380   3.541   3.695   1.758 -1.1125 -0.5191 -0.8196
 7652SOL    HW330381   3.474   3.717   1.892  0.4077  0.8233 -0.2439
 7652SOL    MW430382   3.528   3.744   1.829 -0.5883 -0.4389  0.1515
 7653SOL     OW30383   2.122   2.260   0.856  0.0428  0.5438 -0.0506
 7653SOL    HW230384   2.077   2.332   0.900 -0.8735  0.2715 -0.5346
 7653SOL    HW330385   2.200   2.301   0.818  0.1216  1.0519  0.6461
 7653SOL    MW430386   2.127   2.275   0.857 -0.3831  0.0405 -0.6731
 7654SOL     OW30387   6.080   2.297   0.974  0.0791  0.2468 -0.4943
 7654SOL    HW230388   6.154   2.316   1.032 -0.1454 -1.0693  0.2612
 7654SOL    HW330389   6.023   2.374   0.984  1.3330  1.2943 -1.1223
 7654SOL    MW430390   6.082   2.310   0.983  0.0159  0.0986  0.2844
 7655SOL     OW30391   5.962   0.764   0.011  0.2301  0.2455 -0.2827
 7655SOL    HW230392   6.006   0.802   0.087 -0.4861  0.7491 -0.1118
 7655SOL    HW330393   5.922   0.839  -0.034  0.1527 -0.1176 -0.8280
 7655SOL    MW430394   5.962   0.779   0.015 -0.5308  0.1455 -0.2792
 7656SOL     OW30395   1.084   1.779   5.980  0.4997 -0.7140  0.2233
 7656SOL    HW230396   1.099   1.811   6.069 -0.5319  0.4836  0.0014
 7656SOL    HW330397   1.115   1.850   5.924 -0.9063 -0.4903 -0.3154
 7656SOL    MW430398   1.090   1.793   5.984  0.6726  0.0583 -0.3236
 7657SOL     OW30399   5.442   3.032   5.054 -0.1949  0.4770 -0.1223
 7657SOL    HW230400   5.473   3.086   5.126 -0.8377  0.4769  0.1648
 7657SOL    HW330401   5.386   2.966   5.096 -0.3910  0.3355 -0.5956
 7657SOL    MW430402   5.439   3.030   5.069 -0.0756 -0.2288  0.0355
 7658SOL     OW30403   3.375   0.510   0.743  0.8041 -0.4442  0.3591
 7658SOL    HW230404   3.359   0.421   0.774 -0.1210  0.3632  2.3920
 7658SOL    HW330405   3.469   0.523   0.754  0.6164 -0.4028  2.4959
 7658SOL    MW430406   3.385   0.500   0.749  0.2048 -0.5420 -0.7349
 7659SOL     OW30407   5.530   2.616   4.511 -0.3218  0.0497 -0.2730
 7659SOL    HW230408   5.539   2.653   4.599  2.9840 -2.0319  0.4413
 7659SOL    HW330409   5.601   2.553   4.504 -0.8571 -0.3810 -4.2542
 7659SOL    MW430410   5.540   2.613   4.521  0.4127 -0.8306  0.0197
 7660SOL     OW30411   4.712   0.628   1.130 -0.0739  0.0021 -0.2416
 7660SOL    HW230412   4.647   0.559   1.114 -2.0450  1.2030  2.0444
 7660SOL    HW330413   4.758   0.600   1.209 -0.7920  1.2058  0.6186
 7660SOL    MW430414   4.710   0.615   1.138  0.1602 -0.0780 -0.0803
 7661SOL     OW30415   2.318   5.370   3.286 -0.3531  0.0004  0.3200
 7661SOL    HW230416   2.249   5.313   3.252  0.0161  0.4619 -1.2720
 7661SOL    HW330417   2.315   5.357   3.381 -1.1770 -1.6310  0.1081
 7661SOL    MW430418   2.308   5.361   3.294  0.0344 -0.5498 -0.1575
 7662SOL     OW30419   5.417   4.102   2.606 -0.1979  0.4685 -0.0447
 7662SOL    HW230420   5.362   4.170   2.568  1.3220  2.1650  0.6524
 7662SOL    HW330421   5.487   4.150   2.651  1.9603 -1.5487 -1.0435
 7662SOL    MW430422   5.419   4.117   2.607 -0.0292 -0.4117  1.0314
 7663SOL     OW30423   4.180   2.007   4.551  0.0162 -0.3294  0.2623
 7663SOL    HW230424   4.109   1.999   4.487  0.1630 -0.8208  0.1581
 7663SOL    HW330425   4.221   1.921   4.552  2.4014  0.6539 -1.7611
 7663SOL    MW430426   4.176   1.994   4.543  0.7828 -0.0354  0.0050
 7664SOL     OW30427   3.369   4.057   2.568 -0.1473 -0.1233  0.9153
 7664SOL    HW230428   3.343   4.103   2.648  1.0340  0.2347  1.1035
 7664SOL    HW330429   3.447   4.007   2.593  0.8366  0.7789 -0.2677
 7664SOL    MW430430   3.376   4.056   2.582  0.0567  0.1225 -0.8218
 7665SOL     OW30431   3.898   3.079   1.883  0.1810  0.4643  0.3537
 7665SOL    HW230432   3.813   3.101   1.846 -0.4764 -2.1042  0.1249
 7665SOL    HW330433   3.957   3.079   1.808 -0.2827 -0.6904 -0.0296
 7665SOL    MW430434   3.895   3.082   1.868  0.4957 -0.5808 -0.0520
 7666SOL     OW30435   1.752   5.009   2.419  0.3428 -0.0931  0.5410
 7666SOL    HW230436   1.847   5.005   2.435  0.3440 -1.3977  0.2959
 7666SOL    HW330437   1.730   4.922   2.385 -0.8337  0.4210 -0.0420
 7666SOL    MW430438   1.762   4.997   2.417 -0.0502  0.2921 -0.2468
 7667SOL     OW30439   3.583   2.695   2.960 -0.2148 -0.1368  0.1361
 7667SOL    HW230440   3.649   2.717   3.026 -3.0273 -0.8694  3.5439
 7667SOL    HW330441   3.541   2.778   2.940  1.0570  0.1877 -1.3327
 7667SOL    MW430442   3.586   2.709   2.966  0.1405  0.3767  0.2106
 7668SOL     OW30443   1.239   4.247   2.566  0.8687 -0.0606  0.2499
 7668SOL    HW230444   1.325   4.255   2.526  0.4122  3.0238 -0.4466
 7668SOL    HW330445   1.233   4.323   2.624 -1.5036  0.1111 -0.0950
 7668SOL    MW430446   1.249   4.258   2.568 -0.0487  0.3240  0.1482
 7669SOL     OW30447   5.694   0.274   0.791  0.2092  0.4115  0.1607
 7669SOL    HW230448   5.724   0.304   0.705 -1.0908  0.1058 -0.4151
 7669SOL    HW330449   5.683   0.179   0.781 -1.8000  0.6208  0.0643
 7669SOL    MW430450   5.697   0.265   0.779  0.1853  0.3230  0.2531
 7670SOL     OW30451   1.654   3.772   4.111  0.0825  0.6739  0.3606
 7670SOL    HW230452   1.559   3.775   4.122 -0.0663 -0.1238 -0.6049
 7670SOL    HW330453   1.667   3.771   4.016  0.9817 -0.8495  0.4645
 7670SOL    MW430454   1.643   3.772   4.100 -0.2101 -0.6089 -0.2088
 7671SOL     OW30455   3.141   5.450   5.594 -0.0517  0.1586  0.0042
 7671SOL    HW230456   3.214   5.407   5.549 -1.4033  0.2399 -2.4619
 7671SOL    HW330457   3.159   5.543   5.584  0.9171  0.2388  1.9777
 7671SOL    MW430458   3.153   5.456   5.587  0.3437  0.5037  0.5023
 7672SOL     OW30459   0.354   2.371   5.900 -0.0042  0.4838  0.0609
 7672SOL    HW230460   0.427   2.318   5.868 -0.1650  0.1626  0.2120
 7672SOL    HW330461   0.317   2.319   5.972 -1.4333 -0.1811 -1.0850
 7672SOL    MW430462   0.359   2.357   5.906 -0.1993 -0.1776  0.8642
 7673SOL     OW30463   4.243   5.210   5.622  0.6627 -0.2094  0.0547
 7673SOL    HW230464   4.273   5.152   5.552  0.7861 -0.2040  0.1032
 7673SOL    HW330465   4.158   5.242   5.591  1.1101  0.4768 -0.4899
 7673SOL    MW430466   4.236   5.206   5.608 -0.2001  0.3375 -0.3359
 7674SOL     OW30467   2.630   5.050   2.186 -0.0561 -0.2519 -0.2889
 7674SOL    HW230468   2.675   5.117   2.238  0.5706 -1.1812  0.3937
 7674SOL    HW330469   2.698   5.018   2.126 -1.0501  1.6644 -2.6537
 7674SOL    MW430470   2.645   5.055   2.185  0.1209 -0.2585 -0.2194
 7675SOL     OW30471   5.823   3.691   4.950  0.3444 -0.1080  0.5297
 7675SOL    HW230472   5.735   3.716   4.919 -1.3002 -2.2989  2.9726
 7675SOL    HW330473   5.866   3.654   4.872 -1.0656  0.5780 -0.6366
 7675SOL    MW430474   5.817   3.689   4.935 -0.3852 -0.1660 -0.1187
 7676SOL     OW30475   0.692   3.069   3.179 -0.1632 -0.1192  0.2810
 7676SOL    HW230476   0.640   3.051   3.100 -0.0617 -0.0868  0.2074
 7676SOL    HW330477   0.783   3.060   3.150  0.0707  3.1613 -0.4744
 7676SOL    MW430478   0.697   3.065   3.164  0.0217 -0.6104 -0.4578
 7677SOL     OW30479   5.622   5.524   3.228 -0.0810  0.5291  0.2497
 7677SOL    HW230480   5.610   5.466   3.153 -2.4874  2.3638 -0.8874
 7677SOL    HW330481   5.685   5.477   3.283 -1.7862 -3.1515 -0.5734
 7677SOL    MW430482   5.629   5.510   3.226 -0.2302  0.3812 -0.3544
 7678SOL     OW30483   5.824   2.996   2.311  0.9116  0.4182 -0.2166
 7678SOL    HW230484   5.816   3.024   2.220  2.4660 -2.6023 -1.4132
 7678SOL    HW330485   5.906   3.036   2.341  0.3016  1.5744 -0.0218
 7678SOL    MW430486   5.834   3.005   2.303 -0.4617 -0.5241 -0.1488
 7679SOL     OW30487   2.021   5.105   3.053 -0.2929 -0.0604  0.3450
 7679SOL    HW230488   1.998   5.183   3.003 -0.7612 -0.7072 -0.4903
 7679SOL    HW330489   1.966   5.110   3.132 -2.1209 -0.7190 -0.8254
 7679SOL    MW430490   2.011   5.116   3.057 -0.5695 -0.4719 -0.2344
 7680SOL     OW30491   0.875   0.997   3.976  0.3020 -0.5903 -0.4557
 7680SOL    HW230492   0.854   1.006   4.069 -0.1489  0.4017 -0.6331
 7680SOL    HW330493   0.968   1.017   3.971  0.4404 -1.1431 -0.1561
 7680SOL    MW430494   0.884   1.001   3.988 -0.0787  0.2236 -0.6055
 7681SOL     OW30495   3.881   2.499   2.936 -0.2118  0.2542 -0.3462
 7681SOL    HW230496   3.960   2.467   2.891  0.7412 -2.2012  2.6713
 7681SOL    HW330497   3.812   2.440   2.907  0.1594 -0.6037  0.4305
 7681SOL    MW430498   3.882   2.487   2.927 -0.0416  0.1485  0.0607
 7682SOL     OW30499   4.307   0.171   3.797 -0.5494  0.3909 -0.7257
 7682SOL    HW230500   4.275   0.195   3.884  0.5354 -0.8100  0.0363
 7682SOL    HW330501   4.397   0.203   3.795  0.7969 -2.9570  0.1508
 7682SOL    MW430502   4.314   0.179   3.808  0.4976 -0.6156 -0.1286
 7683SOL     OW30503   2.968   1.180   1.553  0.2716  0.3888  0.0729
 7683SOL    HW230504   2.999   1.270   1.569  1.1282 -0.0567  1.0265
 7683SOL    HW330505   3.044   1.135   1.517 -0.0632 -0.0508 -0.0902
 7683SOL    MW430506   2.982   1.186   1.550  0.4169  0.1676 -0.3073
 7684SOL     OW30507   4.128   5.450   3.403  0.3139  0.7589  0.1934
 7684SOL    HW230508   4.136   5.516   3.472 -0.7594 -0.5543  1.6371
 7684SOL    HW330509   4.194   5.384   3.426  0.0121  0.3551 -0.1002
 7684SOL    MW430510   4.138   5.450   3.415  0.3010  0.4207 -0.5641
 7685SOL     OW30511   4.061   3.063   4.221 -0.1881  0.5567  0.3484
 7685SOL    HW230512   4.078   3.001   4.292  1.0814  0.5807  0.0949
 7685SOL    HW330513   3.974   3.040   4.188 -0.2283 -0.3063  1.0423
 7685SOL    MW430514   4.052   3.052   4.226  0.1415  0.1337  0.3678
 7686SOL     OW30515   3.350   6.247   3.524  0.2352 -0.3254  0.2951
 7686SOL    HW230516   3.300   6.203   3.594 -0.2441 -0.0811  0.1052
 7686SOL    HW330517   3.438   6.210   3.532  0.2120 -0.2280  1.0963
 7686SOL    MW430518   3.355   6.236   3.535  0.2736  0.2942  0.1576
 7687SOL     OW30519   1.166   1.764   5.476  0.2470  0.0162 -0.2673
 7687SOL    HW230520   1.139   1.673   5.475 -1.0905  0.3880 -0.2105
 7687SOL    HW330521   1.260   1.762   5.456  0.2879 -1.3716 -0.0237
 7687SOL    MW430522   1.175   1.752   5.473  0.8887  0.1210  0.2558
 7688SOL     OW30523   0.337   2.179   6.115 -0.4132 -0.1927 -0.0173
 7688SOL    HW230524   0.262   2.215   6.163 -1.4795  1.8367 -2.9463
 7688SOL    HW330525   0.311   2.090   6.094 -0.9687 -0.2894  0.9895
 7688SOL    MW430526   0.324   2.172   6.119  0.1783  0.3340 -0.5199
 7689SOL     OW30527   2.892   4.088   3.545  0.6857 -0.1269  0.0498
 7689SOL    HW230528   2.814   4.095   3.599 -0.3717 -0.3514 -1.3714
 7689SOL    HW330529   2.961   4.131   3.595 -0.0897 -0.8303  1.8038
 7689SOL    MW430530   2.891   4.094   3.559 -0.5347  0.6032  0.5880
 7690SOL     OW30531   2.864   1.413   4.143 -0.5277  0.0849  0.4207
 7690SOL    HW230532   2.822   1.461   4.072  0.3026  0.3338  0.0780
 7690SOL    HW330533   2.946   1.460   4.159  0.4916 -1.3902 -0.1651
 7690SOL    MW430534   2.870   1.425   4.136 -0.1775  0.0570  0.6264
 7691SOL     OW30535   3.984   6.387   5.143 -1.7885  0.3952  0.1572
 7691SOL    HW230536   3.987   6.482   5.135 -2.0361  0.4551  0.7877
 7691SOL    HW330537   3.969   6.370   5.236  1.8706 -0.3193  0.8082
 7691SOL    MW430538   3.983   6.397   5.154 -0.5846  0.2921  0.1726
 7692SOL     OW30539   5.529   1.903   5.856  0.2158 -0.1663 -0.1336
 7692SOL    HW230540   5.479   1.985   5.856 -0.1012 -0.3091  2.0613
 7692SOL    HW330541   5.619   1.930   5.871  0.6928 -0.0132 -2.8135
 7692SOL    MW430542   5.534   1.917   5.858 -0.6048 -0.0003  0.1110
 7693SOL     OW30543   1.640   0.390   1.290  0.2631 -0.4164 -0.1582
 7693SOL    HW230544   1.710   0.377   1.226  0.2595  0.3166 -0.3219
 7693SOL    HW330545   1.583   0.314   1.279  1.8029 -1.8196  1.0209
 7693SOL    MW430546   1.642   0.378   1.280 -0.1737 -0.6286  0.1124
 7694SOL     OW30547   6.426   2.774   1.407  0.0165 -0.4449  0.4180
 7694SOL    HW230548   6.392   2.863   1.393  0.4967 -0.4973 -1.2302
 7694SOL    HW330549   6.412   2.758   1.501  0.3601  1.5578  0.8611
 7694SOL    MW430550   6.420   2.784   1.418  0.2194  0.8456  0.5634
 7695SOL     OW30551   1.117   2.164   3.479  0.6265 -0.6549  0.0813
 7695SOL    HW230552   1.128   2.136   3.570  0.9736  2.1752  1.0115
 7695SOL    HW330553   1.035   2.122   3.451 -0.8063  0.2728  2.5427
 7695SOL    MW430554   1.107   2.155   3.488 -0.0460 -0.0467  0.6874
 7696SOL     OW30555   6.399   4.336   0.071  0.5353 -0.2653 -0.0783
 7696SOL    HW230556   6.462   4.391   0.117  1.1811 -0.1600 -1.0709
 7696SOL    HW330557   6.411   4.249   0.108  0.1597  0.0603  0.8394
 7696SOL    MW430558   6.409   4.332   0.082  0.0105 -0.2340  0.6490
 7697SOL     OW30559   3.343   1.632   4.843  0.3804  0.6831  0.4063
 7697SOL    HW230560   3.427   1.670   4.817  0.7074  0.0216  0.4953
 7697SOL    HW330561   3.336   1.551   4.793 -1.7723  2.3000 -2.2811
 7697SOL    MW430562   3.353   1.627   4.833 -0.3368  0.3214  0.5040
 7698SOL     OW30563   5.319   6.015   0.562  0.1197  0.0888 -0.3035
 7698SOL    HW230564   5.227   5.987   0.562  0.0383  0.2815  1.2422
 7698SOL    HW330565   5.357   5.971   0.486 -1.2073 -0.1339 -0.8712
 7698SOL    MW430566   5.312   6.005   0.552  0.0660 -0.6633 -0.0682
 7699SOL     OW30567   1.346   2.646   1.483 -0.1369 -0.2448  0.3720
 7699SOL    HW230568   1.369   2.628   1.392 -1.1748 -1.2047  0.2783
 7699SOL    HW330569   1.258   2.684   1.479 -2.2308 -4.4580  1.1431
 7699SOL    MW430570   1.338   2.649   1.471  0.4567  0.9109  0.4036
 7700SOL     OW30571   2.415   5.204   4.348  0.6885  0.4079 -0.1002
 7700SOL    HW230572   2.481   5.192   4.280 -0.1138 -0.7828 -0.7011
 7700SOL    HW330573   2.365   5.280   4.319  2.9380  2.5968  1.3580
 7700SOL    MW430574   2.417   5.213   4.335 -0.2196 -0.0786 -0.3363
 7701SOL     OW30575   5.913   4.885   5.249 -0.1532  0.2340 -0.0109
 7701SOL    HW230576   5.915   4.820   5.320 -1.3964  0.2081  0.0281
 7701SOL    HW330577   5.854   4.847   5.184  0.3918  0.6001 -0.7339
 7701SOL    MW430578   5.905   4.871   5.250 -0.3042 -0.0267 -0.0424
 7702SOL     OW30579   2.283   3.446   6.133 -0.5837  0.0942  0.0311
 7702SOL    HW230580   2.306   3.537   6.111  1.8877 -0.2955  0.6853
 7702SOL    HW330581   2.342   3.423   6.205 -0.5744 -2.2623 -0.6347
 7702SOL    MW430582   2.294   3.455   6.139 -0.2680 -0.3152 -0.4316
 7703SOL     OW30583   3.952   6.305   2.118  0.1174  0.0441  0.4677
 7703SOL    HW230584   3.982   6.375   2.176  0.3134 -0.3407  0.8468
 7703SOL    HW330585   4.019   6.298   2.051  1.9588 -2.0646  2.3474
 7703SOL    MW430586   3.965   6.313   2.117 -0.3381 -0.0502 -0.4115
 7704SOL     OW30587   3.233   2.188   1.365 -0.2089 -0.2558  0.0639
 7704SOL    HW230588   3.327   2.196   1.379  0.0471 -1.3245 -0.9392
 7704SOL    HW330589   3.222   2.202   1.271 -1.1196  0.3287  0.2460
 7704SOL    MW430590   3.244   2.191   1.355  0.1317  0.0915 -0.0128
 7705SOL     OW30591   0.910   5.399   2.670  0.3372  0.5246 -0.1454
 7705SOL    HW230592   0.944   5.455   2.740 -0.6743 -0.4525  1.2158
 7705SOL    HW330593   0.986   5.352   2.637  0.9216  1.4291 -0.1067
 7705SOL    MW430594   0.924   5.400   2.675  0.4054  0.0521  0.3914
 7706SOL     OW30595   0.441   5.671   0.671 -0.3882  0.5173  0.2015
 7706SOL    HW230596   0.399   5.671   0.585 -0.4190  2.4168  0.1752
 7706SOL    HW330597   0.461   5.579   0.688  0.2364  0.1581 -2.1384
 7706SOL    MW430598   0.438   5.659   0.662  0.5903 -0.4697 -0.2908
 7707SOL     OW30599   5.990   2.564   4.951 -0.1760 -0.2033 -0.3718
 7707SOL    HW230600   5.942   2.484   4.972  0.0745 -0.3876 -0.4991
 7707SOL    HW330601   5.923   2.632   4.951 -0.2336 -0.2416  0.7131
 7707SOL    MW430602   5.975   2.562   4.954 -0.0082 -0.0739 -0.5786
 7708SOL     OW30603   4.976   1.339   0.015 -0.8305  0.0171 -0.2767
 7708SOL    HW230604   5.057   1.369   0.055  0.0584  0.1727 -2.0580
 7708SOL    HW330605   4.962   1.251   0.050  0.0814  0.0161  0.1159
 7708SOL    MW430606   4.985   1.331   0.025  0.3259 -0.0036  0.4159
 7709SOL     OW30607   5.479   2.344   0.965  0.1934  0.9258 -0.0219
 7709SOL    HW230608   5.427   2.397   0.905  0.2746  0.5163 -0.4696
 7709SOL    HW330609   5.543   2.300   0.908 -0.0433  0.1497  0.2909
 7709SOL    MW430610   5.480   2.345   0.949  0.3320 -0.2445 -0.1403
 7710SOL     OW30611   4.735   2.775   6.237  0.1141  0.8806 -0.1417
 7710SOL    HW230612   4.817   2.814   6.209  0.2888 -0.2970 -1.3427
 7710SOL    HW330613   4.728   2.694   6.186 -2.2151  1.3905 -0.7337
 7710SOL    MW430614   4.745   2.769   6.227  0.2478 -0.0832  0.1797
 7711SOL     OW30615   5.807   5.787   6.260 -0.4355 -0.2952 -0.1637
 7711SOL    HW230616   5.750   5.717   6.294 -1.2511  0.7751  0.7498
 7711SOL    HW330617   5.808   5.852   6.330 -0.0718  0.8219 -1.1919
 7711SOL    MW430618   5.800   5.786   6.274  0.4411 -0.0900 -0.6721
 7712SOL     OW30619   5.752   5.742   4.176  0.0613  0.5911  0.0700
 7712SOL    HW230620   5.687   5.707   4.236  0.5008 -0.1612  0.1200
 7712SOL    HW330621   5.739   5.694   4.095  0.5178  0.4686  0.0645
 7712SOL    MW430622   5.742   5.731   4.173  0.0860  0.1615  0.1305
 7713SOL     OW30623   5.551   1.176   3.667  0.3369 -0.4215  0.2566
 7713SOL    HW230624   5.603   1.217   3.737  0.0227  0.5749 -0.0826
 7713SOL    HW330625   5.460   1.189   3.694  0.2103  0.0906 -0.4071
 7713SOL    MW430626   5.546   1.183   3.680 -0.8170  0.3136 -0.1148
 7714SOL     OW30627   4.474   5.015   1.679  0.1106  0.9207 -0.0474
 7714SOL    HW230628   4.449   5.018   1.587 -0.2796  0.0527  0.0235
 7714SOL    HW330629   4.494   5.106   1.701  1.4994  0.9588 -1.3366
 7714SOL    MW430630   4.473   5.027   1.670  0.3695  0.2872  0.3952
 7715SOL     OW30631   3.828   3.277   2.829 -0.3200  0.3104 -0.0283
 7715SOL    HW230632   3.765   3.334   2.786  0.9681  1.2206 -0.8112
 7715SOL    HW330633   3.825   3.196   2.778 -1.4955 -0.0136  0.5217
 7715SOL    MW430634   3.820   3.273   2.816  0.0021  0.2421  0.6848
 7716SOL     OW30635   3.221   5.575   0.223 -0.1592 -0.0974 -0.0583
 7716SOL    HW230636   3.178   5.658   0.243  0.7630  0.1093  1.1840
 7716SOL    HW330637   3.172   5.510   0.273 -1.7123 -0.5451 -2.0616
 7716SOL    MW430638   3.209   5.577   0.233 -0.1663  0.1226  0.9381
 7717SOL     OW30639   1.073   5.914   1.806  0.4890  0.4613 -0.0345
 7717SOL    HW230640   0.982   5.885   1.806  0.2501  1.0851 -1.5445
 7717SOL    HW330641   1.071   5.998   1.759  1.8881  0.3187 -0.3990
 7717SOL    MW430642   1.061   5.922   1.799 -0.0134  0.3813 -0.4711
 7718SOL     OW30643   5.812   5.669   2.995  0.2037 -0.4005 -0.3946
 7718SOL    HW230644   5.766   5.729   2.936 -0.6011  0.5451  1.1397
 7718SOL    HW330645   5.751   5.596   3.006 -1.6635  1.4138  2.6213
 7718SOL    MW430646   5.798   5.667   2.989  0.8836 -0.0454  0.0998
 7719SOL     OW30647   2.633   1.799   6.381 -0.0098  0.0701 -0.0329
 7719SOL    HW230648   2.545   1.767   6.402 -0.7038  3.4937  3.1866
 7719SOL    HW330649   2.618   1.871   6.320  0.8489 -0.7130 -1.2130
 7719SOL    MW430650   2.619   1.804   6.376 -0.0685  0.2393  0.5085
 7720SOL     OW30651   3.905   5.587   3.574  0.8399  0.4035 -0.2761
 7720SOL    HW230652   3.984   5.538   3.596  0.0166 -0.5556  0.7109
 7720SOL    HW330653   3.888   5.642   3.650  0.7797  0.9119 -0.6512
 7720SOL    MW430654   3.913   5.587   3.587 -0.7787 -0.3543 -0.3654
 7721SOL     OW30655   4.398   6.212   2.033  0.1195 -0.2202  0.6839
 7721SOL    HW230656   4.322   6.171   2.074 -1.5110  1.5461 -0.4300
 7721SOL    HW330657   4.427   6.278   2.096 -1.3725  1.3629 -0.1978
 7721SOL    MW430658   4.392   6.215   2.047 -0.0513 -0.7263  0.7967
 7722SOL     OW30659   6.127   3.293   1.625 -0.0547  0.9488 -0.2112
 7722SOL    HW230660   6.172   3.215   1.659 -0.1314  1.0269  0.0725
 7722SOL    HW330661   6.068   3.319   1.696  0.8375  1.9730  0.1702
 7722SOL    MW430662   6.125   3.286   1.639  0.7578  0.2197  0.0062
 7723SOL     OW30663   5.138   6.371   5.698  0.0153 -0.3922 -0.0478
 7723SOL    HW230664   5.137   6.363   5.793 -0.1860 -1.2333 -0.1203
 7723SOL    HW330665   5.203   6.307   5.669  1.8633  1.5061 -0.3383
 7723SOL    MW430666   5.146   6.362   5.707 -0.5657 -0.1508  0.2908
 7724SOL     OW30667   4.014   5.516   2.276 -0.0701  0.4103  0.3974
 7724SOL    HW230668   3.922   5.490   2.267 -0.2357  0.5190  1.5608
 7724SOL    HW330669   4.010   5.605   2.311  0.4918  0.9657 -0.9137
 7724SOL    MW430670   4.001   5.525   2.279 -0.1155 -0.8500 -0.0584
 7725SOL     OW30671   2.445   5.207   0.006  0.1825 -0.0907 -0.4447
 7725SOL    HW230672   2.370   5.224   0.063  0.2853 -1.6678  0.2010
 7725SOL    HW330673   2.444   5.113  -0.008  2.1222 -0.1797 -0.2908
 7725SOL    MW430674   2.435   5.197   0.012 -0.1168  0.2851  0.0514
 7726SOL     OW30675   3.568   3.359   3.823  0.5945  0.3028 -0.5417
 7726SOL    HW230676   3.498   3.423   3.807  0.5953  0.3589 -0.3262
 7726SOL    HW330677   3.648   3.406   3.801  0.5374  0.0954 -1.2173
 7726SOL    MW430678   3.569   3.374   3.818 -0.5395  0.1160 -0.2864
 7727SOL     OW30679   5.832   3.033   3.196 -0.3788 -0.0647  0.0512
 7727SOL    HW230680   5.846   3.106   3.136 -0.7668 -0.6161 -0.7211
 7727SOL    HW330681   5.889   2.963   3.163  0.5287  0.0998  1.1998
 7727SOL    MW430682   5.842   3.033   3.184 -0.2774  0.0627  0.6197
 7728SOL     OW30683   1.058   1.865   4.872  0.0737 -0.2140  0.2943
 7728SOL    HW230684   1.080   1.812   4.796 -1.3243 -1.1364  0.4843
 7728SOL    HW330685   1.111   1.829   4.943  2.5409  1.6447 -0.5069
 7728SOL    MW430686   1.068   1.853   4.871  0.1887  0.1029  0.1331
 7729SOL     OW30687   3.590   4.489   4.710 -0.5996 -0.5830 -0.6648
 7729SOL    HW230688   3.525   4.419   4.708 -0.4797 -0.6916 -0.7174
 7729SOL    HW330689   3.597   4.517   4.619 -0.6660 -0.4841 -0.6405
 7729SOL    MW430690   3.582   4.484   4.698 -0.0145 -0.3403 -0.1725
 7730SOL     OW30691   3.406   2.040   3.814  0.3669 -0.1960  0.4835
 7730SOL    HW230692   3.359   1.982   3.874  1.5799 -1.0024  0.6783
 7730SOL    HW330693   3.481   2.071   3.864 -0.8047  2.4547  0.7593
 7730SOL    MW430694   3.410   2.036   3.829  0.4063 -0.0200 -0.0289
 7731SOL     OW30695   3.250   4.067   0.695  0.2507  0.0606  0.0739
 7731SOL    HW230696   3.182   4.001   0.682  0.7137 -0.1933 -1.3134
 7731SOL    HW330697   3.327   4.017   0.720 -0.3265  0.4564  3.0058
 7731SOL    MW430698   3.251   4.052   0.696  0.0265 -0.2272 -0.4384
 7732SOL     OW30699   5.325   0.864   0.424  0.1833 -0.1846 -0.2313
 7732SOL    HW230700   5.410   0.878   0.465  0.5968  0.7432 -1.3534
 7732SOL    HW330701   5.344   0.864   0.330 -1.2729  1.7558 -0.5861
 7732SOL    MW430702   5.338   0.866   0.417 -0.2093  0.1180 -0.0583
 7733SOL     OW30703   1.581   0.503   1.984 -0.2040  0.3541  0.2660
 7733SOL    HW230704   1.609   0.423   1.940  1.2175  0.6766  0.5347
 7733SOL    HW330705   1.611   0.574   1.926 -1.4186  0.7137  0.0436
 7733SOL    MW430706   1.589   0.502   1.971 -0.4095  0.6571 -0.3575
 7734SOL     OW30707   6.409   2.573   0.095 -0.9343 -0.2397  0.1678
 7734SOL    HW230708   6.437   2.656   0.056 -1.7240  1.0184  2.1221
 7734SOL    HW330709   6.379   2.520   0.021  0.4405  0.8397 -1.2319
 7734SOL    MW430710   6.409   2.577   0.080 -0.0192 -0.2226  0.1555
 7735SOL     OW30711   4.305   1.601   1.361  0.5064 -0.3439  0.0200
 7735SOL    HW230712   4.329   1.513   1.389  1.0786 -0.6035 -1.1935
 7735SOL    HW330713   4.235   1.627   1.421  0.1548 -1.7155  0.2501
 7735SOL    MW430714   4.299   1.593   1.373 -0.4294 -0.4461  0.3291
 7736SOL     OW30715   5.944   4.088   0.868 -0.2325 -0.0021  0.1722
 7736SOL    HW230716   5.989   4.163   0.830 -2.5885  0.8089 -1.2125
 7736SOL    HW330717   5.921   4.116   0.957  0.4783  0.2002  0.2991
 7736SOL    MW430718   5.947   4.101   0.875  0.2968  0.4113 -0.3339
 7737SOL     OW30719   2.675   2.685   6.111  0.3000  0.2538  0.0506
 7737SOL    HW230720   2.659   2.618   6.179 -1.9335 -0.1924 -0.8134
 7737SOL    HW330721   2.617   2.757   6.136  2.7173  1.9847  0.9872
 7737SOL    MW430722   2.665   2.685   6.124  0.2537  0.3949 -0.2334
 7738SOL     OW30723   3.339   0.422   6.117  0.2760  0.0985 -0.0221
 7738SOL    HW230724   3.407   0.414   6.050  1.4505  1.4565  0.9454
 7738SOL    HW330725   3.289   0.341   6.110  2.4111 -1.2747 -0.3022
 7738SOL    MW430726   3.342   0.410   6.107 -0.1274  0.0018  0.4963
 7739SOL     OW30727   4.541   5.223   4.009  0.2825  0.3367 -0.1745
 7739SOL    HW230728   4.609   5.227   4.076 -1.0851 -0.7071  1.3416
 7739SOL    HW330729   4.487   5.301   4.023  1.0496  1.1117 -1.3120
 7739SOL    MW430730   4.543   5.234   4.020 -0.4545  0.0867 -0.9010
 7740SOL     OW30731   3.513   5.142   6.252 -0.4807 -0.0909 -0.1286
 7740SOL    HW230732   3.455   5.133   6.328  0.9081 -0.6545  0.9208
 7740SOL    HW330733   3.567   5.063   6.254  2.1273  1.5836  0.5928
 7740SOL    MW430734   3.512   5.131   6.262 -0.0953  0.0565  0.0440
 7741SOL     OW30735   1.556   4.254   2.134 -0.4752  0.3684 -0.1777
 7741SOL    HW230736   1.482   4.196   2.116 -0.1918  0.0741 -0.4132
 7741SOL    HW330737   1.527   4.340   2.103 -0.1671 -0.0395 -1.6922
 7741SOL    MW430738   1.542   4.258   2.127 -0.1435 -0.0741  0.1972
 7742SOL     OW30739   1.918   3.477   2.418  0.2283 -0.0371  0.2859
 7742SOL    HW230740   1.837   3.513   2.383 -0.1370 -0.5566  0.5864
 7742SOL    HW330741   1.937   3.401   2.364  1.3235  0.9233 -0.7318
 7742SOL    MW430742   1.910   3.471   2.407 -0.5589  0.1761  0.1448
 7743SOL     OW30743   4.508   1.871   1.790 -0.3740  0.6632  0.1252
 7743SOL    HW230744   4.464   1.898   1.871 -0.2460 -3.0176  1.6367
 7743SOL    HW330745   4.455   1.908   1.720 -1.7861  2.1570  1.8797
 7743SOL    MW430746   4.495   1.880   1.792  0.1922  0.3522  0.1920
 7744SOL     OW30747   1.374   0.556   1.732  0.1857 -0.5953 -0.7128
 7744SOL    HW230748   1.392   0.538   1.825  1.7037  0.8904 -0.6811
 7744SOL    HW330749   1.290   0.602   1.732  1.1261  1.1932  0.1505
 7744SOL    MW430750   1.365   0.560   1.744  0.0157 -0.4725 -0.0985
 7745SOL     OW30751   1.259   5.702   4.942  0.3922 -0.3288 -0.1174
 7745SOL    HW230752   1.295   5.614   4.953  2.4794  0.2784 -1.4868
 7745SOL    HW330753   1.202   5.696   4.865 -0.2831 -0.6758  0.3966
 7745SOL    MW430754   1.256   5.689   4.934 -0.2576 -0.1039  0.0991
 7746SOL     OW30755   2.635   0.268   2.256  0.1163 -0.4341 -0.1681
 7746SOL    HW230756   2.716   0.253   2.208  0.3890  1.8498 -0.5056
 7746SOL    HW330757   2.576   0.308   2.193 -0.1495  0.8907  0.8626
 7746SOL    MW430758   2.638   0.271   2.241  0.0485 -0.1462 -0.3978
 7747SOL     OW30759   6.172   3.714   5.801  0.3540 -0.0987  0.2344
 7747SOL    HW230760   6.143   3.636   5.847 -0.5449  0.6742  1.0177
 7747SOL    HW330761   6.193   3.778   5.870  0.2881  0.6259 -0.3950
 7747SOL    MW430762   6.171   3.712   5.816  0.0758  0.3091 -0.3352
 7748SOL     OW30763   5.078   2.807   5.048 -0.4304 -0.3250 -0.1697
 7748SOL    HW230764   5.001   2.755   5.026 -1.1938  1.0657 -0.8910
 7748SOL    HW330765   5.089   2.867   4.974  0.7596  0.1647  0.3740
 7748SOL    MW430766   5.070   2.808   5.036  0.2169 -0.0328 -0.3276
 7749SOL     OW30767   5.111   3.394   0.873  0.5084 -0.0135 -0.3357
 7749SOL    HW230768   5.056   3.336   0.820 -1.2538  0.7431  0.5838
 7749SOL    HW330769   5.114   3.352   0.959  2.0450 -0.4283 -0.5600
 7749SOL    MW430770   5.104   3.381   0.878 -0.4733 -0.1568  0.4363
 7750SOL     OW30771   1.951   5.762   5.024  0.3509  0.4042  0.0415
 7750SOL    HW230772   2.019   5.801   5.078 -0.3675  0.0871  1.2071
 7750SOL    HW330773   1.882   5.736   5.086  0.3427 -1.7572 -0.7815
 7750SOL    MW430774   1.951   5.763   5.039  0.1871  0.0749  0.3997
 7751SOL     OW30775   1.151   0.169   6.035 -0.4267  0.2747 -0.2983
 7751SOL    HW230776   1.132   0.084   5.996  1.3017 -1.6187  2.6546
 7751SOL    HW330777   1.070   0.195   6.078 -0.6083 -0.4915 -0.1727
 7751SOL    MW430778   1.138   0.161   6.035  0.1365 -0.5100 -0.2178
 7752SOL     OW30779   5.529   0.972   6.286  0.3955 -0.1608  0.6097
 7752SOL    HW230780   5.560   1.062   6.278 -1.0581  0.2919 -0.5559
 7752SOL    HW330781   5.577   0.923   6.220 -0.1584  0.1779 -0.0519
 7752SOL    MW430782   5.539   0.977   6.276  0.3255 -0.0012 -0.3706
 7753SOL     OW30783   2.331   1.050   4.715  0.0162  0.0905 -0.2390
 7753SOL    HW230784   2.416   1.023   4.749  0.1877  1.7750  0.7435
 7753SOL    HW330785   2.267   0.996   4.762  0.3846  0.8934  1.2497
 7753SOL    MW430786   2.334   1.039   4.725  0.0858  0.1438  0.8430
 7754SOL     OW30787   4.744   4.999  -0.009 -0.0691  0.1815 -0.4095
 7754SOL    HW230788   4.669   4.942  -0.025  0.4542 -0.7602  0.3734
 7754SOL    HW330789   4.708   5.088  -0.009 -0.9186 -0.1394 -1.5756
 7754SOL    MW430790   4.729   5.003  -0.011  0.0724  0.5357 -0.1593
 7755SOL     OW30791   4.955   5.636   2.168 -0.2320 -0.0961  0.3310
 7755SOL    HW230792   5.022   5.704   2.178 -1.1027  0.8764 -0.2206
 7755SOL    HW330793   4.954   5.616   2.074 -1.6490  0.9204  0.0947
 7755SOL    MW430794   4.964   5.642   2.157  0.2458  0.4027 -0.1984
 7756SOL     OW30795   0.392   1.788   3.243 -0.4860  0.1222  0.4780
 7756SOL    HW230796   0.476   1.827   3.220 -0.9350  1.0181  0.3264
 7756SOL    HW330797   0.331   1.861   3.247 -1.2626 -0.5108  0.6015
 7756SOL    MW430798   0.395   1.803   3.240 -0.0257 -0.2138  0.1279
 7757SOL     OW30799   5.732   3.657   2.525  0.3666 -0.3652 -0.6047
 7757SOL    HW230800   5.765   3.693   2.442 -0.7886 -1.2252 -1.4756
 7757SOL    HW330801   5.645   3.623   2.503 -1.0033  1.4700  1.4936
 7757SOL    MW430802   5.725   3.658   2.511  0.0518  0.1919 -0.0374
 7758SOL     OW30803   4.899   1.670   0.381  0.0404  0.2820  0.1080
 7758SOL    HW230804   4.957   1.610   0.429  0.7118  0.3240 -0.6217
 7758SOL    HW330805   4.860   1.616   0.313 -1.0261  0.1872  0.7680
 7758SOL    MW430806   4.902   1.655   0.378  0.4660  0.1074 -0.1329
 7759SOL     OW30807   5.005   1.855   0.203 -0.0758  0.2156  0.9877
 7759SOL    HW230808   4.965   1.792   0.263 -0.9245  1.1644  1.4416
 7759SOL    HW330809   4.934   1.916   0.180  0.5629  0.6410  0.0591
 7759SOL    MW430810   4.990   1.855   0.208 -0.6400 -0.3846  0.2464
 7760SOL     OW30811   2.987   2.806   2.198  0.3661  0.3040  0.2067
 7760SOL    HW230812   2.914   2.780   2.254  1.2291  0.5615  1.5002
 7760SOL    HW330813   3.013   2.726   2.153 -1.4460  0.4530 -1.1784
 7760SOL    MW430814   2.981   2.792   2.200  0.9103  0.3125  0.0713
 7761SOL     OW30815   4.736   1.954   4.983 -0.5529 -0.0622  0.7896
 7761SOL    HW230816   4.724   2.014   5.057 -2.0685  0.0297  0.5064
 7761SOL    HW330817   4.703   2.002   4.907  0.2482 -0.4494  0.1861
 7761SOL    MW430818   4.730   1.968   4.983  0.4562 -0.7531  0.1972
 7762SOL     OW30819   1.614   6.155   2.716 -0.2172  0.0110  0.1868
 7762SOL    HW230820   1.574   6.225   2.665 -3.2440 -1.3654  0.4372
 7762SOL    HW330821   1.591   6.174   2.807 -1.3240 -1.3322  0.2388
 7762SOL    MW430822   1.606   6.167   2.721  1.1398  0.4256 -0.1798
 7763SOL     OW30823   2.051   5.061   4.882  0.1672  0.1351 -0.1013
 7763SOL    HW230824   2.125   5.075   4.823  0.0853 -0.8616 -0.4627
 7763SOL    HW330825   2.040   5.145   4.927 -0.2724  1.1872 -2.0595
 7763SOL    MW430826   2.059   5.074   4.881  0.1550  0.1584  0.0444
 7764SOL     OW30827   1.348   2.025   2.451  0.0894  0.3079  0.0643
 7764SOL    HW230828   1.420   2.001   2.393  0.1541  0.8338 -0.0756
 7764SOL    HW330829   1.275   1.968   2.424 -0.4205  1.7120 -1.7031
 7764SOL    MW430830   1.348   2.014   2.440 -0.8847  0.4322 -0.3461
 7765SOL     OW30831   6.011   4.988   0.923  0.1524 -0.1598  0.0078
 7765SOL    HW230832   6.057   5.032   0.995  0.8242 -1.4406  0.3919
 7765SOL    HW330833   6.071   4.993   0.849  0.1606 -0.3030  0.0056
 7765SOL    MW430834   6.025   4.995   0.923  0.2148 -0.0825 -0.5306
 7766SOL     OW30835   0.773   2.492   3.561  0.3678  0.1909  0.3689
 7766SOL    HW230836   0.788   2.471   3.469  0.7171  0.8507  0.2742
 7766SOL    HW330837   0.787   2.586   3.568 -1.0620  0.4002  0.8190
 7766SOL    MW430838   0.777   2.502   3.550 -0.3467  0.0401  0.8380
 7767SOL     OW30839   5.439   1.038   2.457  0.2833 -0.8112 -0.1987
 7767SOL    HW230840   5.386   1.047   2.535  0.7980 -0.0158  0.0818
 7767SOL    HW330841   5.439   1.126   2.418 -1.0859 -1.4908 -1.8495
 7767SOL    MW430842   5.432   1.051   2.462 -0.1726  0.2985 -0.3501
 7768SOL     OW30843   5.510   5.097   2.420 -0.2784  0.1177 -0.0353
 7768SOL    HW230844   5.551   5.140   2.495  0.2966 -0.2043 -0.1632
 7768SOL    HW330845   5.487   5.010   2.453 -2.0088  0.7061  0.4143
 7768SOL    MW430846   5.512   5.091   2.434 -1.0254  0.1894  0.3230
 7769SOL     OW30847   3.101   1.221   5.997  0.0728 -0.1937  0.5954
 7769SOL    HW230848   3.164   1.290   6.018  1.5411 -1.6281  1.0834
 7769SOL    HW330849   3.022   1.268   5.971  0.7583  1.6682  1.7003
 7769SOL    MW430850   3.099   1.237   5.996  0.8137 -0.3312  0.4898
 7770SOL     OW30851   5.763   2.458   4.496  0.1037  0.1328 -0.3127
 7770SOL    HW230852   5.851   2.456   4.531  0.3022 -0.3215 -0.8104
 7770SOL    HW330853   5.775   2.463   4.401 -0.3865 -0.7076 -0.4370
 7770SOL    MW430854   5.776   2.458   4.488  0.1327 -0.3867  0.9858
 7771SOL     OW30855   0.760   5.843   2.042 -0.2089  0.8609  0.4439
 7771SOL    HW230856   0.751   5.866   1.950  1.7360 -0.8847 -0.2675
 7771SOL    HW330857   0.691   5.778   2.057  2.8700 -3.2903 -1.5494
 7771SOL    MW430858   0.750   5.837   2.032  0.2469 -0.1638  0.2421
 7772SOL     OW30859   5.943   0.922   4.227 -0.3903 -0.2972  0.1402
 7772SOL    HW230860   5.939   0.939   4.321  1.0195  0.1181  0.1538
 7772SOL    HW330861   5.913   0.832   4.217 -0.4997 -0.3614  0.9847
 7772SOL    MW430862   5.938   0.912   4.238 -0.4586  0.2642 -0.1406
 7773SOL     OW30863   4.781   3.353   0.987  0.4111  0.0113  0.4002
 7773SOL    HW230864   4.699   3.393   1.017  0.2573  0.0715 -0.0896
 7773SOL    HW330865   4.795   3.390   0.900  1.4834  0.7590  0.8735
 7773SOL    MW430866   4.772   3.363   0.979  0.4098 -0.1491 -0.0932
 7774SOL     OW30867   3.409   3.764   0.529  0.3346 -0.0341  0.0245
 7774SOL    HW230868   3.426   3.832   0.594  0.8121  0.8811 -1.0266
 7774SOL    HW330869   3.317   3.742   0.540  0.4366  0.0127  1.0728
 7774SOL    MW430870   3.399   3.770   0.539 -0.0802  0.5456  0.2659
 7775SOL     OW30871   0.155   2.476   0.460 -0.7138 -0.3584  0.4797
 7775SOL    HW230872   0.239   2.520   0.446 -0.7242 -0.3069  0.5797
 7775SOL    HW330873   0.093   2.547   0.477 -0.9286 -0.3412 -0.3115
 7775SOL    MW430874   0.158   2.491   0.460 -0.4210  0.8732 -0.1181
 7776SOL     OW30875   1.224   0.978   1.088  0.5303 -0.5524  0.2440
 7776SOL    HW230876   1.280   1.044   1.047  0.0322 -0.5852 -0.5003
 7776SOL    HW330877   1.143   1.024   1.110  1.3033 -0.1764  2.5439
 7776SOL    MW430878   1.221   0.993   1.086  0.0825 -0.4302 -0.5386
 7777SOL     OW30879   4.822   0.838   5.086 -0.5565 -0.1449 -0.0941
 7777SOL    HW230880   4.739   0.851   5.040 -1.6313  0.2231  1.8434
 7777SOL    HW330881   4.867   0.922   5.078 -1.9414  0.8526  1.7295
 7777SOL    MW430882   4.817   0.851   5.079 -0.2485 -0.2953  0.0830
 7778SOL     OW30883   2.557   0.623   3.147  0.0649 -0.1224  0.5113
 7778SOL    HW230884   2.597   0.614   3.234 -0.7440 -4.3803  0.6690
 7778SOL    HW330885   2.463   0.630   3.166  0.0644  2.0732 -0.0502
 7778SOL    MW430886   2.550   0.622   3.161  0.9086 -0.3010 -0.0663
 7779SOL     OW30887   3.500   4.749   6.011 -0.3189  0.1882 -0.2603
 7779SOL    HW230888   3.515   4.762   5.917  0.2138  0.0280 -0.2057
 7779SOL    HW330889   3.419   4.699   6.016 -0.1658 -0.1061 -0.6568
 7779SOL    MW430890   3.492   4.744   5.999 -0.2486  0.6785 -0.0702
 7780SOL     OW30891   3.777   2.565   2.508  0.1504  0.1438  0.1521
 7780SOL    HW230892   3.770   2.571   2.413 -2.8873 -0.5241  0.2521
 7780SOL    HW330893   3.772   2.656   2.538 -2.6252  0.1864 -0.2228
 7780SOL    MW430894   3.776   2.578   2.499 -0.2311 -0.3347 -0.6813
 7781SOL     OW30895   4.049   4.608   5.583 -0.1376 -0.1777 -0.0252
 7781SOL    HW230896   4.098   4.541   5.536  0.3187 -0.8608  1.3611
 7781SOL    HW330897   4.054   4.581   5.675 -0.9999  1.0979  0.4237
 7781SOL    MW430898   4.056   4.595   5.589 -0.6484  0.1943 -0.6973
 7782SOL     OW30899   4.935   5.054   5.821  0.0375  0.1278 -0.1313
 7782SOL    HW230900   4.948   5.149   5.824  0.7659  0.0167  2.2350
 7782SOL    HW330901   4.921   5.035   5.728  1.0365  2.3980 -0.8288
 7782SOL    MW430902   4.935   5.064   5.809 -0.6311 -0.1209 -0.7861
 7783SOL     OW30903   4.223   3.901   5.681  0.9040 -0.0485 -0.0091
 7783SOL    HW230904   4.193   3.828   5.628  0.2941  1.0265 -1.1878
 7783SOL    HW330905   4.145   3.931   5.727  1.1096 -0.0166  0.3219
 7783SOL    MW430906   4.209   3.896   5.680 -0.1896 -0.0576 -0.0342
 7784SOL     OW30907   5.305   0.457   2.781 -0.4783  0.5096  0.2504
 7784SOL    HW230908   5.297   0.531   2.721 -1.1793 -0.1071 -0.4350
 7784SOL    HW330909   5.256   0.485   2.859 -2.9174 -0.1384 -0.9308
 7784SOL    MW430910   5.297   0.471   2.783  0.2434 -0.3273  0.5075
 7785SOL     OW30911   3.750   1.151   5.040  0.1164  0.5728 -0.1326
 7785SOL    HW230912   3.705   1.116   5.117 -0.3766  1.0637 -0.1892
 7785SOL    HW330913   3.833   1.186   5.074 -0.0142  0.6135  0.1469
 7785SOL    MW430914   3.755   1.151   5.055  0.0401 -0.0850  0.0820
 7786SOL     OW30915   3.677   3.028   5.363  0.3565  0.2536  0.0660
 7786SOL    HW230916   3.674   3.003   5.456 -2.5494  0.0414  0.0241
 7786SOL    HW330917   3.632   3.113   5.360 -0.1298 -0.0313 -1.2199
 7786SOL    MW430918   3.670   3.036   5.375 -0.6452 -0.0518  0.4216
 7787SOL     OW30919   0.062   2.487   5.966  0.2911 -0.1322 -0.0490
 7787SOL    HW230920   0.059   2.564   6.021 -0.8265 -0.0313 -0.2424
 7787SOL    HW330921   0.017   2.513   5.885 -3.2957 -1.9684  1.1551
 7787SOL    MW430922   0.056   2.500   5.962 -0.1430  0.0171 -0.2292
 7788SOL     OW30923   6.194   5.098   3.450 -0.3105 -0.0791 -0.2121
 7788SOL    HW230924   6.213   5.180   3.495  0.6624 -0.7962  0.7139
 7788SOL    HW330925   6.231   5.110   3.362 -1.0842  0.8427 -0.4273
 7788SOL    MW430926   6.201   5.111   3.444 -0.1395 -0.6202 -0.5421
 7789SOL     OW30927   1.795   2.494   3.782  0.0087 -0.2074 -0.1484
 7789SOL    HW230928   1.851   2.498   3.704 -0.2034  0.4303 -0.2683
 7789SOL    HW330929   1.843   2.544   3.848 -0.7398  0.9333 -0.4543
 7789SOL    MW430930   1.809   2.501   3.780 -0.1876  0.0670  0.2739
 7790SOL     OW30931   0.562   3.616   0.301  0.3356 -0.9791  0.2363
 7790SOL    HW230932   0.511   3.685   0.344  0.4961 -0.3912 -0.4796
 7790SOL    HW330933   0.514   3.535   0.319  0.6189 -0.8164  1.8296
 7790SOL    MW430934   0.549   3.615   0.309 -0.2734 -0.0663  0.0056
 7791SOL     OW30935   0.171   3.770   1.946 -0.2393 -0.2652  0.0163
 7791SOL    HW230936   0.125   3.701   1.995 -0.7599 -0.5503 -0.8575
 7791SOL    HW330937   0.219   3.723   1.878  1.2359  0.0470  0.8104
 7791SOL    MW430938   0.171   3.754   1.944  0.4368  0.4371  0.2538
 7792SOL     OW30939   1.406  -0.001   6.120  0.7612 -0.1623  0.0259
 7792SOL    HW230940   1.408  -0.028   6.028 -1.0306  1.1677 -0.4612
 7792SOL    HW330941   1.371  -0.076   6.166  1.0428 -0.6131 -0.4827
 7792SOL    MW430942   1.402  -0.014   6.114 -0.3358  0.0941  0.0178
 7793SOL     OW30943   4.411   5.681   1.932  0.6330  0.5916  0.6782
 7793SOL    HW230944   4.443   5.753   1.985  0.7841 -0.4325  2.0426
 7793SOL    HW330945   4.343   5.640   1.986 -1.7356  1.5763 -1.3579
 7793SOL    MW430946   4.406   5.685   1.946  0.0431  0.2664  0.2270
 7794SOL     OW30947   3.376   0.505   4.736  0.0303 -0.4450  0.0497
 7794SOL    HW230948   3.386   0.592   4.698 -0.0487 -0.7668 -0.7066
 7794SOL    HW330949   3.351   0.449   4.663 -1.8604 -0.7363  0.8797
 7794SOL    MW430950   3.374   0.509   4.722  0.0583 -0.2310 -0.6024
 7795SOL     OW30951   0.377   0.550   2.573 -0.3404  0.1793 -0.4716
 7795SOL    HW230952   0.329   0.630   2.550 -0.6805 -0.4453 -2.0708
 7795SOL    HW330953   0.454   0.581   2.619 -0.2596  1.4808 -1.4248
 7795SOL    MW430954   0.381   0.565   2.576  0.4160 -0.0718 -0.4744
 7796SOL     OW30955   1.640   2.272   4.371  0.1387  0.0423 -0.2497
 7796SOL    HW230956   1.617   2.247   4.281  0.4351  2.6166 -1.1467
 7796SOL    HW330957   1.565   2.324   4.401  0.0682 -0.7471  1.0038
 7796SOL    MW430958   1.627   2.276   4.363 -0.4580  0.3389  0.5033
 7797SOL     OW30959   2.307   1.770   5.953 -0.0073 -0.5568 -0.2976
 7797SOL    HW230960   2.222   1.815   5.964  0.9073  1.3315 -0.5302
 7797SOL    HW330961   2.299   1.692   6.008 -2.9784 -2.0864 -2.5852
 7797SOL    MW430962   2.294   1.766   5.962 -0.5514  0.1088  0.2168
 7798SOL     OW30963   6.158   6.262   6.005 -0.4519 -0.0480  0.0856
 7798SOL    HW230964   6.151   6.357   5.993  0.6079  0.1228  0.6507
 7798SOL    HW330965   6.118   6.246   6.091  2.5497  0.4562  1.7334
 7798SOL    MW430966   6.152   6.272   6.015 -0.6066 -0.5628  0.2396
 7799SOL     OW30967   3.905   6.241   5.565 -0.4770  0.3553  0.9106
 7799SOL    HW230968   3.986   6.291   5.556 -0.3492  0.5768  2.8368
 7799SOL    HW330969   3.842   6.286   5.509  0.9428 -0.4210 -1.4509
 7799SOL    MW430970   3.908   6.253   5.556 -0.0644 -0.5432  0.3403
 7800SOL     OW30971   3.017   5.763   3.399  0.2421  0.5890  0.0141
 7800SOL    HW230972   3.075   5.783   3.472  1.2718 -0.4449 -0.4833
 7800SOL    HW330973   2.934   5.738   3.440  0.1376  2.0237  0.7340
 7800SOL    MW430974   3.014   5.762   3.414 -0.0549  0.2689 -0.2068
 7801SOL     OW30975   3.941   4.434   4.332  0.7566 -0.3626  0.2155
 7801SOL    HW230976   3.938   4.492   4.408  0.0829  1.0019 -0.8078
 7801SOL    HW330977   4.017   4.463   4.282  1.3038 -1.3702  0.4229
 7801SOL    MW430978   3.951   4.445   4.335  0.2298 -0.2172 -0.6923
 7802SOL     OW30979   3.487   2.102   2.730 -0.0782 -0.2063 -0.2562
 7802SOL    HW230980   3.553   2.164   2.698  0.0626  0.4572  1.2324
 7802SOL    HW330981   3.427   2.089   2.656  0.5578  0.7859 -0.9603
 7802SOL    MW430982   3.488   2.108   2.716  0.2587  0.0931 -0.2957
 7803SOL     OW30983   6.038   2.527   5.246 -0.6060  0.4000  0.0048
 7803SOL    HW230984   6.029   2.531   5.151 -1.2495 -3.1045 -0.2403
 7803SOL    HW330985   6.131   2.541   5.263  0.0940 -1.9021 -1.5224
 7803SOL    MW430986   6.049   2.529   5.236 -0.1361 -0.0330 -0.1452
 7804SOL     OW30987   4.069   3.910   1.213  0.0136  0.6119 -0.4667
 7804SOL    HW230988   4.125   3.950   1.146 -0.2333  1.3173 -0.2656
 7804SOL    HW330989   4.115   3.926   1.295  0.1274  0.0860 -0.4271
 7804SOL    MW430990   4.082   3.917   1.215 -0.3200 -0.0507  0.0411
 7805SOL     OW30991   0.894   4.516   4.967  0.3089 -0.2808  0.1319
 7805SOL    HW230992   0.811   4.549   5.002 -0.1434 -1.9159  0.7168
 7805SOL    HW330993   0.873   4.428   4.935  1.8142 -0.7371  0.3159
 7805SOL    MW430994   0.880   4.509   4.968 -0.0618 -0.2611  0.3823
 7806SOL     OW30995   6.113   0.194   6.301  0.2979 -0.5315  0.1283
 7806SOL    HW230996   6.104   0.117   6.357 -0.3788 -1.0356 -0.6585
 7806SOL    HW330997   6.060   0.261   6.346 -1.9028 -1.4943 -0.8559
 7806SOL    MW430998   6.105   0.193   6.314  0.4244  0.8794  0.0284
 7807SOL     OW30999   4.780   1.534   3.791 -0.1516  0.0947  0.0529
 7807SOL    HW231000   4.790   1.450   3.836  0.3667 -0.6266 -1.3489
 7807SOL    HW331001   4.856   1.585   3.818  0.2946 -0.4240 -0.1935
 7807SOL    MW431002   4.791   1.529   3.801  0.0056 -0.0653  0.2342
 7808SOL     OW31003   5.725   0.205   4.437  0.2245 -0.3039 -0.1830
 7808SOL    HW231004   5.764   0.125   4.475  1.9469  0.1779 -0.8297
 7808SOL    HW331005   5.771   0.277   4.481 -0.2065  0.3115 -0.7208
 7808SOL    MW431006   5.736   0.204   4.448  0.3343  0.3181 -0.2036
 7809SOL     OW31007   0.346   5.507   3.271 -0.3158  0.0170 -0.0577
 7809SOL    HW231008   0.250   5.501   3.280 -0.2839 -0.0841  0.2505
 7809SOL    HW331009   0.360   5.574   3.204 -0.6129 -0.4198 -0.5653
 7809SOL    MW431010   0.335   5.515   3.264 -0.1390 -0.1619 -0.5730
 7810SOL     OW31011   0.329   2.371   1.742  0.9027  0.6030  0.1231
 7810SOL    HW231012   0.413   2.416   1.755  0.9027  1.0943 -1.4177
 7810SOL    HW331013   0.293   2.410   1.662  0.1889 -1.0870 -0.4192
 7810SOL    MW431014   0.335   2.382   1.733  0.1922  0.2500  0.1325
 7811SOL     OW31015   2.206   1.931   0.558 -0.0464 -0.0055 -0.1473
 7811SOL    HW231016   2.295   1.894   0.559  0.4002  1.0094 -0.8409
 7811SOL    HW331017   2.190   1.958   0.648  0.1543 -0.6435  0.0827
 7811SOL    MW431018   2.216   1.930   0.570 -0.2498 -0.2259 -0.0606
 7812SOL     OW31019   3.177   1.191   5.735 -0.1880  0.2997 -0.3564
 7812SOL    HW231020   3.149   1.190   5.826  0.2591  0.8901 -0.2076
 7812SOL    HW331021   3.137   1.270   5.698 -0.2072  0.1682 -0.6190
 7812SOL    MW431022   3.168   1.201   5.742  0.0866  0.0298 -0.0578
 7813SOL     OW31023   0.006   1.216   0.285 -0.4035  0.0722 -0.2221
 7813SOL    HW231024   0.013   1.163   0.365 -0.7639  1.8014  1.0144
 7813SOL    HW331025   0.093   1.214   0.247 -0.3494 -1.1901 -0.0785
 7813SOL    MW431026   0.018   1.209   0.291  0.4570 -0.1575 -0.4665
 7814SOL     OW31027   2.346   1.275   3.537  0.0363 -0.0826  0.2905
 7814SOL    HW231028   2.343   1.283   3.442 -0.8047  1.3088  0.4030
 7814SOL    HW331029   2.403   1.200   3.553  1.1769  0.3862 -1.2750
 7814SOL    MW431030   2.353   1.266   3.527 -0.2392 -0.4277 -0.3970
 7815SOL     OW31031   0.648   5.134   6.201  0.3674 -0.2594 -0.6717
 7815SOL    HW231032   0.636   5.193   6.275 -0.7801 -0.3803 -0.7472
 7815SOL    HW331033   0.570   5.147   6.147  0.4908 -1.2541 -1.1074
 7815SOL    MW431034   0.636   5.144   6.203  0.2719 -0.6775  0.1483
 7816SOL     OW31035   3.248   0.053   2.954  0.4824  0.3602  0.3767
 7816SOL    HW231036   3.229  -0.007   3.026  0.1922  0.3919  0.3294
 7816SOL    HW331037   3.342   0.044   2.939  0.6635  0.8670  1.2097
 7816SOL    MW431038   3.258   0.044   2.961 -0.3570 -0.1090  0.7115
 7817SOL     OW31039   1.604   5.528   3.756  0.2691  0.1376 -0.2682
 7817SOL    HW231040   1.585   5.589   3.827  1.8353 -0.5219  0.7559
 7817SOL    HW331041   1.555   5.563   3.681 -1.4338  0.8472  1.1008
 7817SOL    MW431042   1.595   5.541   3.755 -0.1448  0.2553 -0.5993
 7818SOL     OW31043   2.898   2.140   5.705 -0.0133 -0.2826  0.8600
 7818SOL    HW231044   2.894   2.216   5.763  0.4346 -0.8250  1.6097
 7818SOL    HW331045   2.814   2.096   5.718  0.1427 -0.4779  1.1895
 7818SOL    MW431046   2.886   2.144   5.714  0.5230 -0.6939  0.1431
 7819SOL     OW31047   5.662   2.678   3.470 -0.2385 -0.1767 -0.2567
 7819SOL    HW231048   5.744   2.699   3.514 -0.0686 -0.7662 -0.2803
 7819SOL    HW331049   5.613   2.760   3.471  0.8133  0.4884 -1.2733
 7819SOL    MW431050   5.666   2.692   3.476 -0.0531  0.4806 -0.0846
 7820SOL     OW31051   1.133   0.831   4.140  0.7401  0.1365  0.0949
 7820SOL    HW231052   1.175   0.841   4.055  0.0882 -1.8897 -0.5233
 7820SOL    HW331053   1.162   0.907   4.190  1.4085  1.2089 -1.8112
 7820SOL    MW431054   1.142   0.842   4.135  0.2281 -0.0731  0.4295
 7821SOL     OW31055   3.381   0.643   3.873 -0.0689 -0.5189 -0.0277
 7821SOL    HW231056   3.334   0.674   3.796 -0.0797  2.4166  1.0298
 7821SOL    HW331057   3.314   0.641   3.942  0.6908  0.8931  0.8065
 7821SOL    MW431058   3.366   0.647   3.872 -0.3508 -0.3394 -0.3937
 7822SOL     OW31059   0.875   0.247   5.878  0.2424  0.3444  0.0124
 7822SOL    HW231060   0.906   0.251   5.968  0.8044 -2.7991  0.0415
 7822SOL    HW331061   0.788   0.208   5.883 -0.3838  1.5621 -0.7307
 7822SOL    MW431062   0.868   0.243   5.890  0.1403  0.4357  0.2667
 7823SOL     OW31063   0.549   3.608   4.756 -0.0001 -0.6510  0.0435
 7823SOL    HW231064   0.463   3.572   4.779 -1.3040  1.2857 -1.4862
 7823SOL    HW331065   0.601   3.531   4.733 -1.6725 -1.8059 -0.0917
 7823SOL    MW431066   0.545   3.593   4.756  0.1540 -0.4994  0.0676
 7824SOL     OW31067   4.740   0.606   1.620  0.7211  0.1885 -0.5749
 7824SOL    HW231068   4.814   0.647   1.575  0.4456 -0.0092 -1.2279
 7824SOL    HW331069   4.772   0.519   1.644  0.6769  0.0651 -0.9484
 7824SOL    MW431070   4.754   0.600   1.617 -0.3654  0.3191  0.1578
 7825SOL     OW31071   4.793   6.010   0.404 -0.1269  0.0654  0.9272
 7825SOL    HW231072   4.712   6.022   0.453 -0.1586 -0.8698  1.1295
 7825SOL    HW331073   4.774   6.043   0.316 -0.4888  0.5241  1.1732
 7825SOL    MW431074   4.780   6.016   0.399 -0.0832  0.7577  0.1862
 7826SOL     OW31075   3.928   4.613   4.574  0.4132  0.1116 -0.2115
 7826SOL    HW231076   3.944   4.553   4.647 -0.8365  1.0959  0.9138
 7826SOL    HW331077   3.944   4.700   4.611  0.6378  0.5774 -1.3717
 7826SOL    MW431078   3.933   4.617   4.589 -0.1487  0.4060  0.1152
 7827SOL     OW31079   2.435   0.108   0.806  0.2355  0.0699  0.3295
 7827SOL    HW231080   2.503   0.040   0.807 -0.0224 -0.1865  0.4540
 7827SOL    HW331081   2.357   0.063   0.773  0.2513  0.4836 -0.2945
 7827SOL    MW431082   2.434   0.093   0.802 -0.3239  0.4232 -0.4605
 7828SOL     OW31083   5.151   1.980   3.350 -0.2830 -0.3548 -0.0273
 7828SOL    HW231084   5.070   2.023   3.379 -0.4663 -0.6160 -0.1457
 7828SOL    HW331085   5.121   1.904   3.300 -0.0453 -2.3764  2.6348
 7828SOL    MW431086   5.136   1.976   3.347  0.2893 -0.2715  0.3774
 7829SOL     OW31087   4.764   3.833   4.726  0.6251 -0.5825 -0.2462
 7829SOL    HW231088   4.771   3.746   4.686  0.6372 -1.0479  0.7376
 7829SOL    HW331089   4.838   3.882   4.689  0.2320 -0.7650 -1.3225
 7829SOL    MW431090   4.775   3.828   4.716  0.3053  0.0377  0.4652
 7830SOL     OW31091   3.881   2.615   2.194 -0.3278 -0.1206 -0.4241
 7830SOL    HW231092   3.911   2.692   2.145 -2.3512 -0.2415 -1.9621
 7830SOL    HW331093   3.938   2.544   2.164  2.8955  0.9914  2.4533
 7830SOL    MW431094   3.892   2.616   2.183 -0.0905 -0.3256  0.3166
 7831SOL     OW31095   4.437   3.936   3.977 -0.3408 -0.3504 -0.0913
 7831SOL    HW231096   4.483   3.876   4.035 -0.5317  0.3011  0.7492
 7831SOL    HW331097   4.346   3.933   4.006 -0.5326 -0.3975 -0.6830
 7831SOL    MW431098   4.431   3.928   3.988 -0.1537  0.4403 -0.9425
 7832SOL     OW31099   3.672   5.069   0.488 -0.0333 -0.5759  0.3258
 7832SOL    HW231100   3.761   5.094   0.514 -0.5486  0.2699  1.3401
 7832SOL    HW331101   3.615   5.124   0.542 -1.1867 -2.0143  0.6181
 7832SOL    MW431102   3.676   5.080   0.498  0.4064  0.1643  0.8060
 7833SOL     OW31103   6.077   2.816   1.075  0.5191 -0.3196 -0.1545
 7833SOL    HW231104   6.017   2.836   1.147  0.0682  1.0591 -0.8665
 7833SOL    HW331105   6.161   2.803   1.117  0.2747  0.5224  0.6443
 7833SOL    MW431106   6.080   2.817   1.090  0.0129 -0.4785  0.0805
 7834SOL     OW31107   2.012   4.268   1.849 -0.2070  0.4406  0.1906
 7834SOL    HW231108   1.957   4.195   1.877 -0.8938  0.6635 -0.5361
 7834SOL    HW331109   1.983   4.342   1.903 -0.6458  0.5622 -0.2042
 7834SOL    MW431110   2.001   4.268   1.860 -0.3233 -0.1461  0.0845
 7835SOL     OW31111   5.931   0.579   3.717 -0.3261  0.1613  0.3303
 7835SOL    HW231112   5.972   0.544   3.638  1.9949  0.1840  1.4554
 7835SOL    HW331113   5.839   0.550   3.711  0.6656 -3.2804 -0.4442
 7835SOL    MW431114   5.924   0.571   3.705 -0.2104  0.9019 -0.2341
 7836SOL     OW31115   5.334   1.225   1.071 -0.7997 -0.1806 -0.5846
 7836SOL    HW231116   5.371   1.295   1.124 -0.4427 -2.1488  1.9246
 7836SOL    HW331117   5.398   1.212   1.000 -0.7566  1.7916 -0.9431
 7836SOL    MW431118   5.347   1.232   1.068 -0.0706  0.2955  0.1912
 7837SOL     OW31119   1.841   4.376   4.391 -0.3710  0.2413  0.1172
 7837SOL    HW231120   1.892   4.441   4.438 -1.8745  0.7446  1.1367
 7837SOL    HW331121   1.801   4.424   4.319  0.6521 -0.1759 -0.7503
 7837SOL    MW431122   1.842   4.391   4.388  0.0430  0.2308 -0.2063
 7838SOL     OW31123   3.481   2.885   4.768  0.2002  0.1176  0.1472
 7838SOL    HW231124   3.542   2.945   4.811 -1.6608  1.9091  0.4272
 7838SOL    HW331125   3.446   2.831   4.839  0.3204  0.1076  0.1996
 7838SOL    MW431126   3.485   2.886   4.783 -0.5100  0.1230 -0.3054
 7839SOL     OW31127   5.842   6.185   1.777  0.0174 -0.4467 -0.1667
 7839SOL    HW231128   5.843   6.114   1.713  1.4299 -0.0386 -0.6399
 7839SOL    HW331129   5.879   6.260   1.730  0.7047 -0.0295  0.9986
 7839SOL    MW431130   5.847   6.185   1.762 -0.1849  0.1200  0.3356
 7840SOL     OW31131   3.876   4.989   6.075 -0.0865 -0.0487  0.6659
 7840SOL    HW231132   3.920   5.043   6.141  0.4922 -0.5293  0.6845
 7840SOL    HW331133   3.887   5.038   5.993 -1.1518  0.7449  0.9707
 7840SOL    MW431134   3.883   5.003   6.073  0.0998 -0.1320 -0.3758
 7841SOL     OW31135   2.586   4.158   3.586  0.2404  0.3436  0.4236
 7841SOL    HW231136   2.521   4.190   3.524  0.2753  0.7916  0.6096
 7841SOL    HW331137   2.586   4.224   3.656  0.9176  0.3683  0.4078
 7841SOL    MW431138   2.577   4.171   3.587 -0.4560  0.0613  0.2638
 7842SOL     OW31139   5.691   1.880   2.044 -0.0055  0.0310  0.0615
 7842SOL    HW231140   5.736   1.809   1.998  2.4933  0.2997  1.8841
 7842SOL    HW331141   5.740   1.959   2.019 -0.8998  0.6818  0.3408
 7842SOL    MW431142   5.704   1.881   2.035  0.3540  0.4083 -0.2991
 7843SOL     OW31143   1.399   4.874   5.934  0.3450 -0.1848 -0.0696
 7843SOL    HW231144   1.374   4.929   5.859  0.6875  1.4107  0.9487
 7843SOL    HW331145   1.316   4.838   5.965  0.0479  0.1668 -0.4386
 7843SOL    MW431146   1.385   4.876   5.928  0.5521  0.1768  0.2294
 7844SOL     OW31147   4.927   1.307   2.880 -0.4654  0.0339  0.1605
 7844SOL    HW231148   4.854   1.313   2.942 -1.0401 -1.0712 -0.3658
 7844SOL    HW331149   4.931   1.214   2.858 -0.0707  0.3586 -1.2199
 7844SOL    MW431150   4.918   1.295   2.885  0.8204  0.2107  0.2824
 7845SOL     OW31151   5.558   0.321   4.241  0.2144 -0.4986  0.1673
 7845SOL    HW231152   5.501   0.260   4.195 -1.1438 -0.4203  1.6579
 7845SOL    HW331153   5.598   0.269   4.311 -0.0252  0.0251  0.7074
 7845SOL    MW431154   5.556   0.306   4.244  0.4795 -0.3166 -0.3037
 7846SOL     OW31155   6.069   5.362   2.226  0.3839  0.0359 -0.2421
 7846SOL    HW231156   6.028   5.302   2.165 -0.5247 -2.4954  2.5907
 7846SOL    HW331157   6.152   5.386   2.185  0.4010 -2.5100 -1.8865
 7846SOL    MW431158   6.074   5.357   2.213 -0.9484 -1.1104  0.3079
 7847SOL     OW31159   5.204   4.664   2.792 -0.1237 -0.1817  0.3333
 7847SOL    HW231160   5.256   4.586   2.768  0.8184  0.8499 -1.1600
 7847SOL    HW331161   5.172   4.645   2.880  1.1765 -1.7123  0.5306
 7847SOL    MW431162   5.207   4.651   2.800 -0.5757  0.6436 -0.3524
 7848SOL     OW31163   4.186   3.087   4.583 -0.0106 -0.1229  0.0194
 7848SOL    HW231164   4.239   3.058   4.657 -0.5976  0.3867  0.6495
 7848SOL    HW331165   4.100   3.106   4.620  0.4563  2.9168 -0.2217
 7848SOL    MW431166   4.182   3.085   4.597 -0.2843  0.3713 -0.0140
 7849SOL     OW31167   2.315   3.111   0.494 -0.2336  0.4975 -0.5920
 7849SOL    HW231168   2.354   3.167   0.561  0.7471 -1.2883  0.4180
 7849SOL    HW331169   2.281   3.036   0.543  1.3987 -1.3591 -2.1120
 7849SOL    MW431170   2.316   3.108   0.509 -0.2241 -0.1276  0.2628
 7850SOL     OW31171   4.270   3.384   0.058 -0.3271  0.0787  0.0664
 7850SOL    HW231172   4.312   3.383  -0.029  1.7572  0.3331  1.0053
 7850SOL    HW331173   4.264   3.291   0.081 -1.4184 -0.0227 -0.5637
 7850SOL    MW431174   4.275   3.371   0.049 -0.1820 -0.4375  0.2727
 7851SOL     OW31175   1.595   1.412   3.712  0.3011 -0.0139  0.1096
 7851SOL    HW231176   1.686   1.423   3.739 -0.3012  0.2915  2.1921
 7851SOL    HW331177   1.588   1.463   3.631  1.6227  1.2317  0.7297
 7851SOL    MW431178   1.606   1.420   3.705  0.0449 -0.1031 -0.8893
 7852SOL     OW31179   3.890   4.021   5.134  0.5356  0.1059 -0.4830
 7852SOL    HW231180   3.913   3.931   5.112  0.9696  0.1788 -0.3273
 7852SOL    HW331181   3.891   4.024   5.229  0.3280  0.2257 -0.4844
 7852SOL    MW431182   3.893   4.009   5.143 -0.3172 -0.5232 -0.2016
 7853SOL     OW31183   1.001   0.369   1.336  0.0778  0.0300 -0.7651
 7853SOL    HW231184   1.006   0.456   1.295  0.1604 -0.5192 -1.9699
 7853SOL    HW331185   0.934   0.324   1.285 -0.1978 -0.5130  0.0684
 7853SOL    MW431186   0.993   0.375   1.324 -0.5226 -0.2282 -1.2885
 7854SOL     OW31187   6.251   0.175   3.081  0.4818  0.5563  0.0091
 7854SOL    HW231188   6.328   0.156   3.027  0.8263 -0.1520  0.7225
 7854SOL    HW331189   6.197   0.232   3.026  0.7075 -0.3243 -1.1642
 7854SOL    MW431190   6.254   0.180   3.067  0.4334  0.2403  0.0668
 7855SOL     OW31191   6.099   4.659   1.699 -0.0767  0.2403 -0.0565
 7855SOL    HW231192   6.077   4.752   1.695  0.0735  0.3632  1.4080
 7855SOL    HW331193   6.049   4.625   1.773 -0.0001 -0.8139 -0.4678
 7855SOL    MW431194   6.089   4.667   1.708 -0.0906 -0.0184 -0.3188
 7856SOL     OW31195   3.891   1.673   5.853  0.1387 -0.0802  0.4799
 7856SOL    HW231196   3.956   1.655   5.921  0.9300  1.1485  0.0842
 7856SOL    HW331197   3.808   1.645   5.891  0.6684 -0.1333  1.6486
 7856SOL    MW431198   3.889   1.667   5.867 -0.0624 -0.1360 -0.0614
 7857SOL     OW31199   4.855   0.503   2.212 -0.1871  0.3519  0.0173
 7857SOL    HW231200   4.872   0.570   2.145  0.6444 -0.6680 -0.8062
 7857SOL    HW331201   4.795   0.441   2.169 -1.6658  0.9865  1.0661
 7857SOL    MW431202   4.849   0.504   2.197 -0.7534  0.0049 -0.6949
 7858SOL     OW31203   3.616   4.590   3.641 -0.3560  0.1882  0.5757
 7858SOL    HW231204   3.615   4.511   3.694 -0.6567  0.6044  1.1943
 7858SOL    HW331205   3.551   4.573   3.572  1.4202 -1.1586 -0.9013
 7858SOL    MW431206   3.608   4.577   3.639 -0.2533  0.3912 -0.0763
 7859SOL     OW31207   2.614   4.445   3.671  0.2967 -0.3749 -0.2685
 7859SOL    HW231208   2.660   4.484   3.596 -0.3965 -1.4935 -1.3153
 7859SOL    HW331209   2.636   4.502   3.745  0.8652  0.8636 -1.3483
 7859SOL    MW431210   2.623   4.458   3.671  0.5586 -0.4676  0.0060
 7860SOL     OW31211   1.372   0.957   0.356  0.0200  0.0260 -0.2673
 7860SOL    HW231212   1.390   0.875   0.311  0.7277 -0.4674  0.8816
 7860SOL    HW331213   1.456   1.002   0.360 -0.0026 -0.0004  0.6652
 7860SOL    MW431214   1.385   0.952   0.351  0.1930  0.0635 -0.2348
 7861SOL     OW31215   2.008   0.716   4.611  0.8700  1.0226  0.0907
 7861SOL    HW231216   2.062   0.728   4.534 -0.2708  1.7700 -0.6209
 7861SOL    HW331217   2.068   0.683   4.678  2.0701  1.2926 -0.8278
 7861SOL    MW431218   2.023   0.714   4.610 -0.2154  0.1939 -0.5662
 7862SOL     OW31219   4.651   5.747   5.516 -0.6181 -0.2942 -0.2323
 7862SOL    HW231220   4.695   5.736   5.432 -0.6549  0.9620 -0.4305
 7862SOL    HW331221   4.564   5.709   5.503 -0.6676  0.0013 -0.8121
 7862SOL    MW431222   4.645   5.741   5.503  0.5857  0.2882  0.3393
 7863SOL     OW31223   0.959   2.296   2.567 -0.3307 -0.2535  0.1609
 7863SOL    HW231224   1.040   2.310   2.519 -0.9013 -1.7517 -1.3224
 7863SOL    HW331225   0.904   2.371   2.544  0.7963  1.0944  1.6593
 7863SOL    MW431226   0.962   2.307   2.558  0.3826  0.2034  0.1450
 7864SOL     OW31227   1.235   4.801   0.759  0.2183  0.7570  0.7307
 7864SOL    HW231228   1.204   4.877   0.808  0.3827  1.4065 -0.1478
 7864SOL    HW331229   1.159   4.770   0.711  0.3924  1.0301  0.2633
 7864SOL    MW431230   1.221   4.807   0.759  0.0358 -0.1861  0.5440
 7865SOL     OW31231   2.079   5.889   3.716 -0.5190  0.5181  0.7365
 7865SOL    HW231232   2.072   5.794   3.712  0.0117  0.3879  2.1164
 7865SOL    HW331233   1.991   5.921   3.698 -0.5297 -0.1842 -0.5449
 7865SOL    MW431234   2.067   5.881   3.713  0.2423  0.4475  0.0603
 7866SOL     OW31235   0.474   1.552   6.005 -0.1561 -0.2847 -0.0284
 7866SOL    HW231236   0.525   1.632   5.993 -0.0894  0.3536  3.3015
 7866SOL    HW331237   0.539   1.482   6.006  0.3285  0.1500  0.9922
 7866SOL    MW431238   0.489   1.553   6.004 -0.1225 -0.2285  0.0919
 7867SOL     OW31239   1.788   3.949   5.947  1.0448 -0.1361  0.2746
 7867SOL    HW231240   1.798   3.854   5.942 -0.2431 -0.2480 -0.8824
 7867SOL    HW331241   1.792   3.979   5.856  1.5494  0.9415  0.6316
 7867SOL    MW431242   1.790   3.941   5.934 -0.2237  0.4129  0.2826
 7868SOL     OW31243   3.837   3.437   2.385  0.2967 -0.2997  0.4329
 7868SOL    HW231244   3.825   3.385   2.464  1.6834 -1.5513 -0.1284
 7868SOL    HW331245   3.831   3.373   2.313  1.5122  0.3812 -0.3064
 7868SOL    MW431246   3.834   3.422   2.386  1.2064  0.4825  0.5908
 7869SOL     OW31247   2.821   0.772   5.994 -0.1552  0.1621  0.2566
 7869SOL    HW231248   2.762   0.719   5.941 -1.6037  0.6951  1.2842
 7869SOL    HW331249   2.836   0.851   5.941  0.1393 -0.2343 -0.2635
 7869SOL    MW431250   2.815   0.776   5.980 -0.1369 -0.1340 -0.3369
 7870SOL     OW31251   6.026   6.340   4.747  0.2689  0.4362  0.0512
 7870SOL    HW231252   5.968   6.410   4.775  0.4516  0.6566 -0.1109
 7870SOL    HW331253   6.000   6.264   4.798 -0.8574  0.2476 -0.7578
 7870SOL    MW431254   6.015   6.339   4.757 -0.5008  0.2995  0.2209
 7871SOL     OW31255   2.011   3.746   0.308 -0.2389  1.0572  0.5797
 7871SOL    HW231256   2.090   3.783   0.268  2.7080 -5.1451 -0.4280
 7871SOL    HW331257   1.949   3.738   0.235  1.5950 -1.6175 -0.8549
 7871SOL    MW431258   2.013   3.750   0.293  0.3289 -0.4255  0.2942
 7872SOL     OW31259   1.643   2.038   5.778  0.0144 -0.2753  0.4620
 7872SOL    HW231260   1.608   1.967   5.724  0.0257 -0.6505  0.9445
 7872SOL    HW331261   1.737   2.023   5.778  0.1233  0.3640 -0.3113
 7872SOL    MW431262   1.650   2.026   5.771  0.2587 -0.2158  0.2495
 7873SOL     OW31263   5.913   0.751   2.159 -0.3217 -0.4147 -0.0149
 7873SOL    HW231264   5.868   0.737   2.242  1.4980 -3.0662  0.6618
 7873SOL    HW331265   5.848   0.728   2.092 -0.5713 -2.4582  0.8605
 7873SOL    MW431266   5.898   0.746   2.161 -0.6946  0.5503  0.2513
 7874SOL     OW31267   5.641   0.915   1.795  0.1465  0.3768  0.2411
 7874SOL    HW231268   5.657   0.923   1.889 -0.3200  0.6932  0.2921
 7874SOL    HW331269   5.556   0.871   1.788 -0.1735  1.0298 -0.0307
 7874SOL    MW431270   5.632   0.910   1.806 -0.1229  0.0032  0.4095
 7875SOL     OW31271   1.740   2.705   2.288  0.1642 -0.6996  0.3582
 7875SOL    HW231272   1.760   2.611   2.283 -0.5263 -0.8246 -0.5648
 7875SOL    HW331273   1.674   2.711   2.357 -0.6396 -1.0905 -0.3367
 7875SOL    MW431274   1.734   2.693   2.296 -0.0798  0.4069  0.5490
 7876SOL     OW31275   4.051   3.263   2.032 -0.5804 -0.2468  0.5363
 7876SOL    HW231276   3.997   3.197   1.988 -1.1689 -0.2440  1.2394
 7876SOL    HW331277   4.107   3.212   2.091 -1.4314 -0.0946  1.4996
 7876SOL    MW431278   4.052   3.247   2.034 -0.0742  0.3306 -0.0902
 7877SOL     OW31279   3.995   4.402   4.747  0.2748  0.1648 -0.0897
 7877SOL    HW231280   4.078   4.445   4.727  0.0898  0.4947 -0.1555
 7877SOL    HW331281   3.981   4.420   4.840 -0.3702  1.2395 -0.3811
 7877SOL    MW431282   4.004   4.410   4.757 -0.1349 -0.0130 -0.1029
 7878SOL     OW31283   2.044   3.669   3.717 -0.7296  1.1868  0.3649
 7878SOL    HW231284   1.951   3.672   3.697 -1.1695 -1.5339  1.6482
 7878SOL    HW331285   2.087   3.671   3.631 -2.0930  0.0293 -0.3744
 7878SOL    MW431286   2.038   3.670   3.703  0.3410 -0.8708 -0.2490
 7879SOL     OW31287   6.074   1.632   5.709 -0.3166 -0.0449 -0.3220
 7879SOL    HW231288   5.998   1.604   5.658 -1.4544  1.0304  0.7311
 7879SOL    HW331289   6.131   1.555   5.712 -1.7115 -1.1105 -0.5125
 7879SOL    MW431290   6.072   1.618   5.703  0.2493  0.1690  0.2158
 7880SOL     OW31291   0.031   4.143   5.515 -0.1527 -0.2329  0.5646
 7880SOL    HW231292  -0.012   4.184   5.590 -0.4860  2.2994 -0.8581
 7880SOL    HW331293   0.020   4.049   5.528  0.1123  0.0850  3.8073
 7880SOL    MW431294   0.024   4.136   5.527  0.8648  0.8822  0.2920
 7881SOL     OW31295   4.796   5.281   4.645 -0.1135 -0.2165  0.3265
 7881SOL    HW231296   4.839   5.215   4.592 -1.4272 -1.3640  0.6486
 7881SOL    HW331297   4.850   5.287   4.724  1.0036  0.4203 -0.4575
 7881SOL    MW431298   4.809   5.273   4.649  0.0764 -0.2612  0.0827
 7882SOL     OW31299   1.584   1.766   6.043 -0.1279 -0.6879 -0.2610
 7882SOL    HW231300   1.521   1.828   6.080  0.8724  0.6487 -0.7023
 7882SOL    HW331301   1.668   1.810   6.052  0.4701 -1.5025 -1.6160
 7882SOL    MW431302   1.586   1.780   6.049  0.1756 -0.1214  0.2453
 7883SOL     OW31303   5.209   5.880   0.847  0.4047  0.5704 -0.0695
 7883SOL    HW231304   5.188   5.970   0.870 -0.2110  0.8266 -1.5633
 7883SOL    HW331305   5.172   5.867   0.760  0.2368 -1.2200  0.2180
 7883SOL    MW431306   5.202   5.890   0.839 -0.5094 -0.4176 -0.3793
 7884SOL     OW31307   5.485   2.494   6.304  0.0567 -0.6087  0.1867
 7884SOL    HW231308   5.450   2.576   6.339  2.4233  1.1544 -1.2314
 7884SOL    HW331309   5.479   2.431   6.376 -1.7939  0.8004  1.3322
 7884SOL    MW431310   5.480   2.496   6.318 -0.0358  0.4277 -0.1075
 7885SOL     OW31311   4.031   2.279   4.750  0.1107 -0.5902  0.2332
 7885SOL    HW231312   3.943   2.270   4.787  0.0691 -1.3708 -0.0413
 7885SOL    HW331313   4.044   2.199   4.699  1.2365 -0.7985  0.8106
 7885SOL    MW431314   4.021   2.267   4.748  0.0421  0.0510  0.7727
 7886SOL     OW31315   3.701   3.033   3.076  0.2422  0.1202  0.1613
 7886SOL    HW231316   3.768   2.968   3.056 -2.8978 -3.7090  1.0234
 7886SOL    HW331317   3.673   3.013   3.165 -2.7158  0.8484 -0.4994
 7886SOL    MW431318   3.706   3.022   3.085  0.4703  0.5561  0.6113
 7887SOL     OW31319   4.258   5.142   5.105 -0.1996 -0.1517 -0.0236
 7887SOL    HW231320   4.231   5.052   5.087 -1.0294  0.1023 -0.0907
 7887SOL    HW331321   4.344   5.150   5.063 -0.3821 -0.7307 -0.5216
 7887SOL    MW431322   4.266   5.131   5.097 -0.6594 -0.0002  0.5174
 7888SOL     OW31323   5.445   6.178   2.848  0.4241 -0.1730 -0.1240
 7888SOL    HW231324   5.387   6.102   2.850 -1.1945  1.0120 -0.2338
 7888SOL    HW331325   5.485   6.176   2.761 -0.5025 -0.2716 -0.5576
 7888SOL    MW431326   5.443   6.168   2.836 -0.1078  0.2931  0.2428
 7889SOL     OW31327   4.627   1.688   0.638 -0.9807 -0.2450  0.8578
 7889SOL    HW231328   4.669   1.754   0.583  0.7110 -1.3409  0.7724
 7889SOL    HW331329   4.601   1.736   0.717 -2.5141  1.1219 -0.4095
 7889SOL    MW431330   4.629   1.703   0.641 -0.0971 -0.1822 -0.5608
 7890SOL     OW31331   2.045   3.808   2.738 -1.0229 -0.4817 -0.0347
 7890SOL    HW231332   2.018   3.890   2.780 -0.1167  0.0887 -0.5375
 7890SOL    HW331333   1.980   3.795   2.668 -1.5489 -0.5380  0.4622
 7890SOL    MW431334   2.033   3.817   2.734 -0.1462  0.4593 -0.6736
 7891SOL     OW31335   4.573   4.273   0.848 -0.3498  0.4156 -0.3745
 7891SOL    HW231336   4.534   4.282   0.935 -1.6396  1.7776 -1.0385
 7891SOL    HW331337   4.639   4.342   0.845  1.3800 -1.1491  0.3325
 7891SOL    MW431338   4.576   4.283   0.860  0.3042 -0.0657  0.1022
 7892SOL     OW31339   0.351   0.714   2.904 -0.6377  0.0559 -0.5406
 7892SOL    HW231340   0.364   0.806   2.882 -0.2746  0.1572  0.0642
 7892SOL    HW331341   0.284   0.715   2.973  0.3295 -0.0214  0.4176
 7892SOL    MW431342   0.344   0.726   2.910  0.1664  0.4448  0.4429
 7893SOL     OW31343   6.161   2.331   1.756  0.0125  0.2471  0.0755
 7893SOL    HW231344   6.152   2.294   1.844 -1.4988  1.0682  0.2987
 7893SOL    HW331345   6.150   2.255   1.697  0.7461 -0.2549  0.5715
 7893SOL    MW431346   6.158   2.316   1.760  0.9400 -0.1814  0.2363
 7894SOL     OW31347   6.161   5.227   4.965  0.2799 -0.2545 -0.0004
 7894SOL    HW231348   6.126   5.242   5.053 -1.7174 -0.3842 -0.7401
 7894SOL    HW331349   6.206   5.309   4.943  1.3494 -0.4331  1.3494
 7894SOL    MW431350   6.163   5.240   4.974 -0.2531 -0.1320  0.3447
 7895SOL     OW31351   0.335   2.606   5.771 -0.0502  0.2386 -0.0178
 7895SOL    HW231352   0.332   2.522   5.819 -1.5844  0.0826 -0.3352
 7895SOL    HW331353   0.269   2.660   5.814  1.0728  1.4030  0.3187
 7895SOL    MW431354   0.326   2.602   5.783  0.5861  0.0263  0.0573
 7896SOL     OW31355   1.735   5.174   5.797  0.1850 -0.0686 -0.4680
 7896SOL    HW231356   1.828   5.171   5.773 -0.0101 -1.2116 -1.1638
 7896SOL    HW331357   1.735   5.157   5.891  0.7548  1.2749 -0.2026
 7896SOL    MW431358   1.747   5.171   5.806  0.1816  0.0496 -0.1951
 7897SOL     OW31359   3.490   0.279   1.778  0.9580 -0.1437  0.6993
 7897SOL    HW231360   3.470   0.194   1.818 -0.1390 -0.6933 -0.9103
 7897SOL    HW331361   3.405   0.310   1.746  1.5189  1.1060  0.3897
 7897SOL    MW431362   3.476   0.271   1.779  0.4086  0.5006 -0.3391
 7898SOL     OW31363   0.154   0.837   2.161  0.0273  0.1059 -0.1820
 7898SOL    HW231364   0.212   0.806   2.231 -0.9789 -0.8992  0.2343
 7898SOL    HW331365   0.081   0.878   2.208  0.1477  0.9364 -0.6974
 7898SOL    MW431366   0.152   0.838   2.177  0.3089 -0.3436  0.6339
 7899SOL     OW31367   0.561   5.064   3.958  0.3200  0.1850 -0.8221
 7899SOL    HW231368   0.579   5.004   4.030 -2.1149  0.1755 -0.1406
 7899SOL    HW331369   0.564   5.151   3.997  0.3818  0.2779 -1.0296
 7899SOL    MW431370   0.564   5.068   3.972 -0.0010 -0.3168  0.8933
 7900SOL     OW31371   3.528   1.822   0.213 -0.2625 -0.1512 -0.0248
 7900SOL    HW231372   3.495   1.850   0.298  1.1154 -0.7785  0.7574
 7900SOL    HW331373   3.622   1.809   0.227  0.1319  0.4368 -1.8434
 7900SOL    MW431374   3.536   1.824   0.226 -0.1615 -0.1004  0.6228
 7901SOL     OW31375   3.513   2.077   5.292  0.4342 -0.4103  0.1399
 7901SOL    HW231376   3.474   2.031   5.366  0.5386  0.9453  1.0661
 7901SOL    HW331377   3.603   2.046   5.290  0.2379 -0.9873  0.1319
 7901SOL    MW431378   3.520   2.067   5.302 -0.0019 -0.0141  0.7773
 7902SOL     OW31379   0.938   4.632   5.993 -0.0945  0.6029  0.2166
 7902SOL    HW231380   0.926   4.541   6.020  1.4941  0.2535 -0.1722
 7902SOL    HW331381   0.939   4.628   5.897 -0.3362  1.0871  0.1914
 7902SOL    MW431382   0.937   4.620   5.984  0.4888  1.0493  0.3278
 7903SOL     OW31383   0.104   2.756   3.204 -0.3252  0.1014 -0.0693
 7903SOL    HW231384   0.009   2.769   3.201 -0.4788 -0.9205 -0.0985
 7903SOL    HW331385   0.140   2.842   3.226 -1.3352  0.2519  1.0808
 7903SOL    MW431386   0.096   2.769   3.206  0.5283  0.4496 -0.7195
 7904SOL     OW31387   4.460   3.559   1.726  0.2793 -0.0448 -0.7014
 7904SOL    HW231388   4.413   3.567   1.808  2.2500  0.8620  0.4043
 7904SOL    HW331389   4.418   3.623   1.668 -0.4858  0.0171 -0.0971
 7904SOL    MW431390   4.448   3.568   1.729  0.7131  0.1415  0.1468
 7905SOL     OW31391   4.741   2.769   1.811 -0.6240 -0.2498  0.1144
 7905SOL    HW231392   4.683   2.694   1.796 -0.2725  0.0073 -3.3401
 7905SOL    HW331393   4.823   2.744   1.769 -0.2563  1.7397 -0.4300
 7905SOL    MW431394   4.744   2.756   1.804 -0.0287  0.5118  0.0823
 7906SOL     OW31395   4.472   2.533   4.578  0.0368 -0.2435 -0.2456
 7906SOL    HW231396   4.528   2.610   4.589 -1.4633  0.7470  0.9682
 7906SOL    HW331397   4.514   2.465   4.629  0.4291  0.3217  0.1983
 7906SOL    MW431398   4.485   2.534   4.586  0.0157 -0.4680  0.3571
 7907SOL     OW31399   1.362   2.070   1.170  0.2398  0.3763  0.4029
 7907SOL    HW231400   1.315   2.152   1.183  0.0010  0.1922  0.7265
 7907SOL    HW331401   1.443   2.094   1.127 -0.2263  0.6902 -0.3222
 7907SOL    MW431402   1.366   2.084   1.166  0.2757  0.0523 -1.0717
 7908SOL     OW31403   1.612   5.621   0.784 -0.3912  0.1657 -0.2203
 7908SOL    HW231404   1.621   5.586   0.872 -2.4571  1.3838  0.5345
 7908SOL    HW331405   1.641   5.550   0.727 -2.0988 -1.8946  1.3336
 7908SOL    MW431406   1.617   5.607   0.788  0.3603 -0.0074 -0.2207
 7909SOL     OW31407   1.274   0.540   1.993  0.0463 -0.2038  0.3206
 7909SOL    HW231408   1.332   0.599   2.042 -0.0457  0.7721 -0.7037
 7909SOL    HW331409   1.191   0.588   1.988 -0.6843 -1.3090  1.2065
 7909SOL    MW431410   1.271   0.554   1.999  0.6100 -0.1166  0.1700
 7910SOL     OW31411   4.399   3.235   4.965  0.0730 -0.5986 -0.0437
 7910SOL    HW231412   4.328   3.267   5.021 -0.0723 -0.8420 -0.0881
 7910SOL    HW331413   4.469   3.300   4.975 -0.8648  0.6994 -1.5156
 7910SOL    MW431414   4.399   3.248   4.974  0.7874 -0.6504  0.9082
 7911SOL     OW31415   2.738   0.808   0.192 -0.3982  0.5056  0.3993
 7911SOL    HW231416   2.792   0.835   0.266  1.3694  0.3570 -0.7855
 7911SOL    HW331417   2.737   0.884   0.134 -0.4296  0.0691 -0.1775
 7911SOL    MW431418   2.745   0.822   0.194 -0.0618  0.3134  0.0199
 7912SOL     OW31419   5.235   1.296   5.890 -0.6209  0.0276  0.1434
 7912SOL    HW231420   5.257   1.345   5.969  0.7503 -1.0489  0.4646
 7912SOL    HW331421   5.278   1.344   5.819  0.8940 -0.7590  0.4841
 7912SOL    MW431422   5.244   1.309   5.891  0.3038  0.0900 -0.5589
 7913SOL     OW31423   3.873   2.896   0.394  0.3998  0.0133 -0.2533
 7913SOL    HW231424   3.851   2.957   0.325 -0.3389 -0.5942 -0.5698
 7913SOL    HW331425   3.834   2.933   0.473 -1.6028 -0.9064 -0.7547
 7913SOL    MW431426   3.865   2.909   0.396 -0.2037  0.2178  0.1813
 7914SOL     OW31427   4.942   1.078   0.150 -0.5672 -0.1959 -0.0902
 7914SOL    HW231428   5.000   1.096   0.224 -0.8248  1.4192 -0.2290
 7914SOL    HW331429   4.866   1.035   0.188  0.9940 -3.0774 -0.0112
 7914SOL    MW431430   4.939   1.075   0.165  0.7023  0.5290 -0.1830
 7915SOL     OW31431   0.480   1.792   4.295 -0.1202 -0.7225 -0.3849
 7915SOL    HW231432   0.467   1.726   4.363  0.5968  0.7964  1.3179
 7915SOL    HW331433   0.400   1.845   4.298 -0.4680 -1.1678 -1.3719
 7915SOL    MW431434   0.467   1.791   4.304 -0.2778 -0.0888 -0.4294
 7916SOL     OW31435   0.247   0.553   4.972 -0.2233 -0.0786 -0.0658
 7916SOL    HW231436   0.256   0.464   4.938  1.8097  0.4878 -1.1502
 7916SOL    HW331437   0.254   0.542   5.067  0.4671 -1.0318 -0.2112
 7916SOL    MW431438   0.249   0.540   4.980 -0.3664 -0.1177 -0.0093
 7917SOL     OW31439   3.216   3.450   3.906  0.4831  0.1239 -0.4659
 7917SOL    HW231440   3.282   3.476   3.971 -0.2602  0.6269  0.1083
 7917SOL    HW331441   3.246   3.489   3.824  1.0649  0.0760 -0.2810
 7917SOL    MW431442   3.229   3.458   3.904 -0.1018 -0.3178 -0.0029
 7918SOL     OW31443   5.463   4.992   3.902 -0.0901  0.2918  0.1515
 7918SOL    HW231444   5.424   5.013   3.817 -2.5788 -1.0141  0.8763
 7918SOL    HW331445   5.508   4.909   3.888  0.8499  0.8533 -0.2343
 7918SOL    MW431446   5.464   4.984   3.889  0.0685 -0.4466  0.4530
 7919SOL     OW31447   3.161   1.733   5.022  0.4104 -0.4332  0.0380
 7919SOL    HW231448   3.205   1.667   4.968  0.7662 -0.7507  0.7015
 7919SOL    HW331449   3.229   1.798   5.039 -0.0116  0.2655 -0.8416
 7919SOL    MW431450   3.176   1.733   5.017 -0.4534 -0.5961 -0.1705
 7920SOL     OW31451   2.480   6.088   6.056  0.0308  0.0627 -0.3067
 7920SOL    HW231452   2.516   6.060   6.141 -0.2722 -0.7785 -0.4408
 7920SOL    HW331453   2.518   6.174   6.041  0.7680 -0.1430  0.2890
 7920SOL    MW431454   2.490   6.095   6.065  0.1390  0.2483 -0.3233
 7921SOL     OW31455   6.037   4.088   3.593 -0.2444 -0.2730  0.0033
 7921SOL    HW231456   5.956   4.135   3.614  0.6297  0.1417  2.8512
 7921SOL    HW331457   6.094   4.154   3.554 -0.8353 -0.2800 -0.8934
 7921SOL    MW431458   6.034   4.103   3.591  0.0958  0.2886 -0.0481
 7922SOL     OW31459   3.356   2.693   3.664  0.4230  0.1010 -0.4536
 7922SOL    HW231460   3.294   2.636   3.709 -0.4147  1.1207 -0.2558
 7922SOL    HW331461   3.327   2.782   3.688  1.6968  0.6046 -0.7184
 7922SOL    MW431462   3.344   2.698   3.673  0.2802 -0.0927  0.3437
 7923SOL     OW31463   3.052   1.038   0.100 -0.3305  0.0553 -0.3569
 7923SOL    HW231464   3.090   1.123   0.121  0.2588  0.0801 -1.4723
 7923SOL    HW331465   2.961   1.056   0.077 -0.7434  0.1336  1.2402
 7923SOL    MW431466   3.045   1.051   0.100  0.1797 -0.4324 -0.5037
 7924SOL     OW31467   0.354   5.493   4.092 -0.1195  0.2166  0.3984
 7924SOL    HW231468   0.298   5.416   4.080  0.8303 -0.4013 -0.1630
 7924SOL    HW331469   0.345   5.514   4.185 -0.5601 -0.4353  0.5134
 7924SOL    MW431470   0.346   5.485   4.103  0.2788  0.3875  0.8356
 7925SOL     OW31471   4.467   1.478   3.915  0.2739  0.0194 -0.0690
 7925SOL    HW231472   4.411   1.521   3.980  0.1419 -0.4609  0.1409
 7925SOL    HW331473   4.413   1.474   3.836  0.0390 -0.3771  0.1122
 7925SOL    MW431474   4.452   1.483   3.913 -0.1378 -0.2534  0.6285
 7926SOL     OW31475   6.401   4.221   2.672 -0.0179 -0.3545 -0.4810
 7926SOL    HW231476   6.393   4.196   2.764  1.6634 -0.0700 -0.2300
 7926SOL    HW331477   6.469   4.164   2.637  1.3143  1.3721 -0.8217
 7926SOL    MW431478   6.409   4.210   2.679 -0.1797  0.3416  0.0593
 7927SOL     OW31479   1.036   3.077   1.370  0.2484  0.6001 -1.3287
 7927SOL    HW231480   1.101   3.085   1.301 -0.1123  2.1762 -1.5356
 7927SOL    HW331481   0.957   3.047   1.325  0.7651 -1.1760 -1.1001
 7927SOL    MW431482   1.034   3.074   1.355 -0.4648  0.5060 -0.1518
 7928SOL     OW31483   4.582   2.376   2.879 -0.0356  0.1797 -0.1896
 7928SOL    HW231484   4.512   2.311   2.872 -1.1551  1.4060 -1.1362
 7928SOL    HW331485   4.553   2.435   2.949  0.1438  0.5886 -0.4547
 7928SOL    MW431486   4.569   2.376   2.887 -0.3023 -0.0030 -0.3111
 7929SOL     OW31487   2.205   2.490   1.942 -0.6557  0.0417 -0.4647
 7929SOL    HW231488   2.224   2.580   1.967  1.4477 -0.0722 -1.4558
 7929SOL    HW331489   2.172   2.449   2.022 -1.5598  1.6320  0.0130
 7929SOL    MW431490   2.203   2.496   1.956 -0.1414  0.0911  0.4758
 7930SOL     OW31491   4.492   4.233   3.658 -0.9949  0.2378  0.4892
 7930SOL    HW231492   4.538   4.297   3.712  0.8131  0.6164 -1.3848
 7930SOL    HW331493   4.532   4.241   3.572 -2.5208 -1.6166 -0.4639
 7930SOL    MW431494   4.503   4.242   3.654 -0.1976 -0.6669  0.2049
 7931SOL     OW31495   6.320   5.498   6.332 -0.0026  0.3615 -0.3344
 7931SOL    HW231496   6.298   5.526   6.243  0.2444 -1.9891 -1.2061
 7931SOL    HW331497   6.240   5.454   6.364  0.5044 -0.4437 -0.1386
 7931SOL    MW431498   6.306   5.496   6.324  0.2203  0.0992 -0.1372
 7932SOL     OW31499   1.210   4.007   1.826  0.2889 -0.6148  0.1383
 7932SOL    HW231500   1.208   4.092   1.781  0.9087 -1.1442 -0.9352
 7932SOL    HW331501   1.137   4.011   1.888  0.5373  0.8324  0.3588
 7932SOL    MW431502   1.200   4.019   1.828 -0.2388  0.0938  0.0425
 7933SOL     OW31503   4.410   1.697   2.277 -0.1454  0.9365 -0.2552
 7933SOL    HW231504   4.382   1.634   2.344  1.8434 -1.5712 -1.5747
 7933SOL    HW331505   4.459   1.763   2.326 -1.7551  1.1775  1.1221
 7933SOL    MW431506   4.413   1.697   2.292 -0.8883  0.1034  0.2493
 7934SOL     OW31507   2.951   1.606   2.374 -0.5262 -0.5603 -0.1182
 7934SOL    HW231508   2.881   1.618   2.310 -0.5391 -0.0832 -0.0256
 7934SOL    HW331509   2.957   1.691   2.418  0.1860 -0.5637 -0.1977
 7934SOL    MW431510   2.943   1.619   2.372  0.2882  0.1656  0.3441
 7935SOL     OW31511   3.896   4.064   4.874  0.1493  0.4868  0.3552
 7935SOL    HW231512   3.898   3.973   4.844 -0.6986  0.5592  0.0556
 7935SOL    HW331513   3.905   4.058   4.969 -0.6421  0.0376  0.4124
 7935SOL    MW431514   3.898   4.051   4.882 -0.5577 -0.0410 -0.4019
 7936SOL     OW31515   5.079   3.028   3.071  0.3213  0.5756  0.4288
 7936SOL    HW231516   5.113   2.996   3.154 -0.7885 -0.6643  0.4494
 7936SOL    HW331517   5.133   2.985   3.005 -0.8624 -1.0841  0.4710
 7936SOL    MW431518   5.091   3.018   3.073 -0.1417 -0.0237  0.5199
 7937SOL     OW31519   4.819   4.883   4.535 -0.0538 -0.2905  0.4007
 7937SOL    HW231520   4.734   4.858   4.570  0.5149 -2.2368  0.5283
 7937SOL    HW331521   4.872   4.901   4.613  0.4297 -1.9499  0.5128
 7937SOL    MW431522   4.815   4.882   4.550  1.0357  0.1967  0.3411
 7938SOL     OW31523   3.540   2.221   4.853  0.3845 -0.2326  0.2025
 7938SOL    HW231524   3.476   2.245   4.786  0.6573 -0.3607 -0.1043
 7938SOL    HW331525   3.509   2.137   4.888  0.1062 -0.0449  0.4153
 7938SOL    MW431526   3.527   2.213   4.849  0.0348  0.3101 -0.6964
 7939SOL     OW31527   1.514   0.184   6.310 -0.5424  0.4651 -0.2546
 7939SOL    HW231528   1.600   0.140   6.312  0.7038  2.7249 -0.8279
 7939SOL    HW331529   1.475   0.156   6.228  0.3929  0.6844 -0.7949
 7939SOL    MW431530   1.520   0.174   6.300  0.1192  0.7843  0.1121
 7940SOL     OW31531   1.235   2.245   6.153 -0.0720 -0.5079  0.2734
 7940SOL    HW231532   1.219   2.339   6.145 -0.8119 -0.5959  0.7162
 7940SOL    HW331533   1.213   2.210   6.067 -2.9246 -0.7080  0.9925
 7940SOL    MW431534   1.230   2.253   6.140  0.7932 -0.4742 -0.2152
 7941SOL     OW31535   5.803   1.105   2.030  0.5752 -0.7471 -0.3139
 7941SOL    HW231536   5.840   1.057   1.956  0.0197 -0.7975 -0.5622
 7941SOL    HW331537   5.737   1.046   2.067  2.3176 -1.6651  1.5971
 7941SOL    MW431538   5.799   1.091   2.025 -0.0054  0.0495 -0.2404
 7942SOL     OW31539   3.827   4.944   1.771  0.0105 -0.3584  0.3078
 7942SOL    HW231540   3.794   4.999   1.842 -0.8971 -1.6113  0.8973
 7942SOL    HW331541   3.906   4.989   1.741  0.6833 -0.0335  2.4151
 7942SOL    MW431542   3.833   4.958   1.776 -0.6014 -0.6609  0.3610
 7943SOL     OW31543   4.502   4.517   0.606 -0.0063 -0.1360 -0.0915
 7943SOL    HW231544   4.554   4.481   0.534 -0.0914 -0.3275 -0.0585
 7943SOL    HW331545   4.425   4.461   0.610  0.8207 -1.2661  1.3058
 7943SOL    MW431546   4.499   4.505   0.597  0.3904  0.2107  0.4850
 7944SOL     OW31547   0.817   2.378   3.287  1.1163 -0.2180 -0.5575
 7944SOL    HW231548   0.779   2.452   3.239 -0.7448  0.7053  2.0912
 7944SOL    HW331549   0.906   2.406   3.308 -0.3111  2.6744  2.6592
 7944SOL    MW431550   0.823   2.391   3.283 -0.0102  0.0381 -0.0041
 7945SOL     OW31551   3.312   3.963   6.015 -0.4250  0.0207 -0.4747
 7945SOL    HW231552   3.335   3.885   5.965 -1.8261 -0.0998 -0.9737
 7945SOL    HW331553   3.396   3.996   6.048  0.1443 -2.0443  0.3064
 7945SOL    MW431554   3.326   3.957   6.013 -0.0532 -0.0395 -0.4372
 7946SOL     OW31555   3.910   2.497   1.116  0.4495  0.4457 -0.3608
 7946SOL    HW231556   3.843   2.505   1.184  1.6984 -1.5397  1.2280
 7946SOL    HW331557   3.979   2.559   1.142  1.1498 -0.6641  0.5459
 7946SOL    MW431558   3.910   2.506   1.128  0.1999 -0.0718  0.5854
 7947SOL     OW31559   2.369   4.265   5.806 -0.2003  0.6561 -0.3647
 7947SOL    HW231560   2.322   4.198   5.756 -0.2048 -0.9420  1.6569
 7947SOL    HW331561   2.306   4.294   5.872  0.8350  0.2305  0.8573
 7947SOL    MW431562   2.354   4.260   5.808 -0.5812 -0.2574  0.4636
 7948SOL     OW31563   2.706   0.184   5.970  0.3917 -0.5103 -0.9859
 7948SOL    HW231564   2.679   0.259   6.024 -0.7589 -1.3105 -0.3973
 7948SOL    HW331565   2.729   0.223   5.886 -1.0057  0.4510 -0.9723
 7948SOL    MW431566   2.705   0.199   5.966  0.3178  0.6099  0.3886
 7949SOL     OW31567   6.346   1.455   2.968  0.3073 -0.4542  0.0620
 7949SOL    HW231568   6.361   1.508   2.889  2.5926 -0.5703  0.3500
 7949SOL    HW331569   6.252   1.460   2.983 -0.2179 -0.4883 -2.7092
 7949SOL    MW431570   6.336   1.463   2.959  0.2202  0.9040 -0.0325
 7950SOL     OW31571   5.853   2.363   2.742 -0.6613 -0.1231  0.4596
 7950SOL    HW231572   5.917   2.301   2.775 -1.6516 -0.7814  1.1880
 7950SOL    HW331573   5.819   2.322   2.662 -0.5679 -0.0222  0.3670
 7950SOL    MW431574   5.857   2.349   2.736  0.2717 -0.0189  0.2381
 7951SOL     OW31575   4.728   3.920   2.892  0.5688 -0.2091 -0.1564
 7951SOL    HW231576   4.798   3.858   2.911  1.4643  0.2435 -1.8067
 7951SOL    HW331577   4.772   3.995   2.852 -0.7241  0.6048 -0.1215
 7951SOL    MW431578   4.743   3.922   2.889 -0.0563  0.2761 -0.2291
 7952SOL     OW31579   4.256   2.612   1.992 -0.5542  0.2603 -0.0325
 7952SOL    HW231580   4.245   2.692   1.940 -0.7711  0.1365 -0.1773
 7952SOL    HW331581   4.278   2.545   1.927 -0.0452  0.2713  0.1259
 7952SOL    MW431582   4.258   2.613   1.977 -0.9193  0.7843 -0.2752
 7953SOL     OW31583   3.063   2.812   4.036 -0.2727 -0.4033 -0.1703
 7953SOL    HW231584   3.100   2.803   3.948  1.8658 -2.8204  0.8100
 7953SOL    HW331585   2.979   2.766   4.031 -0.9860  0.9411 -1.2908
 7953SOL    MW431586   3.057   2.804   4.023 -0.6882  0.1540  0.2162
 7954SOL     OW31587   2.059   2.483   2.411  0.5780 -0.4844 -0.1135
 7954SOL    HW231588   2.059   2.416   2.480  2.3134 -1.9550 -1.4166
 7954SOL    HW331589   2.116   2.552   2.445 -1.2155  0.4178  1.2383
 7954SOL    MW431590   2.067   2.483   2.425  0.0749  0.4172  0.0569
 7955SOL     OW31591   5.532   3.518   0.581 -0.1632  0.1675  0.5003
 7955SOL    HW231592   5.566   3.430   0.597  0.0791  0.5049  2.0201
 7955SOL    HW331593   5.439   3.505   0.563  0.1464 -0.5030 -0.7265
 7955SOL    MW431594   5.525   3.505   0.581  0.3186 -0.1686  0.2877
 7956SOL     OW31595   0.644   3.853   1.932  0.0276 -0.1322 -0.8738
 7956SOL    HW231596   0.627   3.814   1.846  1.4514  0.5315 -1.4779
 7956SOL    HW331597   0.559   3.848   1.977 -0.1609 -2.7630 -1.3540
 7956SOL    MW431598   0.630   3.847   1.927 -0.3021  0.4165  0.1411
 7957SOL     OW31599   4.529   1.153   3.024 -0.6779  0.2260 -0.2209
 7957SOL    HW231600   4.555   1.236   2.984 -1.8648  1.4690  1.4671
 7957SOL    HW331601   4.434   1.150   3.012 -0.5416 -1.5297 -1.3294
 7957SOL    MW431602   4.520   1.164   3.017 -0.1619  0.5018 -0.0863
 7958SOL     OW31603   1.352   4.232   4.008 -0.1360 -0.2363  0.0603
 7958SOL    HW231604   1.424   4.169   4.001  0.1018 -0.0218  0.4992
 7958SOL    HW331605   1.286   4.199   3.948  0.7257  0.1118 -1.1220
 7958SOL    MW431606   1.353   4.219   3.999  0.0885  0.5852 -0.0391
 7959SOL     OW31607   5.873   0.657   4.256 -0.5548 -0.3217 -0.3534
 7959SOL    HW231608   5.797   0.656   4.315 -0.6437 -0.4436 -0.4703
 7959SOL    HW331609   5.942   0.613   4.307 -0.7241 -0.7206 -0.4602
 7959SOL    MW431610   5.872   0.651   4.271  0.0612  0.0949  0.5233
 7960SOL     OW31611   1.139   1.094   3.233 -0.4679 -0.5686  0.1424
 7960SOL    HW231612   1.190   1.047   3.167  1.8826 -0.0628  1.4767
 7960SOL    HW331613   1.200   1.106   3.306 -1.4319  3.0877  0.5452
 7960SOL    MW431614   1.153   1.089   3.234  0.3041  0.0335 -0.1564
 7961SOL     OW31615   6.321   3.515  -0.009  0.2291 -0.2453  0.0673
 7961SOL    HW231616   6.315   3.475   0.078  1.4763 -1.2752 -0.2898
 7961SOL    HW331617   6.312   3.441  -0.069  1.2011  0.2018 -0.6435
 7961SOL    MW431618   6.319   3.500  -0.005  0.3923 -0.2477  0.1390
 7962SOL     OW31619   1.134   4.448   3.869  0.5536 -0.1628 -0.6240
 7962SOL    HW231620   1.039   4.438   3.872  0.4749  0.7098  0.2452
 7962SOL    HW331621   1.167   4.362   3.843 -0.2383 -1.7566  2.9873
 7962SOL    MW431622   1.126   4.435   3.866 -0.3750  0.3307 -0.1032
 7963SOL     OW31623   2.745   1.168   5.183 -0.5151 -0.1510  0.0036
 7963SOL    HW231624   2.807   1.238   5.201  0.6748 -1.2173  0.2277
 7963SOL    HW331625   2.799   1.092   5.162 -1.7671 -0.7340 -1.3759
 7963SOL    MW431626   2.760   1.167   5.183 -0.4406  0.4679 -0.1163
 7964SOL     OW31627   2.166   6.056   0.625 -0.0551  0.3281  0.4200
 7964SOL    HW231628   2.233   6.097   0.679 -1.2995  1.6550  1.0145
 7964SOL    HW331629   2.188   5.963   0.627  1.4094  0.6556  1.0823
 7964SOL    MW431630   2.178   6.049   0.632  0.1181 -0.1433  0.3221
 7965SOL     OW31631   6.215   2.851   5.238 -0.0718 -0.0425 -0.2123
 7965SOL    HW231632   6.208   2.946   5.227 -0.9321 -0.0072  0.5644
 7965SOL    HW331633   6.307   2.836   5.258  0.3107  0.4992 -1.4404
 7965SOL    MW431634   6.226   2.862   5.239 -0.5055  0.4090  0.1075
 7966SOL     OW31635   3.313   1.376   2.392  0.1504  0.2106  0.0059
 7966SOL    HW231636   3.313   1.456   2.444  0.2124  0.9531 -1.0928
 7966SOL    HW331637   3.220   1.361   2.371  0.1681  0.1583 -0.0365
 7966SOL    MW431638   3.301   1.384   2.396 -0.0365 -0.2149  0.8164
 7967SOL     OW31639   0.574   4.346   5.917 -0.0570  0.3300 -0.3470
 7967SOL    HW231640   0.648   4.292   5.888  0.8753  1.1676  0.4086
 7967SOL    HW331641   0.600   4.377   6.004 -0.8229  1.5102 -0.5226
 7967SOL    MW431642   0.587   4.343   5.925 -0.4826 -0.1007 -0.4224
 7968SOL     OW31643   3.807   3.482   0.449 -0.6919 -0.6616 -0.4762
 7968SOL    HW231644   3.839   3.509   0.536 -1.5613  0.0991 -0.3819
 7968SOL    HW331645   3.887   3.469   0.398 -0.1861  1.6213 -0.3687
 7968SOL    MW431646   3.822   3.484   0.454 -0.1731 -0.5286 -0.6958
 7969SOL     OW31647   2.399   1.794   0.291 -0.0324 -0.0038  0.1390
 7969SOL    HW231648   2.413   1.792   0.386  0.2250 -0.3379  0.0971
 7969SOL    HW331649   2.455   1.865   0.260 -0.8779  0.7859  0.3489
 7969SOL    MW431650   2.408   1.803   0.300  0.6435  0.4656 -0.4267
 7970SOL     OW31651   4.961   3.524   6.257  0.1219  0.2379  0.0434
 7970SOL    HW231652   5.057   3.533   6.261  0.1603 -0.1913  0.1576
 7970SOL    HW331653   4.942   3.448   6.312 -0.0563 -1.1610 -1.8399
 7970SOL    MW431654   4.971   3.515   6.264  0.0934 -0.0227  0.3217
 7971SOL     OW31655   1.682   5.973   5.077  0.3667  0.5968 -0.3300
 7971SOL    HW231656   1.766   5.955   5.119 -0.6198 -2.9376  0.5006
 7971SOL    HW331657   1.629   5.896   5.096 -2.6621  2.0955 -1.9374
 7971SOL    MW431658   1.686   5.960   5.085  0.3831  0.4501  0.2362
 7972SOL     OW31659   4.699   6.002   3.786  0.2190  0.3312  0.2676
 7972SOL    HW231660   4.681   6.081   3.736 -2.0994  0.7153  1.5639
 7972SOL    HW331661   4.637   5.937   3.750  0.5745 -0.2436  0.6819
 7972SOL    MW431662   4.688   6.004   3.774  0.2561  0.1645 -0.0784
 7973SOL     OW31663   4.253   5.860   2.633  0.2937 -0.4175  0.4455
 7973SOL    HW231664   4.319   5.807   2.677 -0.0687 -2.1328 -0.9588
 7973SOL    HW331665   4.173   5.807   2.637 -0.1901  0.1946 -0.6501
 7973SOL    MW431666   4.251   5.846   2.639  0.4828 -0.5126  0.1994
 7974SOL     OW31667   0.026   4.002   3.213  0.4660  0.1916  0.2137
 7974SOL    HW231668   0.035   4.044   3.298 -2.0792  3.0002 -0.7626
 7974SOL    HW331669  -0.068   3.996   3.198  0.6759 -3.8577 -0.8460
 7974SOL    MW431670   0.015   4.007   3.222 -0.2184 -0.2713  0.3698
 7975SOL     OW31671   1.098   6.108   5.227  0.1351 -0.1769 -0.2408
 7975SOL    HW231672   1.067   6.175   5.289 -1.7004  0.3548 -1.6423
 7975SOL    HW331673   1.081   6.025   5.272  2.5002  0.1870  1.5501
 7975SOL    MW431674   1.092   6.106   5.241  0.2009  0.0053 -0.5400
 7976SOL     OW31675   0.039   0.872   3.036  0.0912  0.4914 -0.2070
 7976SOL    HW231676   0.106   0.919   3.086  0.4365  0.8199 -0.9688
 7976SOL    HW331677  -0.043   0.915   3.058  0.2209  0.5415  0.1817
 7976SOL    MW431678   0.037   0.884   3.046 -0.4973 -0.2158 -0.0856
 7977SOL     OW31679   2.039   5.225   6.301 -0.0951 -0.3072 -0.0367
 7977SOL    HW231680   2.116   5.243   6.355 -0.8786 -1.1488  1.4357
 7977SOL    HW331681   2.058   5.266   6.217 -0.3295  4.2776  1.8763
 7977SOL    MW431682   2.052   5.233   6.297 -0.2288  0.4187  0.2446
 7978SOL     OW31683   4.005   4.849   0.229  0.0398 -0.2075 -0.1631
 7978SOL    HW231684   3.962   4.933   0.210  1.7218  1.3363  2.3328
 7978SOL    HW331685   3.933   4.787   0.236 -1.2943  1.0663 -1.6966
 7978SOL    MW431686   3.990   4.852   0.227 -0.0416 -0.0842 -0.0588
 7979SOL     OW31687   2.240   1.811   1.777  0.1543 -0.0946  0.1006
 7979SOL    HW231688   2.303   1.739   1.782  0.8068  0.5529  1.5477
 7979SOL    HW331689   2.285   1.879   1.727 -0.3352 -0.5260 -0.9677
 7979SOL    MW431690   2.254   1.810   1.771  0.2065 -0.4108 -0.5803
 7980SOL     OW31691   5.729   4.418   3.065 -0.6631  0.2763  0.2651
 7980SOL    HW231692   5.780   4.483   3.017 -0.2265  0.7066  1.3029
 7980SOL    HW331693   5.648   4.410   3.014 -0.0517  0.4147 -0.7704
 7980SOL    MW431694   5.725   4.425   3.052  0.4322 -0.4352 -0.0668
 7981SOL     OW31695   2.001   2.443   3.558  0.0861 -0.2770 -0.3266
 7981SOL    HW231696   1.982   2.349   3.552  0.4501 -0.4664  1.1647
 7981SOL    HW331697   2.079   2.448   3.614  0.5265  0.8774 -1.0174
 7981SOL    MW431698   2.009   2.431   3.565 -0.1321  0.0846 -0.9456
 7982SOL     OW31699   3.723   5.144   0.232  0.0978  0.0635  0.4745
 7982SOL    HW231700   3.701   5.116   0.321 -1.9978 -0.7765 -0.2339
 7982SOL    HW331701   3.739   5.062   0.184 -0.4484  0.3965 -0.3024
 7982SOL    MW431702   3.722   5.129   0.237 -0.2136 -0.1629  0.2206
 7983SOL     OW31703   1.086   2.890   0.470 -0.0918  0.2674 -0.0340
 7983SOL    HW231704   1.075   2.845   0.386  1.3586  1.2878 -0.8253
 7983SOL    HW331705   1.007   2.943   0.480 -0.0655  0.4967 -0.9883
 7983SOL    MW431706   1.074   2.891   0.460 -0.3142 -0.3195 -0.5030
 7984SOL     OW31707   0.923   5.190   5.009  0.4383 -0.8476 -0.7464
 7984SOL    HW231708   0.855   5.222   4.950  1.1363 -1.5484 -1.9622
 7984SOL    HW331709   0.980   5.136   4.954  2.5216  0.4426  0.0177
 7984SOL    MW431710   0.922   5.187   4.994 -0.3827 -0.4626 -0.0014
 7985SOL     OW31711   5.766   0.508   5.205 -0.1377 -0.3974 -0.6069
 7985SOL    HW231712   5.766   0.591   5.157 -1.3557  0.3768  0.6403
 7985SOL    HW331713   5.802   0.444   5.144 -0.9333  0.6748 -2.2612
 7985SOL    MW431714   5.771   0.511   5.191 -0.3556  0.1731 -0.2605
 7986SOL     OW31715   3.654   3.922   2.310  0.1409 -0.3377 -0.0843
 7986SOL    HW231716   3.719   3.865   2.354  1.7500  0.7650 -0.9414
 7986SOL    HW331717   3.660   3.898   2.218 -0.0904  0.3515 -0.2805
 7986SOL    MW431718   3.664   3.911   2.304 -0.0841 -0.0779 -0.1201
 7987SOL     OW31719   2.913   3.728   3.938 -0.0857 -0.1411 -0.7513
 7987SOL    HW231720   2.863   3.655   3.903 -1.0027 -0.4067  0.9620
 7987SOL    HW331721   2.932   3.702   4.028  0.4089  1.3181 -0.4066
 7987SOL    MW431722   2.909   3.715   3.946 -0.0365  0.0676  0.2254
 7988SOL     OW31723   1.351   5.875   4.304 -0.4094 -0.6389  0.2481
 7988SOL    HW231724   1.295   5.798   4.303  0.1562 -1.0563  0.6937
 7988SOL    HW331725   1.408   5.864   4.380 -0.6431  0.4499  0.5997
 7988SOL    MW431726   1.351   5.864   4.314 -0.0370 -0.3439 -0.3066
 7989SOL     OW31727   2.017   1.413   2.855 -0.0147  0.1211 -0.0291
 7989SOL    HW231728   2.093   1.370   2.894 -0.1391 -0.1048 -0.0348
 7989SOL    HW331729   2.029   1.401   2.761 -0.7873 -1.1700  0.0198
 7989SOL    MW431730   2.029   1.406   2.847  0.6149 -0.0727  0.0422
 7990SOL     OW31731   1.028   0.678   2.956  0.1907  0.1622  0.3583
 7990SOL    HW231732   1.113   0.670   3.000  0.2348  1.2608  0.5045
 7990SOL    HW331733   0.964   0.681   3.027 -0.1341 -2.0896  0.2162
 7990SOL    MW431734   1.031   0.678   2.971  0.4430 -0.1193 -0.0538
 7991SOL     OW31735   2.946   2.906   3.627  0.7146 -0.6272  0.0889
 7991SOL    HW231736   2.960   2.990   3.583 -4.2328  1.3666  1.6221
 7991SOL    HW331737   2.898   2.854   3.563  1.6084 -1.3760  0.0107
 7991SOL    MW431738   2.942   2.910   3.612  0.3009  0.3251 -0.3236
 7992SOL     OW31739   1.560   4.660   5.928  0.1374 -0.1297 -0.3439
 7992SOL    HW231740   1.647   4.699   5.931 -0.1401  0.4563  0.1040
 7992SOL    HW331741   1.502   4.730   5.898  0.1385 -1.1045 -2.9139
 7992SOL    MW431742   1.564   4.674   5.924 -0.0018 -0.0684 -1.0935
 7993SOL     OW31743   2.392   6.328   4.093  0.1413 -0.3506  0.0781
 7993SOL    HW231744   2.328   6.373   4.038 -1.1794 -1.2882  0.7822
 7993SOL    HW331745   2.340   6.266   4.144  1.4785 -0.3568  1.5070
 7993SOL    MW431746   2.377   6.326   4.092 -0.2430 -0.3908  0.7300
 7994SOL     OW31747   1.909   1.945   1.593 -0.3946 -0.0811 -0.6023
 7994SOL    HW231748   1.961   1.977   1.667 -1.4409 -0.4996  0.3495
 7994SOL    HW331749   1.891   2.024   1.541  1.6117 -0.0046 -1.2732
 7994SOL    MW431750   1.913   1.960   1.596  0.2193  0.1935  0.0300
 7995SOL     OW31751   3.599   6.146   3.591 -0.4326  0.3826 -0.3706
 7995SOL    HW231752   3.623   6.071   3.537  0.6859  1.1817 -1.0469
 7995SOL    HW331753   3.667   6.211   3.572 -0.3070  0.8961  1.5956
 7995SOL    MW431754   3.611   6.145   3.581  0.9245 -0.6007 -0.1641
 7996SOL     OW31755   4.850   3.942   3.177  0.4751  0.5365  0.2435
 7996SOL    HW231756   4.813   3.854   3.167  0.5541  0.3461  1.4330
 7996SOL    HW331757   4.780   4.000   3.149  0.8182  0.0944 -1.6621
 7996SOL    MW431758   4.836   3.938   3.172  0.0384 -0.9509 -1.2725
 7997SOL     OW31759   1.350   0.082   2.285  0.1109 -0.0076  0.0791
 7997SOL    HW231760   1.361   0.138   2.208 -0.0623 -0.1298 -0.0371
 7997SOL    HW331761   1.397   0.127   2.355 -0.0587  0.3008 -0.0034
 7997SOL    MW431762   1.357   0.095   2.284 -0.0526 -0.3987 -0.4485
 7998SOL     OW31763   1.262   0.285   1.369  0.7361 -0.5693 -0.1174
 7998SOL    HW231764   1.177   0.303   1.331  1.1704 -2.5146 -2.2073
 7998SOL    HW331765   1.251   0.200   1.413  1.2802 -0.2032  0.7634
 7998SOL    MW431766   1.250   0.276   1.370 -0.3276  0.7090  0.4599
 7999SOL     OW31767   2.973   0.997   2.056 -0.1642  0.0669 -0.4484
 7999SOL    HW231768   3.021   1.061   2.004 -0.2250  1.7085  1.4232
 7999SOL    HW331769   2.943   0.932   1.992  1.4964  0.8781 -2.1475
 7999SOL    MW431770   2.976   0.997   2.040 -0.0725 -0.1156  0.1394
 8000SOL     OW31771   4.513   4.913   5.550 -0.1136 -0.0418 -0.1656
 8000SOL    HW231772   4.578   4.974   5.516 -0.2048  0.3282  0.3099
 8000SOL    HW331773   4.499   4.941   5.640 -0.7562 -0.2667 -0.1888
 8000SOL    MW431774   4.520   4.924   5.557 -0.5047  0.1623  0.5339
 8001SOL     OW31775   2.539   4.018   4.672  0.1891  0.0747  0.2211
 8001SOL    HW231776   2.587   4.101   4.672  1.4042 -0.6046 -0.1401
 8001SOL    HW331777   2.462   4.034   4.616  1.4058  0.4254 -1.4301
 8001SOL    MW431778   2.535   4.031   4.665 -0.4157 -0.4223 -0.3783
 8002SOL     OW31779   4.436   1.300   3.676 -0.0771  0.0768  0.7233
 8002SOL    HW231780   4.378   1.225   3.668 -0.2612  0.1848  1.0367
 8002SOL    HW331781   4.391   1.370   3.629 -0.1535  0.1345  0.8835
 8002SOL    MW431782   4.423   1.299   3.669  0.0188  0.1138  0.5106
 8003SOL     OW31783   6.428   3.380   1.220  0.5498  0.2608 -0.2258
 8003SOL    HW231784   6.512   3.335   1.219  0.1166 -0.7247  1.5568
 8003SOL    HW331785   6.448   3.470   1.197  1.8478 -0.2873 -1.3533
 8003SOL    MW431786   6.441   3.386   1.217 -0.0067 -0.3276  0.7105
 8004SOL     OW31787   0.502   5.220   3.275 -0.2702  0.2722 -0.1552
 8004SOL    HW231788   0.528   5.311   3.289  2.5909 -0.6921  1.6410
 8004SOL    HW331789   0.436   5.202   3.341 -0.8350  1.0041 -0.5099
 8004SOL    MW431790   0.497   5.230   3.285 -0.6903  1.3128 -0.5439
 8005SOL     OW31791   0.687   5.230   2.636 -0.8078  0.1002  0.4878
 8005SOL    HW231792   0.761   5.289   2.627  0.2374 -1.4446 -2.4702
 8005SOL    HW331793   0.610   5.285   2.618  0.1049  0.7180 -1.8692
 8005SOL    MW431794   0.687   5.245   2.632 -0.1493  0.0079  0.6001
 8006SOL     OW31795   3.741   2.042   0.457  0.2321  0.9549  0.3287
 8006SOL    HW231796   3.766   2.099   0.530 -0.8227 -0.8659  2.2318
 8006SOL    HW331797   3.818   1.987   0.442  0.1954  0.8350  0.5783
 8006SOL    MW431798   3.755   2.043   0.465  0.0741  0.2198 -0.0082
 8007SOL     OW31799   6.297   1.005   4.673 -0.0828  0.4554 -0.1027
 8007SOL    HW231800   6.386   1.040   4.672 -0.1101  0.6573  1.7804
 8007SOL    HW331801   6.285   0.970   4.761 -1.5536 -0.4256 -0.6075
 8007SOL    MW431802   6.307   1.005   4.684 -0.0216 -0.3202  0.6905
 8008SOL     OW31803   0.948   4.490   1.810  0.5904  0.1050  0.0528
 8008SOL    HW231804   1.006   4.561   1.839  0.9882  0.5859 -1.7848
 8008SOL    HW331805   0.874   4.535   1.771  0.4653 -0.4980 -0.4164
 8008SOL    MW431806   0.946   4.505   1.809 -0.0261 -0.0267 -0.6784
 8009SOL     OW31807   5.450   5.240   3.079 -0.6527 -0.2130  0.6155
 8009SOL    HW231808   5.372   5.195   3.111 -0.2938 -1.0513  0.3212
 8009SOL    HW331809   5.416   5.307   3.020 -1.1271 -1.0085 -0.0387
 8009SOL    MW431810   5.435   5.243   3.075 -0.6097  0.1525  0.0278
 8010SOL     OW31811   3.907   0.592   2.444 -0.1116  0.0291  0.0320
 8010SOL    HW231812   3.906   0.645   2.364  0.1324  0.8003  0.5318
 8010SOL    HW331813   3.949   0.510   2.418  1.9892  1.0893 -0.1436
 8010SOL    MW431814   3.912   0.588   2.430 -0.3827 -0.0791  0.0725
 8011SOL     OW31815   4.992   2.725   0.426 -0.2822  0.3084 -0.3251
 8011SOL    HW231816   5.012   2.807   0.380  0.6166 -0.3733 -1.1792
 8011SOL    HW331817   5.019   2.656   0.366 -3.3706 -0.7087 -0.7263
 8011SOL    MW431818   4.999   2.727   0.412  0.4502  0.0498 -0.2803
 8012SOL     OW31819   0.951   3.714   4.269  0.5285 -0.3045 -0.2447
 8012SOL    HW231820   0.925   3.642   4.212 -1.8570  0.8852 -0.7797
 8012SOL    HW331821   0.988   3.672   4.346 -2.1839 -2.1804  0.1355
 8012SOL    MW431822   0.953   3.699   4.271  0.2622  0.5013  0.7926
 8013SOL     OW31823   2.205   0.319   2.295 -0.0732 -0.2393  0.0055
 8013SOL    HW231824   2.132   0.337   2.236 -0.3995  2.0308  1.0012
 8013SOL    HW331825   2.167   0.318   2.382  0.8705 -0.5085  0.4346
 8013SOL    MW431826   2.191   0.321   2.299  0.7729 -0.5756 -0.3344
 8014SOL     OW31827   3.667   1.772   0.838  0.1496 -0.1166 -0.5610
 8014SOL    HW231828   3.618   1.743   0.762 -0.6922 -1.5781  0.4985
 8014SOL    HW331829   3.610   1.837   0.880 -0.1688 -0.6267 -0.2058
 8014SOL    MW431830   3.653   1.777   0.834  0.4466  0.3318 -0.0519
 8015SOL     OW31831   5.004   0.959   1.055  0.4658  0.2984  0.1451
 8015SOL    HW231832   5.069   0.997   1.114 -0.7910 -0.1522  1.9218
 8015SOL    HW331833   4.954   1.034   1.023 -0.5271  0.4195  1.8195
 8015SOL    MW431834   5.006   0.974   1.059  0.3754  0.0598 -0.1549
 8016SOL     OW31835   0.882   1.207   3.459 -0.1052  0.0717  0.2953
 8016SOL    HW231836   0.836   1.187   3.378  1.9258 -0.1607 -0.8575
 8016SOL    HW331837   0.935   1.284   3.438  2.6145 -1.6351  0.4421
 8016SOL    MW431838   0.883   1.215   3.446  0.5217  0.2882 -0.4277
 8017SOL     OW31839   3.020   3.241   2.350  0.1209  0.2064 -0.4655
 8017SOL    HW231840   3.033   3.242   2.445 -1.0408  0.5820 -0.3014
 8017SOL    HW331841   3.064   3.321   2.320  2.3502 -0.9562 -0.5415
 8017SOL    MW431842   3.028   3.252   2.359 -0.2151  0.3187 -0.5922
 8018SOL     OW31843   2.888   1.540   3.221  0.1957  0.5078 -0.0652
 8018SOL    HW231844   2.933   1.580   3.147  0.7116  1.0045  0.5055
 8018SOL    HW331845   2.805   1.509   3.184  1.3430 -1.2344 -1.3280
 8018SOL    MW431846   2.883   1.541   3.206 -0.0198  0.1881 -0.3125
 8019SOL     OW31847   3.250   3.852   3.156  0.0523 -0.0757  0.2713
 8019SOL    HW231848   3.200   3.774   3.182  0.7470 -0.2998  0.9937
 8019SOL    HW331849   3.189   3.904   3.104  0.1018 -1.9335 -1.7741
 8019SOL    MW431850   3.235   3.848   3.153 -0.5505 -0.4185  0.2384
 8020SOL     OW31851   4.847   6.237   2.020 -0.3804 -0.3160  0.0742
 8020SOL    HW231852   4.931   6.260   1.981  0.5511 -1.2758  1.4097
 8020SOL    HW331853   4.850   6.273   2.108 -0.9829 -1.1299  0.4544
 8020SOL    MW431854   4.858   6.244   2.027 -0.0451  0.0493 -0.6190
 8021SOL     OW31855   2.393   6.330   2.781 -0.5440  0.3046  0.6980
 8021SOL    HW231856   2.440   6.255   2.745  0.1201  0.7590  0.5995
 8021SOL    HW331857   2.301   6.307   2.770 -0.3793  0.3069 -1.0922
 8021SOL    MW431858   2.387   6.317   2.774  0.2575 -0.3551 -0.0569
 8022SOL     OW31859   4.221   5.980   6.042 -0.3185  0.1806 -0.5424
 8022SOL    HW231860   4.200   5.894   6.079 -0.8017  0.2555 -0.6352
 8022SOL    HW331861   4.151   6.037   6.074  0.0861  0.5744 -0.3508
 8022SOL    MW431862   4.209   5.976   6.051 -0.0643  0.0153  0.1862
 8023SOL     OW31863   3.229   4.108   1.340  0.0030  0.2890  0.4510
 8023SOL    HW231864   3.314   4.084   1.305  0.6524  1.0852  1.4264
 8023SOL    HW331865   3.235   4.091   1.434 -1.5300 -1.3354  0.3111
 8023SOL    MW431866   3.241   4.103   1.348  0.1131  0.4534  0.2832
 8024SOL     OW31867   1.376   0.127   2.724  0.3787  0.8272 -0.3906
 8024SOL    HW231868   1.289   0.131   2.764  0.4496  0.3194 -0.1628
 8024SOL    HW331869   1.385   0.209   2.676 -0.0868  1.0381 -0.1279
 8024SOL    MW431870   1.366   0.138   2.723 -0.8944 -0.3487  0.7073
 8025SOL     OW31871   4.008   3.744   0.950 -0.0423 -0.2614 -0.2373
 8025SOL    HW231872   4.038   3.826   0.989 -0.7517 -0.6822  1.2779
 8025SOL    HW331873   4.089   3.701   0.921  0.7864 -0.7208  2.4432
 8025SOL    MW431874   4.023   3.749   0.951 -1.2818  0.2926 -0.6490
 8026SOL     OW31875   3.773   3.497   5.298  0.1700  0.0781  0.2694
 8026SOL    HW231876   3.841   3.501   5.365  1.1614  0.5667 -0.7430
 8026SOL    HW331877   3.738   3.586   5.292  0.8674  0.3126 -0.6232
 8026SOL    MW431878   3.777   3.509   5.306  0.2792  0.6891 -0.0174
 8027SOL     OW31879   4.325   4.912   0.750 -0.0200  0.2529 -0.2111
 8027SOL    HW231880   4.383   4.865   0.810 -0.3466 -2.5338 -1.8760
 8027SOL    HW331881   4.238   4.877   0.770 -0.3503  0.4733 -1.2283
 8027SOL    MW431882   4.321   4.901   0.761 -0.0652 -0.1146 -0.2680
 8028SOL     OW31883   0.747   4.677   4.093  0.2214  0.3645  0.0369
 8028SOL    HW231884   0.839   4.676   4.067  0.4319  2.6706  0.3998
 8028SOL    HW331885   0.703   4.617   4.033  2.2482 -2.6475  1.3420
 8028SOL    MW431886   0.753   4.669   4.082  0.4504 -0.1088 -0.0921
 8029SOL     OW31887   5.899   5.316   4.621 -0.1034  0.0326 -0.0210
 8029SOL    HW231888   5.812   5.278   4.615  0.6419 -1.9835  1.1365
 8029SOL    HW331889   5.901   5.382   4.552 -2.8783  0.8918  0.6251
 8029SOL    MW431890   5.888   5.320   4.611  0.6345 -0.3953  0.0380
 8030SOL     OW31891   2.117   2.413   5.099 -0.3901 -0.0525  0.2379
 8030SOL    HW231892   2.069   2.398   5.180 -0.1098  1.1338  0.6469
 8030SOL    HW331893   2.050   2.438   5.035 -0.3647  1.5240  0.7880
 8030SOL    MW431894   2.102   2.415   5.101 -0.6076  0.7173 -0.4523
 8031SOL     OW31895   4.291   3.953   1.411  0.2510  0.2931 -0.0923
 8031SOL    HW231896   4.305   3.883   1.474  0.4667  1.7925  1.6235
 8031SOL    HW331897   4.361   3.943   1.346  1.3266 -0.0498  1.0964
 8031SOL    MW431898   4.302   3.943   1.410  0.0035  0.5540  0.5340
 8032SOL     OW31899   5.818   2.499   3.814  0.2291 -0.0268 -0.1126
 8032SOL    HW231900   5.723   2.495   3.816 -0.0292  2.0120 -2.5113
 8032SOL    HW331901   5.846   2.451   3.892 -2.7084 -1.0369  0.4502
 8032SOL    MW431902   5.809   2.492   3.825 -0.4332 -0.0516  0.1442
 8033SOL     OW31903   5.727   6.255   3.465 -0.5894 -0.2894 -0.2405
 8033SOL    HW231904   5.690   6.172   3.495 -1.3727 -0.0195 -0.4475
 8033SOL    HW331905   5.758   6.237   3.376 -0.6376 -0.3930 -0.2362
 8033SOL    MW431906   5.727   6.242   3.457  0.7099  0.4718  0.2119
 8034SOL     OW31907   5.644   2.155   0.159 -0.1178  0.0422  0.7186
 8034SOL    HW231908   5.662   2.225   0.221  2.7992  0.9804 -0.9672
 8034SOL    HW331909   5.561   2.179   0.118 -0.0595  1.5449  1.4311
 8034SOL    MW431910   5.636   2.168   0.161  0.1932  0.7492 -0.4432
 8035SOL     OW31911   0.250   3.036   3.134  0.8835  0.1017 -0.4622
 8035SOL    HW231912   0.262   3.107   3.197  0.6907 -0.6516  0.4329
 8035SOL    HW331913   0.329   3.040   3.079  1.9738 -0.3869  0.9850
 8035SOL    MW431914   0.262   3.046   3.135  0.2934 -0.0560  0.9053
 8036SOL     OW31915   2.071   1.793   3.990  0.3241 -0.1290 -0.3594
 8036SOL    HW231916   2.058   1.857   3.921  1.3441  2.0812  1.3686
 8036SOL    HW331917   2.114   1.719   3.947 -1.0956  0.1735 -2.4566
 8036SOL    MW431918   2.075   1.792   3.975 -0.1618  0.2871 -0.2599
 8037SOL     OW31919   4.265   1.961   3.166 -0.5204  0.1366 -0.1177
 8037SOL    HW231920   4.206   2.026   3.128 -0.6903 -0.1959 -0.4386
 8037SOL    HW331921   4.275   1.895   3.097 -0.8144 -0.4687  0.4068
 8037SOL    MW431922   4.258   1.961   3.152  0.0192  0.6031  0.3205
 8038SOL     OW31923   1.028   1.517   4.349  0.0463  0.1089 -0.0923
 8038SOL    HW231924   0.966   1.511   4.423 -0.9133  2.4717 -0.6176
 8038SOL    HW331925   0.972   1.524   4.272  1.0449 -1.6926 -1.0398
 8038SOL    MW431926   1.012   1.517   4.349  0.0078 -0.0831  0.2224
 8039SOL     OW31927   3.859   1.454   0.162 -0.3223  0.3582 -0.2850
 8039SOL    HW231928   3.840   1.360   0.162  1.4404 -0.0420  0.3737
 8039SOL    HW331929   3.834   1.484   0.249  0.0873  0.2638 -0.1311
 8039SOL    MW431930   3.853   1.446   0.173  0.0850 -0.6352  0.1633
 8040SOL     OW31931   0.444   5.656  -0.014 -0.4131  0.7464 -0.1637
 8040SOL    HW231932   0.476   5.616  -0.095 -1.0243 -2.0649  0.8620
 8040SOL    HW331933   0.523   5.689   0.029  0.0706  1.1088 -1.2913
 8040SOL    MW431934   0.459   5.655  -0.019  0.1079  0.1350 -0.0494
 8041SOL     OW31935   2.291   4.031   2.217  0.0807 -0.1900  0.5111
 8041SOL    HW231936   2.238   3.996   2.288 -1.7268 -0.2108 -0.7739
 8041SOL    HW331937   2.356   3.963   2.200  1.0376  0.1216  2.5515
 8041SOL    MW431938   2.293   4.017   2.224 -0.0350  0.2391 -0.0856
 8042SOL     OW31939   5.744   2.701   1.387 -0.1251  0.0034 -0.1257
 8042SOL    HW231940   5.693   2.767   1.342  0.8543  0.6100 -0.3697
 8042SOL    HW331941   5.730   2.621   1.336 -1.4872 -0.0554  0.2983
 8042SOL    MW431942   5.736   2.699   1.375  0.1401  0.1337  0.0219
 8043SOL     OW31943   0.818   3.032   5.668 -0.1183 -0.3476  0.1428
 8043SOL    HW231944   0.736   3.060   5.627 -0.4226  0.8906  1.4957
 8043SOL    HW331945   0.803   3.046   5.762  1.2278 -1.2503  0.5120
 8043SOL    MW431946   0.805   3.038   5.675 -0.2971  0.0358  0.3237
 8044SOL     OW31947   6.420   6.377   4.854  0.0367  0.7488  0.6990
 8044SOL    HW231948   6.341   6.426   4.878 -0.9928 -0.2944 -0.3800
 8044SOL    HW331949   6.452   6.420   4.775 -0.0684  0.5455  0.5436
 8044SOL    MW431950   6.414   6.389   4.847 -0.3869  0.1735  0.1026
 8045SOL     OW31951   0.217   4.530   4.409  0.2167  0.4426  0.2597
 8045SOL    HW231952   0.135   4.531   4.359  0.9420 -0.3393 -1.0043
 8045SOL    HW331953   0.210   4.452   4.465  0.8503 -0.7401 -1.2347
 8045SOL    MW431954   0.206   4.520   4.410  0.3843 -0.4581 -0.4220
 8046SOL     OW31955   5.557   2.559   3.081 -0.5241 -0.1059 -0.6515
 8046SOL    HW231956   5.556   2.513   2.997  0.6342  1.6871 -1.7492
 8046SOL    HW331957   5.465   2.574   3.102 -0.8342  0.4494 -2.2562
 8046SOL    MW431958   5.545   2.555   3.072  0.1691  0.3058 -0.8687
 8047SOL     OW31959   5.890   4.087   5.152  0.3805  0.1807 -0.6790
 8047SOL    HW231960   5.861   3.999   5.175  0.0150  0.1554 -1.2159
 8047SOL    HW331961   5.923   4.123   5.234 -0.5585 -0.0328 -0.1844
 8047SOL    MW431962   5.890   4.080   5.166  0.1585  0.5103  0.5156
 8048SOL     OW31963   0.152   6.256   2.981 -0.0531 -0.4437  0.7330
 8048SOL    HW231964   0.181   6.178   2.934  0.9777 -0.7959  1.8900
 8048SOL    HW331965   0.218   6.268   3.050  0.3812  2.0509 -0.0312
 8048SOL    MW431966   0.165   6.247   2.984  0.1166  0.4992  0.1221
 8049SOL     OW31967   4.989   5.018   3.905 -0.9047 -0.7025  0.5088
 8049SOL    HW231968   4.952   5.020   3.993  1.2131  1.6871  1.5002
 8049SOL    HW331969   4.960   5.100   3.865 -1.1412 -1.3648 -0.7232
 8049SOL    MW431970   4.981   5.029   3.911 -0.2857 -0.7338 -1.0092
 8050SOL     OW31971   4.393   4.780   0.511 -0.3843  0.4394 -0.0145
 8050SOL    HW231972   4.383   4.835   0.588 -1.7636 -0.2613  0.3335
 8050SOL    HW331973   4.444   4.705   0.542 -0.1542  0.5948 -0.0149
 8050SOL    MW431974   4.399   4.777   0.525  0.5298  0.5437 -0.7020
 8051SOL     OW31975   4.200   2.211   4.238  0.0622 -0.1723  0.0676
 8051SOL    HW231976   4.116   2.253   4.217  0.2557 -0.5352 -1.5938
 8051SOL    HW331977   4.250   2.278   4.284 -0.6932  0.4474  0.0028
 8051SOL    MW431978   4.195   2.225   4.241  0.2297 -0.5029 -0.0101
 8052SOL     OW31979   3.321   0.950   6.002  0.4767 -0.0086  0.3357
 8052SOL    HW231980   3.292   0.863   6.027  2.5927 -0.6857  0.6572
 8052SOL    HW331981   3.242   0.993   5.969 -0.6640 -1.9596  0.3529
 8052SOL    MW431982   3.307   0.944   6.001  0.1204  0.2593  0.3819
 8053SOL     OW31983   5.141   0.165   6.356 -0.1608  0.5673 -0.0422
 8053SOL    HW231984   5.202   0.119   6.298 -0.4429  1.1992 -0.8668
 8053SOL    HW331985   5.126   0.249   6.313  0.2636  1.4014  1.3777
 8053SOL    MW431986   5.147   0.170   6.343  0.0651 -0.1554  0.4139
 8054SOL     OW31987   3.385   5.613   4.285 -0.2537 -0.0036 -0.2701
 8054SOL    HW231988   3.361   5.661   4.365 -0.6093  0.6914 -0.7858
 8054SOL    HW331989   3.427   5.679   4.230 -0.3125 -0.4018 -0.7944
 8054SOL    MW431990   3.387   5.628   4.289 -0.1203 -0.7049  0.0669
 8055SOL     OW31991   0.403   4.168   1.961  0.0089 -0.3928 -0.1850
 8055SOL    HW231992   0.390   4.156   2.055  1.2676 -2.1660 -0.1914
 8055SOL    HW331993   0.453   4.249   1.954 -0.3236 -0.1056  0.6562
 8055SOL    MW431994   0.408   4.177   1.972 -0.2793 -0.1468 -0.0072
 8056SOL     OW31995   3.135   0.276   2.064  0.8635 -0.0295 -1.0588
 8056SOL    HW231996   3.163   0.303   2.152 -0.3593 -1.5731 -0.1222
 8056SOL    HW331997   3.151   0.182   2.063 -4.5538 -1.3262 -0.0969
 8056SOL    MW431998   3.141   0.267   2.076 -0.0288  0.1772  0.7365
 8057SOL     OW31999   0.929   0.602   0.689 -0.2269 -0.0619 -0.7448
 8057SOL    HW232000   0.858   0.540   0.669  2.0680 -3.0583 -0.3520
 8057SOL    HW332001   0.972   0.616   0.605 -0.4113  0.5870 -0.7317
 8057SOL    MW432002   0.925   0.596   0.675 -0.6029 -0.2574  0.5745
 8058SOL     OW32003   4.261   5.171   1.504 -0.2809 -0.4999 -0.2577
 8058SOL    HW232004   4.323   5.147   1.435  1.0520  1.4852  0.1821
 8058SOL    HW332005   4.295   5.252   1.540 -3.1389  0.6949  0.0245
 8058SOL    MW432006   4.274   5.178   1.500  0.6497  0.5936  0.0084
 8059SOL     OW32007   0.166   3.545   1.023 -0.2905 -0.3477  0.4114
 8059SOL    HW232008   0.207   3.459   1.012  0.6249  0.1298 -0.0708
 8059SOL    HW332009   0.141   3.571   0.934 -0.0294  0.1290  0.4744
 8059SOL    MW432010   0.168   3.537   1.010 -0.1564 -0.1905 -0.1941
 8060SOL     OW32011   0.644   3.856   1.213  0.0597  0.2629  0.4531
 8060SOL    HW232012   0.556   3.876   1.183  0.2535  1.3864  0.5732
 8060SOL    HW332013   0.668   3.932   1.267  0.7613 -0.4317  1.1351
 8060SOL    MW432014   0.636   3.869   1.216  0.1533  0.1111 -0.1073
 8061SOL     OW32015   4.902   4.951   4.805  0.2453  0.5623  0.4067
 8061SOL    HW232016   4.983   5.000   4.819  0.4974 -0.0163  1.0224
 8061SOL    HW332017   4.924   4.861   4.828 -1.0691  0.7113  2.4527
 8061SOL    MW432018   4.915   4.945   4.810 -0.1852 -0.2603  0.1405
 8062SOL     OW32019   5.928   5.011   3.458  0.3167  0.5048  0.0171
 8062SOL    HW232020   5.916   4.971   3.372  1.1485  2.0343 -0.8597
 8062SOL    HW332021   6.016   5.050   3.454  0.8557 -0.3795  1.9846
 8062SOL    MW432022   5.938   5.011   3.446  0.3014 -0.0691 -0.1718
 8063SOL     OW32023   1.964   4.021   0.361  0.3837 -0.3489 -0.6881
 8063SOL    HW232024   1.887   4.072   0.336 -0.1478  0.1300  1.6958
 8063SOL    HW332025   1.953   3.937   0.317 -2.5517 -1.0105  1.0902
 8063SOL    MW432026   1.953   4.017   0.352 -0.5768 -0.2280  1.0063
 8064SOL     OW32027   3.514   4.337   4.984 -0.0274  0.0341 -0.3943
 8064SOL    HW232028   3.471   4.298   4.907 -0.3876 -0.7353  0.1836
 8064SOL    HW332029   3.470   4.296   5.058 -0.4300  1.5663  0.2475
 8064SOL    MW432030   3.502   4.326   4.983  0.6417 -0.3602 -0.0526
 8065SOL     OW32031   2.104   1.010   3.704  0.0792  0.2831 -0.2837
 8065SOL    HW232032   2.134   0.955   3.632  2.6673 -0.6178  1.3155
 8065SOL    HW332033   2.102   1.098   3.669  2.0683 -0.0180 -1.2862
 8065SOL    MW432034   2.107   1.014   3.690 -0.2241 -0.1026 -0.5599
 8066SOL     OW32035   5.227   0.551   4.506  0.1421  0.2258  0.0896
 8066SOL    HW232036   5.177   0.631   4.524  0.2052  0.1909  0.4217
 8066SOL    HW332037   5.222   0.501   4.587  0.3072  0.0022 -0.0388
 8066SOL    MW432038   5.219   0.555   4.519 -0.6226 -0.7916 -0.3157
 8067SOL     OW32039   4.492   6.136   1.219  0.1661  0.0366  0.1623
 8067SOL    HW232040   4.472   6.047   1.187  0.2393 -0.1561  0.6501
 8067SOL    HW332041   4.409   6.167   1.255 -0.3053  0.8135 -1.4857
 8067SOL    MW432042   4.478   6.128   1.219 -0.0235 -0.3510  0.0356
 8068SOL     OW32043   3.160   2.128   6.014  0.0340  0.1991  0.2154
 8068SOL    HW232044   3.190   2.203   5.963  1.7053 -2.0473 -2.3707
 8068SOL    HW332045   3.227   2.114   6.080 -0.4555  1.1461  0.9253
 8068SOL    MW432046   3.172   2.136   6.016 -0.8381  0.3830 -0.0808
 8069SOL     OW32047   2.703   1.535   3.950 -0.3712  0.0754 -0.1863
 8069SOL    HW232048   2.756   1.529   3.871  2.2482 -1.3089  1.5457
 8069SOL    HW332049   2.703   1.628   3.972 -1.1395  0.4769 -1.7542
 8069SOL    MW432050   2.710   1.546   3.943 -0.5927 -0.0920 -0.2983
 8070SOL     OW32051   2.424   3.650   3.120 -0.4481  0.3262  0.4114
 8070SOL    HW232052   2.355   3.593   3.087 -0.9208  1.5866 -0.9350
 8070SOL    HW332053   2.481   3.664   3.044  0.1614  0.8893  0.9619
 8070SOL    MW432054   2.422   3.644   3.106 -0.0641  0.3809 -0.2468
 8071SOL     OW32055   4.496   3.754   2.814 -0.1314 -0.2339 -0.1518
 8071SOL    HW232056   4.520   3.667   2.845  0.9818 -0.4432 -1.5230
 8071SOL    HW332057   4.550   3.814   2.866 -1.4878 -0.2717  1.3680
 8071SOL    MW432058   4.506   3.751   2.825 -0.1090  0.2514 -0.0620
 8072SOL     OW32059   1.526   1.330   4.873 -0.3054 -0.2766 -0.1994
 8072SOL    HW232060   1.446   1.278   4.876  0.8831 -2.2081  0.5550
 8072SOL    HW332061   1.554   1.326   4.781  0.4111 -2.1250  0.0531
 8072SOL    MW432062   1.519   1.323   4.861 -0.4681  0.1807 -0.6716
 8073SOL     OW32063   3.354   2.491   2.077  0.0715 -0.0063 -0.3521
 8073SOL    HW232064   3.344   2.545   1.999  1.0838 -0.0750 -0.5495
 8073SOL    HW332065   3.449   2.485   2.090 -0.0806  0.4732  1.2175
 8073SOL    MW432066   3.365   2.497   2.069 -0.0557  0.0793  0.0316
 8074SOL     OW32067   2.154   4.575   3.221 -0.4772 -0.1142 -0.0186
 8074SOL    HW232068   2.229   4.587   3.278 -0.3082  0.0153 -0.2684
 8074SOL    HW332069   2.163   4.643   3.154 -0.3857 -0.5942 -0.5033
 8074SOL    MW432070   2.165   4.585   3.220 -0.3636  0.2502 -0.1091
 8075SOL     OW32071   5.752   3.693   6.151 -0.2032 -0.0864 -0.3398
 8075SOL    HW232072   5.787   3.782   6.147  0.1599 -0.2241 -0.2487
 8075SOL    HW332073   5.799   3.646   6.082  0.7762 -0.6122  0.6570
 8075SOL    MW432074   5.763   3.699   6.142 -0.0731  0.3023 -0.6341
 8076SOL     OW32075   5.613   2.447   1.690  0.0306 -0.1922  0.4868
 8076SOL    HW232076   5.597   2.424   1.599  0.0677 -0.1783  0.4767
 8076SOL    HW332077   5.620   2.542   1.690  3.4117 -0.3345 -0.0662
 8076SOL    MW432078   5.612   2.457   1.678  0.3621  0.1400  0.7587
 8077SOL     OW32079   1.822   5.630   3.135 -0.0451 -0.2442  0.6195
 8077SOL    HW232080   1.742   5.653   3.182 -0.3497 -0.9336  0.4468
 8077SOL    HW332081   1.874   5.580   3.198  0.6849  1.0048  1.0440
 8077SOL    MW432082   1.818   5.627   3.150  0.4060  0.2041 -0.4482
 8078SOL     OW32083   1.692   2.145   1.797 -0.0130  0.3300  0.6450
 8078SOL    HW232084   1.673   2.144   1.704  0.1496  0.2743  0.6119
 8078SOL    HW332085   1.627   2.087   1.836  0.4093 -0.2595  0.4737
 8078SOL    MW432086   1.681   2.137   1.790 -0.1338  0.2378  0.1052
 8079SOL     OW32087   6.164   4.119   4.155  0.4645 -0.0341  0.5890
 8079SOL    HW232088   6.129   4.104   4.067 -3.2709  2.3892  1.4443
 8079SOL    HW332089   6.198   4.208   4.152  0.3611  0.0489  1.5866
 8079SOL    MW432090   6.164   4.129   4.143  0.4921  0.4678 -0.2339
 8080SOL     OW32091   5.528   3.805   0.531 -0.5524 -0.1060  0.3067
 8080SOL    HW232092   5.494   3.717   0.519 -1.0489 -0.0074  0.9182
 8080SOL    HW332093   5.488   3.835   0.613  1.5034 -0.2223  1.4071
 8080SOL    MW432094   5.518   3.797   0.540  0.3263 -0.0878  0.3211
 8081SOL     OW32095   3.995   3.977   5.810 -0.2153 -0.4278 -0.3220
 8081SOL    HW232096   3.955   3.893   5.829 -0.4960  0.1378  1.8366
 8081SOL    HW332097   3.929   4.023   5.757 -1.3889 -0.4701  1.0283
 8081SOL    MW432098   3.981   3.972   5.805  0.5669  0.8537  0.4765
 8082SOL     OW32099   5.311   4.507   3.765  0.1300  0.4880 -0.1329
 8082SOL    HW232100   5.228   4.511   3.813 -1.2523 -0.2645 -2.3080
 8082SOL    HW332101   5.312   4.586   3.711  0.8882  0.5451 -0.0501
 8082SOL    MW432102   5.300   4.518   3.764 -0.0706 -0.2332  0.2106
 8083SOL     OW32103   3.136   1.833   0.471 -0.3199 -0.5552 -0.3015
 8083SOL    HW232104   3.172   1.840   0.560  1.8122  0.0075 -1.1489
 8083SOL    HW332105   3.111   1.741   0.463  0.1163 -0.7815  0.6615
 8083SOL    MW432106   3.138   1.822   0.482 -0.3006 -0.5390 -0.6239
 8084SOL     OW32107   1.082   6.379   1.876 -0.0502  0.4564  0.2068
 8084SOL    HW232108   1.158   6.336   1.839 -0.9728  0.7777 -2.2715
 8084SOL    HW332109   1.007   6.343   1.827 -1.3712  1.0789  1.6629
 8084SOL    MW432110   1.082   6.369   1.865 -0.1164  0.0585  0.3817
 8085SOL     OW32111   3.210   5.607   3.286 -0.0196  0.0338  0.3651
 8085SOL    HW232112   3.201   5.634   3.195  0.4378 -2.4105 -0.4678
 8085SOL    HW332113   3.139   5.653   3.331  0.6613  2.5081 -0.8514
 8085SOL    MW432114   3.199   5.617   3.280 -0.1222 -0.6705  0.6123
 8086SOL     OW32115   3.192   0.725   2.612 -0.6889  0.0840 -0.0899
 8086SOL    HW232116   3.125   0.703   2.677  0.4444  0.1961  1.1554
 8086SOL    HW332117   3.245   0.646   2.604  0.8466  0.9205  1.2434
 8086SOL    MW432118   3.190   0.712   2.619 -0.1477  0.1002 -0.0495
 8087SOL     OW32119   1.187   0.030   3.048  0.4008 -0.0088  0.2114
 8087SOL    HW232120   1.203  -0.054   3.006 -0.7280 -0.8069  1.3324
 8087SOL    HW332121   1.096   0.051   3.027  0.2377  0.2353  1.1234
 8087SOL    MW432122   1.177   0.022   3.039  0.5107  0.2218 -0.3261
 8088SOL     OW32123   5.261   5.859   3.654  0.1149  0.0413  0.9956
 8088SOL    HW232124   5.251   5.784   3.595  0.4501  0.6039  0.1983
 8088SOL    HW332125   5.243   5.935   3.599  0.8423  0.6093  1.5193
 8088SOL    MW432126   5.257   5.859   3.639  0.2164 -0.5324  0.3663
 8089SOL     OW32127   0.498   2.959   2.982 -0.2298  0.7159  1.0347
 8089SOL    HW232128   0.531   2.990   2.898  1.8426 -0.7441  1.2132
 8089SOL    HW332129   0.502   2.864   2.975  2.3004  0.5220  3.5431
 8089SOL    MW432130   0.503   2.950   2.970  0.2750 -0.9011  0.4268
 8090SOL     OW32131   2.641   2.217   4.850  0.2192 -0.0926 -0.1099
 8090SOL    HW232132   2.607   2.167   4.925  0.8714 -1.8450 -0.9238
 8090SOL    HW332133   2.654   2.305   4.884 -1.4435 -0.3280  1.2647
 8090SOL    MW432134   2.639   2.222   4.865 -0.3388 -0.0303  0.0665
 8091SOL     OW32135   1.090   2.711   6.388 -0.3796  0.0054  0.3000
 8091SOL    HW232136   1.065   2.794   6.347  0.1159  0.7979  1.5353
 8091SOL    HW332137   1.185   2.712   6.390 -0.3652 -0.6532  0.2187
 8091SOL    MW432138   1.099   2.722   6.383  0.0099 -0.1112 -0.2303
 8092SOL     OW32139   6.280   1.954   2.694  0.5944 -0.5422  0.5008
 8092SOL    HW232140   6.265   1.955   2.600  0.1327 -0.3750  0.5723
 8092SOL    HW332141   6.357   2.009   2.707 -1.4362  2.5991  0.5441
 8092SOL    MW432142   6.288   1.962   2.683 -0.4904 -0.3805  0.6415
 8093SOL     OW32143   4.743   4.073   5.322  0.6142 -0.4386 -0.3764
 8093SOL    HW232144   4.767   4.117   5.241 -1.7548  0.5998 -0.5948
 8093SOL    HW332145   4.813   4.094   5.383  1.6220  0.1015 -1.6870
 8093SOL    MW432146   4.755   4.081   5.319 -0.4475 -0.4701  0.0454
 8094SOL     OW32147   1.505   5.528   0.238  0.1333 -0.0434  0.2122
 8094SOL    HW232148   1.572   5.468   0.271  0.5418 -0.3494 -1.1454
 8094SOL    HW332149   1.426   5.504   0.287  1.2715  1.3094  2.9465
 8094SOL    MW432150   1.503   5.517   0.249 -0.5272 -0.0669 -0.1493
 8095SOL     OW32151   3.593   4.556   6.270  0.1132 -0.4000 -0.0110
 8095SOL    HW232152   3.682   4.575   6.243 -0.2307  0.7814 -0.3731
 8095SOL    HW332153   3.551   4.641   6.277 -0.1752 -0.6757  3.1150
 8095SOL    MW432154   3.599   4.569   6.268 -0.6031 -0.6628 -0.0028
 8096SOL     OW32155   2.561   4.748   0.534 -0.0594  0.0453 -0.3304
 8096SOL    HW232156   2.552   4.676   0.472  0.5130  0.0814 -0.4604
 8096SOL    HW332157   2.631   4.721   0.593 -0.3921  0.1459  0.1115
 8096SOL    MW432158   2.569   4.735   0.533  0.9124  0.2415  0.6498
 8097SOL     OW32159   4.602   2.716   2.905  0.1136 -0.2157 -0.1183
 8097SOL    HW232160   4.585   2.801   2.946  0.1298 -0.9405  1.4534
 8097SOL    HW332161   4.640   2.738   2.820  0.2735  1.3407  0.3203
 8097SOL    MW432162   4.605   2.730   2.899  0.5919  0.2111 -0.2065
 8098SOL     OW32163   1.461   3.630   5.433 -0.0709 -0.4374 -0.1250
 8098SOL    HW232164   1.531   3.636   5.368  1.2661 -1.7057  1.1230
 8098SOL    HW332165   1.497   3.673   5.511 -1.1315 -0.1151  0.2068
 8098SOL    MW432166   1.475   3.636   5.435  0.6195  0.2711  0.2369
 8099SOL     OW32167   5.107   0.799   0.163  0.8489  0.1314 -0.1920
 8099SOL    HW232168   5.179   0.739   0.144  2.5357  1.9672  0.0536
 8099SOL    HW332169   5.132   0.881   0.119 -0.3184  1.2861  1.1912
 8099SOL    MW432170   5.120   0.802   0.154  0.1975  0.4844 -0.5304
 8100SOL     OW32171   4.461   0.314   5.093 -0.4799  0.4955  0.0069
 8100SOL    HW232172   4.550   0.337   5.118 -0.7949  1.1939  0.4876
 8100SOL    HW332173   4.458   0.328   4.998  0.3267 -0.9043 -0.2598
 8100SOL    MW432174   4.472   0.319   5.084 -0.2759  0.1421 -0.1327
 8101SOL     OW32175   5.057   3.088   1.383 -0.4009 -0.0643  0.2332
 8101SOL    HW232176   5.067   3.078   1.478 -2.2720 -1.8699  0.3032
 8101SOL    HW332177   5.146   3.104   1.351  0.0944  2.1970  2.4005
 8101SOL    MW432178   5.070   3.089   1.392 -0.2071 -0.0966 -0.4674
 8102SOL     OW32179   5.093   4.569   3.941 -0.3737 -0.4303  0.0222
 8102SOL    HW232180   5.054   4.635   3.884 -1.6348 -0.9415  0.2600
 8102SOL    HW332181   5.097   4.611   4.027  1.0726  0.1650 -0.3014
 8102SOL    MW432182   5.088   4.584   3.945  0.3113  0.7559  0.1981
 8103SOL     OW32183   2.477   2.195   3.153  0.3500 -0.3808 -0.0332
 8103SOL    HW232184   2.555   2.238   3.187  0.5636 -0.2599 -0.6661
 8103SOL    HW332185   2.495   2.182   3.060  0.2406 -1.7068  0.1089
 8103SOL    MW432186   2.490   2.199   3.145 -0.0533  0.1809  0.0457
 8104SOL     OW32187   2.009   5.939   0.276 -0.1033 -0.0282 -0.4030
 8104SOL    HW232188   2.012   5.857   0.326 -0.4392 -0.3733 -0.9382
 8104SOL    HW332189   2.066   5.998   0.324 -0.1910 -0.4455  0.2302
 8104SOL    MW432190   2.017   5.936   0.289 -0.0835 -0.0257  0.2152
 8105SOL     OW32191   2.190   2.949   5.623 -0.1109 -0.8824 -0.4537
 8105SOL    HW232192   2.194   2.942   5.528 -0.1692  0.6848 -0.5908
 8105SOL    HW332193   2.145   3.032   5.639  0.0648 -1.0365  0.9425
 8105SOL    MW432194   2.184   2.959   5.613 -0.8276 -0.0692 -0.1402
 8106SOL     OW32195   2.149   6.192   0.364  1.1170  0.5221 -0.2867
 8106SOL    HW232196   2.089   6.263   0.343 -2.1784 -2.1702 -0.8133
 8106SOL    HW332197   2.157   6.194   0.459  2.1191  2.2643 -0.3632
 8106SOL    MW432198   2.142   6.202   0.374 -0.0497 -0.1278 -0.0883
 8107SOL     OW32199   6.207   2.882   6.077 -0.1465 -0.0129 -0.1092
 8107SOL    HW232200   6.192   2.959   6.022  0.2957  0.3906  0.3303
 8107SOL    HW332201   6.151   2.815   6.039 -2.2912  1.1378  0.8238
 8107SOL    MW432202   6.198   2.884   6.065  0.6832  0.3376  0.3069
 8108SOL     OW32203   3.417   5.257   5.782 -0.0980  0.1720  0.1312
 8108SOL    HW232204   3.506   5.276   5.812 -0.0217 -1.7738  1.2551
 8108SOL    HW332205   3.361   5.297   5.849 -0.0741  0.6026 -0.0975
 8108SOL    MW432206   3.422   5.265   5.795  0.3194 -0.0156  0.5982
 8109SOL     OW32207   4.302   1.206   6.095 -0.7421  0.0710 -0.7425
 8109SOL    HW232208   4.253   1.265   6.037 -1.1210 -0.5834 -1.0910
 8109SOL    HW332209   4.263   1.120   6.081 -0.2712 -0.2478 -0.1408
 8109SOL    MW432210   4.290   1.203   6.086 -0.0754  0.1078 -0.3386
 8110SOL     OW32211   4.416   5.788   0.218  0.8858  0.0601 -0.1172
 8110SOL    HW232212   4.348   5.794   0.151  1.5894  1.7261 -0.7278
 8110SOL    HW332213   4.469   5.713   0.192  0.2659 -0.2220 -0.5756
 8110SOL    MW432214   4.414   5.779   0.206  0.3758  0.0066 -0.5184
 8111SOL     OW32215   4.032   4.470   0.572 -0.0371 -0.3173  0.0067
 8111SOL    HW232216   4.073   4.536   0.517  2.4556 -0.9035  1.0584
 8111SOL    HW332217   3.956   4.515   0.610  0.0943  1.1022 -1.2968
 8111SOL    MW432218   4.027   4.485   0.570 -0.0885  0.1045 -0.4705
 8112SOL     OW32219   4.936   1.939   2.217  0.3645 -0.1836 -0.2830
 8112SOL    HW232220   4.865   1.901   2.165  0.6727  0.0086 -0.8385
 8112SOL    HW332221   5.010   1.945   2.157 -0.3467  3.6777 -0.9943
 8112SOL    MW432222   4.936   1.935   2.202  0.3642  0.1683 -0.1599
 8113SOL     OW32223   1.347   0.354   6.114 -0.3982 -0.4149  0.2645
 8113SOL    HW232224   1.292   0.279   6.091 -0.0303 -0.7414  0.4483
 8113SOL    HW332225   1.335   0.416   6.042 -1.7104 -0.0977  0.7287
 8113SOL    MW432226   1.338   0.352   6.101  0.4816 -0.1977 -0.1681
 8114SOL     OW32227   4.991   4.858   6.239  0.4029  0.4245  0.1846
 8114SOL    HW232228   5.017   4.799   6.309 -1.8296 -0.5037  0.3153
 8114SOL    HW332229   4.920   4.812   6.193  0.4052  1.8748 -1.3914
 8114SOL    MW432230   4.985   4.844   6.242  0.2679  0.1027 -0.1583
 8115SOL     OW32231   1.257   1.539   6.338  0.3163 -0.8129  0.6534
 8115SOL    HW232232   1.341   1.583   6.354  0.3770 -0.8758  0.5030
 8115SOL    HW332233   1.201   1.608   6.302 -0.1680 -0.3740  2.1631
 8115SOL    MW432234   1.261   1.554   6.336 -0.4612  0.0617  0.0036
 8116SOL     OW32235   6.110   5.337  -0.020  0.6386  0.8884  0.1234
 8116SOL    HW232236   6.074   5.412   0.027 -0.8444 -0.4067  1.1524
 8116SOL    HW332237   6.174   5.300   0.040  1.3677  1.3063 -0.3823
 8116SOL    MW432238   6.114   5.342  -0.006 -0.5413  0.2836 -0.1275
 8117SOL     OW32239   3.103   3.325   0.013  0.7541 -0.4103  0.6452
 8117SOL    HW232240   3.009   3.325   0.031  1.1863 -0.8232  3.3000
 8117SOL    HW332241   3.139   3.256   0.070  2.6646 -0.3212 -0.3554
 8117SOL    MW432242   3.096   3.316   0.023 -0.3096  0.4140 -0.2575
 8118SOL     OW32243   5.449   1.255   1.583 -0.5493 -0.3672 -0.0283
 8118SOL    HW232244   5.371   1.307   1.566 -0.3017  0.3291  0.8577
 8118SOL    HW332245   5.449   1.242   1.678 -0.5556 -1.9292 -0.2203
 8118SOL    MW432246   5.439   1.260   1.594 -0.1614  0.2799 -0.3035
 8119SOL     OW32247   5.383   4.493   1.516 -0.3588  0.3960 -0.0890
 8119SOL    HW232248   5.414   4.555   1.449 -0.9752 -0.6922 -1.4415
 8119SOL    HW332249   5.325   4.545   1.572 -0.4039  1.1836 -0.8461
 8119SOL    MW432250   5.379   4.508   1.514 -0.4825  0.0013  0.7258
 8120SOL     OW32251   1.324   5.505   2.516  0.4004  0.7813  0.9540
 8120SOL    HW232252   1.301   5.471   2.430 -1.8230  1.4671  1.2308
 8120SOL    HW332253   1.357   5.593   2.498 -0.6533  1.1600  0.8472
 8120SOL    MW432254   1.326   5.512   2.502  0.1821 -0.2143  0.2676
 8121SOL     OW32255   5.999   3.311   1.158 -0.1625  0.1604 -0.1601
 8121SOL    HW232256   5.931   3.293   1.223  0.7730  1.3410  1.2211
 8121SOL    HW332257   5.952   3.348   1.083 -1.2996 -1.5386 -0.3234
 8121SOL    MW432258   5.984   3.314   1.157  0.5627  0.7179 -0.3606
 8122SOL     OW32259   1.880   1.524   4.516 -0.2648 -0.4852 -0.1836
 8122SOL    HW232260   1.916   1.512   4.428 -1.7222 -1.2662 -0.7005
 8122SOL    HW332261   1.954   1.506   4.575  0.6968 -0.0571 -1.2277
 8122SOL    MW432262   1.895   1.520   4.512  0.4492 -0.1104  0.1693
 8123SOL     OW32263   4.829   1.992   3.639  0.8773 -0.3163  0.3055
 8123SOL    HW232264   4.809   1.901   3.617 -0.2001  0.2262 -1.1140
 8123SOL    HW332265   4.747   2.029   3.669  1.3625  0.1442  1.1031
 8123SOL    MW432266   4.816   1.985   3.640 -0.5654  0.0839  0.0624
 8124SOL     OW32267   0.794   1.984   5.641 -0.0182 -0.1939  0.3799
 8124SOL    HW232268   0.707   1.944   5.653  0.4002 -2.0171 -2.0461
 8124SOL    HW332269   0.783   2.044   5.567  0.4079  0.9793  1.2371
 8124SOL    MW432270   0.781   1.987   5.633  0.0063  0.0636  0.0559
 8125SOL     OW32271   6.199   2.414   2.376 -0.2707  0.7604  0.4220
 8125SOL    HW232272   6.245   2.342   2.332 -1.2265  0.2549  0.2231
 8125SOL    HW332273   6.126   2.435   2.318  1.1877  3.3985 -0.6352
 8125SOL    MW432274   6.196   2.407   2.363  0.8653  0.0451 -0.1696
 8126SOL     OW32275   6.369   4.211   3.846 -0.0926 -0.5430 -0.3156
 8126SOL    HW232276   6.450   4.222   3.795 -0.4839 -1.3725 -1.1576
 8126SOL    HW332277   6.391   4.243   3.933  0.7760  0.4001 -0.8486
 8126SOL    MW432278   6.383   4.217   3.851  0.3837  0.0482 -0.3483
 8127SOL     OW32279   1.166   4.024   0.014 -0.3507  0.1439 -0.8606
 8127SOL    HW232280   1.133   4.012   0.103 -2.7613  2.3727 -1.3110
 8127SOL    HW332281   1.122   3.956  -0.037  0.5127 -0.7133 -0.4770
 8127SOL    MW432282   1.156   4.014   0.019  0.1417  0.0333  0.3276
 8128SOL     OW32283   2.270   1.157   1.902 -0.0449  0.2563 -0.2657
 8128SOL    HW232284   2.267   1.143   1.996  1.9064  1.3780 -0.0021
 8128SOL    HW332285   2.206   1.226   1.885 -0.2718  0.1735  0.2583
 8128SOL    MW432286   2.261   1.164   1.912 -0.2741  0.2242  0.6552
 8129SOL     OW32287   3.291   6.375   0.314  0.3550 -0.2747  0.1852
 8129SOL    HW232288   3.282   6.341   0.225  0.2791 -0.3441  0.2203
 8129SOL    HW332289   3.316   6.467   0.301 -1.6034  0.2719  0.0773
 8129SOL    MW432290   3.293   6.383   0.300 -0.3577  0.6332 -0.1639
 8130SOL     OW32291   2.679   1.194   1.059 -0.0714  0.3858  0.4052
 8130SOL    HW232292   2.659   1.255   1.130 -0.7080 -0.0182  0.5747
 8130SOL    HW332293   2.725   1.121   1.102 -0.5937  0.0680  0.4335
 8130SOL    MW432294   2.683   1.192   1.074 -0.4938  0.2644  0.0729
 8131SOL     OW32295   5.585   0.531   0.217  0.3679 -0.2126  0.3349
 8131SOL    HW232296   5.652   0.599   0.224  1.3854 -0.9672 -1.3085
 8131SOL    HW332297   5.630   0.451   0.244 -0.7622 -0.3084  2.0589
 8131SOL    MW432298   5.600   0.530   0.221  0.0910  0.2062  0.1814
 8132SOL     OW32299   1.453   3.654   5.920  0.1908 -0.3769  0.8044
 8132SOL    HW232300   1.501   3.665   5.838  0.2027  2.3310  1.0652
 8132SOL    HW332301   1.376   3.602   5.896 -0.0537  0.7322 -1.0873
 8132SOL    MW432302   1.449   3.649   5.906 -0.2480 -0.0573  0.0990
 8133SOL     OW32303   0.290   1.711   1.383 -0.5376  0.3527 -0.3039
 8133SOL    HW232304   0.323   1.649   1.318  2.0556  1.5527 -0.2408
 8133SOL    HW332305   0.255   1.784   1.331 -0.0527  0.5405 -0.3706
 8133SOL    MW432306   0.290   1.712   1.367 -0.1340  0.0364  0.2919
 8134SOL     OW32307   4.243   1.687   1.966  0.2012  0.0062 -0.1791
 8134SOL    HW232308   4.254   1.689   1.871  0.1022  1.9207 -0.1811
 8134SOL    HW332309   4.163   1.636   1.980  0.3566 -0.5081 -1.0947
 8134SOL    MW432310   4.234   1.680   1.956 -0.4666 -0.0501 -0.1368
 8135SOL     OW32311   2.205   4.660   2.401 -0.5693 -0.4154 -0.2561
 8135SOL    HW232312   2.124   4.611   2.388 -0.1458 -1.4552  0.9192
 8135SOL    HW332313   2.269   4.595   2.430  0.2726  0.6511  0.3648
 8135SOL    MW432314   2.203   4.645   2.403  0.3741 -0.0686 -0.5907
 8136SOL     OW32315   2.095   0.921   1.162 -0.2375 -0.0151 -0.1767
 8136SOL    HW232316   2.101   1.002   1.112  1.7618 -0.1016 -0.1688
 8136SOL    HW332317   2.025   0.871   1.119 -0.7169  1.2214 -0.8851
 8136SOL    MW432318   2.087   0.925   1.149  0.8774 -0.0664 -0.1274
 8137SOL     OW32319   2.399   4.452   5.105  0.0781  0.3411 -0.3687
 8137SOL    HW232320   2.316   4.494   5.128  0.0203  0.6895 -1.1834
 8137SOL    HW332321   2.426   4.408   5.185 -1.1421 -0.1986 -0.2250
 8137SOL    MW432322   2.392   4.452   5.119 -0.9465 -0.8072 -0.5107
 8138SOL     OW32323   0.062   2.559   4.768 -0.5854 -0.3668 -0.2858
 8138SOL    HW232324   0.089   2.473   4.800 -0.9240 -0.8399 -1.2166
 8138SOL    HW332325   0.048   2.546   4.674 -0.0480  0.8590 -0.5557
 8138SOL    MW432326   0.063   2.546   4.760  0.1930  0.0301 -0.3703
 8139SOL     OW32327   3.663   0.790   4.722  0.2143 -0.2045 -0.4241
 8139SOL    HW232328   3.681   0.719   4.661  1.2754 -1.2326  1.0034
 8139SOL    HW332329   3.666   0.749   4.808 -1.8445  1.0790  0.3214
 8139SOL    MW432330   3.666   0.775   4.725 -0.2733 -0.2616 -0.1587
 8140SOL     OW32331   6.122   2.838   4.449 -0.1021 -0.2486 -0.4601
 8140SOL    HW232332   6.087   2.763   4.402  0.2060 -0.4628 -0.3537
 8140SOL    HW332333   6.087   2.830   4.538  0.9452 -0.9840 -0.0906
 8140SOL    MW432334   6.113   2.827   4.455 -0.6035  0.2141  0.2670
 8141SOL     OW32335   5.496   2.117   0.572  0.3072 -0.3767  0.4687
 8141SOL    HW232336   5.407   2.145   0.548  0.4136 -0.3094  0.1359
 8141SOL    HW332337   5.530   2.076   0.492  1.1056  0.9271  0.1026
 8141SOL    MW432338   5.489   2.115   0.558  0.2080  0.6294 -0.0095
 8142SOL     OW32339   2.918   3.727   4.778 -0.0797  0.2144 -0.0513
 8142SOL    HW232340   2.868   3.645   4.781 -0.7694  0.6385  1.1518
 8142SOL    HW332341   2.988   3.711   4.715 -1.1040 -0.7729 -0.9821
 8142SOL    MW432342   2.921   3.714   4.770 -0.5036  0.1278  0.1722
 8143SOL     OW32343   1.820   2.709   0.833  0.1387 -0.5477 -0.1654
 8143SOL    HW232344   1.743   2.697   0.777  0.2450 -0.2059 -0.3958
 8143SOL    HW332345   1.791   2.684   0.920 -0.5190  0.4762 -0.0751
 8143SOL    MW432346   1.806   2.704   0.837 -0.0017 -0.3641  0.0802
 8144SOL     OW32347   6.278   1.148   2.732  0.1400 -0.3912 -0.3808
 8144SOL    HW232348   6.330   1.168   2.810  2.3121 -0.1556 -1.8079
 8144SOL    HW332349   6.340   1.154   2.660 -1.4051 -2.2591 -1.9857
 8144SOL    MW432350   6.293   1.151   2.733 -0.0428 -0.1974  0.4613
 8145SOL     OW32351   0.741   4.210   6.274  0.1978 -0.5172  0.3343
 8145SOL    HW232352   0.793   4.145   6.322  0.7453 -2.6034 -2.7401
 8145SOL    HW332353   0.806   4.265   6.230 -0.2857  1.0905  1.5335
 8145SOL    MW432354   0.756   4.208   6.275 -0.0418 -0.0091  0.5788
 8146SOL     OW32355   3.789   5.638   5.688 -0.2732 -0.3041  0.0108
 8146SOL    HW232356   3.876   5.623   5.650 -0.7713 -2.3152 -0.4135
 8146SOL    HW332357   3.802   5.625   5.782  0.1990  1.0613  0.1597
 8146SOL    MW432358   3.802   5.634   5.696 -0.1257  0.1530 -0.2745
 8147SOL     OW32359   2.742   2.898   5.760  0.0242 -0.1947  0.0977
 8147SOL    HW232360   2.660   2.902   5.712  1.7234  1.0009 -2.9760
 8147SOL    HW332361   2.743   2.810   5.798 -2.2142 -0.5751 -0.5855
 8147SOL    MW432362   2.731   2.887   5.759  0.2302 -0.0263 -0.2314
 8148SOL     OW32363   3.713   2.604   3.281  0.3336 -0.1745 -0.4694
 8148SOL    HW232364   3.768   2.537   3.320 -1.5747 -1.3664  0.3310
 8148SOL    HW332365   3.773   2.674   3.258  2.0521 -1.0560  1.0733
 8148SOL    MW432366   3.728   2.604   3.283  0.7030 -0.0316  0.1886
 8149SOL     OW32367   5.761   0.093   0.290  0.1902  0.4039 -0.4864
 8149SOL    HW232368   5.704   0.153   0.338  0.3776 -0.1415  0.4669
 8149SOL    HW332369   5.848   0.132   0.298  0.3515 -0.0957  0.3456
 8149SOL    MW432370   5.765   0.106   0.298 -0.4569 -0.0505  0.4044
 8150SOL     OW32371   0.118   1.122   2.602  0.2654 -0.5923 -0.0825
 8150SOL    HW232372   0.105   1.037   2.644  1.1149 -0.9937 -0.6130
 8150SOL    HW332373   0.156   1.176   2.670  0.9223 -1.0172 -0.1047
 8150SOL    MW432374   0.121   1.118   2.616 -0.0131  0.4764  0.0227
 8151SOL     OW32375   0.336   0.358   1.364  0.3252  0.3509  0.0194
 8151SOL    HW232376   0.365   0.441   1.403  0.9711  0.0917  0.1021
 8151SOL    HW332377   0.414   0.323   1.321 -0.0187 -0.0720 -0.2676
 8151SOL    MW432378   0.350   0.365   1.364 -0.0367 -0.3369 -0.3926
 8152SOL     OW32379   2.166   5.428   5.563 -0.3261 -0.4115  0.2851
 8152SOL    HW232380   2.072   5.430   5.580 -0.8665  0.0884 -2.3671
 8152SOL    HW332381   2.177   5.360   5.497  1.1526 -0.3400  0.4259
 8152SOL    MW432382   2.155   5.419   5.556 -0.0519 -0.1159  0.1283
 8153SOL     OW32383   0.689   1.192   5.801  0.2146  0.3623 -0.0688
 8153SOL    HW232384   0.766   1.142   5.827  0.1940 -0.9865 -2.3441
 8153SOL    HW332385   0.615   1.141   5.837  0.1693 -1.6547 -2.7166
 8153SOL    MW432386   0.689   1.178   5.809 -0.6839 -0.5272 -0.6813
 8154SOL     OW32387   1.413   0.500   2.383 -0.0004  0.5728 -0.3553
 8154SOL    HW232388   1.323   0.503   2.351 -0.2067  2.5826  0.3094
 8154SOL    HW332389   1.405   0.476   2.476  0.3114 -0.9024 -0.6704
 8154SOL    MW432390   1.400   0.497   2.391 -0.1733  0.0895  0.1028
 8155SOL     OW32391   3.125   3.743   2.805 -0.2523  0.1051 -0.2728
 8155SOL    HW232392   3.205   3.706   2.843 -1.8308 -3.4275  0.0044
 8155SOL    HW332393   3.103   3.684   2.733 -2.3051  1.3232 -0.7293
 8155SOL    MW432394   3.133   3.730   2.800  0.3137  0.8130 -0.2901
 8156SOL     OW32395   2.012   4.499   2.886  0.1171 -0.2998  0.1588
 8156SOL    HW232396   2.022   4.440   2.960  2.0231  0.0021  0.2127
 8156SOL    HW332397   2.060   4.456   2.815  1.0858  0.8913  0.0521
 8156SOL    MW432398   2.020   4.485   2.886 -0.0573 -0.3956  0.0762
 8157SOL     OW32399   5.502   2.400   4.803 -0.6092  0.1639  0.5419
 8157SOL    HW232400   5.473   2.382   4.892 -2.0579  1.0724  0.2945
 8157SOL    HW332401   5.479   2.492   4.789  0.4301  0.2882 -0.4631
 8157SOL    MW432402   5.495   2.410   4.813 -0.7444  0.0055 -0.2424
 8158SOL     OW32403   2.410   5.621   2.646 -0.1908 -0.2755  0.1395
 8158SOL    HW232404   2.336   5.588   2.696 -1.0437  0.0494 -0.8689
 8158SOL    HW332405   2.391   5.598   2.556 -0.3422  2.0158 -0.4844
 8158SOL    MW432406   2.398   5.614   2.641  0.1723 -0.7866  0.4535
 8159SOL     OW32407   5.488   1.073   3.365  0.0377  0.0260  0.0129
 8159SOL    HW232408   5.507   1.027   3.284 -2.8708  3.1461 -2.7861
 8159SOL    HW332409   5.531   1.158   3.356  0.9796 -0.0762  2.5806
 8159SOL    MW432410   5.496   1.079   3.353  0.5004  0.3807 -0.0160
 8160SOL     OW32411   1.044   0.789   0.458 -0.2363 -0.1358 -0.2763
 8160SOL    HW232412   0.962   0.828   0.487  0.1664  1.7577 -1.5155
 8160SOL    HW332413   1.017   0.715   0.404 -1.0716 -0.5529  0.6848
 8160SOL    MW432414   1.030   0.784   0.455  0.3001  0.4832 -0.8267
 8161SOL     OW32415   5.596   1.500   5.362  0.0195  0.2408 -0.1007
 8161SOL    HW232416   5.684   1.530   5.340 -0.3330  1.2626 -0.1413
 8161SOL    HW332417   5.551   1.578   5.395 -0.8120 -0.3149  0.1147
 8161SOL    MW432418   5.602   1.514   5.364  0.0379 -0.2309  0.6874
 8162SOL     OW32419   3.069   0.795   5.264 -0.0131  0.3790  0.0746
 8162SOL    HW232420   3.143   0.856   5.265  0.1243  0.2130  0.8494
 8162SOL    HW332421   3.108   0.710   5.244 -0.3315  0.6654 -2.0320
 8162SOL    MW432422   3.084   0.792   5.261 -0.3100  0.4195 -0.0180
 8163SOL     OW32423   4.968   3.559   3.371 -0.4644 -0.0201 -0.8752
 8163SOL    HW232424   4.961   3.477   3.419  0.6432  0.9426  1.0467
 8163SOL    HW332425   4.964   3.627   3.439  1.3931  1.3981 -2.0965
 8163SOL    MW432426   4.966   3.557   3.386 -0.4540 -0.1987 -0.1942
 8164SOL     OW32427   4.219   5.474   3.136 -0.2497 -0.3810  0.4879
 8164SOL    HW232428   4.211   5.458   3.230  1.2102 -0.9620  0.5419
 8164SOL    HW332429   4.178   5.398   3.095  0.2755 -0.7799  0.6824
 8164SOL    MW432430   4.213   5.462   3.143  0.0546  0.0769 -0.1117
 8165SOL     OW32431   6.275   0.367   2.155  0.0973  0.2966 -0.0934
 8165SOL    HW232432   6.338   0.434   2.128 -0.1829  0.4958 -0.2456
 8165SOL    HW332433   6.195   0.415   2.174 -1.5245 -0.3395 -4.3403
 8165SOL    MW432434   6.273   0.382   2.154  0.5782  0.6289 -0.3947
 8166SOL     OW32435   3.233   3.335   1.332  0.0732 -0.8942 -0.0036
 8166SOL    HW232436   3.312   3.369   1.291 -0.1714 -0.1037  0.1643
 8166SOL    HW332437   3.217   3.251   1.287 -1.0224  0.5857 -2.6410
 8166SOL    MW432438   3.241   3.328   1.320  0.1426 -0.4661  1.1115
 8167SOL     OW32439   5.487   4.997   0.265  0.2557  0.6797  0.2255
 8167SOL    HW232440   5.502   4.999   0.360  0.9256 -2.2610  0.2667
 8167SOL    HW332441   5.515   4.910   0.238 -3.3160  0.0640 -2.1122
 8167SOL    MW432442   5.493   4.986   0.274 -0.0784 -0.6241 -0.2496
 8168SOL     OW32443   1.104   1.694   4.670  0.3755 -0.0311 -0.7730
 8168SOL    HW232444   1.124   1.733   4.585  2.9900 -1.0856 -0.7210
 8168SOL    HW332445   1.036   1.629   4.651  1.0296 -0.3653 -2.1221
 8168SOL    MW432446   1.098   1.690   4.656  0.0734 -0.3261  0.0800
 8169SOL     OW32447   3.960   4.748   1.909 -0.2407 -0.1729 -0.7942
 8169SOL    HW232448   3.938   4.794   1.829  0.7040  0.6821 -0.5931
 8169SOL    HW332449   4.030   4.687   1.883 -0.8011 -0.7890 -0.8643
 8169SOL    MW432450   3.967   4.746   1.895 -0.7351 -0.6621  0.2683
 8170SOL     OW32451   4.331   3.274   2.389 -0.1215  0.2000 -0.2936
 8170SOL    HW232452   4.268   3.205   2.409  1.1990 -2.6651 -4.5250
 8170SOL    HW332453   4.278   3.345   2.352 -1.1504 -0.4798 -0.1490
 8170SOL    MW432454   4.316   3.274   2.387 -0.0059  0.1783 -0.0809
 8171SOL     OW32455   0.612   5.433   4.333 -0.2824 -0.1456  0.2441
 8171SOL    HW232456   0.526   5.455   4.369 -0.7458  1.0703 -1.4994
 8171SOL    HW332457   0.640   5.513   4.289  1.9467 -0.3838  1.1122
 8171SOL    MW432458   0.604   5.446   4.332  0.4431  0.1770  0.1842
 8172SOL     OW32459   6.126   3.549   5.063 -0.3302  0.2662 -0.1673
 8172SOL    HW232460   6.127   3.641   5.035 -0.2989  0.2323 -0.2801
 8172SOL    HW332461   6.035   3.532   5.087 -0.0222  0.8091  1.4801
 8172SOL    MW432462   6.115   3.559   5.062 -0.3666  0.2247 -1.0937
 8173SOL     OW32463   3.451   5.998   2.852 -0.0239  0.3359 -0.2858
 8173SOL    HW232464   3.471   5.995   2.946 -0.3676  1.9916 -0.1230
 8173SOL    HW332465   3.375   5.941   2.842  0.4005 -0.3654  0.3103
 8173SOL    MW432466   3.444   5.990   2.863  0.2505  0.7099  0.3800
 8174SOL     OW32467   2.562   4.685   5.787 -0.1816 -0.4246  0.3230
 8174SOL    HW232468   2.587   4.636   5.865  0.6222 -1.1420 -0.3664
 8174SOL    HW332469   2.643   4.696   5.738 -0.5735  0.5179 -0.1393
 8174SOL    MW432470   2.576   4.680   5.791  0.0877  0.3466 -0.2334
 8175SOL     OW32471   4.591   0.508   0.565  0.4110  0.3601  0.3052
 8175SOL    HW232472   4.601   0.536   0.474  1.3709 -0.8699  0.0107
 8175SOL    HW332473   4.498   0.489   0.573 -0.3550  3.5277  0.5438
 8175SOL    MW432474   4.580   0.509   0.554  0.6537  0.5093  0.2627
 8176SOL     OW32475   4.795   5.350   1.513  0.2020 -0.0040 -0.0263
 8176SOL    HW232476   4.860   5.419   1.518  0.4714 -0.1002 -1.6169
 8176SOL    HW332477   4.715   5.395   1.486 -0.2374  0.0105  1.2358
 8176SOL    MW432478   4.793   5.365   1.510  0.4278  0.1290  0.3512
 8177SOL     OW32479   0.766   0.837   2.814 -0.0769  0.0044 -0.3516
 8177SOL    HW232480   0.753   0.921   2.858 -0.1556  0.0371 -0.4369
 8177SOL    HW332481   0.834   0.793   2.865 -0.1983  0.0243 -0.1745
 8177SOL    MW432482   0.774   0.842   2.826 -0.0476 -0.1539 -0.3453
 8178SOL     OW32483   1.998   4.513   3.591 -0.0218 -0.6427  0.0772
 8178SOL    HW232484   1.909   4.549   3.592  0.1550 -0.1804 -0.6820
 8178SOL    HW332485   1.997   4.446   3.660 -1.8452 -2.7427 -1.8149
 8178SOL    MW432486   1.986   4.509   3.600 -0.5386  0.2981 -0.1068
 8179SOL     OW32487   6.045   2.054   0.349 -0.3033  0.6136 -0.3881
 8179SOL    HW232488   6.084   2.138   0.325  0.2046  0.4180 -0.2612
 8179SOL    HW332489   5.979   2.076   0.414 -1.8165  1.1828 -2.0351
 8179SOL    MW432490   6.042   2.068   0.354  1.1251 -0.3140  0.3024
 8180SOL     OW32491   0.355   1.604   5.231  0.0232  1.1497 -0.0636
 8180SOL    HW232492   0.378   1.525   5.281 -1.4343  1.0179  0.4385
 8180SOL    HW332493   0.396   1.676   5.279 -0.5734  0.9206  0.8022
 8180SOL    MW432494   0.364   1.603   5.244  0.2878 -0.3890 -0.6004
 8181SOL     OW32495   4.315   4.150   4.610 -0.1247 -0.4320 -0.2071
 8181SOL    HW232496   4.248   4.164   4.676 -0.2261  0.3064 -0.4626
 8181SOL    HW332497   4.364   4.073   4.641  0.7473  0.7493  1.4710
 8181SOL    MW432498   4.313   4.141   4.623 -0.7956 -0.7311  0.1179
 8182SOL     OW32499   2.180   1.481   4.857  0.6066  0.4641  0.0043
 8182SOL    HW232500   2.152   1.515   4.942  1.0681  0.6193  0.0947
 8182SOL    HW332501   2.105   1.430   4.826  0.3071  0.6928  0.3455
 8182SOL    MW432502   2.167   1.479   4.864 -0.2725 -0.6455 -0.0007
 8183SOL     OW32503   2.276   6.149   0.098  0.4781 -0.2281  0.6847
 8183SOL    HW232504   2.198   6.153   0.043  2.6566  1.8321 -2.6304
 8183SOL    HW332505   2.243   6.161   0.187 -2.9744  0.6627 -0.5516
 8183SOL    MW432506   2.261   6.151   0.103  1.1594  0.3877  0.0980
 8184SOL     OW32507   2.815   3.476   5.761  0.0290  0.3617  0.3829
 8184SOL    HW232508   2.855   3.535   5.824  0.6183 -0.9208  1.2489
 8184SOL    HW332509   2.721   3.477   5.783  0.2001  0.0919  1.1611
 8184SOL    MW432510   2.808   3.484   5.772  0.1738  0.5111  0.3631
 8185SOL     OW32511   0.321   2.719   4.202 -0.2612 -0.3445 -0.6373
 8185SOL    HW232512   0.378   2.651   4.237 -0.3449 -1.4272 -2.5197
 8185SOL    HW332513   0.372   2.759   4.132 -1.6804 -1.1877 -2.2134
 8185SOL    MW432514   0.336   2.716   4.198  0.3357  0.1930 -0.5853
 8186SOL     OW32515   0.964   3.831   3.223 -0.2162  0.5313  0.1304
 8186SOL    HW232516   0.929   3.909   3.180 -0.8823  0.1516 -0.0250
 8186SOL    HW332517   0.890   3.795   3.271  0.2374  0.3179  0.6942
 8186SOL    MW432518   0.950   3.837   3.224  0.4929  0.4491  0.3520
 8187SOL     OW32519   1.612   1.606   1.399 -0.1528  0.0264  0.2588
 8187SOL    HW232520   1.699   1.645   1.411 -0.9388  1.5525  1.3614
 8187SOL    HW332521   1.630   1.517   1.368  1.7935  0.3718  0.2518
 8187SOL    MW432522   1.626   1.599   1.397  0.2657 -0.4121 -0.4566
 8188SOL     OW32523   1.989   5.999   1.763 -0.4511 -0.4374 -0.0559
 8188SOL    HW232524   2.041   6.076   1.786 -1.3197  0.1878 -0.1458
 8188SOL    HW332525   2.006   5.937   1.834  0.2625 -0.1742  0.0136
 8188SOL    MW432526   1.998   6.001   1.776  0.0575  0.3055  0.2304
 8189SOL     OW32527   1.718   4.457   4.156  0.4483 -0.4456 -0.1022
 8189SOL    HW232528   1.771   4.509   4.095  1.0871 -1.4622 -0.4329
 8189SOL    HW332529   1.632   4.454   4.116  0.6387 -0.3819 -0.5268
 8189SOL    MW432530   1.714   4.464   4.143 -0.2273  0.2350 -0.0250
 8190SOL     OW32531   4.140   4.173   4.831  0.1777 -0.0710 -0.5463
 8190SOL    HW232532   4.064   4.117   4.846 -0.3468  0.5821 -0.7397
 8190SOL    HW332533   4.104   4.255   4.798  1.0204 -0.0210 -1.3906
 8190SOL    MW432534   4.125   4.176   4.829 -0.6039  0.2442 -0.1072
 8191SOL     OW32535   2.024   2.178   4.421 -0.2092  0.0932 -0.1427
 8191SOL    HW232536   1.972   2.113   4.373 -1.9913  1.0873  0.3378
 8191SOL    HW332537   1.968   2.255   4.425  0.7160  0.7341  1.7084
 8191SOL    MW432538   2.010   2.179   4.415 -0.4732  0.0647  0.3239
 8192SOL     OW32539   6.155   2.710   0.143  0.1954 -0.4100  0.2821
 8192SOL    HW232540   6.236   2.659   0.134 -0.1883 -0.8076 -1.1901
 8192SOL    HW332541   6.106   2.690   0.064 -1.4264 -0.2933  1.2208
 8192SOL    MW432542   6.159   2.700   0.132 -0.3550  0.6445 -0.0379
 8193SOL     OW32543   5.455   5.714   1.276  0.2763  0.5989  0.3756
 8193SOL    HW232544   5.458   5.742   1.184  0.3974 -0.4972  0.0358
 8193SOL    HW332545   5.477   5.621   1.273  3.8417  1.2321  1.8347
 8193SOL    MW432546   5.459   5.706   1.263 -0.5493  0.0037  0.2632
 8194SOL     OW32547   2.777   4.702   3.213  0.0008 -0.6169  0.2947
 8194SOL    HW232548   2.851   4.760   3.198  1.7441 -2.9725 -0.8389
 8194SOL    HW332549   2.702   4.747   3.174  1.1393  1.1307  0.0583
 8194SOL    MW432550   2.777   4.715   3.206 -0.4799 -0.0705  0.1545
 8195SOL     OW32551   4.263   3.328   1.823 -0.1773  0.0857 -0.1060
 8195SOL    HW232552   4.220   3.295   1.902 -1.0813 -0.1155 -0.6627
 8195SOL    HW332553   4.352   3.292   1.828 -0.1355  0.3022  0.9461
 8195SOL    MW432554   4.269   3.319   1.834 -0.2622  0.1811  0.4742
 8196SOL     OW32555   5.285   5.165   6.274  0.2713  0.6581 -0.7060
 8196SOL    HW232556   5.304   5.142   6.183 -1.1109  0.1323 -0.8862
 8196SOL    HW332557   5.309   5.087   6.324 -0.8717  0.1806 -0.8748
 8196SOL    MW432558   5.291   5.152   6.269  0.4663 -0.4100  0.1497
 8197SOL     OW32559   1.659   2.352   2.668 -0.0845 -0.5367 -0.0333
 8197SOL    HW232560   1.719   2.347   2.742 -0.7385 -0.5574  0.5000
 8197SOL    HW332561   1.619   2.438   2.674  0.7862 -0.0284 -1.1074
 8197SOL    MW432562   1.662   2.363   2.679  0.2979  0.0961 -0.4498
 8198SOL     OW32563   3.679   0.888   2.444  0.4243 -0.1878  0.1378
 8198SOL    HW232564   3.704   0.973   2.483  2.4685 -0.8802  0.4943
 8198SOL    HW332565   3.702   0.897   2.351 -1.0695  0.2384 -0.2100
 8198SOL    MW432566   3.686   0.901   2.437  0.4050  0.0456  0.1810
 8199SOL     OW32567   1.712   0.789   0.261 -0.2775 -0.7814  0.2610
 8199SOL    HW232568   1.676   0.775   0.348 -1.0650 -1.2608 -0.1334
 8199SOL    HW332569   1.693   0.708   0.213 -1.5779  0.1646 -0.9304
 8199SOL    MW432570   1.705   0.776   0.266 -0.1821 -0.8686  0.3483
 8200SOL     OW32571   3.144   2.971   1.639  0.4109  0.3178  0.3261
 8200SOL    HW232572   3.124   2.903   1.703  0.4320 -0.3871 -0.3869
 8200SOL    HW332573   3.240   2.973   1.636  0.4102  0.0155 -0.0125
 8200SOL    MW432574   3.154   2.962   1.647 -0.0724  0.2242  0.1229
 8201SOL     OW32575   4.067   2.931   5.635  0.2156  0.2839 -0.2119
 8201SOL    HW232576   4.008   2.889   5.572  0.6115 -0.2603 -0.2299
 8201SOL    HW332577   4.154   2.923   5.596  0.5218 -0.4381  0.5859
 8201SOL    MW432578   4.070   2.924   5.622  0.4042 -0.3713  0.1518
 8202SOL     OW32579   5.061   2.254   1.871  0.1511  0.0889  0.1518
 8202SOL    HW232580   4.974   2.240   1.908 -0.2875 -0.1304 -0.9098
 8202SOL    HW332581   5.079   2.347   1.884 -0.4204  0.2203  0.0219
 8202SOL    MW432582   5.052   2.264   1.877 -0.1790 -0.0215  0.3468
 8203SOL     OW32583   2.877   1.300   5.853 -0.6582  0.8530  0.1010
 8203SOL    HW232584   2.792   1.281   5.894 -0.9564  1.3564 -0.2635
 8203SOL    HW332585   2.877   1.250   5.772 -0.1399 -0.0066  0.6155
 8203SOL    MW432586   2.865   1.291   5.848 -0.3201  0.6598  0.4107
 8204SOL     OW32587   3.222   2.503   3.822 -0.1063  0.1718 -0.1803
 8204SOL    HW232588   3.129   2.524   3.812  0.1441  0.5403 -2.3068
 8204SOL    HW332589   3.230   2.412   3.795  0.3674  0.6709 -1.8599
 8204SOL    MW432590   3.211   2.494   3.817  0.6507  0.0581  0.5149
 8205SOL     OW32591   3.266   3.320   1.596  0.5316 -0.2581 -0.5356
 8205SOL    HW232592   3.185   3.270   1.606  1.3990 -1.7308 -0.6670
 8205SOL    HW332593   3.281   3.322   1.502  0.9764 -0.5134 -0.4680
 8205SOL    MW432594   3.257   3.314   1.585  0.1516  0.3999 -0.1878
 8206SOL     OW32595   0.978   3.757   2.497  0.3386  0.6631  0.4399
 8206SOL    HW232596   1.072   3.765   2.513  0.8894 -2.3589 -0.6609
 8206SOL    HW332597   0.958   3.665   2.514 -1.9808  0.7239 -1.4372
 8206SOL    MW432598   0.987   3.746   2.501 -0.3983  0.1067  0.3625
 8207SOL     OW32599   0.883   3.116   3.823  0.7046 -0.1292 -0.0613
 8207SOL    HW232600   0.943   3.147   3.756  0.3103  2.4262  0.6584
 8207SOL    HW332601   0.937   3.110   3.902  0.4122  0.5656  0.2069
 8207SOL    MW432602   0.898   3.119   3.825  0.3514  0.1985  0.3875
 8208SOL     OW32603   1.775   3.318   4.298 -0.2974  0.1503 -0.2595
 8208SOL    HW232604   1.728   3.344   4.377  0.3247 -1.0778  0.5437
 8208SOL    HW332605   1.761   3.223   4.291  2.2669 -0.3554  0.2135
 8208SOL    MW432606   1.767   3.309   4.307 -0.2436 -0.4094  0.5168
 8209SOL     OW32607   3.995   5.994   1.661  0.0220  0.1252  0.3777
 8209SOL    HW232608   3.940   6.037   1.727  0.4939  0.6708  0.4254
 8209SOL    HW332609   4.053   6.063   1.630 -0.2848 -0.0849 -0.7185
 8209SOL    MW432610   3.995   6.009   1.666  0.1287  0.6149  0.0637
 8210SOL     OW32611   0.370   6.290   3.181  0.2210  0.0647 -0.4102
 8210SOL    HW232612   0.370   6.381   3.209  0.6531 -0.1998  0.4922
 8210SOL    HW332613   0.451   6.279   3.132  0.4802  0.0112  0.0267
 8210SOL    MW432614   0.380   6.301   3.178 -0.2906 -0.6631  0.3227
 8211SOL     OW32615   0.242   3.416   2.057  0.5422  0.3931 -0.1935
 8211SOL    HW232616   0.225   3.447   2.146  1.2822 -0.1779  0.1520
 8211SOL    HW332617   0.169   3.450   2.006 -0.6415 -0.4634  0.8926
 8211SOL    MW432618   0.230   3.425   2.062  0.1973  0.4456 -0.0437
 8212SOL     OW32619   3.918   3.746   4.376 -0.4931 -0.0151 -0.2522
 8212SOL    HW232620   3.934   3.653   4.396 -0.2584 -0.1040 -0.8252
 8212SOL    HW332621   3.990   3.792   4.418 -1.4795  0.0802  1.4142
 8212SOL    MW432622   3.930   3.740   4.384 -0.6806 -0.2213 -0.4755
 8213SOL     OW32623   5.305   4.920  -0.006  0.3512 -0.2053 -0.7412
 8213SOL    HW232624   5.275   4.965   0.074  1.5989 -0.1093 -0.2973
 8213SOL    HW332625   5.266   4.833  -0.001 -0.5250  0.1850 -0.6246
 8213SOL    MW432626   5.296   4.915   0.005  0.1105  0.0178  0.2099
 8214SOL     OW32627   5.098   3.435   1.651  0.0469 -0.1186 -0.7624
 8214SOL    HW232628   5.020   3.474   1.611 -0.7205 -0.2304  0.5806
 8214SOL    HW332629   5.124   3.496   1.720  0.0640 -0.9620 -0.0101
 8214SOL    MW432630   5.091   3.448   1.655  0.3630  0.0111 -0.3092
 8215SOL     OW32631   0.791   2.202   1.457  0.1493  0.9354 -0.5490
 8215SOL    HW232632   0.845   2.255   1.398  1.0958  0.3266 -0.2623
 8215SOL    HW332633   0.706   2.195   1.414  0.9556  0.1263 -2.0677
 8215SOL    MW432634   0.787   2.208   1.444 -0.1831 -0.5573 -0.5094
 8216SOL     OW32635   4.331   2.377   5.688 -0.2112  0.3340  0.0852
 8216SOL    HW232636   4.279   2.346   5.763 -0.6858  1.8107  0.4063
 8216SOL    HW332637   4.285   2.456   5.658  0.7170  0.5108 -0.9322
 8216SOL    MW432638   4.318   2.384   5.694  0.2753  0.3641  0.3718
 8217SOL     OW32639   4.211   0.455   1.856 -0.5995 -0.0725 -0.0734
 8217SOL    HW232640   4.287   0.441   1.913 -0.4032 -0.5217 -0.4418
 8217SOL    HW332641   4.244   0.445   1.767 -0.9758  0.2871 -0.2574
 8217SOL    MW432642   4.225   0.452   1.852 -0.2259  0.0063  0.4042
 8218SOL     OW32643   3.965   3.104   4.775 -0.0418 -0.5334  0.0906
 8218SOL    HW232644   3.874   3.074   4.777 -0.5536  0.9081  2.5260
 8218SOL    HW332645   4.001   3.078   4.860  1.5535 -0.2892 -0.4791
 8218SOL    MW432646   3.958   3.097   4.786 -0.1409 -0.5184  0.2608
 8219SOL     OW32647   6.152   6.283   0.213  0.3905 -0.3202 -0.2866
 8219SOL    HW232648   6.170   6.282   0.307 -1.1299 -0.8249  0.0372
 8219SOL    HW332649   6.229   6.324   0.173  0.5991  0.8888  1.2802
 8219SOL    MW432650   6.164   6.289   0.220 -0.7707 -0.1078 -0.2463
 8220SOL     OW32651   1.595   2.634   0.674  0.5080 -0.6678  0.2198
 8220SOL    HW232652   1.567   2.548   0.642  0.8189 -0.9873  0.8096
 8220SOL    HW332653   1.514   2.676   0.703  0.2663 -0.5046 -0.6623
 8220SOL    MW432654   1.580   2.628   0.673  0.6797 -0.1582 -0.2381
 8221SOL     OW32655   2.772   2.075   6.277 -0.2727  0.0473  0.4253
 8221SOL    HW232656   2.828   2.141   6.237 -1.2099  0.4476 -0.2535
 8221SOL    HW332657   2.715   2.125   6.336 -0.8406 -0.1678  0.0706
 8221SOL    MW432658   2.772   2.090   6.280  0.3619  0.6217  0.5686
 8222SOL     OW32659   4.054   1.275   2.142  0.1458 -0.1757 -0.3273
 8222SOL    HW232660   4.137   1.235   2.116  0.2968 -0.8446  1.1129
 8222SOL    HW332661   3.987   1.219   2.104  0.3296  0.2670 -1.3447
 8222SOL    MW432662   4.056   1.262   2.134 -0.1810 -0.1456 -0.0779
 8223SOL     OW32663   5.755   2.773   5.496  0.4790  0.4838 -0.5028
 8223SOL    HW232664   5.717   2.797   5.411  0.5104  2.4838 -0.0099
 8223SOL    HW332665   5.698   2.815   5.561  2.1535  1.5829  0.3301
 8223SOL    MW432666   5.742   2.782   5.493  0.1276  0.0267  0.5443
 8224SOL     OW32667   5.635   2.059   4.896 -0.3586 -0.1341 -0.5767
 8224SOL    HW232668   5.567   2.042   4.830  0.4674 -1.8261 -1.0424
 8224SOL    HW332669   5.586   2.085   4.974 -1.7406 -3.0654 -0.3520
 8224SOL    MW432670   5.619   2.060   4.898  0.4299  0.2060 -0.3276
 8225SOL     OW32671   4.875   3.038   4.455  0.4085  0.1815  0.3025
 8225SOL    HW232672   4.888   3.094   4.531  0.5149  0.1982  0.2727
 8225SOL    HW332673   4.790   3.065   4.419 -0.8013 -1.3914  1.7605
 8225SOL    MW432674   4.865   3.049   4.460  0.1765  0.6205  0.0213
 8226SOL     OW32675   2.792   5.390   0.266 -0.1759 -0.0941  0.0191
 8226SOL    HW232676   2.786   5.466   0.207  1.5855  0.4828  0.4979
 8226SOL    HW332677   2.772   5.426   0.352 -2.8856 -0.9661 -0.1536
 8226SOL    MW432678   2.789   5.405   0.269  0.6488 -0.2520 -0.3043
 8227SOL     OW32679   2.094   2.340   0.534 -0.3709  0.1355  0.5874
 8227SOL    HW232680   2.188   2.332   0.553 -0.6688 -0.3927  2.0059
 8227SOL    HW332681   2.063   2.406   0.595 -0.8521  0.6307 -0.1828
 8227SOL    MW432682   2.103   2.347   0.545  0.2454  0.2872  0.2141
 8228SOL     OW32683   3.014   2.520   0.633  0.4313  0.0331 -0.5199
 8228SOL    HW232684   3.058   2.435   0.626  0.7583 -0.0112  1.4982
 8228SOL    HW332685   2.925   2.503   0.601  0.1006 -1.4374  1.0046
 8228SOL    MW432686   3.008   2.506   0.628 -0.4047 -0.1640 -0.3791
 8229SOL     OW32687   5.046   5.430   2.722  0.5744 -0.1705 -0.5071
 8229SOL    HW232688   5.070   5.505   2.668 -1.8499  0.9036 -0.2277
 8229SOL    HW332689   5.002   5.370   2.663 -1.0658  0.4994 -0.0437
 8229SOL    MW432690   5.044   5.432   2.707  0.3278 -0.3706 -0.1455
 8230SOL     OW32691   4.030   0.766   5.636 -0.3221  0.1555 -0.2954
 8230SOL    HW232692   4.111   0.716   5.644 -0.0591  0.6053 -0.1279
 8230SOL    HW332693   3.974   0.733   5.706  0.6158  1.5304  1.1471
 8230SOL    MW432694   4.033   0.755   5.646 -0.5852  0.8610 -0.0368
 8231SOL     OW32695   3.519   0.655   3.417  0.7766 -0.2588 -0.1497
 8231SOL    HW232696   3.583   0.610   3.472  1.2546  0.3541 -0.1785
 8231SOL    HW332697   3.573   0.702   3.352  0.3296  0.6448  0.1154
 8231SOL    MW432698   3.535   0.656   3.415 -0.2269 -0.4379  0.1201
 8232SOL     OW32699   0.395   0.257   0.078  0.3734 -0.6994 -0.2760
 8232SOL    HW232700   0.317   0.219   0.038  0.4468 -0.1864 -0.9264
 8232SOL    HW332701   0.415   0.199   0.151 -0.1900 -1.2494 -0.5457
 8232SOL    MW432702   0.387   0.244   0.082 -0.6980 -0.6365 -0.0412
 8233SOL     OW32703   5.240   2.719   2.682 -0.5824  0.6442  0.4974
 8233SOL    HW232704   5.332   2.695   2.685 -0.5032  0.9594  0.7038
 8233SOL    HW332705   5.202   2.662   2.615 -0.5009 -0.3676  1.2998
 8233SOL    MW432706   5.247   2.709   2.673  0.0889  0.4456  0.2964
 8234SOL     OW32707   2.545   0.732   1.956 -0.5554 -0.1053  0.4990
 8234SOL    HW232708   2.592   0.664   2.005 -0.6442 -0.3234  0.2785
 8234SOL    HW332709   2.613   0.797   1.936 -0.1153 -0.8949 -0.6983
 8234SOL    MW432710   2.560   0.732   1.960  0.1211 -0.7925  0.5168
 8235SOL     OW32711   1.863   1.814   1.204  0.1291 -0.2966  0.2077
 8235SOL    HW232712   1.863   1.909   1.220  2.0101  0.2630 -2.4640
 8235SOL    HW332713   1.782   1.798   1.156  0.9729  0.5006 -1.5855
 8235SOL    MW432714   1.853   1.824   1.200 -0.0738 -0.3521 -0.3346
 8236SOL     OW32715   3.516   0.016   2.870  0.0869  0.2477  0.0959
 8236SOL    HW232716   3.551  -0.054   2.816 -0.3592  0.1110 -0.0157
 8236SOL    HW332717   3.485   0.082   2.808 -3.2594 -1.2230  0.0255
 8236SOL    MW432718   3.516   0.016   2.855 -0.1419 -0.1690  0.0154
 8237SOL     OW32719   0.752   0.331   4.206 -0.7442  0.8235  0.2525
 8237SOL    HW232720   0.740   0.421   4.234 -1.7025  0.7257  0.1925
 8237SOL    HW332721   0.726   0.278   4.281  1.2792  0.5728  0.8507
 8237SOL    MW432722   0.747   0.336   4.219  0.4620  0.3121  0.1635
 8238SOL     OW32723   0.826   3.767   0.989 -0.1110 -0.4656  0.2338
 8238SOL    HW232724   0.752   3.779   1.048 -0.4352  1.6923 -0.5267
 8238SOL    HW332725   0.790   3.781   0.902  1.0874  0.0572 -0.1974
 8238SOL    MW432726   0.811   3.770   0.985 -0.1343 -0.1914  0.1064
 8239SOL     OW32727   0.826   4.951   5.210  0.3100 -0.3365 -0.7894
 8239SOL    HW232728   0.874   4.893   5.151  0.2245 -0.1116 -1.0825
 8239SOL    HW332729   0.847   5.039   5.179 -0.6193 -0.2415 -1.1873
 8239SOL    MW432730   0.835   4.955   5.198  0.0326  0.3638  0.1261
 8240SOL     OW32731   0.264   2.155   5.411 -0.4640  0.1838 -0.6852
 8240SOL    HW232732   0.294   2.214   5.342  1.3870 -0.0649 -0.1625
 8240SOL    HW332733   0.273   2.207   5.492 -1.1827 -0.0100 -0.4775
 8240SOL    MW432734   0.269   2.170   5.413 -0.0880 -0.0875 -0.8942
 8241SOL     OW32735   3.170   2.873   3.785 -0.5575 -0.4832 -0.4264
 8241SOL    HW232736   3.201   2.963   3.793 -0.8665 -0.4670  0.8009
 8241SOL    HW332737   3.112   2.875   3.709 -0.4129  0.3172 -0.5281
 8241SOL    MW432738   3.167   2.885   3.776  0.2735  0.1300  0.1951
 8242SOL     OW32739   2.817   5.473   4.265 -0.1960  0.7867  0.2672
 8242SOL    HW232740   2.810   5.568   4.256 -1.6195  0.6154 -0.6980
 8242SOL    HW332741   2.782   5.439   4.183  0.6386 -0.5740  0.4544
 8242SOL    MW432742   2.812   5.481   4.253 -0.3229 -0.1599 -0.1759
 8243SOL     OW32743   6.343   3.450   4.898 -0.2336  0.3872  0.4292
 8243SOL    HW232744   6.267   3.474   4.951 -0.2105 -0.0868  0.6837
 8243SOL    HW332745   6.409   3.515   4.921 -0.3261  0.3724  0.7505
 8243SOL    MW432746   6.342   3.462   4.908  0.3167  0.0533 -0.0753
 8244SOL     OW32747   3.051   0.191   4.492 -0.2855  0.0508  0.5371
 8244SOL    HW232748   3.047   0.214   4.399 -0.8858 -0.9575  0.2930
 8244SOL    HW332749   2.974   0.233   4.530  1.6747  3.2954  1.3126
 8244SOL    MW432750   3.041   0.199   4.485 -0.2053 -0.1201 -0.5958
 8245SOL     OW32751   4.260   5.675   2.926  0.3718 -0.6829 -0.2684
 8245SOL    HW232752   4.219   5.760   2.938  1.2235  0.0581 -2.1527
 8245SOL    HW332753   4.244   5.628   3.008 -2.9560  0.0547 -0.3541
 8245SOL    MW432754   4.252   5.680   2.938 -0.2640  0.1597 -0.1300
 8246SOL     OW32755   3.642   1.984   4.405 -0.3045  0.0933 -0.1466
 8246SOL    HW232756   3.588   1.970   4.327 -1.7399 -0.9496  0.9638
 8246SOL    HW332757   3.729   1.953   4.380 -1.0266 -1.3991 -0.9785
 8246SOL    MW432758   3.646   1.978   4.392  0.1173 -0.0916 -0.0332
 8247SOL     OW32759   6.108   3.217   0.133  0.1093  0.4540  0.2067
 8247SOL    HW232760   6.147   3.132   0.112 -0.0614  0.3920  0.1301
 8247SOL    HW332761   6.179   3.269   0.169  0.6945  0.9470 -1.5640
 8247SOL    MW432762   6.122   3.213   0.135  0.5964 -0.3111 -0.3293
 8248SOL     OW32763   0.744   0.459   3.263  0.0224  0.1993  1.0023
 8248SOL    HW232764   0.789   0.442   3.346  0.5856 -1.7158  0.3519
 8248SOL    HW332765   0.652   0.440   3.282  0.1547 -0.2815  1.1889
 8248SOL    MW432766   0.738   0.454   3.276 -0.5686  0.4594 -0.3461
 8249SOL     OW32767   3.377   2.303   3.277 -0.2522  0.0014 -0.1992
 8249SOL    HW232768   3.391   2.381   3.223 -0.3782  0.3507  0.2658
 8249SOL    HW332769   3.345   2.237   3.216  0.8808 -0.0186 -0.8055
 8249SOL    MW432770   3.375   2.304   3.262 -0.1960  0.1420 -0.1329
 8250SOL     OW32771   3.811   5.665   4.934 -0.6519  0.3263  0.1148
 8250SOL    HW232772   3.855   5.711   5.005 -1.4571  0.2608  0.6749
 8250SOL    HW332773   3.880   5.643   4.872 -0.1271  1.5392  0.2435
 8250SOL    MW432774   3.826   5.669   4.935  0.1762  0.0394  0.0121
 8251SOL     OW32775   3.665   0.432   2.539  0.0823 -0.1801 -0.1684
 8251SOL    HW232776   3.590   0.491   2.554  0.1752  0.7868 -2.8394
 8251SOL    HW332777   3.740   0.491   2.529  1.0839 -1.0886  1.4970
 8251SOL    MW432778   3.665   0.448   2.539 -0.5351  0.3270  0.1653
 8252SOL     OW32779   2.621   5.930   3.692  0.4971  0.0328 -0.7439
 8252SOL    HW232780   2.526   5.946   3.691  0.4885  0.2550  0.9341
 8252SOL    HW332781   2.657   6.009   3.733  1.1852 -0.9702  0.6484
 8252SOL    MW432782   2.613   5.943   3.697  0.2273  0.0251 -0.5577
 8253SOL     OW32783   2.406   2.997   0.166  0.3289 -0.3642  0.9908
 8253SOL    HW232784   2.362   3.069   0.120 -0.2890 -0.5273  1.3142
 8253SOL    HW332785   2.419   3.029   0.255  0.5882 -0.4327  0.9774
 8253SOL    MW432786   2.402   3.011   0.171 -0.1636 -0.2843 -0.0581
 8254SOL     OW32787   2.385   4.521   5.656  0.4850  0.0395  0.4478
 8254SOL    HW232788   2.372   4.449   5.718 -0.7582  0.6966  0.9763
 8254SOL    HW332789   2.442   4.583   5.701  0.0779  0.2313  0.7008
 8254SOL    MW432790   2.391   4.519   5.670  0.2964 -0.2901 -0.2430
 8255SOL     OW32791   3.110   2.909   2.733 -0.0710  0.1962 -0.3807
 8255SOL    HW232792   3.197   2.869   2.744 -0.6242 -1.0353 -0.3745
 8255SOL    HW332793   3.081   2.929   2.822 -0.5696 -1.1225 -0.2245
 8255SOL    MW432794   3.118   2.907   2.746  0.0350  1.0448 -0.2628
 8256SOL     OW32795   1.536   0.227   5.803 -0.2922 -0.6043  0.1138
 8256SOL    HW232796   1.560   0.201   5.714 -0.7063  0.0431 -0.1940
 8256SOL    HW332797   1.440   0.221   5.805 -0.2566 -1.0881  0.6691
 8256SOL    MW432798   1.527   0.223   5.792 -0.2423 -0.0821 -0.5207
 8257SOL     OW32799   4.438   5.865   1.215 -0.3355 -0.2339  0.0996
 8257SOL    HW232800   4.471   5.854   1.304 -1.0207 -0.7331  0.3048
 8257SOL    HW332801   4.463   5.784   1.170 -2.0998 -1.0718  0.5413
 8257SOL    MW432802   4.445   5.852   1.221  0.1483 -0.0601  0.4008
 8258SOL     OW32803   5.766   4.321   1.819 -0.2213  0.2881  0.2678
 8258SOL    HW232804   5.682   4.361   1.795 -0.6633 -0.5365  0.3863
 8258SOL    HW332805   5.799   4.283   1.737 -0.2677  0.0782  0.3447
 8258SOL    MW432806   5.759   4.321   1.805  0.0630 -0.2718 -0.4504
 8259SOL     OW32807   2.180   2.972   2.186 -0.6311  0.0772 -0.0372
 8259SOL    HW232808   2.111   2.943   2.126 -1.8611 -1.1342  1.8781
 8259SOL    HW332809   2.244   3.014   2.129 -1.2985 -1.7951 -2.3237
 8259SOL    MW432810   2.179   2.974   2.170  0.4287  0.4219 -0.6639
 8260SOL     OW32811   1.927   0.956   5.998  0.1889  0.5528  0.3100
 8260SOL    HW232812   1.847   0.960   5.946 -0.1167 -1.1989  0.5762
 8260SOL    HW332813   1.904   0.901   6.073  1.3792  0.8082  0.8888
 8260SOL    MW432814   1.913   0.949   6.001 -0.2604  0.6371  0.0965
 8261SOL     OW32815   1.820   4.168   1.513 -0.4911 -0.3795 -0.2677
 8261SOL    HW232816   1.765   4.192   1.587  0.2428  1.5825 -0.2771
 8261SOL    HW332817   1.890   4.114   1.551  0.0163  0.8067  0.5525
 8261SOL    MW432818   1.822   4.164   1.528  0.5321 -0.2848 -0.3713
 8262SOL     OW32819   1.829   0.755   0.725  0.3435  0.5915  0.2517
 8262SOL    HW232820   1.852   0.843   0.696 -1.3205  2.0016  2.8507
 8262SOL    HW332821   1.763   0.726   0.661  1.0651  1.1010 -0.7526
 8262SOL    MW432822   1.823   0.763   0.712  0.6581  0.2746  0.0554
 8263SOL     OW32823   5.098   4.116   0.887 -0.4175  0.0125 -0.1184
 8263SOL    HW232824   5.170   4.108   0.824  0.1970 -2.7166  0.7557
 8263SOL    HW332825   5.029   4.060   0.852 -0.5082 -0.6228  1.0146
 8263SOL    MW432826   5.099   4.107   0.874 -0.4326 -1.0907 -0.4842
 8264SOL     OW32827   2.996   5.960   5.563 -0.1008  0.2092 -0.3264
 8264SOL    HW232828   3.048   6.022   5.614  0.1490 -1.3011  1.3396
 8264SOL    HW332829   2.909   6.000   5.556 -0.2842  0.2553  1.7367
 8264SOL    MW432830   2.991   5.973   5.569 -0.0398 -0.3911  0.1709
 8265SOL     OW32831   3.986   2.348   3.148 -0.5513 -0.2926  0.6091
 8265SOL    HW232832   3.933   2.339   3.227 -0.2889  1.2573  0.9966
 8265SOL    HW332833   3.939   2.411   3.093  0.2872  0.2297  0.4609
 8265SOL    MW432834   3.973   2.355   3.151  0.0253  0.0629 -0.4219
 8266SOL     OW32835   4.738   5.692   3.993 -0.1187  0.2908  0.0425
 8266SOL    HW232836   4.656   5.741   3.985 -0.7144 -0.3965  1.4938
 8266SOL    HW332837   4.806   5.757   3.974 -0.9559  1.1850 -0.0135
 8266SOL    MW432838   4.736   5.707   3.989 -0.4075 -0.6824 -1.1410
 8267SOL     OW32839   5.909   0.951   6.029 -0.3097  0.2521 -0.1560
 8267SOL    HW232840   5.888   1.023   5.968 -1.5520 -0.0716 -0.1342
 8267SOL    HW332841   6.004   0.950   6.032 -0.2552  1.8642 -0.2085
 8267SOL    MW432842   5.919   0.960   6.021  0.1975 -0.0744 -0.2503
 8268SOL     OW32843   4.321   3.931   0.304  0.2293  0.1384 -0.0437
 8268SOL    HW232844   4.407   3.972   0.293 -0.1233  1.4680  1.8424
 8268SOL    HW332845   4.262   3.985   0.251  0.2376  0.3443  0.1585
 8268SOL    MW432846   4.325   3.943   0.295  0.6541  0.4631 -0.4453
 8269SOL     OW32847   5.479   0.256   4.610 -0.4071 -0.1398  0.9769
 8269SOL    HW232848   5.541   0.318   4.647 -1.0185  0.3875  1.1288
 8269SOL    HW332849   5.396   0.277   4.651 -0.7026 -0.8187  0.7518
 8269SOL    MW432850   5.476   0.267   4.621  0.6623  0.4451 -0.3473
 8270SOL     OW32851   4.995   1.634   3.316 -0.3268  0.2040 -0.2899
 8270SOL    HW232852   4.991   1.713   3.263 -2.5816  0.6731  0.4846
 8270SOL    HW332853   5.061   1.654   3.382  0.6380  0.6039 -1.3427
 8270SOL    MW432854   5.003   1.647   3.318  0.1639 -0.2906  0.7067
 8271SOL     OW32855   0.669   2.725   3.960 -0.3879  0.2242 -0.8543
 8271SOL    HW232856   0.652   2.635   3.930  0.2206  0.2427 -1.2642
 8271SOL    HW332857   0.730   2.761   3.896 -0.8666  1.0398 -0.8661
 8271SOL    MW432858   0.675   2.718   3.948 -0.2222 -0.2017  0.3927
 8272SOL     OW32859   4.857   6.360   5.675 -0.1578 -0.3563  0.1627
 8272SOL    HW232860   4.952   6.365   5.684 -0.3032  0.1805  1.7262
 8272SOL    HW332861   4.842   6.285   5.617  1.2115 -0.4875 -0.0452
 8272SOL    MW432862   4.867   6.351   5.668 -0.6018 -0.3730 -0.5438
 8273SOL     OW32863   2.384   5.981   1.047 -0.3025  0.1886  0.5417
 8273SOL    HW232864   2.445   5.985   0.973  1.0105  0.2582  1.5943
 8273SOL    HW332865   2.391   6.067   1.089  0.0541 -0.3337  1.5845
 8273SOL    MW432866   2.393   5.993   1.043 -0.6992 -0.0452 -0.3929
 8274SOL     OW32867   6.286   2.632   1.201  0.4626  0.1752 -0.4263
 8274SOL    HW232868   6.351   2.649   1.132 -0.0691  2.2458 -0.4707
 8274SOL    HW332869   6.328   2.662   1.281 -0.3863  1.4926 -0.4508
 8274SOL    MW432870   6.301   2.638   1.202 -0.1622  0.1179 -0.1559
 8275SOL     OW32871   1.924   2.318   0.297  0.1261 -0.7523 -0.1968
 8275SOL    HW232872   1.975   2.352   0.371 -1.5482 -0.0729  0.6992
 8275SOL    HW332873   1.926   2.223   0.307 -0.0940 -0.6679  0.7564
 8275SOL    MW432874   1.931   2.310   0.308 -0.6457 -0.5743 -0.3101
 8276SOL     OW32875   4.783   5.515   3.764  0.0531 -0.2211 -0.3283
 8276SOL    HW232876   4.876   5.534   3.749 -0.0705 -0.9124 -2.2741
 8276SOL    HW332877   4.758   5.575   3.834  2.0191 -0.2116  0.4515
 8276SOL    MW432878   4.792   5.525   3.771 -0.0753  0.2520  0.4228
 8277SOL     OW32879   3.547   1.362   2.760 -0.5135 -0.1369  0.1447
 8277SOL    HW232880   3.535   1.296   2.693  2.3011  1.3665 -2.0611
 8277SOL    HW332881   3.625   1.334   2.809  0.0188  0.8965 -0.0665
 8277SOL    MW432882   3.556   1.350   2.758 -0.2889 -0.3406 -0.6300
 8278SOL     OW32883   2.838   4.286   2.511  0.3800  0.7118 -0.1656
 8278SOL    HW232884   2.859   4.323   2.597 -0.3508 -1.0868  0.8465
 8278SOL    HW332885   2.796   4.357   2.464  1.8848  2.0991  0.5067
 8278SOL    MW432886   2.835   4.300   2.516 -0.2942  0.4295  0.0577
 8279SOL     OW32887   2.792   5.310   2.869 -0.0118  0.7713  0.4470
 8279SOL    HW232888   2.748   5.395   2.875  0.6118  1.1527 -0.2113
 8279SOL    HW332889   2.779   5.284   2.777  0.9804  0.8182  0.2785
 8279SOL    MW432890   2.784   5.318   2.857  0.6520  0.0575  0.6612
 8280SOL     OW32891   0.561   1.660   1.739 -0.2919 -0.1974  0.5580
 8280SOL    HW232892   0.649   1.676   1.703 -0.6323 -0.6394 -0.5253
 8280SOL    HW332893   0.507   1.729   1.701 -0.9580 -1.5198 -0.9930
 8280SOL    MW432894   0.566   1.671   1.729 -0.0572 -0.0047  0.2993
 8281SOL     OW32895   2.865   0.567   4.764  0.0011  0.4868 -0.4076
 8281SOL    HW232896   2.840   0.485   4.720  0.0002 -1.7620  3.3426
 8281SOL    HW332897   2.955   0.582   4.737  0.7278 -2.0053  0.3813
 8281SOL    MW432898   2.873   0.558   4.755 -0.7004  0.2548 -0.0410
 8282SOL     OW32899   0.288   1.490   1.981  0.1090  0.1156 -0.8180
 8282SOL    HW232900   0.241   1.409   1.998 -0.8977  1.0110  0.8990
 8282SOL    HW332901   0.378   1.471   2.008  0.2156 -0.8374 -1.7774
 8282SOL    MW432902   0.294   1.477   1.987 -0.0910  0.0153 -0.0367
 8283SOL     OW32903   4.362   0.445   3.065  0.2949  0.5992  0.4504
 8283SOL    HW232904   4.284   0.494   3.093 -0.4402  0.3518 -1.0582
 8283SOL    HW332905   4.396   0.495   2.991  0.5884 -0.1970  0.0380
 8283SOL    MW432906   4.356   0.458   3.059 -0.3807 -0.0558  0.5735
 8284SOL     OW32907   4.340   2.668   2.998 -0.3044  0.3208  0.1224
 8284SOL    HW232908   4.430   2.695   2.977 -1.0688  2.2410 -0.8646
 8284SOL    HW332909   4.351   2.581   3.037  2.0570  0.8429  0.8317
 8284SOL    MW432910   4.354   2.660   3.000 -0.0344 -0.0413  0.0799
 8285SOL     OW32911   3.630   3.785   3.156  0.0005 -0.2666 -0.4226
 8285SOL    HW232912   3.657   3.820   3.072  2.2172  1.3962  0.8663
 8285SOL    HW332913   3.581   3.856   3.198 -0.9812 -1.0301 -0.2222
 8285SOL    MW432914   3.627   3.799   3.151 -0.3595  0.0753 -0.2961
 8286SOL     OW32915   2.651   5.574   2.802  0.0264  0.0725 -0.0998
 8286SOL    HW232916   2.701   5.656   2.802 -1.4780  1.0548  0.7557
 8286SOL    HW332917   2.573   5.595   2.750 -1.0850 -0.3267  1.3610
 8286SOL    MW432918   2.647   5.588   2.795  0.3247 -0.1673 -0.2902
 8287SOL     OW32919   1.456   0.188   1.199 -0.0174  0.0273  0.5045
 8287SOL    HW232920   1.387   0.223   1.255 -1.3938  0.6714 -1.4859
 8287SOL    HW332921   1.416   0.182   1.112  2.0013 -0.9745 -0.4208
 8287SOL    MW432922   1.442   0.192   1.195  0.0672  0.1398  0.6335
 8288SOL     OW32923   2.306   2.120   0.078 -0.5283 -0.2591 -0.5090
 8288SOL    HW232924   2.382   2.081   0.120  0.4559  0.5966 -1.4329
 8288SOL    HW332925   2.254   2.156   0.150  0.3487 -0.1574  0.0807
 8288SOL    MW432926   2.309   2.120   0.093  0.2226 -0.9468 -0.1130
 8289SOL     OW32927   2.477   6.037   4.428 -0.3869 -0.1884  0.1974
 8289SOL    HW232928   2.540   5.967   4.444 -0.1261 -0.4585 -1.7848
 8289SOL    HW332929   2.391   5.994   4.435 -0.3354 -0.1384  1.4144
 8289SOL    MW432930   2.474   6.022   4.431 -0.0981  0.7567 -0.0724
 8290SOL     OW32931   0.985   6.353   5.343  0.0442 -0.4549 -0.4239
 8290SOL    HW232932   1.041   6.415   5.296  1.1469 -1.1922 -0.1341
 8290SOL    HW332933   0.912   6.336   5.283  0.5531 -0.0957 -1.1663
 8290SOL    MW432934   0.983   6.359   5.329 -0.0985 -0.2888  0.0820
 8291SOL     OW32935   2.448   4.967   0.904  0.6696  0.3868  0.3661
 8291SOL    HW232936   2.453   4.908   0.979  1.2608  0.3772  0.3220
 8291SOL    HW332937   2.431   4.910   0.829 -0.9187  0.4947  0.6235
 8291SOL    MW432938   2.447   4.952   0.904 -0.2053  0.8650 -0.1771
 8292SOL     OW32939   4.361   0.778   4.390  0.0601 -0.2556  0.0339
 8292SOL    HW232940   4.350   0.689   4.425 -0.6201 -0.9492 -1.8040
 8292SOL    HW332941   4.277   0.821   4.407 -0.3083 -0.6267 -0.7887
 8292SOL    MW432942   4.349   0.772   4.397  0.9527  0.2692 -0.3220
 8293SOL     OW32943   2.561   5.146   2.984 -0.1340 -0.1116 -0.3139
 8293SOL    HW232944   2.581   5.184   3.070 -0.4279 -0.1076 -0.2471
 8293SOL    HW332945   2.632   5.178   2.927  1.1893 -1.7031  0.3595
 8293SOL    MW432946   2.573   5.155   2.988  0.3014 -0.0976 -0.0869
 8294SOL     OW32947   2.987   4.277   0.794 -0.2069  0.2709  0.1468
 8294SOL    HW232948   3.016   4.337   0.725 -0.1771  1.7139  1.3603
 8294SOL    HW332949   3.003   4.324   0.875 -0.7462 -1.1686  1.1325
 8294SOL    MW432950   2.993   4.291   0.795 -0.4154  0.2666 -0.3801
 8295SOL     OW32951   0.845   5.989   0.351  0.4980  0.9095 -0.1396
 8295SOL    HW232952   0.864   5.971   0.259  0.4241  0.5748 -0.0895
 8295SOL    HW332953   0.771   5.932   0.372  0.2753  1.2539  0.0264
 8295SOL    MW432954   0.838   5.979   0.341  0.0975  0.0156 -0.4204
 8296SOL     OW32955   4.635   4.471   1.974 -0.3927  0.2381 -0.4592
 8296SOL    HW232956   4.593   4.472   2.060 -0.1806 -0.0608 -0.3522
 8296SOL    HW332957   4.692   4.394   1.976 -0.4405  0.1942 -0.8934
 8296SOL    MW432958   4.637   4.461   1.986 -0.4611  0.0140  0.1661
 8297SOL     OW32959   3.823   5.020   5.130  0.2324  0.4211 -0.0408
 8297SOL    HW232960   3.878   5.057   5.199 -1.7984  0.6183  1.5787
 8297SOL    HW332961   3.764   5.092   5.107  0.5111  0.1731 -1.6165
 8297SOL    MW432962   3.823   5.035   5.136  0.2963 -0.6646 -0.5314
 8298SOL     OW32963   3.472   3.957   4.842 -0.2960 -0.1446  0.0588
 8298SOL    HW232964   3.553   3.969   4.892  1.5050 -1.8312 -2.2199
 8298SOL    HW332965   3.455   3.863   4.846 -0.8968 -0.1230 -1.2755
 8298SOL    MW432966   3.480   3.946   4.849  0.0326  0.0423  0.6027
 8299SOL     OW32967   2.423   0.334   0.468  0.4504  0.2961  0.6729
 8299SOL    HW232968   2.377   0.358   0.548 -0.4312 -0.1960  0.3319
 8299SOL    HW332969   2.401   0.242   0.455  1.1158  0.1979  0.2139
 8299SOL    MW432970   2.414   0.325   0.477  0.3788  0.0309  0.7384
 8300SOL     OW32971   2.233   4.885   1.851 -0.2873  0.1916 -0.9280
 8300SOL    HW232972   2.194   4.946   1.789  0.4166  0.8065 -0.7741
 8300SOL    HW332973   2.287   4.939   1.908 -2.3051 -0.0891  1.4046
 8300SOL    MW432974   2.235   4.900   1.850  0.1273 -0.5245  0.0508
 8301SOL     OW32975   1.290   0.384   3.949  0.1231 -0.3827  0.1364
 8301SOL    HW232976   1.380   0.371   3.978  0.3014 -3.4781 -1.3358
 8301SOL    HW332977   1.251   0.443   4.014  2.9069  0.2503  1.3482
 8301SOL    MW432978   1.297   0.390   3.961  0.2154  0.3365 -0.8955
 8302SOL     OW32979   2.209   2.673   5.154 -0.2773  0.2227 -0.5122
 8302SOL    HW232980   2.124   2.700   5.188 -0.3437 -0.4652 -0.0990
 8302SOL    HW332981   2.195   2.583   5.124  0.3778 -0.0128 -0.1397
 8302SOL    MW432982   2.196   2.664   5.155 -0.0744  0.0049  0.1729
 8303SOL     OW32983   6.334   5.333   4.396 -0.2287  0.2824 -0.6124
 8303SOL    HW232984   6.306   5.331   4.488  1.1391 -0.6368 -0.1869
 8303SOL    HW332985   6.387   5.413   4.390 -0.9608  0.7675 -0.8277
 8303SOL    MW432986   6.337   5.344   4.408  0.4392 -0.7532 -0.0698
 8304SOL     OW32987   6.271   2.395   6.312 -0.3490  0.2849 -0.2583
 8304SOL    HW232988   6.254   2.363   6.224 -1.7014  2.7444 -0.9943
 8304SOL    HW332989   6.185   2.390   6.355  0.0392  0.2706  0.5271
 8304SOL    MW432990   6.257   2.390   6.306  0.2164 -0.7554 -0.0914
 8305SOL     OW32991   0.353   0.483   5.228 -0.4423  0.2364  0.4804
 8305SOL    HW232992   0.373   0.398   5.265 -1.0652 -0.0880  0.0906
 8305SOL    HW332993   0.437   0.529   5.225  0.1338 -0.8245 -0.4667
 8305SOL    MW432994   0.367   0.478   5.232  0.7664 -0.7487 -0.3385
 8306SOL     OW32995   3.776   4.702   2.383  0.5694 -0.7183 -0.1466
 8306SOL    HW232996   3.801   4.656   2.303  0.5507 -0.8596 -0.0717
 8306SOL    HW332997   3.850   4.760   2.402 -0.0121  0.3510 -1.0377
 8306SOL    MW432998   3.789   4.704   2.375 -0.2952  0.1034  0.5703
 8307SOL     OW32999   2.700   0.301   4.163 -0.2411 -0.0742  0.3364
 8307SOL    HW233000   2.642   0.330   4.233 -0.0967 -0.8460  0.7831
 8307SOL    HW333001   2.697   0.205   4.166 -0.2569 -0.1215 -0.7311
 8307SOL    MW433002   2.692   0.292   4.172 -0.4190  0.0696 -0.0151
 8308SOL     OW33003   3.425   2.801   4.209 -0.2538 -0.1622 -0.0926
 8308SOL    HW233004   3.374   2.740   4.155 -1.6706  0.1858  0.7780
 8308SOL    HW333005   3.421   2.763   4.297  1.3601 -0.3248 -0.0751
 8308SOL    MW433006   3.418   2.788   4.213 -0.1332 -0.2873 -0.1869
 8309SOL     OW33007   2.651   2.232   5.576  0.1720 -0.3554 -0.5299
 8309SOL    HW233008   2.676   2.322   5.557  0.6899 -0.7117 -1.5814
 8309SOL    HW333009   2.623   2.196   5.492 -1.3712 -0.7715  0.1318
 8309SOL    MW433010   2.651   2.239   5.563  0.1374 -0.5526  0.1575
 8310SOL     OW33011   3.897   3.777   0.445  0.2306  0.2901 -0.4386
 8310SOL    HW233012   3.843   3.698   0.444  3.0966 -1.8309 -0.7672
 8310SOL    HW333013   3.901   3.803   0.537 -0.7990  0.1554 -0.3424
 8310SOL    MW433014   3.891   3.770   0.457 -0.2336  0.1854 -0.5735
 8311SOL     OW33015   2.458   3.138   2.543 -0.0102 -0.0154 -0.2051
 8311SOL    HW233016   2.517   3.099   2.479 -0.2264  0.4630 -0.7079
 8311SOL    HW333017   2.378   3.086   2.538 -0.1059  0.1582 -0.4868
 8311SOL    MW433018   2.455   3.126   2.534  0.1738  0.1046  0.9920
 8312SOL     OW33019   3.224   0.400   1.692  0.7980  0.1249 -0.3362
 8312SOL    HW233020   3.195   0.339   1.624  1.2126 -1.1158  0.5833
 8312SOL    HW333021   3.147   0.455   1.708 -0.3470 -1.5964  0.3979
 8312SOL    MW433022   3.210   0.399   1.685 -0.2385 -0.2406 -0.2054
 8313SOL     OW33023   6.295   1.539   5.964 -0.5138 -0.4794  0.0199
 8313SOL    HW233024   6.245   1.466   5.927 -1.0078 -0.3107  0.3515
 8313SOL    HW333025   6.310   1.598   5.891 -1.1857 -0.3180  0.0043
 8313SOL    MW433026   6.291   1.537   5.950  0.5049 -0.1598  0.1839
 8314SOL     OW33027   4.942   4.661   4.895  0.0834 -0.0592 -0.0345
 8314SOL    HW233028   5.021   4.608   4.888 -0.4469 -0.9555  0.5401
 8314SOL    HW333029   4.882   4.608   4.948 -0.9852  0.4967 -0.6525
 8314SOL    MW433030   4.944   4.647   4.901  0.6987 -0.4338 -0.6606
 8315SOL     OW33031   1.109   4.731   1.083 -0.3068  0.3676  0.2047
 8315SOL    HW233032   1.042   4.766   1.141 -0.3173  0.5870  0.0632
 8315SOL    HW333033   1.147   4.808   1.041  0.2400  0.2734  0.5067
 8315SOL    MW433034   1.105   4.746   1.085 -0.3541 -0.0585  0.4895
 8316SOL     OW33035   2.859   2.335   4.112 -0.2646 -0.4256  0.5014
 8316SOL    HW233036   2.861   2.426   4.082 -0.3833 -0.2639  0.9814
 8316SOL    HW333037   2.786   2.331   4.173  0.6318 -0.4855  1.6023
 8316SOL    MW433038   2.850   2.347   4.116  0.0791 -0.6899  0.5702
 8317SOL     OW33039   2.787   5.296   2.596  0.3045  0.0423 -0.3682
 8317SOL    HW233040   2.808   5.386   2.571 -0.3045  0.0983 -0.7096
 8317SOL    HW333041   2.691   5.294   2.597  0.3030 -0.1810  1.1864
 8317SOL    MW433042   2.777   5.308   2.593  0.4686  0.5365  0.4371
 8318SOL     OW33043   1.633   1.427   0.698 -0.0029  0.4581 -0.0181
 8318SOL    HW233044   1.573   1.433   0.624 -1.0638  0.1964  0.7995
 8318SOL    HW333045   1.664   1.336   0.697 -1.0845  0.0683  0.6566
 8318SOL    MW433046   1.629   1.415   0.688 -0.1120 -0.1691  0.0650
 8319SOL     OW33047   2.572   1.977   4.538 -0.0674 -0.0286  0.2272
 8319SOL    HW233048   2.567   1.886   4.568 -3.5419 -0.2579 -0.5932
 8319SOL    HW333049   2.568   1.972   4.443  1.5057  0.9986  0.0597
 8319SOL    MW433050   2.571   1.964   4.530  0.3137 -0.2968  0.4441
 8320SOL     OW33051   3.340   5.624   2.562 -0.3913  0.3881 -0.3482
 8320SOL    HW233052   3.386   5.702   2.531 -0.6495  1.5621  2.0210
 8320SOL    HW333053   3.261   5.658   2.603 -0.7127 -1.1755  0.3617
 8320SOL    MW433054   3.336   5.639   2.563 -0.4830  0.5532 -0.0140
 8321SOL     OW33055   4.956   4.275   3.506  0.3394  0.5598 -0.5290
 8321SOL    HW233056   4.986   4.363   3.485  1.6476  0.0796 -0.7309
 8321SOL    HW333057   4.861   4.278   3.491  0.2765  2.0900  0.0658
 8321SOL    MW433058   4.947   4.287   3.501  0.1796 -0.5129 -0.7112
 8322SOL     OW33059   0.794   0.116   2.104 -0.1036  0.1235  0.1823
 8322SOL    HW233060   0.869   0.174   2.115 -0.1888 -0.1345  2.4962
 8322SOL    HW333061   0.718   0.172   2.119 -0.3454  0.0722 -0.7572
 8322SOL    MW433062   0.793   0.131   2.107 -0.2745  0.4994 -0.2254
 8323SOL     OW33063   1.761   1.016   2.617 -0.1921 -0.4594  0.0403
 8323SOL    HW233064   1.826   1.059   2.562  1.3444 -0.4302  1.7764
 8323SOL    HW333065   1.720   0.950   2.561  1.8201 -0.9402 -0.9273
 8323SOL    MW433066   1.764   1.013   2.602  1.0289 -0.4691  0.3919
 8324SOL     OW33067   0.429   4.027  -0.015  0.1636  0.0961 -0.2751
 8324SOL    HW233068   0.436   3.934  -0.036  0.4478 -0.0268  0.3129
 8324SOL    HW333069   0.501   4.068  -0.064  0.0698 -0.0002 -0.4947
 8324SOL    MW433070   0.440   4.021  -0.024 -0.1362 -0.0047  0.1692
 8325SOL     OW33071   3.581   5.482   2.340  1.2554 -0.1628  0.0664
 8325SOL    HW233072   3.491   5.516   2.344  1.3888  0.1110  1.2364
 8325SOL    HW333073   3.634   5.550   2.382  1.8428 -0.8232  0.4144
 8325SOL    MW433074   3.576   5.495   2.346  0.3468 -1.4231 -0.4420
 8326SOL     OW33075   2.438   4.106   0.574  0.4409 -0.1113 -0.3342
 8326SOL    HW233076   2.347   4.080   0.558  0.5695  0.1263 -1.5877
 8326SOL    HW333077   2.487   4.025   0.564  0.3875 -0.2037  0.1511
 8326SOL    MW433078   2.432   4.092   0.570 -0.2294 -0.0359 -0.2032
 8327SOL     OW33079   2.134   2.015   4.137  0.7345  0.2095  0.0361
 8327SOL    HW233080   2.106   2.104   4.115  1.3462  0.2227 -0.7259
 8327SOL    HW333081   2.101   1.961   4.066  1.8333  0.0908 -0.4006
 8327SOL    MW433082   2.126   2.020   4.125 -0.0923 -0.0978  0.0195
 8328SOL     OW33083   3.298   2.327   5.898  0.2656 -0.0579  0.5486
 8328SOL    HW233084   3.269   2.303   5.810  0.9181  0.2981  0.2227
 8328SOL    HW333085   3.393   2.324   5.893  0.6273  4.5492 -0.2114
 8328SOL    MW433086   3.307   2.324   5.886 -0.3334  0.3502 -1.1788
 8329SOL     OW33087   2.067   5.768   3.000  0.3511 -0.8604 -0.4840
 8329SOL    HW233088   2.050   5.785   2.907  0.4916 -2.2423 -0.7894
 8329SOL    HW333089   2.014   5.691   3.020 -0.1663 -0.2027  0.7713
 8329SOL    MW433090   2.058   5.760   2.990  0.2088 -0.1703 -0.2017
 8330SOL     OW33091   3.640   4.804   0.582 -0.6233  0.1187 -0.0060
 8330SOL    HW233092   3.652   4.888   0.537 -2.1651  0.7802  0.7336
 8330SOL    HW333093   3.556   4.813   0.627  0.0287 -1.1677  1.5681
 8330SOL    MW433094   3.630   4.816   0.582  0.1975 -0.0185  0.1036
 8331SOL     OW33095   5.605   3.530   6.336  0.4918  0.0830  0.1115
 8331SOL    HW233096   5.606   3.445   6.291  1.5857  0.4730 -0.6556
 8331SOL    HW333097   5.661   3.586   6.282  2.3652  0.4266  2.2489
 8331SOL    MW433098   5.613   3.526   6.323 -0.5117  0.3664 -0.3197
 8332SOL     OW33099   3.257   2.315   5.611 -0.2628 -0.0552  0.4298
 8332SOL    HW233100   3.324   2.364   5.563 -1.3495  0.0583 -1.0505
 8332SOL    HW333101   3.253   2.230   5.567 -1.2784  0.0400  0.3312
 8332SOL    MW433102   3.266   2.310   5.599  0.6905  0.8504  0.3592
 8333SOL     OW33103   2.686   4.897   4.296 -0.8066 -0.0589  0.0164
 8333SOL    HW233104   2.768   4.856   4.267 -1.1107 -0.9077  0.3146
 8333SOL    HW333105   2.664   4.958   4.225  0.6103  0.9599  0.3966
 8333SOL    MW433106   2.694   4.900   4.282  0.1223 -0.0279  0.2626
 8334SOL     OW33107   3.638   4.714   3.241 -0.1435  0.0743  0.2651
 8334SOL    HW233108   3.575   4.782   3.219 -1.2563 -0.3489  1.9918
 8334SOL    HW333109   3.668   4.681   3.156  0.0199  2.2858 -0.6019
 8334SOL    MW433110   3.634   4.718   3.227 -0.1908  0.2457  0.0059
 8335SOL     OW33111   3.007   2.892   5.632  0.2927 -0.1334 -0.1873
 8335SOL    HW233112   3.049   2.833   5.695 -1.8074 -1.0947  0.3908
 8335SOL    HW333113   2.918   2.904   5.665  0.7857  3.9981  0.0873
 8335SOL    MW433114   3.001   2.886   5.645 -0.3209  0.5043  0.2458
 8336SOL     OW33115   4.653   3.088   5.527  0.7344  0.3091  0.1387
 8336SOL    HW233116   4.613   3.090   5.614  1.3757 -0.8321  0.4859
 8336SOL    HW333117   4.739   3.129   5.539  3.1305 -4.3496  1.3974
 8336SOL    MW433118   4.659   3.093   5.540  0.0187 -0.3264  0.3701
 8337SOL     OW33119   5.133   1.130   1.697 -0.3884  0.2797 -0.2489
 8337SOL    HW233120   5.185   1.052   1.675  0.2526  0.0744  1.8140
 8337SOL    HW333121   5.084   1.149   1.617  0.0393 -1.7611 -1.0646
 8337SOL    MW433122   5.134   1.122   1.683  0.1209 -0.3531 -0.4550
 8338SOL     OW33123   1.162   4.623   0.084 -0.0455 -0.1079  0.2948
 8338SOL    HW233124   1.188   4.564   0.014  0.5628  1.9641 -1.3372
 8338SOL    HW333125   1.068   4.608   0.095 -0.3183  0.0238 -1.5103
 8338SOL    MW433126   1.153   4.613   0.076  0.4268 -0.2196  0.3412
 8339SOL     OW33127   6.069   2.801   2.525  0.1890 -0.1082  0.1519
 8339SOL    HW233128   6.020   2.721   2.545  0.3271 -0.6953 -1.6645
 8339SOL    HW333129   6.008   2.872   2.543  0.4015 -0.4853  2.8506
 8339SOL    MW433130   6.055   2.800   2.530  0.2460 -0.4573 -0.2403
 8340SOL     OW33131   2.880   3.636   1.769  0.2851  0.6684 -0.0966
 8340SOL    HW233132   2.944   3.697   1.730  1.8720  0.1058  1.4783
 8340SOL    HW333133   2.839   3.593   1.694  0.3124  2.4790 -1.2062
 8340SOL    MW433134   2.883   3.639   1.754 -0.0455 -0.3229 -0.3203
 8341SOL     OW33135   4.854   4.695   1.912 -0.4752 -0.2226  0.2796
 8341SOL    HW233136   4.852   4.710   1.817  1.9788 -0.8571  0.0483
 8341SOL    HW333137   4.925   4.751   1.943  0.6081 -2.0446  1.2711
 8341SOL    MW433138   4.863   4.704   1.904  0.0754 -0.0648  1.1439
 8342SOL     OW33139   1.603   3.324   2.727  0.2869 -0.4976 -0.2380
 8342SOL    HW233140   1.696   3.348   2.728 -0.0548  0.8794  0.3758
 8342SOL    HW333141   1.585   3.290   2.814 -0.1774  0.9344  0.2551
 8342SOL    MW433142   1.613   3.323   2.738 -0.5716 -0.0650 -0.6768
 8343SOL     OW33143   0.956   1.661   0.035 -0.2419  0.1336  0.1711
 8343SOL    HW233144   0.939   1.667  -0.059 -1.3069 -0.4986  0.3060
 8343SOL    HW333145   0.988   1.748   0.059  1.7328 -0.1631 -1.0701
 8343SOL    MW433146   0.958   1.673   0.025  0.2085  0.1947 -0.1144
 8344SOL     OW33147   3.326   4.559   4.967 -0.1671  0.1781  0.0782
 8344SOL    HW233148   3.371   4.475   4.962 -1.9004 -0.7732 -0.5280
 8344SOL    HW333149   3.234   4.538   4.948 -0.2203  2.5812 -3.3743
 8344SOL    MW433150   3.320   4.545   4.964 -0.2034  0.8609 -0.3955
 8345SOL     OW33151   5.964   3.290   0.407  1.1122  0.7679  0.4220
 8345SOL    HW233152   5.934   3.382   0.410  1.8972  1.0585 -0.3349
 8345SOL    HW333153   6.017   3.285   0.327 -1.6270 -1.1930 -1.4330
 8345SOL    MW433154   5.967   3.302   0.397 -0.4382 -0.1858  0.1920
 8346SOL     OW33155   0.265   2.109   2.268  0.1979 -0.0600  0.6465
 8346SOL    HW233156   0.232   2.184   2.219 -1.0360 -0.2636  1.1288
 8346SOL    HW333157   0.360   2.122   2.271  0.1270  0.8308 -0.3238
 8346SOL    MW433158   0.273   2.120   2.262 -0.5950  0.3152  0.4250
 8347SOL     OW33159   3.678   4.200   5.305 -0.4446 -0.0036  0.2250
 8347SOL    HW233160   3.626   4.280   5.304 -1.5581 -0.7123  0.7998
 8347SOL    HW333161   3.650   4.152   5.227 -0.1454 -0.0778  0.1595
 8347SOL    MW433162   3.668   4.205   5.294 -0.5923  0.2022 -0.1042
 8348SOL     OW33163   4.446   2.231   0.302 -0.4572  0.1756  0.0746
 8348SOL    HW233164   4.502   2.275   0.366  0.5201  0.0618 -0.6720
 8348SOL    HW333165   4.458   2.138   0.321  0.2375  0.1233 -0.5877
 8348SOL    MW433166   4.455   2.225   0.313  0.6281  0.4092 -0.0426
 8349SOL     OW33167   1.487   4.342   2.757  0.2352 -0.8413  0.2069
 8349SOL    HW233168   1.478   4.263   2.810 -0.1158 -0.2604  1.0438
 8349SOL    HW333169   1.398   4.375   2.747  0.5094  0.2822  1.2118
 8349SOL    MW433170   1.474   4.336   2.763  0.2886 -0.3489  0.4033
 8350SOL     OW33171   1.138   4.771   1.537  0.1283 -0.0511  0.1537
 8350SOL    HW233172   1.156   4.749   1.446 -0.3220  0.0910  0.0276
 8350SOL    HW333173   1.043   4.782   1.541  0.1859  0.3415  0.5533
 8350SOL    MW433174   1.128   4.769   1.526 -0.5175 -0.3568  0.1351
 8351SOL     OW33175   1.588   4.219   4.873  0.7021 -0.0475 -0.1499
 8351SOL    HW233176   1.656   4.191   4.935  0.9582 -0.9743 -0.8168
 8351SOL    HW333177   1.550   4.137   4.841  1.5732  0.3173 -2.2930
 8351SOL    MW433178   1.592   4.205   4.877 -0.2010 -0.5554  0.0236
 8352SOL     OW33179   3.874   3.912   5.393 -0.7016  0.3282  0.2490
 8352SOL    HW233180   3.957   3.875   5.424  1.1436  2.8124 -1.3770
 8352SOL    HW333181   3.826   3.836   5.360  1.0239 -1.1737  0.9536
 8352SOL    MW433182   3.879   3.897   5.393 -0.0654  0.0890  0.4162
 8353SOL     OW33183   4.748   4.628   3.864  0.2558  0.5364 -0.1459
 8353SOL    HW233184   4.828   4.629   3.811  0.1122 -1.5958 -0.4912
 8353SOL    HW333185   4.709   4.714   3.849  2.2227  1.4526 -0.3351
 8353SOL    MW433186   4.753   4.640   3.855  0.4794  0.0805  0.2784
 8354SOL     OW33187   1.643   5.914   0.573  0.0542 -0.0570 -0.4450
 8354SOL    HW233188   1.706   5.841   0.576 -0.1976 -0.2842 -0.6248
 8354SOL    HW333189   1.611   5.922   0.662  0.8743  0.5331 -0.1945
 8354SOL    MW433190   1.647   5.905   0.585 -0.0561  0.5239  0.5288
 8355SOL     OW33191   5.815   1.636   2.517 -0.3459  0.8010 -0.1247
 8355SOL    HW233192   5.781   1.685   2.442 -1.2537  2.8593  1.5153
 8355SOL    HW333193   5.743   1.636   2.580 -0.0526 -1.9727  0.3202
 8355SOL    MW433194   5.801   1.643   2.516  0.0187  0.5462  0.0462
 8356SOL     OW33195   5.166   1.934   5.504 -0.0869  0.0905  0.3633
 8356SOL    HW233196   5.206   2.014   5.536  1.2383 -0.0395 -0.8429
 8356SOL    HW333197   5.231   1.898   5.443 -0.7628 -1.7500  0.6726
 8356SOL    MW433198   5.180   1.940   5.500  0.2364  0.6412 -0.1851
 8357SOL     OW33199   2.268   5.202   0.224 -0.2325  0.1240  0.2225
 8357SOL    HW233200   2.330   5.192   0.297 -2.2112  1.0534  2.1518
 8357SOL    HW333201   2.255   5.113   0.191  1.2161 -0.2269  0.5392
 8357SOL    MW433202   2.274   5.189   0.230 -0.1483 -0.0843  0.2553
 8358SOL     OW33203   4.791   0.298   3.974  0.4602  0.1316  0.0799
 8358SOL    HW233204   4.853   0.321   3.905 -0.2647 -0.1436 -0.6698
 8358SOL    HW333205   4.705   0.323   3.940 -0.1345 -1.7052  0.0905
 8358SOL    MW433206   4.788   0.304   3.961 -0.1741  0.3318  0.5696
 8359SOL     OW33207   5.805   6.169   4.046  0.2680  0.9130 -0.1915
 8359SOL    HW233208   5.883   6.165   4.102  0.8567  0.7010 -1.0196
 8359SOL    HW333209   5.741   6.115   4.092  1.7593 -1.9869 -1.2514
 8359SOL    MW433210   5.807   6.161   4.060  0.1238 -0.0745  0.2233
 8360SOL     OW33211   1.136   5.235   2.625  0.1118  0.3259 -0.3815
 8360SOL    HW233212   1.099   5.230   2.537  0.5069  1.1095 -0.6000
 8360SOL    HW333213   1.229   5.214   2.612  0.2414  0.7840 -0.2082
 8360SOL    MW433214   1.144   5.231   2.612 -0.0998  0.4535 -0.3879
 8361SOL     OW33215   3.687   0.220   1.215 -0.2254  0.3931  0.3048
 8361SOL    HW233216   3.611   0.264   1.252 -0.0297 -0.2882  1.6053
 8361SOL    HW333217   3.705   0.149   1.276 -1.3756 -2.4400 -2.3751
 8361SOL    MW433218   3.680   0.216   1.228  0.0627  0.1492 -0.2551
 8362SOL     OW33219   6.323   2.746   2.581  0.0105  0.1295  0.2097
 8362SOL    HW233220   6.230   2.759   2.565  0.2079 -0.2862 -1.5040
 8362SOL    HW333221   6.364   2.830   2.560 -0.1956  1.2028  3.6213
 8362SOL    MW433222   6.316   2.759   2.576  0.1585  0.1445 -0.0180
 8363SOL     OW33223   3.496   0.818   0.265 -0.4694 -0.2901  0.1619
 8363SOL    HW233224   3.579   0.775   0.286 -1.6423 -1.1445  3.7155
 8363SOL    HW333225   3.515   0.912   0.271  0.0425 -0.4822  2.2521
 8363SOL    MW433226   3.509   0.825   0.268  0.5098  1.0640 -0.2980
 8364SOL     OW33227   1.645   0.426   6.165 -0.0596 -0.4436 -0.3123
 8364SOL    HW233228   1.616   0.448   6.076  0.1904 -1.0589 -0.5543
 8364SOL    HW333229   1.568   0.391   6.208 -0.4957  0.9999  0.1190
 8364SOL    MW433230   1.631   0.424   6.159  0.6089  0.1427 -0.2486
 8365SOL     OW33231   4.659   2.457   0.170  0.1285 -0.1093  0.0944
 8365SOL    HW233232   4.618   2.477   0.086 -1.5364  0.3445  0.9713
 8365SOL    HW333233   4.711   2.379   0.153 -0.1638 -0.0197 -1.3533
 8365SOL    MW433234   4.660   2.450   0.157  0.2626 -0.0538 -0.3478
 8366SOL     OW33235   4.323   5.482   5.671 -0.8526 -0.3444  0.0561
 8366SOL    HW233236   4.313   5.391   5.645  0.5043  0.0595 -2.0543
 8366SOL    HW333237   4.382   5.479   5.747  0.6398 -1.1317 -1.0918
 8366SOL    MW433238   4.329   5.470   5.678  0.4439 -0.4118 -0.0643
 8367SOL     OW33239   0.784   4.781   0.364  0.8664  0.5805 -0.2275
 8367SOL    HW233240   0.726   4.799   0.291  1.1092 -1.5084 -0.9955
 8367SOL    HW333241   0.870   4.812   0.334  1.1949 -1.2836 -1.3444
 8367SOL    MW433242   0.788   4.787   0.351 -0.8792  0.0002  0.5146
 8368SOL     OW33243   0.122   2.399   1.182 -0.2596 -0.1258  0.0394
 8368SOL    HW233244   0.035   2.361   1.172 -0.2708 -0.0734 -0.0653
 8368SOL    HW333245   0.174   2.331   1.225 -0.3762 -0.1244  0.1839
 8368SOL    MW433246   0.118   2.385   1.187  0.2541  0.0444  0.0967
 8369SOL     OW33247   1.422   6.360   1.549 -0.1590 -0.2645 -0.1675
 8369SOL    HW233248   1.394   6.306   1.623  0.9680  0.1386  0.5849
 8369SOL    HW333249   1.453   6.441   1.589  0.4194 -0.0191 -1.0822
 8369SOL    MW433250   1.422   6.364   1.564 -0.3757  0.4013 -0.3064
 8370SOL     OW33251   5.835   2.203   1.116  0.7941 -0.4675 -0.2384
 8370SOL    HW233252   5.797   2.126   1.075  0.0072 -0.2823  0.1347
 8370SOL    HW333253   5.922   2.210   1.077  0.3585 -0.7470 -1.2895
 8370SOL    MW433254   5.842   2.194   1.106  0.0577  0.6864  0.1742
 8371SOL     OW33255   2.254   5.886   2.683 -0.5410  0.6199 -0.2491
 8371SOL    HW233256   2.322   5.823   2.706 -1.0165  0.1715 -0.0469
 8371SOL    HW333257   2.222   5.919   2.767 -0.0967  1.3494 -0.3610
 8371SOL    MW433258   2.259   5.882   2.697 -0.7863  0.1670 -0.2091
 8372SOL     OW33259   5.869   3.003   5.002 -0.3854  0.1122 -0.6407
 8372SOL    HW233260   5.963   3.012   4.988 -0.0560  1.5612  1.9108
 8372SOL    HW333261   5.830   3.078   4.956 -0.0141  0.8519  0.2097
 8372SOL    MW433262   5.876   3.014   4.994  0.3039 -0.8452 -0.9351
 8373SOL     OW33263   3.217   4.448   5.816  0.4210  0.0294  0.3543
 8373SOL    HW233264   3.191   4.367   5.771  0.3193  0.0120  0.4447
 8373SOL    HW333265   3.145   4.509   5.799  1.1814  0.5957 -0.9992
 8373SOL    MW433266   3.204   4.445   5.808  0.4044 -0.3647 -0.8142
 8374SOL     OW33267   0.027   0.974   5.984  0.0394 -0.0839 -0.5338
 8374SOL    HW233268  -0.061   0.969   5.945  0.9962 -0.9622 -2.7712
 8374SOL    HW333269   0.012   1.002   6.074 -2.5305 -0.1910 -0.8550
 8374SOL    MW433270   0.013   0.977   5.991 -0.0372 -0.0597  0.0651
 8375SOL     OW33271   1.213   4.082   1.056 -0.0754  0.0637 -0.6458
 8375SOL    HW233272   1.232   4.137   1.132  2.0979 -0.0208 -1.0613
 8375SOL    HW333273   1.169   4.141   0.994  0.8047  0.9269 -0.4691
 8375SOL    MW433274   1.210   4.097   1.058 -0.0687  0.1828  0.2482
 8376SOL     OW33275   4.514   4.673   0.916 -0.2312 -0.2603  0.0053
 8376SOL    HW233276   4.575   4.647   0.847 -3.1011 -1.0423 -2.4117
 8376SOL    HW333277   4.570   4.692   0.991  3.0491  0.2528 -2.3568
 8376SOL    MW433278   4.530   4.672   0.917  0.3448 -0.6054 -0.2411
 8377SOL     OW33279   1.616   5.899   2.591 -0.0409 -0.3780  0.1338
 8377SOL    HW233280   1.618   5.992   2.615  1.6225 -0.6620  1.1777
 8377SOL    HW333281   1.663   5.895   2.507 -1.5315 -0.0923 -0.7615
 8377SOL    MW433282   1.622   5.911   2.583  0.1495 -0.1253 -0.5422
 8378SOL     OW33283   1.080   5.175   5.316 -0.0236  0.2165 -0.3480
 8378SOL    HW233284   0.989   5.204   5.309 -0.6550 -1.6006 -0.3328
 8378SOL    HW333285   1.127   5.227   5.251 -1.4399 -0.0698 -1.6741
 8378SOL    MW433286   1.074   5.186   5.307  0.5943 -0.3630 -0.1791
 8379SOL     OW33287   4.138   0.087   2.710  0.3093  0.0706 -0.2223
 8379SOL    HW233288   4.216   0.137   2.733  1.2417 -0.6224 -1.7356
 8379SOL    HW333289   4.119   0.035   2.788  1.3109  0.3089  0.1983
 8379SOL    MW433290   4.146   0.087   2.724 -0.0431 -0.4971  0.1076
 8380SOL     OW33291   5.876   2.447   5.835 -0.0086 -0.2127 -0.6781
 8380SOL    HW233292   5.782   2.433   5.825  0.2886 -1.1419 -2.5773
 8380SOL    HW333293   5.904   2.381   5.898 -0.6731  0.4621  0.3826
 8380SOL    MW433294   5.867   2.437   5.842 -0.4504  0.0726  0.0059
 8381SOL     OW33295   0.311   1.335   3.523 -0.2170 -0.0994  0.5767
 8381SOL    HW233296   0.342   1.409   3.471  1.6652 -0.5635  0.9759
 8381SOL    HW333297   0.384   1.313   3.580 -1.1076 -1.6222  1.1887
 8381SOL    MW433298   0.325   1.342   3.523  0.1906  0.5788 -0.5363
 8382SOL     OW33299   0.313   4.734   4.088 -0.1805  0.1280 -0.8561
 8382SOL    HW233300   0.357   4.650   4.079  0.1169  0.2348 -0.4180
 8382SOL    HW333301   0.352   4.774   4.166 -1.0417  0.2295 -0.4667
 8382SOL    MW433302   0.324   4.728   4.097  0.0673  0.0262 -1.1587
 8383SOL     OW33303   0.986   5.071   1.847 -0.0636  0.0210  0.2318
 8383SOL    HW233304   0.971   5.164   1.866  0.0870  0.2944 -0.8975
 8383SOL    HW333305   0.995   5.030   1.933 -0.1309  1.0517  0.7478
 8383SOL    MW433306   0.985   5.078   1.861 -0.3434 -0.2245 -0.6210
 8384SOL     OW33307   3.998   5.134   5.295  0.0802  0.6273 -0.1812
 8384SOL    HW233308   4.092   5.150   5.293  0.4376 -1.2795 -0.3435
 8384SOL    HW333309   3.964   5.199   5.356  1.3390  1.9846 -0.8566
 8384SOL    MW433310   4.006   5.144   5.303  0.2205  0.0765 -0.2369
 8385SOL     OW33311   3.199   2.470   0.959 -0.0399 -0.1682 -0.0623
 8385SOL    HW233312   3.143   2.542   0.989  0.2343 -0.0685  0.2235
 8385SOL    HW333313   3.138   2.403   0.928 -0.2884  0.4195 -0.8837
 8385SOL    MW433314   3.184   2.471   0.959  0.4467 -0.1048 -0.0405
 8386SOL     OW33315   4.514   5.109   0.665  0.4934 -0.9995  0.1937
 8386SOL    HW233316   4.544   5.149   0.747 -1.1215  1.2278 -0.1901
 8386SOL    HW333317   4.435   5.061   0.689  0.9011 -1.6660  0.2000
 8386SOL    MW433318   4.508   5.108   0.679 -0.1930  0.0256 -0.4874
 8387SOL     OW33319   6.388   4.054   1.739 -0.3439  0.0439 -0.6352
 8387SOL    HW233320   6.372   3.988   1.806 -2.3437  1.7198  0.6546
 8387SOL    HW333321   6.476   4.087   1.757 -1.5230  1.8765  2.6057
 8387SOL    MW433322   6.398   4.050   1.750 -0.6977 -0.3217  0.2599
 8388SOL     OW33323   5.353   3.151   3.210 -0.1362 -0.8213  0.3085
 8388SOL    HW233324   5.313   3.064   3.209  1.7701 -1.7386  0.0872
 8388SOL    HW333325   5.330   3.186   3.296 -0.8745 -1.5470  0.4275
 8388SOL    MW433326   5.344   3.144   3.221  0.0254 -0.4851 -0.4072
 8389SOL     OW33327   2.513   2.552   1.792  0.0476  0.2764  0.0932
 8389SOL    HW233328   2.534   2.544   1.699 -3.4596  1.1010 -0.9151
 8389SOL    HW333329   2.465   2.471   1.812  2.0558 -0.5926  1.6703
 8389SOL    MW433330   2.509   2.540   1.782 -0.4817 -0.0507 -0.0097
 8390SOL     OW33331   4.714   4.151   4.353  0.3293  0.0186 -0.0067
 8390SOL    HW233332   4.790   4.128   4.299 -0.5249 -0.8723 -0.8577
 8390SOL    HW333333   4.661   4.208   4.297  0.5479  0.9632  0.7269
 8390SOL    MW433334   4.717   4.155   4.338  0.6301 -0.1781 -0.1069
 8391SOL     OW33335   6.369   1.778   5.790 -0.1209 -0.1209  0.3047
 8391SOL    HW233336   6.463   1.785   5.809 -0.0828 -1.8840  0.9010
 8391SOL    HW333337   6.365   1.766   5.695  0.3453 -1.0589  0.3903
 8391SOL    MW433338   6.381   1.777   5.780 -0.0341 -0.6701  0.6644
 8392SOL     OW33339   5.317   5.773   4.115 -0.3458  0.0230  0.7267
 8392SOL    HW233340   5.370   5.777   4.035  0.5396 -1.0303  1.2329
 8392SOL    HW333341   5.296   5.864   4.135  0.2211  0.3677 -0.1876
 8392SOL    MW433342   5.321   5.785   4.107 -0.1155  0.2472 -0.4199
 8393SOL     OW33343   1.111   5.756   1.326 -0.6714  0.1723 -0.5109
 8393SOL    HW233344   1.181   5.732   1.387 -1.1624  0.0524  0.0185
 8393SOL    HW333345   1.033   5.710   1.359 -1.1445  0.8043 -0.7197
 8393SOL    MW433346   1.110   5.747   1.339  0.0859  0.3302 -0.3156
 8394SOL     OW33347   1.586   0.827   5.803  0.0941 -0.0331  0.0097
 8394SOL    HW233348   1.541   0.878   5.871 -0.8947 -0.2295 -0.4750
 8394SOL    HW333349   1.542   0.742   5.804 -1.9259  0.8214 -2.7479
 8394SOL    MW433350   1.574   0.823   5.812  1.0139  0.2405  0.4659
 8395SOL     OW33351   3.238   4.810   3.445  0.5289  0.0910  0.6153
 8395SOL    HW233352   3.303   4.741   3.451 -1.4179 -1.9413 -0.2012
 8395SOL    HW333353   3.161   4.775   3.490 -1.1059  0.9466 -1.3579
 8395SOL    MW433354   3.236   4.796   3.452 -0.4485 -0.0616 -0.3721
 8396SOL     OW33355   6.083   6.118   3.050  0.2062 -0.5179 -0.6458
 8396SOL    HW233356   6.177   6.107   3.066 -0.1893 -0.6255  2.2380
 8396SOL    HW333357   6.043   6.043   3.094 -1.3039  0.4244 -0.3606
 8396SOL    MW433358   6.090   6.107   3.058  0.4975 -0.1240  0.3314
 8397SOL     OW33359   3.154   0.479   5.303 -0.5223  0.3518 -0.5526
 8397SOL    HW233360   3.223   0.493   5.239 -0.0277  0.7398  0.0488
 8397SOL    HW333361   3.201   0.465   5.386 -1.0938 -1.4800 -0.4913
 8397SOL    MW433362   3.169   0.479   5.306 -0.4082 -0.0676 -0.0131
 8398SOL     OW33363   2.042   4.920   6.276 -0.1791 -0.7177 -0.1987
 8398SOL    HW233364   2.085   4.844   6.237  1.7867 -0.0443  0.5697
 8398SOL    HW333365   2.058   4.991   6.214  0.3846 -0.3118  0.4088
 8398SOL    MW433366   2.050   4.919   6.263 -0.0338  0.7562  0.1929
 8399SOL     OW33367   0.589   5.722   4.183 -0.6380  0.3334 -0.1309
 8399SOL    HW233368   0.564   5.731   4.092  0.3968  0.8772 -0.3748
 8399SOL    HW333369   0.673   5.768   4.190  0.1964 -1.2178  0.6800
 8399SOL    MW433370   0.597   5.729   4.172 -0.4218  0.3692  0.0538
 8400SOL     OW33371   5.345   0.264   3.692  0.4482  0.8278  0.1418
 8400SOL    HW233372   5.280   0.250   3.760 -1.3126  0.5561 -1.5077
 8400SOL    HW333373   5.387   0.179   3.682 -1.3496  0.0238 -1.0829
 8400SOL    MW433374   5.342   0.251   3.700  0.7302 -0.1384 -0.1260
 8401SOL     OW33375   0.296   3.896   3.568 -0.0486  0.3111  0.4828
 8401SOL    HW233376   0.375   3.903   3.621  0.0119 -0.9409  0.5906
 8401SOL    HW333377   0.255   3.814   3.597  0.0767 -0.5161 -1.5154
 8401SOL    MW433378   0.301   3.886   3.579 -0.1362 -0.0755  0.1601
 8402SOL     OW33379   3.340   1.934   5.478 -0.0582 -0.3351 -0.0844
 8402SOL    HW233380   3.347   1.897   5.566  0.7782  0.6957  0.3002
 8402SOL    HW333381   3.252   1.973   5.476 -0.1091 -0.4255  0.2710
 8402SOL    MW433382   3.329   1.934   5.489 -0.1376  0.1354 -0.1196
 8403SOL     OW33383   1.424   5.038   3.774  0.2270  0.6608  0.3128
 8403SOL    HW233384   1.427   4.964   3.714 -0.6953  1.5287 -0.8615
 8403SOL    HW333385   1.467   5.007   3.853  1.1553 -0.6468 -0.6657
 8403SOL    MW433386   1.430   5.024   3.776  0.4633  0.3836 -0.6431
 8404SOL     OW33387   0.617   5.112   5.734  0.0736  0.3272  0.4714
 8404SOL    HW233388   0.585   5.049   5.670 -3.3691  2.1281  0.1560
 8404SOL    HW333389   0.631   5.060   5.813  0.1810 -1.2622 -0.5512
 8404SOL    MW433390   0.614   5.097   5.736  0.4208  0.8016 -0.0241
 8405SOL     OW33391   6.107   4.694   5.820  0.1927  0.4836  0.2579
 8405SOL    HW233392   6.124   4.727   5.732  2.4747 -0.0391  0.4443
 8405SOL    HW333393   6.026   4.739   5.848  0.1013  1.5619 -1.6144
 8405SOL    MW433394   6.098   4.704   5.812 -0.0511 -0.0713 -1.1771
 8406SOL     OW33395   0.346   4.629   3.407  0.1154  0.3997 -0.3318
 8406SOL    HW233396   0.266   4.669   3.441 -0.2383 -0.3750 -0.2446
 8406SOL    HW333397   0.339   4.537   3.431 -0.1830 -0.2167 -2.5271
 8406SOL    MW433398   0.334   4.622   3.415 -0.4310 -0.3016 -0.2974
 8407SOL     OW33399   0.585   0.390   6.155 -0.2585 -0.2572 -0.4842
 8407SOL    HW233400   0.631   0.457   6.205 -3.0783  0.5553  1.2454
 8407SOL    HW333401   0.493   0.412   6.164 -1.1830 -3.0816 -1.7994
 8407SOL    MW433402   0.579   0.402   6.163 -0.1068 -0.4009 -0.1127
 8408SOL     OW33403   3.187   6.365   5.433  0.2790  0.6341 -0.1203
 8408SOL    HW233404   3.216   6.278   5.405  1.2079  0.7737  0.3618
 8408SOL    HW333405   3.146   6.403   5.355  0.7546  0.1360 -0.6201
 8408SOL    MW433406   3.186   6.359   5.419  0.2409 -0.0226 -0.6862
 8409SOL     OW33407   1.147   6.093   3.212  0.2140  0.0287  0.1680
 8409SOL    HW233408   1.128   6.008   3.174 -1.5473  0.7861 -0.7892
 8409SOL    HW333409   1.200   6.138   3.147 -0.0851  0.1693  0.0176
 8409SOL    MW433410   1.151   6.088   3.198  0.1214  0.0285  0.3826
 8410SOL     OW33411   3.706   2.541   0.572  0.0678 -0.4755 -0.1892
 8410SOL    HW233412   3.654   2.614   0.540  1.0339  0.7405  0.8769
 8410SOL    HW333413   3.791   2.552   0.529  0.3013 -0.8098  0.1778
 8410SOL    MW433414   3.711   2.552   0.562  0.8131 -0.1758 -0.6997
 8411SOL     OW33415   1.429   1.502   3.921  0.6631 -0.3066  0.2012
 8411SOL    HW233416   1.488   1.497   3.996  2.1714  0.5034 -0.8766
 8411SOL    HW333417   1.483   1.476   3.846 -0.4034  0.2361 -0.7966
 8411SOL    MW433418   1.444   1.498   3.921  0.0477  0.0750  0.1741
 8412SOL     OW33419   4.532   2.393   2.314  0.2770  0.1421 -0.2501
 8412SOL    HW233420   4.513   2.441   2.233 -0.5148  1.9345  0.9336
 8412SOL    HW333421   4.604   2.442   2.354 -0.4526  0.2931  0.9198
 8412SOL    MW433422   4.539   2.406   2.309 -0.0657 -0.0539  0.4846
 8413SOL     OW33423   1.607   1.863   5.129 -0.6888 -0.4520 -0.2421
 8413SOL    HW233424   1.570   1.843   5.043  1.8482 -0.9499 -1.3179
 8413SOL    HW333425   1.629   1.956   5.124  1.3774 -0.9201 -1.0136
 8413SOL    MW433426   1.605   1.873   5.117 -0.1814  0.2430 -0.0299
 8414SOL     OW33427   4.086   0.385   5.624  0.3853 -0.2502  0.2237
 8414SOL    HW233428   4.072   0.343   5.539  1.3594 -1.0436  0.4297
 8414SOL    HW333429   4.154   0.450   5.608  0.4799 -0.3130  0.3659
 8414SOL    MW433430   4.093   0.388   5.611  0.1540 -0.4588  0.0158
 8415SOL     OW33431   2.403   4.907   5.767 -0.7730 -0.3918  0.1575
 8415SOL    HW233432   2.464   4.833   5.763 -0.6836 -0.3111  0.0209
 8415SOL    HW333433   2.431   4.957   5.844  0.6448  0.7821 -1.0732
 8415SOL    MW433434   2.415   4.904   5.777  0.0983  0.3980 -0.0125
 8416SOL     OW33435   0.171   2.287   6.317 -0.3362 -0.4656  0.3136
 8416SOL    HW233436   0.078   2.306   6.308  0.0787  1.7285  0.2433
 8416SOL    HW333437   0.173   2.201   6.359 -2.3884 -0.4519  0.5559
 8416SOL    MW433438   0.159   2.278   6.322  0.7059  0.6549 -0.2295
 8417SOL     OW33439   2.019   3.798   4.536 -0.5732  0.1584  0.3277
 8417SOL    HW233440   2.045   3.716   4.578  0.2856  0.8437  1.1945
 8417SOL    HW333441   2.047   3.866   4.597  1.6027  1.2675 -1.7299
 8417SOL    MW433442   2.026   3.796   4.550 -0.2559  0.2584  0.3656
 8418SOL     OW33443   6.177   5.520   5.185  0.0669  0.4687 -0.2939
 8418SOL    HW233444   6.081   5.525   5.189 -0.0281 -0.4450 -1.0621
 8418SOL    HW333445   6.206   5.610   5.200 -0.9305  0.8142 -0.3593
 8418SOL    MW433446   6.168   5.533   5.187  0.5383 -0.0462 -0.1814
 8419SOL     OW33447   5.783   3.431   2.175 -0.4314  0.4947 -0.1080
 8419SOL    HW233448   5.766   3.373   2.100  0.7063  0.0986 -0.0813
 8419SOL    HW333449   5.707   3.418   2.232 -0.0751 -1.2117  0.0390
 8419SOL    MW433450   5.771   3.421   2.172 -0.1913 -0.2290 -0.1984
 8420SOL     OW33451   3.472   1.950   0.461 -0.1844  0.2113 -0.4947
 8420SOL    HW233452   3.559   1.989   0.466  0.4142 -0.7427 -2.5155
 8420SOL    HW333453   3.474   1.878   0.524 -0.0062  1.0285  0.4570
 8420SOL    MW433454   3.484   1.945   0.470 -0.5213 -0.5116  0.4009
 8421SOL     OW33455   0.659   5.466   3.591  0.0538 -0.4360 -0.1383
 8421SOL    HW233456   0.605   5.546   3.599 -0.2344 -0.6760  0.3658
 8421SOL    HW333457   0.606   5.398   3.633  0.6066 -0.7492  0.0468
 8421SOL    MW433458   0.645   5.468   3.598  0.1534  0.9789  0.0563
 8422SOL     OW33459   1.635   4.378   5.864  0.0168  0.3416  0.1956
 8422SOL    HW233460   1.687   4.374   5.784  0.4809 -0.9282  0.5232
 8422SOL    HW333461   1.590   4.462   5.860  0.9323  0.8077 -0.8322
 8422SOL    MW433462   1.636   4.389   5.853  0.1747 -0.2102 -0.1678
 8423SOL     OW33463   2.210   1.012   0.353 -0.0387  0.5063  0.3064
 8423SOL    HW233464   2.211   1.101   0.389 -2.7789  0.4174  0.8875
 8423SOL    HW333465   2.250   0.958   0.421  1.5534  1.2526 -0.0081
 8423SOL    MW433466   2.215   1.017   0.367  0.1654  0.1877 -0.4953
 8424SOL     OW33467   1.375   4.383   3.165  0.2573 -0.3785 -0.0132
 8424SOL    HW233468   1.408   4.436   3.092 -0.8189 -0.2866 -0.4567
 8424SOL    HW333469   1.392   4.436   3.243  0.0409  0.2097 -0.3565
 8424SOL    MW433470   1.382   4.397   3.165 -0.2166  0.0422 -0.1514
 8425SOL     OW33471   2.729   6.376   4.574 -1.0497  0.2307  0.2633
 8425SOL    HW233472   2.654   6.329   4.611 -0.1016 -0.9826  0.7197
 8425SOL    HW333473   2.767   6.423   4.649 -1.4393  0.9785 -0.0002
 8425SOL    MW433474   2.724   6.376   4.589  0.1392  0.0372 -0.6864
 8426SOL     OW33475   4.331   3.106   2.749  0.1152 -0.1624 -0.0262
 8426SOL    HW233476   4.320   3.196   2.719  0.3320  0.4575  1.6547
 8426SOL    HW333477   4.241   3.076   2.766  0.0365 -0.3056 -0.6694
 8426SOL    MW433478   4.317   3.114   2.747  0.2879 -0.1713 -0.3134
 8427SOL     OW33479   4.666   3.247   3.286  0.0284 -0.2353 -0.2685
 8427SOL    HW233480   4.732   3.256   3.355 -1.1957  1.5923  0.7723
 8427SOL    HW333481   4.612   3.173   3.314  0.5086 -0.5479 -0.1478
 8427SOL    MW433482   4.668   3.239   3.299  0.0419  0.2306  0.2838
 8428SOL     OW33483   2.748   1.223   3.753 -0.6168  0.0198  0.2508
 8428SOL    HW233484   2.833   1.179   3.752 -0.8087 -0.4027  1.1637
 8428SOL    HW333485   2.693   1.173   3.694 -0.4197 -0.1075  0.1757
 8428SOL    MW433486   2.752   1.211   3.745 -0.0265  0.7120 -0.5497
 8429SOL     OW33487   2.813   5.809   2.803  0.2093 -0.0958  0.7338
 8429SOL    HW233488   2.768   5.892   2.821  0.1729  0.3529 -1.2844
 8429SOL    HW333489   2.874   5.800   2.876 -0.1529  1.4463  1.2699
 8429SOL    MW433490   2.815   5.819   2.815  0.1952 -0.0564 -0.0576
 8430SOL     OW33491   2.573   0.036   3.850  0.0498 -0.5127 -0.3650
 8430SOL    HW233492   2.639   0.098   3.818 -2.7903  2.7725 -0.5404
 8430SOL    HW333493   2.592   0.029   3.943 -0.4806  2.1355  0.0384
 8430SOL    MW433494   2.584   0.043   3.858 -0.3799 -0.0130 -0.3489
 8431SOL     OW33495   4.522   1.771   5.508  0.2600 -0.2193 -0.5216
 8431SOL    HW233496   4.508   1.834   5.579 -1.8955 -1.1991  0.0259
 8431SOL    HW333497   4.591   1.810   5.454  1.5015  0.8684  1.7257
 8431SOL    MW433498   4.529   1.785   5.510 -0.0304  0.6253  0.0497
 8432SOL     OW33499   3.207   4.619   5.464  0.4081 -0.6995  0.0362
 8432SOL    HW233500   3.194   4.640   5.371  0.0631 -1.1716 -0.0231
 8432SOL    HW333501   3.126   4.575   5.490  1.6618 -3.3340 -0.2283
 8432SOL    MW433502   3.194   4.616   5.455  0.6630  0.0585 -0.0171
 8433SOL     OW33503   0.289   4.772   2.788  0.0531  0.1487 -0.9585
 8433SOL    HW233504   0.299   4.864   2.814  0.9667 -0.2633  0.2548
 8433SOL    HW333505   0.327   4.768   2.700  3.3744  0.2880  0.3300
 8433SOL    MW433506   0.296   4.784   2.780 -0.2865 -0.3568  0.1700
 8434SOL     OW33507   5.792   3.844   1.566 -0.2434  0.0646 -0.1787
 8434SOL    HW233508   5.860   3.854   1.499 -0.4355  0.6434 -0.2928
 8434SOL    HW333509   5.710   3.838   1.516 -0.4086  0.6962  0.0009
 8434SOL    MW433510   5.790   3.845   1.550  0.9419  0.4337 -0.2538
 8435SOL     OW33511   5.565   4.391   3.814  0.0948  0.0215 -0.2704
 8435SOL    HW233512   5.482   4.437   3.813 -0.8942 -1.6742 -0.7956
 8435SOL    HW333513   5.554   4.320   3.750  1.4008 -1.1193  0.7079
 8435SOL    MW433514   5.553   4.387   3.805 -0.5211 -0.3356 -0.0603
 8436SOL     OW33515   0.543   4.940   5.217  0.1349 -0.1865  0.6994
 8436SOL    HW233516   0.524   4.846   5.222 -1.5730  0.0460 -0.6836
 8436SOL    HW333517   0.637   4.944   5.197 -0.4402 -1.7870 -3.3172
 8436SOL    MW433518   0.553   4.928   5.215 -0.9898 -0.9194 -0.5086
 8437SOL     OW33519   1.978   3.249   2.244  0.2025 -0.4251 -0.0843
 8437SOL    HW233520   2.024   3.182   2.294 -1.5492 -0.6569  1.3358
 8437SOL    HW333521   1.912   3.201   2.195  0.3509  0.0581 -0.7770
 8437SOL    MW433522   1.975   3.234   2.244  0.1075  0.3353 -0.0574
 8438SOL     OW33523   5.514   0.884   3.168 -0.1015  0.0699 -0.1369
 8438SOL    HW233524   5.430   0.893   3.122  0.1932 -0.3586 -0.7911
 8438SOL    HW333525   5.496   0.821   3.238 -0.5080  0.5657  0.2097
 8438SOL    MW433526   5.500   0.877   3.171 -0.3202 -0.2657 -0.1298
 8439SOL     OW33527   1.006   0.456   5.497  0.3582  0.6240  0.1202
 8439SOL    HW233528   0.954   0.437   5.576  0.8804  0.6254  0.4691
 8439SOL    HW333529   1.030   0.548   5.507 -0.7125  1.0205 -0.7187
 8439SOL    MW433530   1.002   0.466   5.509  0.5269 -0.2196 -0.2394
 8440SOL     OW33531   2.628   4.916   1.336 -0.2219  0.4116  0.0776
 8440SOL    HW233532   2.678   4.889   1.413  2.0924  0.4407 -1.3150
 8440SOL    HW333533   2.556   4.854   1.331  0.9272 -1.0547  0.9505
 8440SOL    MW433534   2.625   4.904   1.345 -0.1950  0.2213 -0.7628
 8441SOL     OW33535   0.556   0.840   0.643 -0.4331 -0.0690  0.3309
 8441SOL    HW233536   0.582   0.764   0.695  0.1935  1.0287  1.6800
 8441SOL    HW333537   0.636   0.870   0.601 -0.0870  1.3981  1.9318
 8441SOL    MW433538   0.570   0.834   0.644 -0.2846  0.4678 -0.0325
 8442SOL     OW33539   1.264   2.483   0.199  0.1942 -0.0850  0.2874
 8442SOL    HW233540   1.332   2.546   0.175  0.9260 -0.4163  1.4127
 8442SOL    HW333541   1.276   2.409   0.139 -1.1373  1.0777 -1.5462
 8442SOL    MW433542   1.274   2.482   0.188  0.3798 -0.1281 -0.3793
 8443SOL     OW33543   5.814   1.543   5.197  0.2839 -0.3842  0.3083
 8443SOL    HW233544   5.797   1.589   5.115  0.3401 -1.4682 -0.3351
 8443SOL    HW333545   5.896   1.496   5.182  0.3268 -0.5394  1.0045
 8443SOL    MW433546   5.823   1.543   5.184  0.1538 -0.4191  0.5270
 8444SOL     OW33547   1.545   2.059   3.784 -0.0546  0.5420 -0.2542
 8444SOL    HW233548   1.574   1.983   3.835 -2.9017  0.8731  2.1532
 8444SOL    HW333549   1.608   2.128   3.806  0.7296 -0.2624  0.0894
 8444SOL    MW433550   1.557   2.058   3.794 -0.0919  0.0432 -0.0757
 8445SOL     OW33551   2.105   5.853   6.060  0.0879 -0.0645 -0.3304
 8445SOL    HW233552   2.140   5.777   6.014  0.6990 -0.0649  0.1195
 8445SOL    HW333553   2.099   5.921   5.993 -2.2704 -1.0267 -1.1869
 8445SOL    MW433554   2.109   5.852   6.045 -0.0922  0.0176 -0.0965
 8446SOL     OW33555   1.998   5.062   6.023  0.9037  0.1023  0.0910
 8446SOL    HW233556   1.907   5.061   6.054  1.0374  0.7863  0.5126
 8446SOL    HW333557   2.013   5.153   5.997  0.9356 -0.3533 -1.5885
 8446SOL    MW433558   1.988   5.074   6.024 -0.5606 -0.0184 -0.0597
 8447SOL     OW33559   4.400   3.329   1.543  0.0024  0.3535 -0.3621
 8447SOL    HW233560   4.481   3.367   1.507 -0.7057  0.8108 -1.5357
 8447SOL    HW333561   4.398   3.359   1.634  0.4253  1.5803 -0.7267
 8447SOL    MW433562   4.411   3.338   1.550 -0.4793  0.0136 -0.2586
 8448SOL     OW33563   5.476   3.063   1.041  0.2390  0.1646  0.0069
 8448SOL    HW233564   5.536   3.026   0.977  1.1102  0.6889  0.4941
 8448SOL    HW333565   5.390   3.053   1.002  0.2790 -3.2130  0.4987
 8448SOL    MW433566   5.473   3.057   1.028 -0.0419 -0.4887  0.4937
 8449SOL     OW33567   4.200   6.014   0.377  0.3593  0.0696  0.1974
 8449SOL    HW233568   4.109   5.986   0.372 -0.5570  2.9428 -2.3461
 8449SOL    HW333569   4.201   6.082   0.445  0.5751  0.0891  0.1748
 8449SOL    MW433570   4.188   6.019   0.385 -0.0778  0.1787  0.1314
 8450SOL     OW33571   2.327   4.049   2.722  0.1955 -0.8674 -0.8202
 8450SOL    HW233572   2.358   3.961   2.700  0.1658 -1.4536  1.2923
 8450SOL    HW333573   2.407   4.101   2.730  0.4386 -1.4249  0.7199
 8450SOL    MW433574   2.342   4.044   2.720  0.2725  0.3740  0.6788
 8451SOL     OW33575   3.745   3.353   5.012 -0.2572 -0.2497 -0.3748
 8451SOL    HW233576   3.655   3.380   4.990  0.1083  0.3087 -1.2480
 8451SOL    HW333577   3.750   3.361   5.107 -1.2980 -0.8093 -0.2628
 8451SOL    MW433578   3.734   3.358   5.021 -0.4927 -0.1415 -0.3283
 8452SOL     OW33579   1.148   0.069   4.773 -0.4836 -0.5064  0.0790
 8452SOL    HW233580   1.124   0.112   4.855 -1.6404 -2.2919  0.7396
 8452SOL    HW333581   1.069   0.020   4.748 -0.6546  1.0523 -2.8688
 8452SOL    MW433582   1.134   0.068   4.780 -0.3455  0.1294  0.0475
 8453SOL     OW33583   2.449   0.100   4.305  0.2096 -0.3516 -0.1989
 8453SOL    HW233584   2.463   0.029   4.242  0.7225 -0.9697  0.5812
 8453SOL    HW333585   2.405   0.058   4.379 -0.5622  0.4043 -0.2204
 8453SOL    MW433586   2.445   0.085   4.307 -0.1400 -0.6672 -0.2801
 8454SOL     OW33587   2.431   5.873   5.041 -0.1410 -1.1676 -0.3635
 8454SOL    HW233588   2.504   5.884   5.102 -0.6160  0.6974 -0.0880
 8454SOL    HW333589   2.444   5.939   4.974 -3.1640  1.4673  1.3680
 8454SOL    MW433590   2.442   5.883   5.041  0.2871  0.4771  0.2963
 8455SOL     OW33591   3.614   4.468   5.280  0.2614 -0.1431  0.4900
 8455SOL    HW233592   3.665   4.517   5.344  1.9687 -1.3620  0.1167
 8455SOL    HW333593   3.639   4.504   5.195  0.3184 -0.5840  0.3185
 8455SOL    MW433594   3.624   4.479   5.278 -0.2962 -0.0244 -0.0420
 8456SOL     OW33595   5.749   6.070   0.864 -0.3065  0.1270 -0.3194
 8456SOL    HW233596   5.729   6.122   0.941  1.1951 -2.5763  2.1108
 8456SOL    HW333597   5.664   6.042   0.830 -1.0821  3.0592 -1.0340
 8456SOL    MW433598   5.735   6.073   0.870 -0.1684 -0.4466 -0.7202
 8457SOL     OW33599   3.562   5.830   1.284 -0.3945 -0.1798 -0.4653
 8457SOL    HW233600   3.635   5.862   1.337 -0.7776 -0.4639  0.2324
 8457SOL    HW333601   3.489   5.888   1.306 -0.7131 -0.6636 -0.2433
 8457SOL    MW433602   3.562   5.842   1.294 -0.4799  0.8372  0.3152
 8458SOL     OW33603   1.728   2.754   2.030 -0.1345  0.2183 -0.6124
 8458SOL    HW233604   1.726   2.734   2.123 -0.5802 -0.2243 -0.7129
 8458SOL    HW333605   1.636   2.751   2.003  0.1059 -1.1247 -1.3658
 8458SOL    MW433606   1.715   2.751   2.038  0.2778  0.3031 -0.5945
 8459SOL     OW33607   5.321   4.945   1.000  0.1323 -0.0795 -0.5736
 8459SOL    HW233608   5.246   4.924   0.944  0.2263 -0.1947 -0.6574
 8459SOL    HW333609   5.366   5.015   0.953  0.0589  0.0127 -0.5072
 8459SOL    MW433610   5.317   4.952   0.986  0.2450 -0.2942 -0.5964
 8460SOL     OW33611   2.114   3.136   3.491  0.0367 -0.6011 -0.1498
 8460SOL    HW233612   2.067   3.220   3.491 -0.4749 -0.8571  1.3950
 8460SOL    HW333613   2.055   3.076   3.537  0.5828 -1.7130 -0.8555
 8460SOL    MW433614   2.100   3.139   3.497 -0.4685  0.7967  0.0327
 8461SOL     OW33615   0.138   4.431   0.296 -0.4244 -0.3737 -0.5048
 8461SOL    HW233616   0.109   4.508   0.345 -0.0444  0.5278 -1.6499
 8461SOL    HW333617   0.123   4.358   0.355  2.1822  0.8480  1.9091
 8461SOL    MW433618   0.132   4.432   0.310  0.2981  0.5789  0.4972
 8462SOL     OW33619   1.603   3.692   2.594  0.2658  0.3783 -0.5966
 8462SOL    HW233620   1.617   3.664   2.684  1.2064  0.1164 -0.8044
 8462SOL    HW333621   1.557   3.619   2.553  0.2499  0.3002 -0.4401
 8462SOL    MW433622   1.599   3.679   2.600  0.1040 -0.5567 -0.4160
 8463SOL     OW33623   4.273   1.032   3.316  0.0233 -0.3547 -0.5347
 8463SOL    HW233624   4.289   0.977   3.239 -0.1959 -0.1014 -0.7621
 8463SOL    HW333625   4.275   1.121   3.282 -1.5942 -0.2983 -0.5332
 8463SOL    MW433626   4.276   1.036   3.301  0.0988 -0.6007  0.0384
 8464SOL     OW33627   4.136   1.478   3.757 -0.3396  0.1380 -0.8383
 8464SOL    HW233628   4.143   1.554   3.814 -0.1060  0.5220 -1.3710
 8464SOL    HW333629   4.145   1.403   3.815  1.4233  0.5248 -0.5446
 8464SOL    MW433630   4.138   1.478   3.772  0.1342 -0.5235  0.1477
 8465SOL     OW33631   4.617   3.639   0.893 -0.0940  0.0307  0.0245
 8465SOL    HW233632   4.556   3.665   0.825  0.4002  0.0664 -0.4137
 8465SOL    HW333633   4.694   3.606   0.846 -0.1296 -0.8586  0.5693
 8465SOL    MW433634   4.619   3.638   0.878 -0.0755 -0.0713  0.4087
 8466SOL     OW33635   3.858   1.734   5.419 -0.0428  0.3753  0.1196
 8466SOL    HW233636   3.867   1.700   5.330 -1.1886  0.2761  0.0342
 8466SOL    HW333637   3.947   1.730   5.454  0.4807  0.6536 -1.0975
 8466SOL    MW433638   3.871   1.729   5.411  0.2056  0.1244  0.1497
 8467SOL     OW33639   3.402   2.624   4.440  0.5828  0.1638  0.3641
 8467SOL    HW233640   3.309   2.642   4.458  0.8635  1.4564  0.6461
 8467SOL    HW333641   3.404   2.532   4.414 -0.8650  0.2836 -0.2805
 8467SOL    MW433642   3.390   2.614   4.439  0.0940 -0.6369  0.2233
 8468SOL     OW33643   0.689   0.138   3.493  0.0310 -0.4306 -0.0449
 8468SOL    HW233644   0.729   0.223   3.509  0.7701 -0.5687 -1.0533
 8468SOL    HW333645   0.707   0.088   3.573  0.9112 -0.1197 -0.0382
 8468SOL    MW433646   0.697   0.142   3.506 -0.3526 -0.2307  0.4907
 8469SOL     OW33647   1.839   4.241   2.820  0.1242  0.1439 -0.1175
 8469SOL    HW233648   1.891   4.311   2.858  0.9951  0.0404 -1.0645
 8469SOL    HW333649   1.898   4.165   2.820 -1.4558 -1.2354  2.8223
 8469SOL    MW433650   1.854   4.240   2.825 -0.1973 -0.1951  0.1340
 8470SOL     OW33651   1.805   1.726   4.058 -0.6688  0.4999  0.1789
 8470SOL    HW233652   1.762   1.809   4.079 -0.2216  0.3330  1.8823
 8470SOL    HW333653   1.893   1.750   4.031 -1.7969  0.8787 -3.7304
 8470SOL    MW433654   1.811   1.740   4.057 -0.4262 -0.8485 -0.6838
 8471SOL     OW33655   5.364   2.397   1.839 -0.1377 -0.0222  0.2589
 8471SOL    HW233656   5.336   2.424   1.926 -0.0148 -0.8069  0.5528
 8471SOL    HW333657   5.460   2.406   1.840 -0.2788  2.0781 -0.5434
 8471SOL    MW433658   5.373   2.402   1.851 -0.7048  0.5309  0.0130
 8472SOL     OW33659   5.086   0.380   4.337 -0.4259  0.2450  0.0853
 8472SOL    HW233660   5.104   0.449   4.401 -1.7207  0.8006 -0.0949
 8472SOL    HW333661   5.135   0.406   4.259  1.0309 -0.3506  0.7767
 8472SOL    MW433662   5.095   0.393   4.335 -0.1953  0.3722 -0.3436
 8473SOL     OW33663   1.099   5.619   0.695  0.1116  0.9763 -0.3720
 8473SOL    HW233664   1.191   5.644   0.696  0.6952 -1.0330 -0.3796
 8473SOL    HW333665   1.085   5.582   0.608 -0.7738  1.4034 -0.4276
 8473SOL    MW433666   1.109   5.618   0.684 -0.3257  0.0475  0.0448
 8474SOL     OW33667   0.099   3.202   2.934  0.4633  0.3119 -0.3200
 8474SOL    HW233668   0.172   3.256   2.904  0.6734 -0.1265 -0.5939
 8474SOL    HW333669   0.139   3.137   2.992  0.1171  0.8904  0.5990
 8474SOL    MW433670   0.114   3.201   2.938 -0.1407 -0.5630  0.2578
 8475SOL     OW33671   0.374   1.846   1.639  0.6758  0.0053 -0.0768
 8475SOL    HW233672   0.376   1.820   1.547  3.2324  1.8781 -0.6810
 8475SOL    HW333673   0.285   1.827   1.668 -0.0175 -1.2567 -2.7336
 8475SOL    MW433674   0.362   1.840   1.630  0.6248 -0.5764 -0.3634
 8476SOL     OW33675   1.665   3.368   5.185  0.2773  0.3397  0.1834
 8476SOL    HW233676   1.725   3.358   5.111  0.2014  1.1494  0.0041
 8476SOL    HW333677   1.711   3.328   5.259  0.1026 -1.0292 -0.4147
 8476SOL    MW433678   1.679   3.361   5.185 -0.3560  0.0496  0.1242
 8477SOL     OW33679   1.051   4.980  -0.017 -0.3722 -0.4546  0.2197
 8477SOL    HW233680   1.132   4.935  -0.042  1.4947  2.2525  0.9980
 8477SOL    HW333681   1.029   4.945   0.069  0.9969 -0.0104  0.7745
 8477SOL    MW433682   1.059   4.969  -0.009  0.2089  0.1767  0.0593
 8478SOL     OW33683   0.534   4.395   2.752  0.3564  0.2107 -0.1959
 8478SOL    HW233684   0.558   4.487   2.768 -0.1959  0.4784 -0.8777
 8478SOL    HW333685   0.453   4.400   2.702  0.4695 -0.6525 -0.4719
 8478SOL    MW433686   0.527   4.408   2.747 -0.4140  0.5157 -0.3069
 8479SOL     OW33687   4.698   4.252   2.860  0.0496  0.8736  0.3534
 8479SOL    HW233688   4.608   4.271   2.835  0.5121  1.2551 -1.1031
 8479SOL    HW333689   4.745   4.335   2.847  0.6406  0.6540  0.9918
 8479SOL    MW433690   4.693   4.266   2.855 -0.2605  0.0301  0.6508
 8480SOL     OW33691   6.050   5.812   5.862  0.3378 -0.2100 -0.1818
 8480SOL    HW233692   6.054   5.745   5.794 -0.5359 -1.3430  0.8387
 8480SOL    HW333693   5.967   5.796   5.907  0.5113  1.0252  0.6333
 8480SOL    MW433694   6.040   5.801   5.859  0.3499  0.1590  0.1706
 8481SOL     OW33695   5.798   4.977   1.113 -0.5351  0.0282  0.3098
 8481SOL    HW233696   5.796   4.882   1.123 -1.1297  0.0017 -0.0074
 8481SOL    HW333697   5.887   4.996   1.083 -0.1962 -0.3518  1.0389
 8481SOL    MW433698   5.810   4.967   1.111 -0.8201 -0.2068 -0.2423
 8482SOL     OW33699   1.726   0.091   5.609 -0.4492 -0.6262  0.4106
 8482SOL    HW233700   1.754   0.036   5.536  1.8432  0.5520  0.3159
 8482SOL    HW333701   1.782   0.065   5.682 -0.2093  0.6720  0.7215
 8482SOL    MW433702   1.737   0.080   5.609 -0.4426  0.3468 -0.2030
 8483SOL     OW33703   2.511   6.234   4.646  0.0872  1.1909  0.4200
 8483SOL    HW233704   2.487   6.205   4.735  1.2892  1.5714  0.8944
 8483SOL    HW333705   2.531   6.153   4.600  1.1045  1.0780  1.0245
 8483SOL    MW433706   2.511   6.219   4.652 -0.5235 -0.2590  0.2778
 8484SOL     OW33707   2.875   5.760   3.973 -0.0889  0.9306  0.5438
 8484SOL    HW233708   2.966   5.770   3.944 -0.1642 -0.1680 -0.1210
 8484SOL    HW333709   2.879   5.768   4.068  0.7027  0.9377  0.5147
 8484SOL    MW433710   2.887   5.762   3.982 -0.4657  0.2796  0.0530
 8485SOL     OW33711   1.920   0.024   1.173 -0.5290 -0.3698 -0.4747
 8485SOL    HW233712   1.883   0.109   1.147 -0.3250 -0.6924 -1.8930
 8485SOL    HW333713   1.909   0.022   1.268 -2.2475  0.4372 -0.6147
 8485SOL    MW433714   1.913   0.035   1.182  0.4570 -0.3447  0.0867
 8486SOL     OW33715   0.668   1.889   3.929 -0.1132 -0.6948 -0.9996
 8486SOL    HW233716   0.583   1.924   3.957 -0.3327 -1.3967 -0.7531
 8486SOL    HW333717   0.662   1.795   3.947  0.0014 -1.0717 -2.7372
 8486SOL    MW433718   0.656   1.881   3.935  0.5771 -0.4284 -0.0323
 8487SOL     OW33719   4.771   4.601   5.660 -0.4969 -0.0346  0.5226
 8487SOL    HW233720   4.778   4.511   5.694 -0.4811 -0.6154 -0.9392
 8487SOL    HW333721   4.860   4.635   5.664 -0.9307  1.1149  4.0103
 8487SOL    MW433722   4.784   4.593   5.665  0.2620  0.8327  0.3394
 8488SOL     OW33723   2.987   2.048   5.178  0.4272 -0.2223  0.0613
 8488SOL    HW233724   2.904   2.089   5.204  0.7348 -0.0706  0.8414
 8488SOL    HW333725   2.967   2.004   5.096 -0.0441  1.0564 -0.5336
 8488SOL    MW433726   2.973   2.048   5.171  0.3097 -0.0093 -0.3083
 8489SOL     OW33727   3.655   1.480   0.357  0.5296  0.3461 -0.2617
 8489SOL    HW233728   3.617   1.392   0.362 -1.2673  1.0803 -0.2426
 8489SOL    HW333729   3.619   1.517   0.276  0.3785  1.4613  0.3009
 8489SOL    MW433730   3.646   1.473   0.347 -0.4865 -0.3869 -0.3811
 8490SOL     OW33731   5.334   1.588   5.771 -0.2336 -0.4641 -0.0572
 8490SOL    HW233732   5.339   1.631   5.856 -0.1204  0.0631 -0.3276
 8490SOL    HW333733   5.244   1.555   5.767 -0.4597  0.1438 -0.0367
 8490SOL    MW433734   5.322   1.589   5.782 -0.7089 -0.0148 -0.2831
 8491SOL     OW33735   0.369   4.195   6.070  0.0640  0.0530  0.0036
 8491SOL    HW233736   0.446   4.144   6.095  0.7340  0.3480 -1.3969
 8491SOL    HW333737   0.404   4.275   6.031 -0.9516  0.1931 -0.6693
 8491SOL    MW433738   0.383   4.199   6.068  0.1725 -0.0175  0.2278
 8492SOL     OW33739   4.391   3.584   4.231 -0.0670  0.1388 -0.4146
 8492SOL    HW233740   4.446   3.634   4.171  0.4181  0.0178 -0.0744
 8492SOL    HW333741   4.305   3.627   4.226  0.3346  0.9972 -0.1415
 8492SOL    MW433742   4.387   3.596   4.222 -0.4820 -0.0368  0.5361
 8493SOL     OW33743   3.938   0.689   1.278  0.3690  0.0111 -0.7698
 8493SOL    HW233744   3.896   0.772   1.256  0.4195  0.3585  0.3511
 8493SOL    HW333745   3.870   0.623   1.266 -0.6636  0.5957  1.3228
 8493SOL    MW433746   3.924   0.691   1.274 -0.4110  0.3012  0.2168
 8494SOL     OW33747   5.135   0.474   3.004 -0.0521  0.0318 -0.0950
 8494SOL    HW233748   5.175   0.417   3.069 -2.6234 -1.8916 -0.0513
 8494SOL    HW333749   5.110   0.552   3.053  5.2905  2.4758 -0.5157
 8494SOL    MW433750   5.137   0.477   3.019 -0.0818  0.2657 -1.0145
 8495SOL     OW33751   5.412   3.995   5.096  0.5984 -0.3436  0.5619
 8495SOL    HW233752   5.484   4.054   5.118  0.9176  0.6937 -2.7596
 8495SOL    HW333753   5.338   4.053   5.078 -0.0467 -1.1716  0.5041
 8495SOL    MW433754   5.411   4.010   5.097 -0.5749  0.0600 -0.1230
 8496SOL     OW33755   0.758   1.632   2.452 -0.2166 -0.4761 -0.3079
 8496SOL    HW233756   0.804   1.715   2.467 -2.7686  0.7844  1.2741
 8496SOL    HW333757   0.785   1.576   2.525 -1.7091  0.5642  1.1152
 8496SOL    MW433758   0.767   1.636   2.464 -0.4462  0.2236  0.2371
 8497SOL     OW33759   2.751   0.799   4.587 -0.0229  0.3276  0.1399
 8497SOL    HW233760   2.774   0.715   4.627 -0.9432  0.4988  1.0680
 8497SOL    HW333761   2.827   0.855   4.604  0.4592 -0.2110 -0.1943
 8497SOL    MW433762   2.764   0.795   4.594  0.1723  0.1556 -0.3114
 8498SOL     OW33763   5.226   5.753   5.919  0.4123  0.0179  0.2038
 8498SOL    HW233764   5.274   5.823   5.876  1.0980  0.4372  1.5757
 8498SOL    HW333765   5.294   5.699   5.959 -0.1922  0.0449  1.3168
 8498SOL    MW433766   5.241   5.755   5.919 -0.6341  0.3077 -0.1815
 8499SOL     OW33767   1.174   5.310   5.080 -0.7968 -0.2994  0.0458
 8499SOL    HW233768   1.095   5.287   5.032 -0.4149  0.7723 -1.1610
 8499SOL    HW333769   1.242   5.255   5.043 -0.2186  1.4651 -1.7028
 8499SOL    MW433770   1.173   5.300   5.069 -0.6694 -0.0616 -0.4321
 8500SOL     OW33771   1.714   0.018   5.336  0.3479 -0.0504  0.3922
 8500SOL    HW233772   1.750   0.046   5.252 -1.3522  1.0841  0.0015
 8500SOL    HW333773   1.674  -0.067   5.318 -0.4716  0.4282 -0.0879
 8500SOL    MW433774   1.713   0.011   5.323  0.0665 -0.1996  0.0090
 8501SOL     OW33775   5.845   1.867   4.821 -0.3990  0.3759 -0.7474
 8501SOL    HW233776   5.776   1.912   4.870 -0.0932  1.4019 -1.2285
 8501SOL    HW333777   5.826   1.887   4.729 -1.5669 -2.3620 -1.1786
 8501SOL    MW433778   5.833   1.876   4.815  0.4062  0.1522  0.5697
 8502SOL     OW33779   0.524   4.000   1.653 -0.4632  0.3413  0.4191
 8502SOL    HW233780   0.460   4.012   1.723 -0.3499  2.2030  0.2555
 8502SOL    HW333781   0.472   3.995   1.573 -0.4835  0.3203  0.4337
 8502SOL    MW433782   0.509   4.001   1.652  0.2031  0.3395  0.1103
 8503SOL     OW33783   3.295   0.162   5.249 -0.5971  0.3737  0.1117
 8503SOL    HW233784   3.336   0.232   5.198  1.0693 -0.2421  0.5311
 8503SOL    HW333785   3.348   0.158   5.329 -0.9958 -0.9940  0.3225
 8503SOL    MW433786   3.308   0.171   5.253 -0.4918  0.3422 -0.1997
 8504SOL     OW33787   0.152   1.644   4.540  0.0080  0.0353  0.1521
 8504SOL    HW233788   0.112   1.619   4.456 -3.2327 -2.3014  2.1410
 8504SOL    HW333789   0.114   1.729   4.560  0.9671  0.7042 -0.8271
 8504SOL    MW433790   0.141   1.652   4.531  0.2816  0.4390  0.0697
 8505SOL     OW33791   2.707   4.119   1.911  0.2374  0.2620 -0.4223
 8505SOL    HW233792   2.672   4.044   1.864  0.0902 -0.0266  0.1318
 8505SOL    HW333793   2.704   4.093   2.003  1.2115  0.5178 -0.3020
 8505SOL    MW433794   2.702   4.106   1.917 -0.4701 -0.1840 -0.2841
 8506SOL     OW33795   0.226   0.636   0.220  0.4337  0.2417 -0.4359
 8506SOL    HW233796   0.168   0.569   0.185  0.3415  0.2260 -0.2551
 8506SOL    HW333797   0.175   0.717   0.217  0.6696  0.3757 -0.9895
 8506SOL    MW433798   0.212   0.638   0.215 -0.2904  0.0708 -0.6008
 8507SOL     OW33799   1.881   3.287   1.609 -0.0103  0.8192  0.1999
 8507SOL    HW233800   1.805   3.232   1.589  0.0955  1.3688 -1.8892
 8507SOL    HW333801   1.957   3.230   1.595  0.0660  1.2221 -1.1447
 8507SOL    MW433802   1.881   3.272   1.605  0.9801  0.6010  0.3708
 8508SOL     OW33803   5.789   6.232   3.199 -0.3218 -0.2026 -0.5755
 8508SOL    HW233804   5.870   6.243   3.148  0.0635  0.1865  0.1124
 8508SOL    HW333805   5.730   6.299   3.164  0.4409  1.0578  0.4526
 8508SOL    MW433806   5.792   6.243   3.187 -0.2082 -0.2233 -0.0251
 8509SOL     OW33807   3.392   6.112   2.128 -0.7148  0.5571 -0.2002
 8509SOL    HW233808   3.360   6.054   2.059  0.4887  1.0195 -1.1886
 8509SOL    HW333809   3.463   6.063   2.170 -0.6709  0.7376 -0.0634
 8509SOL    MW433810   3.397   6.098   2.124  0.1761 -0.1032 -0.0910
 8510SOL     OW33811   4.022   2.253   6.152 -0.4479  0.5354  0.2181
 8510SOL    HW233812   3.963   2.313   6.197 -0.7199  0.2787  0.2041
 8510SOL    HW333813   4.110   2.281   6.178 -0.6187 -0.7688  2.3955
 8510SOL    MW433814   4.026   2.265   6.161  0.1854  0.4709  0.8539
 8511SOL     OW33815   0.146   3.458   2.600  0.3950 -0.1325  0.2654
 8511SOL    HW233816   0.083   3.386   2.591  0.1199  0.2172 -0.7539
 8511SOL    HW333817   0.191   3.441   2.682 -0.0635 -1.1612  0.3126
 8511SOL    MW433818   0.143   3.447   2.609 -0.1948 -0.2490  0.1569
 8512SOL     OW33819   4.702   4.835   3.256 -0.1104  0.7030  0.2033
 8512SOL    HW233820   4.670   4.745   3.251 -2.3196  1.3564  0.9798
 8512SOL    HW333821   4.686   4.871   3.169 -0.1202  0.6066  0.1654
 8512SOL    MW433822   4.695   4.828   3.244  0.1016  0.3910 -0.1393
 8513SOL     OW33823   6.231   2.674   0.651 -0.4990 -0.2508  0.1891
 8513SOL    HW233824   6.314   2.646   0.691 -0.7889 -1.5998 -0.1001
 8513SOL    HW333825   6.206   2.751   0.701  0.5917 -0.2272  0.7368
 8513SOL    MW433826   6.239   2.680   0.663 -0.3448  0.6118 -0.1500
 8514SOL     OW33827   3.106   0.648   4.697  0.8142 -0.1613 -0.1414
 8514SOL    HW233828   3.108   0.588   4.623 -2.6297  0.7318 -1.1277
 8514SOL    HW333829   3.083   0.733   4.659 -1.6650  0.2252  1.9376
 8514SOL    MW433830   3.103   0.651   4.683  0.6475  0.0137 -0.2829
 8515SOL     OW33831   5.888   4.063   0.563 -0.1950 -0.1656 -0.1901
 8515SOL    HW233832   5.941   4.039   0.487 -2.6023  1.1090 -2.4113
 8515SOL    HW333833   5.939   4.132   0.606  0.8496 -0.3436 -1.0844
 8515SOL    MW433834   5.902   4.069   0.559  0.5831 -0.0240  0.8141
 8516SOL     OW33835   3.011   4.003   4.709 -0.1364  0.5383 -0.1768
 8516SOL    HW233836   2.948   3.930   4.709  0.5943 -0.1216 -1.2241
 8516SOL    HW333837   3.064   3.988   4.787 -0.0453 -0.0208 -0.3384
 8516SOL    MW433838   3.010   3.991   4.719  0.3906 -0.1061  0.1270
 8517SOL     OW33839   0.213   4.292   4.591  0.5509 -0.0833  0.1415
 8517SOL    HW233840   0.268   4.217   4.568  0.3377  0.0258 -0.7559
 8517SOL    HW333841   0.131   4.276   4.544  0.2374  0.3403  0.5441
 8517SOL    MW433842   0.210   4.280   4.582 -0.2065 -0.1429 -0.5144
 8518SOL     OW33843   2.466   3.331   5.340  0.4723 -0.1515  0.0685
 8518SOL    HW233844   2.511   3.415   5.329  0.6903 -0.5490 -3.3548
 8518SOL    HW333845   2.374   3.350   5.324  0.5841 -0.5788 -1.2096
 8518SOL    MW433846   2.460   3.345   5.336 -0.3067  0.0371  0.4522
 8519SOL     OW33847   4.898   1.775   1.831  0.0425  0.2617  0.0339
 8519SOL    HW233848   4.992   1.793   1.833 -0.0925  1.1628  2.6583
 8519SOL    HW333849   4.858   1.856   1.802  0.0525 -0.5044 -2.3462
 8519SOL    MW433850   4.905   1.788   1.828  0.2879 -0.1574 -0.1685
 8520SOL     OW33851   0.451   4.879   2.124  0.2826 -0.1430 -0.4704
 8520SOL    HW233852   0.491   4.819   2.186 -0.4844  0.1770  0.3634
 8520SOL    HW333853   0.482   4.850   2.038 -0.1322 -1.7728 -0.0960
 8520SOL    MW433854   0.460   4.868   2.121  0.4335 -0.0701  0.1510
 8521SOL     OW33855   4.502   1.579   2.054  0.2068  1.0573  0.9628
 8521SOL    HW233856   4.471   1.641   2.120 -0.3118  3.5770 -1.4829
 8521SOL    HW333857   4.436   1.582   1.985  0.8789 -1.2516  0.1110
 8521SOL    MW433858   4.489   1.588   2.054 -0.3497 -0.8614  0.5611
 8522SOL     OW33859   0.789   3.082   5.937  0.3782 -0.4660  0.5940
 8522SOL    HW233860   0.727   3.033   5.991  1.1337  0.3213  2.2301
 8522SOL    HW333861   0.875   3.050   5.964  0.7888  0.2083  0.1202
 8522SOL    MW433862   0.792   3.071   5.947  0.1127 -0.0608 -0.6575
 8523SOL     OW33863   6.108   5.869   2.476  0.2321 -0.0349 -0.1918
 8523SOL    HW233864   6.126   5.959   2.502  1.4381  0.0805 -1.3363
 8523SOL    HW333865   6.058   5.832   2.549  1.0483  1.0977  0.9770
 8523SOL    MW433866   6.104   5.876   2.489  0.0712 -0.3634  0.2181
 8524SOL     OW33867   2.639   1.438   5.534  0.2054  0.1265 -0.3319
 8524SOL    HW233868   2.556   1.475   5.564 -0.1808 -0.3490 -0.7918
 8524SOL    HW333869   2.705   1.480   5.589 -0.4180 -0.1804  0.6755
 8524SOL    MW433870   2.637   1.449   5.545  0.5702  0.0553 -0.0639
 8525SOL     OW33871   0.917   4.376   6.073  0.2642  0.7992 -0.7163
 8525SOL    HW233872   0.906   4.310   6.004  0.9892  0.1238 -0.1994
 8525SOL    HW333873   0.994   4.347   6.122  0.5310  1.9878 -0.4157
 8525SOL    MW433874   0.925   4.363   6.070 -0.2165 -0.2092 -0.0500
 8526SOL     OW33875   2.572   4.020   2.516 -0.0331  0.3255 -0.2490
 8526SOL    HW233876   2.544   3.936   2.481 -1.4833  1.5420 -2.2340
 8526SOL    HW333877   2.650   4.000   2.568 -0.9015 -2.3277  0.1659
 8526SOL    MW433878   2.579   4.007   2.518 -0.2044  0.2830  0.1672
 8527SOL     OW33879   2.702   3.201   0.519 -0.0731  0.2384 -0.3855
 8527SOL    HW233880   2.775   3.168   0.570 -1.2327  0.1707  1.2939
 8527SOL    HW333881   2.651   3.253   0.580 -0.9840  1.0030 -1.7334
 8527SOL    MW433882   2.705   3.204   0.534 -0.5741 -0.1163 -0.8012
 8528SOL     OW33883   1.537   0.495   3.565  0.3029 -0.1746  0.2485
 8528SOL    HW233884   1.504   0.494   3.475 -0.2130 -0.4636  0.4395
 8528SOL    HW333885   1.583   0.412   3.574 -1.6659 -1.2335  0.9871
 8528SOL    MW433886   1.539   0.484   3.554 -0.4472 -0.0581  0.7109
 8529SOL     OW33887   1.634   4.716   0.997 -0.5534  0.4830 -0.3067
 8529SOL    HW233888   1.635   4.659   0.920 -0.3328 -0.7262  0.5733
 8529SOL    HW333889   1.684   4.669   1.063 -2.8032  0.3074  1.4003
 8529SOL    MW433890   1.641   4.702   0.996  0.1622 -0.0487  0.3050
 8530SOL     OW33891   2.389   3.349   2.227  0.4548  0.4574  0.1868
 8530SOL    HW233892   2.480   3.367   2.249  0.7271 -0.8121  0.1627
 8530SOL    HW333893   2.354   3.434   2.200  1.9296  0.7496 -0.9367
 8530SOL    MW433894   2.396   3.363   2.227 -0.2822 -0.0777 -0.5907
 8531SOL     OW33895   1.974   0.102   0.515 -0.5107  0.1133 -0.0977
 8531SOL    HW233896   2.032   0.077   0.587 -2.3840 -1.5403  0.9500
 8531SOL    HW333897   1.951   0.193   0.533 -0.5527 -0.1257  1.1440
 8531SOL    MW433898   1.979   0.111   0.527 -0.7511 -0.3084 -0.6595
 8532SOL     OW33899   1.898   1.414   0.223  0.3861  0.1898  0.1138
 8532SOL    HW233900   1.904   1.456   0.138  0.2826  3.8011  1.7220
 8532SOL    HW333901   1.988   1.411   0.255  0.1899  1.0093  0.7810
 8532SOL    MW433902   1.911   1.419   0.216 -0.3135 -0.6431  0.0451
 8533SOL     OW33903   2.710   2.221   0.172 -0.1147  0.1839  0.4394
 8533SOL    HW233904   2.629   2.271   0.165  0.1250  0.5394  0.1604
 8533SOL    HW333905   2.773   2.269   0.118  0.3810  0.1042  0.9414
 8533SOL    MW433906   2.708   2.234   0.164  0.0053  0.0153  0.1587
 8534SOL     OW33907   5.102   0.772   3.432 -0.3367 -0.2384 -0.0547
 8534SOL    HW233908   5.133   0.687   3.465 -0.0169  0.1918  0.7907
 8534SOL    HW333909   5.089   0.825   3.511  0.3644  0.7961 -0.6090
 8534SOL    MW433910   5.105   0.768   3.447  0.1426 -0.2544 -0.4843
 8535SOL     OW33911   5.087   3.224   1.093 -0.1567  0.7348  0.3163
 8535SOL    HW233912   5.037   3.143   1.098 -0.1273  0.7351  0.6103
 8535SOL    HW333913   5.161   3.211   1.153 -0.2410  1.0392  0.4883
 8535SOL    MW433914   5.090   3.212   1.101  0.2797 -0.0345  1.0205
 8536SOL     OW33915   2.959   0.750   1.068 -0.1497 -0.4955 -0.4771
 8536SOL    HW233916   3.000   0.834   1.088 -0.3511 -0.3131 -0.8167
 8536SOL    HW333917   3.025   0.685   1.090  0.8964 -0.1623 -2.3376
 8536SOL    MW433918   2.973   0.752   1.073 -0.1150  0.2086  0.2230
 8537SOL     OW33919   1.796   1.805   4.694  0.2727  0.0751  0.0237
 8537SOL    HW233920   1.796   1.829   4.601  0.6957  1.2229  0.2959
 8537SOL    HW333921   1.882   1.764   4.708  0.2596  0.0168 -0.0672
 8537SOL    MW433922   1.807   1.803   4.684  0.0251  0.6677 -0.1297
 8538SOL     OW33923   1.458   4.481   4.777  0.1189  0.6274  0.2589
 8538SOL    HW233924   1.504   4.551   4.731  1.2373  0.0915  0.5254
 8538SOL    HW333925   1.516   4.405   4.771 -0.6234 -0.0109  0.8153
 8538SOL    MW433926   1.472   4.480   4.770 -0.3907  0.2047 -0.4112
 8539SOL     OW33927   1.406   5.105   0.183 -0.3249  0.3215 -0.0691
 8539SOL    HW233928   1.363   5.024   0.209 -1.8834  1.3775  0.7701
 8539SOL    HW333929   1.476   5.116   0.247 -0.2637 -0.2255 -0.0355
 8539SOL    MW433930   1.410   5.096   0.195  0.4766 -0.1221 -0.2492
 8540SOL     OW33931   5.137   1.559   0.491 -0.8311 -0.3640  0.6133
 8540SOL    HW233932   5.195   1.635   0.496  0.7821 -1.3020 -1.8934
 8540SOL    HW333933   5.151   1.512   0.572  1.9671 -0.5184  0.1287
 8540SOL    MW433934   5.146   1.563   0.502 -0.1925  0.1812 -0.1813
 8541SOL     OW33935   0.815   1.742   4.946  0.1238  0.1789  0.0237
 8541SOL    HW233936   0.878   1.807   4.914  0.5628  0.6620  1.7309
 8541SOL    HW333937   0.744   1.743   4.882  1.5423  0.0809 -1.6232
 8541SOL    MW433938   0.814   1.751   4.933 -0.0084  0.3697  0.7630
 8542SOL     OW33939   2.161   0.511   0.926 -0.0929 -0.3921 -0.3207
 8542SOL    HW233940   2.221   0.579   0.957  1.8257 -1.5493 -1.3083
 8542SOL    HW333941   2.191   0.431   0.970 -2.1654 -0.7076  0.6616
 8542SOL    MW433942   2.173   0.509   0.936 -0.5061 -0.3732  0.2993
 8543SOL     OW33943   0.206   4.638   1.139  0.0860 -0.1257 -0.1272
 8543SOL    HW233944   0.278   4.701   1.144 -0.2540  0.4045 -1.5058
 8543SOL    HW333945   0.133   4.682   1.183  0.3758 -0.3711  0.6269
 8543SOL    MW433946   0.206   4.652   1.146 -0.4987 -0.1930  0.1917
 8544SOL     OW33947   0.947   0.899   3.376 -0.2016 -0.0159 -0.0986
 8544SOL    HW233948   0.939   0.917   3.469  1.1319  1.1060 -0.1617
 8544SOL    HW333949   0.961   0.985   3.336 -2.3947 -0.2563 -1.5594
 8544SOL    MW433950   0.948   0.913   3.383 -0.3988 -0.3292  0.4869
 8545SOL     OW33951   5.218   2.905   4.467  0.3161  0.0458  0.1426
 8545SOL    HW233952   5.180   2.919   4.554 -1.4318  0.1669 -0.5988
 8545SOL    HW333953   5.176   2.970   4.412  2.8384  1.2907 -0.4569
 8545SOL    MW433954   5.208   2.915   4.471 -0.1421 -0.1285 -0.2310
 8546SOL     OW33955   5.106   5.367   0.119  0.4992 -0.0446 -0.0684
 8546SOL    HW233956   5.065   5.313   0.051  0.1655  0.5795 -0.3690
 8546SOL    HW333957   5.177   5.313   0.153  1.0400 -0.1359 -1.3120
 8546SOL    MW433958   5.110   5.352   0.115  0.0955  0.7628  0.8986
 8547SOL     OW33959   4.902   0.411   0.339 -0.2064 -0.1677 -0.2230
 8547SOL    HW233960   4.830   0.355   0.310 -0.1680 -0.0851 -0.4840
 8547SOL    HW333961   4.898   0.408   0.434  0.3913 -1.3952 -0.2119
 8547SOL    MW433962   4.892   0.403   0.348 -0.1675  0.1170 -0.5986
 8548SOL     OW33963   2.721   2.519   2.238 -0.2026  0.6660 -0.5047
 8548SOL    HW233964   2.727   2.542   2.146  0.6538 -0.1435 -0.6682
 8548SOL    HW333965   2.636   2.554   2.267 -1.4245 -0.8454 -2.0979
 8548SOL    MW433966   2.711   2.527   2.230  0.3862  0.1923 -0.2610
 8549SOL     OW33967   1.453   4.464   4.117 -0.3196 -0.5583 -0.0143
 8549SOL    HW233968   1.407   4.398   4.065 -1.2252  0.3872 -0.4714
 8549SOL    HW333969   1.429   4.445   4.207 -0.9010 -0.6364 -0.1769
 8549SOL    MW433970   1.444   4.453   4.122  0.0687 -0.0609 -0.0688
 8550SOL     OW33971   4.726   3.422   5.695 -0.1944  0.0719 -0.7322
 8550SOL    HW233972   4.798   3.369   5.662  0.9272  0.9208  0.2298
 8550SOL    HW333973   4.713   3.489   5.628  0.2991  0.2404 -0.6666
 8550SOL    MW433974   4.734   3.424   5.682  0.4090 -0.2040  0.3858
 8551SOL     OW33975   0.724   1.076   2.970 -0.4246  1.0505  0.6969
 8551SOL    HW233976   0.701   1.028   3.050  1.3704 -0.3856  0.4126
 8551SOL    HW333977   0.812   1.109   2.987  0.3451 -0.0368 -0.9934
 8551SOL    MW433978   0.732   1.074   2.983 -0.8308 -0.6205  0.0932
 8552SOL     OW33979   1.509   2.748   1.691  0.4791  0.0852 -0.0457
 8552SOL    HW233980   1.458   2.781   1.617  0.5948  0.3107 -0.0246
 8552SOL    HW333981   1.589   2.713   1.652 -0.3820 -1.7991 -0.2772
 8552SOL    MW433982   1.513   2.747   1.676 -0.3516 -0.1005  0.2757
 8553SOL     OW33983   5.363   5.563   2.032 -0.8410 -0.0991 -0.1622
 8553SOL    HW233984   5.344   5.506   1.957  0.9771 -0.3761 -0.4709
 8553SOL    HW333985   5.377   5.502   2.105 -0.3999  0.0331 -0.1323
 8553SOL    MW433986   5.362   5.547   2.032  0.2343  0.3856 -0.0121
 8554SOL     OW33987   0.823   1.586   5.539  0.3858  0.3041  0.0498
 8554SOL    HW233988   0.812   1.646   5.465  2.0870 -0.8185 -1.1792
 8554SOL    HW333989   0.839   1.644   5.614  1.2191  1.4261 -0.9516
 8554SOL    MW433990   0.824   1.602   5.539  0.4282 -0.2250 -0.1926
 8555SOL     OW33991   2.951  -0.002   5.667 -0.3809  0.2411 -1.0519
 8555SOL    HW233992   3.035  -0.017   5.624  0.4334  1.5426 -0.0031
 8555SOL    HW333993   2.908   0.064   5.613  0.6046  1.8127  0.0027
 8555SOL    MW433994   2.956   0.005   5.654  0.4700 -0.1215  0.1836
 8556SOL     OW33995   1.223   5.494   1.367  0.0380 -0.4990 -0.2616
 8556SOL    HW233996   1.133   5.492   1.333 -0.5012  0.4588  0.9920
 8556SOL    HW333997   1.265   5.417   1.330 -1.8179 -1.9397  0.4979
 8556SOL    MW433998   1.216   5.484   1.358 -0.0443  0.3511  0.0417
 8557SOL     OW33999   1.118   3.704   5.755 -0.6359  0.3257  0.7498
 8557SOL    HW234000   1.139   3.692   5.663  0.0609  0.2923  0.9057
 8557SOL    HW334001   1.095   3.617   5.787  0.9847 -0.0203  1.0499
 8557SOL    MW434002   1.118   3.691   5.747 -0.2786  0.5315  0.0899
 8558SOL     OW34003   2.092   4.172   4.161  0.3887 -0.4859  0.2504
 8558SOL    HW234004   2.107   4.134   4.075  1.9152 -2.0527  1.1501
 8558SOL    HW334005   2.134   4.258   4.158 -1.6327  0.5278 -1.2697
 8558SOL    MW434006   2.099   4.178   4.149 -0.2515 -0.0157  0.2615
 8559SOL     OW34007   2.792   2.475   4.397  0.3240  0.3787  0.6935
 8559SOL    HW234008   2.714   2.430   4.366  0.3500  1.8523 -1.8084
 8559SOL    HW334009   2.764   2.521   4.476 -1.1649  0.3931  0.1782
 8559SOL    MW434010   2.778   2.475   4.403  0.4309 -0.3553  0.7563
 8560SOL     OW34011   5.203   5.115   5.098  0.0588  0.3586  0.2903
 8560SOL    HW234012   5.281   5.170   5.106  1.0379 -0.7257 -1.2394
 8560SOL    HW334013   5.179   5.120   5.006  0.1033 -1.6298  0.1197
 8560SOL    MW434014   5.210   5.123   5.087 -0.2500 -0.3290 -0.1563
 8561SOL     OW34015   1.412   4.422   4.414 -0.1831  0.1515 -0.1070
 8561SOL    HW234016   1.459   4.382   4.487  0.3104  0.2090 -0.3806
 8561SOL    HW334017   1.455   4.507   4.402 -2.2589  1.5206  1.5092
 8561SOL    MW434018   1.424   4.428   4.422 -0.3656 -0.5314 -0.1090
 8562SOL     OW34019   5.094   5.151   0.914 -0.3672 -0.0135  0.0183
 8562SOL    HW234020   5.082   5.146   0.820  1.0221  0.1169 -0.1851
 8562SOL    HW334021   5.174   5.202   0.926 -1.0372  0.8003  1.3047
 8562SOL    MW434022   5.103   5.157   0.903 -0.2452 -0.4705 -0.6366
 8563SOL     OW34023   1.313   2.188   4.581  0.1510 -0.2219 -0.1193
 8563SOL    HW234024   1.290   2.240   4.657  3.4066  0.6840  0.4183
 8563SOL    HW334025   1.320   2.251   4.509 -0.1597 -0.6177 -0.5002
 8563SOL    MW434026   1.311   2.203   4.582  0.1576 -0.0190 -0.3574
 8564SOL     OW34027   3.350   4.581   1.821  0.4295  0.5998  0.0390
 8564SOL    HW234028   3.443   4.593   1.843  0.4456  1.9294 -0.6459
 8564SOL    HW334029   3.308   4.564   1.905  1.3992 -0.9080  0.2642
 8564SOL    MW434030   3.357   4.580   1.835  0.0276  0.1736 -0.5227
 8565SOL     OW34031   5.915   5.985   3.246  0.2238 -0.4493 -0.0092
 8565SOL    HW234032   5.861   6.063   3.254  0.8651 -0.0396  0.4741
 8565SOL    HW334033   5.982   5.995   3.314  0.5733 -1.2083 -0.2267
 8565SOL    MW434034   5.917   5.996   3.256 -0.0285 -0.1568 -0.3638
 8566SOL     OW34035   2.029   0.126   4.212  0.5751 -0.0871 -0.2565
 8566SOL    HW234036   1.985   0.207   4.239  1.0195 -0.4050  1.5184
 8566SOL    HW334037   2.116   0.155   4.184  0.8074  0.0458  0.5784
 8566SOL    MW434038   2.035   0.141   4.211 -0.1941 -0.1764 -0.3856
 8567SOL     OW34039   3.937   0.416   3.930 -0.5222  0.0507 -0.1407
 8567SOL    HW234040   3.990   0.340   3.955  1.6836  1.7068  0.4566
 8567SOL    HW334041   3.919   0.462   4.012  1.6375  2.2862 -0.8137
 8567SOL    MW434042   3.941   0.412   3.944 -0.1050  0.2182 -0.0458
 8568SOL     OW34043   1.100   0.912   0.852  0.3057 -0.3431  0.6161
 8568SOL    HW234044   1.064   0.994   0.819 -0.7289 -1.2307 -0.5473
 8568SOL    HW334045   1.153   0.938   0.928  0.5075  1.4496 -0.0875
 8568SOL    MW434046   1.102   0.926   0.858  0.2784 -0.6660  0.1424
 8569SOL     OW34047   0.421   2.097   3.413  0.2011 -0.0865  0.0444
 8569SOL    HW234048   0.329   2.094   3.386  0.2335  2.5948 -0.6444
 8569SOL    HW334049   0.417   2.101   3.509 -0.4551  0.5926  0.0034
 8569SOL    MW434050   0.408   2.097   3.422 -0.2165  0.3576  0.8317
 8570SOL     OW34051   1.542   4.515   6.160  0.3549 -0.3595  0.2092
 8570SOL    HW234052   1.546   4.551   6.072  0.3803 -0.1322  0.3012
 8570SOL    HW334053   1.623   4.465   6.169  1.3048  1.1799  0.7617
 8570SOL    MW434054   1.553   4.513   6.150 -0.2095  0.0291  0.5012
 8571SOL     OW34055   0.434   3.956   4.661 -0.2117  0.1463 -0.0877
 8571SOL    HW234056   0.348   3.919   4.644  0.3015 -0.7423 -0.8902
 8571SOL    HW334057   0.451   4.013   4.587  0.2332 -0.3615 -0.3921
 8571SOL    MW434058   0.425   3.958   4.649 -0.5784  0.2851  0.6123
 8572SOL     OW34059   3.549   2.286   3.653 -0.5050 -0.4777 -0.0151
 8572SOL    HW234060   3.453   2.293   3.660 -0.4972 -0.2067 -0.1491
 8572SOL    HW334061   3.564   2.250   3.566 -0.5142 -1.4131  0.3576
 8572SOL    MW434062   3.538   2.282   3.643 -0.2174 -0.4180  0.5392
 8573SOL     OW34063   1.913   1.158   5.477  0.2651  0.1343  0.2088
 8573SOL    HW234064   1.924   1.128   5.387  3.1462 -0.4568  0.6609
 8573SOL    HW334065   1.955   1.244   5.479 -2.5695  1.6286  0.3497
 8573SOL    MW434066   1.920   1.165   5.465 -0.0645 -0.0186 -0.8005
 8574SOL     OW34067   0.409   0.750   6.204 -0.7748 -0.6995  0.3706
 8574SOL    HW234068   0.443   0.766   6.115  1.6217 -0.9407  1.1717
 8574SOL    HW334069   0.371   0.662   6.199 -1.6296 -0.2969 -0.6541
 8574SOL    MW434070   0.409   0.741   6.191  0.0027 -0.0101  0.0588
 8575SOL     OW34071   3.539   5.711   4.877  0.0706  0.0302 -0.2513
 8575SOL    HW234072   3.529   5.788   4.933  0.8341 -1.0609  1.4877
 8575SOL    HW334073   3.629   5.682   4.891 -0.3172 -1.4142 -0.5259
 8575SOL    MW434074   3.550   5.717   4.886 -0.0635 -0.2317 -0.5550
 8576SOL     OW34075   6.183   2.365   2.661  0.4212 -0.1880  0.3145
 8576SOL    HW234076   6.187   2.383   2.567 -0.3941 -1.1912  0.0630
 8576SOL    HW334077   6.234   2.434   2.701 -0.1453  0.9132 -0.7897
 8576SOL    MW434078   6.190   2.376   2.654  0.2731 -0.1897  0.6376
 8577SOL     OW34079   5.746   0.792   0.226 -0.0447  0.2153 -0.1890
 8577SOL    HW234080   5.698   0.872   0.205  0.7373  1.0535  1.0675
 8577SOL    HW334081   5.807   0.780   0.154 -0.7133  0.2924 -0.7776
 8577SOL    MW434082   5.748   0.801   0.214 -0.2945  0.6703 -0.0087
 8578SOL     OW34083   2.867   2.405  -0.013 -0.1825  0.3436  0.6055
 8578SOL    HW234084   2.823   2.392  -0.097 -0.1566 -0.4021  0.7064
 8578SOL    HW334085   2.816   2.473   0.030 -0.2405  0.6825  0.0212
 8578SOL    MW434086   2.855   2.412  -0.019 -0.2201 -0.5647  0.0330
 8579SOL     OW34087   1.977   5.296   1.290  0.3454 -0.9076  0.1222
 8579SOL    HW234088   2.020   5.211   1.297 -0.6059 -1.3342  1.1307
 8579SOL    HW334089   2.023   5.341   1.220  0.7326 -2.3317 -0.5668
 8579SOL    MW434090   1.988   5.291   1.282 -0.9698  0.2045 -0.1025
 8580SOL     OW34091   0.332   5.836   2.107 -0.4998  0.2960  0.5113
 8580SOL    HW234092   0.246   5.796   2.116  0.5449 -2.1345  0.6421
 8580SOL    HW334093   0.351   5.832   2.013 -0.5968  0.9864  0.4600
 8580SOL    MW434094   0.323   5.830   2.096  0.0112  0.5063 -0.5348
 8581SOL     OW34095   2.001   4.848   5.547 -0.2217 -0.5887  0.0935
 8581SOL    HW234096   1.941   4.786   5.506  0.3472  0.2791 -2.2129
 8581SOL    HW334097   2.079   4.797   5.568  0.0423 -0.7991 -1.3132
 8581SOL    MW434098   2.003   4.833   5.545  0.2301 -0.1775  0.4905
 8582SOL     OW34099   3.922   5.494   5.355  0.1389 -0.4349 -0.2396
 8582SOL    HW234100   3.908   5.579   5.396 -2.6852 -1.6064  1.5510
 8582SOL    HW334101   3.871   5.498   5.274 -1.1459 -0.7871  0.5128
 8582SOL    MW434102   3.913   5.506   5.350 -0.0638  0.1806  0.1710
 8583SOL     OW34103   4.590   3.273   2.499 -0.1955  0.8554 -0.1243
 8583SOL    HW234104   4.610   3.357   2.538 -0.5694  1.4799 -1.2216
 8583SOL    HW334105   4.496   3.277   2.480 -0.1577  0.3104 -0.4517
 8583SOL    MW434106   4.580   3.284   2.501  0.1058 -0.4158  0.0993
 8584SOL     OW34107   5.705   5.507   0.182  0.2701 -0.5939 -0.0327
 8584SOL    HW234108   5.698   5.412   0.172 -1.0528 -0.7019  1.5799
 8584SOL    HW334109   5.665   5.542   0.102  2.8540 -1.3198 -1.7835
 8584SOL    MW434110   5.699   5.499   0.170 -0.0661 -0.0031  0.0282
 8585SOL     OW34111   1.741   5.801   2.322  0.5719 -0.1604  0.1080
 8585SOL    HW234112   1.776   5.736   2.262  1.4922 -0.6214  1.1269
 8585SOL    HW334113   1.756   5.885   2.278  0.4696 -0.5487 -0.6725
 8585SOL    MW434114   1.747   5.804   2.308 -0.1938 -0.2336  0.1253
 8586SOL     OW34115   3.668   0.714   2.660  0.3053 -0.1488  0.7577
 8586SOL    HW234116   3.751   0.691   2.702 -0.0872 -0.6332  1.2879
 8586SOL    HW334117   3.693   0.776   2.591  1.5121 -2.6033 -1.1902
 8586SOL    MW434118   3.683   0.719   2.657  0.0500 -0.4741  0.5414
 8587SOL     OW34119   5.464   0.406   6.154  0.8706 -0.3329  0.2417
 8587SOL    HW234120   5.530   0.445   6.096  0.0034  0.7810 -0.0354
 8587SOL    HW334121   5.486   0.441   6.241  1.4573 -1.0578  0.3932
 8587SOL    MW434122   5.476   0.416   6.158 -0.6129 -0.0577 -0.1686
 8588SOL     OW34123   5.158   5.107   1.901  0.1718  0.1733  0.3005
 8588SOL    HW234124   5.099   5.042   1.940  1.3395 -1.2608 -0.2420
 8588SOL    HW334125   5.204   5.059   1.832  1.8346  1.2798  0.5907
 8588SOL    MW434126   5.156   5.092   1.897  0.1104  0.2898  0.0385
 8589SOL     OW34127   3.472   3.425   6.379 -0.3163  0.4789  0.1269
 8589SOL    HW234128   3.464   3.330   6.392  0.2964  0.1132 -1.8533
 8589SOL    HW334129   3.389   3.451   6.340  0.2453  0.3702 -1.1920
 8589SOL    MW434130   3.460   3.416   6.376 -0.5359  0.3084  0.0971
 8590SOL     OW34131   3.838   2.363   3.389  0.2284  0.4261  0.2589
 8590SOL    HW234132   3.759   2.309   3.393  1.8078 -1.9767  1.1149
 8590SOL    HW334133   3.862   2.378   3.480  0.1489  2.2148  0.0335
 8590SOL    MW434134   3.831   2.358   3.401 -0.2149  0.3011 -0.1389
 8591SOL     OW34135   2.193   1.601   5.324 -0.1362 -0.4715 -0.3387
 8591SOL    HW234136   2.224   1.689   5.347  1.7387 -0.6874 -1.7901
 8591SOL    HW334137   2.137   1.614   5.248  1.0344 -0.5802 -1.2571
 8591SOL    MW434138   2.190   1.615   5.317 -0.1422 -0.4702  0.1546
 8592SOL     OW34139   2.069   5.088   2.470  0.0459 -0.6189  0.1474
 8592SOL    HW234140   2.043   5.173   2.434  3.6707  0.0930 -1.2214
 8592SOL    HW334141   2.112   5.109   2.553 -0.2455 -1.2937  0.4778
 8592SOL    MW434142   2.072   5.102   2.476 -1.0042 -0.1680 -0.1856
 8593SOL     OW34143   5.062   0.793   4.603  0.7979  0.2371  0.1578
 8593SOL    HW234144   5.066   0.817   4.696  2.7920  2.0261 -0.3118
 8593SOL    HW334145   4.972   0.813   4.577  0.0573 -0.7664  1.7791
 8593SOL    MW434146   5.051   0.799   4.612 -0.1716  0.5189  0.1157
 8594SOL     OW34147   0.308   0.887   1.637 -0.0878  0.1312 -0.1624
 8594SOL    HW234148   0.261   0.930   1.565 -1.1083 -0.1985  0.3018
 8594SOL    HW334149   0.399   0.913   1.624 -0.3141  0.3822 -1.3603
 8594SOL    MW434150   0.314   0.896   1.626 -0.0963 -1.0341 -0.0260
 8595SOL     OW34151   2.055   1.854   0.134 -0.1188  0.1575  0.3467
 8595SOL    HW234152   2.105   1.786   0.177  1.4628  0.6476 -0.6397
 8595SOL    HW334153   1.966   1.818   0.127 -0.5859  0.1755  4.1958
 8595SOL    MW434154   2.050   1.841   0.138  0.1921 -0.7050 -0.6565
 8596SOL     OW34155   1.338   4.836   0.278 -0.4157 -0.2060  0.0109
 8596SOL    HW234156   1.329   4.839   0.374 -0.0254 -0.2594  0.0523
 8596SOL    HW334157   1.395   4.760   0.263 -1.0277 -0.6112 -0.3067
 8596SOL    MW434158   1.344   4.826   0.289  0.4078  0.0291  0.3910
 8597SOL     OW34159   4.012   5.152   0.890  0.2207 -0.1662  0.2861
 8597SOL    HW234160   4.022   5.063   0.923  1.4235 -0.5264 -0.9688
 8597SOL    HW334161   4.002   5.142   0.796  0.7430  1.0289  0.0863
 8597SOL    MW434162   4.012   5.139   0.882  0.0270  0.1447  0.6256
 8598SOL     OW34163   3.103   6.361   0.520  0.0084 -0.4226  0.5353
 8598SOL    HW234164   3.107   6.274   0.559  0.3410 -0.6814 -0.0723
 8598SOL    HW334165   3.173   6.361   0.454 -0.8747 -0.1646 -0.4178
 8598SOL    MW434166   3.113   6.350   0.516  0.6621 -0.0015 -0.6524
 8599SOL     OW34167   0.957   3.926   1.177 -0.2257 -0.0243  0.3321
 8599SOL    HW234168   1.033   3.968   1.137  0.3955 -0.6838  0.7990
 8599SOL    HW334169   0.913   3.881   1.104  0.9262 -1.2575  0.3521
 8599SOL    MW434170   0.961   3.925   1.162 -0.2161 -0.2617  0.1531
 8600SOL     OW34171   2.607   0.655   4.165  0.0904 -0.0980  0.1320
 8600SOL    HW234172   2.641   0.733   4.121 -0.2427  0.4160  0.7581
 8600SOL    HW334173   2.589   0.593   4.095  0.8084  0.2103 -0.3404
 8600SOL    MW434174   2.609   0.657   4.150 -0.8607 -0.0576  0.1548
 8601SOL     OW34175   6.150   6.262   3.960  0.6061  0.7772  0.0318
 8601SOL    HW234176   6.217   6.323   3.930  0.5662 -0.0254 -1.8469
 8601SOL    HW334177   6.089   6.254   3.886  1.2899 -2.4212 -0.3481
 8601SOL    MW434178   6.151   6.269   3.946 -0.1895 -0.0763 -0.0440
 8602SOL     OW34179   4.974   3.385   2.372 -0.2975  0.0677  0.2018
 8602SOL    HW234180   5.019   3.465   2.344  1.8502 -1.3402 -0.6034
 8602SOL    HW334181   4.885   3.395   2.338 -0.3118  2.4070  0.7591
 8602SOL    MW434182   4.968   3.397   2.364 -0.2387  0.1238  0.1640
 8603SOL     OW34183   6.150   4.144   2.081  0.0291 -0.1642 -0.8192
 8603SOL    HW234184   6.121   4.122   1.993 -1.0796 -1.6537 -0.1267
 8603SOL    HW334185   6.219   4.209   2.068 -1.2637  0.9349 -2.6884
 8603SOL    MW434186   6.155   4.149   2.068  0.1727  0.0031  0.4093
 8604SOL     OW34187   2.595   0.205   2.821  0.2006 -0.3305  0.0467
 8604SOL    HW234188   2.513   0.175   2.781  0.3630 -0.3214 -0.2995
 8604SOL    HW334189   2.654   0.130   2.811  0.9430  0.4425 -1.7861
 8604SOL    MW434190   2.592   0.191   2.814 -0.1001 -0.3227 -0.0925
 8605SOL     OW34191   3.419   3.842   4.048  0.1115 -0.0033 -0.0462
 8605SOL    HW234192   3.351   3.895   4.007  1.5203 -0.4329 -3.3378
 8605SOL    HW334193   3.495   3.854   3.990  1.2567 -3.4944  0.5219
 8605SOL    MW434194   3.420   3.851   4.035  0.3422  0.5725  0.4043
 8606SOL     OW34195   6.037   3.306   5.562 -0.2606 -0.7626  0.1358
 8606SOL    HW234196   6.061   3.295   5.654 -0.2502 -3.4444 -0.0984
 8606SOL    HW334197   6.005   3.220   5.535 -0.7279  0.0711 -2.2602
 8606SOL    MW434198   6.036   3.293   5.571 -0.0708  0.1968 -0.0226
 8607SOL     OW34199   4.559   3.966   3.706  0.2755 -0.1416 -0.0246
 8607SOL    HW234200   4.543   4.060   3.703 -0.2864 -0.2386 -2.6285
 8607SOL    HW334201   4.539   3.941   3.796  0.6753  2.2455  0.7841
 8607SOL    MW434202   4.554   3.975   3.717 -0.0549 -0.6622  0.2230
 8608SOL     OW34203   2.102   3.570   1.627  0.3358 -0.3620 -0.3753
 8608SOL    HW234204   2.039   3.541   1.561 -0.7200  2.7065 -0.8816
 8608SOL    HW334205   2.178   3.598   1.576 -0.0093  0.8725 -0.2550
 8608SOL    MW434206   2.104   3.570   1.611  0.8282  0.0534 -0.4112
 8609SOL     OW34207   5.011   2.961   5.507 -0.2888 -0.3372 -0.8303
 8609SOL    HW234208   4.940   2.943   5.445 -3.0116  2.1522  1.2813
 8609SOL    HW334209   5.002   3.054   5.528  0.8591 -0.8841  2.7704
 8609SOL    MW434210   5.001   2.971   5.502 -0.6927  0.1944 -0.0105
 8610SOL     OW34211   6.029   1.255   6.186 -0.0452 -0.5186 -0.4522
 8610SOL    HW234212   5.942   1.226   6.159 -0.1175 -1.3880  0.6156
 8610SOL    HW334213   6.023   1.262   6.281  1.2705 -1.3933 -0.2748
 8610SOL    MW434214   6.017   1.252   6.195 -0.0940 -0.5361  0.3976
 8611SOL     OW34215   5.319   3.873   2.022 -0.0940  0.2868 -0.2710
 8611SOL    HW234216   5.259   3.812   1.979 -0.7461  0.9465 -0.3239
 8611SOL    HW334217   5.348   3.932   1.953  0.9545 -0.2777 -0.3270
 8611SOL    MW434218   5.315   3.873   2.007 -0.4121  0.5529  0.2407
 8612SOL     OW34219   5.091   3.452   0.323 -0.1504 -0.1235 -0.4268
 8612SOL    HW234220   5.172   3.473   0.371 -0.6751  0.9484  0.0234
 8612SOL    HW334221   5.093   3.509   0.247  0.1675 -1.0821 -1.1588
 8612SOL    MW434222   5.102   3.462   0.319  0.2478  0.3472  0.2769
 8613SOL     OW34223   0.337   1.305   0.091  0.1813  0.2090 -0.3220
 8613SOL    HW234224   0.316   1.217   0.121  1.7969 -0.4580 -1.0050
 8613SOL    HW334225   0.256   1.339   0.055 -0.2966 -1.2818 -0.7039
 8613SOL    MW434226   0.324   1.298   0.090  0.1114 -0.1425  0.6114
 8614SOL     OW34227   4.228   1.137   2.453  0.3410  0.2495  0.2315
 8614SOL    HW234228   4.140   1.108   2.429  0.9311 -0.4629 -1.1782
 8614SOL    HW334229   4.253   1.198   2.384  0.4336  1.5311  1.3726
 8614SOL    MW434230   4.220   1.141   2.441 -0.3041  0.8181  0.3790
 8615SOL     OW34231   4.614   1.121   2.275 -0.6727 -0.1996  0.3090
 8615SOL    HW234232   4.604   1.133   2.370 -2.2444 -0.5624  0.2120
 8615SOL    HW334233   4.641   1.207   2.243 -1.0761  0.1807  0.9668
 8615SOL    MW434234   4.616   1.134   2.283 -0.1785 -0.0979  0.2873
 8616SOL     OW34235   1.013   3.482   0.430 -0.4868  0.2790  0.5556
 8616SOL    HW234236   1.081   3.519   0.485  0.2055  1.7208 -1.1775
 8616SOL    HW334237   0.939   3.467   0.489  0.7861  0.1219  2.1668
 8616SOL    MW434238   1.012   3.485   0.445  0.2770 -0.1046  1.0377
 8617SOL     OW34239   3.782   1.544   2.250  0.2050 -0.4499 -0.3096
 8617SOL    HW234240   3.704   1.506   2.289 -0.9606  2.5141  0.5783
 8617SOL    HW334241   3.760   1.557   2.158 -0.1722 -0.1293 -0.1774
 8617SOL    MW434242   3.769   1.541   2.243  0.5419  0.1896 -1.1375
 8618SOL     OW34243   2.676   1.436   3.074  0.1003  0.6637  0.0144
 8618SOL    HW234244   2.644   1.353   3.109 -2.0838  1.2476 -0.4019
 8618SOL    HW334245   2.725   1.411   2.995  1.0965 -0.3177  0.9021
 8618SOL    MW434246   2.678   1.422   3.068 -0.1345 -0.0672 -0.0120
 8619SOL     OW34247   1.028   2.872   1.132  0.0693  0.0441  0.5191
 8619SOL    HW234248   0.966   2.823   1.185 -0.7204 -0.4788 -0.8247
 8619SOL    HW334249   0.973   2.923   1.072  0.9196  0.4524  0.0639
 8619SOL    MW434250   1.012   2.872   1.131  0.3206 -0.3195  0.0196
 8620SOL     OW34251   1.874   6.310   2.910 -0.4388  0.0035 -0.0362
 8620SOL    HW234252   1.809   6.379   2.919 -2.4754 -1.9496  1.5771
 8620SOL    HW334253   1.939   6.329   2.978  0.2288  1.4557 -1.0382
 8620SOL    MW434254   1.874   6.321   2.920 -0.4039  0.0896 -0.5550
 8621SOL     OW34255   4.609   1.849   3.001  0.2061 -0.1489  0.2821
 8621SOL    HW234256   4.524   1.861   2.960 -0.7949 -0.4166  2.1811
 8621SOL    HW334257   4.646   1.937   3.005  0.1795 -0.0751 -0.8444
 8621SOL    MW434258   4.603   1.862   2.996 -0.5134 -0.3758 -0.4061
 8622SOL     OW34259   2.706   5.266   6.145  0.3362  0.5548  0.0898
 8622SOL    HW234260   2.764   5.233   6.214  1.6552  1.8750 -0.3235
 8622SOL    HW334261   2.730   5.215   6.068  2.0776  2.0601 -0.4459
 8622SOL    MW434262   2.717   5.255   6.144 -0.3266  0.0491 -0.3578
 8623SOL     OW34263   1.169   3.219   4.695  0.5078  0.3869 -0.0081
 8623SOL    HW234264   1.234   3.259   4.637 -0.6052  0.2241 -1.4222
 8623SOL    HW334265   1.088   3.265   4.676  0.5150  2.0461  3.2467
 8623SOL    MW434266   1.167   3.230   4.685  0.1907  0.7423 -0.1658
 8624SOL     OW34267   0.880   4.156   1.703 -0.5025 -0.2957  0.1925
 8624SOL    HW234268   0.825   4.158   1.782  0.3785 -0.7239  0.8302
 8624SOL    HW334269   0.846   4.083   1.652  0.6158 -1.7362  1.4438
 8624SOL    MW434270   0.868   4.147   1.707  0.3886 -0.3739 -0.0932
 8625SOL     OW34271   5.237   3.201   3.988 -0.2529  0.2631 -0.1996
 8625SOL    HW234272   5.223   3.151   3.907  2.4721  0.0113 -0.6123
 8625SOL    HW334273   5.320   3.246   3.974 -1.9981  4.1351  0.5984
 8625SOL    MW434274   5.246   3.200   3.975 -0.3585 -0.1105 -0.5475
 8626SOL     OW34275   0.973   4.046   3.584  0.1184 -0.0574 -0.2191
 8626SOL    HW234276   1.064   4.074   3.571  0.3886 -1.5505 -2.0174
 8626SOL    HW334277   0.975   3.951   3.570 -1.8729  0.0014 -1.2582
 8626SOL    MW434278   0.985   4.037   3.581  0.1787 -0.3623 -0.2501
 8627SOL     OW34279   4.635   2.843   4.928 -0.1671 -0.3680  0.0205
 8627SOL    HW234280   4.546   2.825   4.957 -0.0144 -1.6725 -0.2820
 8627SOL    HW334281   4.634   2.821   4.834  0.6330 -1.0240  0.1577
 8627SOL    MW434282   4.623   2.838   4.919 -0.4888 -0.1088  0.1143
 8628SOL     OW34283   2.423   0.027   6.216  0.3747 -0.2611 -0.2083
 8628SOL    HW234284   2.455  -0.018   6.138 -0.3109 -0.3315 -0.4604
 8628SOL    HW334285   2.411   0.118   6.188  2.6441  0.3279  0.5527
 8628SOL    MW434286   2.425   0.033   6.202  0.7710  0.1529 -0.7463
 8629SOL     OW34287   2.561   2.294   2.073  0.6245  0.2312  0.0895
 8629SOL    HW234288   2.638   2.252   2.034  0.3875  0.0002 -0.1329
 8629SOL    HW334289   2.597   2.366   2.126  0.9263  0.8199 -0.8928
 8629SOL    MW434290   2.576   2.298   2.075 -0.2360  0.9318 -0.0001
 8630SOL     OW34291   4.175   4.711   2.840 -0.1438  0.3873 -0.0551
 8630SOL    HW234292   4.094   4.690   2.793  0.0685  1.0381 -0.7282
 8630SOL    HW334293   4.146   4.767   2.912 -0.4049 -0.1893  0.3027
 8630SOL    MW434294   4.160   4.715   2.844 -0.1872 -0.0931 -0.1407
 8631SOL     OW34295   3.869   1.235   4.673  0.0865  0.3446 -0.3178
 8631SOL    HW234296   3.855   1.153   4.721  0.2891  0.6127  0.2083
 8631SOL    HW334297   3.936   1.281   4.724  0.6868  0.4056 -1.1469
 8631SOL    MW434298   3.876   1.230   4.686 -0.1612 -0.1096 -0.0334
 8632SOL     OW34299   5.948   2.374   6.130 -0.1093 -0.1456 -0.4206
 8632SOL    HW234300   6.021   2.436   6.133 -0.7648  0.6275  0.5122
 8632SOL    HW334301   5.987   2.291   6.102  1.6210 -0.4060  2.3396
 8632SOL    MW434302   5.963   2.371   6.127 -0.1659  0.2460 -0.1223
 8633SOL     OW34303   3.463   2.974   4.498 -0.0273  0.0166  0.3906
 8633SOL    HW234304   3.543   2.960   4.447  0.4624  0.1741  1.0972
 8633SOL    HW334305   3.469   2.912   4.570 -0.5022  0.0954  0.5023
 8633SOL    MW434306   3.474   2.964   4.501  0.4704  0.1478 -0.1508
 8634SOL     OW34307   4.987   1.858   0.692  0.0153  0.0494  0.2866
 8634SOL    HW234308   4.998   1.947   0.727 -0.5476 -0.4849  1.9519
 8634SOL    HW334309   5.076   1.831   0.668  0.6751  0.0776  2.4263
 8634SOL    MW434310   5.000   1.866   0.694  0.1956  0.2640  0.0072
 8635SOL     OW34311   1.079   3.393   2.791  0.1875  0.3205 -0.3750
 8635SOL    HW234312   1.130   3.333   2.844 -0.7063 -0.8849 -0.8334
 8635SOL    HW334313   1.127   3.476   2.795  0.2568  0.2505  2.1533
 8635SOL    MW434314   1.092   3.396   2.799 -0.4167  0.1225 -0.5291
 8636SOL     OW34315   1.048   1.759   0.305 -0.2311  0.2626 -0.3127
 8636SOL    HW234316   0.966   1.804   0.285 -0.4648 -0.0849 -0.1565
 8636SOL    HW334317   1.039   1.733   0.397 -0.9709 -1.8642 -0.9182
 8636SOL    MW434318   1.036   1.762   0.315 -0.6004 -0.6184  0.3900
 8637SOL     OW34319   3.200   3.993   4.916 -0.2667  0.1513  0.1599
 8637SOL    HW234320   3.289   3.993   4.881 -1.2699 -1.0171 -2.6908
 8637SOL    HW334321   3.205   3.940   4.995  1.4919 -0.1573 -0.1265
 8637SOL    MW434322   3.212   3.986   4.922 -0.1443  0.1998 -0.8191
 8638SOL     OW34323   1.493   3.422   4.193 -0.4181 -0.2377 -0.0134
 8638SOL    HW234324   1.556   3.433   4.264  0.1367 -0.9579 -0.3721
 8638SOL    HW334325   1.468   3.329   4.197 -0.8013 -0.1567 -0.4110
 8638SOL    MW434326   1.498   3.411   4.203 -0.6234  0.0269 -0.0813
 8639SOL     OW34327   2.659   3.956   5.424 -0.0926 -0.3686  0.1831
 8639SOL    HW234328   2.633   3.955   5.516  1.1269 -1.6870  0.5551
 8639SOL    HW334329   2.595   3.899   5.381  0.0558 -0.7372  0.4448
 8639SOL    MW434330   2.647   3.948   5.431  0.2415  0.6634 -0.1654
 8640SOL     OW34331   0.918   0.413   4.975 -0.1496  0.7895 -0.5246
 8640SOL    HW234332   0.866   0.429   5.054  1.0728 -1.0998  0.7364
 8640SOL    HW334333   0.982   0.483   4.973 -0.3841  1.0230 -0.0192
 8640SOL    MW434334   0.919   0.424   4.985 -0.3724  0.1668 -0.3331
 8641SOL     OW34335   4.557   1.156   5.434 -0.3814  0.0307 -0.3581
 8641SOL    HW234336   4.637   1.191   5.393 -0.0518 -0.6735 -0.3275
 8641SOL    HW334337   4.573   1.165   5.528 -0.1097 -0.5893 -0.3390
 8641SOL    MW434338   4.570   1.162   5.441 -0.0769  0.1154  0.0442
 8642SOL     OW34339   3.013   0.669   2.184 -0.0863  0.0278  0.1989
 8642SOL    HW234340   3.050   0.749   2.220 -0.5660  0.9337 -1.2412
 8642SOL    HW334341   3.078   0.639   2.121 -0.8439  0.5137 -0.8562
 8642SOL    MW434342   3.026   0.675   2.181 -0.4432 -0.0477  0.0894
 8643SOL     OW34343   0.759   3.283   2.430  0.0736  0.1667  0.0411
 8643SOL    HW234344   0.688   3.325   2.477 -0.0009  0.5631 -0.4202
 8643SOL    HW334345   0.729   3.280   2.339  1.1857  1.5341 -0.4017
 8643SOL    MW434346   0.746   3.288   2.424  0.1928 -0.4983 -0.1924
 8644SOL     OW34347   0.532   5.138   4.434 -0.3105 -0.5309 -0.1634
 8644SOL    HW234348   0.515   5.213   4.377  0.1483 -0.6335 -0.4358
 8644SOL    HW334349   0.465   5.145   4.503 -0.6475 -0.2145 -0.5173
 8644SOL    MW434350   0.521   5.149   4.436 -0.1680  0.2004 -0.6992
 8645SOL     OW34351   6.237   5.035   5.463 -0.0424 -0.4449  0.0374
 8645SOL    HW234352   6.179   5.081   5.402  0.4672 -1.0340 -0.9351
 8645SOL    HW334353   6.276   5.104   5.516 -1.3169 -0.0098  0.4466
 8645SOL    MW434354   6.235   5.050   5.462  0.1573 -0.1486 -0.4205
 8646SOL     OW34355   1.976   2.895   2.013  0.1528 -0.3733 -0.4460
 8646SOL    HW234356   1.900   2.837   2.020  0.6764 -0.9062  1.0675
 8646SOL    HW334357   2.011   2.877   1.926 -0.2367 -1.6632 -0.3587
 8646SOL    MW434358   1.970   2.885   2.002 -0.6469 -0.0753  0.8046
 8647SOL     OW34359   0.072   1.775   2.415 -0.3670 -0.1246 -0.0018
 8647SOL    HW234360  -0.014   1.775   2.372  0.0414 -0.6883 -0.8508
 8647SOL    HW334361   0.134   1.762   2.344  0.5648  1.8802  0.3830
 8647SOL    MW434362   0.069   1.773   2.400 -0.8132  0.5146 -0.5942
 8648SOL     OW34363   5.887   2.837   6.092 -0.2002  0.0674  0.2744
 8648SOL    HW234364   5.847   2.799   6.014 -0.8132  1.0651  0.0944
 8648SOL    HW334365   5.816   2.842   6.156  0.0311  0.3254  0.5129
 8648SOL    MW434366   5.873   2.833   6.090  0.5467 -0.2753 -0.4537
 8649SOL     OW34367   3.940   3.512   3.960  0.3124  0.1440  0.0240
 8649SOL    HW234368   3.913   3.444   4.023 -0.0143  0.6077  0.3880
 8649SOL    HW334369   3.998   3.466   3.899 -0.4588 -0.6353 -0.1482
 8649SOL    MW434370   3.944   3.497   3.960  0.4236  0.1281 -0.6692
 8650SOL     OW34371   6.225   1.891   0.501 -0.2045  0.0363  0.0949
 8650SOL    HW234372   6.311   1.922   0.472 -0.0932 -0.2497  0.1168
 8650SOL    HW334373   6.164   1.955   0.466 -0.2394 -1.0712 -2.1021
 8650SOL    MW434374   6.229   1.903   0.492 -0.4101  0.1574 -0.4377
 8651SOL     OW34375   4.664   0.496   4.139 -0.2123 -0.3775  0.0545
 8651SOL    HW234376   4.729   0.430   4.115  0.2042  0.4650 -1.3333
 8651SOL    HW334377   4.716   0.565   4.181 -0.4111 -0.2716  0.1233
 8651SOL    MW434378   4.680   0.497   4.141  0.1076 -0.3520 -0.0411
 8652SOL     OW34379   3.254   0.010   1.615 -0.2624  0.3355  0.1154
 8652SOL    HW234380   3.210  -0.011   1.698  0.5375  1.4661  0.8623
 8652SOL    HW334381   3.341  -0.030   1.624  0.1730  1.2782  0.2612
 8652SOL    MW434382   3.260   0.002   1.627  0.6388 -0.2210 -0.2622
 8653SOL     OW34383   5.135   4.949   1.254 -0.3259  0.3541 -0.4409
 8653SOL    HW234384   5.158   4.974   1.344 -0.3226  0.5849 -0.5049
 8653SOL    HW334385   5.197   4.997   1.199 -1.1641  1.2390 -0.6366
 8653SOL    MW434386   5.146   4.959   1.258  0.3541 -0.6891  0.3270
 8654SOL     OW34387   6.372   2.102   2.987 -0.8947 -0.2615 -0.2648
 8654SOL    HW234388   6.404   2.118   2.898 -1.2167  0.0440 -0.3271
 8654SOL    HW334389   6.405   2.015   3.009 -0.5729 -0.2181 -0.5746
 8654SOL    MW434390   6.381   2.092   2.978  0.0096  0.1534 -0.5288
 8655SOL     OW34391   1.893   0.442   0.879  0.7027 -0.3187 -0.2475
 8655SOL    HW234392   1.822   0.486   0.926 -0.5183 -2.8762  0.4962
 8655SOL    HW334393   1.973   0.485   0.909 -0.1759 -0.5305  2.6920
 8655SOL    MW434394   1.894   0.453   0.889 -0.4596  0.4067  0.1500
 8656SOL     OW34395   0.561   3.711   4.493  0.3090  0.2060 -0.2637
 8656SOL    HW234396   0.542   3.687   4.584 -0.3491 -1.3425 -0.7739
 8656SOL    HW334397   0.491   3.772   4.469 -1.1667 -1.5160 -0.5431
 8656SOL    MW434398   0.549   3.716   4.502 -0.4753  0.3547 -0.4245
 8657SOL     OW34399   3.390   4.437   5.604 -0.2160 -0.6043 -0.4498
 8657SOL    HW234400   3.330   4.447   5.678 -0.5571 -0.4679 -0.7440
 8657SOL    HW334401   3.346   4.481   5.531 -0.1857 -1.2987 -0.9012
 8657SOL    MW434402   3.376   4.444   5.604  0.0815  0.4885 -0.0383
 8658SOL     OW34403   5.126   5.292   5.508 -0.6896  0.4070  0.3724
 8658SOL    HW234404   5.119   5.199   5.487 -0.0399  0.0033  1.8258
 8658SOL    HW334405   5.071   5.303   5.587  0.1473  1.0096  0.8865
 8658SOL    MW434406   5.118   5.281   5.516 -0.1914 -0.1320 -0.1683
 8659SOL     OW34407   2.399   4.865   4.999  0.1154  0.1186 -0.1214
 8659SOL    HW234408   2.429   4.913   4.921 -0.0735 -0.7642 -0.7517
 8659SOL    HW334409   2.306   4.848   4.982 -0.5595  1.9617  1.3670
 8659SOL    MW434410   2.391   4.869   4.986  0.2637  0.2191  0.4574
 8660SOL     OW34411   0.821   1.096   2.674 -0.0333  0.1137 -0.5598
 8660SOL    HW234412   0.830   1.006   2.706 -1.5241 -0.2001 -0.9461
 8660SOL    HW334413   0.737   1.125   2.708  0.1893  1.1848 -0.8906
 8660SOL    MW434414   0.811   1.088   2.683 -0.7313  0.1321 -0.2689
 8661SOL     OW34415   2.281   1.978   2.439 -0.3900 -0.4589  0.4006
 8661SOL    HW234416   2.327   1.897   2.418  1.9857  0.2315  2.3729
 8661SOL    HW334417   2.328   2.046   2.391 -0.1005  0.1195  1.4545
 8661SOL    MW434418   2.293   1.976   2.430 -0.0763  0.2523  0.1937
 8662SOL     OW34419   0.203   1.937   0.717 -0.5455 -0.3536 -0.4772
 8662SOL    HW234420   0.137   1.992   0.760 -0.7313 -0.1522 -1.0105
 8662SOL    HW334421   0.273   1.997   0.694 -0.0242 -0.6200  0.3638
 8662SOL    MW434422   0.203   1.952   0.719  0.3123 -0.0832  0.0419
 8663SOL     OW34423   1.410   2.344   3.693  0.0080 -0.3088 -0.2525
 8663SOL    HW234424   1.382   2.306   3.776 -0.2851 -1.7407 -0.9727
 8663SOL    HW334425   1.353   2.421   3.682  1.9063  1.5979  2.1467
 8663SOL    MW434426   1.398   2.349   3.702 -0.0170  0.5461  0.4726
 8664SOL     OW34427   3.177   1.136   5.390 -0.6606 -0.4237 -0.3484
 8664SOL    HW234428   3.232   1.076   5.340  2.9865  1.2826  1.2777
 8664SOL    HW334429   3.141   1.083   5.461  0.5631 -1.2516 -0.3128
 8664SOL    MW434430   3.179   1.121   5.393 -0.1527 -0.0316 -0.0249
 8665SOL     OW34431   3.665   3.490   2.042  0.2260  0.2904  0.7354
 8665SOL    HW234432   3.702   3.402   2.054  0.4576  0.3007  0.1518
 8665SOL    HW334433   3.672   3.506   1.948  0.7612  1.1815  0.9160
 8665SOL    MW434434   3.671   3.481   2.031  0.3119 -0.1838  0.3098
 8666SOL     OW34435   5.673   2.080   3.801 -0.2058 -0.0166 -0.0036
 8666SOL    HW234436   5.627   2.047   3.878 -1.9706  2.6242  0.1708
 8666SOL    HW334437   5.752   2.121   3.836  0.0867 -0.7006  0.1508
 8666SOL    MW434438   5.678   2.081   3.816 -0.3786 -0.4733  0.1345
 8667SOL     OW34439   0.118   1.559   0.878 -0.3415  0.2704  0.3105
 8667SOL    HW234440   0.113   1.628   0.945  0.6606  0.3298  0.3361
 8667SOL    HW334441   0.165   1.600   0.805  1.0391 -0.6339  0.6628
 8667SOL    MW434442   0.124   1.574   0.877  0.0367  0.3247 -0.3793
 8668SOL     OW34443   0.388   4.334   3.471 -0.2128  0.0023  0.1501
 8668SOL    HW234444   0.325   4.316   3.401  0.9326 -0.1423 -0.8790
 8668SOL    HW334445   0.431   4.249   3.487 -0.4974  0.0223  1.0770
 8668SOL    MW434446   0.385   4.320   3.464 -0.0602  0.1347  0.2824
 8669SOL     OW34447   0.488   4.254   0.962  0.0974  0.3320 -0.4630
 8669SOL    HW234448   0.554   4.323   0.957 -1.5495  1.9411 -1.0903
 8669SOL    HW334449   0.437   4.263   0.882 -0.4909 -1.3018 -0.3207
 8669SOL    MW434450   0.490   4.264   0.951 -0.4415 -0.0975  0.2539
 8670SOL     OW34451   5.092   1.369   1.071 -0.8070 -0.0097  0.1806
 8670SOL    HW234452   5.169   1.319   1.045 -0.2884  0.1776  1.3234
 8670SOL    HW334453   5.022   1.337   1.013  0.3813  0.7510 -1.7976
 8670SOL    MW434454   5.093   1.358   1.060  0.1123  0.0920 -0.4787
 8671SOL     OW34455   0.589   3.175   6.243  0.4344 -0.2025 -0.3858
 8671SOL    HW234456   0.617   3.100   6.191  3.1843  0.1263  0.4575
 8671SOL    HW334457   0.566   3.139   6.328  0.3406 -0.2508 -0.4319
 8671SOL    MW434458   0.590   3.161   6.247 -0.0970  0.0617 -0.1802
 8672SOL     OW34459   4.294   5.021   5.433 -0.3163 -0.5988  0.2599
 8672SOL    HW234460   4.218   4.965   5.445  0.4769 -2.1044 -1.3134
 8672SOL    HW334461   4.369   4.963   5.450  0.5185  0.0906 -0.9529
 8672SOL    MW434462   4.294   5.006   5.437 -0.2482  0.2819  0.3976
 8673SOL     OW34463   1.480   6.398   3.862  0.0065  0.2628 -0.2835
 8673SOL    HW234464   1.540   6.372   3.932 -1.3491 -3.3611 -0.2520
 8673SOL    HW334465   1.413   6.450   3.906  0.4114  0.0116  0.6616
 8673SOL    MW434466   1.479   6.402   3.877 -0.3536  0.4624  0.0137
 8674SOL     OW34467   3.264   6.052   4.916 -0.0107  0.2938  0.0658
 8674SOL    HW234468   3.337   6.015   4.965  1.1166  1.8547 -0.3673
 8674SOL    HW334469   3.304   6.099   4.844 -1.5536 -0.2432 -1.1988
 8674SOL    MW434470   3.279   6.053   4.913  0.6193 -0.3122 -0.0881
 8675SOL     OW34471   1.996   3.586   6.361  0.1501 -0.7651  1.2744
 8675SOL    HW234472   1.977   3.497   6.391 -0.7618 -0.9473  0.1990
 8675SOL    HW334473   1.969   3.587   6.269  2.0212  0.0481  0.6924
 8675SOL    MW434474   1.990   3.574   6.353 -0.4142  0.0233 -0.2549
 8676SOL     OW34475   0.859   3.900   5.408  0.0019 -0.1786 -0.2983
 8676SOL    HW234476   0.952   3.924   5.406  0.5468 -1.8335  1.5111
 8676SOL    HW334477   0.854   3.818   5.359 -0.8137  0.6589 -1.6747
 8676SOL    MW434478   0.871   3.892   5.401 -0.6318  0.1281  0.5735
 8677SOL     OW34479   5.968   6.398   5.103 -0.2940  0.1324  0.0778
 8677SOL    HW234480   5.976   6.314   5.148  4.2438  0.4501  0.3129
 8677SOL    HW334481   5.979   6.464   5.171 -0.4657  0.8088 -0.5316
 8677SOL    MW434482   5.971   6.395   5.118 -0.0204  0.1097  0.1513
 8678SOL     OW34483   0.042   0.310   4.758 -0.0122  0.4837 -0.2058
 8678SOL    HW234484  -0.009   0.344   4.832 -0.9358  0.0696 -0.6300
 8678SOL    HW334485   0.124   0.281   4.797  0.6746  2.8033  0.2380
 8678SOL    MW434486   0.046   0.310   4.773 -0.2588  0.4361  0.0333
 8679SOL     OW34487   3.629   1.205   5.979 -0.2390 -0.0198  0.3579
 8679SOL    HW234488   3.585   1.214   6.064  0.3338 -1.5970  0.8587
 8679SOL    HW334489   3.626   1.111   5.960  0.1867  0.2335 -1.0761
 8679SOL    MW434490   3.623   1.194   5.988 -0.0232 -0.3296 -0.4090
 8680SOL     OW34491   6.386   5.843   3.182 -0.6303  0.4604 -0.7994
 8680SOL    HW234492   6.301   5.822   3.143 -1.0840  1.0030 -0.1311
 8680SOL    HW334493   6.393   5.938   3.175 -0.1822  0.4419 -0.6406
 8680SOL    MW434494   6.375   5.853   3.176 -0.6543 -0.2978 -0.4272
 8681SOL     OW34495   3.582   0.983   2.859  0.5585  0.3980 -0.1090
 8681SOL    HW234496   3.594   0.983   2.764 -0.7023 -1.0371 -0.3064
 8681SOL    HW334497   3.491   1.010   2.872 -0.2345 -2.2555  0.4629
 8681SOL    MW434498   3.571   0.987   2.849  0.1104 -0.5095  0.6735
 8682SOL     OW34499   4.527   5.229   4.566  0.3976 -0.3984  0.0365
 8682SOL    HW234500   4.552   5.155   4.512  2.3235 -1.3405  2.0806
 8682SOL    HW334501   4.610   5.264   4.599 -0.6001  1.3094  0.8595
 8682SOL    MW434502   4.541   5.224   4.563 -0.3036 -0.1942  0.3681
 8683SOL     OW34503   1.322   5.818   2.718 -0.1789  0.3742  0.5752
 8683SOL    HW234504   1.406   5.833   2.673 -0.4933 -1.4662 -0.7343
 8683SOL    HW334505   1.270   5.895   2.698 -0.1431 -0.1562 -1.9576
 8683SOL    MW434506   1.326   5.830   2.709  0.4464  0.6008  0.2029
 8684SOL     OW34507   0.990   4.756   3.510 -0.3071 -0.6482  0.3797
 8684SOL    HW234508   1.046   4.702   3.454  0.2841 -2.1229  2.3212
 8684SOL    HW334509   0.911   4.770   3.457  1.6784  1.3919 -2.4028
 8684SOL    MW434510   0.987   4.751   3.495 -0.1652 -0.1130  0.0945
 8685SOL     OW34511   3.342   3.169   5.465  0.3144  0.2454  0.1110
 8685SOL    HW234512   3.316   3.112   5.393  0.9795 -0.6627  0.5659
 8685SOL    HW334513   3.279   3.151   5.534  0.3595  0.2609  0.1567
 8685SOL    MW434514   3.330   3.159   5.465 -0.5677  0.0192 -0.0999
 8686SOL     OW34515   1.779   4.753   0.308 -0.4999 -0.3096 -0.7219
 8686SOL    HW234516   1.700   4.707   0.279  0.0484 -0.2839 -2.4025
 8686SOL    HW334517   1.753   4.801   0.386 -1.8571 -1.1566 -0.6329
 8686SOL    MW434518   1.765   4.753   0.314 -0.0923 -0.4550  0.2156
 8687SOL     OW34519   6.186   0.945   5.510 -0.1970 -0.1046 -0.4008
 8687SOL    HW234520   6.258   1.004   5.489 -0.1141 -0.4490 -1.1133
 8687SOL    HW334521   6.224   0.857   5.504 -0.5762 -0.2704 -0.3930
 8687SOL    MW434522   6.200   0.941   5.506  0.1995  0.3700  0.4373
 8688SOL     OW34523   0.730   2.034   4.899  0.0204 -0.1274  0.2001
 8688SOL    HW234524   0.809   2.026   4.953  0.0068  0.1587  0.2630
 8688SOL    HW334525   0.708   2.127   4.903  0.1061 -0.0794 -0.4183
 8688SOL    MW434526   0.738   2.045   4.907  0.2318  0.4046  0.5133
 8689SOL     OW34527   5.725   2.164   2.028 -0.2142 -0.2947  0.6746
 8689SOL    HW234528   5.789   2.192   2.092 -0.2405 -0.1983  0.6581
 8689SOL    HW334529   5.750   2.208   1.947  0.9248 -1.8358  0.1402
 8689SOL    MW434530   5.736   2.173   2.026 -0.5989 -0.4542  0.3235
 8690SOL     OW34531   1.429   2.137   0.594  0.1970 -0.4304  0.5194
 8690SOL    HW234532   1.488   2.092   0.654  1.4825 -1.2261 -1.2655
 8690SOL    HW334533   1.459   2.228   0.594 -0.2629 -0.2643  1.5700
 8690SOL    MW434534   1.440   2.143   0.602 -0.3271 -0.6088 -0.8596
 8691SOL     OW34535   5.583   0.128   4.894  0.1292  0.2434  0.5308
 8691SOL    HW234536   5.523   0.100   4.824  1.4587  0.8170 -0.8991
 8691SOL    HW334537   5.585   0.054   4.955 -0.8002 -0.4185 -0.2166
 8691SOL    MW434538   5.575   0.115   4.893  0.1066  0.9181  0.6177
 8692SOL     OW34539   1.712   3.115   0.876 -0.1108  1.0310 -0.2266
 8692SOL    HW234540   1.659   3.095   0.953  0.4950 -5.6803 -0.9049
 8692SOL    HW334541   1.648   3.129   0.806 -0.8962  0.0776  0.2666
 8692SOL    MW434542   1.696   3.114   0.877 -0.5117  0.9357 -0.1608
 8693SOL     OW34543   5.428   4.761   2.952  0.3210 -0.1882  0.2606
 8693SOL    HW234544   5.360   4.749   2.886  0.1656 -1.6693  0.6676
 8693SOL    HW334545   5.471   4.843   2.927 -0.9875  0.2836 -0.5479
 8693SOL    MW434546   5.424   4.770   2.940 -0.1127 -0.5801  0.2424
 8694SOL     OW34547   4.167   5.825   1.789 -0.4470  0.5632 -0.1460
 8694SOL    HW234548   4.241   5.883   1.807 -0.7519  0.8432  0.2365
 8694SOL    HW334549   4.102   5.882   1.747 -0.1542  0.1489 -1.1802
 8694SOL    MW434550   4.168   5.841   1.786 -0.1410  0.0727  0.2201
 8695SOL     OW34551   5.393   4.027   2.240  0.5544  0.1133  0.5451
 8695SOL    HW234552   5.339   3.980   2.303  0.8006 -0.8418  0.0681
 8695SOL    HW334553   5.377   3.983   2.157  1.0049  0.7092  0.1344
 8695SOL    MW434554   5.384   4.015   2.237  0.2623  0.2760 -0.0010
 8696SOL     OW34555   6.320   1.523   0.729 -0.1674  0.1305  0.0907
 8696SOL    HW234556   6.398   1.508   0.783 -0.7053 -1.1906  0.5503
 8696SOL    HW334557   6.309   1.618   0.728  1.6962  0.3732 -0.3701
 8696SOL    MW434558   6.329   1.533   0.736 -0.0357 -0.6641 -0.0499
 8697SOL     OW34559   2.789   3.265   0.026 -0.1244 -0.3511  0.6734
 8697SOL    HW234560   2.731   3.261   0.102  0.7389 -0.0675  1.3612
 8697SOL    HW334561   2.769   3.349  -0.016 -1.5509 -1.0869 -0.2163
 8697SOL    MW434562   2.778   3.275   0.030  0.0785 -0.0593 -0.4924
 8698SOL     OW34563   4.413   1.152   3.939  0.5888 -0.1160  0.4281
 8698SOL    HW234564   4.459   1.183   4.017 -1.5275  1.1361  1.2787
 8698SOL    HW334565   4.428   1.220   3.874 -0.0304  0.3126  0.7185
 8698SOL    MW434566   4.421   1.165   3.941  0.6116  0.4965 -0.4767
 8699SOL     OW34567   1.397   6.295   0.330 -0.5967 -0.2956 -0.2838
 8699SOL    HW234568   1.446   6.355   0.274 -1.5993 -1.9384 -3.1549
 8699SOL    HW334569   1.454   6.280   0.405  0.8495  2.0484 -0.8147
 8699SOL    MW434570   1.411   6.301   0.333 -0.1354 -0.4289 -0.3492
 8700SOL     OW34571   0.258   1.249   5.631 -0.8505 -0.9886 -0.5860
 8700SOL    HW234572   0.194   1.183   5.660 -1.7786 -0.1463 -0.6761
 8700SOL    HW334573   0.207   1.329   5.621  0.2356 -0.2873 -0.6477
 8700SOL    MW434574   0.243   1.251   5.634  0.0809  0.1331  0.3808
 8701SOL     OW34575   4.943   0.194   5.593 -0.2815  0.4857 -0.0451
 8701SOL    HW234576   4.961   0.242   5.674 -0.2360  1.9749 -0.9156
 8701SOL    HW334577   4.898   0.115   5.623  0.6384  0.4977  1.5130
 8701SOL    MW434578   4.939   0.190   5.608 -0.1918 -0.1734 -0.0439
 8702SOL     OW34579   0.936   2.155   4.224 -0.2011  0.1297  0.5996
 8702SOL    HW234580   0.850   2.120   4.245 -0.8831  1.1781 -0.3576
 8702SOL    HW334581   0.930   2.248   4.243  0.6800  0.2394  0.3951
 8702SOL    MW434582   0.924   2.162   4.229  0.3998 -0.6231 -0.2276
 8703SOL     OW34583   0.049   6.030   3.805  0.4857  1.0037  0.2922
 8703SOL    HW234584   0.034   5.946   3.762  0.7188  0.9112  0.3928
 8703SOL    HW334585  -0.018   6.034   3.873 -0.4933  1.5633 -0.6632
 8703SOL    MW434586   0.038   6.019   3.808 -0.2765  0.7675 -0.5614
 8704SOL     OW34587   5.278   0.984   5.029 -0.2703  0.1674  0.0546
 8704SOL    HW234588   5.351   1.034   4.992 -1.0875  0.5267 -1.1144
 8704SOL    HW334589   5.319   0.905   5.064  0.5545 -0.1473 -1.5561
 8704SOL    MW434590   5.293   0.981   5.029 -1.0277 -0.6634 -0.3112
 8705SOL     OW34591   3.273   5.350   6.328 -0.3738  0.2108 -0.5207
 8705SOL    HW234592   3.304   5.440   6.336 -3.5127  1.6414 -2.6025
 8705SOL    HW334593   3.273   5.333   6.233  0.5476 -2.2074 -0.1741
 8705SOL    MW434594   3.277   5.359   6.316  0.0744  0.8438 -0.0370
 8706SOL     OW34595   1.730   1.101   4.447 -0.3098 -0.0265 -0.2959
 8706SOL    HW234596   1.684   1.162   4.504 -1.2831 -1.1623  0.1966
 8706SOL    HW334597   1.745   1.024   4.503  1.0953 -0.1439 -0.8235
 8706SOL    MW434598   1.726   1.099   4.462 -0.4293 -0.2685  0.6853
 8707SOL     OW34599   0.076   0.057   1.255 -0.6486  0.4897  0.5231
 8707SOL    HW234600   0.064   0.117   1.182 -3.3668  1.4754  1.6819
 8707SOL    HW334601   0.046   0.105   1.332  1.7350 -0.6525  2.3181
 8707SOL    MW434602   0.071   0.071   1.256  0.3397  0.1907 -0.2175
 8708SOL     OW34603   4.725   0.736   0.678  1.1148  0.0393 -0.3458
 8708SOL    HW234604   4.758   0.734   0.768  1.9272  0.2180 -0.6347
 8708SOL    HW334605   4.667   0.660   0.672  1.6696 -0.4259  0.0965
 8708SOL    MW434606   4.722   0.726   0.689  0.2757 -0.4267 -0.4759
 8709SOL     OW34607   6.408   2.446   1.724 -0.0082 -0.3079 -0.0450
 8709SOL    HW234608   6.435   2.425   1.814 -1.1975 -2.7284 -0.1754
 8709SOL    HW334609   6.314   2.427   1.722 -0.1745  0.5004 -1.6171
 8709SOL    MW434610   6.399   2.441   1.736  0.0316 -0.3173  0.1996
 8710SOL     OW34611   3.502   1.418   3.077  0.1606  0.3645  0.6119
 8710SOL    HW234612   3.577   1.431   3.020 -0.4773  4.4577  0.4081
 8710SOL    HW334613   3.533   1.443   3.164 -0.1987 -0.9671  1.1545
 8710SOL    MW434614   3.516   1.423   3.081 -0.0403 -0.1334  0.1438
 8711SOL     OW34615   2.426   4.722   1.325  0.1271 -0.4460 -0.1149
 8711SOL    HW234616   2.337   4.745   1.301  0.2240 -1.8036 -1.9839
 8711SOL    HW334617   2.418   4.642   1.377  0.1507  0.7403  1.8303
 8711SOL    MW434618   2.413   4.714   1.329 -0.1748 -0.4626 -0.0547
 8712SOL     OW34619   1.616   5.118   3.424 -0.2031  0.2775 -0.5185
 8712SOL    HW234620   1.589   5.197   3.471  1.4853 -1.1855  3.3339
 8712SOL    HW334621   1.536   5.065   3.419 -1.0513  1.5970 -2.0115
 8712SOL    MW434622   1.602   5.121   3.429 -0.0153 -0.0872  0.0407
 8713SOL     OW34623   4.796   4.891   4.120  0.7337 -0.6004 -0.2946
 8713SOL    HW234624   4.736   4.895   4.045  0.7032 -0.3448 -0.2580
 8713SOL    HW334625   4.747   4.930   4.192  0.8892 -0.5337 -0.2254
 8713SOL    MW434626   4.782   4.896   4.120  0.4204 -0.3238 -0.6324
 8714SOL     OW34627   0.972   4.991   0.714  0.3599  0.3032 -0.0942
 8714SOL    HW234628   1.026   5.070   0.703  0.5301  0.1457 -0.4267
 8714SOL    HW334629   1.030   4.919   0.687  0.5496 -0.0452  1.1958
 8714SOL    MW434630   0.987   4.992   0.709  0.3414  0.1025 -0.2415
 8715SOL     OW34631   5.674   0.709   4.433 -0.3004  0.0651 -0.3364
 8715SOL    HW234632   5.595   0.657   4.418 -0.1934  0.2288 -1.5709
 8715SOL    HW334633   5.650   0.798   4.406  0.0192  0.3155  0.1907
 8715SOL    MW434634   5.660   0.714   4.427 -0.2630  0.4739  0.3097
 8716SOL     OW34635   5.802   0.534   4.862  0.6447 -0.0175 -0.0185
 8716SOL    HW234636   5.758   0.609   4.823 -1.4088 -0.7326  0.7663
 8716SOL    HW334637   5.870   0.571   4.918 -0.8397  1.3448  0.9686
 8716SOL    MW434638   5.805   0.549   4.864 -0.6601  0.1740  0.0593
 8717SOL     OW34639   1.465   1.753   5.376 -0.0163 -0.3046  0.5243
 8717SOL    HW234640   1.458   1.790   5.288  4.3100  2.9033  1.2306
 8717SOL    HW334641   1.489   1.662   5.361  1.5377  0.3738 -1.7205
 8717SOL    MW434642   1.467   1.746   5.362 -0.3159 -0.5152  0.0645
 8718SOL     OW34643   3.859   1.952   5.781 -0.3040  0.9199 -0.0460
 8718SOL    HW234644   3.934   1.958   5.721 -1.0154 -0.9710 -1.1931
 8718SOL    HW334645   3.831   1.861   5.776 -1.7582  1.2345  1.5259
 8718SOL    MW434646   3.865   1.941   5.772  0.0255 -0.1954  0.1919
 8719SOL     OW34647   5.261   4.665   5.455  0.1795 -0.3907  0.4314
 8719SOL    HW234648   5.339   4.685   5.507 -0.0530 -0.1304  0.6861
 8719SOL    HW334649   5.288   4.593   5.398  0.1994 -1.2678  1.5101
 8719SOL    MW434650   5.275   4.658   5.454 -0.4165 -0.4294 -0.6605
 8720SOL     OW34651   3.033   4.244   1.587 -0.7515  0.0925  0.1401
 8720SOL    HW234652   3.015   4.252   1.680  0.6521 -0.4613  0.4823
 8720SOL    HW334653   2.949   4.263   1.544 -1.3798  0.4595  1.4969
 8720SOL    MW434654   3.019   4.248   1.593  0.8664  0.4248 -0.2772
 8721SOL     OW34655   5.171   5.575   6.345  0.4264 -0.0817  0.2165
 8721SOL    HW234656   5.100   5.634   6.369  1.7583  1.5130  0.3909
 8721SOL    HW334657   5.183   5.520   6.423 -0.3036 -0.0669  0.3504
 8721SOL    MW434658   5.163   5.575   6.359 -0.1728 -0.3044  0.0026
 8722SOL     OW34659   4.707   5.752   6.046 -0.5888  0.4258  0.0726
 8722SOL    HW234660   4.674   5.679   6.099 -1.5381  1.0128  0.3139
 8722SOL    HW334661   4.635   5.815   6.043 -0.9236  0.0675 -2.6311
 8722SOL    MW434662   4.693   5.751   6.052 -0.2465 -0.5228 -0.4970
 8723SOL     OW34663   6.069   6.384   2.928  0.5693 -0.3438 -0.5433
 8723SOL    HW234664   6.089   6.308   2.982  0.1587 -0.6860 -0.8567
 8723SOL    HW334665   6.078   6.459   2.986 -2.4188 -0.8443  0.7774
 8723SOL    MW434666   6.073   6.384   2.943 -0.0138  0.0620 -0.1622
 8724SOL     OW34667   0.817   1.344   3.895 -0.2027 -0.0698 -0.4945
 8724SOL    HW234668   0.870   1.266   3.878  0.3538  0.2044 -0.0745
 8724SOL    HW334669   0.756   1.317   3.964  1.8090  0.5847  1.6930
 8724SOL    MW434670   0.816   1.330   3.902 -0.8123 -0.0726 -0.2925
 8725SOL     OW34671   2.715   1.143   0.347 -0.4585 -0.0739 -0.4392
 8725SOL    HW234672   2.653   1.083   0.389 -0.1018 -0.6516 -0.7287
 8725SOL    HW334673   2.693   1.139   0.254  1.8734 -2.5838 -1.0033
 8725SOL    MW434674   2.704   1.135   0.340 -0.8741  0.1058 -0.2432
 8726SOL     OW34675   2.975   0.536   3.202 -0.0448 -0.2090  0.0635
 8726SOL    HW234676   2.908   0.604   3.199 -0.6789 -0.8253  0.1044
 8726SOL    HW334677   3.057   0.583   3.184 -0.5986  0.3919 -1.0033
 8726SOL    MW434678   2.977   0.551   3.199 -0.0987  0.1318  0.1012
 8727SOL     OW34679   2.308   3.269   4.390 -0.2256  0.1581  0.0285
 8727SOL    HW234680   2.242   3.336   4.411 -0.7944 -0.4672  0.2906
 8727SOL    HW334681   2.370   3.313   4.333 -0.2840  1.0660  0.6592
 8727SOL    MW434682   2.307   3.283   4.385  0.2802  0.0626 -0.2858
 8728SOL     OW34683   0.017   2.646   3.740  0.4023  0.2110 -0.0524
 8728SOL    HW234684   0.008   2.626   3.833 -0.4625 -0.5571 -0.2880
 8728SOL    HW334685  -0.057   2.704   3.721  0.8998  0.8288 -0.1495
 8728SOL    MW434686   0.006   2.651   3.750  0.1855 -0.1456 -0.4615
 8729SOL     OW34687   3.362   5.646   2.184 -0.2285 -0.3248 -0.2130
 8729SOL    HW234688   3.428   5.702   2.143 -0.1770 -1.3494 -1.6119
 8729SOL    HW334689   3.315   5.704   2.244  0.7452  0.8593 -0.5535
 8729SOL    MW434690   3.364   5.661   2.187 -0.1822  0.3938 -0.2242
 8730SOL     OW34691   1.224   3.387   1.598  0.3675 -0.2139  0.2606
 8730SOL    HW234692   1.219   3.376   1.503  0.2663  0.1987  0.2146
 8730SOL    HW334693   1.194   3.477   1.613 -0.4062 -0.5473  0.7564
 8730SOL    MW434694   1.219   3.397   1.587  0.0200  0.6429  0.2683
 8731SOL     OW34695   5.678   5.946   5.874 -0.6449 -0.1950 -0.0163
 8731SOL    HW234696   5.604   5.929   5.816 -0.8440  1.1182 -0.1715
 8731SOL    HW334697   5.742   5.990   5.819 -0.3174 -0.0758  0.4520
 8731SOL    MW434698   5.677   5.949   5.859 -0.5707 -0.0131  0.2166
 8732SOL     OW34699   3.098   5.635   5.861  0.7706  0.0732 -0.1822
 8732SOL    HW234700   3.178   5.603   5.903  1.5145  2.8637  0.7513
 8732SOL    HW334701   3.027   5.585   5.901  1.8737 -0.9792  0.5243
 8732SOL    MW434702   3.100   5.624   5.872 -0.3152 -0.4220 -0.3523
 8733SOL     OW34703   5.700   3.855   1.131 -0.4407 -0.0408  0.3081
 8733SOL    HW234704   5.669   3.882   1.045 -1.9296  0.1721  0.8765
 8733SOL    HW334705   5.779   3.804   1.114 -0.7515 -0.0592 -1.1765
 8733SOL    MW434706   5.707   3.852   1.117  0.1911  0.0620  0.8016
 8734SOL     OW34707   4.518   3.003   3.341 -0.1388 -0.2159  0.1303
 8734SOL    HW234708   4.509   2.990   3.435  1.9720 -2.7146  0.0939
 8734SOL    HW334709   4.448   2.949   3.303 -0.8109  0.5708  0.2061
 8734SOL    MW434710   4.507   2.994   3.348  0.3653  0.0854  0.0346
 8735SOL     OW34711   0.893   5.336   4.333  0.0398  0.0148 -0.0582
 8735SOL    HW234712   0.801   5.360   4.337  0.2464  0.7143  1.0683
 8735SOL    HW334713   0.915   5.311   4.423  1.5708  2.4044  0.3132
 8735SOL    MW434714   0.884   5.336   4.346  0.3975 -0.4915 -0.1966
 8736SOL     OW34715   2.957   2.652   4.304  0.1383  0.2206  0.3040
 8736SOL    HW234716   2.888   2.715   4.285 -0.1049 -0.0336  0.3500
 8736SOL    HW334717   2.913   2.579   4.347  0.2682 -0.4030 -0.6009
 8736SOL    MW434718   2.942   2.651   4.307 -0.6937  0.3692 -0.4750
 8737SOL     OW34719   4.260   2.996   3.680 -0.1750 -0.1801  0.6075
 8737SOL    HW234720   4.234   2.995   3.772 -1.8233 -0.3977  0.1718
 8737SOL    HW334721   4.209   2.925   3.640  0.3707  0.0325 -0.5041
 8737SOL    MW434722   4.250   2.986   3.687 -0.5085 -0.4565  0.1705
 8738SOL     OW34723   5.548   0.102   2.901  0.1331  0.1067  0.2021
 8738SOL    HW234724   5.635   0.062   2.897  0.6300  1.1064  0.7126
 8738SOL    HW334725   5.550   0.170   2.834 -0.6652 -0.5988 -0.5717
 8738SOL    MW434726   5.560   0.105   2.892  0.2778 -0.1890  0.1647
 8739SOL     OW34727   5.049   6.397   1.072 -0.1745 -0.1285  0.2609
 8739SOL    HW234728   5.016   6.487   1.064  1.9053  0.7402  0.6718
 8739SOL    HW334729   5.069   6.388   1.166 -0.0851 -0.9256  0.1716
 8739SOL    MW434730   5.047   6.408   1.084 -0.1131  0.1960  0.0412
 8740SOL     OW34731   4.661   5.889   0.014 -0.1343  0.3108  0.0235
 8740SOL    HW234732   4.669   5.844   0.098 -0.9322 -1.2934 -0.7160
 8740SOL    HW334733   4.568   5.887  -0.006  0.2418 -1.4290 -1.9493
 8740SOL    MW434734   4.650   5.883   0.022 -0.3503  0.3542  0.0270
 8741SOL     OW34735   0.708   2.758   2.482  0.1453  0.7735  0.3147
 8741SOL    HW234736   0.764   2.830   2.512  2.0683 -0.4711 -0.1019
 8741SOL    HW334737   0.620   2.783   2.510  0.4224  4.0784 -1.2582
 8741SOL    MW434738   0.704   2.771   2.490  0.4354  0.0425 -0.1285
 8742SOL     OW34739   6.418   3.294   5.723  0.1169  0.3221  0.4126
 8742SOL    HW234740   6.501   3.262   5.687 -0.1993 -0.7563  0.6083
 8742SOL    HW334741   6.378   3.344   5.652  0.9204  0.8310  0.3102
 8742SOL    MW434742   6.424   3.296   5.709  0.7764  0.1434  0.6950
 8743SOL     OW34743   0.068   5.762   2.674 -0.6237  0.3656  0.1034
 8743SOL    HW234744   0.094   5.770   2.766 -0.8808  0.0119  0.2083
 8743SOL    HW334745   0.151   5.752   2.627 -0.5305 -0.2033  0.3800
 8743SOL    MW434746   0.083   5.761   2.680 -0.7264 -0.4230 -0.2820
 8744SOL     OW34747   1.676   3.561   2.294  0.3131  0.0246 -0.1770
 8744SOL    HW234748   1.645   3.475   2.323  0.3657  0.5626  1.5914
 8744SOL    HW334749   1.596   3.614   2.288  0.4625  0.3338  0.5051
 8744SOL    MW434750   1.661   3.557   2.297 -0.0160  0.6833 -0.2329
 8745SOL     OW34751   4.940   3.373   0.058 -0.2902  0.1799 -0.1044
 8745SOL    HW234752   4.890   3.389   0.139  0.5618 -0.7255  0.6216
 8745SOL    HW334753   4.943   3.278   0.050 -0.0964  0.2540 -1.0493
 8745SOL    MW434754   4.934   3.362   0.068 -0.5309 -0.3149  0.2366
 8746SOL     OW34755   6.103   1.907   2.047 -0.0382 -0.2590  0.2162
 8746SOL    HW234756   6.104   1.857   1.965  0.9841  1.4919 -0.9056
 8746SOL    HW334757   6.157   1.855   2.107 -0.8123 -1.5721 -0.1890
 8746SOL    MW434758   6.110   1.893   2.044  0.2082 -0.6634  0.3338
 8747SOL     OW34759   5.527   3.993   6.001  0.0206  0.2918  0.2091
 8747SOL    HW234760   5.621   4.001   6.016 -0.0200  0.8596  0.1491
 8747SOL    HW334761   5.488   4.008   6.087 -0.0628  0.9261  0.0629
 8747SOL    MW434762   5.534   3.996   6.015  0.3931  0.2548 -0.3845
 8748SOL     OW34763   3.454   4.911   4.455  0.1977 -0.0953  0.0107
 8748SOL    HW234764   3.409   4.842   4.502  0.1696 -0.4258 -0.4972
 8748SOL    HW334765   3.395   4.935   4.384 -0.0419  0.8375  0.4987
 8748SOL    MW434766   3.441   4.905   4.452 -0.0075  0.1066  0.4696
 8749SOL     OW34767   0.894   5.356   2.173  0.3653 -0.2110 -0.3301
 8749SOL    HW234768   0.944   5.306   2.238  0.4710 -0.1100 -0.3339
 8749SOL    HW334769   0.907   5.447   2.197  0.8470 -0.1470 -0.8164
 8749SOL    MW434770   0.902   5.361   2.185  0.0177 -0.1269 -0.4056
 8750SOL     OW34771   4.586   3.909   5.610  0.0716  0.0878  0.1222
 8750SOL    HW234772   4.679   3.920   5.630 -0.0053  1.4803 -0.2049
 8750SOL    HW334773   4.551   3.859   5.684  1.0405 -0.3124  0.3219
 8750SOL    MW434774   4.593   3.904   5.623 -0.3660  0.4963 -0.4318
 8751SOL     OW34775   1.887   1.365   1.223  0.8592 -0.2816  0.0475
 8751SOL    HW234776   1.893   1.418   1.143  0.1953 -0.8118 -0.3661
 8751SOL    HW334777   1.901   1.275   1.194 -0.2711 -0.5844  0.3643
 8751SOL    MW434778   1.889   1.360   1.209 -0.6077 -0.4197  0.4719
 8752SOL     OW34779   1.426   3.215   5.157 -0.2987  0.3187  0.8121
 8752SOL    HW234780   1.355   3.271   5.189 -0.4703  0.1909  0.6603
 8752SOL    HW334781   1.503   3.272   5.155 -0.8494  1.0614 -1.0712
 8752SOL    MW434782   1.427   3.230   5.161  0.2072  0.0406 -0.1675
 8753SOL     OW34783   2.695   4.606   0.733 -0.1190  0.3431 -0.0980
 8753SOL    HW234784   2.735   4.584   0.817 -0.4517  0.0699 -0.0118
 8753SOL    HW334785   2.695   4.524   0.684 -0.1212  0.4538 -0.2844
 8753SOL    MW434786   2.700   4.593   0.738  0.0557 -0.0244  0.5927
 8754SOL     OW34787   0.467   1.551   0.114 -0.3467  0.4891  0.1675
 8754SOL    HW234788   0.515   1.558   0.031  0.6205  0.2513  0.6901
 8754SOL    HW334789   0.431   1.462   0.113  1.4794 -0.3257  0.9137
 8754SOL    MW434790   0.469   1.540   0.103 -0.5991 -0.2431  0.1474
 8755SOL     OW34791   5.549   6.377   5.547 -0.0720  0.3155 -0.1713
 8755SOL    HW234792   5.643   6.375   5.567 -0.0083 -0.4733 -0.5067
 8755SOL    HW334793   5.506   6.366   5.632  0.1032  1.7345  0.1304
 8755SOL    MW434794   5.556   6.375   5.561  0.0506  0.0506  0.0686
 8756SOL     OW34795   0.147   5.373   4.719 -0.0326 -0.2552  0.2644
 8756SOL    HW234796   0.088   5.448   4.711  0.5748  0.2220  0.1723
 8756SOL    HW334797   0.120   5.330   4.800  0.0685  0.4831  0.7069
 8756SOL    MW434798   0.136   5.378   4.729 -0.5093  0.4015 -0.0963
 8757SOL     OW34799   4.748   3.386   4.058  0.0430 -0.3345 -0.0841
 8757SOL    HW234800   4.830   3.340   4.040  0.0312 -0.2309 -0.4155
 8757SOL    HW334801   4.774   3.465   4.105  0.2298  0.1747 -1.0204
 8757SOL    MW434802   4.762   3.391   4.062 -0.0997 -0.3819  0.6397
 8758SOL     OW34803   2.505   5.625   0.717 -0.1171 -0.0350  0.5706
 8758SOL    HW234804   2.473   5.562   0.652  1.1093 -0.7387  0.6216
 8758SOL    HW334805   2.527   5.572   0.793  0.7724  0.4735  0.6819
 8758SOL    MW434806   2.504   5.610   0.718  0.1188 -0.0275 -0.2760
 8759SOL     OW34807   6.144   5.275   2.598  0.1942 -0.3280 -0.1852
 8759SOL    HW234808   6.215   5.309   2.544 -1.6590  2.2964 -1.1364
 8759SOL    HW334809   6.106   5.204   2.547 -0.8410  1.4052 -1.9142
 8759SOL    MW434810   6.149   5.270   2.584 -0.2749  0.1711 -0.1928
 8760SOL     OW34811   5.125   1.473   2.747 -0.3757 -0.4741  0.7786
 8760SOL    HW234812   5.059   1.415   2.785 -1.0502 -1.6821 -2.0182
 8760SOL    HW334813   5.077   1.554   2.727 -0.8380 -1.0331 -0.4464
 8760SOL    MW434814   5.110   1.476   2.749  0.3940  0.0343 -0.1138
 8761SOL     OW34815   3.413   5.691   4.554 -0.0709  0.3757 -0.2891
 8761SOL    HW234816   3.342   5.632   4.581 -0.2009  0.4214 -0.5217
 8761SOL    HW334817   3.472   5.695   4.629  2.5085 -3.8154 -1.7831
 8761SOL    MW434818   3.411   5.684   4.568  0.2884 -0.2300 -0.2445
 8762SOL     OW34819   0.311   1.362   3.992  0.1990 -0.3822 -0.2409
 8762SOL    HW234820   0.305   1.281   3.941 -3.0764 -0.4161  0.0285
 8762SOL    HW334821   0.296   1.432   3.929 -1.4990 -0.3021  0.1953
 8762SOL    MW434822   0.308   1.360   3.977 -0.2725 -0.2219  0.2705
 8763SOL     OW34823   3.230   6.094   1.735  0.2413 -0.3176  0.5246
 8763SOL    HW234824   3.203   6.028   1.670  0.9946  0.9707 -1.1566
 8763SOL    HW334825   3.148   6.135   1.761  0.0249 -0.0882 -0.4766
 8763SOL    MW434826   3.215   6.091   1.729 -0.4203  0.6459 -0.5246
 8764SOL     OW34827   5.191   5.953   5.689  0.0173 -0.8129  0.6553
 8764SOL    HW234828   5.124   5.999   5.740  1.4035  3.4365 -0.9468
 8764SOL    HW334829   5.151   5.939   5.603  0.3658 -0.4409  0.4278
 8764SOL    MW434830   5.177   5.957   5.685 -0.3436  0.1559  0.4368
 8765SOL     OW34831   0.850   5.169   5.596 -0.1609  0.0311  0.0109
 8765SOL    HW234832   0.772   5.169   5.651  0.7210  0.0156  1.3176
 8765SOL    HW334833   0.923   5.164   5.658  0.8780 -0.0952 -1.1751
 8765SOL    MW434834   0.849   5.169   5.611  0.2439  0.4013  0.7159
 8766SOL     OW34835   4.432   2.018   1.557  0.2253 -0.2121 -0.0477
 8766SOL    HW234836   4.480   2.024   1.474  0.5216 -1.3513  0.0239
 8766SOL    HW334837   4.340   2.013   1.530  0.0968  1.8759 -0.1867
 8766SOL    MW434838   4.426   2.018   1.542  0.2682 -0.2579 -0.1188
 8767SOL     OW34839   2.246   0.697   3.809  0.2202  0.2307 -0.4465
 8767SOL    HW234840   2.276   0.726   3.896 -0.0146  1.9555 -0.9021
 8767SOL    HW334841   2.326   0.694   3.756  0.0951  1.2925 -0.7155
 8767SOL    MW434842   2.261   0.700   3.814  0.0018  0.6675  0.6608
 8768SOL     OW34843   4.622   5.452   4.807 -0.1641  0.1791 -0.2209
 8768SOL    HW234844   4.688   5.389   4.778 -1.2394 -0.5731 -1.1559
 8768SOL    HW334845   4.672   5.529   4.834  1.1041 -0.4925 -0.5749
 8768SOL    MW434846   4.637   5.454   4.807 -0.6030  0.3573 -0.5037
 8769SOL     OW34847   3.759   1.599   1.997  0.0014 -0.1316 -0.0177
 8769SOL    HW234848   3.824   1.628   1.933  0.0749  0.4954  0.3311
 8769SOL    HW334849   3.682   1.651   1.979 -1.5028 -2.8862 -2.3633
 8769SOL    MW434850   3.758   1.609   1.986 -0.2701 -0.2235  0.0819
 8770SOL     OW34851   0.958   3.041   3.125 -0.3924  0.3279 -0.7739
 8770SOL    HW234852   0.973   3.099   3.199  0.0829  1.6820 -1.8932
 8770SOL    HW334853   0.982   2.954   3.157  2.4381  1.2580 -0.1322
 8770SOL    MW434854   0.963   3.037   3.139  0.2782 -0.2102  0.0700
 8771SOL     OW34855   5.876   3.897   4.647  0.2742  0.4882 -0.5982
 8771SOL    HW234856   5.846   3.959   4.581  0.7247  1.3115 -0.0543
 8771SOL    HW334857   5.966   3.875   4.622  0.7064  1.3621  0.1044
 8771SOL    MW434858   5.884   3.902   4.635  0.1445  0.7199  0.2893
 8772SOL     OW34859   2.482   2.900   6.192 -0.0513 -0.2132 -0.5888
 8772SOL    HW234860   2.519   2.907   6.280 -1.9811  1.2093  0.1944
 8772SOL    HW334861   2.498   2.986   6.152 -0.6252 -0.2844 -0.9981
 8772SOL    MW434862   2.489   2.912   6.198  0.1419 -0.5108  0.3271
 8773SOL     OW34863   4.134   0.049   1.234  0.1091  0.5126 -0.0738
 8773SOL    HW234864   4.060   0.043   1.295 -1.1354 -0.7482 -1.6472
 8773SOL    HW334865   4.171   0.136   1.251 -0.8949  0.6529  1.6539
 8773SOL    MW434866   4.129   0.060   1.245  0.7919 -0.0452 -0.0901
 8774SOL     OW34867   1.732   1.467   6.241  0.2792  0.3805  0.2344
 8774SOL    HW234868   1.716   1.374   6.257  0.8430  0.0633 -0.8955
 8774SOL    HW334869   1.719   1.477   6.146 -0.4268  1.5995  0.4423
 8774SOL    MW434870   1.728   1.456   6.230 -0.0991 -0.1224  0.4498
 8775SOL     OW34871   3.390   4.947   3.642  0.2773 -0.4355  0.0986
 8775SOL    HW234872   3.412   4.884   3.711 -0.0568 -1.1867 -0.4602
 8775SOL    HW334873   3.347   4.894   3.575 -1.0403  0.5723  0.1000
 8775SOL    MW434874   3.387   4.932   3.643 -0.1938 -0.4088 -0.3811
 8776SOL     OW34875   1.944   5.748   5.687  0.0279  0.0913  0.0350
 8776SOL    HW234876   2.022   5.802   5.702  1.3227 -1.9937  1.3274
 8776SOL    HW334877   1.881   5.779   5.751  0.1242  1.1372 -0.3474
 8776SOL    MW434878   1.946   5.759   5.697  0.2172  0.5491 -0.1048
 8777SOL     OW34879   2.522   4.792   2.651  0.1934 -0.0956  0.2720
 8777SOL    HW234880   2.496   4.836   2.570 -1.2939  0.3442  0.9622
 8777SOL    HW334881   2.560   4.862   2.704 -0.2813 -0.0703  0.5737
 8777SOL    MW434882   2.524   4.807   2.647 -0.7613  0.0505  0.0743
 8778SOL     OW34883   6.187   2.514   3.067 -0.3330 -0.7688 -0.3645
 8778SOL    HW234884   6.158   2.579   3.003 -0.6138 -0.1040  0.4228
 8778SOL    HW334885   6.283   2.519   3.063 -0.2688  1.5952  1.4882
 8778SOL    MW434886   6.196   2.523   3.058  0.3042  0.0046 -0.4633
 8779SOL     OW34887   6.297   3.605   0.623 -0.3729 -0.0399  0.3386
 8779SOL    HW234888   6.248   3.623   0.703 -0.3695  1.1951  0.0803
 8779SOL    HW334889   6.384   3.642   0.638  0.0903 -1.0495  0.2853
 8779SOL    MW434890   6.302   3.612   0.635  0.1649 -0.1279  0.5600
 8780SOL     OW34891   0.637   3.011   1.504 -0.7089 -0.2015  0.5161
 8780SOL    HW234892   0.677   3.077   1.448  1.5108 -0.2390  1.9530
 8780SOL    HW334893   0.543   3.019   1.488 -0.2951  1.4731 -1.2985
 8780SOL    MW434894   0.630   3.020   1.495  0.4459 -0.3004  0.1585
 8781SOL     OW34895   0.395   1.088   4.366  0.7588 -0.7456 -0.4749
 8781SOL    HW234896   0.351   1.149   4.307  2.0882 -1.1797 -1.9804
 8781SOL    HW334897   0.385   1.002   4.325  0.7688 -1.2275  0.5001
 8781SOL    MW434898   0.388   1.085   4.353  0.5485 -0.0139  0.4529
 8782SOL     OW34899   5.390   3.293   5.904  0.4909 -0.5476  0.0239
 8782SOL    HW234900   5.319   3.357   5.902 -2.2551 -3.4019 -1.7983
 8782SOL    HW334901   5.435   3.305   5.821 -0.6936 -1.5830 -0.7997
 8782SOL    MW434902   5.387   3.303   5.893 -0.1118 -0.5620  0.3272
 8783SOL     OW34903   4.838   2.253   4.831 -0.3850  0.2141  0.4835
 8783SOL    HW234904   4.863   2.339   4.798  0.4592  0.2716  1.2126
 8783SOL    HW334905   4.911   2.227   4.888 -0.8611 -0.7540  0.6823
 8783SOL    MW434906   4.851   2.261   4.834  0.2831 -0.5074 -0.5126
 8784SOL     OW34907   5.596   3.934   3.520  0.0437  0.5733  0.1425
 8784SOL    HW234908   5.670   3.974   3.473  0.5119 -2.5758 -2.1978
 8784SOL    HW334909   5.526   3.931   3.455 -0.0704 -1.8901  0.2995
 8784SOL    MW434910   5.597   3.939   3.505 -0.0710 -0.0840 -0.0674
 8785SOL     OW34911   3.384   5.039   6.033 -0.6072 -0.3389 -0.9318
 8785SOL    HW234912   3.428   4.966   5.989  1.0148  1.3613 -2.2779
 8785SOL    HW334913   3.446   5.071   6.098 -0.4260  1.0864 -1.7521
 8785SOL    MW434914   3.398   5.034   6.036  0.5101  0.3099 -0.1353
 8786SOL     OW34915   2.211   4.408   4.168 -0.2140  0.2283 -0.0229
 8786SOL    HW234916   2.248   4.458   4.095  1.8373 -1.1892 -0.0429
 8786SOL    HW334917   2.282   4.349   4.195 -2.2897 -2.2607  0.3629
 8786SOL    MW434918   2.225   4.407   4.162 -0.2215  0.6889  0.2539
 8787SOL     OW34919   5.767   5.952   2.427  0.3654  0.6866  0.2660
 8787SOL    HW234920   5.816   6.028   2.458  3.0719 -1.3869  1.5190
 8787SOL    HW334921   5.811   5.927   2.346  0.7990 -0.6255  0.8756
 8787SOL    MW434922   5.779   5.959   2.420  0.1647  0.9803  0.1043
 8788SOL     OW34923   3.104   1.928   3.543 -0.3339 -0.2101 -0.0956
 8788SOL    HW234924   3.126   1.873   3.468 -1.5064  0.0049 -0.6105
 8788SOL    HW334925   3.148   1.885   3.617 -0.7918 -1.5421 -0.5645
 8788SOL    MW434926   3.113   1.915   3.543 -0.0728  0.6392 -0.0780
 8789SOL     OW34927   5.462   4.817   3.221 -0.1591 -0.7758 -0.1224
 8789SOL    HW234928   5.540   4.764   3.237  0.4941 -0.0140 -0.6606
 8789SOL    HW334929   5.455   4.821   3.125  0.3902  0.8988 -0.1289
 8789SOL    MW434930   5.471   4.811   3.210  0.1421  0.6224  0.1234
 8790SOL     OW34931   0.043   4.669   5.674  0.2423 -0.6008 -0.0530
 8790SOL    HW234932   0.114   4.610   5.650  0.3488 -0.3341 -0.4038
 8790SOL    HW334933   0.054   4.744   5.616 -0.0313 -0.3409  0.2306
 8790SOL    MW434934   0.054   4.671   5.663 -0.3148  0.3138 -0.1253
 8791SOL     OW34935   5.471   4.387   2.242 -0.3004 -0.1695 -0.5430
 8791SOL    HW234936   5.560   4.417   2.259 -0.4944  0.1404 -0.0801
 8791SOL    HW334937   5.479   4.336   2.161 -0.2437  2.4196 -2.2968
 8791SOL    MW434938   5.484   4.384   2.234  0.4165  0.2945  0.1409
 8792SOL     OW34939   5.905   6.357   5.791 -0.0589 -0.1776  0.3315
 8792SOL    HW234940   5.871   6.277   5.750  0.6080 -0.2041 -0.1902
 8792SOL    HW334941   5.863   6.359   5.877 -1.2589 -0.2744 -0.2378
 8792SOL    MW434942   5.895   6.346   5.797 -0.4571  0.2573 -0.3209
 8793SOL     OW34943   0.749   3.343   5.056  0.0223  0.0726 -0.3589
 8793SOL    HW234944   0.826   3.384   5.016  0.0577  0.4817  0.1219
 8793SOL    HW334945   0.734   3.265   5.003 -0.7405  1.2805 -1.9940
 8793SOL    MW434946   0.757   3.338   5.044  0.2874  0.4673  0.0740
 8794SOL     OW34947   4.271   3.519   6.130 -0.1708 -0.1602 -0.0315
 8794SOL    HW234948   4.277   3.612   6.150 -2.7090  0.2686 -0.8654
 8794SOL    HW334949   4.348   3.480   6.171  0.4044  2.1426  1.2301
 8794SOL    MW434950   4.282   3.526   6.138  0.4395  0.2439  0.2804
 8795SOL     OW34951   2.597   3.282   0.257  0.0065 -0.2255  0.0937
 8795SOL    HW234952   2.552   3.364   0.275  1.9656  0.9276  0.1005
 8795SOL    HW334953   2.620   3.247   0.343  1.8014  0.8233  0.0879
 8795SOL    MW434954   2.594   3.288   0.271 -0.6188 -0.8062  0.1587
 8796SOL     OW34955   6.024   5.566   0.090 -0.2052  0.0686  0.0806
 8796SOL    HW234956   5.939   5.562   0.135 -0.0527  0.8551  0.4584
 8796SOL    HW334957   6.077   5.625   0.143  0.9049 -1.1192  0.3526
 8796SOL    MW434958   6.020   5.573   0.103 -0.2401  0.7728 -0.8745
 8797SOL     OW34959   3.487   4.229   1.542  0.0126  0.2158  0.5993
 8797SOL    HW234960   3.562   4.175   1.517 -0.4955 -0.1250 -0.2297
 8797SOL    HW334961   3.417   4.166   1.558  0.2607  0.4276  2.7800
 8797SOL    MW434962   3.488   4.214   1.541 -0.0575  0.2855  0.1541
 8798SOL     OW34963   2.485   1.026   1.296  0.0603  0.0030  0.0447
 8798SOL    HW234964   2.507   1.118   1.280  0.8073  0.0730  1.3220
 8798SOL    HW334965   2.517   0.980   1.219 -2.5884  1.0675 -1.8242
 8798SOL    MW434966   2.492   1.032   1.284 -0.1574 -0.7052  0.1412
 8799SOL     OW34967   1.645   6.313   4.060 -0.0578 -0.1799 -0.0637
 8799SOL    HW234968   1.648   6.221   4.036 -0.9136 -0.7280  1.7132
 8799SOL    HW334969   1.590   6.315   4.139  0.8059  1.7083  0.5488
 8799SOL    MW434970   1.638   6.302   4.067  0.2772  0.3013  0.6397
 8800SOL     OW34971   1.015   1.592   5.186 -0.0938 -0.2436 -0.2639
 8800SOL    HW234972   0.953   1.528   5.149 -0.0634 -0.9409  0.8306
 8800SOL    HW334973   1.042   1.553   5.269 -0.3853  1.3969  0.6456
 8800SOL    MW434974   1.010   1.578   5.192 -0.1279 -0.1750 -0.1428
 8801SOL     OW34975   4.280   4.921   2.701 -0.9088  0.3166  0.2220
 8801SOL    HW234976   4.237   4.858   2.758 -0.6921  0.7525  0.8800
 8801SOL    HW334977   4.208   4.963   2.654 -1.2096  0.9268  1.1958
 8801SOL    MW434978   4.265   4.918   2.702 -0.0653  0.1238 -0.0865
 8802SOL     OW34979   2.013   6.137   4.097 -0.0150  0.1545 -0.1407
 8802SOL    HW234980   2.096   6.168   4.133 -0.5734 -0.3507  1.7052
 8802SOL    HW334981   1.972   6.214   4.059  1.7189  0.2143 -1.9938
 8802SOL    MW434982   2.018   6.151   4.097  0.2744 -0.1164  0.2191
 8803SOL     OW34983   1.813   0.473   2.708 -0.1717  0.2007  0.5329
 8803SOL    HW234984   1.812   0.479   2.803 -0.5320 -0.5287  0.5796
 8803SOL    HW334985   1.802   0.380   2.689  0.3322  0.2805 -0.2151
 8803SOL    MW434986   1.812   0.462   2.718 -0.6917 -0.1036 -0.3314
 8804SOL     OW34987   5.602   1.175   1.384 -0.4468  0.0343  0.4728
 8804SOL    HW234988   5.637   1.088   1.403 -0.0239 -0.0088 -0.4334
 8804SOL    HW334989   5.547   1.196   1.459  1.1003 -0.1156  1.6843
 8804SOL    MW434990   5.599   1.166   1.396 -0.0421  0.2671  0.5935
 8805SOL     OW34991   5.336   0.179   5.781  0.4727 -0.5024  0.1450
 8805SOL    HW234992   5.286   0.149   5.705 -0.8753 -0.3741  0.9454
 8805SOL    HW334993   5.347   0.101   5.835 -0.6588 -0.1413  0.9319
 8805SOL    MW434994   5.331   0.165   5.779 -0.0508 -0.1292  0.7094
 8806SOL     OW34995   0.849   1.711   5.772  0.5034 -0.0393 -0.0130
 8806SOL    HW234996   0.841   1.806   5.765 -0.0956 -0.1215 -0.4321
 8806SOL    HW334997   0.931   1.698   5.820 -0.6609  0.7554  2.3521
 8806SOL    MW434998   0.859   1.722   5.778  0.1312  0.0557 -0.1030
 8807SOL     OW34999   0.861   3.549   4.048 -0.4069  0.3639 -0.4949
 8807SOL    HW235000   0.769   3.536   4.074  0.0094  0.8377  1.3584
 8807SOL    HW335001   0.856   3.615   3.979 -1.3382  2.4261  1.4092
 8807SOL    MW435002   0.848   3.556   4.042  0.1782 -0.6059 -0.3320
 8808SOL     OW35003   0.519   6.238   6.002  0.0406 -0.0572  0.0591
 8808SOL    HW235004   0.612   6.231   5.978  0.4105  0.6348  1.2385
 8808SOL    HW335005   0.480   6.288   5.930  0.5490 -0.4544 -0.5054
 8808SOL    MW435006   0.526   6.244   5.989  0.3076 -0.0458  0.1470
 8809SOL     OW35007   4.265  -0.003   4.077  0.2551 -0.3872  0.3197
 8809SOL    HW235008   4.269  -0.097   4.058  0.5407 -0.0754 -1.2697
 8809SOL    HW335009   4.356   0.026   4.066 -0.1217  0.3737 -0.9220
 8809SOL    MW435010   4.278  -0.012   4.073 -0.1040 -0.1798 -0.0914
 8810SOL     OW35011   4.461   4.977   4.441  0.2168  0.1401  0.0488
 8810SOL    HW235012   4.455   4.905   4.504  0.7556  0.2571  0.2347
 8810SOL    HW335013   4.442   4.937   4.356  0.6804 -0.2569  0.1301
 8810SOL    MW435014   4.458   4.962   4.438 -0.2851 -0.2442 -0.4278
 8811SOL     OW35015   6.413   2.116   4.253 -0.2016  0.0217  0.5939
 8811SOL    HW235016   6.321   2.138   4.265  0.3454  1.7711  2.1857
 8811SOL    HW335017   6.435   2.151   4.167 -0.5004  1.7490  1.1773
 8811SOL    MW435018   6.404   2.124   4.243  0.1566 -0.5184 -0.0380
 8812SOL     OW35019   0.853   1.520   4.562  0.1226 -0.3786 -0.2490
 8812SOL    HW235020   0.801   1.599   4.547  2.6295  1.1092 -1.9392
 8812SOL    HW335021   0.792   1.448   4.549 -1.9801  1.2284  0.1131
 8812SOL    MW435022   0.838   1.521   4.559  0.2445 -0.2496  0.3683
 8813SOL     OW35023   2.378   4.994   5.234 -0.1798 -0.1838  0.3886
 8813SOL    HW235024   2.390   4.945   5.152  1.5833  0.0998  0.4504
 8813SOL    HW335025   2.382   5.086   5.208  1.3548 -0.0893  0.9006
 8813SOL    MW435026   2.380   4.999   5.220  0.5737  0.0593 -0.5977
 8814SOL     OW35027   4.539   3.906   4.384  0.1240  0.3004 -0.6416
 8814SOL    HW235028   4.566   3.992   4.351 -0.4691  1.5408  1.8673
 8814SOL    HW335029   4.455   3.890   4.341  1.9087 -0.9462 -4.0906
 8814SOL    MW435030   4.531   3.915   4.374  0.0516  0.1598  0.2351
 8815SOL     OW35031   1.294   6.218   1.780 -0.0950  0.8111  0.0198
 8815SOL    HW235032   1.317   6.129   1.809  2.2377  0.9428 -1.2580
 8815SOL    HW335033   1.226   6.204   1.714  1.6828 -0.2445 -1.6817
 8815SOL    MW435034   1.288   6.204   1.775 -0.7015 -0.4489 -0.4018
 8816SOL     OW35035   3.220   3.567   4.948 -0.1994  0.1572  0.4265
 8816SOL    HW235036   3.277   3.622   4.894  1.0247 -0.9488  0.5701
 8816SOL    HW335037   3.177   3.509   4.886 -0.0555 -0.0022  0.4773
 8816SOL    MW435038   3.222   3.567   4.933 -0.3421 -0.0652  0.2466
 8817SOL     OW35039   5.552   4.825   0.640 -0.0241 -0.4089 -0.2725
 8817SOL    HW235040   5.524   4.908   0.602  0.6885 -0.5904 -1.2105
 8817SOL    HW335041   5.506   4.758   0.589  0.0160 -0.6173 -0.0360
 8817SOL    MW435042   5.542   4.827   0.629  0.6853 -0.5453  0.3020
 8818SOL     OW35043   4.913   4.527   1.353  0.1727  0.4893 -0.2968
 8818SOL    HW235044   4.953   4.552   1.269  2.9715 -1.1170  0.4214
 8818SOL    HW335045   4.871   4.443   1.336  2.2325 -0.7190  0.1724
 8818SOL    MW435046   4.913   4.520   1.340 -0.1417 -0.5033  0.5962
 8819SOL     OW35047   6.122   4.929   3.015 -0.3512  0.2941 -0.8602
 8819SOL    HW235048   6.125   4.924   2.920  2.3753  0.3967 -0.8399
 8819SOL    HW335049   6.150   4.843   3.045  0.4260  0.7774 -0.1654
 8819SOL    MW435050   6.126   4.917   3.007 -0.4284 -0.4329  0.2808
 8820SOL     OW35051   5.404   5.604   3.385 -0.2005 -0.3495  0.4120
 8820SOL    HW235052   5.476   5.560   3.340 -0.2325 -0.4690  0.4778
 8820SOL    HW335053   5.409   5.572   3.475 -0.4916 -0.5521  0.3574
 8820SOL    MW435054   5.414   5.594   3.391 -0.4022 -0.0255  0.2777
 8821SOL     OW35055   1.789   1.642   5.191 -0.0914 -0.0458  0.0731
 8821SOL    HW235056   1.756   1.584   5.122  1.5261  0.9763 -1.6404
 8821SOL    HW335057   1.747   1.726   5.173  0.7176  0.3525  0.0156
 8821SOL    MW435058   1.779   1.645   5.179 -0.6407  0.0743 -0.2705
 8822SOL     OW35059   3.013   4.188   1.876  0.1362  0.0480 -0.3742
 8822SOL    HW235060   2.926   4.164   1.906 -0.5046  0.6341 -1.6936
 8822SOL    HW335061   3.033   4.270   1.921 -0.0875  0.0371 -0.2549
 8822SOL    MW435062   3.004   4.195   1.886 -0.1441  0.0001  0.0960
 8823SOL     OW35063   0.184   1.140   4.586  0.4515  0.1755  0.1890
 8823SOL    HW235064   0.275   1.159   4.566  0.3731 -0.9303 -1.4379
 8823SOL    HW335065   0.172   1.048   4.560 -0.9196  0.0461  1.1298
 8823SOL    MW435066   0.194   1.130   4.580 -0.0606  0.3257 -0.1560
 8824SOL     OW35067   4.424   1.104   0.921  0.4462 -0.4921  0.5344
 8824SOL    HW235068   4.376   1.022   0.929 -2.8553  1.4535  3.4958
 8824SOL    HW335069   4.381   1.150   0.849  0.0228 -0.0610  1.0543
 8824SOL    MW435070   4.412   1.099   0.913 -0.6789 -0.0930 -1.0115
 8825SOL     OW35071   5.855   5.966   5.433 -0.1561  0.0742  0.2863
 8825SOL    HW235072   5.774   6.002   5.398 -0.1016  0.0660  0.1528
 8825SOL    HW335073   5.827   5.894   5.490 -0.1928 -0.5617 -0.5226
 8825SOL    MW435074   5.840   5.961   5.436  0.1398  0.0494 -0.2128
 8826SOL     OW35075   3.822   4.301   2.916  0.7634  0.0672 -0.0339
 8826SOL    HW235076   3.807   4.238   2.987  0.8653  0.9686  0.8107
 8826SOL    HW335077   3.917   4.303   2.905  0.6592 -1.4961 -1.5445
 8826SOL    MW435078   3.832   4.293   2.924 -0.6353 -0.2579  0.0242
 8827SOL     OW35079   1.351   6.159   2.186 -0.0869 -0.4590 -0.1502
 8827SOL    HW235080   1.340   6.084   2.127  0.7442 -0.1939 -0.6529
 8827SOL    HW335081   1.264   6.200   2.188 -0.0265 -0.2071 -1.5689
 8827SOL    MW435082   1.338   6.155   2.178  0.0755  0.0110  0.4132
 8828SOL     OW35083   2.712   0.057   0.455 -0.3179 -0.3813 -0.0496
 8828SOL    HW235084   2.724   0.141   0.500 -2.1845  0.3596 -0.8230
 8828SOL    HW335085   2.789   0.050   0.398  0.1589  0.5207  0.4535
 8828SOL    MW435086   2.724   0.067   0.454 -0.5171  0.6257 -0.1942
 8829SOL     OW35087   6.222   5.769   1.315  1.0322  0.1731  0.3550
 8829SOL    HW235088   6.206   5.680   1.347  1.0853 -0.6473 -1.7232
 8829SOL    HW335089   6.172   5.826   1.373  2.4337 -1.0199  2.8559
 8829SOL    MW435090   6.213   5.765   1.327  0.1652  0.1959  0.2225
 8830SOL     OW35091   4.906   2.732   2.650  0.3762  0.0323 -0.0053
 8830SOL    HW235092   4.811   2.739   2.641  0.4377  0.4890 -0.3312
 8830SOL    HW335093   4.940   2.790   2.583  0.8935 -0.4903 -0.2053
 8830SOL    MW435094   4.898   2.740   2.640  0.5111 -0.1788 -0.4488
 8831SOL     OW35095   0.857   2.385   5.206  0.0243 -0.2647  0.2698
 8831SOL    HW235096   0.926   2.395   5.140 -1.5348 -0.6250 -1.4754
 8831SOL    HW335097   0.858   2.292   5.228  0.5268 -0.1488  0.7823
 8831SOL    MW435098   0.866   2.374   5.200  0.1109 -0.3331  0.1669
 8832SOL     OW35099   4.772   3.712   6.339  0.4030  0.7830  0.1008
 8832SOL    HW235100   4.817   3.729   6.422  0.1272 -0.6177  0.5709
 8832SOL    HW335101   4.827   3.647   6.296 -0.4860  0.0029  0.1110
 8832SOL    MW435102   4.785   3.705   6.345  0.2174 -1.1275 -0.0056
 8833SOL     OW35103   4.728   0.104   1.693  0.3298  0.1423 -0.4894
 8833SOL    HW235104   4.642   0.069   1.671 -0.0119  0.9644 -0.5303
 8833SOL    HW335105   4.751   0.062   1.776 -1.7382  2.4918  1.4410
 8833SOL    MW435106   4.720   0.094   1.701  0.1149  0.0147  0.5931
 8834SOL     OW35107   3.370   3.162   3.526  0.4673 -0.3920 -0.0798
 8834SOL    HW235108   3.349   3.230   3.462  0.7130  0.0966  0.3504
 8834SOL    HW335109   3.321   3.086   3.496  0.3303 -0.0827 -0.6727
 8834SOL    MW435110   3.361   3.161   3.513  0.1874 -0.8003  0.8751
 8835SOL     OW35111   5.852   4.844   5.846 -0.0782  0.1599 -0.8760
 8835SOL    HW235112   5.758   4.827   5.846  0.1049 -1.0398  0.6113
 8835SOL    HW335113   5.860   4.934   5.877 -0.7204  0.0494 -0.3631
 8835SOL    MW435114   5.841   4.853   5.850  0.6096 -0.1594  0.5811
 8836SOL     OW35115   5.756   4.583   0.104  0.4017  0.3520 -0.3941
 8836SOL    HW235116   5.777   4.499   0.145 -0.3008  0.4250  0.1213
 8836SOL    HW335117   5.727   4.560   0.016  1.3842  0.1543 -0.6759
 8836SOL    MW435118   5.755   4.569   0.098  0.3287 -0.4749  0.0356
 8837SOL     OW35119   4.029   1.899   5.095 -0.2007  0.3350  0.2750
 8837SOL    HW235120   3.949   1.947   5.070 -0.2340  0.3384  0.3887
 8837SOL    HW335121   4.079   1.962   5.147  0.5130  0.8032 -0.9232
 8837SOL    MW435122   4.025   1.914   5.099  1.1878  0.1792  0.1345
 8838SOL     OW35123   3.772   1.359   1.106  0.3388  0.6710 -0.2283
 8838SOL    HW235124   3.680   1.342   1.086 -0.2173 -0.4352  2.6891
 8838SOL    HW335125   3.821   1.304   1.045 -1.0424 -0.6820 -0.1803
 8838SOL    MW435126   3.766   1.349   1.095 -0.2826 -0.0657  0.1532
 8839SOL     OW35127   3.039   1.572   0.436 -0.6019 -0.2445 -0.9163
 8839SOL    HW235128   3.114   1.524   0.400 -0.8723 -0.1430 -1.6229
 8839SOL    HW335129   2.972   1.506   0.448 -0.6227 -0.2210 -0.9034
 8839SOL    MW435130   3.040   1.557   0.433 -0.1791  0.3543 -0.2728
 8840SOL     OW35131   3.091   3.392   4.782  0.1559 -0.4611 -0.2981
 8840SOL    HW235132   3.088   3.305   4.822  0.9248 -0.5627 -0.4453
 8840SOL    HW335133   3.006   3.402   4.739  0.1592 -1.2393 -0.4964
 8840SOL    MW435134   3.079   3.382   4.782  0.5009  0.2730  0.1802
 8841SOL     OW35135   6.319   2.125   5.107 -0.2301 -0.3742 -0.2039
 8841SOL    HW235136   6.237   2.174   5.120 -0.4276 -0.8964  0.5735
 8841SOL    HW335137   6.298   2.060   5.040  0.5448  1.7453 -2.6881
 8841SOL    MW435138   6.305   2.123   5.100 -0.0368 -0.2342  0.7769
 8842SOL     OW35139   6.146   3.487   5.958  0.2964  0.0052 -0.2607
 8842SOL    HW235140   6.220   3.515   6.013 -0.9974  1.9297  0.6064
 8842SOL    HW335141   6.126   3.399   5.989  1.0472  0.1801  0.7880
 8842SOL    MW435142   6.153   3.479   5.970 -0.4689 -0.5358  0.2348
 8843SOL     OW35143   1.508   0.921   5.114 -0.6693  0.2383 -0.1445
 8843SOL    HW235144   1.427   0.965   5.138 -0.3132  1.6241 -1.3176
 8843SOL    HW335145   1.561   0.922   5.193 -1.1748  0.7737  0.1925
 8843SOL    MW435146   1.505   0.927   5.127  0.3671  0.2075 -0.0501
 8844SOL     OW35147   1.546   4.629   0.198  0.4227 -0.2142  0.2977
 8844SOL    HW235148   1.554   4.659   0.108  0.0010  1.3805  0.7579
 8844SOL    HW335149   1.553   4.534   0.192 -0.3640 -0.2047 -1.5086
 8844SOL    MW435150   1.548   4.620   0.186 -0.0224  0.0414 -0.2032
 8845SOL     OW35151   3.021   4.357   0.215  0.1573 -0.0033 -0.1562
 8845SOL    HW235152   2.950   4.422   0.213 -0.4586 -0.6806 -0.7838
 8845SOL    HW335153   3.096   4.403   0.177 -0.4068  0.1912 -1.0541
 8845SOL    MW435154   3.021   4.372   0.210  0.4355 -0.3509 -0.1126
 8846SOL     OW35155   0.388   2.988   5.854 -0.4964  0.1447  0.5388
 8846SOL    HW235156   0.376   3.081   5.836 -0.8560 -0.0798 -0.4394
 8846SOL    HW335157   0.426   2.953   5.773  0.8248 -0.3366  1.3302
 8846SOL    MW435158   0.392   2.996   5.841 -0.5139  0.3645 -0.2562
 8847SOL     OW35159   0.848   1.558   0.481 -0.5517 -0.3577 -0.4195
 8847SOL    HW235160   0.775   1.534   0.537 -0.7658  0.7131 -0.2257
 8847SOL    HW335161   0.823   1.526   0.394 -0.0432 -2.3671  0.1281
 8847SOL    MW435162   0.835   1.551   0.477  0.1807 -0.2681 -0.0518
 8848SOL     OW35163   4.562   6.204   1.806  0.1336  0.2401 -0.2551
 8848SOL    HW235164   4.517   6.209   1.891  0.0350  1.8516 -0.3830
 8848SOL    HW335165   4.621   6.129   1.816 -0.9164 -0.5180  0.7065
 8848SOL    MW435166   4.564   6.195   1.819  1.0355  0.2727  0.1730
 8849SOL     OW35167   3.406   0.888   3.559 -0.2984  0.0858 -0.8482
 8849SOL    HW235168   3.449   0.816   3.513 -1.8552 -0.4433 -1.5309
 8849SOL    HW335169   3.389   0.953   3.490 -0.1191  0.5321 -0.4812
 8849SOL    MW435170   3.410   0.887   3.544  0.5634 -0.0323 -0.7421
 8850SOL     OW35171   5.989   0.516   0.933 -0.5749  0.6437  0.2310
 8850SOL    HW235172   6.019   0.559   1.013 -0.2257 -1.6766  1.4529
 8850SOL    HW335173   6.064   0.520   0.874 -0.8039  2.3063  0.0155
 8850SOL    MW435174   6.003   0.522   0.936  0.3562 -0.3535 -0.0309
 8851SOL     OW35175   1.454   1.874   0.793  0.1431 -0.0196  0.3457
 8851SOL    HW235176   1.512   1.864   0.868 -1.0046 -0.0383  1.2677
 8851SOL    HW335177   1.370   1.900   0.831 -1.0055 -1.8861 -0.7276
 8851SOL    MW435178   1.451   1.876   0.808 -0.1041 -0.3468  0.3187
 8852SOL     OW35179   5.743   3.165   4.744  0.2976 -0.3947 -0.1618
 8852SOL    HW235180   5.754   3.230   4.674 -1.2486 -1.8706 -1.8970
 8852SOL    HW335181   5.665   3.192   4.791 -0.5662 -1.1117 -1.1197
 8852SOL    MW435182   5.734   3.177   4.741 -0.0909  0.5526  0.0065
 8853SOL     OW35183   3.738   1.284   4.109  0.1048 -0.3614  0.1853
 8853SOL    HW235184   3.692   1.341   4.170 -1.5511  0.2024 -1.4977
 8853SOL    HW335185   3.734   1.197   4.149 -1.9415 -0.2142  0.3841
 8853SOL    MW435186   3.731   1.280   4.123  0.0010  0.1568 -0.2062
 8854SOL     OW35187   5.256   2.360   5.713 -0.1534 -0.2000  0.3078
 8854SOL    HW235188   5.173   2.323   5.686  0.3656 -0.3121 -1.2184
 8854SOL    HW335189   5.237   2.404   5.797 -1.4705 -1.1467  0.5279
 8854SOL    MW435190   5.243   2.361   5.721 -0.3101  0.0531 -0.1485
 8855SOL     OW35191   3.478   6.286   5.586 -0.1334  0.4448 -0.2165
 8855SOL    HW235192   3.517   6.278   5.499  0.9374 -0.8076  0.3437
 8855SOL    HW335193   3.551   6.276   5.646 -1.0805 -0.3302  0.8526
 8855SOL    MW435194   3.493   6.283   5.582  0.1945 -0.0228 -0.4946
 8856SOL     OW35195   5.993   0.661   4.989 -0.0320 -0.0784 -0.3356
 8856SOL    HW235196   6.062   0.613   5.036 -0.5620  0.4450  1.0166
 8856SOL    HW335197   6.032   0.683   4.904  1.7949  0.9755  0.7239
 8856SOL    MW435198   6.007   0.657   4.984  0.5859  0.2547 -0.5745
 8857SOL     OW35199   1.541   4.419   2.501 -0.1838  0.2196  0.1811
 8857SOL    HW235200   1.623   4.443   2.459  1.5268 -2.3034  1.8266
 8857SOL    HW335201   1.564   4.405   2.593 -1.8801 -2.7916  0.2661
 8857SOL    MW435202   1.555   4.420   2.507 -0.2438 -0.3384  0.1468
 8858SOL     OW35203   1.779   3.322   4.033  0.4887 -0.7525 -0.0451
 8858SOL    HW235204   1.844   3.254   4.018 -0.4730 -1.9619  1.0787
 8858SOL    HW335205   1.779   3.336   4.128  0.0426  0.1828 -0.1677
 8858SOL    MW435206   1.788   3.315   4.043 -0.6283  0.2588  0.8124
 8859SOL     OW35207   1.688   3.484  -0.003  0.6435 -0.0237  0.1349
 8859SOL    HW235208   1.764   3.442  -0.043  0.7696 -0.2624  0.6105
 8859SOL    HW335209   1.681   3.569  -0.046  2.0881  0.6237  1.1377
 8859SOL    MW435210   1.697   3.489  -0.014  0.2042  0.2473  0.3300
 8860SOL     OW35211   2.040   0.648   0.544  0.4421 -0.2867 -0.0093
 8860SOL    HW235212   1.971   0.692   0.595 -0.2542 -1.5062  0.1363
 8860SOL    HW335213   2.035   0.687   0.457 -0.6923 -0.6010 -0.1034
 8860SOL    MW435214   2.030   0.659   0.540  0.5425  0.1094  0.2907
 8861SOL     OW35215   6.424   0.309   0.612 -0.0656 -0.1305 -0.5484
 8861SOL    HW235216   6.431   0.269   0.699 -2.2070 -1.1371 -0.7758
 8861SOL    HW335217   6.478   0.254   0.556  0.6265  0.0116 -0.0421
 8861SOL    MW435218   6.432   0.296   0.616 -0.0741 -0.7464 -0.2752
 8862SOL     OW35219   0.715   5.512   1.407 -0.1352 -0.3415 -0.1494
 8862SOL    HW235220   0.728   5.447   1.475  0.2947  0.2326  0.3288
 8862SOL    HW335221   0.623   5.503   1.381 -0.3690 -0.3884  0.6890
 8862SOL    MW435222   0.704   5.502   1.412 -0.8813  0.3893  0.1075
 8863SOL     OW35223   4.870   5.397   2.937 -0.3685 -0.2169 -0.1901
 8863SOL    HW235224   4.840   5.483   2.968 -1.2769 -0.5751 -0.0573
 8863SOL    HW335225   4.914   5.416   2.853 -1.1552  0.2931 -0.4949
 8863SOL    MW435226   4.872   5.411   2.930  0.6293  0.0943  0.1131
 8864SOL     OW35227   2.654   1.955   5.054  0.0936  0.5063 -0.4915
 8864SOL    HW235228   2.587   1.937   4.988  1.2833 -0.6813 -1.4472
 8864SOL    HW335229   2.723   1.891   5.035  0.9427  0.8624  1.2406
 8864SOL    MW435230   2.654   1.944   5.043  0.0181  0.6029 -0.1328
 8865SOL     OW35231   1.599   0.712   0.582 -0.0242  0.1575 -0.0896
 8865SOL    HW235232   1.606   0.617   0.574 -0.2140 -0.1462  2.4413
 8865SOL    HW335233   1.506   0.730   0.567 -0.5696 -0.4744  2.1895
 8865SOL    MW435234   1.587   0.702   0.579  0.3005  0.4767  0.0258
 8866SOL     OW35235   4.799   2.053   4.183 -0.5277  0.4351  0.0082
 8866SOL    HW235236   4.762   2.075   4.268  1.6901 -0.8364  1.4073
 8866SOL    HW335237   4.808   1.957   4.185 -1.5163  0.2349 -2.1713
 8866SOL    MW435238   4.795   2.043   4.194 -0.0209 -0.4199  0.3692
 8867SOL     OW35239   1.193   2.907   5.412  0.3168  0.0953 -0.1921
 8867SOL    HW235240   1.275   2.920   5.364  1.1546 -1.2676  0.7931
 8867SOL    HW335241   1.213   2.935   5.501  0.1296 -1.4373  0.3576
 8867SOL    MW435242   1.207   2.912   5.418 -0.2997 -0.1147  0.4628
 8868SOL     OW35243   0.096   0.509   2.106 -0.1968 -0.1272  0.5619
 8868SOL    HW235244   0.138   0.462   2.033 -0.1143  0.3736  0.2804
 8868SOL    HW335245   0.071   0.594   2.068  0.6779  0.5072  1.3502
 8868SOL    MW435246   0.099   0.514   2.091 -0.3557  0.3643 -0.3542
 8869SOL     OW35247   3.482   3.431   4.946  0.3660 -0.2001 -0.5516
 8869SOL    HW235248   3.466   3.411   4.854  1.2796 -1.4665 -0.4640
 8869SOL    HW335249   3.406   3.482   4.973  0.1321  0.2753 -2.0271
 8869SOL    MW435250   3.470   3.435   4.938  0.4985 -0.0256 -0.1887
 8870SOL     OW35251   1.383   3.877   6.341  0.3742 -0.5723  0.7347
 8870SOL    HW235252   1.356   3.797   6.385  2.7089 -1.6662  0.3059
 8870SOL    HW335253   1.324   3.945   6.377 -1.6116 -2.4065  1.1509
 8870SOL    MW435254   1.372   3.876   6.352  0.5294 -0.0498  0.6207
 8871SOL     OW35255   1.316   0.731   4.725  0.0206 -0.0106  0.1235
 8871SOL    HW235256   1.300   0.695   4.638  0.8527 -0.7885  0.2832
 8871SOL    HW335257   1.400   0.695   4.751  1.6698  3.1573 -0.2940
 8871SOL    MW435258   1.325   0.721   4.717  0.3146 -0.3578  0.1534
 8872SOL     OW35259   3.502   0.957   6.243  0.0674 -0.1793 -0.2137
 8872SOL    HW235260   3.517   1.051   6.236  1.3596 -0.3650 -0.1738
 8872SOL    HW335261   3.453   0.935   6.163  0.7616  0.3479 -0.8026
 8872SOL    MW435262   3.498   0.966   6.231  0.3665  0.4209 -0.0432
 8873SOL     OW35263   4.405   5.350   2.708 -0.2208 -0.3128  0.3854
 8873SOL    HW235264   4.501   5.353   2.703 -0.1807  0.8100  1.3891
 8873SOL    HW335265   4.386   5.267   2.750  0.3207 -0.5628  0.1483
 8873SOL    MW435266   4.415   5.340   2.713 -0.0487 -0.1531 -0.0296
 8874SOL     OW35267   3.502   3.091   2.788 -0.1388 -0.0587 -0.2219
 8874SOL    HW235268   3.510   3.135   2.873  0.7110  1.1918 -0.9295
 8874SOL    HW335269   3.592   3.064   2.767 -0.7741 -3.8676  1.0103
 8874SOL    MW435270   3.515   3.093   2.797  0.0106  0.1558 -0.0540
 8875SOL     OW35271   3.348   5.818   0.788  0.3275  0.2721 -0.6972
 8875SOL    HW235272   3.324   5.811   0.696  0.4998 -1.2095 -0.6638
 8875SOL    HW335273   3.443   5.805   0.789  0.3477  0.4445 -0.3313
 8875SOL    MW435274   3.357   5.815   0.776  0.2345 -0.0016 -0.5471
 8876SOL     OW35275   1.276   0.645   0.495 -0.4101  0.1990 -0.0303
 8876SOL    HW235276   1.244   0.557   0.516  0.7636 -0.1240  0.5570
 8876SOL    HW335277   1.198   0.698   0.482 -1.1481 -1.2130 -1.6462
 8876SOL    MW435278   1.262   0.640   0.496  0.2868  1.3486 -0.2349
 8877SOL     OW35279   0.986   2.676   5.073 -0.2532 -0.0088 -0.1481
 8877SOL    HW235280   0.915   2.729   5.038 -0.4452 -0.2056 -0.0584
 8877SOL    HW335281   1.066   2.724   5.050 -0.4608  0.8203  0.7581
 8877SOL    MW435282   0.987   2.689   5.066 -0.1920 -0.4208 -0.1867
 8878SOL     OW35283   3.511   6.298   0.715  0.2830  0.0657 -0.2949
 8878SOL    HW235284   3.465   6.252   0.644  1.2468  0.2732 -1.0727
 8878SOL    HW335285   3.549   6.375   0.673  1.6464 -0.2900  0.2218
 8878SOL    MW435286   3.510   6.302   0.700  0.3163 -0.6855 -0.0747
 8879SOL     OW35287   0.930   2.435   0.861  0.1339  0.3320  0.2165
 8879SOL    HW235288   0.858   2.491   0.891 -1.4416 -0.5901 -1.6409
 8879SOL    HW335289   0.975   2.408   0.942 -1.2895  1.3368  1.3955
 8879SOL    MW435290   0.926   2.439   0.876 -0.1235  0.8374  0.9013
 8880SOL     OW35291   3.105   3.423   3.502 -0.2660  0.8994 -0.3245
 8880SOL    HW235292   3.163   3.453   3.573 -1.0975  1.4879  0.1208
 8880SOL    HW335293   3.165   3.386   3.437  0.6542  1.7799 -0.0206
 8880SOL    MW435294   3.121   3.422   3.503  0.4202 -0.6234  0.4115
 8881NA      NA35295   1.446   5.306   3.797  0.7773 -0.0492  0.0645
 8882NA      NA35296   3.238   4.580   1.149 -0.3846  0.5620 -0.3309
 8883NA      NA35297   3.374   4.914   5.243 -0.2249 -0.2796 -0.0525
 8884NA      NA35298   3.218   0.559   0.531  0.0824 -0.4394 -0.0283
 8885NA      NA35299   5.596   1.418   2.978  0.1392 -0.1364  0.4100
 8886NA      NA35300   5.426   1.752   3.887 -0.3861 -0.1662 -0.3995
 8887NA      NA35301   2.542   4.299   0.425  0.5404 -0.7814 -0.6987
   6.42840   6.42840   6.42840
