A-SYNC WITH LIG-47 in water
35301
  121NASP     N    1   0.771   0.076   6.257  0.1042  0.9266 -0.4421
  121NASP    H1    2   0.712   0.157   6.264  0.5952  1.5251 -2.6995
  121NASP    H2    3   0.833   0.082   6.178  0.2755 -0.7973 -0.4936
  121NASP    H3    4   0.839   0.053   6.328  1.5370 -0.0844 -2.0657
  121NASP    CA    5   0.683  -0.041   6.225 -0.4003 -0.7490  0.3164
  121NASP    HA    6   0.608  -0.051   6.303  1.0702 -2.9216  1.5606
  121NASP    CB    7   0.604  -0.016   6.100 -0.5159  0.3956  0.5852
  121NASP   HB1    8   0.547   0.075   6.119 -0.6538  0.3390  0.4408
  121NASP   HB2    9   0.533  -0.098   6.092 -1.5508  1.3888 -0.8116
  121NASP    CG   10   0.680   0.018   5.975  0.2149  1.5407  0.3411
  121NASP   OD1   11   0.807   0.023   5.963  0.1176 -0.4836 -0.7291
  121NASP   OD2   12   0.620   0.034   5.870  0.3498 -0.1775  0.1476
  121NASP     C   13   0.753  -0.173   6.229 -0.0477  0.0449 -0.4458
  121NASP     O   14   0.876  -0.173   6.202  0.5031  0.4467 -0.6880
  122ASN      N   15   0.686  -0.282   6.248  0.1531 -0.2383 -0.3727
  122ASN      H   16   0.586  -0.279   6.263  0.2802 -1.3587  0.9175
  122ASN     CA   17   0.737  -0.414   6.232 -0.4152 -0.0086 -0.3166
  122ASN     HA   18   0.837  -0.412   6.275  0.2651  0.4982 -1.8339
  122ASN     CB   19   0.653  -0.516   6.310 -0.1654 -0.4782 -1.2525
  122ASN    HB1   20   0.703  -0.611   6.290 -0.3626 -0.5887 -1.2282
  122ASN    HB2   21   0.556  -0.516   6.260  0.8249  0.5015 -3.2874
  122ASN     CG   22   0.629  -0.494   6.454  0.0854 -0.1672 -0.3504
  122ASN    OD1   23   0.704  -0.425   6.528  0.4946 -0.1658  0.3700
  122ASN    ND2   24   0.528  -0.550   6.518  0.4263  0.5377 -0.3541
  122ASN   HD21   25   0.510  -0.536   6.616 -0.3882 -0.7880 -0.2921
  122ASN   HD22   26   0.468  -0.615   6.470 -0.0772  0.8910 -0.2108
  122ASN      C   27   0.756  -0.462   6.085  0.2452 -0.5655 -0.6146
  122ASN      O   28   0.673  -0.438   5.999 -0.4716  0.0960  0.5293
  123GLU      N   29   0.870  -0.527   6.055 -0.4201 -0.6098 -0.6223
  123GLU      H   30   0.920  -0.552   6.139 -3.3307  1.2826  1.8661
  123GLU     CA   31   0.908  -0.587   5.923 -0.0460 -0.2249  0.1303
  123GLU     HA   32   0.888  -0.515   5.844  2.2767  0.9336  0.5188
  123GLU     CB   33   1.055  -0.620   5.909 -0.5109 -0.2389 -0.4017
  123GLU    HB1   34   1.079  -0.667   5.814  0.9193 -2.3653  0.9138
  123GLU    HB2   35   1.095  -0.675   5.995  0.0758  1.2090  0.2784
  123GLU     CG   36   1.135  -0.495   5.904  0.3269  0.8425 -0.0052
  123GLU    HG1   37   1.099  -0.412   5.965 -0.5314  0.7350 -0.3468
  123GLU    HG2   38   1.130  -0.459   5.801 -1.6167 -2.7659 -1.3560
  123GLU     CD   39   1.279  -0.516   5.942  0.7576 -0.6830  0.2561
  123GLU    OE1   40   1.367  -0.475   5.859 -1.1799 -0.0025  0.0946
  123GLU    OE2   41   1.315  -0.547   6.057  0.1941 -0.5458 -0.0593
  123GLU      C   42   0.827  -0.714   5.904 -0.3996 -0.1401  0.2039
  123GLU      O   43   0.830  -0.801   5.996  0.3095  0.4122  0.0853
  124ALA      N   44   0.780  -0.737   5.778  0.4831 -0.0843  0.1350
  124ALA      H   45   0.785  -0.661   5.712 -1.2179  2.3947  2.5786
  124ALA     CA   46   0.701  -0.847   5.737  0.6237 -0.3607  0.2594
  124ALA     HA   47   0.619  -0.867   5.807  0.1250  0.9598  0.0874
  124ALA     CB   48   0.650  -0.813   5.601 -0.0637  0.0482  0.0064
  124ALA    HB1   49   0.582  -0.729   5.588 -0.1286 -0.3627 -3.0740
  124ALA    HB2   50   0.604  -0.894   5.545 -0.3409  0.2392 -0.0444
  124ALA    HB3   51   0.737  -0.791   5.539 -1.0134 -1.0503 -1.7735
  124ALA      C   52   0.782  -0.977   5.744 -0.1382  0.1950  0.3192
  124ALA      O   53   0.902  -0.985   5.705  0.6969 -0.3230 -0.1079
  125TYR      N   54   0.728  -1.087   5.782 -0.2707  0.4186 -0.4670
  125TYR      H   55   0.630  -1.084   5.807 -0.4495  0.4014 -1.1378
  125TYR     CA   56   0.798  -1.223   5.796  0.2035  0.1188 -0.2642
  125TYR     HA   57   0.904  -1.211   5.774  0.7978 -2.1139  1.0423
  125TYR     CB   58   0.789  -1.281   5.945 -0.1515 -0.0548  0.8691
  125TYR    HB1   59   0.825  -1.217   6.025 -0.7786 -1.4626  2.3489
  125TYR    HB2   60   0.863  -1.361   5.947  2.9967  2.6451  0.8898
  125TYR     CG   61   0.648  -1.329   5.984  0.0302 -0.5078  0.4661
  125TYR    CD1   62   0.560  -1.232   6.046  0.1359  1.0054 -0.4865
  125TYR    HD1   63   0.592  -1.129   6.054 -0.6148  1.1934  0.3542
  125TYR    CE1   64   0.437  -1.277   6.106  0.4365  0.7574 -0.4695
  125TYR    HE1   65   0.372  -1.203   6.151 -1.8034 -1.3098 -0.1160
  125TYR     CZ   66   0.403  -1.414   6.096  0.1981  0.0627  0.0521
  125TYR     OH   67   0.298  -1.464   6.166 -0.3247 -0.0684 -0.2322
  125TYR     HH   68   0.240  -1.389   6.182  0.4122  0.2815  0.8925
  125TYR    CE2   69   0.493  -1.503   6.033  0.2377  0.1529 -0.0213
  125TYR    HE2   70   0.464  -1.607   6.045 -1.5688  0.7450  1.2047
  125TYR    CD2   71   0.608  -1.464   5.967  0.1851  0.1377 -1.1634
  125TYR    HD2   72   0.676  -1.537   5.927  0.2093 -0.7281  0.3886
  125TYR      C   73   0.750  -1.316   5.686 -0.4766  0.1114  0.1106
  125TYR      O   74   0.632  -1.313   5.656  0.3784 -0.3252  0.0493
  126GLU      N   75   0.839  -1.405   5.631 -0.1491 -0.6447  0.4523
  126GLU      H   76   0.936  -1.397   5.656  0.3303  0.2897 -1.4785
  126GLU     CA   77   0.793  -1.519   5.545  0.5797  0.4374  0.1177
  126GLU     HA   78   0.709  -1.487   5.483  1.0697 -1.5552 -1.6698
  126GLU     CB   79   0.912  -1.569   5.451  0.1940  0.4923 -0.5867
  126GLU    HB1   80   0.881  -1.652   5.387 -0.6115  2.2260 -2.5508
  126GLU    HB2   81   0.991  -1.614   5.511 -1.2420 -1.9067 -0.3462
  126GLU     CG   82   0.975  -1.470   5.358  0.6031 -0.1388 -0.2821
  126GLU    HG1   83   0.900  -1.426   5.292 -0.6468 -1.3432  0.2630
  126GLU    HG2   84   1.046  -1.529   5.300 -0.2731 -1.5824  0.0650
  126GLU     CD   85   1.066  -1.367   5.423  0.0195 -0.0791  0.1804
  126GLU    OE1   86   1.067  -1.252   5.377  0.0170  0.1061  0.0780
  126GLU    OE2   87   1.161  -1.410   5.497  0.6182  0.0355 -0.2202
  126GLU      C   88   0.732  -1.639   5.621  0.0926 -0.8800  0.0527
  126GLU      O   89   0.756  -1.652   5.739  0.3183 -0.1627 -1.0060
  127MET      N   90   0.653  -1.718   5.549  0.3434 -0.4424 -0.3920
  127MET      H   91   0.623  -1.685   5.459 -0.9258 -0.2163  0.0911
  127MET     CA   92   0.578  -1.830   5.608  0.9244  0.0810 -0.7222
  127MET     HA   93   0.514  -1.791   5.687  0.6574 -0.2784 -0.7638
  127MET     CB   94   0.492  -1.883   5.493 -0.4325 -0.3363 -0.5323
  127MET    HB1   95   0.454  -1.983   5.516 -0.8598  0.0730  0.5998
  127MET    HB2   96   0.554  -1.893   5.404 -0.6144 -0.5438 -0.6388
  127MET     CG   97   0.377  -1.794   5.460  0.0932  0.3018 -0.3900
  127MET    HG1   98   0.340  -1.820   5.360 -1.4333  1.0498 -0.0582
  127MET    HG2   99   0.417  -1.693   5.454 -0.1493  0.3337 -1.8194
  127MET     SD  100   0.245  -1.806   5.586  0.2686 -0.5583 -0.1786
  127MET     CE  101   0.174  -1.967   5.534  0.2127  0.2964  0.0171
  127MET    HE1  102   0.143  -2.009   5.630 -1.1803  0.7378 -0.2211
  127MET    HE2  103   0.241  -2.030   5.475 -3.4233 -3.2546 -0.6986
  127MET    HE3  104   0.083  -1.941   5.481 -0.1877  0.7019  0.8812
  127MET      C  105   0.671  -1.943   5.661  0.6465 -0.4916  1.0392
  127MET      O  106   0.788  -1.949   5.623  0.2283  0.1806  0.4076
  128PRO      N  107   0.608  -2.037   5.732  0.0185 -0.4421 -0.1245
  128PRO     CD  108   0.478  -2.022   5.806 -0.2617  0.7670 -0.1751
  128PRO    HD1  109   0.393  -2.052   5.745  0.2763 -1.3782  0.0414
  128PRO    HD2  110   0.457  -1.922   5.843 -1.0973  0.0222  1.4691
  128PRO     CG  111   0.500  -2.115   5.922 -0.0011  0.4226 -0.1040
  128PRO    HG1  112   0.407  -2.153   5.964 -0.4559  0.8417 -0.7188
  128PRO    HG2  113   0.568  -2.074   5.997  0.8811 -1.2594  0.0873
  128PRO     CB  114   0.585  -2.228   5.867  0.3068 -0.2324 -0.1895
  128PRO    HB1  115   0.623  -2.302   5.937 -0.5343 -3.3599 -2.7836
  128PRO    HB2  116   0.520  -2.289   5.804  0.9453 -0.6734 -0.4361
  128PRO     CA  117   0.681  -2.159   5.770  0.8211  0.4902  0.4995
  128PRO     HA  118   0.771  -2.136   5.827  0.4047  3.1103  0.2185
  128PRO      C  119   0.707  -2.257   5.653 -0.6496 -0.1953  0.3073
  128PRO      O  120   0.669  -2.233   5.544 -0.1210  0.4695 -0.1107
  129SER      N  121   0.782  -2.365   5.675 -0.1918  0.3507 -0.0694
  129SER      H  122   0.841  -2.362   5.756  2.7096  1.2044 -2.0492
  129SER     CA  123   0.814  -2.473   5.581  0.0520 -0.1547  0.5343
  129SER     HA  124   0.847  -2.424   5.489 -1.3205 -1.2009 -0.5593
  129SER     CB  125   0.938  -2.545   5.628 -0.3047 -0.4976 -0.1470
  129SER    HB1  126   1.028  -2.484   5.623  0.7717 -1.9425  0.8007
  129SER    HB2  127   0.970  -2.628   5.565 -0.6971 -1.3387  0.7513
  129SER     OG  128   0.922  -2.600   5.755  0.0435  0.2763  0.8263
  129SER    HG1  129   1.001  -2.650   5.775  0.5036  0.1415 -1.0992
  129SER      C  130   0.709  -2.582   5.539 -0.1455 -0.5113 -0.3567
  129SER      O  131   0.720  -2.631   5.430 -0.2477  0.3434 -0.1113
  130GLU      N  132   0.603  -2.590   5.623 -0.2294  0.5914  0.7421
  130GLU      H  133   0.601  -2.532   5.706  0.3752  1.3685  0.2327
  130GLU     CA  134   0.500  -2.695   5.598  0.3691  0.0632  0.8859
  130GLU     HA  135   0.554  -2.790   5.604  0.1111 -0.0511  1.4399
  130GLU     CB  136   0.398  -2.686   5.713 -0.7509  0.0941  0.4414
  130GLU    HB1  137   0.303  -2.641   5.682 -0.4468 -0.3610 -1.1864
  130GLU    HB2  138   0.439  -2.642   5.804  0.0715  0.9933 -0.3397
  130GLU     CG  139   0.368  -2.830   5.769 -0.8582 -0.2658 -0.0838
  130GLU    HG1  140   0.459  -2.858   5.823 -1.0349  1.5152  1.2309
  130GLU    HG2  141   0.350  -2.895   5.684  0.2631 -0.4503 -0.1963
  130GLU     CD  142   0.246  -2.840   5.860  0.3092  0.5961  0.6360
  130GLU    OE1  143   0.161  -2.748   5.869 -0.2578 -0.6761  0.3642
  130GLU    OE2  144   0.213  -2.947   5.918  0.4074  0.0298 -0.0310
  130GLU      C  145   0.432  -2.683   5.461  0.3170  0.8860 -0.2609
  130GLU      O  146   0.391  -2.787   5.413 -0.5211 -0.5800  0.0094
  131GLU      N  147   0.411  -2.569   5.392  0.1988 -0.1296 -0.0340
  131GLU      H  148   0.431  -2.483   5.441 -3.1674  0.6567  0.2048
  131GLU     CA  149   0.346  -2.564   5.259  0.7368 -1.0404  0.3040
  131GLU     HA  150   0.280  -2.650   5.247  0.3460 -0.8565  1.0884
  131GLU     CB  151   0.267  -2.427   5.232  0.1402  0.2181 -1.1177
  131GLU    HB1  152   0.342  -2.351   5.209 -0.8667  1.5309 -0.1784
  131GLU    HB2  153   0.215  -2.400   5.323  1.8757 -3.1023  1.0659
  131GLU     CG  154   0.163  -2.455   5.117 -0.4753 -0.2197  0.3800
  131GLU    HG1  155   0.078  -2.503   5.166 -0.2325 -0.3470  0.6761
  131GLU    HG2  156   0.201  -2.521   5.039  1.9585 -0.6000  1.7966
  131GLU     CD  157   0.099  -2.334   5.044  0.5361  0.1263 -0.5455
  131GLU    OE1  158   0.150  -2.219   5.059  0.1198  0.0461 -0.0155
  131GLU    OE2  159   0.014  -2.364   4.956 -0.0875  0.4030 -0.2237
  131GLU      C  160   0.452  -2.588   5.150 -0.5696 -0.5119 -0.3683
  131GLU      O  161   0.466  -2.502   5.065 -0.5272 -0.3879  0.8665
  132GLY      N  162   0.525  -2.703   5.158 -0.5612  0.3492  0.3144
  132GLY      H  163   0.501  -2.770   5.230 -3.5920  0.0750 -0.7811
  132GLY     CA  164   0.631  -2.746   5.058  0.4406 -0.4912 -0.1583
  132GLY    HA1  165   0.669  -2.661   5.003 -0.7530  0.0216 -0.2318
  132GLY    HA2  166   0.591  -2.808   4.978  1.2552  0.5748 -1.4258
  132GLY      C  167   0.751  -2.823   5.114  0.2714  0.3033  0.4901
  132GLY      O  168   0.830  -2.876   5.037  0.6123  0.3502 -0.5197
  133TYR      N  169   0.774  -2.843   5.246  0.2981  0.5370 -0.1187
  133TYR      H  170   0.716  -2.793   5.312 -1.2238 -0.0786 -0.9354
  133TYR     CA  171   0.882  -2.917   5.297 -0.7269  0.4222 -0.9241
  133TYR     HA  172   0.975  -2.872   5.261 -0.0935 -0.0989  0.0019
  133TYR     CB  173   0.881  -2.915   5.453 -0.0744 -0.4111  0.3470
  133TYR    HB1  174   0.861  -2.811   5.476  1.1655 -0.1457  0.2750
  133TYR    HB2  175   0.978  -2.955   5.481  0.9658  0.3359 -1.9137
  133TYR     CG  176   0.778  -2.988   5.537 -0.6474 -0.0317 -0.6788
  133TYR    CD1  177   0.643  -2.999   5.495  0.7392 -0.3446 -0.0622
  133TYR    HD1  178   0.617  -2.963   5.397 -0.1250  0.8862  0.5904
  133TYR    CE1  179   0.553  -3.072   5.575 -0.1772  0.0412  0.2862
  133TYR    HE1  180   0.449  -3.072   5.544 -0.0151 -1.8408 -0.3655
  133TYR     CZ  181   0.595  -3.121   5.694  0.3730  0.1011 -0.4245
  133TYR     OH  182   0.501  -3.178   5.778  0.5043 -0.2419 -0.2838
  133TYR     HH  183   0.415  -3.180   5.735 -0.5418 -1.9281  1.6980
  133TYR    CE2  184   0.723  -3.109   5.739 -0.2794  0.1245  0.2631
  133TYR    HE2  185   0.746  -3.149   5.837  0.6997 -2.1358 -0.8237
  133TYR    CD2  186   0.820  -3.039   5.665  0.5529  0.4303 -0.0661
  133TYR    HD2  187   0.923  -3.036   5.695 -0.0886  2.1436  2.2671
  133TYR      C  188   0.865  -3.063   5.255 -0.5101 -0.4184  0.0481
  133TYR      O  189   0.757  -3.104   5.214  0.4126  0.0463  0.0079
  134GLN      N  190   0.975  -3.135   5.268 -0.6445  0.2931  0.5777
  134GLN      H  191   1.062  -3.084   5.278 -0.3211 -0.1301  0.0322
  134GLN     CA  192   0.982  -3.281   5.262 -0.2850  0.1484  0.2371
  134GLN     HA  193   0.877  -3.306   5.251 -0.2499  0.1123 -0.0220
  134GLN     CB  194   1.065  -3.327   5.147 -0.5010 -0.5746  0.6167
  134GLN    HB1  195   1.084  -3.434   5.155 -1.4859 -0.7442  0.7747
  134GLN    HB2  196   1.159  -3.271   5.152 -1.7180  1.9809 -2.1060
  134GLN     CG  197   1.006  -3.288   5.003  0.1772  0.1039  0.6073
  134GLN    HG1  198   1.066  -3.340   4.928 -0.9813 -2.2659  1.2309
  134GLN    HG2  199   1.011  -3.181   4.979  0.7668 -0.6813 -3.5219
  134GLN     CD  200   0.856  -3.327   4.983 -0.3845  0.1491 -0.0744
  134GLN    OE1  201   0.809  -3.420   5.047 -0.1150  0.4601 -0.1030
  134GLN    NE2  202   0.782  -3.274   4.894 -0.2210 -0.2379  0.6660
  134GLN   HE21  203   0.688  -3.310   4.891 -0.6291  0.8696 -0.2325
  134GLN   HE22  204   0.813  -3.204   4.829 -1.5555 -1.6512 -1.6330
  134GLN      C  205   1.023  -3.351   5.389 -0.0937 -0.1622 -0.0638
  134GLN      O  206   1.110  -3.306   5.462 -0.0686  0.2376  0.2669
  135ASP      N  207   0.954  -3.460   5.415 -0.0804 -0.4993 -0.0492
  135ASP      H  208   0.900  -3.498   5.338  0.1294  0.2734 -0.5876
  135ASP     CA  209   1.004  -3.560   5.510 -0.4685  0.1950  0.1818
  135ASP     HA  210   1.017  -3.510   5.606 -3.3805 -0.5453  1.0739
  135ASP     CB  211   0.896  -3.666   5.523 -0.0921  0.1558  0.2868
  135ASP    HB1  212   0.879  -3.723   5.431 -0.5799  1.0179 -0.1720
  135ASP    HB2  213   0.799  -3.620   5.546 -1.5157 -1.2356 -2.4345
  135ASP     CG  214   0.932  -3.775   5.626  0.6182  0.4657  0.2035
  135ASP    OD1  215   1.029  -3.761   5.710 -0.3052  0.1198  0.7718
  135ASP    OD2  216   0.856  -3.869   5.636  0.4653  0.0989  0.8403
  135ASP      C  217   1.137  -3.628   5.459  0.2193 -0.0340  0.6772
  135ASP      O  218   1.169  -3.622   5.341  0.0296 -0.2573  0.2299
  136TYR      N  219   1.214  -3.692   5.544 -0.6183  0.3415  0.4673
  136TYR      H  220   1.178  -3.704   5.638  3.4881 -3.0583  1.9329
  136TYR     CA  221   1.353  -3.745   5.516  0.4299 -0.3070  0.4084
  136TYR     HA  222   1.417  -3.670   5.470  1.1535 -2.0475 -1.5943
  136TYR     CB  223   1.430  -3.786   5.639 -0.1079 -0.1587 -0.5985
  136TYR    HB1  224   1.383  -3.862   5.701 -0.2524  1.2364  1.0934
  136TYR    HB2  225   1.422  -3.707   5.714 -0.3132 -0.0120 -0.7755
  136TYR     CG  226   1.575  -3.818   5.620 -0.3487 -0.2879  0.5526
  136TYR    CD1  227   1.671  -3.706   5.618  0.2714 -0.0014  0.5743
  136TYR    HD1  228   1.643  -3.607   5.650  0.0880 -0.3631  1.5730
  136TYR    CE1  229   1.805  -3.724   5.575 -0.3880 -0.3371  0.1379
  136TYR    HE1  230   1.884  -3.651   5.571  0.4361 -1.1988  0.1955
  136TYR     CZ  231   1.845  -3.857   5.529  0.1859 -0.1167 -0.8761
  136TYR     OH  232   1.971  -3.874   5.477  0.0841  0.5628 -0.2933
  136TYR     HH  233   2.000  -3.785   5.456  0.3034  1.0879  2.0018
  136TYR    CE2  234   1.758  -3.962   5.532  0.3319  0.0097 -0.6306
  136TYR    HE2  235   1.790  -4.061   5.503 -0.0761 -0.1714 -0.4771
  136TYR    CD2  236   1.625  -3.941   5.572 -0.0491  0.2562 -0.6246
  136TYR    HD2  237   1.565  -4.030   5.579 -0.6279  0.5762 -1.4457
  136TYR      C  238   1.361  -3.866   5.415  0.2400  0.4253 -0.2588
  136TYR      O  239   1.328  -3.982   5.457  0.0121 -0.2059  0.5388
  137GLU      N  240   1.406  -3.840   5.287 -0.3110  0.3178 -0.7429
  137GLU      H  241   1.423  -3.744   5.261  0.0773  0.4374 -0.0914
  137GLU     CA  242   1.439  -3.937   5.183 -0.5161  0.1232  0.4487
  137GLU     HA  243   1.444  -4.035   5.230  1.4921 -1.8173 -3.3204
  137GLU     CB  244   1.332  -3.944   5.077 -0.1772  0.3475  0.2976
  137GLU    HB1  245   1.325  -3.856   5.013 -3.4580 -0.8993 -1.2743
  137GLU    HB2  246   1.237  -3.947   5.129 -0.7153  0.1477 -0.6694
  137GLU     CG  247   1.345  -4.065   4.984 -0.0592 -0.1753  0.1258
  137GLU    HG1  248   1.313  -4.152   5.040  4.5854 -0.4702  2.8756
  137GLU    HG2  249   1.446  -4.067   4.943 -1.3528  0.2746 -3.3641
  137GLU     CD  250   1.254  -4.063   4.868 -0.5369  0.3073  0.4700
  137GLU    OE1  251   1.210  -3.958   4.821  0.3603  0.4681  0.6434
  137GLU    OE2  252   1.239  -4.172   4.805  0.0141 -0.0082  0.1027
  137GLU      C  253   1.580  -3.915   5.130 -0.7457  0.1492  0.3560
  137GLU      O  254   1.611  -3.809   5.091  0.5613 -0.1653  0.2252
  138PRO      N  255   1.676  -4.017   5.137 -0.0910 -0.0310 -0.2017
  138PRO     CD  256   1.656  -4.157   5.181  1.0120 -1.1021  0.1801
  138PRO    HD1  257   1.561  -4.189   5.138  0.0057 -0.3912  1.7808
  138PRO    HD2  258   1.652  -4.150   5.290 -1.7562  0.2924  0.0566
  138PRO     CG  259   1.781  -4.234   5.137 -0.8091  0.1569  1.0849
  138PRO    HG1  260   1.767  -4.256   5.031 -0.2553  0.0352  1.0336
  138PRO    HG2  261   1.806  -4.321   5.197 -2.0212 -0.6917  0.4158
  138PRO     CB  262   1.890  -4.122   5.150 -0.4806  0.1674 -0.5908
  138PRO    HB1  263   1.912  -4.112   5.256 -0.2195 -1.3733 -0.4712
  138PRO    HB2  264   1.978  -4.146   5.090 -1.5550 -0.7960 -1.8620
  138PRO     CA  265   1.819  -3.991   5.110 -0.3582  0.2550 -0.3187
  138PRO     HA  266   1.856  -3.923   5.187  0.7541 -1.6670  0.9331
  138PRO      C  267   1.842  -3.949   4.963 -0.5943  0.4330 -0.6670
  138PRO      O  268   1.753  -3.985   4.875  0.6992  0.1609 -0.7871
  139GLU      N  269   1.950  -3.885   4.923  0.3147 -1.0180 -0.2524
  139GLU      H  270   2.012  -3.861   4.999 -0.2968  0.2404 -0.1344
  139GLU     CA  271   1.984  -3.865   4.782  0.1127 -0.6251 -0.1525
  139GLU     HA  272   1.896  -3.819   4.735 -0.8273  0.2248  2.2664
  139GLU     CB  273   2.105  -3.763   4.769 -0.5069 -0.3405  0.0259
  139GLU    HB1  274   2.106  -3.726   4.666  0.8646  0.7453  0.4141
  139GLU    HB2  275   2.198  -3.811   4.798 -0.6122 -0.2607  0.4963
  139GLU     CG  276   2.075  -3.633   4.852  0.3349  0.5857 -0.1262
  139GLU    HG1  277   2.067  -3.658   4.958  3.6200 -0.6081 -0.0468
  139GLU    HG2  278   1.986  -3.589   4.807  1.1434 -1.0244 -3.6180
  139GLU     CD  279   2.175  -3.528   4.847 -0.5589  0.0153 -0.2329
  139GLU    OE1  280   2.145  -3.415   4.886  0.6873  0.1423  0.5323
  139GLU    OE2  281   2.292  -3.549   4.807  0.5885  0.1489 -0.7437
  139GLU      C  282   2.013  -3.997   4.706  0.0020 -0.3337 -0.0697
  139GLU      O  283   2.049  -4.095   4.769  0.1947 -0.4466  0.6739
  140CALA     N  284   1.995  -3.996   4.577 -0.1266 -0.4699 -0.5701
  140CALA     H  285   1.960  -3.909   4.540 -3.2729 -0.2881  2.3318
  140CALA    CA  286   1.995  -4.111   4.492 -0.2035 -0.5096  0.3883
  140CALA    HA  287   1.934  -4.188   4.537  0.0132 -1.2394 -0.5240
  140CALA    CB  288   1.946  -4.078   4.353 -0.4914 -0.5011 -0.9768
  140CALA   HB1  289   2.006  -3.997   4.311 -0.4374  1.9814  3.2876
  140CALA   HB2  290   1.845  -4.035   4.357 -0.6458 -0.6130 -2.8785
  140CALA   HB3  291   1.947  -4.169   4.294  0.4977 -1.2170  0.1092
  140CALA     C  292   2.139  -4.161   4.484 -0.0353 -0.1538  0.2808
  140CALA   OC1  293   2.163  -4.278   4.519 -0.9442  0.4254 -0.2373
  140CALA   OC2  294   2.236  -4.092   4.444  0.0646  0.0191 -1.1452
  141L47      C  295   3.656   1.073   2.361 -0.3879 -0.1357 -0.7283
  141L47      H  296   3.763   1.076   2.386 -0.7056  0.4099  0.6512
  141L47     H1  297   3.645   1.012   2.270 -0.5124 -1.9358  0.4397
  141L47     H2  298   3.607   1.018   2.442  0.2852 -2.5105 -1.8228
  141L47     C1  299   3.594   1.210   2.352 -0.3402 -0.3649 -0.0366
  141L47      O  300   3.501   1.240   2.426  0.6362  0.1707 -0.3025
  141L47      N  301   3.636   1.290   2.243 -0.1559 -0.6460 -0.3287
  141L47     C2  302   3.759   1.270   2.174  0.0283  0.0843  0.0679
  141L47     H3  303   3.761   1.181   2.109 -2.2297  2.4985 -3.6499
  141L47     H4  304   3.838   1.267   2.250 -0.7583  0.5369  0.9144
  141L47     C3  305   3.791   1.395   2.091  0.2155  0.1409  0.4604
  141L47     H5  306   3.779   1.380   1.983 -2.2945 -1.0009  0.8162
  141L47     H6  307   3.894   1.429   2.102  0.4278 -1.0314  2.5476
  141L47     C4  308   3.687   1.485   2.136 -0.2746 -0.1072  0.7541
  141L47     C5  309   3.591   1.422   2.217 -0.1551  0.3859 -0.1774
  141L47     C6  310   3.483   1.493   2.270  0.8392 -0.2272  0.3969
  141L47     H7  311   3.409   1.440   2.329  1.9094  0.4925  2.4664
  141L47     C7  312   3.473   1.625   2.249 -0.0303 -0.1212 -0.2004
  141L47     H8  313   3.395   1.685   2.294  0.7218 -0.0176  1.0231
  141L47     C8  314   3.568   1.685   2.156  0.0632 -1.1552  0.0040
  141L47     C9  315   3.677   1.617   2.103 -0.3644  0.1281  0.0091
  141L47     H9  316   3.744   1.667   2.033 -0.9797 -0.5620 -1.1166
  141L47      S  317   3.537   1.854   2.114 -0.2321  0.2890  0.3832
  141L47     O1  318   3.665   1.910   2.153 -0.0855  0.0870  1.1089
  141L47     O2  319   3.410   1.902   2.166 -0.4414 -0.0939 -0.1063
  141L47     N1  320   3.530   1.848   1.947  0.4348 -0.4828 -0.0785
  141L47    C10  321   3.541   1.975   1.872  0.3217  0.5099  0.3825
  141L47    H10  322   3.557   2.051   1.949  1.3611  1.6917 -0.9565
  141L47    H11  323   3.448   1.995   1.817 -0.1761  0.3941  1.1797
  141L47    C11  324   3.668   1.968   1.778  0.3840  0.3339  0.1145
  141L47    H12  325   3.754   1.936   1.838  0.4015  1.7977  0.9189
  141L47    H13  326   3.695   2.071   1.750 -0.4036 -0.3237 -3.5455
  141L47    C12  327   3.640   1.875   1.654  0.1934 -0.3253 -0.3007
  141L47    H14  328   3.733   1.866   1.599  1.3181  2.0350  1.0561
  141L47    H15  329   3.564   1.911   1.585 -1.8463 -2.1903  0.8049
  141L47     N2  330   3.587   1.737   1.696  0.2001 -0.0904  0.4033
  141L47    H16  331   3.600   1.672   1.617 -2.7578 -1.6948  1.0925
  141L47    H17  332   3.650   1.686   1.760 -0.6848 -0.7972  0.7226
  141L47    C13  333   3.440   1.737   1.741  0.1902  0.0663  0.3997
  141L47    H18  334   3.399   1.638   1.717 -0.5558 -0.2606  2.7580
  141L47    H19  335   3.390   1.817   1.686 -2.5302 -0.0560  2.5148
  141L47    C14  336   3.430   1.746   1.896 -0.3138  0.0560 -0.3987
  141L47    H20  337   3.331   1.772   1.938  0.7034 -1.4253  3.3937
  141L47    H21  338   3.454   1.644   1.929  0.9462  1.0049  1.8662
  142SOL     OW  339   2.521   3.067   3.092 -0.4813  0.3109 -0.0932
  142SOL    HW2  340   2.538   3.150   3.136 -2.0297 -0.1040  1.4102
  142SOL    HW3  341   2.605   3.041   3.056  0.7131  1.0953  1.9784
  142SOL    MW4  342   2.534   3.074   3.093  0.6024 -0.5012  0.1032
  143SOL     OW  343   4.796   2.272   5.246  0.3347 -0.4211 -0.0889
  143SOL    HW2  344   4.856   2.274   5.321  0.8568 -1.1627 -0.4721
  143SOL    HW3  345   4.761   2.361   5.241  0.2868 -0.3562  1.0330
  143SOL    MW4  346   4.800   2.284   5.255  0.1331 -0.4764  0.3414
  144SOL     OW  347   5.938   3.482   5.734  0.1024  0.0985 -0.2562
  144SOL    HW2  348   5.945   3.529   5.817 -1.9058 -0.5084  0.3241
  144SOL    HW3  349   5.888   3.540   5.677 -0.2267 -0.2785 -0.3637
  144SOL    MW4  350   5.932   3.496   5.738  0.1738  0.3862  0.6230
  145SOL     OW  351   1.304   1.199   6.424  0.4926  0.2605  0.4227
  145SOL    HW2  352   1.256   1.262   6.477  0.2773 -0.0127  0.5502
  145SOL    HW3  353   1.387   1.187   6.471  1.2159  1.6521 -0.4197
  145SOL    MW4  354   1.309   1.206   6.437  0.0119  0.4936  0.2113
  146SOL     OW  355   2.366   4.273   1.960 -0.0658 -0.0389  0.3495
  146SOL    HW2  356   2.274   4.280   1.989  0.5525 -0.0689  2.5377
  146SOL    HW3  357   2.389   4.181   1.976  0.3591 -0.0285 -0.1752
  146SOL    MW4  358   2.357   4.262   1.966  0.1123 -0.1230  0.0196
  147SOL     OW  359   2.970   0.568   1.428  0.9779 -0.4727 -0.0696
  147SOL    HW2  360   2.979   0.647   1.374  0.4078  0.6843  1.4571
  147SOL    HW3  361   3.041   0.575   1.492  0.9710 -1.2525  0.0227
  147SOL    MW4  362   2.980   0.580   1.429  0.4745 -0.5114  0.3663
  148SOL     OW  363   4.242   1.309   1.487 -0.4395  0.3249  0.4756
  148SOL    HW2  364   4.163   1.334   1.534 -0.0426  2.9765 -0.0826
  148SOL    HW3  365   4.211   1.260   1.410 -1.4753  0.6936  0.6557
  148SOL    MW4  366   4.228   1.306   1.483 -0.0292  0.4115 -0.3242
  149SOL     OW  367   1.432   3.829   5.588  0.4309 -0.2104  0.0555
  149SOL    HW2  368   1.517   3.787   5.576  2.0121  2.9352 -0.7154
  149SOL    HW3  369   1.445   3.888   5.662 -0.0419  2.5835 -1.9435
  149SOL    MW4  370   1.445   3.831   5.596 -0.0763 -0.4034 -0.7895
  150SOL     OW  371   1.081   0.916   4.861  0.2888  0.5535 -0.1821
  150SOL    HW2  372   1.043   0.934   4.947  1.4875  1.9101  0.0903
  150SOL    HW3  373   1.109   0.825   4.866 -0.4299  0.3579  0.5465
  150SOL    MW4  374   1.079   0.906   4.873  0.5509 -0.2383 -0.0261
  151SOL     OW  375   0.204   0.734   5.305  0.3133  0.3897  0.0216
  151SOL    HW2  376   0.113   0.712   5.284 -0.8665  1.4863  3.3358
  151SOL    HW3  377   0.255   0.661   5.271 -1.8278 -0.4322 -1.6320
  151SOL    MW4  378   0.199   0.721   5.298 -0.4877  0.8686  0.1181
  152SOL     OW  379   3.997   1.175   3.890  0.0243  0.1137  0.3984
  152SOL    HW2  380   4.049   1.203   3.966  1.1127 -0.1569 -0.2307
  152SOL    HW3  381   4.060   1.169   3.819 -1.2156  1.6606 -0.8915
  152SOL    MW4  382   4.012   1.178   3.891  0.4189  0.0356  0.3942
  153SOL     OW  383   3.159   5.606   2.977  0.0576  0.1577 -0.6744
  153SOL    HW2  384   3.127   5.666   2.910 -1.7180  0.2176  0.1617
  153SOL    HW3  385   3.088   5.543   2.989  1.5889 -1.7444 -1.0361
  153SOL    MW4  386   3.145   5.606   2.970  0.1889 -0.0656  0.0354
  154SOL     OW  387   0.503   3.595   2.383  0.2696  0.1956 -0.2754
  154SOL    HW2  388   0.578   3.546   2.349 -0.7096 -1.5201 -0.0903
  154SOL    HW3  389   0.440   3.594   2.312 -1.1389 -1.9613  0.9063
  154SOL    MW4  390   0.505   3.588   2.369 -0.3878  0.2921  0.1239
  155SOL     OW  391   6.244   3.253   1.704  1.0211 -0.3612  0.5078
  155SOL    HW2  392   6.302   3.330   1.705 -2.7341  2.8433 -0.6623
  155SOL    HW3  393   6.203   3.253   1.790 -1.0804  0.8948 -0.4086
  155SOL    MW4  394   6.246   3.263   1.715  0.3178  0.1056  0.1077
  156SOL     OW  395   5.977   2.339   4.784 -0.3175 -0.8116  0.8506
  156SOL    HW2  396   6.069   2.328   4.808  0.2926  1.2256 -0.3771
  156SOL    HW3  397   5.933   2.363   4.866  0.9826  1.9808  0.8356
  156SOL    MW4  398   5.983   2.340   4.798 -0.3941  0.1025  0.1773
  157SOL     OW  399   4.128   2.766   4.697  0.7091  0.2017  0.5028
  157SOL    HW2  400   4.222   2.781   4.710  1.1386 -1.2306 -0.7040
  157SOL    HW3  401   4.119   2.671   4.693 -0.3748  0.3346 -2.0725
  157SOL    MW4  402   4.139   2.755   4.699 -0.0334 -0.0945  0.2679
  158SOL     OW  403   0.849   0.994   1.782  0.3518 -0.1921 -0.0913
  158SOL    HW2  404   0.902   1.061   1.739 -0.5349  0.1990 -0.6058
  158SOL    HW3  405   0.913   0.933   1.818  1.2340  1.5027  1.3765
  158SOL    MW4  406   0.864   0.995   1.781 -0.3593  0.4118  0.2027
  159SOL     OW  407   2.473   5.858   2.699 -0.4739  0.1377 -0.1392
  159SOL    HW2  408   2.430   5.940   2.721 -1.1860 -0.0913 -0.6617
  159SOL    HW3  409   2.403   5.793   2.695 -0.1669 -0.1540 -1.4537
  159SOL    MW4  410   2.458   5.860   2.701  0.3789  0.6154  0.3738
  160SOL     OW  411   3.207   3.116   5.606  0.6045  0.4510  0.5157
  160SOL    HW2  412   3.251   3.034   5.628  1.5751  1.0627  0.9444
  160SOL    HW3  413   3.259   3.151   5.533 -0.2682  0.3201 -0.1874
  160SOL    MW4  414   3.220   3.110   5.599 -0.0995 -0.2781  0.3719
  161SOL     OW  415   0.794   0.288   3.498 -0.4895 -0.3557 -0.1170
  161SOL    HW2  416   0.836   0.301   3.413  0.2401 -0.0631  0.2800
  161SOL    HW3  417   0.763   0.197   3.495 -1.1886 -0.1024 -0.9948
  161SOL    MW4  418   0.796   0.278   3.486 -0.1861  0.0108 -0.4313
  162SOL     OW  419   1.364   5.440   2.591  0.4390  0.6397 -0.5038
  162SOL    HW2  420   1.315   5.411   2.514 -0.8455  1.2545  0.0596
  162SOL    HW3  421   1.395   5.359   2.631  1.8991  0.3270 -2.0986
  162SOL    MW4  422   1.362   5.425   2.586 -0.3813 -0.0382  0.4998
  163SOL     OW  423   2.712   5.881   2.552  0.2392 -0.0279 -0.1160
  163SOL    HW2  424   2.626   5.871   2.593  0.3221 -2.1465 -0.3214
  163SOL    HW3  425   2.693   5.906   2.462 -0.1502 -0.2690 -0.1026
  163SOL    MW4  426   2.698   5.883   2.546 -0.3119  0.0290 -0.0222
  164SOL     OW  427   0.256   1.921   5.134 -1.0594  0.3535  0.3549
  164SOL    HW2  428   0.324   1.901   5.069  1.7389  1.6076  2.6816
  164SOL    HW3  429   0.206   1.992   5.094 -0.1035  0.3920 -0.8733
  164SOL    MW4  430   0.259   1.927   5.120 -0.6582  0.0559  0.7391
  165SOL     OW  431   4.395   2.704   2.340 -0.0300 -0.5604  0.0349
  165SOL    HW2  432   4.490   2.696   2.350 -0.0421 -0.7699 -0.0092
  165SOL    HW3  433   4.362   2.702   2.430  0.0031 -0.5603  0.0470
  165SOL    MW4  434   4.403   2.703   2.354  0.9434  0.4136  0.4699
  166SOL     OW  435   2.241   5.656   3.742  0.0650 -0.0578 -0.3277
  166SOL    HW2  436   2.220   5.687   3.831  1.1582  0.8431 -0.3581
  166SOL    HW3  437   2.198   5.571   3.736  0.0642 -0.1939  1.1117
  166SOL    MW4  438   2.233   5.649   3.753 -0.2572  0.3904  0.9897
  167SOL     OW  439   1.954   2.330   1.869  0.0935 -0.2805 -0.4230
  167SOL    HW2  440   1.869   2.374   1.880  0.3449  0.2139 -0.4360
  167SOL    HW3  441   1.958   2.267   1.941  0.1953  0.4726  0.2363
  167SOL    MW4  442   1.943   2.327   1.880 -0.1822  0.7575 -0.2004
  168SOL     OW  443   2.974   3.475   2.267  0.2015 -0.4047  0.0281
  168SOL    HW2  444   2.893   3.443   2.307 -1.1894 -0.1942 -2.4181
  168SOL    HW3  445   2.995   3.412   2.199  0.7596  0.7574 -0.9265
  168SOL    MW4  446   2.966   3.463   2.263  0.4703  0.1980  0.4510
  169SOL     OW  447   3.630   5.825   5.948 -0.5383  0.0094  0.5484
  169SOL    HW2  448   3.624   5.854   6.039  0.9122  1.8368  0.1178
  169SOL    HW3  449   3.708   5.771   5.945  1.1357  2.2945 -0.0938
  169SOL    MW4  450   3.639   5.822   5.959 -0.4524  0.0208  0.3453
  170SOL     OW  451   4.069   3.284   0.946  0.9141 -0.8129  0.5115
  170SOL    HW2  452   4.024   3.328   1.018 -2.5338 -0.0710 -1.8747
  170SOL    HW3  453   4.140   3.344   0.922  0.3080  0.3067  1.4238
  170SOL    MW4  454   4.072   3.297   0.952  0.2951 -0.1390 -0.0210
  171SOL     OW  455   2.713   0.989   6.242  0.1211 -0.4185  0.2339
  171SOL    HW2  456   2.727   0.939   6.162  1.0829 -0.3751  0.3614
  171SOL    HW3  457   2.628   1.031   6.230 -0.2844 -1.3519 -0.2588
  171SOL    MW4  458   2.703   0.988   6.230 -0.1812  0.3923  0.2902
  172SOL     OW  459   3.984   1.985   2.340  0.0424 -0.0445 -0.3899
  172SOL    HW2  460   3.989   1.992   2.436  2.0016 -1.4018 -0.3311
  172SOL    HW3  461   3.982   2.076   2.310  0.8717  0.4375  0.9025
  172SOL    MW4  462   3.985   1.998   2.349  0.1253 -0.4051 -0.3699
  173SOL     OW  463   3.772   4.044   3.468 -0.4907  0.1077  0.3544
  173SOL    HW2  464   3.741   4.116   3.414 -0.9595 -1.6388 -1.8616
  173SOL    HW3  465   3.716   4.046   3.546 -2.3517  0.4933 -0.9327
  173SOL    MW4  466   3.761   4.054   3.471  0.6102 -0.1604 -0.0203
  174SOL     OW  467   3.389   1.496   6.330 -0.1609 -0.3115 -0.5073
  174SOL    HW2  468   3.401   1.527   6.240  1.5220 -0.8378 -0.5053
  174SOL    HW3  469   3.446   1.552   6.382  0.3847 -1.2683 -0.0547
  174SOL    MW4  470   3.398   1.507   6.325 -0.0371 -0.0254 -0.7890
  175SOL     OW  471   1.245   2.774   2.530  0.0466 -0.3142 -0.1814
  175SOL    HW2  472   1.256   2.711   2.601  0.7833 -0.5127 -0.4634
  175SOL    HW3  473   1.151   2.777   2.516 -0.0815 -0.5307  0.5731
  175SOL    MW4  474   1.234   2.766   2.537 -0.2483  0.0151 -0.5298
  176SOL     OW  475   1.598   5.461   0.125  0.6692 -0.1889 -0.3438
  176SOL    HW2  476   1.524   5.403   0.110  1.4015 -0.7062 -2.4248
  176SOL    HW3  477   1.644   5.423   0.200 -2.1569  1.2926  2.3286
  176SOL    MW4  478   1.595   5.448   0.133 -0.6154 -0.2919  0.3421
  177SOL     OW  479   3.923   2.735   3.216  0.2658  0.3817 -0.3693
  177SOL    HW2  480   3.942   2.662   3.158 -1.0030 -0.0951 -0.2240
  177SOL    HW3  481   4.001   2.790   3.213  1.4567 -1.2487 -0.0506
  177SOL    MW4  482   3.936   2.733   3.208  0.2392  0.1085 -0.0358
  178SOL     OW  483   3.420   3.792   1.150 -0.2169  0.2384  0.1768
  178SOL    HW2  484   3.388   3.717   1.200 -0.3784 -0.3077 -0.7246
  178SOL    HW3  485   3.511   3.803   1.177 -0.1463 -0.3804  0.1968
  178SOL    MW4  486   3.427   3.784   1.161  0.3243 -0.4999  0.3145
  179SOL     OW  487   0.881   5.091   1.032  0.6311 -0.0523  0.3862
  179SOL    HW2  488   0.958   5.036   1.041  0.9042  0.3145  0.2854
  179SOL    HW3  489   0.912   5.180   1.049  0.3531  0.1660 -0.2273
  179SOL    MW4  490   0.895   5.095   1.035 -0.4463 -0.5597 -0.5770
  180SOL     OW  491   6.358   4.676   2.983 -0.3034  0.1093  0.4994
  180SOL    HW2  492   6.309   4.622   2.921  0.6008  1.3650 -1.3961
  180SOL    HW3  493   6.290   4.720   3.035 -1.3221  1.6936 -1.9632
  180SOL    MW4  494   6.342   4.675   2.982  0.0984  0.7618 -0.0124
  181SOL     OW  495   5.324   1.103   2.935 -0.2307 -0.0400 -0.3548
  181SOL    HW2  496   5.325   1.176   2.873 -2.4333  0.3848  0.0351
  181SOL    HW3  497   5.372   1.033   2.891  0.4489  1.0712 -1.4533
  181SOL    MW4  498   5.330   1.104   2.921  0.3817 -0.1796 -0.1995
  182SOL     OW  499   2.895   5.768   0.713  0.1903 -0.1286  0.2399
  182SOL    HW2  500   2.963   5.798   0.653  0.1508  2.0110  1.1674
  182SOL    HW3  501   2.826   5.834   0.706 -1.0805 -1.3616  0.5630
  182SOL    MW4  502   2.895   5.781   0.704 -0.5510  0.4725  0.0521
  183SOL     OW  503   5.467   5.760   5.572 -0.0348 -0.4208  0.2858
  183SOL    HW2  504   5.512   5.681   5.539 -0.7577  0.0808 -2.0750
  183SOL    HW3  505   5.535   5.808   5.618  1.0163 -1.3287 -0.2517
  183SOL    MW4  506   5.482   5.756   5.573 -0.0473  0.0031 -0.6287
  184SOL     OW  507   1.253   3.632   1.036  0.2667  0.3998 -0.3362
  184SOL    HW2  508   1.283   3.640   1.127 -2.4286  2.1398  0.5216
  184SOL    HW3  509   1.206   3.549   1.033 -1.1274  1.1350  0.3941
  184SOL    MW4  510   1.251   3.623   1.048  0.1288  0.1379  0.2925
  185SOL     OW  511   6.083   0.493   4.749 -0.2829 -0.1168  0.7995
  185SOL    HW2  512   6.011   0.496   4.686  0.0077  1.7854  0.4936
  185SOL    HW3  513   6.159   0.468   4.696 -0.2487  0.3956  0.5984
  185SOL    MW4  514   6.084   0.490   4.734  0.0373  0.4785  0.2375
  186SOL     OW  515   0.150   5.605   0.142 -0.7321  0.4085  0.0690
  186SOL    HW2  516   0.068   5.648   0.116 -2.7174 -1.9844  1.8310
  186SOL    HW3  517   0.122   5.533   0.199  2.4098 -2.2506 -1.3920
  186SOL    MW4  518   0.135   5.601   0.146 -0.5280 -0.1829  0.4519
  187SOL     OW  519   1.253   3.083   1.264 -0.1061  0.4527 -0.2041
  187SOL    HW2  520   1.257   3.163   1.211 -1.0553  0.0057 -0.9801
  187SOL    HW3  521   1.171   3.091   1.313  0.0756  0.2054  0.1474
  187SOL    MW4  522   1.242   3.095   1.263  0.0404 -0.2199 -0.2331
  188SOL     OW  523   5.970   2.418   2.750  0.5672  0.3137  0.0363
  188SOL    HW2  524   6.041   2.360   2.721 -1.1298 -0.9393 -1.8613
  188SOL    HW3  525   5.930   2.373   2.824 -0.0734 -0.4555 -0.7585
  188SOL    MW4  526   5.974   2.405   2.756 -0.2081  0.0718 -0.3919
  189SOL     OW  527   3.168   4.649   3.333  0.1333  0.0996  0.2670
  189SOL    HW2  528   3.238   4.633   3.397  0.3963  2.1897  0.5569
  189SOL    HW3  529   3.215   4.658   3.250  0.0129 -0.3054  0.1523
  189SOL    MW4  530   3.184   4.648   3.331 -0.5455  0.4510  0.5802
  190SOL     OW  531   4.320   4.942   5.403  0.2008 -0.6823 -0.3978
  190SOL    HW2  532   4.401   4.986   5.376  0.5074 -0.9744  0.0342
  190SOL    HW3  533   4.331   4.852   5.374  0.3568 -0.9018  0.3307
  190SOL    MW4  534   4.332   4.936   5.396  0.2050 -0.0842 -0.1907
  191SOL     OW  535   1.937   6.031   1.746 -0.1693  0.1760  0.0134
  191SOL    HW2  536   1.984   5.952   1.773  0.4424  0.4499 -0.2338
  191SOL    HW3  537   1.923   6.020   1.652  1.3115  1.0487 -0.3476
  191SOL    MW4  538   1.942   6.019   1.738 -0.3241 -0.5509  0.4876
  192SOL     OW  539   2.910   2.345   2.317  0.4887 -0.4352 -0.7625
  192SOL    HW2  540   2.903   2.440   2.322  0.8182 -0.4252 -0.4911
  192SOL    HW3  541   3.004   2.327   2.313  0.4236 -0.7409 -1.0115
  192SOL    MW4  542   2.921   2.355   2.317 -0.4078  0.0233  0.5626
  193SOL     OW  543   3.697   2.461   5.161 -0.0977  1.0075  0.0059
  193SOL    HW2  544   3.728   2.550   5.145  1.4094  0.3789 -0.7257
  193SOL    HW3  545   3.602   2.468   5.159  0.0067  2.5177 -0.5033
  193SOL    MW4  546   3.689   2.473   5.159  0.1879  0.2301 -0.6767
  194SOL     OW  547   2.538   3.816   5.408 -0.5043 -0.2707  0.2231
  194SOL    HW2  548   2.450   3.852   5.416  0.3576  2.0837 -0.0534
  194SOL    HW3  549   2.525   3.722   5.400 -2.9854  0.0170  0.1325
  194SOL    MW4  550   2.525   3.809   5.408 -0.8324  0.1473 -0.3280
  195SOL     OW  551   5.590   6.453   2.010 -0.3370 -0.4992  0.5587
  195SOL    HW2  552   5.667   6.495   2.048 -0.9088  1.3548 -0.2210
  195SOL    HW3  553   5.515   6.502   2.045 -1.3372 -3.1331  2.4146
  195SOL    MW4  554   5.590   6.465   2.020  0.3344 -0.0915  0.2306
  196SOL     OW  555   0.733   4.851   2.538 -0.3428 -0.5407  0.2111
  196SOL    HW2  556   0.793   4.861   2.612 -1.2722  2.0734  0.7253
  196SOL    HW3  557   0.764   4.914   2.473  0.0865 -2.3711 -1.4459
  196SOL    MW4  558   0.745   4.861   2.539  0.2448 -0.2998  0.3878
  197SOL     OW  559   6.397   6.219   4.966  0.0524 -0.5902 -0.7834
  197SOL    HW2  560   6.389   6.195   4.874 -1.9585  1.2896 -1.1681
  197SOL    HW3  561   6.368   6.310   4.970  3.5977  0.6688  1.1490
  197SOL    MW4  562   6.392   6.227   4.955  0.2582  0.2453 -0.6529
  198SOL     OW  563   1.399   6.123   4.602  0.3675 -0.3115  0.0752
  198SOL    HW2  564   1.399   6.198   4.662  0.3184 -2.4544  2.9844
  198SOL    HW3  565   1.486   6.124   4.562  1.5208 -0.3257  2.4088
  198SOL    MW4  566   1.410   6.133   4.605 -0.3568 -0.0202  0.7694
  199SOL     OW  567   2.669   6.480   2.899  0.0904  0.0531 -0.0434
  199SOL    HW2  568   2.638   6.390   2.886  0.3939 -0.2290  1.0869
  199SOL    HW3  569   2.765   6.472   2.897  0.1279  0.2106  0.9194
  199SOL    MW4  570   2.678   6.467   2.897 -0.0449 -0.5261 -0.1868
  200SOL     OW  571   4.767   4.689   2.665 -0.3192 -0.1171 -0.5409
  200SOL    HW2  572   4.810   4.744   2.599  0.4786  0.2094  0.2313
  200SOL    HW3  573   4.815   4.607   2.662 -1.5693 -0.8408 -1.7582
  200SOL    MW4  574   4.779   4.686   2.656  0.5440  0.1529  0.1675
  201SOL     OW  575   1.833   2.151   5.704  0.4016  0.2231 -0.2132
  201SOL    HW2  576   1.891   2.184   5.636 -0.0756 -1.6075 -1.5781
  201SOL    HW3  577   1.816   2.227   5.760  0.4128  1.9273 -2.4074
  201SOL    MW4  578   1.838   2.166   5.703  0.2348  0.9943  0.0696
  202SOL     OW  579   2.609   4.986   0.812 -0.1321  0.1610 -0.1880
  202SOL    HW2  580   2.592   4.908   0.760  0.7319  0.7563 -1.3975
  202SOL    HW3  581   2.556   5.054   0.772 -2.1484 -0.1012  1.8344
  202SOL    MW4  582   2.600   4.985   0.800 -0.1343 -0.7676  0.5890
  203SOL     OW  583   3.597   4.228   5.370 -0.0546  0.2140 -0.3006
  203SOL    HW2  584   3.509   4.189   5.366 -0.4610  1.1439 -0.6827
  203SOL    HW3  585   3.653   4.166   5.324 -0.4891 -0.4469  0.0452
  203SOL    MW4  586   3.592   4.215   5.364  0.1852  0.0839 -0.6085
  204SOL     OW  587   5.074   3.802   1.922  0.3785  0.1307 -0.2355
  204SOL    HW2  588   5.002   3.764   1.871  0.1805 -0.1761  0.2656
  204SOL    HW3  589   5.109   3.871   1.866 -1.2094  1.2343  0.0522
  204SOL    MW4  590   5.069   3.806   1.908 -0.2120  0.2091 -0.6669
  205SOL     OW  591   3.112   3.270   0.926  0.3632  0.2571  0.0006
  205SOL    HW2  592   3.198   3.294   0.893  0.1420 -0.7983 -1.4636
  205SOL    HW3  593   3.117   3.175   0.940 -0.6000  0.1557 -0.2705
  205SOL    MW4  594   3.124   3.261   0.923  0.1493  0.0807 -0.3099
  206SOL     OW  595   5.590   3.634   0.254  0.0784  0.6432 -0.2152
  206SOL    HW2  596   5.676   3.594   0.269 -0.0431  0.7415  0.8692
  206SOL    HW3  597   5.571   3.618   0.162  0.5940 -0.6880 -0.1123
  206SOL    MW4  598   5.599   3.627   0.244 -0.3278 -0.3566  0.9002
  207SOL     OW  599   3.843   1.379   3.991  0.3981 -0.9498  0.0963
  207SOL    HW2  600   3.755   1.389   3.956  0.9688  1.7363 -0.7938
  207SOL    HW3  601   3.883   1.309   3.939 -0.9834 -1.8126  0.1487
  207SOL    MW4  602   3.837   1.371   3.980  0.1591  0.5179  0.5031
  208SOL     OW  603   3.965   1.134   5.783 -0.2832 -0.4653  0.0861
  208SOL    HW2  604   3.936   1.070   5.848 -0.0392  0.7200  1.4085
  208SOL    HW3  605   4.054   1.158   5.810  0.1726 -0.6071 -1.2152
  208SOL    MW4  606   3.973   1.129   5.795  0.3682 -0.7690 -0.4028
  209SOL     OW  607   3.593   2.754   1.244  0.0660 -0.6602  0.4160
  209SOL    HW2  608   3.517   2.738   1.188  0.0804 -0.6944  0.4062
  209SOL    HW3  609   3.561   2.815   1.311  0.4500  0.5868 -0.5123
  209SOL    MW4  610   3.578   2.760   1.245 -0.1295 -1.0019 -0.1666
  210SOL     OW  611   0.663   5.852   4.039  0.3196  0.2221 -0.4918
  210SOL    HW2  612   0.626   5.769   4.009  0.2666  0.1442 -0.2182
  210SOL    HW3  613   0.619   5.918   3.986  0.4020  0.0709 -0.7494
  210SOL    MW4  614   0.652   5.850   4.028  0.1361 -0.3385 -0.3042
  211SOL     OW  615   0.622   4.803   5.265 -0.2151  0.7057  0.4467
  211SOL    HW2  616   0.533   4.839   5.263  0.3439  2.2073 -1.7042
  211SOL    HW3  617   0.623   4.738   5.195  0.4884  1.0642  0.1145
  211SOL    MW4  618   0.610   4.799   5.255  0.7534 -0.5128  0.6032
  212SOL     OW  619  -0.001   5.784   5.406  0.2312  0.5277  0.2838
  212SOL    HW2  620  -0.018   5.698   5.446  0.7969 -0.6352 -1.8093
  212SOL    HW3  621  -0.087   5.827   5.406 -0.5671 -0.9426 -0.5543
  212SOL    MW4  622  -0.015   5.778   5.411  0.6061 -0.4721  0.9556
  213SOL     OW  623   1.041   1.105   0.290 -0.0237 -0.0465 -0.5016
  213SOL    HW2  624   1.033   1.109   0.386 -0.0242  1.1328 -0.5368
  213SOL    HW3  625   1.136   1.108   0.274 -0.0622  1.6103 -0.5779
  213SOL    MW4  626   1.053   1.106   0.301 -0.3152  0.1880 -0.2803
  214SOL     OW  627   0.549   5.015   3.090  0.3653  0.0272  0.2056
  214SOL    HW2  628   0.476   4.997   3.149 -1.5247 -0.1066 -2.0117
  214SOL    HW3  629   0.508   5.050   3.011  2.7547  0.2377 -1.0452
  214SOL    MW4  630   0.534   5.017   3.087 -0.2355 -0.0742 -0.3657
  215SOL     OW  631   3.259   3.230   4.818 -0.7548 -0.2796  0.5859
  215SOL    HW2  632   3.239   3.319   4.846 -1.1587 -0.4102  0.7194
  215SOL    HW3  633   3.230   3.174   4.890  1.1577 -0.4128  1.2866
  215SOL    MW4  634   3.252   3.234   4.831 -0.0152  0.0245 -0.0753
  216SOL     OW  635   2.427   0.969   6.387 -0.1302 -0.4367  0.1884
  216SOL    HW2  636   2.353   1.024   6.412 -0.9115 -1.9332  1.3374
  216SOL    HW3  637   2.410   0.945   6.296  0.9743  2.3033 -0.8368
  216SOL    MW4  638   2.415   0.973   6.378 -0.0439  0.2619  0.0539
  217SOL     OW  639   6.389   1.144   4.850 -0.5346  0.2289  0.3417
  217SOL    HW2  640   6.474   1.103   4.863 -0.1553  0.7614 -0.4337
  217SOL    HW3  641   6.346   1.138   4.936  1.3430  2.4086  1.5318
  217SOL    MW4  642   6.394   1.138   4.863 -0.3657  0.5147  0.1898
  218SOL     OW  643   5.294   1.367   2.822 -0.8190  0.2592  0.3727
  218SOL    HW2  644   5.360   1.417   2.774 -0.7922 -0.3965 -0.2899
  218SOL    HW3  645   5.230   1.341   2.756 -0.2452 -1.5494  0.4766
  218SOL    MW4  646   5.294   1.371   2.807  0.0178 -0.3825 -0.6418
  219SOL     OW  647   1.200   0.389   6.135 -0.2416  0.3341 -0.3328
  219SOL    HW2  648   1.138   0.345   6.077  2.1786 -2.1926 -1.2353
  219SOL    HW3  649   1.235   0.461   6.083 -0.0755 -0.2467 -1.0404
  219SOL    MW4  650   1.197   0.393   6.120 -0.4582  0.2829 -0.3679
  220SOL     OW  651   3.308   1.721   4.743 -0.1391  0.4697  0.8998
  220SOL    HW2  652   3.372   1.680   4.802  2.0371 -0.5796 -1.9776
  220SOL    HW3  653   3.240   1.654   4.733  0.4491 -0.1083  0.7260
  220SOL    MW4  654   3.307   1.707   4.750 -0.5441 -0.1428 -0.1214
  221SOL     OW  655   2.277   4.448   5.626 -0.2486 -0.3012  0.3594
  221SOL    HW2  656   2.263   4.468   5.533 -0.1703  0.2020  0.4487
  221SOL    HW3  657   2.189   4.442   5.663 -0.2822 -0.7211  0.2060
  221SOL    MW4  658   2.264   4.450   5.619 -0.3968 -0.5845  0.0230
  222SOL     OW  659   2.164   3.811   3.835  0.6144 -0.6650  0.0091
  222SOL    HW2  660   2.168   3.904   3.812  2.7359 -0.5573  0.6202
  222SOL    HW3  661   2.077   3.783   3.807 -0.4311  1.7182  0.6427
  222SOL    MW4  662   2.153   3.820   3.828 -0.0105 -0.0088 -0.0958
  223SOL     OW  663   0.652   3.765   4.419  0.1939  0.0755  0.1544
  223SOL    HW2  664   0.659   3.676   4.385  0.8247 -0.2220  1.0286
  223SOL    HW3  665   0.743   3.792   4.435 -0.0520  0.3321  1.2387
  223SOL    MW4  666   0.665   3.757   4.417  0.5966  0.2949  0.0298
  224SOL     OW  667   0.756   1.952   3.094  0.6573  0.3301 -0.1237
  224SOL    HW2  668   0.807   2.015   3.043  1.7077  0.0200  0.5166
  224SOL    HW3  669   0.677   1.938   3.042  1.0353  1.1270 -0.9462
  224SOL    MW4  670   0.752   1.959   3.080  0.0560  0.4604 -0.5211
  225SOL     OW  671   0.246   3.097   5.974  0.2748 -0.2095  0.2298
  225SOL    HW2  672   0.328   3.051   5.957  0.2712  0.3881 -1.5828
  225SOL    HW3  673   0.259   3.139   6.059  1.4479 -0.9628  0.4421
  225SOL    MW4  674   0.258   3.096   5.983  0.0946  0.4829 -0.2174
  226SOL     OW  675   0.989   3.084   0.749 -0.1012 -0.4492 -0.3546
  226SOL    HW2  676   1.039   3.116   0.674  0.8944  1.1751  0.9239
  226SOL    HW3  677   0.960   2.997   0.723  3.6089 -1.6376 -1.1378
  226SOL    MW4  678   0.992   3.077   0.736 -0.2883 -0.0021 -0.1984
  227SOL     OW  679   2.034   2.960   2.931  0.0110 -0.2036 -0.8833
  227SOL    HW2  680   2.127   2.965   2.907  0.1731  1.5645 -0.0248
  227SOL    HW3  681   2.031   2.892   2.999  1.2144  1.6552  1.1665
  227SOL    MW4  682   2.046   2.951   2.937 -0.0046 -0.5826  0.5355
  228SOL     OW  683   4.352   3.571   5.385  0.2740  0.3819 -0.2012
  228SOL    HW2  684   4.330   3.615   5.303 -1.4088  1.3827  0.7177
  228SOL    HW3  685   4.414   3.630   5.428  1.1589 -0.1445 -0.7384
  228SOL    MW4  686   4.357   3.585   5.380 -0.4710 -0.1412  0.5784
  229SOL     OW  687   5.838   3.874   0.025  0.1114 -0.2855  0.1169
  229SOL    HW2  688   5.843   3.840  -0.064  2.1846  0.2739 -0.0256
  229SOL    HW3  689   5.905   3.943   0.028 -1.4329  1.2499  1.4704
  229SOL    MW4  690   5.847   3.879   0.014  0.2301  0.4297  0.0500
  230SOL     OW  691   0.464   3.284   1.747  0.5254 -0.1398  0.8641
  230SOL    HW2  692   0.442   3.373   1.772 -1.5582 -0.2232 -0.4590
  230SOL    HW3  693   0.525   3.293   1.674  0.1855  0.2048  0.6238
  230SOL    MW4  694   0.469   3.297   1.740  0.3242 -0.5570  0.1068
  231SOL     OW  695   4.357   4.693   5.217 -0.4214 -0.3458 -0.2519
  231SOL    HW2  696   4.451   4.702   5.236 -0.4604 -2.3396  1.2407
  231SOL    HW3  697   4.338   4.601   5.237 -2.5790 -0.1358 -1.1305
  231SOL    MW4  698   4.367   4.682   5.222 -0.1873  0.0343  0.1120
  232SOL     OW  699   4.865   4.197   5.188 -0.0740 -0.6269  0.1730
  232SOL    HW2  700   4.925   4.137   5.143 -0.6990 -0.0510 -1.5182
  232SOL    HW3  701   4.922   4.267   5.220  0.3212 -0.6839 -0.3765
  232SOL    MW4  702   4.881   4.199   5.186 -0.3904 -0.3245 -0.2151
  233SOL     OW  703   3.481   6.414   4.033  0.0600 -0.1715  0.2970
  233SOL    HW2  704   3.479   6.405   4.128 -1.3246  1.2463  0.4509
  233SOL    HW3  705   3.394   6.386   4.004 -0.9332  2.9942 -0.1038
  233SOL    MW4  706   3.470   6.409   4.041  0.1626  0.3672 -0.5103
  234SOL     OW  707   3.324   3.508   4.912 -0.4296 -0.4109 -0.6057
  234SOL    HW2  708   3.346   3.500   5.005  0.4068  0.7260 -0.6722
  234SOL    HW3  709   3.264   3.582   4.908  1.1116  0.8854 -1.1407
  234SOL    MW4  710   3.319   3.517   4.923  0.6022 -0.1994 -0.1958
  235SOL     OW  711   4.491   4.824   2.984 -0.1028 -0.4641 -0.6079
  235SOL    HW2  712   4.418   4.885   2.996  2.0362  2.6650 -2.1268
  235SOL    HW3  713   4.500   4.816   2.889  1.2960 -1.0095 -0.4523
  235SOL    MW4  714   4.483   4.831   2.973  0.0746  0.2423  0.0847
  236SOL     OW  715   4.435   2.438   1.889 -0.0244  0.1119 -0.0329
  236SOL    HW2  716   4.354   2.477   1.855 -0.4016 -1.6496 -1.3361
  236SOL    HW3  717   4.405   2.359   1.934  0.9762 -0.7237 -0.8029
  236SOL    MW4  718   4.420   2.433   1.891  0.1549  0.5443 -0.0553
  237SOL     OW  719   0.155   2.632   5.113 -0.3166 -0.0375  0.1119
  237SOL    HW2  720   0.233   2.578   5.103  0.5030  0.8069  1.6217
  237SOL    HW3  721   0.082   2.574   5.092  0.7424 -0.3802 -3.0414
  237SOL    MW4  722   0.155   2.618   5.109  0.1337 -0.0282 -0.4514
  238SOL     OW  723   4.794   4.030   0.290  0.1574 -0.1233  0.0955
  238SOL    HW2  724   4.885   4.054   0.307  0.1329 -2.1046  4.3163
  238SOL    HW3  725   4.799   3.963   0.223  1.7932 -0.0632  0.1155
  238SOL    MW4  726   4.806   4.025   0.284 -0.6894  0.0417  0.6724
  239SOL     OW  727   4.920   2.331   1.567  0.0686 -0.2214 -0.4647
  239SOL    HW2  728   4.868   2.278   1.627 -1.2669 -0.2544 -1.5704
  239SOL    HW3  729   4.946   2.408   1.618 -0.0955 -0.7572  0.4474
  239SOL    MW4  730   4.916   2.334   1.581  0.5119  0.1495 -0.0808
  240SOL     OW  731   0.619   2.245   5.058  0.0242 -0.4693 -0.3812
  240SOL    HW2  732   0.640   2.156   5.085 -1.1419 -0.7014 -0.1818
  240SOL    HW3  733   0.527   2.241   5.031 -0.8378  1.1736  1.9622
  240SOL    MW4  734   0.609   2.233   5.058  0.5741  0.4112 -0.0275
  241SOL     OW  735   4.545   3.317   4.068  0.4557 -0.5663 -0.4257
  241SOL    HW2  736   4.555   3.404   4.108 -1.2218  1.1068 -3.2767
  241SOL    HW3  737   4.480   3.273   4.122 -0.1343  0.7463 -0.0185
  241SOL    MW4  738   4.538   3.323   4.080  0.5521 -0.3865 -0.3067
  242SOL     OW  739   5.909   3.872   4.871 -0.1203 -0.3908  0.8413
  242SOL    HW2  740   5.823   3.906   4.849 -0.1331  0.2108  1.7675
  242SOL    HW3  741   5.938   3.925   4.945  1.4967  0.0998 -0.1006
  242SOL    MW4  742   5.902   3.883   4.878  0.5700 -0.1428 -0.0408
  243SOL     OW  743   2.710   1.624   3.919 -0.0268 -0.0798 -0.3163
  243SOL    HW2  744   2.771   1.695   3.935  1.9197 -1.9188  1.0659
  243SOL    HW3  745   2.638   1.639   3.980  2.2521 -1.2790  2.9375
  243SOL    MW4  746   2.709   1.635   3.929 -0.1946 -0.5673  0.4428
  244SOL     OW  747   3.034   5.750   4.904  0.0116  0.3424 -0.4531
  244SOL    HW2  748   2.956   5.749   4.848 -0.0674 -1.2988 -0.3632
  244SOL    HW3  749   3.005   5.714   4.987  0.7539  0.1931 -0.2480
  244SOL    MW4  750   3.020   5.745   4.908  0.5880 -0.3897 -0.1604
  245SOL     OW  751   2.536   1.470   1.593  0.6846 -0.0675  0.1265
  245SOL    HW2  752   2.590   1.498   1.520 -1.8168 -1.5581 -2.5072
  245SOL    HW3  753   2.574   1.386   1.621  2.0601  0.8390  1.0909
  245SOL    MW4  754   2.548   1.462   1.587 -0.1053  0.1897  0.2177
  246SOL     OW  755   2.271   1.854   5.937  0.1940 -0.4192  0.3606
  246SOL    HW2  756   2.294   1.782   5.878  1.0548  0.2893 -0.1813
  246SOL    HW3  757   2.338   1.920   5.922 -0.0895  0.1480  1.4905
  246SOL    MW4  758   2.283   1.853   5.928 -0.9940 -0.5834  0.4697
  247SOL     OW  759   5.364   0.553   4.370  0.7992 -0.3807  0.1050
  247SOL    HW2  760   5.342   0.575   4.279 -0.1708  0.4105  0.5167
  247SOL    HW3  761   5.331   0.464   4.382 -1.7380  0.5490  0.5165
  247SOL    MW4  762   5.357   0.544   4.359  0.2883  0.1961 -0.5656
  248SOL     OW  763   4.367   5.737   0.564 -0.2742 -0.1467 -0.5811
  248SOL    HW2  764   4.441   5.705   0.615  0.1852  2.9307  0.9642
  248SOL    HW3  765   4.307   5.663   0.559  1.6233 -1.8712  0.6825
  248SOL    MW4  766   4.369   5.723   0.570 -0.3620  0.1599  0.2599
  249SOL     OW  767   0.897   0.715   4.268 -0.1589  0.8493 -0.3409
  249SOL    HW2  768   0.893   0.654   4.341  0.6874 -0.2701 -1.1929
  249SOL    HW3  769   0.950   0.788   4.301 -0.4750  0.7453  0.4174
  249SOL    MW4  770   0.904   0.717   4.282 -0.0067 -0.1109  1.1193
  250SOL     OW  771   3.695   2.725   1.746  0.2111  0.2555  0.5559
  250SOL    HW2  772   3.698   2.803   1.801  1.0149 -0.3943  1.4813
  250SOL    HW3  773   3.776   2.678   1.767 -1.1804 -1.8449  1.6237
  250SOL    MW4  774   3.706   2.729   1.756  0.4662  0.0369  0.5879
  251SOL     OW  775   3.123   3.288   1.356 -0.4664  0.0321  0.4767
  251SOL    HW2  776   3.215   3.272   1.339 -0.3625  1.6247 -0.6760
  251SOL    HW3  777   3.116   3.383   1.365 -1.8855 -0.1178  1.2421
  251SOL    MW4  778   3.134   3.299   1.355 -0.1576  0.5013  0.4213
  252SOL     OW  779   3.645   3.695   3.986 -0.8414 -0.1481 -0.3113
  252SOL    HW2  780   3.605   3.646   4.058 -1.4996 -1.4813 -1.5331
  252SOL    HW3  781   3.631   3.787   4.009 -1.9572 -0.5563  0.7606
  252SOL    MW4  782   3.638   3.700   3.999 -0.0153 -0.2843  0.6571
  253SOL     OW  783   2.795   0.853   3.597  0.1644  0.0407 -0.3433
  253SOL    HW2  784   2.862   0.789   3.619 -0.8089 -0.7469  0.4724
  253SOL    HW3  785   2.780   0.901   3.679 -1.4814 -0.9877  0.0113
  253SOL    MW4  786   2.802   0.851   3.611 -0.3818 -0.3366 -0.0737
  254SOL     OW  787   1.242   3.407   6.330  0.3295  0.4000 -0.0674
  254SOL    HW2  788   1.276   3.318   6.322 -1.0152 -0.0933 -0.5766
  254SOL    HW3  789   1.147   3.397   6.328  0.1236  2.0036 -2.3903
  254SOL    MW4  790   1.234   3.394   6.329  0.2673  0.6102 -0.3823
  255SOL     OW  791   1.911   3.261   2.598 -0.1631  0.4453 -0.6215
  255SOL    HW2  792   1.999   3.223   2.604 -0.6920 -0.7202 -0.0103
  255SOL    HW3  793   1.925   3.346   2.555  1.5640  1.3403  1.5244
  255SOL    MW4  794   1.925   3.268   2.593  0.2219 -0.5558  0.1205
  256SOL     OW  795   3.795   2.542   1.323  0.0794 -0.2027  0.0230
  256SOL    HW2  796   3.809   2.494   1.241 -1.8667 -1.4789  0.3631
  256SOL    HW3  797   3.746   2.620   1.297  1.8643  0.8538 -0.3273
  256SOL    MW4  798   3.791   2.546   1.309 -0.1375  0.0398 -0.0501
  257SOL     OW  799   6.022   4.971   4.155  0.3545 -0.0813  0.4290
  257SOL    HW2  800   5.962   4.936   4.220  0.9103 -1.7477  0.1112
  257SOL    HW3  801   5.975   4.961   4.072  0.2505  0.5895  0.4049
  257SOL    MW4  802   6.008   4.965   4.152  0.1140  0.5856  0.3699
  258SOL     OW  803   3.647   0.886   4.510  0.1264  0.4903 -0.2257
  258SOL    HW2  804   3.707   0.947   4.467  1.0752  0.0300  0.4016
  258SOL    HW3  805   3.578   0.870   4.445  0.7819  0.8796 -1.0393
  258SOL    MW4  806   3.646   0.892   4.496 -0.5181  0.0632  0.8050
  259SOL     OW  807   1.596   5.893   5.086 -0.4050  0.2232 -0.3235
  259SOL    HW2  808   1.585   5.806   5.047 -0.7024  0.4785 -0.8136
  259SOL    HW3  809   1.642   5.944   5.019 -1.1142  0.7260 -0.4432
  259SOL    MW4  810   1.600   5.888   5.072 -0.0823 -0.6610 -0.1969
  260SOL     OW  811   0.902   2.754   3.940  0.1659 -0.1400  0.0010
  260SOL    HW2  812   0.869   2.842   3.958 -1.8783 -0.9239  0.2563
  260SOL    HW3  813   0.866   2.699   4.009 -0.6823 -1.6290 -1.5377
  260SOL    MW4  814   0.893   2.758   3.951  0.0642 -0.2247 -0.1961
  261SOL     OW  815   5.290   5.898   4.608  0.5040 -0.6327 -0.2868
  261SOL    HW2  816   5.255   5.987   4.612 -0.7366 -1.1080  0.0012
  261SOL    HW3  817   5.383   5.908   4.625  0.3665  0.6001 -0.1462
  261SOL    MW4  818   5.297   5.911   4.611 -0.5671 -0.0576 -0.4539
  262SOL     OW  819   5.712   4.699   0.269  0.4432  0.2621 -0.2897
  262SOL    HW2  820   5.732   4.619   0.318  0.8268 -0.0927 -1.0101
  262SOL    HW3  821   5.653   4.748   0.326  0.2487 -0.5085  0.1829
  262SOL    MW4  822   5.707   4.695   0.283 -0.0281 -0.5439  0.4166
  263SOL     OW  823   3.821   0.602   0.951  0.1519  0.3057  0.3215
  263SOL    HW2  824   3.913   0.597   0.926  0.0934 -2.1108  0.3349
  263SOL    HW3  825   3.820   0.576   1.043 -0.7477 -2.8517 -0.4481
  263SOL    MW4  826   3.833   0.598   0.960 -0.3847 -0.0697 -0.5677
  264SOL     OW  827   6.171   5.997   1.404  0.0751  0.1197 -0.3381
  264SOL    HW2  828   6.152   5.931   1.471 -0.1251  0.8939  0.3870
  264SOL    HW3  829   6.255   5.970   1.368  0.5531  0.0988  0.7527
  264SOL    MW4  830   6.180   5.984   1.408  0.6177  0.1532  0.1102
  265SOL     OW  831   0.981   5.374   1.055  0.0031  0.0015 -0.1801
  265SOL    HW2  832   0.974   5.463   1.019  0.8391  0.5704  1.0006
  265SOL    HW3  833   1.060   5.338   1.014  0.3586  0.2611  0.2704
  265SOL    MW4  834   0.990   5.381   1.045 -0.0724  0.4479  0.8917
  266SOL     OW  835   5.361   2.513   3.688  0.3854 -0.2801 -1.1231
  266SOL    HW2  836   5.287   2.468   3.729  1.0556 -0.4649 -0.0701
  266SOL    HW3  837   5.365   2.477   3.600  0.9868 -2.4648 -0.2853
  266SOL    MW4  838   5.352   2.502   3.682  0.0832 -0.7077  0.1496
  267SOL     OW  839   1.063   1.842   6.223  0.3093  0.4774  0.7071
  267SOL    HW2  840   0.999   1.800   6.166  1.8336  1.7515 -2.1519
  267SOL    HW3  841   1.123   1.772   6.247  0.5713  0.2057 -0.6616
  267SOL    MW4  842   1.062   1.827   6.218  0.1729 -0.2868 -0.5424
  268SOL     OW  843   4.606   3.984   1.470  0.0792  0.0609  0.0684
  268SOL    HW2  844   4.570   4.069   1.495 -1.4484 -0.3516 -0.6456
  268SOL    HW3  845   4.618   3.938   1.553  0.9815  0.9541  0.4734
  268SOL    MW4  846   4.603   3.989   1.484 -0.4044  0.0241  0.0299
  269SOL     OW  847   4.498   5.037   1.308 -0.2142 -0.4840 -0.2454
  269SOL    HW2  848   4.586   4.998   1.303  0.8461  1.7601 -0.4599
  269SOL    HW3  849   4.489   5.065   1.399  1.0411  2.8442 -1.0096
  269SOL    MW4  850   4.509   5.035   1.319 -0.2576 -0.0802  0.2729
  270SOL     OW  851   3.748   0.786   1.282 -0.1125  0.2093 -0.0938
  270SOL    HW2  852   3.682   0.817   1.220 -0.4172  1.9106  0.9987
  270SOL    HW3  853   3.806   0.861   1.294 -0.6956  0.3452  2.4736
  270SOL    MW4  854   3.747   0.800   1.276 -0.1311  0.3508  0.8699
  271SOL     OW  855   4.269   2.957   4.976 -0.2512 -0.0892  0.7894
  271SOL    HW2  856   4.281   3.036   4.923 -0.2459 -1.1416 -0.8425
  271SOL    HW3  857   4.182   2.925   4.953 -1.2564  0.6506  3.1935
  271SOL    MW4  858   4.259   2.963   4.966 -0.2470 -0.0812 -0.3658
  272SOL     OW  859   3.709   3.140   6.212  0.0800 -0.2172 -0.0209
  272SOL    HW2  860   3.774   3.124   6.144 -0.5754 -0.8937 -0.5085
  272SOL    HW3  861   3.634   3.085   6.187  0.4384 -1.8353  2.1738
  272SOL    MW4  862   3.708   3.131   6.199 -0.6912  0.0488 -0.3335
  273SOL     OW  863   3.947   1.304   3.363 -0.3659 -0.1167 -0.0489
  273SOL    HW2  864   3.970   1.260   3.281 -1.2008 -0.1069 -0.2980
  273SOL    HW3  865   3.902   1.384   3.336 -1.6741 -0.6642  0.4020
  273SOL    MW4  866   3.944   1.309   3.349  0.1700 -0.0134  0.5299
  274SOL     OW  867   3.798   3.356   4.882 -0.0794 -0.7049 -0.3504
  274SOL    HW2  868   3.778   3.364   4.975 -1.5283  1.7923 -0.7788
  274SOL    HW3  869   3.749   3.279   4.853 -2.0995  0.1985  0.4300
  274SOL    MW4  870   3.789   3.347   4.891  0.3045  0.4616  0.2437
  275SOL     OW  871   3.704   0.385   1.718 -0.0942  0.4260 -0.8921
  275SOL    HW2  872   3.665   0.302   1.743  2.3367 -1.1031 -1.8184
  275SOL    HW3  873   3.742   0.419   1.798  0.3643 -0.2246 -0.8265
  275SOL    MW4  874   3.704   0.379   1.732 -0.1056  0.2680  0.0019
  276SOL     OW  875   1.894   2.068   1.475 -0.0081 -0.5400 -0.5021
  276SOL    HW2  876   1.922   2.056   1.566 -0.5056  0.7709 -0.1654
  276SOL    HW3  877   1.829   2.137   1.478  0.9873  0.5352 -2.0302
  276SOL    MW4  878   1.889   2.075   1.487  0.1687  0.2570 -0.6602
  277SOL     OW  879   3.259   0.367   6.053 -0.2483 -0.0407  0.8309
  277SOL    HW2  880   3.226   0.457   6.052  0.5457  0.2563  0.3906
  277SOL    HW3  881   3.234   0.333   6.138 -1.5757  0.2107  0.5574
  277SOL    MW4  882   3.252   0.374   6.064 -0.5041  0.3864 -0.0173
  278SOL     OW  883   2.836   2.343   3.188  0.1215 -0.2541 -0.2058
  278SOL    HW2  884   2.920   2.324   3.229  0.5668 -0.7154 -1.2916
  278SOL    HW3  885   2.776   2.359   3.261  1.3486  1.0111  0.5748
  278SOL    MW4  886   2.839   2.343   3.203  0.1138 -0.6934 -0.5209
  279SOL     OW  887   3.719   2.294   5.559  0.6552 -0.7919 -0.3966
  279SOL    HW2  888   3.763   2.272   5.477 -0.0192 -0.9586 -0.7181
  279SOL    HW3  889   3.786   2.281   5.626  1.0952 -1.0417 -0.8785
  279SOL    MW4  890   3.734   2.289   5.557 -0.4119 -0.4096 -0.4004
  280SOL     OW  891   0.340   1.656   0.470 -0.2314 -0.0129  0.4882
  280SOL    HW2  892   0.393   1.681   0.395 -0.1145 -3.0741 -0.6096
  280SOL    HW3  893   0.395   1.674   0.546  1.0218  0.0297 -0.4060
  280SOL    MW4  894   0.354   1.662   0.470 -0.0344  0.2116 -0.0039
  281SOL     OW  895   4.564   6.386   0.760 -1.1045  0.5868  0.1117
  281SOL    HW2  896   4.541   6.411   0.849 -1.8664 -0.5798  0.2639
  281SOL    HW3  897   4.557   6.290   0.759  0.9929  0.3971 -0.6306
  281SOL    MW4  898   4.560   6.376   0.771  0.6591  0.3929  0.5569
  282SOL     OW  899   2.414   0.642   4.378 -0.7307 -0.7657  0.1686
  282SOL    HW2  900   2.400   0.576   4.309 -0.1264  0.9298 -1.6737
  282SOL    HW3  901   2.354   0.713   4.356 -0.9838 -0.4298  1.8011
  282SOL    MW4  902   2.404   0.643   4.366  0.4140  0.4654 -0.2065
  283SOL     OW  903   5.246   2.275   2.845  0.2353 -0.2771 -0.0574
  283SOL    HW2  904   5.173   2.333   2.861 -0.2076 -1.0260  0.7304
  283SOL    HW3  905   5.293   2.315   2.772 -0.5517  0.5829 -0.1112
  283SOL    MW4  906   5.243   2.288   2.837  0.1891 -0.0139 -0.3521
  284SOL     OW  907   5.124   4.981   5.076  0.4002 -0.8089  0.2342
  284SOL    HW2  908   5.091   4.977   5.166  0.3616  1.8608  0.4361
  284SOL    HW3  909   5.047   5.006   5.024  0.9363  0.1457 -0.1267
  284SOL    MW4  910   5.109   4.984   5.081  0.2967 -0.0045 -0.2817
  285SOL     OW  911   6.272   5.750   4.323 -0.2055 -0.3660 -0.2311
  285SOL    HW2  912   6.213   5.727   4.251 -0.6715 -0.0933  0.0584
  285SOL    HW3  913   6.242   5.696   4.396 -0.0520 -0.2770 -0.1029
  285SOL    MW4  914   6.260   5.739   4.323  0.5649 -0.8257 -0.3748
  286SOL     OW  915   0.162   5.036   3.845  0.3520  0.1642  0.1488
  286SOL    HW2  916   0.121   5.036   3.759 -0.2993 -1.4855  0.4055
  286SOL    HW3  917   0.216   5.115   3.847 -0.2630  0.6576 -1.4453
  286SOL    MW4  918   0.164   5.046   3.834 -0.2567 -0.6017 -1.0393
  287SOL     OW  919   3.225   1.976   2.748 -0.0580 -0.0447 -0.2041
  287SOL    HW2  920   3.163   2.042   2.716 -1.2717 -0.6348  0.8055
  287SOL    HW3  921   3.196   1.958   2.837  0.7611 -1.3188 -0.1716
  287SOL    MW4  922   3.213   1.982   2.755  0.6890 -0.0819 -0.0293
  288SOL     OW  923   2.264   1.141   1.816  0.3388  0.1427  0.5209
  288SOL    HW2  924   2.194   1.195   1.782 -1.0049 -1.5576  0.4532
  288SOL    HW3  925   2.269   1.164   1.909  0.8477  1.4449  0.1914
  288SOL    MW4  926   2.256   1.151   1.824 -0.0867 -0.0168 -0.3096
  289SOL     OW  927   0.014   3.720   6.069 -0.2337  0.2842 -0.2303
  289SOL    HW2  928  -0.017   3.639   6.109 -1.0568 -0.3790 -2.0914
  289SOL    HW3  929   0.067   3.692   5.995 -0.9640  1.4084 -1.2299
  289SOL    MW4  930   0.017   3.706   6.064  0.8513  0.2776  0.2023
  290SOL     OW  931   2.362   2.992   6.169  0.8372 -0.2432  0.3744
  290SOL    HW2  932   2.337   2.913   6.121  1.0154  1.5930 -2.9983
  290SOL    HW3  933   2.458   2.994   6.164  0.7774  0.8613 -0.8616
  290SOL    MW4  934   2.371   2.982   6.162  0.3282 -0.7276  0.2760
  291SOL     OW  935   3.289   0.065   1.389  0.1171 -0.5123 -0.7306
  291SOL    HW2  936   3.283  -0.025   1.356 -0.7703 -0.9377  0.5127
  291SOL    HW3  937   3.376   0.070   1.428  0.0607 -0.9224 -0.5452
  291SOL    MW4  938   3.299   0.054   1.390 -0.0027 -0.7564  0.4985
  292SOL     OW  939   0.574   4.834   3.427 -0.1716  0.6900 -0.7751
  292SOL    HW2  940   0.630   4.801   3.357  0.5526 -1.3058  0.6337
  292SOL    HW3  941   0.502   4.770   3.433  0.8480 -0.3755  1.5225
  292SOL    MW4  942   0.572   4.821   3.419 -0.3382  0.0078  0.3031
  293SOL     OW  943   2.803   1.637   0.889  0.4020  0.3254 -0.0156
  293SOL    HW2  944   2.820   1.613   0.980 -1.6569  1.7330  0.8337
  293SOL    HW3  945   2.765   1.725   0.894  0.3036  0.4839 -2.2531
  293SOL    MW4  946   2.800   1.646   0.901 -0.5445 -0.4425 -0.0990
  294SOL     OW  947   0.079   2.236   2.707 -0.3444  0.1534  0.1197
  294SOL    HW2  948   0.146   2.203   2.767 -0.0440  1.3918  0.4859
  294SOL    HW3  949   0.122   2.234   2.621 -0.7920 -1.6656 -0.1130
  294SOL    MW4  950   0.094   2.231   2.704 -0.1778  0.6481  0.2377
  295SOL     OW  951   0.132   5.879   3.234  0.2322 -0.3632  0.3183
  295SOL    HW2  952   0.079   5.865   3.157 -0.1200  0.7592  0.3398
  295SOL    HW3  953   0.109   5.807   3.293 -1.2741  0.0974  0.3294
  295SOL    MW4  954   0.122   5.868   3.232  0.2988 -0.0915 -0.1110
  296SOL     OW  955   5.767   3.146   1.596  0.3778  0.4725  0.0555
  296SOL    HW2  956   5.690   3.183   1.553 -0.8720 -0.6765  1.1575
  296SOL    HW3  957   5.808   3.091   1.530 -0.7746 -0.2603 -0.0758
  296SOL    MW4  958   5.762   3.143   1.582 -0.0585 -0.2420  0.3573
  297SOL     OW  959   1.636   2.585   4.668 -0.4454  0.5673 -0.3526
  297SOL    HW2  960   1.663   2.523   4.735 -1.4097  1.1344  0.5979
  297SOL    HW3  961   1.558   2.545   4.629 -0.1054  0.4143 -0.8817
  297SOL    MW4  962   1.629   2.571   4.672 -0.1581  0.0597 -0.8526
  298SOL     OW  963   4.637   5.225   3.129  0.4835 -0.5462 -0.2576
  298SOL    HW2  964   4.571   5.267   3.185  0.5249 -0.5672 -0.1928
  298SOL    HW3  965   4.651   5.140   3.169  3.0954  0.6967  1.7853
  298SOL    MW4  966   4.630   5.220   3.142 -0.6232 -0.0376 -0.5960
  299SOL     OW  967   0.259   1.697   1.621  0.0376 -0.1572 -0.0957
  299SOL    HW2  968   0.305   1.763   1.569 -0.5370  0.5830  0.3091
  299SOL    HW3  969   0.174   1.736   1.640 -1.2482 -1.9493 -1.7783
  299SOL    MW4  970   0.254   1.711   1.617 -0.2468  0.4466 -0.2658
  300SOL     OW  971   5.733   0.510   0.863 -0.2228  0.2413 -0.0097
  300SOL    HW2  972   5.645   0.518   0.826  0.6136  1.0795 -1.9430
  300SOL    HW3  973   5.730   0.563   0.943 -1.1535  1.2929 -0.7125
  300SOL    MW4  974   5.721   0.518   0.869 -0.3335  0.0115 -0.0846
  301SOL     OW  975   1.613   3.425   5.358 -0.0624  0.0695 -0.4031
  301SOL    HW2  976   1.537   3.366   5.356  1.7499 -2.4631  0.0711
  301SOL    HW3  977   1.670   3.393   5.288  0.9346  1.4049 -0.2380
  301SOL    MW4  978   1.610   3.413   5.348 -0.6573  0.4153  0.5432
  302SOL     OW  979   2.802   4.696   3.151  0.0156  0.3858 -0.8995
  302SOL    HW2  980   2.842   4.616   3.186  1.6738  1.6543  0.2858
  302SOL    HW3  981   2.709   4.675   3.143 -0.1007 -0.8142  2.0766
  302SOL    MW4  982   2.795   4.683   3.155 -0.1708 -0.0899  0.3021
  303SOL     OW  983   0.461   1.079   2.440  0.3366 -0.4959 -0.5789
  303SOL    HW2  984   0.497   0.990   2.439 -1.9488 -1.5654  1.5493
  303SOL    HW3  985   0.410   1.084   2.359  1.4036 -0.6648 -1.2849
  303SOL    MW4  986   0.459   1.068   2.429  0.0450 -0.6522 -0.5633
  304SOL     OW  987   0.235   1.004   5.209  0.3722  0.6414  0.2939
  304SOL    HW2  988   0.331   1.014   5.204  0.4012  1.0370  1.3229
  304SOL    HW3  989   0.223   0.920   5.253  0.2055 -0.2814 -1.4335
  304SOL    MW4  990   0.246   0.994   5.214 -0.5600 -0.6694  0.2761
  305SOL     OW  991   1.831   1.128   0.481  0.6102 -0.2282 -0.1945
  305SOL    HW2  992   1.835   1.142   0.576  1.4439 -1.9897  0.0536
  305SOL    HW3  993   1.770   1.055   0.470 -0.4775  0.7777 -1.1461
  305SOL    MW4  994   1.823   1.120   0.492  0.0243  0.1591  0.1373
  306SOL     OW  995   4.659   1.499   5.735 -0.1032 -0.3739 -1.0644
  306SOL    HW2  996   4.642   1.406   5.718 -0.6605 -0.1910 -1.5326
  306SOL    HW3  997   4.726   1.498   5.803 -0.9002 -1.1257 -0.2572
  306SOL    MW4  998   4.665   1.486   5.742  0.3771  0.7426 -0.3104
  307SOL     OW  999   1.504   3.736   1.971 -0.1105  0.5885 -0.3330
  307SOL    HW2 1000   1.578   3.697   2.019 -1.3836 -2.1898 -0.3893
  307SOL    HW3 1001   1.525   3.720   1.879 -1.2366 -1.3781 -0.3174
  307SOL    MW4 1002   1.516   3.729   1.965  0.3459  0.1711  0.7395
  308SOL     OW 1003   1.634   2.506   2.599  0.2163 -0.2018 -0.3140
  308SOL    HW2 1004   1.578   2.498   2.522 -0.3259  2.2566 -0.2584
  308SOL    HW3 1005   1.582   2.557   2.661  0.7394 -1.8942  1.6398
  308SOL    MW4 1006   1.620   2.511   2.597  0.4173  0.0258  0.4338
  309SOL     OW 1007   6.329   1.590   2.777  0.5453 -0.2288  0.6376
  309SOL    HW2 1008   6.390   1.591   2.703  2.0696  0.5319  1.8358
  309SOL    HW3 1009   6.334   1.501   2.812  0.8267 -0.2190  0.6213
  309SOL    MW4 1010   6.338   1.579   2.772  0.0959 -0.0791 -0.2940
  310SOL     OW 1011   4.243   0.895   3.502  0.1236 -0.5486 -0.6648
  310SOL    HW2 1012   4.178   0.939   3.447 -0.8208 -0.9097  0.1327
  310SOL    HW3 1013   4.233   0.936   3.588  2.2120  0.6430 -0.9378
  310SOL    MW4 1014   4.233   0.906   3.506  0.1277 -0.7665 -0.1535
  311SOL     OW 1015   5.965   0.793   1.172  0.1891 -0.1709  0.8734
  311SOL    HW2 1016   6.002   0.798   1.260 -0.3329 -3.4630  1.4003
  311SOL    HW3 1017   6.012   0.720   1.131  1.7358  2.3457 -2.3564
  311SOL    MW4 1018   5.976   0.784   1.178 -0.2746  0.1267  0.1563
  312SOL     OW 1019   3.133   5.153   2.277 -0.1175 -0.3926  0.3331
  312SOL    HW2 1020   3.107   5.245   2.286 -1.6810 -0.8435  0.8699
  312SOL    HW3 1021   3.191   5.137   2.352 -1.1066 -0.2268  1.1648
  312SOL    MW4 1022   3.137   5.163   2.288  0.4183  0.4144  0.6115
  313SOL     OW 1023   1.420   2.691   4.132 -0.2012 -0.3197  0.2313
  313SOL    HW2 1024   1.393   2.683   4.224  2.6223 -0.2068  1.1498
  313SOL    HW3 1025   1.487   2.623   4.122 -0.1961 -0.0622 -1.6621
  313SOL    MW4 1026   1.425   2.681   4.143 -0.1463 -0.2640  0.0202
  314SOL     OW 1027   1.136   2.548   1.555 -0.1298  0.4168  1.4148
  314SOL    HW2 1028   1.218   2.579   1.515 -0.7944  1.3791  0.7417
  314SOL    HW3 1029   1.074   2.620   1.540 -1.1966 -0.4506  1.5711
  314SOL    MW4 1030   1.139   2.562   1.548  0.0255  0.1455 -0.2790
  315SOL     OW 1031   1.433   2.903   4.533 -0.1191 -0.2255  0.3814
  315SOL    HW2 1032   1.387   2.836   4.482 -0.5871  1.0195 -0.9047
  315SOL    HW3 1033   1.368   2.973   4.545  0.9569  0.8892 -0.1081
  315SOL    MW4 1034   1.418   2.903   4.528  0.2452 -0.1492 -0.1751
  316SOL     OW 1035   0.104   1.460   3.768 -0.1282 -0.1247  0.2098
  316SOL    HW2 1036   0.027   1.478   3.714 -1.5369 -2.2535  1.3454
  316SOL    HW3 1037   0.088   1.372   3.805  2.6145 -0.4400  0.9109
  316SOL    MW4 1038   0.092   1.450   3.766 -0.5828 -0.5963 -1.0781
  317SOL     OW 1039   0.686   2.609   3.074 -0.2498  0.4463 -0.2439
  317SOL    HW2 1040   0.696   2.519   3.043 -3.5367 -0.5055  0.9928
  317SOL    HW3 1041   0.672   2.599   3.169 -1.0679  2.1878 -0.1464
  317SOL    MW4 1042   0.685   2.596   3.083 -0.1115  0.0242 -0.0732
  318SOL     OW 1043   4.689   2.639   3.383 -0.5542 -0.2262  0.0669
  318SOL    HW2 1044   4.712   2.695   3.457  1.2454 -0.8556  0.0481
  318SOL    HW3 1045   4.737   2.677   3.309 -1.7983 -0.0009 -0.6433
  318SOL    MW4 1046   4.699   2.651   3.383  0.5981  0.2816  0.1644
  319SOL     OW 1047   6.111   5.651   4.044  0.1033 -0.4126 -0.0467
  319SOL    HW2 1048   6.094   5.654   3.950 -0.4684 -0.1031  0.0601
  319SOL    HW3 1049   6.033   5.691   4.084  1.6805  2.3983  0.4269
  319SOL    MW4 1050   6.098   5.657   4.037  0.7717  0.0523  0.6725
  320SOL     OW 1051   2.535   0.728   0.697  0.0303 -0.4681  0.4883
  320SOL    HW2 1052   2.623   0.766   0.690  0.1880 -0.8880  0.1393
  320SOL    HW3 1053   2.478   0.795   0.661  0.2647 -0.3925  0.2506
  320SOL    MW4 1054   2.539   0.742   0.691  0.0756 -0.6129 -0.2660
  321SOL     OW 1055   5.303   6.382   6.077 -0.1857  0.5837  0.1337
  321SOL    HW2 1056   5.254   6.371   5.996  1.1245  0.0293 -0.6253
  321SOL    HW3 1057   5.256   6.330   6.141 -1.4438  1.3081 -0.1678
  321SOL    MW4 1058   5.290   6.374   6.075 -0.3497 -0.5176 -0.1143
  322SOL     OW 1059   0.979   4.170   6.424  0.0576  0.5212  0.0301
  322SOL    HW2 1060   1.055   4.114   6.443  0.3255  0.5580 -0.8814
  322SOL    HW3 1061   1.016   4.257   6.412 -0.1994  0.6460  0.1373
  322SOL    MW4 1062   0.994   4.174   6.425 -0.1612 -0.0742 -0.1406
  323SOL     OW 1063   1.061   1.009   5.595 -0.2864 -0.7654 -0.0044
  323SOL    HW2 1064   1.081   0.979   5.683  2.0524  0.1221 -0.1536
  323SOL    HW3 1065   1.095   0.940   5.538  1.0698  0.0531 -0.2359
  323SOL    MW4 1066   1.068   0.996   5.599  0.7545 -0.7358 -0.3150
  324SOL     OW 1067   2.852   1.285   6.200  0.5197  0.1635 -0.6153
  324SOL    HW2 1068   2.928   1.264   6.147  2.0899 -0.4069  1.7345
  324SOL    HW3 1069   2.802   1.203   6.205  1.1952 -0.2174  0.0415
  324SOL    MW4 1070   2.855   1.272   6.194  0.1544 -0.4012  0.4414
  325SOL     OW 1071   2.976   5.315   5.990  0.3664 -0.5071  0.5850
  325SOL    HW2 1072   3.007   5.274   5.909  0.3610 -0.5610  0.6102
  325SOL    HW3 1073   3.029   5.275   6.059 -1.2620 -2.2583  0.9074
  325SOL    MW4 1074   2.987   5.304   5.989 -0.6016  0.1527 -0.2309
  326SOL     OW 1075   4.037   4.574   4.301 -1.0811  0.4888 -0.5870
  326SOL    HW2 1076   4.058   4.667   4.289  2.5941 -0.0995 -0.1107
  326SOL    HW3 1077   3.989   4.570   4.383 -0.6363  1.9188 -0.2291
  326SOL    MW4 1078   4.034   4.585   4.310 -0.1669  0.4522 -0.2586
  327SOL     OW 1079   6.257   6.323   2.443 -0.4645  0.0445 -0.2620
  327SOL    HW2 1080   6.332   6.377   2.423  1.4653 -2.3490  0.0147
  327SOL    HW3 1081   6.258   6.313   2.538 -0.5176 -0.8169 -0.3435
  327SOL    MW4 1082   6.267   6.329   2.453  0.0983 -0.3296 -0.1279
  328SOL     OW 1083   5.486   3.389   2.778 -0.4738  0.9024  0.3909
  328SOL    HW2 1084   5.531   3.421   2.700  0.3551  0.2312  0.5761
  328SOL    HW3 1085   5.557   3.362   2.837 -1.1064  0.6202  1.0429
  328SOL    MW4 1086   5.501   3.390   2.776  0.2960  0.2343 -0.1318
  329SOL     OW 1087   4.303   3.295   5.692  0.0721 -0.2512  0.0706
  329SOL    HW2 1088   4.363   3.250   5.632 -0.2935  0.4458 -0.8390
  329SOL    HW3 1089   4.341   3.382   5.704 -0.2649 -0.1198  0.2094
  329SOL    MW4 1090   4.316   3.301   5.685 -0.1711 -0.3357  0.7937
  330SOL     OW 1091   4.054   4.487   5.253  0.1018 -0.3303 -0.2187
  330SOL    HW2 1092   4.041   4.487   5.348  1.1707 -1.3153 -0.0613
  330SOL    HW3 1093   4.091   4.401   5.234  2.2992  0.7589 -1.1852
  330SOL    MW4 1094   4.057   4.476   5.263  0.4098 -0.0742 -0.5255
  331SOL     OW 1095   2.660   2.675   6.015  0.2236  0.5041 -0.1920
  331SOL    HW2 1096   2.654   2.769   6.030 -2.0276  0.1489  1.5981
  331SOL    HW3 1097   2.633   2.663   5.924 -0.3238  1.5273 -0.1690
  331SOL    MW4 1098   2.656   2.686   6.005  0.2621  0.1234 -0.1416
  332SOL     OW 1099   2.596   0.970   1.853 -0.2578 -0.6198  0.3359
  332SOL    HW2 1100   2.685   0.936   1.848  0.3499  0.7780  1.0185
  332SOL    HW3 1101   2.606   1.065   1.844 -1.6382 -0.4049  0.7853
  332SOL    MW4 1102   2.609   0.978   1.851  0.1448 -1.1603  0.9004
  333SOL     OW 1103   0.930   5.754   2.964 -0.6219 -0.2903 -0.4072
  333SOL    HW2 1104   0.996   5.778   3.030  1.3506 -1.7792 -1.7036
  333SOL    HW3 1105   0.920   5.659   2.973  0.6233 -0.7640 -2.9199
  333SOL    MW4 1106   0.938   5.744   2.974 -0.6958 -0.0315  0.1227
  334SOL     OW 1107   1.135   5.103   5.034 -0.3815  0.0358 -0.3857
  334SOL    HW2 1108   1.179   5.150   5.105 -0.7565  0.8437 -0.6698
  334SOL    HW3 1109   1.068   5.164   5.004  0.0782 -0.1030 -1.7389
  334SOL    MW4 1110   1.132   5.118   5.040 -0.1043  0.3620  0.5056
  335SOL     OW 1111   0.112   0.787   5.905 -0.1504  0.3673 -0.0594
  335SOL    HW2 1112   0.056   0.763   5.980  3.0210  0.5260  2.5757
  335SOL    HW3 1113   0.083   0.728   5.835 -2.6344 -0.5081  1.5335
  335SOL    MW4 1114   0.100   0.776   5.906 -0.2394  0.1230 -0.8331
  336SOL     OW 1115   3.681   2.860   5.271 -0.2113 -0.3698 -0.0859
  336SOL    HW2 1116   3.683   2.852   5.176 -1.5099  3.0310 -0.5268
  336SOL    HW3 1117   3.588   2.863   5.294  0.0766  0.2139  1.1209
  336SOL    MW4 1118   3.669   2.859   5.262 -0.0477  0.0633 -0.5849
  337SOL     OW 1119   0.671   4.067   4.327 -0.3898  0.1028 -0.3043
  337SOL    HW2 1120   0.651   4.121   4.403 -0.5873 -0.3677 -0.0148
  337SOL    HW3 1121   0.739   4.007   4.358  1.7590  1.8603 -1.3357
  337SOL    MW4 1122   0.678   4.066   4.341  0.2194 -0.1833  0.0406
  338SOL     OW 1123   5.342   1.042   3.848 -0.1062 -0.4118 -0.4808
  338SOL    HW2 1124   5.393   1.090   3.783 -1.4673 -1.7737 -2.6909
  338SOL    HW3 1125   5.385   0.957   3.856 -1.1318 -1.0177 -1.2243
  338SOL    MW4 1126   5.354   1.037   3.841 -0.0722  0.0830 -0.2426
  339SOL     OW 1127   5.142   5.341   5.717 -0.2854  0.1722  0.4571
  339SOL    HW2 1128   5.136   5.380   5.630  0.1421  2.2783  1.3175
  339SOL    HW3 1129   5.214   5.278   5.710  0.0139  0.6091 -0.6026
  339SOL    MW4 1130   5.150   5.338   5.705 -0.3890 -0.9373  0.3915
  340SOL     OW 1131   5.000   6.372   1.629  0.1918 -0.2277 -0.1693
  340SOL    HW2 1132   4.931   6.432   1.599  1.0702  1.7134  1.4378
  340SOL    HW3 1133   5.012   6.311   1.556 -1.8398  0.5778 -1.2729
  340SOL    MW4 1134   4.992   6.372   1.615  0.4786 -0.0588  0.4577
  341SOL     OW 1135   5.594   4.190   4.538 -0.5984  0.1063 -0.2415
  341SOL    HW2 1136   5.576   4.266   4.593 -0.0549  0.4506 -0.5364
  341SOL    HW3 1137   5.674   4.152   4.575 -0.8416 -0.3045 -0.1234
  341SOL    MW4 1138   5.602   4.195   4.550  0.4457 -0.8631  0.4831
  342SOL     OW 1139   0.197   3.727   4.375  0.3940  0.5114  0.2851
  342SOL    HW2 1140   0.249   3.800   4.408 -1.1698  1.1941  1.3848
  342SOL    HW3 1141   0.144   3.700   4.450  1.3408 -2.1707  0.0792
  342SOL    MW4 1142   0.197   3.733   4.389  0.7190 -0.0297 -0.1553
  343SOL     OW 1143   0.662   5.723   3.252  0.6424  0.2375  0.7188
  343SOL    HW2 1144   0.749   5.690   3.226  0.3848  0.3590 -0.3449
  343SOL    HW3 1145   0.680   5.807   3.295  0.9946  0.7838 -0.4509
  343SOL    MW4 1146   0.676   5.730   3.254  0.5152 -0.1218 -0.1654
  344SOL     OW 1147   2.052   1.153   5.575 -0.2287  0.3672  0.2841
  344SOL    HW2 1148   2.119   1.201   5.526 -0.0254 -0.4076 -0.2063
  344SOL    HW3 1149   2.095   1.129   5.657  0.0825 -0.0773 -0.0041
  344SOL    MW4 1150   2.067   1.156   5.579 -0.0233  0.4043 -0.6415
  345SOL     OW 1151   3.467   5.276   2.115  0.1691  0.1463 -0.1303
  345SOL    HW2 1152   3.403   5.344   2.097  0.1048  0.2206  0.3553
  345SOL    HW3 1153   3.519   5.269   2.035 -0.2493  0.3009 -0.4146
  345SOL    MW4 1154   3.466   5.284   2.102 -0.6673 -0.1564  0.6881
  346SOL     OW 1155   5.806   5.109   6.204  0.1616 -0.5313  0.6523
  346SOL    HW2 1156   5.750   5.093   6.280 -0.0379 -0.4599  0.5210
  346SOL    HW3 1157   5.774   5.191   6.167 -0.7300 -1.3032 -0.3845
  346SOL    MW4 1158   5.795   5.117   6.209 -0.1132 -0.1994  1.1486
  347SOL     OW 1159   1.852   1.675   4.852  0.1000 -0.1297 -0.0522
  347SOL    HW2 1160   1.910   1.691   4.778  0.1153 -0.4646 -0.1145
  347SOL    HW3 1161   1.893   1.721   4.926 -0.4706  1.1089 -0.4846
  347SOL    MW4 1162   1.865   1.683   4.852  0.1196  0.3414 -0.3668
  348SOL     OW 1163   3.480   1.515   5.784 -0.2747  0.0324 -0.2147
  348SOL    HW2 1164   3.541   1.501   5.711 -0.1200 -0.4575 -0.0000
  348SOL    HW3 1165   3.414   1.575   5.749 -0.8611 -1.0970 -1.1630
  348SOL    MW4 1166   3.479   1.521   5.770 -0.2855  0.2465  0.2785
  349SOL     OW 1167   1.130   4.681   0.858  0.2985 -0.1712 -0.1960
  349SOL    HW2 1168   1.138   4.701   0.765 -0.3599 -1.8276 -0.6393
  349SOL    HW3 1169   1.058   4.619   0.863  0.1012  0.1433  1.4746
  349SOL    MW4 1170   1.122   4.676   0.846  0.1927 -0.5122  0.1878
  350SOL     OW 1171   4.336   6.013   0.471  0.0975 -0.3534  0.0226
  350SOL    HW2 1172   4.349   5.920   0.490 -0.1883 -0.5420 -0.6834
  350SOL    HW3 1173   4.257   6.016   0.417  1.1964  0.0858 -1.6383
  350SOL    MW4 1174   4.327   6.001   0.467  0.1967  0.0653 -0.2126
  351SOL     OW 1175   2.670   3.443   4.442 -0.1057 -0.4996  0.1815
  351SOL    HW2 1176   2.635   3.491   4.516  1.0475 -1.1069  1.1407
  351SOL    HW3 1177   2.646   3.496   4.365 -1.2104  0.1869  0.9756
  351SOL    MW4 1178   2.662   3.456   4.441 -0.1368 -0.7582 -0.4193
  352SOL     OW 1179   0.443   2.899   5.918  0.2507 -0.1035  0.5539
  352SOL    HW2 1180   0.520   2.853   5.953 -0.0597 -0.7545  0.3987
  352SOL    HW3 1181   0.470   2.928   5.831  0.2018 -0.6718  0.3413
  352SOL    MW4 1182   0.457   2.897   5.911  0.0315  0.3956 -0.2738
  353SOL     OW 1183   3.182   5.052   5.486  0.1346 -0.3177 -0.2553
  353SOL    HW2 1184   3.172   4.971   5.436 -0.9380 -0.0208 -0.5488
  353SOL    HW3 1185   3.163   5.121   5.423  1.4518  0.1953 -0.1135
  353SOL    MW4 1186   3.178   5.050   5.471  0.1278  0.6079  0.5839
  354SOL     OW 1187   3.399   3.306   1.287 -0.0072  0.3047 -0.3664
  354SOL    HW2 1188   3.482   3.310   1.333 -0.7496  0.7169  0.9811
  354SOL    HW3 1189   3.413   3.242   1.217  1.0631 -0.5717  0.6256
  354SOL    MW4 1190   3.412   3.298   1.284  0.1590 -0.5358  0.0485
  355SOL     OW 1191   6.046   0.681   5.137 -0.3790 -0.6651 -0.3231
  355SOL    HW2 1192   6.089   0.718   5.060 -1.9968  0.3203 -0.8026
  355SOL    HW3 1193   6.083   0.593   5.145  0.2768 -0.5627 -1.8531
  355SOL    MW4 1194   6.057   0.675   5.128 -0.2874  0.1605  0.1763
  356SOL     OW 1195   3.611   4.286   1.646  0.4304  0.5286  0.1667
  356SOL    HW2 1196   3.703   4.313   1.639  0.9958 -1.6181 -2.4730
  356SOL    HW3 1197   3.613   4.205   1.697  0.3636 -0.6465 -1.6074
  356SOL    MW4 1198   3.623   4.279   1.652 -0.0624 -0.1872 -0.2747
  357SOL     OW 1199   0.790   6.222   0.638  0.0838  0.5263  0.2320
  357SOL    HW2 1200   0.720   6.227   0.573 -0.1404 -0.2530  0.4037
  357SOL    HW3 1201   0.847   6.152   0.606 -0.0434  0.1136  0.8789
  357SOL    MW4 1202   0.788   6.213   0.625 -0.0806  0.0801  0.1041
  358SOL     OW 1203   3.992   2.574   0.928  0.0930 -0.4049  0.5977
  358SOL    HW2 1204   4.013   2.659   0.965  0.9695 -0.1617 -0.4144
  358SOL    HW3 1205   3.900   2.560   0.951 -0.3201  1.1980  0.0622
  358SOL    MW4 1206   3.982   2.583   0.936  0.2007  0.4665 -0.5674
  359SOL     OW 1207   1.989   0.410   2.550  0.0240 -0.0106 -0.2673
  359SOL    HW2 1208   1.952   0.345   2.609 -0.5684  0.8822  0.3725
  359SOL    HW3 1209   2.084   0.396   2.555 -0.1160 -3.1839 -2.9079
  359SOL    MW4 1210   1.997   0.400   2.559 -0.3298 -0.1609  0.2892
  360SOL     OW 1211   3.606   4.047   2.377 -0.5140 -0.3695 -0.2345
  360SOL    HW2 1212   3.627   3.956   2.397  1.0109  0.0489  0.1921
  360SOL    HW3 1213   3.612   4.052   2.281  0.5810 -0.4675 -0.1853
  360SOL    MW4 1214   3.610   4.036   2.367 -0.2220  0.3187  0.8211
  361SOL     OW 1215   4.056   6.190   1.772  0.2555 -0.1925 -0.4067
  361SOL    HW2 1216   4.033   6.156   1.685  0.2308 -1.9890  0.2660
  361SOL    HW3 1217   4.086   6.113   1.821 -1.5217  0.3917  1.7796
  361SOL    MW4 1218   4.057   6.175   1.767  1.1358 -0.0756  0.2284
  362SOL     OW 1219   3.069   1.619   5.856  0.1370 -0.2379 -0.2752
  362SOL    HW2 1220   3.133   1.639   5.788 -0.4707  0.4283 -0.6580
  362SOL    HW3 1221   2.989   1.597   5.809 -0.4367  0.7191  0.2135
  362SOL    MW4 1222   3.067   1.619   5.841 -0.2882  0.1261 -0.6038
  363SOL     OW 1223   6.077   2.777   5.967  0.0884  0.6687 -0.2555
  363SOL    HW2 1224   5.998   2.754   5.918 -0.1892  0.5948  0.2227
  363SOL    HW3 1225   6.090   2.870   5.949 -0.0495  0.6576 -0.4146
  363SOL    MW4 1226   6.068   2.786   5.958  0.3886  0.3707  0.6591
  364SOL     OW 1227   5.705   0.250   1.814  0.1118  0.8415  0.1027
  364SOL    HW2 1228   5.654   0.182   1.770  0.6827 -0.0984  0.8524
  364SOL    HW3 1229   5.792   0.212   1.824 -0.0762  0.8758  2.3223
  364SOL    MW4 1230   5.710   0.236   1.809 -0.2967 -0.3048  0.1576
  365SOL     OW 1231   0.362   2.245   4.924  0.7174 -0.3267  0.0162
  365SOL    HW2 1232   0.277   2.202   4.915  0.7971 -0.7621  1.2157
  365SOL    HW3 1233   0.406   2.228   4.840  0.1796 -1.3219 -0.0794
  365SOL    MW4 1234   0.357   2.237   4.912 -0.2025 -0.0507  0.4422
  366SOL     OW 1235   3.655   5.583   3.452 -0.0478  0.3035  0.0783
  366SOL    HW2 1236   3.589   5.524   3.489  1.0344 -0.6740  0.4965
  366SOL    HW3 1237   3.714   5.527   3.403  0.6885  1.1123  0.0050
  366SOL    MW4 1238   3.654   5.568   3.450  0.0252  0.0078  0.6932
  367SOL     OW 1239   2.887   4.039   0.822 -0.1508 -0.2155 -0.3591
  367SOL    HW2 1240   2.850   4.085   0.746 -1.8859 -0.4366  0.2989
  367SOL    HW3 1241   2.946   3.974   0.785  0.9903  1.3387 -1.3888
  367SOL    MW4 1242   2.890   4.037   0.807 -0.1976 -0.7742  0.4776
  368SOL     OW 1243   3.076   6.179   4.551  0.3349 -0.0210  0.7285
  368SOL    HW2 1244   3.018   6.112   4.515  0.4988  0.0707  0.2871
  368SOL    HW3 1245   3.017   6.238   4.599 -0.0238  0.3990 -0.1989
  368SOL    MW4 1246   3.060   6.178   4.553  0.2599 -0.2374 -0.0121
  369SOL     OW 1247   0.860   6.236   2.284 -0.5405  0.2682 -0.3817
  369SOL    HW2 1248   0.924   6.238   2.356 -1.0764 -1.4075  0.1871
  369SOL    HW3 1249   0.912   6.245   2.205  0.3843 -0.8082  0.0861
  369SOL    MW4 1250   0.875   6.238   2.283  0.2577 -0.2379  0.3167
  370SOL     OW 1251   2.994   1.015   5.578 -0.5711 -0.1103 -0.3403
  370SOL    HW2 1252   2.989   0.947   5.510 -0.4502  0.2500 -0.7154
  370SOL    HW3 1253   3.057   0.982   5.641  0.0851  0.0019 -0.9256
  370SOL    MW4 1254   3.001   1.002   5.577 -0.2730 -0.2206  0.0748
  371SOL     OW 1255   2.978   3.488   5.894  0.4744  0.6353 -0.5669
  371SOL    HW2 1256   2.893   3.472   5.934  0.9577  1.7895  1.0391
  371SOL    HW3 1257   2.976   3.439   5.812 -0.3250 -2.5108  1.1662
  371SOL    MW4 1258   2.967   3.479   5.889 -0.3454  0.6879 -0.2638
  372SOL     OW 1259   4.622   4.741   5.259  0.2436 -0.1698  0.3817
  372SOL    HW2 1260   4.685   4.697   5.316  0.9221 -3.9674 -2.8197
  372SOL    HW3 1261   4.675   4.793   5.199  0.0292 -0.2324  0.1319
  372SOL    MW4 1262   4.637   4.742   5.258 -0.2642  0.1533  0.2942
  373SOL     OW 1263   0.309   2.512   0.285  0.0619 -0.1229 -0.0260
  373SOL    HW2 1264   0.394   2.490   0.248  0.5573 -2.0933  2.0307
  373SOL    HW3 1265   0.249   2.448   0.248 -0.2971  0.5112 -0.5561
  373SOL    MW4 1266   0.313   2.500   0.275  0.2066 -0.4835 -0.0360
  374SOL     OW 1267   1.781   6.200   4.241 -0.3323  0.2789  0.1629
  374SOL    HW2 1268   1.813   6.160   4.160 -0.3878 -0.8615  0.6869
  374SOL    HW3 1269   1.701   6.245   4.215 -1.1646 -1.3062 -0.1661
  374SOL    MW4 1270   1.775   6.200   4.227  0.2969 -0.1857 -0.4549
  375SOL     OW 1271   2.755   5.479   1.391  0.3273  0.1489  0.0241
  375SOL    HW2 1272   2.793   5.424   1.460  1.9713 -0.8468 -1.5736
  375SOL    HW3 1273   2.670   5.439   1.374  0.7803 -0.8878  0.0592
  375SOL    MW4 1274   2.749   5.466   1.398 -0.2209  0.1493  0.2271
  376SOL     OW 1275   5.865   0.108   6.335 -0.0678 -0.0557 -0.3858
  376SOL    HW2 1276   5.822   0.024   6.318  1.5105 -0.3486 -3.6497
  376SOL    HW3 1277   5.797   0.174   6.317 -0.6102 -0.5712 -0.2573
  376SOL    MW4 1278   5.850   0.106   6.330  0.1363  0.2229 -0.2471
  377SOL     OW 1279   4.448   2.969   3.264  0.1855  0.8603  0.6814
  377SOL    HW2 1280   4.364   2.933   3.295 -0.8557  2.4856 -0.1534
  377SOL    HW3 1281   4.442   2.965   3.169  1.3798  0.3439  0.6111
  377SOL    MW4 1282   4.436   2.963   3.256 -0.2187  0.0166 -0.0506
  378SOL     OW 1283   2.149   2.794   3.150 -0.3146  0.7220 -0.3091
  378SOL    HW2 1284   2.242   2.798   3.175 -0.2841  1.1608 -0.4788
  378SOL    HW3 1285   2.139   2.709   3.108 -0.1753  0.3199  0.4500
  378SOL    MW4 1286   2.160   2.783   3.148 -0.5041  0.1304  0.0086
  379SOL     OW 1287   3.967   5.637   0.331  0.3350  0.2990 -0.1455
  379SOL    HW2 1288   3.917   5.614   0.252  0.8913 -1.1576 -0.0998
  379SOL    HW3 1289   3.900   5.658   0.396 -0.1324  1.3305 -0.9310
  379SOL    MW4 1290   3.951   5.637   0.329 -0.4415  0.2212  0.2396
  380SOL     OW 1291   5.858   3.764   4.267  0.0819  0.2270 -0.4381
  380SOL    HW2 1292   5.897   3.745   4.352 -1.4990  1.2497  0.5512
  380SOL    HW3 1293   5.859   3.859   4.260  1.6476  0.1525 -2.3222
  380SOL    MW4 1294   5.864   3.774   4.277  0.2683  0.2137 -0.3203
  381SOL     OW 1295   0.828   4.389   2.490  0.0829  0.2727  0.5174
  381SOL    HW2 1296   0.765   4.349   2.550  0.0474  0.7904  0.8369
  381SOL    HW3 1297   0.890   4.320   2.470 -1.5526 -0.7985 -1.2070
  381SOL    MW4 1298   0.828   4.375   2.496 -0.1311 -0.0974 -0.5603
  382SOL     OW 1299   2.114   3.086   2.580 -0.0863  0.9026  0.1615
  382SOL    HW2 1300   2.081   3.012   2.631  0.4780 -0.8558 -1.8825
  382SOL    HW3 1301   2.169   3.134   2.642  2.4211 -2.3829  0.7629
  382SOL    MW4 1302   2.117   3.082   2.595 -0.0484 -0.2623  0.4862
  383SOL     OW 1303   3.485   3.566   0.558 -0.0581 -0.5644 -0.4429
  383SOL    HW2 1304   3.409   3.508   0.563 -0.6036  0.2155  1.8728
  383SOL    HW3 1305   3.533   3.538   0.480 -2.1763 -1.7466 -1.3950
  383SOL    MW4 1306   3.481   3.555   0.548  0.1153 -0.2746  0.2593
  384SOL     OW 1307   6.078   2.203   6.251 -0.2288  0.4784  0.5067
  384SOL    HW2 1308   5.994   2.159   6.239  1.5080 -3.2628  0.5722
  384SOL    HW3 1309   6.093   2.249   6.168 -1.2532 -0.8884 -0.4992
  384SOL    MW4 1310   6.069   2.203   6.238  0.4424  0.0767  0.3756
  385SOL     OW 1311   2.179   2.464   1.029  0.3080 -0.6406  0.1350
  385SOL    HW2 1312   2.092   2.498   1.047  1.1070  0.6996  1.7461
  385SOL    HW3 1313   2.167   2.370   1.016 -1.3608 -0.4679  0.2880
  385SOL    MW4 1314   2.166   2.456   1.030  0.3286 -0.3667  0.2224
  386SOL     OW 1315   0.418   5.074   1.865  0.5061 -0.5508  0.0287
  386SOL    HW2 1316   0.420   4.994   1.813  2.5022  0.4570 -1.5606
  386SOL    HW3 1317   0.330   5.109   1.852  0.4079 -1.2386 -1.2516
  386SOL    MW4 1318   0.407   5.068   1.856 -0.9379  0.3487 -0.4408
  387SOL     OW 1319   3.777   4.650   3.087  0.0295 -0.3656  0.2448
  387SOL    HW2 1320   3.771   4.624   3.179 -0.7661  2.5696  1.1419
  387SOL    HW3 1321   3.864   4.690   3.080  0.0449 -0.4860 -0.2500
  387SOL    MW4 1322   3.788   4.652   3.098 -0.5473  0.2395  0.4075
  388SOL     OW 1323   5.394   0.437   1.086 -0.3716 -0.3088 -0.3508
  388SOL    HW2 1324   5.420   0.491   1.012 -1.8541 -0.7716 -1.2414
  388SOL    HW3 1325   5.320   0.483   1.125 -1.5113 -1.5464 -0.9856
  388SOL    MW4 1326   5.388   0.450   1.081 -0.0965 -0.4098  0.1038
  389SOL     OW 1327   2.965   4.810   3.418 -0.0467  0.8590 -0.0471
  389SOL    HW2 1328   3.037   4.752   3.393 -0.8836  0.8198 -2.6258
  389SOL    HW3 1329   2.899   4.753   3.457 -1.4773 -0.3864 -3.8210
  389SOL    MW4 1330   2.966   4.795   3.420  0.3324  0.3305  0.7426
  390SOL     OW 1331   4.083   4.396   2.664 -0.1016 -0.0019 -0.0087
  390SOL    HW2 1332   4.025   4.344   2.718 -0.1186  0.4850  0.4437
  390SOL    HW3 1333   4.157   4.337   2.645  0.0611 -0.0638  0.8121
  390SOL    MW4 1334   4.085   4.381   2.668  0.0194 -0.1910  0.7734
  391SOL     OW 1335   3.605   5.315   2.966 -0.2537  0.4589 -0.3331
  391SOL    HW2 1336   3.544   5.243   2.951 -0.7015  0.6127  0.6213
  391SOL    HW3 1337   3.691   5.276   2.956 -0.4564 -0.5434  1.3553
  391SOL    MW4 1338   3.608   5.301   2.963 -0.5998 -0.1068 -0.0760
  392SOL     OW 1339   3.466   3.007   3.158  0.0908 -0.2885 -0.3837
  392SOL    HW2 1340   3.489   2.973   3.244 -0.8220 -0.5267 -0.2246
  392SOL    HW3 1341   3.544   2.990   3.105  0.1037 -1.5934 -0.0035
  392SOL    MW4 1342   3.479   3.000   3.162 -0.5559  0.9039  0.0124
  393SOL     OW 1343  -0.004   0.083   4.214 -0.4781  0.0730 -0.5657
  393SOL    HW2 1344  -0.074   0.129   4.261 -1.2284 -0.8796 -0.6916
  393SOL    HW3 1345   0.046   0.152   4.170 -1.1367  0.8054 -0.1895
  393SOL    MW4 1346  -0.007   0.098   4.214  0.1996  0.3215  0.1831
  394SOL     OW 1347   0.813   3.224   3.718 -0.4434  0.1788  0.1022
  394SOL    HW2 1348   0.736   3.173   3.691 -0.5154 -1.1170  2.4304
  394SOL    HW3 1349   0.824   3.290   3.650 -1.5182 -1.7652 -2.0903
  394SOL    MW4 1350   0.804   3.226   3.705 -0.4224 -0.0360  0.0593
  395SOL     OW 1351   3.917   3.572   2.355  0.0283 -0.1505  0.0072
  395SOL    HW2 1352   3.903   3.528   2.271 -1.0292 -0.5975  0.4042
  395SOL    HW3 1353   3.845   3.634   2.362  0.3712  0.2109  0.3816
  395SOL    MW4 1354   3.906   3.574   2.345 -0.0693 -0.6461 -0.6183
  396SOL     OW 1355   6.207   3.290   0.959  0.1892  0.0499  0.3157
  396SOL    HW2 1356   6.286   3.343   0.964 -0.4887  0.9744  1.9253
  396SOL    HW3 1357   6.210   3.235   1.037 -0.2346 -0.6783 -0.1682
  396SOL    MW4 1358   6.218   3.289   0.970  0.1954 -0.1495 -0.6375
  397SOL     OW 1359   5.041   1.419   1.866  0.5871  0.0352 -0.6137
  397SOL    HW2 1360   5.120   1.466   1.836  0.0171  1.1598 -0.4151
  397SOL    HW3 1361   5.074   1.355   1.930  1.4908 -0.4880 -1.5708
  397SOL    MW4 1362   5.056   1.417   1.870 -0.7277 -0.3906  0.3032
  398SOL     OW 1363   1.872   1.186   0.749 -0.7689 -0.5190 -0.1020
  398SOL    HW2 1364   1.803   1.252   0.763 -1.1539 -0.8233 -0.5186
  398SOL    HW3 1365   1.950   1.237   0.728 -0.8456 -0.1643  0.4359
  398SOL    MW4 1366   1.873   1.202   0.748  0.2839  0.1343 -0.6565
  399SOL     OW 1367   2.272   2.541   4.267 -0.2929 -0.5802  0.5767
  399SOL    HW2 1368   2.281   2.505   4.179 -2.6290  1.6483 -0.7178
  399SOL    HW3 1369   2.230   2.472   4.317 -1.7837 -0.8648 -0.9544
  399SOL    MW4 1370   2.268   2.527   4.262 -0.4324  0.2117  0.0613
  400SOL     OW 1371   5.808   2.762   1.891 -0.5664  0.4666  0.2299
  400SOL    HW2 1372   5.812   2.769   1.986 -0.9803 -0.1300  0.2942
  400SOL    HW3 1373   5.719   2.734   1.872 -0.7841  1.5441 -0.4012
  400SOL    MW4 1374   5.797   2.759   1.901 -0.1531  0.0282  0.2094
  401SOL     OW 1375   5.995   4.778   2.728 -0.2824  1.0723 -0.0323
  401SOL    HW2 1376   6.016   4.805   2.639 -0.8032  1.9569  0.1034
  401SOL    HW3 1377   6.002   4.683   2.727  0.3528  1.1214 -0.8484
  401SOL    MW4 1378   5.999   4.769   2.716  0.7819  0.4193 -0.0303
  402SOL     OW 1379   2.173   1.422   3.882  0.0674  0.2395 -0.1458
  402SOL    HW2 1380   2.227   1.359   3.930 -1.8900 -1.8235 -0.4566
  402SOL    HW3 1381   2.168   1.498   3.940 -1.6839 -1.9019  2.8369
  402SOL    MW4 1382   2.179   1.423   3.896 -0.4709 -0.0032 -0.0297
  403SOL     OW 1383   3.834   2.574   0.635  0.0871  0.1523 -0.1660
  403SOL    HW2 1384   3.781   2.624   0.698 -0.2593  0.0015 -0.3338
  403SOL    HW3 1385   3.898   2.637   0.603 -0.5377  0.5886 -0.6005
  403SOL    MW4 1386   3.835   2.589   0.639  0.7642  0.0017  0.0486
  404SOL     OW 1387   4.535   4.218   1.598  0.5081 -0.0341 -0.3849
  404SOL    HW2 1388   4.446   4.186   1.616  0.1829  1.5051  1.0460
  404SOL    HW3 1389   4.591   4.166   1.656  0.1731  0.8856  0.7930
  404SOL    MW4 1390   4.530   4.207   1.608 -0.1273  0.1263  0.6630
  405SOL     OW 1391   0.758   5.758   4.337  0.0353  0.0173  0.5967
  405SOL    HW2 1392   0.750   5.668   4.368 -1.6027  0.0835  0.4824
  405SOL    HW3 1393   0.732   5.755   4.245 -0.9216  0.7268  0.8285
  405SOL    MW4 1394   0.753   5.746   4.329 -0.2001 -0.2484  0.2587
  406SOL     OW 1395   2.417   3.347   4.787 -0.2805 -0.5139 -0.3233
  406SOL    HW2 1396   2.357   3.324   4.717  0.6615 -0.3909 -1.2038
  406SOL    HW3 1397   2.364   3.396   4.850 -1.2819 -1.1926 -0.6310
  406SOL    MW4 1398   2.402   3.350   4.786  0.3963  0.0235  0.3313
  407SOL     OW 1399   3.244   5.325   5.530 -0.2172 -0.4498  0.3573
  407SOL    HW2 1400   3.196   5.300   5.451 -2.2886 -0.2476  1.4676
  407SOL    HW3 1401   3.283   5.243   5.561  0.4476 -0.5628 -0.7515
  407SOL    MW4 1402   3.243   5.311   5.524 -0.5729 -0.2917 -0.6819
  408SOL     OW 1403   6.263   6.091   5.602 -0.0531 -0.1997 -0.1971
  408SOL    HW2 1404   6.318   6.162   5.568  0.4479 -1.1183 -1.3905
  408SOL    HW3 1405   6.324   6.030   5.644 -0.2939 -0.6384 -0.4700
  408SOL    MW4 1406   6.278   6.092   5.603 -0.2984  0.3638  0.3780
  409SOL     OW 1407   0.645   1.176   4.843 -0.2924 -0.0113  0.4141
  409SOL    HW2 1408   0.665   1.219   4.760  0.1086 -0.9287  0.0090
  409SOL    HW3 1409   0.645   1.246   4.908 -0.4292  0.6932 -0.3312
  409SOL    MW4 1410   0.648   1.191   4.840  0.0862  0.6668 -0.1232
  410SOL     OW 1411   0.835   6.134   5.354 -0.3207 -0.0127 -0.2110
  410SOL    HW2 1412   0.813   6.175   5.438  0.2238  0.3048 -0.2167
  410SOL    HW3 1413   0.755   6.142   5.301 -0.3931  0.5657 -0.0244
  410SOL    MW4 1414   0.821   6.141   5.358 -0.1046 -0.7739 -0.2314
  411SOL     OW 1415   5.399   0.507   5.581 -0.1427 -0.0788 -0.1169
  411SOL    HW2 1416   5.415   0.598   5.604  0.7780 -0.1870 -0.2922
  411SOL    HW3 1417   5.429   0.457   5.658 -0.2004 -0.2614 -0.2107
  411SOL    MW4 1418   5.405   0.512   5.594  0.4062 -0.5530  0.0467
  412SOL     OW 1419   3.166   3.978   4.471 -0.0716  0.5206  0.1889
  412SOL    HW2 1420   3.226   3.955   4.543  0.1055 -0.1054 -0.1501
  412SOL    HW3 1421   3.100   3.908   4.472 -0.0405  0.4813 -0.2871
  412SOL    MW4 1422   3.165   3.965   4.481  0.0733 -0.0656  0.3593
  413SOL     OW 1423   1.963   4.389   3.541 -0.3128 -0.1992  0.0294
  413SOL    HW2 1424   1.908   4.447   3.488  1.4004  0.7265 -0.7995
  413SOL    HW3 1425   2.005   4.331   3.478  1.1629  0.4076  0.4295
  413SOL    MW4 1426   1.961   4.389   3.526  0.1689 -0.3647  0.4129
  414SOL     OW 1427   3.101   4.314   0.062 -0.2605 -0.6371  0.3410
  414SOL    HW2 1428   3.192   4.311   0.031 -0.7724 -0.4787 -1.2383
  414SOL    HW3 1429   3.082   4.223   0.087 -0.1541 -0.9989 -0.8287
  414SOL    MW4 1430   3.111   4.301   0.062 -0.3572 -0.1255 -0.4957
  415SOL     OW 1431   3.341   1.276   5.823  0.0017 -0.0143  0.2818
  415SOL    HW2 1432   3.345   1.261   5.918 -1.8610  1.5662  0.6509
  415SOL    HW3 1433   3.363   1.368   5.812  0.5242 -0.2577 -0.8944
  415SOL    MW4 1434   3.344   1.286   5.834 -0.3465  0.1158  0.2919
  416SOL     OW 1435   5.761   0.522   1.744  0.3485  0.0047 -0.1181
  416SOL    HW2 1436   5.682   0.563   1.778  1.3083  0.5903  1.4982
  416SOL    HW3 1437   5.742   0.428   1.748  0.9166 -0.1068  3.6517
  416SOL    MW4 1438   5.748   0.515   1.749  0.0177  0.2047  0.7630
  417SOL     OW 1439   4.452   1.729   1.999 -0.0797 -0.4335  0.2296
  417SOL    HW2 1440   4.455   1.824   1.991 -0.1553 -0.4003  0.6116
  417SOL    HW3 1441   4.375   1.703   1.949 -1.3724 -0.1009  1.9561
  417SOL    MW4 1442   4.442   1.738   1.991 -0.4144  0.3929  0.1979
  418SOL     OW 1443   6.272   2.924   2.435  0.2861  0.6910  0.4777
  418SOL    HW2 1444   6.205   2.915   2.503 -0.9385 -1.9778 -0.9571
  418SOL    HW3 1445   6.236   2.879   2.359  1.8126  3.1035 -1.8736
  418SOL    MW4 1446   6.258   2.917   2.434 -0.5375  0.6363  0.2722
  419SOL     OW 1447   0.073   5.646   3.382 -0.5096 -0.0502  0.0540
  419SOL    HW2 1448   0.088   5.604   3.297  1.6665  0.6895 -0.0053
  419SOL    HW3 1449  -0.020   5.666   3.383 -0.8071 -1.1533 -1.6524
  419SOL    MW4 1450   0.063   5.643   3.371 -0.0025  0.2763 -0.0153
  420SOL     OW 1451   3.450   6.364   2.076  0.4479  0.0618  0.5876
  420SOL    HW2 1452   3.395   6.291   2.049  0.7349 -0.2081  0.7218
  420SOL    HW3 1453   3.408   6.398   2.155  0.5627 -0.2477  0.7838
  420SOL    MW4 1454   3.437   6.359   2.083  0.0451 -0.6335  0.6124
  421SOL     OW 1455   0.994   5.792   3.638 -0.7703 -0.5227  0.3911
  421SOL    HW2 1456   1.089   5.792   3.635 -0.7863 -0.7351 -0.1939
  421SOL    HW3 1457   0.973   5.799   3.731 -0.1857 -0.3977  0.5156
  421SOL    MW4 1458   1.004   5.793   3.650 -0.0591  0.1027  0.3094
  422SOL     OW 1459   5.191   3.521   4.279 -0.1423  0.0789  0.3119
  422SOL    HW2 1460   5.116   3.512   4.221 -0.8077 -0.0480  1.1799
  422SOL    HW3 1461   5.241   3.440   4.266 -1.3523 -0.8767  1.3847
  422SOL    MW4 1462   5.188   3.509   4.269  0.4807 -0.1616  0.6922
  423SOL     OW 1463   1.056   0.583   2.243  0.2638 -0.7950 -0.4878
  423SOL    HW2 1464   1.138   0.632   2.250 -0.6013  0.6220  0.1088
  423SOL    HW3 1465   1.063   0.515   2.311 -0.1317  0.9963  1.4361
  423SOL    MW4 1466   1.068   0.580   2.253  0.7264 -0.3959 -0.0748
  424SOL     OW 1467   3.125   6.236   0.252  0.8247 -0.1612  0.2691
  424SOL    HW2 1468   3.085   6.248   0.338  1.2484  1.8468  0.2221
  424SOL    HW3 1469   3.182   6.312   0.241  0.6284 -0.2666 -1.8571
  424SOL    MW4 1470   3.127   6.248   0.262  0.2375  0.6340 -0.2020
  425SOL     OW 1471   2.699   4.711   6.075  0.3725  0.5904 -0.3253
  425SOL    HW2 1472   2.770   4.665   6.120 -1.3637 -1.3806  0.5490
  425SOL    HW3 1473   2.658   4.765   6.143 -1.7002 -1.7230  0.4153
  425SOL    MW4 1474   2.703   4.712   6.090 -0.0365  0.0635  0.6478
  426SOL     OW 1475   2.071   2.073   3.471  0.1392 -0.4177  0.1985
  426SOL    HW2 1476   1.997   2.070   3.532 -0.0224 -0.4850  0.0005
  426SOL    HW3 1477   2.073   1.986   3.431  0.6459 -0.5806  0.5766
  426SOL    MW4 1478   2.061   2.061   3.473  0.5868  0.0282  0.5295
  427SOL     OW 1479   2.930   2.513   0.490 -0.0141 -0.6961  0.5990
  427SOL    HW2 1480   2.850   2.554   0.456  1.4711  1.2088 -0.7941
  427SOL    HW3 1481   2.946   2.440   0.431  0.4901  0.3254 -0.5851
  427SOL    MW4 1482   2.922   2.509   0.478  0.1271  0.2360 -0.8698
  428SOL     OW 1483   5.018   5.801   5.949  0.2426  0.5029 -0.8570
  428SOL    HW2 1484   5.024   5.889   5.985  0.0040  0.1205  0.1331
  428SOL    HW3 1485   4.956   5.755   6.006 -0.4786  0.0009 -1.9900
  428SOL    MW4 1486   5.010   5.806   5.961 -0.1501 -0.2299 -0.1269
  429SOL     OW 1487   1.398   2.647   0.242  0.1765  0.1458 -1.2962
  429SOL    HW2 1488   1.334   2.582   0.270  0.5513 -0.1853 -1.2078
  429SOL    HW3 1489   1.386   2.720   0.304  1.5309 -0.8843  0.2601
  429SOL    MW4 1490   1.388   2.648   0.254  0.0617 -0.1701  0.6159
  430SOL     OW 1491   1.111   1.904   5.329 -0.1188 -1.0059  0.7198
  430SOL    HW2 1492   1.176   1.897   5.399  0.7710 -1.0578 -0.0893
  430SOL    HW3 1493   1.132   1.831   5.271 -1.4203 -1.5069  0.8484
  430SOL    MW4 1494   1.122   1.893   5.331 -0.0539  0.5332  0.3277
  431SOL     OW 1495   4.771   4.803   4.422 -0.5266 -0.5883  0.2013
  431SOL    HW2 1496   4.691   4.753   4.438 -1.2536  0.2539 -0.7384
  431SOL    HW3 1497   4.745   4.894   4.434 -0.0411 -0.2136 -1.4287
  431SOL    MW4 1498   4.757   4.808   4.426  0.2272 -0.1826 -0.2747
  432SOL     OW 1499   3.642   2.142   6.028 -0.1912 -0.4164  0.2075
  432SOL    HW2 1500   3.590   2.121   6.105 -0.7793  1.7884  0.4873
  432SOL    HW3 1501   3.597   2.100   5.955 -2.2299  1.1001  0.4982
  432SOL    MW4 1502   3.629   2.134   6.028 -0.3467 -0.2173 -0.2861
  433SOL     OW 1503   4.691   2.019   5.178  0.0153 -0.1838  0.3583
  433SOL    HW2 1504   4.691   1.973   5.262  1.1491 -0.7357  0.0842
  433SOL    HW3 1505   4.726   2.106   5.199 -0.2762 -0.1153  0.5598
  433SOL    MW4 1506   4.696   2.024   5.192  0.1551  0.5766 -0.3838
  434SOL     OW 1507   1.911   1.221   2.813 -0.2801 -0.2803 -0.0129
  434SOL    HW2 1508   1.950   1.283   2.875 -0.1496 -0.1828 -0.1914
  434SOL    HW3 1509   1.967   1.227   2.735  0.7177 -1.7932  0.5292
  434SOL    MW4 1510   1.924   1.230   2.811  0.4921 -0.1016  0.1698
  435SOL     OW 1511   3.656   0.942   5.907 -0.1645  0.0414  0.2854
  435SOL    HW2 1512   3.596   0.904   5.970 -2.5651  0.8527 -1.3657
  435SOL    HW3 1513   3.617   0.922   5.821  0.0164  3.4775 -0.7695
  435SOL    MW4 1514   3.643   0.934   5.904 -0.2722  0.0714 -0.4416
  436SOL     OW 1515   5.280   6.273   5.524 -0.3289  0.1447  0.3618
  436SOL    HW2 1516   5.298   6.221   5.603 -0.8331  0.2585  0.5542
  436SOL    HW3 1517   5.357   6.258   5.468 -0.1468 -0.2503  0.7063
  436SOL    MW4 1518   5.293   6.264   5.527 -0.8717  0.3371  0.8407
  437SOL     OW 1519   4.892   3.681   3.587  0.6019 -0.2259  0.0741
  437SOL    HW2 1520   4.850   3.681   3.501 -1.2900 -1.4254  0.9397
  437SOL    HW3 1521   4.983   3.658   3.569  0.4086  0.1866 -1.6460
  437SOL    MW4 1522   4.899   3.678   3.573 -1.0847 -0.2585 -0.4061
  438SOL     OW 1523   1.142   4.939   0.999 -0.3313 -0.4352 -0.2752
  438SOL    HW2 1524   1.195   4.920   1.077  2.6410  0.8122 -1.8345
  438SOL    HW3 1525   1.121   4.853   0.963  2.9109 -1.0471 -0.9559
  438SOL    MW4 1526   1.146   4.925   1.005 -0.2723  0.0315  0.0250
  439SOL     OW 1527   1.118   1.974   2.069  0.1150  0.0551  0.3544
  439SOL    HW2 1528   1.196   1.973   2.014 -0.4469  0.7812 -0.4765
  439SOL    HW3 1529   1.061   1.906   2.032 -0.6953  1.2350 -0.6387
  439SOL    MW4 1530   1.121   1.965   2.057  0.1612 -0.4008 -0.0390
  440SOL     OW 1531   1.051   0.466   1.019 -0.0805  0.8239  0.1139
  440SOL    HW2 1532   1.088   0.487   0.933  0.7221  3.3353  0.9836
  440SOL    HW3 1533   1.000   0.543   1.043 -2.0148 -0.6730  1.0389
  440SOL    MW4 1534   1.049   0.479   1.011 -0.6809  0.0804 -0.2860
  441SOL     OW 1535   2.881   4.478   0.060 -0.2286  0.2589 -0.0507
  441SOL    HW2 1536   2.948   4.419   0.025  0.8284  1.4888 -0.1561
  441SOL    HW3 1537   2.925   4.526   0.130 -1.4804 -0.0445  0.9828
  441SOL    MW4 1538   2.896   4.477   0.064 -0.8113  0.0365 -0.0996
  442SOL     OW 1539   3.322   0.237   5.480  0.0250  0.3869 -0.3495
  442SOL    HW2 1540   3.389   0.298   5.509 -0.3038  0.2601  0.7669
  442SOL    HW3 1541   3.240   0.274   5.514 -0.1867 -0.6182  0.2789
  442SOL    MW4 1542   3.320   0.250   5.489 -0.3273 -0.3082  0.0599
  443SOL     OW 1543   3.933   0.068   4.014  0.7660  0.1479  0.3765
  443SOL    HW2 1544   3.947  -0.025   4.030  0.4046  0.0149 -0.0617
  443SOL    HW3 1545   3.996   0.089   3.945  0.9946  0.2793  0.6227
  443SOL    MW4 1546   3.943   0.058   4.007 -0.1806 -0.1637  0.0956
  444SOL     OW 1547   3.475   3.626   2.008 -0.0782 -0.1588  0.1442
  444SOL    HW2 1548   3.409   3.598   1.945 -0.5597  0.1019  0.5321
  444SOL    HW3 1549   3.436   3.701   2.053  0.8626  0.6091 -0.2924
  444SOL    MW4 1550   3.461   3.632   2.006  0.1137  0.5291 -0.3271
  445SOL     OW 1551   4.379   5.935   0.932 -0.2908 -0.2034 -0.0078
  445SOL    HW2 1552   4.449   5.986   0.891  0.0547 -0.3936  0.3408
  445SOL    HW3 1553   4.370   5.972   1.019  1.4872 -2.1359  1.0667
  445SOL    MW4 1554   4.387   5.947   0.938  0.0927  0.2971  0.0898
  446SOL     OW 1555   1.932   3.464   1.939 -0.2711  0.1219  1.5115
  446SOL    HW2 1556   1.852   3.414   1.955 -0.2175 -0.1454  0.9588
  446SOL    HW3 1557   1.935   3.476   1.844  0.5079 -0.1556  1.4918
  446SOL    MW4 1558   1.922   3.459   1.929  0.6185 -0.1211 -0.6573
  447SOL     OW 1559   4.003   6.003   4.659  0.0324  0.3076  0.0334
  447SOL    HW2 1560   4.086   6.020   4.614  0.2283  0.9071  0.6151
  447SOL    HW3 1561   4.021   6.021   4.751 -0.4922 -0.4760  0.2965
  447SOL    MW4 1562   4.016   6.007   4.665  0.0119  0.0022 -0.0002
  448SOL     OW 1563   2.235   1.443   1.679  0.1399 -0.1407  0.2400
  448SOL    HW2 1564   2.294   1.466   1.607  0.2505 -0.2004  0.3107
  448SOL    HW3 1565   2.275   1.482   1.756  0.2609 -0.4562  0.3410
  448SOL    MW4 1566   2.248   1.451   1.679  0.0828 -0.0768  0.1835
  449SOL     OW 1567   4.497   4.070   1.139 -0.8959 -0.1683 -0.1887
  449SOL    HW2 1568   4.534   4.156   1.155 -1.5792 -0.3029  2.9746
  449SOL    HW3 1569   4.572   4.012   1.127 -0.3308  0.4918  0.1553
  449SOL    MW4 1570   4.512   4.073   1.140 -0.7180 -0.0107  0.4389
  450SOL     OW 1571   1.898   5.420   0.735  0.3077 -0.2971  0.0257
  450SOL    HW2 1572   1.890   5.349   0.798 -0.8240  1.2237  1.7261
  450SOL    HW3 1573   1.812   5.462   0.736  0.2189 -0.2884 -2.6930
  450SOL    MW4 1574   1.886   5.416   0.744  0.1659  0.4902 -0.1160
  451SOL     OW 1575   3.730   5.102   2.683  0.2714  0.2453  0.3470
  451SOL    HW2 1576   3.634   5.098   2.678  0.3044 -0.4333  0.0860
  451SOL    HW3 1577   3.755   5.158   2.610  0.0729  0.4457  0.4297
  451SOL    MW4 1578   3.720   5.109   2.673 -0.1808 -0.2708 -0.0710
  452SOL     OW 1579   5.227   1.581   0.431  0.4779  0.2389  0.4036
  452SOL    HW2 1580   5.250   1.563   0.340 -0.1241 -0.3033  0.3529
  452SOL    HW3 1581   5.295   1.537   0.482 -0.2217 -1.0958  0.2469
  452SOL    MW4 1582   5.239   1.573   0.426  0.1419  0.3205  0.0318
  453SOL     OW 1583   2.021   3.433   4.578  0.9829  0.1570 -0.6622
  453SOL    HW2 1584   1.967   3.475   4.646 -1.1488 -1.0314 -1.5126
  453SOL    HW3 1585   2.052   3.352   4.618  1.5658  0.5046 -0.4028
  453SOL    MW4 1586   2.018   3.428   4.592 -0.4001  0.2474 -0.2916
  454SOL     OW 1587   4.289   2.891   0.126  0.1341 -0.5789 -0.2134
  454SOL    HW2 1588   4.326   2.977   0.106  0.6880 -0.8458 -0.3669
  454SOL    HW3 1589   4.347   2.855   0.193 -0.7764 -0.3566  0.7025
  454SOL    MW4 1590   4.301   2.898   0.132 -0.0715  0.6439  0.1808
  455SOL     OW 1591   3.406   1.096   0.284  0.2474  0.3310  0.3725
  455SOL    HW2 1592   3.443   1.040   0.216  1.5945  2.1898 -0.4881
  455SOL    HW3 1593   3.405   1.184   0.246 -3.5523  0.7322  0.9720
  455SOL    MW4 1594   3.411   1.100   0.270  0.3213  0.1662  0.8199
  456SOL     OW 1595   1.592   4.550   6.082  0.6453  0.0038 -0.0365
  456SOL    HW2 1596   1.551   4.635   6.070  0.8172  0.0525 -0.2744
  456SOL    HW3 1597   1.519   4.489   6.092  0.5224  0.2581  0.6948
  456SOL    MW4 1598   1.577   4.553   6.082  0.4728 -0.1283  0.4418
  457SOL     OW 1599   4.664   1.123   1.697 -0.4301  0.1424 -0.6503
  457SOL    HW2 1600   4.698   1.047   1.743 -1.9239 -1.4971 -2.0871
  457SOL    HW3 1601   4.603   1.164   1.758 -0.4080 -0.4512 -0.2275
  457SOL    MW4 1602   4.660   1.119   1.711  0.4678  0.3347  0.1624
  458SOL     OW 1603   5.437   0.153   6.421 -0.0892 -0.0139  0.1085
  458SOL    HW2 1604   5.422   0.059   6.423  0.1509 -0.0720  2.1244
  458SOL    HW3 1605   5.350   0.192   6.432  0.0078 -0.0760  1.2138
  458SOL    MW4 1606   5.424   0.146   6.423  0.5424 -0.3089 -0.1037
  459SOL     OW 1607   6.056   6.010   6.179 -0.0535  0.7026 -0.7799
  459SOL    HW2 1608   6.122   5.951   6.215 -1.2568 -0.4779 -0.3874
  459SOL    HW3 1609   6.081   6.097   6.210 -0.0129 -0.0226  1.4074
  459SOL    MW4 1610   6.068   6.013   6.188 -0.2243  0.0197 -0.5330
  460SOL     OW 1611   2.084   5.751   6.145 -0.4617 -0.5471  0.1534
  460SOL    HW2 1612   2.091   5.727   6.237  0.5104  0.2181  0.2907
  460SOL    HW3 1613   2.051   5.841   6.146 -2.3753 -1.1932 -0.3113
  460SOL    MW4 1614   2.080   5.760   6.157  0.6777 -0.2608  0.2155
  461SOL     OW 1615   0.065   1.067   4.450  0.2519  0.6538 -0.0629
  461SOL    HW2 1616   0.033   1.008   4.518  1.2758  0.0650 -0.0752
  461SOL    HW3 1617   0.050   1.019   4.368 -1.2000  1.4578 -0.3014
  461SOL    MW4 1618   0.059   1.053   4.448  0.0910 -0.2165 -0.1030
  462SOL     OW 1619   4.175   1.535   0.633 -0.2665  0.2069 -0.0402
  462SOL    HW2 1620   4.080   1.531   0.626 -0.1379 -0.9013 -1.6495
  462SOL    HW3 1621   4.196   1.628   0.628 -1.1830  0.3709 -1.0955
  462SOL    MW4 1622   4.165   1.547   0.632  0.0496  0.0205  0.1935
  463SOL     OW 1623   3.490   4.960   0.240  0.1140  0.0342  0.0472
  463SOL    HW2 1624   3.501   5.055   0.237  1.6654 -0.1238 -2.0303
  463SOL    HW3 1625   3.401   4.947   0.273 -0.8015  2.2869 -1.2702
  463SOL    MW4 1626   3.479   4.971   0.244 -0.1089 -0.1438  0.6850
  464SOL     OW 1627   4.752   6.104   2.586  0.0574 -0.2679 -0.6806
  464SOL    HW2 1628   4.756   6.200   2.596 -3.1003  0.0254 -1.3002
  464SOL    HW3 1629   4.735   6.090   2.493  0.4639 -1.4593 -0.5944
  464SOL    MW4 1630   4.751   6.115   2.575 -0.2283  0.3022  0.1962
  465SOL     OW 1631   1.068   3.667   3.149 -0.5885 -0.1155 -0.5601
  465SOL    HW2 1632   1.076   3.668   3.054 -2.4874 -0.2841 -0.7470
  465SOL    HW3 1633   0.975   3.683   3.166 -0.0092  1.7174  1.3165
  465SOL    MW4 1634   1.057   3.669   3.139  0.0690  0.4078 -0.1475
  466SOL     OW 1635   3.556   5.391   4.734 -0.0590  0.4100  0.2214
  466SOL    HW2 1636   3.514   5.433   4.658 -0.4513 -1.2068 -0.5114
  466SOL    HW3 1637   3.508   5.425   4.809 -0.4528  1.1695 -0.3579
  466SOL    MW4 1638   3.544   5.401   4.734 -0.0590 -0.1475  0.2125
  467SOL     OW 1639   5.718   4.866   2.341  0.3225  0.9302  0.3412
  467SOL    HW2 1640   5.623   4.875   2.336  0.3450  2.0210  1.2119
  467SOL    HW3 1641   5.751   4.922   2.271  0.3245 -0.8548 -1.1428
  467SOL    MW4 1642   5.710   4.875   2.331  0.3061 -0.0026 -0.1956
  468SOL     OW 1643   4.696   1.478   3.968  0.1737 -0.7354 -0.1851
  468SOL    HW2 1644   4.788   1.500   3.983 -0.0913  1.0204 -0.9437
  468SOL    HW3 1645   4.688   1.387   3.997  1.3543  0.0944  3.2950
  468SOL    MW4 1646   4.707   1.469   3.974  0.3960  0.0188 -0.1153
  469SOL     OW 1647   0.310   2.625   5.829 -0.2619  0.2712  0.1052
  469SOL    HW2 1648   0.235   2.665   5.785 -0.6872 -0.8131 -0.1710
  469SOL    HW3 1649   0.359   2.700   5.864 -0.5638  1.0950 -1.1506
  469SOL    MW4 1650   0.307   2.640   5.828 -0.2919  0.0579  0.2693
  470SOL     OW 1651   2.919   2.796   3.086  0.2980 -0.3361  0.1695
  470SOL    HW2 1652   2.996   2.785   3.142  1.0360  0.5273 -0.6423
  470SOL    HW3 1653   2.924   2.723   3.024  0.5091 -0.2268  0.0589
  470SOL    MW4 1654   2.930   2.785   3.086  0.2333  0.3095  0.0411
  471SOL     OW 1655   4.250   5.794   4.901 -0.3317  0.5548  0.2964
  471SOL    HW2 1656   4.288   5.724   4.953 -0.2416 -1.2681 -2.0345
  471SOL    HW3 1657   4.311   5.806   4.828 -0.3246  3.1353  0.6288
  471SOL    MW4 1658   4.263   5.786   4.898 -0.3545  0.3327 -0.7704
  472SOL     OW 1659   0.776   0.734   3.835 -0.2936 -0.8390 -0.2576
  472SOL    HW2 1660   0.773   0.809   3.777 -1.2341  0.6706  1.6100
  472SOL    HW3 1661   0.755   0.659   3.779  1.0745  0.1892 -2.2508
  472SOL    MW4 1662   0.772   0.734   3.820 -0.1249  0.2728 -0.1074
  473SOL     OW 1663   3.114   4.782   2.172 -0.0787  0.2016 -0.3759
  473SOL    HW2 1664   3.069   4.731   2.104 -1.8432  0.7193  0.3589
  473SOL    HW3 1665   3.167   4.718   2.219 -0.3413 -0.4990 -1.0194
  473SOL    MW4 1666   3.115   4.767   2.169 -0.1484 -0.1693 -0.1039
  474SOL     OW 1667   4.546   5.358   3.625  0.3940  0.2892 -0.6272
  474SOL    HW2 1668   4.534   5.331   3.716 -1.9479  0.7111 -0.7467
  474SOL    HW3 1669   4.620   5.306   3.594  1.2043  0.0721  1.4694
  474SOL    MW4 1670   4.554   5.348   3.633  0.0783  0.6136  0.2115
  475SOL     OW 1671   3.000   0.236   3.108 -0.3137 -0.2104 -0.1107
  475SOL    HW2 1672   2.970   0.319   3.073 -0.0091  0.1085  0.3607
  475SOL    HW3 1673   2.927   0.205   3.162 -0.4498 -0.2782 -0.3342
  475SOL    MW4 1674   2.987   0.243   3.111  0.1792  0.0313  0.0985
  476SOL     OW 1675   2.412   0.421   4.208  0.4636  0.2020 -0.3208
  476SOL    HW2 1676   2.445   0.334   4.231 -1.5513 -0.1501  1.6172
  476SOL    HW3 1677   2.328   0.404   4.166  0.4058  1.2135 -0.6368
  476SOL    MW4 1678   2.405   0.407   4.205  0.0280 -0.0474  0.1704
  477SOL     OW 1679   0.516   0.767   0.123 -0.3144 -0.3270  0.0716
  477SOL    HW2 1680   0.573   0.833   0.162  0.5074  0.0535 -1.6487
  477SOL    HW3 1681   0.457   0.818   0.066 -1.4119 -0.8553  0.6977
  477SOL    MW4 1682   0.516   0.783   0.120  0.1712  0.1075  0.0940
  478SOL     OW 1683   5.300   2.550   6.202  0.3015 -0.0382 -0.3049
  478SOL    HW2 1684   5.222   2.558   6.146 -1.3071  0.6820  1.8727
  478SOL    HW3 1685   5.366   2.605   6.159 -0.9041  0.6099 -1.4212
  478SOL    MW4 1686   5.298   2.559   6.189  0.8331 -0.5483  0.1267
  479SOL     OW 1687   0.943   6.340   4.225  0.5878 -0.5541  0.5656
  479SOL    HW2 1688   1.000   6.322   4.299  1.6388 -3.1036 -0.7346
  479SOL    HW3 1689   0.932   6.255   4.182 -0.3214  0.7410 -1.9701
  479SOL    MW4 1690   0.949   6.326   4.229  0.1375 -0.2866  0.0189
  480SOL     OW 1691   1.906   4.860   2.127 -0.5780 -0.2074 -0.5898
  480SOL    HW2 1692   1.847   4.927   2.163 -1.1475 -1.6588  1.3972
  480SOL    HW3 1693   1.891   4.862   2.033 -1.8414  1.2658 -0.3929
  480SOL    MW4 1694   1.896   4.870   2.120  0.3645  0.1396  0.7226
  481SOL     OW 1695   1.960   3.266   6.078 -0.0103  0.1823  0.2669
  481SOL    HW2 1696   1.912   3.192   6.116  0.7653  0.1607  1.2478
  481SOL    HW3 1697   2.015   3.297   6.150 -0.0362  1.4673 -0.2533
  481SOL    MW4 1698   1.961   3.260   6.093  0.4059 -0.2627 -0.2801
  482SOL     OW 1699   5.126   4.474   3.304 -0.3016 -0.2095  0.5146
  482SOL    HW2 1700   5.109   4.506   3.392  0.5081 -0.4242  0.7530
  482SOL    HW3 1701   5.058   4.514   3.250  0.3133  1.4128  0.9061
  482SOL    MW4 1702   5.115   4.483   3.308 -0.2018  0.1762 -0.0860
  483SOL     OW 1703   2.280   5.594   5.225  1.2628  0.0347  0.0308
  483SOL    HW2 1704   2.233   5.664   5.179  1.3123 -0.9715 -1.5999
  483SOL    HW3 1705   2.218   5.522   5.228  1.6406 -0.2744  0.6460
  483SOL    MW4 1706   2.266   5.594   5.219  0.2373 -0.0345  0.0086
  484SOL     OW 1707   0.415   0.209   0.644 -0.1264 -0.0103 -0.6205
  484SOL    HW2 1708   0.374   0.176   0.724 -0.1483  1.8902  0.1921
  484SOL    HW3 1709   0.369   0.164   0.573  1.7791 -3.9841  0.3540
  484SOL    MW4 1710   0.404   0.198   0.645 -0.0756  0.2234 -0.1019
  485SOL     OW 1711   2.504   4.354   4.134  0.0754 -0.5314  0.4172
  485SOL    HW2 1712   2.514   4.305   4.216 -1.1586 -2.0333 -0.2671
  485SOL    HW3 1713   2.550   4.301   4.069 -0.4788 -0.2783 -0.1861
  485SOL    MW4 1714   2.512   4.341   4.136  0.7689  0.9183  0.0386
  486SOL     OW 1715   3.916   1.170   6.394 -0.0091  0.3620 -0.4643
  486SOL    HW2 1716   3.906   1.088   6.346 -0.1213  1.0912 -1.7293
  486SOL    HW3 1717   3.827   1.204   6.400 -0.2455 -0.4629  1.6986
  486SOL    MW4 1718   3.903   1.164   6.389  0.1071 -0.1765 -0.2565
  487SOL     OW 1719   5.644   2.888   4.011 -0.0581  0.1395 -0.7308
  487SOL    HW2 1720   5.621   2.979   4.029  2.1474  0.8349 -1.0235
  487SOL    HW3 1721   5.562   2.839   4.020 -0.7443  1.6256  2.7463
  487SOL    MW4 1722   5.630   2.893   4.015  0.5396 -0.4301 -0.2453
  488SOL     OW 1723   2.572   0.208   3.929  0.4457  0.0643 -0.0613
  488SOL    HW2 1724   2.616   0.161   4.000 -0.9162  1.7932  2.0644
  488SOL    HW3 1725   2.486   0.167   3.923  0.1256  0.6939  0.1484
  488SOL    MW4 1726   2.566   0.196   3.938  0.2882  0.0009 -0.3548
  489SOL     OW 1727   1.299   0.451   1.152 -0.5953  0.4343 -0.1613
  489SOL    HW2 1728   1.217   0.443   1.104 -0.4064 -0.0484 -0.4100
  489SOL    HW3 1729   1.365   0.466   1.084 -0.7438  2.9949  0.1712
  489SOL    MW4 1730   1.297   0.452   1.137 -0.2235 -0.0439  0.7994
  490SOL     OW 1731   2.027   3.867   1.785 -0.5438 -0.3562 -0.4439
  490SOL    HW2 1732   1.985   3.908   1.861  1.6132 -0.6997  1.0262
  490SOL    HW3 1733   1.954   3.832   1.734 -2.1224  0.5299  1.0782
  490SOL    MW4 1734   2.012   3.868   1.788 -0.1889 -0.4216 -0.2532
  491SOL     OW 1735   0.050   2.617   2.908  0.3297 -0.1438  0.3590
  491SOL    HW2 1736   0.095   2.701   2.898 -0.2123  0.4952  2.7118
  491SOL    HW3 1737   0.119   2.552   2.895  0.4561  0.4943 -3.1830
  491SOL    MW4 1738   0.065   2.620   2.905  0.2864 -0.3398  0.5583
  492SOL     OW 1739   0.330   2.321   1.885 -0.1444 -0.3867  0.1354
  492SOL    HW2 1740   0.284   2.291   1.963  0.2128  0.2370  0.5999
  492SOL    HW3 1741   0.263   2.329   1.818 -0.5112 -0.6036  0.4764
  492SOL    MW4 1742   0.315   2.318   1.887 -0.1301 -0.2321 -0.4342
  493SOL     OW 1743   0.028   5.671   4.905 -0.1540 -0.4168  0.0613
  493SOL    HW2 1744   0.075   5.754   4.907 -0.6568 -0.1254 -0.0886
  493SOL    HW3 1745   0.008   5.653   4.997  0.4943 -0.6858  0.1542
  493SOL    MW4 1746   0.032   5.680   4.917  0.0681  0.5553  0.2655
  494SOL     OW 1747   3.292   3.521   4.545  0.2517  0.4044  0.0643
  494SOL    HW2 1748   3.311   3.428   4.561  0.3172  0.5500  0.8542
  494SOL    HW3 1749   3.229   3.544   4.613 -0.8177  0.5930 -0.9654
  494SOL    MW4 1750   3.286   3.512   4.556 -0.6092  0.6033 -0.4285
  495SOL     OW 1751   6.120   6.273   6.264  0.0414 -0.0772 -0.2599
  495SOL    HW2 1752   6.027   6.263   6.285  0.3232  0.5218  1.4045
  495SOL    HW3 1753   6.153   6.333   6.331  1.1492  1.5725 -2.1968
  495SOL    MW4 1754   6.112   6.279   6.276 -0.0067  0.1973  0.4038
  496SOL     OW 1755   6.390   0.302   0.789  0.1215  0.0342  0.3544
  496SOL    HW2 1756   6.424   0.239   0.726  3.2971  1.8672 -0.0217
  496SOL    HW3 1757   6.388   0.254   0.872 -0.0524 -1.2486 -0.3673
  496SOL    MW4 1758   6.394   0.288   0.792 -0.3438  0.1514 -0.2896
  497SOL     OW 1759   0.654   3.163   2.390  0.0740  0.0335  0.2157
  497SOL    HW2 1760   0.663   3.258   2.395 -1.5707  0.1704  1.5832
  497SOL    HW3 1761   0.639   3.136   2.480 -1.3780 -1.3009 -0.3875
  497SOL    MW4 1762   0.653   3.172   2.403 -0.2226 -0.1145  0.0038
  498SOL     OW 1763   5.807   5.935   1.400 -0.5486 -0.2879  0.1084
  498SOL    HW2 1764   5.748   5.939   1.325  0.9441  0.4958 -1.0527
  498SOL    HW3 1765   5.762   5.986   1.468 -1.7539 -0.7244 -0.3365
  498SOL    MW4 1766   5.793   5.943   1.399 -0.5162 -0.0526 -0.1938
  499SOL     OW 1767   2.722   4.449   0.959 -0.8048 -0.1832 -0.0680
  499SOL    HW2 1768   2.758   4.424   0.874  0.1892  2.0167 -0.3567
  499SOL    HW3 1769   2.714   4.366   1.007  2.4568 -1.0910 -0.8359
  499SOL    MW4 1770   2.726   4.435   0.954  0.3854  0.1546  0.3377
  500SOL     OW 1771   1.027   2.847   5.904 -0.3035 -0.6021  0.0083
  500SOL    HW2 1772   1.032   2.791   5.826 -2.6783  1.0064 -1.4286
  500SOL    HW3 1773   1.117   2.856   5.933  0.3289 -4.0390 -0.4500
  500SOL    MW4 1774   1.039   2.841   5.897  0.0860  0.1317  0.0468
  501SOL     OW 1775   5.368   2.305   1.790  0.0137  0.0010 -0.1250
  501SOL    HW2 1776   5.307   2.312   1.864  1.2334  0.5938  0.8462
  501SOL    HW3 1777   5.311   2.310   1.713 -1.1773  0.5754  0.7448
  501SOL    MW4 1778   5.352   2.307   1.790 -0.3039 -0.1202 -0.0823
  502SOL     OW 1779   3.442   2.592   2.693  0.3905 -0.3395  0.0663
  502SOL    HW2 1780   3.366   2.553   2.737 -1.1040  1.1706 -1.0469
  502SOL    HW3 1781   3.478   2.520   2.640  0.3492 -1.3278  1.3204
  502SOL    MW4 1782   3.437   2.577   2.692  0.3066  0.1462  0.4360
  503SOL     OW 1783   3.766   2.533   3.798  0.8913  0.9106  0.0339
  503SOL    HW2 1784   3.709   2.563   3.727 -0.6665  1.0165  1.2952
  503SOL    HW3 1785   3.814   2.612   3.826  0.6047  1.1225 -0.0738
  503SOL    MW4 1786   3.765   2.547   3.792 -0.6138  0.8878 -0.3539
  504SOL     OW 1787   5.639   4.278   4.265 -0.1317 -0.3575 -0.1564
  504SOL    HW2 1788   5.604   4.217   4.329  0.9813 -1.2714 -0.3966
  504SOL    HW3 1789   5.669   4.353   4.316 -2.4622  0.5193  0.0550
  504SOL    MW4 1790   5.638   4.280   4.280  0.1471 -0.2537 -0.0959
  505SOL     OW 1791   4.347   1.324   0.603  0.1159 -0.6329  0.0003
  505SOL    HW2 1792   4.272   1.383   0.615  2.0883  1.9846  0.5823
  505SOL    HW3 1793   4.343   1.300   0.511 -0.1172  1.5231 -0.6183
  505SOL    MW4 1794   4.336   1.329   0.592 -0.1251  0.3687  0.4794
  506SOL     OW 1795   5.760   1.933   0.822 -0.3106 -0.0159 -0.6402
  506SOL    HW2 1796   5.731   1.843   0.807  0.0949 -0.5608  1.5474
  506SOL    HW3 1797   5.700   1.966   0.889  0.2126  0.9900 -0.6581
  506SOL    MW4 1798   5.748   1.925   0.829  0.0303  0.8678 -0.3441
  507SOL     OW 1799   4.760   4.392   6.150 -0.6747 -0.0375 -0.1992
  507SOL    HW2 1800   4.774   4.461   6.215 -1.6436  0.4595 -0.4960
  507SOL    HW3 1801   4.665   4.380   6.148 -0.5300 -1.4249 -0.1248
  507SOL    MW4 1802   4.749   4.399   6.159  0.3761 -0.0601 -0.0004
  508SOL     OW 1803   0.016   1.280   1.713  0.1973 -0.0611 -0.5098
  508SOL    HW2 1804   0.005   1.208   1.651  1.4698 -0.2467 -0.5468
  508SOL    HW3 1805   0.077   1.340   1.670 -0.4635  0.8039 -0.2725
  508SOL    MW4 1806   0.023   1.279   1.699 -0.2604  0.0039 -0.2003
  509SOL     OW 1807   5.298   6.439   3.175 -0.2293 -0.0130 -0.1380
  509SOL    HW2 1808   5.344   6.503   3.120 -1.2092  0.5245 -0.3554
  509SOL    HW3 1809   5.368   6.390   3.218  0.5667  1.3304  0.1805
  509SOL    MW4 1810   5.314   6.441   3.174  0.1064  0.1858  0.0876
  510SOL     OW 1811   5.076   1.222   2.044 -0.3010  0.5963 -0.7192
  510SOL    HW2 1812   4.986   1.212   2.075  0.0327 -0.7293 -0.1157
  510SOL    HW3 1813   5.116   1.136   2.057  0.6501  0.7466 -2.3447
  510SOL    MW4 1814   5.070   1.209   2.050 -0.3450  0.2387 -0.4705
  511SOL     OW 1815   5.822   5.722   5.610 -0.4629  0.2179  0.0274
  511SOL    HW2 1816   5.805   5.790   5.545  0.5149 -0.0759 -0.5494
  511SOL    HW3 1817   5.780   5.644   5.575  1.6421 -0.4071 -1.2000
  511SOL    MW4 1818   5.814   5.721   5.597 -0.0128 -0.3511  0.5689
  512SOL     OW 1819   0.691   5.546   6.210  0.1625 -0.1276 -0.2882
  512SOL    HW2 1820   0.739   5.573   6.131  0.0913 -1.2764 -0.7435
  512SOL    HW3 1821   0.601   5.532   6.179  0.4288 -1.9263 -0.3136
  512SOL    MW4 1822   0.685   5.548   6.195  0.5265  0.6180  0.5105
  513SOL     OW 1823   4.885   0.926   5.139  0.2346 -0.1794 -0.1968
  513SOL    HW2 1824   4.911   0.956   5.226 -1.5373  0.4050  0.1678
  513SOL    HW3 1825   4.883   0.831   5.145  2.0626 -0.2481 -0.2085
  513SOL    MW4 1826   4.888   0.918   5.151  0.0299  0.4791  0.2953
  514SOL     OW 1827   5.399   2.843   5.359  0.1213 -0.6314 -0.0451
  514SOL    HW2 1828   5.304   2.854   5.358  0.1661 -0.0567  0.7040
  514SOL    HW3 1829   5.433   2.932   5.345  0.5460 -0.7974 -0.0695
  514SOL    MW4 1830   5.391   2.857   5.357  0.3044  0.2818  0.0318
  515SOL     OW 1831   2.090   3.461   0.278  0.1482 -0.2415  0.0920
  515SOL    HW2 1832   2.076   3.376   0.236  2.9130 -0.9876  0.5015
  515SOL    HW3 1833   2.092   3.524   0.205 -1.7469 -0.4966 -0.2280
  515SOL    MW4 1834   2.088   3.458   0.263  0.7521 -0.1189 -0.3732
  516SOL     OW 1835   4.073   0.409   4.723 -0.2334  0.1761  0.2548
  516SOL    HW2 1836   4.133   0.480   4.701  0.4079 -0.0260  1.2537
  516SOL    HW3 1837   3.991   0.431   4.679  0.6425  0.3040 -1.3951
  516SOL    MW4 1838   4.070   0.421   4.714 -0.8371 -0.0207 -0.1936
  517SOL     OW 1839   5.824   2.257   3.289 -0.8035 -0.8295 -0.2247
  517SOL    HW2 1840   5.753   2.310   3.324  0.0713  0.6342 -0.6132
  517SOL    HW3 1841   5.904   2.306   3.309  0.0548 -2.0811 -0.4480
  517SOL    MW4 1842   5.825   2.270   3.296  0.5075 -0.1567 -0.4358
  518SOL     OW 1843   1.741   6.277   2.362 -0.5228 -0.0007 -0.3943
  518SOL    HW2 1844   1.784   6.336   2.424 -2.1585 -0.2921  1.0782
  518SOL    HW3 1845   1.687   6.335   2.308  1.0230  0.2730 -1.7461
  518SOL    MW4 1846   1.740   6.293   2.363 -0.1164  0.1763  0.3868
  519SOL     OW 1847   2.909   3.943   3.393 -0.3046  0.1097  0.2025
  519SOL    HW2 1848   2.869   4.022   3.427  0.3905  0.8562 -0.6435
  519SOL    HW3 1849   2.841   3.877   3.398 -1.7357  1.3863 -1.3955
  519SOL    MW4 1850   2.895   3.945   3.398  0.1432  0.1572  0.4349
  520SOL     OW 1851   1.527   3.937   6.210  0.7476 -0.4234  0.6014
  520SOL    HW2 1852   1.543   3.899   6.123 -0.6319  1.6496 -0.6712
  520SOL    HW3 1853   1.609   3.980   6.233  0.6691  0.3530 -0.4637
  520SOL    MW4 1854   1.540   3.938   6.201 -0.3812 -0.1007 -0.2159
  521SOL     OW 1855   3.648   5.085   5.973  0.3715 -0.3231 -0.0244
  521SOL    HW2 1856   3.663   5.158   5.913 -1.6118  0.9343  0.8924
  521SOL    HW3 1857   3.711   5.098   6.044 -1.2087  1.7422  1.1253
  521SOL    MW4 1858   3.658   5.096   5.975 -0.0440 -0.3905 -0.6429
  522SOL     OW 1859   3.622   4.625   4.308  0.1513  0.4565  0.2030
  522SOL    HW2 1860   3.647   4.607   4.399 -0.4742  1.0903  0.5148
  522SOL    HW3 1861   3.642   4.717   4.295  0.0038  0.4325 -0.2260
  522SOL    MW4 1862   3.628   4.635   4.318 -0.0227 -0.3748 -0.2988
  523SOL     OW 1863   0.120   1.024   1.551 -0.8005 -0.1034 -0.2122
  523SOL    HW2 1864   0.196   1.019   1.609 -1.8440  0.0410  1.2105
  523SOL    HW3 1865   0.055   0.968   1.591 -1.1739 -0.9607 -1.9032
  523SOL    MW4 1866   0.122   1.016   1.564  0.2980  0.5659 -0.1630
  524SOL     OW 1867   1.723   1.354   1.542  0.3525  0.2927  0.7307
  524SOL    HW2 1868   1.678   1.432   1.511  1.6073  1.2200  1.1562
  524SOL    HW3 1869   1.812   1.362   1.507  0.4816 -0.9948  0.7116
  524SOL    MW4 1870   1.729   1.365   1.533 -0.0151  0.7316  0.4044
  525SOL     OW 1871   5.420   2.048   2.303  0.1562  0.6512 -0.5572
  525SOL    HW2 1872   5.489   2.045   2.370 -0.1221  1.7102 -0.2029
  525SOL    HW3 1873   5.346   2.089   2.347 -0.7756 -0.6121 -0.8905
  525SOL    MW4 1874   5.420   2.053   2.318 -1.1852  0.7537 -0.6424
  526SOL     OW 1875   1.401   0.418   0.144 -0.3042 -0.6697  0.2086
  526SOL    HW2 1876   1.347   0.353   0.098  0.4956 -2.2980  1.4693
  526SOL    HW3 1877   1.339   0.485   0.173 -1.5024 -1.9976  0.7886
  526SOL    MW4 1878   1.386   0.418   0.141 -0.2283  0.0006 -0.3084
  527SOL     OW 1879   4.188   5.026   0.375 -0.2316  0.2403  0.0252
  527SOL    HW2 1880   4.228   4.953   0.422  0.6002 -0.0933 -1.1470
  527SOL    HW3 1881   4.094   5.009   0.380 -0.1483  0.1061  1.3573
  527SOL    MW4 1882   4.181   5.014   0.382  0.1222 -0.1070 -0.0737
  528SOL     OW 1883   1.713   0.869   0.425 -0.2548  0.5512  0.0210
  528SOL    HW2 1884   1.785   0.822   0.466 -1.0711 -0.1440  0.7021
  528SOL    HW3 1885   1.728   0.859   0.331  0.6312  0.5780  0.1525
  528SOL    MW4 1886   1.724   0.862   0.418 -0.6484  0.0960  0.2574
  529SOL     OW 1887   0.576   2.450   1.898 -0.8672 -0.4838 -0.2775
  529SOL    HW2 1888   0.624   2.420   1.975 -0.2463  0.0700 -0.4361
  529SOL    HW3 1889   0.485   2.424   1.914 -0.6777 -0.7097  0.4582
  529SOL    MW4 1890   0.570   2.442   1.910  0.1091  0.2784 -0.5051
  530SOL     OW 1891   3.849   3.938   2.009  0.5704  0.2204  0.0325
  530SOL    HW2 1892   3.810   3.851   2.013 -1.8107  1.2565  1.3288
  530SOL    HW3 1893   3.791   3.993   2.062  2.5865  2.3933  0.1487
  530SOL    MW4 1894   3.836   3.934   2.016  0.0212  0.4006 -0.1930
  531SOL     OW 1895   5.803   0.901   2.862 -0.0611 -0.0638  0.1676
  531SOL    HW2 1896   5.825   0.887   2.770 -0.5181  2.6294 -0.4348
  531SOL    HW3 1897   5.881   0.943   2.900  0.0589 -0.9916  0.9934
  531SOL    MW4 1898   5.816   0.905   2.855  0.0555 -0.6820 -0.2010
  532SOL     OW 1899   1.283   5.028   2.316  0.3225 -0.8222 -0.1007
  532SOL    HW2 1900   1.370   5.063   2.294 -0.1439  0.5476  0.1123
  532SOL    HW3 1901   1.222   5.086   2.270 -0.5674  0.0715  2.0587
  532SOL    MW4 1902   1.287   5.040   2.307  0.0620 -0.6120  0.0829
  533SOL     OW 1903   1.515   1.046   6.043  0.7478  0.3898  0.2160
  533SOL    HW2 1904   1.536   1.059   5.951  3.0445  0.2404  0.6598
  533SOL    HW3 1905   1.577   1.102   6.090  0.1334 -0.1215  1.7008
  533SOL    MW4 1906   1.526   1.055   6.037  0.0282 -0.5850  0.8451
  534SOL     OW 1907   4.444   4.245   0.881  0.1626 -0.2668 -0.5755
  534SOL    HW2 1908   4.349   4.257   0.894 -0.0141 -1.4073 -0.7075
  534SOL    HW3 1909   4.464   4.162   0.925  1.2000  0.2118 -0.1231
  534SOL    MW4 1910   4.434   4.235   0.888 -0.2087 -0.2819 -0.1827
  535SOL     OW 1911   2.964   5.673   3.467  0.2685  0.1704  0.2444
  535SOL    HW2 1912   2.973   5.631   3.552 -0.9997 -0.1196  0.2641
  535SOL    HW3 1913   2.944   5.764   3.486  0.2391  0.1617  0.2556
  535SOL    MW4 1914   2.962   5.679   3.481  0.0839 -0.7220  0.5455
  536SOL     OW 1915   2.520   3.971   2.193 -0.2321  0.0242 -0.2183
  536SOL    HW2 1916   2.469   3.931   2.263  1.0823 -1.2312  0.0546
  536SOL    HW3 1917   2.544   4.057   2.228 -0.3171 -0.2435  0.5194
  536SOL    MW4 1918   2.516   3.977   2.207  0.2307 -0.3254 -0.3255
  537SOL     OW 1919   1.763   3.198   3.021  0.2599  0.0840  0.7580
  537SOL    HW2 1920   1.848   3.234   3.048 -0.3544  1.2216  1.2713
  537SOL    HW3 1921   1.770   3.188   2.926  0.4695  1.6497  0.5729
  537SOL    MW4 1922   1.775   3.202   3.012 -0.7079 -0.0153 -0.2701
  538SOL     OW 1923   2.044   0.077   1.237  0.0795  0.3213 -0.1913
  538SOL    HW2 1924   2.090   0.128   1.303  0.5181 -0.0160 -0.2309
  538SOL    HW3 1925   2.013   0.141   1.173  1.5150  0.4530 -0.7901
  538SOL    MW4 1926   2.046   0.092   1.237 -0.4196  0.1141  0.0769
  539SOL     OW 1927   1.892   1.828   3.127 -0.2976  0.6649 -0.5201
  539SOL    HW2 1928   1.891   1.774   3.206  0.0111  0.7470 -0.4603
  539SOL    HW3 1929   1.891   1.918   3.159  0.7673  0.7106 -0.5842
  539SOL    MW4 1930   1.891   1.833   3.142  0.2549  0.4291  0.2398
  540SOL     OW 1931   1.485   0.444   2.452 -0.4135  0.4393 -0.4360
  540SOL    HW2 1932   1.518   0.361   2.485  0.7929  0.9971 -0.1870
  540SOL    HW3 1933   1.471   0.497   2.531  1.4165  1.3863 -0.6844
  540SOL    MW4 1934   1.487   0.440   2.467 -0.7592 -0.4885  0.0583
  541SOL     OW 1935   4.795   0.420   5.059 -0.3983  0.3075 -0.0321
  541SOL    HW2 1936   4.871   0.363   5.059  1.0053  1.9586  2.6797
  541SOL    HW3 1937   4.831   0.509   5.061 -2.4671  1.3145 -2.2529
  541SOL    MW4 1938   4.810   0.424   5.059 -0.7072 -0.3646  0.0997
  542SOL     OW 1939   4.810   3.450   0.034  0.2173 -0.3819  0.0523
  542SOL    HW2 1940   4.721   3.485   0.042  0.0100 -0.8928  0.0856
  542SOL    HW3 1941   4.797   3.366  -0.011  0.5719 -0.9221  0.9471
  542SOL    MW4 1942   4.796   3.443   0.029 -0.0341 -0.8150 -0.1286
  543SOL     OW 1943   4.870   1.427   5.345  0.5389 -0.2957 -0.1604
  543SOL    HW2 1944   4.933   1.361   5.372  1.0118  0.4510  0.6302
  543SOL    HW3 1945   4.919   1.486   5.287  0.8074  0.7096  1.0432
  543SOL    MW4 1946   4.885   1.426   5.341  0.1555  0.0382 -0.8006
  544SOL     OW 1947   1.731   4.638   1.648  0.5044  0.4764 -0.3442
  544SOL    HW2 1948   1.641   4.621   1.673  0.6150 -1.0911 -0.9150
  544SOL    HW3 1949   1.727   4.661   1.556  0.7494 -0.4107 -0.5868
  544SOL    MW4 1950   1.719   4.639   1.639 -0.5776  0.0041  0.0929
  545SOL     OW 1951   4.808   2.620   0.915  0.0615  0.3385  0.6333
  545SOL    HW2 1952   4.771   2.634   1.002 -1.0654  0.5349  0.1450
  545SOL    HW3 1953   4.732   2.600   0.860  0.7148  0.5325 -0.3647
  545SOL    MW4 1954   4.793   2.619   0.919  0.6564  0.1429  0.3948
  546SOL     OW 1955   3.612   1.216   3.053  0.5364  0.0865  0.3484
  546SOL    HW2 1956   3.634   1.207   2.960  0.0529  0.0037  0.2401
  546SOL    HW3 1957   3.691   1.253   3.093  0.4689  0.8852 -0.2378
  546SOL    MW4 1958   3.626   1.219   3.046  0.2658 -0.8336 -0.6393
  547SOL     OW 1959   3.909   3.120   1.780 -0.2395 -0.0094  0.3380
  547SOL    HW2 1960   3.924   3.106   1.686 -0.4718  0.3789  0.2392
  547SOL    HW3 1961   3.826   3.169   1.784 -0.7330 -0.8625  0.7952
  547SOL    MW4 1962   3.900   3.125   1.768 -0.2392 -0.3606  0.1358
  548SOL     OW 1963   0.141   4.196   5.834  0.1079 -0.0530  0.0537
  548SOL    HW2 1964   0.144   4.247   5.915 -1.9225 -0.7606  0.6268
  548SOL    HW3 1965   0.182   4.113   5.856 -1.8757 -0.8757  0.9139
  548SOL    MW4 1966   0.147   4.192   5.848  0.0675 -0.2592 -0.0051
  549SOL     OW 1967   4.888   6.290   4.224 -0.1631 -0.1491  0.4260
  549SOL    HW2 1968   4.902   6.362   4.285  0.4991 -1.3754  1.7751
  549SOL    HW3 1969   4.837   6.226   4.273 -0.0298 -0.9710 -0.4685
  549SOL    MW4 1970   4.883   6.291   4.238  0.6388  0.0104  0.4871
  550SOL     OW 1971   5.275   5.465   3.993 -0.3698  0.0019  0.1089
  550SOL    HW2 1972   5.279   5.560   3.979 -1.7223 -0.1410 -1.5127
  550SOL    HW3 1973   5.199   5.452   4.050  1.1851  0.0132  2.3383
  550SOL    MW4 1974   5.266   5.476   3.999  0.6252  0.2135 -0.6714
  551SOL     OW 1975   4.572   4.321   0.593 -0.3547  0.3603 -0.0766
  551SOL    HW2 1976   4.560   4.254   0.525 -0.7621  0.3638 -0.0085
  551SOL    HW3 1977   4.540   4.280   0.673  1.1946 -0.0752  0.3627
  551SOL    MW4 1978   4.567   4.307   0.595  0.3601 -0.0466 -0.2730
  552SOL     OW 1979   5.121   6.143   2.379 -0.4383  1.0210  0.0904
  552SOL    HW2 1980   5.163   6.111   2.459 -1.0534  1.2762  0.5259
  552SOL    HW3 1981   5.194   6.160   2.319 -0.0510 -0.5565  0.0611
  552SOL    MW4 1982   5.137   6.141   2.382 -0.3285 -0.1405  0.0905
  553SOL     OW 1983   5.965   3.779   0.268  0.2287 -0.1695  0.0243
  553SOL    HW2 1984   5.981   3.860   0.317  0.2809 -0.6223  0.7804
  553SOL    HW3 1985   5.890   3.800   0.212  0.9959  0.7662 -0.6941
  553SOL    MW4 1986   5.957   3.793   0.267  0.5798 -0.1303  0.5371
  554SOL     OW 1987   6.374   3.709   2.832  0.4922  0.0099 -0.1265
  554SOL    HW2 1988   6.411   3.791   2.797  0.1300 -0.5918 -2.0416
  554SOL    HW3 1989   6.291   3.699   2.785  1.6011 -2.6123 -1.7048
  554SOL    MW4 1990   6.368   3.719   2.821  0.5381  0.4294 -0.5841
  555SOL     OW 1991   2.506   2.379   0.012 -0.4674 -0.0137  0.1912
  555SOL    HW2 1992   2.422   2.342   0.039  0.0448 -1.2808  0.1115
  555SOL    HW3 1993   2.515   2.354  -0.080 -0.0663  0.2524  0.1543
  555SOL    MW4 1994   2.496   2.371   0.003  0.4536  0.8292  0.1825
  556SOL     OW 1995   1.838   4.752   4.460  0.2506  0.3540  0.5225
  556SOL    HW2 1996   1.903   4.687   4.489  0.8563  0.8319  0.2662
  556SOL    HW3 1997   1.888   4.813   4.405 -0.4958  0.5162  0.0013
  556SOL    MW4 1998   1.853   4.751   4.456 -0.7321  1.1715  0.2617
  557SOL     OW 1999   3.252   0.105   5.007  0.0368  0.0021 -0.4654
  557SOL    HW2 2000   3.319   0.051   5.050 -0.4562 -0.7708 -0.6384
  557SOL    HW3 2001   3.172   0.088   5.057  0.0071  1.1292 -0.0910
  557SOL    MW4 2002   3.250   0.096   5.020  0.5385  0.2091 -0.0360
  558SOL     OW 2003   2.440   0.141   1.645  0.3527 -0.4002 -0.7503
  558SOL    HW2 2004   2.383   0.120   1.572  1.6252  0.6812 -2.1009
  558SOL    HW3 2005   2.431   0.235   1.657  0.1203 -0.5576  0.5646
  558SOL    MW4 2006   2.431   0.150   1.637  0.3204 -0.0344 -0.3908
  559SOL     OW 2007   1.246   1.860   1.010  0.4476  0.4132 -0.2967
  559SOL    HW2 2008   1.162   1.852   1.054  1.2756 -1.3487  1.1083
  559SOL    HW3 2009   1.302   1.795   1.053  1.9110 -0.0053 -2.6225
  559SOL    MW4 2010   1.242   1.850   1.021 -0.1054 -0.0840  0.1171
  560SOL     OW 2011   2.024   1.418   5.096  0.2286  0.2113 -0.0653
  560SOL    HW2 2012   2.068   1.338   5.128  1.9450  0.9202 -0.5099
  560SOL    HW3 2013   1.962   1.387   5.030  0.8444 -0.7724 -0.2083
  560SOL    MW4 2014   2.022   1.403   5.092 -0.4096  0.2708 -0.3589
  561SOL     OW 2015   4.668   6.237   5.228  0.3729  0.1657  0.4679
  561SOL    HW2 2016   4.728   6.193   5.289  0.5577  1.0223  0.9200
  561SOL    HW3 2017   4.725   6.271   5.160  0.5450  1.7329  1.3425
  561SOL    MW4 2018   4.684   6.236   5.227  0.5611 -0.8585  0.0648
  562SOL     OW 2019   1.166   2.563   0.884  0.1032 -0.1640 -0.1298
  562SOL    HW2 2020   1.071   2.569   0.874 -0.2787 -2.1146  1.5763
  562SOL    HW3 2021   1.192   2.648   0.918 -1.2626 -0.0733  0.7554
  562SOL    MW4 2022   1.157   2.575   0.887  0.5308  0.2279 -0.4948
  563SOL     OW 2023   4.666   0.461   5.319  0.3788  0.6701  0.1143
  563SOL    HW2 2024   4.682   0.445   5.226  1.1276  1.6908  0.0575
  563SOL    HW3 2025   4.634   0.551   5.323 -0.4331  0.3620  0.7698
  563SOL    MW4 2026   4.664   0.471   5.308  0.2026 -0.5496  0.3619
  564SOL     OW 2027   5.617   4.961   3.495 -0.0648 -0.1566 -0.2351
  564SOL    HW2 2028   5.607   5.011   3.414  0.7757 -0.8273 -0.7745
  564SOL    HW3 2029   5.590   4.872   3.472 -0.8228 -0.1291  0.5088
  564SOL    MW4 2030   5.612   4.956   3.482  0.2856 -0.2282  0.0156
  565SOL     OW 2031   3.311   3.496   3.636  0.1798  0.2172  0.0614
  565SOL    HW2 2032   3.230   3.546   3.625  0.8249  1.2895  0.1280
  565SOL    HW3 2033   3.371   3.556   3.681  0.2599 -1.3321  2.1643
  565SOL    MW4 2034   3.308   3.510   3.641 -0.2726  0.2418  0.3031
  566SOL     OW 2035   1.122   3.056   0.310 -0.4729  0.5828  0.3953
  566SOL    HW2 2036   1.059   3.127   0.319  1.3776  2.1443  1.9013
  566SOL    HW3 2037   1.117   3.031   0.218 -0.7811  3.0810 -0.3290
  566SOL    MW4 2038   1.113   3.062   0.299 -0.3054 -0.0997  0.4270
  567SOL     OW 2039   2.660   0.742   3.230 -0.3354 -0.2521 -0.2407
  567SOL    HW2 2040   2.732   0.804   3.221 -0.1683 -0.5811 -1.2950
  567SOL    HW3 2041   2.583   0.788   3.197 -0.2907 -0.4633 -0.6408
  567SOL    MW4 2042   2.659   0.756   3.225  0.5878 -1.0065  0.0559
  568SOL     OW 2043   4.393   0.151   1.786  0.2361  0.1697  0.1496
  568SOL    HW2 2044   4.459   0.114   1.728  1.2057  1.7001  0.2043
  568SOL    HW3 2045   4.370   0.235   1.746 -0.5712  0.3360  0.9239
  568SOL    MW4 2046   4.398   0.157   1.773  0.2375  0.0306  0.1627
  569SOL     OW 2047   3.462   6.334   5.090  0.2169  0.1921  0.3606
  569SOL    HW2 2048   3.555   6.356   5.095  0.0157  1.1340  0.0301
  569SOL    HW3 2049   3.447   6.276   5.164  1.4100 -1.2571 -0.4717
  569SOL    MW4 2050   3.472   6.329   5.100  0.0521 -0.2690  0.0910
  570SOL     OW 2051   0.033   3.886   1.407  0.0383 -0.5377 -0.3702
  570SOL    HW2 2052  -0.011   3.825   1.347  2.2225 -1.8547 -0.7544
  570SOL    HW3 2053   0.050   3.964   1.354  1.3142 -1.4165 -1.3174
  570SOL    MW4 2054   0.030   3.888   1.392 -0.0524 -0.3313  0.4991
  571SOL     OW 2055   4.320   1.108   5.577  0.0061  0.2734 -0.4840
  571SOL    HW2 2056   4.404   1.063   5.585 -0.4461 -0.8170 -1.5516
  571SOL    HW3 2057   4.288   1.116   5.667 -0.8508 -3.4999 -0.2627
  571SOL    MW4 2058   4.327   1.103   5.590 -0.4004 -0.3914  0.2513
  572SOL     OW 2059   3.137   4.617   6.106 -0.2717 -0.6812  0.8322
  572SOL    HW2 2060   3.098   4.682   6.164 -0.4354 -0.7453  0.7944
  572SOL    HW3 2061   3.179   4.554   6.165  1.8719  0.6574  0.8434
  572SOL    MW4 2062   3.137   4.617   6.121 -0.1459  0.6272 -0.3860
  573SOL     OW 2063   2.305   2.858   2.286 -0.3318 -0.3879 -0.2938
  573SOL    HW2 2064   2.210   2.851   2.283 -0.4257  0.0359  1.1408
  573SOL    HW3 2065   2.326   2.930   2.226 -0.8764 -0.7542 -0.9282
  573SOL    MW4 2066   2.295   2.867   2.278  0.5790 -0.7780  0.0232
  574SOL     OW 2067   4.174   5.677   3.231  0.0858 -0.6050 -0.2114
  574SOL    HW2 2068   4.169   5.759   3.182 -0.5931 -0.8786 -0.6110
  574SOL    HW3 2069   4.096   5.677   3.286  1.0518 -0.0958  1.2275
  574SOL    MW4 2070   4.163   5.688   3.232 -0.0678  0.0431 -0.0442
  575SOL     OW 2071   0.533   4.190   3.870 -0.0794 -0.0956  0.3196
  575SOL    HW2 2072   0.568   4.192   3.781  0.3013 -0.2312  0.4653
  575SOL    HW3 2073   0.439   4.176   3.858  0.1249 -1.3022 -0.0297
  575SOL    MW4 2074   0.525   4.188   3.856  0.4186  0.2199  0.0437
  576SOL     OW 2075   4.790   4.318   2.456  0.0543 -0.3312 -0.1410
  576SOL    HW2 2076   4.876   4.321   2.414 -0.6047  0.0093 -1.5222
  576SOL    HW3 2077   4.776   4.226   2.477  0.5467 -0.4578 -0.3652
  576SOL    MW4 2078   4.799   4.306   2.453  0.6776 -0.4298  0.5460
  577SOL     OW 2079   0.559   3.385   4.106 -0.0909 -0.4766 -0.2093
  577SOL    HW2 2080   0.605   3.405   4.024 -0.2862  0.4152 -0.1039
  577SOL    HW3 2081   0.469   3.411   4.090  0.2150  1.4657  0.8844
  577SOL    MW4 2082   0.553   3.391   4.093 -0.5338  0.4026  0.7993
  578SOL     OW 2083   4.884   5.101   0.278  0.3904 -0.2637 -0.0010
  578SOL    HW2 2084   4.972   5.099   0.315 -0.6119 -1.3984  2.5610
  578SOL    HW3 2085   4.834   5.158   0.337 -0.9488 -0.9009 -0.4707
  578SOL    MW4 2086   4.889   5.108   0.290 -0.5416 -0.1345 -0.1854
  579SOL     OW 2087   3.674   2.376   1.959  0.0886 -0.0418 -0.0370
  579SOL    HW2 2088   3.602   2.349   1.902 -0.2059 -0.4618  0.5248
  579SOL    HW3 2089   3.631   2.404   2.040  0.6115 -1.4531  0.7596
  579SOL    MW4 2090   3.659   2.376   1.962 -0.1603  0.3665 -0.3646
  580SOL     OW 2091   5.646   5.524   5.457 -0.1572 -0.2810 -0.2172
  580SOL    HW2 2092   5.610   5.489   5.538 -1.2428  1.4969  0.1179
  580SOL    HW3 2093   5.583   5.499   5.389  0.3964 -1.1735 -0.4116
  580SOL    MW4 2094   5.633   5.516   5.459 -0.0737  0.1051  0.1355
  581SOL     OW 2095   2.094   0.067   0.050 -0.0102 -0.2011 -0.0668
  581SOL    HW2 2096   2.043   0.102   0.123 -0.2692 -0.7860  0.0364
  581SOL    HW3 2097   2.128  -0.016   0.082 -0.2501 -0.5317 -0.6641
  581SOL    MW4 2098   2.091   0.061   0.064 -0.6563 -0.8581 -0.0808
  582SOL     OW 2099   5.826   4.619   6.166  0.1039  0.5820  0.6675
  582SOL    HW2 2100   5.870   4.539   6.191  1.2974  1.2930  0.9070
  582SOL    HW3 2101   5.895   4.676   6.133 -1.0020  0.7756 -1.4946
  582SOL    MW4 2102   5.841   4.616   6.165 -0.0896 -0.3707 -0.1362
  583SOL     OW 2103   3.828   2.217   1.386  0.4789  0.3077  0.3039
  583SOL    HW2 2104   3.813   2.297   1.436  3.4441  1.2640 -0.1013
  583SOL    HW3 2105   3.920   2.197   1.401  0.4726 -1.5675 -1.6742
  583SOL    MW4 2106   3.838   2.225   1.394  0.0592 -0.4482 -0.2049
  584SOL     OW 2107   5.579   5.877   0.455 -0.4468  0.1822 -0.3849
  584SOL    HW2 2108   5.665   5.918   0.466 -0.5722  0.4432 -0.3582
  584SOL    HW3 2109   5.567   5.871   0.360 -1.1278  1.7382 -0.4357
  584SOL    MW4 2110   5.589   5.882   0.444  0.2223  0.4120  0.1139
  585SOL     OW 2111   3.425   2.874   2.644 -0.5955 -0.1082 -0.6153
  585SOL    HW2 2112   3.434   2.782   2.670 -1.2062  0.1461  0.5594
  585SOL    HW3 2113   3.504   2.916   2.677 -0.4891 -0.1484 -0.8228
  585SOL    MW4 2114   3.436   2.868   2.652  0.2246 -0.1798 -0.2948
  586SOL     OW 2115   6.062   6.271   1.965  0.5796  0.1423 -0.1537
  586SOL    HW2 2116   6.116   6.215   2.020 -0.7541 -0.2623  0.7929
  586SOL    HW3 2117   6.048   6.220   1.885  0.7997 -0.1437 -0.0085
  586SOL    MW4 2118   6.067   6.257   1.961 -0.6441  0.7479 -0.3900
  587SOL     OW 2119   4.462   0.276   3.267 -0.3986 -0.7597 -0.3678
  587SOL    HW2 2120   4.386   0.242   3.221 -0.5045 -0.9121 -0.0834
  587SOL    HW3 2121   4.516   0.199   3.285  0.8564 -0.4232 -2.4188
  587SOL    MW4 2122   4.459   0.261   3.263  0.0952  0.2242  0.7842
  588SOL     OW 2123   4.943   1.688   4.112  0.5846  0.4241  0.0889
  588SOL    HW2 2124   4.938   1.777   4.080 -1.5069  0.6746  0.9831
  588SOL    HW3 2125   4.871   1.680   4.174  0.5786 -1.9504 -0.1201
  588SOL    MW4 2126   4.933   1.698   4.116 -0.1725 -1.1515  0.1934
  589SOL     OW 2127   6.219   1.438   4.236  0.6345  0.0986 -0.4007
  589SOL    HW2 2128   6.135   1.461   4.277  0.4168 -0.2676 -0.6233
  589SOL    HW3 2129   6.199   1.435   4.142  1.0528  0.6224 -0.5098
  589SOL    MW4 2130   6.205   1.440   4.229  0.4560 -0.1008 -0.0098
  590SOL     OW 2131   4.873   5.826   6.416  0.0845 -0.4090  0.5179
  590SOL    HW2 2132   4.807   5.783   6.471  0.1186 -1.2541 -0.0790
  590SOL    HW3 2133   4.845   5.917   6.412 -0.7061 -0.6305  0.7797
  590SOL    MW4 2134   4.860   5.832   6.423 -0.0348  0.3837  0.2566
  591SOL     OW 2135   3.488   5.859   4.756 -0.0646  0.0643 -0.6459
  591SOL    HW2 2136   3.527   5.867   4.843  0.9815  0.2855 -1.1258
  591SOL    HW3 2137   3.400   5.896   4.766 -0.3007 -0.7569  0.5270
  591SOL    MW4 2138   3.481   5.865   4.769 -0.5696  0.2304  0.5790
  592SOL     OW 2139   5.347   0.076   3.545  0.1325  0.4352  0.2993
  592SOL    HW2 2140   5.321  -0.015   3.532  0.9281  0.3503 -0.8201
  592SOL    HW3 2141   5.382   0.079   3.634 -0.2372 -0.2703  0.4713
  592SOL    MW4 2142   5.348   0.065   3.555  0.4600  0.1645 -0.0911
  593SOL     OW 2143   3.626   3.202   2.364 -0.3300 -0.5780  0.5491
  593SOL    HW2 2144   3.593   3.151   2.290  0.3354  1.3021 -1.1248
  593SOL    HW3 2145   3.712   3.164   2.382 -0.2695 -0.7065  0.0004
  593SOL    MW4 2146   3.633   3.190   2.356 -0.3518 -0.4245 -0.0548
  594SOL     OW 2147   4.798   1.518   1.341 -0.1978  0.1584 -0.3657
  594SOL    HW2 2148   4.706   1.544   1.333 -0.2282 -0.0053 -0.5331
  594SOL    HW3 2149   4.802   1.470   1.424 -0.5774 -1.1789 -1.0959
  594SOL    MW4 2150   4.786   1.515   1.351 -0.4932 -0.1376 -0.0979
  595SOL     OW 2151   1.236   1.683   1.967 -0.0498  0.0190 -0.2424
  595SOL    HW2 2152   1.188   1.607   1.935 -0.4485 -0.4862  1.4366
  595SOL    HW3 2153   1.282   1.717   1.890 -1.1813 -0.9204 -1.3749
  595SOL    MW4 2154   1.236   1.678   1.953  0.1166  0.1259 -0.1557
  596SOL     OW 2155   2.181   3.674   5.217  0.0353 -0.6957  0.0623
  596SOL    HW2 2156   2.181   3.579   5.209 -0.6842 -0.5754 -1.9235
  596SOL    HW3 2157   2.107   3.694   5.275 -0.5572 -1.2961 -0.4775
  596SOL    MW4 2158   2.171   3.664   5.224  0.7010  0.1886  0.1879
  597SOL     OW 2159   0.236   0.619   0.078 -0.4116 -0.6681  0.1679
  597SOL    HW2 2160   0.324   0.618   0.116 -0.3887  1.5092  0.3210
  597SOL    HW3 2161   0.218   0.528   0.056  0.9725 -1.5025  2.1838
  597SOL    MW4 2162   0.245   0.607   0.080  1.0877 -0.0665  0.2195
  598SOL     OW 2163   6.230   5.666   0.721  0.5325  0.0500  0.1954
  598SOL    HW2 2164   6.246   5.576   0.750  1.2270  0.9061  2.7769
  598SOL    HW3 2165   6.135   5.673   0.716  0.4701 -0.8246 -0.0976
  598SOL    MW4 2166   6.220   5.655   0.724  0.2260  0.6457 -1.0151
  599SOL     OW 2167   5.995   2.750   3.270 -0.8605 -0.4427 -0.3133
  599SOL    HW2 2168   5.989   2.781   3.361 -1.1386  1.4902 -0.9519
  599SOL    HW3 2169   6.074   2.790   3.236 -0.8530 -1.0108 -0.9969
  599SOL    MW4 2170   6.004   2.759   3.278 -0.2550  0.2487  0.3587
  600SOL     OW 2171   2.324   5.259   3.084 -0.1226 -0.1832 -0.5016
  600SOL    HW2 2172   2.397   5.273   3.145  1.4204 -0.8497 -2.1025
  600SOL    HW3 2173   2.248   5.248   3.140  0.8281  1.4830  1.2202
  600SOL    MW4 2174   2.324   5.259   3.100  0.3075  0.1649 -0.2017
  601SOL     OW 2175   5.196   4.964   4.732  0.0520 -0.4132  0.2286
  601SOL    HW2 2176   5.236   5.051   4.737 -1.5978  0.4347 -0.6699
  601SOL    HW3 2177   5.268   4.906   4.704  1.0693  0.7075  0.4354
  601SOL    MW4 2178   5.211   4.968   4.729 -0.0994 -0.4198 -0.1645
  602SOL     OW 2179   0.300   4.045   0.336  0.4360  0.5827 -0.4133
  602SOL    HW2 2180   0.318   4.139   0.329  0.0277  0.8546  1.5525
  602SOL    HW3 2181   0.205   4.039   0.337  0.4536  0.0588 -1.3795
  602SOL    MW4 2182   0.290   4.057   0.335 -0.0104 -0.5479  0.0796
  603SOL     OW 2183   5.786   1.305   3.744 -0.2182  0.0213  0.4352
  603SOL    HW2 2184   5.772   1.395   3.714 -0.8368 -0.1336  0.2374
  603SOL    HW3 2185   5.880   1.299   3.761  0.1559  0.1092 -1.4434
  603SOL    MW4 2186   5.796   1.316   3.743  0.0750  0.0289 -0.1469
  604SOL     OW 2187   0.491   5.330   1.906 -0.6721 -0.1563 -0.0085
  604SOL    HW2 2188   0.467   5.241   1.880 -1.5175  0.3809 -1.1130
  604SOL    HW3 2189   0.528   5.320   1.993  2.5439 -2.0876 -1.4186
  604SOL    MW4 2190   0.493   5.317   1.914 -0.1761 -0.1746 -0.0353
  605SOL     OW 2191   4.763   4.921   0.707 -0.0888  0.0909 -1.3018
  605SOL    HW2 2192   4.821   4.984   0.666  0.9778  0.4873  0.6930
  605SOL    HW3 2193   4.720   4.970   0.777  0.1674 -1.1639 -0.2131
  605SOL    MW4 2194   4.765   4.936   0.711 -0.5895  0.3567  0.0493
  606SOL     OW 2195   1.589   1.321   3.218  0.0094 -0.1975  0.0045
  606SOL    HW2 2196   1.515   1.375   3.189 -0.3420 -0.8633 -0.3472
  606SOL    HW3 2197   1.587   1.245   3.161  1.6724  0.3153 -0.7832
  606SOL    MW4 2198   1.579   1.318   3.207  0.2489 -0.7849 -0.2038
  607SOL     OW 2199   4.613   5.985   5.120 -0.1598  0.0189 -0.2031
  607SOL    HW2 2200   4.627   6.062   5.175 -0.6979  0.7865 -1.1108
  607SOL    HW3 2201   4.557   5.928   5.174 -0.2706  0.5345  0.2393
  607SOL    MW4 2202   4.607   5.988   5.135  0.0041 -0.0569 -0.2151
  608SOL     OW 2203   0.138   3.945   2.295  0.2358 -0.1820 -0.1986
  608SOL    HW2 2204   0.163   4.021   2.243  0.6652  0.6177  1.1279
  608SOL    HW3 2205   0.058   3.971   2.340  0.6258 -0.3196  0.6091
  608SOL    MW4 2206   0.131   3.958   2.294  0.5936 -0.6194  0.3336
  609SOL     OW 2207   2.487   4.256   5.355  0.6439  0.1815  0.2533
  609SOL    HW2 2208   2.413   4.218   5.403 -0.1153  1.8468  0.4758
  609SOL    HW3 2209   2.478   4.223   5.266  0.0746 -0.2126  0.4525
  609SOL    MW4 2210   2.476   4.246   5.350  0.0011  0.3676 -0.1067
  610SOL     OW 2211   5.529   1.732   5.881  0.3564  0.1992 -0.3009
  610SOL    HW2 2212   5.600   1.701   5.824  1.4004  0.4899  0.8028
  610SOL    HW3 2213   5.519   1.824   5.857 -0.8695 -0.2443 -1.6606
  610SOL    MW4 2214   5.537   1.740   5.870 -0.0178 -0.6957 -0.3096
  611SOL     OW 2215   4.732   4.160   4.030 -0.2233  0.3897 -0.4788
  611SOL    HW2 2216   4.639   4.153   4.008 -0.1646  0.7552 -0.8579
  611SOL    HW3 2217   4.778   4.138   3.949  0.0287 -0.0992 -0.2068
  611SOL    MW4 2218   4.726   4.156   4.016 -0.0884  0.2128  0.1211
  612SOL     OW 2219   0.014   0.599   0.762 -0.3038 -0.0148 -0.0018
  612SOL    HW2 2220   0.017   0.503   0.766  2.7104  0.0254  1.2337
  612SOL    HW3 2221   0.085   0.623   0.703 -0.2181  1.4761  0.6647
  612SOL    MW4 2222   0.023   0.589   0.755  0.1106  0.2967  0.2999
  613SOL     OW 2223   2.968   4.176   4.458  0.6446  0.2749  0.0249
  613SOL    HW2 2224   3.025   4.100   4.465 -0.7860 -0.9139 -0.6579
  613SOL    HW3 2225   2.989   4.214   4.373  0.8983  0.2516  0.0771
  613SOL    MW4 2226   2.978   4.171   4.448 -0.3009  0.0475  0.1063
  614SOL     OW 2227   4.741   5.591   2.256  0.1560 -0.1279 -0.0605
  614SOL    HW2 2228   4.697   5.581   2.172 -0.4204  0.0058  0.2200
  614SOL    HW3 2229   4.822   5.540   2.247 -0.8142 -1.7624 -0.0454
  614SOL    MW4 2230   4.746   5.583   2.244  0.1078 -0.0180  0.3449
  615SOL     OW 2231   1.533   2.522   1.010  0.1998 -0.3538 -0.1436
  615SOL    HW2 2232   1.520   2.439   0.965 -0.7163 -0.7229  0.7576
  615SOL    HW3 2233   1.574   2.499   1.093 -0.8385 -0.0306  0.4862
  615SOL    MW4 2234   1.537   2.508   1.015 -0.0611 -0.1837 -0.1314
  616SOL     OW 2235   4.257   6.109   4.539 -0.1363  0.0974  0.1966
  616SOL    HW2 2236   4.277   6.031   4.488 -0.1107  0.1621  0.1070
  616SOL    HW3 2237   4.338   6.160   4.537 -0.3486  0.4307 -0.2948
  616SOL    MW4 2238   4.270   6.105   4.532  0.0053 -0.0031 -0.7357
  617SOL     OW 2239   2.416   2.598   0.311 -0.2262 -0.4167  0.0557
  617SOL    HW2 2240   2.340   2.576   0.366 -1.7949  0.8258 -1.5195
  617SOL    HW3 2241   2.482   2.629   0.373 -1.4325 -0.3692  1.3717
  617SOL    MW4 2242   2.414   2.599   0.326 -0.1593 -0.2933 -0.2496
  618SOL     OW 2243   3.891   4.060   3.937  0.2450 -0.5509 -0.9805
  618SOL    HW2 2244   3.963   4.030   3.993  0.1592  2.1427  0.7215
  618SOL    HW3 2245   3.933   4.081   3.853  2.1112  3.1483  0.6393
  618SOL    MW4 2246   3.906   4.059   3.933 -0.6216  0.1882  0.4902
  619SOL     OW 2247   0.032   3.803   2.044  0.2838 -0.7316  0.2956
  619SOL    HW2 2248  -0.064   3.807   2.044  0.2950 -0.0578 -0.8819
  619SOL    HW3 2249   0.056   3.818   2.136 -0.6763  1.2326  0.2751
  619SOL    MW4 2250   0.023   3.805   2.056  0.1242 -0.1273  0.1764
  620SOL     OW 2251   1.554   1.135   0.129  0.4293  0.3271  0.6510
  620SOL    HW2 2252   1.627   1.087   0.089  0.3942 -0.7656  1.8267
  620SOL    HW3 2253   1.596   1.200   0.185  0.5211 -0.3004  1.3262
  620SOL    MW4 2254   1.570   1.137   0.131 -0.3343 -0.2204  0.5651
  621SOL     OW 2255   3.583   5.105   4.819 -0.4533  0.4732 -0.1684
  621SOL    HW2 2256   3.551   5.141   4.901  3.8172  0.6227  1.7068
  621SOL    HW3 2257   3.596   5.182   4.763  0.5392  0.9152  0.6384
  621SOL    MW4 2258   3.581   5.120   4.822  0.1398 -0.0305 -0.2460
  622SOL     OW 2259   1.428   0.932   4.154 -0.5828 -0.1286 -0.1586
  622SOL    HW2 2260   1.450   0.944   4.247  0.9242 -0.8967 -0.3819
  622SOL    HW3 2261   1.408   1.020   4.122 -1.0620  0.1504  0.8746
  622SOL    MW4 2262   1.428   0.945   4.162  0.1136  0.4183 -0.3081
  623SOL     OW 2263   1.961   5.644   0.909 -0.0843 -0.6491  0.2200
  623SOL    HW2 2264   1.870   5.674   0.908 -0.1951 -0.9808 -0.3771
  623SOL    HW3 2265   1.964   5.574   0.844  1.0893  0.8730 -1.4901
  623SOL    MW4 2266   1.950   5.639   0.900 -0.3160  0.0249 -0.2649
  624SOL     OW 2267   3.535   2.741   4.508 -0.0077  0.0048 -0.4054
  624SOL    HW2 2268   3.509   2.686   4.434 -0.8533 -2.3442  1.4680
  624SOL    HW3 2269   3.452   2.772   4.545  0.4009  1.1613 -0.4401
  624SOL    MW4 2270   3.520   2.738   4.503 -0.0197  0.2880 -0.5476
  625SOL     OW 2271   4.829   1.947   1.117 -0.2998 -0.6211  0.6217
  625SOL    HW2 2272   4.910   1.997   1.105 -0.2183 -0.6805  0.9034
  625SOL    HW3 2273   4.849   1.861   1.080 -0.7547 -0.1709 -0.7252
  625SOL    MW4 2274   4.842   1.942   1.111  0.0707  0.1815 -0.0403
  626SOL     OW 2275   0.569   3.316   2.912  0.2777 -0.4655  0.1267
  626SOL    HW2 2276   0.489   3.308   2.859 -0.2941  1.0553  0.7099
  626SOL    HW3 2277   0.556   3.254   2.984 -0.0591 -0.7252 -0.1520
  626SOL    MW4 2278   0.556   3.306   2.915 -0.1957 -0.1294  0.4006
  627SOL     OW 2279   5.596   2.472   5.712  0.4419 -0.2990  0.3576
  627SOL    HW2 2280   5.568   2.383   5.692 -0.3633 -0.8347  3.4184
  627SOL    HW3 2281   5.532   2.528   5.667 -1.2691 -1.3952  1.3208
  627SOL    MW4 2282   5.584   2.468   5.703  0.3186  0.2562 -0.5970
  628SOL     OW 2283   0.210   3.461   5.383  0.1042 -0.0850  0.7558
  628SOL    HW2 2284   0.251   3.375   5.388  0.3442 -0.0116  0.0590
  628SOL    HW3 2285   0.281   3.523   5.395  0.2243  0.0431 -0.5665
  628SOL    MW4 2286   0.225   3.457   5.385  0.1792 -0.0556  0.3291
  629SOL     OW 2287   3.374   4.679   3.542 -0.0780 -0.7471 -0.0606
  629SOL    HW2 2288   3.321   4.736   3.598 -0.0517 -0.9728  0.1964
  629SOL    HW3 2289   3.433   4.634   3.602  1.4513  0.5940 -0.4714
  629SOL    MW4 2290   3.375   4.681   3.557  0.3585  0.1672 -0.0722
  630SOL     OW 2291   4.582   1.540   0.019  0.0900 -0.3351 -0.3182
  630SOL    HW2 2292   4.593   1.445   0.013  1.4175 -0.1365 -1.5902
  630SOL    HW3 2293   4.495   1.552   0.057  0.1312 -2.0528  0.3983
  630SOL    MW4 2294   4.572   1.529   0.023  0.1368 -0.4404 -0.2027
  631SOL     OW 2295   2.459   2.104   3.271 -0.1505 -0.1682 -0.1259
  631SOL    HW2 2296   2.529   2.149   3.318 -0.3383 -0.9899  0.9919
  631SOL    HW3 2297   2.396   2.172   3.250  0.4170  0.3793 -0.0685
  631SOL    MW4 2298   2.460   2.119   3.275  0.5490 -0.3452 -0.0120
  632SOL     OW 2299   1.215   1.969   4.213  0.7843 -0.0908 -0.1592
  632SOL    HW2 2300   1.265   2.047   4.188 -0.8014  1.2231  0.5169
  632SOL    HW3 2301   1.212   1.973   4.309  1.0851 -1.2685 -0.0890
  632SOL    MW4 2302   1.221   1.980   4.222 -0.2554 -0.5086 -0.0529
  633SOL     OW 2303   4.853   5.330   0.933 -0.6615  0.1215 -0.2741
  633SOL    HW2 2304   4.882   5.372   0.852  0.7980  1.1026  0.7167
  633SOL    HW3 2305   4.932   5.294   0.971 -1.6570 -2.3477 -0.3414
  633SOL    MW4 2306   4.867   5.331   0.927  0.0218  0.4769 -0.1600
  634SOL     OW 2307   5.787   2.370   1.945  0.2017  0.1316  0.2282
  634SOL    HW2 2308   5.795   2.460   1.977 -0.3501  0.2967 -0.1004
  634SOL    HW3 2309   5.876   2.334   1.953  1.2510  1.7496 -2.7716
  634SOL    MW4 2310   5.800   2.377   1.950 -0.4111 -0.0939  0.3542
  635SOL     OW 2311   3.230   3.880   3.130  0.0885 -0.2284  1.0165
  635SOL    HW2 2312   3.146   3.925   3.122  0.0627 -0.1402  1.7242
  635SOL    HW3 2313   3.280   3.908   3.052 -0.6192 -0.4809  0.4619
  635SOL    MW4 2314   3.226   3.890   3.118  0.0286 -0.0138 -0.4989
  636SOL     OW 2315   2.598   4.463   3.422  0.2371 -0.2992  0.3714
  636SOL    HW2 2316   2.617   4.422   3.338  0.7562 -0.1224  0.4020
  636SOL    HW3 2317   2.518   4.513   3.407 -0.9043 -1.9744  0.5376
  636SOL    MW4 2318   2.590   4.464   3.409  0.4066  0.3832  0.4599
  637SOL     OW 2319   0.750   2.760   4.947  0.6602  0.2327 -0.1597
  637SOL    HW2 2320   0.734   2.850   4.975  0.6816  0.7205 -1.6168
  637SOL    HW3 2321   0.821   2.767   4.883  1.3637 -0.9580  0.4387
  637SOL    MW4 2322   0.757   2.773   4.942 -0.1598  0.0389  0.0989
  638SOL     OW 2323   5.664   6.017   3.018  0.1136 -0.2927 -0.8424
  638SOL    HW2 2324   5.569   6.032   3.017 -0.4264 -3.1226 -0.4451
  638SOL    HW3 2325   5.687   6.003   2.926  0.0979  0.1940 -0.9192
  638SOL    MW4 2326   5.654   6.017   3.006  0.0175  0.3645 -0.1686
  639SOL     OW 2327   2.369   1.067   0.812 -0.4170 -0.3944  0.1988
  639SOL    HW2 2328   2.430   1.032   0.876  0.8604 -0.2381 -0.8845
  639SOL    HW3 2329   2.283   1.059   0.853  0.4351  0.4037  2.2021
  639SOL    MW4 2330   2.365   1.061   0.826 -0.3663  0.0094  0.0237
  640SOL     OW 2331   2.439   4.031   4.190  0.6893  0.6497 -0.1479
  640SOL    HW2 2332   2.409   3.940   4.191  0.1016  0.8443  1.0022
  640SOL    HW3 2333   2.384   4.074   4.124 -1.1706  0.8478  1.4679
  640SOL    MW4 2334   2.428   4.025   4.181  0.2139 -0.5467 -0.0854
  641SOL     OW 2335   6.112   3.049   4.146  0.2226 -0.3429 -0.2433
  641SOL    HW2 2336   6.206   3.063   4.156  0.1941 -0.1828 -0.1985
  641SOL    HW3 2337   6.105   2.963   4.105  0.4041 -0.1838 -0.6143
  641SOL    MW4 2338   6.123   3.040   4.142  0.5900 -0.2018  0.0932
  642SOL     OW 2339   4.888   3.064   6.149  0.1454  0.1169 -0.4548
  642SOL    HW2 2340   4.818   3.008   6.113  0.2502 -1.8917  2.1614
  642SOL    HW3 2341   4.968   3.013   6.134  0.4274  0.1999  0.7424
  642SOL    MW4 2342   4.889   3.050   6.142  0.4240  0.0904 -0.1646
  643SOL     OW 2343   5.956   1.132   4.486 -0.6156 -0.6836 -0.3558
  643SOL    HW2 2344   6.021   1.066   4.462  0.4051  0.4692 -0.8588
  643SOL    HW3 2345   5.888   1.124   4.419 -0.1232 -0.7276 -0.8601
  643SOL    MW4 2346   5.956   1.122   4.474  0.3502 -0.6348 -0.0977
  644SOL     OW 2347   4.444   1.274   4.301  0.5323  0.3486  0.0841
  644SOL    HW2 2348   4.477   1.271   4.391  0.0213  0.5257  0.2779
  644SOL    HW3 2349   4.361   1.226   4.304  0.5405  0.3046 -0.3077
  644SOL    MW4 2350   4.438   1.267   4.313 -0.3489  0.0936 -0.1779
  645SOL     OW 2351   5.775   4.133   2.848 -0.7346 -0.0446 -0.4544
  645SOL    HW2 2352   5.732   4.218   2.835 -0.3775  0.1438 -0.4272
  645SOL    HW3 2353   5.868   4.154   2.854 -0.8190 -0.1784  1.9974
  645SOL    MW4 2354   5.782   4.147   2.847 -0.4257  0.2849 -0.6318
  646SOL     OW 2355   1.782   0.575   2.617 -0.4870  0.1749  0.0864
  646SOL    HW2 2356   1.852   0.510   2.617 -1.7275 -1.2033 -0.3283
  646SOL    HW3 2357   1.758   0.584   2.525 -2.6802 -1.4464  0.4295
  646SOL    MW4 2358   1.788   0.568   2.605  0.2238  0.7246 -0.4542
  647SOL     OW 2359   1.371   2.500   4.588  0.1835  0.3031 -0.0186
  647SOL    HW2 2360   1.330   2.483   4.673  1.3179 -0.1739  0.4410
  647SOL    HW3 2361   1.336   2.432   4.531 -0.0284  0.1866  0.2480
  647SOL    MW4 2362   1.361   2.489   4.592  0.2954  0.1340 -0.1962
  648SOL     OW 2363   0.172   6.115   1.506 -0.1504 -0.2108 -0.7255
  648SOL    HW2 2364   0.254   6.154   1.534  0.0458 -0.0585 -1.4905
  648SOL    HW3 2365   0.110   6.135   1.577  0.0880  0.9877 -0.8339
  648SOL    MW4 2366   0.174   6.123   1.519 -0.1877  0.0202 -0.9639
  649SOL     OW 2367   1.109   1.388   3.369 -0.2590  0.3675 -0.1417
  649SOL    HW2 2368   1.162   1.308   3.365  2.0726  1.7959  0.2221
  649SOL    HW3 2369   1.030   1.367   3.320  0.9211 -1.7149 -1.3086
  649SOL    MW4 2370   1.106   1.375   3.362 -0.4808  0.1434 -0.5155
  650SOL     OW 2371   6.052   2.280   4.313  0.2190  0.2508  0.0651
  650SOL    HW2 2372   6.073   2.187   4.305 -0.4745 -0.0969  1.9542
  650SOL    HW3 2373   6.012   2.303   4.229  0.1772 -1.2095 -0.3343
  650SOL    MW4 2374   6.050   2.271   4.301 -0.1418  0.4762 -0.6878
  651SOL     OW 2375   2.117   2.612   5.156 -0.8677  0.1929  0.0957
  651SOL    HW2 2376   2.147   2.522   5.163  1.9940  1.0025 -0.4102
  651SOL    HW3 2377   2.124   2.647   5.245  0.4445  0.5609 -0.1333
  651SOL    MW4 2378   2.122   2.605   5.168  0.0304 -0.3296 -0.3354
  652SOL     OW 2379   1.862   5.759   0.530 -0.3298  0.1952 -0.3649
  652SOL    HW2 2380   1.929   5.782   0.594 -0.2318  0.5172 -0.5785
  652SOL    HW3 2381   1.910   5.749   0.448 -0.4303 -0.3700 -0.3645
  652SOL    MW4 2382   1.877   5.760   0.528 -0.7111  0.1071  0.1655
  653SOL     OW 2383   5.923   0.590   2.358  0.1355  0.2713 -0.7054
  653SOL    HW2 2384   5.965   0.517   2.312 -1.0377  0.9332 -2.9454
  653SOL    HW3 2385   5.980   0.665   2.341  0.8827  0.1168  0.8852
  653SOL    MW4 2386   5.936   0.590   2.350 -0.1765  0.2495 -0.1730
  654SOL     OW 2387   5.146   1.865   5.140  0.7058  0.6621 -0.1342
  654SOL    HW2 2388   5.216   1.799   5.136  2.2874  2.2869 -0.4952
  654SOL    HW3 2389   5.077   1.831   5.083  0.8502 -1.3316  0.7977
  654SOL    MW4 2390   5.146   1.852   5.132 -0.3054  0.6526  0.3037
  655SOL     OW 2391   3.272   6.152   2.039  0.1915 -0.4591 -0.1354
  655SOL    HW2 2392   3.263   6.085   1.972 -0.1068 -0.3831 -0.1744
  655SOL    HW3 2393   3.194   6.208   2.028  0.8136  0.3316 -0.5891
  655SOL    MW4 2394   3.260   6.151   2.029 -0.6333  1.0850  0.3059
  656SOL     OW 2395   2.380   6.086   5.856 -0.2748 -0.2526 -0.0412
  656SOL    HW2 2396   2.470   6.093   5.823 -0.5187 -0.6611 -0.8103
  656SOL    HW3 2397   2.363   5.992   5.859 -1.2528 -0.1538 -1.5339
  656SOL    MW4 2398   2.390   6.075   5.852 -0.6253 -0.0390  0.0092
  657SOL     OW 2399   4.370   1.725   3.676  0.3489  0.2597  0.0601
  657SOL    HW2 2400   4.447   1.713   3.731  0.2460  2.2722  0.7482
  657SOL    HW3 2401   4.331   1.807   3.708  0.7808  2.0712 -3.5377
  657SOL    MW4 2402   4.375   1.734   3.688 -0.5947  0.5337  0.0088
  658SOL     OW 2403   0.625   4.783   6.345 -0.2445  0.0894 -0.2100
  658SOL    HW2 2404   0.585   4.752   6.264 -1.7583  2.3499 -0.3955
  658SOL    HW3 2405   0.719   4.786   6.326 -0.5740  0.5597 -1.8644
  658SOL    MW4 2406   0.632   4.779   6.332 -0.7214 -0.2264 -0.0221
  659SOL     OW 2407   3.163   4.338   5.859  0.3434  0.1447  0.1224
  659SOL    HW2 2408   3.135   4.266   5.804 -2.7491 -0.7547  2.5353
  659SOL    HW3 2409   3.219   4.298   5.926 -0.7059  0.0605  0.9828
  659SOL    MW4 2410   3.166   4.323   5.861 -0.3301 -0.7369 -0.6840
  660SOL     OW 2411   4.801   0.327   1.177 -0.1762 -0.6342  0.0200
  660SOL    HW2 2412   4.839   0.245   1.145 -0.3714 -1.2375  1.2623
  660SOL    HW3 2413   4.735   0.350   1.111  1.0882 -0.5147 -1.2488
  660SOL    MW4 2414   4.797   0.319   1.164 -0.2471  0.7358 -0.3704
  661SOL     OW 2415   5.431   0.681   1.267  0.2296 -0.2175 -0.0565
  661SOL    HW2 2416   5.505   0.639   1.222 -0.3486 -2.3450  0.8214
  661SOL    HW3 2417   5.354   0.649   1.220 -0.2130  0.6906  0.0378
  661SOL    MW4 2418   5.430   0.671   1.255 -0.3971  0.0736  0.4412
  662SOL     OW 2419   2.376   2.071   0.677  0.1518 -0.1453 -0.6194
  662SOL    HW2 2420   2.358   2.049   0.768  1.0159  0.5180 -0.2750
  662SOL    HW3 2421   2.386   2.166   0.677  1.8781 -0.2976 -1.0737
  662SOL    MW4 2422   2.375   2.080   0.689  0.1685 -0.0376 -0.2334
  663SOL     OW 2423   0.536   3.283   6.043  0.3943 -0.2715 -0.2966
  663SOL    HW2 2424   0.577   3.366   6.021  0.1545  0.0233  0.3436
  663SOL    HW3 2425   0.515   3.243   5.959 -1.4513  1.2930 -0.6549
  663SOL    MW4 2426   0.538   3.289   6.029  0.4886 -0.0348 -0.2287
  664SOL     OW 2427   2.064   1.407   3.436 -0.0877 -0.2629  0.2927
  664SOL    HW2 2428   1.973   1.397   3.463  0.1906 -1.0160  1.0003
  664SOL    HW3 2429   2.100   1.470   3.498 -0.6633  1.7667 -1.3406
  664SOL    MW4 2430   2.057   1.414   3.448 -0.1857  0.1699  0.1938
  665SOL     OW 2431   5.200   5.369   3.445 -0.0660 -0.0313 -0.0703
  665SOL    HW2 2432   5.189   5.447   3.390 -0.0870  0.3588  0.4808
  665SOL    HW3 2433   5.292   5.372   3.472  0.0527 -0.4468 -0.4091
  665SOL    MW4 2434   5.211   5.380   3.441 -0.0173 -0.0467 -0.0314
  666SOL     OW 2435   6.244   0.315   3.901  0.2958 -0.2531 -0.3751
  666SOL    HW2 2436   6.264   0.372   3.975  1.0666 -0.5748 -0.3307
  666SOL    HW3 2437   6.192   0.244   3.941  1.2368 -0.7540 -0.0192
  666SOL    MW4 2438   6.240   0.313   3.916  0.1115  0.1738  0.4455
  667SOL     OW 2439   3.805   3.123   0.643 -0.4022  0.6721 -0.0855
  667SOL    HW2 2440   3.879   3.063   0.643 -0.7187  0.1886  2.2914
  667SOL    HW3 2441   3.841   3.206   0.611  0.8044  0.0672 -0.3270
  667SOL    MW4 2442   3.819   3.126   0.639 -0.2904  0.9473 -0.0720
  668SOL     OW 2443   5.464   3.312   1.715 -0.0949 -0.1772 -0.5451
  668SOL    HW2 2444   5.495   3.318   1.625 -2.5065  0.1043 -1.4224
  668SOL    HW3 2445   5.417   3.395   1.729 -0.9194 -0.8046  0.4958
  668SOL    MW4 2446   5.462   3.324   1.705 -0.5933  0.5224  0.1374
  669SOL     OW 2447   5.134   3.999   1.102  0.4165  0.2051  0.4863
  669SOL    HW2 2448   5.090   4.043   1.029 -0.0710 -0.7281  0.1965
  669SOL    HW3 2449   5.225   3.992   1.074 -0.0002 -1.3110 -0.6516
  669SOL    MW4 2450   5.140   4.004   1.088 -0.5726  0.3490  0.7430
  670SOL     OW 2451   0.205   3.575   4.915 -0.4165  0.2163 -0.0852
  670SOL    HW2 2452   0.157   3.520   4.977 -2.3142  0.7866 -0.9562
  670SOL    HW3 2453   0.293   3.537   4.912 -0.8850 -1.0800  1.3640
  670SOL    MW4 2454   0.210   3.563   4.922 -0.6236 -0.2512 -0.1510
  671SOL     OW 2455   2.717   0.352   3.524  0.4089 -0.2606  0.6390
  671SOL    HW2 2456   2.716   0.399   3.441  0.9965 -1.3927 -0.0100
  671SOL    HW3 2457   2.794   0.385   3.570  0.0833  0.3620  0.7622
  671SOL    MW4 2458   2.727   0.363   3.519  0.6185 -0.6143  0.5363
  672SOL     OW 2459   1.298   0.716   2.000  0.3398  0.3147 -0.2658
  672SOL    HW2 2460   1.304   0.717   2.096  0.3146 -0.0235 -0.2596
  672SOL    HW3 2461   1.263   0.630   1.979 -1.5785  1.1004 -0.4808
  672SOL    MW4 2462   1.294   0.705   2.010 -0.0851  0.8743  0.6932
  673SOL     OW 2463   0.129   4.280   3.085 -0.1643  0.8720 -0.2092
  673SOL    HW2 2464   0.193   4.351   3.090 -0.1315  0.7728  1.1869
  673SOL    HW3 2465   0.179   4.204   3.057  0.0723  1.0798 -0.3543
  673SOL    MW4 2466   0.144   4.279   3.082 -0.0079  0.1729  0.1314
  674SOL     OW 2467   4.789   3.910   2.159 -0.2187  0.2235  0.3689
  674SOL    HW2 2468   4.806   3.821   2.190 -1.1405 -0.4365 -0.9147
  674SOL    HW3 2469   4.753   3.899   2.071  1.0059  1.9522 -0.4185
  674SOL    MW4 2470   4.786   3.897   2.151  0.8027  0.1783 -0.3243
  675SOL     OW 2471   5.997   4.957   0.583  0.1612 -0.6427 -0.5883
  675SOL    HW2 2472   6.072   5.011   0.608 -0.6202 -0.8921  2.7777
  675SOL    HW3 2473   5.958   5.002   0.508  1.4061  1.6315  0.0503
  675SOL    MW4 2474   6.002   4.970   0.576  0.1970  0.7117 -0.4774
  676SOL     OW 2475   3.955   1.423   5.009 -0.3439  0.1239  0.3991
  676SOL    HW2 2476   3.921   1.500   4.964 -1.1847 -0.6106 -0.2682
  676SOL    HW3 2477   3.916   1.426   5.096 -1.1808 -0.0564  0.0455
  676SOL    MW4 2478   3.945   1.433   5.014  0.6921  0.6064 -0.1136
  677SOL     OW 2479   0.304   1.386   2.168  0.1816  0.6979  0.0617
  677SOL    HW2 2480   0.259   1.438   2.102 -1.7546 -1.9852 -0.9107
  677SOL    HW3 2481   0.395   1.418   2.167  0.2628  0.7989 -3.9004
  677SOL    MW4 2482   0.310   1.397   2.159  0.0212  0.2755 -0.0116
  678SOL     OW 2483   2.404   1.729   0.770  0.1261 -0.0592  0.4738
  678SOL    HW2 2484   2.337   1.712   0.704 -1.1424 -2.5910  2.2498
  678SOL    HW3 2485   2.466   1.789   0.726 -1.4372 -0.3495 -2.4051
  678SOL    MW4 2486   2.403   1.735   0.755  0.7008 -0.3096 -0.4492
  679SOL     OW 2487   4.302   1.363   6.383 -0.2686 -0.2226 -0.1828
  679SOL    HW2 2488   4.264   1.408   6.458  2.7372  1.5738  0.4365
  679SOL    HW3 2489   4.290   1.423   6.309 -0.6845 -0.7116 -0.5262
  679SOL    MW4 2490   4.296   1.377   6.383 -0.4321  0.1645 -0.1575
  680SOL     OW 2491   3.237   0.892   2.737  0.3979  0.0819 -0.7953
  680SOL    HW2 2492   3.227   0.967   2.795  1.5135 -0.0781 -0.3798
  680SOL    HW3 2493   3.331   0.887   2.720  0.0651  0.3706 -2.9630
  680SOL    MW4 2494   3.248   0.901   2.742  0.1124  0.2328 -0.2213
  681SOL     OW 2495   5.571   6.316   4.885 -0.7925  0.0033  0.0849
  681SOL    HW2 2496   5.534   6.395   4.845  0.7192  0.4831 -0.4287
  681SOL    HW3 2497   5.572   6.252   4.814  0.2787  0.3183 -0.2088
  681SOL    MW4 2498   5.566   6.318   4.870 -0.2843  0.1183 -0.3860
  682SOL     OW 2499   2.408   5.634   6.314  0.6628 -0.2337 -0.2156
  682SOL    HW2 2500   2.482   5.575   6.298 -0.1506 -1.9941  2.0409
  682SOL    HW3 2501   2.334   5.576   6.329 -0.8528  1.4641 -0.7835
  682SOL    MW4 2502   2.408   5.618   6.314  0.1248 -0.5150 -0.0896
  683SOL     OW 2503   3.063   5.635   5.814 -0.4093  0.2509 -0.1428
  683SOL    HW2 2504   3.122   5.707   5.789  0.2724 -0.4320 -0.5380
  683SOL    HW3 2505   3.118   5.557   5.810 -1.4619 -0.4745 -1.0421
  683SOL    MW4 2506   3.078   5.634   5.810 -0.5486  0.8832  0.1257
  684SOL     OW 2507   4.103   4.719   3.965 -0.1867 -0.6698 -0.3402
  684SOL    HW2 2508   4.168   4.753   3.902 -0.9926 -0.6374 -1.1731
  684SOL    HW3 2509   4.033   4.784   3.964 -0.4095 -0.8991  0.2670
  684SOL    MW4 2510   4.103   4.732   3.956  0.3038 -0.1960  0.9542
  685SOL     OW 2511   5.567   0.173   0.267 -0.0444  0.2715  0.1813
  685SOL    HW2 2512   5.529   0.134   0.345 -2.1199  2.8295  0.5785
  685SOL    HW3 2513   5.502   0.159   0.198  2.3256 -3.1809 -1.6555
  685SOL    MW4 2514   5.553   0.166   0.268 -0.1077 -0.2865 -0.3407
  686SOL     OW 2515   6.031   4.056   0.370  0.2781  0.0787  0.2927
  686SOL    HW2 2516   6.116   4.058   0.327 -0.6057  1.4642 -1.5237
  686SOL    HW3 2517   6.015   4.147   0.395 -0.6485 -0.1744  0.6634
  686SOL    MW4 2518   6.040   4.068   0.368 -0.1979  0.0600  0.0670
  687SOL     OW 2519   1.717   5.757   0.939  0.3103 -0.3977 -0.3243
  687SOL    HW2 2520   1.647   5.697   0.963 -1.7996  1.8345 -0.5142
  687SOL    HW3 2521   1.730   5.810   1.017 -0.2496  1.0453 -1.1801
  687SOL    MW4 2522   1.709   5.756   0.952 -0.0588 -0.0394 -0.1025
  688SOL     OW 2523   5.446   2.381   4.110  0.2951 -0.6383  0.3115
  688SOL    HW2 2524   5.511   2.451   4.116  1.0468 -1.3605  0.8132
  688SOL    HW3 2525   5.436   2.350   4.200  0.5358 -1.6790 -0.0053
  688SOL    MW4 2526   5.453   2.386   4.123  0.2396  0.7226  0.0219
  689SOL     OW 2527   5.949   0.981   5.524 -0.3305 -0.0783  0.4188
  689SOL    HW2 2528   6.013   0.992   5.594 -0.2753 -1.0261  0.5338
  689SOL    HW3 2529   5.993   0.924   5.461 -0.4431  0.6267 -0.3128
  689SOL    MW4 2530   5.964   0.975   5.525 -0.1145 -0.0215  0.4226
  690SOL     OW 2531   3.566   6.391   3.685 -0.8370  0.0785  0.4494
  690SOL    HW2 2532   3.554   6.458   3.752 -2.1337 -1.0822  1.4329
  690SOL    HW3 2533   3.651   6.353   3.704 -1.0502 -0.0126  1.2277
  690SOL    MW4 2534   3.575   6.395   3.696  0.3863  0.0458 -0.3753
  691SOL     OW 2535   4.724   2.449   5.937  0.2827 -0.0485 -0.1461
  691SOL    HW2 2536   4.737   2.424   6.028 -3.5233 -0.5080  0.4257
  691SOL    HW3 2537   4.686   2.537   5.941  2.1382  0.8632 -1.4681
  691SOL    MW4 2538   4.720   2.457   5.949  0.0131  0.0428  0.2611
  692SOL     OW 2539   3.223   2.922   3.492  0.2318 -0.4348  0.1974
  692SOL    HW2 2540   3.207   2.882   3.407  0.7462  1.1601 -0.6976
  692SOL    HW3 2541   3.217   3.016   3.476  0.4163 -0.0831  1.9169
  692SOL    MW4 2542   3.220   2.929   3.479  0.0157 -0.0533  0.3897
  693SOL     OW 2543   1.770   1.345   3.429 -0.5645 -0.2157  0.6620
  693SOL    HW2 2544   1.720   1.340   3.510 -1.9456 -3.8216 -0.2379
  693SOL    HW3 2545   1.706   1.327   3.360  1.1475 -0.3759 -0.9685
  693SOL    MW4 2546   1.755   1.342   3.430 -0.0510  0.5559  0.3512
  694SOL     OW 2547   3.372   2.554   5.854 -0.1958  0.3475  0.1335
  694SOL    HW2 2548   3.384   2.596   5.769  2.4106  2.0364  1.1920
  694SOL    HW3 2549   3.277   2.545   5.863 -0.6204  1.4742 -2.3029
  694SOL    MW4 2550   3.361   2.558   5.844  0.3068 -0.3675  0.1515
  695SOL     OW 2551   2.400   6.110   4.205  0.2862  0.0087 -0.1817
  695SOL    HW2 2552   2.469   6.059   4.163  0.5204 -1.0141  1.3567
  695SOL    HW3 2553   2.336   6.126   4.136  0.9448 -1.0734 -1.0638
  695SOL    MW4 2554   2.400   6.105   4.191  1.0068  0.6053  0.4687
  696SOL     OW 2555   6.142   5.820   5.432  0.1788 -0.2058 -0.8396
  696SOL    HW2 2556   6.121   5.745   5.377  0.0244 -1.5105  0.9165
  696SOL    HW3 2557   6.119   5.792   5.521 -1.5280  2.5356 -0.2925
  696SOL    MW4 2558   6.136   5.807   5.437  0.1759 -0.0568  0.5447
  697SOL     OW 2559   1.903   5.384   6.395 -0.2034  0.0016 -0.5699
  697SOL    HW2 2560   1.811   5.396   6.375 -0.9085 -2.4817  0.7633
  697SOL    HW3 2561   1.919   5.291   6.380  1.6062  0.0077  0.9440
  697SOL    MW4 2562   1.893   5.373   6.390 -0.9592  0.4803 -0.5944
  698SOL     OW 2563   5.043   2.066   4.762 -0.5998 -0.0513  0.0143
  698SOL    HW2 2564   5.088   2.095   4.841  0.4105 -1.1588 -0.1254
  698SOL    HW3 2565   5.104   2.085   4.691 -0.5265 -1.1166 -0.2349
  698SOL    MW4 2566   5.057   2.072   4.763  0.0572  0.3852  0.3506
  699SOL     OW 2567   2.258   2.508   0.517 -0.1830  0.8555  0.3849
  699SOL    HW2 2568   2.246   2.414   0.501  1.8466  0.3938  1.1828
  699SOL    HW3 2569   2.240   2.518   0.611 -0.7631  1.3352  0.2226
  699SOL    MW4 2570   2.254   2.497   0.527  0.1088 -0.1895 -0.3075
  700SOL     OW 2571   6.097   5.451   5.407  1.1436 -0.4248 -0.1180
  700SOL    HW2 2572   6.162   5.466   5.476  1.8737  1.8254 -1.1989
  700SOL    HW3 2573   6.137   5.386   5.350  1.5869 -0.5080  0.2748
  700SOL    MW4 2574   6.111   5.444   5.409 -0.0249 -0.7119  0.4355
  701SOL     OW 2575   2.749   1.594   3.122 -0.0549 -0.0414  0.4382
  701SOL    HW2 2576   2.688   1.553   3.060  1.3580 -2.8247  0.7173
  701SOL    HW3 2577   2.734   1.548   3.205  2.1428 -0.5966  0.5909
  701SOL    MW4 2578   2.739   1.583   3.125 -0.3473  0.2724  0.2620
  702SOL     OW 2579   0.817   5.039   2.330  0.1536  0.6261 -0.7127
  702SOL    HW2 2580   0.854   5.021   2.244  1.9251  2.4637 -0.4312
  702SOL    HW3 2581   0.800   5.134   2.329  0.5936  0.7579  1.0765
  702SOL    MW4 2582   0.819   5.049   2.319  0.4568  0.1125 -1.0462
  703SOL     OW 2583   3.535   1.141   0.542 -0.5257  0.0041 -0.1225
  703SOL    HW2 2584   3.497   1.138   0.454  0.8999 -0.0617 -0.7525
  703SOL    HW3 2585   3.508   1.227   0.576 -0.6360  0.2560 -0.8267
  703SOL    MW4 2586   3.526   1.152   0.535  0.7274  0.0914 -0.2791
  704SOL     OW 2587   2.148   6.279   4.537 -0.0197  0.3287  0.3760
  704SOL    HW2 2588   2.094   6.290   4.458 -0.5465 -2.0025  0.3214
  704SOL    HW3 2589   2.137   6.360   4.586 -2.4166  0.4954 -0.3360
  704SOL    MW4 2590   2.140   6.291   4.533  0.2755  0.0500  0.4649
  705SOL     OW 2591   5.828   1.027   1.059 -0.5051  0.8977 -0.3276
  705SOL    HW2 2592   5.900   0.963   1.060 -0.1368  1.3130 -0.2094
  705SOL    HW3 2593   5.791   1.019   0.971  0.0631  1.0938 -0.5888
  705SOL    MW4 2594   5.833   1.017   1.047  0.2820  0.7289  0.1324
  706SOL     OW 2595   0.402   2.504   4.984  0.0229 -0.0123  0.5335
  706SOL    HW2 2596   0.390   2.413   4.958  1.1121  0.2878 -1.1952
  706SOL    HW3 2597   0.460   2.500   5.059  1.4108 -0.7003 -0.5338
  706SOL    MW4 2598   0.408   2.492   4.990 -0.4371  0.0924 -0.1105
  707SOL     OW 2599   6.124   4.183   6.000  0.5218 -0.0283 -0.2970
  707SOL    HW2 2600   6.123   4.122   5.926 -0.0406 -0.0829 -0.2437
  707SOL    HW3 2601   6.161   4.133   6.072  0.3617 -0.2085 -0.3398
  707SOL    MW4 2602   6.129   4.169   6.000 -0.0174  0.0977  0.1433
  708SOL     OW 2603   4.218   1.300   3.524 -0.2667 -0.3873 -0.6702
  708SOL    HW2 2604   4.133   1.326   3.488 -0.0961 -0.9173 -1.4915
  708SOL    HW3 2605   4.249   1.377   3.571 -1.5909 -0.4591  0.4004
  708SOL    MW4 2606   4.211   1.313   3.525 -0.0505  0.0046 -0.3155
  709SOL     OW 2607   1.974   2.034   1.752 -0.1371 -0.5203  0.0787
  709SOL    HW2 2608   2.002   2.125   1.742  0.6128 -0.8278 -0.8302
  709SOL    HW3 2609   1.959   2.023   1.846 -0.0178  0.4735  0.2254
  709SOL    MW4 2610   1.975   2.044   1.763 -0.2900 -0.3642 -0.0078
  710SOL     OW 2611   5.819   1.334   2.058  0.6658 -0.1734  0.1203
  710SOL    HW2 2612   5.889   1.279   2.023  0.3504 -0.5147  0.0136
  710SOL    HW3 2613   5.777   1.280   2.125  0.6737  0.1287  0.3727
  710SOL    MW4 2614   5.822   1.320   2.062 -0.2477 -0.1629  0.0910
  711SOL     OW 2615   6.389   4.337   4.306 -0.0521 -0.3082 -0.3439
  711SOL    HW2 2616   6.341   4.360   4.225  0.8589 -0.2819 -0.8882
  711SOL    HW3 2617   6.333   4.273   4.349 -1.1779  0.6239 -0.3444
  711SOL    MW4 2618   6.375   4.332   4.301 -0.1383 -0.5845 -0.3112
  712SOL     OW 2619   2.085   0.082   5.926  0.2707 -0.5085 -0.1938
  712SOL    HW2 2620   2.046   0.021   5.864 -0.5491 -1.7146  1.4300
  712SOL    HW3 2621   2.031   0.161   5.920 -0.8979 -1.2555  0.2275
  712SOL    MW4 2622   2.073   0.085   5.917  0.0656 -0.1228  0.2114
  713SOL     OW 2623   3.566   6.155   3.955 -0.2078  0.2960 -0.2186
  713SOL    HW2 2624   3.629   6.114   4.014 -0.0351  0.0118 -0.5943
  713SOL    HW3 2625   3.551   6.242   3.992 -0.6312 -0.1205  0.6365
  713SOL    MW4 2626   3.572   6.161   3.968 -0.7863  0.7136  0.3891
  714SOL     OW 2627   3.093   2.857   4.826 -0.1966 -0.1535  0.0088
  714SOL    HW2 2628   3.189   2.858   4.816 -0.1588  1.7239  0.1541
  714SOL    HW3 2629   3.065   2.779   4.779  1.3846 -0.5959 -0.2725
  714SOL    MW4 2630   3.102   2.847   4.818  0.6744  0.3107  0.4890
  715SOL     OW 2631   2.663   3.040   6.218  0.2520 -0.1012 -0.7782
  715SOL    HW2 2632   2.745   3.024   6.171 -0.1200 -0.2288 -1.4047
  715SOL    HW3 2633   2.690   3.074   6.303  1.0107 -1.7348 -0.3116
  715SOL    MW4 2634   2.677   3.042   6.223 -0.0930 -0.1906  0.0668
  716SOL     OW 2635   4.518   4.266   5.796  0.0576 -0.4216  0.3988
  716SOL    HW2 2636   4.459   4.272   5.870  0.1502  0.9719  0.3728
  716SOL    HW3 2637   4.489   4.188   5.748 -1.2037 -0.2468  0.8544
  716SOL    MW4 2638   4.507   4.256   5.799  0.1124 -0.5570  0.2177
  717SOL     OW 2639   0.997   2.531   2.669 -0.1464  0.1545 -0.1516
  717SOL    HW2 2640   1.008   2.550   2.576  1.7928 -0.6367 -0.1404
  717SOL    HW3 2641   0.993   2.436   2.674  2.0544  0.0281  0.6917
  717SOL    MW4 2642   0.998   2.521   2.658 -0.0336 -0.2406 -0.3142
  718SOL     OW 2643   4.031   4.141   1.891 -0.1627 -0.5820  0.0610
  718SOL    HW2 2644   4.003   4.232   1.877 -0.2424 -0.5754  0.2726
  718SOL    HW3 2645   3.950   4.092   1.899 -0.2579 -1.2281 -3.3959
  718SOL    MW4 2646   4.017   4.147   1.890  0.0901  0.2752 -0.7230
  719SOL     OW 2647   4.532   3.464   6.184  0.3885  0.0210 -0.5550
  719SOL    HW2 2648   4.621   3.495   6.169  0.7477 -0.7038  0.0656
  719SOL    HW3 2649   4.518   3.396   6.118 -0.0870  0.8438 -1.3318
  719SOL    MW4 2650   4.542   3.459   6.173  0.0830 -0.0761  0.1874
  720SOL     OW 2651   2.974   3.396   4.947  0.0493 -0.1166  0.5981
  720SOL    HW2 2652   2.879   3.387   4.957 -0.0790  1.8750  1.5622
  720SOL    HW3 2653   3.009   3.389   5.036  0.9255 -1.5935  0.1758
  720SOL    MW4 2654   2.966   3.394   4.960 -0.3163 -0.0445 -0.0702
  721SOL     OW 2655   3.305   5.900   5.183 -0.6792 -0.6321  0.4100
  721SOL    HW2 2656   3.324   5.986   5.219  0.7362 -0.6428 -0.2541
  721SOL    HW3 2657   3.217   5.908   5.145 -1.7186 -0.2865  2.7096
  721SOL    MW4 2658   3.296   5.912   5.183  0.9279 -0.1736  0.7169
  722SOL     OW 2659   6.227   4.538   2.803  0.2221  0.0710 -0.1473
  722SOL    HW2 2660   6.252   4.517   2.713 -0.1612 -1.2503  0.0346
  722SOL    HW3 2661   6.134   4.513   2.808  0.9151 -2.5054  1.3546
  722SOL    MW4 2662   6.218   4.532   2.791  0.0113  0.2476  0.3016
  723SOL     OW 2663   2.594   6.174   4.819 -0.4191 -0.3102  0.1568
  723SOL    HW2 2664   2.596   6.119   4.741  0.7632  0.5218 -0.4343
  723SOL    HW3 2665   2.545   6.251   4.792  0.7711  0.3897 -0.0814
  723SOL    MW4 2666   2.588   6.177   4.805  0.2463  0.4773  0.5452
  724SOL     OW 2667   3.833   0.450   4.596  0.1740  0.5367 -0.1083
  724SOL    HW2 2668   3.791   0.529   4.631  0.5427  0.3962  0.6661
  724SOL    HW3 2669   3.774   0.379   4.620  0.0108  0.5332 -0.5116
  724SOL    MW4 2670   3.820   0.451   4.603  0.0367  0.3803 -0.1783
  725SOL     OW 2671   3.704   6.190   6.338  0.1867 -0.3407 -0.1383
  725SOL    HW2 2672   3.780   6.208   6.392 -0.2003 -0.5010  0.4745
  725SOL    HW3 2673   3.633   6.175   6.400 -0.4507  0.2518 -0.7015
  725SOL    MW4 2674   3.704   6.190   6.353 -0.4704  0.1497  0.3201
  726SOL     OW 2675   6.052   4.230   3.186  0.0488  0.2872 -0.3427
  726SOL    HW2 2676   6.025   4.288   3.115 -1.7090  1.2187  1.0056
  726SOL    HW3 2677   5.987   4.244   3.255  1.8070 -0.3929  1.5690
  726SOL    MW4 2678   6.040   4.240   3.186  0.0058 -0.5100  0.4925
  727SOL     OW 2679   5.585   6.146   2.309 -0.2984  0.1517  0.7437
  727SOL    HW2 2680   5.491   6.148   2.292 -0.6446  0.5023  2.5104
  727SOL    HW3 2681   5.623   6.193   2.235 -1.5288  0.2050  0.1180
  727SOL    MW4 2682   5.578   6.153   2.297  0.4100 -0.7422 -0.2364
  728SOL     OW 2683   3.594   3.960   4.082  0.3113  0.0566 -0.1949
  728SOL    HW2 2684   3.687   3.967   4.104  0.4845  0.7532 -1.0587
  728SOL    HW3 2685   3.586   4.006   3.998 -0.9087  0.4920  0.1353
  728SOL    MW4 2686   3.605   3.967   4.074 -0.4286  0.3457  0.0177
  729SOL     OW 2687   0.606   3.286   3.405  0.2927 -0.4760  0.2050
  729SOL    HW2 2688   0.689   3.328   3.383 -0.7555  1.4457 -0.3867
  729SOL    HW3 2689   0.552   3.296   3.327 -0.5320 -1.6057  0.6020
  729SOL    MW4 2690   0.610   3.293   3.392  0.4665  0.2372 -0.0508
  730SOL     OW 2691   5.902   3.395   1.309  0.5248  0.2812  0.1630
  730SOL    HW2 2692   5.916   3.404   1.403 -1.6789  0.9549  0.4850
  730SOL    HW3 2693   5.828   3.453   1.290  1.1188  0.4089 -2.0544
  730SOL    MW4 2694   5.894   3.404   1.319 -0.4067 -0.2692 -0.0380
  731SOL     OW 2695   0.316   0.448   1.068 -0.0798  0.0325 -0.3005
  731SOL    HW2 2696   0.411   0.439   1.068 -0.0949 -0.1455 -0.3607
  731SOL    HW3 2697   0.289   0.419   1.155 -0.0443  0.5057 -0.1286
  731SOL    MW4 2698   0.325   0.443   1.080 -0.4402  0.1808  0.3951
  732SOL     OW 2699   3.050   1.746   0.831 -0.1577 -0.3124  0.6063
  732SOL    HW2 2700   2.957   1.721   0.823 -0.4206  0.6819  0.4195
  732SOL    HW3 2701   3.096   1.663   0.840 -0.8747 -0.9578 -1.1800
  732SOL    MW4 2702   3.044   1.732   0.831 -0.0278 -0.1127  0.6576
  733SOL     OW 2703   4.284   1.688   4.997 -0.4687 -0.3892 -0.3892
  733SOL    HW2 2704   4.297   1.758   4.933  0.7468  1.6029  1.9282
  733SOL    HW3 2705   4.189   1.685   5.010 -0.5386  0.7245 -0.6073
  733SOL    MW4 2706   4.273   1.697   4.990 -0.5024 -0.5007  0.3114
  734SOL     OW 2707   5.594   5.838   4.468  0.6941  0.2822 -0.1449
  734SOL    HW2 2708   5.545   5.888   4.404  2.2939  0.8187 -1.0093
  734SOL    HW3 2709   5.552   5.752   4.470 -0.4643  0.8271 -0.5760
  734SOL    MW4 2710   5.582   5.834   4.460 -0.0185 -0.8701  0.1878
  735SOL     OW 2711   2.933   1.287   5.583 -0.3584  0.0714 -0.0377
  735SOL    HW2 2712   2.860   1.302   5.522 -3.5193 -0.0545  3.3792
  735SOL    HW3 2713   2.961   1.197   5.565  0.1322  0.6396 -2.4625
  735SOL    MW4 2714   2.927   1.277   5.572 -0.1911  0.1431  0.4229
  736SOL     OW 2715   3.659   1.439   3.596  0.0355  0.3199 -0.5708
  736SOL    HW2 2716   3.737   1.487   3.568 -0.8102  2.2274  0.1618
  736SOL    HW3 2717   3.659   1.360   3.542  2.5932  0.1223 -0.4097
  736SOL    MW4 2718   3.669   1.435   3.585  0.0960  0.7573  0.1036
  737SOL     OW 2719   2.850   4.350   2.946  0.1915  0.1100  0.2979
  737SOL    HW2 2720   2.855   4.445   2.934 -2.3607  0.2534 -0.1433
  737SOL    HW3 2721   2.941   4.323   2.958  0.9564  2.6450  0.8583
  737SOL    MW4 2722   2.863   4.359   2.946 -0.1864  0.1970  1.0690
  738SOL     OW 2723   5.185   1.702   6.131  0.3215 -0.0818 -0.6345
  738SOL    HW2 2724   5.207   1.610   6.145  0.6313 -0.1466 -1.4833
  738SOL    HW3 2725   5.183   1.712   6.036 -0.1172  0.6967 -0.5546
  738SOL    MW4 2726   5.187   1.692   6.120  0.7751 -0.1816 -0.5759
  739SOL     OW 2727   0.165   0.302   0.061 -0.2766 -0.2006  0.6874
  739SOL    HW2 2728   0.252   0.282   0.024 -0.1312  0.2638  0.7676
  739SOL    HW3 2729   0.104   0.267  -0.004 -0.0381 -0.9489  0.8527
  739SOL    MW4 2730   0.169   0.294   0.047 -0.0929  0.4758 -0.4584
  740SOL     OW 2731   3.137   2.997   4.103  0.4186 -0.0392 -0.0710
  740SOL    HW2 2732   3.111   3.077   4.150  0.6552 -0.5818  1.0332
  740SOL    HW3 2733   3.232   3.005   4.094  0.4215 -0.1152 -0.1019
  740SOL    MW4 2734   3.146   3.009   4.108 -0.9416 -0.3316  0.0153
  741SOL     OW 2735   2.025   2.640   0.500 -0.1329 -0.4056  0.0092
  741SOL    HW2 2736   2.019   2.721   0.450 -1.0105  1.3213  2.7013
  741SOL    HW3 2737   2.118   2.618   0.498  0.2717  1.1812 -0.0260
  741SOL    MW4 2738   2.037   2.648   0.493 -0.0230  1.0493  0.2622
  742SOL     OW 2739   2.854   2.712   2.017 -0.0935 -0.0977  0.2087
  742SOL    HW2 2740   2.908   2.713   1.938 -0.5945  2.0044 -0.1790
  742SOL    HW3 2741   2.789   2.644   2.001 -0.7377  0.8909 -1.6241
  742SOL    MW4 2742   2.852   2.703   2.004 -0.2643  0.1597 -0.1423
  743SOL     OW 2743   6.043   3.780   5.361  0.2406 -0.3093  0.2039
  743SOL    HW2 2744   6.130   3.789   5.323  1.3998  0.3014  2.7992
  743SOL    HW3 2745   6.021   3.868   5.392 -1.4479 -0.4025 -0.6276
  743SOL    MW4 2746   6.051   3.793   5.360 -0.2042 -0.3135  0.2450
  744SOL     OW 2747   2.886   4.997   5.067 -0.7276  0.0445 -0.4997
  744SOL    HW2 2748   2.944   5.052   5.014  0.7745 -2.0502 -1.1465
  744SOL    HW3 2749   2.898   5.028   5.156 -0.0290  0.8320 -0.8549
  744SOL    MW4 2750   2.895   5.008   5.072  0.2447  0.1915  0.1938
  745SOL     OW 2751   2.233   6.375   6.185  0.3926 -0.8019 -0.1735
  745SOL    HW2 2752   2.279   6.292   6.170  0.3023 -1.2410  1.6874
  745SOL    HW3 2753   2.209   6.405   6.098  4.3140 -0.4478 -1.3211
  745SOL    MW4 2754   2.236   6.368   6.172  0.0395 -0.6282 -0.1716
  746SOL     OW 2755   3.012   6.251   3.657 -0.3387 -0.2019 -0.1402
  746SOL    HW2 2756   2.979   6.301   3.731 -1.4665  0.4742 -1.0657
  746SOL    HW3 2757   2.938   6.247   3.595  0.7078 -0.3483 -1.4242
  746SOL    MW4 2758   2.998   6.257   3.658 -0.2250  0.6078 -0.0075
  747SOL     OW 2759   4.859   4.292   0.622 -0.1008 -0.0200 -0.3281
  747SOL    HW2 2760   4.775   4.275   0.580 -1.2928  0.2379  1.8184
  747SOL    HW3 2761   4.896   4.205   0.638 -1.6617 -0.3551  1.8766
  747SOL    MW4 2762   4.853   4.278   0.618 -0.1919  0.9069 -0.0814
  748SOL     OW 2763   4.052   3.164   4.651  0.1063 -0.1264  0.2376
  748SOL    HW2 2764   4.053   3.166   4.555  0.8713  1.8613  0.2419
  748SOL    HW3 2765   3.964   3.134   4.673 -0.1228 -0.5010 -1.0818
  748SOL    MW4 2766   4.040   3.160   4.641  0.2960  1.1300  1.0490
  749SOL     OW 2767   1.719   1.810   2.471 -0.3343  0.2415  0.1525
  749SOL    HW2 2768   1.649   1.761   2.515 -0.0213 -0.4267 -0.0827
  749SOL    HW3 2769   1.733   1.886   2.526 -1.9233  0.9103 -0.2989
  749SOL    MW4 2770   1.712   1.813   2.484  0.4427  0.7972 -0.1689
  750SOL     OW 2771   0.554   5.846   1.465 -0.3806 -0.0345 -0.1516
  750SOL    HW2 2772   0.500   5.897   1.526 -2.2177 -1.8777 -0.1180
  750SOL    HW3 2773   0.548   5.756   1.498  2.9189 -0.3473 -0.0871
  750SOL    MW4 2774   0.546   5.841   1.478  0.0493  0.5044  0.2790
  751SOL     OW 2775   2.289   3.897   5.340  0.7502 -0.6536 -0.1615
  751SOL    HW2 2776   2.269   3.965   5.275 -1.5971 -1.9992 -0.9576
  751SOL    HW3 2777   2.283   3.815   5.292 -2.3419 -1.8207  1.8470
  751SOL    MW4 2778   2.285   3.895   5.325 -0.5251  0.1134  0.5859
  752SOL     OW 2779   2.519   5.677   5.894  0.2464 -0.2395  0.3818
  752SOL    HW2 2780   2.525   5.618   5.970  0.4892  0.2896  0.7804
  752SOL    HW3 2781   2.428   5.705   5.893  0.4184  0.3644  0.9545
  752SOL    MW4 2782   2.508   5.673   5.904  0.0258  0.5333 -0.1079
  753SOL     OW 2783   3.500   3.939   5.274  0.6344 -0.5729 -0.3698
  753SOL    HW2 2784   3.503   3.854   5.231 -0.3666  0.0424 -1.7143
  753SOL    HW3 2785   3.592   3.966   5.280  1.0712 -2.1987  1.1056
  753SOL    MW4 2786   3.513   3.931   5.269 -0.4754 -0.1507 -0.4916
  754SOL     OW 2787   4.622   0.360   4.127  0.6446 -0.2228  0.9176
  754SOL    HW2 2788   4.563   0.422   4.084  3.0192  1.4735 -0.0565
  754SOL    HW3 2789   4.564   0.289   4.157 -1.8864  1.4312  0.2356
  754SOL    MW4 2790   4.606   0.359   4.126  0.1077  0.2563  0.2249
  755SOL     OW 2791   5.819   2.295   2.972  0.6752  0.3091  0.0458
  755SOL    HW2 2792   5.853   2.303   3.061 -0.5705 -0.7198  0.6399
  755SOL    HW3 2793   5.859   2.214   2.939 -0.3967 -0.3877  0.4064
  755SOL    MW4 2794   5.829   2.285   2.979  0.4491  0.3559 -0.1300
  756SOL     OW 2795   2.846   2.756   0.751  0.1323  0.3615 -0.1039
  756SOL    HW2 2796   2.847   2.849   0.728  0.7324  0.3317 -0.2155
  756SOL    HW3 2797   2.882   2.711   0.675 -0.3409  0.0165 -0.1271
  756SOL    MW4 2798   2.851   2.763   0.738  0.3125  0.5123 -0.5606
  757SOL     OW 2799   0.407   6.178   1.251  0.4231 -0.4770  0.1897
  757SOL    HW2 2800   0.446   6.239   1.188  0.7430  0.0142  0.8473
  757SOL    HW3 2801   0.429   6.091   1.217 -0.1962 -0.2361 -0.8575
  757SOL    MW4 2802   0.415   6.174   1.238 -0.1372  0.6103 -0.4861
  758SOL     OW 2803   1.560   3.829   3.856 -0.5294  0.4257 -0.0948
  758SOL    HW2 2804   1.482   3.844   3.910 -0.1184  2.7739 -0.0373
  758SOL    HW3 2805   1.633   3.862   3.910  0.6811 -2.3967  0.1693
  758SOL    MW4 2806   1.560   3.835   3.870  0.0034 -0.5391  0.5282
  759SOL     OW 2807   3.562   0.232   3.514  0.5419 -0.2795  0.3673
  759SOL    HW2 2808   3.622   0.292   3.559  0.7362 -0.0365 -0.2121
  759SOL    HW3 2809   3.600   0.146   3.529  1.6682 -0.0420 -0.9181
  759SOL    MW4 2810   3.575   0.229   3.522 -0.1007 -0.1120  0.2279
  760SOL     OW 2811   0.252   3.064   2.973 -0.0291 -0.1369 -0.2428
  760SOL    HW2 2812   0.223   3.061   3.065 -0.8221  0.0920 -0.4724
  760SOL    HW3 2813   0.346   3.048   2.977 -0.2942 -1.7040  0.4843
  760SOL    MW4 2814   0.260   3.062   2.986  0.2873  0.1260 -0.1771
  761SOL     OW 2815   2.741   3.277   1.990 -0.4658 -0.0860  0.6435
  761SOL    HW2 2816   2.756   3.191   1.950  2.0083  1.0258 -1.1282
  761SOL    HW3 2817   2.741   3.337   1.916  0.0069  1.6695  2.0121
  761SOL    MW4 2818   2.743   3.273   1.975 -0.2340  0.1949 -0.3585
  762SOL     OW 2819   5.329   0.882   3.394 -0.0709  0.3439  0.0708
  762SOL    HW2 2820   5.265   0.852   3.329 -0.9612 -2.1869  1.9686
  762SOL    HW3 2821   5.413   0.874   3.349 -0.7898  0.5438 -1.3844
  762SOL    MW4 2822   5.332   0.877   3.379  0.6094 -0.6184  0.1633
  763SOL     OW 2823   5.995   2.764   5.121  0.4060 -0.0251 -0.2401
  763SOL    HW2 2824   6.033   2.776   5.034 -0.4371  2.8294 -0.3195
  763SOL    HW3 2825   5.962   2.851   5.145 -1.1310 -1.1553  2.1248
  763SOL    MW4 2826   5.996   2.777   5.113  0.2938  0.1460 -0.3657
  764SOL     OW 2827   4.330   0.916   4.285 -0.0129  0.4611 -0.3139
  764SOL    HW2 2828   4.381   0.932   4.206  0.4102  0.6866  0.0024
  764SOL    HW3 2829   4.280   0.997   4.297 -1.5063 -0.2502 -1.3862
  764SOL    MW4 2830   4.330   0.929   4.276  0.4229  0.2970  0.2742
  765SOL     OW 2831   4.974   4.673   0.383  0.1638  0.0994 -0.0403
  765SOL    HW2 2832   4.932   4.588   0.366 -0.5138  0.6731 -1.4318
  765SOL    HW3 2833   5.010   4.698   0.298  2.6229  0.0424  0.9156
  765SOL    MW4 2834   4.973   4.665   0.369 -0.6821  0.0265 -0.9114
  766SOL     OW 2835   1.026   2.539   1.829  0.7210 -0.0442  0.1814
  766SOL    HW2 2836   1.035   2.521   1.735 -2.3276  0.3819 -0.2708
  766SOL    HW3 2837   0.983   2.625   1.833  0.8674 -0.0099  2.0074
  766SOL    MW4 2838   1.022   2.548   1.817  0.1285 -0.1589  0.0137
  767SOL     OW 2839   5.831   3.124   1.885 -0.6859 -0.0304 -0.1532
  767SOL    HW2 2840   5.863   3.073   1.811 -1.1651 -0.3941 -0.1152
  767SOL    HW3 2841   5.801   3.207   1.847  0.8002  0.5490 -0.1203
  767SOL    MW4 2842   5.831   3.128   1.870 -0.2526  0.2123 -0.7588
  768SOL     OW 2843   2.323   4.171   5.590 -0.3355  0.5204  0.1943
  768SOL    HW2 2844   2.386   4.129   5.649 -1.3964 -1.1210  0.2288
  768SOL    HW3 2845   2.315   4.260   5.623  1.2444  0.4933  0.7504
  768SOL    MW4 2846   2.331   4.177   5.602 -0.4382  0.1565 -0.0653
  769SOL     OW 2847   1.839   1.082   3.064 -0.0932  0.4455  0.2491
  769SOL    HW2 2848   1.836   0.987   3.071 -0.6659  0.3843 -0.7313
  769SOL    HW3 2849   1.875   1.099   2.978 -1.0085  1.1068 -0.0194
  769SOL    MW4 2850   1.843   1.072   3.054 -0.8153 -0.3417  0.5023
  770SOL     OW 2851   5.337   5.628   1.476 -0.3408 -0.5403  0.1869
  770SOL    HW2 2852   5.310   5.632   1.568 -1.1285  1.0482 -0.0860
  770SOL    HW3 2853   5.430   5.648   1.478 -0.5498  0.4175  0.5575
  770SOL    MW4 2854   5.345   5.631   1.488  0.1672 -0.0489 -0.9030
  771SOL     OW 2855   2.685   0.474   0.995 -0.2300  0.4473  0.4970
  771SOL    HW2 2856   2.754   0.425   0.950 -1.0189 -1.3071  1.0931
  771SOL    HW3 2857   2.706   0.463   1.088 -1.3440 -0.2178  0.6895
  771SOL    MW4 2858   2.697   0.466   1.002 -0.4660  0.2907  0.0247
  772SOL     OW 2859   4.499   5.149   0.550 -0.0925  0.1617 -0.4743
  772SOL    HW2 2860   4.466   5.088   0.615  0.2732  0.2345 -0.2185
  772SOL    HW3 2861   4.465   5.116   0.467 -0.3301 -0.0888 -0.2799
  772SOL    MW4 2862   4.490   5.137   0.547  0.1259  0.0299 -0.2969
  773SOL     OW 2863   1.178   1.349   3.675 -0.3057 -0.1569  0.3105
  773SOL    HW2 2864   1.127   1.368   3.596 -1.2778  0.2544  1.0185
  773SOL    HW3 2865   1.138   1.271   3.712  0.6300 -0.8016  0.0097
  773SOL    MW4 2866   1.166   1.342   3.670  0.0447 -0.1353 -0.0791
  774SOL     OW 2867   4.725   5.221   4.299 -0.2114  0.0779  0.3581
  774SOL    HW2 2868   4.700   5.304   4.258 -2.0046 -0.4651  0.2962
  774SOL    HW3 2869   4.645   5.168   4.297  0.2222 -0.7397  2.6520
  774SOL    MW4 2870   4.711   5.225   4.293  0.0086  0.3616  0.5425
  775SOL     OW 2871   0.753   3.601   1.365  0.4385 -0.3743 -0.9103
  775SOL    HW2 2872   0.833   3.557   1.394 -0.0053 -0.6692 -0.0877
  775SOL    HW3 2873   0.740   3.672   1.428  0.2810 -0.0622 -1.2875
  775SOL    MW4 2874   0.761   3.604   1.377 -0.3183  0.4347 -0.2496
  776SOL     OW 2875   2.987   2.131   6.327  0.2810 -0.1750 -0.0997
  776SOL    HW2 2876   2.988   2.189   6.251 -0.5837  0.5989  0.4506
  776SOL    HW3 2877   2.971   2.190   6.401  1.8684 -0.8006  0.7903
  776SOL    MW4 2878   2.985   2.146   6.327  0.0739  0.3596  0.0758
  777SOL     OW 2879   1.541   5.046   5.036 -0.3202 -0.3226 -0.4111
  777SOL    HW2 2880   1.562   5.137   5.058 -0.5872 -0.1640 -0.7971
  777SOL    HW3 2881   1.608   5.020   4.973 -0.1220 -0.4651 -0.1462
  777SOL    MW4 2882   1.553   5.055   5.031 -0.2066  0.3643 -0.2173
  778SOL     OW 2883   0.533   2.910   3.335  0.0093  0.5233  0.3289
  778SOL    HW2 2884   0.510   2.877   3.422 -1.6125 -0.3533 -0.3843
  778SOL    HW3 2885   0.622   2.877   3.320  0.0104  0.0304  1.3308
  778SOL    MW4 2886   0.542   2.901   3.345  0.0608  0.2580 -0.3134
  779SOL     OW 2887   3.469   1.643   0.181 -0.0132  0.5374 -0.6535
  779SOL    HW2 2888   3.561   1.669   0.186 -0.2625  1.1592  1.9314
  779SOL    HW3 2889   3.421   1.725   0.173 -0.4645  0.4749  1.0797
  779SOL    MW4 2890   3.475   1.657   0.180  0.2027  0.7652  0.9694
  780SOL     OW 2891   1.569   0.296   4.701  0.1076 -0.3619  0.1812
  780SOL    HW2 2892   1.604   0.380   4.672 -0.3639 -0.0666  0.4587
  780SOL    HW3 2893   1.476   0.299   4.678  0.3236 -1.3073 -0.9370
  780SOL    MW4 2894   1.562   0.307   4.694 -0.0964  0.4399  0.4281
  781SOL     OW 2895   5.652   1.113   2.751  0.5107 -0.5476 -0.4942
  781SOL    HW2 2896   5.628   1.034   2.799  0.8821 -0.2538  0.1976
  781SOL    HW3 2897   5.645   1.183   2.816 -2.2150  0.4098 -1.6788
  781SOL    MW4 2898   5.648   1.112   2.766 -0.4419  0.0472 -0.1181
  782SOL     OW 2899   4.375   3.339   3.725 -0.7689  0.2799  0.1051
  782SOL    HW2 2900   4.350   3.366   3.637  3.1148 -1.0689 -1.6244
  782SOL    HW3 2901   4.403   3.420   3.768  0.5386  0.5361 -1.1709
  782SOL    MW4 2902   4.375   3.354   3.719  0.1741 -0.1660 -0.3745
  783SOL     OW 2903   2.516   2.335   0.674  0.4267  0.0005  0.2389
  783SOL    HW2 2904   2.535   2.422   0.707 -3.4637  0.4082  1.9442
  783SOL    HW3 2905   2.510   2.347   0.579  1.0721  1.3046  0.3394
  783SOL    MW4 2906   2.518   2.348   0.665  0.2364 -0.0931  0.0328
  784SOL     OW 2907   0.083   3.788   3.793  0.0225  0.1960  0.0303
  784SOL    HW2 2908   0.025   3.720   3.759 -0.9875  0.2143  1.6150
  784SOL    HW3 2909   0.046   3.870   3.761  0.9081  0.0998 -1.3891
  784SOL    MW4 2910   0.071   3.790   3.784 -1.0941 -0.4520 -0.0860
  785SOL     OW 2911   0.504   2.032   1.673 -0.4149 -0.3895  0.0180
  785SOL    HW2 2912   0.581   2.069   1.716  0.9058 -1.8709 -0.9636
  785SOL    HW3 2913   0.460   2.108   1.634  0.5612  0.4871  0.5523
  785SOL    MW4 2914   0.508   2.047   1.674 -0.2562  0.4696  0.2769
  786SOL     OW 2915   5.673   4.993   4.261  0.4360  0.6321  0.0984
  786SOL    HW2 2916   5.591   4.970   4.306 -0.8303  1.7578 -1.5041
  786SOL    HW3 2917   5.739   4.937   4.302 -1.5927 -2.3012 -0.3294
  786SOL    MW4 2918   5.671   4.982   4.272 -0.2045  0.2324  0.0887
  787SOL     OW 2919   5.143   5.180   2.651 -0.3850 -0.3528 -0.3438
  787SOL    HW2 2920   5.053   5.195   2.622 -0.0934  1.6957 -0.3294
  787SOL    HW3 2921   5.165   5.257   2.703  1.3351 -0.8653 -0.2512
  787SOL    MW4 2922   5.134   5.192   2.654  0.1456  0.1941 -0.3670
  788SOL     OW 2923   1.638   1.970   0.191  0.6198  0.1709  0.4309
  788SOL    HW2 2924   1.728   1.943   0.168  0.4705  1.4891 -2.1032
  788SOL    HW3 2925   1.583   1.921   0.130 -0.2868  0.2863  1.1491
  788SOL    MW4 2926   1.643   1.960   0.180  0.4213 -0.3893 -0.0584
  789SOL     OW 2927   6.328   2.874   0.677 -0.4843 -0.3012  0.6021
  789SOL    HW2 2928   6.411   2.918   0.696 -0.6863  1.0129 -1.2456
  789SOL    HW3 2929   6.263   2.925   0.726 -0.4604  0.0729  0.2447
  789SOL    MW4 2930   6.330   2.887   0.686  0.1928 -0.2034  0.6186
  790SOL     OW 2931   4.990   5.717   3.516  0.2612  0.0569  0.4934
  790SOL    HW2 2932   4.997   5.746   3.607 -1.1547 -0.4081  0.7648
  790SOL    HW3 2933   5.080   5.698   3.491  0.7070  0.4326  1.7108
  790SOL    MW4 2934   5.003   5.718   3.525 -0.2651  0.3789  0.4606
  791SOL     OW 2935   1.165   2.745   0.058 -0.3449 -0.4274  0.1714
  791SOL    HW2 2936   1.116   2.781  -0.016 -1.7202 -0.3657  1.0814
  791SOL    HW3 2937   1.254   2.778   0.045 -0.2712 -1.2933 -2.0143
  791SOL    MW4 2938   1.170   2.754   0.046 -0.0943  0.1095  0.1933
  792SOL     OW 2939   5.504   1.018   5.433 -0.3675 -0.3564 -0.4187
  792SOL    HW2 2940   5.531   0.940   5.481 -0.0710 -1.8093 -2.7789
  792SOL    HW3 2941   5.576   1.034   5.371 -1.0467  1.0049 -0.8995
  792SOL    MW4 2942   5.517   1.010   5.431  0.5153  0.0919 -0.2683
  793SOL     OW 2943   5.171   1.296   0.388  0.1725  0.3901  0.1836
  793SOL    HW2 2944   5.084   1.321   0.356 -0.2951  1.3275  2.0610
  793SOL    HW3 2945   5.204   1.374   0.431  2.6817  0.5521 -1.8157
  793SOL    MW4 2946   5.164   1.309   0.389 -1.1149 -0.3061 -0.0214
  794SOL     OW 2947   2.412   1.694   1.397  0.2952  0.0489 -0.0020
  794SOL    HW2 2948   2.454   1.649   1.471 -1.3312 -0.0422  0.9160
  794SOL    HW3 2949   2.335   1.640   1.377 -0.0097  0.7976 -0.8872
  794SOL    MW4 2950   2.407   1.681   1.404 -0.3941 -0.6000  0.0101
  795SOL     OW 2951   4.440   0.545   5.711  0.2819  0.3055 -0.2546
  795SOL    HW2 2952   4.403   0.462   5.681  2.0654 -0.2841 -0.8933
  795SOL    HW3 2953   4.491   0.523   5.788 -0.1511  1.0217  0.2579
  795SOL    MW4 2954   4.442   0.531   5.717  0.3416 -0.4070  0.1451
  796SOL     OW 2955   5.999   5.644   6.352  0.1084  0.4615 -0.1906
  796SOL    HW2 2956   5.970   5.641   6.261 -0.3137  1.8261 -0.1237
  796SOL    HW3 2957   6.064   5.574   6.359  0.3583  0.5181 -1.6101
  796SOL    MW4 2958   6.004   5.634   6.341 -0.1275 -0.0156  1.0995
  797SOL     OW 2959   0.714   0.270   1.672  0.6452  0.3512  0.5026
  797SOL    HW2 2960   0.685   0.310   1.754  1.0073  0.8345  0.4029
  797SOL    HW3 2961   0.810   0.272   1.678  0.6700  0.1418  0.1833
  797SOL    MW4 2962   0.723   0.276   1.684 -0.0970  0.3569  0.0210
  798SOL     OW 2963   6.181   2.808   2.190 -0.4838  0.3490 -0.4499
  798SOL    HW2 2964   6.231   2.803   2.109 -0.5242 -1.5723 -0.4132
  798SOL    HW3 2965   6.123   2.731   2.187 -0.3907  0.1605  1.4494
  798SOL    MW4 2966   6.180   2.797   2.179  0.2000 -0.1078 -0.4938
  799SOL     OW 2967   3.738   4.041   1.208  0.4579  0.0599  0.0451
  799SOL    HW2 2968   3.670   4.064   1.146  0.0782  0.5981  0.6419
  799SOL    HW3 2969   3.738   3.945   1.211 -0.1149  0.0541 -0.1286
  799SOL    MW4 2970   3.729   4.031   1.200 -0.3139  0.7602 -0.1216
  800SOL     OW 2971   0.741   4.808   1.100 -0.5440 -0.1464  0.3093
  800SOL    HW2 2972   0.783   4.857   1.030  0.4549  0.5962  1.3800
  800SOL    HW3 2973   0.667   4.765   1.058 -0.0165  0.3191 -1.1748
  800SOL    MW4 2974   0.737   4.809   1.085  0.0873  0.2157 -0.0106
  801SOL     OW 2975   5.461   2.149   4.928  0.2734 -0.3285 -0.4452
  801SOL    HW2 2976   5.531   2.122   4.869  0.9637 -1.1987  0.7316
  801SOL    HW3 2977   5.495   2.130   5.016 -0.1081  2.2537  0.3576
  801SOL    MW4 2978   5.475   2.143   4.932  0.6436 -0.4575 -0.3177
  802SOL     OW 2979   0.915   0.731   1.088 -0.0324 -0.1337 -0.4883
  802SOL    HW2 2980   0.858   0.762   1.159 -0.5591 -0.8547 -0.5816
  802SOL    HW3 2981   0.896   0.789   1.015  0.0170  0.1946 -0.2416
  802SOL    MW4 2982   0.905   0.742   1.088 -0.1172 -0.0947  0.2187
  803SOL     OW 2983   4.389   2.854   5.767 -0.1265 -0.0929  0.0600
  803SOL    HW2 2984   4.313   2.848   5.824 -0.8021 -1.1303 -0.9040
  803SOL    HW3 2985   4.357   2.828   5.681  1.4503 -1.2385 -0.2348
  803SOL    MW4 2986   4.375   2.850   5.763  0.5529  0.5927  0.5131
  804SOL     OW 2987   6.402   5.880   4.016  0.2735 -0.3477  0.0522
  804SOL    HW2 2988   6.441   5.880   4.103  0.0479  0.6425  0.1703
  804SOL    HW3 2989   6.315   5.919   4.028 -0.8402 -2.6219 -0.1903
  804SOL    MW4 2990   6.396   5.885   4.029  0.0580  0.4559  0.3144
  805SOL     OW 2991   5.281   4.179   4.376 -0.4846 -0.2093 -0.9072
  805SOL    HW2 2992   5.320   4.265   4.390 -0.2296 -0.5863  1.0407
  805SOL    HW3 2993   5.187   4.196   4.370 -0.3539  0.3006 -1.6004
  805SOL    MW4 2994   5.274   4.192   4.377  0.1637 -0.0601 -0.1851
  806SOL     OW 2995   6.399   3.186   3.627  0.0905 -0.4991 -0.2556
  806SOL    HW2 2996   6.340   3.244   3.673  0.5757  0.4049 -0.7477
  806SOL    HW3 2997   6.395   3.104   3.676 -0.0803  0.1522  0.8520
  806SOL    MW4 2998   6.391   3.183   3.639  0.5565 -0.2480  0.4818
  807SOL     OW 2999   1.220   3.913   5.838 -0.8937  0.0025  0.2634
  807SOL    HW2 3000   1.213   3.927   5.932 -0.6269  1.6278  0.0600
  807SOL    HW3 3001   1.195   3.997   5.799  1.4040  0.1644 -1.0344
  807SOL    MW4 3002   1.215   3.926   5.845 -0.6901 -0.1664  0.0440
  808SOL     OW 3003   3.195   1.754   4.350  0.2587 -0.0533 -0.1127
  808SOL    HW2 3004   3.121   1.694   4.357  0.3132 -0.1752 -0.5218
  808SOL    HW3 3005   3.231   1.736   4.263 -0.9078  1.9308 -1.0666
  808SOL    MW4 3006   3.190   1.744   4.339 -0.0036 -0.3327  0.0120
  809SOL     OW 3007   5.606   5.110   2.849  0.2865  0.6366  0.0204
  809SOL    HW2 3008   5.539   5.108   2.781  0.8910  0.8353 -0.5900
  809SOL    HW3 3009   5.680   5.062   2.812  0.1132 -0.5134  1.1011
  809SOL    MW4 3010   5.607   5.104   2.835 -0.1560 -0.4682 -0.4697
  810SOL     OW 3011   3.875   0.467   1.945  0.6298 -0.3024  0.6019
  810SOL    HW2 3012   3.961   0.432   1.919  0.4395 -1.2199  1.1635
  810SOL    HW3 3013   3.896   0.535   2.009  0.9626 -0.0020  0.1859
  810SOL    MW4 3014   3.889   0.472   1.950  0.0548 -0.2859 -0.4536
  811SOL     OW 3015   3.522   4.773   5.740  0.4140  0.0023 -0.4059
  811SOL    HW2 3016   3.534   4.679   5.726  0.1607 -0.2111  0.6949
  811SOL    HW3 3017   3.514   4.810   5.652  1.4817 -0.8711 -0.8863
  811SOL    MW4 3018   3.522   4.766   5.727 -0.3629  0.3097  0.0114
  812SOL     OW 3019   2.623   5.508   5.680 -0.3663 -0.2821 -0.3679
  812SOL    HW2 3020   2.582   5.562   5.747  0.9921  0.0656  0.2056
  812SOL    HW3 3021   2.709   5.548   5.665 -0.1628 -1.0637 -1.4490
  812SOL    MW4 3022   2.629   5.520   5.687 -0.0049 -0.3782  0.2705
  813SOL     OW 3023   3.463   6.131   3.647  0.3857 -0.1836 -0.0832
  813SOL    HW2 3024   3.461   6.152   3.553  1.9346  0.9200  0.0823
  813SOL    HW3 3025   3.485   6.214   3.689  0.0606 -0.7491  1.2406
  813SOL    MW4 3026   3.466   6.144   3.640 -0.4860  0.0560  0.3885
  814SOL     OW 3027   0.878   2.007   4.391  0.2362  0.4779 -0.3120
  814SOL    HW2 3028   0.948   2.067   4.417  0.2888  0.8026 -1.1612
  814SOL    HW3 3029   0.898   1.985   4.300 -0.3136 -0.0778 -0.3034
  814SOL    MW4 3030   0.890   2.012   4.382 -0.4122 -0.4431 -0.5904
  815SOL     OW 3031   5.548   3.083   5.303  0.3379  0.6323 -0.5539
  815SOL    HW2 3032   5.617   3.080   5.369 -0.8375 -2.6089  0.7274
  815SOL    HW3 3033   5.483   3.144   5.339 -0.2372 -0.9934  1.4058
  815SOL    MW4 3034   5.548   3.091   5.317 -0.4499  0.0026  0.3210
  816SOL     OW 3035   5.986   0.472   1.925  0.0142 -0.0351  0.0367
  816SOL    HW2 3036   6.043   0.549   1.922 -0.3027  0.2555  0.9743
  816SOL    HW3 3037   5.917   0.491   1.862  1.3949 -0.7842 -1.7693
  816SOL    MW4 3038   5.984   0.485   1.917 -0.3940 -0.2418 -0.1822
  817SOL     OW 3039   5.009   5.599   4.865 -0.5481 -0.0216  0.1493
  817SOL    HW2 3040   4.979   5.653   4.792 -0.4841  0.1639  0.2592
  817SOL    HW3 3041   4.979   5.645   4.943  1.3025  0.9748  0.3203
  817SOL    MW4 3042   5.001   5.612   4.866  0.0878 -0.3034 -0.3937
  818SOL     OW 3043   2.991   3.391   1.674 -0.2828 -1.1314  0.1576
  818SOL    HW2 3044   2.920   3.342   1.633 -1.3664  0.7271 -0.3061
  818SOL    HW3 3045   2.951   3.474   1.701  1.6040 -0.1889  0.2798
  818SOL    MW4 3046   2.976   3.396   1.672  0.0466 -0.0625 -0.0869
  819SOL     OW 3047   0.034   2.604   2.386  0.0282  0.2623  0.0511
  819SOL    HW2 3048   0.088   2.554   2.325  0.3366  1.6410 -0.8512
  819SOL    HW3 3049   0.051   2.696   2.363 -3.4437  0.7953 -0.9942
  819SOL    MW4 3050   0.043   2.610   2.375  0.1071  0.1398 -0.6223
  820SOL     OW 3051   1.595   4.561   3.155  0.4731  0.0053  0.0314
  820SOL    HW2 3052   1.556   4.638   3.198  2.5435  0.7431  0.6947
  820SOL    HW3 3053   1.594   4.493   3.222 -1.4724 -0.6733 -0.5926
  820SOL    MW4 3054   1.589   4.563   3.170 -0.1007 -0.0313  0.1962
  821SOL     OW 3055   3.873   5.624   4.214  0.2873 -0.2476  0.0662
  821SOL    HW2 3056   3.865   5.580   4.298  0.5772 -2.5842 -1.0486
  821SOL    HW3 3057   3.794   5.678   4.207 -0.4200 -1.1002  1.2271
  821SOL    MW4 3058   3.861   5.626   4.224  0.2754  0.6592 -0.1225
  822SOL     OW 3059   5.867   5.026   2.153 -0.3902 -0.2993 -0.0377
  822SOL    HW2 3060   5.900   5.116   2.149  0.9475 -0.7917 -0.8029
  822SOL    HW3 3061   5.813   5.017   2.074 -1.5861  0.1861  0.6859
  822SOL    MW4 3062   5.864   5.036   2.142 -0.4755 -0.5504  0.2819
  823SOL     OW 3063   6.216   3.863   5.963  0.0643 -0.3860 -0.1092
  823SOL    HW2 3064   6.295   3.819   5.995  0.7735 -1.8070 -3.3674
  823SOL    HW3 3065   6.247   3.921   5.893 -1.5391  0.9807  0.2597
  823SOL    MW4 3066   6.230   3.865   5.958  0.2064  0.2971 -0.8600
  824SOL     OW 3067   3.065   3.500   1.090  0.1040 -0.0333  0.3867
  824SOL    HW2 3068   3.106   3.420   1.057 -1.1043 -0.6218  0.2717
  824SOL    HW3 3069   2.972   3.479   1.095 -0.2740  1.4520  0.0966
  824SOL    MW4 3070   3.058   3.486   1.086  0.0691 -0.0058 -0.4563
  825SOL     OW 3071   6.157   0.066   2.120 -0.3050 -0.5218 -0.5984
  825SOL    HW2 3072   6.108   0.108   2.190  0.2111  0.4115 -0.7818
  825SOL    HW3 3073   6.104  -0.010   2.095 -1.6387  0.4384 -0.7672
  825SOL    MW4 3074   6.144   0.061   2.126 -0.0716 -0.4604 -0.1080
  826SOL     OW 3075   3.960   3.665   4.884 -0.6577 -0.4714  0.0710
  826SOL    HW2 3076   3.922   3.622   4.807  1.9325 -0.2100 -1.4569
  826SOL    HW3 3077   3.996   3.593   4.936 -0.2990 -0.4927 -0.2008
  826SOL    MW4 3078   3.959   3.650   4.881 -0.1182  0.1367  0.2419
  827SOL     OW 3079   4.559   4.056   2.298 -0.5048 -0.2793  0.7013
  827SOL    HW2 3080   4.474   4.012   2.297 -0.3202 -0.6340  0.1958
  827SOL    HW3 3081   4.618   3.996   2.252 -0.2024  0.4014  0.1717
  827SOL    MW4 3082   4.556   4.042   2.292  0.6942  0.0230  0.5092
  828SOL     OW 3083   5.599   2.355   4.615 -0.5221  0.3321 -0.6750
  828SOL    HW2 3084   5.654   2.393   4.547 -1.3733  0.6359 -1.2017
  828SOL    HW3 3085   5.555   2.430   4.655 -0.2636  0.1302  0.0188
  828SOL    MW4 3086   5.600   2.370   4.612 -0.4410 -0.3061 -0.4519
  829SOL     OW 3087   4.799   2.392   2.827 -0.3873 -0.0597 -0.2319
  829SOL    HW2 3088   4.837   2.381   2.739 -0.6594 -0.0753 -0.3499
  829SOL    HW3 3089   4.705   2.398   2.811 -0.3840  0.6198  0.0023
  829SOL    MW4 3090   4.792   2.391   2.813 -0.4621  0.2573 -0.5344
  830SOL     OW 3091   2.268   0.687   5.007 -0.0775 -0.0780  0.8964
  830SOL    HW2 3092   2.243   0.687   5.099 -0.3309 -2.5758  0.8886
  830SOL    HW3 3093   2.258   0.596   4.979 -0.4464  0.6791 -1.7224
  830SOL    MW4 3094   2.263   0.675   5.015 -0.0098  0.1689  0.4875
  831SOL     OW 3095   2.659   5.399   3.108  0.0953  0.4785 -0.1531
  831SOL    HW2 3096   2.608   5.366   3.181 -1.7418  4.1324  0.4689
  831SOL    HW3 3097   2.717   5.464   3.147  0.8146  0.7817 -1.6491
  831SOL    MW4 3098   2.660   5.403   3.123 -0.4584  0.3126  0.2403
  832SOL     OW 3099   1.400   5.656   2.891 -0.0644 -0.4700  0.5347
  832SOL    HW2 3100   1.320   5.604   2.900 -0.4501 -0.0726 -0.4634
  832SOL    HW3 3101   1.380   5.718   2.821  1.1084 -0.3238  0.3216
  832SOL    MW4 3102   1.387   5.658   2.883 -0.6178 -0.0210 -0.1649
  833SOL     OW 3103   2.334   1.641   5.755  0.1936  0.2358  0.0597
  833SOL    HW2 3104   2.324   1.574   5.822 -0.3924  0.8933  0.6504
  833SOL    HW3 3105   2.269   1.620   5.689  0.1168  0.1337  0.1683
  833SOL    MW4 3106   2.324   1.629   5.755 -0.1105  0.1823  0.1884
  834SOL     OW 3107   3.608   4.686   5.463  0.2098 -0.3297  0.3594
  834SOL    HW2 3108   3.574   4.744   5.395 -0.6002  0.6447  1.5603
  834SOL    HW3 3109   3.703   4.703   5.463  0.9205 -3.0586 -2.9902
  834SOL    MW4 3110   3.616   4.696   5.454 -0.6918 -0.3071 -0.2998
  835SOL     OW 3111   0.895   2.650   6.037 -0.3569  0.2881  0.3666
  835SOL    HW2 3112   0.942   2.721   5.993  0.2640 -0.1261  0.3451
  835SOL    HW3 3113   0.881   2.585   5.968 -2.5512  1.1436 -0.0746
  835SOL    MW4 3114   0.900   2.651   6.022  0.3998  0.6426  0.2024
  836SOL     OW 3115   3.806   0.843   3.333  0.2418 -0.3708 -0.0492
  836SOL    HW2 3116   3.747   0.767   3.337  0.3086 -0.4664 -0.7241
  836SOL    HW3 3117   3.777   0.892   3.257  0.6073 -0.0591  0.0094
  836SOL    MW4 3118   3.795   0.839   3.324  0.7722 -0.1715 -0.2855
  837SOL     OW 3119   2.518   6.004   3.535 -0.1589 -0.3035  0.2638
  837SOL    HW2 3120   2.569   6.080   3.565  2.1744 -1.0702 -1.4087
  837SOL    HW3 3121   2.432   6.040   3.513  0.7284  1.7901 -0.0438
  837SOL    MW4 3122   2.514   6.019   3.536 -0.2229  0.5164  0.2409
  838SOL     OW 3123   6.313   3.121   4.773 -0.4944  0.2274  0.0349
  838SOL    HW2 3124   6.319   3.039   4.822 -2.4891  0.4854  0.8152
  838SOL    HW3 3125   6.322   3.095   4.681  0.1883 -0.6677  0.3338
  838SOL    MW4 3126   6.315   3.107   4.768  0.1968 -0.2380  0.2877
  839SOL     OW 3127   1.566   0.458   1.968 -0.4619  0.0122 -0.3339
  839SOL    HW2 3128   1.542   0.415   1.886 -0.1126  1.2073 -1.0828
  839SOL    HW3 3129   1.561   0.551   1.949 -0.2773  0.3049  0.9812
  839SOL    MW4 3130   1.562   0.464   1.955  0.4114 -0.0123  0.2613
  840SOL     OW 3131   1.777   4.110   5.443  0.2189 -0.2945  0.1171
  840SOL    HW2 3132   1.775   4.119   5.538 -2.5777 -1.1810  0.2405
  840SOL    HW3 3133   1.696   4.151   5.413  0.1135 -1.6851 -1.6718
  840SOL    MW4 3134   1.766   4.116   5.452 -0.3408  0.3840  0.3994
  841SOL     OW 3135   0.951   0.152   0.248 -0.5555 -0.2814  0.3257
  841SOL    HW2 3136   0.920   0.125   0.334 -2.5285 -1.3377 -0.6576
  841SOL    HW3 3137   1.037   0.110   0.239 -0.5472 -0.5768  1.5458
  841SOL    MW4 3138   0.958   0.143   0.258 -0.1941  0.6222 -0.0773
  842SOL     OW 3139   0.337   2.360   5.949 -0.5789 -0.4133 -0.2991
  842SOL    HW2 3140   0.306   2.443   5.914 -0.8545 -0.6895 -0.7265
  842SOL    HW3 3141   0.272   2.296   5.920 -0.8080 -0.6569  0.7120
  842SOL    MW4 3142   0.324   2.362   5.941 -0.8923 -0.0986  0.1082
  843SOL     OW 3143   4.855   2.999   5.323 -0.1298 -0.6992 -0.4051
  843SOL    HW2 3144   4.856   3.084   5.279  0.1960 -0.5864 -0.1887
  843SOL    HW3 3145   4.944   2.989   5.357 -1.1156  0.7692  3.1243
  843SOL    MW4 3146   4.867   3.009   5.322 -0.6734  0.2079  0.5838
  844SOL     OW 3147   5.524   2.049   1.323  0.4521 -0.0820  0.1597
  844SOL    HW2 3148   5.539   2.137   1.358 -2.7773  1.1445 -1.2299
  844SOL    HW3 3149   5.522   1.992   1.400  0.3941  1.4155  1.2954
  844SOL    MW4 3150   5.526   2.053   1.338 -0.0420 -0.3629  0.2789
  845SOL     OW 3151   2.605   4.050   4.850  0.3579  0.1578 -0.4329
  845SOL    HW2 3152   2.629   4.137   4.882  0.4578 -0.3103  0.8308
  845SOL    HW3 3153   2.600   4.059   4.755  0.4564  1.5188 -0.3205
  845SOL    MW4 3154   2.607   4.063   4.842  0.1108 -0.0095  1.0422
  846SOL     OW 3155   2.966   2.284   5.762 -0.0957  0.1142 -0.0737
  846SOL    HW2 3156   3.008   2.236   5.690 -0.9536 -2.1958  0.8584
  846SOL    HW3 3157   2.930   2.215   5.818 -3.6540  1.8668  0.0708
  846SOL    MW4 3158   2.967   2.268   5.760  0.2791  0.1565 -0.2147
  847SOL     OW 3159   1.823   1.271   5.936  0.7359 -0.4826 -0.1316
  847SOL    HW2 3160   1.786   1.241   6.019 -0.4221  0.6800 -0.1919
  847SOL    HW3 3161   1.817   1.196   5.878  2.1697 -1.5217  0.9848
  847SOL    MW4 3162   1.818   1.257   5.940 -0.0183  0.3918  0.0203
  848SOL     OW 3163   0.032   3.225   0.451 -0.5666 -0.5022  0.0933
  848SOL    HW2 3164   0.107   3.165   0.453 -0.9332 -1.0246 -0.8849
  848SOL    HW3 3165  -0.043   3.168   0.432 -0.8044  0.3271 -1.6856
  848SOL    MW4 3166   0.032   3.209   0.448 -0.1187  0.6205 -0.4837
  849SOL     OW 3167   5.928   4.481   3.997  0.4743  1.1276 -0.1895
  849SOL    HW2 3168   5.902   4.485   3.905  1.0636  1.0382 -0.3630
  849SOL    HW3 3169   5.845   4.483   4.046  0.0727 -0.4097 -0.7607
  849SOL    MW4 3170   5.914   4.482   3.992 -0.1458  0.1906 -0.4678
  850SOL     OW 3171   1.408   4.711   4.921 -0.7180 -0.7817  0.1880
  850SOL    HW2 3172   1.377   4.778   4.860 -0.0097 -1.5951 -1.1048
  850SOL    HW3 3173   1.361   4.632   4.895 -0.8341 -1.0218  1.0850
  850SOL    MW4 3174   1.398   4.710   4.909 -0.5165 -0.1116  0.1632
  851SOL     OW 3175   1.180   5.963   4.464  0.4473 -0.0269 -0.4087
  851SOL    HW2 3176   1.198   5.945   4.371 -0.1776  0.0732 -0.5583
  851SOL    HW3 3177   1.257   6.010   4.495  0.2011  0.9323 -1.1738
  851SOL    MW4 3178   1.192   5.967   4.456  0.0627  0.2620 -0.6451
  852SOL     OW 3179   5.353   5.139   0.118 -0.3686 -0.3391  0.6099
  852SOL    HW2 3180   5.447   5.149   0.128 -0.2467 -1.5670  0.8415
  852SOL    HW3 3181   5.340   5.128   0.024 -0.2712 -0.1908  0.5799
  852SOL    MW4 3182   5.364   5.138   0.107 -1.4575 -0.1174  0.1035
  853SOL     OW 3183   0.079   2.848   2.272 -0.2443 -0.1599 -0.6147
  853SOL    HW2 3184   0.058   2.847   2.178  0.9218  0.6587 -0.9011
  853SOL    HW3 3185   0.129   2.928   2.285  1.7092 -1.4480  0.2299
  853SOL    MW4 3186   0.083   2.858   2.261  0.0950 -0.4564  0.3692
  854SOL     OW 3187   0.211   2.249   4.552  0.7277  0.4546 -0.0365
  854SOL    HW2 3188   0.149   2.322   4.547  1.2751  0.8850 -0.7467
  854SOL    HW3 3189   0.186   2.201   4.631 -1.0651  0.1048 -0.7671
  854SOL    MW4 3190   0.200   2.252   4.561 -0.0887  0.1656  0.4724
  855SOL     OW 3191   5.654   4.089   6.311 -0.7054  0.3441  0.2825
  855SOL    HW2 3192   5.720   4.107   6.245 -0.6252  1.2045  0.5913
  855SOL    HW3 3193   5.700   4.041   6.379 -0.3485  1.1245  0.5942
  855SOL    MW4 3194   5.669   4.085   6.311 -0.4603 -0.7064  0.1142
  856SOL     OW 3195   6.372   0.471   5.499  0.0323 -0.1442 -0.6166
  856SOL    HW2 3196   6.407   0.516   5.576 -0.2481 -0.4868 -0.2795
  856SOL    HW3 3197   6.284   0.444   5.526  0.5809 -1.8328 -0.4211
  856SOL    MW4 3198   6.365   0.473   5.513  0.4016  0.6133 -0.1212
  857SOL     OW 3199   3.223   5.661   3.764 -0.0067  0.1966 -0.1184
  857SOL    HW2 3200   3.143   5.709   3.780 -0.6772  0.2027 -2.9505
  857SOL    HW3 3201   3.292   5.717   3.799 -0.9672  2.0420 -1.0243
  857SOL    MW4 3202   3.222   5.675   3.771  0.4468  0.4608 -0.1655
  858SOL     OW 3203   3.809   1.954   5.364  0.2845  0.0699  0.2026
  858SOL    HW2 3204   3.885   1.961   5.422  1.3675 -0.5222 -1.1042
  858SOL    HW3 3205   3.835   2.000   5.284 -0.3781 -0.9181 -0.6040
  858SOL    MW4 3206   3.823   1.961   5.361  0.1802 -0.9259 -0.3082
  859SOL     OW 3207   2.160   5.824   5.099 -0.3361  0.6055  0.2238
  859SOL    HW2 3208   2.091   5.792   5.040  1.4219 -2.0600 -0.5663
  859SOL    HW3 3209   2.196   5.901   5.055  0.5924 -1.0208 -2.0174
  859SOL    MW4 3210   2.156   5.830   5.085 -0.0475  0.0587  0.2652
  860SOL     OW 3211   0.990   3.311   2.220 -0.2225  0.2928  0.1302
  860SOL    HW2 3212   0.946   3.273   2.144 -0.4006 -1.8133  1.2261
  860SOL    HW3 3213   1.013   3.400   2.192 -0.9261 -0.1669 -2.1132
  860SOL    MW4 3214   0.987   3.318   2.206  0.0844  0.3304  0.3174
  861SOL     OW 3215   4.546   3.189   2.790 -0.2042 -0.4852  0.3305
  861SOL    HW2 3216   4.630   3.231   2.770  0.1300 -0.4965  1.6475
  861SOL    HW3 3217   4.530   3.131   2.715  0.8008 -0.2502 -0.0809
  861SOL    MW4 3218   4.555   3.187   2.777 -0.4814  0.1160 -0.8637
  862SOL     OW 3219   2.205   6.057   2.420 -0.5831  0.4288  0.3636
  862SOL    HW2 3220   2.145   6.040   2.347  0.8255  1.7779 -1.1822
  862SOL    HW3 3221   2.208   5.974   2.468 -0.0014 -1.2123 -2.3131
  862SOL    MW4 3222   2.198   6.044   2.417 -0.1205  0.3142 -0.2327
  863SOL     OW 3223   5.611   1.716   3.761 -0.1719  0.0697  0.5976
  863SOL    HW2 3224   5.612   1.729   3.856  0.4867 -0.2832  0.6438
  863SOL    HW3 3225   5.658   1.634   3.747 -0.2718  0.1127 -0.0359
  863SOL    MW4 3226   5.617   1.707   3.772  0.2044 -0.0168 -0.2377
  864SOL     OW 3227   1.370   2.932   5.258  0.5803 -0.0747  0.2898
  864SOL    HW2 3228   1.371   2.908   5.165  0.8734  0.9282  0.0298
  864SOL    HW3 3229   1.290   2.891   5.292  0.1930 -0.0151 -0.5193
  864SOL    MW4 3230   1.359   2.923   5.250 -0.0462 -0.1232  0.5198
  865SOL     OW 3231   0.681   0.205   2.631  0.1501  0.2490 -0.3148
  865SOL    HW2 3232   0.754   0.254   2.668  0.1981  0.2582 -0.4205
  865SOL    HW3 3233   0.665   0.246   2.546 -0.9959  1.2497  0.3645
  865SOL    MW4 3234   0.689   0.217   2.625  0.3293 -0.0270 -0.1211
  866SOL     OW 3235   2.555   0.226   5.450 -0.3195 -0.0936 -0.1774
  866SOL    HW2 3236   2.569   0.300   5.509 -0.5866 -0.5666  0.4923
  866SOL    HW3 3237   2.640   0.213   5.408 -0.2656  0.5824 -0.2899
  866SOL    MW4 3238   2.568   0.234   5.452 -0.1590 -0.1657  0.0935
  867SOL     OW 3239   0.151   0.071   2.194 -0.3451 -0.6172 -0.0555
  867SOL    HW2 3240   0.173   0.148   2.142 -2.3525 -0.6536 -1.0446
  867SOL    HW3 3241   0.099   0.016   2.136 -0.5824 -1.8353  1.2408
  867SOL    MW4 3242   0.147   0.074   2.179 -0.2824 -0.4789 -0.1974
  868SOL     OW 3243   2.576   3.379   0.165  0.3852 -0.4545  0.1875
  868SOL    HW2 3244   2.533   3.463   0.176  0.4162 -0.3915 -0.1698
  868SOL    HW3 3245   2.623   3.365   0.248 -0.7062 -0.7545  0.7802
  868SOL    MW4 3246   2.576   3.388   0.178  0.2804 -0.7925 -0.0779
  869SOL     OW 3247   0.865   6.100   2.667 -0.3801  0.3551 -0.2571
  869SOL    HW2 3248   0.803   6.042   2.710  0.6269  0.5868  1.6060
  869SOL    HW3 3249   0.813   6.175   2.638 -1.5488 -1.0307 -1.9758
  869SOL    MW4 3250   0.850   6.103   2.669  0.2846 -0.0804 -0.2990
  870SOL     OW 3251   3.419   2.508   5.137 -0.8464  0.8337  0.0736
  870SOL    HW2 3252   3.365   2.431   5.117 -1.3402  0.9669  0.8301
  870SOL    HW3 3253   3.383   2.541   5.219 -0.1361  1.4228  0.1553
  870SOL    MW4 3254   3.407   2.502   5.145 -0.5066 -0.0711 -0.6552
  871SOL     OW 3255   1.847   4.517   1.340 -0.1332 -0.2125  0.0979
  871SOL    HW2 3256   1.895   4.457   1.283  0.2757  0.0957  0.1113
  871SOL    HW3 3257   1.806   4.580   1.281  0.5476  0.2959  0.1426
  871SOL    MW4 3258   1.848   4.518   1.325  0.1345 -0.0483  0.6665
  872SOL     OW 3259   4.508   1.289   1.173 -0.1799  0.4954  0.7472
  872SOL    HW2 3260   4.603   1.301   1.168 -0.1914  0.4870  0.5007
  872SOL    HW3 3261   4.497   1.203   1.214 -0.0732  0.1753  0.1150
  872SOL    MW4 3262   4.519   1.279   1.178 -0.3694  0.0709 -0.3301
  873SOL     OW 3263   2.865   2.579   1.614 -0.0572 -0.7642  0.2483
  873SOL    HW2 3264   2.924   2.599   1.541 -0.6946  1.0997  0.1874
  873SOL    HW3 3265   2.913   2.607   1.692 -0.3525 -0.4364  0.3133
  873SOL    MW4 3266   2.879   2.585   1.615  0.8249  0.0236 -0.3206
  874SOL     OW 3267   3.063   3.405   0.290  0.2745 -0.2934 -0.5022
  874SOL    HW2 3268   3.082   3.451   0.371 -0.2047  0.1814 -0.6537
  874SOL    HW3 3269   3.139   3.421   0.234 -0.4063  1.3464 -1.0003
  874SOL    MW4 3270   3.076   3.413   0.293  0.0747 -0.6428  0.3274
  875SOL     OW 3271   4.625   3.864   3.610  0.3017  0.2568 -0.1718
  875SOL    HW2 3272   4.638   3.956   3.586  0.0778  0.7913  1.6079
  875SOL    HW3 3273   4.547   3.865   3.667  0.5015 -0.9796  0.1447
  875SOL    MW4 3274   4.616   3.876   3.614  0.4369 -0.1558 -0.3832
  876SOL     OW 3275   3.021   1.369   5.227 -0.1544  0.2964 -0.5536
  876SOL    HW2 3276   3.091   1.306   5.205  0.3940  0.2023  1.2687
  876SOL    HW3 3277   2.941   1.316   5.229  0.2053 -0.2557  0.3114
  876SOL    MW4 3278   3.020   1.353   5.225  1.2469 -0.0529 -0.3198
  877SOL     OW 3279   1.346   0.811   2.692 -0.0019 -0.0188  0.2100
  877SOL    HW2 3280   1.380   0.721   2.697  0.1810 -0.0825 -1.4201
  877SOL    HW3 3281   1.267   0.803   2.638  0.0408  0.8018  0.0154
  877SOL    MW4 3282   1.340   0.798   2.685  0.2362 -0.0427 -0.8271
  878SOL     OW 3283   3.115   1.351   4.444  0.0075  0.3560  0.2468
  878SOL    HW2 3284   3.048   1.405   4.486 -0.2695  0.0104  0.2565
  878SOL    HW3 3285   3.197   1.378   4.485 -0.2937 -0.2157  1.2868
  878SOL    MW4 3286   3.117   1.361   4.455  0.2556 -0.2085 -0.6354
  879SOL     OW 3287   1.735   3.103   5.850  1.0470  0.0769 -0.1384
  879SOL    HW2 3288   1.762   3.156   5.775  0.0201 -0.0308 -0.5957
  879SOL    HW3 3289   1.679   3.161   5.902 -0.3941 -0.6265 -0.8351
  879SOL    MW4 3290   1.731   3.118   5.847  0.0564  0.4098 -0.2511
  880SOL     OW 3291   4.808   0.556   2.653 -0.0223 -0.0919 -0.1067
  880SOL    HW2 3292   4.780   0.478   2.605 -0.4239 -0.4663  0.7249
  880SOL    HW3 3293   4.898   0.571   2.625 -0.3543 -0.1021 -1.2329
  880SOL    MW4 3294   4.816   0.548   2.643 -0.6645  0.3565 -0.1131
  881SOL     OW 3295   5.642   0.543   2.339  0.0111  0.0547  0.3672
  881SOL    HW2 3296   5.737   0.535   2.337  0.2157  1.5148 -2.9025
  881SOL    HW3 3297   5.624   0.611   2.405  1.1848 -0.3689  1.1486
  881SOL    MW4 3298   5.652   0.551   2.347  0.7374 -0.0915 -0.0171
  882SOL     OW 3299   3.304   6.413   0.180  0.3846 -0.1850  0.1719
  882SOL    HW2 3300   3.330   6.384   0.092 -0.5413 -1.0956  0.1898
  882SOL    HW3 3301   3.227   6.468   0.166  0.9605  0.6990  0.3265
  882SOL    MW4 3302   3.298   6.417   0.166  0.3729  0.6279 -0.0984
  883SOL     OW 3303   2.286   1.968   4.337  0.3795  0.4023 -0.6719
  883SOL    HW2 3304   2.207   1.916   4.319 -0.0134  0.2448  1.3017
  883SOL    HW3 3305   2.255   2.041   4.391  1.2425  1.6395 -1.7951
  883SOL    MW4 3306   2.271   1.970   4.342 -0.2909  0.2530  0.3446
  884SOL     OW 3307   6.082   0.260   1.033 -0.4758 -0.3643  0.5790
  884SOL    HW2 3308   6.114   0.332   0.978  1.2284  1.0416  3.2365
  884SOL    HW3 3309   5.993   0.285   1.056 -0.9233 -0.5835 -0.8028
  884SOL    MW4 3310   6.074   0.273   1.028 -0.1267 -0.5503  0.5951
  885SOL     OW 3311   5.742   5.457   1.937 -0.2402  0.1293 -0.3560
  885SOL    HW2 3312   5.790   5.375   1.942  0.5569  0.6315  0.5887
  885SOL    HW3 3313   5.795   5.512   1.879  1.0131  1.0863  1.5934
  885SOL    MW4 3314   5.755   5.454   1.930  0.2673  0.5974 -0.8257
  886SOL     OW 3315   5.860   1.981   3.384 -0.1651  0.2510 -0.1299
  886SOL    HW2 3316   5.800   1.979   3.458  0.0055  0.3329  0.0137
  886SOL    HW3 3317   5.854   2.071   3.351 -1.0265 -0.0754 -0.8754
  886SOL    MW4 3318   5.851   1.993   3.389 -0.7909  0.4903 -0.4426
  887SOL     OW 3319   1.577   3.296   5.959  0.5052 -0.1576  0.4138
  887SOL    HW2 3320   1.512   3.327   5.895  0.2408 -0.2090  0.6550
  887SOL    HW3 3321   1.592   3.372   6.015  0.3847 -0.2524  0.5757
  887SOL    MW4 3322   1.570   3.310   5.958  0.3506  0.4236 -0.4667
  888SOL     OW 3323   3.187   1.892   6.409 -0.3884  0.0122  0.0500
  888SOL    HW2 3324   3.111   1.854   6.366  0.5888 -0.1462 -1.6218
  888SOL    HW3 3325   3.178   1.987   6.395 -0.9115  0.1164  0.9831
  888SOL    MW4 3326   3.176   1.900   6.402  0.4170  0.1479  0.5161
  889SOL     OW 3327   5.191   4.637   2.681  0.2705  0.3401  0.2521
  889SOL    HW2 3328   5.099   4.620   2.703  0.3079 -0.3722 -0.1226
  889SOL    HW3 3329   5.191   4.726   2.646 -0.1996  0.5262  0.7203
  889SOL    MW4 3330   5.179   4.647   2.679  0.1454 -0.1994  0.2897
  890SOL     OW 3331   2.056   5.791   5.552  0.0171  0.0396  0.4399
  890SOL    HW2 3332   2.063   5.767   5.645 -0.1282  0.8383  0.6644
  890SOL    HW3 3333   2.143   5.825   5.530  0.0521 -0.1531  0.2820
  890SOL    MW4 3334   2.069   5.792   5.561 -0.7973  0.4830  0.1044
  891SOL     OW 3335   1.821   0.723   0.718 -0.0000 -0.7230 -0.2549
  891SOL    HW2 3336   1.799   0.793   0.779  2.7855 -1.2241  1.4882
  891SOL    HW3 3337   1.745   0.665   0.720 -1.4078  1.0569  0.0104
  891SOL    MW4 3338   1.808   0.725   0.727  0.8502 -0.2465  0.1481
  892SOL     OW 3339   0.671   6.006   0.792  0.1099 -0.0210 -0.3147
  892SOL    HW2 3340   0.708   6.078   0.741  0.2518 -0.0040 -0.1888
  892SOL    HW3 3341   0.728   5.931   0.773  0.0074 -0.0800 -0.3863
  892SOL    MW4 3342   0.684   6.006   0.783  0.7381 -0.0862 -0.1401
  893SOL     OW 3343   1.640   5.828   1.663 -0.4862 -0.0448 -0.4373
  893SOL    HW2 3344   1.663   5.912   1.623  1.3623 -0.9331 -1.3704
  893SOL    HW3 3345   1.723   5.782   1.672 -1.0846 -0.7500  2.5747
  893SOL    MW4 3346   1.654   5.833   1.659 -0.5109  0.3476  0.6355
  894SOL     OW 3347   3.144   3.797   3.442 -0.2759  0.0157 -0.3514
  894SOL    HW2 3348   3.075   3.864   3.452  1.7671  2.0463  1.0606
  894SOL    HW3 3349   3.126   3.733   3.511 -1.2309  0.0441 -0.5581
  894SOL    MW4 3350   3.132   3.798   3.452  0.4024 -0.0280  0.0988
  895SOL     OW 3351   3.333   5.120   2.481 -0.2855 -1.3615 -0.2862
  895SOL    HW2 3352   3.390   5.072   2.421 -0.1467 -1.2189 -0.2680
  895SOL    HW3 3353   3.355   5.086   2.568  1.1509  0.0606 -0.0647
  895SOL    MW4 3354   3.343   5.109   2.484  0.1126 -0.2038  0.7460
  896SOL     OW 3355   1.107   1.731   4.027  1.1021 -0.1453 -0.4389
  896SOL    HW2 3356   1.113   1.681   3.946  2.0246  1.0235 -1.1303
  896SOL    HW3 3357   1.197   1.738   4.058  0.9126  0.4979  0.0008
  896SOL    MW4 3358   1.119   1.725   4.021 -0.0676  0.9046  0.1099
  897SOL     OW 3359   5.362   3.600   5.465 -0.3471 -0.1184  0.6876
  897SOL    HW2 3360   5.392   3.569   5.380 -1.7657  2.4513 -0.8724
  897SOL    HW3 3361   5.435   3.652   5.498  0.6895 -2.0979  1.7224
  897SOL    MW4 3362   5.376   3.603   5.458 -0.2431  0.4243 -0.2097
  898SOL     OW 3363   4.760   5.666   5.851 -0.0251 -0.1071  0.4721
  898SOL    HW2 3364   4.809   5.723   5.792 -1.9287 -0.3136 -1.4247
  898SOL    HW3 3365   4.817   5.590   5.863  1.2681  0.8345  0.6383
  898SOL    MW4 3366   4.774   5.664   5.845 -0.6527 -0.0454  0.8065
  899SOL     OW 3367   3.961   2.595   2.213  0.2615 -0.2130 -0.4743
  899SOL    HW2 3368   4.014   2.645   2.275  0.0279  1.9462 -1.8960
  899SOL    HW3 3369   3.883   2.649   2.200 -0.7703 -1.7618 -0.8916
  899SOL    MW4 3370   3.958   2.609   2.219  0.3364 -0.4752  0.4381
  900SOL     OW 3371   4.058   3.223   3.533  0.1739 -0.8403 -0.5834
  900SOL    HW2 3372   3.996   3.177   3.477 -0.5771 -1.2169  0.5246
  900SOL    HW3 3373   4.053   3.314   3.504 -3.1277 -0.2470  1.2949
  900SOL    MW4 3374   4.049   3.229   3.522  0.2521  0.1195 -0.2214
  901SOL     OW 3375   3.881   4.619   5.854  0.9575  0.3048  0.2703
  901SOL    HW2 3376   3.810   4.589   5.797 -0.1885  0.5752  1.5072
  901SOL    HW3 3377   3.847   4.700   5.893  1.5876 -0.0238  1.5434
  901SOL    MW4 3378   3.867   4.626   5.851  0.2331 -0.1801 -0.3085
  902SOL     OW 3379   0.298   0.350   2.857 -0.2940 -0.5519  0.0637
  902SOL    HW2 3380   0.362   0.279   2.852  0.9537  0.4023  1.5834
  902SOL    HW3 3381   0.339   0.416   2.913 -1.4998  1.2898 -1.0886
  902SOL    MW4 3382   0.312   0.350   2.864 -0.0547  0.2955  0.0512
  903SOL     OW 3383   4.674   0.159   5.667  0.1608  0.6204 -0.0757
  903SOL    HW2 3384   4.611   0.181   5.598 -0.8816 -2.8688 -0.3974
  903SOL    HW3 3385   4.745   0.115   5.621  0.2028 -0.3395  0.8880
  903SOL    MW4 3386   4.675   0.156   5.652  0.3183 -0.1943  0.3262
  904SOL     OW 3387   5.110   1.947   2.092 -0.1809  0.1651  0.3898
  904SOL    HW2 3388   5.134   1.993   2.172 -0.6155  0.5261  0.3177
  904SOL    HW3 3389   5.052   1.876   2.121 -0.4464  0.3779  0.3841
  904SOL    MW4 3390   5.105   1.944   2.106 -0.1456  0.4689 -0.1783
  905SOL     OW 3391   3.287   0.272   2.699 -0.1832  0.2015 -0.3607
  905SOL    HW2 3392   3.216   0.213   2.673  1.1839 -1.1968 -1.1018
  905SOL    HW3 3393   3.331   0.293   2.616  0.6128  0.5705  0.1511
  905SOL    MW4 3394   3.283   0.267   2.684  0.3800 -0.0689  0.2232
  906SOL     OW 3395   2.883   4.906   0.620 -0.5399 -0.3257 -0.7088
  906SOL    HW2 3396   2.900   4.816   0.646 -0.5385 -0.0889  0.1185
  906SOL    HW3 3397   2.861   4.952   0.701 -0.7000  0.3855 -1.1400
  906SOL    MW4 3398   2.882   4.901   0.634 -0.4678 -0.1485  0.6755
  907SOL     OW 3399   1.347   2.867   5.900  0.6919  0.3854 -0.0356
  907SOL    HW2 3400   1.355   2.944   5.957 -0.7694  1.4490 -1.1972
  907SOL    HW3 3401   1.395   2.891   5.821  2.0458 -0.7856  0.3675
  907SOL    MW4 3402   1.355   2.880   5.897  0.2485  0.5478  0.4138
  908SOL     OW 3403   5.271   3.922   3.604  0.5683 -0.1400  0.5345
  908SOL    HW2 3404   5.333   3.989   3.575  1.3336 -0.1199  2.1138
  908SOL    HW3 3405   5.326   3.850   3.634 -0.2359 -1.1652 -0.3375
  908SOL    MW4 3406   5.286   3.921   3.604  0.1456 -0.0764 -0.1278
  909SOL     OW 3407   2.881   0.276   2.645  0.2654 -0.0168 -0.2155
  909SOL    HW2 3408   2.861   0.365   2.674 -0.7170 -0.5794  0.9324
  909SOL    HW3 3409   2.897   0.227   2.726  0.9434 -0.8662 -0.8352
  909SOL    MW4 3410   2.881   0.281   2.659 -0.5285  0.0093 -0.3900
  910SOL     OW 3411   5.860   2.248   5.797  0.2155 -0.0415 -0.1820
  910SOL    HW2 3412   5.805   2.289   5.731 -0.2773  1.8571  1.2964
  910SOL    HW3 3413   5.935   2.215   5.749 -1.5963 -1.6225 -2.0879
  910SOL    MW4 3414   5.863   2.249   5.782  0.1548  0.1630  0.2943
  911SOL     OW 3415   6.009   1.207   1.469 -0.1085  0.0840 -0.0144
  911SOL    HW2 3416   6.082   1.263   1.495  0.4635 -1.0988  1.0176
  911SOL    HW3 3417   5.984   1.239   1.382  1.9018  0.2680 -0.5639
  911SOL    MW4 3418   6.015   1.219   1.461  0.7276  0.4229 -0.2537
  912SOL     OW 3419   2.289   6.060   0.009 -0.3142 -0.0142 -0.7326
  912SOL    HW2 3420   2.357   6.104   0.061 -1.4807  2.0538 -0.8208
  912SOL    HW3 3421   2.325   6.054  -0.079  0.8281 -1.5584 -0.1991
  912SOL    MW4 3422   2.303   6.065   0.004 -0.6050 -0.1740 -0.2893
  913SOL     OW 3423   2.298   6.458   2.285  0.5708 -0.1201  0.1068
  913SOL    HW2 3424   2.207   6.486   2.285  0.5448 -0.0255  2.1472
  913SOL    HW3 3425   2.301   6.381   2.229 -0.4622  0.7081 -1.1220
  913SOL    MW4 3426   2.287   6.452   2.278 -0.1970  0.4481 -0.7008
  914SOL     OW 3427   3.516   4.751   6.198  0.0086  0.1318  0.6949
  914SOL    HW2 3428   3.523   4.814   6.270 -3.4989  1.1626  0.2942
  914SOL    HW3 3429   3.459   4.793   6.135 -0.4889 -2.5050 -0.7480
  914SOL    MW4 3430   3.510   4.765   6.199 -0.6486  0.1262  0.2727
  915SOL     OW 3431   5.011   6.259   5.606  0.5305 -0.1867 -0.0839
  915SOL    HW2 3432   5.094   6.249   5.559 -0.2332  0.2137 -1.5493
  915SOL    HW3 3433   4.999   6.175   5.651  1.6858 -0.2756  0.0942
  915SOL    MW4 3434   5.021   6.246   5.606  0.6869 -0.0912 -0.1692
  916SOL     OW 3435   0.111   2.175   5.085 -0.5830  0.5414  0.0260
  916SOL    HW2 3436   0.022   2.147   5.107 -0.2183 -0.9723 -0.2995
  916SOL    HW3 3437   0.150   2.197   5.169  0.6677 -4.7899  1.2151
  916SOL    MW4 3438   0.104   2.175   5.099  0.2285 -0.3119  0.3255
  917SOL     OW 3439   1.367   1.979   2.353  0.6764 -0.1081 -0.0519
  917SOL    HW2 3440   1.306   1.916   2.315  0.6298 -0.0172 -0.1309
  917SOL    HW3 3441   1.353   1.972   2.448  1.8078 -1.3416  0.0334
  917SOL    MW4 3442   1.357   1.970   2.360  0.0083  0.0960  0.0480
  918SOL     OW 3443   4.444   5.814   1.944 -0.3447 -0.5279 -0.2693
  918SOL    HW2 3444   4.432   5.846   2.033  1.7156 -0.9384  0.2091
  918SOL    HW3 3445   4.457   5.894   1.892 -1.3254 -0.3007 -0.1848
  918SOL    MW4 3446   4.444   5.829   1.949 -0.3905  0.5299  0.0103
  919SOL     OW 3447   0.521   1.663   2.617  0.1365 -0.2750 -0.4974
  919SOL    HW2 3448   0.470   1.687   2.540 -0.7157 -0.2326  0.0621
  919SOL    HW3 3449   0.527   1.744   2.668  0.6352 -0.3187 -0.4803
  919SOL    MW4 3450   0.515   1.677   2.614 -0.4066 -0.5958 -0.1476
  920SOL     OW 3451   4.215   1.450   6.143 -0.6202  0.1345  0.3797
  920SOL    HW2 3452   4.224   1.485   6.054  1.3646  1.7237  1.1447
  920SOL    HW3 3453   4.146   1.384   6.135 -0.8549  0.5754 -2.2273
  920SOL    MW4 3454   4.207   1.446   6.130  0.7419  0.1460  0.4609
  921SOL     OW 3455   2.384   2.233   1.837  0.0203 -0.1923 -0.5331
  921SOL    HW2 3456   2.439   2.196   1.767  0.7424 -0.7770  0.3137
  921SOL    HW3 3457   2.430   2.313   1.863  0.7481 -0.8971  0.4618
  921SOL    MW4 3458   2.398   2.238   1.831  0.6025  0.0598  0.4868
  922SOL     OW 3459   5.575   5.936   4.947 -0.0564  0.4098  0.2884
  922SOL    HW2 3460   5.581   5.843   4.927 -1.4233  0.4779 -0.5684
  922SOL    HW3 3461   5.637   5.949   5.018 -0.1795 -1.2504  0.7469
  922SOL    MW4 3462   5.584   5.925   4.954  0.1411  0.9159  0.6210
  923SOL     OW 3463   5.178   5.581   5.264 -0.0263 -0.0173 -0.1576
  923SOL    HW2 3464   5.201   5.583   5.357 -1.1388  1.0141  0.1209
  923SOL    HW3 3465   5.233   5.650   5.226 -0.4311  0.3701 -0.0446
  923SOL    MW4 3466   5.188   5.591   5.271  0.8025  0.5630 -0.1802
  924SOL     OW 3467   2.185   1.720   6.151  0.0511 -0.5230  0.8396
  924SOL    HW2 3468   2.112   1.771   6.186 -1.3952 -2.4734  0.7943
  924SOL    HW3 3469   2.214   1.769   6.074 -2.0775 -0.3630  0.1014
  924SOL    MW4 3470   2.180   1.734   6.146 -0.4138  0.3523 -0.3682
  925SOL     OW 3471   2.359   4.764   2.661 -0.2498 -0.1468  0.1092
  925SOL    HW2 3472   2.359   4.670   2.681  0.9821 -0.0550  0.6424
  925SOL    HW3 3473   2.410   4.803   2.732  2.2373  0.5052 -1.8945
  925SOL    MW4 3474   2.365   4.757   2.673 -0.1400 -0.0115 -0.0409
  926SOL     OW 3475   2.188   5.324   0.293 -0.5980 -0.7982 -0.4680
  926SOL    HW2 3476   2.102   5.356   0.321 -0.4119  0.0619 -0.8392
  926SOL    HW3 3477   2.213   5.382   0.221  1.4803  0.6997  1.3221
  926SOL    MW4 3478   2.180   5.336   0.287  1.0210  0.1807 -0.2956
  927SOL     OW 3479   5.579   5.950   1.179 -0.0187 -0.1414 -0.1129
  927SOL    HW2 3480   5.626   5.999   1.112  0.4612  0.3366  0.5539
  927SOL    HW3 3481   5.544   6.017   1.238  0.5497 -0.5651  0.7442
  927SOL    MW4 3482   5.581   5.965   1.178 -0.3832  0.9067  0.2019
  928SOL     OW 3483   4.845   3.298   0.288  0.1559 -0.6863  0.3147
  928SOL    HW2 3484   4.804   3.369   0.239 -0.3190 -1.1845 -0.0311
  928SOL    HW3 3485   4.915   3.267   0.230  2.1115  1.1763  1.5446
  928SOL    MW4 3486   4.849   3.303   0.274 -0.0802 -0.1705  0.5245
  929SOL     OW 3487   6.173   1.475   0.129  0.5962 -0.3858 -0.0099
  929SOL    HW2 3488   6.135   1.396   0.168 -0.2472  0.2721  0.5302
  929SOL    HW3 3489   6.150   1.545   0.189  1.0800  0.3283 -0.6370
  929SOL    MW4 3490   6.165   1.474   0.142  0.2397 -0.2828 -0.2947
  930SOL     OW 3491   1.447   5.121   2.965 -0.5591 -0.3456 -0.1151
  930SOL    HW2 3492   1.524   5.117   2.908 -0.5828 -1.2785 -0.0889
  930SOL    HW3 3493   1.372   5.123   2.905 -0.5872 -1.3985 -0.1395
  930SOL    MW4 3494   1.447   5.121   2.949 -0.9531  0.3489  0.1034
  931SOL     OW 3495   2.374   3.542   0.270  0.4279  0.4741  0.5357
  931SOL    HW2 3496   2.380   3.630   0.233 -0.9842  0.8325  1.1014
  931SOL    HW3 3497   2.282   3.518   0.261  1.0157 -1.5666 -0.9490
  931SOL    MW4 3498   2.363   3.550   0.264 -0.2683 -0.4154 -0.2686
  932SOL     OW 3499   3.856   5.504   5.726  0.3158  0.1768  0.3591
  932SOL    HW2 3500   3.936   5.529   5.771 -0.0087  1.0648  0.4614
  932SOL    HW3 3501   3.808   5.586   5.714 -0.3553 -0.2722 -0.1347
  932SOL    MW4 3502   3.860   5.518   5.730  1.1066 -0.6070 -0.1123
  933SOL     OW 3503   3.075   4.368   2.243  0.1425 -0.4360  0.5236
  933SOL    HW2 3504   3.034   4.303   2.185  0.1910 -0.3342  0.3754
  933SOL    HW3 3505   3.002   4.405   2.293 -0.1191  0.6099 -0.5934
  933SOL    MW4 3506   3.060   4.364   2.242  0.3705  0.2516  0.4085
  934SOL     OW 3507   6.301   1.103   5.961 -0.2042 -0.0050 -0.2624
  934SOL    HW2 3508   6.300   1.025   6.017 -1.1409  0.7516  0.8352
  934SOL    HW3 3509   6.387   1.103   5.920  0.2727 -0.9429  0.6975
  934SOL    MW4 3510   6.312   1.093   5.963 -0.0195 -0.0514  0.2773
  935SOL     OW 3511   3.340   4.851   5.953  0.3979  0.2323 -0.0400
  935SOL    HW2 3512   3.274   4.794   5.992  0.7299  0.9833  1.7309
  935SOL    HW3 3513   3.378   4.799   5.882 -1.3480 -0.5929 -0.4177
  935SOL    MW4 3514   3.336   4.837   5.949  0.0244 -0.2131  0.0384
  936SOL     OW 3515   4.425   1.229   4.587  0.5597 -0.0696  0.6154
  936SOL    HW2 3516   4.512   1.268   4.597 -0.1127  1.5270  0.5056
  936SOL    HW3 3517   4.367   1.289   4.634 -0.4724 -1.1947  0.8091
  936SOL    MW4 3518   4.429   1.242   4.595  0.2845  0.1869  0.2565
  937SOL     OW 3519   4.449   3.641   3.024  0.4358  0.0333 -0.2851
  937SOL    HW2 3520   4.357   3.664   3.013  0.3452 -0.0834  0.1890
  937SOL    HW3 3521   4.448   3.567   3.084  0.8258 -0.1274 -0.4738
  937SOL    MW4 3522   4.437   3.634   3.031  0.2398 -0.5983 -0.0592
  938SOL     OW 3523   5.118   3.027   2.657  0.2428 -0.1675 -0.4955
  938SOL    HW2 3524   5.179   2.963   2.619 -0.0446 -0.7865  0.0616
  938SOL    HW3 3525   5.173   3.080   2.714  0.0343 -1.7466  1.2705
  938SOL    MW4 3526   5.134   3.025   2.659  0.4326  0.3954  0.1751
  939SOL     OW 3527   2.996   2.275   1.827  0.1884  0.4241 -0.5185
  939SOL    HW2 3528   3.063   2.337   1.856 -0.3128  0.6024  0.2843
  939SOL    HW3 3529   2.945   2.255   1.906 -1.2133  0.9187 -1.2646
  939SOL    MW4 3530   2.998   2.280   1.842 -0.5011 -0.6626 -0.5490
  940SOL     OW 3531   3.948   2.518   3.016 -0.1358 -0.0704  0.5379
  940SOL    HW2 3532   3.942   2.428   2.987  1.4634 -0.3032  0.8178
  940SOL    HW3 3533   4.035   2.547   2.987 -0.4141  1.2087  0.8989
  940SOL    MW4 3534   3.959   2.510   3.008  0.1662  0.5935  0.0102
  941SOL     OW 3535   1.635   1.971   4.938  0.0758 -0.0112 -0.3497
  941SOL    HW2 3536   1.570   2.008   4.999 -0.6766 -0.0671 -1.1005
  941SOL    HW3 3537   1.653   2.041   4.876 -0.6138 -0.5562 -1.1939
  941SOL    MW4 3538   1.629   1.985   4.938  0.0584 -0.1889  0.2700
  942SOL     OW 3539   0.401   3.336   0.545 -0.5097 -0.3374 -0.0739
  942SOL    HW2 3540   0.411   3.269   0.478 -0.6777 -0.7817  0.3419
  942SOL    HW3 3541   0.401   3.288   0.628  0.4923  0.2762  0.2976
  942SOL    MW4 3542   0.402   3.321   0.547 -0.3500  0.4272 -0.0353
  943SOL     OW 3543   5.656   3.981   4.842  0.2471 -0.6516 -0.1434
  943SOL    HW2 3544   5.645   4.064   4.889  0.4984  0.5811 -2.1453
  943SOL    HW3 3545   5.584   3.926   4.874  0.1509  0.2552  1.3288
  943SOL    MW4 3546   5.645   3.985   4.853 -0.0624 -0.4501  0.0131
  944SOL     OW 3547   1.323   2.868   0.392  0.5878  0.2268  0.2353
  944SOL    HW2 3548   1.264   2.839   0.462 -0.6946 -1.3898 -1.4243
  944SOL    HW3 3549   1.268   2.924   0.336  0.3897 -1.6433 -1.5649
  944SOL    MW4 3550   1.308   2.872   0.394  0.3431  0.4625 -0.2023
  945SOL     OW 3551   1.133   5.129   5.941 -0.3928  0.4714  0.1024
  945SOL    HW2 3552   1.213   5.089   5.976  0.8340  3.3603  0.9100
  945SOL    HW3 3553   1.153   5.145   5.848 -0.6255 -0.1590 -0.0584
  945SOL    MW4 3554   1.146   5.126   5.933 -0.2438  0.3821 -0.4109
  946SOL     OW 3555   2.576   4.001   3.759  0.0284 -0.5628  0.0450
  946SOL    HW2 3556   2.547   4.056   3.686  0.9804  0.4060  0.3784
  946SOL    HW3 3557   2.514   3.928   3.759  0.3092 -0.8657 -2.0631
  946SOL    MW4 3558   2.564   3.998   3.749  0.0286  0.0355 -0.1377
  947SOL     OW 3559   4.802   4.272   2.108  0.8670  0.1520  0.1259
  947SOL    HW2 3560   4.860   4.196   2.097 -0.6978 -1.1187  0.3453
  947SOL    HW3 3561   4.719   4.245   2.071  0.6216  2.3130 -1.1081
  947SOL    MW4 3562   4.799   4.259   2.102 -0.0973 -0.2004 -0.1177
  948SOL     OW 3563   0.912   5.620   3.277  0.7409  0.2668 -0.0655
  948SOL    HW2 3564   0.998   5.654   3.299  0.4495  0.6909  0.4562
  948SOL    HW3 3565   0.872   5.601   3.362  0.8235 -1.2166 -0.3338
  948SOL    MW4 3566   0.918   5.622   3.291 -0.2300 -0.9215 -0.5030
  949SOL     OW 3567   2.624   5.699   2.892 -0.2793 -0.3000 -0.4525
  949SOL    HW2 3568   2.549   5.719   2.836  0.1551 -0.4941 -1.1183
  949SOL    HW3 3569   2.649   5.610   2.866  1.9460  0.7698 -2.2933
  949SOL    MW4 3570   2.617   5.690   2.881  0.5875 -0.2459 -0.8667
  950SOL     OW 3571   3.496   3.480   4.123  0.3289  0.1025  0.0964
  950SOL    HW2 3572   3.432   3.547   4.100 -0.5340 -1.1116 -1.2115
  950SOL    HW3 3573   3.459   3.438   4.201  0.6636  0.8544  0.6698
  950SOL    MW4 3574   3.483   3.483   4.131 -0.0930 -0.0524  0.6802
  951SOL     OW 3575   6.211   5.412   3.191  0.0174 -0.6198  0.5539
  951SOL    HW2 3576   6.284   5.445   3.139 -1.2023 -0.7187 -1.2988
  951SOL    HW3 3577   6.251   5.384   3.274  2.4674 -2.7531 -1.1825
  951SOL    MW4 3578   6.225   5.413   3.195 -0.3222 -0.3615  0.2226
  952SOL     OW 3579   6.195   4.035   5.200 -0.2789  0.5437 -0.2959
  952SOL    HW2 3580   6.219   4.109   5.145  1.0081  0.5058  0.1832
  952SOL    HW3 3581   6.185   3.962   5.139 -1.4012  1.0533 -0.7529
  952SOL    MW4 3582   6.197   4.035   5.185  0.5704 -0.1527 -0.4006
  953SOL     OW 3583   6.361   5.515   2.711  0.2329 -0.1909  0.1950
  953SOL    HW2 3584   6.294   5.558   2.658 -0.1342  1.0448  1.6081
  953SOL    HW3 3585   6.334   5.423   2.713 -2.5968  0.5475  2.3240
  953SOL    MW4 3586   6.349   5.509   2.704 -0.0678 -0.0671 -0.2766
  954SOL     OW 3587   4.778   1.381   1.063  0.3647  0.1488  0.3171
  954SOL    HW2 3588   4.821   1.399   0.979 -0.3168  1.1759  0.1638
  954SOL    HW3 3589   4.802   1.455   1.119  0.3294 -0.2286  0.8300
  954SOL    MW4 3590   4.786   1.393   1.059  0.0606  0.8116  0.0887
  955SOL     OW 3591   5.548   4.407   0.771 -0.3734 -0.0425  0.3322
  955SOL    HW2 3592   5.531   4.385   0.863 -1.5816 -0.8775 -0.0627
  955SOL    HW3 3593   5.463   4.434   0.737  0.1689  0.7646 -0.4194
  955SOL    MW4 3594   5.534   4.408   0.779  0.0288 -0.3803  0.2185
  956SOL     OW 3595   1.878   2.443   0.703  0.0064 -0.1191  0.2581
  956SOL    HW2 3596   1.793   2.431   0.661 -0.5757 -1.9748  1.8078
  956SOL    HW3 3597   1.942   2.413   0.638 -0.6671 -0.5477 -0.2211
  956SOL    MW4 3598   1.875   2.438   0.689 -0.2899  0.2844 -0.5214
  957SOL     OW 3599   0.620   5.918   5.154 -0.0735 -0.2868  0.2072
  957SOL    HW2 3600   0.715   5.910   5.149 -0.1574 -0.8143 -0.7586
  957SOL    HW3 3601   0.588   5.828   5.151 -0.6498 -0.0622 -0.5892
  957SOL    MW4 3602   0.628   5.905   5.153 -0.3235  0.4149 -0.1482
  958SOL     OW 3603   4.724   6.074   6.394 -0.2169  0.5125  0.4504
  958SOL    HW2 3604   4.680   6.127   6.327  0.4085  0.7130  0.1903
  958SOL    HW3 3605   4.696   6.112   6.477 -3.4463 -1.6112  0.4923
  958SOL    MW4 3606   4.715   6.086   6.396 -0.5036 -0.3563  0.5724
  959SOL     OW 3607   0.377   5.579   4.570 -0.1749  0.3780  0.0334
  959SOL    HW2 3608   0.394   5.609   4.660  1.5392  0.7473 -0.3702
  959SOL    HW3 3609   0.372   5.484   4.577  0.1944  0.3873  0.4956
  959SOL    MW4 3610   0.379   5.570   4.583  0.1171  0.2354 -0.4982
  960SOL     OW 3611   4.421   2.131   2.428  0.3267 -0.3406 -0.0175
  960SOL    HW2 3612   4.376   2.057   2.386 -1.1784 -0.0119  0.9529
  960SOL    HW3 3613   4.387   2.208   2.382  0.8893 -0.1659 -0.1410
  960SOL    MW4 3614   4.411   2.131   2.416  0.8204 -0.0662  0.4897
  961SOL     OW 3615   3.415   1.112   1.612  0.6091  0.2365  0.1069
  961SOL    HW2 3616   3.371   1.085   1.693  3.0817  0.6667  1.7018
  961SOL    HW3 3617   3.412   1.035   1.556 -2.1907  0.2820  0.0208
  961SOL    MW4 3618   3.409   1.099   1.615  0.3085 -0.0245 -0.2682
  962SOL     OW 3619   4.955   5.668   5.131  0.1544  0.0713  0.3655
  962SOL    HW2 3620   5.032   5.639   5.179  1.0780  0.2392 -0.9725
  962SOL    HW3 3621   4.912   5.730   5.190  1.1101  0.0838  1.0710
  962SOL    MW4 3622   4.959   5.673   5.145 -0.7827  0.1764 -0.0383
  963SOL     OW 3623   6.186   0.533   3.069 -0.3849 -0.8446  0.1462
  963SOL    HW2 3624   6.100   0.571   3.055 -0.7187 -1.8012 -0.5279
  963SOL    HW3 3625   6.169   0.443   3.099  0.3692 -1.0930 -0.1310
  963SOL    MW4 3626   6.172   0.526   3.071 -0.3636 -1.0829 -0.7271
  964SOL     OW 3627   3.024   2.295   0.363  0.1790 -0.3192  0.2275
  964SOL    HW2 3628   2.992   2.213   0.327  0.9080 -0.6406  0.3022
  964SOL    HW3 3629   3.119   2.286   0.365  0.4745  1.3729 -1.8807
  964SOL    MW4 3630   3.032   2.283   0.359  0.0110 -0.3526  0.1491
  965SOL     OW 3631   1.758   2.531   1.989  0.2661  0.5678  0.6385
  965SOL    HW2 3632   1.753   2.524   2.084  0.7360 -1.6659  0.5544
  965SOL    HW3 3633   1.672   2.501   1.958  0.5814 -0.0429  0.3368
  965SOL    MW4 3634   1.746   2.526   1.997  0.1843  0.0383 -0.1137
  966SOL     OW 3635   5.997   5.342   5.774  0.0786  0.1624  0.0268
  966SOL    HW2 3636   6.058   5.399   5.728  1.2669 -1.7594 -0.9056
  966SOL    HW3 3637   5.927   5.326   5.710 -0.5743  1.0064  0.5025
  966SOL    MW4 3638   5.996   5.347   5.759 -0.1858 -0.2319 -0.3029
  967SOL     OW 3639   1.100   6.143   3.101  0.0828 -0.0561 -0.1342
  967SOL    HW2 3640   1.104   6.053   3.132 -1.2552 -0.0966 -0.0141
  967SOL    HW3 3641   1.160   6.191   3.158  0.0518 -0.6952  0.4480
  967SOL    MW4 3642   1.108   6.138   3.112 -0.4996  0.3033  0.5406
  968SOL     OW 3643   1.577   0.454   5.944  0.2987 -0.3373  0.2844
  968SOL    HW2 3644   1.523   0.407   6.008  0.7422  0.1413  1.0254
  968SOL    HW3 3645   1.618   0.385   5.893 -0.2462 -0.7240  0.3566
  968SOL    MW4 3646   1.575   0.439   5.946 -0.4954 -0.0351 -1.0539
  969SOL     OW 3647   5.435   4.605   1.761  0.2205 -0.0877 -0.5723
  969SOL    HW2 3648   5.415   4.513   1.742  1.2791 -0.3060 -0.6746
  969SOL    HW3 3649   5.400   4.619   1.849 -0.5184 -0.3965 -0.8031
  969SOL    MW4 3650   5.428   4.595   1.770 -0.1070 -0.6738  0.3776
  970SOL     OW 3651   4.987   4.036   0.611 -0.3023 -0.3545  0.6396
  970SOL    HW2 3652   5.011   4.053   0.702 -2.0604  1.3427  0.8444
  970SOL    HW3 3653   5.046   4.092   0.560  1.1537 -1.8117  0.6223
  970SOL    MW4 3654   4.998   4.045   0.616  0.9060 -0.3779  0.0440
  971SOL     OW 3655   0.090   2.746   5.703  0.1760 -0.7446  0.0870
  971SOL    HW2 3656   0.055   2.833   5.682  0.5129 -0.1067  2.0043
  971SOL    HW3 3657   0.059   2.690   5.631 -1.5321  0.5818 -0.2743
  971SOL    MW4 3658   0.081   2.750   5.691 -0.4707 -0.4583 -0.0155
  972SOL     OW 3659   1.116   3.067   0.977  0.1504  0.2474  0.2230
  972SOL    HW2 3660   1.048   3.069   1.046 -1.2508  1.0908 -1.1129
  972SOL    HW3 3661   1.066   3.063   0.895  1.7919 -1.2984 -0.7522
  972SOL    MW4 3662   1.100   3.067   0.976 -0.0963 -0.4339  0.5769
  973SOL     OW 3663   3.028   2.132   2.611  0.3805  0.3847  0.6169
  973SOL    HW2 3664   2.987   2.112   2.527  3.5572 -0.9598 -0.7596
  973SOL    HW3 3665   3.027   2.228   2.616 -0.9055  0.4426 -0.3718
  973SOL    MW4 3666   3.023   2.142   2.600  0.1486  0.6076  0.1725
  974SOL     OW 3667   2.018   1.077   4.516  0.0001 -0.3032 -0.1789
  974SOL    HW2 3668   2.055   1.138   4.452 -0.3960  0.1075 -0.0224
  974SOL    HW3 3669   1.952   1.128   4.562  0.6960 -0.4113  0.9766
  974SOL    MW4 3670   2.014   1.092   4.513 -0.6766  0.3560 -0.1205
  975SOL     OW 3671   1.094   2.034   0.810 -0.2032  0.4056 -0.2523
  975SOL    HW2 3672   1.182   2.010   0.842 -0.7260 -1.3207  0.0292
  975SOL    HW3 3673   1.051   1.950   0.797 -1.3609  1.1994 -1.7486
  975SOL    MW4 3674   1.100   2.019   0.813  0.1345  0.2875  0.2707
  976SOL     OW 3675   1.151   2.172   5.289  0.3236 -0.0597 -0.0194
  976SOL    HW2 3676   1.150   2.077   5.280  0.7747 -0.1383  0.6598
  976SOL    HW3 3677   1.237   2.192   5.326 -0.4535  0.4203  1.6227
  976SOL    MW4 3678   1.162   2.162   5.293  0.5971 -0.0831 -0.1119
  977SOL     OW 3679   5.397   2.201   5.680 -0.4388 -0.7573  0.3521
  977SOL    HW2 3680   5.379   2.259   5.755  0.3318 -0.0248 -0.0118
  977SOL    HW3 3681   5.425   2.119   5.720  0.8852 -0.0718  0.8915
  977SOL    MW4 3682   5.398   2.198   5.695 -0.2249 -0.4164 -0.2059
  978SOL     OW 3683   1.347   3.968   4.438 -0.0081 -0.3201 -0.0792
  978SOL    HW2 3684   1.327   4.014   4.357  1.2914  0.7913  0.2102
  978SOL    HW3 3685   1.442   3.960   4.440 -0.1358 -2.2498  0.3236
  978SOL    MW4 3686   1.357   3.973   4.428 -0.4078 -0.1070  0.0505
  979SOL     OW 3687   2.139   5.134   6.428  0.1051 -0.1925 -0.3725
  979SOL    HW2 3688   2.216   5.186   6.408  0.0337  0.5276  1.0564
  979SOL    HW3 3689   2.106   5.171   6.510 -0.8437 -1.5000 -0.1305
  979SOL    MW4 3690   2.145   5.145   6.436  0.2258  0.1977 -0.1670
  980SOL     OW 3691   5.382   2.990   4.428  0.2939 -0.1124 -0.3202
  980SOL    HW2 3692   5.331   2.929   4.375 -1.4157  1.2746 -0.3823
  980SOL    HW3 3693   5.319   3.026   4.491  1.8584 -0.3895  1.5032
  980SOL    MW4 3694   5.367   2.987   4.429  0.3281 -0.7729 -0.2958
  981SOL     OW 3695   5.200   0.615   0.416 -0.1633 -0.0932 -0.4015
  981SOL    HW2 3696   5.166   0.680   0.477  0.3653  0.3744 -0.5952
  981SOL    HW3 3697   5.176   0.531   0.455  1.2985  0.1593  1.1309
  981SOL    MW4 3698   5.192   0.612   0.429 -0.4000  0.1691 -0.7376
  982SOL     OW 3699   3.155   2.342   5.478  0.1127  0.4072  0.2999
  982SOL    HW2 3700   3.208   2.340   5.557  0.0733  1.0236  0.3523
  982SOL    HW3 3701   3.195   2.277   5.420 -0.2655 -0.5356  1.0716
  982SOL    MW4 3702   3.167   2.333   5.481  0.0718 -0.2516 -0.2290
  983SOL     OW 3703   4.119   0.515   5.503  0.0108 -0.8121  0.7217
  983SOL    HW2 3704   4.031   0.501   5.468 -0.7719 -0.5001  2.4659
  983SOL    HW3 3705   4.120   0.607   5.530  1.5764 -0.2321 -1.0629
  983SOL    MW4 3706   4.108   0.526   5.502 -0.0173  1.0387 -0.3722
  984SOL     OW 3707   3.710   0.551   3.047 -0.5218 -0.0880 -0.3357
  984SOL    HW2 3708   3.784   0.588   2.998  0.4623 -0.2677  0.9604
  984SOL    HW3 3709   3.733   0.459   3.059 -1.6894 -0.5153 -1.2077
  984SOL    MW4 3710   3.723   0.544   3.042  0.1783 -0.6771 -0.3413
  985SOL     OW 3711   4.150   6.476   1.193 -0.6671  0.4464 -0.0900
  985SOL    HW2 3712   4.159   6.447   1.103 -0.1514  1.1050 -0.2561
  985SOL    HW3 3713   4.069   6.528   1.194  0.2519  1.9437 -0.5910
  985SOL    MW4 3714   4.141   6.479   1.182  0.4335 -0.1039 -0.5408
  986SOL     OW 3715   0.839   1.971   1.897  0.3279  0.4200  0.3158
  986SOL    HW2 3716   0.773   2.031   1.860 -0.3328 -0.2894  0.3176
  986SOL    HW3 3717   0.788   1.912   1.952  0.7983 -0.9198 -0.6576
  986SOL    MW4 3718   0.824   1.971   1.899 -0.6150  0.4107 -0.0135
  987SOL     OW 3719   3.140   5.887   3.187 -0.3045  0.0114 -1.0034
  987SOL    HW2 3720   3.204   5.942   3.142  1.5041 -1.1682  0.0325
  987SOL    HW3 3721   3.103   5.944   3.254  0.2607  0.4754 -1.0748
  987SOL    MW4 3722   3.143   5.902   3.190 -0.7189  0.2357  0.1993
  988SOL     OW 3723   2.737   1.859   5.224 -0.4343  0.6631  0.0507
  988SOL    HW2 3724   2.781   1.864   5.139  0.0262  1.7778  0.3379
  988SOL    HW3 3725   2.661   1.916   5.216 -1.1122 -0.2263 -0.0109
  988SOL    MW4 3726   2.733   1.867   5.212 -1.0128 -0.5030 -0.1933
  989SOL     OW 3727   5.054   3.785   1.507 -0.4706 -0.0941 -0.2148
  989SOL    HW2 3728   5.121   3.718   1.514 -0.6526 -0.1015  1.8985
  989SOL    HW3 3729   5.049   3.803   1.413  1.8400 -0.7110 -0.5163
  989SOL    MW4 3730   5.062   3.778   1.495  0.4475  0.4720 -0.1261
  990SOL     OW 3731   2.275   5.983   2.029  0.2262  0.1351 -0.0466
  990SOL    HW2 3732   2.333   5.907   2.026  1.9905  1.2110  2.8287
  990SOL    HW3 3733   2.206   5.959   2.090 -0.1672  0.2665 -0.4313
  990SOL    MW4 3734   2.273   5.970   2.037 -0.1449 -0.3281 -0.4831
  991SOL     OW 3735   5.837   1.614   2.734 -0.0334  0.0587 -0.1166
  991SOL    HW2 3736   5.894   1.691   2.733  0.1290 -0.0615 -0.8315
  991SOL    HW3 3737   5.751   1.648   2.710  0.2636 -0.1317 -1.5663
  991SOL    MW4 3738   5.833   1.629   2.730  0.5463  0.1411 -0.1606
  992SOL     OW 3739   3.562   0.412   5.434 -0.4038  0.0467  0.1951
  992SOL    HW2 3740   3.603   0.377   5.513 -0.2886 -3.4111 -1.1782
  992SOL    HW3 3741   3.537   0.501   5.456 -0.4148 -0.7722  4.0941
  992SOL    MW4 3742   3.564   0.419   5.447  0.7050 -0.3334 -0.6639
  993SOL     OW 3743   0.295   0.242   4.553 -0.5264 -0.2663  0.1332
  993SOL    HW2 3744   0.351   0.207   4.622 -1.3350  1.2160  1.6217
  993SOL    HW3 3745   0.331   0.329   4.535 -2.1218  0.6071  0.9328
  993SOL    MW4 3746   0.307   0.249   4.560  0.2369 -0.5860 -0.3998
  994SOL     OW 3747   4.171   1.344   2.785  0.3405 -0.0399  0.0324
  994SOL    HW2 3748   4.104   1.279   2.769  1.1424 -1.1065  0.8215
  994SOL    HW3 3749   4.124   1.427   2.789 -1.0576 -0.8497  1.4009
  994SOL    MW4 3750   4.156   1.347   2.784 -0.3620 -0.4531  0.5748
  995SOL     OW 3751   4.695   1.734   3.028 -0.0601  0.1235 -0.0643
  995SOL    HW2 3752   4.745   1.673   3.082  0.1726 -0.3727 -0.8295
  995SOL    HW3 3753   4.727   1.821   3.054 -0.4087 -0.0643  1.0424
  995SOL    MW4 3754   4.705   1.738   3.038 -0.0286  0.4101  0.0642
  996SOL     OW 3755   1.002   2.397   4.226 -0.0483  0.5050 -0.0120
  996SOL    HW2 3756   0.955   2.338   4.167  0.2985  1.7609 -1.5960
  996SOL    HW3 3757   1.079   2.425   4.177  0.3216  1.5091  1.0850
  996SOL    MW4 3758   1.006   2.393   4.212 -0.4484 -0.1995  0.6172
  997SOL     OW 3759   1.449   1.552   5.002 -0.0928 -0.3922  0.3434
  997SOL    HW2 3760   1.481   1.561   4.912 -0.4064  0.2151  0.2883
  997SOL    HW3 3761   1.388   1.478   4.998 -1.4574  0.7039 -0.3478
  997SOL    MW4 3762   1.445   1.544   4.990 -0.0911  0.0493  0.0507
  998SOL     OW 3763   3.728   2.545   5.766 -0.4329 -0.6096 -0.1542
  998SOL    HW2 3764   3.686   2.543   5.680  1.3607  0.6045 -1.1301
  998SOL    HW3 3765   3.805   2.489   5.757 -0.4349 -0.7937  0.8072
  998SOL    MW4 3766   3.732   2.537   5.754  0.2546  0.4859 -0.2921
  999SOL     OW 3767   4.724   5.944   5.976 -0.4856 -0.0275 -0.0942
  999SOL    HW2 3768   4.730   5.848   5.981 -1.6551 -0.0795  0.8275
  999SOL    HW3 3769   4.715   5.963   5.883  2.8103 -0.5601 -0.6571
  999SOL    MW4 3770   4.723   5.934   5.964  0.2768  0.0443 -0.2447
 1000SOL     OW 3771   0.347   0.822   3.836  0.1366  0.6354  0.4024
 1000SOL    HW2 3772   0.253   0.829   3.850  0.5559  2.1482  3.2240
 1000SOL    HW3 3773   0.365   0.728   3.836 -1.3893  0.3158 -0.6195
 1000SOL    MW4 3774   0.337   0.810   3.838  0.0694 -0.0253  0.5218
 1001SOL     OW 3775   4.736   0.941   1.900  0.2070  0.1265  0.1726
 1001SOL    HW2 3776   4.820   0.896   1.891 -0.7793 -1.4863 -1.6825
 1001SOL    HW3 3777   4.705   0.916   1.987  0.7695 -0.8550  0.1085
 1001SOL    MW4 3778   4.743   0.932   1.910 -0.1488  0.4219  0.3563
 1002SOL     OW 3779   3.203   5.898   4.738 -0.2677 -0.0501 -0.5799
 1002SOL    HW2 3780   3.218   5.982   4.782  1.4881 -0.6389  0.0320
 1002SOL    HW3 3781   3.164   5.843   4.806  1.8842 -0.7718  0.1720
 1002SOL    MW4 3782   3.200   5.902   4.753 -0.3535  0.6453 -0.3969
 1003SOL     OW 3783   4.643   2.704   0.692  0.1197 -0.4743  0.6482
 1003SOL    HW2 3784   4.628   2.647   0.616  3.1261  2.0716 -2.1504
 1003SOL    HW3 3785   4.558   2.745   0.707 -0.4620 -0.5632 -1.8800
 1003SOL    MW4 3786   4.629   2.702   0.684  0.3015 -0.2906  0.7626
 1004SOL     OW 3787   2.275   5.796   5.922  0.2694  0.0799  0.4930
 1004SOL    HW2 3788   2.180   5.788   5.917  0.4134 -2.7452  0.4845
 1004SOL    HW3 3789   2.292   5.824   6.012 -0.5553  1.7033  0.1832
 1004SOL    MW4 3790   2.265   5.799   5.933  0.5575 -0.0510  0.4515
 1005SOL     OW 3791   6.272   1.087   5.097  0.0719 -0.0014  0.8619
 1005SOL    HW2 3792   6.241   1.172   5.127 -0.8032  1.0648 -2.6514
 1005SOL    HW3 3793   6.300   1.042   5.177  0.3391  3.4342  2.8867
 1005SOL    MW4 3794   6.272   1.092   5.112  0.0313 -0.2724  0.4467
 1006SOL     OW 3795   2.279   3.628   1.291 -0.4881 -0.1770  0.1087
 1006SOL    HW2 3796   2.249   3.605   1.379  0.5601 -0.5939  0.3786
 1006SOL    HW3 3797   2.267   3.723   1.285  1.5522  0.2347  1.5837
 1006SOL    MW4 3798   2.273   3.638   1.302 -0.0315  0.6240  0.2226
 1007SOL     OW 3799   0.710   3.085   0.484 -0.6540 -0.5322  0.1216
 1007SOL    HW2 3800   0.680   3.053   0.569  1.9087 -1.2372  0.8499
 1007SOL    HW3 3801   0.759   3.012   0.446 -0.9665  0.0848 -1.5680
 1007SOL    MW4 3802   0.712   3.071   0.490 -0.3761  0.2289  0.3309
 1008SOL     OW 3803   5.886   3.369   2.581 -0.1800 -0.0957 -0.1306
 1008SOL    HW2 3804   5.938   3.326   2.513 -0.1666  0.4131 -0.4511
 1008SOL    HW3 3805   5.902   3.462   2.567  0.8060 -0.0052  1.3430
 1008SOL    MW4 3806   5.895   3.376   2.570  0.4383 -0.6753 -0.7543
 1009SOL     OW 3807   2.053   3.239   3.053  0.6739  0.5219 -0.1465
 1009SOL    HW2 3808   2.097   3.282   3.126 -0.7931 -0.9439  1.7255
 1009SOL    HW3 3809   2.101   3.157   3.042  0.0653  0.1225  0.1178
 1009SOL    MW4 3810   2.065   3.234   3.061  0.0469 -0.1777  0.3292
 1010SOL     OW 3811   4.781   2.904   5.627 -0.6067 -0.2291  0.1408
 1010SOL    HW2 3812   4.753   2.812   5.637 -2.1422 -0.0995 -2.1409
 1010SOL    HW3 3813   4.799   2.913   5.534  0.0676  1.6825  0.4202
 1010SOL    MW4 3814   4.780   2.893   5.616  0.4789 -0.7011 -0.9289
 1011SOL     OW 3815   4.257   0.129   6.389  0.1094 -0.0275  0.0408
 1011SOL    HW2 3816   4.185   0.118   6.450  1.6050 -0.0587  1.8682
 1011SOL    HW3 3817   4.269   0.224   6.381 -2.4806  0.2155 -3.2671
 1011SOL    MW4 3818   4.249   0.140   6.396  0.4189  0.0187 -0.1910
 1012SOL     OW 3819   3.213   1.530   1.819  0.0018 -0.3252  0.7543
 1012SOL    HW2 3820   3.170   1.547   1.735  1.7492 -0.9668 -0.3230
 1012SOL    HW3 3821   3.177   1.596   1.878 -1.8669 -0.3650 -0.2773
 1012SOL    MW4 3822   3.203   1.541   1.816  0.2209 -0.1774  0.1824
 1013SOL     OW 3823   2.173   4.128   5.199 -0.1045  0.4144 -0.4260
 1013SOL    HW2 3824   2.110   4.126   5.126 -0.8840 -0.0168  0.2501
 1013SOL    HW3 3825   2.131   4.182   5.266  0.2984  0.2240 -0.0158
 1013SOL    MW4 3826   2.159   4.134   5.198 -0.1692 -0.2085 -0.2852
 1014SOL     OW 3827   4.628   3.281   0.562  0.1005  0.2803 -0.0079
 1014SOL    HW2 3828   4.624   3.231   0.643 -1.1304 -0.5595 -0.5686
 1014SOL    HW3 3829   4.650   3.370   0.591 -0.5394  0.0527  1.2727
 1014SOL    MW4 3830   4.630   3.286   0.577  0.3937 -0.1196 -0.1861
 1015SOL     OW 3831   1.278   2.007   3.659  0.4239 -0.1894  0.1085
 1015SOL    HW2 3832   1.193   2.018   3.702 -0.2057 -0.3190 -1.0478
 1015SOL    HW3 3833   1.263   2.037   3.569  1.8638  0.6759  0.1329
 1015SOL    MW4 3834   1.265   2.012   3.653  0.2708 -0.4656 -0.2445
 1016SOL     OW 3835   2.093   3.860   1.147 -0.2438  0.4745  0.0777
 1016SOL    HW2 3836   2.106   3.943   1.194  0.7168  1.0041 -1.0802
 1016SOL    HW3 3837   2.157   3.862   1.077  0.2837 -1.6014  0.4499
 1016SOL    MW4 3838   2.103   3.871   1.144  0.6330  0.8629 -0.1363
 1017SOL     OW 3839   3.519   2.939   0.037 -0.2324 -0.5251 -0.0364
 1017SOL    HW2 3840   3.457   2.949  -0.036  0.9775 -1.6120 -1.2685
 1017SOL    HW3 3841   3.604   2.959  -0.002  0.6203 -2.4947  0.6921
 1017SOL    MW4 3842   3.522   2.943   0.022  0.0920  0.1531  0.7341
 1018SOL     OW 3843   4.807   5.912   1.550  0.0712  0.8128 -0.5574
 1018SOL    HW2 3844   4.721   5.877   1.528  0.3290  0.0945 -0.4384
 1018SOL    HW3 3845   4.788   5.985   1.610 -0.4897  1.1783 -1.1686
 1018SOL    MW4 3846   4.793   5.917   1.555 -0.4497  0.2592  0.2913
 1019SOL     OW 3847   1.963   5.250   1.143 -0.2295 -0.0695  0.7668
 1019SOL    HW2 3848   2.056   5.271   1.136 -0.5032  1.2202  0.6924
 1019SOL    HW3 3849   1.940   5.216   1.056  0.0685  0.0643  0.6335
 1019SOL    MW4 3850   1.972   5.248   1.130  0.3018  0.0463  0.0667
 1020SOL     OW 3851   5.245   3.222   4.231 -0.3824  0.0868 -0.0984
 1020SOL    HW2 3852   5.318   3.182   4.278  0.1549  1.7093  0.5293
 1020SOL    HW3 3853   5.212   3.153   4.174  2.0535 -0.5121 -0.8773
 1020SOL    MW4 3854   5.250   3.208   4.230 -0.9257  0.8920  0.7233
 1021SOL     OW 3855   3.885   4.316   3.669  0.2540 -0.1905 -0.0717
 1021SOL    HW2 3856   3.927   4.233   3.691 -1.9508 -0.8699  2.1513
 1021SOL    HW3 3857   3.926   4.380   3.727 -1.3971 -0.7986  1.8964
 1021SOL    MW4 3858   3.896   4.314   3.680 -0.2783 -0.2104 -0.2811
 1022SOL     OW 3859   4.543   0.089   4.278  0.0591 -0.2362 -0.2213
 1022SOL    HW2 3860   4.454   0.083   4.244  0.1994 -1.9775 -0.3800
 1022SOL    HW3 3861   4.595   0.033   4.220  0.9708 -0.4465  0.7585
 1022SOL    MW4 3862   4.538   0.081   4.266 -0.4790  0.4409  0.0631
 1023SOL     OW 3863   3.087   4.577   0.512  0.3290  0.1148  0.6146
 1023SOL    HW2 3864   3.001   4.598   0.549 -0.2005 -0.5090 -0.2291
 1023SOL    HW3 3865   3.141   4.653   0.532  0.1397 -0.2602  2.8457
 1023SOL    MW4 3866   3.082   4.590   0.520  0.0937  0.9943  0.2172
 1024SOL     OW 3867   4.195   3.774   3.005 -0.0673  0.1774  0.0920
 1024SOL    HW2 3868   4.178   3.753   3.097  1.6691 -0.5562  0.2890
 1024SOL    HW3 3869   4.135   3.717   2.956 -0.8020  0.3676  0.7458
 1024SOL    MW4 3870   4.185   3.763   3.010  0.5435  0.0910 -0.1355
 1025SOL     OW 3871   1.994   1.957   4.623 -0.2377 -0.2029  0.6479
 1025SOL    HW2 3872   2.018   1.994   4.708 -0.3822 -0.6123  0.8702
 1025SOL    HW3 3873   2.054   1.998   4.561 -0.4962  0.5244  0.8654
 1025SOL    MW4 3874   2.005   1.967   4.626  0.0617 -0.1202  0.0533
 1026SOL     OW 3875   2.725   4.195   6.129 -0.0759  0.1998  0.0667
 1026SOL    HW2 3876   2.700   4.233   6.044  2.2429  0.8021 -0.4118
 1026SOL    HW3 3877   2.772   4.265   6.174  0.0405 -0.6019  1.2346
 1026SOL    MW4 3878   2.728   4.209   6.124  1.1746  0.1264 -0.4600
 1027SOL     OW 3879   2.894   6.123   1.349  0.6777  0.7245  0.0447
 1027SOL    HW2 3880   2.848   6.184   1.407 -0.0385  0.6774 -0.4592
 1027SOL    HW3 3881   2.825   6.085   1.295  1.3931  1.1772 -1.2223
 1027SOL    MW4 3882   2.879   6.126   1.350 -0.0397 -0.1767  0.2553
 1028SOL     OW 3883   6.227   0.761   0.316 -0.2837  0.6428  0.1338
 1028SOL    HW2 3884   6.226   0.789   0.225  0.4326  0.2390 -0.0123
 1028SOL    HW3 3885   6.163   0.690   0.321  0.2530  0.1162 -0.2564
 1028SOL    MW4 3886   6.219   0.755   0.305 -0.2938 -0.1518 -0.1300
 1029SOL     OW 3887   2.977   4.020   3.124  0.1866  0.2919  0.2784
 1029SOL    HW2 3888   2.963   4.003   3.217  0.4017  1.6982  0.5931
 1029SOL    HW3 3889   2.990   4.115   3.119  0.3484  0.2123 -1.1660
 1029SOL    MW4 3890   2.977   4.031   3.136 -0.3390 -0.1836 -0.6559
 1030SOL     OW 3891   2.806   4.870   4.195 -0.2082 -0.0440 -0.5623
 1030SOL    HW2 3892   2.786   4.782   4.162 -0.3248 -0.0272 -0.5365
 1030SOL    HW3 3893   2.733   4.891   4.253 -0.4441  0.2805 -0.9714
 1030SOL    MW4 3894   2.794   4.861   4.198  0.2305  0.6628 -0.6340
 1031SOL     OW 3895   5.890   1.444   2.954 -0.7861  0.4190 -0.9853
 1031SOL    HW2 3896   5.890   1.500   2.876 -2.4824  2.0946  0.1353
 1031SOL    HW3 3897   5.888   1.505   3.027 -3.5037 -1.0165  0.2869
 1031SOL    MW4 3898   5.890   1.460   2.953  0.2165  0.0795 -0.6597
 1032SOL     OW 3899   1.987   3.691   5.716  0.1172 -0.1234 -0.2359
 1032SOL    HW2 3900   1.986   3.631   5.791 -1.5862 -0.3233 -0.3983
 1032SOL    HW3 3901   1.964   3.776   5.754  0.1522 -0.0455 -0.3902
 1032SOL    MW4 3902   1.984   3.694   5.731 -0.3112 -0.1339  0.6444
 1033SOL     OW 3903   3.642   5.767   0.867  0.4631  0.3770 -0.2597
 1033SOL    HW2 3904   3.672   5.676   0.861  1.0859  0.6929 -2.9277
 1033SOL    HW3 3905   3.570   5.765   0.930 -1.0796 -2.3881 -1.9695
 1033SOL    MW4 3906   3.637   5.755   0.875 -0.4197  0.0185 -0.2173
 1034SOL     OW 3907   2.526   5.783   2.185 -0.0800 -0.1120  0.2482
 1034SOL    HW2 3908   2.557   5.862   2.231  0.4950 -0.8470  1.1627
 1034SOL    HW3 3909   2.504   5.722   2.255 -1.8865 -0.2786 -0.4326
 1034SOL    MW4 3910   2.527   5.786   2.200  0.3898 -0.4975  0.0629
 1035SOL     OW 3911   2.689   3.260   5.208 -0.4936 -0.1652  0.3129
 1035SOL    HW2 3912   2.696   3.165   5.215 -1.3987 -0.2214  0.6815
 1035SOL    HW3 3913   2.755   3.294   5.268 -0.0257 -0.5591  0.0223
 1035SOL    MW4 3914   2.699   3.252   5.217 -0.3890  0.2776  0.0981
 1036SOL     OW 3915   0.338   5.582   2.215 -0.9048 -0.3502  0.4282
 1036SOL    HW2 3916   0.389   5.614   2.289 -0.5443  0.9489 -0.3592
 1036SOL    HW3 3917   0.276   5.652   2.196  0.2784  0.2121 -1.6874
 1036SOL    MW4 3918   0.336   5.595   2.223 -0.2973  0.6091 -0.3646
 1037SOL     OW 3919   5.675   1.720   1.959  0.0686 -0.2768 -0.3978
 1037SOL    HW2 3920   5.642   1.635   1.987 -0.2762 -0.3308 -0.9566
 1037SOL    HW3 3921   5.750   1.699   1.903  0.3998 -0.1854  0.0003
 1037SOL    MW4 3922   5.681   1.706   1.955  0.1395 -0.0583 -0.3399
 1038SOL     OW 3923   3.804   2.809   1.044 -0.0700 -0.0914 -0.1229
 1038SOL    HW2 3924   3.758   2.794   1.127 -0.4179  0.5650 -0.1955
 1038SOL    HW3 3925   3.894   2.827   1.069  0.7534 -3.5156 -0.0642
 1038SOL    MW4 3926   3.810   2.809   1.058  0.0001  0.5709 -0.7832
 1039SOL     OW 3927   2.738   3.554   5.726 -0.0387  0.0203  0.4118
 1039SOL    HW2 3928   2.728   3.463   5.698 -0.1312  0.3642 -0.7128
 1039SOL    HW3 3929   2.830   3.573   5.713 -0.3102  0.5628 -0.9277
 1039SOL    MW4 3930   2.749   3.545   5.721  0.2276 -0.3655 -0.2136
 1040SOL     OW 3931   4.384   2.868   1.048 -0.1064 -0.4815 -0.2823
 1040SOL    HW2 3932   4.321   2.804   1.082 -1.1860  0.7528  0.1508
 1040SOL    HW3 3933   4.437   2.891   1.124 -1.2417  0.8099  0.1870
 1040SOL    MW4 3934   4.382   2.863   1.063 -0.2341  0.2765 -0.3699
 1041SOL     OW 3935   0.267   3.511   4.147  0.5437 -0.3519  0.2803
 1041SOL    HW2 3936   0.299   3.599   4.126 -1.4816  0.2057 -0.7862
 1041SOL    HW3 3937   0.212   3.523   4.225 -0.4124 -0.4689 -0.3474
 1041SOL    MW4 3938   0.264   3.524   4.154 -0.2685 -0.0052  0.3947
 1042SOL     OW 3939   6.240   0.747   4.213  0.5002 -0.1793 -0.3838
 1042SOL    HW2 3940   6.243   0.656   4.184  3.6688 -0.0107 -0.8702
 1042SOL    HW3 3941   6.155   0.779   4.181 -0.6200 -2.8478 -0.3592
 1042SOL    MW4 3942   6.229   0.739   4.205  0.3585  0.4141 -0.7245
 1043SOL     OW 3943   4.399   4.034   0.536  0.6824  0.0706  0.1319
 1043SOL    HW2 3944   4.378   3.963   0.475  0.6006 -2.0351  2.4817
 1043SOL    HW3 3945   4.334   4.101   0.517  0.4138 -0.6463 -1.7949
 1043SOL    MW4 3946   4.388   4.034   0.525 -0.6257 -0.0109  1.2288
 1044SOL     OW 3947   5.001   5.750   4.279 -0.0844  0.2081 -0.5378
 1044SOL    HW2 3948   5.085   5.727   4.320 -0.6560 -0.3859  0.3402
 1044SOL    HW3 3949   5.011   5.842   4.254  0.6232  0.3166  0.0978
 1044SOL    MW4 3950   5.013   5.759   4.281  0.0959 -0.2827 -0.0251
 1045SOL     OW 3951   1.254   0.617   5.990  0.0761  0.2165  0.5626
 1045SOL    HW2 3952   1.172   0.660   6.015  0.2159 -1.3016  4.3830
 1045SOL    HW3 3953   1.320   0.657   6.046  1.2869 -0.9244 -0.0065
 1045SOL    MW4 3954   1.252   0.628   6.000  0.1628  0.2043 -0.1463
 1046SOL     OW 3955   5.778   1.172   2.308  0.2864  0.1020 -0.6658
 1046SOL    HW2 3956   5.814   1.216   2.386  1.0179 -0.1571 -0.8444
 1046SOL    HW3 3957   5.731   1.097   2.343  0.1496  0.2912 -0.4391
 1046SOL    MW4 3958   5.777   1.168   2.323 -0.4250  0.3581  0.0322
 1047SOL     OW 3959   3.782   5.562   2.300  0.0120 -0.5447 -0.0431
 1047SOL    HW2 3960   3.695   5.602   2.309  0.6080  0.5714  1.0286
 1047SOL    HW3 3961   3.814   5.592   2.216 -1.0896 -1.9241 -1.0087
 1047SOL    MW4 3962   3.775   5.571   2.290  0.3798  0.3196 -0.2304
 1048SOL     OW 3963   4.061   0.688   3.252 -0.2921 -0.4533  0.0340
 1048SOL    HW2 3964   4.046   0.632   3.176  1.1799  0.5100 -1.0298
 1048SOL    HW3 3965   3.979   0.736   3.264  0.1790  1.1841 -2.5396
 1048SOL    MW4 3966   4.048   0.687   3.244 -0.0863 -0.0622  0.1362
 1049SOL     OW 3967   3.774   0.443   5.175 -0.5246 -0.3056  0.0257
 1049SOL    HW2 3968   3.852   0.441   5.120  0.3195  2.2497  0.9593
 1049SOL    HW3 3969   3.702   0.462   5.115  0.0197  0.1132 -0.5039
 1049SOL    MW4 3970   3.775   0.445   5.160  0.2713  0.0943  0.3858
 1050SOL     OW 3971   0.832   5.089   6.355  0.3855  0.4374 -0.1005
 1050SOL    HW2 3972   0.762   5.154   6.360 -2.4181 -2.4235  2.7614
 1050SOL    HW3 3973   0.904   5.128   6.405 -0.8447  1.7705  0.7070
 1050SOL    MW4 3974   0.832   5.103   6.362 -0.1785 -0.3358 -0.0527
 1051SOL     OW 3975   5.819   1.600   6.082  0.1807 -0.2024 -1.1022
 1051SOL    HW2 3976   5.831   1.691   6.055  0.6803  0.4946  1.2065
 1051SOL    HW3 3977   5.907   1.562   6.076 -0.0323 -0.5628 -2.0873
 1051SOL    MW4 3978   5.833   1.607   6.078 -0.4306  0.3727 -0.5269
 1052SOL     OW 3979   5.406   6.121   3.112 -0.4937  0.3008 -0.1783
 1052SOL    HW2 3980   5.408   6.189   3.044 -2.3266  0.6027  0.0222
 1052SOL    HW3 3981   5.318   6.085   3.107  0.7826 -3.0268 -1.1549
 1052SOL    MW4 3982   5.395   6.125   3.102  0.5174  0.2645 -0.0609
 1053SOL     OW 3983   3.736   5.836   6.408  0.5696  1.0712  0.5584
 1053SOL    HW2 3984   3.784   5.880   6.479  1.6809  0.9353 -0.0945
 1053SOL    HW3 3985   3.802   5.821   6.340 -0.6408  1.9454 -0.8674
 1053SOL    MW4 3986   3.751   5.840   6.409 -0.2494 -0.2932  0.6571
 1054SOL     OW 3987   5.773   1.534   5.355 -0.1927  0.3862 -0.5142
 1054SOL    HW2 3988   5.720   1.460   5.324  0.7593 -1.0966  1.2204
 1054SOL    HW3 3989   5.853   1.495   5.388  0.3324  2.2019  0.5207
 1054SOL    MW4 3990   5.776   1.519   5.355 -0.4112 -0.6457 -0.4020
 1055SOL     OW 3991   2.838   2.224   5.172  0.4413  0.1041 -0.1400
 1055SOL    HW2 3992   2.843   2.317   5.194 -0.5390  0.4107 -1.1292
 1055SOL    HW3 3993   2.811   2.181   5.253 -2.7866  1.1721 -0.5115
 1055SOL    MW4 3994   2.835   2.230   5.185 -0.4563 -0.2659  0.3280
 1056SOL     OW 3995   5.439   2.789   2.338 -0.6111  0.4635 -0.0382
 1056SOL    HW2 3996   5.386   2.776   2.259  0.3863 -0.2864 -0.6066
 1056SOL    HW3 3997   5.507   2.851   2.311  0.7411 -1.0683 -0.2978
 1056SOL    MW4 3998   5.441   2.795   2.324  0.0485 -0.8796  0.2117
 1057SOL     OW 3999   2.837   1.040   1.207 -0.6699 -0.7902 -0.2338
 1057SOL    HW2 4000   2.751   1.068   1.239 -0.5661 -0.6935 -0.0369
 1057SOL    HW3 4001   2.866   1.110   1.149  0.2293  0.2452  1.3685
 1057SOL    MW4 4002   2.830   1.053   1.203 -0.0958 -0.5787 -0.1026
 1058SOL     OW 4003   4.859   1.926   3.150  0.1637 -0.0325  0.3837
 1058SOL    HW2 4004   4.931   1.871   3.179 -0.3171 -1.3201 -0.7453
 1058SOL    HW3 4005   4.900   1.998   3.102  0.6670 -1.7700 -1.9082
 1058SOL    MW4 4006   4.874   1.929   3.148 -0.2696 -0.7783 -0.2279
 1059SOL     OW 4007   4.625   4.522   0.421 -0.4942 -0.0902  0.0575
 1059SOL    HW2 4008   4.587   4.459   0.482 -1.8671  0.2398 -0.4234
 1059SOL    HW3 4009   4.697   4.476   0.380 -2.4386 -1.9661 -1.4700
 1059SOL    MW4 4010   4.629   4.508   0.424 -0.0967  0.8509 -0.3988
 1060SOL     OW 4011   1.778   2.737   2.448 -0.1377  0.3412  0.1616
 1060SOL    HW2 4012   1.782   2.678   2.523 -0.6920 -1.8417 -1.4132
 1060SOL    HW3 4013   1.685   2.759   2.440 -0.0796  0.5789  0.1595
 1060SOL    MW4 4014   1.766   2.732   2.457  0.4188 -0.1630  0.0995
 1061SOL     OW 4015   6.145   1.672   0.308 -0.3445 -0.5378 -0.1829
 1061SOL    HW2 4016   6.216   1.728   0.278  1.4397 -1.9691  1.0900
 1061SOL    HW3 4017   6.154   1.670   0.404 -0.4218 -2.8007 -0.1604
 1061SOL    MW4 4018   6.155   1.679   0.317  0.3975  0.2819 -0.9437
 1062SOL     OW 4019   5.016   5.626   1.894  0.6509  0.5387  0.0686
 1062SOL    HW2 4020   4.951   5.676   1.844 -0.1944  0.6289  1.2180
 1062SOL    HW3 4021   4.974   5.542   1.911  0.5233  0.8573  1.4382
 1062SOL    MW4 4022   5.002   5.622   1.890  0.0570 -0.1156  0.2277
 1063SOL     OW 4023   3.882   6.009   0.141  0.7816 -0.6095 -0.1617
 1063SOL    HW2 4024   3.899   6.103   0.142  1.3016 -0.6782 -1.2898
 1063SOL    HW3 4025   3.835   5.992   0.222 -0.6830  0.8751 -0.6679
 1063SOL    MW4 4026   3.878   6.019   0.152  0.2935  0.3865  0.3215
 1064SOL     OW 4027   5.461   4.439   0.133  0.2613 -0.0974 -0.0034
 1064SOL    HW2 4028   5.553   4.415   0.122  0.8117  2.4701 -2.0654
 1064SOL    HW3 4029   5.440   4.413   0.223  2.6986 -1.5812  0.2355
 1064SOL    MW4 4030   5.470   4.432   0.144 -0.3662 -0.4911  0.0970
 1065SOL     OW 4031   1.829   0.534   6.035 -0.3974  0.0154 -0.0697
 1065SOL    HW2 4032   1.740   0.500   6.025 -0.0170 -0.9077 -0.4373
 1065SOL    HW3 4033   1.885   0.468   5.994  0.5481  0.1339  0.9762
 1065SOL    MW4 4034   1.825   0.521   6.028 -0.1417 -0.5122  0.7777
 1066SOL     OW 4035   2.841   0.321   1.879 -0.0517 -0.2524 -0.5256
 1066SOL    HW2 4036   2.884   0.236   1.873  0.9298  0.2224 -0.2367
 1066SOL    HW3 4037   2.903   0.383   1.841 -0.9265  0.2944 -1.1306
 1066SOL    MW4 4038   2.855   0.318   1.873 -0.2264 -0.4850 -0.2623
 1067SOL     OW 4039   4.144   1.002   1.889 -0.0202  0.4385 -0.0075
 1067SOL    HW2 4040   4.182   0.917   1.911 -0.8906 -0.0360 -0.2936
 1067SOL    HW3 4041   4.053   0.983   1.867 -0.1352  1.3980 -0.4239
 1067SOL    MW4 4042   4.137   0.988   1.889 -0.2261  0.2652 -0.1154
 1068SOL     OW 4043   1.117   1.438   2.539 -0.8702  0.0917 -0.1086
 1068SOL    HW2 4044   1.139   1.495   2.613 -0.1158 -0.2115 -0.0933
 1068SOL    HW3 4045   1.024   1.418   2.550 -0.5430 -0.7258  1.2814
 1068SOL    MW4 4046   1.108   1.443   2.550  0.3057  0.2635 -0.1686
 1069SOL     OW 4047   4.508   1.960   4.455  0.2909 -0.0345 -0.1842
 1069SOL    HW2 4048   4.424   1.921   4.430 -0.5720  1.7523 -0.2309
 1069SOL    HW3 4049   4.529   1.921   4.540 -0.0332 -1.2670 -0.6394
 1069SOL    MW4 4050   4.500   1.950   4.463 -0.1263 -0.2129 -0.2889
 1070SOL     OW 4051   5.277   2.098   1.226 -0.2586  0.2599 -0.2520
 1070SOL    HW2 4052   5.357   2.065   1.265 -0.1643 -0.4960 -1.0456
 1070SOL    HW3 4053   5.216   2.109   1.299  0.6425  1.0898  0.3842
 1070SOL    MW4 4054   5.279   2.095   1.240  0.2734  0.3185 -0.2677
 1071SOL     OW 4055   3.501   5.412   5.486  0.2944  0.3415 -0.2630
 1071SOL    HW2 4056   3.414   5.373   5.476  0.2711 -0.2482  1.7482
 1071SOL    HW3 4057   3.485   5.506   5.495 -0.0017  0.3909 -1.2739
 1071SOL    MW4 4058   3.488   5.420   5.486 -0.6242 -0.0542  0.6969
 1072SOL     OW 4059   5.496   5.182   4.541  0.0894  0.0448  0.0742
 1072SOL    HW2 4060   5.450   5.194   4.625  0.8443 -1.2829  0.7008
 1072SOL    HW3 4061   5.569   5.244   4.544 -0.0336  0.1793  0.2871
 1072SOL    MW4 4062   5.499   5.192   4.552  0.6694  0.3752  0.3166
 1073SOL     OW 4063   2.815   3.532   0.502  0.7878  0.0962  0.1001
 1073SOL    HW2 4064   2.770   3.454   0.470  3.2934 -0.9483 -1.1068
 1073SOL    HW3 4065   2.778   3.603   0.450  0.3238 -0.6584 -0.6268
 1073SOL    MW4 4066   2.804   3.531   0.491  0.6456 -0.5507 -0.1177
 1074SOL     OW 4067   1.025   1.951   3.804  0.0653 -0.1041  0.4912
 1074SOL    HW2 4068   1.033   1.898   3.883 -2.8387 -1.4832 -0.0225
 1074SOL    HW3 4069   0.974   1.897   3.743 -0.6178  2.1812 -1.1225
 1074SOL    MW4 4070   1.019   1.937   3.806  0.1777  0.0739 -0.2553
 1075SOL     OW 4071   6.125   1.123   0.047  0.9538  0.0793  0.5336
 1075SOL    HW2 4072   6.102   1.160   0.132 -1.1978 -1.7302  0.8333
 1075SOL    HW3 4073   6.042   1.120  -0.001  2.1172  1.1330 -1.7215
 1075SOL    MW4 4074   6.111   1.127   0.052  0.1742  0.1531  0.7378
 1076SOL     OW 4075   2.251   3.546   4.672  1.2687 -0.0349  0.1601
 1076SOL    HW2 4076   2.180   3.502   4.625  0.2813 -0.5405  1.9886
 1076SOL    HW3 4077   2.255   3.633   4.634  0.3373 -0.3324 -0.6687
 1076SOL    MW4 4078   2.242   3.552   4.661  0.3106 -0.5455  0.2224
 1077SOL     OW 4079   5.047   1.382   4.825 -0.1316  0.0693 -0.4669
 1077SOL    HW2 4080   5.112   1.452   4.826 -2.2162  2.1783 -1.0068
 1077SOL    HW3 4081   5.058   1.340   4.740  0.7296  0.1799 -0.4162
 1077SOL    MW4 4082   5.057   1.386   4.814  0.6407 -0.2095  0.6129
 1078SOL     OW 4083   2.164   1.888   1.622  0.3905  0.0882  0.5445
 1078SOL    HW2 4084   2.107   1.822   1.582  0.2546 -0.0579  0.9788
 1078SOL    HW3 4085   2.106   1.936   1.681  1.0426 -1.0491  2.1580
 1078SOL    MW4 4086   2.149   1.886   1.624 -0.0076 -0.5763 -0.2629
 1079SOL     OW 4087   1.393   6.062   3.611  0.2704  0.2894 -0.1221
 1079SOL    HW2 4088   1.307   6.094   3.637  0.4737  1.5004 -0.8604
 1079SOL    HW3 4089   1.451   6.088   3.682  0.6074  2.5237 -1.1169
 1079SOL    MW4 4090   1.389   6.069   3.624  0.5100 -0.2080  0.7502
 1080SOL     OW 4091   2.486   1.584   4.833 -0.1358  0.3362 -0.1313
 1080SOL    HW2 4092   2.435   1.523   4.886 -2.3581 -0.6177 -3.1519
 1080SOL    HW3 4093   2.468   1.669   4.871 -1.0665 -0.3654  1.0817
 1080SOL    MW4 4094   2.477   1.587   4.845 -0.1965 -0.5003 -0.2343
 1081SOL     OW 4095   3.455   2.001   0.138  0.5747  0.1118  0.5534
 1081SOL    HW2 4096   3.405   2.056   0.077  1.5357  2.2188  1.5541
 1081SOL    HW3 4097   3.388   1.948   0.182 -0.5491  1.2035  0.2350
 1081SOL    MW4 4098   3.439   2.001   0.136 -0.4685  0.1704  0.4644
 1082SOL     OW 4099   4.348   5.292   1.951  0.2055  0.2739 -0.0674
 1082SOL    HW2 4100   4.349   5.370   1.895 -0.2011 -0.0895 -0.5806
 1082SOL    HW3 4101   4.400   5.227   1.903 -0.7927 -0.2929 -0.4024
 1082SOL    MW4 4102   4.355   5.294   1.937 -0.0386 -0.1210  0.0293
 1083SOL     OW 4103   3.899   2.445   4.499  0.0908  0.1684  0.0464
 1083SOL    HW2 4104   3.881   2.363   4.455 -2.2701  0.7193 -0.1399
 1083SOL    HW3 4105   3.958   2.421   4.571 -1.5477 -1.9205  0.7889
 1083SOL    MW4 4106   3.905   2.431   4.503 -0.8637  0.1725 -0.6123
 1084SOL     OW 4107   2.414   6.228   2.104 -0.6145 -0.9210  0.1304
 1084SOL    HW2 4108   2.435   6.269   2.020  0.0292 -1.9565 -0.2422
 1084SOL    HW3 4109   2.364   6.150   2.081 -2.4757  0.0075  0.8639
 1084SOL    MW4 4110   2.410   6.223   2.090  0.0914  0.1793  0.2483
 1085SOL     OW 4111   4.048   4.949   1.390  0.1226 -0.4213  0.0933
 1085SOL    HW2 4112   4.136   4.950   1.352  1.2210  1.3642  2.4702
 1085SOL    HW3 4113   4.059   4.908   1.475 -0.7074  2.2801  1.6068
 1085SOL    MW4 4114   4.061   4.944   1.396 -0.2127  0.0208  0.4010
 1086SOL     OW 4115   5.258   1.064   4.837 -0.1880 -0.1992 -0.5712
 1086SOL    HW2 4116   5.178   1.098   4.797 -1.3702  0.5747  2.2132
 1086SOL    HW3 4117   5.235   0.975   4.863 -0.3558  0.1795  0.6475
 1086SOL    MW4 4118   5.244   1.057   4.835  0.1232  0.4164 -0.1423
 1087SOL     OW 4119   4.996   5.410   0.219  0.2363  0.2739  0.0919
 1087SOL    HW2 4120   5.011   5.324   0.258 -0.5741 -0.4384 -1.1136
 1087SOL    HW3 4121   4.908   5.406   0.183  0.6217  1.2043 -1.0204
 1087SOL    MW4 4122   4.987   5.398   0.220 -0.1269  0.0408  0.2533
 1088SOL     OW 4123   1.086   5.799   0.046 -0.3114  0.3538 -0.2696
 1088SOL    HW2 4124   1.088   5.850  -0.035 -0.1435  0.4231 -0.2219
 1088SOL    HW3 4125   1.033   5.722   0.025 -1.4902  1.0693 -0.0380
 1088SOL    MW4 4126   1.079   5.795   0.033  0.1948 -0.7491 -0.2674
 1089SOL     OW 4127   5.280   5.577   1.792  0.1817  0.0164 -0.2446
 1089SOL    HW2 4128   5.244   5.501   1.745 -1.0094 -1.5232  2.8141
 1089SOL    HW3 4129   5.203   5.628   1.816  0.6719  0.3975  0.5411
 1089SOL    MW4 4130   5.265   5.573   1.789 -0.2193  0.1423  0.0124
 1090SOL     OW 4131   2.375   5.155   2.827  0.1329 -0.6034 -0.2567
 1090SOL    HW2 4132   2.298   5.198   2.790 -0.5920 -2.3779 -0.9217
 1090SOL    HW3 4133   2.375   5.181   2.919 -1.1458 -0.4093 -0.2904
 1090SOL    MW4 4134   2.365   5.164   2.834  0.1285 -0.0122  0.2313
 1091SOL     OW 4135   0.091   4.969   1.261 -0.2786 -0.2181  0.2109
 1091SOL    HW2 4136   0.125   4.900   1.204 -0.5966 -1.8810  1.9054
 1091SOL    HW3 4137   0.013   5.001   1.216  0.2250 -0.5166 -0.9082
 1091SOL    MW4 4138   0.085   4.964   1.247 -0.4935  0.3177 -0.4578
 1092SOL     OW 4139   0.050   1.594   3.061  0.1420  0.0396  0.0804
 1092SOL    HW2 4140   0.027   1.633   2.977  0.7111 -1.3893 -0.7780
 1092SOL    HW3 4141  -0.024   1.537   3.083  0.6860 -0.8149 -0.2623
 1092SOL    MW4 4142   0.037   1.592   3.053 -0.5539  0.6176  0.1940
 1093SOL     OW 4143   1.947   0.923   3.641 -0.1179 -0.2134 -0.5791
 1093SOL    HW2 4144   1.946   0.921   3.737  1.0905 -0.5081 -0.5565
 1093SOL    HW3 4145   1.993   1.004   3.620 -0.3860 -0.1493 -0.9124
 1093SOL    MW4 4146   1.953   0.933   3.651  0.0191  0.3195 -0.3402
 1094SOL     OW 4147   0.307   2.656   4.512  0.0465  0.0072 -0.0665
 1094SOL    HW2 4148   0.352   2.737   4.537  0.5063  0.0766 -1.0916
 1094SOL    HW3 4149   0.378   2.592   4.502 -0.0152  0.1716 -1.9163
 1094SOL    MW4 4150   0.323   2.658   4.514 -0.0382  0.3846 -0.0848
 1095SOL     OW 4151   4.523   3.183   1.545 -0.0823 -0.1199 -0.1017
 1095SOL    HW2 4152   4.604   3.144   1.576 -1.2044 -1.0075  1.9076
 1095SOL    HW3 4153   4.455   3.121   1.571 -1.4822  0.8974 -1.1604
 1095SOL    MW4 4154   4.524   3.170   1.552  0.1533  0.2546  0.2909
 1096SOL     OW 4155   1.254   6.235   1.870  0.0905  0.5370 -0.1180
 1096SOL    HW2 4156   1.214   6.320   1.891  0.4572  0.9716 -1.1409
 1096SOL    HW3 4157   1.249   6.229   1.775 -1.2569 -1.2567  0.0248
 1096SOL    MW4 4158   1.248   6.245   1.861  0.9776  0.0576 -0.4764
 1097SOL     OW 4159   6.025   2.194   2.453  0.2464  0.2360  0.0963
 1097SOL    HW2 4160   6.069   2.109   2.463 -0.6771 -0.1807  0.7695
 1097SOL    HW3 4161   6.067   2.250   2.518 -1.0456 -0.5222  1.6438
 1097SOL    MW4 4162   6.036   2.190   2.463 -0.4052 -0.0736  0.8355
 1098SOL     OW 4163   5.210   2.564   4.081 -0.0413  0.0167  0.1366
 1098SOL    HW2 4164   5.146   2.540   4.013  1.2867 -0.5371 -0.9772
 1098SOL    HW3 4165   5.272   2.491   4.081  0.7725  0.6885  0.9501
 1098SOL    MW4 4166   5.210   2.551   4.072  0.1578 -0.0924  0.3441
 1099SOL     OW 4167   5.698   4.551   2.249 -0.0722 -0.0862 -0.2125
 1099SOL    HW2 4168   5.735   4.635   2.275  2.8059 -1.9705  2.4999
 1099SOL    HW3 4169   5.732   4.536   2.161  1.6400  0.4571  0.3181
 1099SOL    MW4 4170   5.707   4.560   2.241 -0.0326 -0.1601 -0.3995
 1100SOL     OW 4171   4.961   1.900   1.559 -0.2598  0.4729 -0.1846
 1100SOL    HW2 4172   4.871   1.910   1.589 -0.2336 -1.3102  0.6127
 1100SOL    HW3 4173   5.013   1.894   1.639 -0.0802 -3.4796 -0.3944
 1100SOL    MW4 4174   4.956   1.900   1.573  0.1847 -0.0653 -0.4355
 1101SOL     OW 4175   4.956   3.746   5.782 -0.0937 -0.1778  0.3107
 1101SOL    HW2 4176   4.906   3.665   5.782  2.0335 -1.6236 -2.0589
 1101SOL    HW3 4177   4.945   3.782   5.694 -2.0416  2.9409  1.6360
 1101SOL    MW4 4178   4.948   3.740   5.770  0.4771  0.5548 -0.3013
 1102SOL     OW 4179   6.325   4.913   2.202  0.1463  0.8900 -0.3498
 1102SOL    HW2 4180   6.362   5.000   2.214  1.5042 -0.0015  3.1263
 1102SOL    HW3 4181   6.255   4.925   2.137  1.1434  4.2498 -0.9719
 1102SOL    MW4 4182   6.321   4.926   2.195  0.3368  0.2411 -0.0879
 1103SOL     OW 4183   1.246   4.491   1.184  0.1756  0.2735  0.1576
 1103SOL    HW2 4184   1.246   4.396   1.196  0.7929  0.1088 -1.0286
 1103SOL    HW3 4185   1.153   4.515   1.186  0.0281 -0.3176  0.7000
 1103SOL    MW4 4186   1.234   4.482   1.186  0.3919  0.0865  0.6414
 1104SOL     OW 4187   0.359   3.742   3.821 -0.1297  0.1312  0.0960
 1104SOL    HW2 4188   0.267   3.762   3.804 -0.4693  0.2093  1.8664
 1104SOL    HW3 4189   0.368   3.746   3.916  1.7812  0.4442 -0.0472
 1104SOL    MW4 4190   0.348   3.745   3.832  0.4074 -0.4922 -0.0796
 1105SOL     OW 4191   5.205   1.666   2.342 -0.3546 -0.2569 -0.5964
 1105SOL    HW2 4192   5.238   1.665   2.252 -0.3703  2.5695 -0.7190
 1105SOL    HW3 4193   5.125   1.614   2.339 -0.1417 -0.5352 -2.1123
 1105SOL    MW4 4194   5.199   1.659   2.330  0.1914  0.5796 -0.1700
 1106SOL     OW 4195   4.117   1.762   1.914 -0.1477 -0.0533 -0.8128
 1106SOL    HW2 4196   4.182   1.750   1.844  0.7985 -0.2545  0.0719
 1106SOL    HW3 4197   4.125   1.854   1.939  1.5339 -0.5824  0.8907
 1106SOL    MW4 4198   4.127   1.772   1.908 -0.4953 -0.2170  0.0858
 1107SOL     OW 4199   1.675   0.114   0.436 -0.5022  0.7737 -0.2279
 1107SOL    HW2 4200   1.640   0.030   0.404 -3.3183  0.7696  2.3924
 1107SOL    HW3 4201   1.756   0.090   0.482 -0.0911 -0.1564 -1.3994
 1107SOL    MW4 4202   1.681   0.099   0.438  0.5245  0.7839  0.3414
 1108SOL     OW 4203   5.540   3.800   3.171  0.3190 -0.6477  0.5503
 1108SOL    HW2 4204   5.609   3.846   3.123 -1.0882  1.1975  0.1754
 1108SOL    HW3 4205   5.495   3.748   3.104 -1.6302  1.9102 -0.2844
 1108SOL    MW4 4206   5.543   3.799   3.156  0.7592  0.2533 -0.2482
 1109SOL     OW 4207   1.744   2.802   5.239 -0.0256 -0.1619  0.1836
 1109SOL    HW2 4208   1.778   2.719   5.273 -1.4362 -0.8687 -0.0856
 1109SOL    HW3 4209   1.689   2.777   5.165  0.8446  1.1571 -0.9653
 1109SOL    MW4 4210   1.741   2.788   5.234  0.0191  0.0457  0.0655
 1110SOL     OW 4211   5.819   5.313   3.622  0.2243 -0.3065  0.0811
 1110SOL    HW2 4212   5.855   5.281   3.704 -0.5516 -0.2619  0.4451
 1110SOL    HW3 4213   5.860   5.258   3.555  0.5131 -0.6480  0.5346
 1110SOL    MW4 4214   5.829   5.301   3.624 -0.2678 -0.0523  0.0416
 1111SOL     OW 4215   3.660   1.116   1.426 -0.2065 -0.0206 -0.4097
 1111SOL    HW2 4216   3.695   1.205   1.436 -0.9975  0.8560 -4.1166
 1111SOL    HW3 4217   3.585   1.113   1.485  1.2700  0.7955  1.6644
 1111SOL    MW4 4218   3.655   1.127   1.435 -0.2146  0.4839  0.0135
 1112SOL     OW 4219   2.239   1.694   0.563  0.0807 -0.1508 -0.0355
 1112SOL    HW2 4220   2.144   1.694   0.551  0.2421 -1.6364 -1.8412
 1112SOL    HW3 4221   2.268   1.779   0.530 -0.6108  0.3530  0.6206
 1112SOL    MW4 4222   2.231   1.705   0.557 -0.2203 -0.0171  0.4463
 1113SOL     OW 4223   1.945   2.480   3.736 -0.1965  0.0841  0.5965
 1113SOL    HW2 4224   2.022   2.427   3.755  0.3649  0.6107 -0.1510
 1113SOL    HW3 4225   1.967   2.567   3.771  0.2112  0.6489 -0.9690
 1113SOL    MW4 4226   1.958   2.485   3.743  0.3887 -0.2786  0.0730
 1114SOL     OW 4227   1.016   2.820   6.258  0.8889  0.0420 -0.5032
 1114SOL    HW2 4228   0.950   2.769   6.211 -0.6046  1.3065  0.1493
 1114SOL    HW3 4229   1.015   2.906   6.215  0.3245  0.8464  1.0330
 1114SOL    MW4 4230   1.007   2.825   6.246 -0.1327  0.1281 -0.1424
 1115SOL     OW 4231   5.031   4.230   4.069 -0.2668 -0.1623  0.0375
 1115SOL    HW2 4232   5.024   4.289   3.994 -0.6303 -0.5426 -0.2306
 1115SOL    HW3 4233   5.070   4.150   4.034 -0.0182 -0.1807  0.3482
 1115SOL    MW4 4234   5.035   4.228   4.055 -0.3669  0.1783 -0.3095
 1116SOL     OW 4235   4.205   1.107   2.569  0.3025 -0.4207 -0.0010
 1116SOL    HW2 4236   4.221   1.035   2.629  0.5831 -0.8860 -0.6170
 1116SOL    HW3 4237   4.251   1.182   2.607  2.5034 -1.2759 -0.7958
 1116SOL    MW4 4238   4.213   1.108   2.582  0.0591 -0.1417  0.3598
 1117SOL     OW 4239   3.936   3.888   1.016  0.2978  0.3704  0.3361
 1117SOL    HW2 4240   3.852   3.928   0.990  0.3125  0.2216  0.0581
 1117SOL    HW3 4241   3.984   3.879   0.934  0.5079  0.2693  0.4714
 1117SOL    MW4 4242   3.931   3.892   1.002 -0.3057 -0.7621 -0.2893
 1118SOL     OW 4243   4.686   3.439   3.882 -0.1028  0.1525  0.1436
 1118SOL    HW2 4244   4.619   3.388   3.927  1.5802 -1.1625  1.3033
 1118SOL    HW3 4245   4.694   3.397   3.797  0.2040 -0.5925  0.5258
 1118SOL    MW4 4246   4.678   3.427   3.877  0.5818  0.4177 -0.2851
 1119SOL     OW 4247   1.736   3.174   0.189  0.5622  0.0181  0.5615
 1119SOL    HW2 4248   1.712   3.229   0.114 -0.2319 -0.5093  0.4132
 1119SOL    HW3 4249   1.674   3.100   0.185  0.5170 -0.0211  1.7268
 1119SOL    MW4 4250   1.724   3.171   0.178  0.5031  0.2723 -0.5999
 1120SOL     OW 4251   4.176   1.148   4.288  0.5392 -0.4127  0.0103
 1120SOL    HW2 4252   4.138   1.190   4.365 -0.1787  0.5036 -0.8061
 1120SOL    HW3 4253   4.113   1.079   4.266  0.0929  0.1219 -0.4497
 1120SOL    MW4 4254   4.162   1.145   4.295 -0.2852 -0.6009  0.2785
 1121SOL     OW 4255   2.652   3.322   3.979  0.4547  0.0328  0.0365
 1121SOL    HW2 4256   2.589   3.271   4.030  1.3466  0.2189  1.3807
 1121SOL    HW3 4257   2.675   3.395   4.036  1.9745 -0.0957 -0.3672
 1121SOL    MW4 4258   2.646   3.325   3.993  0.0857  0.1894 -0.2057
 1122SOL     OW 4259   0.796   3.704   3.169 -0.6885  0.5697  0.0029
 1122SOL    HW2 4260   0.729   3.742   3.226 -1.4224 -0.9230  0.1716
 1122SOL    HW3 4261   0.747   3.671   3.093  0.1707  1.6857 -1.0881
 1122SOL    MW4 4262   0.781   3.705   3.166  0.1262  0.4253 -0.2995
 1123SOL     OW 4263   6.229   4.905   5.892  0.4514  0.0959 -0.4253
 1123SOL    HW2 4264   6.290   4.864   5.831  1.9625  1.5390  0.0292
 1123SOL    HW3 4265   6.198   4.983   5.846 -0.3227 -0.1073 -0.2664
 1123SOL    MW4 4266   6.233   4.910   5.878  0.2735 -0.4283 -0.0603
 1124SOL     OW 4267   1.225   3.100   4.511 -0.3996 -0.2161 -0.0416
 1124SOL    HW2 4268   1.223   3.196   4.511 -0.8772 -0.2268  0.1500
 1124SOL    HW3 4269   1.203   3.076   4.421  1.6784 -0.1128 -0.6311
 1124SOL    MW4 4270   1.222   3.110   4.499 -0.5090 -0.6985  0.2016
 1125SOL     OW 4271   2.225   3.118   0.603 -0.3296  0.4376 -0.3735
 1125SOL    HW2 4272   2.255   3.180   0.669 -1.2764  0.8293 -0.2950
 1125SOL    HW3 4273   2.301   3.061   0.587  0.2659  1.0522  0.2036
 1125SOL    MW4 4274   2.239   3.118   0.609 -0.0560 -0.0113  0.0354
 1126SOL     OW 4275   3.147   1.633   3.159  0.9179  0.1970  0.2261
 1126SOL    HW2 4276   3.135   1.539   3.143 -0.4790  0.1803  1.2048
 1126SOL    HW3 4277   3.086   1.675   3.099 -1.4761  0.2767  2.5665
 1126SOL    MW4 4278   3.138   1.626   3.149 -0.4464  0.2771  0.1255
 1127SOL     OW 4279   4.606   5.863   4.363  0.0720 -0.4616  0.0447
 1127SOL    HW2 4280   4.513   5.883   4.361  0.1670 -0.0746 -1.2302
 1127SOL    HW3 4281   4.625   5.824   4.278  1.1048 -0.3930  0.2234
 1127SOL    MW4 4282   4.597   5.860   4.352 -0.5733 -0.2823  0.2825
 1128SOL     OW 4283   4.513   4.642   1.729  0.6543 -0.6853 -0.2383
 1128SOL    HW2 4284   4.507   4.641   1.824 -0.8500  2.2843 -0.1917
 1128SOL    HW3 4285   4.557   4.724   1.708 -2.0438  0.4652 -2.0793
 1128SOL    MW4 4286   4.518   4.653   1.739 -0.2561 -0.5369  0.4700
 1129SOL     OW 4287   2.928   0.322   0.946  0.0534  0.5003  0.4487
 1129SOL    HW2 4288   2.899   0.231   0.954 -0.5418  0.5663 -0.7425
 1129SOL    HW3 4289   2.931   0.338   0.852 -0.7157  1.9836  0.6484
 1129SOL    MW4 4290   2.925   0.312   0.935 -0.2677  0.3096 -0.3565
 1130SOL     OW 4291   2.919   5.992   2.198  0.2254 -0.0008  0.4321
 1130SOL    HW2 4292   2.869   5.979   2.117  2.2770 -0.7565 -0.8077
 1130SOL    HW3 4293   2.923   5.905   2.238 -0.8706  0.3913  1.4357
 1130SOL    MW4 4294   2.913   5.979   2.192  0.1818  0.3098  0.6465
 1131SOL     OW 4295   4.653   6.010   0.232 -0.3925  0.3277 -0.9222
 1131SOL    HW2 4296   4.685   5.920   0.221 -2.1523 -0.4402 -0.0866
 1131SOL    HW3 4297   4.685   6.036   0.318 -2.0221 -0.5065 -0.0072
 1131SOL    MW4 4298   4.661   6.001   0.242  0.1637 -0.2152 -0.1557
 1132SOL     OW 4299   5.186   3.954   3.869 -0.2740 -0.4077  0.5769
 1132SOL    HW2 4300   5.093   3.970   3.853 -0.9313 -2.6148  1.7069
 1132SOL    HW3 4301   5.225   3.949   3.782 -1.2541  0.2256  0.0755
 1132SOL    MW4 4302   5.179   3.956   3.855  0.6666 -0.4264  0.1378
 1133SOL     OW 4303   4.974   3.404   3.379 -0.6284 -0.4438 -0.2773
 1133SOL    HW2 4304   5.045   3.342   3.395 -0.6933 -0.4901 -0.1684
 1133SOL    HW3 4305   5.002   3.454   3.302 -0.7917 -0.9250 -0.6503
 1133SOL    MW4 4306   4.987   3.403   3.371  0.0006 -0.0938  0.1623
 1134SOL     OW 4307   5.317   3.567   2.068 -0.0136 -0.4456  0.3206
 1134SOL    HW2 4308   5.409   3.542   2.064 -0.2579 -1.1965 -1.5386
 1134SOL    HW3 4309   5.318   3.660   2.090  1.3527  0.2051 -2.1163
 1134SOL    MW4 4310   5.329   3.576   2.070 -0.1483  0.6527 -0.0303
 1135SOL     OW 4311   5.516   1.086   3.457  0.4274 -0.7079  0.0203
 1135SOL    HW2 4312   5.600   1.042   3.448  1.1916  1.0648 -3.4923
 1135SOL    HW3 4313   5.451   1.017   3.443  1.4983 -1.3858 -2.1320
 1135SOL    MW4 4314   5.518   1.071   3.454  0.0668 -0.6469 -0.0397
 1136SOL     OW 4315   5.308   5.746   3.929  1.0631  0.3349  0.1404
 1136SOL    HW2 4316   5.377   5.716   3.869 -0.4161 -0.3808 -1.2796
 1136SOL    HW3 4317   5.333   5.836   3.951  2.3737  0.1353 -0.4329
 1136SOL    MW4 4318   5.321   5.754   3.924 -0.4566  0.3167 -0.1682
 1137SOL     OW 4319   4.670   1.264   4.140 -0.2759 -0.2550 -0.5206
 1137SOL    HW2 4320   4.588   1.267   4.189  0.0506  0.3961 -0.0069
 1137SOL    HW3 4321   4.696   1.172   4.145 -1.7299 -0.8015 -1.9915
 1137SOL    MW4 4322   4.662   1.252   4.147 -0.1018 -0.8249  0.0954
 1138SOL     OW 4323   4.975   3.137   3.777 -0.2697 -0.8258 -0.2165
 1138SOL    HW2 4324   5.016   3.219   3.747 -0.1181 -1.2247 -1.1500
 1138SOL    HW3 4325   4.956   3.152   3.869  0.2153  0.0807 -0.2494
 1138SOL    MW4 4326   4.978   3.150   3.785 -0.1241 -0.1808  0.1157
 1139SOL     OW 4327   5.691   0.351   0.535 -0.6260 -0.1341  0.8415
 1139SOL    HW2 4328   5.751   0.398   0.477 -0.3488 -0.5463  0.7898
 1139SOL    HW3 4329   5.710   0.259   0.520 -1.9422 -0.3206  0.0995
 1139SOL    MW4 4330   5.701   0.345   0.526 -0.4444  0.3701 -0.0346
 1140SOL     OW 4331   0.439   4.941   2.609 -0.1825 -0.4660 -0.4095
 1140SOL    HW2 4332   0.405   4.870   2.662  0.9998 -1.4487 -0.9165
 1140SOL    HW3 4333   0.529   4.915   2.588  1.0879  2.1218  1.1783
 1140SOL    MW4 4334   0.447   4.928   2.613 -0.0732  0.2758 -0.1193
 1141SOL     OW 4335   3.017   3.953   5.455  0.1418 -0.6287  0.2722
 1141SOL    HW2 4336   3.033   4.016   5.525  1.5782 -0.4297 -0.2018
 1141SOL    HW3 4337   3.097   3.954   5.404 -1.4522  0.6208 -2.4686
 1141SOL    MW4 4338   3.029   3.962   5.457 -0.2092  0.1834 -0.3015
 1142SOL     OW 4339   0.904   5.314   2.261 -0.1087 -0.3626  1.0259
 1142SOL    HW2 4340   0.819   5.307   2.216 -0.5518  1.6032  1.4269
 1142SOL    HW3 4341   0.917   5.409   2.271  2.6614 -0.5508  0.0279
 1142SOL    MW4 4342   0.894   5.326   2.257 -0.8073  0.1118 -0.1485
 1143SOL     OW 4343   4.682   4.840   3.720 -0.3605 -0.0918 -0.0912
 1143SOL    HW2 4344   4.774   4.866   3.723 -1.0321  2.5598  1.2068
 1143SOL    HW3 4345   4.681   4.749   3.749  1.8404 -0.2701 -0.4054
 1143SOL    MW4 4346   4.694   4.832   3.724  0.2314 -0.5041  0.3812
 1144SOL     OW 4347   2.062   4.646   0.137 -0.5140 -0.3003  0.1678
 1144SOL    HW2 4348   2.008   4.582   0.090 -0.2045 -1.6008  1.5083
 1144SOL    HW3 4349   2.142   4.598   0.160 -0.2468  0.5834  1.1634
 1144SOL    MW4 4350   2.066   4.632   0.134  0.2313  0.0238  0.1642
 1145SOL     OW 4351   5.665   2.880   5.992  0.4856 -0.0015  0.2285
 1145SOL    HW2 4352   5.572   2.883   5.967  0.9003  0.9453 -1.3480
 1145SOL    HW3 4353   5.692   2.972   5.992  1.7278 -0.3430 -0.5634
 1145SOL    MW4 4354   5.656   2.893   5.989 -0.8548 -0.2846 -0.5423
 1146SOL     OW 4355   2.385   2.772   0.732 -0.1353 -0.0101 -0.5030
 1146SOL    HW2 4356   2.381   2.843   0.796  1.6507  1.7811 -2.2494
 1146SOL    HW3 4357   2.317   2.710   0.760 -0.4394  1.4188  2.1941
 1146SOL    MW4 4358   2.375   2.773   0.744 -0.2546 -0.1486  0.0548
 1147SOL     OW 4359   5.035   1.746   0.552  0.2068 -0.2144  0.1449
 1147SOL    HW2 4360   4.961   1.723   0.495  0.7746 -0.7873 -0.3672
 1147SOL    HW3 4361   5.111   1.708   0.510  1.3184  2.9942 -1.0594
 1147SOL    MW4 4362   5.035   1.738   0.539 -0.5600  0.8142  0.5144
 1148SOL     OW 4363   4.962   4.767   0.785  0.0144 -0.5926 -0.0613
 1148SOL    HW2 4364   4.878   4.810   0.768  0.5852 -0.2610 -2.4584
 1148SOL    HW3 4365   5.027   4.836   0.772  0.7119 -0.9857  1.2171
 1148SOL    MW4 4366   4.960   4.782   0.781 -0.0892  0.3752  0.0372
 1149SOL     OW 4367   5.919   5.243   1.494  0.3099  0.0351 -0.6163
 1149SOL    HW2 4368   5.902   5.151   1.513 -0.6654  0.4731  0.7930
 1149SOL    HW3 4369   6.004   5.260   1.533  0.0397 -0.0235  0.0006
 1149SOL    MW4 4370   5.928   5.233   1.501  0.1079 -0.0707 -0.3568
 1150SOL     OW 4371   5.000   1.270   5.888  0.0909  0.0529  0.2469
 1150SOL    HW2 4372   4.955   1.204   5.942 -0.8599 -0.0605 -0.6508
 1150SOL    HW3 4373   5.093   1.252   5.901 -0.1437 -1.1238  0.4438
 1150SOL    MW4 4374   5.006   1.259   5.897  0.2443 -0.2070 -0.5709
 1151SOL     OW 4375   0.571   3.879   3.250 -0.4278  0.5543  0.4359
 1151SOL    HW2 4376   0.524   3.955   3.285 -0.6606  1.2164 -1.1997
 1151SOL    HW3 4377   0.514   3.846   3.180  0.0413 -0.6517  0.6069
 1151SOL    MW4 4378   0.557   3.885   3.245  0.1134 -0.0936  0.8910
 1152SOL     OW 4379   1.678   5.809   2.090 -0.1217  0.4246 -0.1642
 1152SOL    HW2 4380   1.714   5.886   2.134 -0.7310  0.2981  0.5732
 1152SOL    HW3 4381   1.607   5.779   2.147  0.9961 -1.5310  0.3354
 1152SOL    MW4 4382   1.674   5.815   2.103  0.1517  0.2602  0.5150
 1153SOL     OW 4383   0.092   3.901   2.706  0.1329  0.0295 -0.0878
 1153SOL    HW2 4384   0.182   3.931   2.694 -0.5163  1.4056 -1.8094
 1153SOL    HW3 4385   0.039   3.980   2.700 -1.1751 -0.6071  1.9204
 1153SOL    MW4 4386   0.097   3.915   2.704 -0.1012  0.1630  0.0363
 1154SOL     OW 4387   0.245   5.547   4.196 -0.1396 -0.2165 -0.1017
 1154SOL    HW2 4388   0.249   5.516   4.105 -0.5600  2.4655 -1.1352
 1154SOL    HW3 4389   0.173   5.498   4.235  0.8468 -2.3254 -0.7877
 1154SOL    MW4 4390   0.236   5.536   4.189  0.2055  0.2907  0.2058
 1155SOL     OW 4391   3.942   6.138   2.402 -0.0896 -0.0095  0.1513
 1155SOL    HW2 4392   3.947   6.221   2.355 -1.8104 -0.3788 -0.7268
 1155SOL    HW3 4393   4.019   6.090   2.373 -0.5451  0.1935 -1.4792
 1155SOL    MW4 4394   3.953   6.143   2.392  0.1494 -0.2574  0.1691
 1156SOL     OW 4395   0.197   0.901   2.075 -0.3774 -0.0492  0.1062
 1156SOL    HW2 4396   0.254   0.826   2.061  0.9570  0.7007  1.2571
 1156SOL    HW3 4397   0.150   0.911   1.992  0.3654 -1.3459 -0.5112
 1156SOL    MW4 4398   0.198   0.892   2.062  0.1806 -0.3123  0.2942
 1157SOL     OW 4399   3.240   1.984   4.479  0.6050  0.3449  0.1756
 1157SOL    HW2 4400   3.162   2.034   4.503  0.7103  1.0889 -0.9623
 1157SOL    HW3 4401   3.206   1.914   4.424  0.6209 -0.0250  0.6278
 1157SOL    MW4 4402   3.225   1.981   4.475 -0.4122 -0.3094 -0.5041
 1158SOL     OW 4403   5.740   3.407   5.467 -0.3126  0.6083 -0.1827
 1158SOL    HW2 4404   5.765   3.499   5.481  0.3302  0.5330 -0.7793
 1158SOL    HW3 4405   5.820   3.365   5.435 -1.0025  0.1777 -1.4081
 1158SOL    MW4 4406   5.754   3.414   5.465  0.4872 -0.2560 -0.7191
 1159SOL     OW 4407   1.984   0.352   5.886 -0.6222 -0.2781 -0.2617
 1159SOL    HW2 4408   1.913   0.344   5.822 -0.3857 -1.2259 -0.4270
 1159SOL    HW3 4409   2.048   0.411   5.845 -0.3382 -1.1074 -1.0412
 1159SOL    MW4 4410   1.983   0.359   5.872  0.4645 -0.0176 -0.5365
 1160SOL     OW 4411   2.630   5.136   6.349 -0.8810  0.1469 -0.4655
 1160SOL    HW2 4412   2.695   5.115   6.417 -0.6799 -2.0068 -1.2300
 1160SOL    HW3 4413   2.670   5.208   6.300  0.3889 -0.3294 -0.1813
 1160SOL    MW4 4414   2.644   5.143   6.352  0.0680  0.6725  0.3027
 1161SOL     OW 4415   2.746   3.659   6.257 -0.4546  0.2133  0.5666
 1161SOL    HW2 4416   2.687   3.726   6.294  0.0185 -0.0452  1.8536
 1161SOL    HW3 4417   2.696   3.577   6.266  0.1167 -0.0287  1.7971
 1161SOL    MW4 4418   2.731   3.657   6.263  0.2692 -0.1863  0.2535
 1162SOL     OW 4419   2.450   2.972   0.034  0.2417 -0.7179  0.5635
 1162SOL    HW2 4420   2.430   2.979  -0.059  1.2786 -0.4162  0.3467
 1162SOL    HW3 4421   2.418   3.054   0.072  1.2233 -0.1452  0.1874
 1162SOL    MW4 4422   2.443   2.983   0.027  0.0671  0.2643  0.4068
 1163SOL     OW 4423   1.236   0.231   3.271  0.0568 -0.3242 -0.3007
 1163SOL    HW2 4424   1.263   0.265   3.185 -1.0261 -1.4768 -1.1150
 1163SOL    HW3 4425   1.318   0.225   3.320  0.4732  2.1937 -0.5435
 1163SOL    MW4 4426   1.251   0.235   3.266 -0.8098 -0.3748 -0.3755
 1164SOL     OW 4427   0.003   2.439   4.580  0.3267  0.0952  0.0086
 1164SOL    HW2 4428  -0.089   2.447   4.556  0.0865 -1.6003  0.2147
 1164SOL    HW3 4429   0.002   2.426   4.675  0.6468 -1.4132 -0.1756
 1164SOL    MW4 4430  -0.009   2.438   4.589 -0.3199  0.1240 -0.1770
 1165SOL     OW 4431   0.265   5.265   1.133  0.5086  0.0026  0.5208
 1165SOL    HW2 4432   0.259   5.240   1.225  3.4294 -0.6450  0.6263
 1165SOL    HW3 4433   0.305   5.352   1.134 -3.7519  2.3037 -0.1196
 1165SOL    MW4 4434   0.269   5.273   1.145 -0.3149  0.6129  0.9623
 1166SOL     OW 4435   0.781   4.384   1.596  0.3428 -0.6630  0.1247
 1166SOL    HW2 4436   0.719   4.431   1.651  0.3707 -2.5606  1.8688
 1166SOL    HW3 4437   0.863   4.385   1.645  0.6348 -1.5659 -0.3291
 1166SOL    MW4 4438   0.784   4.391   1.609  0.1295  0.5459 -0.0740
 1167SOL     OW 4439   5.814   0.115   2.169  0.0409 -0.0563  0.4632
 1167SOL    HW2 4440   5.794   0.110   2.262 -1.3029 -0.2066  0.1906
 1167SOL    HW3 4441   5.867   0.194   2.159  0.5951 -0.2925  1.4054
 1167SOL    MW4 4442   5.819   0.124   2.180  0.1019  0.0494  0.2653
 1168SOL     OW 4443   1.321   2.278   3.248  0.0975 -0.9884  0.2403
 1168SOL    HW2 4444   1.406   2.273   3.292  1.1527 -1.1573 -1.7252
 1168SOL    HW3 4445   1.275   2.199   3.276  0.9334 -1.3360  0.6652
 1168SOL    MW4 4446   1.326   2.267   3.258  0.8835 -0.3493 -0.4658
 1169SOL     OW 4447   3.771   1.938   1.029  0.3755  0.0881 -0.3443
 1169SOL    HW2 4448   3.848   1.951   0.974  0.1301  2.2179 -0.2673
 1169SOL    HW3 4449   3.727   1.862   0.991  2.5326 -1.2478 -0.3183
 1169SOL    MW4 4450   3.775   1.930   1.016  0.5722  0.0348 -0.6767
 1170SOL     OW 4451   2.567   2.552   1.241 -0.1498  0.1956  0.6214
 1170SOL    HW2 4452   2.476   2.583   1.246  0.0793  1.8388 -2.9368
 1170SOL    HW3 4453   2.566   2.484   1.175  1.0633 -0.5985  1.3825
 1170SOL    MW4 4454   2.555   2.547   1.233 -0.2614  0.4092  0.8954
 1171SOL     OW 4455   4.820   2.209   3.052 -0.0850  0.0111  0.0515
 1171SOL    HW2 4456   4.776   2.278   3.003  1.0560 -0.3995 -1.6229
 1171SOL    HW3 4457   4.849   2.252   3.133 -0.5356  1.1417 -0.3649
 1171SOL    MW4 4458   4.818   2.224   3.056 -0.4028 -0.4880 -0.0816
 1172SOL     OW 4459   0.556   4.004   0.075  0.0098 -0.9646 -0.2927
 1172SOL    HW2 4460   0.550   4.001   0.170  0.4312  0.2130 -0.2169
 1172SOL    HW3 4461   0.468   3.983   0.044 -0.3751 -0.3768  0.3812
 1172SOL    MW4 4462   0.544   4.000   0.084  0.3518  0.3962 -0.2256
 1173SOL     OW 4463   0.912   3.810   2.669 -0.5212  0.5939 -0.0690
 1173SOL    HW2 4464   0.964   3.823   2.748 -0.1455 -2.0638  0.2283
 1173SOL    HW3 4465   0.843   3.875   2.675  2.1395  3.6624 -0.0192
 1173SOL    MW4 4466   0.910   3.820   2.680 -0.5264 -0.5050  0.2122
 1174SOL     OW 4467   0.214   4.208   3.341  0.5832  0.3132 -0.2993
 1174SOL    HW2 4468   0.150   4.140   3.367  1.2388  0.4969  2.0817
 1174SOL    HW3 4469   0.176   4.248   3.264 -1.2460 -0.8734 -0.0924
 1174SOL    MW4 4470   0.200   4.204   3.334 -0.6503  0.4027  0.2965
 1175SOL     OW 4471   1.381   4.579   0.681  0.0924 -0.0334  0.3100
 1175SOL    HW2 4472   1.341   4.574   0.768  0.3831 -1.3283  0.3906
 1175SOL    HW3 4473   1.455   4.640   0.692  1.4949 -1.8601  1.5732
 1175SOL    MW4 4474   1.385   4.587   0.694 -0.1935 -0.0513 -0.5694
 1176SOL     OW 4475   0.963   3.032   4.597 -0.3358  0.2616  0.1004
 1176SOL    HW2 4476   1.058   3.039   4.585 -0.5480  0.5276 -1.5787
 1176SOL    HW3 4477   0.952   2.951   4.648  0.6693 -1.0242 -1.6293
 1176SOL    MW4 4478   0.974   3.022   4.602 -0.3151  0.1224 -0.4819
 1177SOL     OW 4479   2.739   4.314   4.854  0.2324  0.0096  0.1502
 1177SOL    HW2 4480   2.789   4.334   4.775  0.9616 -0.5741  0.4551
 1177SOL    HW3 4481   2.795   4.344   4.926 -0.8763  1.5504  0.4436
 1177SOL    MW4 4482   2.753   4.321   4.853  0.0517 -0.1382  0.4484
 1178SOL     OW 4483   2.347   2.565   5.595  0.4406 -0.4142  0.4460
 1178SOL    HW2 4484   2.286   2.638   5.604  0.2021 -0.2569 -1.9758
 1178SOL    HW3 4485   2.318   2.501   5.660 -0.1496  1.0809  1.7083
 1178SOL    MW4 4486   2.335   2.566   5.605  0.2034  0.2682 -0.1358
 1179SOL     OW 4487   2.946   2.319   3.974  0.0403  0.0356 -0.3852
 1179SOL    HW2 4488   2.951   2.372   3.895  0.1657 -0.1167 -0.4808
 1179SOL    HW3 4489   2.891   2.370   4.034 -0.4153 -0.0514 -0.7259
 1179SOL    MW4 4490   2.939   2.333   3.971 -0.0975  0.6400 -0.2380
 1180SOL     OW 4491   5.870   4.204   4.646  0.0563  0.5479  0.2864
 1180SOL    HW2 4492   5.943   4.259   4.618 -0.1291  0.7743  0.2430
 1180SOL    HW3 4493   5.893   4.177   4.735  0.9224 -0.6572 -0.2859
 1180SOL    MW4 4494   5.882   4.208   4.654 -0.2644  0.4192  0.7116
 1181SOL     OW 4495   6.283   2.866   3.480 -0.0078 -0.1164 -0.3789
 1181SOL    HW2 4496   6.377   2.861   3.461 -0.1213 -2.0161 -0.6162
 1181SOL    HW3 4497   6.243   2.893   3.398  0.3407  0.9056 -0.2197
 1181SOL    MW4 4498   6.290   2.869   3.467 -1.1935 -0.4201 -0.1646
 1182SOL     OW 4499   4.445   1.379   2.735 -0.5873 -0.1560  0.1734
 1182SOL    HW2 4500   4.359   1.346   2.761  0.5625 -2.1864  1.6826
 1182SOL    HW3 4501   4.499   1.368   2.813  0.9303  1.6537 -0.5512
 1182SOL    MW4 4502   4.441   1.373   2.749  0.1112  0.3770 -0.0102
 1183SOL     OW 4503   5.445   0.176   5.984  0.3617 -0.0527 -0.0421
 1183SOL    HW2 4504   5.412   0.087   5.997  0.7989 -0.3964 -1.1707
 1183SOL    HW3 4505   5.395   0.229   6.046 -0.8761 -0.8695 -0.3067
 1183SOL    MW4 4506   5.434   0.171   5.994  0.1002  0.4320  0.2098
 1184SOL     OW 4507   5.855   1.869   6.000 -0.5236  0.1927 -0.0919
 1184SOL    HW2 4508   5.908   1.897   6.075 -1.1740 -0.8070  0.7736
 1184SOL    HW3 4509   5.799   1.945   5.981 -0.6514  0.3048  0.7125
 1184SOL    MW4 4510   5.854   1.883   6.007  0.2016 -0.4721 -0.1878
 1185SOL     OW 4511   5.376   5.059   6.280  0.5530 -0.1740  0.5907
 1185SOL    HW2 4512   5.382   4.968   6.250 -1.4229 -0.1466  0.0284
 1185SOL    HW3 4513   5.403   5.111   6.204 -0.5799 -0.2355  0.1313
 1185SOL    MW4 4514   5.381   5.054   6.266 -0.0648 -0.0385  0.5948
 1186SOL     OW 4515   5.282   1.174   5.888  0.7975 -0.1099  0.0342
 1186SOL    HW2 4516   5.323   1.118   5.954  0.4447 -0.5231 -0.0889
 1186SOL    HW3 4517   5.353   1.230   5.856  0.8798  0.3849  1.0547
 1186SOL    MW4 4518   5.297   1.174   5.892  0.1272  0.7652  0.6952
 1187SOL     OW 4519   5.024   3.062   4.803 -0.3225 -0.2575 -0.0314
 1187SOL    HW2 4520   5.087   3.078   4.733 -0.3587 -0.0368 -0.0135
 1187SOL    HW3 4521   5.002   2.969   4.794 -0.0018 -0.3359 -0.0419
 1187SOL    MW4 4522   5.029   3.052   4.793  0.2491 -0.5280 -0.7804
 1188SOL     OW 4523   2.642   4.809   2.096 -0.3147 -0.0123  0.3258
 1188SOL    HW2 4524   2.729   4.813   2.057  0.1959 -2.4899  1.0547
 1188SOL    HW3 4525   2.596   4.743   2.045 -1.5756  0.7799  0.3847
 1188SOL    MW4 4526   2.647   4.801   2.084 -0.3896  0.7355  0.4072
 1189SOL     OW 4527   5.766   0.958   0.058  0.0518 -0.8702 -0.7449
 1189SOL    HW2 4528   5.693   1.014   0.082 -1.4773 -2.0999 -2.3058
 1189SOL    HW3 4529   5.800   0.997  -0.023 -1.0611 -2.1593 -1.8761
 1189SOL    MW4 4530   5.761   0.971   0.050  0.1111  0.3497 -0.7730
 1190SOL     OW 4531   2.150   2.733   5.724  0.2500 -0.1050  0.0789
 1190SOL    HW2 4532   2.164   2.817   5.768  2.0435 -0.6174  0.5861
 1190SOL    HW3 4533   2.117   2.675   5.792  2.1730 -0.6570  0.6043
 1190SOL    MW4 4534   2.148   2.736   5.739  0.5744 -0.0677 -0.3493
 1191SOL     OW 4535   4.673   0.137   4.815 -0.0570  0.1460  0.2035
 1191SOL    HW2 4536   4.631   0.109   4.734 -0.6033 -0.0341  0.5443
 1191SOL    HW3 4537   4.700   0.227   4.798 -2.3547  0.9855  0.6270
 1191SOL    MW4 4538   4.671   0.145   4.802  0.0532  0.3496  0.7236
 1192SOL     OW 4539   5.358   4.052   2.649  0.5014  0.0419 -0.0708
 1192SOL    HW2 4540   5.436   4.025   2.697 -0.2257 -2.5068 -0.1545
 1192SOL    HW3 4541   5.304   4.098   2.713  0.5444 -1.3135  0.9859
 1192SOL    MW4 4542   5.361   4.054   2.664  0.4448 -0.7937  0.0300
 1193SOL     OW 4543   5.390   4.652   5.608  0.0245  0.3813 -0.3350
 1193SOL    HW2 4544   5.407   4.668   5.701 -0.7047  0.5535 -0.2267
 1193SOL    HW3 4545   5.467   4.603   5.578 -0.3484 -0.8808  0.6806
 1193SOL    MW4 4546   5.403   4.647   5.616 -0.1279  0.6045  0.3137
 1194SOL     OW 4547   3.526   4.097   2.690 -0.4333 -0.0210  0.0464
 1194SOL    HW2 4548   3.510   4.081   2.597  1.8361 -0.3373 -0.3531
 1194SOL    HW3 4549   3.515   4.191   2.701 -0.7608  0.0135 -0.5416
 1194SOL    MW4 4550   3.523   4.107   2.679 -0.9668 -0.8309  0.6574
 1195SOL     OW 4551   4.257   0.952   0.467  0.3117  0.0471  0.0457
 1195SOL    HW2 4552   4.237   0.908   0.384 -0.9843  0.1650  0.2850
 1195SOL    HW3 4553   4.174   0.957   0.512  1.0101 -0.0180  1.3766
 1195SOL    MW4 4554   4.244   0.947   0.462 -0.4474  0.1678 -0.4024
 1196SOL     OW 4555   5.953   1.800   5.558  0.3217  0.2856  0.0830
 1196SOL    HW2 4556   6.011   1.734   5.522  0.3124 -0.6212  1.6445
 1196SOL    HW3 4557   5.999   1.833   5.635 -0.9876 -0.0979  1.0584
 1196SOL    MW4 4558   5.967   1.796   5.564 -0.6221  0.0363 -0.3108
 1197SOL     OW 4559   5.924   4.479   2.788 -0.3214 -0.6497 -0.1777
 1197SOL    HW2 4560   5.941   4.418   2.715 -0.9053  0.3862 -1.2160
 1197SOL    HW3 4561   5.829   4.481   2.796 -0.3237  0.2798 -0.3198
 1197SOL    MW4 4562   5.914   4.471   2.779  0.0004 -0.0807  0.4306
 1198SOL     OW 4563   2.629   4.147   3.988  0.2187 -0.1814 -0.1349
 1198SOL    HW2 4564   2.615   4.077   4.052  0.8598  0.2120  0.4427
 1198SOL    HW3 4565   2.614   4.105   3.904 -0.1828 -0.8208  0.2407
 1198SOL    MW4 4566   2.625   4.132   3.986  0.3377  0.2829  0.4299
 1199SOL     OW 4567   5.298   1.405   5.613  0.0998 -0.1452 -0.4032
 1199SOL    HW2 4568   5.224   1.351   5.586  1.8316 -2.6772 -0.4083
 1199SOL    HW3 4569   5.294   1.482   5.555 -2.8666  0.1954  0.1011
 1199SOL    MW4 4570   5.288   1.408   5.602 -0.4475 -0.3789  0.6908
 1200SOL     OW 4571   4.848   5.772   3.139  0.2318  0.5539 -0.2569
 1200SOL    HW2 4572   4.758   5.806   3.140  0.7695  2.0465 -0.3899
 1200SOL    HW3 4573   4.837   5.677   3.141 -1.3756  0.6705 -1.2735
 1200SOL    MW4 4574   4.834   5.764   3.139  0.1171  0.1961  0.3576
 1201SOL     OW 4575   0.806   0.291   5.863 -0.3190 -0.4198  0.5525
 1201SOL    HW2 4576   0.766   0.324   5.943  2.0259  1.5509  1.0201
 1201SOL    HW3 4577   0.787   0.197   5.864 -3.3308  0.0751  1.5394
 1201SOL    MW4 4578   0.798   0.283   5.874 -0.2638 -0.2162  0.9931
 1202SOL     OW 4579   1.888   2.453   3.454  0.4647  0.0014 -0.8068
 1202SOL    HW2 4580   1.867   2.463   3.547  1.6779 -0.4872 -0.4639
 1202SOL    HW3 4581   1.821   2.392   3.421  1.6565 -2.1103  0.4379
 1202SOL    MW4 4582   1.876   2.446   3.462 -0.0951 -0.4155  0.0800
 1203SOL     OW 4583   5.462   1.543   2.661  0.1483  0.0803  0.1513
 1203SOL    HW2 4584   5.389   1.605   2.671 -0.3662 -0.5832  0.5854
 1203SOL    HW3 4585   5.520   1.562   2.734  0.7185  0.9947 -0.5118
 1203SOL    MW4 4586   5.460   1.554   2.672  0.2411 -0.1624 -0.4631
 1204SOL     OW 4587   5.315   4.576   0.731 -0.2007 -0.2992 -0.4301
 1204SOL    HW2 4588   5.229   4.563   0.690  0.0452 -2.4403 -0.4097
 1204SOL    HW3 4589   5.299   4.565   0.824  0.1119 -0.9205 -0.4455
 1204SOL    MW4 4590   5.301   4.573   0.738 -0.4718 -0.2891  0.6773
 1205SOL     OW 4591   6.251   4.343   5.623 -0.3158 -0.4936 -0.1478
 1205SOL    HW2 4592   6.189   4.316   5.555  0.0303  1.0525 -1.1185
 1205SOL    HW3 4593   6.330   4.366   5.576  0.4715 -0.8792  0.9415
 1205SOL    MW4 4594   6.253   4.342   5.608  0.4334  0.2611  0.3253
 1206SOL     OW 4595   6.411   4.914   0.787  0.1480  0.3995  0.2725
 1206SOL    HW2 4596   6.352   4.986   0.765 -1.6322 -0.6150  1.4517
 1206SOL    HW3 4597   6.498   4.943   0.758 -0.6911  2.5540 -0.2114
 1206SOL    MW4 4598   6.415   4.927   0.781 -0.4371  0.1542 -0.3401
 1207SOL     OW 4599   0.021   0.425   0.366 -0.6220 -0.3465  0.4305
 1207SOL    HW2 4600  -0.046   0.477   0.409 -0.5011  0.0320  0.1720
 1207SOL    HW3 4601   0.021   0.341   0.413 -1.1293 -0.2773  0.5630
 1207SOL    MW4 4602   0.012   0.421   0.378  0.5366 -0.7277 -0.4150
 1208SOL     OW 4603   1.842   4.473   0.856  0.2248  0.3952  0.0447
 1208SOL    HW2 4604   1.791   4.451   0.934 -0.1951  0.3680 -0.2311
 1208SOL    HW3 4605   1.933   4.468   0.884  0.0948 -0.1796  0.3880
 1208SOL    MW4 4606   1.847   4.469   0.870  0.0755 -0.1640  0.1780
 1209SOL     OW 4607   1.929   0.954   1.929  1.0080  0.1151  0.1851
 1209SOL    HW2 4608   1.983   1.000   1.993 -2.3361  3.3618  1.0593
 1209SOL    HW3 4609   1.973   0.969   1.845  3.6444 -1.2580  1.2089
 1209SOL    MW4 4610   1.942   0.962   1.926  0.5106  0.0998  0.3088
 1210SOL     OW 4611   2.007   1.860   5.649  0.2697 -0.7171  0.5393
 1210SOL    HW2 4612   1.959   1.910   5.715  0.3629 -1.1102  0.9055
 1210SOL    HW3 4613   2.082   1.916   5.628 -0.4162 -0.0278 -0.1547
 1210SOL    MW4 4614   2.011   1.874   5.655  0.3073  0.5748 -0.0199
 1211SOL     OW 4615   5.668   1.523   3.541  0.1569  0.3703  0.1478
 1211SOL    HW2 4616   5.582   1.545   3.504  0.0471 -0.0695  0.1369
 1211SOL    HW3 4617   5.725   1.595   3.514  0.6643 -1.0350 -2.8530
 1211SOL    MW4 4618   5.664   1.535   3.533 -1.0412  0.5379 -0.2260
 1212SOL     OW 4619   3.727   2.577   4.692 -0.2500 -0.3398 -0.1815
 1212SOL    HW2 4620   3.665   2.622   4.634 -1.1998  0.3227  1.2806
 1212SOL    HW3 4621   3.779   2.522   4.634  0.0577  1.6384 -1.8884
 1212SOL    MW4 4622   3.726   2.575   4.677 -0.0803 -0.6035  0.3735
 1213SOL     OW 4623   0.130   3.933   0.717 -0.0005  0.5355 -0.3508
 1213SOL    HW2 4624   0.097   4.014   0.677  0.0368  0.5468 -0.3589
 1213SOL    HW3 4625   0.203   3.907   0.661 -2.4560 -1.7163 -2.7864
 1213SOL    MW4 4626   0.135   3.941   0.704 -0.4393  0.9917 -0.5648
 1214SOL     OW 4627   4.367   4.275   5.418 -0.2110 -0.4705 -1.2368
 1214SOL    HW2 4628   4.310   4.283   5.342 -1.2900 -0.0651 -0.4204
 1214SOL    HW3 4629   4.410   4.361   5.426  0.4377 -0.7370 -1.7809
 1214SOL    MW4 4630   4.365   4.288   5.409 -0.6838 -0.3824 -0.0475
 1215SOL     OW 4631   3.325   0.341   1.332 -0.2073  0.6494  0.4187
 1215SOL    HW2 4632   3.311   0.247   1.344  0.6210  0.5015  0.3152
 1215SOL    HW3 4633   3.420   0.350   1.327 -0.3207  1.3767 -0.5943
 1215SOL    MW4 4634   3.336   0.330   1.333  0.4599 -0.0882 -0.1852
 1216SOL     OW 4635   4.672   5.429   1.518 -1.0092 -0.2067  0.1693
 1216SOL    HW2 4636   4.762   5.397   1.530 -0.5915  0.4702 -1.0372
 1216SOL    HW3 4637   4.648   5.398   1.430 -1.0949  1.5690 -0.4676
 1216SOL    MW4 4638   4.681   5.420   1.508  0.1331 -0.7033  0.0964
 1217SOL     OW 4639   0.267   0.113   3.953 -0.1462 -0.2382  0.2833
 1217SOL    HW2 4640   0.316   0.035   3.979 -1.0225 -1.0082 -0.3230
 1217SOL    HW3 4641   0.321   0.154   3.885  0.1380 -0.5183  0.3390
 1217SOL    MW4 4642   0.281   0.108   3.948 -0.2993 -0.4380  0.2903
 1218SOL     OW 4643   5.008   5.120   5.416 -0.5428  0.0880 -0.1447
 1218SOL    HW2 4644   5.090   5.169   5.414 -0.2964 -0.3099 -2.2744
 1218SOL    HW3 4645   5.035   5.029   5.420 -0.8970 -0.0003  0.1658
 1218SOL    MW4 4646   5.022   5.115   5.416 -0.3600 -0.6335  0.5550
 1219SOL     OW 4647   5.341   3.094   2.420  0.5815  0.1660  0.5406
 1219SOL    HW2 4648   5.332   3.018   2.478  0.9149 -0.1406  0.2064
 1219SOL    HW3 4649   5.294   3.069   2.341  1.4498 -0.0665  0.0855
 1219SOL    MW4 4650   5.334   3.080   2.417  0.0188  0.1305  0.0405
 1220SOL     OW 4651   3.521   4.673   1.882  0.0729  0.5396 -0.0276
 1220SOL    HW2 4652   3.466   4.611   1.834  2.2055 -1.5260 -0.0380
 1220SOL    HW3 4653   3.460   4.734   1.922 -2.2596 -1.9391  0.4855
 1220SOL    MW4 4654   3.506   4.673   1.881  0.5528 -0.0632 -0.2994
 1221SOL     OW 4655   0.189   5.937   0.030 -0.2143  0.4566 -0.4341
 1221SOL    HW2 4656   0.259   5.993  -0.006 -0.8547  0.4266 -1.8231
 1221SOL    HW3 4657   0.109   5.973  -0.009 -0.5890 -1.8097 -1.9083
 1221SOL    MW4 4658   0.188   5.949   0.020 -0.1228 -0.1380  0.1610
 1222SOL     OW 4659   4.590   5.849   3.106 -0.1905  0.5257 -0.1549
 1222SOL    HW2 4660   4.565   5.940   3.119  0.1366  0.5478  0.3612
 1222SOL    HW3 4661   4.550   5.802   3.179  1.6465  0.6450  0.9888
 1222SOL    MW4 4662   4.582   5.854   3.117  0.1591 -0.1094  0.0840
 1223SOL     OW 4663   1.986   4.514   2.013 -0.3071  0.5823  0.0907
 1223SOL    HW2 4664   2.040   4.556   2.080 -0.6035  1.3712 -0.1517
 1223SOL    HW3 4665   2.019   4.424   2.009  1.2490  1.1263 -0.3167
 1223SOL    MW4 4666   1.998   4.508   2.021 -0.1039  0.2055 -0.0509
 1224SOL     OW 4667   4.719   4.608   4.955  0.3905 -0.3977  0.0518
 1224SOL    HW2 4668   4.806   4.572   4.939  0.3451  0.5431 -3.0940
 1224SOL    HW3 4669   4.733   4.701   4.968  0.0037 -0.5742  1.9675
 1224SOL    MW4 4670   4.732   4.615   4.955  0.2419 -0.6557 -0.0519
 1225SOL     OW 4671   1.582   0.252   2.645  0.1525 -0.3070 -0.4391
 1225SOL    HW2 4672   1.515   0.267   2.712  0.2647 -1.3601 -0.0834
 1225SOL    HW3 4673   1.659   0.222   2.694  0.4529 -0.4304 -0.9759
 1225SOL    MW4 4674   1.584   0.250   2.660 -0.6093  0.3314  0.3302
 1226SOL     OW 4675   3.594   1.724   3.782  0.3747 -0.1967  0.3218
 1226SOL    HW2 4676   3.685   1.717   3.755  0.9101  0.0434  1.9863
 1226SOL    HW3 4677   3.564   1.807   3.743  1.7164  1.1516  1.9957
 1226SOL    MW4 4678   3.602   1.734   3.773  0.0521  0.1927 -0.1140
 1227SOL     OW 4679   5.174   0.464   5.247 -0.0853  0.3363  0.5860
 1227SOL    HW2 4680   5.233   0.399   5.285  0.7675  1.3004  0.9690
 1227SOL    HW3 4681   5.178   0.538   5.308  1.0218  1.7788 -1.1281
 1227SOL    MW4 4682   5.182   0.465   5.260  0.4722  0.2403  0.2411
 1228SOL     OW 4683   4.775   3.786   5.093  0.1014 -0.2493  0.5707
 1228SOL    HW2 4684   4.756   3.870   5.136 -1.0618  0.5085 -1.2934
 1228SOL    HW3 4685   4.746   3.720   5.156  0.8985  0.7280  2.0252
 1228SOL    MW4 4686   4.768   3.789   5.107  0.7077  0.4495 -0.8381
 1229SOL     OW 4687   5.071   1.443   4.014  1.3811 -0.0467 -0.1296
 1229SOL    HW2 4688   5.164   1.457   3.998  0.9839  1.1262 -1.6231
 1229SOL    HW3 4689   5.040   1.523   4.054  1.2650 -0.9771  1.7348
 1229SOL    MW4 4690   5.079   1.455   4.017 -0.5628 -0.1514 -0.3589
 1230SOL     OW 4691   2.766   3.029   2.930  0.1244 -0.2362 -0.0086
 1230SOL    HW2 4692   2.816   2.949   2.915 -0.1856 -0.7033  1.3033
 1230SOL    HW3 4693   2.831   3.095   2.953  0.2843 -0.3980  0.0018
 1230SOL    MW4 4694   2.781   3.027   2.931 -0.1422  0.4141  0.2768
 1231SOL     OW 4695   4.077   1.634   6.342 -0.0133  0.1028 -0.2786
 1231SOL    HW2 4696   4.079   1.726   6.316  1.9528  0.3749  0.6022
 1231SOL    HW3 4697   4.116   1.588   6.268 -1.7006 -0.1578 -1.0433
 1231SOL    MW4 4698   4.083   1.640   6.329 -0.3014 -0.5580 -0.4239
 1232SOL     OW 4699   0.564   3.012   3.960 -0.1077 -0.0674 -0.5127
 1232SOL    HW2 4700   0.489   3.009   4.019  0.2180 -0.9034 -0.1229
 1232SOL    HW3 4701   0.578   2.921   3.934  0.9049  0.0409 -0.3988
 1232SOL    MW4 4702   0.556   2.999   3.965 -0.1451  0.1494 -0.1855
 1233SOL     OW 4703   0.884   0.823   0.166  0.3999 -0.0064  0.1029
 1233SOL    HW2 4704   0.823   0.896   0.150  0.0381 -0.3289 -0.0241
 1233SOL    HW3 4705   0.913   0.835   0.256 -0.2238 -0.1123  0.3253
 1233SOL    MW4 4706   0.880   0.835   0.176  0.0243  0.3508 -0.2987
 1234SOL     OW 4707   3.307   1.942   3.891  0.1178 -0.0675 -0.3374
 1234SOL    HW2 4708   3.299   2.008   3.959  2.3310  0.6052 -0.6809
 1234SOL    HW3 4709   3.217   1.931   3.858 -0.2521  3.1606 -0.6534
 1234SOL    MW4 4710   3.294   1.949   3.895  0.7942 -0.0091 -0.8509
 1235SOL     OW 4711   2.398   2.103   5.833  0.3211  0.1902 -0.3728
 1235SOL    HW2 4712   2.443   2.125   5.915  1.4098 -1.5340 -0.4535
 1235SOL    HW3 4713   2.467   2.074   5.774 -0.6158 -0.0152 -1.4115
 1235SOL    MW4 4714   2.413   2.102   5.836 -0.6630 -0.0790  0.2843
 1236SOL     OW 4715   4.680   1.244   5.627  0.1437 -0.9835 -0.2457
 1236SOL    HW2 4716   4.640   1.250   5.540  0.0141 -1.2056 -0.2017
 1236SOL    HW3 4717   4.766   1.285   5.617  0.7901 -2.4041 -0.8869
 1236SOL    MW4 4718   4.686   1.250   5.614 -0.3977 -0.2926 -0.0781
 1237SOL     OW 4719   2.152   3.895   2.408  0.6675 -0.0695  0.6196
 1237SOL    HW2 4720   2.246   3.886   2.419  0.4428 -0.6965  2.3698
 1237SOL    HW3 4721   2.130   3.837   2.335  1.7581  0.9640 -0.5617
 1237SOL    MW4 4722   2.161   3.886   2.400 -0.4330 -0.4852  0.6009
 1238SOL     OW 4723   0.438   5.388   3.153 -0.0479  0.9894  0.4220
 1238SOL    HW2 4724   0.446   5.473   3.108  1.2644  1.5323  1.6279
 1238SOL    HW3 4725   0.466   5.405   3.243  0.0382 -0.6847  0.7463
 1238SOL    MW4 4726   0.443   5.402   3.159  0.1175  0.1273 -0.1730
 1239SOL     OW 4727   5.589   0.710   5.311  0.0761  0.5105  0.4263
 1239SOL    HW2 4728   5.511   0.731   5.261 -0.4067 -0.3858  0.7853
 1239SOL    HW3 4729   5.661   0.725   5.250 -0.5160 -0.8645 -0.6471
 1239SOL    MW4 4730   5.588   0.715   5.296 -0.7444 -0.7647 -0.4353
 1240SOL     OW 4731   3.141   5.587   5.472  0.6074  0.2195  0.0905
 1240SOL    HW2 4732   3.164   5.509   5.522  1.1111  1.2320  1.4967
 1240SOL    HW3 4733   3.197   5.656   5.508 -0.1476  1.3304 -0.8008
 1240SOL    MW4 4734   3.151   5.586   5.483  0.5296 -0.2454  0.6626
 1241SOL     OW 4735   5.277   5.757   4.860  0.0265 -0.2477  0.2740
 1241SOL    HW2 4736   5.282   5.790   4.771 -0.5519  0.0463  0.3484
 1241SOL    HW3 4737   5.187   5.725   4.869  0.5752 -1.9048  0.1810
 1241SOL    MW4 4738   5.266   5.757   4.850  0.0476 -0.3868  0.1078
 1242SOL     OW 4739   5.243   1.146   1.371 -0.1678 -0.2982 -0.3136
 1242SOL    HW2 4740   5.164   1.199   1.383 -0.6977 -0.8333 -1.3214
 1242SOL    HW3 4741   5.235   1.077   1.437 -1.1746 -1.0572 -1.1984
 1242SOL    MW4 4742   5.231   1.144   1.381 -0.1534  0.0761  0.4824
 1243SOL     OW 4743   6.390   1.972   1.905  0.0686 -0.5334  0.0912
 1243SOL    HW2 4744   6.414   1.893   1.856  2.5599  0.2354 -0.0398
 1243SOL    HW3 4745   6.305   1.998   1.868 -0.4560 -2.6708 -0.3905
 1243SOL    MW4 4746   6.382   1.965   1.894 -0.3214 -0.0649 -0.5220
 1244SOL     OW 4747   5.878   4.872   4.377  0.8728  0.2544 -0.1849
 1244SOL    HW2 4748   5.893   4.802   4.441 -2.8705  1.4062  2.3043
 1244SOL    HW3 4749   5.886   4.953   4.428 -2.1598  1.2213 -0.9976
 1244SOL    MW4 4750   5.881   4.873   4.392  0.0277  0.7910  0.2271
 1245SOL     OW 4751   2.901   3.345   5.377 -0.2534  0.4004  0.6942
 1245SOL    HW2 4752   2.967   3.390   5.323  0.0796  1.0452  1.6168
 1245SOL    HW3 4753   2.839   3.414   5.401 -2.7620 -0.5919 -2.1934
 1245SOL    MW4 4754   2.902   3.360   5.373 -0.1400  0.5402 -0.2040
 1246SOL     OW 4755   3.234   4.986   4.057  0.0108  0.7882  0.2863
 1246SOL    HW2 4756   3.292   5.060   4.079  1.8592  0.0422 -1.7093
 1246SOL    HW3 4757   3.146   5.020   4.072  0.8606  2.0520  3.3125
 1246SOL    MW4 4758   3.230   5.001   4.062 -0.1204 -0.0320  0.1524
 1247SOL     OW 4759   5.389   4.438   4.380 -0.0554  0.4647 -0.3316
 1247SOL    HW2 4760   5.479   4.472   4.383  0.3069 -0.4868 -0.1867
 1247SOL    HW3 4761   5.362   4.434   4.472  0.0434 -0.0086 -0.3244
 1247SOL    MW4 4762   5.397   4.442   4.393 -0.6421  0.0971 -0.3495
 1248SOL     OW 4763   4.819   2.222   4.458 -0.2090  0.1481  0.5359
 1248SOL    HW2 4764   4.854   2.233   4.546  1.2593 -1.0881  0.1475
 1248SOL    HW3 4765   4.864   2.288   4.405  0.0101 -0.0882  0.4271
 1248SOL    MW4 4766   4.829   2.232   4.462 -0.1907 -0.4988 -0.0598
 1249SOL     OW 4767   1.756   1.016   6.407 -0.2709 -0.2055 -0.1267
 1249SOL    HW2 4768   1.832   1.069   6.384 -0.0401  0.4608  1.9496
 1249SOL    HW3 4769   1.747   0.955   6.334  1.1510  0.8627 -1.2739
 1249SOL    MW4 4770   1.765   1.015   6.394 -0.0696  0.1171  0.1669
 1250SOL     OW 4771   2.436   0.190   0.985  0.4906 -0.1077 -0.2934
 1250SOL    HW2 4772   2.386   0.249   0.928 -0.1091 -0.9010 -0.6047
 1250SOL    HW3 4773   2.404   0.210   1.073 -1.4688 -1.5855 -0.6089
 1250SOL    MW4 4774   2.425   0.200   0.989  0.4321  0.5679 -0.0250
 1251SOL     OW 4775   1.133   2.123   0.486  0.0477 -0.0863  0.0659
 1251SOL    HW2 4776   1.154   2.184   0.556 -0.8724  0.6402 -0.2638
 1251SOL    HW3 4777   1.041   2.099   0.503 -0.2077  0.1512 -0.9115
 1251SOL    MW4 4778   1.123   2.128   0.498  0.0804 -0.0595  0.0609
 1252SOL     OW 4779   0.596   5.197   4.330  0.0047 -0.3570 -0.2575
 1252SOL    HW2 4780   0.686   5.200   4.363  0.3333 -0.6358 -1.1021
 1252SOL    HW3 4781   0.589   5.275   4.275 -0.7027  0.3875  0.8555
 1252SOL    MW4 4782   0.607   5.208   4.327  0.0952  0.7320 -0.3706
 1253SOL     OW 4783   1.361   3.971   0.790 -0.1889  0.5141  0.1338
 1253SOL    HW2 4784   1.342   3.877   0.785  0.9955  0.3129 -1.2515
 1253SOL    HW3 4785   1.389   3.985   0.880  0.0616 -0.5707  0.2364
 1253SOL    MW4 4786   1.362   3.961   0.801 -0.2842 -0.3688  0.5048
 1254SOL     OW 4787   5.334   1.035   1.131  0.4555 -0.0713  0.2852
 1254SOL    HW2 4788   5.256   0.981   1.123 -1.0791  2.0149  0.4508
 1254SOL    HW3 4789   5.338   1.057   1.224 -0.5610  2.2819 -0.1592
 1254SOL    MW4 4790   5.324   1.031   1.143 -0.0301 -0.9851  0.5456
 1255SOL     OW 4791   0.775   4.940   4.064  0.0958 -0.0218  0.3638
 1255SOL    HW2 4792   0.696   4.976   4.023  0.8095  0.1626 -0.8672
 1255SOL    HW3 4793   0.743   4.863   4.112 -0.4529 -1.6076 -2.3718
 1255SOL    MW4 4794   0.760   4.934   4.065  0.4019  0.2430  0.0950
 1256SOL     OW 4795   4.593   2.394   1.442 -0.5812  0.1181 -0.7869
 1256SOL    HW2 4796   4.616   2.343   1.365 -2.4812  0.3452 -1.5542
 1256SOL    HW3 4797   4.564   2.479   1.407  0.4845  0.9718  0.3208
 1256SOL    MW4 4798   4.592   2.399   1.427  0.2237 -0.2854 -0.4506
 1257SOL     OW 4799   4.093   6.032   2.085 -0.1523  0.1516 -0.1680
 1257SOL    HW2 4800   4.158   6.036   2.154  0.3614 -0.3240 -0.6210
 1257SOL    HW3 4801   4.137   5.990   2.011 -1.3018 -1.2268 -0.1097
 1257SOL    MW4 4802   4.107   6.027   2.084  0.2296 -0.7668  0.5309
 1258SOL     OW 4803   5.760   1.687   1.396 -0.3435  0.6115  0.5747
 1258SOL    HW2 4804   5.693   1.694   1.463 -0.5002  0.2045  0.4651
 1258SOL    HW3 4805   5.727   1.620   1.336 -1.1464  2.3505 -1.0035
 1258SOL    MW4 4806   5.747   1.679   1.397 -0.2719 -0.2044  0.1540
 1259SOL     OW 4807   3.668   2.316   0.731 -0.6944 -0.6577 -0.4509
 1259SOL    HW2 4808   3.718   2.243   0.694  0.3704 -0.1716 -0.0020
 1259SOL    HW3 4809   3.719   2.393   0.710 -0.7091 -0.2439  0.9320
 1259SOL    MW4 4810   3.681   2.316   0.723 -0.1220 -0.3271 -0.0084
 1260SOL     OW 4811   6.395   6.374   1.978  0.4853 -0.5899 -0.3686
 1260SOL    HW2 4812   6.306   6.384   2.012  1.1272 -1.5214  1.7336
 1260SOL    HW3 4813   6.394   6.290   1.933  0.1977 -0.3885 -0.7460
 1260SOL    MW4 4814   6.383   6.365   1.976  0.3383 -0.4126  0.0498
 1261SOL     OW 4815   3.224   0.662   1.548  0.0101  0.4003  0.2677
 1261SOL    HW2 4816   3.259   0.734   1.496  0.5159  0.1809  0.2898
 1261SOL    HW3 4817   3.301   0.608   1.569 -0.5250 -0.9174 -0.9458
 1261SOL    MW4 4818   3.239   0.664   1.544  0.7433 -0.4721  0.4270
 1262SOL     OW 4819   5.175   0.198   0.102 -0.3135  0.3447  0.3026
 1262SOL    HW2 4820   5.215   0.284   0.114  0.7941 -0.1247  0.0514
 1262SOL    HW3 4821   5.088   0.207   0.142 -0.8918  2.0764 -1.1558
 1262SOL    MW4 4822   5.169   0.211   0.109 -0.4220  0.3259  0.0483
 1263SOL     OW 4823   2.863   0.739   2.173  0.0317  0.1178  0.2135
 1263SOL    HW2 4824   2.785   0.732   2.119 -0.4161  0.7887  0.7607
 1263SOL    HW3 4825   2.893   0.829   2.160  0.1169  0.1786  0.8085
 1263SOL    MW4 4826   2.857   0.750   2.164 -0.0457 -0.4474  0.7157
 1264SOL     OW 4827   0.713   4.036   5.045  0.0695  0.4372 -0.2521
 1264SOL    HW2 4828   0.693   4.094   5.117 -0.8674 -1.2734  0.9324
 1264SOL    HW3 4829   0.632   3.988   5.029  1.4100 -2.2622  0.4961
 1264SOL    MW4 4830   0.700   4.037   5.052  0.8844 -0.4313  0.3109
 1265SOL     OW 4831   1.575   3.822   5.969 -0.2825  0.0396 -0.1563
 1265SOL    HW2 4832   1.613   3.750   5.920 -1.2672 -0.8147  0.2816
 1265SOL    HW3 4833   1.545   3.884   5.903  0.4247 -0.0209 -0.5400
 1265SOL    MW4 4834   1.576   3.821   5.954 -0.2334  0.3093  0.1619
 1266SOL     OW 4835   4.401   4.015   5.954  0.2103  0.2894 -0.8442
 1266SOL    HW2 4836   4.356   3.950   5.901  1.3078 -1.4895  0.3033
 1266SOL    HW3 4837   4.488   4.023   5.914  0.7635 -0.4648  0.1370
 1266SOL    MW4 4838   4.407   4.008   5.942  0.5349 -0.1190 -0.3212
 1267SOL     OW 4839   3.712   5.342   3.304  0.6268 -0.6295 -0.2986
 1267SOL    HW2 4840   3.717   5.246   3.302 -0.0532 -0.7100 -3.5560
 1267SOL    HW3 4841   3.622   5.362   3.278  0.5047  0.9459  1.1388
 1267SOL    MW4 4842   3.701   5.332   3.300  0.4157  0.1293 -0.3113
 1268SOL     OW 4843   0.305   1.503   3.152  0.4781 -0.0960 -0.4568
 1268SOL    HW2 4844   0.217   1.531   3.126 -0.2977 -2.8510 -1.1607
 1268SOL    HW3 4845   0.310   1.521   3.246 -0.1972  1.4986 -0.6895
 1268SOL    MW4 4846   0.294   1.509   3.161  0.0990  0.2961 -0.6111
 1269SOL     OW 4847   4.510   6.127   4.883 -0.2319 -0.0655  0.0394
 1269SOL    HW2 4848   4.473   6.064   4.821  2.0770  0.8083 -2.4334
 1269SOL    HW3 4849   4.557   6.073   4.947 -0.2149 -0.9387 -0.6860
 1269SOL    MW4 4850   4.512   6.112   4.883 -0.1275 -0.1035  0.1560
 1270SOL     OW 4851   0.522   5.115   3.395 -0.0905  0.2674  0.4293
 1270SOL    HW2 4852   0.566   5.031   3.402 -0.5572 -0.1945 -1.4966
 1270SOL    HW3 4853   0.575   5.165   3.333 -0.7652  0.7162  0.1994
 1270SOL    MW4 4854   0.535   5.111   3.387  0.2213  0.0820  0.0713
 1271SOL     OW 4855   3.862   2.128   5.742  0.5794 -0.3779  0.2055
 1271SOL    HW2 4856   3.881   2.120   5.836 -0.4435  0.8299  0.5389
 1271SOL    HW3 4857   3.778   2.084   5.731 -0.1861  1.0569  0.2061
 1271SOL    MW4 4858   3.854   2.121   5.753  0.0627  0.1292 -0.4813
 1272SOL     OW 4859   4.652   5.486   6.203 -0.2069 -0.1490 -0.3302
 1272SOL    HW2 4860   4.633   5.462   6.294 -0.9702 -1.5195 -0.8349
 1272SOL    HW3 4861   4.724   5.429   6.177  1.4507  1.6798  0.0300
 1272SOL    MW4 4862   4.659   5.476   6.212  0.4627 -0.0224  0.4771
 1273SOL     OW 4863   4.450   3.079   4.583  0.2829 -0.2241  0.0572
 1273SOL    HW2 4864   4.388   3.112   4.648  0.5570  2.5087 -0.9369
 1273SOL    HW3 4865   4.395   3.050   4.511  0.0773 -0.4521  0.3026
 1273SOL    MW4 4866   4.435   3.080   4.582  0.7289  0.5778  0.3507
 1274SOL     OW 4867   3.875   3.224   5.327 -0.2214 -0.5162  0.1953
 1274SOL    HW2 4868   3.900   3.132   5.328  0.9284 -0.2217  0.2677
 1274SOL    HW3 4869   3.954   3.271   5.353 -0.7572  0.5013  0.0576
 1274SOL    MW4 4870   3.889   3.218   5.330 -0.4474 -0.0382  0.2418
 1275SOL     OW 4871   0.549   6.288   2.879 -0.1097  0.0867 -0.5691
 1275SOL    HW2 4872   0.543   6.225   2.808 -1.5258  1.5549 -1.8357
 1275SOL    HW3 4873   0.643   6.307   2.887  0.0858 -0.2075 -1.9806
 1275SOL    MW4 4874   0.561   6.282   2.871  0.4064 -0.0746 -0.2759
 1276SOL     OW 4875   2.933   3.222   4.698  0.2361  0.6257  0.0140
 1276SOL    HW2 4876   2.943   3.272   4.779  0.8048  0.2582  0.1752
 1276SOL    HW3 4877   2.886   3.143   4.724 -2.0084  1.7304 -0.5049
 1276SOL    MW4 4878   2.928   3.218   4.712 -0.1781 -0.3358 -0.3132
 1277SOL     OW 4879   3.401   1.392   1.967 -0.2118  0.3051 -0.2944
 1277SOL    HW2 4880   3.348   1.376   2.045  0.0303 -2.3154 -0.5724
 1277SOL    HW3 4881   3.343   1.438   1.907 -0.8687  1.0465  0.8731
 1277SOL    MW4 4882   3.386   1.396   1.969  0.2167  0.1414  0.0799
 1278SOL     OW 4883   3.093   5.341   0.105  0.0185  0.5606  0.0219
 1278SOL    HW2 4884   3.136   5.342   0.190 -0.5412 -0.4405  0.3380
 1278SOL    HW3 4885   3.082   5.433   0.082  0.5571  0.8371  0.8382
 1278SOL    MW4 4886   3.097   5.353   0.113 -0.4661 -0.2225  0.5112
 1279SOL     OW 4887   5.395   1.357   2.174 -0.7714  0.5472  0.0102
 1279SOL    HW2 4888   5.371   1.374   2.084 -0.8886 -2.0418 -0.5246
 1279SOL    HW3 4889   5.468   1.417   2.192 -0.1596  0.4991 -2.1052
 1279SOL    MW4 4890   5.402   1.367   2.165 -0.1396  0.0044 -0.4446
 1280SOL     OW 4891   5.838   5.159   1.781  0.2265  0.7366  0.0230
 1280SOL    HW2 4892   5.911   5.096   1.782  0.1891  0.6987  0.3941
 1280SOL    HW3 4893   5.774   5.120   1.722  1.1676  1.5267 -1.6187
 1280SOL    MW4 4894   5.839   5.145   1.773  0.2746 -0.1167  0.3045
 1281SOL     OW 4895   2.906   6.358   0.115 -0.4448  0.0786 -0.4472
 1281SOL    HW2 4896   2.979   6.310   0.155 -1.0499 -0.9658 -0.5651
 1281SOL    HW3 4897   2.850   6.290   0.079 -1.6240  0.8565 -0.1267
 1281SOL    MW4 4898   2.908   6.343   0.116  0.2455  0.0977  0.0931
 1282SOL     OW 4899   2.278   2.260   0.089  0.5738 -0.3275 -0.2099
 1282SOL    HW2 4900   2.221   2.238   0.015 -1.2305  0.2492  0.9546
 1282SOL    HW3 4901   2.243   2.343   0.122  1.2594 -0.6536  1.3870
 1282SOL    MW4 4902   2.266   2.268   0.083  0.1664  0.1931  0.4605
 1283SOL     OW 4903   3.427   1.052   5.657 -0.2157 -0.0304  0.5170
 1283SOL    HW2 4904   3.494   1.074   5.593 -1.6647 -0.7073 -1.3390
 1283SOL    HW3 4905   3.414   1.132   5.707  1.9264  0.1124  0.9234
 1283SOL    MW4 4906   3.434   1.066   5.655 -0.3867 -0.5672  0.4469
 1284SOL     OW 4907   3.276   2.574   5.374 -0.3355  0.8624  0.1027
 1284SOL    HW2 4908   3.285   2.615   5.461 -0.5520  0.6050  0.2473
 1284SOL    HW3 4909   3.239   2.487   5.392 -0.9089  1.0189 -0.2953
 1284SOL    MW4 4910   3.272   2.568   5.388  0.1713 -0.1412  0.0800
 1285SOL     OW 4911   5.246   0.174   5.064  0.4798 -0.5246  0.5038
 1285SOL    HW2 4912   5.303   0.240   5.026  1.4724 -1.6450  0.0079
 1285SOL    HW3 4913   5.247   0.193   5.158  0.2450  0.5300  0.3143
 1285SOL    MW4 4914   5.253   0.186   5.071  0.4652  0.1256  1.0700
 1286SOL     OW 4915   0.597   2.811   0.928 -0.4090  0.5400 -0.0169
 1286SOL    HW2 4916   0.516   2.768   0.904 -0.5549 -0.4140  2.0000
 1286SOL    HW3 4917   0.575   2.861   1.007  0.8945  0.4665  0.4124
 1286SOL    MW4 4918   0.584   2.812   0.935 -0.0494  0.7785  0.1333
 1287SOL     OW 4919   3.345   4.158   3.134  0.0838  0.4069 -0.0810
 1287SOL    HW2 4920   3.378   4.192   3.218 -0.3107 -0.2662  0.3535
 1287SOL    HW3 4921   3.322   4.067   3.152 -0.3828  0.3703 -0.8224
 1287SOL    MW4 4922   3.346   4.151   3.148 -0.4593 -0.6354  0.4554
 1288SOL     OW 4923   1.321   5.515   1.365 -0.5844 -0.0023  0.1777
 1288SOL    HW2 4924   1.407   5.528   1.404 -0.6207  2.5770 -0.3898
 1288SOL    HW3 4925   1.264   5.493   1.438  0.3533 -0.7605  0.7041
 1288SOL    MW4 4926   1.325   5.514   1.379 -0.0494  0.2219 -0.3252
 1289SOL     OW 4927   5.977   5.400   0.907  0.2145  0.0751  0.2305
 1289SOL    HW2 4928   6.050   5.368   0.960  1.1706  2.2605  0.3504
 1289SOL    HW3 4929   5.918   5.442   0.970 -0.5834 -0.6775 -0.0043
 1289SOL    MW4 4930   5.979   5.402   0.922 -0.3471  0.5981 -0.0263
 1290SOL     OW 4931   3.733   2.797   0.490 -0.3417 -0.0501 -0.2227
 1290SOL    HW2 4932   3.661   2.798   0.427 -0.2817 -1.1015 -0.3195
 1290SOL    HW3 4933   3.741   2.705   0.516  1.4903 -0.0935 -0.8332
 1290SOL    MW4 4934   3.725   2.785   0.485  0.1480  0.3066  0.1342
 1291SOL     OW 4935   3.345   4.475   4.871  0.6766  0.4812 -0.1091
 1291SOL    HW2 4936   3.324   4.567   4.854 -0.4424  0.5215  1.2647
 1291SOL    HW3 4937   3.438   4.475   4.891  0.8858  1.1640 -1.0278
 1291SOL    MW4 4938   3.354   4.487   4.872 -0.3791 -0.6595 -0.5398
 1292SOL     OW 4939   0.009   3.477   1.759 -0.0288 -0.3806 -0.4602
 1292SOL    HW2 4940   0.101   3.492   1.781 -0.3103 -0.1146  0.5920
 1292SOL    HW3 4941  -0.038   3.487   1.842 -1.1923  0.9741 -1.2214
 1292SOL    MW4 4942   0.015   3.480   1.773  0.2206  0.1984 -0.0834
 1293SOL     OW 4943   5.201   4.326   5.754 -0.0330 -0.1009  0.1909
 1293SOL    HW2 4944   5.221   4.257   5.818 -0.4956 -0.9230 -0.5302
 1293SOL    HW3 4945   5.168   4.398   5.807  0.6964 -0.3309  0.9893
 1293SOL    MW4 4946   5.199   4.326   5.769  0.2716 -0.3781 -0.6581
 1294SOL     OW 4947   2.212   5.379   0.948 -0.0623  0.0851 -0.2064
 1294SOL    HW2 4948   2.204   5.445   1.016  0.1153 -1.7984  1.7512
 1294SOL    HW3 4949   2.307   5.369   0.935 -0.0653 -0.3405  0.0842
 1294SOL    MW4 4950   2.224   5.386   0.955  0.1337  0.8742 -0.9427
 1295SOL     OW 4951   5.805   0.331   1.075 -0.0835 -0.1668 -0.1486
 1295SOL    HW2 4952   5.783   0.395   1.008 -0.7328 -0.5172 -0.2785
 1295SOL    HW3 4953   5.742   0.260   1.062 -0.2708 -0.2066  0.8691
 1295SOL    MW4 4954   5.794   0.330   1.065  0.1424 -0.3655 -0.3151
 1296SOL     OW 4955   6.015   2.427   3.633 -0.4565  0.5312  0.1175
 1296SOL    HW2 4956   5.996   2.425   3.539  0.6123 -2.7976 -0.1785
 1296SOL    HW3 4957   5.932   2.404   3.675 -0.3230 -0.6887 -0.2484
 1296SOL    MW4 4958   6.002   2.423   3.626 -0.3332 -0.3409  0.3030
 1297SOL     OW 4959   0.177   1.319   1.317  0.1037 -0.0264  0.4645
 1297SOL    HW2 4960   0.102   1.260   1.322  1.0334 -1.2172  0.8025
 1297SOL    HW3 4961   0.206   1.329   1.408 -1.4852  2.9538  0.7780
 1297SOL    MW4 4962   0.171   1.312   1.330  0.5763 -0.3381  0.0936
 1298SOL     OW 4963   1.319   4.743   2.638 -0.2648 -0.2109  0.0571
 1298SOL    HW2 4964   1.248   4.722   2.698 -0.8682 -1.1289 -0.9484
 1298SOL    HW3 4965   1.295   4.827   2.600  0.0120  0.2687  0.9033
 1298SOL    MW4 4966   1.307   4.751   2.641  0.0282 -0.2644 -0.7558
 1299SOL     OW 4967   2.795   1.821   2.241 -0.1291 -0.0500 -0.3631
 1299SOL    HW2 4968   2.756   1.864   2.164  1.9473  1.1815 -0.7913
 1299SOL    HW3 4969   2.824   1.894   2.296 -2.1952 -0.8868  2.0115
 1299SOL    MW4 4970   2.793   1.836   2.238 -0.2531 -0.5926  0.0137
 1300SOL     OW 4971   2.889   0.561   2.408 -0.0082  0.3402 -0.3835
 1300SOL    HW2 4972   2.796   0.538   2.410  0.2078 -0.6231 -0.8542
 1300SOL    HW3 4973   2.899   0.613   2.328  0.1672 -1.0580 -1.3100
 1300SOL    MW4 4974   2.878   0.565   2.398  0.4065  0.5880 -0.2143
 1301SOL     OW 4975   0.316   1.098   3.880 -0.5698  0.1008  0.3664
 1301SOL    HW2 4976   0.363   1.091   3.963  2.0315 -0.4258 -1.0390
 1301SOL    HW3 4977   0.326   1.012   3.839 -2.8178 -0.0217 -0.0552
 1301SOL    MW4 4978   0.324   1.086   3.886  0.3729 -0.3123  0.0026
 1302SOL     OW 4979   0.370   0.282   6.294  0.3620  0.0054  0.0191
 1302SOL    HW2 4980   0.325   0.212   6.247  1.2460 -0.8435  0.3953
 1302SOL    HW3 4981   0.356   0.360   6.240 -0.5700 -0.4754 -0.4533
 1302SOL    MW4 4982   0.362   0.283   6.281  0.6430 -0.5023 -0.2619
 1303SOL     OW 4983   1.904   6.036   3.187 -0.0541  0.4473 -0.2699
 1303SOL    HW2 4984   1.865   5.960   3.232 -0.7356  2.0057  1.9479
 1303SOL    HW3 4985   1.857   6.041   3.104 -1.2951 -0.5166  0.3299
 1303SOL    MW4 4986   1.892   6.026   3.182  0.2731  0.0942 -0.1472
 1304SOL     OW 4987   3.402   0.352   3.309 -0.3059  0.6836  0.4802
 1304SOL    HW2 4988   3.454   0.313   3.379 -0.4787  0.4161  0.4593
 1304SOL    HW3 4989   3.312   0.324   3.327 -0.3738  0.7479  0.2437
 1304SOL    MW4 4990   3.397   0.343   3.321 -0.7161  0.0860 -0.1908
 1305SOL     OW 4991   0.497   4.943   4.288 -0.7437 -0.9356 -0.0056
 1305SOL    HW2 4992   0.538   5.027   4.268 -1.5207 -0.8904 -1.5419
 1305SOL    HW3 4993   0.522   4.925   4.379 -0.9800  1.1824  0.5235
 1305SOL    MW4 4994   0.506   4.952   4.298  0.2426  0.0270 -0.0570
 1306SOL     OW 4995   4.842   6.443   5.492 -0.4830  0.3374  0.2101
 1306SOL    HW2 4996   4.855   6.467   5.400 -0.2141  0.2630  0.2285
 1306SOL    HW3 4997   4.915   6.386   5.512 -0.4814  0.4420  0.5045
 1306SOL    MW4 4998   4.853   6.439   5.483 -0.1184 -0.7865  0.0289
 1307SOL     OW 4999   1.871   0.212   2.702 -0.1834  0.1126 -0.0393
 1307SOL    HW2 5000   1.950   0.207   2.757 -1.2481  0.8718  1.6289
 1307SOL    HW3 5001   1.887   0.150   2.631  0.2246 -2.8538  2.4586
 1307SOL    MW4 5002   1.884   0.203   2.700  0.0285 -0.4274  0.3672
 1308SOL     OW 5003   3.300   2.313   0.354 -0.4660 -0.2968 -0.2672
 1308SOL    HW2 5004   3.292   2.402   0.391  1.4128  0.8844 -2.4768
 1308SOL    HW3 5005   3.368   2.271   0.407 -0.9447 -0.2490  0.4078
 1308SOL    MW4 5006   3.308   2.320   0.366 -0.1015 -0.4710  0.2164
 1309SOL     OW 5007   0.127   0.350   4.865  0.2878  0.0243  0.5503
 1309SOL    HW2 5008   0.096   0.341   4.776  1.0334 -0.2161  0.3020
 1309SOL    HW3 5009   0.165   0.265   4.886  1.0046  0.3745  0.7345
 1309SOL    MW4 5010   0.128   0.338   4.856  0.2019 -0.0591 -0.1400
 1310SOL     OW 5011   1.775   3.839   0.624 -0.0834  0.2239  0.3007
 1310SOL    HW2 5012   1.830   3.803   0.693  0.1975  1.7156  0.9005
 1310SOL    HW3 5013   1.805   3.796   0.544 -0.9334 -2.1308  1.1543
 1310SOL    MW4 5014   1.786   3.828   0.623 -0.1619 -0.2647 -0.5875
 1311SOL     OW 5015   6.196   4.441   5.913 -0.1882 -0.2650  0.3565
 1311SOL    HW2 5016   6.252   4.413   5.841  1.2898 -0.2732  1.4766
 1311SOL    HW3 5017   6.175   4.360   5.960  1.2141  0.0578  1.5750
 1311SOL    MW4 5018   6.200   4.427   5.909 -0.0104  0.2694 -0.2808
 1312SOL     OW 5019   2.942   3.133   1.238  0.6193  0.8504  0.0385
 1312SOL    HW2 5020   2.966   3.041   1.248 -1.2170  0.0164 -2.4474
 1312SOL    HW3 5021   3.014   3.181   1.280  2.1767 -1.6574  0.4338
 1312SOL    MW4 5022   2.955   3.127   1.245 -0.5044  0.6911  0.2124
 1313SOL     OW 5023   2.506   1.862   3.624  0.0010  0.1837 -0.2747
 1313SOL    HW2 5024   2.534   1.943   3.665  1.1031 -0.8718  1.1874
 1313SOL    HW3 5025   2.508   1.880   3.530 -1.0285  2.2014  0.0488
 1313SOL    MW4 5026   2.510   1.875   3.617 -0.1942 -0.0366 -0.1967
 1314SOL     OW 5027   4.258   0.649   4.614  0.0567 -0.0504 -0.2772
 1314SOL    HW2 5028   4.187   0.705   4.646 -1.5722 -1.4969 -1.2021
 1314SOL    HW3 5029   4.318   0.710   4.570 -1.5623  1.0252 -1.1077
 1314SOL    MW4 5030   4.256   0.665   4.612  0.0647  0.0976  0.4403
 1315SOL     OW 5031   4.130   3.780   2.060 -0.5600  0.3866 -0.6043
 1315SOL    HW2 5032   4.046   3.826   2.055 -0.2774  1.2350  1.3167
 1315SOL    HW3 5033   4.166   3.806   2.145 -0.3322 -3.3593  0.6300
 1315SOL    MW4 5034   4.124   3.790   2.071 -0.0385 -0.7042  0.0270
 1316SOL     OW 5035   5.468   5.505   1.087  0.1569  0.7012 -0.3170
 1316SOL    HW2 5036   5.563   5.494   1.092  0.1627  1.2962  2.1401
 1316SOL    HW3 5037   5.453   5.595   1.116 -1.1606  0.7199 -0.9621
 1316SOL    MW4 5038   5.478   5.516   1.091 -0.1579 -0.5058 -0.3737
 1317SOL     OW 5039   2.707   3.628   0.755 -0.0022  0.9687  0.8184
 1317SOL    HW2 5040   2.627   3.604   0.709 -0.7665  1.4857  1.8609
 1317SOL    HW3 5041   2.776   3.580   0.709 -0.6870  1.7010 -1.0603
 1317SOL    MW4 5042   2.706   3.618   0.743 -0.2484  0.1526 -0.0759
 1318SOL     OW 5043   0.137   2.377   3.152 -0.1966  0.3729 -0.0649
 1318SOL    HW2 5044   0.224   2.339   3.138  0.2435  1.7988 -1.4301
 1318SOL    HW3 5045   0.081   2.333   3.088 -1.0137 -1.9935  2.1127
 1318SOL    MW4 5046   0.141   2.366   3.142  0.1758 -0.1720 -0.2980
 1319SOL     OW 5047   4.827   4.846   1.879  0.5077 -0.0776  0.1081
 1319SOL    HW2 5048   4.812   4.752   1.889 -0.0820  0.1884  2.0726
 1319SOL    HW3 5049   4.750   4.878   1.831 -0.4509 -0.2709  1.4573
 1319SOL    MW4 5050   4.815   4.838   1.874  0.7506 -0.0786  0.2218
 1320SOL     OW 5051   5.739   4.128   5.237  0.1667 -0.2192  0.2670
 1320SOL    HW2 5052   5.684   4.183   5.180 -0.7711  0.0081  1.3452
 1320SOL    HW3 5053   5.686   4.051   5.254  0.0281  0.1515  1.5950
 1320SOL    MW4 5054   5.725   4.125   5.231  0.3730  0.6941  0.3692
 1321SOL     OW 5055   5.322   3.535   3.952  0.1374  0.1962  0.1482
 1321SOL    HW2 5056   5.356   3.592   3.883 -1.8155 -0.3929 -1.3877
 1321SOL    HW3 5057   5.400   3.508   4.001  1.5005  1.2519 -1.3263
 1321SOL    MW4 5058   5.337   3.539   3.950  0.0157 -0.7834  0.5894
 1322SOL     OW 5059   4.309   0.916   2.744  0.4264  0.5669  0.5845
 1322SOL    HW2 5060   4.360   0.936   2.822  1.6607  1.0365 -0.2956
 1322SOL    HW3 5061   4.368   0.863   2.690 -1.0570 -1.3440  0.7356
 1322SOL    MW4 5062   4.324   0.912   2.747  0.2297  0.4004  0.0404
 1323SOL     OW 5063   0.957   1.144   4.695 -0.5560 -0.0347  0.6795
 1323SOL    HW2 5064   0.948   1.202   4.619 -0.9492 -1.7963 -0.6803
 1323SOL    HW3 5065   1.044   1.106   4.686 -1.4847 -2.0774 -0.3098
 1323SOL    MW4 5066   0.967   1.147   4.684  0.0213 -0.4014  0.4198
 1324SOL     OW 5067   1.063   5.457   4.786  0.0713  0.6692  0.1614
 1324SOL    HW2 5068   1.023   5.456   4.699  0.0052  1.1778  0.1784
 1324SOL    HW3 5069   1.150   5.420   4.773  0.4728  1.7262 -0.3436
 1324SOL    MW4 5070   1.069   5.452   4.773 -0.2168  0.6372 -0.2321
 1325SOL     OW 5071   0.715   6.426   1.653  0.1105  0.1823 -0.1038
 1325SOL    HW2 5072   0.684   6.428   1.743  2.6463 -1.4552  0.8866
 1325SOL    HW3 5073   0.713   6.518   1.625 -0.0342  0.8094  1.8519
 1325SOL    MW4 5074   0.711   6.438   1.661 -0.1500  0.4261  0.0814
 1326SOL     OW 5075   1.093   4.010   0.470 -0.3558  0.3941 -0.4383
 1326SOL    HW2 5076   1.048   3.977   0.393  0.6632 -0.9736 -0.4927
 1326SOL    HW3 5077   1.025   4.053   0.522 -1.7944 -1.7736 -0.4029
 1326SOL    MW4 5078   1.078   4.011   0.467 -0.0374 -0.4376 -0.1405
 1327SOL     OW 5079   1.538   5.981   6.174  0.1153  0.2984 -0.3902
 1327SOL    HW2 5080   1.571   6.068   6.151 -3.2521  2.5123  2.2053
 1327SOL    HW3 5081   1.450   5.977   6.137  0.9489 -3.1339 -2.4581
 1327SOL    MW4 5082   1.531   5.992   6.166 -0.0842 -0.0486  0.3351
 1328SOL     OW 5083   1.676   0.221   2.053  0.2047 -0.4133 -0.2871
 1328SOL    HW2 5084   1.710   0.266   2.131 -1.7223 -0.5810  0.7146
 1328SOL    HW3 5085   1.632   0.289   2.003 -1.4094 -0.8419  0.4771
 1328SOL    MW4 5086   1.675   0.236   2.057 -0.1498 -0.2950  0.5601
 1329SOL     OW 5087   0.122   2.536   0.694  0.5699  0.7323 -0.1325
 1329SOL    HW2 5088   0.030   2.561   0.686  1.0021  2.0273 -1.3789
 1329SOL    HW3 5089   0.123   2.443   0.672 -0.5555  0.4721  0.8223
 1329SOL    MW4 5090   0.110   2.527   0.690  0.2716  0.3487  0.3907
 1330SOL     OW 5091   2.073   5.918   2.201 -0.3530 -0.1896 -0.4801
 1330SOL    HW2 5092   1.989   5.962   2.197 -0.8174 -0.2599  3.8982
 1330SOL    HW3 5093   2.052   5.825   2.189 -0.4042  0.0236 -2.2968
 1330SOL    MW4 5094   2.059   5.911   2.199 -0.5419 -0.0422  0.3893
 1331SOL     OW 5095   4.267   1.642   1.696 -0.5905  0.1628 -0.5411
 1331SOL    HW2 5096   4.188   1.596   1.669 -0.5692 -1.9730  2.5086
 1331SOL    HW3 5097   4.337   1.576   1.689  0.1263  0.7719  0.5761
 1331SOL    MW4 5098   4.266   1.627   1.692 -0.1863  0.2917  0.6810
 1332SOL     OW 5099   5.138   6.038   3.133  0.6390 -0.3387 -0.2811
 1332SOL    HW2 5100   5.119   5.996   3.216  1.1334 -0.7491 -0.3718
 1332SOL    HW3 5101   5.053   6.041   3.087  0.3398  0.0089  0.2797
 1332SOL    MW4 5102   5.124   6.033   3.138 -0.1902  0.2076 -0.2349
 1333SOL     OW 5103   6.295   5.216   2.498 -0.6507  0.0218  0.0049
 1333SOL    HW2 5104   6.376   5.202   2.547 -0.8392  0.8319  0.5715
 1333SOL    HW3 5105   6.323   5.226   2.407 -0.4136 -2.8126 -0.3300
 1333SOL    MW4 5106   6.309   5.215   2.492  0.1060  1.0557 -0.1687
 1334SOL     OW 5107   2.755   2.278   0.817 -0.0714  0.0957  0.7016
 1334SOL    HW2 5108   2.806   2.198   0.804 -0.7139 -0.6519  2.4682
 1334SOL    HW3 5109   2.685   2.274   0.752  1.0368  0.2307 -0.5319
 1334SOL    MW4 5110   2.753   2.267   0.807  0.1537  0.3307  0.7723
 1335SOL     OW 5111   5.491   6.117   1.388 -0.1249  0.1477  0.4030
 1335SOL    HW2 5112   5.428   6.054   1.422 -2.0170  2.5262  1.6468
 1335SOL    HW3 5113   5.561   6.119   1.454 -1.0019  0.6658  1.3479
 1335SOL    MW4 5114   5.492   6.109   1.401 -0.1155 -0.1344  0.1902
 1336SOL     OW 5115   1.261   4.203   1.120 -0.1668  0.1993 -0.1649
 1336SOL    HW2 5116   1.263   4.232   1.029  0.8832  1.9999  0.3800
 1336SOL    HW3 5117   1.332   4.139   1.126 -0.2963  0.0055 -0.6101
 1336SOL    MW4 5118   1.271   4.198   1.109 -0.4001 -0.3434  0.5489
 1337SOL     OW 5119   4.635   0.745   5.312 -0.6378  0.1743  0.7693
 1337SOL    HW2 5120   4.582   0.748   5.232 -0.0112 -0.8054  0.2981
 1337SOL    HW3 5121   4.577   0.778   5.381 -2.8832 -3.3767  0.8411
 1337SOL    MW4 5122   4.620   0.750   5.311 -0.6982 -0.0018  0.6279
 1338SOL     OW 5123   2.325   3.822   0.948 -0.4160  0.1784 -0.2603
 1338SOL    HW2 5124   2.412   3.861   0.955 -1.0980  2.2067 -1.9162
 1338SOL    HW3 5125   2.341   3.729   0.934  1.4052  0.2297  1.1286
 1338SOL    MW4 5126   2.339   3.815   0.947  0.1193  0.7884  0.3202
 1339SOL     OW 5127   2.512   4.539   4.552 -0.7325  0.4147  0.1364
 1339SOL    HW2 5128   2.602   4.571   4.551 -0.1202 -1.1976  0.6462
 1339SOL    HW3 5129   2.462   4.609   4.511  1.0760  0.3930 -2.3732
 1339SOL    MW4 5130   2.517   4.552   4.546  0.1328 -0.3744  0.3327
 1340SOL     OW 5131   3.254   6.406   0.845 -0.1492  0.5162  0.5310
 1340SOL    HW2 5132   3.288   6.440   0.927 -0.0758  0.5461  0.4884
 1340SOL    HW3 5133   3.167   6.446   0.837  0.1309  1.0836  0.2409
 1340SOL    MW4 5134   3.247   6.416   0.854  0.0114 -0.1697  0.5390
 1341SOL     OW 5135   5.648   5.619   4.204  0.2719 -0.3001  0.0995
 1341SOL    HW2 5136   5.586   5.621   4.276  0.0030  0.4006 -0.1368
 1341SOL    HW3 5137   5.607   5.564   4.137 -1.4212  2.2826 -1.1719
 1341SOL    MW4 5138   5.635   5.612   4.204  0.5230 -0.9213 -0.6454
 1342SOL     OW 5139   2.367   0.383   2.299 -0.4444 -0.0336  0.0077
 1342SOL    HW2 5140   2.377   0.320   2.227 -0.2207  0.6111 -0.5317
 1342SOL    HW3 5141   2.369   0.469   2.256  1.0874  0.4166  0.9168
 1342SOL    MW4 5142   2.368   0.386   2.284  0.0777  0.0540 -0.2054
 1343SOL     OW 5143   1.206   4.059   1.367 -0.2859  0.0633 -0.1109
 1343SOL    HW2 5144   1.292   4.018   1.377 -0.1571  0.3024 -0.2296
 1343SOL    HW3 5145   1.205   4.094   1.278  0.0903  1.3988  0.3850
 1343SOL    MW4 5146   1.217   4.059   1.357  0.1479  0.9719 -0.5928
 1344SOL     OW 5147   5.188   0.135   5.584  0.1230 -0.4855 -0.2497
 1344SOL    HW2 5148   5.135   0.203   5.626  0.4857 -0.6202  0.4312
 1344SOL    HW3 5149   5.190   0.064   5.648  3.3460  0.5060  0.9315
 1344SOL    MW4 5150   5.181   0.135   5.598 -0.0420  0.1505 -0.9129
 1345SOL     OW 5151   1.404   1.800   0.782  0.2197  0.1329 -0.6626
 1345SOL    HW2 5152   1.468   1.871   0.791 -0.8597  1.2655 -1.5675
 1345SOL    HW3 5153   1.340   1.817   0.851  0.6151 -0.7110 -0.0742
 1345SOL    MW4 5154   1.404   1.812   0.792 -0.5562  0.5011 -0.0880
 1346SOL     OW 5155   4.870   6.363   2.636 -0.5389 -0.3995 -0.1989
 1346SOL    HW2 5156   4.939   6.328   2.692  0.0677  2.4066  1.0188
 1346SOL    HW3 5157   4.800   6.388   2.697  0.1164  2.6943 -0.5346
 1346SOL    MW4 5158   4.870   6.362   2.652  0.2223  0.0417  0.0817
 1347SOL     OW 5159   1.608   5.177   3.226  0.0630 -0.4260 -0.1090
 1347SOL    HW2 5160   1.667   5.106   3.251 -0.4558 -1.5036 -1.8447
 1347SOL    HW3 5161   1.565   5.147   3.147 -0.1823  1.8211 -0.9112
 1347SOL    MW4 5162   1.610   5.164   3.219  0.2178 -0.0423  0.1346
 1348SOL     OW 5163   3.956   3.418   1.172 -0.4648 -0.6360  0.2325
 1348SOL    HW2 5164   3.970   3.452   1.260  0.8118 -1.0446  0.2037
 1348SOL    HW3 5165   3.982   3.490   1.114  0.4501 -0.9810  0.1910
 1348SOL    MW4 5166   3.962   3.432   1.176  1.1082  0.7271  0.4293
 1349SOL     OW 5167   5.921   2.939   4.345  0.0851 -0.5071  0.4848
 1349SOL    HW2 5168   5.975   3.001   4.295 -0.1840  0.7737  1.6973
 1349SOL    HW3 5169   5.944   2.853   4.310  0.0582  0.2844 -1.6650
 1349SOL    MW4 5170   5.931   2.936   4.334 -0.0938  0.2342  1.1085
 1350SOL     OW 5171   3.043   2.818   0.538  0.0729  0.8619 -0.2476
 1350SOL    HW2 5172   3.062   2.902   0.579  0.9007  1.1129 -1.1076
 1350SOL    HW3 5173   2.966   2.834   0.483  0.7452  1.3103 -1.0926
 1350SOL    MW4 5174   3.036   2.831   0.536  0.4401  0.3930 -0.3481
 1351SOL     OW 5175   1.553   2.281   3.885  0.2357 -0.4192 -0.0158
 1351SOL    HW2 5176   1.591   2.330   3.812 -0.3455  0.6414  0.3680
 1351SOL    HW3 5177   1.458   2.297   3.878  0.0020 -1.6905 -0.0099
 1351SOL    MW4 5178   1.545   2.290   3.875 -0.1096 -0.2221  0.1398
 1352SOL     OW 5179   2.474   4.799   3.820  0.5201  0.3451  0.0744
 1352SOL    HW2 5180   2.435   4.799   3.732  1.8681 -0.1675 -0.5369
 1352SOL    HW3 5181   2.398   4.800   3.879 -0.4327 -0.9761 -1.0736
 1352SOL    MW4 5182   2.459   4.799   3.816  0.1016 -0.2993 -0.7799
 1353SOL     OW 5183   2.994   2.833   5.347  0.3420  0.2382 -0.1489
 1353SOL    HW2 5184   2.988   2.852   5.440 -2.5299 -2.7901  0.4977
 1353SOL    HW3 5185   2.906   2.804   5.323  1.6392 -1.7422 -3.1381
 1353SOL    MW4 5186   2.981   2.832   5.356 -0.0777 -0.3744 -0.4841
 1354SOL     OW 5187   4.907   1.692   6.207  0.1068  0.4967  0.5098
 1354SOL    HW2 5188   5.001   1.710   6.201 -0.1995  1.8764 -0.6218
 1354SOL    HW3 5189   4.865   1.776   6.187 -1.4065 -0.8187 -2.4765
 1354SOL    MW4 5190   4.914   1.706   6.204 -0.0202  0.1357  0.0198
 1355SOL     OW 5191   2.485   3.359   3.566  0.7946 -0.4447  0.1085
 1355SOL    HW2 5192   2.407   3.320   3.605  2.0799 -0.6124  2.7336
 1355SOL    HW3 5193   2.543   3.284   3.550  1.3154 -0.1049  0.3827
 1355SOL    MW4 5194   2.483   3.344   3.569 -0.4981  0.0419  0.0786
 1356SOL     OW 5195   5.380   5.769   1.138 -0.0592 -0.1023 -0.5476
 1356SOL    HW2 5196   5.440   5.838   1.166  0.3738  0.2893 -2.2665
 1356SOL    HW3 5197   5.301   5.783   1.189  0.6709  0.5167  0.4529
 1356SOL    MW4 5198   5.377   5.780   1.148  0.5793 -0.1369  0.0308
 1357SOL     OW 5199   0.865   4.317   1.325 -0.4255  0.4882 -0.0114
 1357SOL    HW2 5200   0.820   4.352   1.402  0.1277  0.5842  0.2796
 1357SOL    HW3 5201   0.905   4.394   1.284  2.0526  0.1256  1.4518
 1357SOL    MW4 5202   0.865   4.332   1.330  0.3724  0.0718 -0.8033
 1358SOL     OW 5203   5.291   1.436   6.077  0.0392  0.0668  0.1248
 1358SOL    HW2 5204   5.385   1.420   6.087 -0.1424 -0.7414  0.6237
 1358SOL    HW3 5205   5.285   1.494   6.001  0.9587  0.3808  0.2774
 1358SOL    MW4 5206   5.302   1.441   6.068 -0.3836 -0.5592  0.0847
 1359SOL     OW 5207   1.411   2.182   5.373 -0.0835  0.3162  0.1222
 1359SOL    HW2 5208   1.398   2.269   5.409 -1.8541 -0.9214  2.8676
 1359SOL    HW3 5209   1.477   2.142   5.430 -1.9685 -1.2659  1.3343
 1359SOL    MW4 5210   1.418   2.188   5.385  0.1501 -0.5188  0.1325
 1360SOL     OW 5211   0.885   3.885   5.211 -0.2741 -0.4899  0.0289
 1360SOL    HW2 5212   0.827   3.823   5.256 -0.2268 -1.7456 -1.5345
 1360SOL    HW3 5213   0.826   3.952   5.175 -0.5395 -0.6541  0.1573
 1360SOL    MW4 5214   0.870   3.885   5.212  0.5858 -0.0027 -0.6936
 1361SOL     OW 5215   3.766   4.628   3.797 -0.0445  0.2768 -0.2967
 1361SOL    HW2 5216   3.792   4.611   3.887 -0.9239  0.3753 -0.0143
 1361SOL    HW3 5217   3.847   4.617   3.746  0.6118  0.8904  0.5802
 1361SOL    MW4 5218   3.780   4.624   3.802 -0.3009 -0.0330 -0.0142
 1362SOL     OW 5219   4.280   1.716   5.498  0.6856 -0.3701 -0.4743
 1362SOL    HW2 5220   4.336   1.644   5.527 -0.8448 -1.0708  0.9126
 1362SOL    HW3 5221   4.231   1.681   5.424 -0.2574 -0.8673  0.3738
 1362SOL    MW4 5222   4.281   1.702   5.492 -0.3770 -0.4165  0.1478
 1363SOL     OW 5223   3.781   3.511   0.409 -0.2281 -0.0496  0.5443
 1363SOL    HW2 5224   3.741   3.462   0.337  1.9544  1.2441 -1.7457
 1363SOL    HW3 5225   3.809   3.444   0.472 -0.0413 -1.5039 -1.0149
 1363SOL    MW4 5226   3.780   3.496   0.408 -0.0778 -0.6113  0.0676
 1364SOL     OW 5227   4.115   1.076   3.658  0.7596  0.3404 -0.9653
 1364SOL    HW2 5228   4.023   1.060   3.638  1.1968 -0.5961 -2.4351
 1364SOL    HW3 5229   4.137   1.154   3.607  1.0162 -0.0100 -1.3952
 1364SOL    MW4 5230   4.106   1.084   3.648 -0.2882 -0.0233 -0.3018
 1365SOL     OW 5231   4.614   0.175   4.538 -0.1076  0.5506 -0.3762
 1365SOL    HW2 5232   4.589   0.136   4.454 -0.0375  0.4880 -0.3687
 1365SOL    HW3 5233   4.540   0.229   4.563 -0.5322 -0.1942 -0.0034
 1365SOL    MW4 5234   4.601   0.177   4.530  1.2517 -0.4291 -0.3251
 1366SOL     OW 5235   1.473   3.630   3.229  0.3498  0.1198 -0.1760
 1366SOL    HW2 5236   1.524   3.706   3.201 -2.5956  1.4869 -2.4126
 1366SOL    HW3 5237   1.532   3.556   3.219  2.9356  1.8997  0.8552
 1366SOL    MW4 5238   1.488   3.630   3.224  0.6490 -0.3174 -0.5821
 1367SOL     OW 5239   6.222   4.983   5.052 -0.2070 -0.3342  0.0605
 1367SOL    HW2 5240   6.212   5.062   4.997  2.3114  0.5338  0.7244
 1367SOL    HW3 5241   6.305   4.996   5.097 -0.9071 -2.2820  2.0757
 1367SOL    MW4 5242   6.232   4.995   5.050 -0.1904  0.6176  0.4293
 1368SOL     OW 5243   2.042   4.273   0.089 -0.3907  0.5314 -0.1568
 1368SOL    HW2 5244   2.007   4.217   0.159 -0.4779  4.1136  2.9854
 1368SOL    HW3 5245   1.970   4.334   0.069  0.5171  1.1968 -1.5073
 1368SOL    MW4 5246   2.028   4.274   0.095  0.9469 -0.3836 -0.8065
 1369SOL     OW 5247   1.519   0.519   6.357 -0.0100  0.1503 -0.3366
 1369SOL    HW2 5248   1.505   0.450   6.292  2.0890 -0.4340 -0.2494
 1369SOL    HW3 5249   1.470   0.489   6.434  1.4136 -1.6661 -0.0658
 1369SOL    MW4 5250   1.510   0.506   6.359 -0.3463 -0.2721  0.4053
 1370SOL     OW 5251  -0.010   0.649   1.933 -0.1591  0.3517  0.2759
 1370SOL    HW2 5252  -0.050   0.684   2.013 -0.0235 -0.9068  0.9084
 1370SOL    HW3 5253  -0.084   0.631   1.875 -0.4792 -1.1359  1.1088
 1370SOL    MW4 5254  -0.025   0.652   1.936  1.2961  0.2389 -0.3207
 1371SOL     OW 5255   5.349   6.233   3.541  0.3093 -0.1711 -0.2496
 1371SOL    HW2 5256   5.312   6.257   3.626  1.1469  2.1891 -0.4776
 1371SOL    HW3 5257   5.351   6.137   3.542 -0.4291 -0.2253  2.0574
 1371SOL    MW4 5258   5.344   6.223   3.552  0.4585  0.1292  0.2110
 1372SOL     OW 5259   5.364   4.157   1.874 -0.3879  0.3748 -0.7340
 1372SOL    HW2 5260   5.372   4.223   1.805  0.7893  0.7946 -0.2268
 1372SOL    HW3 5261   5.329   4.205   1.949 -0.6042  0.1672 -0.7001
 1372SOL    MW4 5262   5.361   4.172   1.875 -0.1082 -0.8785  0.0506
 1373SOL     OW 5263   1.690   3.570   4.962 -0.3350 -0.1524 -0.1474
 1373SOL    HW2 5264   1.649   3.618   5.034 -1.1431  1.0428 -1.3482
 1373SOL    HW3 5265   1.630   3.497   4.945 -0.3371 -0.2176  0.1288
 1373SOL    MW4 5266   1.676   3.566   4.970  0.0971  0.5487 -0.0750
 1374SOL     OW 5267   6.250   3.044   4.510 -0.2405  0.1993  0.0395
 1374SOL    HW2 5268   6.155   3.037   4.518 -0.1850  0.1408  0.7213
 1374SOL    HW3 5269   6.281   2.954   4.516 -0.2055  0.1162 -1.2039
 1374SOL    MW4 5270   6.242   3.031   4.512  0.0893 -0.3828 -0.1217
 1375SOL     OW 5271   3.442   0.724   0.820  0.2619  0.6871  0.5924
 1375SOL    HW2 5272   3.447   0.681   0.905  0.3693  0.6270  0.5564
 1375SOL    HW3 5273   3.509   0.680   0.767 -0.7512 -0.2421  0.0431
 1375SOL    MW4 5274   3.452   0.712   0.824  0.0808  0.0411  0.2413
 1376SOL     OW 5275   4.030   1.994   1.631 -0.1640 -0.4801 -0.5151
 1376SOL    HW2 5276   4.051   2.042   1.551 -0.8485  1.5448  0.4410
 1376SOL    HW3 5277   4.079   2.040   1.700  1.7414 -3.1711  0.0918
 1376SOL    MW4 5278   4.039   2.006   1.630  0.0666 -0.0221 -0.0781
 1377SOL     OW 5279   0.906   2.800   1.871 -0.5824 -0.6410  0.1447
 1377SOL    HW2 5280   0.811   2.808   1.862 -0.5298 -1.3562 -1.2725
 1377SOL    HW3 5281   0.942   2.848   1.796  0.1509 -1.0436  0.2260
 1377SOL    MW4 5282   0.898   2.807   1.860  0.1211 -0.5381  0.3418
 1378SOL     OW 5283   0.257   1.913   0.362  0.0409  0.1847 -0.0436
 1378SOL    HW2 5284   0.251   1.828   0.407 -0.9529  0.2674 -0.0003
 1378SOL    HW3 5285   0.239   1.893   0.270  3.1179 -0.1515 -0.6764
 1378SOL    MW4 5286   0.254   1.899   0.356  0.6447  0.3509  0.2909
 1379SOL     OW 5287   4.538   4.816   2.708 -0.3680  0.0580  0.3864
 1379SOL    HW2 5288   4.557   4.909   2.696 -0.2991 -0.2164 -2.0046
 1379SOL    HW3 5289   4.623   4.773   2.704 -0.5988 -0.3056 -0.7800
 1379SOL    MW4 5290   4.552   4.822   2.706 -0.0378 -0.5921  0.1210
 1380SOL     OW 5291   5.532   5.724   0.899 -0.0309  0.0745  0.2982
 1380SOL    HW2 5292   5.488   5.782   0.838 -1.4217 -1.2000  0.0342
 1380SOL    HW3 5293   5.483   5.734   0.981 -0.0511 -0.4322  0.3505
 1380SOL    MW4 5294   5.520   5.733   0.902 -0.4113 -0.4849 -0.2797
 1381SOL     OW 5295   3.818   5.308   4.711 -0.3467 -0.1933  0.1463
 1381SOL    HW2 5296   3.850   5.294   4.800  0.9041  0.2725 -0.2210
 1381SOL    HW3 5297   3.730   5.343   4.724 -0.1075  0.0753  1.2066
 1381SOL    MW4 5298   3.810   5.310   4.725  0.0384  0.3693 -0.2624
 1382SOL     OW 5299   1.147   2.033   1.304 -0.0153  0.3505  0.4781
 1382SOL    HW2 5300   1.191   2.117   1.316 -0.4876  0.5922  0.5329
 1382SOL    HW3 5301   1.142   2.022   1.209 -1.1189  1.0103  0.4451
 1382SOL    MW4 5302   1.152   2.043   1.293 -0.0508  0.5794 -0.1531
 1383SOL     OW 5303   0.343   5.731   0.726 -0.5672  0.0923  0.2163
 1383SOL    HW2 5304   0.309   5.669   0.662  0.5805 -0.1533 -0.1877
 1383SOL    HW3 5305   0.305   5.703   0.809 -0.5822 -0.7463 -0.0668
 1383SOL    MW4 5306   0.334   5.719   0.729 -0.1460  0.4756 -0.1678
 1384SOL     OW 5307   0.080   0.177   0.451  0.2068 -0.1941  0.4524
 1384SOL    HW2 5308   0.161   0.152   0.406 -1.0364  1.0767 -2.7917
 1384SOL    HW3 5309   0.023   0.100   0.441  0.0626 -0.0497  0.1269
 1384SOL    MW4 5310   0.083   0.163   0.444  0.0083  0.3647 -0.3301
 1385SOL     OW 5311   3.024   5.279   1.244  0.7174  0.3885 -0.0121
 1385SOL    HW2 5312   2.971   5.352   1.213 -0.5289 -0.6462 -0.4348
 1385SOL    HW3 5313   3.078   5.316   1.313 -0.4933  1.5395  0.3641
 1385SOL    MW4 5314   3.024   5.294   1.249  0.3428  0.0347 -0.6009
 1386SOL     OW 5315   2.573   1.286   4.563 -0.3458 -0.1650 -0.4534
 1386SOL    HW2 5316   2.576   1.208   4.506 -0.2872 -0.3706 -0.1706
 1386SOL    HW3 5317   2.479   1.303   4.575 -0.3587 -0.2289 -0.4638
 1386SOL    MW4 5318   2.561   1.278   4.557 -0.0577  0.0535 -0.6185
 1387SOL     OW 5319   2.810   4.261   2.453 -0.2233 -0.4915 -0.2379
 1387SOL    HW2 5320   2.736   4.238   2.397 -1.5882 -0.0844  1.3317
 1387SOL    HW3 5321   2.831   4.351   2.428 -1.1164 -0.1535  0.2026
 1387SOL    MW4 5322   2.803   4.270   2.442 -0.0280  0.4207  0.5535
 1388SOL     OW 5323   4.285   1.644   1.381 -0.3834  0.0134  0.5657
 1388SOL    HW2 5324   4.301   1.691   1.463  1.2053 -2.7447  1.9939
 1388SOL    HW3 5325   4.213   1.584   1.402  1.2210 -2.0068  0.6428
 1388SOL    MW4 5326   4.277   1.642   1.395 -0.1963 -0.1372  0.2602
 1389SOL     OW 5327   4.954   2.138   1.979 -0.1345  0.0749 -0.9547
 1389SOL    HW2 5328   5.011   2.211   1.955 -0.5822  0.7775  0.0755
 1389SOL    HW3 5329   5.013   2.072   2.015  0.1591  0.3201 -0.9848
 1389SOL    MW4 5330   4.969   2.139   1.980  0.1108  0.3182  0.4079
 1390SOL     OW 5331   4.513   4.496   5.479  0.0287  0.2294  0.4210
 1390SOL    HW2 5332   4.589   4.508   5.422 -1.3110 -0.5087 -1.6279
 1390SOL    HW3 5333   4.550   4.467   5.563  1.9383 -1.5862 -0.9540
 1390SOL    MW4 5334   4.528   4.494   5.483 -0.0539  0.7157 -0.3533
 1391SOL     OW 5335   0.837   4.288   0.233  0.4293 -0.0333  0.0782
 1391SOL    HW2 5336   0.835   4.233   0.155 -0.7975  2.0346 -1.4650
 1391SOL    HW3 5337   0.760   4.261   0.283  0.0874 -0.0520 -0.4477
 1391SOL    MW4 5338   0.826   4.277   0.229 -0.4418  0.1902  0.5509
 1392SOL     OW 5339   3.250   1.836   0.257 -0.1085 -0.5264  0.7711
 1392SOL    HW2 5340   3.175   1.819   0.313  0.7471 -0.5014  1.9581
 1392SOL    HW3 5341   3.212   1.855   0.171 -1.3998 -1.3901  1.1310
 1392SOL    MW4 5342   3.235   1.836   0.253 -0.0473 -0.0643 -0.0675
 1393SOL     OW 5343   3.404   0.668   3.958  0.2905 -0.2302  0.0899
 1393SOL    HW2 5344   3.365   0.742   4.006 -1.3262  0.0965 -1.5878
 1393SOL    HW3 5345   3.422   0.603   4.026 -0.1599  0.8984  1.3626
 1393SOL    MW4 5346   3.401   0.669   3.974 -0.2859 -0.5181 -0.1252
 1394SOL     OW 5347   5.470   1.911   1.561 -0.1268  0.2696  0.5422
 1394SOL    HW2 5348   5.509   1.825   1.577 -1.0451  0.2160  2.8938
 1394SOL    HW3 5349   5.432   1.936   1.645 -3.0270  1.3880 -0.9656
 1394SOL    MW4 5350   5.470   1.903   1.574 -0.0344 -0.1623 -0.5450
 1395SOL     OW 5351   5.084   2.755   2.233 -0.2306 -0.1654 -0.3992
 1395SOL    HW2 5352   5.073   2.736   2.139 -0.9618 -0.9314 -0.1690
 1395SOL    HW3 5353   5.124   2.842   2.235 -1.1677  0.3171 -1.4042
 1395SOL    MW4 5354   5.088   2.764   2.221 -0.4297 -0.6018  0.4370
 1396SOL     OW 5355   0.702   3.418   3.872  0.2236 -0.0316 -0.1191
 1396SOL    HW2 5356   0.742   3.355   3.812 -0.5648 -0.7893  0.1220
 1396SOL    HW3 5357   0.654   3.478   3.815 -0.5256 -0.7484 -0.2714
 1396SOL    MW4 5358   0.701   3.417   3.856  0.2531 -0.5508  0.8774
 1397SOL     OW 5359   0.171   1.834   0.095  0.2716 -0.2997 -0.1327
 1397SOL    HW2 5360   0.196   1.926   0.088 -1.8099  0.5126  1.9379
 1397SOL    HW3 5361   0.086   1.835   0.139 -0.0435 -3.2151 -0.4687
 1397SOL    MW4 5362   0.163   1.846   0.100  0.9464 -0.1952  0.6483
 1398SOL     OW 5363   3.192   4.017   5.176 -0.5515  0.0343 -0.2882
 1398SOL    HW2 5364   3.274   3.995   5.220  0.0737 -2.4581 -2.4267
 1398SOL    HW3 5365   3.214   4.089   5.117  0.0966 -0.5118 -0.7306
 1398SOL    MW4 5366   3.206   4.023   5.174 -0.0214  0.7475 -0.4375
 1399SOL     OW 5367   1.756   6.100   3.530 -0.5736 -0.4392 -0.8753
 1399SOL    HW2 5368   1.714   6.131   3.610 -1.5671 -0.3576 -1.4078
 1399SOL    HW3 5369   1.837   6.150   3.524 -0.5248 -0.4044  0.0500
 1399SOL    MW4 5370   1.761   6.111   3.540 -0.0509 -0.3237 -0.0933
 1400SOL     OW 5371   3.459   0.160   3.134 -0.0431  0.5709 -0.6588
 1400SOL    HW2 5372   3.547   0.155   3.095 -0.0676  2.3271 -1.0152
 1400SOL    HW3 5373   3.463   0.235   3.193 -1.1122  0.2508 -0.1583
 1400SOL    MW4 5374   3.471   0.169   3.136 -0.0587 -0.5907  0.1475
 1401SOL     OW 5375   2.914   5.752   3.090  1.0570 -0.2386 -0.5658
 1401SOL    HW2 5376   2.874   5.793   3.014  0.1730  1.3176  0.6975
 1401SOL    HW3 5377   3.007   5.775   3.083  0.9098  0.2540 -0.9437
 1401SOL    MW4 5378   2.921   5.760   3.079 -0.1505 -0.2637  0.4035
 1402SOL     OW 5379   0.229   3.430   2.341  0.5122 -0.3878  0.3428
 1402SOL    HW2 5380   0.306   3.385   2.375 -0.5353 -2.5079  0.0894
 1402SOL    HW3 5381   0.211   3.499   2.406  3.5427  1.3721 -0.4502
 1402SOL    MW4 5382   0.237   3.433   2.354  0.4925 -0.1968 -0.1341
 1403SOL     OW 5383   2.998   2.866   1.229  0.1098 -0.1403 -0.0588
 1403SOL    HW2 5384   2.958   2.807   1.165 -0.7648  0.2624  0.0936
 1403SOL    HW3 5385   3.023   2.810   1.302  1.3114 -0.6367 -0.8253
 1403SOL    MW4 5386   2.996   2.851   1.230 -0.2611 -0.6449  0.0508
 1404SOL     OW 5387   0.215   6.359   5.958 -0.0132  0.0372 -0.3869
 1404SOL    HW2 5388   0.259   6.422   5.901 -1.0096  0.5335 -0.6250
 1404SOL    HW3 5389   0.132   6.340   5.913 -0.1153 -0.7802  0.1158
 1404SOL    MW4 5390   0.210   6.365   5.944 -0.4240 -0.4708  0.0531
 1405SOL     OW 5391   4.586   1.268   0.063 -0.0449 -0.0824  0.1944
 1405SOL    HW2 5392   4.650   1.208   0.026  0.3545  1.1169 -1.1457
 1405SOL    HW3 5393   4.505   1.248   0.017  0.0371  0.2375 -0.0967
 1405SOL    MW4 5394   4.584   1.258   0.052  0.0253  0.2388 -0.3955
 1406SOL     OW 5395   5.876   2.497   6.039 -1.0810 -0.2929  0.0000
 1406SOL    HW2 5396   5.962   2.456   6.046 -0.8518  0.0871 -0.5788
 1406SOL    HW3 5397   5.863   2.511   5.945 -1.4147  0.4112  0.1470
 1406SOL    MW4 5398   5.886   2.493   6.028  0.1532 -0.2021  0.7662
 1407SOL     OW 5399   2.906   4.221   2.092  0.0985 -0.4003 -0.6405
 1407SOL    HW2 5400   2.880   4.305   2.054 -0.5015  0.5740  1.7244
 1407SOL    HW3 5401   2.946   4.173   2.019  1.9900  2.5446 -1.7302
 1407SOL    MW4 5402   2.908   4.226   2.077 -0.5595  0.7092  0.4307
 1408SOL     OW 5403   5.902   2.126   2.148  0.6284 -0.2488 -0.0268
 1408SOL    HW2 5404   5.953   2.064   2.200 -0.2264 -0.4556  0.5844
 1408SOL    HW3 5405   5.862   2.073   2.079 -0.9894 -0.6100  1.1415
 1408SOL    MW4 5406   5.904   2.111   2.145  0.6601  0.1308  0.0665
 1409SOL     OW 5407   2.047   3.458   5.517 -1.1433 -0.0998  0.4196
 1409SOL    HW2 5408   1.990   3.391   5.554 -1.5953 -0.5645 -1.0569
 1409SOL    HW3 5409   2.070   3.425   5.431  0.2935  0.7147  0.4596
 1409SOL    MW4 5410   2.042   3.445   5.511 -0.0177 -0.2437 -0.1260
 1410SOL     OW 5411   1.024   3.798   6.317  0.0196  0.0948 -0.0702
 1410SOL    HW2 5412   0.942   3.794   6.366 -0.0411 -0.9148 -0.2449
 1410SOL    HW3 5413   1.051   3.707   6.307  1.5358  0.4355  0.5975
 1410SOL    MW4 5414   1.017   3.786   6.322  0.3154  0.6498 -0.3418
 1411SOL     OW 5415   4.479   0.951   4.068  0.2000 -0.0833  0.9168
 1411SOL    HW2 5416   4.467   1.034   4.023  2.9794  0.1038  0.2949
 1411SOL    HW3 5417   4.438   0.886   4.010  2.6670  0.2882 -1.4805
 1411SOL    MW4 5418   4.472   0.953   4.054  0.4088 -0.4284 -0.0787
 1412SOL     OW 5419   4.384   5.622   6.169  0.3159  0.1873  0.5680
 1412SOL    HW2 5420   4.391   5.708   6.127 -1.1445  0.0505  0.0036
 1412SOL    HW3 5421   4.469   5.581   6.153  0.8774  1.3449  0.4654
 1412SOL    MW4 5422   4.396   5.628   6.162  0.4122  0.3859 -0.2528
 1413SOL     OW 5423   5.731   6.103   0.152 -0.4216  0.1154  0.1945
 1413SOL    HW2 5424   5.771   6.048   0.084 -1.8604  1.5050 -1.8741
 1413SOL    HW3 5425   5.637   6.087   0.144 -0.6165 -0.3955  2.5832
 1413SOL    MW4 5426   5.724   6.093   0.142 -0.3762  0.0632 -0.4689
 1414SOL     OW 5427   2.464   5.406   1.878 -0.1762 -0.5291  0.0065
 1414SOL    HW2 5428   2.541   5.412   1.822  0.6685 -0.1030  1.1765
 1414SOL    HW3 5429   2.499   5.386   1.965 -1.3541  0.0604  0.6403
 1414SOL    MW4 5430   2.479   5.404   1.882  0.5587 -0.3324 -0.4451
 1415SOL     OW 5431   2.645   1.514   3.356 -0.1895 -0.3357 -0.6481
 1415SOL    HW2 5432   2.650   1.583   3.423  0.7801  0.2171 -1.2680
 1415SOL    HW3 5433   2.555   1.481   3.362 -0.0343 -0.5056  1.1218
 1415SOL    MW4 5434   2.634   1.519   3.366 -0.1173  0.0037  0.3225
 1416SOL     OW 5435   0.458   0.481   4.591  0.3944  0.1235  0.6065
 1416SOL    HW2 5436   0.408   0.508   4.668 -0.5089  2.1924 -0.6271
 1416SOL    HW3 5437   0.532   0.541   4.588 -0.3779  1.0705 -0.9030
 1416SOL    MW4 5438   0.461   0.492   4.601 -1.3642 -0.0397 -0.4590
 1417SOL     OW 5439   1.152   3.878   3.771 -0.4043  0.2133  0.0123
 1417SOL    HW2 5440   1.145   3.789   3.738  0.8138  0.7098 -1.7550
 1417SOL    HW3 5441   1.062   3.901   3.796 -1.0000 -0.9966 -0.9051
 1417SOL    MW4 5442   1.139   3.870   3.770 -0.3944 -0.3773 -0.4341
 1418SOL     OW 5443   2.993   3.603   3.286  0.2545 -0.6884 -0.1639
 1418SOL    HW2 5444   3.046   3.676   3.318  0.1881 -1.2356  1.2886
 1418SOL    HW3 5445   2.995   3.612   3.191  2.9053 -0.6130 -0.1964
 1418SOL    MW4 5446   3.001   3.614   3.278 -0.3352 -0.9614  0.1871
 1419SOL     OW 5447   4.473   0.424   1.339 -0.0345  0.3781  0.6397
 1419SOL    HW2 5448   4.407   0.408   1.272  1.7250  2.0029 -1.6356
 1419SOL    HW3 5449   4.525   0.344   1.342 -0.1887  0.2608  0.1581
 1419SOL    MW4 5450   4.471   0.411   1.331  0.0136 -0.3697  0.3284
 1420SOL     OW 5451   4.152   0.777   6.209  0.2339 -0.3830  0.6399
 1420SOL    HW2 5452   4.162   0.793   6.115  1.5630  0.6630  0.9335
 1420SOL    HW3 5453   4.160   0.682   6.218  0.8606 -0.4261 -0.2287
 1420SOL    MW4 5454   4.154   0.766   6.198 -0.0537 -0.2760 -0.3057
 1421SOL     OW 5455   3.659   0.784   1.575 -0.8702 -0.2602 -0.3306
 1421SOL    HW2 5456   3.740   0.830   1.598 -1.1849  0.7822 -1.2564
 1421SOL    HW3 5457   3.648   0.799   1.481 -1.3401 -1.6861 -0.5352
 1421SOL    MW4 5458   3.668   0.792   1.565  0.3017 -0.2306  0.6057
 1422SOL     OW 5459   2.775   3.961   2.087  0.1094 -0.5145  0.3795
 1422SOL    HW2 5460   2.812   4.049   2.099  0.8427 -0.6581 -0.6891
 1422SOL    HW3 5461   2.681   3.972   2.101  0.1807  0.4555  0.1469
 1422SOL    MW4 5462   2.768   3.974   2.091 -0.2568  0.2495  0.3555
 1423SOL     OW 5463   0.182   6.344   1.273  0.3493  0.3056  0.1810
 1423SOL    HW2 5464   0.154   6.368   1.361  1.6976  2.7105  0.0449
 1423SOL    HW3 5465   0.240   6.269   1.286 -0.6016 -0.2802  1.1598
 1423SOL    MW4 5466   0.186   6.337   1.286 -0.0339  0.1247 -0.7258
 1424SOL     OW 5467   1.405   0.324   1.793  0.3102  0.2766 -0.2547
 1424SOL    HW2 5468   1.400   0.382   1.717 -2.6363 -1.0357 -1.2132
 1424SOL    HW3 5469   1.446   0.244   1.760  1.8155  0.7409  0.3789
 1424SOL    MW4 5470   1.410   0.321   1.779  0.2150  0.1737 -0.3286
 1425SOL     OW 5471   2.233   1.765   2.054  0.4182  0.7298  0.0929
 1425SOL    HW2 5472   2.173   1.826   2.097  0.6784  1.1297 -0.1146
 1425SOL    HW3 5473   2.320   1.792   2.082  0.4710 -0.3318  1.0121
 1425SOL    MW4 5474   2.236   1.776   2.064 -0.3356  0.1479  0.0501
 1426SOL     OW 5475   1.974   3.970   5.837 -0.0520  0.2797 -0.5129
 1426SOL    HW2 5476   1.975   4.003   5.748  0.8629  0.2314 -0.5353
 1426SOL    HW3 5477   2.066   3.976   5.866 -0.3108  0.1703  0.3698
 1426SOL    MW4 5478   1.987   3.975   5.829 -0.7776 -0.0221 -0.3503
 1427SOL     OW 5479   1.911   3.121   2.331  0.4141 -0.5090 -0.3162
 1427SOL    HW2 5480   1.956   3.036   2.329 -0.2594 -0.8996  0.4222
 1427SOL    HW3 5481   1.930   3.156   2.418  0.3344 -0.0925 -0.4641
 1427SOL    MW4 5482   1.920   3.114   2.342 -0.0124 -0.0558  0.4536
 1428SOL     OW 5483   5.243   2.008   2.666  0.3811  0.0714  0.3848
 1428SOL    HW2 5484   5.151   2.027   2.647  0.6798  1.6137  0.3824
 1428SOL    HW3 5485   5.255   1.917   2.637 -0.7481  0.3423 -1.0667
 1428SOL    MW4 5486   5.233   1.998   2.659 -0.4173 -0.2289  0.1556
 1429SOL     OW 5487   0.086   4.752   1.021 -0.6356  0.0860 -0.3334
 1429SOL    HW2 5488   0.102   4.811   0.947 -1.1151 -1.4824 -1.7456
 1429SOL    HW3 5489   0.157   4.688   1.017 -0.5538  0.0927  0.7036
 1429SOL    MW4 5490   0.098   4.751   1.011 -0.4294 -0.8196  0.1590
 1430SOL     OW 5491   6.281   2.793   1.936 -0.1360 -0.2528 -0.1018
 1430SOL    HW2 5492   6.320   2.705   1.938  0.5302 -0.0298 -1.7261
 1430SOL    HW3 5493   6.351   2.850   1.905 -0.9034  0.6686 -0.1909
 1430SOL    MW4 5494   6.295   2.789   1.932  0.5407  0.1619 -0.1334
 1431SOL     OW 5495   2.607   3.112   3.445 -0.5374  0.8573 -0.3484
 1431SOL    HW2 5496   2.643   3.065   3.370 -2.2681  1.1812 -1.4298
 1431SOL    HW3 5497   2.661   3.084   3.519 -0.7052 -1.8826 -1.1579
 1431SOL    MW4 5498   2.619   3.102   3.445  0.2729  0.8511 -0.2201
 1432SOL     OW 5499   2.430   2.649   3.504  0.3031  0.2062 -0.0368
 1432SOL    HW2 5500   2.436   2.565   3.457  2.3174  0.3453 -0.0878
 1432SOL    HW3 5501   2.374   2.629   3.580 -0.3276 -0.8355 -0.7409
 1432SOL    MW4 5502   2.423   2.635   3.508 -0.3719  0.0674  0.2579
 1433SOL     OW 5503   4.777   0.967   0.413  0.3105 -0.1804 -0.3639
 1433SOL    HW2 5504   4.739   1.049   0.380  0.3332 -1.1700 -3.0887
 1433SOL    HW3 5505   4.871   0.977   0.397  0.1905 -1.1611 -1.8481
 1433SOL    MW4 5506   4.785   0.979   0.406 -0.0722 -0.2747  0.5555
 1434SOL     OW 5507   0.767   0.722   2.815 -0.5034 -0.4603  0.2155
 1434SOL    HW2 5508   0.793   0.725   2.723  2.0034 -0.3831  0.8548
 1434SOL    HW3 5509   0.760   0.628   2.834  2.1221 -0.6644  0.6470
 1434SOL    MW4 5510   0.770   0.710   2.805  0.0593 -0.2167 -0.2968
 1435SOL     OW 5511   6.257   6.269   1.510 -0.1523  0.4615  0.2138
 1435SOL    HW2 5512   6.277   6.177   1.529 -0.6843  0.2804 -0.0802
 1435SOL    HW3 5513   6.271   6.277   1.415  0.3424  0.8016  0.3118
 1435SOL    MW4 5514   6.262   6.258   1.500  0.3452 -0.7664 -0.0540
 1436SOL     OW 5515   5.629   2.415   0.797 -0.3715  0.8064 -0.5125
 1436SOL    HW2 5516   5.702   2.470   0.770  2.1865 -0.5237  2.9636
 1436SOL    HW3 5517   5.650   2.328   0.762 -1.5002  0.8161 -1.2963
 1436SOL    MW4 5518   5.641   2.411   0.788 -0.4953  0.6995 -0.0423
 1437SOL     OW 5519   1.818   1.828   4.143 -0.2813  0.3741  0.0204
 1437SOL    HW2 5520   1.808   1.733   4.151 -0.0774  0.3437 -0.0604
 1437SOL    HW3 5521   1.729   1.862   4.141 -0.3587  0.3238  1.5353
 1437SOL    MW4 5522   1.805   1.820   4.144 -0.4342 -0.1192 -0.4330
 1438SOL     OW 5523   1.619   5.464   0.766  0.2364  0.6909 -0.0831
 1438SOL    HW2 5524   1.622   5.412   0.846  0.6613 -0.0406 -0.5572
 1438SOL    HW3 5525   1.528   5.495   0.761  0.2956  1.0371  0.8490
 1438SOL    MW4 5526   1.607   5.461   0.776  0.4551 -0.1529 -0.5442
 1439SOL     OW 5527   5.683   2.094   4.768  0.5113 -0.5044  0.2381
 1439SOL    HW2 5528   5.661   2.165   4.708  0.8883 -0.1911  0.4626
 1439SOL    HW3 5529   5.766   2.121   4.808  0.8218 -1.2246  0.0932
 1439SOL    MW4 5530   5.691   2.107   4.766 -0.2573 -0.4468  0.2515
 1440SOL     OW 5531   4.653   4.187   3.614  0.0462 -0.0286 -0.0272
 1440SOL    HW2 5532   4.614   4.252   3.672 -2.3353 -1.9082  0.6598
 1440SOL    HW3 5533   4.728   4.231   3.574 -0.9631  2.8084  1.0037
 1440SOL    MW4 5534   4.658   4.201   3.616 -0.5826  0.5588 -0.3286
 1441SOL     OW 5535   2.043   2.549   1.616 -0.0794 -0.3470  0.2887
 1441SOL    HW2 5536   2.069   2.577   1.704  0.7485  0.2294 -0.1351
 1441SOL    HW3 5537   1.947   2.547   1.620 -0.0802 -3.9181  2.3114
 1441SOL    MW4 5538   2.034   2.553   1.628 -0.1730  0.7431  0.3727
 1442SOL     OW 5539   4.971   3.493   1.671 -0.1346 -0.4188  0.1511
 1442SOL    HW2 5540   4.947   3.585   1.681  1.7795  0.1788 -0.1710
 1442SOL    HW3 5541   4.970   3.478   1.576 -0.0408 -0.6038  0.1784
 1442SOL    MW4 5542   4.968   3.503   1.660 -0.3731 -0.0024 -0.7305
 1443SOL     OW 5543   4.055   2.850   5.573 -0.6636 -0.0430  0.1646
 1443SOL    HW2 5544   4.140   2.834   5.531 -0.3099 -0.3417  0.9689
 1443SOL    HW3 5545   4.000   2.887   5.504  0.3112  0.7514 -0.2159
 1443SOL    MW4 5546   4.059   2.853   5.558  0.4809 -0.3019  0.1597
 1444SOL     OW 5547   2.757   3.318   2.344 -0.0741 -0.1198  0.3346
 1444SOL    HW2 5548   2.703   3.356   2.414  0.6580  1.4803  0.0726
 1444SOL    HW3 5549   2.830   3.276   2.391  0.6902  1.3941  0.5372
 1444SOL    MW4 5550   2.759   3.317   2.359  0.5009 -0.0678 -0.2644
 1445SOL     OW 5551   3.990   5.649   4.906  0.4148  0.1699  0.2910
 1445SOL    HW2 5552   4.080   5.671   4.884 -0.0764  1.3589 -0.6087
 1445SOL    HW3 5553   3.993   5.555   4.927  1.5652 -0.1940 -1.3251
 1445SOL    MW4 5554   4.002   5.639   4.906  0.1389 -0.3331  0.2040
 1446SOL     OW 5555   5.552   3.370   4.475  0.4303  0.0087 -0.2062
 1446SOL    HW2 5556   5.590   3.290   4.438 -1.3318 -0.7826 -0.4342
 1446SOL    HW3 5557   5.579   3.439   4.415  2.2147 -0.3467  0.1393
 1446SOL    MW4 5558   5.560   3.368   4.462 -0.9393  0.1363 -0.0656
 1447SOL     OW 5559   3.273   4.044   3.749  0.1889 -0.3100 -0.3762
 1447SOL    HW2 5560   3.189   4.086   3.768  1.2147  1.6916  0.0277
 1447SOL    HW3 5561   3.274   4.037   3.653  0.6967  2.3769 -0.6638
 1447SOL    MW4 5562   3.262   4.049   3.739  0.1000 -0.1185 -0.2742
 1448SOL     OW 5563   2.490   5.729   3.142 -0.9399  0.2416  0.1549
 1448SOL    HW2 5564   2.546   5.710   3.066  0.8894 -3.7422  2.2284
 1448SOL    HW3 5565   2.539   5.795   3.191  0.1674 -0.5058  0.0948
 1448SOL    MW4 5566   2.504   5.735   3.138  0.4199  0.4293 -0.4991
 1449SOL     OW 5567   0.509   2.537   2.222 -0.2694  0.3963 -0.4340
 1449SOL    HW2 5568   0.415   2.546   2.205 -0.9897  0.5053  2.8594
 1449SOL    HW3 5569   0.522   2.444   2.238 -0.0644  0.5212  0.1680
 1449SOL    MW4 5570   0.498   2.526   2.222  0.5403 -0.1794  0.8219
 1450SOL     OW 5571   5.635   2.482   3.778 -0.2726 -0.2187 -0.3506
 1450SOL    HW2 5572   5.704   2.463   3.715 -0.5196  1.3796 -1.1488
 1450SOL    HW3 5573   5.554   2.484   3.727 -0.5230  0.7168  0.0409
 1450SOL    MW4 5574   5.634   2.480   3.763 -0.3312 -0.5307  0.1905
 1451SOL     OW 5575   2.319   5.365   2.275  0.1621 -0.5714 -0.4519
 1451SOL    HW2 5576   2.392   5.359   2.212  1.7339  0.1838  1.2061
 1451SOL    HW3 5577   2.335   5.293   2.336  0.2426  0.3481  0.6284
 1451SOL    MW4 5578   2.331   5.355   2.274 -0.5210 -0.0988 -0.3158
 1452SOL     OW 5579   4.286   0.233   2.043  0.3647 -0.2409  0.2020
 1452SOL    HW2 5580   4.341   0.184   1.982 -1.3240 -2.7426  0.4849
 1452SOL    HW3 5581   4.234   0.292   1.988  0.4084 -0.8891 -0.5470
 1452SOL    MW4 5582   4.286   0.234   2.028 -0.3980 -0.3757  0.5615
 1453SOL     OW 5583   5.489   5.775   5.946  0.8683  0.0333  0.0623
 1453SOL    HW2 5584   5.460   5.686   5.968 -1.7105  0.3174 -1.6942
 1453SOL    HW3 5585   5.468   5.827   6.023  0.4941 -0.5354  0.3528
 1453SOL    MW4 5586   5.482   5.770   5.959 -0.6220  0.4351 -0.1024
 1454SOL     OW 5587   5.252   0.331   1.875  0.4001 -0.6624  0.0549
 1454SOL    HW2 5588   5.168   0.312   1.915  0.4452  0.6264  0.8127
 1454SOL    HW3 5589   5.261   0.266   1.805 -0.3463 -2.0084  1.1822
 1454SOL    MW4 5590   5.242   0.320   1.871 -0.7985  0.1664  0.0890
 1455SOL     OW 5591   3.356   4.827   2.049  0.0049  0.3919 -0.1239
 1455SOL    HW2 5592   3.388   4.900   2.102 -0.9018  1.0801 -0.5031
 1455SOL    HW3 5593   3.270   4.807   2.086 -0.0927  0.0473 -0.5294
 1455SOL    MW4 5594   3.349   4.834   2.061  0.1202  0.2483  0.1415
 1456SOL     OW 5595   6.120   1.539   2.589  0.6180  0.4823 -0.0466
 1456SOL    HW2 5596   6.107   1.449   2.560 -1.7558  0.6700  0.2127
 1456SOL    HW3 5597   6.175   1.532   2.667 -1.7348 -1.1087  1.6175
 1456SOL    MW4 5598   6.126   1.526   2.595  0.0437  0.5392 -0.3294
 1457SOL     OW 5599   3.402   5.077   2.931 -0.1216  0.3814 -0.3982
 1457SOL    HW2 5600   3.427   5.042   3.017  0.8526  1.0830 -0.3735
 1457SOL    HW3 5601   3.319   5.124   2.948 -0.0605  0.3158  0.1084
 1457SOL    MW4 5602   3.394   5.079   2.945 -0.1262  0.5263  0.8445
 1458SOL     OW 5603   4.275   0.368   5.131  0.2643  0.5718 -0.7020
 1458SOL    HW2 5604   4.290   0.443   5.189  0.2906  0.4864 -0.5970
 1458SOL    HW3 5605   4.192   0.388   5.088  0.7088  1.0813 -1.3409
 1458SOL    MW4 5606   4.266   0.381   5.133  0.6781 -0.1871 -0.1260
 1459SOL     OW 5607   3.572   2.987   1.793 -0.0232 -0.2043 -0.1062
 1459SOL    HW2 5608   3.632   3.055   1.823 -0.3407  0.4722 -0.9488
 1459SOL    HW3 5609   3.539   3.020   1.709 -0.4787 -1.2241 -0.3424
 1459SOL    MW4 5610   3.576   3.001   1.786  0.6006 -0.1043 -0.9765
 1460SOL     OW 5611   2.859   0.087   2.397  0.5362  0.4054  0.1827
 1460SOL    HW2 5612   2.781   0.135   2.423 -0.4568  0.4508 -2.5944
 1460SOL    HW3 5613   2.886   0.126   2.314  2.2987 -0.9765  0.0228
 1460SOL    MW4 5614   2.852   0.098   2.390 -0.1620 -0.7794  0.6408
 1461SOL     OW 5615   3.073   6.105   6.154 -0.4576  0.1042  0.1733
 1461SOL    HW2 5616   3.047   6.015   6.134 -0.8028  0.0185  0.9900
 1461SOL    HW3 5617   3.122   6.099   6.236  0.3640  0.5422 -0.2686
 1461SOL    MW4 5618   3.076   6.092   6.162  0.2665 -0.3133 -0.3373
 1462SOL     OW 5619   0.612   5.586   3.931  0.0175  0.3017 -0.5619
 1462SOL    HW2 5620   0.705   5.565   3.941  0.7469  3.1899 -0.3050
 1462SOL    HW3 5621   0.568   5.524   3.989  1.6961 -1.4555 -1.0410
 1462SOL    MW4 5622   0.619   5.575   3.940 -0.3442 -0.2771  0.2725
 1463SOL     OW 5623   5.053   4.150   0.885  0.1433  0.0609  0.0839
 1463SOL    HW2 5624   4.959   4.148   0.898 -0.4245 -0.8832 -3.2435
 1463SOL    HW3 5625   5.072   4.241   0.862  0.3634  0.5851  2.1274
 1463SOL    MW4 5626   5.043   4.162   0.883  0.3255 -0.1353  0.1456
 1464SOL     OW 5627   0.303   4.076   2.965  0.5595 -0.9613 -0.1734
 1464SOL    HW2 5628   0.376   4.126   3.000 -0.3350  0.7987 -0.7323
 1464SOL    HW3 5629   0.320   4.071   2.871  0.1905 -0.9194 -0.2450
 1464SOL    MW4 5630   0.315   4.082   2.957  0.3674  0.1495  0.1751
 1465SOL     OW 5631   3.395   1.424   4.492  0.4365 -0.1162  0.0615
 1465SOL    HW2 5632   3.392   1.519   4.495  1.3183 -0.0918  0.5719
 1465SOL    HW3 5633   3.438   1.404   4.409 -1.2523 -0.1330 -0.8534
 1465SOL    MW4 5634   3.400   1.434   4.481 -0.4913  0.0375  0.4192
 1466SOL     OW 5635   5.328   6.316   5.137  0.5239 -0.4130  0.0995
 1466SOL    HW2 5636   5.334   6.400   5.091  1.7978  0.1715  1.2455
 1466SOL    HW3 5637   5.342   6.251   5.068  0.0279  0.3242 -0.7294
 1466SOL    MW4 5638   5.331   6.319   5.122  0.0862  0.3916  0.2567
 1467SOL     OW 5639   1.596   2.235   0.319 -0.3342  0.4780 -0.3711
 1467SOL    HW2 5640   1.681   2.194   0.331 -0.2846  1.0836  1.8079
 1467SOL    HW3 5641   1.556   2.189   0.245  1.5990 -0.2366 -1.0158
 1467SOL    MW4 5642   1.602   2.224   0.311  0.8904 -0.6189  0.4965
 1468SOL     OW 5643   1.248   2.315   2.530 -0.4585  0.2919 -0.0888
 1468SOL    HW2 5644   1.200   2.287   2.453 -1.0225  0.6126  0.1415
 1468SOL    HW3 5645   1.320   2.252   2.538 -1.3193 -0.6966  0.0465
 1468SOL    MW4 5646   1.251   2.303   2.521  0.0679  0.6219  0.0331
 1469SOL     OW 5647   3.103   1.936   0.651 -0.7898  0.2589  0.0643
 1469SOL    HW2 5648   3.162   2.009   0.668 -0.0016 -0.1031 -1.0204
 1469SOL    HW3 5649   3.118   1.876   0.724  0.3496  0.0843 -0.2894
 1469SOL    MW4 5650   3.112   1.937   0.663 -0.1638  0.2788 -0.3470
 1470SOL     OW 5651   1.726   4.186   5.701 -0.0523 -0.0468 -0.3897
 1470SOL    HW2 5652   1.675   4.264   5.682 -0.4173  0.0431  0.8640
 1470SOL    HW3 5653   1.778   4.209   5.778  1.6574 -0.2484 -1.4140
 1470SOL    MW4 5654   1.726   4.199   5.708  0.1304  0.0338  0.3500
 1471SOL     OW 5655   3.766   1.585   4.843  0.4380 -0.5896 -0.2787
 1471SOL    HW2 5656   3.806   1.663   4.806  0.0636 -0.3325 -0.1541
 1471SOL    HW3 5657   3.763   1.523   4.771 -1.7830  0.4582 -1.1896
 1471SOL    MW4 5658   3.771   1.587   4.829 -0.2624  0.4307  0.5995
 1472SOL     OW 5659   1.107   6.231   4.421 -0.1119 -0.4591  0.1025
 1472SOL    HW2 5660   1.091   6.262   4.510 -1.2516 -1.8299  0.3997
 1472SOL    HW3 5661   1.127   6.138   4.430 -0.6682 -0.7246 -1.0917
 1472SOL    MW4 5662   1.107   6.223   4.434 -0.2775 -0.7025 -0.0440
 1473SOL     OW 5663   1.460   3.024   5.688  0.4740  0.1240  0.2712
 1473SOL    HW2 5664   1.471   2.990   5.599 -1.5630 -0.6650  0.2698
 1473SOL    HW3 5665   1.550   3.033   5.722  1.2259 -1.3438 -1.2005
 1473SOL    MW4 5666   1.474   3.021   5.681  0.4453  0.5310 -0.4181
 1474SOL     OW 5667   6.047   4.112   5.710  0.2802 -0.5449  0.3900
 1474SOL    HW2 5668   6.009   4.194   5.741 -1.9672 -0.4319 -2.2571
 1474SOL    HW3 5669   6.127   4.139   5.664 -0.8133  0.3308 -1.0820
 1474SOL    MW4 5670   6.053   4.127   5.708 -0.2353  0.1582 -0.1397
 1475SOL     OW 5671   1.109   1.730   5.067  0.5379  0.3282  0.1127
 1475SOL    HW2 5672   1.020   1.746   5.097  1.1444 -0.0168  2.3237
 1475SOL    HW3 5673   1.136   1.812   5.026 -0.4289  0.7933  0.3793
 1475SOL    MW4 5674   1.101   1.743   5.066 -0.2081 -0.2933  0.1667
 1476SOL     OW 5675   1.988   5.120   1.559  0.1067  0.4022  0.0388
 1476SOL    HW2 5676   2.022   5.035   1.587  0.8956  0.6517 -0.1321
 1476SOL    HW3 5677   2.004   5.178   1.634 -1.7173  0.1026  0.7104
 1476SOL    MW4 5678   1.995   5.116   1.573 -0.5905  0.7601  0.4538
 1477SOL     OW 5679   1.175   3.964   0.093 -0.4383 -0.5831  0.0320
 1477SOL    HW2 5680   1.224   3.891   0.132 -0.5511 -1.1796 -0.9082
 1477SOL    HW3 5681   1.138   3.928   0.012 -1.6244  0.1363  0.2281
 1477SOL    MW4 5682   1.176   3.950   0.087 -0.2862  0.0707 -0.3640
 1478SOL     OW 5683   2.814   4.457   1.949 -0.0878  0.6128 -0.3587
 1478SOL    HW2 5684   2.741   4.466   2.011  0.5260  2.1419  0.1955
 1478SOL    HW3 5685   2.773   4.426   1.868 -1.1277  0.0235  0.3766
 1478SOL    MW4 5686   2.799   4.454   1.946 -1.0183 -0.0427 -0.3323
 1479SOL     OW 5687   1.831   2.241   3.190 -0.1281  0.1269 -0.1740
 1479SOL    HW2 5688   1.763   2.299   3.156 -0.9577 -0.0303  1.1301
 1479SOL    HW3 5689   1.912   2.293   3.185 -0.8579  1.4442  1.0123
 1479SOL    MW4 5690   1.833   2.255   3.185  0.7314 -0.0942 -0.5820
 1480SOL     OW 5691   5.424   3.217   5.840  0.0698  0.1162 -0.1670
 1480SOL    HW2 5692   5.469   3.272   5.776 -0.7114 -1.0581 -1.8054
 1480SOL    HW3 5693   5.331   3.229   5.820 -0.2371  0.2074  1.1956
 1480SOL    MW4 5694   5.417   3.226   5.829  0.5216  0.0764 -0.0924
 1481SOL     OW 5695   0.619   3.647   3.738 -0.1332  0.5213  0.3382
 1481SOL    HW2 5696   0.531   3.683   3.749  0.0302  0.9836  0.1376
 1481SOL    HW3 5697   0.643   3.669   3.648  0.5350  1.1685  0.6681
 1481SOL    MW4 5698   0.610   3.655   3.727 -0.1049 -0.2087 -0.0841
 1482SOL     OW 5699   6.081   1.017   3.377  0.1984  0.4642 -0.0582
 1482SOL    HW2 5700   6.164   0.989   3.338  0.0288 -0.4349  0.2011
 1482SOL    HW3 5701   6.020   0.946   3.358  0.3287 -0.4507  2.5381
 1482SOL    MW4 5702   6.084   1.004   3.370 -0.4118 -0.4804 -0.0093
 1483SOL     OW 5703   1.505   5.146   5.405  0.3832  0.0635 -0.4893
 1483SOL    HW2 5704   1.476   5.061   5.372 -1.1516  0.9651 -1.5918
 1483SOL    HW3 5705   1.595   5.155   5.374  0.9839 -1.6139  0.6214
 1483SOL    MW4 5706   1.513   5.136   5.397  0.7360 -0.4556  0.1351
 1484SOL     OW 5707   4.813   5.649   2.726  0.6086  0.3873  0.0141
 1484SOL    HW2 5708   4.730   5.646   2.775  0.6342 -2.6635  0.0395
 1484SOL    HW3 5709   4.793   5.703   2.649 -1.6066 -0.6806 -0.2548
 1484SOL    MW4 5710   4.799   5.656   2.722 -0.0631 -0.1709  0.0882
 1485SOL     OW 5711   1.599   6.089   5.864 -1.0452 -0.0188  0.4554
 1485SOL    HW2 5712   1.515   6.045   5.851 -1.4593  1.2068 -1.4751
 1485SOL    HW3 5713   1.601   6.157   5.797  1.6772 -0.2822  0.1367
 1485SOL    MW4 5714   1.588   6.092   5.853 -0.3744 -0.4901 -0.0569
 1486SOL     OW 5715   6.340   2.030   5.639 -0.1906  0.5297 -0.5311
 1486SOL    HW2 5716   6.334   1.961   5.573  0.5876 -1.8794  1.7434
 1486SOL    HW3 5717   6.252   2.035   5.676  0.4530 -1.7813  1.5676
 1486SOL    MW4 5718   6.328   2.021   5.635 -0.2518  0.6767  0.2352
 1487SOL     OW 5719   1.085   0.813   3.764  0.3768  0.2394  0.0361
 1487SOL    HW2 5720   1.004   0.763   3.781 -0.7943  1.7949 -0.7386
 1487SOL    HW3 5721   1.141   0.751   3.718 -1.0956 -0.3645 -1.0451
 1487SOL    MW4 5722   1.081   0.798   3.760 -0.2220  0.6376 -0.0119
 1488SOL     OW 5723   5.359   4.743   6.299 -0.6120 -0.0629 -0.4670
 1488SOL    HW2 5724   5.454   4.739   6.303 -0.5705  1.3913  0.8821
 1488SOL    HW3 5725   5.330   4.655   6.325  0.3519  0.1412  1.4293
 1488SOL    MW4 5726   5.367   4.731   6.303  0.2352 -0.2815  0.1788
 1489SOL     OW 5727   3.684   2.723   2.195 -0.0942 -0.4607 -0.3311
 1489SOL    HW2 5728   3.629   2.773   2.255  0.1909  0.4721 -0.8201
 1489SOL    HW3 5729   3.647   2.635   2.196 -0.2289 -0.4099  1.0281
 1489SOL    MW4 5730   3.672   2.718   2.203 -0.7437 -0.2237 -0.3124
 1490SOL     OW 5731   2.681   0.790   5.106 -0.3397  0.2832 -0.3025
 1490SOL    HW2 5732   2.605   0.841   5.134 -0.2780 -0.2434  0.8736
 1490SOL    HW3 5733   2.653   0.699   5.115  1.0555  0.0082  2.1418
 1490SOL    MW4 5734   2.667   0.785   5.111  0.0681 -0.1606 -0.3524
 1491SOL     OW 5735   1.751   4.076   1.658 -0.0455 -0.4383 -0.4404
 1491SOL    HW2 5736   1.674   4.044   1.704 -1.5656  0.5266 -2.1760
 1491SOL    HW3 5737   1.720   4.152   1.609  2.1176  0.2416 -0.8760
 1491SOL    MW4 5738   1.737   4.082   1.658  0.5938  0.0381  0.3984
 1492SOL     OW 5739   2.283   0.241   0.206  0.2034  0.0637  0.0341
 1492SOL    HW2 5740   2.250   0.166   0.156 -0.9907  0.4122  0.2574
 1492SOL    HW3 5741   2.296   0.309   0.141 -1.1015  0.4330  0.1217
 1492SOL    MW4 5742   2.280   0.240   0.191  0.1476  0.2391  0.2270
 1493SOL     OW 5743   3.880   3.044   3.396  0.1376 -0.2185 -0.0978
 1493SOL    HW2 5744   3.794   3.085   3.398  0.2349 -0.0351  0.7468
 1493SOL    HW3 5745   3.870   2.963   3.446  0.5965  0.1159  0.5604
 1493SOL    MW4 5746   3.867   3.039   3.403  0.0942  0.8628 -0.7872
 1494SOL     OW 5747   6.154   4.168   4.303  0.5836  0.0030 -0.1313
 1494SOL    HW2 5748   6.136   4.258   4.331  2.5845  0.0227  1.3786
 1494SOL    HW3 5749   6.115   4.114   4.372  2.2165 -0.0974  0.7803
 1494SOL    MW4 5750   6.147   4.173   4.316  0.5996  0.0424  0.7454
 1495SOL     OW 5751   3.947   5.126   4.523 -0.1589 -0.0893 -0.5175
 1495SOL    HW2 5752   3.901   5.192   4.574  0.3337 -0.1920  0.0697
 1495SOL    HW3 5753   3.904   5.128   4.437  0.2428  1.3958 -0.7050
 1495SOL    MW4 5754   3.935   5.135   4.518 -0.5933  0.7707  0.3369
 1496SOL     OW 5755   5.274   4.230   3.309  0.0805 -0.1798 -0.3007
 1496SOL    HW2 5756   5.230   4.166   3.253  1.1289 -0.8333 -0.4080
 1496SOL    HW3 5757   5.219   4.308   3.304 -0.1689 -0.4169 -1.7642
 1496SOL    MW4 5758   5.261   4.232   3.301  0.2554 -0.1621  0.0991
 1497SOL     OW 5759   2.446   5.241   0.839 -0.3685 -0.3052 -0.0392
 1497SOL    HW2 5760   2.392   5.263   0.763 -0.4972  1.9413  0.6231
 1497SOL    HW3 5761   2.533   5.275   0.818  0.6368 -3.0391 -0.6921
 1497SOL    MW4 5762   2.450   5.249   0.826  0.1341  0.0195  0.1439
 1498SOL     OW 5763   0.458   6.312   3.711 -0.2036 -0.1366  0.4031
 1498SOL    HW2 5764   0.517   6.305   3.636  0.8291 -0.4896  1.2303
 1498SOL    HW3 5765   0.510   6.357   3.778 -0.7015 -0.9102  1.3252
 1498SOL    MW4 5766   0.472   6.317   3.710  0.1120  0.2317  0.0794
 1499SOL     OW 5767   2.216   3.997   3.161 -0.2164  0.3773  0.6137
 1499SOL    HW2 5768   2.126   3.995   3.129 -0.2025  0.7725  0.5487
 1499SOL    HW3 5769   2.264   3.939   3.102 -0.0878  1.4750 -0.3908
 1499SOL    MW4 5770   2.210   3.989   3.149  0.2171 -0.5257 -0.3547
 1500SOL     OW 5771   3.451   5.479   3.599 -0.5923 -0.0223 -0.2255
 1500SOL    HW2 5772   3.427   5.416   3.532 -0.3072 -0.0690 -0.2843
 1500SOL    HW3 5773   3.381   5.545   3.597 -0.6201 -0.0612 -0.5179
 1500SOL    MW4 5774   3.439   5.480   3.590  0.2571 -0.1479 -0.1810
 1501SOL     OW 5775   6.122   5.667   2.624 -0.1887 -0.2090  0.3170
 1501SOL    HW2 5776   6.141   5.751   2.581  0.9181  0.5646  2.2094
 1501SOL    HW3 5777   6.047   5.685   2.680 -0.3160 -0.6453  0.2919
 1501SOL    MW4 5778   6.114   5.680   2.626  0.1037 -0.1725 -0.5761
 1502SOL     OW 5779   2.332   4.337   1.682 -0.6569  0.2855 -0.0998
 1502SOL    HW2 5780   2.373   4.330   1.768 -1.8252 -0.0863  0.4478
 1502SOL    HW3 5781   2.294   4.425   1.680  1.5284  1.3098 -1.2775
 1502SOL    MW4 5782   2.333   4.348   1.693  0.1754  0.1224  0.7302
 1503SOL     OW 5783   2.133   2.979   6.362 -0.1878 -0.3020 -1.0916
 1503SOL    HW2 5784   2.122   3.069   6.392  0.3362 -1.2394  2.3699
 1503SOL    HW3 5785   2.211   2.981   6.307  0.4190  1.2228 -0.2427
 1503SOL    MW4 5786   2.142   2.991   6.359  0.1766 -0.0898 -0.1827
 1504SOL     OW 5787   2.314   1.583   4.620  0.2755 -0.2463 -0.6202
 1504SOL    HW2 5788   2.370   1.588   4.697  0.8837  0.0024 -1.0691
 1504SOL    HW3 5789   2.285   1.492   4.617  2.3764 -0.9598 -1.5459
 1504SOL    MW4 5790   2.318   1.572   4.630  0.3551  0.1036  0.2787
 1505SOL     OW 5791   1.858   2.200   0.067  0.0298 -0.2146 -0.2527
 1505SOL    HW2 5792   1.833   2.164  -0.018 -1.7629  0.6490 -0.1430
 1505SOL    HW3 5793   1.839   2.293   0.060  2.2129  0.3345  0.3037
 1505SOL    MW4 5794   1.852   2.207   0.055  0.4274 -0.5100  0.6174
 1506SOL     OW 5795   6.212   5.392   0.182 -0.0033  0.1842 -0.1379
 1506SOL    HW2 5796   6.306   5.394   0.201  0.0814 -1.6753 -0.2016
 1506SOL    HW3 5797   6.207   5.380   0.087 -0.2522 -1.1438  0.0216
 1506SOL    MW4 5798   6.224   5.391   0.172  0.1549 -0.4302  0.1168
 1507SOL     OW 5799   1.866   6.041   5.327 -0.1525 -0.3707  0.1253
 1507SOL    HW2 5800   1.853   6.134   5.308  0.3988 -0.6742 -2.0157
 1507SOL    HW3 5801   1.866   6.036   5.423 -3.3209  1.3638  0.3593
 1507SOL    MW4 5802   1.864   6.053   5.337  0.4721  0.9739  0.2240
 1508SOL     OW 5803   3.336   1.496   1.460 -0.6197  0.0841  0.5271
 1508SOL    HW2 5804   3.305   1.406   1.474 -0.9020  0.2151  0.7362
 1508SOL    HW3 5805   3.319   1.512   1.367  1.5378 -0.8933 -0.1045
 1508SOL    MW4 5806   3.330   1.486   1.450  0.2922 -0.3606  0.2512
 1509SOL     OW 5807   1.059   6.310   3.761  0.5145 -0.3177 -0.1996
 1509SOL    HW2 5808   0.975   6.266   3.775 -1.6919  3.1900 -1.2470
 1509SOL    HW3 5809   1.098   6.264   3.687 -0.0500 -2.5158  0.7938
 1509SOL    MW4 5810   1.053   6.298   3.753 -0.3318  1.4552  0.2095
 1510SOL     OW 5811   0.609   2.069   3.790 -0.0711 -0.5456  0.3588
 1510SOL    HW2 5812   0.573   2.010   3.856 -0.3531 -0.8885 -0.0937
 1510SOL    HW3 5813   0.533   2.120   3.759 -0.2636 -1.5248 -0.8594
 1510SOL    MW4 5814   0.594   2.068   3.795  0.6883 -0.6446 -0.3116
 1511SOL     OW 5815   1.594   2.868   0.747  0.2062 -0.0624  0.4548
 1511SOL    HW2 5816   1.686   2.848   0.764  0.5533  0.5951 -0.5963
 1511SOL    HW3 5817   1.594   2.917   0.665 -1.1489 -0.6892  0.0421
 1511SOL    MW4 5818   1.606   2.872   0.738  0.7282 -0.3826 -0.0575
 1512SOL     OW 5819   0.541   1.607   1.373  0.0624  0.1042  0.2966
 1512SOL    HW2 5820   0.551   1.527   1.425  1.6252 -1.6771 -2.5112
 1512SOL    HW3 5821   0.478   1.584   1.304 -1.8992  2.3729  1.1925
 1512SOL    MW4 5822   0.534   1.594   1.371 -0.1525  0.4224  0.4081
 1513SOL     OW 5823   5.546   5.621   0.556 -0.3509  0.2306  1.0244
 1513SOL    HW2 5824   5.575   5.709   0.533 -1.6412  0.5828  0.6492
 1513SOL    HW3 5825   5.474   5.603   0.495  1.2870 -1.9806 -0.4268
 1513SOL    MW4 5826   5.540   5.630   0.545  0.5621  0.4314  0.3368
 1514SOL     OW 5827   0.726   0.700   6.282 -0.9286 -0.2612  0.0924
 1514SOL    HW2 5828   0.719   0.741   6.196 -2.6423 -2.9915 -1.2201
 1514SOL    HW3 5829   0.803   0.741   6.322 -0.3266  1.4171 -2.5240
 1514SOL    MW4 5830   0.735   0.711   6.276 -0.6969  0.8378 -0.2131
 1515SOL     OW 5831   4.183   1.879   2.834  0.3330 -0.4492 -0.3927
 1515SOL    HW2 5832   4.105   1.911   2.880  0.4548 -1.1115  0.2866
 1515SOL    HW3 5833   4.183   1.785   2.849  1.4099 -0.4215 -0.1449
 1515SOL    MW4 5834   4.173   1.871   2.842 -0.1101  0.4746 -0.5607
 1516SOL     OW 5835   5.481   2.596   4.661  0.2990  0.2528  0.4919
 1516SOL    HW2 5836   5.570   2.624   4.640  0.3807 -0.5013 -0.2381
 1516SOL    HW3 5837   5.460   2.642   4.742  1.0847  0.9934  0.2919
 1516SOL    MW4 5838   5.490   2.606   4.669 -0.8887  0.0094 -0.0674
 1517SOL     OW 5839   4.900   5.156   2.518  0.6632 -0.0608 -0.3278
 1517SOL    HW2 5840   4.954   5.163   2.439  0.3162 -1.1465 -0.6817
 1517SOL    HW3 5841   4.876   5.246   2.539  1.3008  0.2967 -1.0802
 1517SOL    MW4 5842   4.904   5.169   2.510  0.4307 -0.5009 -0.2927
 1518SOL     OW 5843   0.988   4.172   2.384  0.1152 -0.1765  0.5853
 1518SOL    HW2 5844   1.072   4.173   2.338  0.8256  1.0953  1.7943
 1518SOL    HW3 5845   0.953   4.084   2.370  1.0002 -0.3036 -1.0652
 1518SOL    MW4 5846   0.995   4.161   2.376 -0.6050 -0.1908 -0.0804
 1519SOL     OW 5847   5.224   3.371   3.183  0.0610 -0.3198 -0.0735
 1519SOL    HW2 5848   5.142   3.334   3.149  1.3375 -2.7793 -0.7290
 1519SOL    HW3 5849   5.246   3.441   3.122 -1.6353  0.5604  0.2539
 1519SOL    MW4 5850   5.216   3.375   3.170  0.5317 -0.0381 -0.5369
 1520SOL     OW 5851   4.574   5.609   0.694 -0.2821 -0.5636 -0.5015
 1520SOL    HW2 5852   4.523   5.528   0.692  0.7936 -1.2677 -1.9951
 1520SOL    HW3 5853   4.619   5.610   0.610  0.4003  1.1689 -0.1472
 1520SOL    MW4 5854   4.573   5.598   0.683 -0.0598 -0.3432  0.0828
 1521SOL     OW 5855   5.980   4.012   4.448  0.0582 -0.1218  0.5738
 1521SOL    HW2 5856   5.922   4.048   4.381  0.5922 -0.5372 -0.1209
 1521SOL    HW3 5857   5.943   4.044   4.531 -0.9882 -0.1408  0.1335
 1521SOL    MW4 5858   5.967   4.021   4.450  0.2495  0.6212 -0.0639
 1522SOL     OW 5859   2.544   5.532   5.402 -0.1245  0.0192  0.2163
 1522SOL    HW2 5860   2.459   5.571   5.382  0.0068  1.0281  1.5629
 1522SOL    HW3 5861   2.546   5.525   5.497  1.1290 -0.4018  0.1741
 1522SOL    MW4 5862   2.533   5.536   5.412 -0.2852 -0.1240 -0.1734
 1523SOL     OW 5863   6.228   5.701   1.010 -0.3925 -0.0795 -0.0120
 1523SOL    HW2 5864   6.226   5.686   0.915 -0.3262 -1.1987  0.1558
 1523SOL    HW3 5865   6.311   5.745   1.026 -0.1881 -0.3106 -0.4192
 1523SOL    MW4 5866   6.238   5.705   0.999  0.2393  0.2719 -0.4509
 1524SOL     OW 5867   3.597   5.573   3.081 -0.4135 -0.4017 -0.2771
 1524SOL    HW2 5868   3.521   5.586   3.138  1.2716  0.8128  1.9107
 1524SOL    HW3 5869   3.586   5.486   3.044 -2.4483 -0.5681  0.6061
 1524SOL    MW4 5870   3.586   5.563   3.084 -0.2757  0.6845 -0.2437
 1525SOL     OW 5871   4.697   0.628   0.057 -0.0922 -0.0366 -0.3403
 1525SOL    HW2 5872   4.752   0.676  -0.005 -2.2293  0.3916 -2.0461
 1525SOL    HW3 5873   4.704   0.677   0.139  0.8475  0.8737 -0.9367
 1525SOL    MW4 5874   4.705   0.641   0.059  0.1849 -0.0365 -0.4500
 1526SOL     OW 5875   5.252   2.779   4.289  0.2940 -0.4724 -0.4575
 1526SOL    HW2 5876   5.281   2.720   4.220 -0.9718 -0.5115 -0.9807
 1526SOL    HW3 5877   5.191   2.839   4.246 -1.6748 -1.4078  0.8741
 1526SOL    MW4 5878   5.247   2.779   4.274 -0.2751  0.0173 -0.2293
 1527SOL     OW 5879   2.270   2.110   3.662 -0.1822  0.4845  0.2202
 1527SOL    HW2 5880   2.254   2.019   3.689 -0.7371  0.8557  1.1847
 1527SOL    HW3 5881   2.209   2.125   3.590 -0.5538  0.2872  0.4901
 1527SOL    MW4 5882   2.260   2.100   3.656  0.3746  0.0226 -0.5836
 1528SOL     OW 5883   4.757   5.284   0.485 -0.2033 -0.5768  0.4147
 1528SOL    HW2 5884   4.674   5.239   0.495  0.7724 -2.9482 -1.2197
 1528SOL    HW3 5885   4.821   5.227   0.527  1.0135 -0.5107 -1.2415
 1528SOL    MW4 5886   4.754   5.271   0.492  0.0176 -0.2995 -0.1024
 1529SOL     OW 5887   4.829   5.469   0.691 -0.1997 -0.1601 -0.1860
 1529SOL    HW2 5888   4.817   5.403   0.623 -0.9687  0.1508 -0.3587
 1529SOL    HW3 5889   4.743   5.477   0.732  0.3271 -0.5987  1.0598
 1529SOL    MW4 5890   4.816   5.461   0.688 -0.1860 -0.0470  0.2261
 1530SOL     OW 5891   3.817   5.654   5.428 -0.1034  0.2818  0.3540
 1530SOL    HW2 5892   3.832   5.559   5.437  1.2964  0.1496 -2.2612
 1530SOL    HW3 5893   3.905   5.692   5.430 -0.2352  0.9922 -2.6469
 1530SOL    MW4 5894   3.831   5.646   5.429  0.3494 -0.2553  0.1249
 1531SOL     OW 5895   3.169   1.906   1.513  0.0072 -0.0603  0.6176
 1531SOL    HW2 5896   3.148   1.818   1.546 -0.0379 -1.1686 -2.0986
 1531SOL    HW3 5897   3.086   1.940   1.481  0.4689 -0.1864 -0.7861
 1531SOL    MW4 5898   3.155   1.899   1.513 -0.1531 -0.5241 -0.3577
 1532SOL     OW 5899   3.808   2.674   5.478  0.3661 -0.4683  0.0091
 1532SOL    HW2 5900   3.893   2.638   5.455 -0.0373 -1.0228 -0.6499
 1532SOL    HW3 5901   3.779   2.720   5.399  0.3448  0.2900  0.4504
 1532SOL    MW4 5902   3.815   2.676   5.465  0.0225 -0.6067 -0.0072
 1533SOL     OW 5903   1.806   0.604   6.336 -0.0322 -0.7496 -0.1159
 1533SOL    HW2 5904   1.730   0.553   6.364 -0.0766 -0.2272  0.7927
 1533SOL    HW3 5905   1.876   0.540   6.325 -1.2715 -1.7012 -3.9591
 1533SOL    MW4 5906   1.805   0.589   6.339  0.3303  0.3842  0.4881
 1534SOL     OW 5907   2.778   1.966   0.048 -0.3731  0.2427  0.0850
 1534SOL    HW2 5908   2.692   2.010   0.049 -0.4118  0.1555  0.4716
 1534SOL    HW3 5909   2.832   2.022  -0.008 -0.1705  1.2763  1.2664
 1534SOL    MW4 5910   2.773   1.979   0.041 -0.3879 -0.5560 -0.4613
 1535SOL     OW 5911   0.931   1.799   0.262 -0.4938  0.0714  0.8802
 1535SOL    HW2 5912   0.913   1.792   0.168 -0.7757 -0.2344  0.9572
 1535SOL    HW3 5913   1.026   1.809   0.267 -0.4700  0.0209  0.5668
 1535SOL    MW4 5914   0.941   1.800   0.250 -0.4502 -0.4016  0.1122
 1536SOL     OW 5915   6.317   4.405   2.571 -0.0754  0.2019 -0.3580
 1536SOL    HW2 5916   6.356   4.443   2.492  1.4446 -0.2104  0.1579
 1536SOL    HW3 5917   6.230   4.378   2.544 -0.6074  2.5186 -1.1757
 1536SOL    MW4 5918   6.311   4.407   2.557  0.1028 -0.1880 -0.2825
 1537SOL     OW 5919   0.253   4.521   3.133 -0.7073 -0.4813 -0.0567
 1537SOL    HW2 5920   0.338   4.563   3.144  0.0409 -1.3606 -2.0586
 1537SOL    HW3 5921   0.230   4.537   3.041 -0.9818 -3.2689 -0.5547
 1537SOL    MW4 5922   0.261   4.529   3.122 -0.1835 -0.1324  0.0277
 1538SOL     OW 5923   1.544   5.033   3.583  0.2923  0.9313 -0.4050
 1538SOL    HW2 5924   1.627   5.068   3.616  0.4602 -1.4515  2.0265
 1538SOL    HW3 5925   1.553   4.938   3.590 -2.2122  0.5487 -1.2486
 1538SOL    MW4 5926   1.556   5.025   3.588 -0.6316  0.2828 -0.3576
 1539SOL     OW 5927   5.322   5.405   0.456  0.4421  0.2910  0.2765
 1539SOL    HW2 5928   5.252   5.377   0.515 -0.6945 -1.8419 -1.8843
 1539SOL    HW3 5929   5.387   5.335   0.462  1.1803  0.9776  0.3575
 1539SOL    MW4 5930   5.321   5.392   0.464  0.2481 -0.6740 -0.2342
 1540SOL     OW 5931   4.440   0.672   0.443  1.0384  0.0376 -0.0249
 1540SOL    HW2 5932   4.451   0.712   0.529  2.5243 -1.1599  0.3961
 1540SOL    HW3 5933   4.499   0.721   0.386  2.2732 -0.9776  0.3224
 1540SOL    MW4 5934   4.449   0.684   0.447  0.6015  0.2339 -0.4050
 1541SOL     OW 5935   2.760   3.607   5.405  0.1408  0.5255 -0.3029
 1541SOL    HW2 5936   2.675   3.562   5.402  0.5830 -0.3173 -0.5195
 1541SOL    HW3 5937   2.767   3.652   5.321 -0.0376  0.5040 -0.3298
 1541SOL    MW4 5938   2.750   3.607   5.394 -0.4138  0.1359  0.2025
 1542SOL     OW 5939   1.288   0.266   3.927  0.4359 -0.3391  0.2773
 1542SOL    HW2 5940   1.335   0.327   3.870  0.3491 -0.1568  0.4003
 1542SOL    HW3 5941   1.229   0.321   3.979 -1.5520 -0.7294 -1.4163
 1542SOL    MW4 5942   1.286   0.281   3.926  0.2683  0.6880  0.0689
 1543SOL     OW 5943   0.322   1.532   3.430 -0.4496 -0.4441 -0.2418
 1543SOL    HW2 5944   0.312   1.583   3.510  0.8427 -0.4321 -0.0678
 1543SOL    HW3 5945   0.323   1.441   3.459 -1.2062 -0.5040 -0.3862
 1543SOL    MW4 5946   0.321   1.526   3.444  0.1260 -0.4441 -0.2509
 1544SOL     OW 5947   2.714   4.894   4.473 -0.5233  0.4633 -0.2643
 1544SOL    HW2 5948   2.742   4.812   4.513 -0.8970  0.1394 -0.6603
 1544SOL    HW3 5949   2.645   4.927   4.530  1.0334  1.5719  1.0548
 1544SOL    MW4 5950   2.709   4.887   4.486  0.4493  0.6450 -0.2343
 1545SOL     OW 5951   1.855   4.578   5.201  0.2378  0.0249 -0.3259
 1545SOL    HW2 5952   1.849   4.545   5.291 -1.8750  0.8627 -0.1056
 1545SOL    HW3 5953   1.861   4.673   5.211 -2.5154  0.3520 -1.0391
 1545SOL    MW4 5954   1.855   4.586   5.214 -0.1046 -0.1880 -0.3678
 1546SOL     OW 5955   0.793   2.686   5.203  0.5184  0.8177 -0.5651
 1546SOL    HW2 5956   0.757   2.764   5.246  0.0971 -0.4435  1.4795
 1546SOL    HW3 5957   0.765   2.694   5.112 -0.1165  2.6845 -0.2501
 1546SOL    MW4 5958   0.785   2.698   5.196 -0.0962  0.6603  0.4990
 1547SOL     OW 5959   1.228   3.552   3.364 -0.5582  0.2129 -0.1794
 1547SOL    HW2 5960   1.309   3.577   3.320 -0.2803  0.6974  0.5905
 1547SOL    HW3 5961   1.158   3.579   3.303 -0.1508 -0.3236 -0.9038
 1547SOL    MW4 5962   1.229   3.559   3.350 -0.3459 -0.8515  0.0934
 1548SOL     OW 5963   0.642   0.827   2.316  0.1643 -0.7020  0.3298
 1548SOL    HW2 5964   0.575   0.758   2.321  1.7163 -2.6130 -2.5351
 1548SOL    HW3 5965   0.702   0.797   2.248  2.6212  2.1070  1.0663
 1548SOL    MW4 5966   0.641   0.814   2.308 -0.1389  0.3477  0.6720
 1549SOL     OW 5967   4.469   6.467   1.002  0.3212 -0.0730  0.0043
 1549SOL    HW2 5968   4.451   6.555   0.969 -0.8548 -0.5835 -0.7884
 1549SOL    HW3 5969   4.469   6.476   1.097 -0.4003  0.6656 -0.0588
 1549SOL    MW4 5970   4.467   6.479   1.010 -0.4022  0.2047 -0.6799
 1550SOL     OW 5971   6.061   6.023   0.571  0.3225 -0.2305 -0.2324
 1550SOL    HW2 5972   6.028   6.055   0.655  0.3455  2.3883 -1.1178
 1550SOL    HW3 5973   6.153   6.002   0.588  0.4767  0.8034  0.3075
 1550SOL    MW4 5974   6.069   6.025   0.584  0.1555  0.0506  0.0219
 1551SOL     OW 5975   0.725   4.220   5.244 -0.3200  0.5927  0.4264
 1551SOL    HW2 5976   0.759   4.205   5.332  1.1782 -0.9027 -0.3313
 1551SOL    HW3 5977   0.756   4.308   5.221 -1.8152  1.5367  1.8092
 1551SOL    MW4 5978   0.733   4.230   5.253 -0.7899 -0.7141 -0.4309
 1552SOL     OW 5979   0.089   5.482   3.618 -0.0743 -0.3661  0.3846
 1552SOL    HW2 5980   0.063   5.544   3.551 -0.2136 -0.2779  0.5181
 1552SOL    HW3 5981   0.057   5.520   3.700  1.3528  0.2388  0.6831
 1552SOL    MW4 5982   0.081   5.495   3.620  0.4682  0.4282 -0.4707
 1553SOL     OW 5983   4.655   2.638   5.635 -0.3849 -0.4091  0.2262
 1553SOL    HW2 5984   4.737   2.607   5.674  1.2657  2.2044 -0.8916
 1553SOL    HW3 5985   4.605   2.558   5.616  2.2054 -2.1459  0.2800
 1553SOL    MW4 5986   4.659   2.623   5.638  0.0194 -0.4314 -0.3357
 1554SOL     OW 5987   3.535   5.403   0.605  0.8389  0.1379  0.4343
 1554SOL    HW2 5988   3.582   5.442   0.679 -0.1856  0.3438  0.9982
 1554SOL    HW3 5989   3.499   5.321   0.640  1.0029 -0.1497 -0.0653
 1554SOL    MW4 5990   3.536   5.397   0.620  0.6785  0.0137  0.1563
 1555SOL     OW 5991   0.223   4.790   3.977 -0.7394 -0.1325 -0.2810
 1555SOL    HW2 5992   0.187   4.815   4.062 -1.1113 -0.8424 -0.2285
 1555SOL    HW3 5993   0.194   4.860   3.918 -0.6129  0.2807  0.1371
 1555SOL    MW4 5994   0.214   4.803   3.980 -0.3462  0.1264 -0.5616
 1556SOL     OW 5995   1.187   1.138   0.533 -0.1580  0.2029 -0.3147
 1556SOL    HW2 5996   1.256   1.175   0.478  1.1613 -0.5443  0.7694
 1556SOL    HW3 5997   1.205   1.044   0.534 -0.0728  0.2046  1.4654
 1556SOL    MW4 5998   1.198   1.130   0.526  0.7413  0.2244  0.3925
 1557SOL     OW 5999   2.121   6.304   3.285  0.0690  0.0351 -0.0268
 1557SOL    HW2 6000   2.135   6.227   3.229 -1.6109  0.4228 -1.0498
 1557SOL    HW3 6001   2.029   6.326   3.272  0.6104  2.4651 -0.0852
 1557SOL    MW4 6002   2.111   6.296   3.276  0.9713  0.2796  0.4220
 1558SOL     OW 6003   1.111   6.122   1.361 -0.0481 -0.2647 -0.1097
 1558SOL    HW2 6004   1.075   6.073   1.287  0.1073  1.7260 -1.5866
 1558SOL    HW3 6005   1.043   6.118   1.428 -0.4164 -1.6731 -0.5465
 1558SOL    MW4 6006   1.098   6.115   1.360 -0.1556  0.4764  0.3633
 1559SOL     OW 6007   0.514   1.907   5.349 -0.2255 -0.3044  0.3404
 1559SOL    HW2 6008   0.581   1.858   5.397  0.5254  0.5241  0.1721
 1559SOL    HW3 6009   0.498   1.985   5.402  0.7398  0.7077 -0.7845
 1559SOL    MW4 6010   0.521   1.911   5.362 -0.4433  0.1035  0.3281
 1560SOL     OW 6011   3.211   4.880   0.290  0.1420  0.3446  0.0021
 1560SOL    HW2 6012   3.231   4.811   0.227  1.4656  0.7561 -0.0681
 1560SOL    HW3 6013   3.228   4.841   0.375 -0.2963  0.2128  0.0298
 1560SOL    MW4 6014   3.216   4.866   0.293  0.6851  0.1315  0.5106
 1561SOL     OW 6015   5.520   0.404   3.122  0.0525 -0.3780  0.6344
 1561SOL    HW2 6016   5.485   0.419   3.210 -0.2555 -1.2509  0.6699
 1561SOL    HW3 6017   5.475   0.325   3.091  0.8947 -0.6556  0.0844
 1561SOL    MW4 6018   5.509   0.396   3.129 -0.3653 -0.4441 -0.5144
 1562SOL     OW 6019   2.473   0.821   0.263 -0.0803 -0.4311  0.1961
 1562SOL    HW2 6020   2.388   0.800   0.224 -0.0547 -1.7572  0.7982
 1562SOL    HW3 6021   2.451   0.871   0.341 -0.3364 -0.8612  0.4093
 1562SOL    MW4 6022   2.459   0.825   0.268  0.4090  0.0863  0.0662
 1563SOL     OW 6023   5.953   5.483   0.525  0.3201 -0.0590 -0.1092
 1563SOL    HW2 6024   5.921   5.549   0.586 -2.4785  0.4483 -1.9665
 1563SOL    HW3 6025   6.021   5.527   0.474 -0.9590  1.1629 -0.7937
 1563SOL    MW4 6026   5.958   5.497   0.526  0.6992 -0.0397 -0.1725
 1564SOL     OW 6027   5.992   3.744   0.877 -0.0452  0.2519  0.0612
 1564SOL    HW2 6028   5.953   3.813   0.822 -0.9264  0.9740  1.5354
 1564SOL    HW3 6029   6.016   3.676   0.815 -0.8046  1.1275 -1.2591
 1564SOL    MW4 6030   5.990   3.744   0.861  0.5799  0.1892  0.0021
 1565SOL     OW 6031   3.146   6.270   5.937 -0.3257  0.3317  0.0096
 1565SOL    HW2 6032   3.113   6.248   6.025 -0.0531 -0.5998 -0.1126
 1565SOL    HW3 6033   3.140   6.188   5.888  1.6472  0.2663 -0.1837
 1565SOL    MW4 6034   3.141   6.257   5.942  0.1286 -0.1001  0.0197
 1566SOL     OW 6035   4.309   1.958   3.107  0.4432  0.3280 -0.1298
 1566SOL    HW2 6036   4.330   1.882   3.052 -0.3911  0.2267 -0.3253
 1566SOL    HW3 6037   4.266   2.019   3.047 -0.7880  0.0769  0.4743
 1566SOL    MW4 6038   4.306   1.956   3.092 -0.4370 -0.3745  0.5053
 1567SOL     OW 6039   4.754   5.596   3.448 -0.6756 -0.1963  0.3932
 1567SOL    HW2 6040   4.773   5.511   3.407  1.6130  1.2392 -1.8198
 1567SOL    HW3 6041   4.839   5.636   3.461 -1.7072  2.7837 -1.0101
 1567SOL    MW4 6042   4.767   5.590   3.444 -0.0003 -0.2285  0.0269
 1568SOL     OW 6043   1.366   5.584   0.740  0.5823  0.1962  0.5128
 1568SOL    HW2 6044   1.399   5.645   0.674 -0.6839  1.3016  0.8774
 1568SOL    HW3 6045   1.273   5.575   0.720  0.4482 -0.4566  1.3798
 1568SOL    MW4 6046   1.358   5.591   0.729 -0.0165 -0.0671  0.1026
 1569SOL     OW 6047   2.822   5.790   5.215 -0.8864 -0.2335  0.0296
 1569SOL    HW2 6048   2.839   5.696   5.217 -1.9267 -0.4471 -0.5778
 1569SOL    HW3 6049   2.800   5.812   5.306 -2.6925 -0.9950 -0.1864
 1569SOL    MW4 6050   2.821   5.780   5.227  0.0885 -0.1103  0.0356
 1570SOL     OW 6051   3.098   5.248   6.231 -0.2680  0.4361 -0.7733
 1570SOL    HW2 6052   3.089   5.293   6.315  1.5664 -1.6511  0.6648
 1570SOL    HW3 6053   3.174   5.191   6.243 -1.8963 -2.3825 -2.6784
 1570SOL    MW4 6054   3.107   5.246   6.244  0.3200  0.7249 -0.3660
 1571SOL     OW 6055   4.202   0.645   0.678  0.0216 -0.5697  0.6181
 1571SOL    HW2 6056   4.223   0.553   0.660  0.8332 -0.2094 -0.3794
 1571SOL    HW3 6057   4.128   0.664   0.620  1.6247  0.1455 -1.3193
 1571SOL    MW4 6058   4.195   0.635   0.668  0.2407 -0.5043  0.0060
 1572SOL     OW 6059   6.307   4.071   0.158  0.1916 -0.2632 -0.4241
 1572SOL    HW2 6060   6.338   4.015   0.086 -0.1738 -2.6841  1.1888
 1572SOL    HW3 6061   6.296   4.157   0.118  1.7106 -1.0828 -2.8306
 1572SOL    MW4 6062   6.309   4.075   0.143 -0.5536  0.4605 -0.1618
 1573SOL     OW 6063   3.835   0.530   1.240  0.2838 -0.3914 -0.1216
 1573SOL    HW2 6064   3.816   0.620   1.266  3.0549  0.7064 -1.4949
 1573SOL    HW3 6065   3.872   0.490   1.319  2.7979  0.9987 -0.4776
 1573SOL    MW4 6066   3.838   0.537   1.254 -0.3893 -1.3395 -0.2808
 1574SOL     OW 6067   5.317   1.130   0.717  0.4305  0.2758 -0.2633
 1574SOL    HW2 6068   5.349   1.178   0.794  0.2802 -0.3320  0.1922
 1574SOL    HW3 6069   5.361   1.045   0.722  0.2007  0.1281 -0.6913
 1574SOL    MW4 6070   5.327   1.125   0.728  0.5252  0.1116 -0.1297
 1575SOL     OW 6071   2.401   5.148   1.493 -0.1327  0.0094 -0.3541
 1575SOL    HW2 6072   2.367   5.155   1.582  0.2894 -1.0715 -0.0962
 1575SOL    HW3 6073   2.423   5.056   1.483  1.5422  0.4405 -0.9351
 1575SOL    MW4 6074   2.400   5.137   1.504 -0.3020 -0.3098 -0.1563
 1576SOL     OW 6075   2.148   0.278   4.471 -0.3865  0.2915 -0.4307
 1576SOL    HW2 6076   2.236   0.259   4.504 -0.3639 -2.2182 -1.7577
 1576SOL    HW3 6077   2.135   0.371   4.492  1.2183 -0.0527  2.8314
 1576SOL    MW4 6078   2.158   0.288   4.478  0.0097  0.1453  0.4658
 1577SOL     OW 6079   5.094   1.524   3.568  0.4164  0.1516  0.0612
 1577SOL    HW2 6080   5.143   1.461   3.621  3.0130  0.9505 -1.2286
 1577SOL    HW3 6081   5.103   1.493   3.478 -0.0387  1.2495 -0.3890
 1577SOL    MW4 6082   5.102   1.512   3.563 -0.2675  0.0212  0.3918
 1578SOL     OW 6083   5.975   5.149   5.173 -0.3118 -0.4395 -0.0962
 1578SOL    HW2 6084   5.979   5.099   5.091  1.8734  0.4803 -0.6200
 1578SOL    HW3 6085   6.064   5.180   5.186 -0.7853  0.0941  2.2627
 1578SOL    MW4 6086   5.987   5.146   5.164  0.2876  0.3541  0.5817
 1579SOL     OW 6087   4.964   5.342   4.497 -0.4355 -0.9343  0.3951
 1579SOL    HW2 6088   4.878   5.341   4.538 -0.3714 -2.2260  0.5407
 1579SOL    HW3 6089   4.994   5.251   4.503  1.1114 -0.4276  0.7183
 1579SOL    MW4 6090   4.957   5.330   4.503 -1.0522 -0.1973  0.3378
 1580SOL     OW 6091   3.049   3.849   0.685 -0.2399 -0.2099 -0.2721
 1580SOL    HW2 6092   3.112   3.858   0.757 -1.6698 -2.4171  1.3928
 1580SOL    HW3 6093   3.062   3.760   0.653 -1.8514 -0.3865 -0.5140
 1580SOL    MW4 6094   3.059   3.838   0.690  0.6885 -0.2752 -1.1345
 1581SOL     OW 6095   5.504   2.574   5.954 -0.0986  0.2153 -0.0199
 1581SOL    HW2 6096   5.571   2.564   6.022  0.0801  0.8156 -0.1008
 1581SOL    HW3 6097   5.547   2.545   5.874  0.0680  0.6025 -0.0719
 1581SOL    MW4 6098   5.519   2.569   5.953  0.3365  0.6940  0.0291
 1582SOL     OW 6099   2.035   6.308   4.265  0.3283 -0.6616  0.3290
 1582SOL    HW2 6100   2.022   6.390   4.218  0.1649 -0.5226  0.6141
 1582SOL    HW3 6101   1.952   6.261   4.256  0.0191 -0.2917  1.1399
 1582SOL    MW4 6102   2.022   6.313   4.258  0.2523  0.4542 -0.5425
 1583SOL     OW 6103   5.016   1.594   5.170 -0.1978 -0.3262 -0.6823
 1583SOL    HW2 6104   5.107   1.621   5.182 -0.2350 -0.7972  0.8672
 1583SOL    HW3 6105   4.983   1.651   5.100  1.5844 -0.9184 -2.0860
 1583SOL    MW4 6106   5.023   1.605   5.162 -0.0804  0.4777 -0.0275
 1584SOL     OW 6107   2.526   1.073   4.147 -0.0870 -0.2219 -0.0846
 1584SOL    HW2 6108   2.556   1.162   4.167  1.9094 -0.5890 -1.1904
 1584SOL    HW3 6109   2.575   1.048   4.069 -1.7178 -1.7638 -0.6889
 1584SOL    MW4 6110   2.536   1.082   4.139  0.0523 -0.2002 -0.3651
 1585SOL     OW 6111   0.231   0.362   5.844  0.8488  0.1572 -0.4221
 1585SOL    HW2 6112   0.290   0.302   5.798  0.7953  1.0030 -1.6429
 1585SOL    HW3 6113   0.281   0.388   5.922  1.5241 -0.2050 -0.7162
 1585SOL    MW4 6114   0.246   0.357   5.849  0.4666 -0.6802 -0.6482
 1586SOL     OW 6115   1.848   4.126   1.251  0.0698 -0.3321  0.1161
 1586SOL    HW2 6116   1.782   4.194   1.258 -1.1003 -1.4522  0.3682
 1586SOL    HW3 6117   1.807   4.049   1.291  0.7423 -1.6165 -1.5548
 1586SOL    MW4 6118   1.834   4.125   1.257  0.5296  0.0704  0.1408
 1587SOL     OW 6119   2.231   2.014   5.583  0.4005  0.3456  0.5351
 1587SOL    HW2 6120   2.259   2.075   5.652 -0.3342 -0.6846  1.7844
 1587SOL    HW3 6121   2.311   1.967   5.559  0.5216  0.1619  1.2669
 1587SOL    MW4 6122   2.246   2.016   5.589  0.3617  0.0457  0.0726
 1588SOL     OW 6123   0.057   1.926   5.949 -0.5472 -0.9905 -0.0803
 1588SOL    HW2 6124   0.052   1.834   5.973 -2.7242 -0.5446  1.3891
 1588SOL    HW3 6125  -0.033   1.951   5.928  0.0463  0.7399 -0.7583
 1588SOL    MW4 6126   0.045   1.917   5.949  0.4361  0.3142  0.6165
 1589SOL     OW 6127   0.336   0.145   0.926 -0.1309  0.2549  0.1249
 1589SOL    HW2 6128   0.251   0.188   0.922  0.0340  0.8377  2.2075
 1589SOL    HW3 6129   0.315   0.051   0.929 -0.7797  0.4188  1.5493
 1589SOL    MW4 6130   0.322   0.138   0.926  0.4266  0.0297  0.2928
 1590SOL     OW 6131   0.789   4.932   0.314  0.0562  0.0325  0.7364
 1590SOL    HW2 6132   0.749   4.998   0.257  0.9331  0.0589  0.1277
 1590SOL    HW3 6133   0.739   4.852   0.296 -0.8997  0.4688  1.3474
 1590SOL    MW4 6134   0.777   4.930   0.304 -0.7026 -0.1515  0.0082
 1591SOL     OW 6135   0.269   2.655   4.028  0.4522  0.4419  0.3885
 1591SOL    HW2 6136   0.255   2.565   4.057 -1.9105  0.5710 -0.1598
 1591SOL    HW3 6137   0.345   2.685   4.079  1.3942 -1.8656  0.4680
 1591SOL    MW4 6138   0.277   2.647   4.039  0.7818  0.8035  0.4973
 1592SOL     OW 6139   2.174   5.374   1.973  0.1404 -1.5857  0.0182
 1592SOL    HW2 6140   2.236   5.357   1.902 -1.7649 -0.3799 -2.0663
 1592SOL    HW3 6141   2.217   5.339   2.051  2.6597 -2.3304 -1.5763
 1592SOL    MW4 6142   2.188   5.367   1.974 -0.1257 -0.4981  0.1622
 1593SOL     OW 6143   1.357   0.449   2.196  0.0296  0.2727  0.1645
 1593SOL    HW2 6144   1.429   0.442   2.133  1.3748 -0.2214  1.6793
 1593SOL    HW3 6145   1.400   0.445   2.282 -1.8267 -0.1793  1.1277
 1593SOL    MW4 6146   1.372   0.447   2.199  0.2014 -0.2799 -0.1178
 1594SOL     OW 6147   3.900   4.933   4.020  0.0579  0.6517 -0.3382
 1594SOL    HW2 6148   3.805   4.929   4.033 -0.1673  0.1887 -1.9255
 1594SOL    HW3 6149   3.913   5.010   3.965  0.4303 -0.0589 -1.2812
 1594SOL    MW4 6150   3.889   4.942   4.014  0.0896 -0.2080 -0.4554
 1595SOL     OW 6151   5.649   2.862   5.599 -0.2976 -0.4982  0.2161
 1595SOL    HW2 6152   5.682   2.804   5.530  2.7465 -0.4016  1.4093
 1595SOL    HW3 6153   5.689   2.947   5.578 -1.8188  0.2972  0.4463
 1595SOL    MW4 6154   5.659   2.866   5.587 -0.4196 -0.7077  0.2586
 1596SOL     OW 6155   0.873   0.321   4.883  0.1379  0.3113 -0.3961
 1596SOL    HW2 6156   0.785   0.355   4.899  0.0268 -0.0333 -0.2596
 1596SOL    HW3 6157   0.866   0.227   4.900  0.5624  0.3018 -0.2551
 1596SOL    MW4 6158   0.861   0.313   4.887 -0.2541  0.1693 -0.4815
 1597SOL     OW 6159   3.537   3.133   5.180  0.0786 -0.0420  0.4315
 1597SOL    HW2 6160   3.597   3.206   5.195  2.2709 -1.5479 -0.4922
 1597SOL    HW3 6161   3.578   3.059   5.224 -0.1756 -1.5177 -1.6615
 1597SOL    MW4 6162   3.550   3.133   5.188 -0.2645  1.0755 -0.1266
 1598SOL     OW 6163   0.847   4.721   3.225 -0.2721 -0.5178  0.4967
 1598SOL    HW2 6164   0.861   4.663   3.151 -0.3568  0.5292 -0.3568
 1598SOL    HW3 6165   0.924   4.709   3.281 -0.1795 -1.2548  0.2255
 1598SOL    MW4 6166   0.859   4.712   3.223 -0.2075 -0.3681  0.2136
 1599SOL     OW 6167   6.362   3.147   2.289  0.5400 -0.0553 -0.0125
 1599SOL    HW2 6168   6.353   3.060   2.330  0.6002 -0.2354 -0.3771
 1599SOL    HW3 6169   6.346   3.208   2.360  1.8287 -0.3609  0.5682
 1599SOL    MW4 6170   6.359   3.143   2.304  0.3052 -0.5941 -0.1252
 1600SOL     OW 6171   1.473   2.357   2.795  0.3346  0.0067 -0.2428
 1600SOL    HW2 6172   1.438   2.306   2.869  0.0208  0.8602  0.2081
 1600SOL    HW3 6173   1.404   2.420   2.774  0.5603 -0.0101 -1.0583
 1600SOL    MW4 6174   1.459   2.358   2.802 -0.3613  0.6071  0.2117
 1601SOL     OW 6175   1.061   4.556   5.658 -0.5212  0.2069  0.0714
 1601SOL    HW2 6176   1.067   4.476   5.710 -1.9158  0.6328  0.9405
 1601SOL    HW3 6177   0.977   4.549   5.612  0.7488 -0.2393 -2.3398
 1601SOL    MW4 6178   1.051   4.545   5.659  0.5937  0.2056  0.1505
 1602SOL     OW 6179   5.896   0.279   0.753  0.2334 -0.3888 -0.4343
 1602SOL    HW2 6180   5.819   0.309   0.705  0.3840  0.3236 -0.2360
 1602SOL    HW3 6181   5.929   0.205   0.702 -1.3038 -1.5217  0.1344
 1602SOL    MW4 6182   5.890   0.273   0.740 -0.2675  0.1435 -0.0280
 1603SOL     OW 6183   1.024   2.446   3.008  0.1118  0.0444  0.7340
 1603SOL    HW2 6184   0.988   2.535   3.003 -0.8829 -0.2039  2.6443
 1603SOL    HW3 6185   1.079   2.439   2.930 -0.7547  1.8957 -0.1261
 1603SOL    MW4 6186   1.027   2.457   2.997 -0.3900 -0.3840  0.4977
 1604SOL     OW 6187   1.871   5.146   4.369 -0.2297  0.1612 -0.2310
 1604SOL    HW2 6188   1.880   5.231   4.413 -0.2341 -0.2797  0.6344
 1604SOL    HW3 6189   1.776   5.133   4.362 -0.2284  0.1326 -0.1901
 1604SOL    MW4 6190   1.859   5.156   4.374  0.4795 -0.7718  0.1736
 1605SOL     OW 6191   2.416   3.607   4.293 -0.7305  0.0147 -0.0668
 1605SOL    HW2 6192   2.353   3.669   4.255 -1.6808 -0.6715  0.3567
 1605SOL    HW3 6193   2.384   3.521   4.267 -0.8571 -0.4311  1.4486
 1605SOL    MW4 6194   2.403   3.604   4.285 -0.0826  0.7776  0.0001
 1606SOL     OW 6195   1.843   2.059   3.631 -0.1914 -0.1664 -0.1150
 1606SOL    HW2 6196   1.753   2.057   3.596 -0.0122  0.2034 -0.5998
 1606SOL    HW3 6197   1.838   2.119   3.705 -0.3626 -0.2260 -0.0754
 1606SOL    MW4 6198   1.830   2.067   3.636 -0.1335  1.0388  0.7899
 1607SOL     OW 6199   3.745   1.515   4.233  0.0411 -0.3359  0.3406
 1607SOL    HW2 6200   3.797   1.479   4.161  1.8563  0.4639  1.1917
 1607SOL    HW3 6201   3.695   1.586   4.193  3.5078  2.3721  0.3147
 1607SOL    MW4 6202   3.745   1.520   4.218  0.0471  0.3922 -0.2865
 1608SOL     OW 6203   0.376   4.623   1.281  0.6263  0.4985 -0.5527
 1608SOL    HW2 6204   0.431   4.660   1.212  1.1536  2.4632  0.8490
 1608SOL    HW3 6205   0.423   4.643   1.362  0.6650 -2.8422  0.4005
 1608SOL    MW4 6206   0.390   4.630   1.282  0.0478  0.2700 -0.1047
 1609SOL     OW 6207   4.487   0.427   4.950 -0.4568  0.5116  0.4224
 1609SOL    HW2 6208   4.429   0.401   5.022 -0.1746  2.4311  1.4110
 1609SOL    HW3 6209   4.575   0.404   4.981 -0.5076 -0.7369 -0.3060
 1609SOL    MW4 6210   4.491   0.421   4.964 -0.1749  0.7016  0.0355
 1610SOL     OW 6211   0.680   5.692   0.453  0.1582 -0.7198 -0.1462
 1610SOL    HW2 6212   0.647   5.649   0.532  0.9968 -0.5860  0.2854
 1610SOL    HW3 6213   0.760   5.644   0.431  1.9733  1.4587  1.2130
 1610SOL    MW4 6214   0.686   5.680   0.461  0.6459  0.4396 -0.2420
 1611SOL     OW 6215   2.638   3.718   3.014  0.5507 -0.2248  0.6997
 1611SOL    HW2 6216   2.598   3.675   2.938  2.0876  1.5539 -1.2472
 1611SOL    HW3 6217   2.576   3.786   3.038  1.7907  1.9196 -1.7183
 1611SOL    MW4 6218   2.625   3.721   3.007  0.7106 -0.2790 -0.3058
 1612SOL     OW 6219   0.689   6.452   2.180  0.1722  0.4773 -0.4800
 1612SOL    HW2 6220   0.732   6.376   2.220 -0.2029  1.3139  1.5981
 1612SOL    HW3 6221   0.737   6.527   2.214 -2.4752  1.4093  1.4818
 1612SOL    MW4 6222   0.701   6.452   2.190  0.0084  0.0325 -0.2980
 1613SOL     OW 6223   6.297   0.183   3.295  0.4664 -0.0416  0.3196
 1613SOL    HW2 6224   6.271   0.184   3.387  1.7899 -1.7382  0.7713
 1613SOL    HW3 6225   6.288   0.091   3.269  2.1011  0.0232 -0.6122
 1613SOL    MW4 6226   6.293   0.171   3.304  0.2326 -0.1074  0.3034
 1614SOL     OW 6227   0.897   3.424   1.531  0.2725  0.1818  0.3491
 1614SOL    HW2 6228   0.955   3.370   1.476 -2.7708 -1.6250 -1.3816
 1614SOL    HW3 6229   0.942   3.431   1.615  2.3898 -2.1919 -0.4757
 1614SOL    MW4 6230   0.911   3.418   1.535  0.0381  1.0199  0.0455
 1615SOL     OW 6231   2.527   5.881   3.771 -0.1504  0.3350 -0.4981
 1615SOL    HW2 6232   2.578   5.802   3.749  1.9631  1.0763  1.3023
 1615SOL    HW3 6233   2.519   5.929   3.689  1.2499 -0.2994 -1.0368
 1615SOL    MW4 6234   2.533   5.877   3.758 -0.8112 -0.0722  0.4522
 1616SOL     OW 6235   5.639   2.313   1.728 -0.3733 -0.0391 -0.5293
 1616SOL    HW2 6236   5.689   2.341   1.805 -0.5250  3.3513 -1.4988
 1616SOL    HW3 6237   5.548   2.318   1.756 -0.4487  1.5696 -0.9454
 1616SOL    MW4 6238   5.634   2.317   1.742 -0.4428 -0.4423 -0.2245
 1617SOL     OW 6239   3.439   5.927   4.145  0.1201  1.0008 -0.8989
 1617SOL    HW2 6240   3.512   5.867   4.159 -0.2543  0.9029  0.9656
 1617SOL    HW3 6241   3.476   5.997   4.092  1.6069  0.9461 -0.0101
 1617SOL    MW4 6242   3.454   5.929   4.140 -0.7806  0.3820  0.2157
 1618SOL     OW 6243   2.086   0.974   0.673  0.3997  0.2625  0.1059
 1618SOL    HW2 6244   2.025   1.030   0.721 -3.1786 -2.0247 -1.3938
 1618SOL    HW3 6245   2.102   1.022   0.591  0.4033  0.7753  0.4027
 1618SOL    MW4 6246   2.080   0.988   0.668  0.1929  0.0103 -0.3490
 1619SOL     OW 6247   5.769   2.452   4.982  0.6183 -0.0286 -0.2857
 1619SOL    HW2 6248   5.791   2.509   5.056  0.1180 -0.1121 -0.0708
 1619SOL    HW3 6249   5.692   2.493   4.942  2.3411  1.4797 -2.3535
 1619SOL    MW4 6250   5.762   2.465   4.986 -0.3727 -0.4069  0.2234
 1620SOL     OW 6251   5.772   2.275   3.634 -0.0168 -0.1275 -0.3573
 1620SOL    HW2 6252   5.812   2.236   3.556  1.1097 -0.6739  0.4735
 1620SOL    HW3 6253   5.773   2.205   3.699  2.2738  1.2709  1.2556
 1620SOL    MW4 6254   5.777   2.261   3.632  0.1717 -0.0790 -0.3591
 1621SOL     OW 6255   4.739   0.577   2.100 -0.2327 -0.2532  0.0036
 1621SOL    HW2 6256   4.816   0.592   2.155  0.9589 -1.9114 -1.1083
 1621SOL    HW3 6257   4.671   0.549   2.162  0.5840 -0.4651  0.8319
 1621SOL    MW4 6258   4.740   0.575   2.116 -0.0040  0.2774 -0.4749
 1622SOL     OW 6259   0.029   1.159   3.084  0.6780  0.1368  0.2278
 1622SOL    HW2 6260   0.020   1.095   3.013  1.6950  1.3400 -1.0299
 1622SOL    HW3 6261   0.121   1.152   3.110 -0.0901 -1.7437  2.9252
 1622SOL    MW4 6262   0.040   1.149   3.079  0.1566  0.1118  0.4449
 1623SOL     OW 6263   1.235   5.813   2.415 -0.0009  0.3842  0.4740
 1623SOL    HW2 6264   1.272   5.794   2.501  1.9374  0.9373 -0.1753
 1623SOL    HW3 6265   1.175   5.887   2.430  1.0590  1.1222  1.2282
 1623SOL    MW4 6266   1.232   5.820   2.428  0.1390  0.6040  0.3911
 1624SOL     OW 6267   0.070   5.551   4.611 -0.2576  0.0403  0.2932
 1624SOL    HW2 6268   0.063   5.514   4.699  0.7205 -0.5951  0.1232
 1624SOL    HW3 6269   0.150   5.603   4.613 -0.2520  0.0600 -0.2055
 1624SOL    MW4 6270   0.080   5.553   4.622  0.0757  0.0381 -0.0023
 1625SOL     OW 6271   5.830   2.067   2.793 -0.2012 -0.7618  0.1545
 1625SOL    HW2 6272   5.760   2.047   2.855 -0.8716 -1.7127 -0.8732
 1625SOL    HW3 6273   5.786   2.099   2.714  0.6420  0.5117  0.1562
 1625SOL    MW4 6274   5.815   2.069   2.791 -0.4837 -0.4446 -0.3594
 1626SOL     OW 6275   0.762   2.606   3.482  0.3332  0.0056  0.7821
 1626SOL    HW2 6276   0.797   2.552   3.552 -0.7267  0.3112  1.5704
 1626SOL    HW3 6277   0.778   2.696   3.512 -0.2862  0.1368  0.7194
 1626SOL    MW4 6278   0.769   2.611   3.495  0.4132 -0.0538 -0.3153
 1627SOL     OW 6279   0.968   4.679   4.833  0.0634 -0.1917  0.2171
 1627SOL    HW2 6280   0.982   4.598   4.883  0.0510 -0.4422 -0.1770
 1627SOL    HW3 6281   0.980   4.749   4.897  0.7122 -0.4823  0.4278
 1627SOL    MW4 6282   0.972   4.677   4.848 -0.5432 -0.0604 -0.6423
 1628SOL     OW 6283   5.926   5.990   3.150  0.3052 -0.0595  0.2910
 1628SOL    HW2 6284   5.930   5.895   3.161  0.9828  0.1873  2.5618
 1628SOL    HW3 6285   5.846   6.004   3.099  0.2190 -1.8410 -0.1364
 1628SOL    MW4 6286   5.916   5.979   3.145  0.7243 -0.5713 -0.0260
 1629SOL     OW 6287   5.445   5.144   1.053  0.4002  0.2829  0.6344
 1629SOL    HW2 6288   5.398   5.177   0.976  0.3933  0.6965  0.8126
 1629SOL    HW3 6289   5.535   5.134   1.024  0.2759 -0.1606  0.3950
 1629SOL    MW4 6290   5.450   5.147   1.039  0.5092  0.1681  0.3221
 1630SOL     OW 6291   0.979   1.212   2.105 -0.4780  0.2685  0.2645
 1630SOL    HW2 6292   0.955   1.245   2.019  0.6122 -0.1620 -0.2089
 1630SOL    HW3 6293   1.061   1.255   2.126 -0.2235 -0.3842  0.6470
 1630SOL    MW4 6294   0.986   1.222   2.097  0.1031  0.0883  0.3633
 1631SOL     OW 6295   2.115   3.936   3.394 -0.0253 -0.6245 -0.4117
 1631SOL    HW2 6296   2.147   3.955   3.306  1.1055  0.2733  0.1716
 1631SOL    HW3 6297   2.163   3.857   3.420 -1.4378 -1.7642 -1.1284
 1631SOL    MW4 6298   2.126   3.928   3.386 -0.0381  0.3384  0.2334
 1632SOL     OW 6299   0.508   4.641   1.526  0.1608  0.1382  0.2471
 1632SOL    HW2 6300   0.593   4.685   1.517  0.2268  0.0325  0.3534
 1632SOL    HW3 6301   0.523   4.573   1.592 -0.2050  0.6321  0.8599
 1632SOL    MW4 6302   0.521   4.638   1.534 -0.3075  0.1319  0.1711
 1633SOL     OW 6303   2.864   2.501   5.211 -0.3911  0.0128 -0.7868
 1633SOL    HW2 6304   2.785   2.551   5.193  0.8967  1.8890 -1.5789
 1633SOL    HW3 6305   2.929   2.536   5.151  1.4652 -0.3787  0.8729
 1633SOL    MW4 6306   2.862   2.512   5.201 -0.3745 -0.3686 -0.2731
 1634SOL     OW 6307   0.950   0.447   6.322  0.0696 -0.0542  0.0094
 1634SOL    HW2 6308   1.025   0.406   6.278  1.5084  0.8005  1.5709
 1634SOL    HW3 6309   0.967   0.541   6.315 -1.0171  0.1681  0.1659
 1634SOL    MW4 6310   0.962   0.454   6.315  0.5715 -0.4559  0.1974
 1635SOL     OW 6311   1.722   5.593   5.145  0.4399  0.0532  0.2090
 1635SOL    HW2 6312   1.699   5.663   5.207 -1.6365 -2.3368  2.3418
 1635SOL    HW3 6313   1.814   5.609   5.126  0.2476  2.9504  1.1145
 1635SOL    MW4 6314   1.731   5.604   5.151 -0.4023  0.0647  0.1608
 1636SOL     OW 6315   6.367   3.161   5.489 -0.0421 -0.4570 -0.1637
 1636SOL    HW2 6316   6.321   3.153   5.405 -1.0917 -1.6744  0.4848
 1636SOL    HW3 6317   6.345   3.250   5.519 -1.0910 -0.6274 -0.3812
 1636SOL    MW4 6318   6.358   3.172   5.481 -0.1372 -0.6021  0.0503
 1637SOL     OW 6319   4.377   5.520   2.816 -0.0669  0.3685  0.2962
 1637SOL    HW2 6320   4.398   5.432   2.846 -0.7547 -0.3042 -1.0848
 1637SOL    HW3 6321   4.287   5.534   2.846 -0.2989  0.2056 -0.3130
 1637SOL    MW4 6322   4.368   5.510   2.824  0.1763 -0.4786  0.2176
 1638SOL     OW 6323   5.429   1.146   2.414  0.4350 -0.1529  0.4361
 1638SOL    HW2 6324   5.428   1.158   2.319 -0.0115  0.9141  0.5582
 1638SOL    HW3 6325   5.469   1.227   2.448 -1.2498  0.3845  1.2502
 1638SOL    MW4 6326   5.434   1.158   2.406  0.1181  0.0573  0.0469
 1639SOL     OW 6327   0.643   0.145   0.512 -0.6205  0.0422 -0.5039
 1639SOL    HW2 6328   0.597   0.147   0.428 -0.5453 -0.9645 -0.5799
 1639SOL    HW3 6329   0.577   0.173   0.576 -0.9486 -0.0806 -0.7866
 1639SOL    MW4 6330   0.628   0.149   0.510 -0.2937 -0.0190 -0.2389
 1640SOL     OW 6331   2.071   1.022   0.375 -0.0991 -0.0580 -0.2491
 1640SOL    HW2 6332   1.982   1.048   0.355  0.2860 -0.4394 -2.6807
 1640SOL    HW3 6333   2.122   1.103   0.371 -0.0568 -0.1023 -0.6009
 1640SOL    MW4 6334   2.066   1.036   0.372  0.0034 -0.0860 -0.0651
 1641SOL     OW 6335   5.819   1.383   5.067 -0.0071  0.2203  0.1484
 1641SOL    HW2 6336   5.910   1.413   5.065 -0.0059  0.2105 -0.0157
 1641SOL    HW3 6337   5.767   1.463   5.077  0.0939  0.0733  2.1173
 1641SOL    MW4 6338   5.824   1.398   5.068 -0.0568 -0.3302  0.7781
 1642SOL     OW 6339   1.138   0.064   1.923  0.3328 -0.0948  0.5652
 1642SOL    HW2 6340   1.092   0.128   1.977 -0.6100  1.3534 -1.7822
 1642SOL    HW3 6341   1.091   0.064   1.840  0.3181 -3.9116  0.4175
 1642SOL    MW4 6342   1.126   0.073   1.919 -0.1718 -0.1379  0.1427
 1643SOL     OW 6343   4.789   2.002   3.402 -0.0445 -0.2201 -0.5622
 1643SOL    HW2 6344   4.803   1.981   3.310 -1.0838  1.1052 -1.0472
 1643SOL    HW3 6345   4.877   2.010   3.439  0.3981  0.4316 -1.7216
 1643SOL    MW4 6346   4.803   2.000   3.395  0.6777  0.3016  0.2856
 1644SOL     OW 6347   2.148   3.496   3.906  0.5533  0.4345  0.0030
 1644SOL    HW2 6348   2.243   3.512   3.898  0.9606 -1.8594 -0.5263
 1644SOL    HW3 6349   2.141   3.401   3.919 -1.6619  0.6483  0.7414
 1644SOL    MW4 6350   2.160   3.486   3.907  0.1120  0.0242  0.5958
 1645SOL     OW 6351   1.977   1.556   0.281  0.1053 -0.7454 -0.1554
 1645SOL    HW2 6352   2.072   1.548   0.288  0.6102  3.3728  0.5638
 1645SOL    HW3 6353   1.951   1.596   0.364 -1.9367  0.0534 -1.1294
 1645SOL    MW4 6354   1.986   1.560   0.293 -0.6493 -0.4765 -0.5418
 1646SOL     OW 6355   4.033   5.878   5.532  0.5494 -0.4874 -0.2084
 1646SOL    HW2 6356   3.979   5.915   5.602  1.2827 -0.5218  0.3806
 1646SOL    HW3 6357   4.041   5.948   5.468 -0.2833 -0.5173 -0.3611
 1646SOL    MW4 6358   4.027   5.892   5.532 -0.2546 -0.1619  0.1286
 1647SOL     OW 6359   2.381   0.513   0.584  0.6096  0.2392 -0.2138
 1647SOL    HW2 6360   2.425   0.580   0.636  1.1807  0.9625 -1.5762
 1647SOL    HW3 6361   2.289   0.542   0.580  0.6388  0.3747  0.0669
 1647SOL    MW4 6362   2.374   0.526   0.590 -0.2282  0.9673 -0.8088
 1648SOL     OW 6363   0.814   1.769   5.046 -0.1590 -0.1011  0.0278
 1648SOL    HW2 6364   0.766   1.842   5.084  0.2681  0.5600 -0.6572
 1648SOL    HW3 6365   0.820   1.790   4.953 -2.3023 -2.2862 -0.7250
 1648SOL    MW4 6366   0.809   1.781   5.039  0.0057 -0.4728  0.1612
 1649SOL     OW 6367   0.724   4.637   3.562  0.0950 -0.2100  0.8262
 1649SOL    HW2 6368   0.796   4.691   3.595 -0.1873 -0.7274  2.3620
 1649SOL    HW3 6369   0.674   4.696   3.505  0.5338  0.7670  1.4274
 1649SOL    MW4 6370   0.727   4.652   3.559 -0.1980  0.6565 -0.4212
 1650SOL     OW 6371   0.374   2.776   2.557  0.0048  0.0995 -0.6573
 1650SOL    HW2 6372   0.425   2.803   2.633  1.2613 -1.2529 -0.9763
 1650SOL    HW3 6373   0.284   2.800   2.579  0.2045 -0.9782  1.6056
 1650SOL    MW4 6374   0.369   2.783   2.570  0.4781  0.2390 -0.3618
 1651SOL     OW 6375   3.914   4.691   3.539 -0.6958 -0.1309  0.0976
 1651SOL    HW2 6376   3.986   4.632   3.518 -1.3634 -0.1959 -2.4257
 1651SOL    HW3 6377   3.952   4.779   3.533 -0.6858 -0.1816 -0.7358
 1651SOL    MW4 6378   3.928   4.695   3.535 -0.1951  0.6597  0.2942
 1652SOL     OW 6379   5.183   3.007   2.218  0.3855  0.1075  0.0887
 1652SOL    HW2 6380   5.142   3.088   2.248  0.1053 -0.0305  0.0877
 1652SOL    HW3 6381   5.201   3.021   2.125 -0.0071  0.0338 -0.0011
 1652SOL    MW4 6382   5.180   3.019   2.209 -0.4637 -0.3833 -0.1813
 1653SOL     OW 6383   3.294   4.177   1.590  0.1949 -0.4594 -0.0437
 1653SOL    HW2 6384   3.298   4.270   1.569  2.3686 -0.2075  1.2011
 1653SOL    HW3 6385   3.263   4.135   1.510 -0.1978  1.2455 -0.8289
 1653SOL    MW4 6386   3.290   4.184   1.577 -0.3786 -0.3793  0.3564
 1654SOL     OW 6387   3.958   1.751   5.055 -0.1508  0.1705 -0.0934
 1654SOL    HW2 6388   3.985   1.833   5.014 -1.2154  0.6106  0.0645
 1654SOL    HW3 6389   3.982   1.760   5.147  1.0765 -0.3055 -0.3471
 1654SOL    MW4 6390   3.965   1.763   5.061  0.0961 -0.6766 -0.2318
 1655SOL     OW 6391   6.000   0.174   3.455 -0.0052 -0.1469  0.0257
 1655SOL    HW2 6392   6.030   0.217   3.534  1.9551 -2.9609  0.9651
 1655SOL    HW3 6393   5.925   0.121   3.483 -0.6035  0.4170 -0.4798
 1655SOL    MW4 6394   5.994   0.172   3.469  0.2794  0.3792  0.2148
 1656SOL     OW 6395   0.324   0.072   0.414 -0.3809  0.3245  0.1477
 1656SOL    HW2 6396   0.376   0.108   0.342 -0.3931  0.8767  0.4104
 1656SOL    HW3 6397   0.319  -0.021   0.395  1.8694 -0.0147  0.8188
 1656SOL    MW4 6398   0.330   0.065   0.402 -0.0143  0.0483 -0.2642
 1657SOL     OW 6399   6.072   3.048   5.896  0.3208 -0.1364  0.3549
 1657SOL    HW2 6400   6.068   3.041   5.801  0.8460  1.4355  0.1743
 1657SOL    HW3 6401   5.981   3.057   5.924  0.2064  0.0379 -0.0710
 1657SOL    MW4 6402   6.060   3.049   5.887 -0.2236  0.0080 -0.0213
 1658SOL     OW 6403   3.752   5.328   3.711 -0.1012 -0.6591  0.6401
 1658SOL    HW2 6404   3.719   5.247   3.673  0.8536 -0.9254  0.3409
 1658SOL    HW3 6405   3.817   5.301   3.775  0.5880 -0.1378  0.1863
 1658SOL    MW4 6406   3.756   5.314   3.714 -0.0484 -0.5901 -0.5078
 1659SOL     OW 6407   3.136   1.617   5.238  0.0859  0.1809  0.0740
 1659SOL    HW2 6408   3.099   1.675   5.171  0.9916  1.0755  0.3174
 1659SOL    HW3 6409   3.099   1.531   5.218  2.7703 -0.3469 -3.6162
 1659SOL    MW4 6410   3.126   1.614   5.227  0.4434  0.7266  0.5921
 1660SOL     OW 6411   0.088   1.222   0.681  0.7990 -0.0370  0.0754
 1660SOL    HW2 6412   0.111   1.313   0.664 -1.4002  0.3861 -1.0912
 1660SOL    HW3 6413   0.102   1.211   0.775  1.4471  1.3900  0.1755
 1660SOL    MW4 6414   0.093   1.232   0.691  0.1101 -0.0377 -0.5136
 1661SOL     OW 6415   3.648   6.468   1.081  0.2515  0.5783  0.1787
 1661SOL    HW2 6416   3.665   6.544   1.025  0.2608  0.8431  0.5360
 1661SOL    HW3 6417   3.672   6.392   1.028 -0.4555  0.7881 -0.4526
 1661SOL    MW4 6418   3.653   6.468   1.067 -0.1604 -0.0945  0.7454
 1662SOL     OW 6419   2.767   4.647   4.608 -0.2078 -0.1218 -0.1588
 1662SOL    HW2 6420   2.796   4.631   4.698  0.9911 -2.3922 -0.8612
 1662SOL    HW3 6421   2.849   4.658   4.559 -0.8683  2.0208 -0.8653
 1662SOL    MW4 6422   2.782   4.646   4.613 -0.3433  0.3011  0.6892
 1663SOL     OW 6423   3.717   3.772   1.183 -0.0945 -0.5835 -0.5991
 1663SOL    HW2 6424   3.740   3.704   1.246 -0.5810 -0.1950  0.0134
 1663SOL    HW3 6425   3.785   3.767   1.116  1.0472 -0.3036  0.5028
 1663SOL    MW4 6426   3.729   3.762   1.183 -0.3376 -0.6082 -1.0150
 1664SOL     OW 6427   5.381   5.730   2.285  0.5866  0.3244  0.2155
 1664SOL    HW2 6428   5.310   5.730   2.221  0.0067 -1.3386  0.8106
 1664SOL    HW3 6429   5.447   5.788   2.247 -0.1651  0.1786 -1.3896
 1664SOL    MW4 6430   5.380   5.738   2.271 -0.1181  0.0754  0.2211
 1665SOL     OW 6431   4.605   3.833   2.539  0.4287  0.0070 -0.4046
 1665SOL    HW2 6432   4.530   3.884   2.571  0.6216 -0.4712  0.8651
 1665SOL    HW3 6433   4.585   3.818   2.447 -0.1664  1.4172 -0.5409
 1665SOL    MW4 6434   4.592   3.838   2.531  0.2623 -0.2740 -0.1243
 1666SOL     OW 6435   5.418   5.247   5.047  0.1998  0.0907  0.0459
 1666SOL    HW2 6436   5.404   5.152   5.053  0.8394  0.0857  3.2225
 1666SOL    HW3 6437   5.514   5.257   5.042  0.1619  0.5535  0.1688
 1666SOL    MW4 6438   5.429   5.236   5.047 -0.6263 -0.6430  0.2992
 1667SOL     OW 6439   1.584   4.276   3.237  0.0837 -0.3362  0.0538
 1667SOL    HW2 6440   1.524   4.212   3.197  0.1697  0.1786 -0.9155
 1667SOL    HW3 6441   1.606   4.237   3.322 -0.7193 -1.0782 -0.0565
 1667SOL    MW4 6442   1.579   4.262   3.243  0.5054  0.4208  0.1437
 1668SOL     OW 6443   1.066   4.898   2.509 -0.4594 -0.2029 -0.1708
 1668SOL    HW2 6444   1.031   4.919   2.422  0.1634 -1.2206 -0.6801
 1668SOL    HW3 6445   1.049   4.804   2.519 -1.0770  0.0307  1.0725
 1668SOL    MW4 6446   1.059   4.888   2.499  0.3195 -0.1072 -0.1671
 1669SOL     OW 6447   1.894   2.426   0.359 -0.0524  0.2321  0.2699
 1669SOL    HW2 6448   1.935   2.488   0.418  0.2284  0.6161 -0.3250
 1669SOL    HW3 6449   1.819   2.473   0.322  0.7082  0.5463 -0.8954
 1669SOL    MW4 6450   1.889   2.440   0.362  0.3281 -0.2600 -0.8656
 1670SOL     OW 6451   2.508   6.232   0.131  0.1689  0.1393 -0.0388
 1670SOL    HW2 6452   2.476   6.311   0.088  0.7429 -0.1839 -1.0910
 1670SOL    HW3 6453   2.580   6.202   0.076  0.3745 -0.7652  0.6974
 1670SOL    MW4 6454   2.513   6.239   0.118 -0.3542  0.0435 -0.2583
 1671SOL     OW 6455   0.405   0.873   1.050  0.1618  0.2826  0.1137
 1671SOL    HW2 6456   0.387   0.964   1.027  1.1777  0.5074  0.1617
 1671SOL    HW3 6457   0.335   0.823   1.009 -1.7450  1.2779  1.9649
 1671SOL    MW4 6458   0.393   0.878   1.042  0.4334  0.1586 -0.2870
 1672SOL     OW 6459   0.823   5.469   4.255  0.0515 -0.3102 -0.3188
 1672SOL    HW2 6460   0.859   5.391   4.297 -0.8303 -0.0027  1.0795
 1672SOL    HW3 6461   0.736   5.443   4.227 -0.3697  0.2514  0.4455
 1672SOL    MW4 6462   0.817   5.455   4.257 -0.1876 -0.1737 -0.0782
 1673SOL     OW 6463   4.828   0.200   0.522  0.4907  0.0249  0.8042
 1673SOL    HW2 6464   4.875   0.169   0.445 -2.4521 -1.5798 -0.5221
 1673SOL    HW3 6465   4.833   0.127   0.584 -2.0087 -1.1767 -0.2634
 1673SOL    MW4 6466   4.835   0.186   0.520  0.5020  0.1174 -0.0038
 1674SOL     OW 6467   5.105   2.110   5.566 -0.6739  0.3500 -0.7471
 1674SOL    HW2 6468   5.050   2.091   5.643  0.9130  0.2532  0.4133
 1674SOL    HW3 6469   5.190   2.135   5.603  0.1193  0.3533 -2.4889
 1674SOL    MW4 6470   5.109   2.111   5.581 -0.3642  0.3620  0.5650
 1675SOL     OW 6471   5.881   3.943   3.422  0.2905 -0.0613 -0.4327
 1675SOL    HW2 6472   5.902   3.927   3.514  1.4440 -1.9478 -0.9573
 1675SOL    HW3 6473   5.787   3.927   3.415 -0.4683  3.0349  0.9154
 1675SOL    MW4 6474   5.871   3.939   3.433 -0.0890  0.4012  0.4283
 1676SOL     OW 6475   0.428   5.351   5.277 -0.0200 -0.2148 -0.0659
 1676SOL    HW2 6476   0.505   5.346   5.221 -0.3452  0.2590 -0.5651
 1676SOL    HW3 6477   0.443   5.284   5.344  1.5649  0.8991  0.7740
 1676SOL    MW4 6478   0.440   5.342   5.278 -0.4992 -0.7287 -0.4051
 1677SOL     OW 6479   2.287   1.216   2.101 -0.0055  0.0902 -0.1126
 1677SOL    HW2 6480   2.255   1.304   2.121  0.9192  0.5739 -0.6971
 1677SOL    HW3 6481   2.343   1.192   2.175  0.2481  0.2568 -0.2492
 1677SOL    MW4 6482   2.290   1.224   2.113  0.0316 -1.0276  0.7402
 1678SOL     OW 6483   5.178   4.970   0.812  0.5895 -0.0156  0.4203
 1678SOL    HW2 6484   5.263   4.939   0.841  2.3172  2.9383 -1.0218
 1678SOL    HW3 6485   5.172   4.942   0.721 -1.2828 -2.4846  1.1966
 1678SOL    MW4 6486   5.188   4.962   0.804  0.4389  0.5629  0.0601
 1679SOL     OW 6487   1.586   1.564   0.671 -0.1566 -0.4856 -0.3770
 1679SOL    HW2 6488   1.661   1.582   0.613  0.7815 -1.8711  0.3487
 1679SOL    HW3 6489   1.601   1.621   0.746 -0.1756 -0.3001 -0.5122
 1679SOL    MW4 6490   1.598   1.574   0.673 -0.0057 -0.0622  0.6895
 1680SOL     OW 6491   1.588   1.853   2.199 -0.2570 -0.1580 -0.2627
 1680SOL    HW2 6492   1.650   1.838   2.270 -0.4815 -1.5325 -0.3349
 1680SOL    HW3 6493   1.512   1.893   2.242  1.0809  2.6740 -0.3526
 1680SOL    MW4 6494   1.586   1.856   2.214 -0.1574 -0.8974 -0.4697
 1681SOL     OW 6495   2.698   4.241   4.361 -0.0240  0.0829 -0.4221
 1681SOL    HW2 6496   2.779   4.192   4.375 -0.5099 -0.0482  2.7532
 1681SOL    HW3 6497   2.723   4.333   4.365  0.0237  0.0432  0.2410
 1681SOL    MW4 6498   2.712   4.246   4.363 -0.2680  0.5588 -0.3387
 1682SOL     OW 6499   4.352   5.467   4.150  0.0208  0.2616 -0.2406
 1682SOL    HW2 6500   4.443   5.462   4.178 -0.2033 -1.0525  0.3163
 1682SOL    HW3 6501   4.338   5.560   4.132  1.2117  0.6174  0.5203
 1682SOL    MW4 6502   4.362   5.479   4.151  0.7742 -0.3124  0.4212
 1683SOL     OW 6503   3.911   0.916   6.279 -0.5136  0.4215 -0.8389
 1683SOL    HW2 6504   4.005   0.899   6.272 -0.8393 -1.5118 -1.2045
 1683SOL    HW3 6505   3.870   0.831   6.262 -2.3393  1.2252 -0.7202
 1683SOL    MW4 6506   3.918   0.903   6.276  0.1480  0.3244 -0.1435
 1684SOL     OW 6507   1.381   6.157   1.014 -0.2624  0.4277  0.0557
 1684SOL    HW2 6508   1.301   6.169   0.963  0.0824  0.6625 -0.4329
 1684SOL    HW3 6509   1.359   6.087   1.075  0.2481 -2.0108 -2.3952
 1684SOL    MW4 6510   1.367   6.150   1.015 -0.4007 -0.3922 -0.6666
 1685SOL     OW 6511   3.091   0.185   0.194  0.2317  0.1306 -0.1266
 1685SOL    HW2 6512   3.088   0.280   0.197 -0.4492  0.1268 -0.3850
 1685SOL    HW3 6513   3.035   0.156   0.266  2.6176 -0.1258  1.7775
 1685SOL    MW4 6514   3.083   0.193   0.204 -0.1568  0.5141 -0.2316
 1686SOL     OW 6515   4.304   2.091   4.937  0.7002  0.2219 -0.0901
 1686SOL    HW2 6516   4.352   2.118   5.015 -0.5910  1.6062  0.2806
 1686SOL    HW3 6517   4.321   2.161   4.874  1.2551 -0.5885 -0.8665
 1686SOL    MW4 6518   4.313   2.104   4.939  0.2611 -0.3621  0.3850
 1687SOL     OW 6519   4.139   2.836   1.327 -0.0024  0.7921  0.2870
 1687SOL    HW2 6520   4.193   2.881   1.391 -1.6033  1.5212  1.1792
 1687SOL    HW3 6521   4.131   2.747   1.361  0.0868  0.8635  0.4967
 1687SOL    MW4 6522   4.145   2.830   1.340 -0.3486 -0.0432 -0.1982
 1688SOL     OW 6523   5.537   0.864   1.014  0.0866  0.0955  0.0228
 1688SOL    HW2 6524   5.464   0.917   1.047  0.9513  0.1382  1.9799
 1688SOL    HW3 6525   5.585   0.922   0.956 -0.7829  0.4302 -0.3747
 1688SOL    MW4 6526   5.533   0.879   1.011  0.2556  0.2549 -0.5735
 1689SOL     OW 6527   1.602   1.860   0.431  0.0361  0.2825 -0.4707
 1689SOL    HW2 6528   1.510   1.859   0.456  0.8669  2.2365  3.5222
 1689SOL    HW3 6529   1.604   1.901   0.344 -2.7601  1.1898 -0.1858
 1689SOL    MW4 6530   1.590   1.865   0.423  0.0772  0.5444  0.6355
 1690SOL     OW 6531   2.789   0.137   4.145 -0.0531 -0.2091  0.4322
 1690SOL    HW2 6532   2.848   0.084   4.199  0.8065 -0.2137 -0.4750
 1690SOL    HW3 6533   2.847   0.179   4.081 -1.0586 -0.3776 -0.6221
 1690SOL    MW4 6534   2.804   0.136   4.144 -0.2809  0.0388  0.3177
 1691SOL     OW 6535   2.141   5.256   2.731  0.5855  0.0768  0.6834
 1691SOL    HW2 6536   2.056   5.297   2.746  0.0778 -0.1630 -1.2795
 1691SOL    HW3 6537   2.125   5.191   2.662  2.6551  1.1506 -0.9365
 1691SOL    MW4 6538   2.128   5.253   2.724 -0.2868 -0.2683 -0.0678
 1692SOL     OW 6539   0.387   1.903   1.907  0.9113 -0.5477  0.0802
 1692SOL    HW2 6540   0.300   1.941   1.902  0.8614 -0.1729  2.6852
 1692SOL    HW3 6541   0.439   1.952   1.843  0.4774  2.9888  2.2054
 1692SOL    MW4 6542   0.383   1.914   1.898  0.8493 -0.2492 -0.3129
 1693SOL     OW 6543   5.863   1.698   3.493  0.1457  0.4681 -0.6054
 1693SOL    HW2 6544   5.894   1.736   3.575 -1.6387  0.7852 -0.0490
 1693SOL    HW3 6545   5.896   1.758   3.426  0.8220  0.7284 -0.0595
 1693SOL    MW4 6546   5.872   1.711   3.495  0.1015  0.2187 -0.1241
 1694SOL     OW 6547   5.646   3.976   0.582  0.0019  0.3965  0.2363
 1694SOL    HW2 6548   5.617   3.901   0.633  1.8653 -0.4479  0.1522
 1694SOL    HW3 6549   5.630   3.953   0.491  0.3461  0.1870  0.2261
 1694SOL    MW4 6550   5.640   3.963   0.577 -0.5314 -0.0389  0.8641
 1695SOL     OW 6551   6.120   3.508   2.917  0.3344  0.4604 -0.4301
 1695SOL    HW2 6552   6.129   3.444   2.847  0.0158  0.3983 -0.4184
 1695SOL    HW3 6553   6.186   3.483   2.981  0.7199  0.6018 -0.7728
 1695SOL    MW4 6554   6.130   3.496   2.916  0.0408  0.1965  0.0844
 1696SOL     OW 6555   5.604   2.662   2.615  0.6401 -0.2476  0.4684
 1696SOL    HW2 6556   5.693   2.639   2.588  1.1766 -0.4968  2.3070
 1696SOL    HW3 6557   5.556   2.672   2.533  2.4531  0.3223 -0.5840
 1696SOL    MW4 6558   5.609   2.660   2.600  0.4337 -0.1624  0.2489
 1697SOL     OW 6559   2.921   3.746   3.007 -0.1222 -0.3569 -0.0947
 1697SOL    HW2 6560   2.826   3.732   3.000  0.2353 -2.8416 -1.4095
 1697SOL    HW3 6561   2.930   3.837   3.033 -2.8913 -0.3265  1.1700
 1697SOL    MW4 6562   2.910   3.756   3.009 -0.4083  0.1472  0.4354
 1698SOL     OW 6563   1.083   6.308   4.704  0.3607  0.0411  0.5400
 1698SOL    HW2 6564   1.176   6.329   4.714  0.3083  0.8159 -0.4240
 1698SOL    HW3 6565   1.060   6.262   4.784  2.3854 -3.2285 -0.5505
 1698SOL    MW4 6566   1.093   6.305   4.716  0.5488 -0.2407 -0.3266
 1699SOL     OW 6567   2.847   5.808   1.187 -0.2471  0.2759  0.3341
 1699SOL    HW2 6568   2.894   5.832   1.107  2.3804 -1.3759  1.2668
 1699SOL    HW3 6569   2.823   5.716   1.175 -1.6691  0.5764  0.6639
 1699SOL    MW4 6570   2.850   5.799   1.175 -0.3648  0.3381 -0.0384
 1700SOL     OW 6571   5.383   4.035   0.201 -0.7663 -0.1090  0.2294
 1700SOL    HW2 6572   5.405   3.999   0.115 -0.5849  0.1020  0.1859
 1700SOL    HW3 6573   5.306   3.987   0.228 -1.3869  0.4604 -0.4713
 1700SOL    MW4 6574   5.376   4.024   0.193 -0.1916  0.6137  0.6396
 1701SOL     OW 6575   6.159   5.593   4.542  0.7453 -0.3891 -0.4504
 1701SOL    HW2 6576   6.070   5.569   4.519  0.7781 -1.4117  0.3968
 1701SOL    HW3 6577   6.208   5.510   4.539  1.8058  0.2399 -1.4942
 1701SOL    MW4 6578   6.154   5.579   4.539 -0.5420  0.3685 -0.1674
 1702SOL     OW 6579   2.938   4.986   6.106 -0.4860 -0.5263 -0.0585
 1702SOL    HW2 6580   2.962   5.061   6.160  1.5687  0.4719 -2.1892
 1702SOL    HW3 6581   2.850   4.964   6.135 -0.8132  2.1056  1.3143
 1702SOL    MW4 6582   2.930   4.993   6.117  0.9794  0.1463 -0.4414
 1703SOL     OW 6583   4.486   3.043   3.971  0.3145  0.6122 -0.5082
 1703SOL    HW2 6584   4.407   3.097   3.962 -2.0411 -1.7836  3.3576
 1703SOL    HW3 6585   4.538   3.088   4.038  0.7200  0.5344 -0.7656
 1703SOL    MW4 6586   4.482   3.056   3.979  0.0154 -0.2885 -0.1364
 1704SOL     OW 6587   4.505   1.506   1.695  0.2395  0.0620 -0.2551
 1704SOL    HW2 6588   4.558   1.586   1.697 -2.1463  1.7749 -1.2408
 1704SOL    HW3 6589   4.540   1.457   1.621  1.8117  0.0941  0.4296
 1704SOL    MW4 6590   4.517   1.510   1.685 -0.9515 -0.8003 -0.5092
 1705SOL     OW 6591   2.644   1.619   2.626  0.2316  0.0155 -0.1572
 1705SOL    HW2 6592   2.584   1.627   2.701 -0.1723 -0.5273 -0.4202
 1705SOL    HW3 6593   2.725   1.662   2.656 -0.2544  0.6969  0.2282
 1705SOL    MW4 6594   2.647   1.626   2.640 -0.2547  0.0363 -0.6310
 1706SOL     OW 6595   4.262   5.857   4.432 -0.3087  0.0939  0.2906
 1706SOL    HW2 6596   4.299   5.771   4.452 -0.0107  0.3607  0.8942
 1706SOL    HW3 6597   4.209   5.842   4.354  1.1134 -0.2913 -0.6465
 1706SOL    MW4 6598   4.260   5.844   4.424 -0.5490 -0.1315  0.3922
 1707SOL     OW 6599   1.582   6.412   2.189 -0.2784 -0.7017 -0.0665
 1707SOL    HW2 6600   1.610   6.488   2.139 -0.4860  0.6839  1.8196
 1707SOL    HW3 6601   1.563   6.345   2.123  0.4307  0.6893 -1.7434
 1707SOL    MW4 6602   1.583   6.413   2.173 -0.0939 -0.2406  0.1897
 1708SOL     OW 6603   5.623   2.351   2.675 -0.0361  0.7295 -0.3147
 1708SOL    HW2 6604   5.633   2.378   2.766  0.6020 -0.0074 -0.1528
 1708SOL    HW3 6605   5.674   2.414   2.624  2.0304 -0.5225  0.1190
 1708SOL    MW4 6606   5.631   2.363   2.680 -0.1713  0.2525 -0.0928
 1709SOL     OW 6607   2.074   2.834   1.493  0.6303  0.1078 -0.0895
 1709SOL    HW2 6608   2.093   2.751   1.537  2.8081  1.9003  2.7393
 1709SOL    HW3 6609   1.989   2.861   1.527  1.6875  0.8116  2.2100
 1709SOL    MW4 6610   2.065   2.827   1.503 -0.2290  0.1200 -0.4932
 1710SOL     OW 6611   4.301   3.382   3.417  0.8183 -0.0448  0.0765
 1710SOL    HW2 6612   4.230   3.359   3.358  0.7226  0.4938 -0.0286
 1710SOL    HW3 6613   4.344   3.299   3.438 -0.7603 -0.5847  1.3372
 1710SOL    MW4 6614   4.298   3.368   3.412 -0.3671 -0.1489 -0.0322
 1711SOL     OW 6615   1.781   2.701   2.868  0.1520  0.0303  0.5574
 1711SOL    HW2 6616   1.711   2.731   2.811  0.1558  0.5429  0.8123
 1711SOL    HW3 6617   1.854   2.681   2.809  0.4237  1.3073  0.4247
 1711SOL    MW4 6618   1.782   2.702   2.853  0.5678 -0.0444  0.4669
 1712SOL     OW 6619   2.619   3.816   4.469 -0.1877  0.0206 -0.6632
 1712SOL    HW2 6620   2.670   3.863   4.402 -1.2763 -0.8738 -2.1562
 1712SOL    HW3 6621   2.540   3.787   4.424 -2.3608  1.7945  1.7015
 1712SOL    MW4 6622   2.616   3.818   4.454  0.6094 -0.5239  0.1715
 1713SOL     OW 6623   3.967   1.775   4.073  0.1581 -0.4743  0.0814
 1713SOL    HW2 6624   3.998   1.845   4.016 -1.1689  0.8838  0.9631
 1713SOL    HW3 6625   4.045   1.747   4.121  0.1481  3.2405  2.6938
 1713SOL    MW4 6626   3.981   1.780   4.071 -0.1207  0.1239  0.0414
 1714SOL     OW 6627   5.066   4.625   5.120  0.2190 -0.0957  0.0007
 1714SOL    HW2 6628   5.036   4.707   5.159  1.8182  0.8829 -0.7426
 1714SOL    HW3 6629   5.056   4.638   5.026 -1.5731 -1.6353 -0.1000
 1714SOL    MW4 6630   5.060   4.637   5.113  0.8421  0.3978 -0.0192
 1715SOL     OW 6631   5.210   6.459   1.779 -0.2801 -0.3057  0.2725
 1715SOL    HW2 6632   5.155   6.466   1.701  0.9933  0.4711 -0.5761
 1715SOL    HW3 6633   5.148   6.442   1.850 -1.7043  1.3033 -0.5216
 1715SOL    MW4 6634   5.194   6.457   1.778  0.3235  0.2600 -0.2265
 1716SOL     OW 6635   4.828   0.681   0.972 -0.0395 -0.0722  0.3181
 1716SOL    HW2 6636   4.860   0.713   0.888 -0.2593  2.4088  1.1221
 1716SOL    HW3 6637   4.742   0.722   0.984 -0.5668 -1.3390  1.2378
 1716SOL    MW4 6638   4.821   0.690   0.963  0.1831 -0.2705  0.2540
 1717SOL     OW 6639   1.515   0.809   2.293  0.2821  0.2725  0.0484
 1717SOL    HW2 6640   1.586   0.745   2.305  0.2728  0.5038  1.4134
 1717SOL    HW3 6641   1.535   0.879   2.354 -1.5691 -0.0474  1.0805
 1717SOL    MW4 6642   1.527   0.810   2.303 -0.0864 -0.7627  0.3530
 1718SOL     OW 6643   5.107   1.294   2.621 -0.8218  0.4398  0.9497
 1718SOL    HW2 6644   5.084   1.202   2.624 -0.8529  0.4286  0.4916
 1718SOL    HW3 6645   5.147   1.306   2.535 -0.4360  0.7634  1.1675
 1718SOL    MW4 6646   5.109   1.284   2.610 -0.5898 -0.4195  0.0984
 1719SOL     OW 6647   0.614   3.502   4.351  0.0187  0.3576 -0.3191
 1719SOL    HW2 6648   0.592   3.475   4.262 -2.0866  1.4026 -0.1705
 1719SOL    HW3 6649   0.541   3.469   4.404  1.5662 -0.8397  1.1694
 1719SOL    MW4 6650   0.601   3.494   4.346  0.1918  0.3946  0.1216
 1720SOL     OW 6651   4.747   6.030   1.140  0.4420  0.2536  0.3309
 1720SOL    HW2 6652   4.764   5.992   1.053 -0.0243  1.2710 -0.2214
 1720SOL    HW3 6653   4.653   6.022   1.151  0.8191 -3.2278  2.3742
 1720SOL    MW4 6654   4.737   6.024   1.130  0.0926  0.2134  0.3903
 1721SOL     OW 6655   3.797   2.855   1.526  0.2889 -0.2958  0.5054
 1721SOL    HW2 6656   3.770   2.789   1.589  2.4378 -1.4034  0.3687
 1721SOL    HW3 6657   3.716   2.894   1.495 -0.8795 -0.3373  3.2586
 1721SOL    MW4 6658   3.783   2.852   1.530  0.0068 -0.0754  0.4499
 1722SOL     OW 6659   6.271   6.331   4.052 -0.4125  0.1171 -0.5712
 1722SOL    HW2 6660   6.339   6.303   3.990 -1.5715  1.4590 -2.5389
 1722SOL    HW3 6661   6.318   6.383   4.117  0.7008 -0.5046 -0.8478
 1722SOL    MW4 6662   6.286   6.334   4.052  0.1563 -0.0264 -0.4762
 1723SOL     OW 6663   3.283   1.132   3.906 -0.1349 -0.1289  0.2093
 1723SOL    HW2 6664   3.377   1.117   3.902 -0.2164 -0.5102 -0.3574
 1723SOL    HW3 6665   3.249   1.097   3.823 -1.0758 -2.0558  1.3440
 1723SOL    MW4 6666   3.291   1.126   3.894  0.7130  0.1456  0.6816
 1724SOL     OW 6667   0.125   1.652   2.611  0.0153 -0.0570  0.2878
 1724SOL    HW2 6668   0.153   1.740   2.638  0.6816 -0.0023 -0.5339
 1724SOL    HW3 6669   0.189   1.626   2.544 -0.1342 -1.1933  0.5623
 1724SOL    MW4 6670   0.137   1.660   2.606 -0.2443  0.2292 -0.4495
 1725SOL     OW 6671   0.039   0.129   1.764 -0.4915 -0.2812 -0.1296
 1725SOL    HW2 6672  -0.010   0.208   1.788  0.8057  0.1088  1.3996
 1725SOL    HW3 6673   0.028   0.070   1.838 -1.2209 -1.4638 -1.1446
 1725SOL    MW4 6674   0.031   0.132   1.777  0.0283 -0.3212  0.0247
 1726SOL     OW 6675   3.265   0.453   3.663 -0.4197  0.0983  0.1364
 1726SOL    HW2 6676   3.298   0.364   3.677 -1.0662 -0.3607 -1.0345
 1726SOL    HW3 6677   3.254   0.489   3.751 -0.2345 -1.0162  0.6361
 1726SOL    MW4 6678   3.268   0.446   3.676 -0.2621 -0.5263 -0.0276
 1727SOL     OW 6679   0.988   0.359   1.713  0.1170 -0.1863 -0.2645
 1727SOL    HW2 6680   1.007   0.268   1.692 -0.5253 -0.3954  0.0346
 1727SOL    HW3 6681   0.980   0.361   1.809  1.4521  0.4451 -0.1446
 1727SOL    MW4 6682   0.989   0.348   1.723 -0.1021 -0.3593  0.3775
 1728SOL     OW 6683   6.204   2.471   2.388 -0.3698  0.4448 -0.4771
 1728SOL    HW2 6684   6.214   2.414   2.464  1.2744 -0.0128 -0.9905
 1728SOL    HW3 6685   6.285   2.522   2.385 -0.4749  0.5714 -1.8130
 1728SOL    MW4 6686   6.216   2.470   2.398 -0.1663  0.2051  0.2828
 1729SOL     OW 6687   6.097   2.702   6.258  0.6549  0.1475 -0.1100
 1729SOL    HW2 6688   6.186   2.731   6.243  0.3390  0.7348 -0.9056
 1729SOL    HW3 6689   6.053   2.712   6.174 -0.6941  1.7662  0.7221
 1729SOL    MW4 6690   6.103   2.707   6.245  0.1313 -0.4143  0.2259
 1730SOL     OW 6691   0.341   0.372   2.595 -0.0087 -0.2554 -0.2163
 1730SOL    HW2 6692   0.270   0.415   2.548  1.7669  1.8735 -1.1214
 1730SOL    HW3 6693   0.321   0.385   2.688 -0.0945  1.6617 -0.4618
 1730SOL    MW4 6694   0.329   0.379   2.601 -0.5628 -0.6715  0.2555
 1731SOL     OW 6695   5.891   0.689   0.054 -0.0094  0.4587  0.4707
 1731SOL    HW2 6696   5.823   0.755   0.066 -0.7789  0.3000 -2.3468
 1731SOL    HW3 6697   5.844   0.607   0.043  0.8154 -0.1630  1.4119
 1731SOL    MW4 6698   5.876   0.687   0.054  0.1622 -0.1910 -0.2118
 1732SOL     OW 6699   0.577   1.194   3.074  0.1037 -0.2061 -0.6896
 1732SOL    HW2 6700   0.662   1.197   3.030  0.0249  0.2778 -0.8168
 1732SOL    HW3 6701   0.523   1.137   3.019  0.4646 -0.8480 -0.3879
 1732SOL    MW4 6702   0.581   1.187   3.061 -0.4208 -0.2513  1.0310
 1733SOL     OW 6703   3.182   4.004   2.239  0.1146  0.0198 -0.8513
 1733SOL    HW2 6704   3.219   4.052   2.314 -0.1877  1.0217 -1.3302
 1733SOL    HW3 6705   3.101   3.967   2.272  0.4872 -0.4045 -0.3953
 1733SOL    MW4 6706   3.176   4.006   2.254 -0.1564 -0.1179 -0.7079
 1734SOL     OW 6707   1.634   5.560   3.028 -0.4941  0.5166  0.5525
 1734SOL    HW2 6708   1.556   5.584   2.978  0.0435 -0.8187 -1.0320
 1734SOL    HW3 6709   1.703   5.617   2.994 -0.0966 -0.4854 -0.3622
 1734SOL    MW4 6710   1.633   5.571   3.017  0.1895 -0.5761 -0.4790
 1735SOL     OW 6711   1.666   1.631   3.385 -0.3457  0.1270  0.1004
 1735SOL    HW2 6712   1.700   1.552   3.344 -1.2316 -0.0782 -0.2522
 1735SOL    HW3 6713   1.585   1.604   3.428 -1.7725  1.2298 -1.7454
 1735SOL    MW4 6714   1.659   1.617   3.385  0.0708  0.0536  0.6658
 1736SOL     OW 6715   3.414   3.836   3.446  0.2866  0.1627 -0.2136
 1736SOL    HW2 6716   3.437   3.824   3.354 -0.8692 -1.2010 -0.3639
 1736SOL    HW3 6717   3.319   3.828   3.448  0.4216 -1.9501  1.3538
 1736SOL    MW4 6718   3.405   3.834   3.434 -0.1262 -0.0940  0.0262
 1737SOL     OW 6719   4.613   0.579   4.658  0.2679  0.2873 -0.4239
 1737SOL    HW2 6720   4.678   0.531   4.710  1.4464  1.4146 -0.7836
 1737SOL    HW3 6721   4.540   0.519   4.649  1.2218 -1.0050  0.0922
 1737SOL    MW4 6722   4.612   0.565   4.664  0.2715 -0.2345  0.1025
 1738SOL     OW 6723   5.127   1.845   5.448 -0.5634 -0.0736  0.3718
 1738SOL    HW2 6724   5.103   1.846   5.355 -1.6715 -1.2037  0.6334
 1738SOL    HW3 6725   5.129   1.938   5.472 -0.0106  0.2528 -0.8305
 1738SOL    MW4 6726   5.124   1.858   5.439 -0.1065  0.2442  0.5125
 1739SOL     OW 6727   6.288   4.185   3.889 -0.1790 -0.5475  0.1732
 1739SOL    HW2 6728   6.264   4.110   3.944  4.2147 -1.4585  1.2459
 1739SOL    HW3 6729   6.343   4.147   3.820  0.4242  1.4493 -0.5156
 1739SOL    MW4 6730   6.292   4.170   3.887  0.0712  1.0870  0.1177
 1740SOL     OW 6731   5.034   0.556   3.566  0.1801  0.1899  0.0775
 1740SOL    HW2 6732   5.032   0.582   3.474 -1.7216 -1.6704 -0.4985
 1740SOL    HW3 6733   5.082   0.474   3.567  0.3894  0.3125  0.8053
 1740SOL    MW4 6734   5.040   0.549   3.554  0.1689 -0.3943  0.1180
 1741SOL     OW 6735   0.849   1.126   3.400  0.4755  0.2384 -0.0273
 1741SOL    HW2 6736   0.936   1.092   3.423 -0.2618 -2.7772 -1.1902
 1741SOL    HW3 6737   0.866   1.203   3.346  2.4544 -0.5448 -0.6030
 1741SOL    MW4 6738   0.863   1.132   3.396 -0.5088  0.7207 -0.0235
 1742SOL     OW 6739   4.973   3.774   4.283  0.3627 -0.0359  0.6991
 1742SOL    HW2 6740   4.941   3.864   4.288 -0.6290 -0.4107  1.5778
 1742SOL    HW3 6741   5.042   3.776   4.216  0.7060  1.4636  1.0677
 1742SOL    MW4 6742   4.978   3.786   4.275 -0.5511  0.2594  0.2685
 1743SOL     OW 6743   2.616   4.636   2.349 -0.7827 -0.0981  0.1654
 1743SOL    HW2 6744   2.610   4.719   2.397 -2.2203 -0.1551  0.1044
 1743SOL    HW3 6745   2.647   4.661   2.262  2.3657 -0.0383  1.1493
 1743SOL    MW4 6746   2.619   4.650   2.344 -0.2945  0.0566  0.2688
 1744SOL     OW 6747   0.569   0.087   0.248  0.3648 -0.0803  0.1605
 1744SOL    HW2 6748   0.584   0.127   0.162  3.2927  0.6057  0.9058
 1744SOL    HW3 6749   0.585  -0.006   0.234  0.5101 -0.0184 -0.0866
 1744SOL    MW4 6750   0.573   0.080   0.235 -0.4029 -0.4265 -0.1551
 1745SOL     OW 6751   4.041   4.111   1.164 -0.3298 -0.2515 -0.1881
 1745SOL    HW2 6752   3.998   4.030   1.138 -0.7057  0.9889 -4.0668
 1745SOL    HW3 6753   3.978   4.180   1.145  1.1970  1.1945 -0.3096
 1745SOL    MW4 6754   4.027   4.110   1.158  0.2851  0.4618  0.0005
 1746SOL     OW 6755   4.142   4.075   4.125 -0.1502  0.3900  0.7017
 1746SOL    HW2 6756   4.124   4.138   4.195 -2.0190  0.2374  0.4117
 1746SOL    HW3 6757   4.141   3.990   4.168  0.2270  0.4016  0.7364
 1746SOL    MW4 6758   4.139   4.072   4.140 -0.5071  0.7213 -0.3898
 1747SOL     OW 6759   6.109   5.956   4.036  0.1645 -0.4213  0.7193
 1747SOL    HW2 6760   6.069   5.990   3.956 -2.4663  0.1055  2.1379
 1747SOL    HW3 6761   6.112   5.861   4.023  2.2268 -0.1804 -0.9846
 1747SOL    MW4 6762   6.104   5.948   4.024 -0.5640 -0.1749  0.2848
 1748SOL     OW 6763  -0.004   5.189   4.420  0.4369  0.0948 -0.4223
 1748SOL    HW2 6764  -0.001   5.279   4.389  0.3731 -0.1489 -1.1550
 1748SOL    HW3 6765   0.087   5.168   4.442  0.4416  0.3565 -0.1878
 1748SOL    MW4 6766   0.009   5.198   4.419  0.3580  0.6289  0.3668
 1749SOL     OW 6767   2.359   0.397   5.677  0.4744 -0.3548  0.4086
 1749SOL    HW2 6768   2.370   0.323   5.738 -2.4046 -1.2735 -0.0198
 1749SOL    HW3 6769   2.446   0.409   5.638  1.1668 -3.2316  0.8323
 1749SOL    MW4 6770   2.372   0.389   5.680 -0.3116 -0.0276  0.7105
 1750SOL     OW 6771   4.474   4.296   2.414 -0.2071  0.7660 -0.3692
 1750SOL    HW2 6772   4.404   4.286   2.350 -0.5451 -1.2700  0.2573
 1750SOL    HW3 6773   4.538   4.229   2.390  0.7182  1.4408  0.1298
 1750SOL    MW4 6774   4.473   4.286   2.402  1.1435  0.3307  0.4564
 1751SOL     OW 6775   1.967   5.675   4.974 -0.0460  0.0287  0.0197
 1751SOL    HW2 6776   1.924   5.746   4.926 -0.2874 -0.1100  0.0289
 1751SOL    HW3 6777   2.016   5.627   4.907 -1.1169 -0.7151 -0.2574
 1751SOL    MW4 6778   1.968   5.678   4.959 -0.1868  0.5595 -0.7966
 1752SOL     OW 6779   6.126   2.365   6.037 -0.4478  0.2258  0.4023
 1752SOL    HW2 6780   6.136   2.302   5.965 -1.7832  0.7182 -0.2475
 1752SOL    HW3 6781   6.214   2.397   6.053  0.0172 -0.6320 -0.3445
 1752SOL    MW4 6782   6.139   2.361   6.030  0.2374 -0.0713 -0.0985
 1753SOL     OW 6783   2.485   2.341   2.618  0.4819  0.1790  0.3269
 1753SOL    HW2 6784   2.392   2.363   2.618  0.1532 -1.1031 -0.5201
 1753SOL    HW3 6785   2.529   2.424   2.601 -0.5573  0.6312 -0.2917
 1753SOL    MW4 6786   2.478   2.355   2.616 -0.0238  0.4031 -0.6183
 1754SOL     OW 6787   6.161   3.061   0.787 -0.9529  0.5514 -0.3521
 1754SOL    HW2 6788   6.115   3.018   0.860 -0.0256 -0.6971 -0.4583
 1754SOL    HW3 6789   6.217   3.127   0.829 -0.6947  0.0856  0.0500
 1754SOL    MW4 6790   6.163   3.064   0.803  0.4606  0.2704 -0.1422
 1755SOL     OW 6791   5.359   4.014   0.725 -0.1655 -0.2978 -0.1038
 1755SOL    HW2 6792   5.333   4.096   0.682  2.0819  0.1444 -0.7416
 1755SOL    HW3 6793   5.450   4.028   0.750 -0.3520 -1.8718  1.6818
 1755SOL    MW4 6794   5.367   4.027   0.723 -0.5412  0.3029 -0.4730
 1756SOL     OW 6795   3.677   5.396   0.325  0.0222  0.2792  0.1014
 1756SOL    HW2 6796   3.714   5.482   0.306  0.1663  0.4866  1.2165
 1756SOL    HW3 6797   3.615   5.413   0.396  0.2847 -0.5858  0.5500
 1756SOL    MW4 6798   3.673   5.409   0.332 -0.2384  0.1811  0.5210
 1757SOL     OW 6799   3.478   4.963   5.542 -0.4434  0.0343  0.0206
 1757SOL    HW2 6800   3.460   5.007   5.625  0.3003  1.2149 -0.4241
 1757SOL    HW3 6801   3.403   4.985   5.486  0.5883  2.0355 -0.6820
 1757SOL    MW4 6802   3.466   4.972   5.545 -0.3726 -0.4173  0.1825
 1758SOL     OW 6803   1.637   6.243   6.129 -0.3523  0.3807 -0.1935
 1758SOL    HW2 6804   1.730   6.229   6.146 -0.4434  0.2571  0.2177
 1758SOL    HW3 6805   1.629   6.236   6.034  0.3875  2.3694 -0.4606
 1758SOL    MW4 6806   1.648   6.240   6.119  0.4689 -0.2038 -0.0712
 1759SOL     OW 6807   5.552   1.164   3.711 -0.2575 -0.9873  0.0981
 1759SOL    HW2 6808   5.541   1.149   3.617  1.5576  0.5459 -0.4139
 1759SOL    HW3 6809   5.625   1.225   3.718 -1.8223  0.8409  2.3677
 1759SOL    MW4 6810   5.560   1.170   3.700 -0.2909 -0.2892  0.5024
 1760SOL     OW 6811   1.123   3.912   2.529 -0.2904  0.2071  0.4092
 1760SOL    HW2 6812   1.042   3.882   2.571 -0.3961  0.4876  0.4054
 1760SOL    HW3 6813   1.110   3.893   2.436  0.4953 -1.6937  0.6442
 1760SOL    MW4 6814   1.111   3.905   2.522 -0.0940 -0.9305  0.1314
 1761SOL     OW 6815   4.141   5.320   0.365 -0.1326 -0.5636  0.6222
 1761SOL    HW2 6816   4.176   5.234   0.387  2.3475  0.3945  0.6597
 1761SOL    HW3 6817   4.140   5.321   0.269  1.1189 -0.1707  0.6028
 1761SOL    MW4 6818   4.145   5.308   0.355 -0.6239  0.6152 -0.0396
 1762SOL     OW 6819   3.659   0.757   0.414  0.2885  0.2951  0.4301
 1762SOL    HW2 6820   3.678   0.764   0.507  1.2585  0.9098  0.1985
 1762SOL    HW3 6821   3.681   0.667   0.390 -0.4560 -0.0147  0.8938
 1762SOL    MW4 6822   3.664   0.746   0.423  0.3144 -0.1168 -0.3853
 1763SOL     OW 6823   3.676   3.598   5.280 -0.0263 -0.1671 -0.5031
 1763SOL    HW2 6824   3.662   3.553   5.364 -0.0809  1.9018  0.6857
 1763SOL    HW3 6825   3.590   3.631   5.255  0.0585 -0.4446 -1.1751
 1763SOL    MW4 6826   3.663   3.597   5.288  0.1997 -0.1857  0.0957
 1764SOL     OW 6827   0.162   2.783   3.797 -0.2998  0.6065  0.5311
 1764SOL    HW2 6828   0.201   2.759   3.881 -0.4124  0.8450  0.6517
 1764SOL    HW3 6829   0.214   2.858   3.767 -0.5849  0.8419  0.6304
 1764SOL    MW4 6830   0.174   2.789   3.804  0.4675 -0.4681  0.5799
 1765SOL     OW 6831   4.511   1.559   0.541 -0.0228  0.0247 -0.5152
 1765SOL    HW2 6832   4.523   1.523   0.453  0.1229  0.7348 -0.7917
 1765SOL    HW3 6833   4.454   1.496   0.584 -0.7199  0.0437 -1.3682
 1765SOL    MW4 6834   4.505   1.546   0.535  0.5212 -0.4153 -0.8273
 1766SOL     OW 6835   0.313   0.688   1.406 -0.2968  0.4430 -0.0547
 1766SOL    HW2 6836   0.391   0.689   1.349 -1.1769  1.1903 -1.3199
 1766SOL    HW3 6837   0.346   0.709   1.493  0.8615  1.3251 -0.6801
 1766SOL    MW4 6838   0.328   0.691   1.410  0.3016 -0.3745  0.0171
 1767SOL     OW 6839   2.256   2.335   3.102 -0.2669 -0.2409  0.1187
 1767SOL    HW2 6840   2.308   2.304   3.028 -1.4459  0.4529 -1.0541
 1767SOL    HW3 6841   2.197   2.263   3.123 -0.7093 -0.0410 -0.3963
 1767SOL    MW4 6842   2.255   2.322   3.095 -0.0935  0.7995  0.9429
 1768SOL     OW 6843   5.163   2.419   0.314 -0.0411 -0.2541  0.3935
 1768SOL    HW2 6844   5.202   2.471   0.244 -0.1313 -0.3588  0.2649
 1768SOL    HW3 6845   5.152   2.332   0.276  0.0091 -0.3388  0.5734
 1768SOL    MW4 6846   5.167   2.414   0.300  0.0393 -0.2317 -0.2275
 1769SOL     OW 6847   1.117   5.931   6.233 -0.2631  0.0585 -0.5061
 1769SOL    HW2 6848   1.187   5.892   6.180  0.6471  0.7899  0.1179
 1769SOL    HW3 6849   1.108   6.020   6.199  0.8857  0.8043  1.0427
 1769SOL    MW4 6850   1.125   5.938   6.222 -1.0122 -0.6786  0.0167
 1770SOL     OW 6851   4.187   0.156   0.422  0.4401  0.4822  0.4907
 1770SOL    HW2 6852   4.220   0.244   0.443 -0.9511  0.7312  1.7449
 1770SOL    HW3 6853   4.247   0.097   0.467  0.0322  0.8791  1.5796
 1770SOL    MW4 6854   4.199   0.160   0.430 -0.4119  0.6844 -0.2904
 1771SOL     OW 6855   0.520   1.564   2.185 -0.1088 -0.2685 -0.1575
 1771SOL    HW2 6856   0.527   1.614   2.104 -2.2102 -0.1252 -0.3180
 1771SOL    HW3 6857   0.597   1.508   2.186 -1.1267 -1.9853 -3.4667
 1771SOL    MW4 6858   0.531   1.563   2.174  0.4115 -0.2033 -0.1806
 1772SOL     OW 6859   5.963   4.397   5.778 -0.3123  0.3626  0.1190
 1772SOL    HW2 6860   5.899   4.423   5.844  0.1635 -0.9827  1.1597
 1772SOL    HW3 6861   6.046   4.394   5.825  0.1230 -0.1764 -0.6597
 1772SOL    MW4 6862   5.966   4.400   5.793 -0.4677  0.0355  0.1366
 1773SOL     OW 6863   2.080   4.760   5.506 -0.2872 -0.1867 -0.1366
 1773SOL    HW2 6864   2.027   4.681   5.497 -1.3480  0.6411 -1.4165
 1773SOL    HW3 6865   2.022   4.831   5.481  0.9995  0.8959 -0.1353
 1773SOL    MW4 6866   2.066   4.759   5.501  0.6003 -0.2467  0.1488
 1774SOL     OW 6867   0.585   1.976   2.508  0.2310 -0.1296  0.2436
 1774SOL    HW2 6868   0.639   1.946   2.436 -1.1762  0.1711 -0.9884
 1774SOL    HW3 6869   0.646   2.019   2.568  1.6225 -1.5485 -0.0826
 1774SOL    MW4 6870   0.600   1.978   2.507  0.4550  0.4650 -0.3641
 1775SOL     OW 6871   3.204   5.525   4.025 -0.1651 -0.1313 -0.2138
 1775SOL    HW2 6872   3.172   5.438   4.000  2.0727 -1.3703  0.9293
 1775SOL    HW3 6873   3.233   5.564   3.942  2.3411 -2.0727 -0.3573
 1775SOL    MW4 6874   3.203   5.519   4.011 -0.0660 -0.2034 -0.1515
 1776SOL     OW 6875   3.237   6.171   4.804 -0.1417  0.1590 -0.3327
 1776SOL    HW2 6876   3.212   6.201   4.717  0.4754  1.6341 -0.0163
 1776SOL    HW3 6877   3.332   6.177   4.805  0.0271 -1.7885 -0.2188
 1776SOL    MW4 6878   3.246   6.176   4.792  0.0328  0.6614  0.5400
 1777SOL     OW 6879   5.591   3.152   3.183  0.6170 -0.0691 -0.0768
 1777SOL    HW2 6880   5.611   3.150   3.277  1.2897  0.2392 -0.2094
 1777SOL    HW3 6881   5.637   3.075   3.148 -2.4438 -2.2833  0.3547
 1777SOL    MW4 6882   5.600   3.141   3.191  0.3733  0.5352  0.2631
 1778SOL     OW 6883   1.895   5.164   0.883 -0.7423 -0.1521  0.1193
 1778SOL    HW2 6884   1.971   5.131   0.836 -1.0047  0.3674 -0.6828
 1778SOL    HW3 6885   1.823   5.106   0.857 -0.8426 -0.0029  0.0658
 1778SOL    MW4 6886   1.896   5.152   0.874 -0.2243  0.9651 -0.5326
 1779SOL     OW 6887   3.898   5.084   5.086  0.1280 -0.4242  0.0007
 1779SOL    HW2 6888   3.846   5.005   5.073 -1.2677  0.7444 -2.2317
 1779SOL    HW3 6889   3.840   5.142   5.136 -0.4795  0.5575 -1.7397
 1779SOL    MW4 6890   3.883   5.081   5.091 -0.1313  0.6394 -0.4277
 1780SOL     OW 6891   3.192   5.489   0.584  0.0668  0.3779 -0.3563
 1780SOL    HW2 6892   3.221   5.429   0.515  0.2386  1.6648 -1.4423
 1780SOL    HW3 6893   3.227   5.574   0.558 -1.1842  1.1834  0.4991
 1780SOL    MW4 6894   3.200   5.492   0.572 -0.2322 -0.6029  0.0191
 1781SOL     OW 6895   2.333   3.495   1.979 -0.2961  0.3363 -0.4480
 1781SOL    HW2 6896   2.349   3.502   2.073  1.7749  1.3057 -0.7967
 1781SOL    HW3 6897   2.291   3.578   1.955 -0.1363  0.4138 -0.4677
 1781SOL    MW4 6898   2.330   3.507   1.988 -0.3705  0.3808  0.0866
 1782SOL     OW 6899   2.416   5.864   6.177 -0.0479 -0.2727 -0.1464
 1782SOL    HW2 6900   2.417   5.776   6.214 -2.1509 -0.6108 -0.7701
 1782SOL    HW3 6901   2.508   5.885   6.163  0.6014 -1.6568  1.6230
 1782SOL    MW4 6902   2.428   5.855   6.180  0.3952 -0.2598 -0.0261
 1783SOL     OW 6903   2.784   5.945   2.935  0.1642  0.3057 -0.1767
 1783SOL    HW2 6904   2.731   5.877   2.893 -0.1889 -0.7332  1.8317
 1783SOL    HW3 6905   2.727   5.980   3.004  1.3167  0.7289  0.5868
 1783SOL    MW4 6906   2.769   5.941   2.939 -0.1018 -0.0739 -0.3195
 1784SOL     OW 6907   2.810   4.605   3.530  0.3262  0.6925 -0.4410
 1784SOL    HW2 6908   2.785   4.636   3.617  0.8289  0.1559 -0.1002
 1784SOL    HW3 6909   2.729   4.572   3.492  0.6623 -2.3734  1.1957
 1784SOL    MW4 6910   2.796   4.605   3.537  0.3244  0.0661  0.7915
 1785SOL     OW 6911   3.729   3.989   0.814  0.3253  0.2748  0.2231
 1785SOL    HW2 6912   3.645   3.949   0.793  1.4718 -1.9685 -0.3531
 1785SOL    HW3 6913   3.722   4.078   0.780 -0.9942 -0.5942 -1.9850
 1785SOL    MW4 6914   3.717   3.996   0.807 -0.3268 -0.0418 -0.0950
 1786SOL     OW 6915   2.426   2.106   2.087  0.0639  0.0607 -0.1441
 1786SOL    HW2 6916   2.431   2.011   2.081  0.4187 -0.0247  1.2724
 1786SOL    HW3 6917   2.419   2.135   1.996  3.0705 -1.1417 -0.8838
 1786SOL    MW4 6918   2.426   2.098   2.074  0.4168 -0.3296 -0.5173
 1787SOL     OW 6919   5.155   0.724   3.760  0.3789  0.2593  0.1184
 1787SOL    HW2 6920   5.091   0.682   3.703 -1.1160  0.0121  1.8848
 1787SOL    HW3 6921   5.151   0.816   3.737 -0.0071  0.1244 -0.3610
 1787SOL    MW4 6922   5.146   0.730   3.750  0.1758  0.0160  0.7877
 1788SOL     OW 6923   2.725   6.388   1.738 -0.4264  0.1749 -0.2447
 1788SOL    HW2 6924   2.748   6.462   1.683 -2.0003  0.5835 -0.4012
 1788SOL    HW3 6925   2.659   6.422   1.799 -0.1420 -0.7446  0.6165
 1788SOL    MW4 6926   2.719   6.402   1.739 -0.0078  0.2492  0.5146
 1789SOL     OW 6927   2.010   2.986   4.021  0.1157 -0.0835  0.1633
 1789SOL    HW2 6928   1.940   3.016   4.079 -0.2005  0.4322 -0.4737
 1789SOL    HW3 6929   2.049   2.911   4.066 -1.6309 -1.1527 -0.0338
 1789SOL    MW4 6930   2.006   2.980   4.035 -0.8590 -0.3256  0.2739
 1790SOL     OW 6931   1.757   2.764   3.972 -0.0704  0.7075  0.1643
 1790SOL    HW2 6932   1.850   2.758   3.953  0.0469 -2.1105  1.0950
 1790SOL    HW3 6933   1.738   2.857   3.973  2.6362  1.3394 -0.4822
 1790SOL    MW4 6934   1.766   2.775   3.970  0.8977 -0.7566  0.6212
 1791SOL     OW 6935   4.765   5.507   3.098 -0.1550 -0.4019 -0.0122
 1791SOL    HW2 6936   4.736   5.418   3.114 -2.0997  0.4088  1.2638
 1791SOL    HW3 6937   4.708   5.540   3.028  0.4802 -0.0954 -0.4058
 1791SOL    MW4 6938   4.754   5.500   3.091  0.1518 -0.5483 -0.2488
 1792SOL     OW 6939   5.642   2.160   0.346  0.2631 -0.0095  0.0515
 1792SOL    HW2 6940   5.625   2.127   0.434 -0.5125  1.0952  0.3351
 1792SOL    HW3 6941   5.571   2.222   0.329  1.9372  1.9646 -0.2056
 1792SOL    MW4 6942   5.630   2.164   0.355  0.1327  0.3966  0.2012
 1793SOL     OW 6943   1.721   3.386   0.007  0.0053  0.3605 -0.3442
 1793SOL    HW2 6944   1.629   3.414  -0.001 -0.8055 -2.1293 -0.5166
 1793SOL    HW3 6945   1.765   3.430  -0.065 -1.8461 -1.1784 -2.5708
 1793SOL    MW4 6946   1.714   3.396  -0.004  0.0011  0.0870  0.1237
 1794SOL     OW 6947   4.833   4.865   3.454 -0.5294  0.5303 -0.4819
 1794SOL    HW2 6948   4.925   4.887   3.440 -0.7502  0.6028 -1.9604
 1794SOL    HW3 6949   4.795   4.942   3.497 -0.6269  1.9158 -2.9086
 1794SOL    MW4 6950   4.840   4.878   3.458 -0.3476 -0.1143  0.2075
 1795SOL     OW 6951   3.058   4.217   6.211  0.2051 -0.5338  0.1184
 1795SOL    HW2 6952   3.091   4.131   6.183  0.0345 -1.0667  1.5055
 1795SOL    HW3 6953   3.105   4.236   6.292 -0.7700  0.0411  0.5644
 1795SOL    MW4 6954   3.068   4.208   6.218  0.1367 -0.0684  0.2198
 1796SOL     OW 6955   2.698   3.742   2.489  0.2129  0.0826 -0.2976
 1796SOL    HW2 6956   2.707   3.776   2.578  2.4120 -0.6710 -0.1580
 1796SOL    HW3 6957   2.750   3.802   2.435 -0.6034  0.1830 -1.0008
 1796SOL    MW4 6958   2.706   3.754   2.493  0.2760  0.1645  0.2189
 1797SOL     OW 6959   2.786   4.611   2.826  0.0273  0.5261  0.3130
 1797SOL    HW2 6960   2.724   4.684   2.828 -1.5134 -0.6828 -0.4558
 1797SOL    HW3 6961   2.740   4.542   2.777  2.2664 -0.2079 -0.9021
 1797SOL    MW4 6962   2.772   4.611   2.820  0.5909  0.0904 -0.3837
 1798SOL     OW 6963   2.679   2.485   1.974  0.2289  0.1809  0.3677
 1798SOL    HW2 6964   2.656   2.480   1.881 -0.9064 -0.3309  0.6637
 1798SOL    HW3 6965   2.599   2.513   2.017  0.8198  0.6700  1.1796
 1798SOL    MW4 6966   2.666   2.488   1.967 -0.7215  0.2239  0.9804
 1799SOL     OW 6967   6.002   6.098   1.750 -0.0392  0.4548  0.0758
 1799SOL    HW2 6968   5.937   6.035   1.781  1.8157 -2.0709 -0.8130
 1799SOL    HW3 6969   5.962   6.136   1.672 -1.5562  1.0720  1.1118
 1799SOL    MW4 6970   5.988   6.094   1.744  0.1065  0.1498 -0.0358
 1800SOL     OW 6971   1.249   0.810   0.973  0.3614  0.4803 -0.2582
 1800SOL    HW2 6972   1.221   0.769   1.055  2.6252  0.8809  0.7985
 1800SOL    HW3 6973   1.192   0.886   0.963  0.6424  0.9529  1.4652
 1800SOL    MW4 6974   1.238   0.815   0.982  1.0717 -0.0301 -0.4332
 1801SOL     OW 6975   5.062   0.311   2.950  0.5059  0.0341  0.7075
 1801SOL    HW2 6976   4.993   0.253   2.916  1.6135 -1.0137  0.1487
 1801SOL    HW3 6977   5.091   0.360   2.873  0.5559  0.2851  0.8877
 1801SOL    MW4 6978   5.057   0.310   2.935  0.2752  0.1820  1.1808
 1802SOL     OW 6979   1.608   3.954   4.426 -0.2691  0.4467 -0.3208
 1802SOL    HW2 6980   1.607   3.859   4.439  0.8261  0.5507  0.7175
 1802SOL    HW3 6981   1.655   3.988   4.502  0.1303  1.7473 -1.1156
 1802SOL    MW4 6982   1.614   3.946   4.438  0.6221 -0.2870  0.1582
 1803SOL     OW 6983   6.103   4.582   1.909  0.2278  0.1749 -0.2833
 1803SOL    HW2 6984   6.095   4.532   1.829  0.3692 -0.8465  0.3223
 1803SOL    HW3 6985   6.198   4.596   1.919  0.1419  1.3213 -0.8866
 1803SOL    MW4 6986   6.115   4.577   1.900 -0.6397  0.3935  0.1153
 1804SOL     OW 6987   0.903   5.281   5.224  0.1533  0.1983 -0.5144
 1804SOL    HW2 6988   0.961   5.230   5.280 -1.3035  0.4701  1.3376
 1804SOL    HW3 6989   0.831   5.222   5.203  1.1244 -0.2075 -2.9764
 1804SOL    MW4 6990   0.901   5.267   5.229  0.6265 -0.5572  0.1805
 1805SOL     OW 6991   4.967   6.209   3.534  0.2594  0.3280  0.5197
 1805SOL    HW2 6992   5.015   6.186   3.454  1.0923 -0.4693  1.2229
 1805SOL    HW3 6993   4.912   6.283   3.509 -1.6758 -1.6823 -1.5855
 1805SOL    MW4 6994   4.966   6.216   3.520  0.2191  0.2499 -0.1355
 1806SOL     OW 6995   0.192   4.495   0.170  0.4310 -0.2079 -0.2099
 1806SOL    HW2 6996   0.186   4.567   0.107 -2.0029 -0.1969 -0.0437
 1806SOL    HW3 6997   0.230   4.423   0.120 -0.8144  0.0009 -1.5154
 1806SOL    MW4 6998   0.197   4.495   0.155  0.0180 -0.3686  0.3245
 1807SOL     OW 6999   4.537   0.076   3.652  0.0591 -0.0448  0.0880
 1807SOL    HW2 7000   4.535   0.167   3.680 -0.5190  0.0378 -0.1879
 1807SOL    HW3 7001   4.623   0.064   3.612 -0.4736  0.8561 -1.3946
 1807SOL    MW4 7002   4.548   0.086   3.651  0.0821  0.1297 -0.2102
 1808SOL     OW 7003   0.743   1.907   5.841  0.4271 -0.3799  0.0195
 1808SOL    HW2 7004   0.697   1.824   5.853 -0.9831  0.4104  0.3473
 1808SOL    HW3 7005   0.788   1.898   5.757  0.3425 -1.4951  0.0821
 1808SOL    MW4 7006   0.743   1.895   5.832 -0.4759 -0.0445  0.3220
 1809SOL     OW 7007   2.563   1.432   1.980 -0.6893  0.5621  0.1804
 1809SOL    HW2 7008   2.601   1.366   2.037 -0.9778  1.6864  1.7324
 1809SOL    HW3 7009   2.638   1.485   1.951 -0.4638 -0.3772 -1.0329
 1809SOL    MW4 7010   2.578   1.431   1.984 -0.2324 -0.1430 -0.8104
 1810SOL     OW 7011   0.655   3.302   1.512 -0.0870 -0.4771  0.7632
 1810SOL    HW2 7012   0.689   3.213   1.497 -0.7606 -0.7690  0.9399
 1810SOL    HW3 7013   0.733   3.354   1.531  0.5216 -0.6370 -1.1244
 1810SOL    MW4 7014   0.670   3.297   1.513 -0.2053  0.2872  0.5887
 1811SOL     OW 7015   3.374   1.760   3.069 -0.2385  0.5824  0.4754
 1811SOL    HW2 7016   3.382   1.721   2.982 -1.1672  0.3223  0.4947
 1811SOL    HW3 7017   3.295   1.720   3.106  0.5613  0.1103  1.7466
 1811SOL    MW4 7018   3.365   1.749   3.062  0.5816  0.6094 -0.1243
 1812SOL     OW 7019   2.970   1.632   2.911  0.3314  0.0646 -0.0271
 1812SOL    HW2 7020   3.027   1.560   2.884  0.2001  0.0010 -0.1378
 1812SOL    HW3 7021   2.917   1.595   2.981  1.6051  0.6225  1.2751
 1812SOL    MW4 7022   2.971   1.618   2.916  0.5921  0.4758 -0.1645
 1813SOL     OW 7023   4.221   1.821   0.641  0.3214  0.0243  0.0371
 1813SOL    HW2 7024   4.164   1.898   0.648 -0.2353 -0.4301  0.6960
 1813SOL    HW3 7025   4.259   1.812   0.728 -1.6438 -1.9474  0.7811
 1813SOL    MW4 7026   4.218   1.830   0.653  0.2417  0.2202 -0.0811
 1814SOL     OW 7027   1.787   2.016   3.323 -0.1732  0.0779 -0.2902
 1814SOL    HW2 7028   1.776   2.102   3.282  0.9133  0.3816  0.0487
 1814SOL    HW3 7029   1.838   2.033   3.402 -2.7502 -0.4033  1.6187
 1814SOL    MW4 7030   1.792   2.030   3.328 -0.1114  0.6513  0.4346
 1815SOL     OW 7031   0.556   5.876   4.566 -0.1936  0.0106  0.0516
 1815SOL    HW2 7032   0.603   5.803   4.606 -1.1283 -0.0932  0.9845
 1815SOL    HW3 7033   0.586   5.876   4.475  1.9230  0.1970  0.6817
 1815SOL    MW4 7034   0.566   5.867   4.559  0.6303  1.3305  0.4076
 1816SOL     OW 7035   4.302   4.723   2.547 -0.0916  0.0385 -0.4186
 1816SOL    HW2 7036   4.306   4.650   2.486  0.3802 -0.4560  0.1834
 1816SOL    HW3 7037   4.392   4.733   2.579 -0.2280  0.6222 -0.1982
 1816SOL    MW4 7038   4.314   4.715   2.543 -0.8680  0.3761 -0.1232
 1817SOL     OW 7039   3.710   1.751   5.629  0.0678 -0.0983  0.5241
 1817SOL    HW2 7040   3.733   1.779   5.540 -2.3356  0.8022  0.1175
 1817SOL    HW3 7041   3.765   1.674   5.645  0.2043 -0.5842 -1.9351
 1817SOL    MW4 7042   3.721   1.745   5.619  0.0821 -0.2092 -0.2434
 1818SOL     OW 7043   6.082   5.777   5.690 -0.0012 -0.3985  0.3954
 1818SOL    HW2 7044   6.085   5.797   5.783 -3.4804 -0.3135  0.5957
 1818SOL    HW3 7045   5.990   5.757   5.671  0.2773  0.9129 -3.2882
 1818SOL    MW4 7046   6.070   5.777   5.700 -0.0664 -0.1925  0.0392
 1819SOL     OW 7047   1.582   5.565   1.448  0.3496  0.1615 -0.5796
 1819SOL    HW2 7048   1.581   5.659   1.467 -1.4186  0.0467  0.0830
 1819SOL    HW3 7049   1.652   5.555   1.384  1.4470  1.7213  0.3067
 1819SOL    MW4 7050   1.591   5.576   1.442  0.3611 -0.1398 -0.0839
 1820SOL     OW 7051   4.138   2.211   1.802 -0.3961  0.3365 -0.5239
 1820SOL    HW2 7052   4.200   2.277   1.771 -0.5734  2.2623  2.7355
 1820SOL    HW3 7053   4.053   2.255   1.799 -0.3932  0.7177  2.5894
 1820SOL    MW4 7054   4.135   2.226   1.797  0.0339 -0.1533  0.3886
 1821SOL     OW 7055   5.902   1.145   6.295  0.6966  0.4046  0.1764
 1821SOL    HW2 7056   5.862   1.219   6.339  1.4227  0.7951  0.1993
 1821SOL    HW3 7057   5.947   1.184   6.220 -0.8728 -0.2898 -1.1858
 1821SOL    MW4 7058   5.903   1.160   6.291  0.4509 -0.0656  0.2903
 1822SOL     OW 7059   0.594   1.972   1.265 -0.0181 -0.2239  0.0679
 1822SOL    HW2 7060   0.548   1.932   1.338 -0.1471  0.5967  0.4433
 1822SOL    HW3 7061   0.674   1.921   1.256 -0.7704 -1.3869 -0.3080
 1822SOL    MW4 7062   0.598   1.960   1.273  0.4402 -0.4116 -0.1680
 1823SOL     OW 7063   5.625   5.175   0.169  0.0630 -0.8642 -0.3045
 1823SOL    HW2 7064   5.672   5.239   0.116 -2.3499  1.2235 -0.1342
 1823SOL    HW3 7065   5.627   5.095   0.118 -0.3692  0.5039 -2.5763
 1823SOL    MW4 7066   5.632   5.173   0.156 -0.4328 -0.5103 -0.3414
 1824SOL     OW 7067   4.464   3.719   2.027  0.3712  0.4495  0.0915
 1824SOL    HW2 7068   4.457   3.624   2.021 -1.7794  0.6181 -0.6742
 1824SOL    HW3 7069   4.542   3.740   1.974 -0.5870 -0.7090 -1.8998
 1824SOL    MW4 7070   4.474   3.710   2.019 -0.4760 -0.3926  0.8701
 1825SOL     OW 7071   6.145   1.701   3.963  0.0395 -0.0424 -0.2564
 1825SOL    HW2 7072   6.207   1.679   3.893 -0.2313  0.3010 -0.6110
 1825SOL    HW3 7073   6.199   1.712   4.041  0.2654 -1.1997 -0.2373
 1825SOL    MW4 7074   6.160   1.700   3.964 -0.3068  0.3181  0.0220
 1826SOL     OW 7075   4.254   0.876   0.192 -0.8516 -0.1982 -0.2969
 1826SOL    HW2 7076   4.349   0.873   0.201 -0.8079  0.3058 -0.5391
 1826SOL    HW3 7077   4.238   0.952   0.136 -1.4546  0.3568  0.6096
 1826SOL    MW4 7078   4.265   0.886   0.186  0.7869 -0.0302 -0.0496
 1827SOL     OW 7079   4.883   4.023   3.807 -0.3208 -0.6336 -0.3542
 1827SOL    HW2 7080   4.866   4.056   3.719 -0.8175  1.5117  0.4943
 1827SOL    HW3 7081   4.837   3.939   3.811 -1.4852 -0.0777 -1.6768
 1827SOL    MW4 7082   4.875   4.016   3.796 -0.0958 -0.0464  0.6901
 1828SOL     OW 7083   1.044   2.202   3.896 -0.0135 -0.1949  0.4686
 1828SOL    HW2 7084   1.044   2.133   3.829  1.3211  0.6047 -0.3870
 1828SOL    HW3 7085   0.955   2.238   3.893 -0.3878 -1.1154  0.1357
 1828SOL    MW4 7086   1.032   2.198   3.887 -0.6038 -0.5958  0.5745
 1829SOL     OW 7087   0.747   2.723   2.631 -0.6354 -0.3027 -0.5757
 1829SOL    HW2 7088   0.681   2.742   2.565 -1.0260  1.0284  0.1628
 1829SOL    HW3 7089   0.828   2.760   2.596 -0.3720 -1.4650 -1.2396
 1829SOL    MW4 7090   0.749   2.731   2.618  0.3993  0.2888 -0.0168
 1830SOL     OW 7091   0.041   0.427   1.479 -0.0568 -0.0735  0.3912
 1830SOL    HW2 7092   0.099   0.412   1.554 -2.5885  0.8345  2.7266
 1830SOL    HW3 7093  -0.032   0.367   1.493 -0.1930 -0.5242 -1.9099
 1830SOL    MW4 7094   0.039   0.417   1.491  0.0525 -0.1599 -0.4208
 1831SOL     OW 7095   0.508   2.120   5.520 -0.3170  0.1500  1.4245
 1831SOL    HW2 7096   0.421   2.158   5.522 -0.2938  0.3249  0.0279
 1831SOL    HW3 7097   0.562   2.184   5.473 -0.1657 -1.2919 -0.5290
 1831SOL    MW4 7098   0.504   2.134   5.514 -0.3211 -0.1299 -0.2823
 1832SOL     OW 7099   2.134   3.735   2.192 -0.2200 -0.1748 -0.4778
 1832SOL    HW2 7100   2.059   3.676   2.196 -1.8471  1.8406  0.9780
 1832SOL    HW3 7101   2.204   3.688   2.235 -1.6599 -0.8303  1.2758
 1832SOL    MW4 7102   2.133   3.721   2.198  0.0040  0.6046 -0.2301
 1833SOL     OW 7103   5.001   5.109   3.206 -0.0376  0.1420  0.1397
 1833SOL    HW2 7104   4.949   5.055   3.146 -1.1622  1.0845  0.2116
 1833SOL    HW3 7105   5.092   5.089   3.184 -0.4259 -0.6067 -0.8843
 1833SOL    MW4 7106   5.006   5.099   3.195 -0.5303 -0.3105 -0.5779
 1834SOL     OW 7107   5.317   5.201   3.256  0.2044  0.2136 -0.5127
 1834SOL    HW2 7108   5.323   5.267   3.187 -0.6966  2.4811  1.4179
 1834SOL    HW3 7109   5.259   5.241   3.321 -0.4894 -2.5849  0.7241
 1834SOL    MW4 7110   5.310   5.215   3.255 -0.0581  0.4446 -0.4669
 1835SOL     OW 7111   0.186   0.679   0.972  0.0022  0.0783  0.0223
 1835SOL    HW2 7112   0.232   0.601   1.003 -0.4277 -0.1391  0.1185
 1835SOL    HW3 7113   0.135   0.648   0.897  1.3666  0.6810 -1.2192
 1835SOL    MW4 7114   0.186   0.664   0.966  0.8541  0.1328  0.0170
 1836SOL     OW 7115   2.215   2.362   5.204  0.3499  0.0110 -0.1021
 1836SOL    HW2 7116   2.191   2.284   5.255 -0.0302  1.0238  1.3352
 1836SOL    HW3 7117   2.243   2.327   5.119 -0.2402 -1.6547  0.3391
 1836SOL    MW4 7118   2.215   2.347   5.200  0.2238 -0.3180 -0.7465
 1837SOL     OW 7119   3.514   5.392   1.121  0.2500  0.0139 -0.4118
 1837SOL    HW2 7120   3.583   5.364   1.181  1.1487  1.7396 -0.5796
 1837SOL    HW3 7121   3.439   5.337   1.144  1.0178 -0.4058  1.2631
 1837SOL    MW4 7122   3.513   5.381   1.132  0.3610  0.1761  0.4285
 1838SOL     OW 7123   3.849   1.587   3.441  0.4455  0.2593  0.0466
 1838SOL    HW2 7124   3.780   1.628   3.388  0.9537 -0.0328 -0.8598
 1838SOL    HW3 7125   3.930   1.608   3.395  0.7015 -2.1589 -0.7732
 1838SOL    MW4 7126   3.850   1.595   3.428  0.2806 -0.6144 -0.4880
 1839SOL     OW 7127   0.152   1.583   2.034  0.2501  0.1072  0.1933
 1839SOL    HW2 7128   0.221   1.610   1.974 -0.0538  0.2828 -0.0844
 1839SOL    HW3 7129   0.148   1.652   2.100  0.3825  0.0653  0.2449
 1839SOL    MW4 7130   0.160   1.595   2.034  0.4206 -0.7307  0.3642
 1840SOL     OW 7131   1.900   5.850   4.763 -0.0313  0.3164  0.3177
 1840SOL    HW2 7132   1.852   5.777   4.725 -0.1404  1.1995 -1.3311
 1840SOL    HW3 7133   1.991   5.835   4.737 -0.0269  0.6681  0.1230
 1840SOL    MW4 7134   1.906   5.838   4.755  0.2416 -0.3050 -0.1634
 1841SOL     OW 7135   3.019   3.819   1.984  0.4454  0.1702  0.2209
 1841SOL    HW2 7136   2.954   3.842   2.050  0.9235  0.9290  0.4413
 1841SOL    HW3 7137   3.076   3.755   2.026 -0.8294 -1.4118 -0.3587
 1841SOL    MW4 7138   3.018   3.814   1.998 -0.8199 -0.2401  0.2654
 1842SOL     OW 7139   2.532   1.134   0.421  0.3143 -0.7067 -0.3210
 1842SOL    HW2 7140   2.585   1.206   0.456 -1.7424  0.9953 -0.4889
 1842SOL    HW3 7141   2.559   1.126   0.330  0.6076 -0.1844 -0.2825
 1842SOL    MW4 7142   2.542   1.143   0.414  0.0791  0.0380 -0.2467
 1843SOL     OW 7143   1.270   0.071   3.732 -0.1720 -0.5001 -0.4292
 1843SOL    HW2 7144   1.256   0.154   3.777  1.7615  0.2826 -1.1369
 1843SOL    HW3 7145   1.209   0.010   3.773 -0.9023  1.0114  0.8260
 1843SOL    MW4 7146   1.260   0.074   3.743  0.2739  0.1256 -0.2595
 1844SOL     OW 7147   5.762   1.110   5.342 -0.3017  0.3808 -0.0186
 1844SOL    HW2 7148   5.800   1.119   5.255 -1.0046 -0.4378 -0.4158
 1844SOL    HW3 7149   5.810   1.037   5.382  0.3044  1.0174  0.4487
 1844SOL    MW4 7150   5.774   1.101   5.336  0.7313  0.2736  0.2974
 1845SOL     OW 7151   0.373   5.116   2.227 -0.0683  0.3752 -0.0925
 1845SOL    HW2 7152   0.321   5.141   2.150 -1.7994 -2.5715 -0.0228
 1845SOL    HW3 7153   0.440   5.057   2.193 -1.1683 -1.3629  0.6452
 1845SOL    MW4 7154   0.375   5.112   2.212  0.2431 -0.4917  0.0104
 1846SOL     OW 7155   1.773   5.660   5.934 -0.2315 -0.0381 -0.3847
 1846SOL    HW2 7156   1.747   5.687   6.022 -0.8907  2.4369 -1.2758
 1846SOL    HW3 7157   1.696   5.676   5.880  0.5022 -0.5204 -1.6181
 1846SOL    MW4 7158   1.760   5.665   5.938  0.1312 -0.3754  0.3560
 1847SOL     OW 7159   6.267   4.063   1.271 -0.7209  0.4134  0.4045
 1847SOL    HW2 7160   6.352   4.089   1.235 -1.4805  1.8414 -0.4270
 1847SOL    HW3 7161   6.211   4.052   1.195 -1.9350  1.9457  1.0220
 1847SOL    MW4 7162   6.271   4.065   1.257 -0.0347  0.1974 -0.0581
 1848SOL     OW 7163   1.854   2.070   1.028 -0.6081  0.1426 -0.1040
 1848SOL    HW2 7164   1.801   2.027   1.095 -0.3102 -0.6865 -0.3811
 1848SOL    HW3 7165   1.835   2.021   0.948  0.3715 -0.0217 -0.2558
 1848SOL    MW4 7166   1.844   2.058   1.026 -0.0636  0.8286  0.8497
 1849SOL     OW 7167   1.378   3.560   2.926  0.7055 -0.1082  0.1730
 1849SOL    HW2 7168   1.402   3.509   2.848  0.4513 -0.0767  0.0718
 1849SOL    HW3 7169   1.421   3.645   2.912 -2.4408  1.3367 -1.8836
 1849SOL    MW4 7170   1.387   3.565   2.914 -0.0179 -0.3379  0.1051
 1850SOL     OW 7171   4.768   1.709   0.470 -0.0773  0.0484  0.2810
 1850SOL    HW2 7172   4.695   1.656   0.438 -0.9581  1.5581 -0.2905
 1850SOL    HW3 7173   4.790   1.766   0.397 -0.2466  1.6054  1.3934
 1850SOL    MW4 7174   4.761   1.709   0.456 -0.3828 -0.2968 -0.2332
 1851SOL     OW 7175   4.585   4.538   3.358  0.5347 -0.7562 -0.3985
 1851SOL    HW2 7176   4.519   4.469   3.352  1.0435 -1.1574 -1.5474
 1851SOL    HW3 7177   4.587   4.577   3.271  3.4541 -2.3067 -1.1588
 1851SOL    MW4 7178   4.576   4.534   3.346 -0.1494 -0.9628  0.0520
 1852SOL     OW 7179   5.820   1.603   4.103  0.2044 -0.0113  0.0545
 1852SOL    HW2 7180   5.885   1.654   4.151 -1.6612 -0.1786  3.0242
 1852SOL    HW3 7181   5.756   1.668   4.072 -0.3941 -0.1815  0.8845
 1852SOL    MW4 7182   5.820   1.618   4.105 -0.1049 -0.1831  0.0243
 1853SOL     OW 7183   0.154   3.171   2.581  0.3813  0.6707  0.5195
 1853SOL    HW2 7184   0.150   3.075   2.574 -1.9988  0.7368  0.0171
 1853SOL    HW3 7185   0.226   3.187   2.641  0.8305 -1.4435  0.6505
 1853SOL    MW4 7186   0.163   3.160   2.588  0.0830 -0.1141 -0.3318
 1854SOL     OW 7187   0.109   0.770   0.337 -0.2053 -0.4194  0.0093
 1854SOL    HW2 7188   0.141   0.690   0.296  0.1926  0.7230 -2.0887
 1854SOL    HW3 7189   0.014   0.765   0.330 -0.1696 -0.5881 -0.3904
 1854SOL    MW4 7190   0.101   0.759   0.330 -0.1202  0.0458  0.3080
 1855SOL     OW 7191   5.617   5.671   2.826  0.5387  0.6027  0.0297
 1855SOL    HW2 7192   5.711   5.657   2.822  0.5253  0.0970  1.0262
 1855SOL    HW3 7193   5.589   5.620   2.902 -0.0325  3.4617  1.8522
 1855SOL    MW4 7194   5.625   5.662   2.835 -0.6262 -0.0078 -0.2444
 1856SOL     OW 7195   4.113   2.459   4.678 -0.2841  0.7879 -0.3460
 1856SOL    HW2 7196   4.106   2.469   4.773 -0.4885  1.4616 -0.4296
 1856SOL    HW3 7197   4.186   2.398   4.667  0.9748  2.0964  0.2113
 1856SOL    MW4 7198   4.122   2.452   4.689 -0.6780 -0.1193 -0.5373
 1857SOL     OW 7199   1.977   0.590   5.402  0.4096 -0.0029  0.0470
 1857SOL    HW2 7200   2.003   0.509   5.446 -0.5525 -0.2927  0.1052
 1857SOL    HW3 7201   2.003   0.660   5.463  1.5663 -0.2406 -0.1641
 1857SOL    MW4 7202   1.984   0.589   5.416 -0.2536  0.2546 -0.1339
 1858SOL     OW 7203   6.393   2.249   2.992 -0.2060 -0.1297  0.2513
 1858SOL    HW2 7204   6.301   2.223   2.978 -0.2676 -0.5427  1.3309
 1858SOL    HW3 7205   6.430   2.252   2.904 -1.2720  0.1115 -0.2085
 1858SOL    MW4 7206   6.386   2.246   2.978  0.5580  0.4188 -0.3159
 1859SOL     OW 7207   2.102   3.993   5.577  0.1765 -0.2633  0.4030
 1859SOL    HW2 7208   2.177   4.054   5.574 -0.1113  0.0784 -1.8258
 1859SOL    HW3 7209   2.142   3.908   5.595  1.0239  0.0285 -0.0126
 1859SOL    MW4 7210   2.117   3.990   5.579  0.7402  0.2783 -0.1910
 1860SOL     OW 7211   2.186   4.724   4.670  0.0476  0.3148  0.6195
 1860SOL    HW2 7212   2.205   4.680   4.753 -1.3645 -0.3788  0.6120
 1860SOL    HW3 7213   2.112   4.676   4.634 -1.0408  2.2058  0.2028
 1860SOL    MW4 7214   2.179   4.712   4.676  0.4364 -0.1048  0.2909
 1861SOL     OW 7215   4.958   3.737   3.915 -0.3711 -0.1434  0.4607
 1861SOL    HW2 7216   4.937   3.684   3.838 -1.0110  1.8836 -0.8388
 1861SOL    HW3 7217   4.877   3.738   3.966 -0.9813  1.0564 -0.4728
 1861SOL    MW4 7218   4.945   3.730   3.912 -1.0539 -0.2581  0.6492
 1862SOL     OW 7219   1.017   1.461   4.420  0.9128  0.0476 -0.2819
 1862SOL    HW2 7220   0.976   1.377   4.401  1.3053 -0.2395  0.1369
 1862SOL    HW3 7221   0.958   1.526   4.380 -0.5717 -0.2806  1.2754
 1862SOL    MW4 7222   1.003   1.459   4.412  0.2248  0.2427 -0.3389
 1863SOL     OW 7223   4.193   0.603   5.830 -0.0755  0.0404  0.1396
 1863SOL    HW2 7224   4.132   0.628   5.761 -0.1409  2.4013  0.9608
 1863SOL    HW3 7225   4.278   0.596   5.786 -0.5963 -1.7186 -0.7112
 1863SOL    MW4 7226   4.196   0.605   5.815  0.3721 -0.2478 -0.3392
 1864SOL     OW 7227   2.071   0.098   4.657  0.2712 -0.3898 -0.3751
 1864SOL    HW2 7228   2.115   0.126   4.738 -0.1751 -0.3812 -0.1319
 1864SOL    HW3 7229   2.097   0.164   4.592 -1.5653  1.2155  0.4290
 1864SOL    MW4 7230   2.080   0.111   4.659 -0.4084  0.1223  0.0806
 1865SOL     OW 7231   0.119   1.956   1.520 -0.4826  0.0765  0.3381
 1865SOL    HW2 7232   0.112   1.993   1.608 -2.0020 -0.7701  0.6132
 1865SOL    HW3 7233   0.038   1.906   1.508 -0.0268 -0.3509 -1.3059
 1865SOL    MW4 7234   0.107   1.954   1.530 -0.0542 -0.0518  0.1329
 1866SOL     OW 7235   1.417   4.544   0.970 -0.3507 -0.2596  0.4094
 1866SOL    HW2 7236   1.471   4.466   0.982 -2.9915 -2.4625 -0.7519
 1866SOL    HW3 7237   1.363   4.549   1.049  0.2728  0.8602  0.7872
 1866SOL    MW4 7238   1.417   4.534   0.982 -0.2398 -0.0257 -0.0234
 1867SOL     OW 7239   4.693   5.565   0.429 -0.1503  0.5620 -0.0628
 1867SOL    HW2 7240   4.776   5.608   0.410  1.2283 -2.0581 -0.4536
 1867SOL    HW3 7241   4.712   5.471   0.423 -2.7048 -0.1965  1.7164
 1867SOL    MW4 7242   4.706   5.558   0.426  0.3323 -0.1314  0.1533
 1868SOL     OW 7243   2.157   4.887   1.649 -0.1279  0.4984  0.8037
 1868SOL    HW2 7244   2.192   4.973   1.669  0.4793  0.8981 -1.6931
 1868SOL    HW3 7245   2.209   4.856   1.575 -2.4704 -0.5706 -0.5193
 1868SOL    MW4 7246   2.168   4.894   1.642 -0.7092 -0.1932  0.3439
 1869SOL     OW 7247   1.308   3.297   3.350  0.4080  0.2601 -0.1040
 1869SOL    HW2 7248   1.296   3.254   3.434 -2.0134 -1.0966 -1.0368
 1869SOL    HW3 7249   1.269   3.384   3.361 -0.5982 -0.1933 -0.0091
 1869SOL    MW4 7250   1.301   3.303   3.362  0.1653 -0.0345 -0.0438
 1870SOL     OW 7251   2.400   0.209   4.563 -1.0204 -0.2579 -0.3874
 1870SOL    HW2 7252   2.413   0.300   4.591  1.0628 -1.1217  1.7176
 1870SOL    HW3 7253   2.450   0.202   4.482  0.1999  0.0778  0.3176
 1870SOL    MW4 7254   2.408   0.220   4.556 -0.2598 -0.4715  0.1085
 1871SOL     OW 7255   1.720   1.521   4.507 -0.0366 -0.1372  0.9134
 1871SOL    HW2 7256   1.751   1.590   4.566  2.1013 -0.5073  0.2867
 1871SOL    HW3 7257   1.791   1.510   4.444 -1.1962 -1.5417 -0.1893
 1871SOL    MW4 7258   1.733   1.529   4.507  0.2702  0.2842  0.4398
 1872SOL     OW 7259   2.678   6.239   2.160 -0.3233  0.5148  0.4493
 1872SOL    HW2 7260   2.586   6.218   2.143 -0.4776  0.5831  1.1641
 1872SOL    HW3 7261   2.717   6.245   2.073 -1.4006  2.4102  0.0268
 1872SOL    MW4 7262   2.671   6.237   2.146  0.9795  0.1487 -1.0423
 1873SOL     OW 7263   0.591   2.254   5.949 -0.2947  0.4221  0.0534
 1873SOL    HW2 7264   0.514   2.310   5.957 -0.2770  0.9374 -2.5286
 1873SOL    HW3 7265   0.565   2.187   5.885  1.8178  1.5157 -2.0839
 1873SOL    MW4 7266   0.577   2.252   5.942 -0.0578  0.0357  1.0828
 1874SOL     OW 7267   3.073   5.542   5.110 -0.3584 -0.5976 -0.2542
 1874SOL    HW2 7268   3.158   5.571   5.143  0.9540 -0.7613 -3.1794
 1874SOL    HW3 7269   3.031   5.500   5.185  2.9414 -2.2445  0.8613
 1874SOL    MW4 7270   3.079   5.541   5.125  0.3720 -0.1749  0.9768
 1875SOL     OW 7271   3.214   4.267   4.649 -0.2281 -0.7977  0.5036
 1875SOL    HW2 7272   3.159   4.345   4.655  0.5032 -0.3009  0.9587
 1875SOL    HW3 7273   3.155   4.195   4.670 -0.7766 -0.3122  0.6717
 1875SOL    MW4 7274   3.199   4.268   4.652 -0.0559  0.1072  0.0097
 1876SOL     OW 7275   3.033   3.272   6.327  0.0484 -0.0230  0.3973
 1876SOL    HW2 7276   2.956   3.235   6.369 -0.6591  0.5497 -0.3728
 1876SOL    HW3 7277   3.012   3.365   6.315  0.0359 -0.2451 -1.6069
 1876SOL    MW4 7278   3.020   3.279   6.331 -0.4857 -0.8900  0.1190
 1877SOL     OW 7279   1.079   0.240   4.464  0.8966 -0.1769 -0.2250
 1877SOL    HW2 7280   0.997   0.217   4.419 -0.0986  1.4695  0.6304
 1877SOL    HW3 7281   1.051   0.290   4.540  2.7137  0.2545  0.2062
 1877SOL    MW4 7282   1.064   0.243   4.468  0.2397 -0.1478 -0.0857
 1878SOL     OW 7283   0.096   1.718   5.248 -0.0653 -0.6627 -0.1800
 1878SOL    HW2 7284   0.150   1.656   5.296  0.6438 -1.2866 -1.6908
 1878SOL    HW3 7285   0.159   1.777   5.206 -0.7202  2.5729  2.9315
 1878SOL    MW4 7286   0.111   1.718   5.249  0.3764 -0.2670  0.3143
 1879SOL     OW 7287   1.090   0.941   0.780  0.2284  0.2761 -0.0381
 1879SOL    HW2 7288   1.147   0.918   0.707  0.0401  2.9604 -1.1489
 1879SOL    HW3 7289   1.127   1.023   0.813 -1.5485  0.7659  0.8213
 1879SOL    MW4 7290   1.103   0.949   0.775 -0.5531 -0.6501 -0.1144
 1880SOL     OW 7291   6.388   4.308   6.408  0.3059 -0.1957 -0.6410
 1880SOL    HW2 7292   6.386   4.403   6.416 -1.8654 -0.2039 -0.3033
 1880SOL    HW3 7293   6.475   4.282   6.437  0.4240  1.5747  0.7204
 1880SOL    MW4 7294   6.399   4.317   6.413 -0.4775  0.0176  0.7648
 1881SOL     OW 7295   1.050   6.432   5.845  0.4242  0.0456 -0.3201
 1881SOL    HW2 7296   0.967   6.419   5.892 -1.2194 -0.8341 -3.2308
 1881SOL    HW3 7297   1.024   6.462   5.758  3.3198  1.8903 -0.6798
 1881SOL    MW4 7298   1.036   6.434   5.840 -0.8915 -0.1074  0.0675
 1882SOL     OW 7299   6.323   2.326   2.176 -1.0100 -0.0582  0.1332
 1882SOL    HW2 7300   6.296   2.348   2.265 -0.7868 -0.9671  0.4402
 1882SOL    HW3 7301   6.290   2.237   2.162 -0.0929 -0.3454 -0.2798
 1882SOL    MW4 7302   6.315   2.317   2.186  0.9888  0.0327 -0.5836
 1883SOL     OW 7303   4.992   5.054   1.773  0.2039 -0.3480  0.2491
 1883SOL    HW2 7304   4.984   5.083   1.864 -0.4782 -2.8465  1.0679
 1883SOL    HW3 7305   4.941   4.972   1.769  0.0735 -0.2313 -2.4300
 1883SOL    MW4 7306   4.984   5.047   1.784 -0.2412 -0.0983 -0.3615
 1884SOL     OW 7307   1.433   1.551   2.295  0.6573  0.0410  0.3238
 1884SOL    HW2 7308   1.441   1.580   2.386  2.0664  0.7766 -0.0004
 1884SOL    HW3 7309   1.391   1.624   2.250 -0.3829 -0.4731  0.4373
 1884SOL    MW4 7310   1.429   1.564   2.301  0.3536 -0.6444  0.1531
 1885SOL     OW 7311   6.221   5.528   1.306 -0.4104  0.1321 -0.0654
 1885SOL    HW2 7312   6.221   5.528   1.210 -0.2392  0.7143 -0.0711
 1885SOL    HW3 7313   6.220   5.621   1.329  2.5632  0.1330  0.4737
 1885SOL    MW4 7314   6.221   5.540   1.296 -0.1160  0.5270  0.0141
 1886SOL     OW 7315   0.511   1.667   0.678 -0.7322 -0.0609  0.4315
 1886SOL    HW2 7316   0.530   1.617   0.758  0.2083 -1.1751 -0.4551
 1886SOL    HW3 7317   0.593   1.714   0.660 -0.2447 -1.3970 -0.9692
 1886SOL    MW4 7318   0.524   1.667   0.686 -0.8353  0.7265 -0.4212
 1887SOL     OW 7319   0.440   2.981   1.683  0.3915  0.6050  0.3846
 1887SOL    HW2 7320   0.372   3.048   1.674 -1.0050 -0.6970  0.9633
 1887SOL    HW3 7321   0.399   2.912   1.735  1.2871 -1.3671 -1.3952
 1887SOL    MW4 7322   0.426   2.981   1.689 -0.0200 -0.2267  0.6126
 1888SOL     OW 7323   5.239   2.573   0.813  0.5275 -0.8301  0.0798
 1888SOL    HW2 7324   5.248   2.543   0.723  0.4417 -0.2846 -0.1165
 1888SOL    HW3 7325   5.329   2.578   0.846  0.7396  0.8412 -0.6134
 1888SOL    MW4 7326   5.252   2.570   0.806 -0.0984  0.1710  0.0125
 1889SOL     OW 7327   5.656   2.945   2.272  0.5325  0.1054  0.4892
 1889SOL    HW2 7328   5.666   3.008   2.343  1.8569  0.4246  0.0373
 1889SOL    HW3 7329   5.631   2.999   2.196 -0.4844 -0.1888  0.5909
 1889SOL    MW4 7330   5.654   2.960   2.271  0.3427  0.3432  0.2998
 1890SOL     OW 7331   0.930   3.911   0.264 -0.6889 -0.1659  0.6720
 1890SOL    HW2 7332   0.989   3.937   0.194 -0.3480  1.7493  1.6044
 1890SOL    HW3 7333   0.929   3.815   0.261  1.1554 -0.1939 -0.4270
 1890SOL    MW4 7334   0.938   3.902   0.255 -0.2779 -0.0763 -0.0552
 1891SOL     OW 7335   5.506   2.712   1.818  0.0166 -0.8002  0.3521
 1891SOL    HW2 7336   5.453   2.687   1.893 -0.0221  1.9368  1.3540
 1891SOL    HW3 7337   5.505   2.635   1.761 -4.0096 -1.3643  0.8581
 1891SOL    MW4 7338   5.499   2.699   1.820 -0.0713 -0.0154 -0.4098
 1892SOL     OW 7339   1.150   1.966   2.776  0.3577  0.0790  0.3635
 1892SOL    HW2 7340   1.162   1.963   2.871 -2.0740  1.1499  0.7934
 1892SOL    HW3 7341   1.112   2.052   2.760 -1.5654 -0.9922 -1.2414
 1892SOL    MW4 7342   1.146   1.977   2.786 -0.1125  0.2794 -0.1551
 1893SOL     OW 7343   1.096   4.027   3.461 -0.4601  0.1321 -0.0531
 1893SOL    HW2 7344   1.039   3.957   3.492 -0.5434 -0.0940 -0.6984
 1893SOL    HW3 7345   1.185   3.993   3.472 -0.5303 -0.7855 -1.9338
 1893SOL    MW4 7346   1.100   4.013   3.467 -0.6883 -0.1966 -0.0664
 1894SOL     OW 7347   1.224   0.390   0.376  0.3023  0.1223 -0.3898
 1894SOL    HW2 7348   1.145   0.400   0.323 -0.2677 -0.6819  0.2976
 1894SOL    HW3 7349   1.277   0.326   0.328 -0.3610 -0.8588  0.1626
 1894SOL    MW4 7350   1.221   0.383   0.362 -0.6401  0.2117 -0.1566
 1895SOL     OW 7351   5.664   2.536   3.466 -0.1085  0.5658 -0.2837
 1895SOL    HW2 7352   5.649   2.579   3.382 -1.2625  1.0094  0.1377
 1895SOL    HW3 7353   5.716   2.598   3.516 -0.6266  0.9096 -0.1647
 1895SOL    MW4 7354   5.669   2.550   3.461 -0.5216 -0.0278 -0.6574
 1896SOL     OW 7355   1.255   3.659   4.707  0.4798  0.3835  0.1329
 1896SOL    HW2 7356   1.239   3.565   4.707  2.7686 -0.1075  1.7144
 1896SOL    HW3 7357   1.189   3.695   4.765  0.4019 -0.4425  0.5693
 1896SOL    MW4 7358   1.244   3.651   4.714 -0.3928 -0.6392 -0.5361
 1897SOL     OW 7359   2.097   1.255   2.591  0.1545 -0.8464  0.7653
 1897SOL    HW2 7360   2.126   1.211   2.512  0.0990 -2.6554  1.6971
 1897SOL    HW3 7361   2.151   1.334   2.596 -1.0389  0.2488 -1.9447
 1897SOL    MW4 7362   2.108   1.260   2.582  0.0114 -0.2368 -0.5203
 1898SOL     OW 7363   1.881   3.948   2.294 -0.2958  0.2217  0.1623
 1898SOL    HW2 7364   1.889   3.970   2.201 -1.8897  1.4512  0.2677
 1898SOL    HW3 7365   1.970   3.952   2.328  0.2348  0.3250 -1.1852
 1898SOL    MW4 7366   1.894   3.951   2.286 -0.5168  0.4356  0.1588
 1899SOL     OW 7367   2.705   4.642   4.112 -0.1484  0.3625  0.4338
 1899SOL    HW2 7368   2.613   4.642   4.138  0.2271 -1.8975  2.0490
 1899SOL    HW3 7369   2.702   4.633   4.016 -1.6577 -1.3126  0.5802
 1899SOL    MW4 7370   2.693   4.641   4.102  0.1309 -0.4674 -0.6590
 1900SOL     OW 7371   5.309   6.125   2.157 -0.2995 -0.0885  0.2542
 1900SOL    HW2 7372   5.369   6.147   2.086  0.9721 -0.5788  1.1367
 1900SOL    HW3 7373   5.282   6.036   2.139 -1.4065  0.3868 -0.5572
 1900SOL    MW4 7374   5.314   6.117   2.145  0.2794  0.3941  0.1044
 1901SOL     OW 7375   6.126   1.257   4.665  0.5379 -0.3405 -0.2302
 1901SOL    HW2 7376   6.079   1.233   4.585 -1.5765  2.1247  0.1655
 1901SOL    HW3 7377   6.218   1.244   4.643  0.0575  0.6361 -3.2364
 1901SOL    MW4 7378   6.132   1.252   4.651  0.1522 -0.3732  0.2268
 1902SOL     OW 7379   3.467   0.557   1.682  0.0745 -0.4592 -0.0418
 1902SOL    HW2 7380   3.532   0.625   1.662 -0.3172  0.1118  0.5810
 1902SOL    HW3 7381   3.517   0.476   1.683  0.6561 -0.1091 -0.2541
 1902SOL    MW4 7382   3.482   0.556   1.680  0.0499 -0.1845 -0.5560
 1903SOL     OW 7383   0.093   5.120   6.248  0.2758 -0.1138  0.0166
 1903SOL    HW2 7384   0.046   5.084   6.323 -1.6878  0.0966 -1.0405
 1903SOL    HW3 7385   0.094   5.215   6.265 -1.0027  0.0378 -0.6184
 1903SOL    MW4 7386   0.087   5.128   6.260  0.2949  0.3063 -0.1318
 1904SOL     OW 7387   1.805   0.575   5.044  0.6232  0.2033  0.2405
 1904SOL    HW2 7388   1.882   0.599   4.991 -1.8640  3.3773 -2.3979
 1904SOL    HW3 7389   1.811   0.631   5.121  0.4916  1.3117 -0.5143
 1904SOL    MW4 7390   1.816   0.586   5.047  0.4719 -0.3737 -0.2680
 1905SOL     OW 7391   0.906   5.491   3.031  0.2797  0.0562 -0.0465
 1905SOL    HW2 7392   0.990   5.455   3.000 -0.4584 -1.7228 -0.1402
 1905SOL    HW3 7393   0.914   5.492   3.126  1.2341  2.1346 -0.0981
 1905SOL    MW4 7394   0.918   5.486   3.039  0.1486 -0.4326 -0.3954
 1906SOL     OW 7395   1.041   5.664   1.950 -0.8744  0.0423 -0.4500
 1906SOL    HW2 7396   1.114   5.727   1.951 -1.0868  0.2981  0.3548
 1906SOL    HW3 7397   1.027   5.644   1.858 -0.2057  0.4875 -0.6553
 1906SOL    MW4 7398   1.049   5.670   1.938 -0.0391  0.1527  0.0767
 1907SOL     OW 7399   5.999   0.700   5.610 -0.6407  0.1136  0.1878
 1907SOL    HW2 7400   6.045   0.617   5.617 -0.5989  0.1711  0.6273
 1907SOL    HW3 7401   5.908   0.679   5.629 -0.7979  0.0025 -0.6687
 1907SOL    MW4 7402   5.993   0.687   5.613 -0.0499  0.3769  0.4570
 1908SOL     OW 7403   4.281   0.830   5.129 -0.1435  0.1635  0.1554
 1908SOL    HW2 7404   4.312   0.901   5.185 -1.2130 -1.5189  3.0983
 1908SOL    HW3 7405   4.361   0.793   5.091  0.9897 -0.2645  2.7223
 1908SOL    MW4 7406   4.296   0.835   5.131  0.5526 -0.3352 -0.6270
 1909SOL     OW 7407   1.636   1.588   1.466  0.0043  0.7366  0.2569
 1909SOL    HW2 7408   1.555   1.595   1.414 -0.1532  0.8313  0.5131
 1909SOL    HW3 7409   1.624   1.650   1.537  1.5386  2.9972 -1.3144
 1909SOL    MW4 7410   1.624   1.597   1.468  0.5071 -1.0022  0.6305
 1910SOL     OW 7411   1.789   1.060   4.200 -0.4337 -0.0068  0.3759
 1910SOL    HW2 7412   1.840   0.981   4.218  0.7838  0.7262  0.2542
 1910SOL    HW3 7413   1.725   1.064   4.271  1.0447  0.1609  1.7670
 1910SOL    MW4 7414   1.787   1.050   4.212 -0.1166 -0.0173 -0.2605
 1911SOL     OW 7415   2.285   3.793   5.651 -0.7000  0.1270  0.7818
 1911SOL    HW2 7416   2.275   3.702   5.624 -2.1188  0.0979  1.3616
 1911SOL    HW3 7417   2.379   3.803   5.668 -0.5908 -1.3160  1.0821
 1911SOL    MW4 7418   2.296   3.783   5.649  0.0584 -0.1490 -0.5448
 1912SOL     OW 7419   4.938   3.744   0.533  0.0171 -0.6805 -0.6416
 1912SOL    HW2 7420   4.993   3.723   0.457  0.6013 -0.3308 -0.3212
 1912SOL    HW3 7421   4.959   3.835   0.553 -0.9250 -0.4415 -0.7123
 1912SOL    MW4 7422   4.948   3.753   0.526 -0.6853  0.5980  0.4706
 1913SOL     OW 7423   5.743   6.165   0.485  0.0339  0.4071  0.8906
 1913SOL    HW2 7424   5.649   6.180   0.500  0.0050 -0.6660  1.8902
 1913SOL    HW3 7425   5.785   6.186   0.568  0.5383 -0.2038  0.8027
 1913SOL    MW4 7426   5.736   6.169   0.498  0.0499 -0.3997  0.6229
 1914SOL     OW 7427   2.706   4.077   1.354 -0.6738  0.4882 -0.3001
 1914SOL    HW2 7428   2.668   3.993   1.330 -1.6798  0.6611  0.6563
 1914SOL    HW3 7429   2.684   4.135   1.282 -1.3603  0.3302 -0.2196
 1914SOL    MW4 7430   2.698   4.074   1.341  0.2653  0.3403  0.5041
 1915SOL     OW 7431   1.771   0.287   1.731 -0.0587  0.3786 -0.0876
 1915SOL    HW2 7432   1.774   0.381   1.751  2.6963  0.0527  1.3895
 1915SOL    HW3 7433   1.793   0.282   1.638  0.3995  1.1576 -0.0273
 1915SOL    MW4 7434   1.774   0.299   1.721 -0.0052 -0.0012 -0.7017
 1916SOL     OW 7435   3.524   0.926   2.740 -1.4102 -0.3471  0.4600
 1916SOL    HW2 7436   3.557   0.847   2.784  0.2845 -0.3239 -0.6618
 1916SOL    HW3 7437   3.572   0.929   2.658  0.4779  3.1942  1.4919
 1916SOL    MW4 7438   3.535   0.916   2.735 -0.9173  0.3522 -0.5480
 1917SOL     OW 7439   3.064   0.221   2.156 -0.0441 -1.0581 -0.0954
 1917SOL    HW2 7440   3.074   0.307   2.196 -0.7784 -0.8175 -0.3919
 1917SOL    HW3 7441   3.041   0.241   2.065  1.5233 -1.5872 -0.6256
 1917SOL    MW4 7442   3.062   0.235   2.149 -0.2397 -0.1408 -0.3851
 1918SOL     OW 7443   3.717   4.305   2.325  0.0393  0.3316 -0.1971
 1918SOL    HW2 7444   3.667   4.238   2.372  1.5367  0.8108  2.2653
 1918SOL    HW3 7445   3.795   4.258   2.293  0.4669  0.6078  0.4211
 1918SOL    MW4 7446   3.721   4.290   2.327  0.4629 -0.1556 -0.7089
 1919SOL     OW 7447   3.449   0.260   1.745 -0.4225  0.2472 -0.6243
 1919SOL    HW2 7448   3.476   0.182   1.697 -0.2567  0.3943 -0.7687
 1919SOL    HW3 7449   3.484   0.247   1.833 -1.5300 -0.4671 -0.2677
 1919SOL    MW4 7450   3.457   0.248   1.750 -0.2726 -0.4719 -0.1376
 1920SOL     OW 7451   4.815   5.432   5.207 -0.1370 -0.1393 -0.2322
 1920SOL    HW2 7452   4.857   5.511   5.172 -0.7352 -0.2200 -1.1565
 1920SOL    HW3 7453   4.739   5.464   5.256  1.3953  0.0728  2.1666
 1920SOL    MW4 7454   4.811   5.446   5.209 -0.3570 -1.0897  0.0600
 1921SOL     OW 7455   5.758   4.573   5.182  0.0323 -0.0236 -0.3987
 1921SOL    HW2 7456   5.839   4.524   5.168  0.2725 -0.1373  1.1324
 1921SOL    HW3 7457   5.697   4.508   5.218  0.2678  0.6911  1.4067
 1921SOL    MW4 7458   5.760   4.558   5.185  0.0092  0.6665  0.3222
 1922SOL     OW 7459   3.558   0.981   3.661 -0.4002  0.0145  0.3823
 1922SOL    HW2 7460   3.559   0.889   3.686 -0.1565  0.1888  1.0120
 1922SOL    HW3 7461   3.569   1.029   3.743 -0.3703  0.6023  0.0398
 1922SOL    MW4 7462   3.559   0.975   3.675 -0.1606  0.2727  0.1079
 1923SOL     OW 7463   0.712   3.449   1.897  0.2490  0.3984  0.1885
 1923SOL    HW2 7464   0.623   3.460   1.863  0.9636 -0.6370 -2.2956
 1923SOL    HW3 7465   0.705   3.381   1.964 -0.7085 -0.3837 -0.6812
 1923SOL    MW4 7466   0.700   3.441   1.901 -0.4829  0.1741 -0.4288
 1924SOL     OW 7467   4.076   6.389   4.835  0.3738  0.0158 -0.2615
 1924SOL    HW2 7468   4.152   6.338   4.862  1.3802  0.5226 -2.0469
 1924SOL    HW3 7469   4.027   6.402   4.917  2.6288  0.4483  1.1161
 1924SOL    MW4 7470   4.079   6.384   4.850 -0.2867 -0.2148 -0.0868
 1925SOL     OW 7471   3.898   0.299   5.409  0.2317 -0.1731  0.1214
 1925SOL    HW2 7472   3.962   0.255   5.353 -1.0727 -1.5159 -0.3923
 1925SOL    HW3 7473   3.849   0.356   5.349 -1.1669 -1.6126 -0.1650
 1925SOL    MW4 7474   3.900   0.301   5.394 -0.0322 -0.1852 -0.2199
 1926SOL     OW 7475   2.421   5.789   0.873  0.0772  0.0817  0.1561
 1926SOL    HW2 7476   2.367   5.855   0.917 -0.9492 -1.6001  1.5364
 1926SOL    HW3 7477   2.458   5.737   0.944  1.8821 -0.1012 -0.8506
 1926SOL    MW4 7478   2.419   5.791   0.888  0.0181  0.0086 -0.0734
 1927SOL     OW 7479   4.738   3.320   3.291  0.4941 -0.3719  0.2354
 1927SOL    HW2 7480   4.755   3.243   3.236 -1.6890 -0.2731 -0.6993
 1927SOL    HW3 7481   4.823   3.343   3.327  1.8046 -1.2640 -2.0579
 1927SOL    MW4 7482   4.751   3.313   3.288  0.5259 -0.3007 -0.2980
 1928SOL     OW 7483   6.251   5.081   3.420  0.3560  0.4023 -0.0022
 1928SOL    HW2 7484   6.270   5.174   3.409  0.2978  0.3571 -0.4915
 1928SOL    HW3 7485   6.157   5.078   3.436  0.5095  0.5059  1.0081
 1928SOL    MW4 7486   6.241   5.093   3.421  0.1096 -0.3462  0.2409
 1929SOL     OW 7487   0.833   3.428   3.273  0.4453 -0.0944 -0.4075
 1929SOL    HW2 7488   0.879   3.370   3.212  0.6534  1.0893 -1.3989
 1929SOL    HW3 7489   0.819   3.509   3.225  1.5470  1.2841  1.4356
 1929SOL    MW4 7490   0.837   3.431   3.259 -0.2417 -0.2778 -0.2000
 1930SOL     OW 7491   0.982   1.371   5.338  0.4327 -0.3077  0.3006
 1930SOL    HW2 7492   0.937   1.342   5.417  0.4228 -1.5590 -0.1349
 1930SOL    HW3 7493   0.915   1.416   5.287  0.1480 -0.5189  0.4879
 1930SOL    MW4 7494   0.967   1.373   5.342  0.1142  0.1881 -0.1229
 1931SOL     OW 7495   6.384   2.097   2.429 -0.4803 -0.2373  0.1307
 1931SOL    HW2 7496   6.327   2.055   2.493  0.1118 -0.2487  0.6637
 1931SOL    HW3 7497   6.351   2.068   2.344 -0.7026 -0.9659  0.4608
 1931SOL    MW4 7498   6.372   2.088   2.427 -0.0904  0.2948 -0.2250
 1932SOL     OW 7499   3.660   3.447   5.534 -0.3841  0.1030  0.4684
 1932SOL    HW2 7500   3.567   3.439   5.554 -0.2598 -2.3256  0.3081
 1932SOL    HW3 7501   3.698   3.365   5.563  2.0482  1.6507  2.0107
 1932SOL    MW4 7502   3.653   3.435   5.540  0.3819 -0.1139 -0.5796
 1933SOL     OW 7503   4.796   2.645   1.570  0.0612 -0.1536 -0.2696
 1933SOL    HW2 7504   4.817   2.596   1.491 -1.5972  0.3896 -1.0986
 1933SOL    HW3 7505   4.742   2.585   1.622  2.1633 -0.9712  1.1010
 1933SOL    MW4 7506   4.792   2.630   1.566  0.2699 -1.1677 -0.1333
 1934SOL     OW 7507   5.362   2.697   2.073  0.1485  0.1817 -0.0594
 1934SOL    HW2 7508   5.452   2.669   2.090 -0.6970 -1.8753  1.3611
 1934SOL    HW3 7509   5.312   2.616   2.070 -1.4462  1.1246 -2.6496
 1934SOL    MW4 7510   5.368   2.682   2.075 -0.0958  0.4146  0.2214
 1935SOL     OW 7511   6.184   2.501   4.464  0.6963  0.5268  0.5309
 1935SOL    HW2 7512   6.151   2.425   4.416  0.3673  0.2156  1.2495
 1935SOL    HW3 7513   6.107   2.539   4.506  0.8636  1.2425  0.2178
 1935SOL    MW4 7514   6.170   2.496   4.463  0.5835 -0.3324  0.1977
 1936SOL     OW 7515   3.584   2.545   5.515  0.0874 -0.5590  0.4137
 1936SOL    HW2 7516   3.650   2.603   5.479 -0.7959  0.0805 -0.2234
 1936SOL    HW3 7517   3.626   2.459   5.519  0.8560 -0.2169 -0.2215
 1936SOL    MW4 7518   3.598   2.541   5.511 -0.4362  0.0494 -0.5687
 1937SOL     OW 7519   0.562   5.350   4.069  0.5146  0.2318 -0.8136
 1937SOL    HW2 7520   0.479   5.301   4.069  0.6674 -0.0378 -0.2012
 1937SOL    HW3 7521   0.619   5.301   4.011  1.1894 -1.2507  1.0214
 1937SOL    MW4 7522   0.558   5.337   4.061 -0.6331 -0.2124  0.6713
 1938SOL     OW 7523   4.512   0.555   2.880 -0.6351  0.2538  0.1523
 1938SOL    HW2 7524   4.507   0.623   2.947 -0.7376  0.4780 -0.0857
 1938SOL    HW3 7525   4.550   0.598   2.804  1.4198 -0.4811  0.6826
 1938SOL    MW4 7526   4.516   0.569   2.879  0.1750  1.1021 -0.4202
 1939SOL     OW 7527   6.142   6.433   0.662 -1.1297 -0.1718 -0.1660
 1939SOL    HW2 7528   6.142   6.368   0.593 -1.7688  0.2752 -0.6044
 1939SOL    HW3 7529   6.197   6.396   0.731 -0.6951 -0.7316 -0.8066
 1939SOL    MW4 7530   6.149   6.420   0.662 -0.1067  0.7220  0.1700
 1940SOL     OW 7531   3.785   2.458   2.451  0.1920  0.2745  0.3540
 1940SOL    HW2 7532   3.854   2.512   2.413  0.0968  1.3689  1.6460
 1940SOL    HW3 7533   3.718   2.521   2.477  0.1980 -0.4095  2.1734
 1940SOL    MW4 7534   3.785   2.474   2.449 -0.5456 -1.0131 -0.3345
 1941SOL     OW 7535   4.601   3.692   0.439 -0.0081  0.0494 -0.0305
 1941SOL    HW2 7536   4.672   3.755   0.447 -1.4615  1.6780  0.7002
 1941SOL    HW3 7537   4.625   3.638   0.363  1.2450  1.5614 -0.7660
 1941SOL    MW4 7538   4.614   3.693   0.430  0.0182 -0.4822  0.4586
 1942SOL     OW 7539   6.258   4.674   0.683  0.1086  0.0072  0.5483
 1942SOL    HW2 7540   6.178   4.702   0.728 -0.4013  2.5290 -1.6595
 1942SOL    HW3 7541   6.324   4.738   0.711  0.7490 -0.6094  0.4809
 1942SOL    MW4 7542   6.256   4.686   0.693 -0.0780 -0.2918 -0.3900
 1943SOL     OW 7543   4.079   5.481   6.165  0.5242  0.1597 -0.4505
 1943SOL    HW2 7544   4.013   5.476   6.234  1.1127 -0.7483  0.0729
 1943SOL    HW3 7545   4.162   5.491   6.212  1.1377 -2.2513 -0.8713
 1943SOL    MW4 7546   4.081   5.481   6.180 -0.3474 -0.2176 -0.0583
 1944SOL     OW 7547   5.825   2.716   5.819  0.4628 -0.3764 -0.2694
 1944SOL    HW2 7548   5.780   2.769   5.884  0.2629 -0.8610 -0.0024
 1944SOL    HW3 7549   5.795   2.750   5.735 -0.1015 -0.4312 -0.0982
 1944SOL    MW4 7550   5.815   2.727   5.817  0.3188 -0.0346  0.0064
 1945SOL     OW 7551   2.013   3.412   5.007 -0.0821  0.2703 -0.3644
 1945SOL    HW2 7552   1.994   3.322   4.980  2.4658 -0.2004 -0.8789
 1945SOL    HW3 7553   1.984   3.466   4.934 -1.4122 -0.1171 -0.1555
 1945SOL    MW4 7554   2.007   3.407   4.994 -0.3930  0.0897 -0.8063
 1946SOL     OW 7555   5.302   4.854   0.136 -0.5353  0.4544 -0.0792
 1946SOL    HW2 7556   5.343   4.818   0.058  0.4291  0.1953  0.5267
 1946SOL    HW3 7557   5.314   4.949   0.128  0.5119  0.3606  0.2538
 1946SOL    MW4 7558   5.309   4.862   0.125 -0.2847  0.2057 -0.0002
 1947SOL     OW 7559   3.215   3.962   0.901  0.5346 -0.3438 -0.2715
 1947SOL    HW2 7560   3.185   3.914   0.978  1.7004  0.5719  0.7861
 1947SOL    HW3 7561   3.198   4.054   0.921  0.2054 -0.1446 -1.4073
 1947SOL    MW4 7562   3.209   3.968   0.914 -0.3743  0.0992 -0.9113
 1948SOL     OW 7563   2.130   5.150   3.999  0.3613 -0.0814  0.3698
 1948SOL    HW2 7564   2.183   5.230   4.002  0.6238 -0.1104 -1.8082
 1948SOL    HW3 7565   2.169   5.093   4.065  1.6379  0.7352  0.3594
 1948SOL    MW4 7566   2.142   5.153   4.008 -0.0280  0.0408 -0.3871
 1949SOL     OW 7567   2.229   1.736   2.758  0.4920 -0.1979 -0.2558
 1949SOL    HW2 7568   2.165   1.754   2.688  0.3690  0.9564  0.1321
 1949SOL    HW3 7569   2.175   1.705   2.831  0.4709 -0.1167 -0.2363
 1949SOL    MW4 7570   2.213   1.734   2.758  0.5905  0.3802 -0.2463
 1950SOL     OW 7571   5.611   1.084   1.852 -0.0475  0.2848 -0.4184
 1950SOL    HW2 7572   5.642   1.006   1.806 -0.1969 -0.4273  0.6487
 1950SOL    HW3 7573   5.537   1.115   1.800 -0.6860 -0.9326 -0.2768
 1950SOL    MW4 7574   5.605   1.078   1.839 -0.2013  0.8767 -0.6454
 1951SOL     OW 7575   2.195   3.205   2.220  0.1232  0.2963 -0.6422
 1951SOL    HW2 7576   2.224   3.194   2.129 -1.6774  0.6828 -1.2948
 1951SOL    HW3 7577   2.134   3.132   2.234 -0.8796  1.1804 -0.3030
 1951SOL    MW4 7578   2.191   3.194   2.210 -0.1440  0.6325  0.2244
 1952SOL     OW 7579   4.059   1.161   3.156  0.3884  0.0655 -0.2044
 1952SOL    HW2 7580   4.154   1.175   3.164  0.4108 -0.5946  0.9782
 1952SOL    HW3 7581   4.048   1.122   3.070  0.9330  2.0504 -1.2490
 1952SOL    MW4 7582   4.070   1.158   3.146  0.1956  0.1170 -0.4089
 1953SOL     OW 7583   4.503   1.527   3.184 -0.0958  0.7106  0.4118
 1953SOL    HW2 7584   4.445   1.590   3.226  1.9865  2.6478  0.5365
 1953SOL    HW3 7585   4.574   1.514   3.247  0.2868 -0.6219 -0.2592
 1953SOL    MW4 7586   4.504   1.533   3.198 -0.2845  0.4598  0.3718
 1954SOL     OW 7587   5.739   1.991   4.419  0.1214 -0.0529 -0.4413
 1954SOL    HW2 7588   5.781   2.041   4.489  0.0529 -1.7067  0.8464
 1954SOL    HW3 7589   5.679   2.053   4.379  1.0316  1.2877  0.1677
 1954SOL    MW4 7590   5.737   2.006   4.423  0.5217 -0.2059  0.6355
 1955SOL     OW 7591   5.133   0.816   4.932  0.3973  0.0872  0.2349
 1955SOL    HW2 7592   5.098   0.844   5.017  3.3343  1.3320  1.1550
 1955SOL    HW3 7593   5.157   0.724   4.945  1.3958  0.4413  0.9685
 1955SOL    MW4 7594   5.131   0.808   4.945  0.5347  0.3701 -0.1586
 1956SOL     OW 7595   1.547   1.303   4.233 -0.0585 -0.0481  0.0871
 1956SOL    HW2 7596   1.523   1.386   4.275  1.4592  0.0181  0.8717
 1956SOL    HW3 7597   1.540   1.238   4.303  0.8474 -0.2138  0.0371
 1956SOL    MW4 7598   1.543   1.305   4.248  0.2877 -0.6105 -0.1684
 1957SOL     OW 7599   6.008   2.504   5.681  0.1350  0.1719  0.9355
 1957SOL    HW2 7600   6.068   2.451   5.734  0.9715 -0.5586 -0.6702
 1957SOL    HW3 7601   5.992   2.582   5.733  1.0856 -0.4192  2.1615
 1957SOL    MW4 7602   6.014   2.507   5.695  0.2354 -0.8627 -0.1094
 1958SOL     OW 7603   4.594   2.433   3.118 -0.1663 -0.3757 -0.0646
 1958SOL    HW2 7604   4.579   2.340   3.100  0.3637 -0.2359 -1.3134
 1958SOL    HW3 7605   4.628   2.434   3.208 -1.6138 -1.2275  0.5242
 1958SOL    MW4 7606   4.597   2.420   3.128 -0.7575 -0.0852  0.2074
 1959SOL     OW 7607   3.055   4.967   3.628  0.4939 -0.1716  0.3658
 1959SOL    HW2 7608   3.057   4.895   3.691 -2.3658 -0.7958 -0.1263
 1959SOL    HW3 7609   3.033   4.925   3.544  2.3645  0.8751 -0.7045
 1959SOL    MW4 7610   3.052   4.952   3.625  0.0913 -0.7105 -0.1858
 1960SOL     OW 7611   4.843   1.649   1.886  0.1134  0.6918 -0.2780
 1960SOL    HW2 7612   4.770   1.599   1.923 -1.6893  2.8668 -0.6516
 1960SOL    HW3 7613   4.912   1.584   1.871 -0.3641 -0.9181  3.3797
 1960SOL    MW4 7614   4.843   1.634   1.889 -0.0816  0.4307  0.3581
 1961SOL     OW 7615   6.037   5.841   0.211 -0.2419 -0.1202  0.1426
 1961SOL    HW2 7616   6.077   5.772   0.264  0.2301 -0.3010 -0.4377
 1961SOL    HW3 7617   5.956   5.861   0.256 -0.2701 -0.8877  0.4605
 1961SOL    MW4 7618   6.032   5.834   0.224 -0.4230  0.0517 -0.2085
 1962SOL     OW 7619   0.155   4.875   3.009  0.4300  0.0509  0.1676
 1962SOL    HW2 7620   0.199   4.875   3.094  1.1509 -0.5799 -0.1913
 1962SOL    HW3 7621   0.086   4.809   3.018  1.0067 -0.5924  0.0347
 1962SOL    MW4 7622   0.152   4.866   3.022 -0.2640 -0.4357 -0.0672
 1963SOL     OW 7623   3.931   1.768   1.522 -0.1596 -0.0978 -0.4683
 1963SOL    HW2 7624   3.904   1.802   1.437 -0.5701  1.1201  0.1159
 1963SOL    HW3 7625   3.956   1.846   1.572 -1.8190 -0.5506  1.1787
 1963SOL    MW4 7626   3.931   1.783   1.518  0.0768  0.0421 -0.1957
 1964SOL     OW 7627   2.121   1.772   2.505  0.0321 -0.0989  0.5443
 1964SOL    HW2 7628   2.189   1.832   2.476  0.3379 -0.3376  0.7666
 1964SOL    HW3 7629   2.066   1.760   2.427  0.3139 -0.0006  0.3266
 1964SOL    MW4 7630   2.123   1.778   2.491 -0.9994  0.1700  0.0875
 1965SOL     OW 7631   5.500   5.570   4.427  0.1976  0.7250 -0.0438
 1965SOL    HW2 7632   5.515   5.555   4.521  0.1045 -0.0544 -0.1424
 1965SOL    HW3 7633   5.457   5.489   4.397 -2.5861  2.1061 -0.1339
 1965SOL    MW4 7634   5.496   5.557   4.436  1.0593  0.3503 -0.0767
 1966SOL     OW 7635   1.743   5.085   2.177 -0.5058  0.0261 -0.1306
 1966SOL    HW2 7636   1.825   5.127   2.203 -0.2568 -0.1652 -0.5913
 1966SOL    HW3 7637   1.740   5.096   2.082 -1.8717  1.5805  0.0345
 1966SOL    MW4 7638   1.753   5.092   2.168  0.4674  0.4106  0.0315
 1967SOL     OW 7639   4.768   5.779   2.471  0.3252 -0.0390 -0.2129
 1967SOL    HW2 7640   4.780   5.736   2.387  0.5196  0.5171 -0.4778
 1967SOL    HW3 7641   4.673   5.783   2.482  0.2869  0.3149 -0.6369
 1967SOL    MW4 7642   4.757   5.774   2.461 -0.6069  0.0083 -0.0780
 1968SOL     OW 7643   3.732   2.063   0.251  0.1152 -0.1706 -0.0462
 1968SOL    HW2 7644   3.754   2.059   0.158 -0.5413  3.4118 -0.5256
 1968SOL    HW3 7645   3.645   2.024   0.257 -0.0589  0.0414 -1.0566
 1968SOL    MW4 7646   3.724   2.057   0.239 -0.4255 -0.2715 -0.1490
 1969SOL     OW 7647   0.793   0.682   4.836  0.1083  0.4014 -0.1216
 1969SOL    HW2 7648   0.839   0.709   4.757 -1.0016  2.1535 -0.2040
 1969SOL    HW3 7649   0.863   0.653   4.895  1.1717  1.3548 -0.8664
 1969SOL    MW4 7650   0.809   0.682   4.834  0.4411  0.6087  0.2248
 1970SOL     OW 7651   4.478   4.388   6.134 -0.6592 -0.1834 -0.0167
 1970SOL    HW2 7652   4.397   4.408   6.087  0.0426  0.0369 -1.1969
 1970SOL    HW3 7653   4.507   4.472   6.169 -0.2952 -0.0160 -0.6945
 1970SOL    MW4 7654   4.471   4.402   6.132 -0.0478  0.5069 -0.2858
 1971SOL     OW 7655   4.042   3.647   4.309  0.9236  0.2576  0.5531
 1971SOL    HW2 7656   3.999   3.707   4.370 -0.3444  1.4157 -1.3675
 1971SOL    HW3 7657   3.971   3.611   4.256  1.8263 -1.8262  0.6517
 1971SOL    MW4 7658   4.027   3.650   4.310 -0.6998 -0.1491 -0.0188
 1972SOL     OW 7659   5.028   1.786   4.732 -0.0075  0.2311  0.0476
 1972SOL    HW2 7660   4.948   1.776   4.680 -0.5038  0.3586  0.7809
 1972SOL    HW3 7661   5.040   1.880   4.741  1.2597  0.2831 -1.6121
 1972SOL    MW4 7662   5.019   1.797   4.726 -0.6997  0.2089  0.4613
 1973SOL     OW 7663   0.341   2.493   2.613  0.4155 -0.2603  0.2357
 1973SOL    HW2 7664   0.291   2.454   2.541 -0.2807 -1.1182  1.1521
 1973SOL    HW3 7665   0.352   2.585   2.587 -1.8415  0.0232  0.0717
 1973SOL    MW4 7666   0.336   2.500   2.600  0.4581 -0.3401  0.6168
 1974SOL     OW 7667   3.904   5.601   3.622  0.0008 -0.2033  0.2975
 1974SOL    HW2 7668   3.809   5.591   3.626 -0.3467  2.4314  0.0373
 1974SOL    HW3 7669   3.931   5.609   3.714 -0.4174  1.7657  0.2788
 1974SOL    MW4 7670   3.895   5.600   3.635 -0.6663 -0.0517  0.2747
 1975SOL     OW 7671   1.014   1.239   1.695 -0.5727 -0.1542  0.1806
 1975SOL    HW2 7672   1.010   1.207   1.605 -1.8513  1.0718 -0.2405
 1975SOL    HW3 7673   1.107   1.253   1.711 -0.3426 -0.1110 -1.0730
 1975SOL    MW4 7674   1.026   1.237   1.685  0.3650  0.1476  0.2753
 1976SOL     OW 7675   1.811   4.566   0.586 -0.3151  0.2744 -0.3892
 1976SOL    HW2 7676   1.803   4.494   0.523 -1.1143  0.8803 -1.0019
 1976SOL    HW3 7677   1.815   4.522   0.671  0.7317 -0.5570 -0.8427
 1976SOL    MW4 7678   1.810   4.550   0.589 -0.1625 -0.8041 -0.0328
 1977SOL     OW 7679   1.657   2.151   2.149 -0.2038  0.1210 -0.0219
 1977SOL    HW2 7680   1.641   2.166   2.056  1.0341 -0.2901 -0.3228
 1977SOL    HW3 7681   1.639   2.058   2.161  1.3772 -0.2332 -0.2597
 1977SOL    MW4 7682   1.652   2.141   2.138  0.4432 -0.1399  0.6995
 1978SOL     OW 7683   6.312   3.986   4.588  0.6936 -0.4935 -0.8279
 1978SOL    HW2 7684   6.255   3.915   4.619  0.0785  0.1422 -0.4790
 1978SOL    HW3 7685   6.329   3.965   4.496 -1.8891  0.3962 -1.5945
 1978SOL    MW4 7686   6.307   3.974   4.580 -0.0268 -0.0238  0.1671
 1979SOL     OW 7687   0.468   1.326   0.076 -0.3451 -0.1903 -0.4291
 1979SOL    HW2 7688   0.395   1.385   0.097  1.0044  1.2856  0.3353
 1979SOL    HW3 7689   0.459   1.308  -0.018 -1.0474  0.8742 -0.5783
 1979SOL    MW4 7690   0.457   1.331   0.066  0.3440  0.3180 -0.3804
 1980SOL     OW 7691   1.950   0.548   4.380 -0.5954  0.0790  0.3170
 1980SOL    HW2 7692   1.856   0.530   4.380 -0.6947  0.4713  1.4340
 1980SOL    HW3 7693   1.972   0.556   4.473  0.5211  0.1286  0.0634
 1980SOL    MW4 7694   1.941   0.546   4.393  0.1670 -0.0505  0.4943
 1981SOL     OW 7695   1.246   3.326   3.090 -0.4480  0.0069  0.1436
 1981SOL    HW2 7696   1.262   3.310   3.183  1.4914 -0.0400 -0.1473
 1981SOL    HW3 7697   1.289   3.410   3.072 -1.1852  0.2335 -0.6131
 1981SOL    MW4 7698   1.254   3.335   3.100 -0.0997 -0.2552 -0.4524
 1982SOL     OW 7699   5.823   1.371   0.008 -0.7877 -0.1015 -0.3059
 1982SOL    HW2 7700   5.895   1.426  -0.023 -0.5145 -1.4533 -2.2232
 1982SOL    HW3 7701   5.818   1.389   0.102  1.1336  1.0570 -0.3739
 1982SOL    MW4 7702   5.832   1.381   0.017 -0.1919  0.4805 -0.5253
 1983SOL     OW 7703   1.614   4.738   0.677  0.4817  0.4916 -0.2175
 1983SOL    HW2 7704   1.588   4.799   0.608  2.4157  3.5787  1.5490
 1983SOL    HW3 7705   1.675   4.678   0.634 -0.4187  0.5928 -1.7170
 1983SOL    MW4 7706   1.618   4.738   0.662  0.3656 -0.9968  0.2397
 1984SOL     OW 7707   3.910   0.453   0.638 -0.7114 -0.2664 -0.6115
 1984SOL    HW2 7708   3.974   0.515   0.603  0.4244  0.4519  2.4445
 1984SOL    HW3 7709   3.942   0.367   0.610 -0.2404  0.2870 -1.8180
 1984SOL    MW4 7710   3.923   0.449   0.630  0.4901  0.8611 -0.4084
 1985SOL     OW 7711   1.755   0.077   1.061  0.2675 -0.3395  0.0782
 1985SOL    HW2 7712   1.748   0.166   1.024 -0.3836 -0.4379 -0.0403
 1985SOL    HW3 7713   1.820   0.034   1.006  1.3861  0.3912  0.7900
 1985SOL    MW4 7714   1.763   0.083   1.049 -0.0658  0.2307 -0.3927
 1986SOL     OW 7715   1.840   4.204   3.143  0.0679  0.6084  0.6144
 1986SOL    HW2 7716   1.898   4.239   3.210 -0.6984 -0.4341  1.8691
 1986SOL    HW3 7717   1.752   4.208   3.181 -0.3046 -0.6251 -0.0517
 1986SOL    MW4 7718   1.836   4.209   3.157  0.0094  0.6692  0.5920
 1987SOL     OW 7719   4.975   1.532   2.280 -0.6286 -0.8358  0.3022
 1987SOL    HW2 7720   4.924   1.548   2.359 -0.6895  1.1284 -0.0963
 1987SOL    HW3 7721   5.013   1.445   2.293  0.5218  0.0121  3.1083
 1987SOL    MW4 7722   4.973   1.523   2.292  0.4478 -0.2912  0.5217
 1988SOL     OW 7723   4.407   0.917   1.968 -0.3394  0.3966 -0.0199
 1988SOL    HW2 7724   4.391   1.005   1.934 -1.7901  0.3377  0.4725
 1988SOL    HW3 7725   4.407   0.860   1.891 -0.5269  0.6654 -0.2175
 1988SOL    MW4 7726   4.405   0.921   1.953 -0.2240  0.4986  0.4830
 1989SOL     OW 7727   0.917   2.093   1.433  0.1123  0.5302 -0.3148
 1989SOL    HW2 7728   0.892   2.179   1.400  2.0588  1.6925  1.0259
 1989SOL    HW3 7729   1.006   2.080   1.400  1.0713  0.5133  2.0923
 1989SOL    MW4 7730   0.926   2.103   1.424  0.0979  0.0441 -0.2628
 1990SOL     OW 7731   0.418   2.390   0.759 -0.2850  0.0352 -0.0568
 1990SOL    HW2 7732   0.415   2.421   0.669  2.3586  0.0547 -0.2287
 1990SOL    HW3 7733   0.388   2.464   0.812  0.9506  1.0783 -0.7709
 1990SOL    MW4 7734   0.414   2.404   0.754  0.3587  0.3074 -0.2556
 1991SOL     OW 7735   5.140   4.958   5.662 -0.2442 -0.1368  0.7330
 1991SOL    HW2 7736   5.081   5.034   5.664  0.8410  0.7440  0.0749
 1991SOL    HW3 7737   5.172   4.951   5.751  1.9114  2.0483  0.2349
 1991SOL    MW4 7738   5.136   4.967   5.674  0.0448  0.7722 -1.0052
 1992SOL     OW 7739   4.883   3.361   4.296 -0.2991  0.0741 -0.0129
 1992SOL    HW2 7740   4.870   3.347   4.202 -0.5919  1.4748 -0.1964
 1992SOL    HW3 7741   4.950   3.428   4.301 -1.2168  0.9645  0.7420
 1992SOL    MW4 7742   4.890   3.368   4.284 -0.0016 -0.2856 -0.2181
 1993SOL     OW 7743   2.525   3.587   2.809  0.2840  0.5430 -0.1474
 1993SOL    HW2 7744   2.476   3.511   2.843 -0.9074  1.2783 -0.1638
 1993SOL    HW3 7745   2.575   3.552   2.735 -0.0661 -0.2759 -0.0139
 1993SOL    MW4 7746   2.525   3.572   2.804  0.7477 -0.5968 -0.3451
 1994SOL     OW 7747   3.206   5.202   3.083 -0.4422 -0.7818 -0.1817
 1994SOL    HW2 7748   3.146   5.175   3.153 -0.4116  1.6650  0.8791
 1994SOL    HW3 7749   3.231   5.291   3.106  1.5116 -0.7745 -2.0505
 1994SOL    MW4 7750   3.201   5.210   3.095  0.0992  0.1245 -0.0899
 1995SOL     OW 7751   3.245   2.810   5.212 -0.4346 -0.1894  0.0168
 1995SOL    HW2 7752   3.154   2.834   5.228  0.2024  1.9027  0.8032
 1995SOL    HW3 7753   3.259   2.730   5.262 -2.0337 -1.0172 -0.7934
 1995SOL    MW4 7754   3.235   2.803   5.220  0.0331  0.3252  0.4385
 1996SOL     OW 7755   1.808   3.412   0.372  0.5397  0.5784  0.5336
 1996SOL    HW2 7756   1.902   3.416   0.355  0.9126 -2.0600  1.4368
 1996SOL    HW3 7757   1.773   3.358   0.301 -0.4723  2.1500 -0.2208
 1996SOL    MW4 7758   1.815   3.405   0.360  0.2086  0.1293 -0.6710
 1997SOL     OW 7759   4.986   4.317   2.915  0.5600 -0.1429  0.6642
 1997SOL    HW2 7760   4.917   4.250   2.916  0.5701 -0.1501  0.8778
 1997SOL    HW3 7761   4.964   4.375   2.988  0.1685  0.4728  0.0716
 1997SOL    MW4 7762   4.974   4.316   2.924  0.2775 -0.1911 -0.1368
 1998SOL     OW 7763   3.895   6.031   1.562 -0.2693 -0.1050 -0.0948
 1998SOL    HW2 7764   3.890   5.998   1.473  0.8728  1.3461 -0.7291
 1998SOL    HW3 7765   3.813   6.001   1.603 -0.3335 -1.6772 -1.2818
 1998SOL    MW4 7766   3.884   6.023   1.556  0.3373  0.6935  0.2708
 1999SOL     OW 7767   1.242   4.710   4.160  0.1384 -0.2748 -0.5158
 1999SOL    HW2 7768   1.224   4.777   4.226 -0.3755 -0.4464 -0.4752
 1999SOL    HW3 7769   1.155   4.676   4.136  0.4512 -1.6613  0.2240
 1999SOL    MW4 7770   1.228   4.714   4.165 -0.6283  0.4542  0.1410
 2000SOL     OW 7771   0.884   3.649   0.295 -0.2124  0.4801 -0.1995
 2000SOL    HW2 7772   0.970   3.608   0.291  0.2666  1.5262 -2.0090
 2000SOL    HW3 7773   0.826   3.588   0.249 -0.5948 -0.4676  1.4610
 2000SOL    MW4 7774   0.887   3.636   0.288  0.4401 -0.1404  0.2850
 2001SOL     OW 7775   0.521   6.131   2.624  0.4925 -0.2467 -0.7518
 2001SOL    HW2 7776   0.427   6.118   2.616  0.0146  1.9134  0.4620
 2001SOL    HW3 7777   0.543   6.193   2.555  0.0029  3.0312  1.7603
 2001SOL    MW4 7778   0.511   6.137   2.614  0.0016 -0.0899 -0.2734
 2002SOL     OW 7779   4.054   5.770   2.530 -0.8427  0.3023 -0.1697
 2002SOL    HW2 7780   4.092   5.802   2.612 -1.5560  0.7433 -0.0069
 2002SOL    HW3 7781   4.061   5.674   2.536  0.1762  0.3633 -0.1195
 2002SOL    MW4 7782   4.060   5.761   2.541  0.1944 -0.9552  0.2287
 2003SOL     OW 7783   0.136   2.666   4.761 -0.0458 -0.0652  0.1100
 2003SOL    HW2 7784   0.184   2.639   4.683  0.2530  0.9567 -0.0692
 2003SOL    HW3 7785   0.120   2.585   4.809 -0.7391 -0.7836 -1.2845
 2003SOL    MW4 7786   0.140   2.652   4.757  0.3755  0.1762 -0.5754
 2004SOL     OW 7787   5.553   3.659   4.840 -0.8698 -0.0979  0.2803
 2004SOL    HW2 7788   5.463   3.645   4.814 -0.6228 -0.6661 -0.2715
 2004SOL    HW3 7789   5.605   3.602   4.784 -0.0897  0.8362  0.0090
 2004SOL    MW4 7790   5.548   3.650   4.829  0.4227 -0.2218  0.1511
 2005SOL     OW 7791   4.314   6.112   6.226  0.2195  0.1066  0.4593
 2005SOL    HW2 7792   4.279   6.194   6.190 -1.8646 -0.4648  1.0501
 2005SOL    HW3 7793   4.337   6.134   6.316  0.3351  0.2290  0.3996
 2005SOL    MW4 7794   4.312   6.126   6.233 -0.4126 -0.8831  0.2858
 2006SOL     OW 7795   4.255   4.404   5.965  0.1596 -0.5716 -0.0497
 2006SOL    HW2 7796   4.219   4.489   5.941 -0.7035 -1.5642 -2.5215
 2006SOL    HW3 7797   4.182   4.359   6.008  0.2077 -0.5507  0.0549
 2006SOL    MW4 7798   4.241   4.409   5.968 -0.1478  0.1890 -0.8082
 2007SOL     OW 7799   0.558   2.255   1.286  0.7106  0.6624 -0.1641
 2007SOL    HW2 7800   0.559   2.159   1.285 -2.7445  0.4879 -1.9425
 2007SOL    HW3 7801   0.568   2.280   1.194  2.2757  2.1158  0.3518
 2007SOL    MW4 7802   0.560   2.245   1.274  0.7109  0.1659  0.2100
 2008SOL     OW 7803   4.207   5.511   2.175 -0.3140  0.2289  0.0651
 2008SOL    HW2 7804   4.221   5.547   2.087 -0.3184 -0.5214 -0.2551
 2008SOL    HW3 7805   4.167   5.425   2.159  0.5608 -0.3208  0.7779
 2008SOL    MW4 7806   4.203   5.505   2.161  1.2390 -0.7756  0.4171
 2009SOL     OW 7807   5.933   5.289   2.179  0.6382  0.0897  0.4959
 2009SOL    HW2 7808   5.923   5.268   2.272 -1.1578  0.4644  0.4185
 2009SOL    HW3 7809   5.885   5.371   2.168  0.0536 -0.4193 -0.9339
 2009SOL    MW4 7810   5.926   5.297   2.190  0.0122  0.6326 -0.1184
 2010SOL     OW 7811   4.270   3.051   2.130 -0.2458  0.3132 -0.2753
 2010SOL    HW2 7812   4.347   3.015   2.087 -1.4711 -1.7149 -0.9165
 2010SOL    HW3 7813   4.227   3.103   2.062 -0.1239  0.3682 -0.3101
 2010SOL    MW4 7814   4.274   3.053   2.115  0.1415  0.5870  0.1173
 2011SOL     OW 7815   1.839   0.681   1.993 -0.2053  0.6449  0.3856
 2011SOL    HW2 7816   1.877   0.767   2.007  0.2576  0.0187  4.2827
 2011SOL    HW3 7817   1.745   0.697   1.984 -0.0091  1.6022 -0.0534
 2011SOL    MW4 7818   1.831   0.694   1.994  0.6943  0.0885  0.1728
 2012SOL     OW 7819   5.718   3.634   3.579 -0.8000  0.4766 -0.0429
 2012SOL    HW2 7820   5.702   3.565   3.515  1.5654 -0.2624  0.0513
 2012SOL    HW3 7821   5.681   3.713   3.539 -0.7977 -0.2798 -1.6026
 2012SOL    MW4 7822   5.711   3.636   3.565  0.3770 -0.6817 -0.1288
 2013SOL     OW 7823   2.330   2.091   4.905 -1.1487  0.4086 -0.1274
 2013SOL    HW2 7824   2.304   2.180   4.928  0.9772  1.2744 -0.8430
 2013SOL    HW3 7825   2.370   2.099   4.819  3.4439 -0.2805  1.6760
 2013SOL    MW4 7826   2.332   2.103   4.896  0.1061 -0.4363  0.1253
 2014SOL     OW 7827   2.885   5.580   6.074  0.0415 -0.3980  0.0023
 2014SOL    HW2 7828   2.943   5.657   6.076  1.6824 -1.5992  2.1003
 2014SOL    HW3 7829   2.940   5.510   6.040 -0.1501 -1.5529  1.9676
 2014SOL    MW4 7830   2.900   5.581   6.070 -0.2529 -0.4832 -0.6228
 2015SOL     OW 7831   4.904   0.731   1.227 -0.0286 -0.0596 -0.0629
 2015SOL    HW2 7832   4.855   0.797   1.276 -2.2801 -1.8033  0.1771
 2015SOL    HW3 7833   4.868   0.734   1.139  0.8587 -0.0295 -0.4410
 2015SOL    MW4 7834   4.893   0.740   1.222  0.4379 -0.0887 -0.0124
 2016SOL     OW 7835   5.485   5.037   5.403 -0.0942 -0.3224  0.2150
 2016SOL    HW2 7836   5.546   5.022   5.475  1.6183  1.1084 -0.8367
 2016SOL    HW3 7837   5.537   5.082   5.337 -2.0107 -0.1370 -1.2623
 2016SOL    MW4 7838   5.500   5.041   5.404  0.0805  0.3375 -0.0929
 2017SOL     OW 7839   2.192   2.252   0.477  0.0440 -0.7386 -0.3225
 2017SOL    HW2 7840   2.150   2.214   0.400  1.6980 -1.3378 -0.9628
 2017SOL    HW3 7841   2.136   2.225   0.550 -1.7058  0.0838 -1.3119
 2017SOL    MW4 7842   2.179   2.243   0.476  0.1626 -0.4153 -0.0732
 2018SOL     OW 7843   0.031   0.913   5.632 -0.0790  0.2705  0.3556
 2018SOL    HW2 7844  -0.061   0.913   5.657 -0.3294  0.0141 -0.5260
 2018SOL    HW3 7845   0.075   0.961   5.702 -0.9006  0.5311  0.7061
 2018SOL    MW4 7846   0.025   0.919   5.645 -0.8933 -0.3156  0.1335
 2019SOL     OW 7847   2.542   1.870   4.864  0.0821 -0.5624 -1.1272
 2019SOL    HW2 7848   2.469   1.924   4.893 -1.0923 -1.2944 -2.5606
 2019SOL    HW3 7849   2.530   1.862   4.770  1.1736 -1.9164 -1.1907
 2019SOL    MW4 7850   2.531   1.876   4.856  0.0551 -0.1366 -0.0476
 2020SOL     OW 7851   6.405   4.933   4.840 -0.1735 -0.2689 -0.0161
 2020SOL    HW2 7852   6.427   4.840   4.842  0.6805 -0.0620  1.4729
 2020SOL    HW3 7853   6.346   4.946   4.914  0.2366  0.4911  0.1968
 2020SOL    MW4 7854   6.400   4.923   4.850  0.2074  0.2058 -0.2404
 2021SOL     OW 7855   4.676   5.980   2.849  0.7792  0.4312  0.6429
 2021SOL    HW2 7856   4.632   5.896   2.837  0.9598  0.4238 -0.0430
 2021SOL    HW3 7857   4.672   6.020   2.762  0.5266  1.2155  1.0127
 2021SOL    MW4 7858   4.669   5.974   2.836  0.2378 -0.1239 -0.0551
 2022SOL     OW 7859   2.411   0.787   4.649  0.3568 -0.1177 -0.0939
 2022SOL    HW2 7860   2.392   0.699   4.617 -0.3765 -0.3529  0.9450
 2022SOL    HW3 7861   2.481   0.776   4.713  1.0528  0.2106 -0.7806
 2022SOL    MW4 7862   2.417   0.774   4.653 -0.9322 -0.2221 -0.6980
 2023SOL     OW 7863   1.251   0.186   4.229  0.1902  0.7496  0.5893
 2023SOL    HW2 7864   1.180   0.193   4.293 -0.9659 -1.4201 -0.3228
 2023SOL    HW3 7865   1.222   0.117   4.169  2.6267  0.5032 -0.4395
 2023SOL    MW4 7866   1.238   0.178   4.229 -0.2160  0.9302 -0.4309
 2024SOL     OW 7867   4.258   5.599   0.209 -0.5109  0.0416 -0.0304
 2024SOL    HW2 7868   4.176   5.615   0.255 -1.5636 -0.0398 -1.8044
 2024SOL    HW3 7869   4.317   5.667   0.243 -1.4670  0.4634  0.8666
 2024SOL    MW4 7870   4.255   5.610   0.219  0.1059 -0.4505 -0.1773
 2025SOL     OW 7871   5.932   3.677   4.545  0.2882 -0.1129 -0.1954
 2025SOL    HW2 7872   6.009   3.720   4.583  0.8927 -0.2198 -1.2508
 2025SOL    HW3 7873   5.859   3.735   4.567  0.6763  0.0292  0.7648
 2025SOL    MW4 7874   5.933   3.691   4.553 -0.4274 -0.4938 -0.1167
 2026SOL     OW 7875   4.156   4.183   5.767 -0.2113 -0.2129 -0.3236
 2026SOL    HW2 7876   4.176   4.239   5.843 -0.5190  0.2172 -0.5532
 2026SOL    HW3 7877   4.067   4.209   5.741 -0.6820 -1.3947  0.0652
 2026SOL    MW4 7878   4.147   4.194   5.774 -0.0331 -0.3535  0.2055
 2027SOL     OW 7879   2.032   4.242   5.436 -0.7104 -0.2527  0.1856
 2027SOL    HW2 7880   2.094   4.188   5.485  0.4474 -0.2640 -1.1852
 2027SOL    HW3 7881   1.952   4.189   5.431 -0.3967 -0.8110  0.8968
 2027SOL    MW4 7882   2.030   4.228   5.442  0.3237 -0.4800 -0.0338
 2028SOL     OW 7883   3.475   1.626   3.484  0.5609 -0.0053  0.0719
 2028SOL    HW2 7884   3.409   1.574   3.439 -0.0409  0.1624  0.7456
 2028SOL    HW3 7885   3.524   1.561   3.536  1.4955 -0.2510 -1.0844
 2028SOL    MW4 7886   3.473   1.611   3.485 -0.2647 -0.3558  0.3121
 2029SOL     OW 7887   5.959   3.218   3.959  0.3179  0.2096 -0.0004
 2029SOL    HW2 7888   5.996   3.212   3.871  0.0859 -0.0604 -0.0796
 2029SOL    HW3 7889   6.011   3.157   4.011  0.3289  0.2244  0.0062
 2029SOL    MW4 7890   5.971   3.209   3.955  0.0307  0.2193  0.4448
 2030SOL     OW 7891   2.680   4.305   3.165  0.2878 -0.4583 -0.2184
 2030SOL    HW2 7892   2.671   4.218   3.126 -0.1451 -1.2219  1.4674
 2030SOL    HW3 7893   2.739   4.352   3.107 -0.1186 -1.6090 -1.6079
 2030SOL    MW4 7894   2.686   4.300   3.152  0.0536  0.3978  0.3655
 2031SOL     OW 7895   4.026   2.500   5.453 -0.6097 -0.2153 -0.2154
 2031SOL    HW2 7896   4.013   2.476   5.545 -0.3396 -1.4113 -0.4666
 2031SOL    HW3 7897   3.984   2.429   5.404 -2.1998  1.2286 -1.0403
 2031SOL    MW4 7898   4.019   2.487   5.459 -0.2604 -0.1816  0.1147
 2032SOL     OW 7899   6.225   4.003   0.836  0.0398 -0.7804  0.6499
 2032SOL    HW2 7900   6.175   4.077   0.802  2.7872  1.8042  1.7269
 2032SOL    HW3 7901   6.195   3.928   0.785 -3.4334  0.8611 -0.0217
 2032SOL    MW4 7902   6.215   4.003   0.825 -0.4654  0.4064  0.2289
 2033SOL     OW 7903   0.614   2.752   2.378  0.3057  0.3553 -0.1093
 2033SOL    HW2 7904   0.609   2.688   2.307 -1.8959  0.6933 -0.3336
 2033SOL    HW3 7905   0.523   2.766   2.404  0.9803  0.6800  2.4121
 2033SOL    MW4 7906   0.602   2.745   2.372  0.1461 -0.4838 -0.1805
 2034SOL     OW 7907   0.703   3.964   2.644 -0.3069  0.3235 -0.7531
 2034SOL    HW2 7908   0.641   3.946   2.714 -0.2894 -0.5141 -0.9433
 2034SOL    HW3 7909   0.652   3.954   2.564 -0.1177  0.4207 -0.8883
 2034SOL    MW4 7910   0.688   3.960   2.642  0.3494  0.1549  0.3239
 2035SOL     OW 7911   0.389   3.636   6.208  0.3363  1.0742  0.3368
 2035SOL    HW2 7912   0.374   3.542   6.205  3.1635  0.4689  1.5778
 2035SOL    HW3 7913   0.343   3.665   6.287  2.1643  0.0217  1.8796
 2035SOL    MW4 7914   0.381   3.627   6.218 -0.9503 -0.1111 -0.3376
 2036SOL     OW 7915   4.781   0.384   5.842  0.0303 -0.3223 -0.1509
 2036SOL    HW2 7916   4.750   0.297   5.819  1.7087 -1.1181  0.3692
 2036SOL    HW3 7917   4.859   0.396   5.788  0.4859  0.3500  0.6404
 2036SOL    MW4 7918   4.788   0.374   5.832  0.5145  0.0566 -0.1809
 2037SOL     OW 7919   2.834   4.612   0.603  0.6696 -0.4246  0.2216
 2037SOL    HW2 7920   2.841   4.533   0.657 -2.8706 -1.2426 -0.2781
 2037SOL    HW3 7921   2.773   4.589   0.534  0.1637  2.5196 -0.4439
 2037SOL    MW4 7922   2.827   4.598   0.601 -0.0826 -0.4429  0.2769
 2038SOL     OW 7923   2.530   2.557   2.294 -1.0047  0.9057  0.1633
 2038SOL    HW2 7924   2.503   2.465   2.297 -1.0768  0.9411  0.6226
 2038SOL    HW3 7925   2.509   2.591   2.381 -2.0171  1.6508 -0.3561
 2038SOL    MW4 7926   2.524   2.550   2.306  0.3917  0.6913 -0.3546
 2039SOL     OW 7927   4.683   6.173   1.618 -0.4309  0.3977 -0.1298
 2039SOL    HW2 7928   4.718   6.151   1.704  1.1253 -0.7806 -1.0255
 2039SOL    HW3 7929   4.684   6.269   1.615  0.7761  0.4234  0.6506
 2039SOL    MW4 7930   4.688   6.183   1.629 -0.2724 -0.2336  0.4176
 2040SOL     OW 7931   1.333   3.816   0.289  0.2172  0.3886  0.2491
 2040SOL    HW2 7932   1.357   3.884   0.352  2.8512 -1.6809  1.6553
 2040SOL    HW3 7933   1.413   3.799   0.240 -0.6513 -1.0484 -0.7479
 2040SOL    MW4 7934   1.347   3.823   0.290 -0.2033  0.0517  0.0466
 2041SOL     OW 7935   4.106   0.860   4.718 -0.1065  0.0251  0.2828
 2041SOL    HW2 7936   4.046   0.935   4.712  0.1471  0.1405 -1.1267
 2041SOL    HW3 7937   4.193   0.900   4.720 -0.0161 -0.1966  0.7384
 2041SOL    MW4 7938   4.109   0.875   4.717  0.5181 -0.0668  0.0465
 2042SOL     OW 7939   4.829   5.042   1.220  0.4023 -0.1153  0.3750
 2042SOL    HW2 7940   4.835   5.136   1.238  1.1744  0.1467 -1.1038
 2042SOL    HW3 7941   4.919   5.010   1.231  0.4642 -0.3573 -0.7283
 2042SOL    MW4 7942   4.842   5.050   1.224 -0.1943  0.3545  1.2962
 2043SOL     OW 7943   4.635   1.147   4.830 -0.5301  0.3664  0.3429
 2043SOL    HW2 7944   4.722   1.161   4.866 -1.0504  0.2899  1.6953
 2043SOL    HW3 7945   4.615   1.055   4.849 -1.4326  0.7362  1.3286
 2043SOL    MW4 7946   4.644   1.137   4.837 -0.5824  0.0575  0.1329
 2044SOL     OW 7947   3.402   6.392   2.472 -0.4173  0.5781 -0.3377
 2044SOL    HW2 7948   3.491   6.405   2.439  0.8713 -2.8349  1.3308
 2044SOL    HW3 7949   3.407   6.417   2.564 -1.4007  0.9874 -0.3797
 2044SOL    MW4 7950   3.414   6.397   2.480 -0.6749 -0.6233  0.2963
 2045SOL     OW 7951   5.412   5.406   3.638  0.3010  0.4994  0.3745
 2045SOL    HW2 7952   5.486   5.361   3.678 -0.2409 -0.8962 -0.1453
 2045SOL    HW3 7953   5.335   5.360   3.671 -0.3079  1.3357  0.1663
 2045SOL    MW4 7954   5.412   5.394   3.648 -0.2294 -0.1430  0.2362
 2046SOL     OW 7955   3.790   3.962   5.782  0.1639  0.3966  0.1927
 2046SOL    HW2 7956   3.740   3.880   5.782 -0.5723  0.8264 -0.2688
 2046SOL    HW3 7957   3.728   4.027   5.750  1.0093  0.9714 -0.3114
 2046SOL    MW4 7958   3.775   3.959   5.778  0.1084  0.1250 -0.0872
 2047SOL     OW 7959   1.329   3.359   1.145 -0.4509 -0.2826 -0.1733
 2047SOL    HW2 7960   1.330   3.327   1.054 -0.3888  0.2931 -0.3787
 2047SOL    HW3 7961   1.413   3.404   1.155  0.2113 -1.6056  0.6419
 2047SOL    MW4 7962   1.340   3.360   1.134 -0.4700  0.0497 -0.1340
 2048SOL     OW 7963   2.184   2.197   6.243  0.7101 -0.1933  0.3029
 2048SOL    HW2 7964   2.270   2.229   6.216  0.4000  1.6481  1.3118
 2048SOL    HW3 7965   2.132   2.197   6.162  1.0086  1.0010  0.0834
 2048SOL    MW4 7966   2.189   2.201   6.229  0.4296 -0.2240  0.1694
 2049SOL     OW 7967   2.025   4.214   4.950 -0.1821  0.0528 -0.1170
 2049SOL    HW2 7968   2.082   4.204   4.874  1.0550 -0.1910  0.8098
 2049SOL    HW3 7969   2.065   4.285   5.000  0.5842 -1.5320  1.6275
 2049SOL    MW4 7970   2.038   4.222   4.947 -0.0344 -0.2304  0.3836
 2050SOL     OW 7971   4.599   6.163   3.992 -0.5217  0.2071  1.0674
 2050SOL    HW2 7972   4.557   6.210   3.919  0.0552 -1.8236 -0.6935
 2050SOL    HW3 7973   4.668   6.221   4.022 -0.3271  0.8298 -0.4975
 2050SOL    MW4 7974   4.602   6.177   3.986 -0.3353  0.0372 -0.0007
 2051SOL     OW 7975   1.186   3.238   2.660 -0.4341 -0.0502 -0.0409
 2051SOL    HW2 7976   1.180   3.238   2.755 -1.1437 -0.9822 -0.0791
 2051SOL    HW3 7977   1.183   3.331   2.636  0.2161  0.2128  0.8624
 2051SOL    MW4 7978   1.185   3.251   2.669 -0.0928 -0.3043 -0.6220
 2052SOL     OW 7979   0.501   1.275   3.764 -0.1923 -0.6521  0.2039
 2052SOL    HW2 7980   0.586   1.245   3.796  0.1779 -2.3402 -2.1046
 2052SOL    HW3 7981   0.438   1.219   3.809  0.0951 -0.9684  0.2164
 2052SOL    MW4 7982   0.504   1.263   3.774 -0.3008  0.0285 -0.5018
 2053SOL     OW 7983   0.985   2.854   2.506 -0.1640 -0.0389 -0.0331
 2053SOL    HW2 7984   0.921   2.879   2.440 -1.1946  0.6961  1.2143
 2053SOL    HW3 7985   0.987   2.927   2.567  0.0522 -1.1150  1.2867
 2053SOL    MW4 7986   0.977   2.867   2.505  0.3090 -0.3007  0.1950
 2054SOL     OW 7987   6.206   2.032   4.248 -0.5107 -0.4123 -0.5095
 2054SOL    HW2 7988   6.230   2.040   4.156  0.2671 -0.4968 -0.3159
 2054SOL    HW3 7989   6.281   2.064   4.297 -1.5337  1.1856  0.0967
 2054SOL    MW4 7990   6.219   2.037   4.242 -0.2499  0.7294  0.4651
 2055SOL     OW 7991   0.310   0.965   5.785 -0.5415  0.1010 -0.1165
 2055SOL    HW2 7992   0.272   1.053   5.785 -0.7572  0.0667 -2.5743
 2055SOL    HW3 7993   0.245   0.910   5.827 -1.5796  0.6990 -0.9009
 2055SOL    MW4 7994   0.297   0.970   5.790 -0.8136 -0.1511  0.1278
 2056SOL     OW 7995   2.633   1.980   2.804  0.1765  0.0532 -0.2531
 2056SOL    HW2 7996   2.667   1.975   2.893 -0.8639 -1.4853  0.0968
 2056SOL    HW3 7997   2.587   1.897   2.791 -2.5786  1.5621 -1.0056
 2056SOL    MW4 7998   2.631   1.969   2.814  0.0811 -0.2455  0.4119
 2057SOL     OW 7999   4.445   2.305   1.647  0.4509  0.0397 -0.3661
 2057SOL    HW2 8000   4.496   2.324   1.568 -0.3577  0.0122 -0.9086
 2057SOL    HW3 8001   4.458   2.382   1.703  0.7841  0.1940 -0.6513
 2057SOL    MW4 8002   4.454   2.317   1.644  0.6548  0.7259 -0.3690
 2058SOL     OW 8003   3.045   3.269   0.582 -0.2851  0.2062 -0.4187
 2058SOL    HW2 8004   3.020   3.326   0.655  1.0558 -1.4361  1.4152
 2058SOL    HW3 8005   3.119   3.313   0.542 -1.3294  1.3640 -1.1535
 2058SOL    MW4 8006   3.051   3.282   0.587 -0.3154 -0.3913  0.4545
 2059SOL     OW 8007   5.090   2.669   2.713 -0.1114 -0.5672 -0.7091
 2059SOL    HW2 8008   5.172   2.717   2.713 -0.4384  0.0238  0.0825
 2059SOL    HW3 8009   5.024   2.734   2.736 -0.3338 -1.7007  2.3898
 2059SOL    MW4 8010   5.092   2.684   2.716  0.2588 -0.3561 -0.1393
 2060SOL     OW 8011   2.221   4.741   1.939 -0.2102 -0.1032 -0.5281
 2060SOL    HW2 8012   2.225   4.835   1.957 -2.5041 -0.1778  0.7555
 2060SOL    HW3 8013   2.188   4.702   2.020 -0.9085 -1.8080 -1.5711
 2060SOL    MW4 8014   2.217   4.748   1.952 -0.1221 -0.3920 -0.1721
 2061SOL     OW 8015   6.257   4.819   2.460  0.4804  0.3229 -0.0496
 2061SOL    HW2 8016   6.288   4.843   2.373 -0.7565 -0.2697 -0.6861
 2061SOL    HW3 8017   6.210   4.896   2.491 -0.0123  0.1693 -0.3873
 2061SOL    MW4 8018   6.255   4.832   2.452  0.3231 -0.8528 -1.1046
 2062SOL     OW 8019   3.563   2.280   4.309 -0.3182  0.3019 -0.3757
 2062SOL    HW2 8020   3.483   2.309   4.266 -1.0278  0.1238  0.7932
 2062SOL    HW3 8021   3.546   2.291   4.402  1.5364  1.5468 -0.1408
 2062SOL    MW4 8022   3.550   2.285   4.315 -0.0658 -0.0144  0.3800
 2063SOL     OW 8023   2.763   5.992   1.649 -0.1494  0.5789 -0.6484
 2063SOL    HW2 8024   2.704   6.052   1.602 -0.1909 -0.5462 -2.0925
 2063SOL    HW3 8025   2.706   5.943   1.707 -0.0971  2.0022  0.6671
 2063SOL    MW4 8026   2.748   5.994   1.650  0.0071  0.1475  0.8936
 2064SOL     OW 8027   2.175   4.750   3.889  0.8072  0.1459 -0.5405
 2064SOL    HW2 8028   2.094   4.738   3.940  0.5753  0.7646 -0.7586
 2064SOL    HW3 8029   2.218   4.664   3.892  0.4182 -0.0336  0.0496
 2064SOL    MW4 8030   2.170   4.737   3.896 -0.0910  0.3915 -0.2841
 2065SOL     OW 8031   0.281   6.204   0.495  0.2224  0.5601 -0.6933
 2065SOL    HW2 8032   0.195   6.240   0.519  0.8122  0.0201  2.6344
 2065SOL    HW3 8033   0.261   6.139   0.428 -1.8873  0.8485 -0.4269
 2065SOL    MW4 8034   0.267   6.200   0.489  0.0568 -0.3722 -0.5962
 2066SOL     OW 8035   2.253   0.084   5.149  0.5234  0.2052 -0.1849
 2066SOL    HW2 8036   2.344   0.058   5.139  0.1677 -1.4257  0.6052
 2066SOL    HW3 8037   2.208   0.006   5.181 -1.2430  0.8428 -0.9707
 2066SOL    MW4 8038   2.259   0.070   5.152 -0.2732  0.0319  0.6069
 2067SOL     OW 8039   3.495   5.618   2.352 -0.0516 -0.2182 -0.2608
 2067SOL    HW2 8040   3.444   5.666   2.417  0.8926  0.8134 -0.2478
 2067SOL    HW3 8041   3.507   5.532   2.391  0.5403  0.3952  0.9809
 2067SOL    MW4 8042   3.490   5.613   2.365 -0.0413 -0.3058  0.3020
 2068SOL     OW 8043   4.597   4.605   6.257  0.6564 -0.1335  0.3869
 2068SOL    HW2 8044   4.630   4.694   6.253 -1.7953  0.8300 -0.8145
 2068SOL    HW3 8045   4.558   4.598   6.345 -2.1000  1.2669 -0.5900
 2068SOL    MW4 8046   4.596   4.616   6.268 -0.0637  0.7010  0.1286
 2069SOL     OW 8047   0.798   3.717   0.746  0.0921 -0.4235 -0.0802
 2069SOL    HW2 8048   0.742   3.753   0.678  1.0338  0.5040 -0.3907
 2069SOL    HW3 8049   0.887   3.726   0.711  0.6306  0.4779  1.4406
 2069SOL    MW4 8050   0.803   3.723   0.732  0.2303  0.1155 -0.0120
 2070SOL     OW 8051   4.854   4.999   2.941 -0.0863  0.1326  0.0566
 2070SOL    HW2 8052   4.793   5.025   2.872  0.2932 -0.9157 -0.6980
 2070SOL    HW3 8053   4.797   4.967   3.012 -0.4443  0.2029 -0.1969
 2070SOL    MW4 8054   4.838   4.998   2.942 -0.1616 -0.2045 -0.0540
 2071SOL     OW 8055   3.842   0.150   0.280  0.1001 -0.0990  0.1547
 2071SOL    HW2 8056   3.861   0.161   0.373 -1.8717  0.7641  0.5166
 2071SOL    HW3 8057   3.782   0.076   0.276  0.0786 -0.0590 -0.4118
 2071SOL    MW4 8058   3.837   0.142   0.291  0.1406  0.3495  0.6700
 2072SOL     OW 8059   5.588   1.050   4.738 -0.1704  0.3074 -0.4098
 2072SOL    HW2 8060   5.562   1.034   4.829  1.6175  1.4406  0.3478
 2072SOL    HW3 8061   5.554   1.137   4.719  1.3114  0.9842 -0.0648
 2072SOL    MW4 8062   5.580   1.059   4.748  0.3029  0.3375 -0.0008
 2073SOL     OW 8063   6.319   3.392   3.866 -0.5236  0.1194  0.2333
 2073SOL    HW2 8064   6.311   3.478   3.824  1.0092  0.1569 -0.0373
 2073SOL    HW3 8065   6.414   3.379   3.876 -0.5881 -2.4545 -1.6289
 2073SOL    MW4 8066   6.331   3.402   3.862  0.4941 -0.0897  0.1708
 2074SOL     OW 8067   0.852   0.639   5.848  0.2298  0.3128  0.1359
 2074SOL    HW2 8068   0.779   0.593   5.890  0.2992 -2.6315 -2.5356
 2074SOL    HW3 8069   0.810   0.712   5.802 -0.8116 -0.3114  0.0437
 2074SOL    MW4 8070   0.837   0.643   5.847 -0.2415  0.3183 -0.2574
 2075SOL     OW 8071   5.719   5.564   3.858  0.3976 -0.2516  0.9834
 2075SOL    HW2 8072   5.781   5.599   3.922  1.4360 -0.7599  0.2860
 2075SOL    HW3 8073   5.774   5.539   3.784 -0.7218 -0.1490  0.0978
 2075SOL    MW4 8074   5.734   5.566   3.857 -0.2747  0.2251  0.7456
 2076SOL     OW 8075   1.239   1.186   2.572  0.0847 -0.6213  0.5071
 2076SOL    HW2 8076   1.192   1.269   2.571  2.2867  0.7061  0.9510
 2076SOL    HW3 8077   1.286   1.183   2.489 -0.7194 -1.9275  0.0623
 2076SOL    MW4 8078   1.239   1.196   2.561  0.1513 -0.5359 -0.2465
 2077SOL     OW 8079   4.280   1.475   3.754 -0.7041 -0.2905 -0.0790
 2077SOL    HW2 8080   4.316   1.560   3.730  0.1996 -0.6040  0.1316
 2077SOL    HW3 8081   4.192   1.494   3.788 -1.2670  0.3613 -1.7874
 2077SOL    MW4 8082   4.273   1.489   3.755  0.1092 -0.0071  0.5816
 2078SOL     OW 8083   5.926   1.178   2.657 -0.0064 -0.3387  0.1248
 2078SOL    HW2 8084   5.865   1.156   2.727 -0.0551 -0.8049 -0.0602
 2078SOL    HW3 8085   5.881   1.247   2.607 -0.0217 -0.0923  0.4782
 2078SOL    MW4 8086   5.912   1.184   2.659  0.3923 -0.7757  0.3827
 2079SOL     OW 8087   1.656   3.409   3.194  0.1700 -0.1552  0.1811
 2079SOL    HW2 8088   1.635   3.381   3.283 -0.6515 -0.4548 -0.0970
 2079SOL    HW3 8089   1.660   3.328   3.144 -0.1235  0.0609 -0.2026
 2079SOL    MW4 8090   1.654   3.395   3.199  0.2314 -0.0316 -0.7572
 2080SOL     OW 8091   2.148   1.073   1.109  0.3866 -0.1053  0.3441
 2080SOL    HW2 8092   2.175   0.983   1.125  2.3324  0.4078  0.1954
 2080SOL    HW3 8093   2.059   1.066   1.073  0.6557 -1.9629 -0.0332
 2080SOL    MW4 8094   2.140   1.061   1.107  0.7368  0.0737 -0.3469
 2081SOL     OW 8095   2.932   0.152   5.901  0.0184 -0.2111  0.3064
 2081SOL    HW2 8096   2.898   0.239   5.879 -0.8186 -0.7169 -0.4441
 2081SOL    HW3 8097   3.027   0.164   5.905 -0.1909  1.4748  3.4102
 2081SOL    MW4 8098   2.940   0.165   5.899 -0.1590 -0.2931 -0.9008
 2082SOL     OW 8099   2.826   2.934   3.545 -1.1993  0.2604  0.7702
 2082SOL    HW2 8100   2.790   2.846   3.555  2.0482 -1.1505  1.2429
 2082SOL    HW3 8101   2.819   2.952   3.451 -0.1936 -1.3556  0.3491
 2082SOL    MW4 8102   2.821   2.924   3.534  0.4765  0.3558 -1.0601
 2083SOL     OW 8103   0.943   5.907   4.781 -0.1365  0.1279 -0.1105
 2083SOL    HW2 8104   0.988   5.838   4.731 -0.0969  0.0775 -0.0062
 2083SOL    HW3 8105   0.924   5.866   4.866  1.0768  0.6596  0.4475
 2083SOL    MW4 8106   0.947   5.892   4.786 -0.4062  0.3430 -0.0339
 2084SOL     OW 8107   0.661   1.141   6.092  0.0446 -0.0199  0.8479
 2084SOL    HW2 8108   0.590   1.197   6.123  1.6615  1.9769  1.2246
 2084SOL    HW3 8109   0.717   1.128   6.169  1.6436  1.0419 -0.0644
 2084SOL    MW4 8110   0.659   1.147   6.106 -0.2014 -0.6302  0.1230
 2085SOL     OW 8111   5.933   0.704   3.022  0.2992  0.1744  0.4580
 2085SOL    HW2 8112   5.894   0.765   2.959 -0.5339  0.7193  1.4548
 2085SOL    HW3 8113   5.858   0.660   3.062  0.8189 -0.2855  0.9441
 2085SOL    MW4 8114   5.918   0.707   3.019  0.1921  0.2937 -0.3101
 2086SOL     OW 8115   3.449   5.234   0.899  0.2836  0.7537  0.1065
 2086SOL    HW2 8116   3.383   5.301   0.914 -0.6253 -0.2232  0.5789
 2086SOL    HW3 8117   3.523   5.259   0.955 -0.5148  0.7119  1.2000
 2086SOL    MW4 8118   3.450   5.246   0.908 -0.4301 -0.2465  0.1578
 2087SOL     OW 8119   2.268   3.497   4.951 -0.3419 -0.0545  0.4714
 2087SOL    HW2 8120   2.183   3.463   4.978  0.2141 -2.4283 -0.4894
 2087SOL    HW3 8121   2.252   3.535   4.865 -0.7204  0.9394  0.9746
 2087SOL    MW4 8122   2.255   3.497   4.943  0.0230  0.1099  0.1696
 2088SOL     OW 8123   5.893   5.198   0.451  0.2553  0.0379  0.0066
 2088SOL    HW2 8124   5.927   5.285   0.468 -0.4474  0.0260  1.6647
 2088SOL    HW3 8125   5.802   5.201   0.482  0.3143 -1.3539  0.3725
 2088SOL    MW4 8126   5.885   5.210   0.458 -0.3120 -0.3166  0.1882
 2089SOL     OW 8127   1.244   5.645   4.279 -0.1659  0.6011  0.2632
 2089SOL    HW2 8128   1.328   5.663   4.323 -0.1489 -0.1364  0.5433
 2089SOL    HW3 8129   1.215   5.562   4.316 -0.8919  0.7145 -0.0381
 2089SOL    MW4 8130   1.251   5.637   4.290  0.3232  0.4629  0.1963
 2090SOL     OW 8131   3.693   1.794   6.143  0.3801  0.4270 -0.0288
 2090SOL    HW2 8132   3.610   1.817   6.185  1.7432  0.7816  2.6838
 2090SOL    HW3 8133   3.697   1.851   6.066 -1.2920  1.3441  0.5038
 2090SOL    MW4 8134   3.682   1.805   6.138 -0.5462  0.3296  0.3538
 2091SOL     OW 8135   5.396   3.715   0.951 -0.0244 -0.3236 -0.7315
 2091SOL    HW2 8136   5.311   3.693   0.913 -0.4803 -0.2003  0.1887
 2091SOL    HW3 8137   5.428   3.633   0.988 -1.4089  0.2886  2.0840
 2091SOL    MW4 8138   5.389   3.701   0.951  0.1565  0.1985 -0.3317
 2092SOL     OW 8139   4.911   2.346   2.573  0.2535 -0.5408 -0.2907
 2092SOL    HW2 8140   4.966   2.420   2.548  0.8235 -0.4718  1.0780
 2092SOL    HW3 8141   4.824   2.367   2.539  0.4573  0.6670 -0.0981
 2092SOL    MW4 8142   4.907   2.358   2.565  0.0983  0.4496 -0.3608
 2093SOL     OW 8143   2.139   6.475   0.546  0.0734  0.2233 -0.9052
 2093SOL    HW2 8144   2.206   6.538   0.572  0.5477 -0.9210  0.7977
 2093SOL    HW3 8145   2.156   6.398   0.600 -3.5412  0.4147  0.7978
 2093SOL    MW4 8146   2.150   6.473   0.557 -0.5072  0.2083 -0.2328
 2094SOL     OW 8147   1.171   2.066   3.414 -0.1221  0.6533  0.5240
 2094SOL    HW2 8148   1.125   1.995   3.370  1.3476  1.1900 -2.0925
 2094SOL    HW3 8149   1.104   2.132   3.431 -0.7460  0.4480 -1.0443
 2094SOL    MW4 8150   1.156   2.066   3.411  0.2119  0.4800  0.9101
 2095SOL     OW 8151   5.985   0.916   4.174  0.7094  0.7414 -0.3156
 2095SOL    HW2 8152   5.932   0.862   4.117 -2.4877  0.1506  2.8428
 2095SOL    HW3 8153   5.943   1.002   4.171  0.9580  0.9024  0.5366
 2095SOL    MW4 8154   5.972   0.921   4.166 -0.6244 -0.2084  0.2195
 2096SOL     OW 8155   3.969   4.352   3.390 -0.1381  0.2787  0.5632
 2096SOL    HW2 8156   4.007   4.271   3.354 -1.0708 -0.0003  0.1714
 2096SOL    HW3 8157   3.926   4.324   3.471 -0.4379  0.3834  0.4413
 2096SOL    MW4 8158   3.968   4.337   3.396  0.5620 -0.0658 -0.3263
 2097SOL     OW 8159   1.895   0.455   0.212 -0.5323  0.5845 -0.3187
 2097SOL    HW2 8160   1.825   0.419   0.265 -1.0956 -0.7723 -1.8965
 2097SOL    HW3 8161   1.975   0.437   0.262 -1.1038  0.1094  0.4403
 2097SOL    MW4 8162   1.897   0.448   0.226  0.5282 -0.0047 -0.1677
 2098SOL     OW 8163   4.867   4.692   2.283 -0.4219 -0.3818  0.3893
 2098SOL    HW2 8164   4.779   4.664   2.258 -0.5827  0.5541 -0.1351
 2098SOL    HW3 8165   4.852   4.752   2.357 -0.0926 -1.5336  1.4181
 2098SOL    MW4 8166   4.853   4.697   2.289 -0.7015 -0.2684 -0.1584
 2099SOL     OW 8167   0.179   4.675   1.711  0.1706  0.1337  0.5136
 2099SOL    HW2 8168   0.173   4.708   1.621  0.3467 -0.5309  0.2464
 2099SOL    HW3 8169   0.177   4.579   1.701  1.8523  0.0095  1.0772
 2099SOL    MW4 8170   0.178   4.667   1.698 -0.4283 -0.1178 -0.1487
 2100SOL     OW 8171   1.524   0.776   3.090 -0.4590 -0.2757  0.0370
 2100SOL    HW2 8172   1.444   0.797   3.041 -1.2371 -0.7350  1.0814
 2100SOL    HW3 8173   1.499   0.785   3.182  1.0924  1.0119  0.3874
 2100SOL    MW4 8174   1.510   0.780   3.095 -0.2836 -0.2309 -0.2743
 2101SOL     OW 8175   0.950   1.987   4.126  0.0386  0.0478 -0.0098
 2101SOL    HW2 8176   0.948   2.040   4.046 -0.9263 -0.5295 -0.3828
 2101SOL    HW3 8177   1.043   1.968   4.138  0.1505 -0.4715 -1.4283
 2101SOL    MW4 8178   0.962   1.991   4.117  0.1040  0.0677  0.2981
 2102SOL     OW 8179   1.851   4.091   0.711  1.1518 -0.8514  0.1600
 2102SOL    HW2 8180   1.936   4.074   0.672  0.5757 -2.4721 -0.5033
 2102SOL    HW3 8181   1.802   4.009   0.697 -0.7933  0.3262 -0.2511
 2102SOL    MW4 8182   1.856   4.078   0.704 -0.2036  0.0756  0.7869
 2103SOL     OW 8183   3.321   5.552   3.189  0.1330 -0.3999  0.2605
 2103SOL    HW2 8184   3.268   5.575   3.113 -0.7480 -1.1525  0.6245
 2103SOL    HW3 8185   3.281   5.600   3.262 -0.5924 -1.5735  0.6842
 2103SOL    MW4 8186   3.309   5.561   3.189 -0.1820  0.1624 -0.1259
 2104SOL     OW 8187   5.154   6.200   1.454 -1.2840  0.3066 -0.0670
 2104SOL    HW2 8188   5.177   6.112   1.482 -0.7650  0.5485  0.2850
 2104SOL    HW3 8189   5.228   6.254   1.481 -1.3224  0.7508 -0.8266
 2104SOL    MW4 8190   5.167   6.196   1.462 -0.1817 -0.1099 -0.2454
 2105SOL     OW 8191   1.688   0.528   5.574 -0.0805  0.5352 -0.3069
 2105SOL    HW2 8192   1.595   0.511   5.589 -0.6887 -0.3145 -4.0513
 2105SOL    HW3 8193   1.728   0.441   5.573  0.2258  0.6805 -1.3830
 2105SOL    MW4 8194   1.681   0.514   5.576 -0.0920 -0.1026 -0.0383
 2106SOL     OW 8195   0.008   0.983   1.053  0.2946 -0.1439  0.0575
 2106SOL    HW2 8196   0.061   0.930   0.992  0.7836  1.7607 -1.2831
 2106SOL    HW3 8197   0.049   0.970   1.138  2.0240  0.0702 -0.6978
 2106SOL    MW4 8198   0.021   0.974   1.056  0.0557  0.3797 -0.1559
 2107SOL     OW 8199   1.333   3.045   4.789 -0.1291 -0.9349 -0.2046
 2107SOL    HW2 8200   1.253   3.049   4.737  0.1985 -0.1288 -0.6576
 2107SOL    HW3 8201   1.321   2.969   4.846 -2.1922  0.4055  1.3046
 2107SOL    MW4 8202   1.321   3.036   4.790 -0.2904  0.4544 -0.2161
 2108SOL     OW 8203   3.584   2.101   2.772  0.3355 -0.0714 -0.3855
 2108SOL    HW2 8204   3.670   2.092   2.731  0.7880  0.6800  0.3540
 2108SOL    HW3 8205   3.589   2.045   2.850 -0.5804 -1.6335 -1.4063
 2108SOL    MW4 8206   3.596   2.092   2.777 -0.2304 -0.0398  0.3431
 2109SOL     OW 8207   1.574   2.674   3.768 -0.2076  0.4913  0.2910
 2109SOL    HW2 8208   1.599   2.741   3.705  1.3781 -1.2561 -1.0663
 2109SOL    HW3 8209   1.619   2.698   3.849 -0.4077  1.5358  0.1031
 2109SOL    MW4 8210   1.583   2.686   3.770  0.2081  0.6140  0.1364
 2110SOL     OW 8211   6.026   2.524   1.598  0.1153 -0.1442 -0.9732
 2110SOL    HW2 8212   6.081   2.584   1.547  1.1898  0.4848  0.8150
 2110SOL    HW3 8213   6.019   2.446   1.543  1.0886  0.5390 -2.1333
 2110SOL    MW4 8214   6.033   2.521   1.584  0.4215 -0.0217 -0.2670
 2111SOL     OW 8215   1.093   2.205   5.951 -0.2615  0.0435  0.6115
 2111SOL    HW2 8216   0.997   2.203   5.953 -0.2472  0.0610  2.0653
 2111SOL    HW3 8217   1.114   2.286   5.904 -0.9309 -0.5450 -0.7825
 2111SOL    MW4 8218   1.083   2.215   5.945 -0.2400 -0.4203 -0.4027
 2112SOL     OW 8219   3.956   5.036   3.139 -0.1913  0.0435 -0.7798
 2112SOL    HW2 8220   3.985   5.022   3.049 -0.2801  0.0041 -0.8027
 2112SOL    HW3 8221   3.966   5.130   3.153  1.2352 -0.1455 -0.3396
 2112SOL    MW4 8222   3.961   5.047   3.129 -0.7367 -0.0521  0.5466
 2113SOL     OW 8223   5.033   4.709   3.976  0.1601 -0.3640  0.0820
 2113SOL    HW2 8224   4.964   4.716   4.042  0.1027 -0.2562  0.0104
 2113SOL    HW3 8225   5.015   4.779   3.915  1.2941  0.7215  0.9415
 2113SOL    MW4 8226   5.022   4.719   3.977 -0.6814  0.4764  0.1021
 2114SOL     OW 8227   5.372   2.822   2.935 -0.5225 -0.7076 -0.3058
 2114SOL    HW2 8228   5.393   2.752   2.872 -1.5579 -1.4456  0.1327
 2114SOL    HW3 8229   5.277   2.822   2.939 -0.5109  0.4015  0.0907
 2114SOL    MW4 8230   5.362   2.813   2.928  0.3924  0.0665  0.2979
 2115SOL     OW 8231   2.104   3.964   4.242 -0.0142  0.2019  0.3770
 2115SOL    HW2 8232   2.008   3.966   4.238 -0.0178  2.0897  0.2219
 2115SOL    HW3 8233   2.128   4.052   4.272  1.6565 -0.4817  1.1636
 2115SOL    MW4 8234   2.094   3.976   4.245 -0.2882  0.1537  0.4664
 2116SOL     OW 8235   0.033   6.450   1.495 -0.4313 -0.2915  0.2347
 2116SOL    HW2 8236  -0.035   6.391   1.525  0.6991 -1.3994  0.6990
 2116SOL    HW3 8237   0.079   6.477   1.575 -0.4234  0.5851 -0.0491
 2116SOL    MW4 8238   0.030   6.446   1.510  0.4299  0.6162 -0.0144
 2117SOL     OW 8239   1.401   5.731   5.318  0.2605 -0.1970  0.3384
 2117SOL    HW2 8240   1.372   5.682   5.395  1.2203  0.4273  1.1216
 2117SOL    HW3 8241   1.324   5.733   5.261 -0.3070 -1.1379  1.0365
 2117SOL    MW4 8242   1.387   5.725   5.321 -0.3653  0.0898 -0.8838
 2118SOL     OW 8243   1.797   3.029   1.225 -0.4033  0.0383 -0.1303
 2118SOL    HW2 8244   1.753   3.081   1.292 -3.6242 -1.5048 -0.8329
 2118SOL    HW3 8245   1.765   3.065   1.142 -1.1364 -1.7156 -0.6542
 2118SOL    MW4 8246   1.787   3.040   1.223 -1.0395  0.3005 -0.5720
 2119SOL     OW 8247   3.209   0.289   6.329  0.5651 -0.1821  0.3261
 2119SOL    HW2 8248   3.274   0.275   6.398 -0.0161 -0.9372  0.7456
 2119SOL    HW3 8249   3.127   0.257   6.367  0.0811  0.1227 -0.4365
 2119SOL    MW4 8250   3.207   0.283   6.343 -0.2056  0.4665 -0.3446
 2120SOL     OW 8251   0.429   1.860   1.458 -0.1717  0.0305 -0.3065
 2120SOL    HW2 8252   0.467   1.772   1.458  0.7477  0.4180  0.0129
 2120SOL    HW3 8253   0.459   1.899   1.540 -0.8233  0.5472 -0.3013
 2120SOL    MW4 8254   0.438   1.854   1.469  0.2561 -0.7503  0.4500
 2121SOL     OW 8255   2.906   2.615   1.102  0.0282 -0.4200 -0.1038
 2121SOL    HW2 8256   2.855   2.534   1.094 -1.9991  0.9444 -2.6303
 2121SOL    HW3 8257   2.947   2.626   1.016  2.1744  0.1171  0.9306
 2121SOL    MW4 8258   2.905   2.606   1.089  0.0358  0.1655 -0.3148
 2122SOL     OW 8259   0.561   6.149   2.346  0.0881  0.0749  0.0490
 2122SOL    HW2 8260   0.541   6.059   2.375 -0.1089  0.4668  1.2061
 2122SOL    HW3 8261   0.653   6.146   2.320  0.3604 -0.2594  1.0016
 2122SOL    MW4 8262   0.571   6.136   2.347 -0.5595  0.4252 -0.7828
 2123SOL     OW 8263   2.149   3.112   1.078  0.0925 -0.2382 -0.7802
 2123SOL    HW2 8264   2.166   3.187   1.136  1.0617 -0.3747 -0.8751
 2123SOL    HW3 8265   2.116   3.044   1.137  0.4906 -0.1749 -0.4764
 2123SOL    MW4 8266   2.147   3.113   1.094  0.5916  0.1483  0.2051
 2124SOL     OW 8267   4.485   5.654   5.818 -0.1141  0.3800  0.3297
 2124SOL    HW2 8268   4.579   5.671   5.824 -0.0966  0.0344  1.0521
 2124SOL    HW3 8269   4.448   5.737   5.788  0.5591  0.1469 -1.2753
 2124SOL    MW4 8270   4.492   5.668   5.815 -0.1900 -0.8044  0.3356
 2125SOL     OW 8271   2.972   3.688   5.577  0.2147  0.3982 -0.3390
 2125SOL    HW2 8272   2.897   3.666   5.521  0.8315 -0.6760 -0.7629
 2125SOL    HW3 8273   3.006   3.769   5.539 -1.1659  1.3333  0.3207
 2125SOL    MW4 8274   2.967   3.696   5.564 -0.2410  0.2919 -0.2778
 2126SOL     OW 8275   4.175   1.967   2.585  0.4112 -0.4316 -0.5869
 2126SOL    HW2 8276   4.267   1.950   2.563  0.4543 -0.7804 -0.1543
 2126SOL    HW3 8277   4.168   1.940   2.677  0.2486  0.9882 -0.1515
 2126SOL    MW4 8278   4.186   1.961   2.594  0.1700 -0.1953 -0.4037
 2127SOL     OW 8279   4.941   5.132   0.632 -0.0366 -0.4688 -0.2342
 2127SOL    HW2 8280   4.993   5.067   0.585  2.1942 -0.9923  2.6519
 2127SOL    HW3 8281   5.003   5.200   0.657 -1.5134  0.7656  0.2444
 2127SOL    MW4 8282   4.956   5.132   0.629 -0.1894 -0.6247 -0.3145
 2128SOL     OW 8283   3.810   1.421   3.141 -0.4088 -0.1217 -0.2015
 2128SOL    HW2 8284   3.895   1.465   3.145  0.3309 -1.1152 -2.8032
 2128SOL    HW3 8285   3.746   1.493   3.140  0.3449  0.6384  1.6393
 2128SOL    MW4 8286   3.813   1.437   3.141  0.0431 -0.4804  0.7365
 2129SOL     OW 8287   4.261   1.979   2.211  0.1959 -0.0850 -0.5345
 2129SOL    HW2 8288   4.187   1.982   2.272  0.4162  1.2797 -0.2834
 2129SOL    HW3 8289   4.221   1.972   2.125 -0.2354  0.6307 -0.4012
 2129SOL    MW4 8290   4.246   1.979   2.208 -0.1391  0.0715  0.2205
 2130SOL     OW 8291   2.236   5.620   2.948  0.1766  0.4985 -0.4907
 2130SOL    HW2 8292   2.145   5.590   2.949  0.9614 -2.2906 -1.2485
 2130SOL    HW3 8293   2.277   5.573   3.020  1.0085  1.8255 -0.0758
 2130SOL    MW4 8294   2.229   5.610   2.957 -0.7169 -0.1626  0.0016
 2131SOL     OW 8295   1.867   4.666   4.827  0.6537 -0.0537 -0.5920
 2131SOL    HW2 8296   1.946   4.658   4.881 -1.6815 -3.8392  2.8802
 2131SOL    HW3 8297   1.860   4.580   4.784 -2.9353 -1.1497  1.7308
 2131SOL    MW4 8298   1.877   4.653   4.829 -0.2236  0.5932  0.0361
 2132SOL     OW 8299   5.129   0.678   4.515  0.1739 -0.8437  0.0999
 2132SOL    HW2 8300   5.215   0.657   4.478  1.9265  1.0235  2.7473
 2132SOL    HW3 8301   5.123   0.773   4.509 -1.4611 -0.8965  0.5019
 2132SOL    MW4 8302   5.140   0.687   4.509 -0.3545 -0.3362  0.4464
 2133SOL     OW 8303   4.427   4.308   3.315 -0.3024 -0.2553  0.1636
 2133SOL    HW2 8304   4.358   4.353   3.266 -0.5286  0.7972  1.3879
 2133SOL    HW3 8305   4.383   4.274   3.393  0.3118 -0.6951  0.3285
 2133SOL    MW4 8306   4.412   4.310   3.319  0.3700 -0.4478  0.0823
 2134SOL     OW 8307   1.562   3.177   4.716  0.3277 -0.1809 -0.2829
 2134SOL    HW2 8308   1.630   3.143   4.774  0.0687  0.1293  0.2081
 2134SOL    HW3 8309   1.482   3.135   4.746  0.0298  0.7249  0.2276
 2134SOL    MW4 8310   1.561   3.167   4.728  0.3429 -0.6912 -0.3744
 2135SOL     OW 8311   4.392   4.870   3.335 -0.6470  0.3797 -0.3542
 2135SOL    HW2 8312   4.342   4.940   3.294 -0.6746  1.5279  1.5230
 2135SOL    HW3 8313   4.412   4.903   3.423 -0.1688 -1.7400  0.3904
 2135SOL    MW4 8314   4.388   4.884   3.341 -0.2433 -0.2588 -0.4438
 2136SOL     OW 8315   1.672   3.629   2.639  0.2680 -0.0535  0.1809
 2136SOL    HW2 8316   1.753   3.678   2.623  0.3455  0.7223  2.4597
 2136SOL    HW3 8317   1.614   3.653   2.567  2.1299 -0.8640 -1.6771
 2136SOL    MW4 8318   1.675   3.638   2.628 -0.0930  0.1174 -0.6770
 2137SOL     OW 8319   0.541   2.416   0.176  0.4554  0.4791 -0.2404
 2137SOL    HW2 8320   0.555   2.333   0.131  1.3679 -0.9766  2.5228
 2137SOL    HW3 8321   0.625   2.463   0.167  0.5796  0.2664 -0.1933
 2137SOL    MW4 8322   0.554   2.412   0.169 -0.4920  0.7640 -0.0051
 2138SOL     OW 8323   4.531   5.266   2.653 -0.3150 -0.0675  0.0737
 2138SOL    HW2 8324   4.470   5.193   2.645 -2.8368  1.7145  1.5652
 2138SOL    HW3 8325   4.514   5.320   2.576 -0.6352  0.4420  0.4980
 2138SOL    MW4 8326   4.521   5.263   2.642  0.2951 -1.0820  0.3105
 2139SOL     OW 8327   1.370   1.555   1.341  0.8394 -0.2360 -0.0039
 2139SOL    HW2 8328   1.287   1.538   1.386 -0.1628  1.7114 -0.9735
 2139SOL    HW3 8329   1.371   1.492   1.269 -0.2798  0.3198 -0.5361
 2139SOL    MW4 8330   1.359   1.544   1.338  0.0231  0.5488  0.1776
 2140SOL     OW 8331   5.764   2.135   1.047  0.0688  0.6835  0.1871
 2140SOL    HW2 8332   5.678   2.176   1.055  0.3503  1.1790  0.7955
 2140SOL    HW3 8333   5.756   2.053   1.096  0.2491  1.2470  1.1982
 2140SOL    MW4 8334   5.752   2.130   1.054 -0.4746 -0.6563 -0.4377
 2141SOL     OW 8335   3.308   3.443   2.220  0.2710 -0.0139 -0.2914
 2141SOL    HW2 8336   3.337   3.407   2.136 -1.5069  0.3855 -1.1304
 2141SOL    HW3 8337   3.270   3.528   2.198 -1.4872 -0.4990  0.6628
 2141SOL    MW4 8338   3.307   3.449   2.206  0.2651  0.1848  0.1340
 2142SOL     OW 8339   4.384   4.136   3.534 -0.3422 -0.3187  0.3684
 2142SOL    HW2 8340   4.344   4.165   3.616 -1.4363 -0.8662  0.0420
 2142SOL    HW3 8341   4.477   4.125   3.555 -0.2670  1.3783  1.0283
 2142SOL    MW4 8342   4.391   4.138   3.548  0.2196  0.3606 -0.2439
 2143SOL     OW 8343   3.369   1.536   3.842  0.1344 -0.1193 -0.1837
 2143SOL    HW2 8344   3.316   1.513   3.766 -2.0578  2.6726  0.3489
 2143SOL    HW3 8345   3.436   1.595   3.807  0.6556 -0.7439 -0.2698
 2143SOL    MW4 8346   3.371   1.541   3.827  0.4983  0.5819 -0.4145
 2144SOL     OW 8347   5.439   1.158   0.446  0.2361  0.5384 -0.6879
 2144SOL    HW2 8348   5.439   1.062   0.451 -1.1359  0.5201 -0.4758
 2144SOL    HW3 8349   5.387   1.185   0.522  1.8286  1.5336  0.0990
 2144SOL    MW4 8350   5.432   1.149   0.457 -0.2465 -0.3927 -0.2220
 2145SOL     OW 8351   2.907   1.329   0.638 -0.1147 -0.3133 -0.4363
 2145SOL    HW2 8352   2.927   1.245   0.597 -1.1864 -0.8959  0.1981
 2145SOL    HW3 8353   2.864   1.307   0.720  1.8629  0.8367  1.0006
 2145SOL    MW4 8354   2.904   1.315   0.643  0.3904  0.1602  0.0285
 2146SOL     OW 8355   0.368   0.119   1.186  0.7120 -0.2760  0.0133
 2146SOL    HW2 8356   0.288   0.072   1.210  0.8790 -0.3022  0.5270
 2146SOL    HW3 8357   0.357   0.139   1.093 -0.9401  1.7935  0.5778
 2146SOL    MW4 8358   0.356   0.115   1.177 -0.1563  0.0566 -0.1436
 2147SOL     OW 8359   5.045   2.335   6.407 -0.4095 -0.1189  0.9458
 2147SOL    HW2 8360   5.022   2.244   6.423  0.1975 -0.3641  0.4194
 2147SOL    HW3 8361   5.141   2.336   6.402 -0.4756  0.2205 -0.9572
 2147SOL    MW4 8362   5.055   2.323   6.409 -0.1642  0.0542 -0.2973
 2148SOL     OW 8363   4.748   4.044   4.921 -0.1606 -0.6946 -0.2562
 2148SOL    HW2 8364   4.832   4.076   4.889  0.9887 -1.1163  2.1024
 2148SOL    HW3 8365   4.768   3.958   4.958 -1.2903 -0.1964  1.6517
 2148SOL    MW4 8366   4.762   4.037   4.922  0.0737  0.4069  0.1485
 2149SOL     OW 8367   3.763   2.836   2.567  0.0755  0.1028  0.2763
 2149SOL    HW2 8368   3.753   2.760   2.625  0.1507 -0.5463 -0.5291
 2149SOL    HW3 8369   3.744   2.912   2.622  1.4983 -0.3791  1.4918
 2149SOL    MW4 8370   3.759   2.836   2.582 -0.2810 -0.0097  0.0238
 2150SOL     OW 8371   0.585   1.895   3.578  0.3411 -0.9966 -0.3814
 2150SOL    HW2 8372   0.584   1.952   3.655 -0.5943 -1.9852  0.3779
 2150SOL    HW3 8373   0.574   1.954   3.504  0.6752 -0.0790  0.2888
 2150SOL    MW4 8374   0.583   1.910   3.579  0.3673 -0.2317  0.1783
 2151SOL     OW 8375   5.127   2.953   5.457 -0.4737 -0.2248 -0.6292
 2151SOL    HW2 8376   5.154   2.909   5.538 -0.3526 -0.2951 -0.7079
 2151SOL    HW3 8377   5.190   3.025   5.447 -1.1599  0.4778 -0.0630
 2151SOL    MW4 8378   5.139   2.957   5.467 -0.6360 -0.2022 -0.2789
 2152SOL     OW 8379   5.739   4.462   5.950  0.4275 -1.0133  0.1729
 2152SOL    HW2 8380   5.682   4.398   5.992 -0.0562 -1.4620 -1.1221
 2152SOL    HW3 8381   5.749   4.531   6.016 -1.9834 -0.6934  0.3149
 2152SOL    MW4 8382   5.733   4.463   5.965 -0.0051  0.4605  0.3368
 2153SOL     OW 8383   3.268   4.548   4.556  0.1762 -0.8130  0.2750
 2153SOL    HW2 8384   3.299   4.615   4.617 -1.5081 -0.4855  0.8422
 2153SOL    HW3 8385   3.292   4.465   4.598 -0.4719 -0.5824  1.1258
 2153SOL    MW4 8386   3.275   4.546   4.570 -0.0179  0.5966  0.1347
 2154SOL     OW 8387   5.527   4.190   5.816 -0.8691 -0.6816 -0.1606
 2154SOL    HW2 8388   5.515   4.194   5.721 -1.1839 -1.2326 -0.1516
 2154SOL    HW3 8389   5.600   4.129   5.829 -0.2750  0.0311 -0.0746
 2154SOL    MW4 8390   5.535   4.182   5.805  0.2065  0.2437 -0.1067
 2155SOL     OW 8391   1.646   2.138   5.971  0.0232  0.1356  0.2677
 2155SOL    HW2 8392   1.581   2.071   5.952 -0.0633  0.0125  0.9654
 2155SOL    HW3 8393   1.601   2.221   5.954  0.4653  0.0248 -1.6518
 2155SOL    MW4 8394   1.631   2.140   5.966 -0.2346  0.1793  0.5363
 2156SOL     OW 8395   0.379   4.203   4.299  0.5180 -0.3417  0.6601
 2156SOL    HW2 8396   0.448   4.260   4.263 -1.0957  0.5818 -1.1411
 2156SOL    HW3 8397   0.320   4.263   4.344 -0.3583 -0.7917  0.1332
 2156SOL    MW4 8398   0.381   4.219   4.300 -0.1966 -0.6467  0.0682
 2157SOL     OW 8399   0.807   1.566   4.756  0.4662  0.2156  0.7546
 2157SOL    HW2 8400   0.825   1.642   4.700  0.2916  1.7303  2.6431
 2157SOL    HW3 8401   0.893   1.528   4.772  0.4067 -1.0385 -1.5058
 2157SOL    MW4 8402   0.821   1.571   4.750  0.3406  0.0457  0.0397
 2158SOL     OW 8403   4.141   1.229   2.287  0.0696 -0.0208 -0.4641
 2158SOL    HW2 8404   4.080   1.235   2.361  1.2397  0.3155  0.5005
 2158SOL    HW3 8405   4.223   1.197   2.326  0.2314 -1.4707 -1.9054
 2158SOL    MW4 8406   4.144   1.225   2.302 -0.4120 -0.9172 -0.4440
 2159SOL     OW 8407   3.379   3.899   2.085 -0.4180  0.0122  0.2367
 2159SOL    HW2 8408   3.327   3.933   2.012 -2.2009 -1.6736  0.6476
 2159SOL    HW3 8409   3.331   3.926   2.163  1.2878  1.4936  0.8334
 2159SOL    MW4 8410   3.366   3.907   2.085  0.7109  0.0441  0.0479
 2160SOL     OW 8411   0.818   1.091   0.783  0.2629 -0.3606  0.2760
 2160SOL    HW2 8412   0.807   1.015   0.839  3.6069 -0.4630  1.0114
 2160SOL    HW3 8413   0.910   1.088   0.756  0.1615  2.6597 -0.8074
 2160SOL    MW4 8414   0.829   1.081   0.787  0.1398  0.1231 -0.0647
 2161SOL     OW 8415   1.357   6.402   5.047 -0.7715 -0.0091  0.1457
 2161SOL    HW2 8416   1.441   6.375   5.083 -1.3954 -0.1669  1.5396
 2161SOL    HW3 8417   1.297   6.331   5.072 -1.0563 -0.6292 -2.0776
 2161SOL    MW4 8418   1.360   6.389   5.055  0.3863 -0.0906 -0.1838
 2162SOL     OW 8419   2.951   4.708   6.287 -0.0446  0.1860  0.2002
 2162SOL    HW2 8420   2.918   4.635   6.339  0.6662 -0.2621  0.0461
 2162SOL    HW3 8421   2.957   4.781   6.349 -1.3404  0.3043  0.2182
 2162SOL    MW4 8422   2.947   4.708   6.302 -0.1861 -0.8991  0.2730
 2163SOL     OW 8423   5.052   5.014   4.101 -0.3232  0.4946 -0.2811
 2163SOL    HW2 8424   5.097   4.988   4.181 -1.0241 -3.2852 -0.9296
 2163SOL    HW3 8425   5.013   5.099   4.122  1.9667  1.0353  2.3075
 2163SOL    MW4 8426   5.053   5.022   4.114  0.7768  0.1711 -0.1776
 2164SOL     OW 8427   0.014   0.235   4.632  0.6069  0.2861  0.1540
 2164SOL    HW2 8428  -0.057   0.242   4.568  0.5026  2.3290  0.4099
 2164SOL    HW3 8429   0.094   0.231   4.579  0.3694 -1.6152 -0.1256
 2164SOL    MW4 8430   0.015   0.236   4.617  0.6416  0.0586 -0.2727
 2165SOL     OW 8431   4.273   0.087   4.152 -0.0771 -0.2718  0.3837
 2165SOL    HW2 8432   4.320   0.084   4.069 -0.2925 -1.4713  0.2989
 2165SOL    HW3 8433   4.185   0.114   4.128 -0.4343 -1.6536  0.0723
 2165SOL    MW4 8434   4.268   0.091   4.138  0.6631  0.3620 -0.2951
 2166SOL     OW 8435   0.312   3.206   4.300 -0.1061  0.1566  0.3680
 2166SOL    HW2 8436   0.336   3.265   4.372 -0.5353 -0.6536  1.1885
 2166SOL    HW3 8437   0.234   3.246   4.261  0.7149  1.1495 -0.3421
 2166SOL    MW4 8438   0.305   3.219   4.304  0.0521  0.0355  0.2414
 2167SOL     OW 8439   4.084   1.296   4.510  0.2819  0.5786  0.2458
 2167SOL    HW2 8440   4.032   1.238   4.566 -1.7574 -0.8790 -2.8684
 2167SOL    HW3 8441   4.022   1.365   4.485  0.4120 -0.0183 -1.8673
 2167SOL    MW4 8442   4.069   1.298   4.514 -0.1300 -0.1126 -0.0742
 2168SOL     OW 8443   2.495   3.204   1.175 -0.4184 -0.3383 -0.8721
 2168SOL    HW2 8444   2.559   3.152   1.225 -0.6478 -0.0249 -0.2398
 2168SOL    HW3 8445   2.423   3.144   1.158 -1.0466 -0.0234  0.5636
 2168SOL    MW4 8446   2.494   3.190   1.180 -0.0895 -0.0579  0.3732
 2169SOL     OW 8447   5.847   3.810   6.174 -0.0140 -0.3916  0.0154
 2169SOL    HW2 8448   5.768   3.755   6.168 -0.6480  0.5206 -0.2559
 2169SOL    HW3 8449   5.920   3.748   6.166 -0.6564 -0.9115 -3.6664
 2169SOL    MW4 8450   5.846   3.794   6.172  0.2608 -0.1250  0.3259
 2170SOL     OW 8451   0.202   1.248   2.628  0.5179  0.5786  0.1230
 2170SOL    HW2 8452   0.246   1.164   2.643  1.5894  0.9766 -0.6722
 2170SOL    HW3 8453   0.268   1.313   2.649 -0.1087  1.2193  0.1282
 2170SOL    MW4 8454   0.217   1.245   2.633 -0.3949 -0.4109 -0.2786
 2171SOL     OW 8455   3.302   6.014   0.854  0.2487  0.1998 -0.0708
 2171SOL    HW2 8456   3.268   6.056   0.775  2.3931  1.9105 -0.1842
 2171SOL    HW3 8457   3.335   6.086   0.907 -0.7264 -0.9487  2.2276
 2171SOL    MW4 8458   3.302   6.029   0.851 -0.0038 -0.3914  0.2127
 2172SOL     OW 8459   5.012   0.338   5.638 -0.3443  0.6903 -0.3824
 2172SOL    HW2 8460   5.043   0.425   5.613  2.3632 -0.1178 -0.1541
 2172SOL    HW3 8461   4.970   0.303   5.560  0.0894  1.5563 -1.0114
 2172SOL    MW4 8462   5.011   0.345   5.625 -0.5447 -0.0293 -0.0228
 2173SOL     OW 8463   1.465   4.635   1.680  0.5819 -0.1692  0.0469
 2173SOL    HW2 8464   1.433   4.552   1.716 -0.9609 -0.1419 -1.1200
 2173SOL    HW3 8465   1.416   4.702   1.727  2.2001  0.1444  1.3490
 2173SOL    MW4 8466   1.454   4.633   1.691 -0.2829  0.6982  0.0084
 2174SOL     OW 8467   4.883   4.870   2.513 -0.1670  0.3472 -0.5781
 2174SOL    HW2 8468   4.847   4.956   2.492 -1.4167  0.0303  0.1714
 2174SOL    HW3 8469   4.977   4.885   2.523 -0.2186  1.4188 -1.4450
 2174SOL    MW4 8470   4.891   4.883   2.511 -0.1768 -0.4181  0.0070
 2175SOL     OW 8471   0.942   2.801   1.467 -0.4509 -0.0546  0.3415
 2175SOL    HW2 8472   0.953   2.779   1.375  0.7168 -0.3815  0.5447
 2175SOL    HW3 8473   0.878   2.738   1.500 -2.1595  1.1150 -0.6059
 2175SOL    MW4 8474   0.935   2.790   1.459 -0.1445 -0.5271  0.3975
 2176SOL     OW 8475   3.531   2.827   2.400  0.4325 -0.0202  0.4103
 2176SOL    HW2 8476   3.463   2.832   2.468  1.0414  0.2906  1.0119
 2176SOL    HW3 8477   3.613   2.838   2.448  0.8290  1.2100 -0.5025
 2176SOL    MW4 8478   3.533   2.829   2.416 -0.1351 -0.4121 -0.6318
 2177SOL     OW 8479   2.171   1.617   4.077 -0.0554 -0.2078 -0.4428
 2177SOL    HW2 8480   2.239   1.653   4.021  0.0545 -0.2946 -0.3661
 2177SOL    HW3 8481   2.130   1.693   4.118  0.2517 -0.1731 -0.1910
 2177SOL    MW4 8482   2.174   1.631   4.075 -0.1176 -0.4829 -0.1594
 2178SOL     OW 8483   3.965   0.952   5.535 -0.5575  0.0692  0.0764
 2178SOL    HW2 8484   3.963   0.999   5.452  2.1982  0.6883  0.2489
 2178SOL    HW3 8485   3.956   1.021   5.601 -0.0926 -0.0617  0.2844
 2178SOL    MW4 8486   3.964   0.968   5.533  0.2697  0.2772  0.6851
 2179SOL     OW 8487   0.346   6.095   5.980 -0.6305 -0.2342 -0.3406
 2179SOL    HW2 8488   0.319   6.187   5.981  0.0696  0.0438  2.8965
 2179SOL    HW3 8489   0.406   6.088   5.906 -0.6962  1.9123 -0.6537
 2179SOL    MW4 8490   0.350   6.106   5.970 -0.0759  0.3318  0.2511
 2180SOL     OW 8491   3.418   0.668   3.539 -0.2397 -0.1299  0.0474
 2180SOL    HW2 8492   3.352   0.612   3.581 -1.1030  0.6365 -0.2615
 2180SOL    HW3 8493   3.379   0.695   3.457  1.0698 -0.8446 -0.8539
 2180SOL    MW4 8494   3.404   0.664   3.534 -0.5982 -0.1647 -0.1409
 2181SOL     OW 8495   0.263   1.824   0.738  0.1891  0.5803 -0.5952
 2181SOL    HW2 8496   0.272   1.907   0.786  1.4020  1.1277 -1.6826
 2181SOL    HW3 8497   0.352   1.789   0.735  0.0543  0.2896 -1.9311
 2181SOL    MW4 8498   0.276   1.831   0.744 -0.3115 -1.0241  0.1288
 2182SOL     OW 8499   2.263   4.623   1.167  0.1311  0.1970 -0.2840
 2182SOL    HW2 8500   2.245   4.566   1.243 -0.2644  1.9878  1.0362
 2182SOL    HW3 8501   2.290   4.562   1.098  1.1567 -1.4795  1.4609
 2182SOL    MW4 8502   2.264   4.607   1.168  0.0832 -0.0356  0.1390
 2183SOL     OW 8503   3.834   0.607   5.407  0.1743 -0.5844 -0.5946
 2183SOL    HW2 8504   3.796   0.539   5.351  0.5191 -0.9224 -0.4181
 2183SOL    HW3 8505   3.877   0.667   5.346 -1.5812  0.4303 -0.9097
 2183SOL    MW4 8506   3.834   0.606   5.391  0.3109  0.3020  0.2906
 2184SOL     OW 8507   5.615   1.554   2.208  0.1066  0.1502  0.1104
 2184SOL    HW2 8508   5.574   1.637   2.234  0.6537  0.5557 -0.3221
 2184SOL    HW3 8509   5.706   1.576   2.191  0.0934 -0.4028 -0.7225
 2184SOL    MW4 8510   5.621   1.568   2.209 -0.5719  0.5060 -0.7108
 2185SOL     OW 8511   5.775   2.135   6.313  0.6175 -0.3493 -0.0631
 2185SOL    HW2 8512   5.695   2.082   6.305  1.5910 -1.6727 -1.7562
 2185SOL    HW3 8513   5.746   2.223   6.289 -0.1219 -1.0613 -2.0261
 2185SOL    MW4 8514   5.760   2.139   6.308  0.6749 -0.2324 -0.6674
 2186SOL     OW 8515   2.261   0.176   4.853  0.0819 -0.0941 -0.1138
 2186SOL    HW2 8516   2.246   0.132   4.937  0.3885  0.6248  0.3293
 2186SOL    HW3 8517   2.244   0.268   4.871  0.7299  0.1463 -0.6960
 2186SOL    MW4 8518   2.257   0.182   4.866  0.1525 -0.8610 -0.3695
 2187SOL     OW 8519   3.292   5.148   4.833  0.1457 -0.2228  0.3158
 2187SOL    HW2 8520   3.383   5.180   4.832  0.2493 -0.4761  0.9743
 2187SOL    HW3 8521   3.243   5.216   4.878  0.2198 -0.5978  0.9817
 2187SOL    MW4 8522   3.298   5.161   4.839 -0.3872 -0.1695 -0.5553
 2188SOL     OW 8523   3.207   4.406   0.334 -0.5486 -0.6918 -0.4050
 2188SOL    HW2 8524   3.163   4.452   0.405  1.3285  2.2136 -0.9403
 2188SOL    HW3 8525   3.200   4.465   0.259 -0.7533 -2.7751 -2.1488
 2188SOL    MW4 8526   3.200   4.420   0.334  0.3898 -0.7790  0.0384
 2189SOL     OW 8527   4.398   1.478   5.874  0.0561 -0.8014 -0.1172
 2189SOL    HW2 8528   4.492   1.491   5.859 -0.1626 -0.7838 -1.6243
 2189SOL    HW3 8529   4.367   1.563   5.907  0.7397 -1.1388  1.5032
 2189SOL    MW4 8530   4.406   1.491   5.877  0.2121  0.1363  0.1451
 2190SOL     OW 8531   5.421   3.200   3.449  0.4129  0.8625  0.4917
 2190SOL    HW2 8532   5.476   3.180   3.524  2.2867  3.1404 -0.1423
 2190SOL    HW3 8533   5.418   3.296   3.447 -0.6364  0.8335 -1.5824
 2190SOL    MW4 8534   5.428   3.210   3.458 -0.3583 -0.1816  0.3634
 2191SOL     OW 8535   6.105   1.961   1.067  0.4768  0.0230 -0.0128
 2191SOL    HW2 8536   6.196   1.933   1.071  0.0447 -1.4199  0.2997
 2191SOL    HW3 8537   6.088   1.974   0.974  0.7424 -0.6404 -0.1614
 2191SOL    MW4 8538   6.115   1.959   1.055 -0.0776  0.6805  0.0635
 2192SOL     OW 8539   6.023   1.283   3.318  0.7573 -0.2788  0.3348
 2192SOL    HW2 8540   6.041   1.192   3.342  0.3072 -0.5830 -0.4566
 2192SOL    HW3 8541   5.929   1.292   3.330  0.9385  0.3797  1.3705
 2192SOL    MW4 8542   6.013   1.272   3.323  0.0373  0.1475 -0.3865
 2193SOL     OW 8543   6.347   3.463   6.199 -0.1982 -0.0274  0.0268
 2193SOL    HW2 8544   6.274   3.425   6.149  0.4665 -2.1359  0.5707
 2193SOL    HW3 8545   6.404   3.389   6.218  1.0515  1.2325  1.4002
 2193SOL    MW4 8546   6.345   3.448   6.195  0.2070  0.2083  0.2888
 2194SOL     OW 8547   0.165   5.165   4.901  0.2918 -0.0711 -0.0969
 2194SOL    HW2 8548   0.147   5.079   4.864 -0.1500 -0.4877  1.0417
 2194SOL    HW3 8549   0.253   5.158   4.938  1.1877  0.6792 -1.9627
 2194SOL    MW4 8550   0.174   5.153   4.901  0.6233 -0.5824  0.2468
 2195SOL     OW 8551   4.336   5.514   1.073 -0.0694 -0.1921  0.1732
 2195SOL    HW2 8552   4.430   5.497   1.066 -0.3833 -2.2897  0.2614
 2195SOL    HW3 8553   4.315   5.500   1.165 -0.3908  0.8549  0.2721
 2195SOL    MW4 8554   4.346   5.510   1.084 -0.3390 -0.2636 -0.0061
 2196SOL     OW 8555   0.600   2.955   5.678  0.1797  0.9232  0.3295
 2196SOL    HW2 8556   0.617   2.861   5.684 -0.3760  0.9077  2.2408
 2196SOL    HW3 8557   0.684   2.996   5.698 -0.1294  0.8066  2.0412
 2196SOL    MW4 8558   0.613   2.948   5.682 -0.4760 -0.6969  0.2272
 2197SOL     OW 8559   0.544   4.361   0.109 -0.7780  0.1817 -0.0922
 2197SOL    HW2 8560   0.622   4.356   0.053 -1.7313 -1.1161 -1.3784
 2197SOL    HW3 8561   0.525   4.455   0.114  1.4412  0.6311  1.1386
 2197SOL    MW4 8562   0.552   4.373   0.102 -0.1151 -0.3666 -0.4859
 2198SOL     OW 8563   2.633   6.269   1.099  0.2276 -0.0569  0.1601
 2198SOL    HW2 8564   2.607   6.186   1.140 -3.0525 -0.3798 -2.1322
 2198SOL    HW3 8565   2.583   6.336   1.147 -0.9342 -0.0496 -0.9942
 2198SOL    MW4 8566   2.623   6.267   1.111 -0.1757  0.3767  0.3189
 2199SOL     OW 8567   0.855   2.531   0.540  0.3047  0.0906 -0.2207
 2199SOL    HW2 8568   0.950   2.527   0.526 -0.0498 -0.8296 -2.8440
 2199SOL    HW3 8569   0.825   2.441   0.534 -0.5788  0.1100  2.5807
 2199SOL    MW4 8570   0.864   2.519   0.537  0.8820  0.1345  0.2421
 2200SOL     OW 8571   3.107   1.628   1.564 -0.0697 -0.3262 -0.2188
 2200SOL    HW2 8572   3.025   1.581   1.581 -1.0664  1.6053  0.7620
 2200SOL    HW3 8573   3.158   1.570   1.508 -1.6329 -2.0792  0.0849
 2200SOL    MW4 8574   3.103   1.614   1.559 -0.6167  0.3154 -0.6960
 2201SOL     OW 8575   5.048   2.303   3.606 -0.2590 -0.3313  0.4625
 2201SOL    HW2 8576   4.973   2.356   3.580 -1.2784 -1.5454  0.8137
 2201SOL    HW3 8577   5.024   2.214   3.582  0.9306 -0.8046  0.9180
 2201SOL    MW4 8578   5.035   2.298   3.600 -0.0767  0.3182 -0.2462
 2202SOL     OW 8579   3.030   1.846   6.010  0.3034 -0.3675 -0.3680
 2202SOL    HW2 8580   2.993   1.803   6.087 -0.1597  0.4901 -0.0922
 2202SOL    HW3 8581   3.039   1.777   5.945  0.4786 -1.0554  0.3827
 2202SOL    MW4 8582   3.026   1.831   6.011 -0.2553 -0.2093  0.0515
 2203SOL     OW 8583   4.131   3.790   3.707 -0.1403  0.5264 -0.1402
 2203SOL    HW2 8584   4.126   3.774   3.801  0.8145 -0.5657 -0.2584
 2203SOL    HW3 8585   4.145   3.703   3.668  1.9187  1.2164 -1.0921
 2203SOL    MW4 8586   4.132   3.776   3.714 -0.0913  0.6308 -0.4119
 2204SOL     OW 8587   0.706   0.551   3.639 -0.1876 -0.2798  0.0933
 2204SOL    HW2 8588   0.710   0.467   3.595  0.1261 -0.0979 -0.2274
 2204SOL    HW3 8589   0.652   0.606   3.583 -0.0973 -0.1591  0.1237
 2204SOL    MW4 8590   0.699   0.547   3.626 -0.0338  0.0039  0.5060
 2205SOL     OW 8591   5.780   3.080   5.460  0.0012  0.5409 -0.4653
 2205SOL    HW2 8592   5.854   3.061   5.402  0.6800 -1.9730  1.1000
 2205SOL    HW3 8593   5.819   3.119   5.537  0.0022 -2.1475  1.0058
 2205SOL    MW4 8594   5.795   3.083   5.462 -0.2025  0.0353 -0.2452
 2206SOL     OW 8595   4.693   0.740   3.909 -0.1592  0.3167  0.3395
 2206SOL    HW2 8596   4.675   0.733   4.002  0.4546 -0.8300  0.3920
 2206SOL    HW3 8597   4.687   0.834   3.890 -1.5916  0.4304  1.2430
 2206SOL    MW4 8598   4.690   0.751   3.918  0.0879  0.8432  0.5979
 2207SOL     OW 8599   3.159   2.753   3.283  0.3709 -0.1029  0.5042
 2207SOL    HW2 8600   3.169   2.665   3.318 -1.3716 -1.3210 -1.7670
 2207SOL    HW3 8601   3.182   2.745   3.190 -1.4249  1.3730 -0.1386
 2207SOL    MW4 8602   3.163   2.740   3.275  0.8359  0.1474 -0.1991
 2208SOL     OW 8603   2.088   0.852   2.581  0.2155 -0.2140 -0.4616
 2208SOL    HW2 8604   2.074   0.815   2.668  0.1430  1.3876  0.2382
 2208SOL    HW3 8605   2.003   0.843   2.537  0.2943 -1.1631 -0.4442
 2208SOL    MW4 8606   2.075   0.846   2.586  0.6735 -0.8095 -0.3478
 2209SOL     OW 8607   5.542   4.739   1.001  0.6388  0.3829  0.1821
 2209SOL    HW2 8608   5.617   4.685   1.027  0.2215  0.3885  1.4767
 2209SOL    HW3 8609   5.468   4.678   1.001  0.2645  0.8227  1.1039
 2209SOL    MW4 8610   5.542   4.724   1.005  0.4420  0.0117  0.1258
 2210SOL     OW 8611   6.331   0.700   3.420  0.2368 -0.0759  0.3432
 2210SOL    HW2 8612   6.392   0.658   3.359 -0.5603  0.6945 -1.0293
 2210SOL    HW3 8613   6.337   0.793   3.398 -0.8197  0.0983  0.7604
 2210SOL    MW4 8614   6.340   0.707   3.409  0.1560 -0.1957 -0.5295
 2211SOL     OW 8615   2.510   0.432   1.351 -0.3723  0.0350 -0.2005
 2211SOL    HW2 8616   2.589   0.485   1.338  0.0050 -0.0617  1.4314
 2211SOL    HW3 8617   2.440   0.496   1.361 -0.2555  0.1633 -0.1950
 2211SOL    MW4 8618   2.511   0.448   1.350 -0.0283  0.3055 -0.0481
 2212SOL     OW 8619   1.794   0.576   1.719  0.3467  0.3557 -0.3228
 2212SOL    HW2 8620   1.812   0.585   1.812  0.2167 -3.2662  0.1877
 2212SOL    HW3 8621   1.867   0.620   1.676  0.6753  1.6402  1.4667
 2212SOL    MW4 8622   1.806   0.583   1.725  0.0861 -0.3786 -0.3196
 2213SOL     OW 8623   2.460   1.003   3.506  0.1542  0.4265  0.8373
 2213SOL    HW2 8624   2.482   0.910   3.507  0.2196  0.4003 -0.4909
 2213SOL    HW3 8625   2.533   1.045   3.461 -0.0620  1.0679  1.0713
 2213SOL    MW4 8626   2.472   0.996   3.500 -0.4755  0.6377  0.0518
 2214SOL     OW 8627   5.682   0.148   1.356 -0.0828 -0.5769  0.8260
 2214SOL    HW2 8628   5.616   0.216   1.346  1.0876  0.2603 -2.6087
 2214SOL    HW3 8629   5.740   0.181   1.425 -1.0171  0.5976  1.0866
 2214SOL    MW4 8630   5.681   0.162   1.364 -0.3501 -0.2852  0.1194
 2215SOL     OW 8631   5.363   6.269   3.972  0.5741 -0.0397  0.1590
 2215SOL    HW2 8632   5.363   6.178   3.944 -1.8117 -0.5529  1.5178
 2215SOL    HW3 8633   5.384   6.319   3.893 -2.0510 -1.5650 -1.6537
 2215SOL    MW4 8634   5.366   6.264   3.958 -0.2047  0.0470  1.2380
 2216SOL     OW 8635   2.495   4.966   4.247  0.8360 -0.7311  0.1806
 2216SOL    HW2 8636   2.532   4.899   4.305  0.3925 -0.8697  0.3037
 2216SOL    HW3 8637   2.553   5.041   4.257 -0.1947 -0.1497  2.0844
 2216SOL    MW4 8638   2.508   4.967   4.256 -0.1068 -0.0327 -0.1799
 2217SOL     OW 8639   4.656   1.496   0.296  0.5017 -0.2892 -0.1362
 2217SOL    HW2 8640   4.630   1.513   0.206  0.9000 -0.4787 -0.2884
 2217SOL    HW3 8641   4.642   1.402   0.309 -0.9379 -0.0284  0.4608
 2217SOL    MW4 8642   4.651   1.486   0.286 -0.6800  0.3892  0.3083
 2218SOL     OW 8643   4.033   1.914   6.365  0.1690 -0.2977  0.2577
 2218SOL    HW2 8644   4.076   1.955   6.440  0.2185  1.6351 -0.7593
 2218SOL    HW3 8645   4.097   1.921   6.295 -0.2647 -1.1441 -0.2248
 2218SOL    MW4 8646   4.047   1.921   6.366 -0.2144  0.6339  0.3612
 2219SOL     OW 8647   3.846   4.157   5.047  0.1232  0.0516  0.0780
 2219SOL    HW2 8648   3.939   4.135   5.045  0.0139 -0.5176  0.8531
 2219SOL    HW3 8649   3.843   4.252   5.045  0.6862  0.0703 -0.9115
 2219SOL    MW4 8650   3.858   4.166   5.046  0.4983  0.3459 -0.1042
 2220SOL     OW 8651   6.082   4.435   4.375 -0.3857 -0.1879 -0.9276
 2220SOL    HW2 8652   6.018   4.475   4.316  0.3854 -0.6115 -2.0947
 2220SOL    HW3 8653   6.145   4.505   4.392 -1.1734  0.2501  0.2776
 2220SOL    MW4 8654   6.082   4.449   4.369  0.6033 -0.3043  0.2452
 2221SOL     OW 8655   1.373   3.946   3.481  0.1198 -0.2952  0.2444
 2221SOL    HW2 8656   1.408   3.859   3.502  1.8798 -0.1375 -1.7497
 2221SOL    HW3 8657   1.403   4.001   3.553  1.1457 -0.8616  0.2741
 2221SOL    MW4 8658   1.381   3.941   3.493 -0.3805 -0.2567 -0.0678
 2222SOL     OW 8659   4.611   2.551   4.949 -0.2652 -0.1966  0.5265
 2222SOL    HW2 8660   4.631   2.633   4.904  0.0559 -1.0141 -0.8747
 2222SOL    HW3 8661   4.517   2.540   4.939 -0.1921 -0.3876  0.0036
 2222SOL    MW4 8662   4.601   2.561   4.942  0.7482  0.3368  0.6621
 2223SOL     OW 8663   4.438   0.790   0.704 -0.1821 -0.6877  0.2035
 2223SOL    HW2 8664   4.352   0.752   0.685 -0.0545 -1.1098  0.4790
 2223SOL    HW3 8665   4.430   0.881   0.674 -0.4395 -0.9628 -0.5929
 2223SOL    MW4 8666   4.426   0.797   0.697 -0.1809 -0.1893  0.1843
 2224SOL     OW 8667   4.541   0.266   0.615  0.4374  0.5739  0.4300
 2224SOL    HW2 8668   4.562   0.176   0.640 -1.2940  0.3193  1.0768
 2224SOL    HW3 8669   4.618   0.316   0.642  0.1143 -0.2220  3.1403
 2224SOL    MW4 8670   4.554   0.260   0.622  0.2405  0.7080 -0.2966
 2225SOL     OW 8671   4.734   2.649   0.257 -0.6944 -0.5725  0.3392
 2225SOL    HW2 8672   4.677   2.665   0.182  0.9425  0.3563 -0.7694
 2225SOL    HW3 8673   4.818   2.687   0.232  0.2615 -1.3639  2.1507
 2225SOL    MW4 8674   4.737   2.656   0.244 -0.4026 -0.0536 -0.3672
 2226SOL     OW 8675   1.238   6.377   2.706 -0.2476  0.3228  0.2689
 2226SOL    HW2 8676   1.171   6.320   2.744 -0.4371 -1.2468 -2.1857
 2226SOL    HW3 8677   1.315   6.365   2.761 -0.6353 -1.4611  0.4568
 2226SOL    MW4 8678   1.239   6.368   2.718  0.6555 -0.4535  0.3377
 2227SOL     OW 8679   4.453   2.801   0.324 -0.2340  0.1644  0.1810
 2227SOL    HW2 8680   4.537   2.768   0.355  0.3755  0.1928 -1.3344
 2227SOL    HW3 8681   4.416   2.847   0.399  1.5087  0.8909  0.6604
 2227SOL    MW4 8682   4.459   2.803   0.338 -0.1319 -0.2534 -0.2663
 2228SOL     OW 8683   3.876   3.579   4.044 -0.6301  0.2330 -0.2716
 2228SOL    HW2 8684   3.801   3.628   4.011  0.8850  1.3029 -2.3711
 2228SOL    HW3 8685   3.907   3.529   3.968  0.2854 -0.8492  0.7770
 2228SOL    MW4 8686   3.870   3.578   4.029  0.0487 -0.4740 -0.3002
 2229SOL     OW 8687   5.415   1.239   4.648  0.2269  0.2243 -0.6255
 2229SOL    HW2 8688   5.355   1.179   4.693 -0.4163  1.3159  0.0110
 2229SOL    HW3 8689   5.430   1.199   4.562 -0.1107 -0.8871 -0.1785
 2229SOL    MW4 8690   5.409   1.226   4.643 -0.0161 -0.2048 -0.4984
 2230SOL     OW 8691   5.318   0.279   4.443 -0.2370 -0.1421 -0.0823
 2230SOL    HW2 8692   5.409   0.276   4.472  0.0461  0.0032 -0.9292
 2230SOL    HW3 8693   5.266   0.272   4.523  0.5216 -0.2247  0.4007
 2230SOL    MW4 8694   5.323   0.278   4.457 -0.7983  0.8250 -0.2304
 2231SOL     OW 8695   5.127   5.920   6.386 -0.4515  0.0783  0.0244
 2231SOL    HW2 8696   5.053   5.860   6.399  0.2297 -0.7634  0.1093
 2231SOL    HW3 8697   5.201   5.876   6.429  0.2398  0.6097 -0.6021
 2231SOL    MW4 8698   5.127   5.906   6.394 -0.3007  0.4370 -0.2229
 2232SOL     OW 8699   3.371   0.576   6.372 -0.1071 -0.2179  0.7012
 2232SOL    HW2 8700   3.306   0.506   6.380  1.4295 -1.6323  1.1932
 2232SOL    HW3 8701   3.420   0.573   6.453  2.2640 -0.9253 -0.6818
 2232SOL    MW4 8702   3.369   0.566   6.384 -0.4699  0.5688  0.0784
 2233SOL     OW 8703   2.550   3.591   4.653  1.1222 -0.3995 -0.0172
 2233SOL    HW2 8704   2.487   3.524   4.681  1.7030 -1.3679 -0.9428
 2233SOL    HW3 8705   2.496   3.668   4.634  0.1852 -1.2134 -0.8104
 2233SOL    MW4 8706   2.534   3.592   4.654 -0.0184 -0.7649 -0.2257
 2234SOL     OW 8707   4.511   1.262   5.419 -0.3570  0.0286  0.3434
 2234SOL    HW2 8708   4.435   1.256   5.476 -0.3965  0.4852  0.3469
 2234SOL    HW3 8709   4.499   1.345   5.372 -0.7543 -0.7406 -0.9615
 2234SOL    MW4 8710   4.499   1.272   5.420 -0.1428  0.3128 -0.3118
 2235SOL     OW 8711   3.845   0.210   2.502 -0.4861 -0.0230 -0.0577
 2235SOL    HW2 8712   3.771   0.245   2.552 -0.0495 -2.0864  2.2250
 2235SOL    HW3 8713   3.912   0.193   2.567  0.5929 -1.7480 -1.5253
 2235SOL    MW4 8714   3.844   0.213   2.517 -0.2362  0.2973  0.3244
 2236SOL     OW 8715   6.278   3.412   4.859  0.2887 -0.5543  0.3298
 2236SOL    HW2 8716   6.237   3.352   4.795  0.2017  0.4565 -0.5849
 2236SOL    HW3 8717   6.213   3.421   4.928 -0.7760  0.4413 -0.7507
 2236SOL    MW4 8718   6.264   3.405   4.860 -0.2850  0.0450 -0.1376
 2237SOL     OW 8719   5.989   1.839   2.746  0.3691 -0.1660  0.1868
 2237SOL    HW2 8720   5.939   1.919   2.761 -0.4342 -0.4513 -0.8635
 2237SOL    HW3 8721   6.034   1.823   2.829  1.4375  1.9736  0.1082
 2237SOL    MW4 8722   5.989   1.847   2.759  0.1340 -0.6884  0.3816
 2238SOL     OW 8723   3.236   3.870   5.843  0.2969  0.0076  0.4337
 2238SOL    HW2 8724   3.282   3.943   5.800  1.5344 -1.8415 -1.5942
 2238SOL    HW3 8725   3.304   3.821   5.887 -0.4049 -0.4050  1.0805
 2238SOL    MW4 8726   3.251   3.873   5.843  0.1740 -0.6713 -0.0873
 2239SOL     OW 8727   5.938   5.557   3.587 -0.2848 -0.4863 -0.1520
 2239SOL    HW2 8728   5.897   5.471   3.580 -1.4091  0.0636 -0.5123
 2239SOL    HW3 8729   5.966   5.578   3.497  0.5903 -0.7539  0.0491
 2239SOL    MW4 8730   5.937   5.549   3.574 -0.3218  0.7289  0.2231
 2240SOL     OW 8731   5.166   1.123   3.446 -0.2129 -0.1727  0.5730
 2240SOL    HW2 8732   5.155   1.093   3.536  1.5871  1.7746  1.5248
 2240SOL    HW3 8733   5.221   1.056   3.406 -0.7069 -0.8605  1.0076
 2240SOL    MW4 8734   5.172   1.110   3.453  0.1799 -0.1291 -0.4329
 2241SOL     OW 8735   0.745   1.512   0.537 -0.1509  0.8738  0.2046
 2241SOL    HW2 8736   0.746   1.606   0.519  1.9921  1.3673  2.3529
 2241SOL    HW3 8737   0.798   1.474   0.467 -0.0465  1.4277 -0.0241
 2241SOL    MW4 8738   0.752   1.519   0.525 -0.5453  0.1057  0.6635
 2242SOL     OW 8739   4.269   1.109   1.040  0.1960  0.0555  0.4410
 2242SOL    HW2 8740   4.301   1.198   1.055  0.2863 -0.2317  2.2291
 2242SOL    HW3 8741   4.212   1.091   1.115  0.1947 -1.3816  0.1256
 2242SOL    MW4 8742   4.266   1.119   1.052  0.6200  0.7150 -0.0728
 2243SOL     OW 8743   2.591   1.916   0.665 -0.1957  0.3346  0.3031
 2243SOL    HW2 8744   2.522   1.981   0.676 -1.6911 -1.1807  0.2116
 2243SOL    HW3 8745   2.644   1.948   0.593 -2.0938  0.4954 -1.0945
 2243SOL    MW4 8746   2.589   1.928   0.657 -0.1453  0.3389  0.1355
 2244SOL     OW 8747   5.368   0.094   2.184 -0.0878  0.1636 -0.3040
 2244SOL    HW2 8748   5.369   0.183   2.217  0.0789  0.4047 -0.9479
 2244SOL    HW3 8749   5.370   0.039   2.262  0.0096  0.7192  0.0865
 2244SOL    MW4 8750   5.368   0.098   2.198  0.3764  0.2377  0.3927
 2245SOL     OW 8751   0.784   3.055   1.409 -0.3856  0.2644 -0.0963
 2245SOL    HW2 8752   0.808   3.040   1.317  0.1711  0.9413 -0.0659
 2245SOL    HW3 8753   0.794   2.969   1.450  0.0344  0.1023 -0.5238
 2245SOL    MW4 8754   0.789   3.042   1.402 -0.1798  0.4397 -0.3711
 2246SOL     OW 8755   0.091   0.447   2.456 -0.3418  0.2977 -0.2230
 2246SOL    HW2 8756   0.043   0.370   2.427  2.2019 -0.6844 -2.1879
 2246SOL    HW3 8757   0.149   0.469   2.383  2.2663  1.2910  1.9560
 2246SOL    MW4 8758   0.092   0.440   2.443 -0.0787 -0.0987 -0.0686
 2247SOL     OW 8759   1.352   3.481   1.670  0.0466  0.2892 -0.0568
 2247SOL    HW2 8760   1.338   3.422   1.595  3.7790  1.0312 -1.5555
 2247SOL    HW3 8761   1.427   3.443   1.716 -1.1520  0.7692  2.4698
 2247SOL    MW4 8762   1.360   3.468   1.666  0.2340  0.4695 -0.5568
 2248SOL     OW 8763   4.459   5.389   0.231  0.0710 -0.1460  0.1581
 2248SOL    HW2 8764   4.415   5.304   0.233 -0.5682 -0.0776 -3.4112
 2248SOL    HW3 8765   4.389   5.453   0.246 -0.2384 -0.1957 -0.9446
 2248SOL    MW4 8766   4.444   5.387   0.233  1.1021  0.2382 -0.4686
 2249SOL     OW 8767   5.697   5.172   5.254  0.5136  0.9261  0.2694
 2249SOL    HW2 8768   5.680   5.262   5.229  1.7742  1.2169  0.3996
 2249SOL    HW3 8769   5.786   5.155   5.224 -0.1218 -0.6871 -0.8700
 2249SOL    MW4 8770   5.706   5.181   5.247 -0.2895 -0.1112 -0.3807
 2250SOL     OW 8771   3.218   3.206   2.338  0.1748 -0.5104  0.0573
 2250SOL    HW2 8772   3.229   3.294   2.303 -0.1537 -0.9413 -1.1948
 2250SOL    HW3 8773   3.280   3.201   2.411 -0.0277  0.8451  0.3504
 2250SOL    MW4 8774   3.227   3.217   2.343 -0.3523  0.4783 -0.1661
 2251SOL     OW 8775   6.184   1.783   2.935  0.2622 -0.9204  0.1998
 2251SOL    HW2 8776   6.147   1.713   2.989 -1.8591 -0.8375 -1.0432
 2251SOL    HW3 8777   6.219   1.737   2.859 -0.8017 -0.7018 -0.4419
 2251SOL    MW4 8778   6.184   1.767   2.932 -0.8514  0.5876 -0.0134
 2252SOL     OW 8779   4.243   5.052   4.280  0.3305 -0.0130 -0.3294
 2252SOL    HW2 8780   4.262   5.020   4.368 -1.9965 -0.5626  0.0506
 2252SOL    HW3 8781   4.185   5.126   4.294  1.0268  0.7514 -1.3927
 2252SOL    MW4 8782   4.238   5.057   4.294  0.5704  0.3862  0.1256
 2253SOL     OW 8783   0.299   4.346   5.219 -0.0259  0.4158 -0.1341
 2253SOL    HW2 8784   0.237   4.416   5.240 -0.0514  0.8196 -1.4405
 2253SOL    HW3 8785   0.250   4.288   5.160  0.9235  0.9336 -1.4761
 2253SOL    MW4 8786   0.284   4.347   5.214 -0.1124  0.1026  0.3845
 2254SOL     OW 8787   6.087   0.098   3.969  0.0061  1.3367 -0.2469
 2254SOL    HW2 8788   6.029   0.117   4.042 -1.1384  0.0291 -0.7719
 2254SOL    HW3 8789   6.141   0.024   3.999  0.2692  1.4898 -0.3405
 2254SOL    MW4 8790   6.086   0.090   3.983  0.3428 -0.7655  0.5951
 2255SOL     OW 8791   5.896   2.953   6.359 -0.3362 -0.1822  0.2444
 2255SOL    HW2 8792   5.838   2.904   6.301  0.2065 -0.5892  0.0331
 2255SOL    HW3 8793   5.947   2.885   6.403  0.6162  0.1968 -0.2486
 2255SOL    MW4 8794   5.895   2.937   6.357  0.6617 -0.5963  0.0001
 2256SOL     OW 8795   3.100   6.174   1.162  0.1870  0.3918 -0.1876
 2256SOL    HW2 8796   3.180   6.151   1.209  0.2269 -0.2324 -0.5494
 2256SOL    HW3 8797   3.029   6.142   1.218  0.2081  0.5000 -0.1002
 2256SOL    MW4 8798   3.101   6.167   1.176 -0.2335  0.5503  0.5591
 2257SOL     OW 8799   4.722   2.213   5.640 -0.4669 -0.1677 -0.1342
 2257SOL    HW2 8800   4.788   2.249   5.580  0.2659  0.8341  1.2056
 2257SOL    HW3 8801   4.772   2.154   5.696 -0.6500  0.7657  1.0316
 2257SOL    MW4 8802   4.737   2.210   5.639 -0.0821 -0.1647 -0.3236
 2258SOL     OW 8803   2.698   3.658   3.616  0.3861 -0.3525 -0.2701
 2258SOL    HW2 8804   2.759   3.712   3.666  1.7866 -1.1362 -1.0637
 2258SOL    HW3 8805   2.613   3.672   3.658  1.2540  0.0794  1.4452
 2258SOL    MW4 8806   2.695   3.667   3.628 -0.5138  0.1784  0.4541
 2259SOL     OW 8807   4.958   3.476   2.927  0.1863  0.7578  0.4778
 2259SOL    HW2 8808   4.982   3.525   3.005  0.5639  0.7003  0.4009
 2259SOL    HW3 8809   4.932   3.543   2.863 -0.9558  0.7567  0.9284
 2259SOL    MW4 8810   4.958   3.491   2.929 -0.0525  0.4393 -0.4260
 2260SOL     OW 8811   1.659   2.067   4.085 -0.0595 -0.5381  0.7840
 2260SOL    HW2 8812   1.583   2.110   4.047  0.9698  0.6430  0.0016
 2260SOL    HW3 8813   1.679   2.119   4.163  0.0606 -0.7296  0.8810
 2260SOL    MW4 8814   1.652   2.080   4.091  0.1282 -0.2522  0.3814
 2261SOL     OW 8815   1.175   0.932   4.004  0.0959 -0.1182  0.3499
 2261SOL    HW2 8816   1.122   0.891   3.936  1.0723  1.5940 -1.5933
 2261SOL    HW3 8817   1.227   0.861   4.041 -0.7295 -1.1676 -0.4584
 2261SOL    MW4 8818   1.175   0.917   4.000  0.1618  0.1391  0.2318
 2262SOL     OW 8819   3.541   4.170   0.490  0.2176  0.1587 -0.1492
 2262SOL    HW2 8820   3.448   4.157   0.509 -0.1184  1.6196 -0.6760
 2262SOL    HW3 8821   3.565   4.096   0.434 -0.3706 -0.7478  0.7550
 2262SOL    MW4 8822   3.532   4.158   0.485 -0.3054 -0.4077  0.5044
 2263SOL     OW 8823   4.285   6.138   2.572 -0.5161 -0.1304  0.3103
 2263SOL    HW2 8824   4.345   6.144   2.647 -0.1844 -0.5266  0.0801
 2263SOL    HW3 8825   4.251   6.227   2.561  1.4481  0.5532 -0.7089
 2263SOL    MW4 8826   4.288   6.151   2.580 -0.5294 -0.3860 -0.2569
 2264SOL     OW 8827   5.403   2.801   4.904 -0.2565  0.6004  0.0064
 2264SOL    HW2 8828   5.457   2.758   4.969  1.3370 -1.1778 -2.3401
 2264SOL    HW3 8829   5.367   2.877   4.950  1.4210 -0.0658  2.6691
 2264SOL    MW4 8830   5.405   2.806   4.919 -1.0528  0.1033  0.1044
 2265SOL     OW 8831   1.309   6.466   5.636  0.2029  0.9365  0.1658
 2265SOL    HW2 8832   1.311   6.510   5.721 -1.2804 -0.0403  0.7476
 2265SOL    HW3 8833   1.358   6.385   5.650  0.9797  1.3177 -0.2665
 2265SOL    MW4 8834   1.316   6.461   5.649 -0.1792 -0.3757 -0.2720
 2266SOL     OW 8835   4.909   5.317   3.357  0.5655 -0.5178  0.1351
 2266SOL    HW2 8836   4.916   5.257   3.283  0.4662  0.3109 -0.5622
 2266SOL    HW3 8837   4.998   5.325   3.391  0.7284 -0.3789 -0.3191
 2266SOL    MW4 8838   4.921   5.310   3.352  0.2048  0.4708  0.5556
 2267SOL     OW 8839   4.932   2.808   4.008  0.1411 -0.0016  0.0734
 2267SOL    HW2 8840   4.847   2.778   4.041 -0.1197  1.0976  0.4311
 2267SOL    HW3 8841   4.927   2.792   3.913 -1.3389  2.0171 -0.2563
 2267SOL    MW4 8842   4.920   2.802   4.000  0.5864 -0.2414  0.4367
 2268SOL     OW 8843   3.098   1.377   0.181  0.1327  0.7078 -0.0322
 2268SOL    HW2 8844   3.090   1.417   0.094  1.7482  2.6399  0.6156
 2268SOL    HW3 8845   3.044   1.433   0.238 -1.9863 -1.3118  0.0625
 2268SOL    MW4 8846   3.090   1.390   0.177  0.5704 -0.1418 -0.4067
 2269SOL     OW 8847   2.213   1.082   2.877  0.4721 -0.2639 -0.3073
 2269SOL    HW2 8848   2.275   1.030   2.826 -1.3137 -0.8641 -1.9838
 2269SOL    HW3 8849   2.133   1.082   2.825 -0.5104  1.7196  1.0622
 2269SOL    MW4 8850   2.211   1.075   2.863  0.0977  0.0775 -0.1144
 2270SOL     OW 8851   3.539   4.368   4.125 -0.4454  0.2490 -0.3538
 2270SOL    HW2 8852   3.515   4.440   4.183 -0.6442 -1.1351  1.3439
 2270SOL    HW3 8853   3.633   4.380   4.110 -0.0308 -0.2706  1.6113
 2270SOL    MW4 8854   3.548   4.379   4.130  0.0607  0.6453  0.1770
 2271SOL     OW 8855   6.294   1.447   2.270 -0.5413 -0.3058  0.4551
 2271SOL    HW2 8856   6.301   1.526   2.323  0.8645 -0.3602  0.3793
 2271SOL    HW3 8857   6.360   1.388   2.305  0.1737 -0.4822 -1.1026
 2271SOL    MW4 8858   6.303   1.450   2.281  0.0316  0.6312  0.0342
 2272SOL     OW 8859   1.036   0.453   3.566  0.0685  0.6354 -0.1259
 2272SOL    HW2 8860   0.965   0.499   3.521 -0.8050  1.1252  1.6624
 2272SOL    HW3 8861   1.019   0.361   3.551 -0.0224  0.7992 -1.0501
 2272SOL    MW4 8862   1.025   0.447   3.558 -0.7522  0.1051  0.2459
 2273SOL     OW 8863   0.457   3.568   0.880  0.2439 -0.5486  0.5259
 2273SOL    HW2 8864   0.533   3.611   0.919  0.7613  0.8139 -1.7911
 2273SOL    HW3 8865   0.382   3.615   0.917  0.6884  0.3235  0.3418
 2273SOL    MW4 8866   0.457   3.580   0.890 -0.2600 -0.2929  0.2538
 2274SOL     OW 8867   0.823   6.205   1.117 -0.3202  0.3612  0.1014
 2274SOL    HW2 8868   0.798   6.261   1.191 -1.4372  1.3395 -0.9759
 2274SOL    HW3 8869   0.849   6.266   1.049  0.5394 -0.5265 -0.3889
 2274SOL    MW4 8870   0.823   6.220   1.118 -0.5745  0.3403 -0.7019
 2275SOL     OW 8871   4.829   5.792   5.352  0.7576 -0.4930  0.5676
 2275SOL    HW2 8872   4.749   5.773   5.401 -0.3667  0.1578 -0.9694
 2275SOL    HW3 8873   4.821   5.884   5.327  1.4162 -0.7506 -0.6400
 2275SOL    MW4 8874   4.818   5.802   5.355  0.1371  0.2343  0.3706
 2276SOL     OW 8875   1.833   2.379   5.855  0.3307 -0.3595 -0.5964
 2276SOL    HW2 8876   1.741   2.406   5.862  1.3392  3.0397  2.7674
 2276SOL    HW3 8877   1.854   2.342   5.940  2.8548  2.2787  0.1045
 2276SOL    MW4 8878   1.824   2.378   5.867  0.1341 -0.8707  0.1161
 2277SOL     OW 8879   2.726   5.248   5.685 -0.5125  0.6789 -0.5882
 2277SOL    HW2 8880   2.683   5.198   5.754  1.8926  1.5012  1.6842
 2277SOL    HW3 8881   2.692   5.337   5.694 -0.6604  0.6530 -0.8855
 2277SOL    MW4 8882   2.716   5.253   5.695  0.4042 -0.7948 -0.0055
 2278SOL     OW 8883   5.722   5.364   6.080  0.0213  0.2836  0.1775
 2278SOL    HW2 8884   5.810   5.401   6.078  0.2285 -0.2308 -1.0516
 2278SOL    HW3 8885   5.666   5.435   6.111  0.9785  0.3386  1.9083
 2278SOL    MW4 8886   5.726   5.378   6.084 -0.3352 -0.2190 -0.0461
 2279SOL     OW 8887   5.899   3.748   5.862 -0.5753  0.1556  0.2377
 2279SOL    HW2 8888   5.958   3.772   5.791  0.0281  0.0486  0.6870
 2279SOL    HW3 8889   5.945   3.776   5.942 -1.4311  0.6557  0.5601
 2279SOL    MW4 8890   5.913   3.755   5.863 -0.8781 -0.0544  0.3517
 2280SOL     OW 8891   6.045   0.165   6.155  0.3730 -0.0144 -0.0616
 2280SOL    HW2 8892   6.004   0.124   6.079  0.0548  1.3177 -0.6319
 2280SOL    HW3 8893   5.981   0.155   6.226  0.0996 -0.0893 -0.3176
 2280SOL    MW4 8894   6.031   0.158   6.155 -0.4757 -0.6533 -0.0884
 2281SOL     OW 8895   3.747   4.775   6.041  0.0635  0.3317  0.4745
 2281SOL    HW2 8896   3.742   4.849   5.981  1.5067 -0.5019 -0.7362
 2281SOL    HW3 8897   3.660   4.771   6.082 -1.3757  0.2685 -2.3592
 2281SOL    MW4 8898   3.735   4.784   6.039 -0.4290 -0.2389 -0.0784
 2282SOL     OW 8899   0.296   2.640   6.311 -0.3455  0.1573 -0.0133
 2282SOL    HW2 8900   0.205   2.661   6.293 -0.0458  1.4157 -0.1551
 2282SOL    HW3 8901   0.307   2.551   6.279 -1.2502  0.3747 -0.9895
 2282SOL    MW4 8902   0.286   2.631   6.305  0.3309 -0.3169 -0.0310
 2283SOL     OW 8903   4.833   5.293   6.137 -0.5369  0.4422 -0.3485
 2283SOL    HW2 8904   4.837   5.219   6.076 -1.4430 -0.8344  1.0676
 2283SOL    HW3 8905   4.924   5.311   6.160 -0.3837 -1.6322  0.8665
 2283SOL    MW4 8906   4.846   5.286   6.132  0.3337 -0.5969 -0.0786
 2284SOL     OW 8907   5.364   1.444   3.966 -0.1188  0.6652 -0.0564
 2284SOL    HW2 8908   5.369   1.539   3.981  1.2491  0.8859 -1.5557
 2284SOL    HW3 8909   5.408   1.406   4.042 -2.3558  1.0752  1.5221
 2284SOL    MW4 8910   5.371   1.452   3.978 -0.6991  0.5351 -0.0095
 2285SOL     OW 8911   0.465   0.727   6.160  0.0027  0.4515  0.5626
 2285SOL    HW2 8912   0.528   0.692   6.223  1.8132 -1.2438 -1.9586
 2285SOL    HW3 8913   0.382   0.728   6.206  1.2584 -0.4659  3.0031
 2285SOL    MW4 8914   0.463   0.723   6.174 -0.0006  0.3332  0.6824
 2286SOL     OW 8915   0.101   0.367   3.720  0.0372 -0.0254  0.1340
 2286SOL    HW2 8916   0.184   0.320   3.729  0.1000 -0.3426 -1.7202
 2286SOL    HW3 8917   0.057   0.324   3.646 -0.9276  1.3727 -0.1450
 2286SOL    MW4 8918   0.106   0.355   3.711 -0.0992  0.1741 -0.2221
 2287SOL     OW 8919   0.227   6.344   4.767  0.4487 -0.2669  0.2263
 2287SOL    HW2 8920   0.134   6.327   4.746  0.4647  0.6611 -0.6902
 2287SOL    HW3 8921   0.273   6.325   4.685  0.6905  2.1726 -0.2937
 2287SOL    MW4 8922   0.220   6.339   4.753  0.2767  0.2048  0.2081
 2288SOL     OW 8923   0.511   2.241   0.393 -0.2966  0.2342 -0.0361
 2288SOL    HW2 8924   0.493   2.303   0.323 -0.2316 -0.7951 -0.9929
 2288SOL    HW3 8925   0.432   2.243   0.447  1.1105  3.9719  2.2599
 2288SOL    MW4 8926   0.498   2.249   0.391 -0.6303  0.0672  0.2165
 2289SOL     OW 8927   4.227   6.163   3.890  0.0632 -0.5200  0.0735
 2289SOL    HW2 8928   4.210   6.071   3.867  1.0255 -0.2440 -1.9355
 2289SOL    HW3 8929   4.311   6.182   3.849 -0.8806  1.7340 -0.9758
 2289SOL    MW4 8930   4.236   6.153   3.882 -0.0428  0.4706 -0.2625
 2290SOL     OW 8931   2.587   2.378   3.056  0.2975 -0.1088  0.3733
 2290SOL    HW2 8932   2.566   2.299   3.007  1.5980  1.0115 -2.1861
 2290SOL    HW3 8933   2.660   2.353   3.113 -1.8236 -1.6704  2.5646
 2290SOL    MW4 8934   2.594   2.364   3.057  0.0151  0.6022  0.2873
 2291SOL     OW 8935   2.509   6.358   4.477  0.0860 -0.4213 -0.1230
 2291SOL    HW2 8936   2.427   6.350   4.429 -0.9211 -0.6952  1.5574
 2291SOL    HW3 8937   2.488   6.416   4.551  0.9112 -1.9054  1.3362
 2291SOL    MW4 8938   2.496   6.365   4.480 -0.3131  0.4099 -0.3228
 2292SOL     OW 8939   3.982   3.043   2.153 -0.1053 -0.2441 -0.1137
 2292SOL    HW2 8940   3.935   3.062   2.234 -0.7098 -2.0241  0.0019
 2292SOL    HW3 8941   4.073   3.032   2.180  0.2801  2.1952 -0.1859
 2292SOL    MW4 8942   3.988   3.044   2.167 -0.0513  0.2798  0.3287
 2293SOL     OW 8943   5.114   1.288   5.326  0.3266 -0.5218 -0.1825
 2293SOL    HW2 8944   5.118   1.265   5.233  0.5846  0.6191 -0.4720
 2293SOL    HW3 8945   5.206   1.296   5.353  0.2935 -2.3331  0.5832
 2293SOL    MW4 8946   5.127   1.286   5.318 -0.1286 -0.0432 -0.4736
 2294SOL     OW 8947   3.222   0.554   5.318  0.3338  0.6050  0.6500
 2294SOL    HW2 8948   3.254   0.483   5.263 -2.3973  1.2460 -2.0423
 2294SOL    HW3 8949   3.131   0.532   5.337 -0.5251  3.1025 -0.0409
 2294SOL    MW4 8950   3.214   0.542   5.313  0.1915  0.0479  0.2869
 2295SOL     OW 8951   5.140   1.307   4.356  0.6082 -0.4398  0.4606
 2295SOL    HW2 8952   5.057   1.336   4.319 -0.1592 -0.9360  1.7179
 2295SOL    HW3 8953   5.115   1.252   4.430  2.0592 -1.5336  0.1742
 2295SOL    MW4 8954   5.126   1.304   4.361 -0.6010 -1.0505 -0.0805
 2296SOL     OW 8955   0.018   5.016   5.994 -0.4726 -0.0290  0.5747
 2296SOL    HW2 8956   0.010   5.056   6.081 -0.3059  1.1322  0.0679
 2296SOL    HW3 8957  -0.069   4.978   5.977 -0.5210 -0.2145  1.2229
 2296SOL    MW4 8958   0.005   5.016   6.003 -0.8395  0.2965  0.4062
 2297SOL     OW 8959   0.211   2.006   6.155 -0.5589 -0.2901  0.0893
 2297SOL    HW2 8960   0.172   1.995   6.068  0.6708  0.1764 -0.5480
 2297SOL    HW3 8961   0.300   2.036   6.138 -0.7215  1.2102  1.5379
 2297SOL    MW4 8962   0.218   2.009   6.141 -0.2563  0.8071 -0.2699
 2298SOL     OW 8963   0.282   5.580   1.233  0.3970 -0.7811  0.0357
 2298SOL    HW2 8964   0.375   5.584   1.254  0.7233 -0.0997 -1.4134
 2298SOL    HW3 8965   0.238   5.622   1.307  1.1681 -1.6871  1.0339
 2298SOL    MW4 8966   0.288   5.586   1.246 -0.5451  0.3114  0.2498
 2299SOL     OW 8967   1.660   2.425   3.673 -0.0732  0.6002 -0.1856
 2299SOL    HW2 8968   1.619   2.510   3.688 -0.0840  0.6640 -0.5600
 2299SOL    HW3 8969   1.746   2.431   3.714  0.3576  1.1724 -1.1484
 2299SOL    MW4 8970   1.666   2.437   3.680 -0.9108  0.2528  0.2801
 2300SOL     OW 8971   6.038   5.586   3.319  0.9380  0.1076 -0.1799
 2300SOL    HW2 8972   5.982   5.630   3.256  0.5766 -0.1597 -0.0528
 2300SOL    HW3 8973   6.090   5.524   3.267  0.8398  0.0844 -0.2499
 2300SOL    MW4 8974   6.038   5.583   3.304 -0.2439  0.0274  0.2449
 2301SOL     OW 8975   0.596   6.170   5.803 -0.1679 -0.2089  0.2843
 2301SOL    HW2 8976   0.667   6.132   5.854  0.0820 -0.0291  0.0769
 2301SOL    HW3 8977   0.615   6.264   5.803  0.3487 -0.2889 -0.8972
 2301SOL    MW4 8978   0.608   6.178   5.809 -0.0352 -0.0446  0.1158
 2302SOL     OW 8979   4.855   3.770   1.693 -0.1299 -0.0290 -0.3262
 2302SOL    HW2 8980   4.910   3.786   1.617  1.0167 -0.5273  0.3597
 2302SOL    HW3 8981   4.789   3.708   1.663 -0.0764  0.2633 -1.0664
 2302SOL    MW4 8982   4.853   3.764   1.679 -1.1036  0.3203 -0.0261
 2303SOL     OW 8983   1.702   2.248   1.626 -0.7330 -0.6595 -0.6233
 2303SOL    HW2 8984   1.686   2.227   1.718 -0.9924 -0.4932 -0.6279
 2303SOL    HW3 8985   1.615   2.247   1.586 -0.5445 -1.4208 -1.0166
 2303SOL    MW4 8986   1.689   2.245   1.633  0.5775  0.1721  0.0685
 2304SOL     OW 8987   3.739   4.460   0.181 -0.7749  0.1412  0.0032
 2304SOL    HW2 8988   3.788   4.465   0.263 -1.4367  1.8382  0.3294
 2304SOL    HW3 8989   3.654   4.423   0.206  0.8344 -4.8571 -0.8809
 2304SOL    MW4 8990   3.734   4.456   0.195 -0.1352 -0.3718  0.3554
 2305SOL     OW 8991   3.908   1.669   0.891  0.0706  0.5170  0.2913
 2305SOL    HW2 8992   3.920   1.583   0.852  1.0064  1.2675 -1.1503
 2305SOL    HW3 8993   3.829   1.660   0.945 -1.6493 -0.4701 -2.1891
 2305SOL    MW4 8994   3.899   1.656   0.893 -0.0254 -0.5000 -0.7666
 2306SOL     OW 8995   5.234   2.575   0.069 -0.2369 -0.1889  0.2552
 2306SOL    HW2 8996   5.224   2.600  -0.023 -0.1942 -0.7370  0.0997
 2306SOL    HW3 8997   5.217   2.656   0.117  0.1205  0.1923 -0.2466
 2306SOL    MW4 8998   5.230   2.589   0.063 -0.6116  0.3654  0.2203
 2307SOL     OW 8999   3.941   2.640   4.315 -0.1901 -0.1044  0.1759
 2307SOL    HW2 9000   3.952   2.587   4.236  0.4963  1.5713 -0.9048
 2307SOL    HW3 9001   3.908   2.578   4.380 -1.4502 -1.4056 -1.5809
 2307SOL    MW4 9002   3.938   2.625   4.313  0.1775  0.1065 -0.4962
 2308SOL     OW 9003   2.441   2.456   5.319  0.0210 -0.1682 -0.3799
 2308SOL    HW2 9004   2.433   2.487   5.409 -0.7656 -0.6397 -0.2795
 2308SOL    HW3 9005   2.352   2.428   5.295  0.3147 -0.4837 -1.1396
 2308SOL    MW4 9006   2.428   2.456   5.328 -0.0368  0.8088 -0.8285
 2309SOL     OW 9007   2.174   0.763   2.148 -0.1594 -0.1390 -0.0066
 2309SOL    HW2 9008   2.241   0.768   2.079 -1.4676  1.4703 -1.2416
 2309SOL    HW3 9009   2.222   0.733   2.225  1.7225 -0.2849 -1.1619
 2309SOL    MW4 9010   2.189   0.760   2.149 -0.0387  0.3743 -0.5794
 2310SOL     OW 9011   0.954   0.344   2.735 -0.1931  0.6106  0.2481
 2310SOL    HW2 9012   0.968   0.373   2.645  1.0033 -0.2078  0.1508
 2310SOL    HW3 9013   1.040   0.352   2.776 -0.5718  0.2947  1.1187
 2310SOL    MW4 9014   0.967   0.349   2.728 -0.5945  0.4868 -0.0126
 2311SOL     OW 9015   2.623   3.607   1.507 -0.3089  0.0567 -0.3177
 2311SOL    HW2 9016   2.591   3.665   1.439  1.2619  0.5992 -0.6224
 2311SOL    HW3 9017   2.614   3.519   1.470 -0.3255  0.2869 -0.8638
 2311SOL    MW4 9018   2.618   3.603   1.493 -0.2925  0.4813  0.8219
 2312SOL     OW 9019   4.350   0.581   5.281 -0.4553 -0.4057  0.7239
 2312SOL    HW2 9020   4.300   0.598   5.361 -1.3395 -0.3455  0.1744
 2312SOL    HW3 9021   4.343   0.662   5.231  1.1609  0.0132  1.1204
 2312SOL    MW4 9022   4.343   0.594   5.285 -0.1064  0.0914  0.3477
 2313SOL     OW 9023   3.751   6.107   4.532  0.3250  0.2459 -0.5049
 2313SOL    HW2 9024   3.825   6.059   4.569 -0.3356  0.6576  1.5033
 2313SOL    HW3 9025   3.684   6.041   4.517 -0.1032  0.2867  0.9992
 2313SOL    MW4 9026   3.752   6.092   4.535  0.2966 -0.1267 -1.0926
 2314SOL     OW 9027   1.617   4.820   5.206  0.2647  0.0246  0.1947
 2314SOL    HW2 9028   1.572   4.740   5.176 -1.5534  0.3913  1.7738
 2314SOL    HW3 9029   1.574   4.891   5.158 -0.5185  0.3346  1.3254
 2314SOL    MW4 9030   1.605   4.819   5.195 -0.5210  0.2269 -0.0929
 2315SOL     OW 9031   4.852   1.187   4.996 -0.1987  0.8045  0.5464
 2315SOL    HW2 9032   4.938   1.221   4.970  0.4410 -1.5575 -0.7693
 2315SOL    HW3 9033   4.872   1.106   5.042 -1.6939  1.1845  1.9457
 2315SOL    MW4 9034   4.866   1.181   4.998 -0.3522  0.0997  0.0140
 2316SOL     OW 9035   4.089   6.254   4.369  0.3984  0.4802 -0.6351
 2316SOL    HW2 9036   4.147   6.330   4.360  0.4605  0.4053 -0.8846
 2316SOL    HW3 9037   4.131   6.200   4.436  0.8687  0.2039 -1.1414
 2316SOL    MW4 9038   4.102   6.257   4.377 -0.1275 -0.0034 -0.3494
 2317SOL     OW 9039   5.647   5.937   1.923 -0.1170  0.5212  0.3595
 2317SOL    HW2 9040   5.602   6.021   1.933  0.2433  0.7878 -0.2063
 2317SOL    HW3 9041   5.650   5.900   2.011 -1.3372  0.5521  0.4345
 2317SOL    MW4 9042   5.641   5.943   1.936  0.0782  0.2615  0.2169
 2318SOL     OW 9043   4.533   1.586   4.931 -0.4868 -0.4436 -0.0906
 2318SOL    HW2 9044   4.456   1.618   4.978 -0.3999 -0.2432 -0.0814
 2318SOL    HW3 9045   4.514   1.494   4.914  0.0606 -0.8850  1.5291
 2318SOL    MW4 9046   4.520   1.578   4.935  0.1664 -0.1772  0.1881
 2319SOL     OW 9047   2.248   0.103   1.466 -0.2360 -0.0904 -0.2579
 2319SOL    HW2 9048   2.266   0.012   1.443 -0.6977 -0.2197 -0.1092
 2319SOL    HW3 9049   2.288   0.154   1.395 -0.3882 -0.4284 -0.5866
 2319SOL    MW4 9050   2.256   0.098   1.453  0.1228 -0.1835 -0.0839
 2320SOL     OW 9051   4.608   3.269   1.147 -0.1322  0.0430 -0.2248
 2320SOL    HW2 9052   4.546   3.274   1.075 -1.0790  3.2591  0.6426
 2320SOL    HW3 9053   4.558   3.294   1.224  1.7719  0.8339  0.8331
 2320SOL    MW4 9054   4.593   3.273   1.148  0.1039 -0.2520  0.0751
 2321SOL     OW 9055   2.676   2.375   3.676  0.2810 -0.1889 -0.3955
 2321SOL    HW2 9056   2.673   2.438   3.747  0.7331 -1.3162  0.6506
 2321SOL    HW3 9057   2.644   2.293   3.714  0.8306 -0.9014 -1.3940
 2321SOL    MW4 9058   2.671   2.372   3.690  0.1060  0.0518 -0.5967
 2322SOL     OW 9059   1.926   4.097   0.277  0.2056 -0.0039  0.1753
 2322SOL    HW2 9060   1.939   4.087   0.371 -2.3895  0.9463  0.7190
 2322SOL    HW3 9061   1.832   4.085   0.264  0.2898  1.1818 -2.1303
 2322SOL    MW4 9062   1.915   4.094   0.288 -0.2142  0.6001 -0.4353
 2323SOL     OW 9063   4.466   2.118   0.434  0.3710 -0.0380 -0.4708
 2323SOL    HW2 9064   4.460   2.025   0.456  2.0691  0.2343  1.5836
 2323SOL    HW3 9065   4.548   2.146   0.475 -1.4702  2.9783  1.5511
 2323SOL    MW4 9066   4.476   2.109   0.443 -0.7826  0.3052 -0.6484
 2324SOL     OW 9067   1.304   5.959   0.452  0.1321 -0.0147 -0.0348
 2324SOL    HW2 9068   1.314   5.959   0.357 -1.1691 -0.0024 -0.1889
 2324SOL    HW3 9069   1.283   6.050   0.474 -3.0838 -0.5908 -0.2019
 2324SOL    MW4 9070   1.303   5.971   0.443 -0.2892  0.1524  0.0294
 2325SOL     OW 9071   1.046   2.788   4.369 -0.6119 -0.1411 -0.7479
 2325SOL    HW2 9072   0.998   2.826   4.442 -1.2583  1.3566 -1.8948
 2325SOL    HW3 9073   1.049   2.857   4.303  2.5765 -0.3520 -1.0129
 2325SOL    MW4 9074   1.040   2.802   4.370  0.4605 -0.5483  0.1602
 2326SOL     OW 9075   0.216   3.690   0.989  0.5523  0.7640  0.2641
 2326SOL    HW2 9076   0.199   3.782   0.971 -0.8241  0.0623 -2.7706
 2326SOL    HW3 9077   0.130   3.653   1.010  1.3400  0.4159  3.2493
 2326SOL    MW4 9078   0.202   3.697   0.989 -0.2679 -0.4666  0.2982
 2327SOL     OW 9079   1.849   6.283   1.540  0.4059  0.2156 -0.0511
 2327SOL    HW2 9080   1.847   6.315   1.450  0.7704 -1.4475 -0.6899
 2327SOL    HW3 9081   1.923   6.330   1.581 -0.1549  1.4399 -0.4088
 2327SOL    MW4 9082   1.859   6.293   1.534  0.3651 -0.2194  0.1770
 2328SOL     OW 9083   3.305   5.791   6.074 -0.3811  0.2875  0.2944
 2328SOL    HW2 9084   3.308   5.701   6.105  0.0614  0.3999  0.5975
 2328SOL    HW3 9085   3.388   5.829   6.104 -1.4289  1.3847  1.9783
 2328SOL    MW4 9086   3.317   5.784   6.082  0.5505 -0.2742  0.2258
 2329SOL     OW 9087   4.079   4.924   1.023 -0.0204  0.7528 -0.3337
 2329SOL    HW2 9088   4.137   4.914   1.099 -1.8756  1.6354  1.3229
 2329SOL    HW3 9089   3.991   4.910   1.059 -0.9874  1.3345 -2.3285
 2329SOL    MW4 9090   4.075   4.921   1.038  0.1789 -0.4674  0.9922
 2330SOL     OW 9091   0.375   1.661   5.355  0.0233  0.8178 -0.0853
 2330SOL    HW2 9092   0.392   1.755   5.359  1.5772  0.5231  1.3060
 2330SOL    HW3 9093   0.388   1.638   5.263 -1.5343  2.1306 -0.6729
 2330SOL    MW4 9094   0.379   1.670   5.343 -0.2285  0.2246  0.6608
 2331SOL     OW 9095   3.412   3.423   3.367 -0.1078 -0.2556 -0.3294
 2331SOL    HW2 9096   3.389   3.418   3.460 -1.3993 -1.1986 -0.6807
 2331SOL    HW3 9097   3.356   3.492   3.332  0.3994  0.1189 -0.4212
 2331SOL    MW4 9098   3.402   3.432   3.375 -0.2886  0.2136  0.1422
 2332SOL     OW 9099   5.370   0.260   0.863  0.0726  1.1335 -0.1510
 2332SOL    HW2 9100   5.370   0.332   0.800 -0.4599  2.7753  1.6226
 2332SOL    HW3 9101   5.339   0.299   0.944 -1.3633 -1.3893  0.6227
 2332SOL    MW4 9102   5.366   0.275   0.865  1.2149  0.0422 -0.4429
 2333SOL     OW 9103   2.720   1.659   1.462 -0.2199  0.0046 -0.1253
 2333SOL    HW2 9104   2.725   1.639   1.368  0.3520  1.1740 -0.3728
 2333SOL    HW3 9105   2.717   1.755   1.465  2.1093  0.1285  1.0929
 2333SOL    MW4 9106   2.721   1.669   1.450  0.0379 -0.0262 -0.1200
 2334SOL     OW 9107   5.874   0.654   0.685  0.5462  0.1481  0.2369
 2334SOL    HW2 9108   5.947   0.709   0.714  0.0693  1.6544 -1.2589
 2334SOL    HW3 9109   5.842   0.612   0.765  1.9203  0.8202  1.1799
 2334SOL    MW4 9110   5.879   0.656   0.699  0.2310  0.4092  0.3513
 2335SOL     OW 9111   4.674   0.778   1.573  0.2075  0.1146  0.2114
 2335SOL    HW2 9112   4.753   0.832   1.578 -0.2625  0.7668  0.6137
 2335SOL    HW3 9113   4.659   0.749   1.663  0.4846 -0.7391 -0.0086
 2335SOL    MW4 9114   4.683   0.781   1.585  0.4667  0.3230 -0.3884
 2336SOL     OW 9115   2.330   2.983   2.892  0.5504  0.4828 -0.5156
 2336SOL    HW2 9116   2.356   3.023   2.974  0.7707  0.0479 -0.3710
 2336SOL    HW3 9117   2.406   2.932   2.864 -0.5992 -2.1089  0.7168
 2336SOL    MW4 9118   2.343   2.982   2.899  0.1362 -0.4027  0.4684
 2337SOL     OW 9119   3.699   4.242   0.691  0.4196 -0.1998  1.0178
 2337SOL    HW2 9120   3.641   4.211   0.621  1.2945 -0.2435  0.2928
 2337SOL    HW3 9121   3.652   4.317   0.729 -0.4597 -0.7081  0.9695
 2337SOL    MW4 9122   3.685   4.248   0.686 -0.5813 -0.0479 -0.1535
 2338SOL     OW 9123   3.226   5.427   2.511 -0.2442 -0.0326  0.3217
 2338SOL    HW2 9124   3.143   5.448   2.469 -1.0384 -0.2060  1.7378
 2338SOL    HW3 9125   3.268   5.511   2.528  0.4856  0.0128 -1.5274
 2338SOL    MW4 9126   3.221   5.441   2.508  0.0518 -0.6088  0.1688
 2339SOL     OW 9127   0.041   0.630   2.689 -0.0271 -0.4579 -0.0373
 2339SOL    HW2 9128   0.074   0.589   2.609 -3.2567  0.4328 -2.0079
 2339SOL    HW3 9129  -0.022   0.566   2.725 -2.1421  1.0157 -0.9458
 2339SOL    MW4 9130   0.037   0.616   2.684 -0.5149  0.0168 -0.8672
 2340SOL     OW 9131   1.645   1.490   5.202  0.1225  0.3966  0.0107
 2340SOL    HW2 9132   1.650   1.580   5.235  1.3890  0.2872  0.1615
 2340SOL    HW3 9133   1.611   1.499   5.113  1.1784  1.1276 -0.3330
 2340SOL    MW4 9134   1.641   1.503   5.195 -0.6062 -0.4657  0.4890
 2341SOL     OW 9135   5.262   2.885   3.262 -0.1555  0.8407 -0.0267
 2341SOL    HW2 9136   5.337   2.845   3.306 -0.2365 -1.2324 -1.6066
 2341SOL    HW3 9137   5.300   2.950   3.204  0.3464  0.3715 -0.2290
 2341SOL    MW4 9138   5.276   2.888   3.260  0.2035 -0.4455  0.1790
 2342SOL     OW 9139   5.707   3.361   1.821  0.3869 -0.5489 -0.0985
 2342SOL    HW2 9140   5.747   3.396   1.742  0.5949 -1.4019 -0.3900
 2342SOL    HW3 9141   5.619   3.335   1.794  0.5719 -1.1529 -0.1507
 2342SOL    MW4 9142   5.701   3.362   1.807 -0.1847 -0.5653 -0.0523
 2343SOL     OW 9143   1.560   3.685   0.702  0.2880 -0.6495  0.2819
 2343SOL    HW2 9144   1.555   3.649   0.613  1.2151 -1.5568  0.5845
 2343SOL    HW3 9145   1.623   3.756   0.696 -0.3043 -0.1377  0.0359
 2343SOL    MW4 9146   1.567   3.689   0.689 -0.3413  0.3578 -0.1031
 2344SOL     OW 9147   0.615   2.590   1.669 -0.4851 -0.4615  0.3038
 2344SOL    HW2 9148   0.603   2.560   1.759  0.5585  1.3580  1.1151
 2344SOL    HW3 9149   0.691   2.540   1.637 -0.8715 -1.1262  0.4034
 2344SOL    MW4 9150   0.624   2.580   1.676 -0.0609  0.1032 -0.1240
 2345SOL     OW 9151   5.832   4.156   6.085 -0.0830 -0.1836 -0.3993
 2345SOL    HW2 9152   5.806   4.099   6.012  2.4251  0.0284 -1.5591
 2345SOL    HW3 9153   5.925   4.173   6.070  0.7650 -0.7103  3.2716
 2345SOL    MW4 9154   5.841   4.151   6.074 -0.0496  0.3602  0.6308
 2346SOL     OW 9155   3.698   2.436   6.028  0.3590 -0.6979  0.5782
 2346SOL    HW2 9156   3.689   2.343   6.051  1.1158 -0.6484  1.0965
 2346SOL    HW3 9157   3.704   2.436   5.933  2.0367 -1.3345  0.6583
 2346SOL    MW4 9158   3.697   2.423   6.018 -0.0934  0.4619 -0.5901
 2347SOL     OW 9159   2.459   4.469   4.819 -0.3297  0.3230  0.2989
 2347SOL    HW2 9160   2.464   4.514   4.735 -1.6036  1.2381  0.6829
 2347SOL    HW3 9161   2.532   4.407   4.817 -0.0162  0.6899 -1.2540
 2347SOL    MW4 9162   2.469   4.466   4.807 -0.0508  0.2624 -0.7940
 2348SOL     OW 9163   1.330   4.407   1.825 -0.4657 -0.2975  0.5035
 2348SOL    HW2 9164   1.290   4.418   1.911 -0.1788 -1.8719  0.8755
 2348SOL    HW3 9165   1.259   4.377   1.768 -0.5312  0.1874  0.3244
 2348SOL    MW4 9166   1.316   4.404   1.829  0.1994 -0.5858 -0.4593
 2349SOL     OW 9167   0.614   6.410   3.932 -0.1874 -0.2987 -0.1572
 2349SOL    HW2 9168   0.699   6.368   3.946 -0.9228 -1.8330 -0.0761
 2349SOL    HW3 9169   0.560   6.380   4.006 -1.4111 -1.0793 -1.3253
 2349SOL    MW4 9170   0.618   6.400   3.944 -0.3703 -0.0531 -0.3221
 2350SOL     OW 9171   4.357   6.285   1.928  0.5353  0.5683  0.2577
 2350SOL    HW2 9172   4.328   6.264   2.017  2.2886  0.8950  0.9477
 2350SOL    HW3 9173   4.352   6.381   1.923  1.9211  0.6763  0.5759
 2350SOL    MW4 9174   4.352   6.295   1.939  0.0465 -0.3505 -0.6993
 2351SOL     OW 9175   3.938   2.427   1.564 -0.4236 -0.4492  0.0893
 2351SOL    HW2 9176   4.028   2.456   1.576 -1.1652  1.5583  1.2910
 2351SOL    HW3 9177   3.912   2.461   1.478  0.3828 -2.3728 -0.9832
 2351SOL    MW4 9178   3.946   2.435   1.554 -0.0328 -0.7242  0.0406
 2352SOL     OW 9179   5.583   3.151   4.081 -0.1582 -0.0117 -0.0244
 2352SOL    HW2 9180   5.576   3.246   4.083  0.8961  0.1693 -2.2477
 2352SOL    HW3 9181   5.582   3.125   4.173 -2.6943  1.9298  0.6012
 2352SOL    MW4 9182   5.582   3.160   4.093  0.1245 -0.2519 -0.3932
 2353SOL     OW 9183   2.792   5.517   5.244  0.3452 -0.6259 -0.3720
 2353SOL    HW2 9184   2.713   5.521   5.297  0.8167  0.0346  0.2911
 2353SOL    HW3 9185   2.761   5.492   5.156 -0.9586  2.3530 -0.8605
 2353SOL    MW4 9186   2.778   5.514   5.239  0.7601  0.7568 -0.4272
 2354SOL     OW 9187   3.272   5.776   4.500 -0.1511 -0.1308  0.1455
 2354SOL    HW2 9188   3.324   5.700   4.528 -1.5091 -0.8376  0.8753
 2354SOL    HW3 9189   3.230   5.807   4.580  0.6918  1.6856 -0.0716
 2354SOL    MW4 9190   3.273   5.770   4.514 -0.4005  0.0653 -0.1367
 2355SOL     OW 9191   0.954   0.417   4.626 -0.5460 -0.0456  0.0513
 2355SOL    HW2 9192   0.927   0.382   4.711  1.4858 -2.2383 -0.1066
 2355SOL    HW3 9193   1.015   0.489   4.647  1.6666 -1.9556  0.6075
 2355SOL    MW4 9194   0.959   0.422   4.640 -0.1866  0.1250  0.5770
 2356SOL     OW 9195   5.206   1.688   3.946 -0.7653  0.2090 -0.5235
 2356SOL    HW2 9196   5.217   1.735   4.028  1.3123 -1.3691  0.1910
 2356SOL    HW3 9197   5.272   1.726   3.888 -1.4936  0.5756 -1.1299
 2356SOL    MW4 9198   5.216   1.700   3.949  0.0936 -0.1198  0.1335
 2357SOL     OW 9199   4.302   4.751   4.764 -0.0715  0.2163  0.2310
 2357SOL    HW2 9200   4.330   4.659   4.765 -0.6012  0.0483 -0.0504
 2357SOL    HW3 9201   4.283   4.771   4.856  2.1728  0.7281  0.6419
 2357SOL    MW4 9202   4.303   4.742   4.776 -0.3421  0.0869 -0.2713
 2358SOL     OW 9203   5.446   2.438   1.289  0.6741  0.1690  0.7893
 2358SOL    HW2 9204   5.493   2.393   1.359  1.2231  1.8279  1.5466
 2358SOL    HW3 9205   5.354   2.415   1.302  0.8227  0.1062  1.7981
 2358SOL    MW4 9206   5.440   2.429   1.300 -0.0265 -0.7094  0.2883
 2359SOL     OW 9207   3.068   2.829   5.863  0.2147  1.1834  0.2920
 2359SOL    HW2 9208   3.084   2.737   5.840  0.4045  0.8420  1.7129
 2359SOL    HW3 9209   2.985   2.828   5.911  1.0812  1.4710  1.8629
 2359SOL    MW4 9210   3.059   2.816   5.866 -0.2489 -0.0160  0.3438
 2360SOL     OW 9211   2.248   4.098   4.784  0.2962 -0.5130  0.2779
 2360SOL    HW2 9212   2.224   4.181   4.743 -0.9588 -1.4412 -0.9822
 2360SOL    HW3 9213   2.341   4.105   4.802  0.8091  0.1538 -2.3137
 2360SOL    MW4 9214   2.257   4.110   4.781  0.4383  1.2221 -0.2204
 2361SOL     OW 9215   3.151   0.572   2.928  0.0988 -0.8635  0.4728
 2361SOL    HW2 9216   3.080   0.597   2.987  0.2851  0.3848  0.1945
 2361SOL    HW3 9217   3.222   0.545   2.987 -0.1216 -0.7560  0.7932
 2361SOL    MW4 9218   3.151   0.572   2.944  0.0985 -0.3777 -0.2243
 2362SOL     OW 9219   1.220   6.231   0.609 -0.1541 -0.5632 -0.3995
 2362SOL    HW2 9220   1.300   6.246   0.658  0.7688 -1.0909 -1.6762
 2362SOL    HW3 9221   1.193   6.318   0.579 -0.2806 -0.3406  0.3534
 2362SOL    MW4 9222   1.227   6.244   0.611 -0.1938 -0.0586 -0.1102
 2363SOL     OW 9223   0.432   4.159   5.426 -0.5476  1.2507  0.0631
 2363SOL    HW2 9224   0.519   4.171   5.463 -0.1999  1.2523 -0.7488
 2363SOL    HW3 9225   0.425   4.225   5.357 -0.1092 -0.5460 -1.7702
 2363SOL    MW4 9226   0.443   4.169   5.422  0.6441 -0.1254 -0.6241
 2364SOL     OW 9227   2.742   1.822   3.275  0.3911 -0.0045 -0.3998
 2364SOL    HW2 9228   2.833   1.852   3.285 -0.2056  2.6324 -1.9829
 2364SOL    HW3 9229   2.747   1.753   3.209  1.1687  0.5877 -0.9742
 2364SOL    MW4 9230   2.755   1.817   3.268  0.0386  0.3144  0.1610
 2365SOL     OW 9231   4.275   5.065   5.648  1.1868 -0.1699 -0.7972
 2365SOL    HW2 9232   4.189   5.084   5.684  1.9360 -2.1823  2.4641
 2365SOL    HW3 9233   4.257   5.023   5.564 -0.8075  2.2762 -1.6844
 2365SOL    MW4 9234   4.261   5.062   5.642 -0.3095  0.5230 -0.2449
 2366SOL     OW 9235   1.316   4.934   4.797 -0.3924  1.2072  0.2351
 2366SOL    HW2 9236   1.235   4.911   4.750 -0.7332  0.1685  1.3078
 2366SOL    HW3 9237   1.292   5.011   4.848 -0.5555  1.1990  0.1725
 2366SOL    MW4 9238   1.302   4.941   4.797  0.5180 -0.2009 -0.1231
 2367SOL     OW 9239   3.296   4.672   0.111  0.1260  0.0545 -0.1877
 2367SOL    HW2 9240   3.388   4.670   0.135 -0.1301 -0.4411  0.8131
 2367SOL    HW3 9241   3.292   4.627   0.026  0.7771 -0.0989 -0.1387
 2367SOL    MW4 9242   3.308   4.666   0.103 -0.0565 -0.2974  0.4147
 2368SOL     OW 9243   1.545   1.932   3.028  0.4977  0.4435  0.0706
 2368SOL    HW2 9244   1.561   1.908   3.119 -2.0667  2.0382  1.0697
 2368SOL    HW3 9245   1.476   1.873   2.999  1.2332  0.0092 -0.8449
 2368SOL    MW4 9246   1.538   1.921   3.036 -0.3153  0.0175  0.1936
 2369SOL     OW 9247   5.744   4.945   2.623 -0.5393  0.3392  0.3850
 2369SOL    HW2 9248   5.758   4.945   2.528  0.7127 -1.7728  0.5241
 2369SOL    HW3 9249   5.824   4.907   2.659 -1.7621 -0.6978  2.1516
 2369SOL    MW4 9250   5.756   4.940   2.615 -0.7691 -0.3421 -0.2698
 2370SOL     OW 9251   2.012   1.376   4.761  0.3328 -0.0858 -0.5127
 2370SOL    HW2 9252   1.947   1.309   4.739  0.0007  0.8776 -2.7521
 2370SOL    HW3 9253   1.961   1.455   4.779  0.7956  0.0061  0.4741
 2370SOL    MW4 9254   1.997   1.378   4.760 -0.1102 -0.1868 -0.0519
 2371SOL     OW 9255   4.120   1.789   5.704 -0.4694 -0.9160  0.1254
 2371SOL    HW2 9256   4.154   1.758   5.789  0.7679 -0.5794 -0.2347
 2371SOL    HW3 9257   4.173   1.743   5.639 -1.7268 -1.5347 -0.4977
 2371SOL    MW4 9258   4.132   1.779   5.707  0.1757  0.8089  0.0207
 2372SOL     OW 9259   4.250   4.588   4.466 -0.2436  0.4064 -0.3339
 2372SOL    HW2 9260   4.324   4.620   4.414  1.1395 -0.6514  0.8908
 2372SOL    HW3 9261   4.185   4.562   4.400  1.4194 -0.8333 -1.5826
 2372SOL    MW4 9262   4.251   4.589   4.450 -0.1300  0.4450 -0.4102
 2373SOL     OW 9263   4.701   4.968   3.204  0.8855 -0.2890  0.0199
 2373SOL    HW2 9264   4.733   4.938   3.290  0.5717 -0.9600 -0.0897
 2373SOL    HW3 9265   4.624   4.914   3.188  0.4493  0.4257 -0.3028
 2373SOL    MW4 9266   4.695   4.957   3.213 -0.0532  0.2239 -0.7820
 2374SOL     OW 9267   5.785   0.240   2.812  0.0473 -0.0171  0.0501
 2374SOL    HW2 9268   5.805   0.275   2.898 -1.2483  0.0701  0.3456
 2374SOL    HW3 9269   5.856   0.271   2.756  0.5958  0.4124  0.9641
 2374SOL    MW4 9270   5.797   0.249   2.816 -0.2710  0.2427 -0.5253
 2375SOL     OW 9271   1.154   6.209   3.500  0.2763 -0.1375 -0.3433
 2375SOL    HW2 9272   1.164   6.254   3.416  2.0580 -1.3453 -0.8388
 2375SOL    HW3 9273   1.083   6.146   3.485 -1.3307  1.5233 -0.0392
 2375SOL    MW4 9274   1.146   6.207   3.487 -0.1760  0.3206  0.4580
 2376SOL     OW 9275   0.945   5.902   0.694 -0.3639  0.1576 -0.3612
 2376SOL    HW2 9276   0.970   5.836   0.629 -1.1793 -0.6528  0.1354
 2376SOL    HW3 9277   1.005   5.888   0.767 -0.8296 -0.3492 -0.0680
 2376SOL    MW4 9278   0.956   5.892   0.695 -0.4929 -0.4123  0.4067
 2377SOL     OW 9279   2.334   4.278   3.370  0.8432  0.2274  0.1584
 2377SOL    HW2 9280   2.369   4.366   3.381  0.8866  0.2379 -0.0525
 2377SOL    HW3 9281   2.411   4.223   3.354  0.7619  0.2745 -0.4500
 2377SOL    MW4 9282   2.349   4.282   3.369  0.2001  0.0512  0.6068
 2378SOL     OW 9283   3.499   4.347   0.284 -0.4690 -0.1964  0.2651
 2378SOL    HW2 9284   3.517   4.309   0.370 -1.5482  0.4229  0.7895
 2378SOL    HW3 9285   3.419   4.399   0.297  0.3490  1.3843 -0.6751
 2378SOL    MW4 9286   3.491   4.349   0.297  0.4858  0.0927 -0.1394
 2379SOL     OW 9287   2.150   1.882   3.304  0.1102 -0.3775  0.2162
 2379SOL    HW2 9288   2.238   1.853   3.328  0.0006 -0.6135  0.3358
 2379SOL    HW3 9289   2.097   1.802   3.308  0.2062 -0.5485 -1.3486
 2379SOL    MW4 9290   2.154   1.867   3.307 -0.0922 -0.0195 -0.0719
 2380SOL     OW 9291   1.159   4.371   2.078  0.1731  0.2448 -0.3493
 2380SOL    HW2 9292   1.071   4.386   2.043  1.2575  0.7110 -3.1182
 2380SOL    HW3 9293   1.167   4.276   2.081 -0.7802  0.1880  0.9642
 2380SOL    MW4 9294   1.148   4.360   2.074 -0.1919  0.0512  0.8775
 2381SOL     OW 9295   1.014   4.427   4.984 -0.0882 -0.0424  0.6614
 2381SOL    HW2 9296   1.098   4.406   5.024 -1.0778  0.7072  3.3240
 2381SOL    HW3 9297   0.976   4.341   4.963  1.0418 -0.4020 -0.0032
 2381SOL    MW4 9298   1.020   4.413   4.987  0.6015  0.1017  0.0090
 2382SOL     OW 9299   6.067   1.406   1.862  0.2481  0.0524  0.2294
 2382SOL    HW2 9300   6.036   1.320   1.890 -1.3990  0.4128 -0.3632
 2382SOL    HW3 9301   6.144   1.423   1.916 -0.0441 -1.3141  1.1228
 2382SOL    MW4 9302   6.073   1.397   1.873  0.9913 -0.6767 -0.5213
 2383SOL     OW 9303   1.033   3.214   5.906  0.3897  0.2885  0.6724
 2383SOL    HW2 9304   0.969   3.167   5.854 -0.2354  2.5585 -0.7831
 2383SOL    HW3 9305   1.116   3.199   5.861 -0.3088  3.2297 -2.0127
 2383SOL    MW4 9306   1.036   3.206   5.893 -0.3471 -0.6598 -0.3872
 2384SOL     OW 9307   5.951   4.847   3.413  0.1598 -0.1127 -0.2769
 2384SOL    HW2 9308   6.045   4.828   3.419  0.0581 -0.0567  2.3742
 2384SOL    HW3 9309   5.931   4.836   3.320  2.3470 -2.2781 -0.6060
 2384SOL    MW4 9310   5.961   4.843   3.401 -0.9106  0.0069  0.4030
 2385SOL     OW 9311   4.462   2.646   1.308 -0.4032 -0.7229  0.2002
 2385SOL    HW2 9312   4.482   2.726   1.357  0.5302 -2.6822  3.3991
 2385SOL    HW3 9313   4.529   2.641   1.240 -0.9915  1.5380 -0.6183
 2385SOL    MW4 9314   4.473   2.656   1.306  0.3939  0.3462 -0.0250
 2386SOL     OW 9315   3.752   6.305   5.166 -0.0226 -0.1810 -0.1186
 2386SOL    HW2 9316   3.749   6.328   5.259  0.5682 -0.1303 -0.1088
 2386SOL    HW3 9317   3.813   6.368   5.128 -2.0785  1.4154 -1.0139
 2386SOL    MW4 9318   3.759   6.316   5.173  0.3747  0.0266  0.1924
 2387SOL     OW 9319   1.063   6.215   2.828  0.0330  0.0709 -0.3625
 2387SOL    HW2 9320   0.991   6.171   2.782  1.6049 -2.5502 -0.4823
 2387SOL    HW3 9321   1.054   6.187   2.919  0.4384  0.4136 -0.2112
 2387SOL    MW4 9322   1.052   6.206   2.834 -0.2252 -0.2084 -0.1204
 2388SOL     OW 9323   4.478   2.802   3.857 -0.3663 -0.0857  0.2849
 2388SOL    HW2 9324   4.486   2.892   3.889 -0.5741 -0.3067  0.9919
 2388SOL    HW3 9325   4.447   2.810   3.767 -1.3310  0.5308  0.6609
 2388SOL    MW4 9326   4.475   2.815   3.850 -0.0077  0.1064 -0.3949
 2389SOL     OW 9327   5.045   2.675   1.974  0.2072  0.2158 -0.5300
 2389SOL    HW2 9328   5.054   2.700   1.882 -1.7582 -0.0350 -0.8274
 2389SOL    HW3 9329   4.970   2.616   1.976 -0.9627  1.6344  1.4644
 2389SOL    MW4 9330   5.036   2.671   1.962  0.3760 -0.0625 -0.1175
 2390SOL     OW 9331   6.403   5.804   3.752 -0.0807 -0.2755 -0.3827
 2390SOL    HW2 9332   6.475   5.838   3.699 -0.5824  1.4719 -0.0249
 2390SOL    HW3 9333   6.411   5.850   3.836 -2.8794  1.8231 -1.0759
 2390SOL    MW4 9334   6.413   5.815   3.756 -0.7451 -0.8825 -0.2058
 2391SOL     OW 9335   1.450   2.971   1.433  0.6231 -0.2058 -0.0887
 2391SOL    HW2 9336   1.386   2.994   1.365 -0.2735 -1.1409  0.4078
 2391SOL    HW3 9337   1.495   3.053   1.452 -0.8637  0.6356 -0.0227
 2391SOL    MW4 9338   1.448   2.985   1.426  0.2347 -0.6633 -0.7144
 2392SOL     OW 9339   1.462   2.849   1.131 -0.4567 -0.1167  0.8182
 2392SOL    HW2 9340   1.488   2.938   1.105 -2.3582  0.2936  0.1327
 2392SOL    HW3 9341   1.541   2.796   1.118  0.3171  1.2127 -0.1735
 2392SOL    MW4 9342   1.476   2.854   1.126  0.1901  0.0833 -0.3549
 2393SOL     OW 9343   1.931   5.675   4.073  0.2829  0.0574 -0.1149
 2393SOL    HW2 9344   1.990   5.610   4.111 -0.1945  0.3497  1.1878
 2393SOL    HW3 9345   1.884   5.712   4.149  0.6561  2.0387 -0.8001
 2393SOL    MW4 9346   1.932   5.671   4.088  0.1903 -0.2022  0.2377
 2394SOL     OW 9347   2.219   0.442   4.919  0.9290  0.2164  0.0576
 2394SOL    HW2 9348   2.159   0.422   4.991 -0.7042  0.5871 -1.1581
 2394SOL    HW3 9349   2.165   0.484   4.853  2.6711  1.2098 -0.8207
 2394SOL    MW4 9350   2.204   0.445   4.920  0.5433  0.6650 -0.7967
 2395SOL     OW 9351   5.333   2.157   0.631 -0.3977  0.4234 -0.0023
 2395SOL    HW2 9352   5.256   2.109   0.600 -0.2296  0.0220  0.1947
 2395SOL    HW3 9353   5.336   2.141   0.725  0.5287 -0.4399 -0.1641
 2395SOL    MW4 9354   5.324   2.149   0.639  0.1063 -0.6170 -0.0020
 2396SOL     OW 9355   3.324   2.827   1.956  0.4234  0.7198 -0.0954
 2396SOL    HW2 9356   3.405   2.865   1.920 -0.4717  2.0507 -0.7969
 2396SOL    HW3 9357   3.301   2.886   2.028 -0.9940  1.5999 -1.2022
 2396SOL    MW4 9358   3.332   2.840   1.961 -0.1682  0.0563  0.4314
 2397SOL     OW 9359   0.685   0.066   1.913  0.7438  0.0593 -0.3354
 2397SOL    HW2 9360   0.681   0.161   1.908 -2.0676 -0.0293 -2.6877
 2397SOL    HW3 9361   0.671   0.046   2.006  0.3535  1.9104  0.0430
 2397SOL    MW4 9362   0.683   0.076   1.925 -0.4952  0.5218  0.0295
 2398SOL     OW 9363   5.498   5.658   1.958  0.0218  0.4828 -0.2170
 2398SOL    HW2 9364   5.562   5.587   1.965  0.5719  0.7538 -1.8968
 2398SOL    HW3 9365   5.427   5.622   1.905  1.0534  1.5942 -2.5079
 2398SOL    MW4 9366   5.497   5.644   1.952  0.5157  0.1547 -0.0539
 2399SOL     OW 9367   3.393   1.929   3.423  0.0538  0.6520  0.3713
 2399SOL    HW2 9368   3.428   1.840   3.423 -0.0560  0.6063  1.3619
 2399SOL    HW3 9369   3.404   1.960   3.513 -0.6901  1.3350  0.2377
 2399SOL    MW4 9370   3.399   1.921   3.434  0.2922  0.0318  0.0350
 2400SOL     OW 9371   2.982   5.729   2.331 -0.3514 -0.6550 -0.3527
 2400SOL    HW2 9372   3.021   5.773   2.407 -0.4061 -1.2556  0.0292
 2400SOL    HW3 9373   2.976   5.637   2.357 -0.7102 -0.8041 -0.9488
 2400SOL    MW4 9374   2.986   5.723   2.345 -0.8215 -0.6224  0.1219
 2401SOL     OW 9375   0.588   2.547   6.241  0.2116  0.6657 -0.3247
 2401SOL    HW2 9376   0.593   2.573   6.334 -1.3366  1.0060 -0.3139
 2401SOL    HW3 9377   0.677   2.519   6.220  0.5022  0.1521  1.3929
 2401SOL    MW4 9378   0.600   2.547   6.251 -0.1872 -0.4379  0.5657
 2402SOL     OW 9379   3.912   6.107   2.881 -0.3281  0.2150  0.0493
 2402SOL    HW2 9380   3.865   6.108   2.964  0.2526 -0.5924  0.4046
 2402SOL    HW3 9381   3.914   6.199   2.853 -3.0730  0.1546 -0.5664
 2402SOL    MW4 9382   3.906   6.120   2.888  0.3717 -0.4484  0.0349
 2403SOL     OW 9383   5.322   2.826   2.585  0.4382 -0.4714 -0.1331
 2403SOL    HW2 9384   5.363   2.789   2.507 -1.4890 -2.2331 -0.4144
 2403SOL    HW3 9385   5.395   2.851   2.641  1.9880  3.0019 -3.3076
 2403SOL    MW4 9386   5.337   2.824   2.582 -0.3850  0.0834 -0.0471
 2404SOL     OW 9387   4.211   6.374   0.944 -0.4495  0.0283 -0.4015
 2404SOL    HW2 9388   4.304   6.384   0.962 -0.7221  0.9937  0.5519
 2404SOL    HW3 9389   4.207   6.307   0.876  0.8751 -0.8219  0.3088
 2404SOL    MW4 9390   4.223   6.366   0.938 -0.2129 -0.4999 -0.2512
 2405SOL     OW 9391   1.199   0.664   4.885  0.2364 -0.1156 -0.1721
 2405SOL    HW2 9392   1.284   0.704   4.903  0.8350 -0.9569 -1.0156
 2405SOL    HW3 9393   1.203   0.579   4.927  0.3973 -0.7543 -1.4410
 2405SOL    MW4 9394   1.211   0.658   4.893 -0.7156 -0.5384 -0.2196
 2406SOL     OW 9395   2.143   4.872   3.640  0.1940 -0.3543 -0.1218
 2406SOL    HW2 9396   2.089   4.821   3.579 -1.2729  1.0446 -0.0752
 2406SOL    HW3 9397   2.134   4.828   3.724 -1.2358  0.0782 -0.0296
 2406SOL    MW4 9398   2.135   4.860   3.643 -0.9337 -0.0018 -0.1483
 2407SOL     OW 9399   3.340   5.705   1.330 -0.6492  0.1946  0.0426
 2407SOL    HW2 9400   3.283   5.781   1.342 -0.6978  0.0368  0.8862
 2407SOL    HW3 9401   3.423   5.732   1.370  0.2529  0.8211 -2.1068
 2407SOL    MW4 9402   3.344   5.719   1.337 -0.7255 -0.7534 -0.4598
 2408SOL     OW 9403   1.664   3.151   2.177  0.0958 -0.0422 -0.4370
 2408SOL    HW2 9404   1.584   3.128   2.225 -0.5454 -0.5645 -1.7096
 2408SOL    HW3 9405   1.733   3.147   2.243 -0.6748 -1.2381  0.3407
 2408SOL    MW4 9406   1.662   3.148   2.192  0.1713  0.6060 -0.2212
 2409SOL     OW 9407   4.425   2.328   6.385 -0.0043  0.0655  0.2036
 2409SOL    HW2 9408   4.485   2.320   6.460 -0.0803  1.1476  0.4003
 2409SOL    HW3 9409   4.476   2.296   6.311  0.7395  0.6993  0.4184
 2409SOL    MW4 9410   4.440   2.323   6.385 -0.6702 -0.1004  0.5989
 2410SOL     OW 9411   0.188   6.013   0.309 -0.7338 -0.1866 -0.2506
 2410SOL    HW2 9412   0.094   6.015   0.325 -0.8667  0.2045 -1.0505
 2410SOL    HW3 9413   0.197   6.001   0.214  0.0252 -0.8693 -0.1093
 2410SOL    MW4 9414   0.177   6.011   0.298 -0.4114 -0.1562 -0.3985
 2411SOL     OW 9415   4.167   5.950   0.022 -1.0085 -0.0461  0.3498
 2411SOL    HW2 9416   4.072   5.963   0.029 -1.1522  0.5482 -1.8462
 2411SOL    HW3 9417   4.176   5.871  -0.031 -0.2703 -0.2180  0.7290
 2411SOL    MW4 9418   4.155   5.941   0.016  0.0939  0.1290 -0.2377
 2412SOL     OW 9419   4.574   4.429   2.663  0.4196 -0.3075  0.2329
 2412SOL    HW2 9420   4.552   4.397   2.576 -1.2462  1.2248  0.0266
 2412SOL    HW3 9421   4.612   4.516   2.647  2.1741 -0.9096  0.9270
 2412SOL    MW4 9422   4.576   4.436   2.650  0.0680  0.6147 -0.5995
 2413SOL     OW 9423   5.844   1.109   5.074  0.2193  0.6627 -0.2357
 2413SOL    HW2 9424   5.915   1.082   5.016  1.4372  0.9410  1.0854
 2413SOL    HW3 9425   5.832   1.202   5.055 -0.0656  0.5281 -0.7315
 2413SOL    MW4 9426   5.852   1.117   5.064 -0.1872  0.5226 -0.5517
 2414SOL     OW 9427   1.626   1.448   2.122  0.9676  0.0816  0.3077
 2414SOL    HW2 9428   1.566   1.490   2.184  0.0334  2.4172 -1.9898
 2414SOL    HW3 9429   1.713   1.476   2.150  0.6459  0.3602  1.0632
 2414SOL    MW4 9430   1.629   1.457   2.134 -0.8350 -0.0468  0.6741
 2415SOL     OW 9431   2.659   5.912   0.709 -0.4141 -0.1600  0.0954
 2415SOL    HW2 9432   2.587   5.856   0.740  0.3355 -0.1150  2.0470
 2415SOL    HW3 9433   2.660   5.986   0.769  0.7632  0.2595 -0.4069
 2415SOL    MW4 9434   2.650   5.914   0.721 -0.3572 -0.0626 -0.6121
 2416SOL     OW 9435   5.609   3.113   4.342  0.3841  0.2890  0.0903
 2416SOL    HW2 9436   5.668   3.039   4.328  0.2220  0.5743 -2.4200
 2416SOL    HW3 9437   5.533   3.075   4.387  1.1303 -0.6516  0.5975
 2416SOL    MW4 9438   5.607   3.098   4.346 -0.4509 -0.2936  0.6993
 2417SOL     OW 9439   1.296   3.515   2.285  0.3601 -0.1819 -0.0035
 2417SOL    HW2 9440   1.270   3.591   2.232  2.7925  2.0341  1.7264
 2417SOL    HW3 9441   1.391   3.516   2.284  0.4812 -1.6072  2.2833
 2417SOL    MW4 9442   1.305   3.525   2.278 -0.1620  0.3121 -0.1221
 2418SOL     OW 9443   2.438   2.214   2.889 -0.0193  0.7927  0.1271
 2418SOL    HW2 9444   2.478   2.238   2.806  1.3348  0.6950  0.7294
 2418SOL    HW3 9445   2.402   2.127   2.874  2.6061 -0.4182  0.3732
 2418SOL    MW4 9446   2.438   2.206   2.876  0.2727 -0.1015 -0.1507
 2419SOL     OW 9447   4.558   5.714   1.618 -0.1425  0.1303 -0.2478
 2419SOL    HW2 9448   4.577   5.680   1.530 -2.6879  1.2101 -1.2961
 2419SOL    HW3 9449   4.513   5.797   1.603 -0.2280  0.5810  2.1174
 2419SOL    MW4 9450   4.555   5.720   1.604 -0.2822  0.1632  0.2227
 2420SOL     OW 9451   4.481   1.264   1.897  0.5095  0.0878 -0.1047
 2420SOL    HW2 9452   4.387   1.279   1.911  0.5574  0.0208  0.2843
 2420SOL    HW3 9453   4.517   1.350   1.878  0.3623  0.1067 -0.3063
 2420SOL    MW4 9454   4.473   1.277   1.896  0.7241  0.4065  0.0565
 2421SOL     OW 9455   4.484   1.197   6.171  0.4427  0.4775 -0.3178
 2421SOL    HW2 9456   4.485   1.292   6.173  0.7095  0.4668  0.0573
 2421SOL    HW3 9457   4.398   1.175   6.136  0.1707  0.8484  0.1085
 2421SOL    MW4 9458   4.473   1.206   6.167  0.3013 -0.1935 -0.1960
 2422SOL     OW 9459   4.714   3.955   5.533 -0.0742  0.0550  0.0351
 2422SOL    HW2 9460   4.807   3.932   5.545 -0.0557 -0.0666 -0.3438
 2422SOL    HW3 9461   4.705   3.972   5.439 -0.4205  0.1426  0.0827
 2422SOL    MW4 9462   4.725   3.954   5.522 -0.0926 -0.3930 -0.2866
 2423SOL     OW 9463   0.429   2.683   2.996  0.1504  0.7760 -0.0112
 2423SOL    HW2 9464   0.513   2.711   3.031 -0.2885  2.8655 -0.4765
 2423SOL    HW3 9465   0.374   2.670   3.074  1.0304 -1.2728  0.3316
 2423SOL    MW4 9466   0.433   2.685   3.011  0.1422 -0.8278  0.2928
 2424SOL     OW 9467   5.488   2.563   0.428  0.1730  0.4790  0.2667
 2424SOL    HW2 9468   5.431   2.530   0.497  0.2720  0.2636  0.2465
 2424SOL    HW3 9469   5.511   2.651   0.456 -0.9490  0.9386 -0.1957
 2424SOL    MW4 9470   5.483   2.570   0.441 -0.0346 -0.1531  0.2093
 2425SOL     OW 9471   5.069   0.651   5.886 -0.8459 -1.2258  0.1944
 2425SOL    HW2 9472   5.019   0.727   5.857  1.6774  0.1074 -0.9954
 2425SOL    HW3 9473   5.008   0.602   5.941 -2.4096  1.9697  1.5849
 2425SOL    MW4 9474   5.054   0.655   5.890  0.8157  0.2630  0.0032
 2426SOL     OW 9475   0.129   5.119   2.888 -0.1569 -0.2508  0.2736
 2426SOL    HW2 9476   0.121   5.036   2.934  2.0006 -0.8934 -0.3979
 2426SOL    HW3 9477   0.121   5.097   2.796 -1.1325  0.5442  0.1502
 2426SOL    MW4 9478   0.127   5.105   2.882  0.1822 -0.4686  0.1432
 2427SOL     OW 9479   1.801   5.468   1.041  0.0902  0.4267  0.0322
 2427SOL    HW2 9480   1.877   5.512   1.002  1.8532 -1.3997  1.2451
 2427SOL    HW3 9481   1.834   5.383   1.069 -2.9294 -1.3500 -1.3284
 2427SOL    MW4 9482   1.815   5.463   1.039  0.1893 -0.4518  0.7622
 2428SOL     OW 9483   2.116   1.605   5.310 -0.1417  0.0842 -0.1326
 2428SOL    HW2 9484   2.076   1.532   5.264 -0.1588  0.3580 -0.5561
 2428SOL    HW3 9485   2.133   1.571   5.398  1.3317 -0.9630 -0.7758
 2428SOL    MW4 9486   2.113   1.591   5.316 -0.1236  0.0549  0.5023
 2429SOL     OW 9487   1.329   1.158   5.562  0.2573 -0.1630 -0.2198
 2429SOL    HW2 9488   1.250   1.117   5.599  0.0030 -0.4908 -1.0981
 2429SOL    HW3 9489   1.396   1.146   5.629 -0.7940  1.4239  1.1939
 2429SOL    MW4 9490   1.327   1.151   5.576 -0.0042 -0.2164 -0.1883
 2430SOL     OW 9491   0.932   4.109   5.939  0.2099  0.2891 -0.0880
 2430SOL    HW2 9492   0.982   4.036   5.977  1.1084  0.2942 -1.2106
 2430SOL    HW3 9493   0.904   4.160   6.014 -0.4489 -1.2102  0.7333
 2430SOL    MW4 9494   0.935   4.106   5.954 -0.2476  0.4565  0.3027
 2431SOL     OW 9495   5.559   3.365   5.656  0.0384  0.5326  0.1291
 2431SOL    HW2 9496   5.469   3.369   5.622  0.2386 -0.0412 -0.4952
 2431SOL    HW3 9497   5.614   3.379   5.578  0.4929  1.4962  0.6028
 2431SOL    MW4 9498   5.555   3.368   5.641  0.2239  0.0956  0.1756
 2432SOL     OW 9499   4.792   2.203   1.767 -0.3061  0.2588 -0.0015
 2432SOL    HW2 9500   4.835   2.175   1.847 -0.6415 -0.0720  0.0621
 2432SOL    HW3 9501   4.731   2.132   1.745 -0.6129  0.5891 -0.2455
 2432SOL    MW4 9502   4.789   2.190   1.775 -0.5943  0.1074  0.1022
 2433SOL     OW 9503   4.231   4.281   5.192 -0.1288  0.0354 -0.3078
 2433SOL    HW2 9504   4.211   4.195   5.157  0.7311 -0.1405 -0.3738
 2433SOL    HW3 9505   4.255   4.333   5.115 -0.1028  0.1819 -0.2004
 2433SOL    MW4 9506   4.231   4.277   5.177  0.2231  0.0218 -0.6635
 2434SOL     OW 9507   1.201   0.533   5.736  0.5498 -0.5127  0.0591
 2434SOL    HW2 9508   1.169   0.452   5.777 -0.0815  0.4832  1.6225
 2434SOL    HW3 9509   1.217   0.592   5.810  1.1017  0.7659 -1.0508
 2434SOL    MW4 9510   1.199   0.530   5.752 -0.3308 -0.6970  0.0046
 2435SOL     OW 9511   0.892   4.162   4.890  0.1792  0.0176 -0.3415
 2435SOL    HW2 9512   0.876   4.103   4.816 -0.6486  0.6537 -0.6840
 2435SOL    HW3 9513   0.833   4.132   4.959  1.2114 -0.8047  0.2201
 2435SOL    MW4 9514   0.882   4.150   4.889 -0.4720 -0.1345 -0.1364
 2436SOL     OW 9515   0.243   0.649   0.622  0.0920 -0.0228 -0.1229
 2436SOL    HW2 9516   0.291   0.596   0.686  1.5424  2.9448  1.4631
 2436SOL    HW3 9517   0.270   0.739   0.641 -3.0576  1.4499 -1.8834
 2436SOL    MW4 9518   0.252   0.654   0.633  0.0602  0.4455  0.0665
 2437SOL     OW 9519   2.785   5.917   0.137  0.1789  0.0805 -0.1764
 2437SOL    HW2 9520   2.801   5.935   0.230  0.9347  2.4307 -0.6912
 2437SOL    HW3 9521   2.694   5.889   0.133  0.4457 -1.1553  1.3803
 2437SOL    MW4 9522   2.775   5.915   0.149  0.5466  0.4310  0.4993
 2438SOL     OW 9523   1.403   2.033   5.118  0.5767  0.3730  0.1177
 2438SOL    HW2 9524   1.400   2.094   5.192 -2.6098  0.9802 -0.3421
 2438SOL    HW3 9525   1.311   2.023   5.093  1.3069 -2.1183 -1.9108
 2438SOL    MW4 9526   1.390   2.040   5.125  0.0021  0.2702 -0.5820
 2439SOL     OW 9527   5.545   1.846   1.109  0.3012 -0.2161  0.5141
 2439SOL    HW2 9528   5.511   1.917   1.165 -1.5045  0.5131 -1.3802
 2439SOL    HW3 9529   5.631   1.826   1.146 -0.2368  1.1240  2.7210
 2439SOL    MW4 9530   5.552   1.853   1.121 -0.4420 -0.1767  0.8434
 2440SOL     OW 9531   3.693   4.491   2.660  0.0947  0.4919 -0.5586
 2440SOL    HW2 9532   3.722   4.488   2.569 -0.0918 -0.5811 -0.5995
 2440SOL    HW3 9533   3.606   4.451   2.658  0.1670  0.2928  0.1157
 2440SOL    MW4 9534   3.685   4.485   2.647  0.3495  0.4614 -0.4800
 2441SOL     OW 9535   2.822   0.959   0.270 -0.0575  0.1376  0.0893
 2441SOL    HW2 9536   2.910   0.966   0.234  0.1842 -1.0491  0.4018
 2441SOL    HW3 9537   2.814   0.867   0.295 -1.2734  0.3037  0.3562
 2441SOL    MW4 9538   2.833   0.948   0.269 -0.4978  0.0206  0.2907
 2442SOL     OW 9539   2.073   4.870   6.148  0.4104  0.4205 -0.1910
 2442SOL    HW2 9540   2.164   4.863   6.120  0.4081 -1.5222  0.1402
 2442SOL    HW3 9541   2.069   4.818   6.228 -0.9875  0.4808 -0.2001
 2442SOL    MW4 9542   2.084   4.862   6.155  0.4093  0.5025  0.1989
 2443SOL     OW 9543   4.061   0.854   3.934  0.1387  0.7607 -0.4590
 2443SOL    HW2 9544   4.109   0.902   3.866  0.3932 -0.5289 -1.2157
 2443SOL    HW3 9545   3.987   0.816   3.888  0.1735  0.0805  0.0442
 2443SOL    MW4 9546   4.058   0.855   3.919 -0.0917  0.3057 -0.3115
 2444SOL     OW 9547   1.087   0.279   5.885  0.0957  0.8168  0.0089
 2444SOL    HW2 9548   0.997   0.301   5.864  0.5033  0.7669 -1.9339
 2444SOL    HW3 9549   1.091   0.183   5.878  0.3256  0.8287 -0.0461
 2444SOL    MW4 9550   1.076   0.269   5.882  0.5231 -0.3535 -0.8441
 2445SOL     OW 9551   2.952   2.693   6.217 -0.3754  0.0801  0.5641
 2445SOL    HW2 9552   2.908   2.728   6.294  2.3448 -0.4516  2.4607
 2445SOL    HW3 9553   2.899   2.618   6.191 -2.5581  1.5587  0.4887
 2445SOL    MW4 9554   2.939   2.688   6.223 -0.2222 -0.2165 -0.3240
 2446SOL     OW 9555   5.131   3.769   1.256  0.1106  0.0485  0.2329
 2446SOL    HW2 9556   5.224   3.770   1.276  0.4539  0.4171 -1.2531
 2446SOL    HW3 9557   5.121   3.830   1.184 -1.3233  0.1483  0.4793
 2446SOL    MW4 9558   5.142   3.777   1.249 -0.3338 -0.0610 -0.1214
 2447SOL     OW 9559   4.719   5.958   5.672  0.2090 -0.3088  0.2560
 2447SOL    HW2 9560   4.811   5.977   5.689 -0.3067  0.2116  2.8715
 2447SOL    HW3 9561   4.685   6.037   5.632  0.3585  0.5384  1.7268
 2447SOL    MW4 9562   4.727   5.971   5.669 -0.3883 -0.4290  0.3985
 2448SOL     OW 9563   4.423   0.096   2.464  0.1354 -0.3828 -0.5755
 2448SOL    HW2 9564   4.408   0.182   2.426 -1.1707 -0.6282 -0.6636
 2448SOL    HW3 9565   4.339   0.051   2.458  0.8062 -1.7139 -0.6423
 2448SOL    MW4 9566   4.410   0.101   2.458 -0.0804 -0.2247 -0.4434
 2449SOL     OW 9567   2.163   3.388   5.261  0.8641 -0.1015  0.3074
 2449SOL    HW2 9568   2.115   3.356   5.184  0.1410  0.4941  0.4986
 2449SOL    HW3 9569   2.254   3.362   5.245  0.7723  0.2323 -0.8751
 2449SOL    MW4 9570   2.169   3.380   5.248 -0.1370  0.8575  0.1043
 2450SOL     OW 9571   4.545   2.146   3.105  0.1011 -0.2144 -0.4809
 2450SOL    HW2 9572   4.628   2.116   3.069  0.7535  0.3772  0.4654
 2450SOL    HW3 9573   4.482   2.080   3.078  1.0298 -1.1171 -0.5293
 2450SOL    MW4 9574   4.548   2.133   3.097  0.1749 -0.5198 -0.3946
 2451SOL     OW 9575   1.435   5.499   1.989  0.4993 -0.2667 -0.1625
 2451SOL    HW2 9576   1.345   5.518   2.013  0.7304  0.1027  0.4238
 2451SOL    HW3 9577   1.481   5.489   2.072  1.4492  1.6811 -0.3898
 2451SOL    MW4 9578   1.429   5.500   2.003  0.1910 -0.4249  0.0046
 2452SOL     OW 9579   5.015   2.490   4.586 -0.0459 -0.3293 -0.1470
 2452SOL    HW2 9580   5.109   2.473   4.583 -0.1488 -1.2798  1.3095
 2452SOL    HW3 9581   4.993   2.490   4.679 -1.1684  1.8344 -0.3441
 2452SOL    MW4 9582   5.024   2.488   4.598  0.1860 -0.0902  0.6163
 2453SOL     OW 9583   2.081   4.269   2.048  0.1944  0.0991 -0.2780
 2453SOL    HW2 9584   2.066   4.212   2.123 -1.1019  0.2380 -0.4186
 2453SOL    HW3 9585   2.041   4.223   1.974  1.3411  0.0231 -0.8762
 2453SOL    MW4 9586   2.074   4.255   2.048  0.2939  0.3318  0.3363
 2454SOL     OW 9587   3.867   3.490   2.749 -0.0576 -0.1488  0.2321
 2454SOL    HW2 9588   3.914   3.447   2.678 -0.4553  1.4038 -1.0067
 2454SOL    HW3 9589   3.935   3.510   2.814  0.4116 -0.9735  0.0129
 2454SOL    MW4 9590   3.883   3.487   2.748  1.0121 -0.3593 -0.2765
 2455SOL     OW 9591   0.908   4.766   3.868  0.1072  0.4436 -0.1499
 2455SOL    HW2 9592   0.942   4.702   3.931  0.2558  1.3022  0.6591
 2455SOL    HW3 9593   0.876   4.838   3.922 -1.3025  0.4810 -0.9926
 2455SOL    MW4 9594   0.908   4.767   3.884 -0.3114 -0.2592  0.2368
 2456SOL     OW 9595   5.516   4.342   4.031 -0.5812 -0.6487  0.6223
 2456SOL    HW2 9596   5.587   4.329   3.968  0.0890  0.6759  1.0448
 2456SOL    HW3 9597   5.554   4.316   4.115 -0.6458 -0.1320  0.8193
 2456SOL    MW4 9598   5.531   4.337   4.034  0.3549 -0.2678 -0.3726
 2457SOL     OW 9599   4.425   1.851   0.470  0.3459  0.5717 -0.7196
 2457SOL    HW2 9600   4.344   1.848   0.521  0.1318 -1.1651 -1.1066
 2457SOL    HW3 9601   4.487   1.797   0.519  0.6491  0.2301 -1.4602
 2457SOL    MW4 9602   4.423   1.844   0.483  0.3688  0.2104  0.5229
 2458SOL     OW 9603   2.680   6.241   3.634 -0.0411  0.2766 -0.2681
 2458SOL    HW2 9604   2.636   6.326   3.636  0.2227  0.4495 -1.3795
 2458SOL    HW3 9605   2.693   6.219   3.727 -1.7136  0.5899  0.0733
 2458SOL    MW4 9606   2.676   6.249   3.647 -0.0598 -0.0991  0.1525
 2459SOL     OW 9607   1.934   4.742   4.092  0.2280  0.5236 -0.1487
 2459SOL    HW2 9608   1.887   4.808   4.041 -0.5924  1.5710  1.8723
 2459SOL    HW3 9609   1.868   4.706   4.151  0.9560 -1.2669 -0.3663
 2459SOL    MW4 9610   1.919   4.746   4.093  0.6588  0.2479  0.1733
 2460SOL     OW 9611   1.053   6.134   5.602  1.0709 -0.7198  0.1986
 2460SOL    HW2 9612   1.004   6.052   5.606  0.3294 -0.3401 -0.6446
 2460SOL    HW3 9613   1.004   6.194   5.657  1.3653 -0.7189  0.4599
 2460SOL    MW4 9614   1.040   6.131   5.610  0.1408 -0.3873 -0.4665
 2461SOL     OW 9615   3.825   0.703   3.903  0.4142  0.2709 -0.5161
 2461SOL    HW2 9616   3.747   0.682   3.851 -0.2687  0.3104  0.4628
 2461SOL    HW3 9617   3.806   0.667   3.989  1.6298 -0.0013 -0.3470
 2461SOL    MW4 9618   3.812   0.695   3.907 -0.0472 -0.1003 -0.4860
 2462SOL     OW 9619   4.449   1.935   0.102 -0.6783  0.0437 -0.3038
 2462SOL    HW2 9620   4.437   1.843   0.125  0.5336 -1.2669 -4.2222
 2462SOL    HW3 9621   4.527   1.962   0.151 -0.7743 -1.1320  0.5396
 2462SOL    MW4 9622   4.457   1.926   0.112 -0.6858 -0.8117  0.1907
 2463SOL     OW 9623   5.021   4.100   2.088  0.2225 -0.0740  0.3871
 2463SOL    HW2 9624   5.080   4.101   2.163  0.7079 -0.1034  0.0134
 2463SOL    HW3 9625   4.968   4.021   2.100  2.0063 -1.5018 -0.5697
 2463SOL    MW4 9626   5.022   4.089   2.099  0.0537  0.4409 -0.0877
 2464SOL     OW 9627   1.669   0.426   1.346  0.3917  0.1485  0.6201
 2464SOL    HW2 9628   1.644   0.501   1.400  3.6444  1.0037  1.1173
 2464SOL    HW3 9629   1.644   0.451   1.257  0.4913  1.3590  0.9192
 2464SOL    MW4 9630   1.662   0.439   1.341 -0.1672  0.1553 -0.1531
 2465SOL     OW 9631   5.292   4.572   6.051  0.3983 -0.3033 -0.2608
 2465SOL    HW2 9632   5.307   4.628   6.127  1.9578 -0.5447 -0.3576
 2465SOL    HW3 9633   5.361   4.505   6.056 -0.2923 -1.1150 -1.1571
 2465SOL    MW4 9634   5.303   4.570   6.062 -0.0453  0.0364 -0.3008
 2466SOL     OW 9635   3.823   1.604   1.780 -0.3439 -0.1476 -0.1609
 2466SOL    HW2 9636   3.878   1.671   1.821  0.3593 -0.6084 -0.3362
 2466SOL    HW3 9637   3.863   1.521   1.806 -2.0206 -0.5782  1.2281
 2466SOL    MW4 9638   3.836   1.602   1.789  0.1976 -0.1923 -0.6152
 2467SOL     OW 9639   1.254   0.130   0.258  0.1372  0.0641 -0.4192
 2467SOL    HW2 9640   1.328   0.146   0.199  0.9534  0.1287  0.5872
 2467SOL    HW3 9641   1.248   0.034   0.263  1.0840  0.0237  0.5683
 2467SOL    MW4 9642   1.263   0.119   0.251 -0.0395  0.0262  0.2702
 2468SOL     OW 9643   4.328   0.344   1.581  0.7174 -0.3876 -0.4304
 2468SOL    HW2 9644   4.302   0.433   1.604  0.3493 -0.3675 -0.9107
 2468SOL    HW3 9645   4.407   0.354   1.527  2.0819 -0.4712  1.4543
 2468SOL    MW4 9646   4.335   0.357   1.577  0.2140  0.0757 -0.3219
 2469SOL     OW 9647   6.043   2.208   5.360 -0.2874  0.0556  0.0147
 2469SOL    HW2 9648   5.988   2.283   5.382  0.7459  0.7098  0.4332
 2469SOL    HW3 9649   6.120   2.217   5.416  0.1150 -1.0160 -0.3308
 2469SOL    MW4 9650   6.046   2.219   5.371 -0.3654  0.1214 -0.1053
 2470SOL     OW 9651   5.193   0.068   0.503  0.6221 -0.2933 -0.5067
 2470SOL    HW2 9652   5.191   0.079   0.598 -0.4922 -0.6118 -0.4825
 2470SOL    HW3 9653   5.182  -0.027   0.489  0.8439 -0.2596 -0.9563
 2470SOL    MW4 9654   5.191   0.057   0.513  0.2551 -0.0814  0.3335
 2471SOL     OW 9655   3.191   1.449   3.638 -0.5159 -1.1352  0.3820
 2471SOL    HW2 9656   3.138   1.529   3.637  2.2402  0.8777  0.5628
 2471SOL    HW3 9657   3.232   1.447   3.551  2.3395 -0.1176  1.5948
 2471SOL    MW4 9658   3.190   1.460   3.626 -0.2206  0.1456 -0.0999
 2472SOL     OW 9659   5.690   0.905   1.612 -0.0799  0.4303  0.0050
 2472SOL    HW2 9660   5.608   0.860   1.590  0.1625 -0.2154  0.3674
 2472SOL    HW3 9661   5.710   0.957   1.535 -0.9995  0.8544  0.0355
 2472SOL    MW4 9662   5.681   0.906   1.599  0.1299 -0.0251 -0.2304
 2473SOL     OW 9663   3.811   1.354   1.512  0.2398  0.3860  0.0682
 2473SOL    HW2 9664   3.891   1.407   1.510  1.0549 -0.7523  0.9095
 2473SOL    HW3 9665   3.825   1.292   1.584  0.0343 -2.0231 -1.8329
 2473SOL    MW4 9666   3.823   1.353   1.521  0.7254 -0.1950  0.2339
 2474SOL     OW 9667   5.519   4.683   1.496  0.8165 -0.1346 -0.3456
 2474SOL    HW2 9668   5.607   4.719   1.510  0.2644  1.4789 -0.7833
 2474SOL    HW3 9669   5.480   4.681   1.584  0.2092  2.2290 -0.4843
 2474SOL    MW4 9670   5.526   4.687   1.510 -0.1060 -0.5349  0.0481
 2475SOL     OW 9671   0.194   1.823   1.209  0.6642 -0.0999  0.3764
 2475SOL    HW2 9672   0.203   1.732   1.239  0.4186 -0.6031 -0.9958
 2475SOL    HW3 9673   0.216   1.876   1.285 -0.1591 -1.3128  1.5020
 2475SOL    MW4 9674   0.198   1.818   1.223 -0.6998  0.1508  0.5098
 2476SOL     OW 9675   1.797   6.398   4.660 -0.2006  0.3273 -0.5516
 2476SOL    HW2 9676   1.866   6.464   4.657 -0.0158  0.1316 -0.6980
 2476SOL    HW3 9677   1.738   6.420   4.588 -1.3305  1.6000  0.7010
 2476SOL    MW4 9678   1.799   6.409   4.650  1.2040  0.0634  0.0172
 2477SOL     OW 9679   3.067   3.325   3.874  0.2557 -0.5680  0.8763
 2477SOL    HW2 9680   3.162   3.324   3.884  0.4059  0.8392 -0.2067
 2477SOL    HW3 9681   3.042   3.232   3.872  1.8588 -1.0068 -1.1292
 2477SOL    MW4 9682   3.076   3.312   3.875  0.7967  0.4389  0.1825
 2478SOL     OW 9683   3.306   2.727   0.648  0.3175 -0.1902  0.0306
 2478SOL    HW2 9684   3.227   2.780   0.639  0.3403 -0.0837  0.4556
 2478SOL    HW3 9685   3.377   2.785   0.618  0.1792 -0.4695 -0.8766
 2478SOL    MW4 9686   3.305   2.742   0.643 -0.3560 -0.4078 -0.4841
 2479SOL     OW 9687   1.474   3.407   2.693 -0.0116  0.6302  0.3252
 2479SOL    HW2 9688   1.560   3.445   2.679  0.9430 -1.6961 -0.5905
 2479SOL    HW3 9689   1.491   3.318   2.726 -2.0908  0.5662  1.4476
 2479SOL    MW4 9690   1.487   3.400   2.696  0.4676 -0.1091 -0.4980
 2480SOL     OW 9691   1.284   1.741   3.590 -0.3083  0.1540  0.4358
 2480SOL    HW2 9692   1.202   1.711   3.629 -0.7594  1.4743  0.5640
 2480SOL    HW3 9693   1.291   1.833   3.617  1.1226  0.1185  0.2691
 2480SOL    MW4 9694   1.274   1.749   3.599  0.1493  0.0392  0.1001
 2481SOL     OW 9695   3.220   1.093   2.961 -0.4913  0.4764 -0.1912
 2481SOL    HW2 9696   3.261   1.025   3.014 -1.8195  1.3132  2.0168
 2481SOL    HW3 9697   3.279   1.168   2.967 -1.1159  0.8854  0.9365
 2481SOL    MW4 9698   3.233   1.094   2.969 -0.4248 -0.6200 -0.0373
 2482SOL     OW 9699   0.906   5.026   0.535 -0.1126 -0.2158  0.0592
 2482SOL    HW2 9700   0.903   4.948   0.590 -0.2821  1.0694  1.9919
 2482SOL    HW3 9701   0.838   5.012   0.469 -1.0252 -1.1463  1.1497
 2482SOL    MW4 9702   0.897   5.014   0.534 -0.4104 -0.4386  0.4222
 2483SOL     OW 9703   1.383   5.796   3.864 -0.6899 -0.4462  0.2060
 2483SOL    HW2 9704   1.464   5.745   3.863 -0.2191  0.2811 -1.1054
 2483SOL    HW3 9705   1.347   5.784   3.776  0.5004  3.0880 -0.9091
 2483SOL    MW4 9706   1.389   5.787   3.852 -0.4486  0.7895  0.5176
 2484SOL     OW 9707   4.935   0.902   5.856 -0.1175  0.0967 -0.7147
 2484SOL    HW2 9708   5.007   0.916   5.794 -0.1538 -0.0059 -0.7804
 2484SOL    HW3 9709   4.856   0.904   5.802 -0.2342  1.1209 -0.5152
 2484SOL    MW4 9710   4.934   0.904   5.841 -0.6069 -0.3448  0.7164
 2485SOL     OW 9711   5.163   1.769   1.144  0.1067  0.0609  0.3102
 2485SOL    HW2 9712   5.082   1.773   1.194  0.3866  1.6136  0.7115
 2485SOL    HW3 9713   5.232   1.788   1.208  0.6512  0.1226 -0.2790
 2485SOL    MW4 9714   5.162   1.772   1.159 -0.2027  0.0562  0.2325
 2486SOL     OW 9715   2.049   1.679   4.618 -0.5342 -0.3177  0.3569
 2486SOL    HW2 9716   2.139   1.654   4.637  0.0349  1.1018 -0.2460
 2486SOL    HW3 9717   2.054   1.774   4.600 -1.6002 -0.6940 -2.6368
 2486SOL    MW4 9718   2.061   1.688   4.618  0.2982 -0.2755 -0.1895
 2487SOL     OW 9719   3.884   5.395   6.390 -0.1339  0.1400 -0.4951
 2487SOL    HW2 9720   3.815   5.329   6.381  0.4218 -0.3994 -0.8968
 2487SOL    HW3 9721   3.957   5.349   6.431  0.6172  0.2321 -1.6821
 2487SOL    MW4 9722   3.885   5.381   6.394  0.0665  0.3431  0.9832
 2488SOL     OW 9723   5.006   1.259   3.780  0.6948 -0.4346 -0.1506
 2488SOL    HW2 9724   4.992   1.312   3.858  1.7638  0.5727 -0.6169
 2488SOL    HW3 9725   5.100   1.269   3.761  0.3404 -0.1606 -1.9056
 2488SOL    MW4 9726   5.017   1.267   3.788 -0.1795 -0.1320  0.4113
 2489SOL     OW 9727   6.323   3.411   2.001 -0.6069  0.0171  0.3975
 2489SOL    HW2 9728   6.310   3.324   1.963 -0.2509  0.3710 -0.5698
 2489SOL    HW3 9729   6.408   3.406   2.045 -0.6805 -0.1817  0.5185
 2489SOL    MW4 9730   6.332   3.399   2.002 -0.0663  0.4574  0.1517
 2490SOL     OW 9731   0.263   6.071   1.903  0.3559  0.0015 -0.2831
 2490SOL    HW2 9732   0.340   6.106   1.947  0.8105 -1.5221  0.1695
 2490SOL    HW3 9733   0.220   6.017   1.969  1.5789 -3.1539 -1.8580
 2490SOL    MW4 9734   0.267   6.069   1.917  0.2600 -0.4066 -0.6210
 2491SOL     OW 9735   4.033   6.226   4.066 -0.3335  0.3456  0.0946
 2491SOL    HW2 9736   4.113   6.205   4.018  0.6435  1.4864  1.1782
 2491SOL    HW3 9737   4.052   6.203   4.157 -1.7496 -0.6949  0.1662
 2491SOL    MW4 9738   4.046   6.220   4.072 -0.0471 -0.6010 -0.4297
 2492SOL     OW 9739   1.904   0.086   0.653  0.0370  0.4194  0.3475
 2492SOL    HW2 9740   1.988   0.073   0.610 -0.1754 -0.4674  0.1790
 2492SOL    HW3 9741   1.893   0.181   0.656  1.0284  0.5504  0.3536
 2492SOL    MW4 9742   1.914   0.097   0.648 -0.2021 -0.6870  0.3079
 2493SOL     OW 9743   5.181   2.848   5.728  0.6647 -0.6328 -0.4618
 2493SOL    HW2 9744   5.156   2.756   5.727  3.2148 -1.4469  0.7318
 2493SOL    HW3 9745   5.275   2.846   5.745  0.7140  2.2296 -0.0063
 2493SOL    MW4 9746   5.190   2.836   5.730  0.6306 -0.5914  0.1265
 2494SOL     OW 9747   6.240   0.456   4.199 -0.9053 -0.5598 -0.8677
 2494SOL    HW2 9748   6.333   0.445   4.218 -0.9141 -2.0788 -1.5643
 2494SOL    HW3 9749   6.202   0.485   4.282 -0.2338 -2.5517  0.2135
 2494SOL    MW4 9750   6.247   0.458   4.212  0.4547  0.4332  0.4746
 2495SOL     OW 9751   4.874   4.477   5.913  0.1049 -0.4412  0.4032
 2495SOL    HW2 9752   4.791   4.516   5.884 -0.0218 -0.4116  0.7951
 2495SOL    HW3 9753   4.857   4.449   6.003  1.2570  1.8219  1.4154
 2495SOL    MW4 9754   4.861   4.478   5.921 -0.2662  0.3263  0.0448
 2496SOL     OW 9755   5.099   2.134   1.457  0.2942 -0.2795  0.1166
 2496SOL    HW2 9756   5.029   2.197   1.473  0.3693 -0.5386  1.6644
 2496SOL    HW3 9757   5.059   2.049   1.475  0.5595 -0.5755 -0.6414
 2496SOL    MW4 9758   5.085   2.131   1.462 -0.1734  0.4575  0.4045
 2497SOL     OW 9759   5.544   1.057   4.052  0.5031  0.1783  0.8111
 2497SOL    HW2 9760   5.464   1.051   4.000  1.1922  0.5812 -0.3204
 2497SOL    HW3 9761   5.612   1.081   3.990  1.3016  1.0091  1.9646
 2497SOL    MW4 9762   5.542   1.059   4.037 -0.6008 -0.1732 -0.1212
 2498SOL     OW 9763   1.408   2.673   0.726  0.3577  0.6282 -0.0312
 2498SOL    HW2 9764   1.472   2.743   0.734  0.2139  0.9631 -1.5222
 2498SOL    HW3 9765   1.364   2.670   0.811  2.4720  0.2329  1.1388
 2498SOL    MW4 9766   1.411   2.682   0.738 -0.0351 -0.3400 -0.4120
 2499SOL     OW 9767   6.397   2.314   1.353  0.2103 -0.2655  0.2772
 2499SOL    HW2 9768   6.473   2.257   1.362  1.5908  1.5873  0.9025
 2499SOL    HW3 9769   6.365   2.297   1.264  1.8517 -0.5137 -0.3045
 2499SOL    MW4 9770   6.403   2.304   1.342  0.2268 -0.3613 -0.0105
 2500SOL     OW 9771   4.821   3.819   0.127  0.2427 -0.1339 -0.1058
 2500SOL    HW2 9772   4.831   3.862   0.042 -0.1260  0.5573  0.1889
 2500SOL    HW3 9773   4.787   3.732   0.107 -1.3435  0.5685 -0.5775
 2500SOL    MW4 9774   4.818   3.813   0.113 -0.7084  0.3250 -0.2753
 2501SOL     OW 9775   1.976   6.137   2.836 -0.3212 -0.2657 -0.1033
 2501SOL    HW2 9776   1.881   6.134   2.848 -0.3651 -1.1591 -0.5862
 2501SOL    HW3 9777   1.988   6.155   2.743 -0.0131  0.3965  0.0617
 2501SOL    MW4 9778   1.965   6.139   2.825 -0.4355 -0.4198 -0.1987
 2502SOL     OW 9779   3.264   1.629   5.642  0.6086  0.2840 -0.4686
 2502SOL    HW2 9780   3.303   1.670   5.565  0.8452  0.2362 -0.3752
 2502SOL    HW3 9781   3.233   1.544   5.612  1.6583 -0.1866 -0.2734
 2502SOL    MW4 9782   3.265   1.623   5.628 -0.9424  0.3106 -0.4791
 2503SOL     OW 9783   5.319   3.144   2.817  0.3267  0.5614 -0.4442
 2503SOL    HW2 9784   5.303   3.123   2.909 -0.3250 -2.6485 -1.1878
 2503SOL    HW3 9785   5.401   3.193   2.818 -0.9423  2.9320  1.9956
 2503SOL    MW4 9786   5.328   3.148   2.829  0.3019  0.8104  0.4193
 2504SOL     OW 9787   2.615   0.804   4.812 -0.2038  0.2974 -0.2527
 2504SOL    HW2 9788   2.625   0.773   4.902  2.3651 -1.5343 -1.0407
 2504SOL    HW3 9789   2.679   0.875   4.805 -0.0884  0.1412 -0.7542
 2504SOL    MW4 9790   2.625   0.809   4.823  0.7074  0.1859 -0.3665
 2505SOL     OW 9791   1.659   1.758   5.318  0.2671 -0.4118  0.3064
 2505SOL    HW2 9792   1.580   1.785   5.271  1.5142  1.8817 -0.5920
 2505SOL    HW3 9793   1.638   1.774   5.411 -0.3978 -0.0141  0.0934
 2505SOL    MW4 9794   1.646   1.763   5.324 -0.3193 -0.5801 -0.5922
 2506SOL     OW 9795   0.970   3.368   6.349 -0.0536 -0.2673 -0.2948
 2506SOL    HW2 9796   0.911   3.409   6.412 -1.1683 -1.8657 -0.2377
 2506SOL    HW3 9797   0.933   3.390   6.263 -0.0515 -0.2918 -0.3021
 2506SOL    MW4 9798   0.957   3.377   6.346  0.6504 -0.7211  0.3029
 2507SOL     OW 9799   5.519   5.332   1.797  0.3320  0.4881  0.1327
 2507SOL    HW2 9800   5.577   5.387   1.849  2.8640 -2.8375  1.1385
 2507SOL    HW3 9801   5.569   5.313   1.718  0.2972 -1.6296  0.5657
 2507SOL    MW4 9802   5.533   5.337   1.794  0.2356  0.2482  0.1633
 2508SOL     OW 9803   2.044   4.920   4.322 -0.3607 -0.2352  0.3591
 2508SOL    HW2 9804   2.076   4.923   4.232 -0.6445  0.3018  0.2727
 2508SOL    HW3 9805   2.000   5.004   4.335 -1.2229 -0.7205  0.6652
 2508SOL    MW4 9806   2.042   4.932   4.312  0.2182 -0.4431 -0.2824
 2509SOL     OW 9807   0.165   2.259   0.251  0.5179 -0.3706 -0.2341
 2509SOL    HW2 9808   0.075   2.227   0.263  1.2537 -2.5027  0.0086
 2509SOL    HW3 9809   0.199   2.208   0.178  1.0719  1.5329 -1.3801
 2509SOL    MW4 9810   0.158   2.248   0.243 -0.7004  0.2743 -0.5406
 2510SOL     OW 9811   0.911   5.802   3.905  0.3153 -0.0153 -0.1271
 2510SOL    HW2 9812   0.818   5.813   3.925 -0.1963 -2.4241 -0.8637
 2510SOL    HW3 9813   0.946   5.754   3.981  0.7593  0.1359 -0.2357
 2510SOL    MW4 9814   0.903   5.797   3.918  0.1084 -0.3722 -0.8153
 2511SOL     OW 9815   4.928   0.069   2.904  0.1752  0.0578 -0.2864
 2511SOL    HW2 9816   4.927   0.065   3.000 -1.1425 -0.4025 -0.3048
 2511SOL    HW3 9817   4.998   0.008   2.879  0.3045 -0.0808  0.3759
 2511SOL    MW4 9818   4.937   0.060   2.913  0.7385 -0.1224 -0.2522
 2512SOL     OW 9819   5.080   0.106   1.298  0.0494  0.3176  0.0452
 2512SOL    HW2 9820   5.042   0.018   1.298 -0.4401  0.5206 -0.8533
 2512SOL    HW3 9821   5.166   0.095   1.257 -0.4260  0.4178 -1.0054
 2512SOL    MW4 9822   5.086   0.093   1.293 -0.2160  0.5100 -0.5982
 2513SOL     OW 9823   0.013   5.467   4.348 -0.0322 -0.3552 -0.5524
 2513SOL    HW2 9824   0.014   5.508   4.434  1.3963 -0.6472 -0.4083
 2513SOL    HW3 9825  -0.051   5.518   4.298 -1.8211 -0.9312  1.0085
 2513SOL    MW4 9826   0.005   5.479   4.353  0.4296  0.3262  0.4067
 2514SOL     OW 9827   2.552   3.711   1.903  0.3951  0.5850 -0.2270
 2514SOL    HW2 9828   2.595   3.639   1.858  1.9338  1.3892 -0.1118
 2514SOL    HW3 9829   2.463   3.680   1.918  1.1555 -1.4975  0.3140
 2514SOL    MW4 9830   2.546   3.698   1.899 -0.3028 -0.0682  0.0423
 2515SOL     OW 9831   0.966   2.446   4.701  0.2496  0.2438  0.4602
 2515SOL    HW2 9832   1.055   2.463   4.730  0.7827  1.3881 -1.6735
 2515SOL    HW3 9833   0.913   2.453   4.781  2.0837 -0.9661  1.8593
 2515SOL    MW4 9834   0.971   2.449   4.716  0.1708 -0.3197  0.5808
 2516SOL     OW 9835   2.256   0.362   2.564 -0.4035  0.0466  0.0163
 2516SOL    HW2 9836   2.324   0.415   2.604  1.8591 -0.9983 -2.1562
 2516SOL    HW3 9837   2.269   0.373   2.469 -3.9288  0.5326 -0.5587
 2516SOL    MW4 9838   2.266   0.370   2.556  0.1008 -0.1381  0.8266
 2517SOL     OW 9839   6.303   5.073   3.154 -0.1929  0.7947 -0.2654
 2517SOL    HW2 9840   6.384   5.123   3.147 -0.0073  0.4276 -0.8347
 2517SOL    HW3 9841   6.294   5.053   3.247 -0.1316  1.6497 -0.0713
 2517SOL    MW4 9842   6.312   5.077   3.165  0.0408  0.4005 -0.1473
 2518SOL     OW 9843   0.356   1.645   2.396  0.1680  0.1373 -0.1202
 2518SOL    HW2 9844   0.414   1.611   2.328 -0.8041 -0.4098 -0.6947
 2518SOL    HW3 9845   0.278   1.673   2.349 -0.4717 -0.1459  0.7608
 2518SOL    MW4 9846   0.354   1.644   2.381  0.3138 -0.6368  0.9359
 2519SOL     OW 9847   2.701   0.791   0.010 -0.1005  0.0356 -0.1805
 2519SOL    HW2 9848   2.698   0.876  -0.033 -0.2866  0.3805  0.4971
 2519SOL    HW3 9849   2.681   0.810   0.102  1.2566 -0.5434  0.2568
 2519SOL    MW4 9850   2.698   0.804   0.016  0.0010  0.1301  0.0137
 2520SOL     OW 9851   0.861   1.759   3.626  0.1526  0.0649 -0.1120
 2520SOL    HW2 9852   0.887   1.706   3.551  1.1068  1.3439 -0.7253
 2520SOL    HW3 9853   0.780   1.802   3.598  0.1397  0.0222 -0.1408
 2520SOL    MW4 9854   0.853   1.758   3.612 -0.0185 -0.7933  0.3391
 2521SOL     OW 9855   1.321   4.252   5.789  0.2774  0.3402  0.1636
 2521SOL    HW2 9856   1.390   4.302   5.746  0.7579 -0.7430 -0.3632
 2521SOL    HW3 9857   1.338   4.265   5.883  1.0064  0.3412  0.0406
 2521SOL    MW4 9858   1.333   4.261   5.796  0.0440  0.5038  0.1142
 2522SOL     OW 9859   0.470   2.768   4.175 -0.4298  0.2117 -0.4446
 2522SOL    HW2 9860   0.557   2.785   4.141  0.2203 -0.4534  0.8221
 2522SOL    HW3 9861   0.478   2.781   4.270 -1.5906 -0.2956 -0.2579
 2522SOL    MW4 9862   0.482   2.772   4.183 -0.3135 -0.0188  0.5916
 2523SOL     OW 9863   1.927   0.267   3.134 -0.2192 -0.1409 -0.2839
 2523SOL    HW2 9864   1.915   0.357   3.105 -1.4056 -0.5734 -1.2169
 2523SOL    HW3 9865   1.841   0.226   3.121 -0.0711 -1.0665  1.3652
 2523SOL    MW4 9866   1.914   0.274   3.129 -0.0515 -0.1564  0.0806
 2524SOL     OW 9867   6.094   0.265   3.109  0.0957  0.0732 -0.2230
 2524SOL    HW2 9868   6.015   0.217   3.132  0.8320 -1.5411 -0.8198
 2524SOL    HW3 9869   6.161   0.229   3.167  0.6441  0.4543 -0.6088
 2524SOL    MW4 9870   6.093   0.254   3.119 -0.1932  0.6338  0.0145
 2525SOL     OW 9871   5.463   3.861   6.387  1.2398 -0.4360  0.0305
 2525SOL    HW2 9872   5.501   3.773   6.392  1.4454 -0.3249  0.4571
 2525SOL    HW3 9873   5.373   3.846   6.359  2.3843 -0.4970 -4.2257
 2525SOL    MW4 9874   5.456   3.847   6.384 -0.1437 -0.7148 -0.4100
 2526SOL     OW 9875   5.773   5.332   6.401  0.6268 -0.3911  0.3642
 2526SOL    HW2 9876   5.849   5.298   6.448  0.5632 -0.5541  0.3513
 2526SOL    HW3 9877   5.763   5.422   6.432  1.4509 -0.0241 -0.4004
 2526SOL    MW4 9878   5.782   5.339   6.411 -0.4160  0.1016 -0.1508
 2527SOL     OW 9879   4.943   4.262   1.854  0.1232  0.0230 -0.0427
 2527SOL    HW2 9880   4.994   4.205   1.912  2.3436  1.9430  0.0632
 2527SOL    HW3 9881   4.871   4.293   1.908  1.2931  0.5754  1.2825
 2527SOL    MW4 9882   4.940   4.259   1.869 -0.6415  0.1839  0.1152
 2528SOL     OW 9883   2.343   5.603   2.637 -0.7636 -0.7971 -0.5635
 2528SOL    HW2 9884   2.395   5.524   2.653  0.7793  0.8438  4.5790
 2528SOL    HW3 9885   2.255   5.580   2.669 -1.2112 -1.3080 -2.0997
 2528SOL    MW4 9886   2.338   5.589   2.643 -0.4585 -0.3004  0.7450
 2529SOL     OW 9887   5.339   0.287   4.165 -0.2949  0.3032 -0.2457
 2529SOL    HW2 9888   5.319   0.371   4.124 -1.5440  0.8985  1.4418
 2529SOL    HW3 9889   5.314   0.300   4.257 -0.4991 -1.9065  0.0479
 2529SOL    MW4 9890   5.333   0.300   4.172 -0.1254 -0.1350 -0.1666
 2530SOL     OW 9891   5.561   0.886   3.206 -0.2961 -0.2837  0.0804
 2530SOL    HW2 9892   5.628   0.954   3.204 -1.7531  1.2318  0.9550
 2530SOL    HW3 9893   5.511   0.899   3.126  0.0590 -1.0335 -0.2754
 2530SOL    MW4 9894   5.563   0.897   3.195 -0.0741  0.1711 -0.1687
 2531SOL     OW 9895   1.642   1.020   1.954 -0.4954  0.1704  0.6716
 2531SOL    HW2 9896   1.730   0.985   1.967 -0.5874 -0.0558  0.6776
 2531SOL    HW3 9897   1.620   1.062   2.037 -0.6658 -0.3650  0.8964
 2531SOL    MW4 9898   1.651   1.021   1.966 -0.2849  0.3681  0.6655
 2532SOL     OW 9899   1.343   4.960   5.295  0.1365 -0.0681  0.3470
 2532SOL    HW2 9900   1.326   5.040   5.245  2.4637  0.9904  1.1214
 2532SOL    HW3 9901   1.292   4.970   5.375 -0.5507  0.0348 -0.0897
 2532SOL    MW4 9902   1.334   4.972   5.299  0.5468  0.1554 -0.3447
 2533SOL     OW 9903   1.478   4.917   6.416 -0.1416  0.2887 -0.1495
 2533SOL    HW2 9904   1.511   4.965   6.492 -0.7109 -0.4970  0.6048
 2533SOL    HW3 9905   1.486   4.979   6.344  1.4093  0.6948  0.3265
 2533SOL    MW4 9906   1.484   4.931   6.416  0.5565  0.5125  0.3495
 2534SOL     OW 9907   1.087   4.048   5.360 -0.3292 -1.2153  0.3790
 2534SOL    HW2 9908   1.036   4.000   5.295  0.5137  1.1380 -2.2417
 2534SOL    HW3 9909   1.028   4.117   5.390  0.4958  0.1670 -1.0204
 2534SOL    MW4 9910   1.073   4.051   5.355 -0.0237  0.3649 -0.1134
 2535SOL     OW 9911   3.968   3.946   6.005  0.2821  0.0583  0.5375
 2535SOL    HW2 9912   3.917   3.879   6.051  2.4051 -1.2163  1.1736
 2535SOL    HW3 9913   3.931   3.948   5.917 -0.7408 -0.9409  0.9168
 2535SOL    MW4 9914   3.956   3.937   6.000  0.0932 -0.1547  0.3135
 2536SOL     OW 9915   4.744   3.046   2.037  0.1153  0.0389  0.5593
 2536SOL    HW2 9916   4.785   3.069   1.953  0.9063 -0.0782  0.9034
 2536SOL    HW3 9917   4.706   3.128   2.068  1.6536  0.5899  1.0796
 2536SOL    MW4 9918   4.744   3.060   2.030 -0.5210 -0.3321 -0.1510
 2537SOL     OW 9919   1.515   6.129   2.389  0.2397 -0.5626 -0.1219
 2537SOL    HW2 9920   1.507   6.134   2.294  1.1729  0.0647 -0.1869
 2537SOL    HW3 9921   1.594   6.180   2.409 -0.7685  0.5902  1.1221
 2537SOL    MW4 9922   1.525   6.137   2.379 -0.4569 -0.2230 -0.4168
 2538SOL     OW 9923   2.713   0.606   4.106 -0.0008 -0.2730  0.2053
 2538SOL    HW2 9924   2.695   0.616   4.200 -0.3424  0.2337  0.0891
 2538SOL    HW3 9925   2.637   0.559   4.073 -1.3475  2.1163 -0.3377
 2538SOL    MW4 9926   2.701   0.601   4.114 -0.4735  0.4087  0.5460
 2539SOL     OW 9927   5.457   0.989   6.026 -0.5100 -0.3120 -0.5844
 2539SOL    HW2 9928   5.392   0.983   6.096 -0.7084  0.3922 -0.7054
 2539SOL    HW3 9929   5.534   1.028   6.068 -0.6041  0.0442 -0.7418
 2539SOL    MW4 9930   5.459   0.994   6.041 -0.0055 -0.0738  0.8339
 2540SOL     OW 9931   3.598   2.200   3.855 -0.1356  0.3493  0.2643
 2540SOL    HW2 9932   3.599   2.156   3.940 -1.2773  2.8979  1.6894
 2540SOL    HW3 9933   3.688   2.193   3.823 -0.1315 -2.4147  0.6498
 2540SOL    MW4 9934   3.610   2.193   3.862 -0.6791 -0.7689  0.1127
 2541SOL     OW 9935   3.904   1.559   5.682  0.0412  0.4913 -0.7090
 2541SOL    HW2 9936   3.872   1.473   5.654  3.1530 -1.4669  1.0849
 2541SOL    HW3 9937   3.978   1.577   5.623 -0.0001  1.5083 -0.4723
 2541SOL    MW4 9938   3.910   1.550   5.671 -0.2486  0.1099  0.3847
 2542SOL     OW 9939   3.430   2.910   5.388  0.5277  0.2481 -0.0004
 2542SOL    HW2 9940   3.412   3.001   5.411  1.4305  0.8205 -1.4180
 2542SOL    HW3 9941   3.363   2.887   5.323  0.8307  0.2007 -0.3008
 2542SOL    MW4 9942   3.419   2.919   5.382  0.5251 -0.6618  0.0444
 2543SOL     OW 9943   5.947   3.810   1.489  0.4323 -0.5631  0.1664
 2543SOL    HW2 9944   5.999   3.789   1.411  0.8250  0.5987  0.0872
 2543SOL    HW3 9945   6.010   3.842   1.553 -0.1418  0.8433  0.0778
 2543SOL    MW4 9946   5.962   3.812   1.487 -0.1289 -0.7861 -0.1360
 2544SOL     OW 9947   6.165   5.298   2.054  0.4771 -0.3646 -0.0629
 2544SOL    HW2 9948   6.082   5.269   2.091 -0.6891  1.3258 -1.2215
 2544SOL    HW3 9949   6.175   5.387   2.086  1.1985 -0.1049 -0.9842
 2544SOL    MW4 9950   6.156   5.306   2.063  0.3685 -0.3069 -0.2273
 2545SOL     OW 9951   1.900   6.112   4.018 -0.0039 -0.1921  0.1351
 2545SOL    HW2 9952   1.866   6.190   3.974  0.3318 -0.1468 -0.0501
 2545SOL    HW3 9953   1.861   6.039   3.969  0.3417 -0.1421 -0.2251
 2545SOL    MW4 9954   1.891   6.112   4.005 -0.9144  0.2725 -0.4061
 2546SOL     OW 9955   5.486   0.215   3.362 -0.1562 -0.0065  0.4307
 2546SOL    HW2 9956   5.445   0.148   3.417 -0.4745  0.2809  0.5436
 2546SOL    HW3 9957   5.556   0.250   3.417  0.0465 -0.2828  0.3514
 2546SOL    MW4 9958   5.490   0.211   3.377 -0.0919  0.2635  0.5936
 2547SOL     OW 9959   2.588   5.081   3.770  0.4018  0.2168  0.0022
 2547SOL    HW2 9960   2.673   5.087   3.726  0.5705  0.4060  0.3528
 2547SOL    HW3 9961   2.577   4.987   3.786  1.0992  0.2874  1.0158
 2547SOL    MW4 9962   2.598   5.069   3.766 -0.0296 -0.0400 -0.3690
 2548SOL     OW 9963   5.013   6.194   0.786  0.3337 -0.3652 -0.4814
 2548SOL    HW2 9964   5.069   6.180   0.710  0.9916 -1.5116  0.1780
 2548SOL    HW3 9965   5.059   6.258   0.839  1.3629 -1.7280  0.3374
 2548SOL    MW4 9966   5.026   6.200   0.783  0.1765  0.4162  0.3117
 2549SOL     OW 9967   4.414   0.726   3.076 -0.4162  0.3131  0.3673
 2549SOL    HW2 9968   4.498   0.693   3.109  0.2869  1.9441  0.3148
 2549SOL    HW3 9969   4.353   0.711   3.148  0.0172 -0.4427  0.5976
 2549SOL    MW4 9970   4.417   0.719   3.090  0.0361 -0.1634 -0.1233
 2550SOL     OW 9971   4.040   0.455   4.998 -0.2896 -0.4461  0.6277
 2550SOL    HW2 9972   4.011   0.436   4.909 -1.7298  0.6924  0.8324
 2550SOL    HW3 9973   4.082   0.541   4.992  0.0866 -0.6026  0.9604
 2550SOL    MW4 9974   4.042   0.464   4.985  0.2529  0.0281 -0.1783
 2551SOL     OW 9975   0.007   1.775   0.543  0.0549  0.5565 -0.2426
 2551SOL    HW2 9976   0.010   1.685   0.513 -1.9954  0.0871  0.8082
 2551SOL    HW3 9977   0.072   1.779   0.614  0.3695  0.0084 -0.4925
 2551SOL    MW4 9978   0.016   1.764   0.548  0.3594  0.3309 -0.0849
 2552SOL     OW 9979   2.694   5.320   0.784  0.9151 -0.0973 -0.0439
 2552SOL    HW2 9980   2.777   5.365   0.796  1.7658 -1.6006 -0.0325
 2552SOL    HW3 9981   2.701   5.277   0.699  0.8105 -1.5497  0.6557
 2552SOL    MW4 9982   2.706   5.320   0.775 -0.1316 -0.4927  0.1731
 2553SOL     OW 9983   6.096   0.783   1.423 -0.2712  0.2527  0.0668
 2553SOL    HW2 9984   6.171   0.724   1.421  0.0335  0.5446  1.6907
 2553SOL    HW3 9985   6.049   0.761   1.503 -0.8946  1.3093  0.0238
 2553SOL    MW4 9986   6.100   0.773   1.433  0.7890 -0.3214 -0.2492
 2554SOL     OW 9987   0.581   1.992   0.276 -0.0109  0.0166  0.2719
 2554SOL    HW2 9988   0.674   1.999   0.296  0.0711 -2.3090  1.0470
 2554SOL    HW3 9989   0.540   2.064   0.324  1.3018  0.5613  0.6010
 2554SOL    MW4 9990   0.588   2.002   0.285  0.1296  0.0348 -0.1934
 2555SOL     OW 9991   2.921   1.453   3.360  0.0708 -0.6094  0.4109
 2555SOL    HW2 9992   2.941   1.402   3.438  0.8461 -1.4288 -0.3164
 2555SOL    HW3 9993   2.830   1.482   3.373  0.5666  0.2869  2.1540
 2555SOL    MW4 9994   2.911   1.450   3.372  0.2294 -0.2135 -0.1555
 2556SOL     OW 9995   2.611   0.094   3.653  0.1965  0.0631  0.1561
 2556SOL    HW2 9996   2.651   0.154   3.590  2.0103 -0.6342  0.6115
 2556SOL    HW3 9997   2.636   0.128   3.739 -0.0375 -0.4880  0.4470
 2556SOL    MW4 9998   2.619   0.106   3.656 -0.1694  0.0565 -0.2711
 2557SOL     OW 9999   2.770   1.263   1.483 -0.2061 -0.5887  0.0815
 2557SOL    HW210000   2.797   1.184   1.530  0.7619 -0.5548 -0.3966
 2557SOL    HW310001   2.701   1.233   1.424 -0.3058 -0.9447  0.3731
 2557SOL    MW410002   2.765   1.249   1.481 -0.0538  0.0701 -0.3329
 2558SOL     OW10003   2.745   3.050   5.514  0.0669  0.0652 -0.2855
 2558SOL    HW210004   2.820   3.003   5.552 -0.7168 -1.1156 -0.1385
 2558SOL    HW310005   2.747   3.026   5.421  0.5876  1.0382 -0.5368
 2558SOL    MW410006   2.755   3.041   5.507 -0.4910  0.3186  0.0481
 2559SOL     OW10007   6.309   2.201   0.261 -0.3002 -0.6388 -0.5669
 2559SOL    HW210008   6.318   2.250   0.179 -1.9856  1.5075  0.4136
 2559SOL    HW310009   6.228   2.152   0.251 -0.6044 -0.2325 -0.1553
 2559SOL    MW410010   6.300   2.201   0.249 -0.1444  0.3305 -0.1190
 2560SOL     OW10011   5.513   6.199   1.968 -0.1029 -0.3719  0.0323
 2560SOL    HW210012   5.473   6.202   1.881  0.8713 -0.1713 -0.4299
 2560SOL    HW310013   5.545   6.288   1.982  1.0159 -0.7445 -0.0347
 2560SOL    MW410014   5.512   6.211   1.959 -0.3157 -0.2339  0.0035
 2561SOL     OW10015   2.316   0.456   0.033 -0.5317  0.5821 -0.6522
 2561SOL    HW210016   2.326   0.533   0.089 -3.0432  0.4768  0.0541
 2561SOL    HW310017   2.224   0.458   0.005 -0.8415 -2.4014 -0.1664
 2561SOL    MW410018   2.305   0.466   0.037 -0.2685 -0.3337  0.2198
 2562SOL     OW10019   4.807   0.440   3.732 -0.3026 -0.7117 -0.3965
 2562SOL    HW210020   4.873   0.472   3.671  4.0554 -1.7072  3.2772
 2562SOL    HW310021   4.814   0.498   3.808 -1.5732 -2.6200  1.2919
 2562SOL    MW410022   4.816   0.452   3.734 -0.4790 -0.0280 -0.6450
 2563SOL     OW10023   6.140   5.837   5.966  0.5004  1.1296 -0.3957
 2563SOL    HW210024   6.233   5.830   5.988  0.1431 -0.0926  0.8609
 2563SOL    HW310025   6.110   5.912   6.017  0.6242  1.0109 -0.1437
 2563SOL    MW410026   6.149   5.846   5.976  0.1270  0.3058  0.1315
 2564SOL     OW10027   5.623   6.211   3.648  0.4808  0.7009 -0.1364
 2564SOL    HW210028   5.534   6.232   3.619 -0.8781 -2.0974  1.5879
 2564SOL    HW310029   5.661   6.165   3.574 -0.0701  0.5252 -0.3173
 2564SOL    MW410030   5.616   6.208   3.634  0.0167 -0.4604  0.0219
 2565SOL     OW10031   4.884   1.769   2.139  0.2015 -0.7751  0.0810
 2565SOL    HW210032   4.898   1.691   2.191  0.1526 -0.7841  0.0812
 2565SOL    HW310033   4.884   1.738   2.048 -1.0045 -0.9636  0.1300
 2565SOL    MW410034   4.886   1.755   2.134 -0.1558  0.6725 -0.1358
 2566SOL     OW10035   0.316   5.539   0.534  0.2863 -0.0906 -0.2048
 2566SOL    HW210036   0.329   5.600   0.461  0.1198  0.2400  0.0432
 2566SOL    HW310037   0.358   5.458   0.505  1.5773  0.4979 -0.0411
 2566SOL    MW410038   0.323   5.536   0.520 -0.2908  0.0858  0.4053
 2567SOL     OW10039   4.817   3.623   1.103  0.3904  0.8910  0.3058
 2567SOL    HW210040   4.904   3.655   1.078  0.3104  0.8793  0.0166
 2567SOL    HW310041   4.768   3.619   1.021 -0.1171  1.6037  0.5645
 2567SOL    MW410042   4.822   3.627   1.089 -0.6459  0.8184 -0.0194
 2568SOL     OW10043   1.139   6.421   4.060  0.2008 -0.0740  0.6325
 2568SOL    HW210044   1.089   6.477   4.001  0.9943  1.5077  1.4159
 2568SOL    HW310045   1.073   6.388   4.122 -0.2758  0.0128  0.1806
 2568SOL    MW410046   1.123   6.424   4.061  0.3997  0.0218  0.0501
 2569SOL     OW10047   2.894   6.464   0.976 -0.3103  0.1559  0.0686
 2569SOL    HW210048   2.829   6.494   1.038 -1.4799 -0.0811 -0.9988
 2569SOL    HW310049   2.866   6.375   0.953  0.2233  0.1514 -0.6022
 2569SOL    MW410050   2.882   6.456   0.981 -0.5079 -0.0665 -0.2967
 2570SOL     OW10051   3.721   0.936   3.076 -0.8511 -0.3094  0.3535
 2570SOL    HW210052   3.685   0.869   3.018 -0.9685  0.8758 -0.9980
 2570SOL    HW310053   3.653   1.003   3.080  0.3735  1.0606 -0.6705
 2570SOL    MW410054   3.707   0.936   3.069  0.3135  0.3456  0.2222
 2571SOL     OW10055   1.399   4.204   4.557 -0.4026 -0.4177 -0.0917
 2571SOL    HW210056   1.374   4.121   4.515 -0.6798 -0.9926  1.1680
 2571SOL    HW310057   1.341   4.210   4.633 -0.0579  0.7071  0.0878
 2571SOL    MW410058   1.388   4.194   4.561 -0.5691  0.3897  0.6629
 2572SOL     OW10059   4.681   5.143   6.319  0.3461  0.4815 -0.2281
 2572SOL    HW210060   4.655   5.087   6.246  0.8832  1.3085 -1.0754
 2572SOL    HW310061   4.748   5.201   6.283  0.0552  1.4406  0.7073
 2572SOL    MW410062   4.686   5.144   6.305  0.6024  0.7962 -0.8273
 2573SOL     OW10063   2.234   3.817   4.982 -0.2644  0.0831  0.3302
 2573SOL    HW210064   2.210   3.769   5.061  0.4940 -1.5869 -0.3954
 2573SOL    HW310065   2.150   3.848   4.946 -0.6144  0.8491  1.7427
 2573SOL    MW410066   2.220   3.815   4.988  0.1181 -0.4086 -0.2719
 2574SOL     OW10067   5.223   5.702   4.417  0.4958  0.1467 -0.1421
 2574SOL    HW210068   5.241   5.784   4.463  0.6191 -0.5558  1.0835
 2574SOL    HW310069   5.305   5.653   4.423 -0.2915 -1.0489  1.2158
 2574SOL    MW410070   5.236   5.706   4.424 -0.5116  0.6810  0.2833
 2575SOL     OW10071   5.812   4.530   0.829  0.0457  0.1194 -0.2658
 2575SOL    HW210072   5.893   4.486   0.855 -0.5287  0.4669  2.3613
 2575SOL    HW310073   5.756   4.459   0.797  0.2416 -0.6279  0.9867
 2575SOL    MW410074   5.816   4.515   0.828 -0.3976 -0.2103  0.0070
 2576SOL     OW10075   3.583   3.938   0.358 -0.5651  0.7377  0.2654
 2576SOL    HW210076   3.636   3.903   0.430  1.0271  1.7928 -0.3151
 2576SOL    HW310077   3.607   3.883   0.283  0.0127  1.4288 -0.0745
 2576SOL    MW410078   3.593   3.926   0.358 -0.3665  0.2922 -0.2633
 2577SOL     OW10079   0.330   3.631   3.270 -0.3879  0.3819 -0.4909
 2577SOL    HW210080   0.311   3.682   3.349 -1.3134 -2.1599  1.0311
 2577SOL    HW310081   0.298   3.686   3.198 -3.9166  0.8444  1.2199
 2577SOL    MW410082   0.324   3.645   3.271  0.0259  0.1601  0.4202
 2578SOL     OW10083   1.382   5.957   0.837 -0.0532 -0.0892 -0.1201
 2578SOL    HW210084   1.467   5.936   0.798  1.0057  0.6346  1.6498
 2578SOL    HW310085   1.396   6.041   0.881 -1.1152 -0.8494  1.8084
 2578SOL    MW410086   1.395   5.966   0.838  0.3257 -0.7928  0.1065
 2579SOL     OW10087   2.523   0.174   4.249 -0.4054  0.2190  0.3479
 2579SOL    HW210088   2.467   0.100   4.227  0.7168 -0.2167 -1.2237
 2579SOL    HW310089   2.612   0.140   4.241  0.1766  1.9669 -1.5488
 2579SOL    MW410090   2.527   0.160   4.245  0.1884  0.0255 -0.2013
 2580SOL     OW10091   1.720   0.842   2.711 -0.1922  0.0496  0.1838
 2580SOL    HW210092   1.775   0.862   2.635  1.3476 -0.0481  1.2426
 2580SOL    HW310093   1.724   0.747   2.719  0.1454  0.1047  0.7313
 2580SOL    MW410094   1.728   0.832   2.702 -0.1954 -0.1044 -0.3429
 2581SOL     OW10095   6.133   0.463   5.627 -0.0848  0.3409  0.2393
 2581SOL    HW210096   6.145   0.440   5.719 -0.6881 -0.6815  0.0693
 2581SOL    HW310097   6.058   0.412   5.599 -2.6113  3.7283  0.2840
 2581SOL    MW410098   6.125   0.453   5.635  0.0741 -0.8762  0.0848
 2582SOL     OW10099   3.072   3.642   3.646 -0.1666 -0.1905 -0.2697
 2582SOL    HW210100   2.994   3.594   3.674 -0.3295  0.6638  0.7848
 2582SOL    HW310101   3.105   3.684   3.725 -0.8767  2.6534 -1.3882
 2582SOL    MW410102   3.066   3.641   3.660  0.1070 -0.2573 -0.1210
 2583SOL     OW10103   4.232   5.629   1.924  0.3470 -0.0785 -0.7360
 2583SOL    HW210104   4.303   5.693   1.929 -0.5836  0.8938  1.1255
 2583SOL    HW310105   4.182   5.653   1.846 -0.9615  2.6277  0.8093
 2583SOL    MW410106   4.235   5.640   1.915 -0.3761  0.5352 -0.2344
 2584SOL     OW10107   0.441   5.283   4.564 -0.5363 -0.2188  0.7937
 2584SOL    HW210108   0.367   5.235   4.527 -2.0823  3.5065 -1.4653
 2584SOL    HW310109   0.509   5.278   4.497  0.7665 -2.1551  2.1312
 2584SOL    MW410110   0.440   5.276   4.551 -0.0953  0.0678 -0.0160
 2585SOL     OW10111   5.951   4.178   3.671  0.2383 -0.3229  0.0688
 2585SOL    HW210112   5.941   4.196   3.577 -1.5949 -0.1151  0.2735
 2585SOL    HW310113   5.965   4.264   3.710  0.3782 -0.3408  0.0582
 2585SOL    MW410114   5.951   4.192   3.664 -0.5925 -0.2483 -0.0958
 2586SOL     OW10115   4.461   5.779   0.292 -0.4516  0.0655  0.7173
 2586SOL    HW210116   4.468   5.875   0.287  1.0883 -0.0857 -0.7320
 2586SOL    HW310117   4.442   5.762   0.385 -1.2877  1.7721  0.9163
 2586SOL    MW410118   4.459   5.790   0.304  1.2749  0.1777  0.1618
 2587SOL     OW10119   4.701   0.906   4.465 -0.2973 -0.2419 -0.4735
 2587SOL    HW210120   4.761   0.833   4.479  1.5802  1.4395  0.8380
 2587SOL    HW310121   4.614   0.871   4.484  0.7323 -1.7072  1.8490
 2587SOL    MW410122   4.698   0.892   4.469  0.2028  0.0186 -0.0327
 2588SOL     OW10123   6.278   2.032   4.765 -0.1021  0.3372 -0.0887
 2588SOL    HW210124   6.298   1.942   4.790  0.2478  0.1753 -0.9281
 2588SOL    HW310125   6.245   2.026   4.675  0.5142  1.1064 -0.3838
 2588SOL    MW410126   6.276   2.019   4.756 -0.0465  0.1159  0.0168
 2589SOL     OW10127   5.864   4.220   3.383 -0.0418 -0.4909  0.2318
 2589SOL    HW210128   5.854   4.124   3.383  1.8889 -0.7149  0.0115
 2589SOL    HW310129   5.784   4.251   3.427 -2.4183 -1.9622 -2.6336
 2589SOL    MW410130   5.852   4.211   3.389 -0.3112 -0.0478 -0.4008
 2590SOL     OW10131   0.578   4.660   2.872  0.0446  0.0026  0.1956
 2590SOL    HW210132   0.510   4.709   2.827 -0.1570 -0.6745 -0.2403
 2590SOL    HW310133   0.659   4.706   2.849 -0.3018  1.1889  1.2213
 2590SOL    MW410134   0.580   4.673   2.863  0.0010 -0.2096  0.2456
 2591SOL     OW10135   3.870   0.301   2.915 -0.1494  0.4993  0.1892
 2591SOL    HW210136   3.905   0.226   2.963 -1.4844 -1.1351 -1.2983
 2591SOL    HW310137   3.925   0.306   2.837 -1.9829 -0.9551 -1.2644
 2591SOL    MW410138   3.882   0.292   2.911  0.2313  0.3885  0.5037
 2592SOL     OW10139   3.245   3.327   2.718  0.2677 -0.0498  0.3416
 2592SOL    HW210140   3.224   3.390   2.649 -0.5781 -1.7592 -1.0414
 2592SOL    HW310141   3.298   3.260   2.674 -0.9887 -1.6195  1.1002
 2592SOL    MW410142   3.249   3.327   2.703 -0.0426  0.1042 -0.1671
 2593SOL     OW10143   3.702   4.444   4.839  0.3634  0.1239 -0.5958
 2593SOL    HW210144   3.743   4.513   4.786  1.4481 -0.6316 -0.7727
 2593SOL    HW310145   3.750   4.445   4.922 -0.2462  0.2041 -0.2369
 2593SOL    MW410146   3.714   4.454   4.843 -0.0627 -0.2684  0.4853
 2594SOL     OW10147   1.214   1.042   2.114  0.4142  0.0744  0.0653
 2594SOL    HW210148   1.125   1.078   2.112 -0.7043 -2.4491  0.8256
 2594SOL    HW310149   1.244   1.046   2.024 -0.0399  1.8533 -0.0504
 2594SOL    MW410150   1.206   1.047   2.102  0.1030  0.2081 -0.5507
 2595SOL     OW10151   3.873   5.024   6.139 -0.2347  0.3298 -0.0685
 2595SOL    HW210152   3.828   5.058   6.216  0.0948 -1.1490  0.8222
 2595SOL    HW310153   3.847   4.932   6.134 -0.7200  0.5254 -2.0893
 2595SOL    MW410154   3.864   5.016   6.148  0.6268 -0.1559  0.3571
 2596SOL     OW10155   0.308   0.588   5.559  0.1158 -0.3484  0.0757
 2596SOL    HW210156   0.308   0.496   5.534  1.7077 -0.5463  0.7356
 2596SOL    HW310157   0.262   0.632   5.487 -0.6660 -1.6428 -0.2367
 2596SOL    MW410158   0.302   0.582   5.546  0.1844 -0.5607 -0.3709
 2597SOL     OW10159   5.228   6.039   5.987 -0.3732 -0.0708 -0.3742
 2597SOL    HW210160   5.273   5.988   6.055 -1.4489 -1.5813 -0.7348
 2597SOL    HW310161   5.153   6.077   6.031  0.7344  1.7468  0.0265
 2597SOL    MW410162   5.224   6.037   6.002 -0.6124  0.4411  0.5419
 2598SOL     OW10163   1.287   0.752   6.341 -0.3255  0.1794  0.4420
 2598SOL    HW210164   1.328   0.774   6.425 -0.2952 -0.3117  0.5596
 2598SOL    HW310165   1.358   0.717   6.288 -0.4274  0.1040  0.3555
 2598SOL    MW410166   1.301   0.751   6.345  0.3630  0.2352 -0.1443
 2599SOL     OW10167   2.767   5.795   5.934 -0.1253  0.2617 -0.6626
 2599SOL    HW210168   2.679   5.772   5.902  0.0228 -1.0924 -0.1393
 2599SOL    HW310169   2.815   5.712   5.932  1.0321  0.9220 -0.5764
 2599SOL    MW410170   2.762   5.781   5.929 -0.5766 -0.0914 -0.1754
 2600SOL     OW10171   5.531   6.072   4.705 -0.1818 -0.1792  0.1613
 2600SOL    HW210172   5.563   6.028   4.784  1.2778  0.9817  0.2391
 2600SOL    HW310173   5.609   6.092   4.655 -0.9610  0.7435 -0.7184
 2600SOL    MW410174   5.545   6.069   4.709  0.2121 -0.0417 -0.1845
 2601SOL     OW10175   3.410   4.347   5.674 -0.0672 -0.4986 -0.1560
 2601SOL    HW210176   3.368   4.417   5.724  0.7983  0.2662 -0.4641
 2601SOL    HW310177   3.359   4.341   5.593  0.1026  0.0635 -0.3069
 2601SOL    MW410178   3.398   4.356   5.670  0.3485  0.4993  0.5635
 2602SOL     OW10179   5.526   3.820   2.044 -0.7066 -0.2786 -0.2324
 2602SOL    HW210180   5.503   3.806   1.952 -1.3854 -0.6302 -0.0201
 2602SOL    HW310181   5.454   3.873   2.079 -0.1493  0.3619 -0.0473
 2602SOL    MW410182   5.513   3.825   2.036 -0.1389  0.7309  0.2930
 2603SOL     OW10183   3.652   1.073   5.473  0.3987  0.2106  0.4711
 2603SOL    HW210184   3.693   1.001   5.522 -0.2006 -0.1444  0.4577
 2603SOL    HW310185   3.694   1.152   5.507 -1.5975  0.2142  3.2990
 2603SOL    MW410186   3.663   1.074   5.484  0.1694  0.7218  0.0184
 2604SOL     OW10187   1.529   4.242   4.183  0.1643  0.1708 -0.3984
 2604SOL    HW210188   1.449   4.189   4.188 -0.2153  0.7934  0.6585
 2604SOL    HW310189   1.525   4.298   4.261  3.1741 -1.9358  1.5153
 2604SOL    MW410190   1.518   4.243   4.194  0.1395 -0.2141  0.3445
 2605SOL     OW10191   1.285   4.824   2.122 -0.6332  0.3788  0.3197
 2605SOL    HW210192   1.376   4.809   2.098 -0.8915 -0.9857  0.0678
 2605SOL    HW310193   1.287   4.894   2.186  0.5651  0.5527  0.1008
 2605SOL    MW410194   1.297   4.831   2.127  0.5563  0.5225 -0.3225
 2606SOL     OW10195   3.224   6.177   2.443 -0.1271  0.0343  0.0090
 2606SOL    HW210196   3.272   6.256   2.467 -1.3098  0.3090  1.6493
 2606SOL    HW310197   3.151   6.209   2.389 -0.4406  0.0432  0.4327
 2606SOL    MW410198   3.220   6.192   2.439 -0.1189 -0.0738  0.2535
 2607SOL     OW10199   4.094   5.259   2.106  0.1163 -0.0218  0.2306
 2607SOL    HW210200   4.098   5.221   2.194  1.6302 -0.2525  0.1051
 2607SOL    HW310201   4.170   5.221   2.061  0.9725  2.1749 -0.2988
 2607SOL    MW410202   4.105   5.249   2.111  0.3948  0.0030  0.2200
 2608SOL     OW10203   6.076   0.573   3.469 -0.3967  0.0251  0.6247
 2608SOL    HW210204   6.052   0.663   3.447 -2.0411 -0.7167 -0.8605
 2608SOL    HW310205   6.148   0.553   3.409 -0.0414  0.3272  0.9429
 2608SOL    MW410206   6.083   0.582   3.458 -0.1733 -0.1035 -0.0208
 2609SOL     OW10207   3.053   4.098   1.890  0.2875  0.0769  0.4519
 2609SOL    HW210208   3.098   4.029   1.938 -0.7635  0.3110  1.8410
 2609SOL    HW310209   3.048   4.066   1.800  1.8022 -0.6333  0.5791
 2609SOL    MW410210   3.059   4.085   1.885  0.2675 -0.6156 -0.1343
 2610SOL     OW10211   3.473   0.465   1.986 -0.4209 -0.3201 -0.1008
 2610SOL    HW210212   3.451   0.500   1.899 -1.7057 -1.1379 -0.1250
 2610SOL    HW310213   3.540   0.525   2.019  1.0125 -0.6837 -2.1451
 2610SOL    MW410214   3.479   0.478   1.979 -0.0263  0.1988  0.2014
 2611SOL     OW10215   5.214   1.238   0.099 -0.4396  0.4751  0.5124
 2611SOL    HW210216   5.220   1.271   0.189  1.1203  1.6317  0.0391
 2611SOL    HW310217   5.160   1.302   0.053 -1.4636 -0.2603  0.6686
 2611SOL    MW410218   5.208   1.251   0.105 -0.5409  0.6326 -0.3322
 2612SOL     OW10219   2.901   0.506   4.987  0.2419 -0.3235  0.1545
 2612SOL    HW210220   2.845   0.533   4.914 -3.0349  1.5238  3.0680
 2612SOL    HW310221   2.968   0.575   4.993 -2.4841  2.4078  1.7721
 2612SOL    MW410222   2.903   0.518   4.978  0.1927 -0.2605  0.1608
 2613SOL     OW10223   6.346   3.674   4.794 -0.0527 -0.1147 -0.3511
 2613SOL    HW210224   6.402   3.657   4.719  2.3832 -1.2884  1.5631
 2613SOL    HW310225   6.325   3.587   4.828  0.3594  0.3788  1.2718
 2613SOL    MW410226   6.351   3.660   4.789 -0.0653 -0.2599 -0.2961
 2614SOL     OW10227   5.713   5.035   5.607 -0.2594 -0.0152  0.7377
 2614SOL    HW210228   5.794   5.083   5.588  0.3100 -1.0306  0.5183
 2614SOL    HW310229   5.718   5.016   5.700 -0.1035 -0.3337  0.6642
 2614SOL    MW410230   5.725   5.039   5.616 -0.8098  0.0598 -0.1225
 2615SOL     OW10231   0.071   2.432   3.843  0.3201 -0.4455  0.1983
 2615SOL    HW210232   0.122   2.471   3.772 -0.4056 -1.3982 -0.8766
 2615SOL    HW310233  -0.020   2.452   3.821 -0.0499 -2.4741 -0.2497
 2615SOL    MW410234   0.066   2.440   3.831 -0.2279  0.2895  0.5408
 2616SOL     OW10235   4.693   2.479   1.764 -0.1801 -0.0274 -0.4150
 2616SOL    HW210236   4.620   2.444   1.816  1.9934 -2.4461  1.2630
 2616SOL    HW310237   4.734   2.402   1.725  1.2108  1.3054 -1.6876
 2616SOL    MW410238   4.689   2.464   1.766 -0.5188 -0.3269 -0.0546
 2617SOL     OW10239   3.576   0.181   1.985  0.5782  0.1876 -0.0890
 2617SOL    HW210240   3.537   0.097   2.011 -0.5821 -0.0608 -2.3299
 2617SOL    HW310241   3.527   0.247   2.033 -1.3438 -0.2404 -1.3570
 2617SOL    MW410242   3.564   0.178   1.995 -0.5934  0.1723 -0.3648
 2618SOL     OW10243   3.044   4.508   3.671  0.2718 -0.3221 -0.3067
 2618SOL    HW210244   3.094   4.588   3.688 -1.3516  0.6769 -0.0154
 2618SOL    HW310245   2.963   4.538   3.629 -0.0548 -1.8901 -0.8869
 2618SOL    MW410246   3.040   4.522   3.667 -0.3014  0.3178 -0.0396
 2619SOL     OW10247   4.251   2.996   4.370  0.2126 -0.3340 -0.0852
 2619SOL    HW210248   4.240   2.901   4.372 -0.6824 -0.3727 -2.7200
 2619SOL    HW310249   4.162   3.030   4.384  0.4281  0.1130  0.2118
 2619SOL    MW410250   4.238   2.988   4.372 -0.3959 -0.2672  0.2863
 2620SOL     OW10251   2.219   0.754   5.288  0.0455  0.0587 -0.1793
 2620SOL    HW210252   2.296   0.810   5.299  0.3785 -0.4196 -0.0411
 2620SOL    HW310253   2.145   0.814   5.295  0.3997  0.5076 -0.1975
 2620SOL    MW410254   2.220   0.769   5.290 -0.1272 -0.2037  0.5289
 2621SOL     OW10255   3.596   3.896   3.203 -0.7075 -0.0758 -0.4449
 2621SOL    HW210256   3.636   3.978   3.172 -0.9748  0.0111 -0.5694
 2621SOL    HW310257   3.569   3.851   3.122  0.2719 -0.7224 -0.4242
 2621SOL    MW410258   3.598   3.901   3.188  0.5564  0.1823 -0.0684
 2622SOL     OW10259   0.946   0.866   2.974  0.2172 -0.0678  0.6668
 2622SOL    HW210260   0.891   0.816   2.914 -0.2726  0.1964  0.8841
 2622SOL    HW310261   0.969   0.945   2.924  0.1189 -0.0210  0.6958
 2622SOL    MW410262   0.942   0.870   2.959  0.0202 -0.2480 -0.0585
 2623SOL     OW10263   0.860   1.356   3.242  0.1564 -0.2083  0.3218
 2623SOL    HW210264   0.850   1.446   3.211  3.5885  0.6078  1.1534
 2623SOL    HW310265   0.857   1.302   3.162  1.2125  1.0127 -0.5796
 2623SOL    MW410266   0.859   1.360   3.227 -0.3214 -0.2603 -0.1371
 2624SOL     OW10267   0.910   2.083   2.564  0.1945  0.0785  0.2526
 2624SOL    HW210268   0.876   2.169   2.541  1.4595  1.2906  2.5769
 2624SOL    HW310269   0.967   2.059   2.490 -1.2803  0.5392 -1.0712
 2624SOL    MW410270   0.913   2.091   2.551 -0.0260  0.0562  0.2577
 2625SOL     OW10271   5.828   0.820   3.681  0.0210  0.1895  0.5059
 2625SOL    HW210272   5.776   0.742   3.665  1.0959 -0.4580  0.0164
 2625SOL    HW310273   5.916   0.787   3.698  0.3161  1.2590  1.1432
 2625SOL    MW410274   5.833   0.806   3.681 -0.7213  0.0417  0.0561
 2626SOL     OW10275   4.130   2.453   1.131  0.2791  0.3251  0.4749
 2626SOL    HW210276   4.082   2.492   1.058 -0.0617  1.3528  1.2356
 2626SOL    HW310277   4.102   2.361   1.132 -1.1716  0.7500  0.5009
 2626SOL    MW410278   4.120   2.446   1.121  0.9846  0.0884  0.8139
 2627SOL     OW10279   5.874   2.207   5.107 -0.1513 -0.0221  0.4000
 2627SOL    HW210280   5.814   2.274   5.073 -0.6131 -1.1834 -1.2647
 2627SOL    HW310281   5.817   2.147   5.156 -0.1585 -0.4279 -0.0905
 2627SOL    MW410282   5.858   2.208   5.109  0.2793  0.6061  0.0732
 2628SOL     OW10283   2.665   5.144   4.948  0.4222  0.5651  0.5828
 2628SOL    HW210284   2.648   5.216   5.010  1.4116  2.1408 -0.8831
 2628SOL    HW310285   2.729   5.089   4.993  2.7852  2.8496  0.2193
 2628SOL    MW410286   2.671   5.147   4.962 -0.0417  0.1912  0.3767
 2629SOL     OW10287   0.737   4.685   4.434  0.4630  0.2237 -0.4315
 2629SOL    HW210288   0.644   4.704   4.449  0.1860 -0.7223 -0.9110
 2629SOL    HW310289   0.783   4.752   4.485 -0.4772  1.3080 -0.9346
 2629SOL    MW410290   0.730   4.697   4.443 -0.0816  0.6532 -0.0812
 2630SOL     OW10291   3.271   5.439   5.846  0.3708  0.1802  0.4403
 2630SOL    HW210292   3.345   5.496   5.826  2.5850 -2.3153  0.9568
 2630SOL    HW310293   3.294   5.355   5.805 -1.0158 -1.3758  2.6312
 2630SOL    MW410294   3.284   5.435   5.838  0.0845 -0.0495  0.1787
 2631SOL     OW10295   3.643   5.848   3.358  0.4691 -0.4602  0.1928
 2631SOL    HW210296   3.667   5.894   3.439 -1.2566 -0.2675  0.6481
 2631SOL    HW310297   3.666   5.757   3.375  1.8870 -0.1344  0.1375
 2631SOL    MW410298   3.649   5.842   3.371 -0.1970  0.0549 -0.3673
 2632SOL     OW10299   6.403   1.987   3.710 -0.0011  0.3938  0.6829
 2632SOL    HW210300   6.469   2.057   3.714  3.6734 -2.6607  0.2086
 2632SOL    HW310301   6.420   1.945   3.626 -0.9985 -1.9143  1.5675
 2632SOL    MW410302   6.414   1.991   3.699  0.0736  0.6069  0.1303
 2633SOL     OW10303   1.950   6.001   6.189  0.0390  0.6272 -0.1863
 2633SOL    HW210304   1.953   6.092   6.160 -1.9339  0.6116 -0.5270
 2633SOL    HW310305   1.947   6.006   6.284  5.9696  0.6895  0.3586
 2633SOL    MW410306   1.950   6.013   6.198 -0.0351  0.0061  0.1968
 2634SOL     OW10307   3.729   1.754   0.158  0.4522 -0.1019  0.1396
 2634SOL    HW210308   3.727   1.837   0.112  0.5305  0.2635  0.7879
 2634SOL    HW310309   3.748   1.689   0.090 -0.6515  0.2787 -0.5460
 2634SOL    MW410310   3.731   1.756   0.143 -0.5755 -0.8901 -0.0544
 2635SOL     OW10311   0.854   1.871   4.784 -0.3508 -0.2612  0.0054
 2635SOL    HW210312   0.948   1.885   4.768 -0.4650  0.0088 -0.4721
 2635SOL    HW310313   0.818   1.852   4.697 -0.9530  0.9265 -0.0267
 2635SOL    MW410314   0.862   1.870   4.770 -0.0939  0.2192 -0.1093
 2636SOL     OW10315   4.396   1.473   5.578 -0.2014  0.2327  0.3531
 2636SOL    HW210316   4.308   1.446   5.601  0.4216 -2.4832 -0.1387
 2636SOL    HW310317   4.439   1.491   5.662 -0.9969  0.9599  0.6222
 2636SOL    MW410318   4.390   1.472   5.592  0.0009  0.1319 -0.0161
 2637SOL     OW10319   4.734   4.401   0.090  0.0317  0.0829 -0.1059
 2637SOL    HW210320   4.810   4.368   0.043 -0.1229 -0.4497  0.0147
 2637SOL    HW310321   4.702   4.474   0.037 -0.2061 -0.5723 -0.8838
 2637SOL    MW410322   4.740   4.407   0.077  0.4056  1.0411 -0.5394
 2638SOL     OW10323   5.612   3.118   2.493  0.4057 -0.2439  0.5742
 2638SOL    HW210324   5.589   3.098   2.584  0.1574 -1.1119  0.3316
 2638SOL    HW310325   5.528   3.137   2.451  0.4862 -0.1812  0.4393
 2638SOL    MW410326   5.598   3.118   2.500  0.1313  0.0490 -0.5175
 2639SOL     OW10327   4.680   2.351   4.161  0.0717 -0.1243 -0.8715
 2639SOL    HW210328   4.768   2.382   4.139  1.1430 -1.8365  0.6928
 2639SOL    HW310329   4.653   2.298   4.087  0.1056  0.8230 -1.5836
 2639SOL    MW410330   4.688   2.348   4.148 -0.3562  0.1815  0.4282
 2640SOL     OW10331   3.291   3.439   0.145 -0.3271 -0.0363  0.0815
 2640SOL    HW210332   3.364   3.500   0.151  0.4099 -0.9081  0.2832
 2640SOL    HW310333   3.283   3.421   0.052  0.2389 -0.5279  0.1181
 2640SOL    MW410334   3.300   3.444   0.134  0.0658  0.0600  0.1934
 2641SOL     OW10335   3.875   0.936   3.610 -0.5085 -0.9926  0.5448
 2641SOL    HW210336   3.788   0.948   3.649 -0.2153  0.9824  0.6809
 2641SOL    HW310337   3.857   0.903   3.521 -1.4913  0.6574  0.0935
 2641SOL    MW410338   3.861   0.933   3.603  0.9531  0.1622  0.7370
 2642SOL     OW10339   0.617   0.907   0.387  0.2587 -0.0279  0.1266
 2642SOL    HW210340   0.529   0.868   0.391  0.6965 -0.9256  2.6095
 2642SOL    HW310341   0.614   0.979   0.450  1.2941 -0.0644  0.2265
 2642SOL    MW410342   0.605   0.911   0.396 -0.1498 -0.4483  0.3596
 2643SOL     OW10343   1.633   3.955   2.556 -0.1420  0.2542 -0.4888
 2643SOL    HW210344   1.718   3.911   2.558  0.6682  1.7575 -0.4518
 2643SOL    HW310345   1.638   4.016   2.482 -1.0252  0.6596 -0.2385
 2643SOL    MW410346   1.645   3.957   2.547  0.3479 -0.5030  0.0983
 2644SOL     OW10347   4.792   4.327   3.369  0.4783 -0.3370 -0.4026
 2644SOL    HW210348   4.716   4.385   3.375  0.0373 -0.8424 -0.9820
 2644SOL    HW310349   4.840   4.343   3.450  0.2448  0.6660 -0.4385
 2644SOL    MW410350   4.788   4.337   3.380  0.1102 -0.1175  0.1286
 2645SOL     OW10351   0.509   0.767   2.977 -0.1309 -0.0619  0.2230
 2645SOL    HW210352   0.491   0.861   2.981  0.7644  0.0763  1.7260
 2645SOL    HW310353   0.598   0.762   2.943 -0.7752 -0.4651 -1.4673
 2645SOL    MW410354   0.518   0.779   2.973  0.4841  0.6346 -0.4830
 2646SOL     OW10355   4.868   3.237   5.894  0.4344  0.2927  0.4658
 2646SOL    HW210356   4.881   3.160   5.838 -0.4050  0.6509 -0.2598
 2646SOL    HW310357   4.857   3.201   5.982 -0.8350 -0.5199  0.0189
 2646SOL    MW410358   4.868   3.222   5.898  0.1267 -0.3087 -0.2146
 2647SOL     OW10359   3.070   1.095   0.221 -0.0664 -0.5544 -0.0322
 2647SOL    HW210360   3.131   1.051   0.280  0.7607  0.4989 -0.0652
 2647SOL    HW310361   3.092   1.188   0.229  0.4620 -0.4093 -2.4166
 2647SOL    MW410362   3.081   1.102   0.230 -0.2353 -0.1424 -0.3310
 2648SOL     OW10363   6.150   4.625   5.603 -0.1638 -0.3349 -0.1648
 2648SOL    HW210364   6.164   4.621   5.509  1.4210  0.2462  0.0140
 2648SOL    HW310365   6.177   4.540   5.636 -1.5477 -0.8534 -0.3011
 2648SOL    MW410366   6.156   4.613   5.595  0.2044  0.3362  0.0778
 2649SOL     OW10367   1.645   5.251   4.005 -0.0786 -0.2979  0.0113
 2649SOL    HW210368   1.725   5.300   4.024 -0.3069  1.2484 -2.6393
 2649SOL    HW310369   1.574   5.306   4.038 -0.2067 -0.0496 -0.6685
 2649SOL    MW410370   1.646   5.265   4.012  0.5433 -0.5554 -0.1441
 2650SOL     OW10371   4.411   2.043   1.740 -0.6251  0.0178  0.3844
 2650SOL    HW210372   4.435   2.130   1.708 -0.1689 -0.8296 -1.7279
 2650SOL    HW310373   4.465   2.030   1.817 -0.5959  1.5300  0.6478
 2650SOL    MW410374   4.421   2.052   1.746  0.3615 -0.2475  0.1497
 2651SOL     OW10375   3.355   1.478   5.182 -0.1090 -0.1456 -0.2203
 2651SOL    HW210376   3.359   1.429   5.263 -0.6754  0.4959  0.2102
 2651SOL    HW310377   3.275   1.530   5.189  0.4930  0.8883 -0.6118
 2651SOL    MW410378   3.345   1.479   5.193  0.0106  0.0852  0.0161
 2652SOL     OW10379   4.077   3.626   5.489 -0.1198  0.0863  0.4116
 2652SOL    HW210380   4.164   3.624   5.448 -0.2507  2.0098 -0.0722
 2652SOL    HW310381   4.053   3.719   5.489 -1.6103 -0.2610  1.7661
 2652SOL    MW410382   4.085   3.638   5.483 -0.4141  0.3638 -0.0505
 2653SOL     OW10383   0.106   2.246   0.709 -0.1842  0.2925 -0.3804
 2653SOL    HW210384   0.170   2.197   0.658  2.1355  1.8144  0.8745
 2653SOL    HW310385   0.029   2.252   0.653  1.1602 -0.6495 -2.4328
 2653SOL    MW410386   0.104   2.240   0.695  0.0219 -0.0132  0.5285
 2654SOL     OW10387   2.136   5.534   0.089  0.2752 -0.1156  0.3413
 2654SOL    HW210388   2.126   5.625   0.062 -0.9551 -0.2945  0.0851
 2654SOL    HW310389   2.060   5.490   0.049  1.5954 -1.5303 -0.7386
 2654SOL    MW410390   2.124   5.540   0.080  0.1492  0.4582  0.1931
 2655SOL     OW10391   1.703   3.581   5.897 -0.4281 -0.3299 -0.2372
 2655SOL    HW210392   1.686   3.554   5.806 -1.5920  0.1824 -0.1910
 2655SOL    HW310393   1.793   3.552   5.914 -0.2009 -0.4709 -1.5378
 2655SOL    MW410394   1.713   3.574   5.887  0.4990  0.0622  0.2315
 2656SOL     OW10395   2.696   2.798   1.470  0.3215 -0.2065 -0.0897
 2656SOL    HW210396   2.766   2.826   1.529 -0.0924  0.4469  0.0983
 2656SOL    HW310397   2.739   2.738   1.409  0.9139 -0.2918  0.3995
 2656SOL    MW410398   2.711   2.793   1.470  0.4158  0.0721 -0.2383
 2657SOL     OW10399   1.441   1.219   3.717  0.3188  0.5619  0.3796
 2657SOL    HW210400   1.362   1.270   3.700  0.5684  0.6231 -0.6534
 2657SOL    HW310401   1.411   1.129   3.728  0.0352  0.6949  0.6890
 2657SOL    MW410402   1.427   1.214   3.716  0.1289 -0.8645 -0.4470
 2658SOL     OW10403   1.966   1.886   6.314 -0.2204 -0.3253  0.1079
 2658SOL    HW210404   1.892   1.827   6.330  1.6116 -2.4924  1.2443
 2658SOL    HW310405   1.928   1.960   6.267 -3.6800  0.1083  3.0752
 2658SOL    MW410406   1.951   1.888   6.310 -0.3514  0.3073 -0.3129
 2659SOL     OW10407   5.680   6.070   1.589  0.1924 -0.1938  0.1892
 2659SOL    HW210408   5.640   6.009   1.651 -0.3483  0.2761  0.3171
 2659SOL    HW310409   5.678   6.154   1.634  1.6055 -0.1977  0.3073
 2659SOL    MW410410   5.674   6.073   1.603  0.1848 -0.2584  0.2698
 2660SOL     OW10411   0.240   0.109   4.981  0.1894  0.5852 -0.0963
 2660SOL    HW210412   0.331   0.135   4.970 -0.1080  1.5770 -0.3137
 2660SOL    HW310413   0.219   0.060   4.902  1.5603 -2.8698  1.5014
 2660SOL    MW410414   0.249   0.106   4.969 -0.0354 -0.2630  0.2599
 2661SOL     OW10415   3.190   2.178   4.010  0.0178  0.6175 -0.7561
 2661SOL    HW210416   3.172   2.105   4.070  0.2156  0.5339 -0.7981
 2661SOL    HW310417   3.105   2.219   3.997  0.0182  0.7996 -0.2032
 2661SOL    MW410418   3.176   2.174   4.017  0.0121 -0.1819 -0.5645
 2662SOL     OW10419   5.701   2.200   4.211 -0.2050 -0.7616 -0.6599
 2662SOL    HW210420   5.632   2.251   4.253 -0.6665 -0.6824 -1.4950
 2662SOL    HW310421   5.734   2.256   4.142  1.5035 -0.3476  0.4422
 2662SOL    MW410422   5.696   2.214   4.208  0.7522  0.2545 -0.4735
 2663SOL     OW10423   4.705   0.094   5.928 -0.4058 -0.0666  0.0439
 2663SOL    HW210424   4.663   0.098   5.842 -1.9653  1.3571  0.8158
 2663SOL    HW310425   4.655   0.156   5.982  0.5734 -0.8772  1.9640
 2663SOL    MW410426   4.693   0.103   5.923  0.5500 -0.0706 -0.5183
 2664SOL     OW10427   5.551   3.429   4.063  0.3604 -0.2314  0.1645
 2664SOL    HW210428   5.579   3.500   4.121  0.3225  0.0816 -0.1990
 2664SOL    HW310429   5.612   3.431   3.990 -1.0431  0.9802 -1.0401
 2664SOL    MW410430   5.563   3.438   4.061  0.0122  0.0683  0.2938
 2665SOL     OW10431   3.335   5.251   1.494 -0.5615 -0.1696 -0.7693
 2665SOL    HW210432   3.316   5.176   1.550  1.1206 -0.3384 -0.3787
 2665SOL    HW310433   3.354   5.212   1.409  3.1168 -0.5599  0.0723
 2665SOL    MW410434   3.335   5.236   1.490  0.1654  0.9656  0.6673
 2666SOL     OW10435   5.391   6.043   2.826 -0.2406  0.2791 -0.7329
 2666SOL    HW210436   5.467   5.990   2.802 -0.3677 -0.9223  1.3165
 2666SOL    HW310437   5.346   6.058   2.743  0.6543 -1.5069 -1.5992
 2666SOL    MW410438   5.395   6.038   2.812 -0.1360 -0.2021  0.0550
 2667SOL     OW10439   2.893   1.645   0.117 -0.0106 -0.1225 -0.4567
 2667SOL    HW210440   2.915   1.614   0.205  0.1158  0.0640 -0.4233
 2667SOL    HW310441   2.942   1.587   0.058 -2.1623 -2.0569 -0.5275
 2667SOL    MW410442   2.902   1.633   0.121 -0.5397  0.0741 -0.0564
 2668SOL     OW10443   2.423   2.309   6.182  0.2942 -0.2860  0.2566
 2668SOL    HW210444   2.430   2.394   6.137 -0.3718 -0.8641 -0.9983
 2668SOL    HW310445   2.480   2.251   6.133 -0.4708 -0.9391  0.1149
 2668SOL    MW410446   2.431   2.313   6.169 -0.2670 -0.6083 -0.0773
 2669SOL     OW10447   2.483   3.489   3.839 -0.0634  0.6066  0.4960
 2669SOL    HW210448   2.491   3.455   3.749  0.7852  0.8256  0.4823
 2669SOL    HW310449   2.539   3.431   3.891 -0.2872  0.6913  0.8306
 2669SOL    MW410450   2.491   3.477   3.834  0.2512  0.0934  0.7293
 2670SOL     OW10451   4.818   2.228   4.767  0.4767 -0.4735  0.0276
 2670SOL    HW210452   4.852   2.318   4.771  0.3016 -0.2382 -2.4089
 2670SOL    HW310453   4.896   2.173   4.759  0.5147 -0.2378 -1.6479
 2670SOL    MW410454   4.832   2.233   4.766 -0.1874  0.0896 -0.2270
 2671SOL     OW10455   2.465   3.209   5.811  0.0553  0.1323 -0.4355
 2671SOL    HW210456   2.476   3.115   5.830  1.3851  0.6204  1.4557
 2671SOL    HW310457   2.374   3.227   5.835 -0.0800 -0.5766 -0.3855
 2671SOL    MW410458   2.454   3.199   5.816  0.1191  0.4847  0.0961
 2672SOL     OW10459   1.421   0.062   1.096  0.6766  0.5524 -0.1151
 2672SOL    HW210460   1.340   0.034   1.140  1.2612 -0.4820  0.3594
 2672SOL    HW310461   1.408   0.155   1.078 -0.6617  0.3818 -0.1516
 2672SOL    MW410462   1.408   0.070   1.099 -0.1084 -0.0521  0.0517
 2673SOL     OW10463   5.093   3.654   4.503 -0.1228 -0.1509  0.2464
 2673SOL    HW210464   5.142   3.598   4.444 -0.9528 -0.5566 -0.0789
 2673SOL    HW310465   5.066   3.729   4.450  0.9315  0.5455  0.6644
 2673SOL    MW410466   5.096   3.656   4.488  0.3448  0.2815  0.0559
 2674SOL     OW10467   5.646   4.421   2.772  0.3184 -0.2166 -0.8659
 2674SOL    HW210468   5.558   4.445   2.797 -0.6137 -1.6460 -2.4978
 2674SOL    HW310469   5.641   4.405   2.677  1.2933 -4.1599 -0.4498
 2674SOL    MW410470   5.634   4.422   2.763  0.4196 -0.6610 -0.3424
 2675SOL     OW10471   3.587   1.258   1.785 -0.2832  0.4031 -0.2405
 2675SOL    HW210472   3.529   1.303   1.847  0.3362 -1.1116  1.5293
 2675SOL    HW310473   3.528   1.211   1.727 -0.8766  0.5912  0.1979
 2675SOL    MW410474   3.572   1.258   1.786 -0.1611 -0.6126 -0.0180
 2676SOL     OW10475   5.141   5.717   2.112 -0.4406  0.6823 -0.0926
 2676SOL    HW210476   5.068   5.681   2.062 -0.6840  2.0942 -0.7916
 2676SOL    HW310477   5.100   5.768   2.181 -0.1097 -1.4049  1.7619
 2676SOL    MW410478   5.126   5.719   2.115 -0.4172  0.7077 -0.7937
 2677SOL     OW10479   3.937   2.262   6.264 -0.3972 -0.2498  0.0360
 2677SOL    HW210480   4.008   2.240   6.323  0.6234 -1.0653 -1.4225
 2677SOL    HW310481   3.912   2.351   6.288 -0.1447 -0.6194  1.7718
 2677SOL    MW410482   3.943   2.271   6.275 -0.2261 -0.1183 -0.4276
 2678SOL     OW10483   4.226   3.121   2.685  0.3903 -0.3884 -0.3198
 2678SOL    HW210484   4.254   3.209   2.711  0.8998 -0.5843 -0.1978
 2678SOL    HW310485   4.306   3.076   2.659  0.2977 -1.1761  0.6818
 2678SOL    MW410486   4.240   3.127   2.685 -0.6241  0.5501  0.3419
 2679SOL     OW10487   0.706   3.767   2.200 -0.1603  0.4202  0.0151
 2679SOL    HW210488   0.636   3.832   2.211 -0.8386 -0.2216 -0.4225
 2679SOL    HW310489   0.670   3.686   2.237  1.0435  0.5031  1.4426
 2679SOL    MW410490   0.692   3.765   2.206  0.0373 -0.6719 -0.1144
 2680SOL     OW10491   0.558   0.615   5.672 -0.5515  0.0809 -0.0657
 2680SOL    HW210492   0.623   0.556   5.632 -0.6867 -0.6658  0.7629
 2680SOL    HW310493   0.474   0.584   5.639 -0.5972 -0.0040  0.1240
 2680SOL    MW410494   0.556   0.603   5.663 -0.1867  0.5932  0.0320
 2681SOL     OW10495   6.309   2.575   3.359  0.0155  0.5530 -0.3543
 2681SOL    HW210496   6.317   2.665   3.390  0.5015  0.7489 -1.0252
 2681SOL    HW310497   6.293   2.584   3.264 -1.9673 -0.0019 -0.1331
 2681SOL    MW410498   6.308   2.588   3.350  0.2089  0.2516  0.7119
 2682SOL     OW10499   5.373   3.237   3.844 -0.2371 -0.4075 -0.0388
 2682SOL    HW210500   5.377   3.299   3.917 -1.2688 -0.4125  0.0391
 2682SOL    HW310501   5.321   3.164   3.878 -2.1990  0.3316 -1.2769
 2682SOL    MW410502   5.367   3.235   3.858  0.0302 -0.6393  0.4361
 2683SOL     OW10503   2.204   4.583   1.640 -0.2754 -0.5009  0.3060
 2683SOL    HW210504   2.221   4.665   1.686 -0.4796  0.2800 -0.9906
 2683SOL    HW310505   2.128   4.546   1.686 -0.8225  0.5323  0.2730
 2683SOL    MW410506   2.196   4.589   1.652  0.4006  0.5242 -0.5745
 2684SOL     OW10507   5.740   1.179   5.688  0.5060  0.2903  0.8539
 2684SOL    HW210508   5.717   1.163   5.596  2.3028  0.5307  0.3227
 2684SOL    HW310509   5.664   1.224   5.724  0.4359  1.7823 -0.9956
 2684SOL    MW410510   5.727   1.183   5.681 -0.1414 -0.4889  0.4976
 2685SOL     OW10511   5.753   0.731   4.823  0.0987  0.0494 -0.0484
 2685SOL    HW210512   5.776   0.639   4.833 -0.2065 -0.1093 -0.7086
 2685SOL    HW310513   5.657   0.732   4.827  0.1479  0.6799  2.5119
 2685SOL    MW410514   5.743   0.719   4.825  0.1066  0.3998 -0.5081
 2686SOL     OW10515   2.197   6.274   5.326 -0.0534  0.7120  0.4214
 2686SOL    HW210516   2.252   6.285   5.404  0.7478  1.4036 -0.2191
 2686SOL    HW310517   2.200   6.181   5.307  0.1658  0.6144  0.9160
 2686SOL    MW410518   2.205   6.263   5.334  0.5936  0.2348  0.1300
 2687SOL     OW10519   1.962   2.976   5.234 -0.1500 -0.5207  0.1789
 2687SOL    HW210520   1.892   2.913   5.217 -0.3068 -0.2806 -0.0822
 2687SOL    HW310521   1.959   3.035   5.159 -1.0944  0.7785  1.1883
 2687SOL    MW410522   1.952   2.975   5.222  0.5715 -0.2908 -0.5932
 2688SOL     OW10523   1.177   0.604   3.266  0.4786 -0.0214  0.1146
 2688SOL    HW210524   1.100   0.622   3.321 -0.0196 -1.3460 -0.0970
 2688SOL    HW310525   1.210   0.520   3.300  1.4483  0.2191 -0.2211
 2688SOL    MW410526   1.171   0.595   3.278 -0.5180  0.2775  0.2842
 2689SOL     OW10527   3.883   5.449   1.011  1.0819 -0.5980 -0.5868
 2689SOL    HW210528   3.930   5.462   1.093 -0.1582  1.2979 -0.1198
 2689SOL    HW310529   3.953   5.437   0.946  2.1911  0.5651  0.3222
 2689SOL    MW410530   3.899   5.449   1.013 -0.6552 -0.5799  0.4482
 2690SOL     OW10531   3.530   2.082   5.209 -0.1074 -0.3442  0.7345
 2690SOL    HW210532   3.437   2.099   5.226  0.0846  0.7350  0.7799
 2690SOL    HW310533   3.568   2.067   5.295 -0.4924 -2.2640  0.6070
 2690SOL    MW410534   3.522   2.082   5.222  0.3079  0.2671  0.0151
 2691SOL     OW10535   4.138   2.473   2.005 -0.4989  0.4712 -0.1690
 2691SOL    HW210536   4.137   2.377   2.005  0.7169  0.4115  1.6218
 2691SOL    HW310537   4.070   2.497   2.068  2.0340  0.5686  2.7809
 2691SOL    MW410538   4.129   2.463   2.013  0.1312  0.2094  0.1971
 2692SOL     OW10539   0.740   5.582   2.271 -0.0181  0.3861 -0.2160
 2692SOL    HW210540   0.814   5.622   2.316  1.0535 -0.6043 -1.0625
 2692SOL    HW310541   0.730   5.634   2.191 -0.2278  0.4892 -0.1262
 2692SOL    MW410542   0.748   5.594   2.266 -0.0881  0.0190 -0.4574
 2693SOL     OW10543   0.276   2.290   5.536  0.5393 -0.2316 -0.5836
 2693SOL    HW210544   0.307   2.374   5.571  2.4553 -1.3121  0.4567
 2693SOL    HW310545   0.226   2.251   5.607 -1.7304  0.6130 -1.5861
 2693SOL    MW410546   0.273   2.296   5.550 -0.3406 -0.1851 -0.0373
 2694SOL     OW10547   3.317   0.179   3.675  0.3292 -0.6575  0.7159
 2694SOL    HW210548   3.379   0.188   3.603 -0.5936  0.1374  0.0003
 2694SOL    HW310549   3.276   0.093   3.660 -0.3972 -0.1734 -0.1561
 2694SOL    MW410550   3.320   0.169   3.663  0.1255  0.2277 -0.3020
 2695SOL     OW10551   5.345   0.539   6.306  0.3890 -0.5640 -0.0894
 2695SOL    HW210552   5.322   0.521   6.397  0.7886 -1.0139 -0.0763
 2695SOL    HW310553   5.263   0.571   6.267 -0.1354 -1.6319  0.0951
 2695SOL    MW410554   5.331   0.541   6.313 -0.2637  0.2196  0.7854
 2696SOL     OW10555   3.238   4.788   5.383  0.4140  0.4966  0.1142
 2696SOL    HW210556   3.247   4.752   5.471 -0.5361 -1.0036 -0.3706
 2696SOL    HW310557   3.295   4.734   5.329  0.3603  0.8912 -0.3417
 2696SOL    MW410558   3.247   4.776   5.388  0.2999 -0.0361 -0.2451
 2697SOL     OW10559   4.701   1.124   0.648 -0.2079  0.1704 -0.2187
 2697SOL    HW210560   4.735   1.066   0.580 -0.5764 -1.4742  0.9433
 2697SOL    HW310561   4.743   1.208   0.631  2.8417 -1.2117 -0.0972
 2697SOL    MW410562   4.711   1.127   0.637 -0.0036 -0.5386 -0.4203
 2698SOL     OW10563   0.267   2.981   4.538 -0.1843 -0.4038 -0.0615
 2698SOL    HW210564   0.240   2.989   4.447  1.4245 -0.5617 -0.5780
 2698SOL    HW310565   0.361   2.963   4.534 -0.3888 -2.1420  1.5765
 2698SOL    MW410566   0.275   2.980   4.526  0.2383  0.8739  0.0384
 2699SOL     OW10567   3.067   2.296   4.280 -0.0892 -0.0353  0.3392
 2699SOL    HW210568   3.001   2.354   4.243  1.6907  2.2718  0.5149
 2699SOL    HW310569   3.101   2.247   4.205 -0.1270  0.7636 -0.2108
 2699SOL    MW410570   3.063   2.297   4.265 -0.1832  0.3865 -0.1273
 2700SOL     OW10571   2.879   5.605   4.443  0.3080 -0.4687  0.1003
 2700SOL    HW210572   2.808   5.668   4.433  0.3605 -0.0440  2.0492
 2700SOL    HW310573   2.942   5.627   4.374  0.1816  1.4264  0.5500
 2700SOL    MW410574   2.878   5.616   4.433  0.3089  0.5704 -0.5291
 2701SOL     OW10575   0.962   0.734   3.428  0.0096 -0.0373  0.0172
 2701SOL    HW210576   0.901   0.765   3.361 -0.9479  0.0809  0.9115
 2701SOL    HW310577   1.024   0.807   3.440  0.5333 -0.2787 -1.1115
 2701SOL    MW410578   0.962   0.748   3.421  0.9273  0.0171 -0.0554
 2702SOL     OW10579   3.774   2.402   4.092 -0.7465 -0.8085 -0.1853
 2702SOL    HW210580   3.736   2.490   4.080 -1.0609 -0.8753  0.2695
 2702SOL    HW310581   3.716   2.360   4.156 -0.2023 -1.1043  0.1191
 2702SOL    MW410582   3.761   2.408   4.099 -0.3901  0.1752 -0.1486
 2703SOL     OW10583   2.863   0.168   4.541 -0.5225  0.0388  0.4144
 2703SOL    HW210584   2.878   0.116   4.462  0.3922 -0.4046  0.8680
 2703SOL    HW310585   2.918   0.127   4.608 -1.7916  0.0040  1.4634
 2703SOL    MW410586   2.872   0.156   4.539  0.0980  0.6118  0.1826
 2704SOL     OW10587   0.460   1.544   5.058  0.0324 -0.5660 -0.6207
 2704SOL    HW210588   0.483   1.451   5.053  3.7916  0.1473  0.4532
 2704SOL    HW310589   0.506   1.583   4.984  3.2165  1.0616  1.9625
 2704SOL    MW410590   0.469   1.537   5.047 -0.4256  0.3662 -0.4877
 2705SOL     OW10591   2.542   3.848   1.331  0.0362  0.3238 -0.5021
 2705SOL    HW210592   2.502   3.894   1.405 -1.4888 -0.1704 -0.9994
 2705SOL    HW310593   2.489   3.872   1.255 -2.1929 -3.7779 -0.5211
 2705SOL    MW410594   2.530   3.857   1.330 -0.0354  0.1998 -0.3968
 2706SOL     OW10595   5.857   3.529   3.222  0.5666 -0.1355 -0.2471
 2706SOL    HW210596   5.937   3.478   3.238  0.2030 -0.6915 -0.1717
 2706SOL    HW310597   5.835   3.509   3.131 -0.1822 -0.9824  0.1087
 2706SOL    MW410598   5.865   3.520   3.212 -0.0574 -0.4980  0.3148
 2707SOL     OW10599   4.472   0.800   5.549 -0.2064 -0.7268  0.1198
 2707SOL    HW210600   4.479   0.714   5.590 -0.5196 -0.3250  1.0242
 2707SOL    HW310601   4.524   0.858   5.605  0.4308 -0.4143 -0.7683
 2707SOL    MW410602   4.480   0.796   5.562 -0.0550  0.4356 -0.0586
 2708SOL     OW10603   4.359   4.273   0.106  0.1915  0.5846  0.0705
 2708SOL    HW210604   4.405   4.214   0.165  0.9638  1.3255  0.2322
 2708SOL    HW310605   4.415   4.351   0.101 -0.1474  0.7827 -1.1656
 2708SOL    MW410606   4.372   4.276   0.113  0.5601  0.6774 -0.2974
 2709SOL     OW10607   5.889   0.822   2.590 -0.1044  0.3632  0.1088
 2709SOL    HW210608   5.958   0.761   2.566 -0.2921  0.5466 -0.9585
 2709SOL    HW310609   5.879   0.878   2.513  0.2831  1.9512  1.1685
 2709SOL    MW410610   5.897   0.822   2.577 -0.0589 -0.4980  0.3801
 2710SOL     OW10611   3.016   6.102   1.650 -0.1685 -0.4053  0.8625
 2710SOL    HW210612   3.051   6.032   1.704  1.8470  0.4026  0.6674
 2710SOL    HW310613   2.933   6.067   1.616  0.7993 -2.7062  0.7085
 2710SOL    MW410614   3.010   6.088   1.653 -0.1004 -0.4033 -0.7158
 2711SOL     OW10615   2.627   4.108   1.629 -0.3358  0.3728 -0.6953
 2711SOL    HW210616   2.673   4.048   1.688 -1.4112  1.3643  1.2198
 2711SOL    HW310617   2.650   4.077   1.541  1.4216 -1.0750  0.2117
 2711SOL    MW410618   2.636   4.096   1.625 -0.1133 -0.8158 -0.4327
 2712SOL     OW10619   1.082   5.758   0.446 -0.0907  0.4789 -0.3485
 2712SOL    HW210620   1.019   5.797   0.386  0.8214  1.8415 -0.4624
 2712SOL    HW310621   1.156   5.818   0.447  0.8307 -0.5961  0.5022
 2712SOL    MW410622   1.083   5.771   0.438 -0.5451 -0.3915 -0.3450
 2713SOL     OW10623   0.530   3.913   1.705  0.0702 -0.5912  0.3745
 2713SOL    HW210624   0.560   4.002   1.686  0.7352 -0.9913 -0.4871
 2713SOL    HW310625   0.452   3.902   1.651  0.2125 -0.6707  0.1866
 2713SOL    MW410626   0.523   3.923   1.695 -0.7034  0.0979 -0.8078
 2714SOL     OW10627   5.857   6.278   2.176  0.1985  0.1621  0.3888
 2714SOL    HW210628   5.841   6.372   2.184 -0.0634  0.1288  0.2665
 2714SOL    HW310629   5.895   6.267   2.089  0.1952  0.1492  0.3889
 2714SOL    MW410630   5.860   6.289   2.166  0.2498 -0.3160 -0.3905
 2715SOL     OW10631   4.325   4.965   0.716  0.1350  0.3292  0.0890
 2715SOL    HW210632   4.343   4.967   0.810 -1.1330  0.1636  0.3511
 2715SOL    HW310633   4.343   4.874   0.691  0.5856  0.4003  0.1348
 2715SOL    MW410634   4.330   4.953   0.725 -0.2348 -0.7148 -0.6697
 2716SOL     OW10635   0.364   1.450   5.543  0.1305  0.0540 -0.1651
 2716SOL    HW210636   0.372   1.515   5.473 -0.5116 -0.0489 -0.3417
 2716SOL    HW310637   0.404   1.371   5.507 -0.2623 -0.0184 -0.4443
 2716SOL    MW410638   0.371   1.448   5.529 -0.5093  0.1202 -0.3637
 2717SOL     OW10639   1.968   1.679   0.540 -0.6815  0.5594 -0.0206
 2717SOL    HW210640   1.950   1.638   0.625 -1.2728 -0.5919 -0.6837
 2717SOL    HW310641   1.931   1.767   0.548 -1.5846  0.1457  0.5898
 2717SOL    MW410642   1.961   1.686   0.552 -0.3128 -0.0593  0.3806
 2718SOL     OW10643   3.253   5.840   0.100  0.3732 -0.4191  0.1508
 2718SOL    HW210644   3.326   5.791   0.063 -1.0681 -2.0868 -0.6297
 2718SOL    HW310645   3.273   5.846   0.194  2.8122  1.6267 -0.3776
 2718SOL    MW410646   3.265   5.835   0.108 -0.0538 -0.0770  0.7031
 2719SOL     OW10647   2.706   5.614   6.402 -0.0859 -0.6087  0.3602
 2719SOL    HW210648   2.685   5.559   6.326 -0.4333  1.5224 -1.1625
 2719SOL    HW310649   2.622   5.648   6.431  0.3250  1.0483 -0.2883
 2719SOL    MW410650   2.692   5.611   6.395  0.7886  0.5061 -0.0522
 2720SOL     OW10651   2.697   1.080   2.433 -0.3083  0.0284 -0.3802
 2720SOL    HW210652   2.677   1.173   2.438 -0.1429  0.0698 -0.4756
 2720SOL    HW310653   2.785   1.076   2.395 -0.4586 -0.1783 -0.7190
 2720SOL    MW410654   2.706   1.092   2.429  0.2963 -0.2247  0.3039
 2721SOL     OW10655   2.469   5.591   2.374 -0.0818  0.6950 -0.1111
 2721SOL    HW210656   2.437   5.619   2.459 -0.9854 -0.1474 -0.1563
 2721SOL    HW310657   2.417   5.513   2.352  0.2307  0.8038 -1.3661
 2721SOL    MW410658   2.458   5.584   2.382  0.3161  0.5316  0.2630
 2722SOL     OW10659   4.650   4.809   0.473 -0.1028 -0.7109 -0.2759
 2722SOL    HW210660   4.684   4.848   0.553 -0.2319 -0.9802 -0.0896
 2722SOL    HW310661   4.663   4.715   0.484 -1.3632 -0.8674  0.0216
 2722SOL    MW410662   4.656   4.802   0.485  0.1324 -0.2311 -0.9730
 2723SOL     OW10663   1.437   1.150   0.777 -0.4373 -0.3704 -0.1678
 2723SOL    HW210664   1.399   1.187   0.698 -1.7666 -1.3993 -0.0678
 2723SOL    HW310665   1.370   1.164   0.844 -0.0608 -1.0126  0.3586
 2723SOL    MW410666   1.423   1.156   0.776  0.6242  0.0202 -0.7825
 2724SOL     OW10667   1.793   2.336   0.967 -0.2693  0.3417 -0.0100
 2724SOL    HW210668   1.838   2.373   0.891  0.6108  1.7168  1.1126
 2724SOL    HW310669   1.810   2.242   0.962  0.5034  0.5208 -1.0367
 2724SOL    MW410670   1.801   2.328   0.956  0.2983 -0.8025 -0.6030
 2725SOL     OW10671   5.991   4.232   1.833 -0.3681 -0.2738 -0.3019
 2725SOL    HW210672   5.945   4.148   1.832  0.3702 -0.6975 -0.0089
 2725SOL    HW310673   6.038   4.232   1.917  0.7396 -0.1937 -0.9006
 2725SOL    MW410674   5.991   4.221   1.844 -0.2989 -0.2223  0.5462
 2726SOL     OW10675   1.429   4.793   3.790  0.0813  0.7132 -0.0115
 2726SOL    HW210676   1.448   4.735   3.863  0.8667  1.3021  0.2639
 2726SOL    HW310677   1.515   4.824   3.761 -0.0638 -0.7611 -2.2412
 2726SOL    MW410678   1.443   4.789   3.796 -0.1891  0.4612  0.7927
 2727SOL     OW10679   5.302   0.244   1.467 -0.3424 -0.0920 -0.1406
 2727SOL    HW210680   5.241   0.196   1.412 -1.0344  1.4609 -0.8097
 2727SOL    HW310681   5.363   0.285   1.406  1.4792 -1.6572  0.5141
 2727SOL    MW410682   5.302   0.243   1.452  0.5409  0.2696 -0.2317
 2728SOL     OW10683   3.314   5.702   2.542  0.2569  0.0509  0.4704
 2728SOL    HW210684   3.225   5.733   2.559  0.2460  0.3089 -0.0380
 2728SOL    HW310685   3.347   5.675   2.628 -1.2635 -2.6620  0.2820
 2728SOL    MW410686   3.307   5.703   2.555  0.0122 -0.3426  0.3677
 2729SOL     OW10687   0.074   5.380   5.153 -0.2965 -0.5466 -0.5456
 2729SOL    HW210688   0.159   5.421   5.141  0.6758 -2.6462 -1.5283
 2729SOL    HW310689   0.037   5.376   5.064 -1.3253  0.1279 -0.1634
 2729SOL    MW410690   0.080   5.385   5.139  0.3918 -0.4849  0.0711
 2730SOL     OW10691   0.725   6.333   1.347 -0.3632 -0.0436 -0.4093
 2730SOL    HW210692   0.703   6.426   1.351  1.0115  0.3227 -0.8591
 2730SOL    HW310693   0.782   6.319   1.422  0.0582 -0.3518 -0.7866
 2730SOL    MW410694   0.729   6.344   1.358  0.5754  0.1685  0.0822
 2731SOL     OW10695   3.126   5.059   1.993  0.1866 -0.2325  0.1665
 2731SOL    HW210696   3.198   4.999   2.013 -2.2499 -2.6909  2.3713
 2731SOL    HW310697   3.138   5.133   2.053  0.5763 -0.8712  0.8866
 2731SOL    MW410698   3.137   5.061   2.003 -0.4386  0.7130 -0.0283
 2732SOL     OW10699   1.955   3.530   2.455  0.1467 -0.0638  0.2157
 2732SOL    HW210700   1.973   3.480   2.375 -0.9212 -0.1537  0.0190
 2732SOL    HW310701   2.041   3.540   2.497  0.5195 -1.2500 -0.2234
 2732SOL    MW410702   1.969   3.524   2.450  0.0350  0.0663  0.1041
 2733SOL     OW10703   0.275   2.077   0.056 -0.2716 -0.1441 -0.3182
 2733SOL    HW210704   0.368   2.097   0.067 -0.7088  2.3418 -0.5722
 2733SOL    HW310705   0.262   2.076  -0.038 -0.3934 -1.2365 -0.3030
 2733SOL    MW410706   0.286   2.079   0.045 -0.2532 -0.4422  0.3537
 2734SOL     OW10707   3.039   6.198   5.304  0.0874 -0.1795  0.8091
 2734SOL    HW210708   2.992   6.274   5.269 -0.5737  0.6491  3.2831
 2734SOL    HW310709   3.028   6.130   5.238 -3.0409  0.5464  0.4412
 2734SOL    MW410710   3.032   6.199   5.290 -0.5614  0.1358  0.2828
 2735SOL     OW10711   1.573   3.743   1.706  0.2751  0.8604  0.4145
 2735SOL    HW210712   1.538   3.712   1.622  1.8144  0.0350  0.0400
 2735SOL    HW310713   1.530   3.828   1.720 -1.1220  0.3342 -0.4579
 2735SOL    MW410714   1.563   3.750   1.696 -0.1349 -0.0243 -0.4135
 2736SOL     OW10715   0.399   1.680   6.424 -0.4545 -0.4246 -0.7442
 2736SOL    HW210716   0.315   1.689   6.469  0.0614  1.4405 -0.0472
 2736SOL    HW310717   0.391   1.600   6.373 -2.1922 -0.9521  0.2892
 2736SOL    MW410718   0.387   1.671   6.423  0.1880 -0.2298 -0.4522
 2737SOL     OW10719   6.044   1.885   6.215 -0.4725 -0.7626  0.3215
 2737SOL    HW210720   6.086   1.817   6.268 -1.3642  0.0033  2.0706
 2737SOL    HW310721   6.093   1.964   6.234 -0.9397 -0.4368  0.1841
 2737SOL    MW410722   6.056   1.886   6.224 -0.4683 -0.1313  0.2947
 2738SOL     OW10723   3.207   0.929   0.037 -0.0032  0.3441 -0.2031
 2738SOL    HW210724   3.166   0.853   0.079 -1.9525  1.2017 -0.4071
 2738SOL    HW310725   3.163   1.005   0.077  1.8411  1.3812 -0.0490
 2738SOL    MW410726   3.196   0.929   0.047 -0.3376  0.2147 -0.4813
 2739SOL     OW10727   2.023   6.366   2.979  0.1192 -0.1280  0.5694
 2739SOL    HW210728   2.005   6.282   2.936 -0.0615 -0.4590  1.2636
 2739SOL    HW310729   1.998   6.432   2.915 -0.0134 -0.6070  0.1178
 2739SOL    MW410730   2.017   6.363   2.965 -0.0504 -0.0892 -0.1420
 2740SOL     OW10731   1.459   2.030   4.388 -0.5728  0.2542  0.0220
 2740SOL    HW210732   1.417   1.955   4.348 -0.0423 -0.7987  1.3658
 2740SOL    HW310733   1.546   1.999   4.413  1.3228  2.4723 -3.0836
 2740SOL    MW410734   1.465   2.016   4.386 -0.1605  0.6350 -0.2211
 2741SOL     OW10735   2.958   1.786   4.683  0.1277 -1.0899 -0.0460
 2741SOL    HW210736   3.035   1.843   4.681 -0.3267 -0.4315  0.6117
 2741SOL    HW310737   2.892   1.833   4.632 -0.5724 -0.5206  1.3364
 2741SOL    MW410738   2.959   1.800   4.676  0.7360 -0.0154  0.0909
 2742SOL     OW10739   4.956   3.725   2.488 -0.3588 -0.5319 -0.4305
 2742SOL    HW210740   5.032   3.672   2.462  0.2893 -1.0001  2.1381
 2742SOL    HW310741   4.989   3.814   2.491 -0.6992 -0.3186 -1.9783
 2742SOL    MW410742   4.970   3.730   2.485  0.8360  0.3363  0.7579
 2743SOL     OW10743   4.284   3.736   4.151  0.5140 -0.0724 -0.0664
 2743SOL    HW210744   4.350   3.804   4.162 -1.2244  1.8451 -0.8307
 2743SOL    HW310745   4.237   3.735   4.234 -0.2054  0.5189 -0.4575
 2743SOL    MW410746   4.287   3.745   4.164  0.3071 -0.3385 -0.3063
 2744SOL     OW10747   5.242   5.393   2.771  0.0655 -0.2095 -0.0784
 2744SOL    HW210748   5.327   5.358   2.744 -0.1076 -0.3297 -0.4843
 2744SOL    HW310749   5.251   5.488   2.762  0.5058 -0.1454  0.9310
 2744SOL    MW410750   5.254   5.401   2.766 -0.4113  0.6864  0.4407
 2745SOL     OW10751   5.700   3.846   4.597  0.4012  0.3328  0.6247
 2745SOL    HW210752   5.621   3.793   4.587 -0.1033  1.2692 -0.5478
 2745SOL    HW310753   5.681   3.905   4.670  0.4568 -0.1719  1.0574
 2745SOL    MW410754   5.687   3.847   4.605 -0.3879  0.4834  0.6029
 2746SOL     OW10755   5.646   0.805   4.153 -0.2135  0.0836  0.0999
 2746SOL    HW210756   5.709   0.794   4.082  1.5382  2.8316  1.0654
 2746SOL    HW310757   5.600   0.886   4.132 -1.4599 -0.4058  0.8522
 2746SOL    MW410758   5.649   0.814   4.141  0.1268  0.2821  0.0912
 2747SOL     OW10759   6.333   2.054   6.219  0.4189  0.2937  0.1536
 2747SOL    HW210760   6.410   2.109   6.204 -0.1307  1.2326  0.6772
 2747SOL    HW310761   6.369   1.971   6.252  1.1851  0.9651  1.0747
 2747SOL    MW410762   6.348   2.050   6.221  0.1018  0.0848  0.0566
 2748SOL     OW10763   5.318   5.610   6.206 -0.1133  0.0684  0.4170
 2748SOL    HW210764   5.243   5.618   6.265 -1.2741  0.2724 -1.0402
 2748SOL    HW310765   5.303   5.529   6.158  0.4626  0.2470 -0.0869
 2748SOL    MW410766   5.306   5.600   6.208 -0.6666  0.4592  0.1329
 2749SOL     OW10767   1.312   0.194   2.580  0.7837  0.4981 -0.2384
 2749SOL    HW210768   1.285   0.138   2.654 -0.2890  1.1203 -0.1415
 2749SOL    HW310769   1.407   0.196   2.586  0.8216 -0.8249  0.1208
 2749SOL    MW410770   1.321   0.187   2.591  0.0608  0.2868 -0.1443
 2750SOL     OW10771   1.250   5.373   0.340 -0.5253  0.5856  0.1488
 2750SOL    HW210772   1.177   5.339   0.391  0.8341 -0.3496  1.5753
 2750SOL    HW310773   1.212   5.442   0.286 -2.7701 -1.0171 -0.4558
 2750SOL    MW410774   1.235   5.378   0.339 -0.3387 -0.1349 -0.3086
 2751SOL     OW10775   0.701   0.403   2.426 -0.4953 -0.2613  0.0996
 2751SOL    HW210776   0.656   0.429   2.346 -1.0030  1.3534  0.8600
 2751SOL    HW310777   0.673   0.468   2.491 -0.8234 -2.0416  1.8314
 2751SOL    MW410778   0.691   0.415   2.424 -0.0015 -0.3645 -0.3216
 2752SOL     OW10779   2.236   3.947   5.888  0.2726 -0.6012  0.5164
 2752SOL    HW210780   2.243   3.910   5.799  1.0888  0.3343  0.1788
 2752SOL    HW310781   2.327   3.965   5.913 -0.0317  0.1142  1.1265
 2752SOL    MW410782   2.249   3.944   5.879 -0.0970  0.2401  0.1722
 2753SOL     OW10783   0.791   5.879   1.773 -0.0114 -0.0554  0.0764
 2753SOL    HW210784   0.723   5.947   1.771 -0.1867 -0.1824  1.1113
 2753SOL    HW310785   0.864   5.921   1.818 -0.4743 -0.8545  1.6130
 2753SOL    MW410786   0.792   5.894   1.778  0.2868 -0.4997 -0.5673
 2754SOL     OW10787   5.680   1.841   3.225 -0.2433  0.5629  0.0701
 2754SOL    HW210788   5.754   1.891   3.260  0.4419  0.8641 -1.6972
 2754SOL    HW310789   5.603   1.881   3.265  0.4998 -1.2127  3.7968
 2754SOL    MW410790   5.680   1.853   3.235  0.4391 -0.1803  0.0022
 2755SOL     OW10791   0.169   5.359   6.346  0.4853  1.1653  0.2553
 2755SOL    HW210792   0.250   5.336   6.390 -0.1031  0.8002  1.1660
 2755SOL    HW310793   0.150   5.449   6.375  1.9168  2.2926 -2.0147
 2755SOL    MW410794   0.177   5.368   6.355  0.3350  0.8270  0.6607
 2756SOL     OW10795   5.781   1.477   4.512  0.1172  0.5276 -0.2715
 2756SOL    HW210796   5.779   1.406   4.576  0.2654  0.0348 -0.8040
 2756SOL    HW310797   5.763   1.435   4.428  1.1461  0.9536 -0.7352
 2756SOL    MW410798   5.779   1.462   4.509  0.7193  0.3256 -0.1230
 2757SOL     OW10799   0.311   1.843   5.849  0.0326  0.3375  0.3437
 2757SOL    HW210800   0.249   1.855   5.777  0.4130  0.4924  0.0418
 2757SOL    HW310801   0.381   1.905   5.832  1.7335 -1.7819 -0.9144
 2757SOL    MW410802   0.312   1.853   5.837 -1.0981  0.1191 -0.2380
 2758SOL     OW10803   3.097   5.910   2.505  0.2860  0.8153  0.1072
 2758SOL    HW210804   3.175   5.915   2.561 -0.7230 -0.5390  1.7579
 2758SOL    HW310805   3.041   5.982   2.535 -0.2358  0.1173  0.8578
 2758SOL    MW410806   3.100   5.920   2.517 -0.0502  0.6334  0.3082
 2759SOL     OW10807   6.043   2.918   1.834  0.3561  0.3560 -0.3221
 2759SOL    HW210808   6.122   2.881   1.874  0.1844  1.6556  1.3479
 2759SOL    HW310809   5.975   2.853   1.848  0.5675  0.3123  0.5138
 2759SOL    MW410810   6.045   2.905   1.841 -0.4748 -0.3680 -0.0508
 2760SOL     OW10811   4.534   5.875   6.363  0.6321  0.0146  1.2153
 2760SOL    HW210812   4.493   5.877   6.276 -2.0600  1.5552  2.3944
 2760SOL    HW310813   4.585   5.956   6.367  0.1589  0.3141  1.3064
 2760SOL    MW410814   4.535   5.886   6.352  0.0232 -0.1076 -0.0799
 2761SOL     OW10815   0.487   6.217   1.966 -0.3680  0.4798 -0.6383
 2761SOL    HW210816   0.476   6.223   2.061 -2.0107 -1.5036 -0.6158
 2761SOL    HW310817   0.445   6.296   1.932  0.6855  1.4675  0.2617
 2761SOL    MW410818   0.480   6.228   1.974 -0.2776  0.5317 -0.3200
 2762SOL     OW10819   3.139   3.758   0.305  0.2439  0.3878  0.0399
 2762SOL    HW210820   3.136   3.726   0.396  0.2585 -0.5091 -0.2649
 2762SOL    HW310821   3.064   3.715   0.263  1.4341 -0.8529 -0.8867
 2762SOL    MW410822   3.128   3.748   0.312  0.1014  0.1415 -0.0543
 2763SOL     OW10823   3.469   0.497   1.061  0.0967  0.1919  0.1630
 2763SOL    HW210824   3.528   0.438   1.014  0.4065 -0.2205  1.0419
 2763SOL    HW310825   3.385   0.451   1.060  0.1410  0.1089  0.1476
 2763SOL    MW410826   3.466   0.483   1.055 -0.4132 -0.2096  0.5423
 2764SOL     OW10827   2.232   1.006   4.694  0.6709 -0.2602  0.5619
 2764SOL    HW210828   2.286   0.937   4.657  1.6978  1.6184 -1.6810
 2764SOL    HW310829   2.174   1.032   4.622 -0.0315  0.8877  1.5105
 2764SOL    MW410830   2.231   1.000   4.679 -0.0609 -0.1554  0.1214
 2765SOL     OW10831   1.171   4.094   2.130 -0.1224  0.5132 -0.1309
 2765SOL    HW210832   1.244   4.036   2.107 -0.7741 -0.7221  0.8239
 2765SOL    HW310833   1.098   4.062   2.077 -0.0030  1.7433 -1.0824
 2765SOL    MW410834   1.171   4.082   2.120 -0.1456 -0.0602 -0.4237
 2766SOL     OW10835   0.657   0.062   5.230  0.4577  0.2494 -0.0120
 2766SOL    HW210836   0.626   0.028   5.147 -0.4120 -0.4220  0.5705
 2766SOL    HW310837   0.624   0.152   5.234 -0.4354 -0.0793  0.0897
 2766SOL    MW410838   0.649   0.070   5.220 -0.4010  0.5808  0.0170
 2767SOL     OW10839   1.377   1.312   0.372  0.0652  0.8589  0.0182
 2767SOL    HW210840   1.473   1.310   0.378 -0.0399  0.6122  2.6531
 2767SOL    HW310841   1.351   1.380   0.434 -1.5315 -0.4147  0.7927
 2767SOL    MW410842   1.386   1.321   0.381 -0.0954  0.6019 -0.2999
 2768SOL     OW10843   1.634   5.884   0.122 -0.3340 -0.1222 -0.0527
 2768SOL    HW210844   1.576   5.936   0.066  1.3350  1.7974 -0.0995
 2768SOL    HW310845   1.575   5.825   0.169 -2.1852  0.9353 -0.9333
 2768SOL    MW410846   1.618   5.883   0.121 -0.3155 -0.1623 -0.1672
 2769SOL     OW10847   4.589   1.816   4.745 -0.0284  0.0342  0.0161
 2769SOL    HW210848   4.634   1.873   4.807  0.0683  0.1344 -0.1447
 2769SOL    HW310849   4.587   1.731   4.788  0.0748  0.0937  0.1403
 2769SOL    MW410850   4.595   1.813   4.759 -0.0836 -0.5425 -0.2757
 2770SOL     OW10851   2.239   5.389   6.152 -0.1347  0.3830 -0.4237
 2770SOL    HW210852   2.182   5.314   6.137 -0.6723  0.7084 -0.0804
 2770SOL    HW310853   2.193   5.463   6.112 -0.5489  0.8623  0.8672
 2770SOL    MW410854   2.226   5.389   6.145  0.4030 -0.4597 -0.2342
 2771SOL     OW10855   3.026   2.191   2.996 -0.2468  0.5895 -0.5879
 2771SOL    HW210856   3.025   2.248   2.919 -1.3282 -0.7112 -1.5809
 2771SOL    HW310857   2.945   2.211   3.042  0.1922  1.0535 -0.0009
 2771SOL    MW410858   3.015   2.201   2.992  0.0944  0.1188 -0.7846
 2772SOL     OW10859   6.276   4.635   5.326 -0.4063  0.5349 -0.6105
 2772SOL    HW210860   6.293   4.554   5.278  0.0520  0.8406 -0.9650
 2772SOL    HW310861   6.247   4.697   5.259  0.6261  1.0858 -0.5703
 2772SOL    MW410862   6.274   4.632   5.311  0.5435  0.0064 -0.5215
 2773SOL     OW10863   5.945   5.600   1.754 -0.1952 -0.7975 -0.3303
 2773SOL    HW210864   5.911   5.587   1.666  1.6316 -2.3716 -0.8662
 2773SOL    HW310865   6.011   5.532   1.765  1.7996  1.2328  1.1365
 2773SOL    MW410866   5.949   5.590   1.744 -0.3257  0.6677  0.3455
 2774SOL     OW10867   1.614   0.175   0.724 -0.2770  0.6512  0.0287
 2774SOL    HW210868   1.696   0.198   0.767 -0.1214  1.8878 -0.8580
 2774SOL    HW310869   1.639   0.118   0.651 -0.2682  0.5322  0.1258
 2774SOL    MW410870   1.628   0.171   0.720 -0.2802 -0.4869 -0.0847
 2775SOL     OW10871   1.539   0.482   4.003  0.0456 -0.2804 -0.2569
 2775SOL    HW210872   1.522   0.413   4.067  0.7165  0.3872  0.6756
 2775SOL    HW310873   1.634   0.479   3.988  0.1632  0.7567  0.1952
 2775SOL    MW410874   1.549   0.473   4.009 -1.1276 -0.1418  0.2812
 2776SOL     OW10875   2.605   4.518   5.524  0.3801  0.9860  0.2878
 2776SOL    HW210876   2.648   4.435   5.503  0.6688  1.8720 -3.1826
 2776SOL    HW310877   2.515   4.506   5.495  0.2289  1.6488  0.4725
 2776SOL    MW410878   2.599   4.505   5.517 -0.6960  0.4965 -0.1471
 2777SOL     OW10879   5.426   2.827   5.830 -0.0801 -0.1981  0.3115
 2777SOL    HW210880   5.449   2.741   5.865  0.1504 -0.5891 -0.7552
 2777SOL    HW310881   5.479   2.835   5.750 -1.1504  0.3301 -0.3631
 2777SOL    MW410882   5.436   2.817   5.824  0.2008 -0.1498 -0.1355
 2778SOL     OW10883   1.232   4.637   3.125  0.8229 -0.0331  0.7145
 2778SOL    HW210884   1.315   4.684   3.116 -0.2891  1.6770 -2.4493
 2778SOL    HW310885   1.184   4.685   3.192  0.0595  3.1459 -1.8341
 2778SOL    MW410886   1.236   4.650   3.132  0.3918 -0.1044  0.1555
 2779SOL     OW10887   2.078   5.826   0.714 -0.4019  0.4171  0.1837
 2779SOL    HW210888   2.076   5.783   0.799  0.5075 -0.3997 -0.1791
 2779SOL    HW310889   2.159   5.795   0.674 -1.6277 -0.5915 -1.6666
 2779SOL    MW410890   2.089   5.816   0.720  0.0536 -0.5151 -0.2877
 2780SOL     OW10891   1.748   4.822   6.417 -0.2314  0.2167 -0.7507
 2780SOL    HW210892   1.749   4.738   6.463 -0.0474  0.4514 -0.3257
 2780SOL    HW310893   1.656   4.836   6.395 -0.3942  0.3364 -0.0217
 2780SOL    MW410894   1.736   4.812   6.420 -1.0276  0.5403  0.0941
 2781SOL     OW10895   4.577   3.072   5.702 -0.1815  1.0084 -0.1121
 2781SOL    HW210896   4.652   3.017   5.678  1.0316  2.0220  1.1929
 2781SOL    HW310897   4.510   3.009   5.730 -0.0077  0.0659 -1.6652
 2781SOL    MW410898   4.578   3.056   5.702 -0.5683 -0.4693  0.0054
 2782SOL     OW10899   2.249   1.496   0.343 -0.1768  0.4421  0.1727
 2782SOL    HW210900   2.272   1.565   0.406 -0.1666  0.1483  0.4978
 2782SOL    HW310901   2.312   1.506   0.272 -0.5559  1.1512 -0.0724
 2782SOL    MW410902   2.261   1.507   0.342  0.0172  0.5611 -0.2873
 2783SOL     OW10903   3.237   6.165   4.218  0.4654 -0.2984  0.3067
 2783SOL    HW210904   3.296   6.149   4.293  0.1036  0.9779  0.8837
 2783SOL    HW310905   3.177   6.091   4.220 -1.2909  1.0366  3.0184
 2783SOL    MW410906   3.237   6.153   4.228  0.1444 -0.2677 -0.1813
 2784SOL     OW10907   3.566   4.723   2.411 -0.5997 -0.0676  0.0815
 2784SOL    HW210908   3.607   4.729   2.497  0.6279 -0.6631 -0.4385
 2784SOL    HW310909   3.627   4.768   2.352 -1.3536  0.2049 -0.5104
 2784SOL    MW410910   3.579   4.730   2.414  0.3133  0.1744  0.3544
 2785SOL     OW10911   2.043   4.500   2.703  0.3171  0.3926  0.6320
 2785SOL    HW210912   2.079   4.507   2.792 -3.2417 -1.8352  2.4505
 2785SOL    HW310913   1.963   4.553   2.705 -0.3424 -0.4750 -0.9242
 2785SOL    MW410914   2.037   4.508   2.715  0.3783  0.0329  0.1881
 2786SOL     OW10915   4.006   5.773   5.156 -0.2192 -0.0142 -0.2005
 2786SOL    HW210916   3.987   5.735   5.070 -1.6837 -0.2899  0.2203
 2786SOL    HW310917   3.948   5.849   5.161 -0.6597 -0.4072  0.8175
 2786SOL    MW410918   3.996   5.778   5.145  0.0132  0.3608  0.5694
 2787SOL     OW10919   4.669   3.527   1.333 -0.3319 -0.4309  0.0440
 2787SOL    HW210920   4.705   3.535   1.245  0.3251 -0.2841  0.3242
 2787SOL    HW310921   4.599   3.462   1.325 -0.0896 -0.6225 -0.5245
 2787SOL    MW410922   4.664   3.519   1.320  0.0790  0.1102 -0.4903
 2788SOL     OW10923   0.273   1.381   0.472  0.0699 -0.1184 -0.4251
 2788SOL    HW210924   0.353   1.339   0.504 -0.1981  0.8203  1.6758
 2788SOL    HW310925   0.296   1.473   0.463 -0.6786  0.1098 -0.0898
 2788SOL    MW410926   0.286   1.387   0.475 -0.0075  0.1236 -0.0959
 2789SOL     OW10927   3.117   3.478   2.506  0.0961  0.2206 -0.0218
 2789SOL    HW210928   3.144   3.569   2.516 -0.7753  0.5528 -0.6642
 2789SOL    HW310929   3.094   3.469   2.414 -0.4015 -0.4892  0.1635
 2789SOL    MW410930   3.118   3.489   2.495  0.0979  0.3262 -0.1593
 2790SOL     OW10931   4.477   0.065   5.227 -0.2689 -0.1884  0.0800
 2790SOL    HW210932   4.448   0.097   5.141 -1.0694 -2.8115 -0.7247
 2790SOL    HW310933   4.545   0.001   5.206 -0.3860 -0.7626  1.4136
 2790SOL    MW410934   4.482   0.060   5.213 -0.1252  0.3311 -0.4832
 2791SOL     OW10935   0.029   4.033   0.371  0.1037  0.1720  0.9406
 2791SOL    HW210936  -0.006   4.043   0.283  0.4708  0.6037  0.8382
 2791SOL    HW310937  -0.008   3.951   0.403 -1.4810  0.8839  1.0519
 2791SOL    MW410938   0.020   4.024   0.364  0.2194 -0.4779 -0.2062
 2792SOL     OW10939   5.123   6.267   3.274  0.5444  0.2310  0.3705
 2792SOL    HW210940   5.178   6.339   3.242 -0.0276  0.7982  0.6418
 2792SOL    HW310941   5.125   6.202   3.204 -1.2427  1.7350 -1.1827
 2792SOL    MW410942   5.131   6.268   3.261 -1.0224  0.0985  0.0930
 2793SOL     OW10943   0.392   2.247   3.131 -0.2385  0.0942 -0.0467
 2793SOL    HW210944   0.373   2.228   3.039 -1.0610  0.1575  0.1038
 2793SOL    HW310945   0.411   2.162   3.169 -1.1306 -0.1008 -0.0073
 2793SOL    MW410946   0.392   2.233   3.124 -0.0851 -0.0846  0.0412
 2794SOL     OW10947   3.789   4.393   5.980 -0.1513 -0.2616  0.8336
 2794SOL    HW210948   3.825   4.482   5.980 -0.4111 -0.1594  0.2416
 2794SOL    HW310949   3.821   4.354   5.899 -0.5388 -0.5122  0.8028
 2794SOL    MW410950   3.798   4.400   5.970  0.2209  0.7336 -0.0717
 2795SOL     OW10951   5.477   3.239   0.835 -0.5391 -0.2142 -0.3044
 2795SOL    HW210952   5.414   3.178   0.874  0.2870 -0.7336  0.2364
 2795SOL    HW310953   5.442   3.258   0.748 -0.9944 -1.1650 -0.3336
 2795SOL    MW410954   5.464   3.234   0.829 -0.5907 -0.2526  0.1313
 2796SOL     OW10955   4.903   1.267   1.662  0.0844  0.3596 -0.4735
 2796SOL    HW210956   4.915   1.322   1.739  0.1825 -0.0950 -0.1621
 2796SOL    HW310957   4.819   1.224   1.675 -0.3681  1.0265 -1.0927
 2796SOL    MW410958   4.893   1.269   1.674 -0.3248  0.1020  0.2738
 2797SOL     OW10959   3.195   0.360   1.618  0.5622  0.3777 -0.4523
 2797SOL    HW210960   3.200   0.347   1.523 -0.9854 -1.1634 -0.3580
 2797SOL    HW310961   3.272   0.314   1.652  0.1990 -0.5471 -0.8478
 2797SOL    MW410962   3.206   0.352   1.610 -0.2391 -0.3229 -0.2855
 2798SOL     OW10963   6.191   6.090   0.140  0.0023  0.9944  0.3299
 2798SOL    HW210964   6.128   6.018   0.147  0.9760  0.2379  1.7660
 2798SOL    HW310965   6.136   6.169   0.133 -1.0787  0.1543 -1.3042
 2798SOL    MW410966   6.175   6.091   0.140  0.0209  0.4365 -0.1606
 2799SOL     OW10967   6.136   1.278   2.506  0.9478 -0.2364  0.1179
 2799SOL    HW210968   6.054   1.252   2.547  0.7726  0.3982  0.1801
 2799SOL    HW310969   6.204   1.247   2.565  0.7096  0.3883  0.7269
 2799SOL    MW410970   6.134   1.270   2.519  0.4889  0.2537 -0.4290
 2800SOL     OW10971   1.423   2.984   3.829 -0.2192 -0.6522  0.3628
 2800SOL    HW210972   1.408   3.001   3.922 -0.0098 -0.5967  0.3872
 2800SOL    HW310973   1.369   2.908   3.809 -0.6719 -0.3440  0.4073
 2800SOL    MW410974   1.414   2.977   3.839  0.2718 -0.5340  1.2244
 2801SOL     OW10975   0.334   2.121   0.831 -0.0954 -0.6811  0.8223
 2801SOL    HW210976   0.346   2.212   0.805  0.5031 -0.7471  0.8558
 2801SOL    HW310977   0.310   2.126   0.924 -0.8349 -0.5230  0.6311
 2801SOL    MW410978   0.332   2.134   0.840 -0.0518 -0.0957  0.2677
 2802SOL     OW10979   2.850   4.352   0.732 -0.0247 -0.1837 -0.0192
 2802SOL    HW210980   2.824   4.286   0.668 -0.2467 -0.7076  0.5976
 2802SOL    HW310981   2.946   4.352   0.729  0.0068  1.6685 -2.2146
 2802SOL    MW410982   2.859   4.343   0.723 -0.1595  0.3461  0.5568
 2803SOL     OW10983   6.386   2.559   0.342 -0.5988  0.5876  0.5295
 2803SOL    HW210984   6.295   2.543   0.318 -1.5950  2.1036  2.9201
 2803SOL    HW310985   6.413   2.481   0.390 -0.4488 -0.0480 -0.5507
 2803SOL    MW410986   6.378   2.547   0.345  0.6602 -0.4871 -0.8206
 2804SOL     OW10987   1.184   5.516   2.958  0.0228 -0.3719  0.3963
 2804SOL    HW210988   1.243   5.479   3.023 -1.1691 -1.6991  0.7702
 2804SOL    HW310989   1.186   5.454   2.885 -0.6361 -0.2721  0.2821
 2804SOL    MW410990   1.192   5.503   2.957 -0.2974 -0.3741  0.2712
 2805SOL     OW10991   0.630   1.760   1.915 -0.0505  0.1438 -0.0674
 2805SOL    HW210992   0.653   1.724   1.829  0.8491 -1.1876  0.6813
 2805SOL    HW310993   0.535   1.760   1.917 -0.1131 -2.4490 -0.0719
 2805SOL    MW410994   0.621   1.755   1.904 -1.0456 -0.2958 -1.0109
 2806SOL     OW10995   6.141   1.547   5.184  0.6025 -0.3076 -0.0107
 2806SOL    HW210996   6.206   1.561   5.115 -1.2759  0.3341 -1.7584
 2806SOL    HW310997   6.071   1.609   5.164 -1.7125 -2.6515  0.2708
 2806SOL    MW410998   6.140   1.557   5.172  0.4016  0.2720  0.5369
 2807SOL     OW10999   3.781   3.335   3.257  0.4261  0.7396 -0.8625
 2807SOL    HW211000   3.766   3.331   3.352  0.1679 -0.3728 -0.9451
 2807SOL    HW311001   3.693   3.332   3.219  0.5074  1.5586 -1.1455
 2807SOL    MW411002   3.767   3.334   3.265  0.3331  0.1328 -0.2171
 2808SOL     OW11003   2.924   4.608   4.869  0.4037 -0.0754 -0.1791
 2808SOL    HW211004   2.853   4.667   4.895 -1.4660 -2.0063 -0.6329
 2808SOL    HW311005   2.929   4.544   4.940 -0.2897 -1.5904 -1.4325
 2808SOL    MW411006   2.915   4.608   4.882 -0.1985 -0.2743 -0.2734
 2809SOL     OW11007   6.145   3.847   1.700  0.6153  0.4051  0.3909
 2809SOL    HW211008   6.205   3.917   1.675  2.3393 -0.4762  1.7786
 2809SOL    HW311009   6.145   3.849   1.796 -1.4579  0.2291  0.4368
 2809SOL    MW411010   6.153   3.856   1.709 -0.1481 -0.4561  0.5785
 2810SOL     OW11011   1.371   5.340   6.185  0.1111  0.2132 -0.2480
 2810SOL    HW211012   1.378   5.345   6.090 -0.2868  0.1252 -0.2826
 2810SOL    HW311013   1.380   5.431   6.215  1.4454  0.1030 -0.2834
 2810SOL    MW411014   1.373   5.353   6.177  0.5110  0.0391  0.6508
 2811SOL     OW11015   1.650   1.518   3.876  0.2976  0.2511  0.5101
 2811SOL    HW211016   1.703   1.530   3.955 -0.6041 -0.8454  1.3180
 2811SOL    HW311017   1.564   1.494   3.908 -0.6584  1.7390 -0.7861
 2811SOL    MW411018   1.646   1.516   3.890 -0.6024 -0.4039  0.4377
 2812SOL     OW11019   3.473   6.403   0.672 -0.6625  0.4804 -0.2107
 2812SOL    HW211020   3.424   6.376   0.594 -1.1447 -0.6061  0.4455
 2812SOL    HW311021   3.409   6.398   0.743  0.3505 -0.9210  0.6565
 2812SOL    MW411022   3.458   6.399   0.671 -0.4534 -0.1382  0.4808
 2813SOL     OW11023   5.214   0.873   1.472  0.3450 -0.1882  0.1849
 2813SOL    HW211024   5.300   0.846   1.504  0.2345 -0.9457 -0.1347
 2813SOL    HW311025   5.210   0.839   1.383 -0.1556  0.1322  0.0796
 2813SOL    MW411026   5.225   0.865   1.464 -0.3799  0.5862  0.1645
 2814SOL     OW11027   1.051   3.053   3.651 -1.0166  0.7128  0.1236
 2814SOL    HW211028   0.976   3.099   3.690 -2.0929 -1.7825  1.1551
 2814SOL    HW311029   1.029   2.960   3.658  2.7567 -0.2371  1.6840
 2814SOL    MW411030   1.038   3.047   3.657  0.0821 -0.0169 -0.2243
 2815SOL     OW11031   0.939   5.629   4.962 -0.5205  0.2384  0.4914
 2815SOL    HW211032   0.984   5.572   4.899 -2.1530 -1.5736  0.8560
 2815SOL    HW311033   1.009   5.667   5.014  0.7814  0.6041 -1.4328
 2815SOL    MW411034   0.954   5.626   4.961 -0.5120  0.2236  0.0338
 2816SOL     OW11035   3.766   0.909   0.209 -0.5889  0.3694  0.1204
 2816SOL    HW211036   3.703   0.888   0.141  1.7478 -1.7591 -1.5723
 2816SOL    HW311037   3.727   0.875   0.289 -2.6513  1.4404 -0.3545
 2816SOL    MW411038   3.752   0.902   0.211 -0.4831  0.0754  0.1140
 2817SOL     OW11039   5.592   1.757   5.401 -0.2262  0.1539  0.0759
 2817SOL    HW211040   5.657   1.687   5.399 -1.1058 -0.7082  0.5316
 2817SOL    HW311041   5.511   1.713   5.428 -1.0528  1.1539 -0.7071
 2817SOL    MW411042   5.590   1.742   5.404 -0.2343 -0.0741  0.3148
 2818SOL     OW11043   5.589   4.978   4.847  0.1727 -0.4353  0.2942
 2818SOL    HW211044   5.551   4.930   4.773 -1.0231 -0.9738  1.2290
 2818SOL    HW311045   5.518   4.984   4.911  1.6147 -1.3419  2.0580
 2818SOL    MW411046   5.575   4.973   4.846  0.6075  0.2938  0.4766
 2819SOL     OW11047   4.371   0.094   5.939  0.2817  0.3993 -0.1507
 2819SOL    HW211048   4.314   0.167   5.914 -0.4280 -0.2240 -0.4004
 2819SOL    HW311049   4.321   0.046   6.005 -0.4107 -1.3331 -1.8250
 2819SOL    MW411050   4.357   0.097   5.944  0.0924  0.2758 -0.3803
 2820SOL     OW11051   2.547   2.899   3.763  0.2764  0.4254 -0.0732
 2820SOL    HW211052   2.618   2.945   3.719  0.3008 -0.8149 -1.3867
 2820SOL    HW311053   2.522   2.957   3.835  0.8814  2.0675 -1.1318
 2820SOL    MW411054   2.553   2.913   3.767  1.1734  0.0442  0.4170
 2821SOL     OW11055   2.841   4.087   5.850 -0.2161 -0.0420 -0.0294
 2821SOL    HW211056   2.844   4.128   5.936 -0.8362  0.2024 -0.1170
 2821SOL    HW311057   2.854   3.994   5.867  1.0031  0.1467  0.1884
 2821SOL    MW411058   2.843   4.080   5.863  0.4118  0.2103 -0.3964
 2822SOL     OW11059   2.677   2.850   4.775 -0.3834 -0.1034  0.6538
 2822SOL    HW211060   2.617   2.921   4.752  1.0792  1.9514  2.7452
 2822SOL    HW311061   2.757   2.870   4.727 -0.6454 -1.7286 -0.5674
 2822SOL    MW411062   2.680   2.862   4.766  0.3427 -0.6637 -0.1436
 2823SOL     OW11063   0.082   1.703   0.910  0.1345  0.1130  0.4849
 2823SOL    HW211064   0.142   1.751   0.853 -0.7276 -0.3102 -0.8062
 2823SOL    HW311065   0.034   1.772   0.957  1.1082  0.4560  1.0181
 2823SOL    MW411066   0.084   1.719   0.909  1.0045  0.2177 -0.5792
 2824SOL     OW11067   1.306   5.851   2.691 -0.2729 -0.5253 -0.1104
 2824SOL    HW211068   1.338   5.933   2.654 -0.3044 -0.2331  0.4891
 2824SOL    HW311069   1.212   5.864   2.701  0.0033  0.2391  2.0461
 2824SOL    MW411070   1.298   5.863   2.688  0.2258  0.0163  0.0594
 2825SOL     OW11071   2.570   0.426   1.978 -0.9652  0.1722 -0.0628
 2825SOL    HW211072   2.507   0.355   1.989  0.6387 -1.1231  1.3360
 2825SOL    HW311073   2.650   0.382   1.950 -0.2819  1.6196 -0.4769
 2825SOL    MW411074   2.572   0.410   1.975  0.0826 -0.0346  0.0451
 2826SOL     OW11075   1.168   0.797   5.449  0.1770 -0.4412 -0.1775
 2826SOL    HW211076   1.150   0.722   5.391 -1.4602 -0.8455  0.7921
 2826SOL    HW311077   1.261   0.789   5.470  0.5360 -0.9533 -1.7999
 2826SOL    MW411078   1.178   0.786   5.444  0.0768 -0.6481  0.8094
 2827SOL     OW11079   4.513   6.450   6.371  0.0071 -0.6744 -0.5510
 2827SOL    HW211080   4.420   6.472   6.382  0.3928  0.6124  0.2985
 2827SOL    HW311081   4.544   6.435   6.460  1.1832  1.4293 -0.5444
 2827SOL    MW411082   4.505   6.451   6.385 -0.0386  0.1098  0.3038
 2828SOL     OW11083   4.697   0.370   0.167  0.2891 -0.3484 -0.2381
 2828SOL    HW211084   4.714   0.464   0.165 -1.2805 -0.0554 -0.4779
 2828SOL    HW311085   4.681   0.346   0.076 -0.2299 -0.6793 -0.0619
 2828SOL    MW411086   4.697   0.379   0.155 -0.4882 -0.4389 -0.2760
 2829SOL     OW11087   5.202   5.275   3.812 -0.1688  0.7352 -0.5036
 2829SOL    HW211088   5.245   5.324   3.881  0.7047  1.8402 -1.7736
 2829SOL    HW311089   5.187   5.188   3.849  2.1596  0.6470  0.3714
 2829SOL    MW411090   5.206   5.270   3.826  0.4910 -0.0004  0.4922
 2830SOL     OW11091   1.616   4.336   2.200  0.7892 -0.1004  0.4709
 2830SOL    HW211092   1.657   4.291   2.274 -0.8640  0.7903  2.0069
 2830SOL    HW311093   1.525   4.349   2.228 -0.0384 -0.1749 -1.9399
 2830SOL    MW411094   1.609   4.332   2.214  0.6639  0.1044 -0.4711
 2831SOL     OW11095   0.773   6.039   4.337  0.0061  0.0444  0.5039
 2831SOL    HW211096   0.769   5.943   4.327 -0.3362  0.0870  0.2263
 2831SOL    HW311097   0.798   6.052   4.429  0.9997 -0.3202  0.2992
 2831SOL    MW411098   0.776   6.028   4.348 -0.4315  0.0118  0.2858
 2832SOL     OW11099   6.365   5.090   1.763 -0.6217 -0.0296 -0.1786
 2832SOL    HW211100   6.443   5.134   1.796 -1.3670  0.5448  0.8726
 2832SOL    HW311101   6.383   4.997   1.779 -0.1318  0.0903  0.0106
 2832SOL    MW411102   6.378   5.083   1.770  0.1984  0.0881 -0.7371
 2833SOL     OW11103   0.383   0.223   3.436  0.0301 -0.0654  0.2380
 2833SOL    HW211104   0.347   0.305   3.402  0.8625  0.0572 -0.3941
 2833SOL    HW311105   0.434   0.187   3.363  0.0659 -0.9058  0.6635
 2833SOL    MW411106   0.385   0.229   3.422 -0.2154  0.1118 -0.2931
 2834SOL     OW11107   4.018   2.712   3.615  0.3596  0.4819 -0.4312
 2834SOL    HW211108   3.940   2.717   3.559  0.1798 -0.0739 -0.2354
 2834SOL    HW311109   4.034   2.803   3.640 -0.3912  0.5757 -0.2492
 2834SOL    MW411110   4.010   2.725   3.611 -0.1592  0.3203  0.4734
 2835SOL     OW11111   5.926   2.793   5.500  0.0675  0.0675  0.0980
 2835SOL    HW211112   5.998   2.735   5.476 -0.3723 -0.0572 -1.0178
 2835SOL    HW311113   5.968   2.873   5.529  0.6940 -0.8527  1.8572
 2835SOL    MW411114   5.941   2.796   5.501 -0.1805  0.4042 -0.6067
 2836SOL     OW11115   1.945   5.568   5.431 -0.0431 -0.2503 -0.2550
 2836SOL    HW211116   2.020   5.603   5.479 -1.2063  0.0162  1.4278
 2836SOL    HW311117   1.892   5.645   5.410 -0.1441 -0.4985 -0.9612
 2836SOL    MW411118   1.948   5.583   5.434 -1.2188  0.0259  0.1849
 2837SOL     OW11119   5.500   1.736   6.144  0.1397 -0.2254  0.1367
 2837SOL    HW211120   5.405   1.736   6.135  0.3104 -0.8925 -2.9427
 2837SOL    HW311121   5.532   1.739   6.054  3.0648  0.4116  1.0827
 2837SOL    MW411122   5.492   1.736   6.131 -0.3967  0.0546 -0.3684
 2838SOL     OW11123   5.990   4.977   5.425 -0.3818 -0.4572 -0.3848
 2838SOL    HW211124   5.960   5.056   5.380 -0.9537 -0.6922 -0.4119
 2838SOL    HW311125   6.019   4.919   5.354  1.2729  0.2167 -0.3118
 2838SOL    MW411126   5.990   4.980   5.409  0.0141 -0.4737  0.4328
 2839SOL     OW11127   2.114   0.735   4.032 -0.4800 -0.5878 -0.1723
 2839SOL    HW211128   2.032   0.779   4.011  0.0769  0.1915 -0.7842
 2839SOL    HW311129   2.181   0.788   3.989  0.2876 -1.5657 -0.2220
 2839SOL    MW411130   2.112   0.747   4.023 -0.2533  0.1103 -0.5578
 2840SOL     OW11131   2.214   1.577   3.615 -0.3556  0.1462 -0.0350
 2840SOL    HW211132   2.195   1.516   3.686  1.1342 -0.3722 -0.0407
 2840SOL    HW311133   2.307   1.598   3.625 -0.8043  2.4310 -0.0591
 2840SOL    MW411134   2.223   1.572   3.625  0.1358  0.2459 -0.1741
 2841SOL     OW11135   4.258   1.081   6.410 -0.5416  0.5258 -0.0978
 2841SOL    HW211136   4.271   1.174   6.392  0.3624  0.8757  2.1202
 2841SOL    HW311137   4.340   1.040   6.383 -0.7797  0.4056 -0.6663
 2841SOL    MW411138   4.270   1.088   6.404  0.8267 -0.3971 -0.1377
 2842SOL     OW11139   4.577   2.639   4.553  0.3226 -0.3192  0.2521
 2842SOL    HW211140   4.566   2.647   4.458  1.1156  0.1831  0.1930
 2842SOL    HW311141   4.545   2.551   4.573 -2.2413  0.4306 -0.0881
 2842SOL    MW411142   4.571   2.629   4.543 -0.2087 -0.9354 -0.5338
 2843SOL     OW11143   4.925   0.344   6.292  0.2713 -0.3450  0.1887
 2843SOL    HW211144   4.989   0.273   6.287  0.3846 -0.2932  0.8337
 2843SOL    HW311145   4.841   0.299   6.298  0.3832 -0.4574  1.2606
 2843SOL    MW411146   4.923   0.329   6.292  0.1764  0.2345 -0.3292
 2844SOL     OW11147   1.101   2.474   3.255 -0.6883 -0.2992  0.3832
 2844SOL    HW211148   1.177   2.417   3.253 -0.8066 -0.4513  0.2417
 2844SOL    HW311149   1.061   2.466   3.169 -1.1208 -0.5698  0.6013
 2844SOL    MW411150   1.106   2.466   3.244 -0.2918 -0.2071 -0.7358
 2845SOL     OW11151   2.391   5.467   4.793 -0.5792 -0.0238  0.1379
 2845SOL    HW211152   2.457   5.475   4.863  0.1584 -0.6510 -0.4664
 2845SOL    HW311153   2.439   5.488   4.713 -1.0749 -0.6393 -0.3276
 2845SOL    MW411154   2.406   5.471   4.792  0.4981 -0.2893  0.2553
 2846SOL     OW11155   2.400   2.412   3.344  0.1319  0.1649 -0.1765
 2846SOL    HW211156   2.315   2.397   3.385  0.0904 -1.2624 -0.7111
 2846SOL    HW311157   2.387   2.388   3.252  1.2000 -0.4839 -0.1822
 2846SOL    MW411158   2.387   2.407   3.337 -0.4809  0.1522  0.3070
 2847SOL     OW11159   4.815   6.021   0.692 -0.0218 -0.1079  0.4486
 2847SOL    HW211160   4.871   6.096   0.710  1.7128 -0.8449 -1.4576
 2847SOL    HW311161   4.829   5.962   0.766  3.1210 -0.9833 -0.6838
 2847SOL    MW411162   4.824   6.023   0.704  0.0722 -0.3683 -0.2836
 2848SOL     OW11163   1.943   5.195   0.488 -0.1180  0.0559  0.5518
 2848SOL    HW211164   1.975   5.106   0.470 -2.0645 -0.9116  1.6086
 2848SOL    HW311165   2.013   5.235   0.541 -0.3077 -1.7881  2.3219
 2848SOL    MW411166   1.957   5.189   0.493 -0.2676  0.4399  0.7538
 2849SOL     OW11167   1.275   6.388   2.192  0.5482  0.2807  0.2071
 2849SOL    HW211168   1.368   6.406   2.184  0.3134  1.6869  0.4627
 2849SOL    HW311169   1.235   6.473   2.209 -0.7814 -0.3062  0.1431
 2849SOL    MW411170   1.282   6.401   2.194  0.4436 -0.7466 -0.5682
 2850SOL     OW11171   6.213   0.500   2.228 -0.6969 -0.8456 -0.2048
 2850SOL    HW211172   6.280   0.543   2.283 -0.3825 -2.1976  0.5282
 2850SOL    HW311173   6.219   0.544   2.144 -0.5669  0.6941  0.5776
 2850SOL    MW411174   6.223   0.511   2.224 -0.0010  0.1862  0.3129
 2851SOL     OW11175   0.403   1.223   3.508 -0.5436  0.2241  0.1978
 2851SOL    HW211176   0.449   1.153   3.461 -0.9036 -0.0697  0.2742
 2851SOL    HW311177   0.456   1.238   3.587  0.1129  0.7864 -0.3396
 2851SOL    MW411178   0.416   1.216   3.512  0.1517 -0.7224 -0.2266
 2852SOL     OW11179   5.643   3.638   5.844 -0.3065  0.0970 -0.3470
 2852SOL    HW211180   5.733   3.671   5.839 -0.4032  0.4653  0.1541
 2852SOL    HW311181   5.644   3.557   5.795  0.5927 -0.5181  0.6261
 2852SOL    MW411182   5.655   3.632   5.837  0.0729  0.5328  0.0944
 2853SOL     OW11183   5.117   5.263   6.159  0.0331  0.1185  0.0596
 2853SOL    HW211184   5.123   5.241   6.252  2.4062 -0.2689 -0.1194
 2853SOL    HW311185   5.191   5.217   6.119 -1.4802 -0.4958 -2.2021
 2853SOL    MW411186   5.128   5.254   6.166 -0.2583  0.3538 -0.0370
 2854SOL     OW11187   0.037   4.502   2.329  0.0412  0.5220  0.1357
 2854SOL    HW211188   0.110   4.441   2.341  0.4639  1.0777  0.4145
 2854SOL    HW311189   0.077   4.584   2.302 -0.6416  0.2832 -1.7689
 2854SOL    MW411190   0.052   4.505   2.327 -0.0754 -0.2164  0.4195
 2855SOL     OW11191   5.642   0.734   6.146  0.7959 -0.3016 -0.6110
 2855SOL    HW211192   5.547   0.733   6.133  0.4124 -0.7017  1.8116
 2855SOL    HW311193   5.659   0.811   6.200  2.0449  0.4606 -2.0176
 2855SOL    MW411194   5.632   0.744   6.151  0.3768 -0.3924  0.1686
 2856SOL     OW11195   5.399   4.938   5.045 -0.0151 -0.0945 -0.2924
 2856SOL    HW211196   5.406   4.860   5.101 -0.8198 -0.3229 -0.4857
 2856SOL    HW311197   5.305   4.951   5.036  0.1173  0.5453 -0.7630
 2856SOL    MW411198   5.387   4.929   5.051  0.1667 -0.7864  1.0040
 2857SOL     OW11199   0.527   5.096   0.649  0.2279  0.0834 -0.5251
 2857SOL    HW211200   0.616   5.102   0.683  1.2182  4.1466 -3.0682
 2857SOL    HW311201   0.472   5.136   0.716  1.1904  2.1386 -0.8705
 2857SOL    MW411202   0.531   5.102   0.662  0.2779  0.0419 -0.2185
 2858SOL     OW11203   5.858   3.921   3.740 -0.4755 -1.0419  0.2962
 2858SOL    HW211204   5.843   4.015   3.743 -0.7828 -0.9476 -2.0904
 2858SOL    HW311205   5.776   3.883   3.773 -1.0640 -0.4536 -0.4333
 2858SOL    MW411206   5.845   3.928   3.744  0.1619  0.5183 -0.9247
 2859SOL     OW11207   5.135   4.684   2.943  0.7239 -0.3011  0.2663
 2859SOL    HW211208   5.164   4.647   2.859 -0.8645 -0.8050 -0.1035
 2859SOL    HW311209   5.131   4.778   2.927  0.2417 -0.4070 -0.3152
 2859SOL    MW411210   5.138   4.692   2.930  0.3738 -0.3205 -0.4029
 2860SOL     OW11211   2.744   0.154   1.554 -0.2076  0.6561 -0.0991
 2860SOL    HW211212   2.685   0.219   1.590 -0.1861  0.9288 -0.5429
 2860SOL    HW311213   2.818   0.204   1.520  0.0969  0.3507  0.0954
 2860SOL    MW411214   2.746   0.169   1.554  0.1305 -0.4139 -0.3949
 2861SOL     OW11215  -0.002   0.169   2.406  0.3358  0.3099  0.0088
 2861SOL    HW211216   0.054   0.125   2.342 -1.1721 -3.1460  0.8581
 2861SOL    HW311217   0.042   0.155   2.490 -0.1229  0.5774  0.2951
 2861SOL    MW411218   0.011   0.161   2.408 -0.9238 -0.2149 -0.5117
 2862SOL     OW11219   5.045   4.717   0.125  0.6051 -0.3875  0.4524
 2862SOL    HW211220   4.981   4.776   0.085  0.1281 -1.3046 -0.1758
 2862SOL    HW311221   5.129   4.761   0.110  0.3185 -0.1388 -0.5223
 2862SOL    MW411222   5.048   4.731   0.117  0.5957  0.0607  0.3249
 2863SOL     OW11223   1.768   3.508   4.168 -0.7548  0.1474  0.4175
 2863SOL    HW211224   1.781   3.446   4.239 -3.4591  2.3685  3.1291
 2863SOL    HW311225   1.674   3.526   4.168 -0.5789  1.7754 -2.4606
 2863SOL    MW411226   1.757   3.502   4.177  0.3792  0.5457 -0.3436
 2864SOL     OW11227   1.588   2.566   3.308 -0.0013  0.2377  0.3286
 2864SOL    HW211228   1.564   2.579   3.216 -0.4895  0.8211  0.5332
 2864SOL    HW311229   1.670   2.616   3.318  0.0707  0.1456  0.2049
 2864SOL    MW411230   1.596   2.575   3.297  0.1356  0.5954  0.4596
 2865SOL     OW11231   5.910   4.588   1.336 -0.2696  0.0170  0.6525
 2865SOL    HW211232   5.903   4.499   1.369 -1.6285 -0.7383 -1.4664
 2865SOL    HW311233   6.004   4.608   1.340 -0.2261 -0.2003  4.1694
 2865SOL    MW411234   5.921   4.579   1.341 -0.2168  0.5342 -0.1724
 2866SOL     OW11235   6.168   4.677   1.366  0.3908  0.2081  0.2239
 2866SOL    HW211236   6.250   4.630   1.355  1.6180  1.7835  2.0450
 2866SOL    HW311237   6.169   4.707   1.457 -1.0558  2.3391 -0.3819
 2866SOL    MW411238   6.179   4.675   1.377 -0.3313 -0.2255 -0.0254
 2867SOL     OW11239   0.801   1.739   4.060  0.2197  0.7517 -0.1036
 2867SOL    HW211240   0.872   1.802   4.074  2.3615 -1.5119 -0.0586
 2867SOL    HW311241   0.796   1.689   4.141 -2.1432  1.4409  0.2459
 2867SOL    MW411242   0.810   1.740   4.072  0.3285  0.0807  0.2077
 2868SOL     OW11243   1.824   4.381   4.800  0.3355  0.0454 -0.2939
 2868SOL    HW211244   1.744   4.371   4.852 -0.0554  2.0215 -0.4132
 2868SOL    HW311245   1.890   4.333   4.848 -0.1474  1.2981  1.7790
 2868SOL    MW411246   1.822   4.374   4.813  0.3917  0.1186  0.0504
 2869SOL     OW11247   0.928   0.602   0.560  0.8740 -0.0749 -0.6278
 2869SOL    HW211248   0.900   0.579   0.472 -0.5267 -0.6948 -0.0444
 2869SOL    HW311249   0.868   0.671   0.587  1.5932  0.4420 -0.3221
 2869SOL    MW411250   0.916   0.608   0.552 -0.0009 -0.1423  0.3033
 2870SOL     OW11251   4.021   2.948   0.665  0.4475  0.3151 -0.3914
 2870SOL    HW211252   4.080   2.956   0.740 -0.4230  1.6880  0.1767
 2870SOL    HW311253   4.020   2.854   0.645  0.6004 -0.0904  1.3677
 2870SOL    MW411254   4.029   2.937   0.672  0.2917  0.4540  0.4190
 2871SOL     OW11255   0.267   3.188   3.486  0.0504 -0.4135  0.1929
 2871SOL    HW211256   0.173   3.193   3.471 -0.1382 -1.5234  0.9150
 2871SOL    HW311257   0.292   3.278   3.509 -0.7923 -0.0810 -0.1488
 2871SOL    MW411258   0.258   3.201   3.487 -0.4140  0.0426 -0.3195
 2872SOL     OW11259   3.043   5.769   1.808  0.0720 -0.0905  0.0694
 2872SOL    HW211260   3.035   5.721   1.726  0.1408 -1.5978  0.9115
 2872SOL    HW311261   3.095   5.713   1.865 -1.2233  0.2162  1.6511
 2872SOL    MW411262   3.049   5.756   1.805  0.1909 -0.2391 -0.3662
 2873SOL     OW11263   0.107   2.181   1.754  0.5968 -0.1987 -1.1108
 2873SOL    HW211264   0.071   2.132   1.828  0.1867  0.9718 -0.5166
 2873SOL    HW311265   0.031   2.210   1.704  0.8862 -1.4677 -2.3430
 2873SOL    MW411266   0.092   2.179   1.757  0.0058  0.3763  0.5671
 2874SOL     OW11267   4.670   1.149   2.511  0.2190 -0.3369 -0.6810
 2874SOL    HW211268   4.732   1.195   2.567 -0.5834  1.1013 -0.9339
 2874SOL    HW311269   4.725   1.111   2.442  0.8418  0.9276 -0.9165
 2874SOL    MW411270   4.685   1.150   2.509 -0.1837  0.8619 -1.1552
 2875SOL     OW11271   4.890   3.054   1.799 -0.3092  0.4174 -0.5139
 2875SOL    HW211272   4.851   3.087   1.718  1.4286 -0.7213 -1.8987
 2875SOL    HW311273   4.941   3.128   1.833 -1.7289  1.1700  0.0486
 2875SOL    MW411274   4.892   3.068   1.793 -0.1481 -0.0786  0.2396
 2876SOL     OW11275   3.050   1.366   4.181  0.3094 -0.0813  0.5545
 2876SOL    HW211276   3.143   1.371   4.157  0.4815  0.4846  1.2848
 2876SOL    HW311277   3.051   1.346   4.275 -0.2542  1.7091  0.9872
 2876SOL    MW411278   3.062   1.364   4.191  0.3176 -0.1340  0.4170
 2877SOL     OW11279   2.699   2.726   5.459 -0.2794 -0.6928 -0.5444
 2877SOL    HW211280   2.628   2.749   5.518  0.5795  1.0507 -0.1188
 2877SOL    HW311281   2.663   2.741   5.371 -0.7686 -0.8324 -0.3663
 2877SOL    MW411282   2.685   2.731   5.455  0.3924 -0.1244 -0.1266
 2878SOL     OW11283   1.954   4.506   1.727  0.0442  0.2636 -0.5911
 2878SOL    HW211284   1.890   4.549   1.671 -1.5051 -0.6623  0.4183
 2878SOL    HW311285   1.931   4.533   1.816 -0.2955 -1.7461 -0.0309
 2878SOL    MW411286   1.943   4.516   1.732  0.7058 -0.3040  0.6044
 2879SOL     OW11287   4.543   1.732   6.058 -0.3082 -0.2817 -0.2859
 2879SOL    HW211288   4.591   1.765   5.982  0.5355 -0.8387 -0.0072
 2879SOL    HW311289   4.516   1.811   6.105  0.0267  0.0426 -0.6323
 2879SOL    MW411290   4.546   1.747   6.054 -0.1844  0.0651 -0.7954
 2880SOL     OW11291   2.636   0.784   1.226  0.4106 -0.1448  0.6269
 2880SOL    HW211292   2.684   0.732   1.162 -2.2643 -1.4894 -0.4705
 2880SOL    HW311293   2.594   0.852   1.174 -0.1239  0.0348  1.2831
 2880SOL    MW411294   2.637   0.786   1.211 -0.0644  0.6419 -0.0601
 2881SOL     OW11295   0.137   2.111   4.774 -0.3188 -0.3006 -0.4941
 2881SOL    HW211296   0.048   2.082   4.753 -0.7777  1.9061 -1.9872
 2881SOL    HW311297   0.190   2.032   4.766 -2.3166 -2.1062  2.3035
 2881SOL    MW411298   0.132   2.097   4.770  0.2023 -0.1049  0.0091
 2882SOL     OW11299   3.511   3.345   4.588 -0.1355 -0.3739  0.4166
 2882SOL    HW211300   3.515   3.249   4.597 -2.0172 -0.4574  0.7038
 2882SOL    HW311301   3.521   3.377   4.677  0.1071 -0.3126  0.3683
 2882SOL    MW411302   3.513   3.336   4.601 -0.3836  0.1523 -0.4294
 2883SOL     OW11303   1.050   4.264   5.735 -0.1635 -0.2899 -0.3646
 2883SOL    HW211304   1.143   4.248   5.752 -0.2369 -0.9397 -0.5445
 2883SOL    HW311305   1.004   4.209   5.798 -0.4283 -1.1609 -1.2981
 2883SOL    MW411306   1.056   4.255   5.746  0.2742  0.0771 -0.1322
 2884SOL     OW11307   6.032   2.642   2.885 -0.5569  0.6094 -0.4214
 2884SOL    HW211308   5.958   2.640   2.945 -0.1858  0.9515  0.0586
 2884SOL    HW311309   6.028   2.558   2.838  1.1351 -1.3319  2.5536
 2884SOL    MW411310   6.022   2.631   2.887  0.2247 -0.0616 -0.3324
 2885SOL     OW11311   6.082   5.923   3.590 -0.1471 -0.6170 -0.6444
 2885SOL    HW211312   6.080   5.953   3.499 -1.0633 -0.4326 -0.5783
 2885SOL    HW311313   6.054   5.998   3.641  0.3837 -0.7157 -0.1986
 2885SOL    MW411314   6.078   5.937   3.585  0.6399  0.3989  0.4504
 2886SOL     OW11315   1.173   3.943   3.108 -0.2391 -0.4022  0.2320
 2886SOL    HW211316   1.083   3.967   3.087 -0.1993  0.9186  1.4277
 2886SOL    HW311317   1.165   3.863   3.160 -0.9214  0.9466  2.2944
 2886SOL    MW411318   1.160   3.935   3.112 -0.2104  0.2500 -0.4168
 2887SOL     OW11319   6.337   0.558   6.331  0.1711 -0.0720 -0.4761
 2887SOL    HW211320   6.251   0.537   6.294  1.0382 -2.6897 -1.2069
 2887SOL    HW311321   6.341   0.507   6.412  0.8798  0.3951 -0.2095
 2887SOL    MW411322   6.326   0.549   6.337  0.2244 -0.4791 -0.2917
 2888SOL     OW11323   2.553   4.816   5.747 -0.1051  0.1560  0.2254
 2888SOL    HW211324   2.494   4.745   5.771 -0.2294 -0.2496 -1.1999
 2888SOL    HW311325   2.640   4.779   5.758 -0.0788  0.6041  1.8666
 2888SOL    MW411326   2.556   4.802   5.752  0.0744  0.0442 -0.0705
 2889SOL     OW11327   2.723   1.885   0.911 -0.0894  0.0994 -0.2909
 2889SOL    HW211328   2.681   1.890   0.825  0.7152 -0.8697 -0.7534
 2889SOL    HW311329   2.795   1.948   0.905 -0.5677  0.6957  0.0073
 2889SOL    MW411330   2.727   1.894   0.899 -0.1633  0.0649 -0.2801
 2890SOL     OW11331   2.951   1.048   3.435 -0.0563  0.4707 -0.1100
 2890SOL    HW211332   2.891   1.123   3.441 -1.4845 -0.5471 -0.8861
 2890SOL    HW311333   2.907   0.979   3.486  1.0442  0.0378  0.2716
 2890SOL    MW411334   2.937   1.049   3.443 -0.2656  0.0091 -0.1423
 2891SOL     OW11335   1.161   6.426   1.215 -0.2695  0.7193 -0.2273
 2891SOL    HW211336   1.143   6.334   1.234  0.2886  0.1808 -2.0312
 2891SOL    HW311337   1.077   6.461   1.186 -0.2096  0.3810 -0.8458
 2891SOL    MW411338   1.148   6.419   1.214  0.2004  0.1673 -0.3939
 2892SOL     OW11339   0.345   4.229   1.524  0.5420 -0.1598  0.0598
 2892SOL    HW211340   0.355   4.276   1.441  0.0213 -0.4319 -0.1585
 2892SOL    HW311341   0.334   4.137   1.498 -2.0820  0.0399  0.2839
 2892SOL    MW411342   0.345   4.223   1.509 -0.0906  0.5213 -0.3546
 2893SOL     OW11343   2.610   1.379   2.899 -0.7981  0.0230  0.0861
 2893SOL    HW211344   2.605   1.319   2.973 -0.1411  0.1598  0.2457
 2893SOL    HW311345   2.519   1.393   2.873 -0.9700 -0.8922  0.1700
 2893SOL    MW411346   2.597   1.373   2.905 -0.2693  0.4744  0.0642
 2894SOL     OW11347   4.581   5.043   5.383 -0.2931  0.3088  0.0395
 2894SOL    HW211348   4.628   4.987   5.445 -0.9008  0.6041  0.7887
 2894SOL    HW311349   4.633   5.124   5.380  0.6340 -0.3106 -1.1149
 2894SOL    MW411350   4.594   5.047   5.391 -0.2631  0.1839 -0.6185
 2895SOL     OW11351   5.505   3.582   6.400 -0.3576 -0.2986  0.7281
 2895SOL    HW211352   5.425   3.530   6.387 -0.0862 -0.5362 -0.0567
 2895SOL    HW311353   5.550   3.578   6.315 -0.9574  2.3063  0.2020
 2895SOL    MW411354   5.500   3.574   6.387 -0.1770  0.7943  0.1517
 2896SOL     OW11355   1.990   3.907   4.549  1.2994 -0.3430 -0.2985
 2896SOL    HW211356   2.076   3.883   4.516  0.4082 -0.1917 -3.0116
 2896SOL    HW311357   1.936   3.829   4.534  0.2520  0.5934 -1.6993
 2896SOL    MW411358   1.994   3.894   4.543  0.0837 -0.2866 -0.4124
 2897SOL     OW11359   4.893   6.084   5.355 -0.4176 -0.2129  0.4520
 2897SOL    HW211360   4.971   6.090   5.299 -0.0888 -0.1524  0.9191
 2897SOL    HW311361   4.918   6.129   5.436 -1.6030  1.5807 -0.1289
 2897SOL    MW411362   4.907   6.091   5.358  0.3347  0.7172  0.0100
 2898SOL     OW11363   0.380   6.314   4.543 -0.1867 -0.3020 -0.7300
 2898SOL    HW211364   0.326   6.339   4.468  0.7027  1.0727 -0.9428
 2898SOL    HW311365   0.451   6.263   4.505  0.4638  0.7028 -0.8890
 2898SOL    MW411366   0.382   6.311   4.528 -0.0231 -0.5664  0.4454
 2899SOL     OW11367   5.376   4.591   4.836 -0.3572  0.0699  0.2799
 2899SOL    HW211368   5.364   4.641   4.755 -0.2012  0.4013  0.4580
 2899SOL    HW311369   5.434   4.646   4.889 -0.2503 -0.2660  0.5113
 2899SOL    MW411370   5.382   4.605   4.832 -0.3131 -0.2868 -0.2636
 2900SOL     OW11371   3.477   0.450   4.125  0.3975 -0.3588  0.0620
 2900SOL    HW211372   3.414   0.382   4.103 -0.8849  0.0938  2.1379
 2900SOL    HW311373   3.532   0.410   4.193  1.1769 -0.1026 -0.4027
 2900SOL    MW411374   3.476   0.436   4.131 -0.3992  0.0604  0.0839
 2901SOL     OW11375   0.281   5.884   4.564 -0.0697 -0.0631 -0.2173
 2901SOL    HW211376   0.255   5.830   4.490  1.5773 -0.5171 -0.5190
 2901SOL    HW311377   0.376   5.870   4.571  0.0033  0.9426  1.1937
 2901SOL    MW411378   0.290   5.875   4.555 -0.5691  0.2225  0.2878
 2902SOL     OW11379   3.880   6.376   2.791 -1.0152  0.3001 -0.0182
 2902SOL    HW211380   3.822   6.321   2.739 -3.1595  1.3760  1.0617
 2902SOL    HW311381   3.825   6.405   2.865  0.9254  1.3899  1.0828
 2902SOL    MW411382   3.865   6.373   2.794 -0.4658  0.2156  0.2555
 2903SOL     OW11383   3.917   5.722   4.658 -0.4829 -0.5429  0.2655
 2903SOL    HW211384   3.937   5.693   4.747  1.5727  1.9854  0.7560
 2903SOL    HW311385   3.969   5.802   4.646 -0.1131 -1.1404 -3.4766
 2903SOL    MW411386   3.927   5.729   4.668  0.1150 -0.2936  0.2075
 2904SOL     OW11387   2.069   3.189   1.545 -0.8427 -0.3932  0.0498
 2904SOL    HW211388   1.998   3.125   1.539 -0.9625 -0.1435 -1.5555
 2904SOL    HW311389   2.148   3.136   1.554 -1.1102 -0.7008  0.6690
 2904SOL    MW411390   2.070   3.174   1.546 -0.3555  0.2094  0.4908
 2905SOL     OW11391   2.954   0.775   2.583 -0.0599 -0.2690 -0.1039
 2905SOL    HW211392   2.987   0.853   2.537  1.9638 -0.2381  1.2969
 2905SOL    HW311393   2.929   0.715   2.512 -0.5416  1.1724 -1.2119
 2905SOL    MW411394   2.955   0.778   2.567  0.0019 -0.9095  0.0385
 2906SOL     OW11395   2.891   5.059   0.870  0.2835 -0.2384 -0.3903
 2906SOL    HW211396   2.922   5.003   0.941  0.6791  1.5007  0.8911
 2906SOL    HW311397   2.796   5.060   0.880  0.1787 -1.5003 -1.1003
 2906SOL    MW411398   2.882   5.052   0.881 -0.4545 -0.1194 -0.5317
 2907SOL     OW11399   5.107   1.743   0.848 -0.5035  0.0661  0.5803
 2907SOL    HW211400   5.199   1.769   0.843 -0.0117 -1.0941  2.4676
 2907SOL    HW311401   5.078   1.740   0.757  1.2552  0.6670 -0.0435
 2907SOL    MW411402   5.115   1.746   0.835  0.0955  1.0796 -0.6498
 2908SOL     OW11403   2.114   5.528   5.970 -0.2587 -0.3681 -0.7975
 2908SOL    HW211404   2.019   5.519   5.977 -0.3256  0.2988 -0.7934
 2908SOL    HW311405   2.133   5.610   6.015  0.2486 -0.1777 -1.3577
 2908SOL    MW411406   2.104   5.537   5.977 -0.0252  0.2717  0.2292
 2909SOL     OW11407   3.925   3.143   3.844 -0.2036  0.4533 -0.3104
 2909SOL    HW211408   3.993   3.097   3.793  2.5832  2.0648  1.6784
 2909SOL    HW311409   3.967   3.225   3.871 -3.0755  1.6330  0.9087
 2909SOL    MW411410   3.940   3.148   3.841 -0.0421 -0.1486  0.6579
 2910SOL     OW11411   5.292   4.849   5.356  0.2262 -0.3259  0.3243
 2910SOL    HW211412   5.345   4.928   5.367 -1.7830  0.8294  2.7632
 2910SOL    HW311413   5.310   4.796   5.434  0.1476 -1.4085 -0.3675
 2910SOL    MW411414   5.301   4.852   5.368  0.4458  0.5170 -0.3029
 2911SOL     OW11415   4.090   1.166   0.765  0.2257 -0.7904 -0.5365
 2911SOL    HW211416   4.162   1.152   0.826  0.0835 -1.1065 -0.4367
 2911SOL    HW311417   4.052   1.250   0.791  0.7591 -0.4669 -0.7960
 2911SOL    MW411418   4.094   1.175   0.777  0.3178  0.0816  0.2730
 2912SOL     OW11419   4.224   3.463   4.044 -0.2337  0.3746 -0.2417
 2912SOL    HW211420   4.227   3.438   4.136 -0.5120 -0.9585 -0.5811
 2912SOL    HW311421   4.258   3.553   4.043  1.8489 -0.3267  0.9054
 2912SOL    MW411422   4.229   3.472   4.056  0.6151 -1.0375  0.1332
 2913SOL     OW11423   2.727   3.679   3.342 -0.1166 -0.8676 -0.1757
 2913SOL    HW211424   2.808   3.634   3.318  0.3390 -1.0514  1.5384
 2913SOL    HW311425   2.719   3.665   3.436  0.2839  2.9618  0.6000
 2913SOL    MW411426   2.737   3.671   3.351 -0.1898  0.7302  0.2517
 2914SOL     OW11427   5.318   3.361   4.635  0.1832  0.4768  0.4732
 2914SOL    HW211428   5.379   3.377   4.563  0.3219  0.1912  0.5240
 2914SOL    HW311429   5.373   3.325   4.705 -0.3834 -1.9916 -0.2684
 2914SOL    MW411430   5.334   3.359   4.635 -0.2833 -0.4505  0.0126
 2915SOL     OW11431   6.248   4.671   4.496 -0.1291 -0.1087  0.0154
 2915SOL    HW211432   6.215   4.622   4.571  0.5386 -0.3581  0.1521
 2915SOL    HW311433   6.252   4.761   4.527  1.2425 -0.3757  0.6774
 2915SOL    MW411434   6.244   4.676   4.510  0.3085 -0.2618  0.4123
 2916SOL     OW11435   4.718   4.324   3.067 -0.0897 -0.0013  0.2158
 2916SOL    HW211436   4.773   4.368   3.132  0.7645 -0.8471  0.0915
 2916SOL    HW311437   4.668   4.261   3.118  0.0407 -0.1538  0.1569
 2916SOL    MW411438   4.719   4.321   3.082  0.6259 -0.1025 -0.4950
 2917SOL     OW11439   0.807   2.461   0.113  0.8070  0.0261 -0.5087
 2917SOL    HW211440   0.858   2.534   0.148 -0.5677  0.1739  1.3594
 2917SOL    HW311441   0.835   2.453   0.022  2.1845  1.8027 -0.2958
 2917SOL    MW411442   0.818   2.470   0.106  0.8141 -0.0407 -0.6130
 2918SOL     OW11443   3.554   2.062   6.265  0.3100  0.8555  0.0013
 2918SOL    HW211444   3.511   2.142   6.294  1.0155  1.9360 -1.7589
 2918SOL    HW311445   3.627   2.050   6.326  0.4182  1.7786  0.0671
 2918SOL    MW411446   3.558   2.071   6.277 -0.5582 -0.5921  0.7626
 2919SOL     OW11447   1.800   1.196   4.661 -0.3949 -1.0258 -0.3955
 2919SOL    HW211448   1.726   1.226   4.609  0.2159 -0.0664 -0.7362
 2919SOL    HW311449   1.763   1.130   4.719 -1.0316 -2.3580 -2.2425
 2919SOL    MW411450   1.785   1.192   4.662  0.0204 -0.2643 -0.6426
 2920SOL     OW11451   4.432   4.987   0.974  0.0897 -0.0286 -0.7318
 2920SOL    HW211452   4.449   4.908   1.026 -2.0485 -0.2355 -0.2626
 2920SOL    HW311453   4.519   5.022   0.955  1.0339 -0.0238  2.8612
 2920SOL    MW411454   4.446   4.981   0.978  0.0951  0.1028 -0.4821
 2921SOL     OW11455   2.145   5.325   4.421  0.0097 -0.7210 -0.3069
 2921SOL    HW211456   2.214   5.392   4.420  0.5485 -1.2683 -0.2838
 2921SOL    HW311457   2.191   5.242   4.410 -0.5691 -1.1638  0.4979
 2921SOL    MW411458   2.160   5.323   4.419  0.4419 -0.7087 -0.4696
 2922SOL     OW11459   5.837   5.836   4.616  0.2826  0.5140  0.0399
 2922SOL    HW211460   5.899   5.864   4.549 -1.1200 -0.3115 -1.7161
 2922SOL    HW311461   5.752   5.839   4.572 -0.7840  0.4291  1.9764
 2922SOL    MW411462   5.834   5.840   4.601 -0.0057 -0.3049  0.0583
 2923SOL     OW11463   4.934   2.666   3.715  0.1978 -0.0190 -0.1486
 2923SOL    HW211464   4.845   2.692   3.690  0.2407  0.8356  0.5579
 2923SOL    HW311465   4.984   2.668   3.634 -0.2618  0.1804 -0.4289
 2923SOL    MW411466   4.928   2.670   3.701 -0.4168  0.3683  0.1926
 2924SOL     OW11467   6.094   4.883   2.047  0.2755  0.7285  0.3181
 2924SOL    HW211468   6.066   4.794   2.026 -0.1480  0.9479 -0.0553
 2924SOL    HW311469   6.032   4.913   2.113  0.1863  0.8830  0.1651
 2924SOL    MW411470   6.082   4.875   2.053 -0.1529 -0.0743  0.0473
 2925SOL     OW11471   0.260   3.042   0.536  0.2143  0.0208  0.0472
 2925SOL    HW211472   0.327   3.036   0.469 -0.2929 -0.1041 -0.4587
 2925SOL    HW311473   0.213   2.959   0.531 -0.9233  0.6775 -0.6404
 2925SOL    MW411474   0.262   3.030   0.527 -0.2219  0.1577  0.6958
 2926SOL     OW11475   1.058   2.698   5.121  0.2877  0.4420 -0.3072
 2926SOL    HW211476   0.968   2.688   5.152  0.7824 -0.1128  0.9987
 2926SOL    HW311477   1.108   2.726   5.198  1.2168  0.8468 -1.0353
 2926SOL    MW411478   1.053   2.700   5.135  0.1816 -0.2299  0.7666
 2927SOL     OW11479   0.199   3.671   1.860  0.2137 -0.3562  0.1901
 2927SOL    HW211480   0.178   3.693   1.769  1.8414  1.4593  0.1933
 2927SOL    HW311481   0.121   3.698   1.909  0.2332  0.8634 -0.4132
 2927SOL    MW411482   0.186   3.677   1.855  0.3032  0.1797 -0.2567
 2928SOL     OW11483   0.238   2.182   1.088 -0.0758 -0.3078  0.3166
 2928SOL    HW211484   0.210   2.149   1.174 -2.7468  1.1444  0.1140
 2928SOL    HW311485   0.265   2.272   1.104 -1.2570  0.2020 -0.4177
 2928SOL    MW411486   0.238   2.189   1.102 -0.2898 -0.3106  0.1464
 2929SOL     OW11487   1.475   2.290   0.900 -0.2395 -0.7956  0.7713
 2929SOL    HW211488   1.397   2.298   0.845  0.1939 -3.4952 -0.3905
 2929SOL    HW311489   1.548   2.302   0.839  0.2598 -0.9371  1.3337
 2929SOL    MW411490   1.474   2.293   0.885  0.1220  0.1111 -0.5924
 2930SOL     OW11491   0.520   4.323   5.052 -0.4447  0.6828  0.0320
 2930SOL    HW211492   0.569   4.274   5.118 -1.8431 -0.1610  0.4890
 2930SOL    HW311493   0.443   4.355   5.098 -0.7726  1.2230 -0.8686
 2930SOL    MW411494   0.516   4.321   5.067  0.1873 -0.3003 -0.1952
 2931SOL     OW11495   4.112   4.275   4.315 -0.4492  0.0540 -0.1322
 2931SOL    HW211496   4.102   4.367   4.292 -1.5673 -0.0782 -0.2420
 2931SOL    HW311497   4.079   4.269   4.405 -0.6654 -0.2938 -0.2320
 2931SOL    MW411498   4.107   4.286   4.324 -0.0793  0.4260 -0.9694
 2932SOL     OW11499   0.390   6.099   6.268  0.5269  0.3120 -0.1873
 2932SOL    HW211500   0.341   6.174   6.302 -0.2235 -0.2236 -0.0381
 2932SOL    HW311501   0.375   6.102   6.173  0.0007  0.0150 -0.1161
 2932SOL    MW411502   0.381   6.109   6.260  0.1859  0.4886 -0.0716
 2933SOL     OW11503   0.147   5.515   6.050 -0.9708  0.4913 -0.3171
 2933SOL    HW211504   0.139   5.424   6.021  0.3887  0.0713  0.5733
 2933SOL    HW311505   0.232   5.519   6.094 -1.0025  2.2026 -0.3664
 2933SOL    MW411506   0.157   5.503   6.052 -0.1006  0.3833 -0.1997
 2934SOL     OW11507   6.309   6.447   6.031  0.1570  0.4080 -0.2568
 2934SOL    HW211508   6.331   6.538   6.012 -0.1518  1.2641  3.0209
 2934SOL    HW311509   6.229   6.452   6.083  0.2752 -1.7374  0.2103
 2934SOL    MW411510   6.302   6.460   6.035  0.2645 -0.7618  0.1064
 2935SOL     OW11511   0.529   4.694   2.387  0.1680  0.1978 -0.4003
 2935SOL    HW211512   0.558   4.608   2.357 -1.9936 -0.4825 -0.6971
 2935SOL    HW311513   0.593   4.719   2.454  3.1658  0.2198 -3.0095
 2935SOL    MW411514   0.541   4.686   2.392 -0.6896  0.0730 -0.6476
 2936SOL     OW11515   4.291   2.755   3.375  0.0718 -0.6445  0.1780
 2936SOL    HW211516   4.252   2.681   3.422 -1.4812  0.2493  0.3553
 2936SOL    HW311517   4.219   2.790   3.322  0.7926  0.7302  0.0727
 2936SOL    MW411518   4.276   2.750   3.374 -0.3006  0.2547 -0.7350
 2937SOL     OW11519   4.825   2.500   2.049  0.8121 -0.2160 -0.5915
 2937SOL    HW211520   4.771   2.469   1.977 -1.5968  0.7056  0.7177
 2937SOL    HW311521   4.859   2.421   2.090 -1.3117 -0.9875 -0.1938
 2937SOL    MW411522   4.823   2.486   2.045 -0.2041 -0.7965 -0.0730
 2938SOL     OW11523   5.553   5.484   3.036  0.1439 -0.9010  0.4434
 2938SOL    HW211524   5.463   5.461   3.058 -0.0866  0.7356  1.4656
 2938SOL    HW311525   5.605   5.452   3.110  0.3758 -1.6592 -0.0447
 2938SOL    MW411526   5.548   5.477   3.049  0.2223  0.4222 -0.4269
 2939SOL     OW11527   2.294   1.521   1.947  0.0728 -0.1129  0.5884
 2939SOL    HW211528   2.271   1.605   1.987 -1.2610 -1.6701  3.3819
 2939SOL    HW311529   2.381   1.501   1.981 -0.5781 -0.8978  1.8482
 2939SOL    MW411530   2.302   1.530   1.957 -0.5360  0.2332 -0.3513
 2940SOL     OW11531   2.370   0.166   2.798 -0.6722  0.0544  0.2182
 2940SOL    HW211532   2.370   0.131   2.709 -0.2068 -1.0339  0.6244
 2940SOL    HW311533   2.365   0.088   2.854 -0.7587  0.7117  1.1428
 2940SOL    MW411534   2.370   0.151   2.794 -0.4367 -0.3467 -0.4745
 2941SOL     OW11535   3.902   0.620   2.840 -0.1490  0.3679  0.5597
 2941SOL    HW211536   3.859   0.651   2.760  1.4225 -1.6821 -1.2118
 2941SOL    HW311537   3.972   0.683   2.855 -0.2985  0.6388  0.1417
 2941SOL    MW411538   3.905   0.632   2.831 -0.0010 -0.2646  0.5428
 2942SOL     OW11539   6.248   2.541   3.058  0.1623  0.3332  0.0967
 2942SOL    HW211540   6.327   2.571   3.012 -0.8594  2.2445 -0.5576
 2942SOL    HW311541   6.176   2.585   3.011 -1.2379 -0.8588  1.0602
 2942SOL    MW411542   6.249   2.551   3.046 -0.0451  0.2628 -0.3794
 2943SOL     OW11543   5.020   4.825   5.323  0.3637  0.2821 -0.5216
 2943SOL    HW211544   5.110   4.839   5.353  0.7034 -1.3412 -0.6777
 2943SOL    HW311545   4.983   4.766   5.389 -1.2774  2.4966  0.6598
 2943SOL    MW411546   5.027   4.819   5.336 -0.5976 -0.2842  0.3090
 2944SOL     OW11547   5.527   4.770   2.600 -0.2163  0.2315  0.5620
 2944SOL    HW211548   5.607   4.820   2.616  0.2530 -0.0395 -0.7552
 2944SOL    HW311549   5.486   4.762   2.686  1.6501 -0.4376  1.4566
 2944SOL    MW411550   5.532   4.775   2.613  1.2619 -0.2060  0.3737
 2945SOL     OW11551   2.173   4.906   1.232  1.0397 -0.1738 -0.5432
 2945SOL    HW211552   2.221   4.871   1.156  1.8163  0.7023 -0.4778
 2945SOL    HW311553   2.188   5.001   1.228  1.2337 -0.1276  0.7982
 2945SOL    MW411554   2.181   4.914   1.221 -0.0885  0.2270 -0.5263
 2946SOL     OW11555   0.218   1.622   4.901 -0.3496 -0.4877 -0.4433
 2946SOL    HW211556   0.180   1.538   4.875  1.5710 -0.9546 -1.9887
 2946SOL    HW311557   0.284   1.598   4.966 -1.6377  0.1662  1.1732
 2946SOL    MW411558   0.222   1.608   4.906  0.0961  0.3081  0.0827
 2947SOL     OW11559   3.448   2.312   1.826 -0.2385 -0.1655  0.4630
 2947SOL    HW211560   3.462   2.402   1.797  0.4312  0.1423  1.6622
 2947SOL    HW311561   3.385   2.320   1.898 -2.4964 -0.9881 -1.3086
 2947SOL    MW411562   3.441   2.325   1.832 -0.2605 -0.2377  0.7433
 2948SOL     OW11563   0.362   4.669   4.971 -0.4568 -0.2683  0.3031
 2948SOL    HW211564   0.345   4.609   4.898  0.1379 -0.0771 -0.0014
 2948SOL    HW311565   0.457   4.668   4.980 -0.4914  0.1175  0.7337
 2948SOL    MW411566   0.372   4.661   4.963  0.2943 -0.1192  0.7993
 2949SOL     OW11567   1.959   4.511   5.466  0.0833 -0.7439 -0.6732
 2949SOL    HW211568   1.984   4.418   5.469 -1.8414 -1.3161 -1.0480
 2949SOL    HW311569   1.879   4.516   5.518  0.0574  0.6769 -0.8136
 2949SOL    MW411570   1.952   4.499   5.473  0.4321 -0.3606 -0.0107
 2950SOL     OW11571   0.202   5.344   2.120  0.2745  0.1538 -0.1181
 2950SOL    HW211572   0.234   5.393   2.196  0.8123 -1.3027  0.6351
 2950SOL    HW311573   0.144   5.405   2.074 -0.8043  0.7966  1.9646
 2950SOL    MW411574   0.198   5.358   2.124  0.4779  0.0067 -0.1932
 2951SOL     OW11575   4.809   3.956   6.316 -0.5220 -0.2218  0.1658
 2951SOL    HW211576   4.714   3.955   6.313 -0.5056 -0.4409 -0.3779
 2951SOL    HW311577   4.836   3.878   6.268 -0.0172  1.4497 -2.4982
 2951SOL    MW411578   4.800   3.946   6.310  0.0894 -0.5423 -0.0618
 2952SOL     OW11579   2.392   0.929   0.556 -0.8475 -0.0378 -0.0046
 2952SOL    HW211580   2.446   0.994   0.510 -1.4188  0.6531  0.2695
 2952SOL    HW311581   2.378   0.968   0.643 -2.0455 -0.0493 -0.1839
 2952SOL    MW411582   2.397   0.943   0.562 -0.2608  0.3244  0.4767
 2953SOL     OW11583   1.540   6.141   0.546  0.3570  0.0966  0.0984
 2953SOL    HW211584   1.509   6.061   0.589 -0.2284  0.4060  0.2666
 2953SOL    HW311585   1.599   6.110   0.477  0.6039 -0.4485  0.5487
 2953SOL    MW411586   1.544   6.127   0.542 -0.1378  0.0183  0.8545
 2954SOL     OW11587   6.060   1.532   4.463 -0.5746 -0.3979 -0.3641
 2954SOL    HW211588   6.051   1.617   4.420 -1.1079 -0.4586 -0.3810
 2954SOL    HW311589   5.970   1.506   4.483 -0.3601 -0.5855  0.3757
 2954SOL    MW411590   6.047   1.540   4.460  0.2639 -0.0165 -0.7536
 2955SOL     OW11591   1.480   2.158   2.596 -0.0642 -0.1112 -0.8303
 2955SOL    HW211592   1.505   2.204   2.516  0.3575  1.8353  0.3631
 2955SOL    HW311593   1.488   2.223   2.665 -2.9598 -0.9452  0.4720
 2955SOL    MW411594   1.484   2.173   2.594  0.1935 -0.8370  0.3058
 2956SOL     OW11595   3.633   0.175   5.252 -0.1746  0.3116 -0.3385
 2956SOL    HW211596   3.688   0.143   5.323 -0.1548  0.2839 -0.3665
 2956SOL    HW311597   3.629   0.270   5.266 -1.6082  0.1276  0.7431
 2956SOL    MW411598   3.640   0.183   5.264 -0.5536  0.0286 -0.3609
 2957SOL     OW11599   0.893   6.431   0.479  0.3221  0.0530  0.1334
 2957SOL    HW211600   0.891   6.351   0.530  1.6788 -0.3294 -0.3629
 2957SOL    HW311601   0.802   6.457   0.471 -0.1509 -1.4812  0.2379
 2957SOL    MW411602   0.881   6.424   0.485  0.0115  0.1643  0.2269
 2958SOL     OW11603   0.855   4.641   2.209 -0.1787 -0.7131 -0.1898
 2958SOL    HW211604   0.949   4.637   2.224 -0.1144 -0.2607 -0.4527
 2958SOL    HW311605   0.846   4.641   2.113 -0.3925  0.3088 -0.1774
 2958SOL    MW411606   0.866   4.641   2.198  0.2120 -0.1729  0.5709
 2959SOL     OW11607   5.016   4.263   4.387  0.0552  0.2180 -0.2995
 2959SOL    HW211608   5.027   4.345   4.338 -1.4281  0.3952 -0.3679
 2959SOL    HW311609   4.982   4.201   4.322 -0.5559  0.0573  0.1704
 2959SOL    MW411610   5.013   4.266   4.372  0.3376 -0.2911 -0.3420
 2960SOL     OW11611   5.600   5.491   5.728 -0.6229  0.7843  0.0031
 2960SOL    HW211612   5.675   5.543   5.757  2.2367 -0.2072 -4.5024
 2960SOL    HW311613   5.626   5.400   5.743 -1.1946  0.4344 -0.9863
 2960SOL    MW411614   5.613   5.486   5.733  0.2448  0.7985 -0.5090
 2961SOL     OW11615   3.957   5.797   3.416  0.4194 -0.1278  0.2476
 2961SOL    HW211616   3.911   5.787   3.333  1.4256 -0.1382 -0.3148
 2961SOL    HW311617   3.927   5.723   3.469  0.6369 -0.7611 -0.5100
 2961SOL    MW411618   3.947   5.786   3.412  0.4293 -0.1618  0.0641
 2962SOL     OW11619   4.997   0.558   1.577 -0.3437  0.2496 -0.1284
 2962SOL    HW211620   4.996   0.497   1.502 -1.1002  0.6370 -0.4464
 2962SOL    HW311621   4.976   0.643   1.538  0.7289  0.7329  0.3123
 2962SOL    MW411622   4.994   0.561   1.562 -0.5514 -0.6895 -0.3761
 2963SOL     OW11623   4.714   5.064   0.946 -0.9071 -0.0557  0.2823
 2963SOL    HW211624   4.737   5.042   1.037  0.8000  1.0524  0.1648
 2963SOL    HW311625   4.733   5.157   0.939 -2.7955  0.3018 -0.7349
 2963SOL    MW411626   4.720   5.073   0.957  0.1000 -0.1866 -0.1573
 2964SOL     OW11627   2.968   3.136   2.743  0.0627 -0.3144  0.2287
 2964SOL    HW211628   2.958   3.142   2.648 -0.1517 -1.4936  0.1621
 2964SOL    HW311629   3.024   3.211   2.766 -0.5492  0.4475 -0.7065
 2964SOL    MW411630   2.974   3.147   2.733 -0.1724  0.2713 -0.0244
 2965SOL     OW11631   6.238   1.289   0.718 -0.1699 -0.0337 -0.1473
 2965SOL    HW211632   6.311   1.237   0.684  0.2014 -0.4523  1.2218
 2965SOL    HW311633   6.177   1.224   0.753 -0.5825  0.3687 -0.1181
 2965SOL    MW411634   6.240   1.274   0.718  0.2005 -0.2770 -0.0976
 2966SOL     OW11635   1.373   6.364   4.761 -0.3115 -0.0902  0.5380
 2966SOL    HW211636   1.456   6.396   4.726  0.4332 -0.4930  1.8603
 2966SOL    HW311637   1.375   6.388   4.854 -0.7947 -1.8098  1.0322
 2966SOL    MW411638   1.384   6.371   4.768  0.1846  0.1977 -0.0941
 2967SOL     OW11639   3.784   5.366   4.056 -0.4358 -0.4528  0.0000
 2967SOL    HW211640   3.807   5.421   4.130 -1.5113 -0.9587  0.7421
 2967SOL    HW311641   3.757   5.427   3.987 -1.8023 -0.0299  0.8731
 2967SOL    MW411642   3.783   5.381   4.057  0.0490  0.1697 -0.1717
 2968SOL     OW11643   2.070   4.232   3.325 -0.4093  0.1447 -0.7886
 2968SOL    HW211644   2.045   4.142   3.349  1.0702 -0.6245 -1.9700
 2968SOL    HW311645   2.165   4.234   3.336 -0.1963  0.9949 -2.4543
 2968SOL    MW411646   2.079   4.220   3.330 -0.1484  0.1681  0.2876
 2969SOL     OW11647   6.290   0.149   3.612  0.4631  0.7759 -0.0438
 2969SOL    HW211648   6.365   0.143   3.672  0.2950 -0.2895  0.0742
 2969SOL    HW311649   6.239   0.223   3.645  0.0866 -0.1219  1.4703
 2969SOL    MW411650   6.293   0.158   3.624 -0.8733  0.0993  0.0778
 2970SOL     OW11651   0.891   6.451   4.940 -0.0968 -0.4726  0.3774
 2970SOL    HW211652   0.806   6.409   4.947  0.8681 -2.2114  3.8970
 2970SOL    HW311653   0.906   6.491   5.026  2.5766 -0.1314 -0.1540
 2970SOL    MW411654   0.882   6.451   4.952  0.7782  0.6493  0.6337
 2971SOL     OW11655   4.713   5.612   3.734  0.5827 -0.2613 -0.4192
 2971SOL    HW211656   4.756   5.549   3.792 -2.7871 -1.2227  1.3119
 2971SOL    HW311657   4.757   5.600   3.649  2.8471 -1.8917  0.8727
 2971SOL    MW411658   4.725   5.602   3.730 -0.3375  0.9557  0.4465
 2972SOL     OW11659   1.718   5.770   5.347 -0.1739 -0.1872  0.4219
 2972SOL    HW211660   1.623   5.756   5.347  0.0342 -1.7363  0.0070
 2972SOL    HW311661   1.729   5.857   5.308 -1.2745 -1.5290 -3.3113
 2972SOL    MW411662   1.707   5.780   5.342  0.2015  0.4202  0.3667
 2973SOL     OW11663   6.272   2.250   0.552 -0.3056 -0.6499 -0.4293
 2973SOL    HW211664   6.261   2.200   0.471 -0.9891 -0.5533 -0.4028
 2973SOL    HW311665   6.228   2.334   0.534 -0.4555 -0.6263  0.0359
 2973SOL    MW411666   6.265   2.255   0.539 -0.4571 -0.3590  0.2483
 2974SOL     OW11667   5.585   3.561   2.551  0.4884 -0.1848  0.1024
 2974SOL    HW211668   5.526   3.622   2.507 -0.3206 -0.0009  1.4008
 2974SOL    HW311669   5.603   3.494   2.485 -0.3601  0.3015 -0.6423
 2974SOL    MW411670   5.579   3.560   2.536  0.3086 -0.6136 -0.5485
 2975SOL     OW11671   2.501   2.751   1.667 -0.4866 -0.5298 -0.5567
 2975SOL    HW211672   2.568   2.787   1.607 -0.1607  0.1684  0.2089
 2975SOL    HW311673   2.440   2.706   1.609 -1.0224  1.4179 -1.6256
 2975SOL    MW411674   2.502   2.750   1.651  0.6609 -0.0933 -0.4012
 2976SOL     OW11675   4.935   2.823   0.167  0.3263 -0.3480  0.0318
 2976SOL    HW211676   4.890   2.896   0.208  2.1609  0.9319 -0.1272
 2976SOL    HW311677   4.972   2.773   0.239  3.1353  1.6303  0.1281
 2976SOL    MW411678   4.934   2.826   0.182 -0.2387 -0.4596 -0.5765
 2977SOL     OW11679   2.519   1.208   6.124 -0.8385 -0.4899  0.1168
 2977SOL    HW211680   2.563   1.293   6.127 -0.6145 -0.6415  2.2568
 2977SOL    HW311681   2.439   1.220   6.176 -3.0226 -0.4811 -2.9521
 2977SOL    MW411682   2.514   1.221   6.131 -0.3629  1.4231 -0.3942
 2978SOL     OW11683   3.548   2.348   2.587  0.3204  0.9175 -0.6315
 2978SOL    HW211684   3.589   2.310   2.510  0.0226  0.2116 -0.4569
 2978SOL    HW311685   3.615   2.343   2.655  0.2505  0.5826 -0.5812
 2978SOL    MW411686   3.562   2.342   2.586 -0.3807  0.4658 -0.1732
 2979SOL     OW11687   5.953   1.871   4.671 -0.2063  0.6487  0.4147
 2979SOL    HW211688   5.956   1.937   4.741  1.3815 -1.1658  2.1610
 2979SOL    HW311689   5.982   1.790   4.712 -1.8718 -1.1550 -1.7150
 2979SOL    MW411690   5.957   1.869   4.685  0.5773 -0.5837 -0.5778
 2980SOL     OW11691   0.643   2.766   6.066 -0.2561 -0.2698 -0.3434
 2980SOL    HW211692   0.730   2.738   6.040  0.8571  1.2630  1.4253
 2980SOL    HW311693   0.618   2.706   6.137  0.8805  1.2777  1.4566
 2980SOL    MW411694   0.651   2.755   6.072 -0.7402  0.2351 -0.1405
 2981SOL     OW11695   2.808   5.559   3.253 -0.0667 -0.7863  0.1433
 2981SOL    HW211696   2.834   5.591   3.339 -2.0446 -1.2963  0.9780
 2981SOL    HW311697   2.839   5.627   3.192  1.8604 -0.6981  1.1461
 2981SOL    MW411698   2.816   5.572   3.256  0.2838 -0.3193  0.3650
 2982SOL     OW11699   0.006   1.823   4.461  0.3306 -0.1929 -0.3609
 2982SOL    HW211700   0.046   1.909   4.448  1.2214 -0.4095  0.7044
 2982SOL    HW311701  -0.037   1.803   4.378 -0.1671  1.4072 -0.5233
 2982SOL    MW411702   0.006   1.832   4.448 -0.7014  0.4809 -0.2825
 2983SOL     OW11703   6.022   1.047   0.549 -0.3245  0.0267 -0.1608
 2983SOL    HW211704   6.097   0.988   0.537 -1.3384 -1.6734  1.2906
 2983SOL    HW311705   5.947   0.989   0.554 -1.6803  1.6499 -0.8427
 2983SOL    MW411706   6.022   1.032   0.548 -0.4200  0.1394  0.1805
 2984SOL     OW11707   2.071   2.486   6.272 -0.1150 -0.3082  0.3705
 2984SOL    HW211708   2.122   2.405   6.269 -0.3434 -0.4518  0.3767
 2984SOL    HW311709   2.113   2.538   6.341  1.0734  0.2838 -0.7494
 2984SOL    MW411710   2.083   2.482   6.281 -0.0646 -0.0556  0.0685
 2985SOL     OW11711   4.631   6.226   5.638  0.4743 -0.2810  0.3943
 2985SOL    HW211712   4.537   6.208   5.631  0.4965 -0.1472 -0.4092
 2985SOL    HW311713   4.639   6.317   5.607  1.0564 -0.8367 -1.1975
 2985SOL    MW411714   4.619   6.236   5.633 -0.5329 -0.5450  0.6102
 2986SOL     OW11715   2.691   2.821   4.398 -1.0267  0.3304  0.1192
 2986SOL    HW211716   2.656   2.826   4.488 -2.2593  1.8266 -0.3908
 2986SOL    HW311717   2.725   2.909   4.381 -0.3753 -0.0749 -0.7298
 2986SOL    MW411718   2.691   2.833   4.408  0.2550 -0.0518 -0.3123
 2987SOL     OW11719   1.428   1.504   4.044 -0.0509 -0.0285 -0.3432
 2987SOL    HW211720   1.354   1.448   4.068  0.0051  0.0947  0.1149
 2987SOL    HW311721   1.400   1.592   4.069 -0.0541  0.1267 -0.8714
 2987SOL    MW411722   1.414   1.508   4.050 -0.5629 -0.1315  0.2922
 2988SOL     OW11723   4.985   5.642   1.041  0.2768 -0.1872 -0.1686
 2988SOL    HW211724   4.910   5.613   1.093  0.1989 -1.1786 -0.8121
 2988SOL    HW311725   5.023   5.561   1.007  1.1398  0.3634 -0.5429
 2988SOL    MW411726   4.980   5.627   1.044 -0.7542  0.3313 -0.1276
 2989SOL     OW11727   6.178   5.746   1.538  0.1894 -0.3720  0.1483
 2989SOL    HW211728   6.227   5.684   1.591 -1.9489 -2.4738 -0.1670
 2989SOL    HW311729   6.086   5.726   1.556 -0.6990 -0.9222 -3.9112
 2989SOL    MW411730   6.172   5.735   1.547  0.2994  0.1475 -0.5022
 2990SOL     OW11731   5.195   3.426   2.679 -0.1500 -0.1081 -0.1490
 2990SOL    HW211732   5.153   3.492   2.734 -0.0556 -1.3016  1.4240
 2990SOL    HW311733   5.267   3.391   2.733  1.4927  0.3339 -1.9474
 2990SOL    MW411734   5.199   3.430   2.694 -0.0994  0.2829 -0.0553
 2991SOL     OW11735   5.990   2.724   0.103 -0.1462 -0.4521  0.1897
 2991SOL    HW211736   5.897   2.707   0.115  0.3540 -2.5450  1.6834
 2991SOL    HW311737   6.010   2.688   0.016 -0.8375  0.6676 -0.4525
 2991SOL    MW411738   5.980   2.717   0.093 -0.2064 -0.1126  0.4772
 2992SOL     OW11739   4.967   6.188   4.844 -0.1525 -0.1784  0.4919
 2992SOL    HW211740   4.898   6.161   4.783 -0.8379  1.1977  0.6203
 2992SOL    HW311741   4.926   6.256   4.898  1.0347  0.0115  1.1894
 2992SOL    MW411742   4.952   6.193   4.843  0.4734  0.3707  0.0679
 2993SOL     OW11743   3.877   0.578   6.414 -0.0886  0.1384  0.5998
 2993SOL    HW211744   3.906   0.640   6.481  0.3097  1.3335 -0.6371
 2993SOL    HW311745   3.815   0.627   6.361 -0.3857 -0.7893  0.0660
 2993SOL    MW411746   3.872   0.592   6.416 -0.1623 -0.5170  0.3776
 2994SOL     OW11747   2.469   3.917   5.050  0.2526 -0.4036  0.3059
 2994SOL    HW211748   2.386   3.879   5.021 -0.0724 -0.7679  1.6130
 2994SOL    HW311749   2.514   3.942   4.970  0.5051 -3.5568 -0.6815
 2994SOL    MW411750   2.464   3.915   5.036  0.2205 -0.0750 -0.0658
 2995SOL     OW11751   4.034   4.199   0.736 -0.5746  0.1580  0.1268
 2995SOL    HW211752   4.103   4.218   0.800  0.1947 -0.6776 -0.4207
 2995SOL    HW311753   3.960   4.254   0.763  0.0290  0.4762  1.2031
 2995SOL    MW411754   4.033   4.209   0.748 -0.3799  0.4123 -0.6865
 2996SOL     OW11755   5.385   2.235   2.570  0.3188 -0.0924 -0.0435
 2996SOL    HW211756   5.470   2.276   2.584  0.2221  0.4174 -0.8892
 2996SOL    HW311757   5.388   2.155   2.622  1.0612  0.2475  0.4634
 2996SOL    MW411758   5.396   2.230   2.579  0.0897  0.0026 -0.1360
 2997SOL     OW11759   4.288   2.983   1.772 -0.6313 -0.2342 -0.4614
 2997SOL    HW211760   4.357   2.996   1.837  0.0817 -0.0895 -1.2318
 2997SOL    HW311761   4.214   2.951   1.823 -0.3358  0.5909  0.5391
 2997SOL    MW411762   4.287   2.981   1.787  0.0530  0.0581  0.1617
 2998SOL     OW11763   2.058   5.134   3.748  0.0593 -0.2863  0.2150
 2998SOL    HW211764   2.115   5.067   3.709  0.4348  0.6656 -0.9437
 2998SOL    HW311765   2.082   5.136   3.840 -0.8302 -2.6067  0.5665
 2998SOL    MW411766   2.068   5.125   3.755 -0.2140 -0.6317 -0.5081
 2999SOL     OW11767   3.016   4.661   4.468  0.3561 -0.3441  0.2003
 2999SOL    HW211768   3.098   4.614   4.484  1.0572  0.8550  0.2648
 2999SOL    HW311769   3.043   4.750   4.446 -0.9140 -0.0724 -0.3791
 2999SOL    MW411770   3.030   4.667   4.467 -0.0184  0.0467 -0.6865
 3000SOL     OW11771   3.597   0.666   3.739 -0.0696 -0.8634 -0.0335
 3000SOL    HW211772   3.536   0.673   3.812 -0.1710 -2.2341  0.0391
 3000SOL    HW311773   3.542   0.649   3.663  0.0260  0.6884 -0.4719
 3000SOL    MW411774   3.582   0.665   3.739  0.4527 -0.5666 -0.1346
 3001SOL     OW11775   1.757   3.236   1.672 -0.0898 -0.4581 -0.6419
 3001SOL    HW211776   1.785   3.325   1.654 -0.1403 -0.8412 -2.9373
 3001SOL    HW311777   1.677   3.246   1.724 -0.9094  0.9061 -2.0740
 3001SOL    MW411778   1.750   3.249   1.677  0.0941  0.1098  0.2917
 3002SOL     OW11779   2.014   6.095   0.746  0.3905  0.5327 -0.3007
 3002SOL    HW211780   2.093   6.146   0.726  0.6346  0.5490  0.6375
 3002SOL    HW311781   2.040   6.004   0.735  1.0036  0.4537  1.4062
 3002SOL    MW411782   2.028   6.090   0.742 -0.4413 -0.1806 -0.1471
 3003SOL     OW11783   1.200   2.154   1.747  0.0359 -0.2534 -0.0687
 3003SOL    HW211784   1.189   2.223   1.813  0.0622 -0.2034 -0.1166
 3003SOL    HW311785   1.228   2.201   1.668 -0.8422 -0.2142 -0.3615
 3003SOL    MW411786   1.202   2.170   1.745 -0.3636  0.2560 -0.0967
 3004SOL     OW11787   0.694   5.238   3.196 -0.5281  0.0749  0.3640
 3004SOL    HW211788   0.641   5.303   3.150 -0.1494 -0.1653 -0.4391
 3004SOL    HW311789   0.679   5.156   3.148  0.6556  0.0327  0.0347
 3004SOL    MW411790   0.685   5.235   3.184  0.0947  0.3506  0.1155
 3005SOL     OW11791   2.557   5.289   5.189 -0.0763 -0.2307  0.4911
 3005SOL    HW211792   2.473   5.245   5.173  1.6667 -3.5440 -0.4578
 3005SOL    HW311793   2.572   5.278   5.283 -0.8180  0.6597  0.7251
 3005SOL    MW411794   2.548   5.281   5.199 -0.4835  0.1686  0.1013
 3006SOL     OW11795   1.462   6.264   0.275  0.2661  0.0701  0.1783
 3006SOL    HW211796   1.483   6.201   0.344  1.2241  0.1025 -0.0653
 3006SOL    HW311797   1.367   6.267   0.273  0.1591 -1.9370 -0.2999
 3006SOL    MW411798   1.452   6.256   0.283 -0.1750 -0.5203 -0.1636
 3007SOL     OW11799   2.920   2.843   2.722 -0.3327 -0.2815  0.2026
 3007SOL    HW211800   2.836   2.831   2.677 -0.4604 -1.8963  0.8167
 3007SOL    HW311801   2.938   2.937   2.714 -1.6230 -0.0953 -0.9336
 3007SOL    MW411802   2.911   2.854   2.715 -0.4151 -0.4426  0.0989
 3008SOL     OW11803   4.183   2.001   4.031 -0.6130  0.3321 -0.4460
 3008SOL    HW211804   4.219   2.008   3.943 -0.1016  0.4299 -0.2302
 3008SOL    HW311805   4.222   2.073   4.080 -1.3384  0.6270 -0.2849
 3008SOL    MW411806   4.193   2.011   4.026 -0.3282  0.6106 -0.1933
 3009SOL     OW11807   2.689   5.170   4.230 -0.3131 -0.2073  0.0361
 3009SOL    HW211808   2.655   5.217   4.154  1.0617  1.3017  0.2845
 3009SOL    HW311809   2.782   5.160   4.213  0.1919  0.8685  1.8015
 3009SOL    MW411810   2.697   5.175   4.218 -0.5567 -0.0053  0.0063
 3010SOL     OW11811   4.393   6.212   4.249 -0.5218 -0.1389  0.1541
 3010SOL    HW211812   4.450   6.199   4.173 -2.0779 -1.7298 -0.8115
 3010SOL    HW311813   4.344   6.292   4.229 -1.3219 -0.8454 -0.8314
 3010SOL    MW411814   4.394   6.220   4.236 -0.3647  0.2916  0.5152
 3011SOL     OW11815   1.494   6.308   2.819 -0.3117  0.2857  0.6634
 3011SOL    HW211816   1.574   6.287   2.770 -0.3542  1.9263 -0.1883
 3011SOL    HW311817   1.490   6.241   2.887  1.4154 -0.2556  0.3019
 3011SOL    MW411818   1.504   6.297   2.821  0.2719 -0.5554  0.2682
 3012SOL     OW11819   0.009   4.976   5.538 -0.4649  0.3254 -0.1725
 3012SOL    HW211820   0.081   5.039   5.544 -1.1608  1.4214 -2.1601
 3012SOL    HW311821  -0.070   5.030   5.539 -1.1637 -0.6621 -0.2085
 3012SOL    MW411822   0.008   4.991   5.539 -1.0144 -0.1855  0.8713
 3013SOL     OW11823   2.947   0.468   5.433  0.2927  0.3453  0.4547
 3013SOL    HW211824   3.002   0.423   5.498  1.1047  0.4499 -0.1534
 3013SOL    HW311825   2.907   0.540   5.482 -0.6842 -0.7495  1.3350
 3013SOL    MW411826   2.949   0.472   5.448 -0.4593 -0.1312  0.0478
 3014SOL     OW11827   0.992   0.230   1.390 -0.0233  0.5219  0.3396
 3014SOL    HW211828   0.959   0.195   1.307 -0.4598 -0.7913  1.0345
 3014SOL    HW311829   0.955   0.318   1.395  1.7326  1.4526 -1.8284
 3014SOL    MW411830   0.983   0.237   1.380  0.0758 -0.6813 -0.6422
 3015SOL     OW11831   5.171   1.182   4.104 -0.0333 -0.0257  0.7987
 3015SOL    HW211832   5.173   1.220   4.192  1.0801  0.4415  0.5816
 3015SOL    HW311833   5.147   1.255   4.047 -0.2456 -0.2107  0.6504
 3015SOL    MW411834   5.168   1.196   4.108 -0.9792  0.2062  0.1152
 3016SOL     OW11835   3.288   2.958   2.189  0.6598 -0.3566  0.0481
 3016SOL    HW211836   3.271   3.040   2.236 -0.6176 -0.6672  0.1624
 3016SOL    HW311837   3.336   2.904   2.252  0.7191 -0.0256  0.2885
 3016SOL    MW411838   3.292   2.962   2.204  0.4492  0.5168 -0.0134
 3017SOL     OW11839   3.604   5.491   2.728 -0.0396  0.2090 -0.2222
 3017SOL    HW211840   3.603   5.431   2.802  0.1083  0.4838  0.0050
 3017SOL    HW311841   3.552   5.566   2.758  2.0771  1.4607  0.5707
 3017SOL    MW411842   3.597   5.493   2.742 -0.3647 -0.3343  0.7332
 3018SOL     OW11843   6.057   3.189   6.287  0.5161  0.4428  0.2716
 3018SOL    HW211844   6.137   3.157   6.244 -0.5525  0.2628 -1.6828
 3018SOL    HW311845   6.002   3.112   6.296 -0.0467  0.8375  0.2337
 3018SOL    MW411846   6.061   3.175   6.283  0.0508 -0.4236 -0.4284
 3019SOL     OW11847   2.146   6.337   1.031 -0.4737 -1.1270 -0.3215
 3019SOL    HW211848   2.128   6.251   1.067 -0.9743 -0.8405  0.1182
 3019SOL    HW311849   2.140   6.397   1.106  0.3670 -0.7684 -0.5220
 3019SOL    MW411850   2.143   6.334   1.046  0.3674  0.0478 -0.1121
 3020SOL     OW11851   3.109   0.625   2.029  0.3679 -0.1245 -0.0234
 3020SOL    HW211852   3.085   0.595   1.941  1.5162 -0.9850 -0.0616
 3020SOL    HW311853   3.025   0.647   2.070 -0.3891 -1.8756 -0.5588
 3020SOL    MW411854   3.095   0.624   2.023 -0.3548 -0.6466 -0.3250
 3021SOL     OW11855   4.304   4.428   4.988 -0.1973 -0.0239 -0.2426
 3021SOL    HW211856   4.385   4.468   4.954 -0.2172  0.4048  0.2002
 3021SOL    HW311857   4.235   4.468   4.936 -0.2783  1.0814  0.6627
 3021SOL    MW411858   4.306   4.439   4.977  0.0115  0.2365 -0.0483
 3022SOL     OW11859   0.003   3.352   5.815  0.1600  0.4511 -0.5214
 3022SOL    HW211860  -0.025   3.396   5.735 -2.4701  1.2272  0.7019
 3022SOL    HW311861   0.082   3.398   5.842  0.6974  0.6123 -2.2720
 3022SOL    MW411862   0.010   3.364   5.808  0.5118 -0.2485  0.1482
 3023SOL     OW11863   4.861   3.053   3.291 -0.3336  0.4573 -0.2420
 3023SOL    HW211864   4.866   3.067   3.385  0.8071 -0.2728 -0.1682
 3023SOL    HW311865   4.919   3.119   3.253  0.2795 -0.1212 -0.3267
 3023SOL    MW411866   4.869   3.063   3.298  0.4621  0.2150  0.5874
 3024SOL     OW11867   4.616   2.986   0.127  0.3240 -0.0769  0.0826
 3024SOL    HW211868   4.658   2.973   0.212  1.3828  1.4373 -0.1693
 3024SOL    HW311869   4.601   2.897   0.094  1.1340 -0.6816  1.2564
 3024SOL    MW411870   4.620   2.972   0.134  0.1964  0.0666 -0.3753
 3025SOL     OW11871   2.609   1.165   3.076 -0.3847 -0.1921 -0.0866
 3025SOL    HW211872   2.654   1.166   3.161 -0.5379 -0.1246 -0.0062
 3025SOL    HW311873   2.562   1.082   3.075 -1.5536  0.4430  0.5094
 3025SOL    MW411874   2.609   1.154   3.087 -0.3136 -0.1129 -0.1256
 3026SOL     OW11875   5.113   1.289   2.335  0.0907 -0.1139  0.0754
 3026SOL    HW211876   5.163   1.297   2.253 -0.1633 -0.6147 -0.1312
 3026SOL    HW311877   5.083   1.198   2.336 -1.5422  0.4034 -0.2184
 3026SOL    MW411878   5.116   1.278   2.324  0.5215  0.1431 -0.5980
 3027SOL     OW11879   6.294   5.355   3.451  0.3553  0.1705  0.4973
 3027SOL    HW211880   6.229   5.377   3.517  0.4657  1.0143  0.3472
 3027SOL    HW311881   6.374   5.337   3.502  0.7988  2.1047  0.5840
 3027SOL    MW411882   6.296   5.356   3.467 -0.1490 -0.3695  0.7154
 3028SOL     OW11883   2.243   0.484   4.013  0.0497  0.0263 -0.1952
 3028SOL    HW211884   2.331   0.517   4.001  0.0036 -0.0827 -0.8700
 3028SOL    HW311885   2.186   0.560   4.004  0.0445  0.0245 -0.1782
 3028SOL    MW411886   2.247   0.498   4.010  0.1435 -0.6148 -0.2356
 3029SOL     OW11887   2.575   1.014   4.448  0.0072 -0.7713  0.0480
 3029SOL    HW211888   2.549   0.958   4.375 -0.6814 -0.6567  0.1955
 3029SOL    HW311889   2.587   0.954   4.521  1.4054 -0.9746 -0.3201
 3029SOL    MW411890   2.573   0.999   4.448  0.3026 -0.3672 -0.0963
 3030SOL     OW11891   5.193   0.561   1.218  0.3521 -0.0338 -0.5113
 3030SOL    HW211892   5.195   0.501   1.293 -0.0817 -0.3316 -0.7347
 3030SOL    HW311893   5.115   0.535   1.169  1.8749 -1.3696 -2.3402
 3030SOL    MW411894   5.183   0.550   1.222  0.0637  0.5313  0.2446
 3031SOL     OW11895   5.553   2.696   6.242 -0.4092  0.2986 -0.0220
 3031SOL    HW211896   5.648   2.706   6.234 -0.3148 -1.3382 -1.5337
 3031SOL    HW311897   5.538   2.691   6.336  1.0730  0.0812  0.2379
 3031SOL    MW411898   5.564   2.696   6.253  0.0634 -0.1293 -0.5432
 3032SOL     OW11899   1.253   2.058   6.123  0.3865 -0.1261 -0.2231
 3032SOL    HW211900   1.175   2.022   6.163  0.7541 -1.3607 -0.5795
 3032SOL    HW311901   1.221   2.116   6.054 -0.2209  1.0186  0.9750
 3032SOL    MW411902   1.239   2.061   6.119 -0.5385 -0.4460 -0.0512
 3033SOL     OW11903   0.246   2.898   0.959  0.4807  0.2843 -0.0520
 3033SOL    HW211904   0.213   2.958   0.892 -0.4928  0.9159  0.9405
 3033SOL    HW311905   0.221   2.939   1.042 -0.2756 -1.5228  0.6696
 3033SOL    MW411906   0.238   2.911   0.961 -0.0278 -0.1055 -0.0229
 3034SOL     OW11907   3.698   0.999   4.145  0.0399 -0.3874  0.0058
 3034SOL    HW211908   3.623   1.034   4.192  0.0808 -1.1395  0.6638
 3034SOL    HW311909   3.686   0.904   4.149  1.9207 -0.6280  1.7032
 3034SOL    MW411910   3.686   0.991   4.152 -0.7536  0.3341 -0.6374
 3035SOL     OW11911   5.116   6.008   4.203  0.5464 -0.6025  0.3095
 3035SOL    HW211912   5.095   6.060   4.125 -0.1209 -0.6912  0.4227
 3035SOL    HW311913   5.080   6.058   4.276 -0.7303 -1.5493  0.3555
 3035SOL    MW411914   5.109   6.021   4.202 -0.5438 -0.0327  0.1903
 3036SOL     OW11915   5.565   2.048   4.004  0.2135  0.1447  0.3426
 3036SOL    HW211916   5.611   2.100   4.069 -1.3787 -0.2283  1.8545
 3036SOL    HW311917   5.477   2.086   4.000  0.1772 -0.0412 -1.3811
 3036SOL    MW411918   5.559   2.060   4.012 -0.2193  0.4390  0.5388
 3037SOL     OW11919   2.747   4.300   0.227  0.4818  0.9211 -0.4771
 3037SOL    HW211920   2.810   4.245   0.273  0.1446  0.4533 -0.5719
 3037SOL    HW311921   2.801   4.360   0.175  0.8452  0.1808 -0.9644
 3037SOL    MW411922   2.763   4.301   0.226  0.0403  0.3123 -0.6467
 3038SOL     OW11923   2.777   0.696   0.358 -0.8646  0.0936  0.2671
 3038SOL    HW211924   2.707   0.631   0.361 -1.6935  0.9106 -0.7051
 3038SOL    HW311925   2.769   0.744   0.441  1.0777 -2.2988  1.9912
 3038SOL    MW411926   2.767   0.694   0.370 -0.4829 -0.2966  0.0118
 3039SOL     OW11927   1.942   1.395   1.124  0.6422 -0.0457  0.0981
 3039SOL    HW211928   1.886   1.328   1.086  1.7509  0.2127 -2.1201
 3039SOL    HW311929   1.963   1.362   1.212  1.2480 -2.6564 -0.9487
 3039SOL    MW411930   1.937   1.382   1.131  0.6409 -0.2529 -0.3568
 3040SOL     OW11931   1.941   5.003   5.460  0.2706 -0.0247  0.3773
 3040SOL    HW211932   1.935   5.029   5.552  0.6182  1.2590  0.0600
 3040SOL    HW311933   1.884   5.065   5.414  2.1746  1.0772 -0.5737
 3040SOL    MW411934   1.932   5.015   5.466  0.6712  0.4226  0.8028
 3041SOL     OW11935   2.710   6.368   5.250 -0.4975 -0.0589 -0.1148
 3041SOL    HW211936   2.750   6.422   5.318 -2.6102  1.3391  0.1328
 3041SOL    HW311937   2.670   6.295   5.298  0.3060 -0.5511 -0.1808
 3041SOL    MW411938   2.710   6.365   5.266 -0.5202  0.4814 -0.1515
 3042SOL     OW11939   2.669   5.214   0.510 -0.7033 -0.4078 -0.2383
 3042SOL    HW211940   2.639   5.143   0.454 -1.6628 -0.0219 -0.2257
 3042SOL    HW311941   2.754   5.240   0.473 -1.0824 -0.5045 -1.1877
 3042SOL    MW411942   2.677   5.208   0.498 -0.1389  0.5840  0.2178
 3043SOL     OW11943   1.448   4.360   6.383  0.1595  0.0360 -0.3726
 3043SOL    HW211944   1.405   4.314   6.456  2.3520 -1.1874  0.2431
 3043SOL    HW311945   1.417   4.450   6.391 -1.5942 -0.5876  0.5240
 3043SOL    MW411946   1.438   4.366   6.394  0.0816 -0.8212 -0.0654
 3044SOL     OW11947   0.677   2.194   1.809  0.2581 -0.1719  1.0737
 3044SOL    HW211948   0.767   2.221   1.796 -0.1281  0.7294  0.1148
 3044SOL    HW311949   0.631   2.274   1.835 -1.0112  0.3905 -2.3692
 3044SOL    MW411950   0.683   2.208   1.811 -0.2813 -0.2651 -0.6475
 3045SOL     OW11951   4.347   3.296   5.162 -0.0833  0.0786 -0.1340
 3045SOL    HW211952   4.385   3.320   5.247  1.7772 -0.0091 -0.8906
 3045SOL    HW311953   4.289   3.223   5.181 -0.0780  0.3848  1.1358
 3045SOL    MW411954   4.345   3.290   5.176 -0.4173 -0.8511 -0.1810
 3046SOL     OW11955   2.480   0.583   2.614 -0.4360 -0.1260  0.3720
 3046SOL    HW211956   2.543   0.540   2.555 -0.4190  1.5584 -0.9026
 3046SOL    HW311957   2.533   0.611   2.689 -0.1064 -0.7009  0.3631
 3046SOL    MW411958   2.495   0.581   2.616 -0.0555 -0.5303 -0.0976
 3047SOL     OW11959   4.702   0.986   3.166  0.4486  0.1845  0.4234
 3047SOL    HW211960   4.760   1.054   3.199 -0.8691  1.0943  0.9117
 3047SOL    HW311961   4.615   1.011   3.195 -0.1239 -1.5534  0.3541
 3047SOL    MW411962   4.698   0.998   3.174 -0.1220  0.2914  0.0510
 3048SOL     OW11963   0.572   1.945   2.890  0.0611 -0.3495 -0.7483
 3048SOL    HW211964   0.651   1.914   2.845  1.1168  0.8256  0.2043
 3048SOL    HW311965   0.562   2.035   2.861 -2.2610 -1.0930 -2.5522
 3048SOL    MW411966   0.581   1.952   2.880  0.1881  0.0926  0.7122
 3049SOL     OW11967   5.521   1.316   5.809  0.1359 -0.1425 -0.4846
 3049SOL    HW211968   5.471   1.377   5.757 -0.5581 -0.1462  0.1649
 3049SOL    HW311969   5.565   1.370   5.875 -1.2740 -0.4091  0.7289
 3049SOL    MW411970   5.521   1.331   5.811 -0.0919 -0.6253  0.3549
 3050SOL     OW11971   6.246   5.952   1.757 -0.3235  0.5494  0.4977
 3050SOL    HW211972   6.176   6.017   1.745  0.1746  0.7154 -1.9175
 3050SOL    HW311973   6.224   5.882   1.696  0.9751  0.0286  0.6112
 3050SOL    MW411974   6.234   5.951   1.747  0.2887 -0.0122 -0.2335
 3051SOL     OW11975   4.366   0.311   0.936  0.3253  0.4884 -0.1926
 3051SOL    HW211976   4.310   0.275   0.867  0.0148  0.7577 -0.0851
 3051SOL    HW311977   4.309   0.315   1.012  0.0603  2.1011 -0.4428
 3051SOL    MW411978   4.351   0.307   0.937  0.1495  0.0213 -0.4770
 3052SOL     OW11979   2.004   0.702   1.573 -0.1927 -0.2115 -0.2143
 3052SOL    HW211980   1.989   0.794   1.591 -0.5810 -0.5480  1.3180
 3052SOL    HW311981   2.095   0.687   1.601  0.1845 -0.1147 -1.3212
 3052SOL    MW411982   2.014   0.712   1.579  0.8195  0.5325 -0.0658
 3053SOL     OW11983   0.568   0.097   3.258  0.2804  0.0519  0.0462
 3053SOL    HW211984   0.495   0.060   3.207  0.4578 -0.1319 -0.0758
 3053SOL    HW311985   0.594   0.025   3.316  1.8746 -0.7005 -1.4923
 3053SOL    MW411986   0.562   0.082   3.259 -0.3535 -0.0852  0.4554
 3054SOL     OW11987   3.502   0.271   4.350 -0.9712  0.3015  0.4187
 3054SOL    HW211988   3.588   0.308   4.368 -0.2395 -1.0070 -0.2731
 3054SOL    HW311989   3.447   0.303   4.422 -0.2113  2.0634  0.2709
 3054SOL    MW411990   3.506   0.280   4.362  0.0719 -0.7401 -0.3003
 3055SOL     OW11991   3.118   4.762   3.793 -0.2243  0.3553  0.5207
 3055SOL    HW211992   3.212   4.780   3.804  0.2050 -1.0440 -0.5930
 3055SOL    HW311993   3.092   4.724   3.877  0.4365 -0.0974  0.5330
 3055SOL    MW411994   3.127   4.760   3.806 -0.3070 -0.2514 -0.0283
 3056SOL     OW11995   2.414   0.869   1.517  0.3307  0.3966  0.0607
 3056SOL    HW211996   2.403   0.961   1.494  0.1142  0.3713  0.0540
 3056SOL    HW311997   2.507   0.851   1.504 -0.1738 -0.3683 -3.6125
 3056SOL    MW411998   2.425   0.879   1.512 -0.2019 -0.3286  0.4864
 3057SOL     OW11999   2.750   0.100   0.311 -0.5520 -0.0303  0.5167
 3057SOL    HW212000   2.788   0.056   0.235  0.0940  0.5053  0.5212
 3057SOL    HW312001   2.695   0.169   0.274 -1.5759 -0.8288  0.5095
 3057SOL    MW412002   2.748   0.103   0.296  1.0111 -0.3645  0.2979
 3058SOL     OW12003   1.140   6.005   3.851  0.5783 -0.0552  0.1053
 3058SOL    HW212004   1.219   5.957   3.875 -0.4906 -2.1097 -0.2842
 3058SOL    HW312005   1.068   5.951   3.883 -0.7068  1.5606  0.0890
 3058SOL    MW412006   1.141   5.992   3.858 -0.3025  0.4668 -0.4915
 3059SOL     OW12007   0.953   0.124   3.864  0.4563  0.3231  0.1177
 3059SOL    HW212008   0.889   0.149   3.798  1.6108  0.8922 -0.8207
 3059SOL    HW312009   1.003   0.053   3.823  2.2368  1.7601 -0.3064
 3059SOL    MW412010   0.951   0.118   3.850 -0.2777  0.6327 -0.4113
 3060SOL     OW12011   1.075   4.990   0.306  0.5267 -0.1534 -0.0915
 3060SOL    HW212012   1.011   4.964   0.372  0.1015 -0.0356 -0.4532
 3060SOL    HW312013   1.065   4.926   0.236 -0.1431  0.6383 -0.7391
 3060SOL    MW412014   1.065   4.978   0.306  0.1810 -0.2258 -0.5066
 3061SOL     OW12015   3.732   1.777   2.819  0.7717  0.2053  0.6538
 3061SOL    HW212016   3.662   1.823   2.864 -1.4512 -2.1719 -0.1422
 3061SOL    HW312017   3.723   1.803   2.727  0.1221 -0.9792  0.3601
 3061SOL    MW412018   3.722   1.786   2.813  0.2856  0.0103 -0.2426
 3062SOL     OW12019   6.346   5.077   0.402  0.2796  0.3584  0.1813
 3062SOL    HW212020   6.287   5.002   0.395  0.7726  0.0141 -0.3712
 3062SOL    HW312021   6.434   5.039   0.410  0.6869  0.8679 -1.5202
 3062SOL    MW412022   6.350   5.062   0.402  0.5420  0.1236 -0.7787
 3063SOL     OW12023   2.856   6.179   5.060 -0.5590  0.2886 -0.3894
 3063SOL    HW212024   2.832   6.254   5.114  0.2994  0.3892 -0.1318
 3063SOL    HW312025   2.883   6.217   4.977  0.2343  0.3068 -0.1340
 3063SOL    MW412026   2.856   6.194   5.056  0.0112 -0.6166 -0.3435
 3064SOL     OW12027   6.055   1.756   4.306  0.0824 -0.2172  0.3369
 3064SOL    HW212028   6.122   1.819   4.279 -0.4871  0.2346 -0.0440
 3064SOL    HW312029   5.972   1.798   4.284 -0.2860 -1.5805 -1.0238
 3064SOL    MW412030   6.053   1.770   4.299  0.1093 -0.1618 -0.0043
 3065SOL     OW12031   5.472   4.112   3.578  0.3178  0.0269 -0.1576
 3065SOL    HW212032   5.434   4.136   3.663 -0.6709 -1.9307  0.0063
 3065SOL    HW312033   5.530   4.185   3.556 -0.8022  1.4240  1.3267
 3065SOL    MW412034   5.475   4.125   3.586 -0.0690  0.0619 -0.2315
 3066SOL     OW12035   3.046   3.400   3.475  0.2339 -0.1380  0.1562
 3066SOL    HW212036   3.057   3.457   3.551  2.8541  0.3485 -0.4935
 3066SOL    HW312037   3.017   3.458   3.405  1.8034  0.2171 -0.2196
 3066SOL    MW412038   3.043   3.415   3.476  0.5489 -0.1540 -0.1139
 3067SOL     OW12039   1.528   6.250   1.778 -0.3239  0.3742  0.3109
 3067SOL    HW212040   1.543   6.341   1.751  0.1194 -0.3320 -2.1130
 3067SOL    HW312041   1.434   6.246   1.799 -0.5718  1.1662 -0.5923
 3067SOL    MW412042   1.517   6.261   1.777 -0.1359  0.0589 -0.7212
 3068SOL     OW12043   0.568   1.655   4.830  0.0653 -0.0685 -0.3287
 3068SOL    HW212044   0.515   1.606   4.767  2.5712 -1.0188 -1.8296
 3068SOL    HW312045   0.658   1.625   4.815  1.2429  2.3813  1.1846
 3068SOL    MW412046   0.573   1.645   4.819 -0.1354  0.3714 -0.0815
 3069SOL     OW12047   1.865   1.295   2.454 -1.1244 -0.7388  0.0541
 3069SOL    HW212048   1.944   1.298   2.508 -0.3370 -1.6924 -0.9915
 3069SOL    HW312049   1.798   1.259   2.511 -0.8684  0.2328  1.0079
 3069SOL    MW412050   1.866   1.291   2.468  0.3323  0.4607 -0.4642
 3070SOL     OW12051   1.798   3.335   5.148  0.1441  0.3136 -0.2810
 3070SOL    HW212052   1.817   3.251   5.107  0.2989  0.1101  0.1999
 3070SOL    HW312053   1.850   3.398   5.099  0.8633 -0.0248  0.0373
 3070SOL    MW412054   1.807   3.333   5.136 -0.0208 -0.0070  0.1292
 3071SOL     OW12055   1.026   1.453   5.782  0.9108 -0.2269  0.1350
 3071SOL    HW212056   1.018   1.374   5.836  1.2304 -0.2736  0.1111
 3071SOL    HW312057   1.106   1.440   5.732  1.1431  0.2727  0.3847
 3071SOL    MW412058   1.035   1.441   5.782 -0.0631 -0.1982  0.2940
 3072SOL     OW12059   3.936   0.721   4.897  0.0695  0.0799  0.0696
 3072SOL    HW212060   3.858   0.704   4.845 -0.0181 -2.8276  0.9763
 3072SOL    HW312061   4.000   0.755   4.835 -0.7161 -1.1989 -1.5193
 3072SOL    MW412062   3.934   0.723   4.882  0.5062 -0.0548  0.7132
 3073SOL     OW12063   5.558   5.537   2.355  0.0581  0.0797  0.0350
 3073SOL    HW212064   5.490   5.591   2.313 -0.5570  0.1245  1.0546
 3073SOL    HW312065   5.538   5.542   2.448  1.6929  0.3763  0.3922
 3073SOL    MW412066   5.546   5.545   2.362  0.9145 -0.2332  0.0670
 3074SOL     OW12067   2.155   3.742   6.043 -0.2098 -0.0659  0.7890
 3074SOL    HW212068   2.087   3.793   6.087  0.2473  1.0103  0.2906
 3074SOL    HW312069   2.190   3.801   5.976  0.4476 -0.9887  0.2898
 3074SOL    MW412070   2.151   3.756   6.040 -0.0438  0.2905  0.6288
 3075SOL     OW12071   0.748   6.086   4.625 -0.3328  0.3729 -0.1703
 3075SOL    HW212072   0.807   6.021   4.663  1.0531  0.4692 -2.0468
 3075SOL    HW312073   0.663   6.041   4.623  0.1545 -0.6300  0.4214
 3075SOL    MW412074   0.744   6.071   4.630  0.1352 -0.2889  0.1998
 3076SOL     OW12075   4.613   1.354   2.973 -0.0273 -0.7863 -0.2161
 3076SOL    HW212076   4.583   1.419   3.036  0.6811 -1.3830  0.7596
 3076SOL    HW312077   4.708   1.352   2.983 -0.0021 -1.6808 -0.4951
 3076SOL    MW412078   4.622   1.362   2.983  0.3834  0.3143  0.6030
 3077SOL     OW12079   1.195   5.631   3.384  0.3678  0.4421 -0.0809
 3077SOL    HW212080   1.212   5.578   3.462 -1.2728 -1.3024 -0.8263
 3077SOL    HW312081   1.265   5.607   3.323 -0.4390 -1.0271 -0.4606
 3077SOL    MW412082   1.207   5.621   3.386 -0.0968  0.4459 -0.0031
 3078SOL     OW12083   3.960   1.076   5.301 -0.3797 -0.1531  0.0687
 3078SOL    HW212084   4.026   1.144   5.285  0.9141 -1.0271  1.4062
 3078SOL    HW312085   3.896   1.088   5.231  1.5450  0.3255 -1.7222
 3078SOL    MW412086   3.961   1.087   5.290  0.2089  0.0813 -0.0730
 3079SOL     OW12087   1.017   1.569   1.722  1.1089  0.5411  0.8041
 3079SOL    HW212088   1.057   1.556   1.636 -0.2055 -1.3086  0.4117
 3079SOL    HW312089   0.923   1.572   1.704  0.7653 -0.6552  2.2546
 3079SOL    MW412090   1.010   1.568   1.708  0.1663  0.2497  0.3171
 3080SOL     OW12091   5.795   1.464   1.019  0.0457 -0.4925 -0.3401
 3080SOL    HW212092   5.726   1.495   1.077 -0.1806 -0.3245 -0.6940
 3080SOL    HW312093   5.863   1.531   1.024  1.0634 -1.5841  1.5122
 3080SOL    MW412094   5.795   1.477   1.027 -0.0268  0.1995 -0.0802
 3081SOL     OW12095   3.833   3.721   3.027  0.1149  0.4683 -0.4912
 3081SOL    HW212096   3.740   3.702   3.014  0.6443 -1.4433 -2.0133
 3081SOL    HW312097   3.838   3.760   3.114 -1.7316 -2.8992  1.3349
 3081SOL    MW412098   3.821   3.723   3.037  0.6045 -0.3512 -0.7903
 3082SOL     OW12099   2.440   3.332   1.768 -0.4748  0.0926  0.0010
 3082SOL    HW212100   2.408   3.401   1.826  1.6867  3.0815 -2.0368
 3082SOL    HW312101   2.410   3.358   1.681 -0.7228 -2.3567 -0.7238
 3082SOL    MW412102   2.432   3.344   1.764 -0.4951  0.1165  0.7649
 3083SOL     OW12103   3.158   4.721   4.986  0.1901 -0.5522 -0.4282
 3083SOL    HW212104   3.078   4.690   4.945  1.3395 -1.5160 -2.0739
 3083SOL    HW312105   3.179   4.655   5.052 -1.8281  1.1549  2.1243
 3083SOL    MW412106   3.150   4.708   4.989  0.9103  0.2505 -0.0407
 3084SOL     OW12107   1.693   4.526   2.010 -0.4410  0.3703  0.1388
 3084SOL    HW212108   1.662   4.456   2.068  0.8771  0.1751  0.6453
 3084SOL    HW312109   1.787   4.534   2.030 -0.1778  1.0073 -1.2526
 3084SOL    MW412110   1.702   4.518   2.020  0.4296 -0.3436  0.0399
 3085SOL     OW12111   4.853   2.406   3.960 -0.1349 -0.2267 -0.6976
 3085SOL    HW212112   4.805   2.488   3.972 -0.6594 -0.8019  1.7007
 3085SOL    HW312113   4.933   2.432   3.913  0.2317  1.8701  0.8985
 3085SOL    MW412114   4.857   2.421   3.956 -0.3134  0.2599 -0.0937
 3086SOL     OW12115   4.884   1.163   1.207  0.6399 -0.4118  0.1264
 3086SOL    HW212116   4.839   1.238   1.169 -1.2036 -2.0548 -1.0696
 3086SOL    HW312117   4.924   1.118   1.133  1.6318 -0.7085  0.8147
 3086SOL    MW412118   4.884   1.167   1.193 -0.6567 -0.2682  0.2651
 3087SOL     OW12119   0.394   3.821   3.054  0.2312 -0.4871 -0.0961
 3087SOL    HW212120   0.448   3.812   2.976  0.2465 -0.8482 -0.0478
 3087SOL    HW312121   0.351   3.906   3.045 -0.6306 -1.0064 -1.0391
 3087SOL    MW412122   0.396   3.831   3.043  0.1698  0.3674  0.2757
 3088SOL     OW12123   2.790   0.368   5.236 -0.2248 -0.4799 -0.0032
 3088SOL    HW212124   2.831   0.397   5.317 -2.7933  2.6961  0.4192
 3088SOL    HW312125   2.846   0.403   5.167 -0.2095  0.5396  0.5045
 3088SOL    MW412126   2.803   0.377   5.237  0.0877  0.1179 -0.0578
 3089SOL     OW12127   2.320   2.197   1.216 -0.0942  0.2511  0.2639
 3089SOL    HW212128   2.350   2.121   1.266 -0.8797  0.4178  1.0233
 3089SOL    HW312129   2.230   2.212   1.247 -0.6650  0.2965 -1.2846
 3089SOL    MW412130   2.312   2.189   1.227  0.2105 -0.2282 -0.0786
 3090SOL     OW12131   1.870   3.686   4.420 -0.0550 -0.4744  0.9012
 3090SOL    HW212132   1.852   3.722   4.333  0.1788  1.4999  1.6397
 3090SOL    HW312133   1.796   3.629   4.438 -0.1975 -0.7675 -0.5057
 3090SOL    MW412134   1.858   3.683   4.411  0.4429 -0.6767 -0.1553
 3091SOL     OW12135   4.102   3.048   2.935  0.0774 -0.7293 -0.3529
 3091SOL    HW212136   4.044   3.122   2.952  1.6446  0.5563 -0.3785
 3091SOL    HW312137   4.148   3.071   2.854  0.1219 -2.0420 -0.7314
 3091SOL    MW412138   4.101   3.061   2.926 -0.4185  0.0050  0.0493
 3092SOL     OW12139   0.835   0.754   2.539  0.3772 -0.4412  0.1755
 3092SOL    HW212140   0.768   0.761   2.470  1.1676 -1.7277 -0.7732
 3092SOL    HW312141   0.848   0.844   2.568  0.3598  0.2205 -1.7060
 3092SOL    MW412142   0.828   0.767   2.534  0.6416 -0.3402  0.3946
 3093SOL     OW12143   2.478   3.942   6.083 -0.6954  0.3423 -0.3706
 3093SOL    HW212144   2.494   4.027   6.043 -1.4295 -0.5716 -2.7866
 3093SOL    HW312145   2.553   3.888   6.057  0.1678  0.3920  1.7981
 3093SOL    MW412146   2.490   3.946   6.074  0.1946  0.2590  0.2998
 3094SOL     OW12147   5.114   4.055   6.234  0.1360  0.1641  0.4342
 3094SOL    HW212148   5.087   4.006   6.156  0.7307  1.4616 -0.6298
 3094SOL    HW312149   5.034   4.100   6.262  0.2040  0.6544 -0.1570
 3094SOL    MW412150   5.100   4.054   6.227 -0.5220 -0.1953  0.1579
 3095SOL     OW12151   4.979   2.804   4.736  0.5726  0.1479  0.0261
 3095SOL    HW212152   4.978   2.800   4.640 -0.4491 -2.2216  0.0650
 3095SOL    HW312153   5.062   2.764   4.760  0.6049  0.2826  0.1381
 3095SOL    MW412154   4.990   2.798   4.727 -0.3252  0.1754 -0.5981
 3096SOL     OW12155   4.420   5.585   4.704  0.7467  0.2339 -0.0019
 3096SOL    HW212156   4.424   5.583   4.608 -0.2641  0.3483 -0.0522
 3096SOL    HW312157   4.511   5.576   4.731  0.9341 -1.1018 -0.9487
 3096SOL    MW412158   4.433   5.583   4.695 -0.2598  0.1485 -0.3290
 3097SOL     OW12159   3.478   1.604   4.933 -0.3216  0.0239  0.0025
 3097SOL    HW212160   3.450   1.530   4.987  0.9910 -0.3248  0.2441
 3097SOL    HW312161   3.567   1.582   4.907 -1.0091  0.0515 -2.5971
 3097SOL    MW412162   3.486   1.591   4.937  0.3874 -0.0124  0.6118
 3098SOL     OW12163   0.386   1.605   1.875  0.2997  0.1909  0.8571
 3098SOL    HW212164   0.412   1.519   1.842  1.2992  0.0210  1.9898
 3098SOL    HW312165   0.365   1.656   1.797 -0.7107 -1.1814  0.1725
 3098SOL    MW412166   0.386   1.600   1.861 -0.1035 -0.0286  0.2363
 3099SOL     OW12167   4.862   2.373   1.025 -0.1403  0.3115 -0.0858
 3099SOL    HW212168   4.953   2.370   1.052 -0.3188  0.3762  0.5427
 3099SOL    HW312169   4.855   2.452   0.971 -0.0091  0.7620  0.5533
 3099SOL    MW412170   4.873   2.383   1.021 -0.3983 -0.2613 -0.4403
 3100SOL     OW12171   2.426   3.309   5.265 -0.2379 -0.2503 -0.0362
 3100SOL    HW212172   2.512   3.292   5.227 -1.2259  0.2280 -2.6772
 3100SOL    HW312173   2.427   3.261   5.348  2.4988 -0.3631 -0.0504
 3100SOL    MW412174   2.437   3.300   5.271 -0.1776 -0.2667  0.1719
 3101SOL     OW12175   1.589   5.856   2.490 -0.1937 -0.0968 -0.4954
 3101SOL    HW212176   1.570   5.941   2.452  0.5528  0.5152  0.4558
 3101SOL    HW312177   1.551   5.793   2.429  1.3351  0.8081 -2.4661
 3101SOL    MW412178   1.581   5.859   2.477  0.1525 -0.2543  0.0328
 3102SOL     OW12179   4.566   3.257   4.383 -0.5566 -0.4215  0.2895
 3102SOL    HW212180   4.634   3.309   4.427 -1.2270 -0.2556  1.1408
 3102SOL    HW312181   4.524   3.208   4.454 -0.6405 -1.3277 -0.3704
 3102SOL    MW412182   4.570   3.257   4.398 -0.4650 -0.7288 -0.1567
 3103SOL     OW12183   5.951   3.496   0.677  0.9135  0.0496  0.1913
 3103SOL    HW212184   5.984   3.407   0.667 -0.9358 -0.6117 -0.6165
 3103SOL    HW312185   5.923   3.521   0.589  1.3102  1.3963  0.4255
 3103SOL    MW412186   5.951   3.488   0.664  0.1073  0.0001 -0.1787
 3104SOL     OW12187   1.643   0.944   1.058 -0.3472  0.0710  0.0691
 3104SOL    HW212188   1.721   0.889   1.072  1.2475  1.7198 -1.7521
 3104SOL    HW312189   1.617   0.925   0.967 -2.3168 -0.6488  0.7243
 3104SOL    MW412190   1.650   0.934   1.048  0.2656  0.9489  0.1957
 3105SOL     OW12191   3.271   1.546   1.187 -0.0164 -0.5656  0.4162
 3105SOL    HW212192   3.275   1.639   1.161  2.3597 -0.2240  1.6975
 3105SOL    HW312193   3.326   1.502   1.122  1.1450 -0.5987  1.3851
 3105SOL    MW412194   3.279   1.553   1.175  0.6577 -0.0673  0.0568
 3106SOL     OW12195   1.437   0.996   5.174  0.6743  0.2286  0.3208
 3106SOL    HW212196   1.342   0.986   5.184  0.0784  3.4312 -0.9796
 3106SOL    HW312197   1.469   1.014   5.262  0.0986 -0.8123  0.7607
 3106SOL    MW412198   1.428   0.997   5.187  0.1159 -0.0986  0.3770
 3107SOL     OW12199   0.528   1.863   4.170 -0.5957  0.1371  0.1570
 3107SOL    HW212200   0.613   1.832   4.139  0.2805  1.7976  0.7836
 3107SOL    HW312201   0.496   1.794   4.228  0.0860 -0.7200 -0.4730
 3107SOL    MW412202   0.535   1.850   4.173 -0.1124 -0.3976 -0.3108
 3108SOL     OW12203   6.190   5.519   5.683 -0.0108  0.5490 -0.0277
 3108SOL    HW212204   6.139   5.601   5.684 -0.2654  0.4252  2.3162
 3108SOL    HW312205   6.255   5.531   5.752 -0.4642 -1.4539  0.8119
 3108SOL    MW412206   6.192   5.532   5.692  0.5920  0.2018  0.8050
 3109SOL     OW12207   0.499   5.868   1.982  0.3097 -0.0072  0.2627
 3109SOL    HW212208   0.515   5.901   1.894  1.2024 -0.6222  0.1760
 3109SOL    HW312209   0.476   5.776   1.969 -1.6696  0.4077  0.5336
 3109SOL    MW412210   0.498   5.860   1.969 -0.4982  0.6462  0.0026
 3110SOL     OW12211   2.324   2.013   0.949 -0.7995  0.4517  0.1089
 3110SOL    HW212212   2.392   1.986   1.011  0.0028  1.0762 -0.4757
 3110SOL    HW312213   2.254   1.949   0.960  0.1932 -0.6447  0.1959
 3110SOL    MW412214   2.324   2.001   0.959  0.0044 -0.3064 -0.0475
 3111SOL     OW12215   6.153   6.366   5.257 -0.2153  0.6634  0.4781
 3111SOL    HW212216   6.064   6.400   5.244 -0.2873  0.0246 -0.8237
 3111SOL    HW312217   6.139   6.276   5.289 -0.0210  1.1503  2.0067
 3111SOL    MW412218   6.139   6.358   5.260 -0.1450 -0.4963 -0.6786
 3112SOL     OW12219   0.385   5.011   1.109 -0.0681  0.1226 -0.4461
 3112SOL    HW212220   0.328   5.088   1.110  0.6551  0.6698 -0.6303
 3112SOL    HW312221   0.472   5.045   1.131  0.5463 -0.3988 -1.8942
 3112SOL    MW412222   0.389   5.025   1.112  0.0302  0.5344 -0.2811
 3113SOL     OW12223   3.224   3.196   3.459  0.5008 -0.3396  0.1076
 3113SOL    HW212224   3.166   3.267   3.488  0.4311 -0.6075  0.6433
 3113SOL    HW312225   3.276   3.235   3.389  0.2726  0.1628  0.2105
 3113SOL    MW412226   3.223   3.210   3.454  0.7402  0.0207 -0.2563
 3114SOL     OW12227   1.468   6.328   0.749  0.1010 -0.3753  0.3682
 3114SOL    HW212228   1.457   6.417   0.716  0.8693  0.2706  1.7354
 3114SOL    HW312229   1.491   6.276   0.673 -2.5679  0.1055 -0.8836
 3114SOL    MW412230   1.470   6.333   0.735  0.0765 -0.1705 -0.1777
 3115SOL     OW12231   0.427   5.094   2.843 -0.0819  0.0385 -0.2921
 3115SOL    HW212232   0.336   5.113   2.866 -0.1934 -0.3583 -0.4020
 3115SOL    HW312233   0.421   5.042   2.763  0.2065 -0.6951  0.1566
 3115SOL    MW412234   0.414   5.089   2.835 -0.2793 -0.2977  0.6321
 3116SOL     OW12235   1.896   4.803   0.307 -0.3606  0.0566 -0.0720
 3116SOL    HW212236   1.951   4.736   0.265 -1.5812 -0.9591 -0.1272
 3116SOL    HW312237   1.940   4.821   0.390  0.9442  0.5164 -0.8398
 3116SOL    MW412238   1.909   4.796   0.313 -0.3770  0.0412  0.0510
 3117SOL     OW12239   0.546   0.853   2.646 -0.0117 -0.5760 -0.0770
 3117SOL    HW212240   0.612   0.891   2.704 -1.3447 -0.7401  1.6252
 3117SOL    HW312241   0.562   0.759   2.649 -0.5034 -0.6456  0.6045
 3117SOL    MW412242   0.557   0.846   2.654 -0.7219 -0.0965 -0.4279
 3118SOL     OW12243   4.121   3.660   3.246 -0.3796 -0.2099 -0.2653
 3118SOL    HW212244   4.189   3.667   3.313  0.1167  0.0731 -0.7810
 3118SOL    HW312245   4.050   3.715   3.277 -0.0156  0.1932 -0.1336
 3118SOL    MW412246   4.121   3.668   3.259  0.1613  0.9152 -0.0645
 3119SOL     OW12247   5.246   3.643   5.796  0.2757 -0.1853  0.3950
 3119SOL    HW212248   5.164   3.690   5.779  0.4366 -0.5502 -1.7334
 3119SOL    HW312249   5.314   3.698   5.756  0.9253 -0.5098  1.0278
 3119SOL    MW412250   5.244   3.657   5.788 -0.4417  0.2990 -0.7275
 3120SOL     OW12251   3.122   4.763   0.842 -0.4154  0.5280 -0.3824
 3120SOL    HW212252   3.170   4.680   0.843 -1.1267  0.0771 -1.4322
 3120SOL    HW312253   3.187   4.828   0.868 -0.1472 -0.4857  1.6536
 3120SOL    MW412254   3.137   4.761   0.845 -0.4626  0.8628 -0.4476
 3121SOL     OW12255   4.041   5.107   5.790 -0.1595 -0.0441  0.4578
 3121SOL    HW212256   4.023   5.184   5.844  1.2589  2.0168 -1.7624
 3121SOL    HW312257   3.963   5.053   5.797 -1.4957  1.9175  1.6205
 3121SOL    MW412258   4.028   5.110   5.798  0.0362 -0.3893 -0.1967
 3122SOL     OW12259   1.826   1.255   4.982  0.2117  0.6173  0.1526
 3122SOL    HW212260   1.775   1.241   4.903 -0.1997 -0.2427  0.5620
 3122SOL    HW312261   1.765   1.295   5.044 -0.0153 -0.4872  0.6686
 3122SOL    MW412262   1.812   1.259   4.980  0.3874  0.0353 -0.6436
 3123SOL     OW12263   2.207   2.886   1.829  0.2707 -0.5404 -0.1561
 3123SOL    HW212264   2.133   2.879   1.889 -0.7196  0.5304 -1.1844
 3123SOL    HW312265   2.260   2.958   1.864 -0.0932 -0.1841 -0.3184
 3123SOL    MW412266   2.204   2.895   1.842 -1.1575  0.6396 -0.0798
 3124SOL     OW12267   3.472   3.166   1.603 -0.0669 -0.0996 -0.5924
 3124SOL    HW212268   3.386   3.156   1.563  0.9926 -0.7910 -2.8543
 3124SOL    HW312269   3.475   3.257   1.632 -0.9672  0.3940 -1.9832
 3124SOL    MW412270   3.461   3.176   1.602  0.3078  0.5255  0.5460
 3125SOL     OW12271   2.937   2.525   2.973  0.0472  0.3967  0.5333
 3125SOL    HW212272   2.899   2.482   3.049  0.3028  0.7289  0.8520
 3125SOL    HW312273   2.870   2.518   2.905 -0.9903  1.8532  1.3763
 3125SOL    MW412274   2.923   2.518   2.974  0.0433 -0.0087 -0.1617
 3126SOL     OW12275   3.535   1.199   0.028 -0.1626 -0.0005 -0.3285
 3126SOL    HW212276   3.474   1.258   0.073  0.5119 -0.4968  1.3386
 3126SOL    HW312277   3.589   1.256  -0.025  0.2968  0.8912  1.0453
 3126SOL    MW412278   3.534   1.214   0.027 -0.5232 -0.1336  0.2752
 3127SOL     OW12279   5.768   2.943   1.075 -0.5851  0.3454  0.2852
 3127SOL    HW212280   5.757   2.896   0.992 -3.4936  1.1541  0.1320
 3127SOL    HW312281   5.793   3.032   1.048 -1.3123  0.5490  0.2715
 3127SOL    MW412282   5.770   2.948   1.060 -0.1854 -0.1828 -0.0278
 3128SOL     OW12283   0.613   1.054   2.144 -0.0702  1.1900  0.7741
 3128SOL    HW212284   0.527   1.082   2.174  0.4289  1.4354  2.0517
 3128SOL    HW312285   0.642   0.990   2.210  0.0353 -0.1564 -0.5321
 3128SOL    MW412286   0.605   1.049   2.157 -0.3972 -0.0895 -0.2803
 3129SOL     OW12287   1.621   1.544   5.563  0.3479  0.0944 -0.0740
 3129SOL    HW212288   1.699   1.520   5.513 -1.6735 -1.8502 -2.6082
 3129SOL    HW312289   1.549   1.500   5.517 -2.1139  0.7233  2.8755
 3129SOL    MW412290   1.622   1.535   5.550  0.6784  0.0523  0.4460
 3130SOL     OW12291   1.578   3.524   2.268 -0.2052 -0.3030  0.1505
 3130SOL    HW212292   1.617   3.458   2.326  0.4639  0.0898  0.1598
 3130SOL    HW312293   1.639   3.598   2.271 -0.9935  0.3524  0.2009
 3130SOL    MW412294   1.592   3.525   2.276  0.1913 -0.3570  0.2626
 3131SOL     OW12295   0.305   1.559   1.209 -0.2190 -0.0310  0.2791
 3131SOL    HW212296   0.235   1.500   1.234 -1.4109  1.3275  0.3130
 3131SOL    HW312297   0.300   1.565   1.114  1.9411 -2.3379 -0.1004
 3131SOL    MW412298   0.295   1.552   1.200 -0.3722 -0.7912  0.9032
 3132SOL     OW12299   0.611   1.480   6.100  0.0033 -0.1471 -0.3516
 3132SOL    HW212300   0.665   1.498   6.177  0.4492  0.5529 -0.8183
 3132SOL    HW312301   0.660   1.519   6.027 -0.9829  0.2396 -0.8200
 3132SOL    MW412302   0.625   1.488   6.101  0.1874 -0.0092 -0.0782
 3133SOL     OW12303   0.827   2.433   4.955  0.5283 -0.5402 -0.1165
 3133SOL    HW212304   0.887   2.431   5.029  0.4614  2.3823  0.1216
 3133SOL    HW312305   0.754   2.377   4.983  1.0926 -0.5435  1.4752
 3133SOL    MW412306   0.825   2.425   4.969  0.0633  0.3414  0.0640
 3134SOL     OW12307   1.180   2.719   4.871 -0.5655 -0.7282 -0.0357
 3134SOL    HW212308   1.179   2.627   4.844 -0.2645 -0.5135 -0.8122
 3134SOL    HW312309   1.132   2.721   4.954 -2.0734 -1.3253 -0.8637
 3134SOL    MW412310   1.174   2.707   4.878  0.7031 -0.0475 -0.0070
 3135SOL     OW12311   1.535   4.401   3.577 -0.9444 -0.5194 -0.3028
 3135SOL    HW212312   1.486   4.323   3.603 -0.1681 -0.7105  0.6173
 3135SOL    HW312313   1.627   4.376   3.585 -0.6558  0.7665  0.9440
 3135SOL    MW412314   1.540   4.388   3.581 -0.7584  0.0979 -0.2975
 3136SOL     OW12315   2.340   0.896   1.903  0.1129 -0.1980  0.2991
 3136SOL    HW212316   2.315   0.960   1.836 -0.4539  0.2993  0.9704
 3136SOL    HW312317   2.436   0.901   1.906  0.1362 -0.1287 -0.3790
 3136SOL    MW412318   2.350   0.905   1.895  0.3212  0.0460 -0.5128
 3137SOL     OW12319   3.314   2.329   1.194  0.3874  0.0354 -0.2333
 3137SOL    HW212320   3.397   2.354   1.154  0.8510 -0.2918  0.4996
 3137SOL    HW312321   3.338   2.264   1.260 -0.0436  2.2520  2.2435
 3137SOL    MW412322   3.328   2.323   1.197  0.3980 -0.1456  0.4857
 3138SOL     OW12323   2.103   2.756   3.558 -0.1306 -0.1443 -0.4773
 3138SOL    HW212324   2.178   2.807   3.588  0.5047 -0.5972 -1.2764
 3138SOL    HW312325   2.073   2.802   3.480 -0.8286  0.1582 -0.0398
 3138SOL    MW412326   2.109   2.769   3.552 -0.0594  0.4615 -0.0202
 3139SOL     OW12327   6.342   2.698   1.637 -0.3246  0.1425  0.5047
 3139SOL    HW212328   6.365   2.674   1.547  0.6078  1.8643  0.2403
 3139SOL    HW312329   6.311   2.789   1.630 -1.4201 -0.1129  1.7613
 3139SOL    MW412330   6.341   2.707   1.624 -0.4225 -0.4100  0.3877
 3140SOL     OW12331   0.909   1.399   4.019 -0.3869  0.3754  0.1598
 3140SOL    HW212332   0.906   1.310   3.983  0.0304  0.5414 -0.2897
 3140SOL    HW312333   0.854   1.451   3.961 -0.7884  0.3778  0.5342
 3140SOL    MW412334   0.902   1.394   4.007  0.2184  0.2323 -0.4136
 3141SOL     OW12335   4.546   4.232   4.975 -0.1832 -0.2257  0.1251
 3141SOL    HW212336   4.621   4.171   4.971  1.1743  1.3320  0.6720
 3141SOL    HW312337   4.571   4.295   5.042 -1.6339  0.8421 -0.3048
 3141SOL    MW412338   4.559   4.232   4.984 -0.4398  0.3244 -0.1501
 3142SOL     OW12339   0.400   1.316   1.799  0.4330  0.1114 -0.4994
 3142SOL    HW212340   0.330   1.291   1.859  0.1524  0.7254 -0.5651
 3142SOL    HW312341   0.476   1.266   1.829  0.3985  0.6973  0.6166
 3142SOL    MW412342   0.401   1.306   1.811 -0.1816  0.2958 -0.0269
 3143SOL     OW12343   2.880   0.673   5.618  0.2296 -0.0437  0.4659
 3143SOL    HW212344   2.916   0.733   5.552  1.2853 -0.5471  0.5656
 3143SOL    HW312345   2.787   0.665   5.595  0.4985  0.0970 -0.7270
 3143SOL    MW412346   2.872   0.680   5.606 -0.2911 -0.7047  0.1259
 3144SOL     OW12347   3.305   5.636   5.253 -0.1241 -0.1033  0.2235
 3144SOL    HW212348   3.255   5.633   5.335  1.2652 -1.2626  1.0828
 3144SOL    HW312349   3.317   5.729   5.236  0.9006  0.1989  2.2371
 3144SOL    MW412350   3.300   5.648   5.262  0.1564  0.4607  0.2769
 3145SOL     OW12351   0.754   5.520   2.608  0.1397  0.3254  0.2385
 3145SOL    HW212352   0.814   5.446   2.595  0.2308  0.6203 -1.1912
 3145SOL    HW312353   0.695   5.490   2.677  1.5752 -0.1804  1.3044
 3145SOL    MW412354   0.754   5.506   2.616 -0.1010  0.3809 -0.0077
 3146SOL     OW12355   1.218   3.655   4.159 -0.3251  0.5132 -0.4040
 3146SOL    HW212356   1.179   3.659   4.247 -1.5878 -4.1666 -0.4973
 3146SOL    HW312357   1.149   3.618   4.104  0.6758  2.6542 -3.3188
 3146SOL    MW412358   1.203   3.651   4.164 -0.2122  0.0706  0.0993
 3147SOL     OW12359   4.814   3.287   2.761  0.0132  0.3613  0.2746
 3147SOL    HW212360   4.882   3.303   2.694  0.1597  2.3227  0.8177
 3147SOL    HW312361   4.846   3.335   2.838 -1.1808 -0.1077  1.0737
 3147SOL    MW412362   4.827   3.296   2.762 -0.3755 -0.3985 -0.5120
 3148SOL     OW12363   4.016   2.341   2.311 -0.3523 -0.9103  0.2341
 3148SOL    HW212364   4.000   2.327   2.404 -1.4803 -2.9567 -0.2156
 3148SOL    HW312365   3.987   2.431   2.296 -0.0017 -0.4852  1.8645
 3148SOL    MW412366   4.010   2.351   2.321  0.5818 -0.3592  0.1387
 3149SOL     OW12367   3.716   1.133   5.120  0.3213 -0.3923  0.0658
 3149SOL    HW212368   3.766   1.105   5.043  1.9398 -1.4352  1.4369
 3149SOL    HW312369   3.677   1.053   5.154 -0.7219  0.1269  0.1273
 3149SOL    MW412370   3.717   1.119   5.114 -0.5875 -0.3549  0.1709
 3150SOL     OW12371   5.256   5.666   0.357  0.1307 -0.1754 -0.3299
 3150SOL    HW212372   5.278   5.671   0.264  0.0218 -1.9834 -0.4788
 3150SOL    HW312373   5.260   5.573   0.378  1.5482  0.3118  1.8286
 3150SOL    MW412374   5.259   5.655   0.347  0.6055 -0.5584  0.4491
 3151SOL     OW12375   1.803   4.010   5.025  0.8049 -0.2862  0.1568
 3151SOL    HW212376   1.846   4.090   5.052 -1.5689  1.3058 -0.4590
 3151SOL    HW312377   1.786   3.963   5.107  0.2468  0.9327  0.7731
 3151SOL    MW412378   1.806   4.014   5.039  0.0848 -0.0270  0.5956
 3152SOL     OW12379   6.184   5.658   4.804 -0.1600 -0.0032 -0.1723
 3152SOL    HW212380   6.173   5.641   4.711 -0.1603 -0.1461 -0.1468
 3152SOL    HW312381   6.278   5.665   4.817 -0.0538 -1.5925  0.0880
 3152SOL    MW412382   6.195   5.656   4.794 -0.1029 -0.4265 -0.0949
 3153SOL     OW12383   2.360   1.159   1.527 -0.2625 -0.2627 -0.3522
 3153SOL    HW212384   2.296   1.188   1.462 -0.4747  0.6595  0.2402
 3153SOL    HW312385   2.313   1.163   1.611  0.4814  0.1661  0.0578
 3153SOL    MW412386   2.345   1.163   1.530  0.2150 -0.4236 -0.9694
 3154SOL     OW12387   1.388   2.855   4.989 -0.1040  0.8365 -0.3224
 3154SOL    HW212388   1.476   2.855   4.951 -0.6352  0.2084 -1.6024
 3154SOL    HW312389   1.336   2.799   4.931 -1.5213  1.7501  0.0120
 3154SOL    MW412390   1.393   2.848   4.976 -0.1720 -0.4036 -0.3551
 3155SOL     OW12391   2.764   2.174   4.626  0.2891 -0.0019 -0.1790
 3155SOL    HW212392   2.849   2.188   4.585  0.4804 -0.1696  0.1540
 3155SOL    HW312393   2.783   2.165   4.719  0.0122 -0.9140 -0.1973
 3155SOL    MW412394   2.778   2.175   4.633  0.0103  0.6498 -0.0511
 3156SOL     OW12395   1.193   0.228   2.238  0.2454 -0.1891  0.0271
 3156SOL    HW212396   1.151   0.232   2.324 -2.6866  0.7734 -1.3288
 3156SOL    HW312397   1.235   0.314   2.229 -1.6719  0.7602 -0.4594
 3156SOL    MW412398   1.193   0.240   2.248 -0.1898 -0.1596 -0.0432
 3157SOL     OW12399   4.433   3.206   0.930  0.1535 -0.6667  0.6909
 3157SOL    HW212400   4.490   3.133   0.904 -1.0660 -0.9379 -1.4532
 3157SOL    HW312401   4.381   3.171   1.001 -0.1531 -1.8002 -0.0638
 3157SOL    MW412402   4.434   3.192   0.936  0.2007 -0.2878  0.1910
 3158SOL     OW12403   4.786   6.451   3.557  0.2281 -0.1335 -0.5627
 3158SOL    HW212404   4.851   6.486   3.617 -0.0230  0.0257 -0.3784
 3158SOL    HW312405   4.764   6.525   3.499 -0.8980  0.2790  0.3404
 3158SOL    MW412406   4.791   6.465   3.557  0.4496 -0.2180  0.7771
 3159SOL     OW12407   2.127   0.095   3.846 -0.7686 -0.3718  0.2452
 3159SOL    HW212408   2.046   0.079   3.798 -0.0047 -1.4789 -0.7247
 3159SOL    HW312409   2.155   0.182   3.817  0.8265 -1.8609 -3.1421
 3159SOL    MW412410   2.120   0.105   3.836 -0.0246  0.6812  0.0419
 3160SOL     OW12411   6.228   4.756   1.089 -0.3718 -0.4503 -0.0794
 3160SOL    HW212412   6.209   4.724   1.177 -2.6235 -1.9253 -0.9906
 3160SOL    HW312413   6.318   4.730   1.073  0.1935  0.1424  1.8710
 3160SOL    MW412414   6.237   4.748   1.099 -0.1432 -0.2626 -0.5554
 3161SOL     OW12415   6.403   3.528   0.991  0.3273  0.6743 -0.3154
 3161SOL    HW212416   6.373   3.561   0.906 -1.2292 -1.0383 -0.5046
 3161SOL    HW312417   6.478   3.472   0.969  1.7087  2.3742 -0.1965
 3161SOL    MW412418   6.409   3.525   0.977 -0.7627 -0.1500 -0.5887
 3162SOL     OW12419   3.101   1.911   2.981 -0.0241  0.4890 -0.2076
 3162SOL    HW212420   3.067   2.000   2.993 -0.2617  0.4882 -0.8257
 3162SOL    HW312421   3.025   1.859   2.957 -0.2147 -0.2652  1.8304
 3162SOL    MW412422   3.087   1.916   2.979 -0.1611 -0.1672 -0.1167
 3163SOL     OW12423   4.027   3.163   4.375  0.0466  0.1987  0.1756
 3163SOL    HW212424   3.975   3.087   4.349 -0.0730  0.4507 -0.3453
 3163SOL    HW312425   3.998   3.233   4.316 -1.7705  1.4124  2.3356
 3163SOL    MW412426   4.016   3.162   4.364 -0.2334 -0.0028  0.1603
 3164SOL     OW12427   2.206   1.281   1.316  0.1783 -0.3147 -0.2143
 3164SOL    HW212428   2.232   1.362   1.272  5.4742 -2.0293 -0.9581
 3164SOL    HW312429   2.199   1.217   1.246  2.4478 -1.7467  0.7704
 3164SOL    MW412430   2.209   1.283   1.301 -0.0310 -0.6066  0.1992
 3165SOL     OW12431   3.918   1.148   4.910  0.3561  0.0034  0.0960
 3165SOL    HW212432   3.999   1.119   4.954 -0.3058 -0.0322  1.3452
 3165SOL    HW312433   3.922   1.243   4.915  0.4237  0.0066 -0.0266
 3165SOL    MW412434   3.929   1.157   4.917  0.2162 -0.4243  0.2341
 3166SOL     OW12435   0.799   6.216   3.815 -0.0622  0.0159  0.2167
 3166SOL    HW212436   0.738   6.163   3.762 -0.9481  0.2770  0.9424
 3166SOL    HW312437   0.835   6.154   3.878  0.6298 -0.1910 -0.3629
 3166SOL    MW412438   0.795   6.201   3.816 -0.0702 -0.2463  0.6746
 3167SOL     OW12439   4.407   3.392   1.333 -0.4415 -0.2302 -0.4018
 3167SOL    HW212440   4.380   3.359   1.418  0.2642 -1.6510 -0.7081
 3167SOL    HW312441   4.351   3.469   1.319 -2.4005 -1.4774  0.1862
 3167SOL    MW412442   4.396   3.398   1.342 -0.0583 -0.9364 -0.5299
 3168SOL     OW12443   6.375   3.704   5.681  0.4582  0.1918  0.8001
 3168SOL    HW212444   6.441   3.708   5.750 -0.6897  3.3645  1.9233
 3168SOL    HW312445   6.296   3.742   5.722 -0.8836  0.2374 -1.6386
 3168SOL    MW412446   6.373   3.710   5.695 -0.1756 -0.0862 -0.7010
 3169SOL     OW12447   0.704   2.572   1.066  0.2858 -0.4524  0.0507
 3169SOL    HW212448   0.628   2.629   1.061  1.0022  0.4011 -1.5574
 3169SOL    HW312449   0.758   2.595   0.990  0.7319 -3.0856 -0.5400
 3169SOL    MW412450   0.701   2.582   1.056  0.8082  0.1268  0.4517
 3170SOL     OW12451   0.002   2.138   0.963  0.3841 -0.1532  0.3928
 3170SOL    HW212452   0.007   2.149   0.868 -0.3029  0.5706  0.4343
 3170SOL    HW312453   0.079   2.183   0.997  0.3230  0.0829  0.2181
 3170SOL    MW412454   0.013   2.145   0.955 -0.2219 -0.4080  0.0200
 3171SOL     OW12455   6.054   4.429   0.922 -0.1270 -0.2872  0.2071
 3171SOL    HW212456   6.047   4.365   0.993 -0.6904 -1.0280 -0.4896
 3171SOL    HW312457   6.146   4.455   0.922 -0.4821  1.2296  2.4600
 3171SOL    MW412458   6.065   4.424   0.931 -0.3040 -0.1659 -0.7514
 3172SOL     OW12459   1.702   0.583   2.343  0.3570 -0.3534 -0.6767
 3172SOL    HW212460   1.624   0.538   2.377  0.5601  0.4174  0.8991
 3172SOL    HW312461   1.761   0.513   2.317 -0.4192 -0.9565 -0.8650
 3172SOL    MW412462   1.699   0.568   2.344  0.2665  0.3682  0.5457
 3173SOL     OW12463   1.327   1.707   6.089  0.0477 -0.5870 -0.1837
 3173SOL    HW212464   1.280   1.784   6.056  1.1485  0.2851  0.1946
 3173SOL    HW312465   1.338   1.651   6.013  2.2130  1.2202 -1.3279
 3173SOL    MW412466   1.322   1.710   6.075 -0.3493  0.2651  0.4084
 3174SOL     OW12467   5.500   0.639   0.490 -0.1090 -0.1846  0.6647
 3174SOL    HW212468   5.437   0.575   0.522  1.3973 -2.7543 -1.0826
 3174SOL    HW312469   5.568   0.642   0.557 -1.1670  1.3087  1.7475
 3174SOL    MW412470   5.500   0.631   0.503 -0.3014 -0.0157  0.2638
 3175SOL     OW12471   3.835   5.035   1.810 -0.5020  0.2229  0.7759
 3175SOL    HW212472   3.924   5.066   1.827  0.3784 -1.5163 -0.3400
 3175SOL    HW312473   3.812   4.983   1.887  0.3188 -1.0301  0.2241
 3175SOL    MW412474   3.844   5.032   1.822 -0.0107  0.8214  0.2544
 3176SOL     OW12475   2.425   3.865   2.471 -0.0799  0.3494 -0.0908
 3176SOL    HW212476   2.503   3.809   2.475  0.0471  0.4727 -0.7189
 3176SOL    HW312477   2.450   3.943   2.521 -0.5020 -0.4250  1.3837
 3176SOL    MW412478   2.439   3.868   2.478 -0.5545  0.0958  0.2717
 3177SOL     OW12479   2.984   2.140   1.193  0.0014  0.2244  0.8206
 3177SOL    HW212480   2.911   2.190   1.159  0.4365 -0.1820 -0.7845
 3177SOL    HW312481   3.061   2.179   1.152  0.5031 -0.6431  0.9172
 3177SOL    MW412482   2.985   2.152   1.183  0.3020  0.2912 -0.2429
 3178SOL     OW12483   5.636   2.794   0.574  0.5503  0.2153 -0.9519
 3178SOL    HW212484   5.706   2.832   0.520  0.9350  0.8139 -0.0599
 3178SOL    HW312485   5.576   2.866   0.590  1.9563  0.9121  1.8471
 3178SOL    MW412486   5.638   2.808   0.569  0.5788  0.1821 -0.0738
 3179SOL     OW12487   4.241   3.450   4.329  0.2979 -0.6740  0.2847
 3179SOL    HW212488   4.183   3.524   4.309 -0.7776 -1.1910  1.3200
 3179SOL    HW312489   4.280   3.472   4.413  0.8319 -0.7937  0.0706
 3179SOL    MW412490   4.238   3.463   4.337  0.1535 -0.0592 -0.7599
 3180SOL     OW12491   2.746   1.919   4.536 -0.8871  0.4260 -0.4962
 3180SOL    HW212492   2.795   1.924   4.454  2.0850  0.3887  1.1321
 3180SOL    HW312493   2.762   2.002   4.579 -3.1812  0.8135 -0.2825
 3180SOL    MW412494   2.754   1.930   4.531 -0.3409  0.3303  0.1989
 3181SOL     OW12495   1.692   5.416   6.194 -0.4156  0.0626 -0.3821
 3181SOL    HW212496   1.638   5.400   6.116  1.5787 -1.1377 -1.5948
 3181SOL    HW312497   1.669   5.505   6.221 -2.0899  0.0329 -1.5536
 3181SOL    MW412498   1.682   5.426   6.187  0.5281 -0.1591  0.4870
 3182SOL     OW12499   1.218   1.276   5.240  0.8856  0.2824  0.0545
 3182SOL    HW212500   1.199   1.183   5.248  0.4821  0.2764 -0.8825
 3182SOL    HW312501   1.139   1.320   5.272  0.0851  0.2693 -1.7874
 3182SOL    MW412502   1.205   1.270   5.245 -0.3107 -0.5771  0.1814
 3183SOL     OW12503   2.122   4.368   0.797  0.2748  0.3376 -0.0883
 3183SOL    HW212504   2.177   4.445   0.814  2.7647 -1.1339 -1.0331
 3183SOL    HW312505   2.159   4.328   0.718 -0.3277 -2.3372  0.8722
 3183SOL    MW412506   2.134   4.373   0.789 -0.3606  0.1047 -0.0484
 3184SOL     OW12507   1.392   3.455   0.369  0.3904 -0.0724  0.1935
 3184SOL    HW212508   1.460   3.520   0.391  0.2102 -0.2877  1.4536
 3184SOL    HW312509   1.310   3.503   0.377  0.3103 -0.2011  0.1381
 3184SOL    MW412510   1.390   3.470   0.373  0.0739  0.0244  0.8587
 3185SOL     OW12511   3.835   4.808   1.267  0.1511  0.1632  0.2365
 3185SOL    HW212512   3.919   4.827   1.309 -0.3824  0.5375  1.1595
 3185SOL    HW312513   3.775   4.873   1.303 -0.9933 -1.3058  1.1199
 3185SOL    MW412514   3.838   4.819   1.277 -0.0203  0.1322  0.1160
 3186SOL     OW12515   6.160   3.262   2.764 -0.2138  0.4235  0.0073
 3186SOL    HW212516   6.236   3.273   2.708  0.2463 -1.4673  0.1695
 3186SOL    HW312517   6.094   3.221   2.708 -0.9620  1.5736  0.0035
 3186SOL    MW412518   6.161   3.258   2.749  0.9153 -0.3200 -0.6596
 3187SOL     OW12519   2.910   6.396   4.363 -0.5434  0.9086  0.3166
 3187SOL    HW212520   2.874   6.331   4.424 -0.3353  2.6845  2.4803
 3187SOL    HW312521   3.005   6.383   4.367 -0.5640  0.6128 -0.1338
 3187SOL    MW412522   2.918   6.386   4.372 -0.3936 -0.0023 -0.4522
 3188SOL     OW12523   1.830   2.694   4.494 -0.8425 -0.5889 -0.0648
 3188SOL    HW212524   1.755   2.672   4.550 -1.4397  1.4602  0.0542
 3188SOL    HW312525   1.803   2.668   4.406 -1.6974  0.0725 -0.0123
 3188SOL    MW412526   1.816   2.688   4.490 -0.0028 -0.2936 -0.8444
 3189SOL     OW12527   6.042   4.513   5.136 -0.1570 -0.5668 -0.2670
 3189SOL    HW212528   6.119   4.465   5.167  0.6618  0.1508 -1.1495
 3189SOL    HW312529   6.074   4.565   5.063 -1.1941  0.7288  0.1702
 3189SOL    MW412530   6.056   4.513   5.131  0.5214 -0.2455  0.3798
 3190SOL     OW12531   0.508   3.007   6.316 -0.0038 -0.3538 -0.0014
 3190SOL    HW212532   0.536   2.922   6.352  0.8675 -0.6620 -1.3065
 3190SOL    HW312533   0.567   3.070   6.357 -0.2608 -0.4524  0.5262
 3190SOL    MW412534   0.520   3.004   6.326 -0.0667 -0.5861  0.1096
 3191SOL     OW12535   0.332   1.104   2.203  0.4465  0.1633  0.0258
 3191SOL    HW212536   0.254   1.052   2.185  0.4517  0.2913 -0.3634
 3191SOL    HW312537   0.298   1.189   2.231  0.4241 -0.2293  1.2789
 3191SOL    MW412538   0.317   1.108   2.205  0.2735 -0.5392 -0.2401
 3192SOL     OW12539   4.565   0.176   2.130 -0.0715  0.2628 -0.0638
 3192SOL    HW212540   4.601   0.230   2.060  0.4403  0.0743  0.0501
 3192SOL    HW312541   4.495   0.229   2.168  1.9339  1.9025  1.6222
 3192SOL    MW412542   4.560   0.190   2.126  0.0427  0.1008 -0.7267
 3193SOL     OW12543   0.784   5.122   0.762 -0.2014 -0.6506  0.1344
 3193SOL    HW212544   0.815   5.064   0.832 -0.4721  1.6058  2.2800
 3193SOL    HW312545   0.842   5.104   0.688  1.1086 -2.0636  1.4416
 3193SOL    MW412546   0.796   5.112   0.762  0.1341 -0.5156 -0.1853
 3194SOL     OW12547   0.938   2.087   5.048 -0.3846  0.3898  0.1302
 3194SOL    HW212548   0.858   2.061   5.095 -0.2350  0.2344  0.3000
 3194SOL    HW312549   0.935   2.182   5.047 -0.3377  0.3965  0.5437
 3194SOL    MW412550   0.927   2.096   5.054  0.5120 -0.9556 -0.4373
 3195SOL     OW12551   6.341   1.854   5.419 -0.0133  0.2096  0.1123
 3195SOL    HW212552   6.260   1.803   5.424 -0.5887  0.9869 -0.8563
 3195SOL    HW312553   6.405   1.793   5.381 -0.3772 -0.1422  0.0486
 3195SOL    MW412554   6.339   1.839   5.415  0.2214  0.1834  0.1287
 3196SOL     OW12555   1.378   5.509   3.584 -0.2775 -0.6363 -0.1479
 3196SOL    HW212556   1.457   5.531   3.536  0.1116  1.4382  1.3246
 3196SOL    HW312557   1.394   5.421   3.618  1.1695 -0.4522 -0.3181
 3196SOL    MW412558   1.390   5.500   3.582 -0.2444 -0.0561  0.0530
 3197SOL     OW12559   3.246   2.660   6.227 -0.0519  0.4594 -0.3852
 3197SOL    HW212560   3.260   2.628   6.317 -0.2273 -2.0680 -1.1723
 3197SOL    HW312561   3.151   2.660   6.216 -0.0077 -0.9492 -1.0652
 3197SOL    MW412562   3.235   2.656   6.238 -0.2422 -0.0932  0.0757
 3198SOL     OW12563   1.646   4.104   3.446 -0.3855  0.2255 -0.2063
 3198SOL    HW212564   1.593   4.097   3.526  0.2136 -1.5393  0.0894
 3198SOL    HW312565   1.714   4.038   3.458  0.5145  0.8771 -1.5979
 3198SOL    MW412566   1.648   4.095   3.458 -0.4745  0.3798 -0.2435
 3199SOL     OW12567   0.859   4.713   2.755  0.5142 -0.7020 -0.0644
 3199SOL    HW212568   0.875   4.653   2.828  0.2387 -2.5094 -1.4069
 3199SOL    HW312569   0.928   4.693   2.692 -0.1900 -0.3421 -0.9811
 3199SOL    MW412570   0.870   4.703   2.756  0.2150 -0.3959 -0.5328
 3200SOL     OW12571   3.287   4.259   5.420 -0.0782 -0.0301  0.1460
 3200SOL    HW212572   3.237   4.181   5.443  0.3416 -0.5612 -0.7295
 3200SOL    HW312573   3.235   4.302   5.353 -0.3439  0.4932  0.6759
 3200SOL    MW412574   3.274   4.255   5.415  0.0613  0.4077 -0.0291
 3201SOL     OW12575   3.750   0.482   0.405  0.3046 -0.1901 -0.0683
 3201SOL    HW212576   3.806   0.484   0.483  0.5899  0.5776 -0.2777
 3201SOL    HW312577   3.782   0.407   0.355 -0.3023 -1.0832  0.8377
 3201SOL    MW412578   3.762   0.473   0.409  0.5136  0.4903  0.0927
 3202SOL     OW12579   3.313   5.850   5.512 -0.3016  0.1420  0.7870
 3202SOL    HW212580   3.304   5.848   5.607 -0.6166  1.3079  0.7895
 3202SOL    HW312581   3.241   5.905   5.482 -0.5224 -0.6351 -0.1798
 3202SOL    MW412582   3.302   5.857   5.520  0.1716 -0.1699 -0.0208
 3203SOL     OW12583   4.264   2.202   2.943  0.0698 -0.0008  1.0080
 3203SOL    HW212584   4.318   2.141   2.892 -0.5049 -1.7027  2.3315
 3203SOL    HW312585   4.179   2.200   2.900  0.0662 -0.0834  1.0193
 3203SOL    MW412586   4.260   2.194   2.931 -0.4270  0.5985 -0.2901
 3204SOL     OW12587   1.525   3.156   5.155 -0.5792 -0.3083  0.1645
 3204SOL    HW212588   1.472   3.221   5.109 -0.0904 -0.0529 -0.0357
 3204SOL    HW312589   1.463   3.085   5.174 -1.0574  0.0982  0.1641
 3204SOL    MW412590   1.510   3.155   5.151  0.7634 -0.0165 -0.5737
 3205SOL     OW12591   3.029   0.104   0.741 -0.1708  0.2593  0.1567
 3205SOL    HW212592   3.087   0.179   0.759  0.9425 -0.8901  1.6120
 3205SOL    HW312593   2.969   0.102   0.815 -0.0378 -0.4158  0.2504
 3205SOL    MW412594   3.029   0.114   0.753 -0.1977  0.0456 -0.0733
 3206SOL     OW12595   2.532   3.465   6.329 -0.3629 -0.8445 -0.7089
 3206SOL    HW212596   2.564   3.411   6.401 -0.1447 -0.5246 -0.5645
 3206SOL    HW312597   2.475   3.406   6.279 -1.0082 -0.9031  0.0636
 3206SOL    MW412598   2.529   3.450   6.332  0.4793  0.4577 -0.3407
 3207SOL     OW12599   3.895   1.802   4.711  0.1430 -0.3947 -0.2893
 3207SOL    HW212600   3.819   1.849   4.745  0.6636  1.4392 -1.4807
 3207SOL    HW312601   3.872   1.784   4.619  1.0132 -0.0708 -0.5804
 3207SOL    MW412602   3.882   1.806   4.703  0.0349 -0.3709  0.1146
 3208SOL     OW12603   5.332   5.092   2.284  0.4200 -0.0858 -0.0271
 3208SOL    HW212604   5.352   5.001   2.308  2.8722  0.2677 -0.4478
 3208SOL    HW312605   5.407   5.120   2.231 -1.9888  1.0679 -3.1013
 3208SOL    MW412606   5.345   5.084   2.280  0.0562 -0.1591 -0.3217
 3209SOL     OW12607   6.220   6.103   2.124  0.1290 -0.2576  0.1120
 3209SOL    HW212608   6.304   6.071   2.157  0.2720 -0.1935 -0.1785
 3209SOL    HW312609   6.168   6.119   2.202 -0.4185 -2.3944  0.2302
 3209SOL    MW412610   6.224   6.101   2.138  0.5526 -0.7939  0.2604
 3210SOL     OW12611   0.402   0.716   2.097 -0.0471  0.0052 -0.5177
 3210SOL    HW212612   0.452   0.765   2.032  0.4942  0.3300  0.1363
 3210SOL    HW312613   0.381   0.634   2.054 -1.0416  0.8278 -1.6664
 3210SOL    MW412614   0.406   0.712   2.083 -0.4882  0.0774 -0.1992
 3211SOL     OW12615   3.064   3.121   5.317  0.2216  0.5362  0.7414
 3211SOL    HW212616   3.009   3.190   5.353 -0.3709  0.7462 -0.5021
 3211SOL    HW312617   3.015   3.041   5.330 -0.1684  0.6599  0.0955
 3211SOL    MW412618   3.050   3.120   5.323 -0.1594  0.4880 -0.3056
 3212SOL     OW12619   4.957   3.726   4.770  0.7503 -0.4107  0.2728
 3212SOL    HW212620   4.977   3.674   4.693  1.0806  0.8490 -0.5204
 3212SOL    HW312621   5.031   3.786   4.779 -0.8798  1.8542 -0.5345
 3212SOL    MW412622   4.969   3.727   4.761 -0.1605 -0.2532  0.1640
 3213SOL     OW12623   3.057   5.754   2.794  0.3249 -0.2646 -1.0636
 3213SOL    HW212624   2.990   5.757   2.726 -1.3241  2.5491  0.5117
 3213SOL    HW312625   3.087   5.844   2.803  1.3465 -0.7510  1.0965
 3213SOL    MW412626   3.052   5.766   2.787 -0.2917  0.3439  0.3373
 3214SOL     OW12627   4.954   4.426   1.081 -0.5469  0.1463  0.4493
 3214SOL    HW212628   4.927   4.509   1.121 -1.2127  0.3721 -0.4374
 3214SOL    HW312629   4.913   4.427   0.995 -2.9136 -2.3596  1.4249
 3214SOL    MW412630   4.945   4.437   1.075 -0.1575  0.1307  0.3978
 3215SOL     OW12631   3.193   4.407   5.165  0.0160 -0.0763  0.2012
 3215SOL    HW212632   3.208   4.347   5.092  0.5894  0.6132 -0.2523
 3215SOL    HW312633   3.099   4.424   5.163 -0.3007 -1.5782  0.8309
 3215SOL    MW412634   3.183   4.401   5.155  0.3085  0.1897  0.3374
 3216SOL     OW12635   6.114   0.256   0.538  0.0227  0.2217  0.0042
 3216SOL    HW212636   6.133   0.244   0.445 -0.5586  1.3350 -0.2860
 3216SOL    HW312637   6.137   0.173   0.579 -0.1851 -0.4560 -1.2133
 3216SOL    MW412638   6.119   0.244   0.532 -0.0700 -0.3589  0.0713
 3217SOL     OW12639   5.227   4.988   1.652 -0.2824  0.0390  0.2198
 3217SOL    HW212640   5.145   5.009   1.696  0.0831  1.9280  0.0731
 3217SOL    HW312641   5.289   4.970   1.723 -0.0351  1.7714  0.4867
 3217SOL    MW412642   5.224   4.988   1.667 -0.1387 -0.7696 -0.3334
 3218SOL     OW12643   5.785   4.729   1.536  0.3889  0.1322  0.3713
 3218SOL    HW212644   5.806   4.818   1.507 -0.2173 -0.2830 -1.5304
 3218SOL    HW312645   5.812   4.674   1.462 -1.0437 -1.0488  0.6912
 3218SOL    MW412646   5.791   4.734   1.522 -0.2531 -0.3287  0.0952
 3219SOL     OW12647   4.624   3.609   1.606 -0.0125 -0.0845  0.1953
 3219SOL    HW212648   4.646   3.603   1.513 -0.5804  0.6114  0.0111
 3219SOL    HW312649   4.571   3.530   1.622 -2.6347  1.3238 -0.8716
 3219SOL    MW412650   4.620   3.598   1.596 -0.0773  0.1469 -0.3312
 3220SOL     OW12651   4.547   3.602   3.490 -0.0445  0.2571 -0.1220
 3220SOL    HW212652   4.583   3.684   3.524  0.0806  0.8374 -1.6026
 3220SOL    HW312653   4.611   3.535   3.515 -0.0298  0.6301  0.8800
 3220SOL    MW412654   4.560   3.604   3.498 -0.0714 -0.1692 -0.1132
 3221SOL     OW12655   1.736   5.129   1.891  0.3566  0.3886  0.0410
 3221SOL    HW212656   1.664   5.172   1.845  1.5263  2.7426  0.2698
 3221SOL    HW312657   1.749   5.047   1.843 -1.3482  0.6966 -1.0348
 3221SOL    MW412658   1.728   5.124   1.878 -0.1769 -0.3387 -0.0926
 3222SOL     OW12659   0.068   4.803   2.618  0.0910 -0.2193  0.0870
 3222SOL    HW212660   0.011   4.818   2.543  0.3988  0.8873  0.0460
 3222SOL    HW312661   0.020   4.840   2.692  0.9049  1.1429 -0.0193
 3222SOL    MW412662   0.054   4.810   2.618  0.2971 -0.1361  0.0022
 3223SOL     OW12663   1.908   4.091   3.695  0.2847  0.3708 -0.2530
 3223SOL    HW212664   2.000   4.078   3.718  0.2859  0.3700 -0.2588
 3223SOL    HW312665   1.889   4.019   3.634 -0.0942 -0.4530  0.7978
 3223SOL    MW412666   1.918   4.080   3.690  0.6980  0.7355 -0.3731
 3224SOL     OW12667   3.784   1.318   5.596  0.3588  0.1664 -0.0145
 3224SOL    HW212668   3.776   1.285   5.685 -0.7333  2.2987  0.7493
 3224SOL    HW312669   3.702   1.364   5.580  1.1459  1.1050 -1.5698
 3224SOL    MW412670   3.772   1.320   5.606 -0.2229 -0.6800 -0.0705
 3225SOL     OW12671   2.428   0.065   2.544  0.6558 -0.2648 -0.0367
 3225SOL    HW212672   2.497   0.131   2.546  0.7299 -0.3084 -0.8175
 3225SOL    HW312673   2.387   0.076   2.458 -1.0774  0.5488  0.8629
 3225SOL    MW412674   2.432   0.075   2.533 -0.0902 -0.7524  0.0514
 3226SOL     OW12675   0.034   1.626   5.629  0.3508  0.6491 -0.1655
 3226SOL    HW212676   0.071   1.711   5.651  0.2461  0.8084 -0.6071
 3226SOL    HW312677  -0.057   1.631   5.658  1.0669 -0.3567  2.5731
 3226SOL    MW412678   0.027   1.638   5.636 -0.3495 -0.1648  0.0305
 3227SOL     OW12679   6.018   0.618   3.805 -0.1917 -0.2265  0.1206
 3227SOL    HW212680   5.985   0.556   3.740 -0.4778 -0.1857  0.2287
 3227SOL    HW312681   6.110   0.631   3.779 -0.1819 -0.5413 -0.0190
 3227SOL    MW412682   6.026   0.611   3.793  0.2198  0.2713  0.5571
 3228SOL     OW12683   0.364   6.379   3.130 -0.2250  0.4532 -0.0733
 3228SOL    HW212684   0.314   6.340   3.203 -0.7230  2.0343  0.4861
 3228SOL    HW312685   0.373   6.308   3.067 -1.4356 -0.4564  0.7087
 3228SOL    MW412686   0.358   6.365   3.132  0.1277  0.1191  0.5049
 3229SOL     OW12687   2.234   0.733   3.435  0.0868  0.1152 -0.3465
 3229SOL    HW212688   2.143   0.704   3.440 -0.1652  0.3801 -2.4273
 3229SOL    HW312689   2.270   0.713   3.521 -1.5306 -1.3739  0.0559
 3229SOL    MW412690   2.227   0.726   3.447  0.2566  0.0253  0.6611
 3230SOL     OW12691   2.838   5.771   1.467  0.3488 -0.6336  0.3157
 3230SOL    HW212692   2.829   5.849   1.521 -0.7939  0.8545 -1.8747
 3230SOL    HW312693   2.811   5.799   1.380  1.4200 -3.0973 -0.9016
 3230SOL    MW412694   2.833   5.785   1.463 -0.3073  0.1513  0.3580
 3231SOL     OW12695   2.823   1.838   4.254  0.2496 -0.0378 -0.3533
 3231SOL    HW212696   2.861   1.751   4.261 -1.2822 -0.7550 -0.5857
 3231SOL    HW312697   2.898   1.897   4.256  1.4113 -1.4084 -1.3744
 3231SOL    MW412698   2.838   1.835   4.256  0.2513 -0.6467  0.5049
 3232SOL     OW12699   3.580   3.039   2.149 -0.0079  0.2207 -0.4003
 3232SOL    HW212700   3.659   3.007   2.106  0.9704 -0.9804  2.0576
 3232SOL    HW312701   3.515   2.970   2.137  1.1535 -1.4960  2.2877
 3232SOL    MW412702   3.582   3.026   2.142  0.0658  0.2105  0.2687
 3233SOL     OW12703   2.106   5.370   5.245  0.4533 -0.3254  0.0379
 3233SOL    HW212704   2.177   5.319   5.285  0.6284  1.3634  2.0521
 3233SOL    HW312705   2.066   5.416   5.318 -0.8426  1.0362 -1.4652
 3233SOL    MW412706   2.110   5.369   5.260 -0.4561  0.6906  0.2052
 3234SOL     OW12707   3.984   2.339   0.705 -0.3072  0.6694 -0.5812
 3234SOL    HW212708   3.942   2.419   0.675 -0.7594  0.3499 -0.7970
 3234SOL    HW312709   3.983   2.346   0.801  0.3994  1.3012 -0.6074
 3234SOL    MW412710   3.978   2.351   0.714  0.8038 -0.6459  0.0903
 3235SOL     OW12711   0.042   5.517   0.548  0.4156 -0.0311  0.4592
 3235SOL    HW212712   0.137   5.530   0.544  0.5148 -0.3466  1.5334
 3235SOL    HW312713   0.026   5.480   0.635 -0.5259 -1.4078 -0.2517
 3235SOL    MW412714   0.052   5.514   0.559  0.2679  0.2207 -0.4031
 3236SOL     OW12715   6.111   1.396   5.648  0.3156 -0.0490 -0.0715
 3236SOL    HW212716   6.197   1.354   5.652  1.5082  2.2709  3.5265
 3236SOL    HW312717   6.063   1.358   5.722 -0.7994  0.5649 -0.4663
 3236SOL    MW412718   6.116   1.385   5.658  0.9304  0.3195  0.3269
 3237SOL     OW12719   5.158   5.344   1.656  0.3108 -0.0782 -0.3248
 3237SOL    HW212720   5.179   5.299   1.737 -0.5090 -0.7602 -0.4778
 3237SOL    HW312721   5.215   5.304   1.590 -0.6941 -1.2070 -0.5392
 3237SOL    MW412722   5.168   5.333   1.658  0.6737  0.2250 -0.1125
 3238SOL     OW12723   1.818   3.990   4.223 -0.1355 -0.0009  0.1799
 3238SOL    HW212724   1.809   3.972   4.129  0.8802 -1.0483  0.2668
 3238SOL    HW312725   1.744   3.946   4.263 -0.1771 -0.1534 -0.0596
 3238SOL    MW412726   1.807   3.982   4.216 -0.2368  0.7897 -0.5372
 3239SOL     OW12727   3.394   3.422   5.620 -0.4089  0.1065 -0.7972
 3239SOL    HW212728   3.383   3.336   5.660 -0.8439  0.2777 -0.5453
 3239SOL    HW312729   3.337   3.480   5.670  0.0693  0.5953 -0.8095
 3239SOL    MW412730   3.385   3.418   5.632  0.0422 -0.5882 -0.5441
 3240SOL     OW12731   2.166   6.206   5.667  0.7343  0.3661  0.2900
 3240SOL    HW212732   2.219   6.150   5.723  1.2618  0.7077  0.1452
 3240SOL    HW312733   2.110   6.146   5.617  0.7384  0.0259  0.6951
 3240SOL    MW412734   2.165   6.191   5.668 -0.3120 -0.1472  0.0928
 3241SOL     OW12735   6.366   2.875   4.843  0.4074  0.3470  0.3403
 3241SOL    HW212736   6.408   2.874   4.929  2.0488  3.0199 -0.3344
 3241SOL    HW312737   6.391   2.792   4.803  1.4974  0.0454  1.5884
 3241SOL    MW412738   6.375   2.864   4.850 -0.3775 -0.1208 -0.0462
 3242SOL     OW12739   4.428   0.822   3.802 -0.1549  0.4510 -0.3877
 3242SOL    HW212740   4.407   0.741   3.755  0.1352 -1.4290  2.4284
 3242SOL    HW312741   4.522   0.816   3.820  0.0386  1.8480 -0.8410
 3242SOL    MW412742   4.437   0.810   3.799  0.5132  0.3923  0.2524
 3243SOL     OW12743   5.354   0.352   3.793 -0.0228  0.4738 -0.2969
 3243SOL    HW212744   5.285   0.354   3.859  0.6530  1.1028  0.4134
 3243SOL    HW312745   5.309   0.372   3.711 -1.2176 -2.2844 -0.4076
 3243SOL    MW412746   5.339   0.355   3.791 -0.3044 -0.3283 -0.2473
 3244SOL     OW12747   1.659   1.949   0.788 -0.2840  0.4328  0.2449
 3244SOL    HW212748   1.626   2.027   0.743 -0.8348  0.3195  0.4433
 3244SOL    HW312749   1.738   1.925   0.739  1.0716  2.2943  1.4124
 3244SOL    MW412750   1.665   1.956   0.775  0.4297  0.0881  0.2736
 3245SOL     OW12751   3.893   0.192   2.067  0.3668 -0.2823  0.2871
 3245SOL    HW212752   3.899   0.269   2.011  0.5601  0.3708  1.1942
 3245SOL    HW312753   3.814   0.206   2.118  0.3732 -0.7165  0.4191
 3245SOL    MW412754   3.883   0.204   2.066 -0.0723  0.3178  0.0753
 3246SOL     OW12755   1.134   3.715   2.872  0.4910  0.5175 -1.4124
 3246SOL    HW212756   1.218   3.673   2.857  0.1546 -0.8966  0.2877
 3246SOL    HW312757   1.156   3.794   2.922  0.7665 -0.7541  0.6145
 3246SOL    MW412758   1.148   3.720   2.877  0.4928 -0.5779 -0.3360
 3247SOL     OW12759   6.396   6.073   2.472  0.4915  0.3168  0.2413
 3247SOL    HW212760   6.354   6.156   2.450  1.8744  0.0532 -4.4016
 3247SOL    HW312761   6.488   6.095   2.485  0.5508 -0.2899  0.9470
 3247SOL    MW412762   6.403   6.086   2.471  0.3917 -0.1151  0.1236
 3248SOL     OW12763   3.077   5.926   0.558  0.4003 -0.0913 -0.5672
 3248SOL    HW212764   3.120   6.007   0.585  2.2070 -0.6540 -1.6138
 3248SOL    HW312765   3.012   5.953   0.494 -0.9539  0.7869  1.0984
 3248SOL    MW412766   3.074   5.940   0.553  0.4654  0.5425  0.3828
 3249SOL     OW12767   4.504   4.135   3.109  0.1220 -0.6162 -0.0436
 3249SOL    HW212768   4.458   4.186   3.176  1.6429 -0.1514  0.7115
 3249SOL    HW312769   4.466   4.164   3.026  2.0654  3.2384  0.1491
 3249SOL    MW412770   4.493   4.146   3.107  0.3427 -0.0575 -0.0322
 3250SOL     OW12771   5.038   3.268   1.857  0.4947 -0.1733 -0.2610
 3250SOL    HW212772   5.121   3.235   1.824  0.9795 -0.4882  1.2283
 3250SOL    HW312773   5.006   3.326   1.787  2.8995  1.5114 -0.0709
 3250SOL    MW412774   5.045   3.272   1.843  0.0762  0.3352  0.1716
 3251SOL     OW12775   2.181   0.782   1.136 -0.2564  0.2015  0.1021
 3251SOL    HW212776   2.259   0.768   1.190 -0.2763  1.8492  0.5996
 3251SOL    HW312777   2.207   0.752   1.049  1.3711  1.8310 -0.0213
 3251SOL    MW412778   2.195   0.776   1.132  0.7400 -0.0482  0.1626
 3252SOL     OW12779   3.887   5.341   1.913  0.0457  0.1311 -0.0113
 3252SOL    HW212780   3.889   5.436   1.924  0.9956  0.0452  0.7067
 3252SOL    HW312781   3.945   5.307   1.982 -1.2838 -1.0568  0.5807
 3252SOL    MW412782   3.895   5.349   1.924  0.3636 -0.0576 -0.2068
 3253SOL     OW12783   5.999   0.272   2.631  0.4414 -0.5463 -0.0072
 3253SOL    HW212784   6.037   0.234   2.710  2.6736  0.5848 -0.4401
 3253SOL    HW312785   6.037   0.360   2.627 -0.1539 -0.3355 -1.9635
 3253SOL    MW412786   6.009   0.279   2.641  0.1038  0.5373  0.2756
 3254SOL     OW12787   6.079   0.820   6.244 -0.4801  0.1493  0.4652
 3254SOL    HW212788   6.022   0.778   6.309 -1.5553  0.5659 -0.1721
 3254SOL    HW312789   6.019   0.847   6.174  0.7872 -1.3392 -1.2734
 3254SOL    MW412790   6.064   0.818   6.244 -0.0704  0.1338  0.6708
 3255SOL     OW12791   1.637   2.925   1.993  0.6699 -0.3539 -0.1108
 3255SOL    HW212792   1.573   2.978   1.945  0.6309  0.1609  0.4945
 3255SOL    HW312793   1.663   2.980   2.067  1.1596 -0.9061  0.1347
 3255SOL    MW412794   1.632   2.939   1.996 -0.1265  0.1570  0.1061
 3256SOL     OW12795   5.084   2.857   2.995  0.4008  0.4512  0.0567
 3256SOL    HW212796   5.024   2.908   2.941  0.3965  1.1095  0.6522
 3256SOL    HW312797   5.118   2.921   3.058  1.0926 -0.0967  0.2455
 3256SOL    MW412798   5.080   2.872   2.996 -0.2048 -0.0001 -0.5010
 3257SOL     OW12799   6.130   2.596   5.457 -0.0163  0.1663 -0.1313
 3257SOL    HW212800   6.091   2.543   5.526  0.4296 -0.8662 -0.6346
 3257SOL    HW312801   6.090   2.563   5.376 -1.3652  2.1125 -0.3104
 3257SOL    MW412802   6.120   2.584   5.455 -0.4516  0.0023  0.6166
 3258SOL     OW12803   0.070   2.088   4.367 -0.4751 -0.4166  0.0649
 3258SOL    HW212804   0.115   2.142   4.431 -0.5001 -0.0159 -0.2504
 3258SOL    HW312805   0.122   2.097   4.287  1.6167 -3.6794  0.8658
 3258SOL    MW412806   0.082   2.097   4.365 -1.3207 -0.1304 -0.0841
 3259SOL     OW12807   6.251   5.034   1.155 -0.1635 -0.7982  0.0419
 3259SOL    HW212808   6.200   5.024   1.235  1.2468  0.1711  1.1081
 3259SOL    HW312809   6.248   4.948   1.114  0.4063 -1.8031  1.9757
 3259SOL    MW412810   6.244   5.022   1.160 -0.7085  0.0580 -0.2547
 3260SOL     OW12811   5.485   5.654   3.745  0.1700 -0.6971 -0.2292
 3260SOL    HW212812   5.447   5.579   3.699 -1.7037 -0.0355  0.1885
 3260SOL    HW312813   5.557   5.616   3.795  0.1206 -1.9836 -1.0803
 3260SOL    MW412814   5.490   5.639   3.745 -0.5011  0.3994 -0.1780
 3261SOL     OW12815   1.130   5.924   0.925  0.7575  0.3031 -0.0954
 3261SOL    HW212816   1.225   5.912   0.915  1.1769  0.4490  2.7513
 3261SOL    HW312817   1.114   6.014   0.897  1.4299  0.2475 -0.6990
 3261SOL    MW412818   1.141   5.934   0.920 -0.2724 -0.0872  0.2748
 3262SOL     OW12819   0.877   4.730   5.970 -0.4989 -0.2141 -0.0505
 3262SOL    HW212820   0.971   4.744   5.954 -0.0055 -1.8078  1.2583
 3262SOL    HW312821   0.837   4.735   5.883  0.9210 -0.4185 -0.7366
 3262SOL    MW412822   0.884   4.733   5.956  0.1559  0.2670  0.3334
 3263SOL     OW12823   5.725   1.791   2.497 -0.1263  0.5668 -0.0443
 3263SOL    HW212824   5.635   1.779   2.466 -0.6729  1.0709  1.2934
 3263SOL    HW312825   5.747   1.881   2.471 -0.8259  1.2296  1.5377
 3263SOL    MW412826   5.716   1.801   2.489  0.0058  0.4857  0.5035
 3264SOL     OW12827   3.645   2.800   5.895  0.4844  0.0253  0.3024
 3264SOL    HW212828   3.682   2.828   5.811  1.9772  1.0170  1.2472
 3264SOL    HW312829   3.637   2.705   5.886  1.7369 -0.0267 -0.5698
 3264SOL    MW412830   3.649   2.791   5.883 -0.3736  0.6043  0.8665
 3265SOL     OW12831   5.524   3.933   6.074 -0.0537  0.3716 -0.6632
 3265SOL    HW212832   5.551   3.962   6.162  2.1030  3.1383 -2.0525
 3265SOL    HW312833   5.453   3.993   6.051 -1.0532 -0.7710 -0.5835
 3265SOL    MW412834   5.518   3.945   6.083  0.1568  0.2029  0.5910
 3266SOL     OW12835   4.861   3.661   2.737 -0.2633 -0.4580 -0.3115
 3266SOL    HW212836   4.899   3.693   2.655  0.7316 -0.0870  0.2743
 3266SOL    HW312837   4.767   3.656   2.719 -0.2659  1.1335 -0.9934
 3266SOL    MW412838   4.853   3.665   2.724  0.1730 -0.5206 -0.4823
 3267SOL     OW12839   0.060   5.510   3.121  0.1171 -0.3213 -0.3276
 3267SOL    HW212840   0.101   5.425   3.134 -0.5692 -0.6017  0.1166
 3267SOL    HW312841   0.097   5.543   3.040  1.1287 -0.6036  0.0098
 3267SOL    MW412842   0.070   5.503   3.112  0.1840 -0.3307 -0.1812
 3268SOL     OW12843   5.032   3.251   2.278 -0.0979  0.3345 -0.1938
 3268SOL    HW212844   5.000   3.240   2.368 -0.0690  0.8764 -0.1162
 3268SOL    HW312845   5.109   3.306   2.286  0.6205 -0.6072 -0.4317
 3268SOL    MW412846   5.038   3.257   2.291  0.1049 -0.2257  0.1304
 3269SOL     OW12847   5.959   1.813   3.745  0.5120  0.7703  0.6373
 3269SOL    HW212848   5.908   1.859   3.812 -2.1401 -2.4501  1.1310
 3269SOL    HW312849   6.021   1.760   3.794 -0.9637 -1.0641  0.6494
 3269SOL    MW412850   5.960   1.812   3.760 -0.6692 -0.3072 -0.3035
 3270SOL     OW12851   5.467   2.257   4.379 -0.2202 -0.3958 -0.1228
 3270SOL    HW212852   5.382   2.212   4.381 -0.1310 -0.5269  0.8739
 3270SOL    HW312853   5.470   2.307   4.460  0.6252 -0.3334 -0.1895
 3270SOL    MW412854   5.456   2.257   4.390 -0.4381 -0.0352 -0.5066
 3271SOL     OW12855   5.577   3.727   1.493  0.1575 -0.1859  0.2271
 3271SOL    HW212856   5.560   3.770   1.577  1.4890 -0.4401  0.6606
 3271SOL    HW312857   5.666   3.754   1.471  0.2651 -1.0968 -0.5038
 3271SOL    MW412858   5.587   3.736   1.502  0.2786 -0.3017  0.2581
 3272SOL     OW12859   0.497   3.388   5.166 -0.0121 -0.2140  0.3204
 3272SOL    HW212860   0.440   3.345   5.229 -1.8733 -1.4756 -2.0515
 3272SOL    HW312861   0.584   3.355   5.186 -0.7686 -1.7607  1.2715
 3272SOL    MW412862   0.501   3.378   5.177  0.0395 -0.4102 -0.0960
 3273SOL     OW12863   4.122   0.479   3.036  0.0077  0.0456  0.6444
 3273SOL    HW212864   4.045   0.448   2.987 -1.0694  1.0157  1.6538
 3273SOL    HW312865   4.122   0.427   3.116  1.2691 -0.9354  0.0517
 3273SOL    MW412866   4.112   0.468   3.040 -0.4469  0.5836  0.0433
 3274SOL     OW12867   2.953   4.197   1.420  1.0780  0.0698  0.0579
 3274SOL    HW212868   2.884   4.160   1.365  1.0472  0.7002 -0.3377
 3274SOL    HW312869   3.034   4.158   1.386  0.9465 -0.4769  0.3599
 3274SOL    MW412870   2.954   4.187   1.408  0.2070  0.2310 -0.5003
 3275SOL     OW12871   1.859   4.475   6.415 -0.1715 -0.7661  0.0650
 3275SOL    HW212872   1.841   4.484   6.322 -0.8746 -0.2918  0.2441
 3275SOL    HW312873   1.775   4.490   6.458  0.7464  2.5173  0.9747
 3275SOL    MW412874   1.846   4.478   6.409 -0.3677 -0.4369  0.4542
 3276SOL     OW12875   5.862   6.021   5.872  0.3701  0.3613  0.4799
 3276SOL    HW212876   5.809   6.015   5.952 -0.8466  1.3653 -0.2036
 3276SOL    HW312877   5.945   6.058   5.902  0.3032 -0.2100  1.4249
 3276SOL    MW412878   5.866   6.025   5.887  0.5139 -0.0800 -0.3780
 3277SOL     OW12879   0.970   4.089   1.693 -0.2002  0.0403 -0.2832
 3277SOL    HW212880   0.895   4.121   1.743  0.3057 -0.5134  0.8582
 3277SOL    HW312881   0.938   4.083   1.603 -1.0486  1.2985 -0.0901
 3277SOL    MW412882   0.956   4.092   1.688  0.1852 -0.0909 -0.3816
 3278SOL     OW12883   5.127   2.150   2.320 -0.1654  0.0875  0.0904
 3278SOL    HW212884   5.088   2.116   2.400  0.5330 -2.0673 -0.4303
 3278SOL    HW312885   5.177   2.227   2.349  0.0233 -0.6026  1.7087
 3278SOL    MW412886   5.128   2.156   2.334 -0.4513 -0.2515 -0.0815
 3279SOL     OW12887   5.588   5.250   3.815 -0.1367  0.0107  0.0027
 3279SOL    HW212888   5.667   5.256   3.762  0.1836  0.6332  0.5299
 3279SOL    HW312889   5.594   5.165   3.858  0.3837  0.1632  0.2398
 3279SOL    MW412890   5.599   5.240   3.814 -0.6730  0.3436 -0.4760
 3280SOL     OW12891   2.584   2.335   4.858  1.2116 -0.3402  0.1278
 3280SOL    HW212892   2.567   2.426   4.882  1.9843 -0.0028 -0.5524
 3280SOL    HW312893   2.541   2.284   4.926 -0.4283  0.5001 -0.2226
 3280SOL    MW412894   2.576   2.340   4.870  0.0661  0.6797  0.1791
 3281SOL     OW12895   2.101   4.899   2.636 -0.4538 -0.0291  0.0377
 3281SOL    HW212896   2.051   4.832   2.589  0.4595  0.4211 -1.6763
 3281SOL    HW312897   2.183   4.856   2.660 -1.4022 -0.6300  2.4330
 3281SOL    MW412898   2.105   4.885   2.633 -0.1672  0.0692 -0.1859
 3282SOL     OW12899   4.367   2.484   3.552 -0.4971 -0.1205 -0.2344
 3282SOL    HW212900   4.406   2.497   3.638  1.5988 -0.2718 -1.1097
 3282SOL    HW312901   4.441   2.472   3.493 -1.8718 -0.0526 -2.0748
 3282SOL    MW412902   4.382   2.484   3.556 -0.0950  0.1594  0.1140
 3283SOL     OW12903   4.927   5.392   5.479  0.4993 -0.4021 -0.2262
 3283SOL    HW212904   4.895   5.404   5.389  0.9806 -0.8087 -0.4536
 3283SOL    HW312905   4.936   5.298   5.489 -1.4295 -0.5167  0.9179
 3283SOL    MW412906   4.924   5.381   5.468 -0.5497  0.0793  0.5925
 3284SOL     OW12907   5.563   3.922   2.792 -0.3652  0.1957  0.2346
 3284SOL    HW212908   5.571   3.830   2.818 -0.7036 -0.4475 -1.8160
 3284SOL    HW312909   5.631   3.967   2.843  0.2262 -1.2809  0.8058
 3284SOL    MW412910   5.573   3.916   2.802  0.1428  0.2637 -0.4922
 3285SOL     OW12911   2.468   6.168   5.082 -0.0261 -0.0600 -0.0585
 3285SOL    HW212912   2.464   6.260   5.055  1.1486 -0.1099 -0.4736
 3285SOL    HW312913   2.523   6.126   5.017 -0.0890 -0.9443  0.4431
 3285SOL    MW412914   2.475   6.175   5.070  0.6521  0.2826 -0.5651
 3286SOL     OW12915   3.674   5.971   3.596  0.1552 -0.1682  0.0240
 3286SOL    HW212916   3.697   5.923   3.676  0.4434  1.2275  0.8209
 3286SOL    HW312917   3.594   6.018   3.619  0.6449  0.8283 -0.2425
 3286SOL    MW412918   3.667   5.971   3.610 -0.5602  0.2891  0.3475
 3287SOL     OW12919   1.821   5.850   3.616  0.1486  0.1738  0.1554
 3287SOL    HW212920   1.794   5.934   3.578  0.8057  0.1444 -0.3804
 3287SOL    HW312921   1.912   5.840   3.590  0.2870 -0.3723  0.8236
 3287SOL    MW412922   1.829   5.860   3.608  0.3928 -0.5693  0.2846
 3288SOL     OW12923   4.239   1.224   5.824 -0.0353 -0.1832  0.7988
 3288SOL    HW212924   4.270   1.176   5.900  0.1097  0.8272  1.3936
 3288SOL    HW312925   4.244   1.316   5.849 -0.0877  0.1706 -0.3902
 3288SOL    MW412926   4.244   1.230   5.837 -0.5213  0.0869 -0.2827
 3289SOL     OW12927   2.709   3.297   0.422  0.5762 -0.2430  0.2101
 3289SOL    HW212928   2.664   3.284   0.506  1.7825 -1.2216  0.7318
 3289SOL    HW312929   2.786   3.241   0.427  1.1821  0.4220 -1.1841
 3289SOL    MW412930   2.713   3.288   0.434 -0.2409  0.0172  0.1813
 3290SOL     OW12931   1.708   3.886   2.935 -0.5700  0.1286  0.5676
 3290SOL    HW212932   1.708   3.966   2.882 -0.0632 -0.1950  0.0620
 3290SOL    HW312933   1.639   3.833   2.897  0.4771 -0.5417 -0.4819
 3290SOL    MW412934   1.699   3.890   2.923 -0.0828  0.4927 -0.2538
 3291SOL     OW12935   0.123   3.997   4.737  0.0006  0.4797  0.3438
 3291SOL    HW212936   0.102   4.030   4.824  0.2535 -0.6703  0.8569
 3291SOL    HW312937   0.043   3.955   4.707  0.5024 -0.9305  0.8960
 3291SOL    MW412938   0.110   3.996   4.745  0.4012  0.0254 -0.0359
 3292SOL     OW12939   0.557   0.293   3.056  0.2017 -0.2524  0.1822
 3292SOL    HW212940   0.570   0.220   3.117  2.1519  0.2091  0.3934
 3292SOL    HW312941   0.522   0.252   2.977  1.4307 -1.4925  0.2362
 3292SOL    MW412942   0.554   0.278   3.054  0.8342  0.0257  0.4050
 3293SOL     OW12943   0.896   4.490   6.296 -0.1182  0.2462  0.1948
 3293SOL    HW212944   0.886   4.405   6.254 -0.6192  0.2756  0.2533
 3293SOL    HW312945   0.983   4.520   6.270 -0.3002  0.1192 -0.5625
 3293SOL    MW412946   0.906   4.483   6.287 -0.2476  0.3545  0.3356
 3294SOL     OW12947   1.864   1.415   1.893  0.2053  0.2554  0.2031
 3294SOL    HW212948   1.867   1.416   1.989  0.7391  3.0994  0.2679
 3294SOL    HW312949   1.780   1.376   1.871 -0.4365  0.6164  1.8820
 3294SOL    MW412950   1.854   1.410   1.903  0.1561  0.0197 -0.4147
 3295SOL     OW12951   2.715   5.175   1.471  0.2036  0.1970 -0.1491
 3295SOL    HW212952   2.652   5.119   1.517 -0.0553  0.1774 -0.5248
 3295SOL    HW312953   2.753   5.230   1.540  0.5424 -0.5131  0.2426
 3295SOL    MW412954   2.712   5.175   1.486 -0.2254  0.8375 -0.7662
 3296SOL     OW12955   3.224   0.201   5.832 -0.2189  0.4440 -0.1575
 3296SOL    HW212956   3.293   0.136   5.820 -0.0123  0.6844 -0.3074
 3296SOL    HW312957   3.259   0.261   5.898 -0.2993  0.5445 -0.2050
 3296SOL    MW412958   3.238   0.200   5.839  0.0820 -0.1295 -0.6486
 3297SOL     OW12959   3.213   1.092   4.469 -0.3869  0.5640 -0.0425
 3297SOL    HW212960   3.216   1.077   4.564 -1.4422  1.8072  0.2140
 3297SOL    HW312961   3.188   1.184   4.460 -0.3103  0.4559 -1.5365
 3297SOL    MW412962   3.210   1.102   4.481  0.2325  0.6446  0.3683
 3298SOL     OW12963   0.286   2.780   1.842  0.1369  0.4646  0.4138
 3298SOL    HW212964   0.224   2.833   1.893  1.6610  1.1072  1.6750
 3298SOL    HW312965   0.356   2.759   1.904  0.8287 -0.8721 -0.7732
 3298SOL    MW412966   0.287   2.784   1.857  0.3093  0.4875 -0.5943
 3299SOL     OW12967   4.897   3.729   6.186 -0.1730  0.1131 -0.2742
 3299SOL    HW212968   4.840   3.658   6.153  1.3402 -0.8442 -0.9631
 3299SOL    HW312969   4.956   3.747   6.112  1.4017 -0.0142  0.9103
 3299SOL    MW412970   4.897   3.722   6.172 -0.4790  0.6891 -0.2645
 3300SOL     OW12971   6.039   3.468   5.014 -0.1126 -0.4263  0.4313
 3300SOL    HW212972   5.979   3.521   5.067 -2.9021 -3.0990  0.2233
 3300SOL    HW312973   6.015   3.487   4.924 -0.3791 -1.1984  0.3331
 3300SOL    MW412974   6.028   3.477   5.009  0.0685 -0.0350  0.2587
 3301SOL     OW12975   2.266   4.264   2.626 -0.6007 -0.6504 -0.2806
 3301SOL    HW212976   2.186   4.252   2.677 -0.0555 -0.1752  0.6948
 3301SOL    HW312977   2.314   4.334   2.670 -0.0084 -0.3780 -1.3111
 3301SOL    MW412978   2.262   4.271   2.638  0.3137 -0.1341  0.1944
 3302SOL     OW12979   2.836   2.294   2.046  0.7244  0.1178  0.0604
 3302SOL    HW212980   2.784   2.368   2.016  0.1678  0.2102  1.2049
 3302SOL    HW312981   2.845   2.307   2.140  2.1469 -0.3272  0.0133
 3302SOL    MW412982   2.830   2.305   2.055  0.0997  0.2495  0.0766
 3303SOL     OW12983   3.261   0.659   0.487  0.2537 -0.0970 -0.5476
 3303SOL    HW212984   3.351   0.648   0.515  0.8552  3.7323 -0.4003
 3303SOL    HW312985   3.258   0.624   0.397  2.3726  1.2003 -1.1770
 3303SOL    MW412986   3.272   0.653   0.478  0.9814  0.0563  0.1220
 3304SOL     OW12987   0.252   3.658   0.036 -0.5080 -0.0860  0.2841
 3304SOL    HW212988   0.286   3.576   0.073 -0.9988 -0.1623  0.5850
 3304SOL    HW312989   0.157   3.645   0.035 -0.6039  0.5702  0.5591
 3304SOL    MW412990   0.244   3.645   0.041  0.8349 -0.4681 -0.2152
 3305SOL     OW12991   1.445   4.120   3.662  0.0911  0.9734  0.3125
 3305SOL    HW212992   1.500   4.110   3.740  0.3793 -1.0851 -0.0726
 3305SOL    HW312993   1.365   4.161   3.694  0.3874  0.5931  1.6221
 3305SOL    MW412994   1.442   4.124   3.676  0.1308 -0.3728 -0.0844
 3306SOL     OW12995   1.785   4.668   1.131 -0.5403  0.3934 -0.4421
 3306SOL    HW212996   1.711   4.686   1.074  1.2698  2.5371 -2.3073
 3306SOL    HW312997   1.828   4.753   1.143  2.1623 -0.8704 -0.2933
 3306SOL    MW412998   1.781   4.682   1.125  0.4025  0.3841 -0.3920
 3307SOL     OW12999   5.587   2.922   1.281  0.3719  0.1772 -0.2046
 3307SOL    HW213000   5.543   2.838   1.274  0.3036  0.0645  1.2126
 3307SOL    HW313001   5.653   2.921   1.213  0.5599 -1.1465 -0.0237
 3307SOL    MW413002   5.590   2.911   1.271  0.3536  0.3088  0.7024
 3308SOL     OW13003   4.640   0.384   1.645  0.7163  0.4754 -0.9659
 3308SOL    HW213004   4.660   0.444   1.573  2.2562  2.0348  0.6877
 3308SOL    HW313005   4.704   0.313   1.636 -0.0498 -0.1142 -1.9588
 3308SOL    MW413006   4.651   0.383   1.634  0.1329  0.0626  0.2532
 3309SOL     OW13007   3.905   4.303   5.723 -0.6564 -0.2698  0.1686
 3309SOL    HW213008   3.914   4.375   5.660 -0.4873 -2.2144 -2.1578
 3309SOL    HW313009   3.828   4.255   5.693  0.1162 -1.9140  0.7206
 3309SOL    MW413010   3.896   4.306   5.710  0.2788 -0.0397 -0.3744
 3310SOL     OW13011   4.860   5.398   1.905  0.4488  0.6413 -0.5305
 3310SOL    HW213012   4.781   5.450   1.920  0.3400  0.5214 -0.6808
 3310SOL    HW313013   4.843   5.352   1.823  0.0074 -0.6110  0.2268
 3310SOL    MW413014   4.847   5.399   1.896  0.3569 -0.0726  0.0282
 3311SOL     OW13015   2.841   1.888   1.852  0.2914  0.0221 -0.2240
 3311SOL    HW213016   2.798   1.963   1.894  0.3561  0.1425 -0.3674
 3311SOL    HW313017   2.769   1.839   1.813  0.1445 -0.5576  0.7455
 3311SOL    MW413018   2.826   1.892   1.852  0.5050 -0.7337  0.2423
 3312SOL     OW13019   5.985   4.528   3.708  0.4241 -0.6131 -0.0472
 3312SOL    HW213020   6.061   4.473   3.726  0.1179 -0.8092  0.6808
 3312SOL    HW313021   6.016   4.617   3.724  0.8767 -0.5675 -1.0773
 3312SOL    MW413022   5.999   4.532   3.712 -0.8097  0.7369  0.1803
 3313SOL     OW13023   3.427   5.676   0.560  0.0599  0.2671  0.1188
 3313SOL    HW213024   3.401   5.699   0.650  0.1514 -0.9809  0.4885
 3313SOL    HW313025   3.444   5.582   0.564  1.3188  0.4262 -0.9197
 3313SOL    MW413026   3.426   5.667   0.573  0.1929  0.4681  0.5346
 3314SOL     OW13027   5.468   0.059   3.795  0.3123 -0.0077  0.6306
 3314SOL    HW213028   5.559   0.085   3.804  0.5472  0.3910 -2.1537
 3314SOL    HW313029   5.419   0.141   3.802  0.4749  0.2658 -1.0552
 3314SOL    MW413030   5.473   0.073   3.797  0.5585  0.0518  0.1126
 3315SOL     OW13031   5.165   2.544   5.687 -0.2367 -0.6889 -0.0800
 3315SOL    HW213032   5.089   2.510   5.734 -0.7659 -0.1073 -0.4978
 3315SOL    HW313033   5.172   2.488   5.609  0.0398 -1.0269  0.1858
 3315SOL    MW413034   5.156   2.532   5.683 -0.5940  0.0297  0.0516
 3316SOL     OW13035   1.450   2.046   1.586  0.2047 -0.2128  0.0737
 3316SOL    HW213036   1.426   2.126   1.539  0.9745  0.4204  0.7355
 3316SOL    HW313037   1.373   1.989   1.576  0.5435 -0.3552 -2.4375
 3316SOL    MW413038   1.436   2.049   1.578 -0.9038 -0.0892  0.3561
 3317SOL     OW13039   5.600   1.567   1.170  0.1703 -0.1893 -0.2927
 3317SOL    HW213040   5.539   1.495   1.190 -0.9759  0.9706  0.5591
 3317SOL    HW313041   5.544   1.639   1.143  1.2703  0.5573 -0.6566
 3317SOL    MW413042   5.585   1.567   1.169 -0.0039 -0.1666  0.2653
 3318SOL     OW13043   0.698   0.383   1.944 -0.1813  0.3388 -0.1546
 3318SOL    HW213044   0.696   0.476   1.921 -0.1385  0.7342  1.3590
 3318SOL    HW313045   0.785   0.369   1.981  0.1734 -0.5524 -1.2663
 3318SOL    MW413046   0.710   0.393   1.946  0.7368  0.7120  0.1954
 3319SOL     OW13047   5.166   6.306   3.725 -0.3840 -0.5778 -0.3461
 3319SOL    HW213048   5.141   6.300   3.817 -0.9868 -0.3873 -0.4937
 3319SOL    HW313049   5.091   6.270   3.677 -0.6400  0.5383 -0.8220
 3319SOL    MW413050   5.153   6.300   3.731 -0.2397 -0.4546  0.5223
 3320SOL     OW13051   3.052   1.228   6.013 -0.1135 -0.3563 -0.0182
 3320SOL    HW213052   2.967   1.251   5.974  0.5912 -0.6561 -1.8145
 3320SOL    HW313053   3.090   1.312   6.039  0.1172  0.0420 -1.5571
 3320SOL    MW413054   3.046   1.242   6.012 -0.5603 -0.1854 -0.5037
 3321SOL     OW13055   4.396   6.111   0.076  0.1303  0.2378 -0.2718
 3321SOL    HW213056   4.327   6.053   0.046  1.4430 -0.5736 -1.9082
 3321SOL    HW313057   4.466   6.052   0.105  0.3582  1.0294  0.8529
 3321SOL    MW413058   4.396   6.096   0.076  0.2291  0.3085  0.6172
 3322SOL     OW13059   1.883   5.327   5.508 -0.2618 -0.0694 -0.2439
 3322SOL    HW213060   1.879   5.417   5.477 -2.2305  0.3976  1.1400
 3322SOL    HW313061   1.817   5.323   5.577  0.6778 -2.2458  0.6177
 3322SOL    MW413062   1.874   5.339   5.513  0.0219  0.1321 -0.1284
 3323SOL     OW13063   4.854   1.353   0.634  0.3238  0.4718 -0.4355
 3323SOL    HW213064   4.924   1.338   0.697 -1.2209 -0.3371  1.1624
 3323SOL    HW313065   4.819   1.439   0.657  1.1566  1.1539 -1.6285
 3323SOL    MW413066   4.858   1.362   0.645  0.8176 -0.4911 -0.4382
 3324SOL     OW13067   2.637   3.472   2.540  0.9041 -0.0552  0.2346
 3324SOL    HW213068   2.542   3.477   2.553  0.9465 -1.1605  1.1207
 3324SOL    HW313069   2.661   3.557   2.503 -0.5142  0.0194 -0.5875
 3324SOL    MW413070   2.627   3.484   2.537  0.2353  0.0991  0.1933
 3325SOL     OW13071   0.659   1.317   5.093 -0.0410  0.1645 -0.1794
 3325SOL    HW213072   0.694   1.404   5.109 -0.7681  0.4151  0.1096
 3325SOL    HW313073   0.648   1.279   5.181  1.4084 -0.6965 -0.3343
 3325SOL    MW413074   0.662   1.323   5.107 -0.3573 -0.0484  0.3051
 3326SOL     OW13075   0.397   4.591   0.475 -0.1040 -0.4709 -0.0984
 3326SOL    HW213076   0.400   4.664   0.414  2.3067 -1.4559 -1.2726
 3326SOL    HW313077   0.431   4.627   0.557 -2.5170  0.6212  0.5222
 3326SOL    MW413078   0.402   4.605   0.478  0.6850 -0.5555  0.4076
 3327SOL     OW13079   4.650   3.373   4.840  0.3892 -0.2097 -0.4139
 3327SOL    HW213080   4.745   3.363   4.837  0.4352  0.0540  0.0677
 3327SOL    HW313081   4.623   3.328   4.920  0.3968  1.7560  0.7678
 3327SOL    MW413082   4.659   3.366   4.850 -0.0688 -0.1031  0.1887
 3328SOL     OW13083   4.679   0.241   6.315 -0.1464 -0.8614  0.1275
 3328SOL    HW213084   4.650   0.238   6.224 -0.4002  1.4473  0.0615
 3328SOL    HW313085   4.641   0.163   6.356 -2.8967 -0.2251 -0.9714
 3328SOL    MW413086   4.670   0.231   6.309 -0.0417  0.0884  0.7550
 3329SOL     OW13087   3.049   1.702   1.974 -0.1785 -0.3506  0.4655
 3329SOL    HW213088   2.979   1.753   1.934  0.1543 -1.2848 -1.4137
 3329SOL    HW313089   3.052   1.733   2.065 -1.9670  0.7980  0.1863
 3329SOL    MW413090   3.040   1.713   1.981 -0.4400 -0.6447  0.1266
 3330SOL     OW13091   1.412   5.108   5.911  0.0289  0.2049 -0.4567
 3330SOL    HW213092   1.373   5.111   5.824 -0.0714 -2.7103 -0.6092
 3330SOL    HW313093   1.483   5.043   5.904  0.0388 -0.0890  1.5995
 3330SOL    MW413094   1.416   5.100   5.899  0.4803  0.3323  0.4142
 3331SOL     OW13095   3.580   6.006   5.373  0.6462 -0.0960  0.4515
 3331SOL    HW213096   3.526   5.928   5.365  2.0423 -1.2341  1.7477
 3331SOL    HW313097   3.645   5.998   5.303  1.4931 -0.6921  1.2956
 3331SOL    MW413098   3.581   5.995   5.363  0.3823 -0.2534 -0.3433
 3332SOL     OW13099   2.587   3.877   6.328  0.3127  0.1074 -0.1357
 3332SOL    HW213100   2.590   3.958   6.378 -0.1945 -0.1595  0.3371
 3332SOL    HW313101   2.544   3.901   6.245  0.5275  0.4042 -0.1593
 3332SOL    MW413102   2.582   3.891   6.323 -0.6464  0.2834  0.9314
 3333SOL     OW13103   1.082   5.732   4.606 -0.4166 -0.0025 -0.0663
 3333SOL    HW213104   1.114   5.784   4.532  0.0180  0.3375  0.3579
 3333SOL    HW313105   1.160   5.711   4.656 -0.6790 -0.4540  0.1608
 3333SOL    MW413106   1.096   5.736   4.603 -0.1338  0.1382  0.4518
 3334SOL     OW13107   0.976   5.726   5.383  0.2606  0.2536 -0.6808
 3334SOL    HW213108   1.028   5.667   5.437 -1.0462 -0.5560 -0.2691
 3334SOL    HW313109   0.920   5.668   5.330 -1.5435  1.0875  0.2313
 3334SOL    MW413110   0.975   5.710   5.383 -0.3225  0.1120  0.5887
 3335SOL     OW13111   2.373   2.453   4.658 -0.3534 -0.2236  0.8285
 3335SOL    HW213112   2.309   2.426   4.592 -0.6413  0.3063  0.8801
 3335SOL    HW313113   2.391   2.545   4.636  1.5303 -0.7645 -0.1212
 3335SOL    MW413114   2.367   2.462   4.646  0.1472 -0.1963  0.4126
 3336SOL     OW13115   1.386   6.061   5.157  0.1755  0.2590 -0.1424
 3336SOL    HW213116   1.394   6.074   5.251 -1.0525 -0.7432  0.1238
 3336SOL    HW313117   1.456   6.000   5.135  0.2353  0.2133  0.1757
 3336SOL    MW413118   1.396   6.055   5.166  0.1895 -0.0147 -0.1094
 3337SOL     OW13119   4.526   1.961   6.253  0.1244  0.2350  0.1843
 3337SOL    HW213120   4.622   1.952   6.253  0.1223  0.2092  0.3033
 3337SOL    HW313121   4.502   1.953   6.346  0.2139  2.5807  0.4709
 3337SOL    MW413122   4.536   1.959   6.265 -0.1822 -0.6118 -0.0893
 3338SOL     OW13123   4.038   2.011   5.572 -0.2237  0.4459  0.0554
 3338SOL    HW213124   4.081   1.932   5.604 -0.3289  0.8040  1.1247
 3338SOL    HW313125   3.984   2.040   5.646 -1.6236  0.4955 -0.9387
 3338SOL    MW413126   4.036   2.004   5.586 -0.7988 -0.3303  0.4002
 3339SOL     OW13127   3.387   1.145   1.033 -0.1150 -0.2354 -0.2892
 3339SOL    HW213128   3.430   1.079   1.087 -0.1107  0.3570  0.4558
 3339SOL    HW313129   3.321   1.096   0.984 -0.0001 -0.8204  0.1264
 3339SOL    MW413130   3.384   1.130   1.034 -0.0036  0.1073 -0.2508
 3340SOL     OW13131   5.351   4.037   4.148 -0.2710  0.7283 -0.2126
 3340SOL    HW213132   5.295   3.960   4.155  1.8600 -0.8436  0.5889
 3340SOL    HW313133   5.321   4.095   4.219 -0.1713 -0.5911  0.9423
 3340SOL    MW413134   5.339   4.035   4.158  0.3406  0.1860 -0.5178
 3341SOL     OW13135   5.709   4.996   1.953  0.1919  0.1231 -0.0182
 3341SOL    HW213136   5.731   5.064   1.889 -1.9698  1.0605  0.1816
 3341SOL    HW313137   5.707   4.915   1.902  1.5445  0.3486 -0.4909
 3341SOL    MW413138   5.712   4.994   1.938 -0.2161  0.1042  0.1340
 3342SOL     OW13139   0.095   0.953   0.614  0.3201 -0.2854  0.4229
 3342SOL    HW213140   0.110   1.047   0.614 -0.1674 -0.2045 -0.2120
 3342SOL    HW313141   0.127   0.923   0.528 -0.2740 -0.5721  0.2974
 3342SOL    MW413142   0.101   0.961   0.602  0.1586 -0.6308  0.1113
 3343SOL     OW13143   5.699   3.572   1.252  0.8116 -0.4486  0.3125
 3343SOL    HW213144   5.713   3.667   1.258 -0.8339 -0.0607 -1.1714
 3343SOL    HW313145   5.643   3.561   1.175  1.7476 -2.7302 -0.1125
 3343SOL    MW413146   5.694   3.583   1.242  0.5179 -0.6050  0.1310
 3344SOL     OW13147   5.523   5.727   3.211  0.0774 -0.2948 -0.1483
 3344SOL    HW213148   5.442   5.722   3.159 -0.5636 -0.4401  0.8386
 3344SOL    HW313149   5.539   5.820   3.223 -0.0306 -0.2669 -0.2203
 3344SOL    MW413150   5.514   5.738   3.206 -0.2316 -0.4541  0.1522
 3345SOL     OW13151   1.707   4.181   6.387 -0.3425  0.1520  0.7154
 3345SOL    HW213152   1.771   4.157   6.320  2.1699  2.0283  2.2690
 3345SOL    HW313153   1.680   4.270   6.364  0.5740  0.8310  2.1342
 3345SOL    MW413154   1.711   4.190   6.375  0.3084 -0.8355  0.6853
 3346SOL     OW13155   3.770   3.575   6.358 -0.4564 -0.5195 -0.2943
 3346SOL    HW213156   3.707   3.539   6.296 -1.9606  0.6998  0.4650
 3346SOL    HW313157   3.721   3.642   6.406  1.1629 -0.1852  0.9773
 3346SOL    MW413158   3.755   3.579   6.356  0.2146 -0.7213  0.3106
 3347SOL     OW13159   3.767   6.192   3.754  0.5466  0.3787 -0.1254
 3347SOL    HW213160   3.750   6.122   3.691 -0.3444  1.9397 -1.7234
 3347SOL    HW313161   3.725   6.163   3.835 -0.9399 -0.3653 -1.1195
 3347SOL    MW413162   3.759   6.179   3.756 -0.1838 -0.0487 -0.1808
 3348SOL     OW13163   4.612   0.429   0.994 -0.5916 -0.4701 -0.4170
 3348SOL    HW213164   4.525   0.390   0.982 -1.1202  0.3162  0.6437
 3348SOL    HW313165   4.594   0.516   1.028  0.6148 -0.0433 -0.8252
 3348SOL    MW413166   4.598   0.435   0.997  0.4411 -1.1234  0.0895
 3349SOL     OW13167   3.172   6.404   3.493 -0.2808  0.4655 -0.0804
 3349SOL    HW213168   3.125   6.362   3.565  0.5372 -1.7044 -0.7272
 3349SOL    HW313169   3.147   6.353   3.416  2.4217 -0.2257 -0.5844
 3349SOL    MW413170   3.162   6.392   3.492  0.4793  0.2796 -0.2513
 3350SOL     OW13171   6.186   3.850   2.004  0.2256 -0.0424 -0.1269
 3350SOL    HW213172   6.159   3.890   2.087  0.6384 -0.8259  0.3988
 3350SOL    HW313173   6.133   3.771   1.998 -0.9937  0.8323 -1.4362
 3350SOL    MW413174   6.176   3.845   2.014 -0.0733  0.7526 -0.0957
 3351SOL     OW13175   0.813   4.958   3.083  0.4445  0.2282 -0.5795
 3351SOL    HW213176   0.721   4.939   3.069  0.1340  1.0084  0.3453
 3351SOL    HW313177   0.845   4.886   3.137  0.5368 -0.3683 -1.4166
 3351SOL    MW413178   0.805   4.946   3.088 -0.2863 -0.4852  0.6060
 3352SOL     OW13179   5.285   2.782   0.271  0.2576 -0.1750  0.2075
 3352SOL    HW213180   5.298   2.754   0.362 -0.6996 -0.7788  0.1652
 3352SOL    HW313181   5.261   2.875   0.277 -2.7777 -0.8990  0.8345
 3352SOL    MW413182   5.284   2.791   0.284  0.7269  0.1275  0.0743
 3353SOL     OW13183   2.497   1.839   2.104 -0.1828 -0.1295 -0.4059
 3353SOL    HW213184   2.544   1.829   2.187  0.1844 -1.6684 -0.7673
 3353SOL    HW313185   2.549   1.789   2.041 -0.8253  0.4492 -1.4189
 3353SOL    MW413186   2.510   1.831   2.107  0.3116  0.1719  0.0395
 3354SOL     OW13187   4.788   3.158   6.391  0.2511 -0.0351  0.1643
 3354SOL    HW213188   4.818   3.116   6.311 -2.5912  0.6737 -1.4262
 3354SOL    HW313189   4.735   3.091   6.435 -3.5750  1.2938 -1.9506
 3354SOL    MW413190   4.785   3.144   6.386  0.0540 -0.8920 -0.5522
 3355SOL     OW13191   5.706   0.557   1.417 -0.2859 -0.0936  0.3690
 3355SOL    HW213192   5.701   0.652   1.427 -0.3712 -0.0588  0.0323
 3355SOL    HW313193   5.696   0.522   1.505  1.0053  0.2572  0.6735
 3355SOL    MW413194   5.704   0.565   1.430 -0.0644  0.0633  0.8543
 3356SOL     OW13195   4.800   6.222   5.887  0.5941  0.1020  0.5122
 3356SOL    HW213196   4.779   6.304   5.932  0.5341 -0.1782  0.9984
 3356SOL    HW313197   4.750   6.226   5.806  2.2967  1.5720 -0.5454
 3356SOL    MW413198   4.791   6.233   5.882  0.0885 -0.0872  0.0116
 3357SOL     OW13199   1.126   1.486   1.464 -0.2524  0.2333  0.1217
 3357SOL    HW213200   1.155   1.396   1.477 -1.9306 -0.1444  1.6063
 3357SOL    HW313201   1.057   1.480   1.397  1.3639  0.8224 -1.7092
 3357SOL    MW413202   1.121   1.474   1.457 -0.0267  0.8064  0.3508
 3358SOL     OW13203   1.231   5.652   0.256  0.6145 -0.5617  0.4008
 3358SOL    HW213204   1.173   5.683   0.326 -0.1234 -1.3795  0.1629
 3358SOL    HW313205   1.205   5.703   0.179  1.1737  0.0690  0.6148
 3358SOL    MW413206   1.220   5.663   0.255 -0.5626  0.3161 -0.5704
 3359SOL     OW13207   4.106   2.839   1.906  0.1134  0.6154 -0.2311
 3359SOL    HW213208   4.161   2.797   1.972 -0.1966 -0.0287 -0.3767
 3359SOL    HW313209   4.042   2.889   1.956  0.1274  0.4469 -0.0450
 3359SOL    MW413210   4.105   2.840   1.921  0.1471 -0.4307  0.2653
 3360SOL     OW13211   1.997   3.403   2.219  0.0912 -0.0009  1.0449
 3360SOL    HW213212   1.976   3.414   2.126  0.1124  0.7245  1.1194
 3360SOL    HW313213   2.072   3.344   2.220 -0.2378 -0.4394  0.6327
 3360SOL    MW413214   2.004   3.397   2.207 -0.3602  0.2419  0.4021
 3361SOL     OW13215   3.256   3.019   4.401  0.5277 -0.2463 -0.2999
 3361SOL    HW213216   3.313   3.025   4.324 -0.6741 -0.5665 -1.2295
 3361SOL    HW313217   3.257   3.107   4.439  0.2349  0.2149 -1.3345
 3361SOL    MW413218   3.264   3.031   4.396 -0.4042 -0.3512 -0.0736
 3362SOL     OW13219   5.777   0.444   4.850 -0.3861  0.3692  0.6522
 3362SOL    HW213220   5.822   0.465   4.769 -0.7577 -1.7640 -0.1803
 3362SOL    HW313221   5.843   0.399   4.903 -0.7045 -0.0777  0.6744
 3362SOL    MW413222   5.792   0.441   4.847  0.3697  0.3832  0.7119
 3363SOL     OW13223   3.993   1.020   0.568 -0.4092 -0.8633 -0.2819
 3363SOL    HW213224   3.947   1.065   0.497 -3.0101 -1.8639  0.6689
 3363SOL    HW313225   4.026   1.090   0.624 -2.0293 -0.0655 -0.2688
 3363SOL    MW413226   3.991   1.035   0.566 -0.2670 -0.6352  0.5345
 3364SOL     OW13227   5.285   4.679   4.257  0.6140  0.2006 -0.1506
 3364SOL    HW213228   5.273   4.658   4.164  2.8930  0.3853 -0.5527
 3364SOL    HW313229   5.318   4.598   4.296  0.2063  0.2906  0.3964
 3364SOL    MW413230   5.288   4.666   4.250  1.0495 -0.4852  0.4147
 3365SOL     OW13231   4.708   6.411   4.064  0.5200  0.0561  0.2622
 3365SOL    HW213232   4.767   6.393   4.138 -0.4619  0.4946  1.1851
 3365SOL    HW313233   4.731   6.499   4.035  0.2539  0.2753  0.7012
 3365SOL    MW413234   4.718   6.420   4.070 -0.3627  0.3918  0.3128
 3366SOL     OW13235   1.322   3.855   3.993 -0.8046 -0.3066 -0.3381
 3366SOL    HW213236   1.283   3.792   4.054  2.3198 -1.7081  0.4200
 3366SOL    HW313237   1.278   3.838   3.910 -1.1013 -2.4840  0.1906
 3366SOL    MW413238   1.311   3.844   3.990  0.1686  0.1571 -0.2587
 3367SOL     OW13239   2.719   5.905   6.203 -0.2818 -0.2367 -0.0327
 3367SOL    HW213240   2.736   5.842   6.274  1.2192 -0.0419 -0.2027
 3367SOL    HW313241   2.771   5.873   6.129  1.0589  1.5472  0.0825
 3367SOL    MW413242   2.728   5.892   6.203  0.4135 -0.0959 -0.0427
 3368SOL     OW13243   0.739   5.216   0.212  0.5972  0.1568  0.6234
 3368SOL    HW213244   0.829   5.248   0.218  1.5385 -2.1564  0.0098
 3368SOL    HW313245   0.711   5.241   0.124  1.6004 -1.2831 -0.1425
 3368SOL    MW413246   0.747   5.223   0.201  0.0565 -0.1731  0.6609
 3369SOL     OW13247   4.027   1.512   1.567 -0.5532  0.0850 -0.1801
 3369SOL    HW213248   4.002   1.470   1.650  0.0513  0.5821  0.2617
 3369SOL    HW313249   3.966   1.585   1.558 -0.6527  0.0002 -0.2087
 3369SOL    MW413250   4.016   1.516   1.577  0.5963  0.4473 -0.7531
 3370SOL     OW13251   2.842   1.287   4.825  0.0827 -0.1541  0.3120
 3370SOL    HW213252   2.850   1.322   4.736 -3.4208 -0.5605 -0.2980
 3370SOL    HW313253   2.787   1.351   4.871  2.4938  0.4854  2.5488
 3370SOL    MW413254   2.836   1.300   4.820 -0.3922 -0.5680  0.2145
 3371SOL     OW13255   5.159   3.911   0.338  0.4947 -0.3211 -0.6938
 3371SOL    HW213256   5.200   3.885   0.421 -0.2772 -0.1396 -0.2530
 3371SOL    HW313257   5.155   3.829   0.288 -0.9638 -0.8857  0.2819
 3371SOL    MW413258   5.164   3.897   0.342  0.0933  0.0845  0.1182
 3372SOL     OW13259   3.625   1.392   5.163 -0.1484 -0.1661  0.1153
 3372SOL    HW213260   3.533   1.405   5.140 -0.1609 -1.3915 -0.6085
 3372SOL    HW313261   3.646   1.305   5.129  1.0465 -0.2576  1.0153
 3372SOL    MW413262   3.616   1.382   5.156  0.1189  0.1383 -0.0238
 3373SOL     OW13263   5.386   5.957   3.510  0.0293  0.2928  0.1056
 3373SOL    HW213264   5.440   5.980   3.434 -1.0588 -1.7331 -1.3915
 3373SOL    HW313265   5.449   5.935   3.579  1.0474  2.8191  0.1101
 3373SOL    MW413266   5.402   5.957   3.509 -0.1744  0.4567 -0.5064
 3374SOL     OW13267   0.167   0.887   2.441  0.8707  0.9910 -0.1788
 3374SOL    HW213268   0.215   0.927   2.514 -1.9100 -0.0672  2.4380
 3374SOL    HW313269   0.129   0.961   2.393  1.7430  1.6748  0.1607
 3374SOL    MW413270   0.168   0.902   2.444 -0.4359 -0.4710 -0.7843
 3375SOL     OW13271   0.549   3.143   4.733  0.3436 -0.1036 -0.4687
 3375SOL    HW213272   0.593   3.111   4.655  1.2254  0.4646 -0.2247
 3375SOL    HW313273   0.562   3.238   4.731 -0.9744  0.1032 -0.4384
 3375SOL    MW413274   0.556   3.151   4.723  0.1006 -0.1278  0.5251
 3376SOL     OW13275   2.961   0.299   1.470  0.0186 -0.4892  0.4119
 3376SOL    HW213276   2.999   0.330   1.552  0.3344 -2.2745  0.9824
 3376SOL    HW313277   2.948   0.378   1.418  0.2596  0.6321  1.9907
 3376SOL    MW413278   2.964   0.314   1.474  0.2926  0.7907  0.1836
 3377SOL     OW13279   5.478   5.860   2.514  0.3551 -0.5847  0.2734
 3377SOL    HW213280   5.570   5.838   2.499  0.5260  0.3111 -0.1004
 3377SOL    HW313281   5.430   5.810   2.448  0.8755  1.3155 -1.6883
 3377SOL    MW413282   5.483   5.851   2.503 -0.3407 -0.2922  0.2084
 3378SOL     OW13283   2.131   3.639   2.682 -0.0740  0.2316  0.2688
 3378SOL    HW213284   2.183   3.716   2.705 -0.8185  0.5196  1.0424
 3378SOL    HW313285   2.114   3.595   2.765 -1.9036  0.6964  0.1865
 3378SOL    MW413286   2.135   3.643   2.696  0.0265 -0.4114  0.3971
 3379SOL     OW13287   2.988   4.906   5.816  0.2804 -0.0863 -0.2712
 3379SOL    HW213288   3.002   4.990   5.772  1.1110  0.0573  0.2436
 3379SOL    HW313289   2.989   4.928   5.910  0.8935 -0.7192 -0.1209
 3379SOL    MW413290   2.990   4.920   5.823 -0.1636 -0.4283  0.5580
 3380SOL     OW13291   5.299   2.316   1.534 -0.1639 -0.1038 -0.1775
 3380SOL    HW213292   5.271   2.404   1.510  0.2835  0.4336  1.1356
 3380SOL    HW313293   5.231   2.258   1.500  0.0995  0.6287 -2.0406
 3380SOL    MW413294   5.286   2.320   1.527  0.7014 -0.3741 -0.3936
 3381SOL     OW13295   2.560   0.285   0.224  0.0872 -0.3210 -0.1511
 3381SOL    HW213296   2.557   0.376   0.254  0.0866 -0.3432 -0.0852
 3381SOL    HW313297   2.471   0.267   0.194  0.5076  0.3233 -1.9756
 3381SOL    MW413298   2.548   0.295   0.224  0.7313 -0.4030  0.4604
 3382SOL     OW13299   2.350   3.582   2.263  0.4507 -0.6744 -0.4639
 3382SOL    HW213300   2.443   3.602   2.259  0.6218 -1.4189 -0.2521
 3382SOL    HW313301   2.336   3.548   2.351 -0.6016  2.2016  0.6046
 3382SOL    MW413302   2.360   3.580   2.274  0.1247  0.1482 -0.2242
 3383SOL     OW13303   2.493   2.342   0.376 -0.0515  0.3354  0.7704
 3383SOL    HW213304   2.402   2.336   0.405 -1.2566  0.0245 -2.6595
 3383SOL    HW313305   2.494   2.416   0.316  0.5808 -2.5247 -3.1658
 3383SOL    MW413306   2.481   2.351   0.372  0.3787  0.2434 -0.6044
 3384SOL     OW13307   5.349   3.970   1.500  0.0592 -0.2983  0.3245
 3384SOL    HW213308   5.387   3.913   1.433  0.5559 -0.7483  0.9728
 3384SOL    HW313309   5.288   4.027   1.452  1.8061  0.7044 -0.8174
 3384SOL    MW413310   5.346   3.970   1.485 -0.0058 -0.1979  0.0968
 3385SOL     OW13311   2.270   0.927   5.638 -0.0745 -0.1278  0.2433
 3385SOL    HW213312   2.251   0.958   5.727 -1.0131 -1.1035  0.3981
 3385SOL    HW313313   2.263   0.832   5.643 -0.4598 -0.1787 -0.9395
 3385SOL    MW413314   2.266   0.919   5.651  0.0831 -0.6797 -0.4408
 3386SOL     OW13315   4.439   0.093   3.939  0.2743 -0.2372 -0.2794
 3386SOL    HW213316   4.534   0.082   3.940  0.2556 -1.1586 -2.5971
 3386SOL    HW313317   4.413   0.065   3.852 -1.9266  1.7955 -0.3729
 3386SOL    MW413318   4.448   0.088   3.928  0.0238 -0.3359  0.1860
 3387SOL     OW13319   5.745   5.680   5.875  0.0382  0.4972  0.1216
 3387SOL    HW213320   5.672   5.741   5.885  0.4090  0.9940 -0.1408
 3387SOL    HW313321   5.798   5.717   5.804 -0.3746 -0.7794 -0.9105
 3387SOL    MW413322   5.742   5.693   5.867 -0.8431 -0.0455  0.4779
 3388SOL     OW13323   1.223   1.898   5.842  0.2794 -0.1241  0.0830
 3388SOL    HW213324   1.173   1.979   5.853  1.3250  0.5056  0.3714
 3388SOL    HW313325   1.311   1.921   5.870  0.4354 -1.5636  0.8750
 3388SOL    MW413326   1.228   1.912   5.847 -0.3605  0.1389  0.5191
 3389SOL     OW13327   0.571   1.624   3.459 -0.1605 -0.1487  0.1408
 3389SOL    HW213328   0.559   1.690   3.526  0.3360 -0.9258  1.0178
 3389SOL    HW313329   0.485   1.581   3.453  0.3152 -1.4356  1.7867
 3389SOL    MW413330   0.558   1.627   3.467  0.2165  0.3395  0.2105
 3390SOL     OW13331   1.737   1.998   4.522  0.3043  0.2985 -0.0484
 3390SOL    HW213332   1.710   2.054   4.595  1.3119 -1.8833  2.1204
 3390SOL    HW313333   1.831   1.982   4.537  0.4016 -0.7033 -1.4979
 3390SOL    MW413334   1.746   2.003   4.534  0.2503 -0.2184 -0.0029
 3391SOL     OW13335   4.247   5.812   3.574 -0.1366 -0.2401  0.6667
 3391SOL    HW213336   4.291   5.895   3.557 -0.3282 -0.1399  0.6539
 3391SOL    HW313337   4.186   5.802   3.501 -0.9344  0.1733  1.2678
 3391SOL    MW413338   4.245   5.822   3.562 -0.8211  0.3102 -0.1268
 3392SOL     OW13339   6.130   0.887   3.681 -0.0660 -0.0125 -0.0920
 3392SOL    HW213340   6.106   0.903   3.589 -0.2204  0.2508 -0.0066
 3392SOL    HW313341   6.177   0.804   3.679 -0.1433 -0.0510 -0.4000
 3392SOL    MW413342   6.133   0.878   3.668  0.7091 -0.2182  0.2069
 3393SOL     OW13343   3.641   6.257   3.210  0.0010  0.1279  0.3094
 3393SOL    HW213344   3.682   6.171   3.203 -1.0100 -0.3586  0.1697
 3393SOL    HW313345   3.566   6.243   3.267  1.2740  1.4825  2.4594
 3393SOL    MW413346   3.637   6.244   3.217  0.0503 -0.0192  0.5971
 3394SOL     OW13347   0.764   1.822   0.651  0.0013 -0.1356  0.3143
 3394SOL    HW213348   0.846   1.794   0.691  0.7621  1.4579 -0.0284
 3394SOL    HW313349   0.709   1.849   0.725  0.0100 -0.6335  0.5060
 3394SOL    MW413350   0.767   1.822   0.666 -0.2813  0.8685 -0.3515
 3395SOL     OW13351   2.844   2.882   5.002  0.0872 -0.4499 -0.0736
 3395SOL    HW213352   2.781   2.877   4.930 -0.8486 -0.4060  0.7231
 3395SOL    HW313353   2.927   2.852   4.963 -0.4085 -0.4951 -1.1418
 3395SOL    MW413354   2.847   2.877   4.987 -0.6021  0.1981  0.4703
 3396SOL     OW13355   5.509   3.788   2.332  0.2265 -1.4401  0.0158
 3396SOL    HW213356   5.499   3.883   2.332  0.6450 -1.3882 -0.6712
 3396SOL    HW313357   5.524   3.765   2.240 -0.2601 -2.2175  0.1145
 3396SOL    MW413358   5.509   3.797   2.320 -0.3200 -0.3668 -0.0851
 3397SOL     OW13359   6.183   2.782   3.741 -0.2079  0.7134 -0.5508
 3397SOL    HW213360   6.241   2.845   3.785 -0.9347  0.5538  0.6778
 3397SOL    HW313361   6.206   2.790   3.648  0.5120  1.9615 -0.2980
 3397SOL    MW413362   6.194   2.792   3.734  0.0803 -0.3388 -0.0938
 3398SOL     OW13363   1.219   6.336   3.260 -0.6714 -0.4988  0.2320
 3398SOL    HW213364   1.309   6.369   3.268  0.2340 -2.8846  0.5686
 3398SOL    HW313365   1.171   6.409   3.222  1.0722  1.3781  1.3929
 3398SOL    MW413366   1.225   6.350   3.256 -0.2646  0.4952 -0.1078
 3399SOL     OW13367   1.622   3.606   0.408  0.4308  0.8325  0.1825
 3399SOL    HW213368   1.697   3.553   0.382  0.4529  0.4895  0.9215
 3399SOL    HW313369   1.616   3.674   0.341 -0.2025 -0.6725 -1.3322
 3399SOL    MW413370   1.631   3.608   0.396  0.0741  0.2018  0.8185
 3400SOL     OW13371   3.648   0.281   0.940 -0.4244  0.1990  0.1654
 3400SOL    HW213372   3.727   0.324   0.904  0.0975 -0.6386  0.2913
 3400SOL    HW313373   3.595   0.261   0.863  0.0449 -0.3146 -0.0328
 3400SOL    MW413374   3.652   0.284   0.925  0.4860 -0.7649 -0.1311
 3401SOL     OW13375   4.671   0.677   3.166 -0.1995  0.1497  0.9256
 3401SOL    HW213376   4.732   0.647   3.099  0.0689 -0.4029  1.3990
 3401SOL    HW313377   4.701   0.765   3.188 -0.7847  0.6532 -0.2403
 3401SOL    MW413378   4.683   0.684   3.160  0.1874 -0.1624  0.3116
 3402SOL     OW13379   3.454   1.701   4.502 -0.0305 -0.2175  0.1342
 3402SOL    HW213380   3.406   1.691   4.584  0.8518 -0.1206  0.6858
 3402SOL    HW313381   3.393   1.743   4.442 -0.1086  1.4874  1.3330
 3402SOL    MW413382   3.440   1.705   4.505  0.3655  0.1539 -0.0084
 3403SOL     OW13383   6.386   2.810   4.559 -0.1416 -0.0823 -0.9468
 3403SOL    HW213384   6.466   2.851   4.592 -0.3697  0.9437 -1.6480
 3403SOL    HW313385   6.418   2.743   4.498  0.1886  0.4775 -1.4036
 3403SOL    MW413386   6.401   2.806   4.556  0.7212 -0.2937 -0.1793
 3404SOL     OW13387   2.024   5.491   0.457 -0.4711 -0.5298  0.3516
 3404SOL    HW213388   1.957   5.467   0.521 -0.6495  1.0820  0.7964
 3404SOL    HW313389   1.999   5.579   0.428  1.7721  0.3800  0.9859
 3404SOL    MW413390   2.011   5.499   0.462  0.4385 -0.3438  0.2455
 3405SOL     OW13391   3.530   3.597   2.360  0.7254 -0.2937 -0.1750
 3405SOL    HW213392   3.474   3.548   2.300  0.9323  0.4841 -1.0216
 3405SOL    HW313393   3.505   3.565   2.447 -1.0733  0.0426 -0.5167
 3405SOL    MW413394   3.519   3.586   2.364  0.4800 -0.2716 -0.2437
 3406SOL     OW13395   4.749   4.280   1.188  0.4646  0.2377 -0.0422
 3406SOL    HW213396   4.714   4.321   1.267 -1.9816  0.8136 -1.3346
 3406SOL    HW313397   4.828   4.331   1.167  0.8645  0.3914  1.6999
 3406SOL    MW413398   4.755   4.292   1.196  0.0327  0.3473  0.2078
 3407SOL     OW13399   1.966   6.376   5.070  0.5889  0.0175 -0.1890
 3407SOL    HW213400   1.960   6.467   5.100 -0.7442 -0.1082 -0.0253
 3407SOL    HW313401   1.878   6.354   5.042  0.6475 -1.5827  0.7718
 3407SOL    MW413402   1.954   6.385   5.070  0.6782  0.3417 -0.5061
 3408SOL     OW13403   3.915   5.503   0.688  0.3716 -0.7352  0.6409
 3408SOL    HW213404   3.997   5.549   0.671 -0.5193  0.4030 -0.7857
 3408SOL    HW313405   3.925   5.420   0.641  0.4020 -0.2553 -0.2231
 3408SOL    MW413406   3.927   5.498   0.680 -0.3990  0.4881 -0.0266
 3409SOL     OW13407   3.759   2.374   0.308  0.6064 -0.1049  0.1643
 3409SOL    HW213408   3.741   2.281   0.297 -0.9593 -0.0902  2.0486
 3409SOL    HW313409   3.803   2.380   0.393  2.4271  0.7348 -0.7701
 3409SOL    MW413410   3.763   2.363   0.318  0.0735 -1.2486 -0.0417
 3410SOL     OW13411   5.357   6.313   0.804  0.0211  0.1159  0.2375
 3410SOL    HW213412   5.443   6.355   0.808 -0.1896  0.5646  0.0950
 3410SOL    HW313413   5.372   6.232   0.755  0.2380  0.5246 -0.3864
 3410SOL    MW413414   5.370   6.308   0.798  0.3604 -0.2633 -0.4792
 3411SOL     OW13415   3.632   1.717   1.258 -0.4616 -0.2329  0.0147
 3411SOL    HW213416   3.617   1.653   1.328  1.6243 -1.1214 -0.2786
 3411SOL    HW313417   3.631   1.802   1.302  1.1264 -0.7948  1.2457
 3411SOL    MW413418   3.630   1.720   1.273 -0.4553 -0.1698 -0.2620
 3412SOL     OW13419   4.093   0.311   1.420 -0.1579 -0.4987 -0.3061
 3412SOL    HW213420   4.178   0.327   1.460 -0.6050 -1.0534  0.9263
 3412SOL    HW313421   4.056   0.238   1.470 -1.3240 -0.3310 -0.8749
 3412SOL    MW413422   4.099   0.303   1.432 -0.3033 -0.2716  0.1954
 3413SOL     OW13423   3.967   5.365   4.970  0.1251  0.0268  0.2053
 3413SOL    HW213424   4.051   5.322   4.965  0.8846  1.5011 -0.4574
 3413SOL    HW313425   3.919   5.318   5.039  0.9896 -1.6202 -0.2871
 3413SOL    MW413426   3.972   5.353   4.979 -0.1942 -0.5315  0.3855
 3414SOL     OW13427   5.857   5.435   3.100 -0.2023  0.1148  0.1674
 3414SOL    HW213428   5.931   5.376   3.084 -0.1411  0.1515  0.3121
 3414SOL    HW313429   5.800   5.422   3.024  0.6842  1.2125 -0.7424
 3414SOL    MW413430   5.859   5.426   3.088 -0.2076  0.0831 -0.5094
 3415SOL     OW13431   3.413   1.231   6.100 -0.3589  0.1201  0.2405
 3415SOL    HW213432   3.433   1.293   6.170 -0.5846  0.4965 -0.0236
 3415SOL    HW313433   3.403   1.146   6.144 -0.5016  0.3549  0.6594
 3415SOL    MW413434   3.415   1.228   6.115 -0.2577 -0.8335 -0.0975
 3416SOL     OW13435   0.637   4.599   5.027  0.4204 -0.4609  0.1399
 3416SOL    HW213436   0.593   4.518   5.000  0.9246 -0.4434 -0.7608
 3416SOL    HW313437   0.693   4.622   4.953  1.1739  0.0797  0.8615
 3416SOL    MW413438   0.638   4.591   5.014 -0.4754 -0.3503 -0.3385
 3417SOL     OW13439   0.497   1.942   4.558  0.3725  0.2893 -0.1990
 3417SOL    HW213440   0.571   1.881   4.557  1.3135  1.4186 -0.2160
 3417SOL    HW313441   0.472   1.950   4.466  2.6690  2.7774 -0.7060
 3417SOL    MW413442   0.503   1.935   4.545  0.2595  0.7315 -0.2608
 3418SOL     OW13443   5.263   5.698   3.441  0.1406 -0.0480 -0.4796
 3418SOL    HW213444   5.300   5.785   3.460  0.7667 -0.2675 -0.6807
 3418SOL    HW313445   5.326   5.658   3.381 -0.2280 -0.5817 -0.5127
 3418SOL    MW413446   5.276   5.704   3.436  0.4913  0.2846 -0.1011
 3419SOL     OW13447   5.523   5.458   0.801 -0.5001 -0.1151  0.9112
 3419SOL    HW213448   5.522   5.537   0.855  5.1700  0.1931  1.2022
 3419SOL    HW313449   5.524   5.491   0.711  0.6371  0.1584  1.0042
 3419SOL    MW413450   5.523   5.473   0.796  0.1402 -0.3956 -0.2168
 3420SOL     OW13451   3.530   4.982   1.148 -0.4549  0.4689  0.0121
 3420SOL    HW213452   3.606   5.012   1.098  0.3119 -1.7091 -0.2492
 3420SOL    HW313453   3.557   4.990   1.240  0.3023 -0.6943 -0.0865
 3420SOL    MW413454   3.543   4.987   1.154 -0.3521  0.0973  0.1246
 3421SOL     OW13455   0.599   0.564   3.350  0.1347 -0.1974  0.5233
 3421SOL    HW213456   0.576   0.652   3.322  0.5775  0.8950  3.2270
 3421SOL    HW313457   0.674   0.540   3.295 -1.1329  0.2961 -1.5049
 3421SOL    MW413458   0.606   0.573   3.339  0.0509 -0.2552  0.7817
 3422SOL     OW13459   6.206   4.556   0.325  0.1285  0.3637  0.2089
 3422SOL    HW213460   6.185   4.544   0.233  1.1389 -0.7726  0.1000
 3422SOL    HW313461   6.175   4.645   0.346 -1.7331 -0.0143 -0.7344
 3422SOL    MW413462   6.199   4.566   0.316 -0.0317 -0.3866  0.2956
 3423SOL     OW13463   2.865   4.918   1.926  0.0928  0.3689 -0.4509
 3423SOL    HW213464   2.938   4.969   1.960  1.4069  0.1296 -2.7108
 3423SOL    HW313465   2.877   4.919   1.831 -3.4146  1.1584 -1.0280
 3423SOL    MW413466   2.876   4.925   1.918  0.2204  1.0170 -0.0492
 3424SOL     OW13467   5.709   5.104   0.946 -0.5279  0.0780 -0.3917
 3424SOL    HW213468   5.672   5.031   0.895  1.7159 -1.4734  0.0513
 3424SOL    HW313469   5.737   5.167   0.880 -1.3838  0.0087 -0.8409
 3424SOL    MW413470   5.707   5.103   0.930 -0.1390  0.0253  0.1906
 3425SOL     OW13471   2.466   3.768   0.150  0.0248 -0.1656  0.8061
 3425SOL    HW213472   2.446   3.857   0.181  0.1231 -0.3139  1.3023
 3425SOL    HW313473   2.507   3.781   0.064 -1.0652  0.2092  0.3186
 3425SOL    MW413474   2.469   3.782   0.143  0.6794  0.2096  0.1073
 3426SOL     OW13475   3.541   3.196   4.856  0.3528  0.4972  0.1086
 3426SOL    HW213476   3.448   3.203   4.838  0.4556  1.4389 -0.0718
 3426SOL    HW313477   3.545   3.149   4.940 -0.1923 -1.4777 -0.8946
 3426SOL    MW413478   3.529   3.191   4.865  0.1976 -0.2736 -0.2358
 3427SOL     OW13479   1.239   0.639   3.615 -0.8936  0.0494 -0.5399
 3427SOL    HW213480   1.302   0.592   3.668 -1.8954  0.3373  0.9818
 3427SOL    HW313481   1.173   0.573   3.591 -1.2150  0.2214 -0.1513
 3427SOL    MW413482   1.238   0.624   3.619 -0.2360 -0.0802  0.5755
 3428SOL     OW13483   1.790   5.145   3.605  0.0553 -0.2381 -0.3158
 3428SOL    HW213484   1.815   5.200   3.531  0.2227 -0.1185 -0.1693
 3428SOL    HW313485   1.868   5.140   3.659 -0.6756  1.4265  0.9761
 3428SOL    MW413486   1.803   5.151   3.602 -0.0027 -0.0097 -0.2692
 3429SOL     OW13487   0.505   2.063   6.162  0.1580 -0.4327  0.2716
 3429SOL    HW213488   0.494   2.130   6.230 -0.0931 -0.2970  0.1017
 3429SOL    HW313489   0.553   2.107   6.092  0.1810 -0.4916  0.2507
 3429SOL    MW413490   0.510   2.078   6.162  0.0190 -0.3327 -0.2809
 3430SOL     OW13491   2.302   2.011   2.428  0.1394  0.0692 -0.0596
 3430SOL    HW213492   2.267   2.100   2.437  0.2071 -0.0683  1.9283
 3430SOL    HW313493   2.395   2.020   2.451  0.5820 -0.2457 -1.5769
 3430SOL    MW413494   2.310   2.024   2.432 -0.3439  0.3111 -0.5546
 3431SOL     OW13495   2.986   3.990   1.611 -0.1211  0.2166 -0.5699
 3431SOL    HW213496   2.968   4.070   1.561  1.2755 -0.1453 -1.7286
 3431SOL    HW313497   2.944   3.921   1.560 -0.0167  0.0272 -0.3953
 3431SOL    MW413498   2.978   3.992   1.597  0.5009 -0.0186 -0.3471
 3432SOL     OW13499   1.286   5.268   5.231  0.3444  0.1369 -1.0603
 3432SOL    HW213500   1.218   5.215   5.274  0.4555 -0.4087 -1.5376
 3432SOL    HW313501   1.348   5.288   5.301 -1.0469  1.9308 -0.2605
 3432SOL    MW413502   1.285   5.263   5.246  0.1429  0.1212 -0.5072
 3433SOL     OW13503   3.885   4.984   0.383 -0.0101 -0.6170 -0.0297
 3433SOL    HW213504   3.826   5.059   0.394  0.1390 -0.1366 -2.0671
 3433SOL    HW313505   3.854   4.920   0.447  0.5923  1.5673  2.6705
 3433SOL    MW413506   3.873   4.986   0.393 -0.2657 -0.3960 -0.0890
 3434SOL     OW13507   0.597   1.390   1.549 -0.5087 -0.1610 -0.1194
 3434SOL    HW213508   0.522   1.331   1.557  0.7113 -1.6001  1.2996
 3434SOL    HW313509   0.661   1.341   1.498 -0.0898  0.6239 -0.3665
 3434SOL    MW413510   0.595   1.376   1.543  0.1201  0.6636 -0.0119
 3435SOL     OW13511   6.311   3.416   3.120  0.7136 -0.0577  0.3260
 3435SOL    HW213512   6.382   3.479   3.108  3.1397 -2.8172 -1.2446
 3435SOL    HW313513   6.340   3.361   3.193 -0.4870 -0.4520  0.5324
 3435SOL    MW413514   6.324   3.417   3.128  0.6428  0.2111  0.6141
 3436SOL     OW13515   3.822   2.518   6.275 -0.1883  0.3801  0.1577
 3436SOL    HW213516   3.834   2.613   6.275  1.3469  0.2018 -0.4192
 3436SOL    HW313517   3.772   2.500   6.195  0.4421  0.6133 -0.2998
 3436SOL    MW413518   3.817   2.528   6.264  0.1424 -0.3839 -0.5158
 3437SOL     OW13519   4.936   4.968   4.847  0.1257 -0.0905 -0.5785
 3437SOL    HW213520   5.030   4.966   4.829  0.6739  1.6864  1.5989
 3437SOL    HW313521   4.911   5.058   4.829 -0.4523  0.2661  1.7515
 3437SOL    MW413522   4.945   4.980   4.842 -0.1560 -0.2168  0.2141
 3438SOL     OW13523   0.977   1.398   0.301 -0.1746 -0.0842  0.0177
 3438SOL    HW213524   0.983   1.302   0.298  1.8704  0.0285 -1.0763
 3438SOL    HW313525   0.898   1.418   0.251 -0.9143 -1.1900  0.6747
 3438SOL    MW413526   0.967   1.388   0.294 -0.0621 -0.0764  0.1854
 3439SOL     OW13527   1.502   1.538   0.117  0.0057  0.0881  0.1278
 3439SOL    HW213528   1.546   1.544   0.201 -1.2995  0.8030  0.7988
 3439SOL    HW313529   1.428   1.479   0.133 -0.5183  0.5883 -0.3735
 3439SOL    MW413530   1.498   1.531   0.130  0.0969  0.2171 -0.7571
 3440SOL     OW13531   4.110   0.452   2.461  0.2527 -0.1645 -0.1480
 3440SOL    HW213532   4.094   0.387   2.393  1.0881  0.0558 -0.5691
 3440SOL    HW313533   4.092   0.406   2.543  1.2788 -1.0847 -0.4133
 3440SOL    MW413534   4.106   0.437   2.463 -0.3740 -0.1612 -0.0882
 3441SOL     OW13535   2.606   5.968   4.078  0.1272 -0.1522 -0.4520
 3441SOL    HW213536   2.549   5.910   4.027  1.4624 -0.2250 -1.9381
 3441SOL    HW313537   2.628   6.038   4.017  2.4880 -0.6909 -0.3014
 3441SOL    MW413538   2.601   5.970   4.063  0.6365  0.1879 -0.1304
 3442SOL     OW13539   2.911   0.955   5.203 -0.2513  0.4798 -0.2089
 3442SOL    HW213540   2.996   0.966   5.162  0.9371 -2.3417  1.2445
 3442SOL    HW313541   2.869   0.886   5.152 -0.6986  0.2098  0.5205
 3442SOL    MW413542   2.916   0.948   5.191  0.6111 -0.2939  0.1116
 3443SOL     OW13543   6.108   1.538   3.443  0.3396  0.1494  0.0170
 3443SOL    HW213544   6.026   1.587   3.430  0.3491  0.1611  0.0026
 3443SOL    HW313545   6.086   1.449   3.416  0.1576  0.0141  0.6005
 3443SOL    MW413546   6.094   1.533   3.438 -0.4670 -0.4059 -0.1042
 3444SOL     OW13547   5.713   4.414   4.913 -0.2111  0.3401 -0.0917
 3444SOL    HW213548   5.684   4.502   4.937 -1.6608 -0.6274  1.9895
 3444SOL    HW313549   5.802   4.407   4.948 -0.1307  0.9349 -0.1767
 3444SOL    MW413550   5.721   4.424   4.921 -0.0327  0.3993 -0.7706
 3445SOL     OW13551   2.052   1.635   1.552 -0.3484  0.3203 -0.1948
 3445SOL    HW213552   1.983   1.630   1.618  1.1172 -0.4027  1.3540
 3445SOL    HW313553   2.120   1.575   1.583  0.7521  0.5633 -1.9594
 3445SOL    MW413554   2.052   1.626   1.565  0.5476  0.8905 -0.3642
 3446SOL     OW13555   3.300   2.153   6.366 -0.7872 -0.2535  0.2013
 3446SOL    HW213556   3.287   2.235   6.412  1.1339 -0.3543  1.0292
 3446SOL    HW313557   3.267   2.169   6.277  1.8578  2.3152 -0.4479
 3446SOL    MW413558   3.294   2.166   6.360  0.4678 -0.0651 -0.0548
 3447SOL     OW13559   6.220   4.358   3.654  0.7723  0.5559 -0.1956
 3447SOL    HW213560   6.243   4.310   3.574  3.1977 -0.0563  0.7769
 3447SOL    HW313561   6.219   4.291   3.723 -1.4863  1.0300  0.3418
 3447SOL    MW413562   6.223   4.343   3.653  0.0514  0.4696  0.5342
 3448SOL     OW13563   0.859   6.393   2.659  0.5922 -0.8086 -0.0107
 3448SOL    HW213564   0.788   6.457   2.653  0.1220 -1.3637 -0.4974
 3448SOL    HW313565   0.937   6.442   2.634  0.5821  0.0907  1.5361
 3448SOL    MW413566   0.860   6.408   2.655  0.1552 -0.0434 -0.1015
 3449SOL     OW13567   4.656   2.512   5.217 -0.0823  0.3286  0.1809
 3449SOL    HW213568   4.661   2.601   5.255 -0.9560 -0.5013  2.4473
 3449SOL    HW313569   4.628   2.526   5.127  0.8446  2.4138  0.1584
 3449SOL    MW413570   4.653   2.526   5.210 -0.1937  0.2410 -0.0857
 3450SOL     OW13571   5.004   3.906   2.816 -0.0895  0.8143  0.2735
 3450SOL    HW213572   4.936   3.840   2.808  1.0466 -0.3112 -0.6870
 3450SOL    HW313573   4.981   3.957   2.893 -1.9225  0.3898  0.0385
 3450SOL    MW413574   4.992   3.904   2.825 -0.7392 -0.1473  0.0691
 3451SOL     OW13575   1.937   0.915   3.925 -0.2206  0.0889  0.1783
 3451SOL    HW213576   1.992   0.993   3.933  1.5029 -1.0182 -0.2512
 3451SOL    HW313577   1.847   0.947   3.934  0.5213  1.8450  1.9033
 3451SOL    MW413578   1.932   0.929   3.927 -0.0624 -0.2730  0.0676
 3452SOL     OW13579   4.713   6.139   4.369 -0.1926  0.0043  0.5876
 3452SOL    HW213580   4.636   6.184   4.403 -0.1993  0.1680  0.3568
 3452SOL    HW313581   4.684   6.049   4.354 -0.0122 -0.2511  1.6428
 3452SOL    MW413582   4.699   6.133   4.372 -0.3036 -0.0834 -0.2255
 3453SOL     OW13583   4.933   4.802   1.548  0.3867 -0.1396  0.3195
 3453SOL    HW213584   5.024   4.787   1.522  0.6514  0.0597  1.1041
 3453SOL    HW313585   4.884   4.795   1.467  1.0964 -0.3165 -0.1060
 3453SOL    MW413586   4.939   4.799   1.534  0.2589  0.0914 -0.2321
 3454SOL     OW13587   0.007   6.120   3.282 -0.4883 -0.3761 -0.1504
 3454SOL    HW213588  -0.076   6.109   3.329 -0.7308  0.2146 -0.4182
 3454SOL    HW313589   0.040   6.032   3.270 -2.2985 -0.8689 -2.2144
 3454SOL    MW413590  -0.000   6.107   3.287  0.0226  0.3464 -0.6533
 3455SOL     OW13591   5.370   2.831   3.667 -0.3186  0.1854 -0.0796
 3455SOL    HW213592   5.385   2.742   3.699 -0.1748  0.3747  0.3789
 3455SOL    HW313593   5.275   2.842   3.670 -0.1983  1.0352  2.5669
 3455SOL    MW413594   5.359   2.821   3.671  0.2010  0.1333 -0.2167
 3456SOL     OW13595   5.690   2.224   5.546 -0.1363  0.0690 -0.5880
 3456SOL    HW213596   5.606   2.232   5.500 -0.2655 -0.3955 -0.4319
 3456SOL    HW313597   5.692   2.134   5.578  1.6264 -0.8210 -2.9071
 3456SOL    MW413598   5.679   2.213   5.544  0.0527 -0.1549 -0.1373
 3457SOL     OW13599   0.626   3.096   1.079  0.6254  0.0266 -0.1483
 3457SOL    HW213600   0.579   3.155   1.138  2.5705  1.0422  0.4436
 3457SOL    HW313601   0.657   3.152   1.008  1.1284 -0.5907 -0.4253
 3457SOL    MW413602   0.624   3.111   1.078 -0.1647 -0.0200 -0.1960
 3458SOL     OW13603   1.479   4.683   4.057 -0.1447 -0.5461  0.6407
 3458SOL    HW213604   1.395   4.676   4.103  0.5105 -2.3276  1.6580
 3458SOL    HW313605   1.498   4.594   4.027  2.2314 -0.6201  2.0771
 3458SOL    MW413606   1.470   4.671   4.059  0.0873  0.4351 -0.4048
 3459SOL     OW13607   3.815   2.068   5.114  0.4918  0.2143 -1.3705
 3459SOL    HW213608   3.894   2.054   5.061  1.1594 -0.0370 -0.3385
 3459SOL    HW313609   3.756   2.116   5.056  0.4448 -1.6773 -3.0304
 3459SOL    MW413610   3.818   2.072   5.099  0.3004  0.8390 -0.1851
 3460SOL     OW13611   3.503   2.472   3.901  0.0219  0.1283 -0.1942
 3460SOL    HW213612   3.522   2.378   3.902  0.0487  0.1027 -1.3314
 3460SOL    HW313613   3.588   2.514   3.891 -0.1491  0.1451 -2.0804
 3460SOL    MW413614   3.516   2.465   3.899  0.1880  0.8465  0.0742
 3461SOL     OW13615   6.117   2.022   0.239 -0.2475  0.6141  0.4829
 3461SOL    HW213616   6.066   2.003   0.318 -1.0660  2.2738  0.3938
 3461SOL    HW313617   6.058   2.074   0.184  1.4571  2.4628  0.2998
 3461SOL    MW413618   6.103   2.026   0.242 -0.1163 -0.3168  0.0598
 3462SOL     OW13619   2.355   3.235   5.542  0.4718 -0.4247 -0.3509
 3462SOL    HW213620   2.393   3.204   5.624 -0.8053  0.2444  0.5305
 3462SOL    HW313621   2.310   3.316   5.564  2.2249  1.1765 -2.2552
 3462SOL    MW413622   2.354   3.241   5.555 -0.8425 -0.2378 -1.2924
 3463SOL     OW13623   2.857   1.342   5.861  0.3859  0.2896 -0.6766
 3463SOL    HW213624   2.814   1.427   5.871  0.3688  0.2875 -0.7328
 3463SOL    HW313625   2.870   1.332   5.767 -0.9019 -0.4080 -0.8009
 3463SOL    MW413626   2.853   1.352   5.850  0.0534 -0.4546  0.2004
 3464SOL     OW13627   5.407   0.814   5.093  0.8104  0.2000 -0.3032
 3464SOL    HW213628   5.486   0.854   5.057  1.4600 -2.4597 -2.1612
 3464SOL    HW313629   5.372   0.761   5.021 -1.4818 -0.3723  1.1378
 3464SOL    MW413630   5.413   0.812   5.079  0.3630 -0.1505 -0.4979
 3465SOL     OW13631   6.105   0.402   5.163  0.3539 -0.0396 -0.0659
 3465SOL    HW213632   6.194   0.377   5.184  0.5653  1.0668  0.4521
 3465SOL    HW313633   6.086   0.357   5.081  1.6289  0.2376 -0.5346
 3465SOL    MW413634   6.114   0.393   5.155 -0.1044 -0.4266 -0.2323
 3466SOL     OW13635   1.293   1.451   5.672 -0.0458 -0.0904 -0.5151
 3466SOL    HW213636   1.316   1.506   5.597  0.2534  0.2307 -0.1922
 3466SOL    HW313637   1.307   1.362   5.641 -1.8304 -0.0676 -1.4853
 3466SOL    MW413638   1.298   1.447   5.658  0.0888 -0.5939  0.5992
 3467SOL     OW13639   5.167   3.854   0.035 -0.2324 -0.0803  0.4341
 3467SOL    HW213640   5.137   3.922  -0.026  0.6597 -0.7983 -0.8711
 3467SOL    HW313641   5.134   3.772  -0.003  0.9614 -0.6104  0.4803
 3467SOL    MW413642   5.159   3.852   0.022  0.5511  0.4422  0.1326
 3468SOL     OW13643   3.876   4.425   4.509  0.0278 -0.2266  0.3576
 3468SOL    HW213644   3.932   4.358   4.548  0.2180  0.0009  0.4875
 3468SOL    HW313645   3.795   4.381   4.487  0.0777 -0.4503  0.6302
 3468SOL    MW413646   3.873   4.411   4.511 -0.7195  0.0580 -0.6366
 3469SOL     OW13647   3.683   3.035   0.914  0.8322  0.1513  0.4930
 3469SOL    HW213648   3.733   2.957   0.939 -0.6155 -1.1749 -0.4989
 3469SOL    HW313649   3.706   3.049   0.822 -0.1216 -0.0919  0.2110
 3469SOL    MW413650   3.693   3.026   0.905  0.0546  0.0346  0.1844
 3470SOL     OW13651   2.661   6.011   1.219  0.2871  0.2799 -0.1672
 3470SOL    HW213652   2.709   5.933   1.193  2.4741  0.6259  2.3023
 3470SOL    HW313653   2.578   5.979   1.253  1.1875 -1.0402  0.8880
 3470SOL    MW413654   2.657   5.997   1.220  0.4451 -0.1830  0.0702
 3471SOL     OW13655   3.118   3.578   0.516  0.4860 -0.0253  0.2450
 3471SOL    HW213656   3.160   3.578   0.602  1.9312 -1.2773 -0.4173
 3471SOL    HW313657   3.028   3.549   0.533  0.4535  0.7116  1.4378
 3471SOL    MW413658   3.112   3.574   0.529 -0.0688 -0.1056 -0.0813
 3472SOL     OW13659   1.286   2.949   2.111  0.0734  0.1224  0.0747
 3472SOL    HW213660   1.191   2.940   2.105  0.1101  0.3973 -1.1409
 3472SOL    HW313661   1.301   2.977   2.201 -0.9826 -0.0214  0.3164
 3472SOL    MW413662   1.275   2.951   2.122 -0.0611 -0.4590 -0.2426
 3473SOL     OW13663   4.712   2.005   1.371  1.3167  0.5465  0.3394
 3473SOL    HW213664   4.764   1.953   1.309  1.1003  0.8741 -0.1217
 3473SOL    HW313665   4.708   2.092   1.331  1.4600  0.8533  0.9854
 3473SOL    MW413666   4.719   2.010   1.358  0.3742  0.1561 -0.1738
 3474SOL     OW13667   3.218   0.437   4.831  0.3913  0.0475  0.2457
 3474SOL    HW213668   3.133   0.416   4.792 -0.1661 -1.1473  1.9943
 3474SOL    HW313669   3.202   0.516   4.883  0.6794  0.5585 -0.4281
 3474SOL    MW413670   3.205   0.444   4.832 -0.7341 -1.0572 -0.3915
 3475SOL     OW13671   3.115   4.363   2.757 -0.1914  0.7521  0.0028
 3475SOL    HW213672   3.201   4.321   2.759 -0.3298  0.4731  0.2556
 3475SOL    HW313673   3.122   4.428   2.687  0.1832  0.6432 -0.0665
 3475SOL    MW413674   3.127   4.366   2.748  0.1447  0.1257  0.0794
 3476SOL     OW13675   4.927   4.474   2.663  0.5188 -0.1967 -0.1534
 3476SOL    HW213676   4.941   4.412   2.735  0.8767  1.5363  1.3491
 3476SOL    HW313677   4.897   4.420   2.590 -2.4798 -1.8174  2.0435
 3476SOL    MW413678   4.925   4.459   2.663 -0.5642 -0.4994  0.2781
 3477SOL     OW13679   2.445   2.762   1.937  0.1254 -0.0366  0.2110
 3477SOL    HW213680   2.362   2.806   1.919  0.2378  0.2201  0.3133
 3477SOL    HW313681   2.493   2.768   1.854  0.4729  0.7737  0.4544
 3477SOL    MW413682   2.440   2.769   1.924  0.4260  0.3966 -0.3426
 3478SOL     OW13683   2.442   5.301   3.670  0.2877 -0.1113  0.1502
 3478SOL    HW213684   2.512   5.354   3.630  0.4971  0.4728  1.2579
 3478SOL    HW313685   2.486   5.219   3.695 -0.3767 -1.6033 -3.0546
 3478SOL    MW413686   2.457   5.297   3.668  0.1682  0.1579  0.5733
 3479SOL     OW13687   1.737   2.509   2.260  0.7160 -0.1133 -0.0345
 3479SOL    HW213688   1.767   2.590   2.301 -0.4165  0.0971  0.4147
 3479SOL    HW313689   1.803   2.444   2.284  0.7882  0.3185  0.9649
 3479SOL    MW413690   1.750   2.511   2.268 -0.6178 -0.1360 -0.9401
 3480SOL     OW13691   2.118   4.132   1.309  0.1340  0.1020  0.1044
 3480SOL    HW213692   2.030   4.140   1.272  0.1138 -2.5310 -0.6207
 3480SOL    HW313693   2.105   4.129   1.403 -0.6193 -0.6863 -0.0150
 3480SOL    MW413694   2.105   4.133   1.316  0.3856 -0.8340  0.3540
 3481SOL     OW13695   4.498   0.971   3.345 -0.0557 -0.0957  0.0552
 3481SOL    HW213696   4.577   0.955   3.396  0.0650 -1.0101 -0.3796
 3481SOL    HW313697   4.426   0.953   3.405  0.0674  0.4377  0.3643
 3481SOL    MW413698   4.499   0.966   3.359  0.0932 -0.2888  0.2640
 3482SOL     OW13699   5.102   5.359   5.083  0.1622 -0.6796 -0.2125
 3482SOL    HW213700   5.119   5.422   5.153  0.6271  0.7785 -1.5827
 3482SOL    HW313701   5.178   5.300   5.086 -1.2765 -2.5846  2.4433
 3482SOL    MW413702   5.115   5.359   5.093 -0.2047  0.2130 -0.2246
 3483SOL     OW13703   1.962   6.070   4.543  0.8029  0.2392 -0.3976
 3483SOL    HW213704   1.984   6.032   4.458  2.3352 -1.9248  0.8724
 3483SOL    HW313705   2.025   6.142   4.554  0.2456  0.8887 -1.2683
 3483SOL    MW413706   1.973   6.075   4.533 -0.7750  0.1146 -0.2211
 3484SOL     OW13707   1.959   1.944   0.426 -0.1964  0.0485 -0.3309
 3484SOL    HW213708   1.901   1.917   0.355  0.8296 -2.7697 -0.2197
 3484SOL    HW313709   2.040   1.969   0.382  0.1831 -0.9695 -0.2417
 3484SOL    MW413710   1.962   1.944   0.411  0.2406  0.4436  0.0758
 3485SOL     OW13711   3.285   5.844   0.395  0.2409 -0.4818  0.5581
 3485SOL    HW213712   3.214   5.860   0.457 -0.2186 -1.7435  0.3861
 3485SOL    HW313713   3.352   5.799   0.446  2.8655  4.2159  1.8407
 3485SOL    MW413714   3.284   5.841   0.410  0.5861  0.4789  0.3337
 3486SOL     OW13715   2.566   3.493   5.945 -0.1718 -0.3101  0.3747
 3486SOL    HW213716   2.599   3.409   5.977  0.8686  0.7007  2.1089
 3486SOL    HW313717   2.617   3.511   5.866 -0.8973 -1.6061 -0.4157
 3486SOL    MW413718   2.577   3.485   5.939 -0.7883  0.3001  0.2472
 3487SOL     OW13719   3.372   4.057   5.702 -0.1208 -0.0880  0.4782
 3487SOL    HW213720   3.351   4.150   5.712  0.3756  0.0836 -0.0642
 3487SOL    HW313721   3.445   4.042   5.762  1.3265  0.4152 -1.0812
 3487SOL    MW413722   3.379   4.067   5.712 -0.5577  0.5586  0.1809
 3488SOL     OW13723   2.306   0.712   1.707 -0.1480  0.2405 -0.4785
 3488SOL    HW213724   2.347   0.772   1.644 -0.2632  0.0511 -0.7366
 3488SOL    HW313725   2.320   0.753   1.792 -0.6050  0.8524 -0.6968
 3488SOL    MW413726   2.313   0.725   1.710 -0.0957 -0.6316  0.0661
 3489SOL     OW13727   2.572   5.172   5.444  0.0991  0.0907 -0.6516
 3489SOL    HW213728   2.555   5.078   5.447 -2.2139  0.4712 -0.2903
 3489SOL    HW313729   2.621   5.190   5.525  2.3260 -1.0381 -1.6563
 3489SOL    MW413730   2.576   5.162   5.455  0.5990  0.0792  0.0929
 3490SOL     OW13731   4.820   6.377   0.648 -0.5524  0.4289  0.4693
 3490SOL    HW213732   4.883   6.344   0.712 -0.2156  0.8098  0.3369
 3490SOL    HW313733   4.737   6.379   0.695 -0.1961  1.2832  1.0765
 3490SOL    MW413734   4.818   6.373   0.663 -0.3625  0.2227 -0.3336
 3491SOL     OW13735   5.866   4.958   1.426 -0.0400 -0.0070  0.3688
 3491SOL    HW213736   5.813   4.989   1.352 -0.5659  0.3860  0.8939
 3491SOL    HW313737   5.951   4.937   1.388 -1.3536 -3.4463 -1.0831
 3491SOL    MW413738   5.870   4.959   1.411  0.3650  0.2839  0.0306
 3492SOL     OW13739   4.467   0.702   2.642 -0.2900 -0.0887  0.3888
 3492SOL    HW213740   4.541   0.721   2.584 -0.0972 -0.6290  0.4532
 3492SOL    HW313741   4.395   0.682   2.582 -0.2378 -0.1040  0.3309
 3492SOL    MW413742   4.467   0.702   2.626 -0.5047 -0.0593  0.4361
 3493SOL     OW13743   0.970   1.405   6.250 -1.0160 -0.0029 -0.2925
 3493SOL    HW213744   0.907   1.465   6.289  0.2493  0.3340  1.3557
 3493SOL    HW313745   0.928   1.320   6.254 -1.4837  0.2545  0.5107
 3493SOL    MW413746   0.956   1.402   6.256  0.3066  0.0942 -0.0023
 3494SOL     OW13747   0.498   5.790   5.931 -0.2195  0.0545 -0.0174
 3494SOL    HW213748   0.554   5.867   5.927 -0.1785 -0.0350 -2.2958
 3494SOL    HW313749   0.431   5.805   5.864 -2.6296 -0.1257  2.1752
 3494SOL    MW413750   0.496   5.802   5.922 -0.0387  0.1193 -0.0523
 3495SOL     OW13751   2.728   5.439   2.785  0.4004  0.5176 -0.2185
 3495SOL    HW213752   2.773   5.403   2.861  0.6672 -0.4794 -0.8335
 3495SOL    HW313753   2.788   5.505   2.750  0.1282  1.2282  0.6166
 3495SOL    MW413754   2.742   5.443   2.790  0.0152  1.0174  0.8930
 3496SOL     OW13755   2.257   4.278   0.280 -0.1296 -0.1657 -0.7239
 3496SOL    HW213756   2.205   4.289   0.360  0.9086 -0.4175  0.0067
 3496SOL    HW313757   2.195   4.292   0.209 -0.7580  1.5705  0.1208
 3496SOL    MW413758   2.242   4.281   0.281 -0.4281 -0.0189  0.2811
 3497SOL     OW13759   1.470   3.953   1.336 -0.1934  0.0057  0.1792
 3497SOL    HW213760   1.486   3.964   1.242  0.4290  0.4849  0.3317
 3497SOL    HW313761   1.471   3.859   1.350 -1.6704 -0.1403 -0.5173
 3497SOL    MW413762   1.472   3.942   1.325 -0.1105  0.0492 -0.5894
 3498SOL     OW13763   1.717   5.719   6.200  0.2677  0.5809  0.1255
 3498SOL    HW213764   1.647   5.784   6.192 -0.1715  0.2354  1.0058
 3498SOL    HW313765   1.792   5.767   6.235  0.8996  1.2171 -1.9519
 3498SOL    MW413766   1.718   5.734   6.203  0.3952 -0.0966  0.1828
 3499SOL     OW13767   1.227   0.425   2.849  0.0615 -0.1195 -0.2152
 3499SOL    HW213768   1.185   0.500   2.891  0.8869  0.1547  0.1389
 3499SOL    HW313769   1.280   0.386   2.918  1.0670  0.0549 -0.8819
 3499SOL    MW413770   1.228   0.430   2.863  0.0754 -0.2258 -0.5123
 3500SOL     OW13771   0.907   1.436   2.784  0.1623 -0.4376  0.1129
 3500SOL    HW213772   0.878   1.449   2.693 -0.4280  1.0094  0.4822
 3500SOL    HW313773   0.956   1.516   2.805  0.2507 -0.7399  1.0995
 3500SOL    MW413774   0.910   1.448   2.775  0.0147  0.2072  0.2846
 3501SOL     OW13775   3.656   0.348   5.706 -0.1626 -0.5761  0.1641
 3501SOL    HW213776   3.638   0.420   5.766  0.2558  0.6378 -1.1089
 3501SOL    HW313777   3.601   0.276   5.737  0.1024 -0.0164  2.0183
 3501SOL    MW413778   3.646   0.348   5.718 -0.0199  0.1815  0.6226
 3502SOL     OW13779   1.567   5.096   0.790  0.5323  0.1389 -0.2280
 3502SOL    HW213780   1.496   5.033   0.774  0.0089  0.7745 -0.4634
 3502SOL    HW313781   1.597   5.121   0.703 -0.7600  1.8605 -0.2309
 3502SOL    MW413782   1.561   5.091   0.777 -0.1204  0.0732 -0.1665
 3503SOL     OW13783   6.173   0.965   4.469  0.1864 -0.5712  0.1499
 3503SOL    HW213784   6.131   0.887   4.430  2.1771 -1.0885 -1.0903
 3503SOL    HW313785   6.167   1.032   4.401 -1.2046  0.3215  1.0870
 3503SOL    MW413786   6.166   0.963   4.455 -0.1801 -0.4662  0.4730
 3504SOL     OW13787   1.652   5.642   2.654 -0.0581 -0.4944 -0.1997
 3504SOL    HW213788   1.586   5.590   2.701  0.9396 -0.5430  1.1992
 3504SOL    HW313789   1.601   5.712   2.612 -1.2785 -1.8635 -1.1361
 3504SOL    MW413790   1.636   5.644   2.654 -0.2784  0.3015  0.4065
 3505SOL     OW13791   3.295   0.890   5.342  0.1487 -0.0280 -0.0195
 3505SOL    HW213792   3.320   0.883   5.250  0.3287  0.2331  0.0093
 3505SOL    HW313793   3.330   0.811   5.382 -0.1002 -0.2395 -0.2131
 3505SOL    MW413794   3.303   0.879   5.335  0.1598 -0.4053  0.3425
 3506SOL     OW13795   2.783   0.092   6.136 -0.2520 -0.4025 -0.7865
 3506SOL    HW213796   2.826   0.106   6.052 -0.0217 -1.3544 -0.8460
 3506SOL    HW313797   2.778  -0.004   6.144  0.9564 -0.3788  0.8796
 3506SOL    MW413798   2.788   0.081   6.126  0.2041  0.2437 -0.4935
 3507SOL     OW13799   5.562   0.491   4.683  0.6001  0.7987 -0.0615
 3507SOL    HW213800   5.564   0.428   4.611 -1.5061 -0.0075  0.5006
 3507SOL    HW313801   5.622   0.455   4.748 -0.4478 -0.6077  0.1837
 3507SOL    MW413802   5.570   0.478   4.682  0.1252  0.0375  0.3275
 3508SOL     OW13803   1.675   2.870   3.611  0.1214  0.4060  0.6732
 3508SOL    HW213804   1.753   2.896   3.660  1.9021 -1.4426 -0.9952
 3508SOL    HW313805   1.707   2.805   3.549 -2.7980 -0.4792 -0.0312
 3508SOL    MW413806   1.690   2.865   3.609  0.3900  0.3987 -0.1785
 3509SOL     OW13807   2.903   2.692   4.251 -0.1416  0.5526 -0.5228
 3509SOL    HW213808   2.986   2.701   4.297 -0.5904  0.9164  0.2196
 3509SOL    HW313809   2.836   2.715   4.315 -0.8715 -0.4900 -0.8707
 3509SOL    MW413810   2.905   2.696   4.265  0.2425 -0.2507 -0.1476
 3510SOL     OW13811   2.017   3.186   0.817 -0.3236 -0.0185 -0.1514
 3510SOL    HW213812   1.931   3.218   0.842 -0.6186 -0.7654 -0.1774
 3510SOL    HW313813   2.056   3.153   0.898 -1.2626 -2.3967 -0.5746
 3510SOL    MW413814   2.011   3.186   0.831 -0.0053 -0.0043  0.5165
 3511SOL     OW13815   1.044   4.860   1.893  0.5210  0.2035  0.0325
 3511SOL    HW213816   1.041   4.772   1.854  3.6164  0.2374 -0.5411
 3511SOL    HW313817   1.108   4.853   1.963  0.7508  1.9900  0.0453
 3511SOL    MW413818   1.052   4.848   1.897 -0.0735  0.1259  0.2746
 3512SOL     OW13819   3.004   5.586   1.575 -0.0441  0.1700 -0.0717
 3512SOL    HW213820   3.064   5.565   1.503  0.1256  1.0534 -0.1963
 3512SOL    HW313821   2.949   5.656   1.541 -0.8659 -0.3242  0.2021
 3512SOL    MW413822   3.005   5.592   1.561  0.5563 -0.5082  0.2040
 3513SOL     OW13823   5.142   2.844   1.473 -0.6325  0.6430  0.0231
 3513SOL    HW213824   5.110   2.852   1.563  1.7453 -2.2422  1.3083
 3513SOL    HW313825   5.220   2.900   1.470  0.1752 -0.4228  0.3212
 3513SOL    MW413826   5.148   2.852   1.485  0.1826  0.1023  0.3178
 3514SOL     OW13827   1.193   5.223   1.000  0.3133 -0.0421  0.0801
 3514SOL    HW213828   1.204   5.259   0.912 -1.0727 -1.2624 -0.6305
 3514SOL    HW313829   1.190   5.128   0.987  1.2872 -0.3246  1.6055
 3514SOL    MW413830   1.194   5.215   0.987  0.4115  0.3531 -0.0063
 3515SOL     OW13831   1.956   3.262   3.717 -0.7022 -0.0738  0.2554
 3515SOL    HW213832   1.888   3.278   3.782  0.7557  1.5094  1.4751
 3515SOL    HW313833   1.974   3.168   3.723 -1.3387 -0.1367  1.3607
 3515SOL    MW413834   1.950   3.252   3.726  0.3583  0.5544 -0.2894
 3516SOL     OW13835   2.327   5.916   3.007 -0.1858 -0.2756 -0.6028
 3516SOL    HW213836   2.355   5.825   3.006  0.5708 -0.0772 -2.8967
 3516SOL    HW313837   2.406   5.965   3.033 -1.3306 -0.3380  3.8113
 3516SOL    MW413838   2.341   5.911   3.011  0.3952 -0.1905 -1.1377
 3517SOL     OW13839   0.920   5.940   5.162 -0.1168 -0.1542  0.4216
 3517SOL    HW213840   1.006   5.940   5.119  0.2149  1.2013  1.0290
 3517SOL    HW313841   0.933   5.994   5.240 -1.7116  0.6957  0.1272
 3517SOL    MW413842   0.933   5.947   5.166  0.0681  0.2971 -0.4161
 3518SOL     OW13843   3.049   2.860   3.695  0.2028 -0.5118  0.2789
 3518SOL    HW213844   3.116   2.864   3.626 -1.5361  0.3596 -1.4381
 3518SOL    HW313845   2.970   2.894   3.654 -0.6193  1.3559  3.1094
 3518SOL    MW413846   3.048   2.865   3.681  0.2784 -0.1973 -0.1763
 3519SOL     OW13847   5.594   0.715   4.407 -0.1877 -0.5015  0.2659
 3519SOL    HW213848   5.536   0.639   4.401 -0.1805 -0.4812 -0.0560
 3519SOL    HW313849   5.609   0.741   4.316  1.7330 -1.5734  0.2400
 3519SOL    MW413850   5.588   0.708   4.394 -0.3429  0.4132  0.1844
 3520SOL     OW13851   1.199   1.174   0.932 -0.2830  0.1729  0.0702
 3520SOL    HW213852   1.162   1.262   0.933 -0.6760  0.0211 -0.5224
 3520SOL    HW313853   1.238   1.163   1.018 -1.2231  0.5013  0.5486
 3520SOL    MW413854   1.199   1.184   0.943  0.0401  0.0512  0.4194
 3521SOL     OW13855   6.334   4.042   5.778 -0.3901 -0.2924  0.5061
 3521SOL    HW213856   6.310   4.036   5.685 -3.0323 -2.5996  1.2098
 3521SOL    HW313857   6.417   4.090   5.778 -1.1715  1.3762 -2.8842
 3521SOL    MW413858   6.342   4.048   5.766 -0.0783  0.3877 -0.1830
 3522SOL     OW13859   2.458   2.288   2.293  0.0635 -0.3634  0.7712
 3522SOL    HW213860   2.522   2.237   2.344  1.1794 -0.4558 -0.6486
 3522SOL    HW313861   2.451   2.240   2.210 -2.0948 -0.4985  0.9902
 3522SOL    MW413862   2.466   2.275   2.289 -0.1632 -0.7122 -0.3685
 3523SOL     OW13863   4.069   4.274   4.605  0.0652  0.0964  0.0299
 3523SOL    HW213864   4.086   4.355   4.653  0.4183 -0.4702  0.8854
 3523SOL    HW313865   4.147   4.220   4.620  0.1699 -0.1160 -1.1651
 3523SOL    MW413866   4.081   4.278   4.613 -0.4889  0.0598  0.3668
 3524SOL     OW13867   6.121   1.437   0.535 -0.4048  0.6641 -0.5872
 3524SOL    HW213868   6.151   1.367   0.594  1.9039  0.7324 -1.5559
 3524SOL    HW313869   6.073   1.392   0.467 -1.8514  0.4317  0.5341
 3524SOL    MW413870   6.119   1.422   0.534  0.4798 -0.0823  0.0266
 3525SOL     OW13871   3.773   4.831   5.019 -0.4404  0.5582  0.4164
 3525SOL    HW213872   3.695   4.791   4.979 -0.0830  1.2474 -1.0518
 3525SOL    HW313873   3.846   4.796   4.968  0.1249  0.6798  1.1427
 3525SOL    MW413874   3.772   4.821   5.007  0.1464  1.0228  0.7759
 3526SOL     OW13875   3.779   5.300   5.189  0.2062  0.2281 -0.1571
 3526SOL    HW213876   3.708   5.359   5.162 -1.3091 -1.0045  0.9429
 3526SOL    HW313877   3.786   5.312   5.283 -0.0783 -1.2542  0.0756
 3526SOL    MW413878   3.771   5.309   5.198  0.3680  0.7834 -0.2030
 3527SOL     OW13879   1.930   3.701   0.801  0.0686 -0.2019  0.3732
 3527SOL    HW213880   1.976   3.618   0.794 -1.9254 -1.2188 -3.8241
 3527SOL    HW313881   1.999   3.767   0.799  1.5977 -1.6411  2.1310
 3527SOL    MW413882   1.945   3.699   0.799  0.3935  0.6141 -0.2270
 3528SOL     OW13883   4.286   3.400   0.774 -0.2476 -0.4320 -0.3927
 3528SOL    HW213884   4.331   3.334   0.827 -0.9401  0.2481  1.1050
 3528SOL    HW313885   4.296   3.369   0.684 -0.3105 -2.4358  0.2327
 3528SOL    MW413886   4.293   3.387   0.770 -0.9207  0.0684 -0.3969
 3529SOL     OW13887   4.168   6.384   2.498 -0.3113  0.4808 -0.0661
 3529SOL    HW213888   4.126   6.368   2.414 -0.5905  1.1681 -0.0668
 3529SOL    HW313889   4.125   6.463   2.531  1.2070  1.3982 -0.2078
 3529SOL    MW413890   4.157   6.392   2.492 -0.4593 -1.0635  0.0270
 3530SOL     OW13891   4.534   5.217   5.888 -0.8103 -0.3636 -0.4260
 3530SOL    HW213892   4.480   5.152   5.933 -1.6685  1.8257  2.0055
 3530SOL    HW313893   4.485   5.299   5.898  0.3379  0.7713 -3.0790
 3530SOL    MW413894   4.520   5.219   5.896  0.2156 -0.0747 -0.0012
 3531SOL     OW13895   1.875   0.786   4.259  0.3926 -0.4192 -0.3613
 3531SOL    HW213896   1.926   0.710   4.287  1.0501 -0.2421 -1.0360
 3531SOL    HW313897   1.794   0.750   4.225  0.2754 -0.7436  0.2543
 3531SOL    MW413898   1.871   0.772   4.258  0.0330  0.6422 -0.8871
 3532SOL     OW13899   4.007   3.194   4.966 -0.2160  0.3309  0.0410
 3532SOL    HW213900   3.942   3.246   4.919  1.9074  2.7980 -0.3933
 3532SOL    HW313901   4.014   3.235   5.052  0.8405  0.2134  0.0265
 3532SOL    MW413902   3.999   3.206   4.971  0.1116  0.3307 -0.5321
 3533SOL     OW13903   1.666   0.396   0.386 -0.3801  0.1685 -0.3079
 3533SOL    HW213904   1.595   0.398   0.322  1.7308 -1.5181 -2.9109
 3533SOL    HW313905   1.688   0.304   0.395  1.5213  0.6327  0.3072
 3533SOL    MW413906   1.659   0.384   0.378 -0.3590 -0.2468  0.2632
 3534SOL     OW13907   4.563   4.991   4.216 -0.7287 -0.3212 -0.2259
 3534SOL    HW213908   4.485   4.964   4.265 -0.9635  2.0110  0.8215
 3534SOL    HW313909   4.530   5.018   4.131 -0.7809 -1.1653 -0.4818
 3534SOL    MW413910   4.548   4.991   4.212 -0.0657  0.2961 -0.2330
 3535SOL     OW13911   1.504   3.264   0.568  0.1230 -0.0882 -0.1424
 3535SOL    HW213912   1.464   3.333   0.516 -1.3371  0.5992  1.7881
 3535SOL    HW313913   1.583   3.304   0.604  1.1741 -0.5856 -1.7757
 3535SOL    MW413914   1.509   3.278   0.566 -0.1020  0.2880 -0.1532
 3536SOL     OW13915   3.524   5.480   5.229 -0.2772  0.1715  0.4357
 3536SOL    HW213916   3.439   5.521   5.216  0.6625  2.7139  1.5701
 3536SOL    HW313917   3.520   5.442   5.317 -0.0068  1.0716  0.8546
 3536SOL    MW413918   3.512   5.481   5.239  0.5983 -0.0240 -0.4835
 3537SOL     OW13919   5.046   5.452   4.266  0.6521 -0.6186 -0.3320
 3537SOL    HW213920   5.038   5.421   4.356  0.0451 -0.5123 -0.3488
 3537SOL    HW313921   5.009   5.540   4.268 -0.4761 -1.0583 -0.9328
 3537SOL    MW413922   5.040   5.460   4.279 -0.4345  0.1042 -0.6038
 3538SOL     OW13923   0.753   2.929   2.984 -0.1103  0.2469 -0.0477
 3538SOL    HW213924   0.794   3.005   3.024  0.3051 -0.3095  0.6092
 3538SOL    HW313925   0.762   2.943   2.890  0.1173  0.9197  0.0715
 3538SOL    MW413926   0.759   2.941   2.977 -0.0450  0.0516  0.7408
 3539SOL     OW13927   4.396   3.874   3.764 -0.1063  0.8593  0.1446
 3539SOL    HW213928   4.308   3.851   3.735  0.7683 -2.0165 -0.5422
 3539SOL    HW313929   4.432   3.793   3.800  2.0514  2.1065  1.0184
 3539SOL    MW413930   4.389   3.861   3.765  0.1161  0.5441 -0.0144
 3540SOL     OW13931   4.546   4.169   2.038  0.1530 -0.3087  0.6371
 3540SOL    HW213932   4.477   4.108   2.013 -0.9791  1.0928  0.2936
 3540SOL    HW313933   4.550   4.162   2.134 -0.4000 -0.4527  0.6501
 3540SOL    MW413934   4.538   4.160   2.048 -0.5089  0.2471  0.0601
 3541SOL     OW13935   4.744   1.588   0.735  0.4466 -0.5048 -0.3236
 3541SOL    HW213936   4.653   1.558   0.728 -0.3209  1.4068  0.6742
 3541SOL    HW313937   4.758   1.641   0.656  0.2076  0.3509  0.1981
 3541SOL    MW413938   4.734   1.591   0.723  0.1950  0.1914 -0.5563
 3542SOL     OW13939   0.510   2.036   5.788 -0.0768 -0.0786  0.8867
 3542SOL    HW213940   0.586   1.978   5.795 -0.0544  0.0798  2.2039
 3542SOL    HW313941   0.497   2.048   5.694 -0.1954 -2.3708  0.5543
 3542SOL    MW413942   0.518   2.030   5.777 -0.1229 -0.3822  0.2410
 3543SOL     OW13943   4.347   5.417   5.888 -0.1051  0.1197  0.4528
 3543SOL    HW213944   4.330   5.387   5.799  1.0092 -1.1449  0.6344
 3543SOL    HW313945   4.387   5.504   5.877  2.5333 -1.1033 -0.4982
 3543SOL    MW413946   4.350   5.425   5.875 -0.3269  0.2753 -0.3150
 3544SOL     OW13947   4.279   4.076   1.304  0.0836 -0.5037  0.1353
 3544SOL    HW213948   4.357   4.046   1.258  1.3530  1.5261  0.8028
 3544SOL    HW313949   4.211   4.076   1.238  0.7864 -1.7337 -0.6252
 3544SOL    MW413950   4.280   4.072   1.289 -0.2345 -0.2077  0.0839
 3545SOL     OW13951   3.282   5.113   3.386 -0.0835 -0.0845 -0.1346
 3545SOL    HW213952   3.320   5.086   3.470  0.2869 -1.4329 -0.7084
 3545SOL    HW313953   3.205   5.057   3.375 -0.8725  0.9753 -0.1085
 3545SOL    MW413954   3.277   5.102   3.396 -0.4602 -0.2445 -0.3380
 3546SOL     OW13955   5.796   1.884   1.181 -0.2350  0.4306  0.4051
 3546SOL    HW213956   5.865   1.856   1.120 -0.5291 -0.6346  0.5382
 3546SOL    HW313957   5.820   1.843   1.264 -0.4002  1.0330  0.7595
 3546SOL    MW413958   5.808   1.875   1.184 -0.4311  0.2467 -0.0601
 3547SOL     OW13959   5.424   2.604   5.513 -0.2351  0.2431  0.2655
 3547SOL    HW213960   5.400   2.678   5.457 -0.2674 -0.2010 -0.3143
 3547SOL    HW313961   5.353   2.598   5.578 -0.3526  0.5694  0.1655
 3547SOL    MW413962   5.411   2.613   5.515  0.0019  0.7688 -0.4463
 3548SOL     OW13963   0.518   1.328   0.586  0.1530 -0.2899  0.9402
 3548SOL    HW213964   0.566   1.402   0.550  0.0521 -0.7011 -0.0772
 3548SOL    HW313965   0.507   1.349   0.678  1.4326  0.2584  0.9827
 3548SOL    MW413966   0.523   1.340   0.593 -0.2623 -0.3766  0.3480
 3549SOL     OW13967   1.991   0.731   0.134  0.5603 -0.4529 -0.2729
 3549SOL    HW213968   1.949   0.648   0.158  1.9973 -0.9605  0.6030
 3549SOL    HW313969   1.927   0.798   0.158 -0.3577 -1.2584 -0.3923
 3549SOL    MW413970   1.977   0.729   0.140  0.5990 -0.5148 -0.3228
 3550SOL     OW13971   2.845   1.991   5.668 -0.0327  0.0926 -0.3748
 3550SOL    HW213972   2.823   2.055   5.601  2.1468  0.3031 -0.9530
 3550SOL    HW313973   2.883   1.917   5.619 -0.0481 -0.5081  0.4904
 3550SOL    MW413974   2.847   1.989   5.652 -0.1038  0.9177  0.2947
 3551SOL     OW13975   4.300   4.604   1.288 -0.7115 -0.0001 -0.1958
 3551SOL    HW213976   4.350   4.524   1.278 -0.8159 -0.1792  0.6006
 3551SOL    HW313977   4.251   4.592   1.369 -2.0310  0.1837 -0.9399
 3551SOL    MW413978   4.300   4.592   1.298  0.1648 -0.1781  0.1336
 3552SOL     OW13979   5.345   5.233   0.793 -0.1697 -0.2142 -0.0229
 3552SOL    HW213980   5.380   5.177   0.724  0.4895 -0.2159  0.3033
 3552SOL    HW313981   5.396   5.313   0.787 -0.7033  0.1250 -0.0980
 3552SOL    MW413982   5.356   5.236   0.784 -0.1998  0.9858 -0.1956
 3553SOL     OW13983   4.541   0.583   4.388 -0.1429  0.5793  0.2780
 3553SOL    HW213984   4.476   0.515   4.377 -0.8349  1.2902 -0.1570
 3553SOL    HW313985   4.578   0.568   4.475 -0.7706  0.0746  0.4614
 3553SOL    MW413986   4.538   0.572   4.398  0.8505  0.3713 -0.7412
 3554SOL     OW13987   4.395   3.847   0.337  0.2254  0.1807 -0.0475
 3554SOL    HW213988   4.468   3.792   0.365  0.1845 -0.3064 -0.8710
 3554SOL    HW313989   4.392   3.838   0.242 -0.4527  0.7725 -0.0975
 3554SOL    MW413990   4.404   3.839   0.328  0.6920 -0.8673 -0.4549
 3555SOL     OW13991   0.786   6.368   4.671  0.0939 -0.2249 -0.0685
 3555SOL    HW213992   0.872   6.378   4.711 -0.2347  0.0686  0.5749
 3555SOL    HW313993   0.773   6.274   4.665  0.8852 -0.2892 -1.1152
 3555SOL    MW413994   0.796   6.357   4.676  0.0795 -0.5751  0.4884
 3556SOL     OW13995   5.284   4.598   1.015  0.6113  0.2800  0.1545
 3556SOL    HW213996   5.293   4.524   1.076 -0.6759  1.7639  2.2778
 3556SOL    HW313997   5.200   4.638   1.038  1.3238  2.4962 -0.8378
 3556SOL    MW413998   5.274   4.593   1.026 -0.0630  0.0952  0.4701
 3557SOL     OW13999   0.423   3.723   4.073 -0.1228 -0.2190 -0.1533
 3557SOL    HW214000   0.518   3.713   4.063 -0.3109 -1.7821 -0.6506
 3557SOL    HW314001   0.413   3.800   4.129  1.4506 -0.3840  0.4042
 3557SOL    MW414002   0.434   3.732   4.079 -0.7425  0.1702 -0.2068
 3558SOL     OW14003   3.900   1.734   0.520 -0.1850 -0.2602  0.0352
 3558SOL    HW214004   3.927   1.811   0.471  1.4051 -0.5188  0.4644
 3558SOL    HW314005   3.856   1.679   0.455 -2.5321  1.5003 -0.0235
 3558SOL    MW414006   3.897   1.737   0.505 -0.2618  0.1159  0.4743
 3559SOL     OW14007   3.786   4.507   0.888  0.9679  0.1251 -0.2185
 3559SOL    HW214008   3.811   4.446   0.957 -1.1875 -1.8211 -1.0456
 3559SOL    HW314009   3.823   4.591   0.916  3.1818 -1.2863  1.4736
 3559SOL    MW414010   3.795   4.510   0.901  0.4429  0.4820 -0.1234
 3560SOL     OW14011   3.019   2.984   1.845 -0.0759  0.5762  0.1957
 3560SOL    HW214012   3.087   3.046   1.817 -1.6275  1.3898 -1.9914
 3560SOL    HW314013   3.012   2.998   1.940  2.0552  1.1831  0.3189
 3560SOL    MW414014   3.027   2.994   1.854 -0.0529 -0.3909 -0.1069
 3561SOL     OW14015   5.403   1.177   1.720  0.2102  0.2882  0.0803
 3561SOL    HW214016   5.403   1.248   1.784  1.0868 -0.9849  1.5423
 3561SOL    HW314017   5.313   1.144   1.720 -0.7044  2.4505 -1.9304
 3561SOL    MW414018   5.391   1.182   1.728 -0.1865  0.1698 -0.0077
 3562SOL     OW14019   2.102   5.058   0.753 -0.3950  0.6178 -0.1201
 3562SOL    HW214020   2.067   5.018   0.673 -1.5451 -0.2321  0.7652
 3562SOL    HW314021   2.159   5.128   0.722 -0.3607 -0.0575 -1.6912
 3562SOL    MW414022   2.105   5.062   0.739 -0.1827 -0.5095 -0.7178
 3563SOL     OW14023   2.095   2.775   5.368  0.6116  0.3874 -0.1394
 3563SOL    HW214024   2.151   2.827   5.426 -0.4596  2.0561 -0.5071
 3563SOL    HW314025   2.061   2.839   5.305 -0.5176 -0.8482 -0.8314
 3563SOL    MW414026   2.098   2.791   5.368 -0.2711  0.3857 -0.1314
 3564SOL     OW14027   4.634   1.435   2.281 -0.3563 -0.4411 -0.0548
 3564SOL    HW214028   4.569   1.393   2.337 -1.5487 -0.3937 -1.3650
 3564SOL    HW314029   4.603   1.525   2.272  1.2158  0.2935  1.2631
 3564SOL    MW414030   4.621   1.442   2.288  0.5966 -0.2409 -0.2772
 3565SOL     OW14031   5.652   1.001   2.481 -0.2396  0.1773  0.4758
 3565SOL    HW214032   5.563   1.024   2.456  0.1805  0.7435 -0.5218
 3565SOL    HW314033   5.668   1.051   2.561  0.5704  3.3772 -1.5009
 3565SOL    MW414034   5.643   1.010   2.489  0.0179  0.4222 -0.2832
 3566SOL     OW14035   4.083   2.724   5.809  0.4567  0.1375  0.2235
 3566SOL    HW214036   4.070   2.791   5.742  1.0526 -0.3183 -0.3645
 3566SOL    HW314037   4.039   2.646   5.773 -0.4165  0.2524  0.9961
 3566SOL    MW414038   4.075   2.723   5.795  0.6826 -0.4177 -0.2018
 3567SOL     OW14039   0.230   3.519   0.702  0.1303  0.0826  0.0317
 3567SOL    HW214040   0.260   3.436   0.664 -0.7303 -0.3739  0.3137
 3567SOL    HW314041   0.303   3.549   0.756  0.7850 -0.0358 -0.7618
 3567SOL    MW414042   0.243   3.512   0.704 -0.5771 -0.8440 -0.0702
 3568SOL     OW14043   4.344   4.606   0.750 -0.0185 -0.2893 -0.3149
 3568SOL    HW214044   4.340   4.567   0.663  1.9794  0.1370 -0.6366
 3568SOL    HW314045   4.436   4.600   0.775 -0.3934  0.4695  1.3745
 3568SOL    MW414046   4.355   4.600   0.742 -0.3923 -0.2348  0.1070
 3569SOL     OW14047   2.163   1.250   3.221  0.6321  0.4001  0.1747
 3569SOL    HW214048   2.179   1.157   3.236  0.0673 -0.0333 -1.6288
 3569SOL    HW314049   2.124   1.282   3.303  3.0864 -0.3313  1.7302
 3569SOL    MW414050   2.160   1.242   3.234  0.6789 -0.4358 -0.0725
 3570SOL     OW14051   5.663   2.305   1.447 -0.0121  0.4222  0.1794
 3570SOL    HW214052   5.617   2.326   1.528  0.8250  1.2696  0.4546
 3570SOL    HW314053   5.752   2.281   1.475  0.4136  1.1448 -0.5047
 3570SOL    MW414054   5.669   2.304   1.461  0.2507  0.0645 -0.9114
 3571SOL     OW14055   1.288   2.508   6.288 -0.2840 -0.4953  0.2107
 3571SOL    HW214056   1.223   2.560   6.335 -0.8651 -0.1512 -0.9275
 3571SOL    HW314057   1.370   2.525   6.334 -0.8298 -0.2294  1.1240
 3571SOL    MW414058   1.290   2.517   6.300 -0.4328  0.8036 -0.2849
 3572SOL     OW14059   0.981   1.645   3.399 -0.1566  0.2097  0.3009
 3572SOL    HW214060   0.933   1.563   3.407 -0.3372  0.2292 -0.4995
 3572SOL    HW314061   1.073   1.620   3.402 -0.2122  0.0052  0.3215
 3572SOL    MW414062   0.987   1.631   3.400  0.1206  0.0880 -0.2683
 3573SOL     OW14063   4.275   5.787   1.406  0.3719  0.1902  0.4635
 3573SOL    HW214064   4.250   5.877   1.427  1.2272  0.2581  1.2826
 3573SOL    HW314065   4.207   5.756   1.347 -0.8576  0.8145  1.4990
 3573SOL    MW414066   4.263   5.795   1.401 -0.0574 -0.5158  0.0611
 3574SOL     OW14067   1.499   0.969   2.526 -0.3251 -0.0228 -0.4079
 3574SOL    HW214068   1.428   1.013   2.479 -0.8164  1.7450  1.8360
 3574SOL    HW314069   1.455   0.910   2.587  0.2198 -0.4824 -0.4495
 3574SOL    MW414070   1.484   0.967   2.528 -0.0765 -0.1173 -0.1497
 3575SOL     OW14071   2.345   5.297   5.924  0.3599 -0.1808  0.7918
 3575SOL    HW214072   2.275   5.292   5.859 -0.2969  0.4364  1.4378
 3575SOL    HW314073   2.305   5.338   6.000  1.1057 -0.9477  1.6223
 3575SOL    MW414074   2.331   5.302   5.925 -0.4596  0.2703  0.5797
 3576SOL     OW14075   3.801   4.048   5.289  0.0017  0.4246  0.6917
 3576SOL    HW214076   3.845   4.104   5.353 -0.0131  1.4393 -0.1506
 3576SOL    HW314077   3.826   4.085   5.204 -1.3385  0.1565  0.1518
 3576SOL    MW414078   3.810   4.061   5.286  0.3407 -0.1575 -0.1486
 3577SOL     OW14079   1.580   2.839   4.792  0.1328 -0.7653  0.0261
 3577SOL    HW214080   1.534   2.895   4.730 -0.6738 -2.0391 -0.5505
 3577SOL    HW314081   1.571   2.751   4.757  0.4801 -1.4038  1.4592
 3577SOL    MW414082   1.573   2.835   4.779 -0.3161  0.0899 -0.2457
 3578SOL     OW14083   5.772   6.261   2.557  0.5012 -0.0189 -0.2675
 3578SOL    HW214084   5.746   6.212   2.478  1.2141 -2.0146  0.6760
 3578SOL    HW314085   5.761   6.353   2.532  0.2292 -0.5917 -2.5272
 3578SOL    MW414086   5.767   6.267   2.543 -0.6206  0.2764 -0.3566
 3579SOL     OW14087   1.827   4.851   5.976  0.1728 -0.6277  0.2134
 3579SOL    HW214088   1.899   4.870   6.036  0.4089 -0.6982 -0.0400
 3579SOL    HW314089   1.845   4.762   5.945 -0.2615 -0.8078  0.4738
 3579SOL    MW414090   1.839   4.842   5.979 -0.2696 -0.7072 -0.7187
 3580SOL     OW14091   4.434   5.887   4.706  0.4205 -0.0460  0.2637
 3580SOL    HW214092   4.365   5.902   4.641 -0.5402  1.3955  1.5415
 3580SOL    HW314093   4.468   5.801   4.685 -1.9474 -0.9240 -0.2905
 3580SOL    MW414094   4.430   5.878   4.695 -0.5566  0.0168  0.0918
 3581SOL     OW14095   6.401   3.456   5.545  0.1919 -0.6186 -0.2328
 3581SOL    HW214096   6.477   3.453   5.487 -1.2386 -0.4681 -2.2246
 3581SOL    HW314097   6.404   3.542   5.585  0.6315 -0.3145 -0.9041
 3581SOL    MW414098   6.411   3.467   5.542  0.0564  0.7473 -0.1851
 3582SOL     OW14099   2.566   5.079   5.836 -0.2692 -0.1646 -0.1463
 3582SOL    HW214100   2.577   4.998   5.787 -0.1519  0.8144 -1.7932
 3582SOL    HW314101   2.471   5.091   5.842 -0.2820 -0.1473 -0.3761
 3582SOL    MW414102   2.555   5.070   5.831 -0.0745  0.2047  1.0809
 3583SOL     OW14103   2.876   6.261   4.140  0.5217  0.6995 -0.2494
 3583SOL    HW214104   2.889   6.306   4.223  0.8230 -2.2259  1.4250
 3583SOL    HW314105   2.893   6.169   4.160 -1.6400 -0.4349 -3.0388
 3583SOL    MW414106   2.880   6.255   4.153 -0.2340 -0.3811 -0.5104
 3584SOL     OW14107   5.245   5.235   5.432 -0.7534 -0.0566  0.2279
 3584SOL    HW214108   5.293   5.175   5.489 -2.3833 -2.7825 -1.0643
 3584SOL    HW314109   5.312   5.298   5.403  1.0368 -1.1084  1.8035
 3584SOL    MW414110   5.260   5.236   5.436  0.1040  0.3693  0.2464
 3585SOL     OW14111   1.461   5.355   5.599 -0.1903  0.1269  0.1026
 3585SOL    HW214112   1.473   5.290   5.530  0.2226  0.4483 -0.1361
 3585SOL    HW314113   1.409   5.424   5.557 -2.0534 -0.7702  0.8230
 3585SOL    MW414114   1.456   5.356   5.584  0.0015 -0.6260 -0.8574
 3586SOL     OW14115   4.527   4.252   4.690 -0.5961  0.4555 -0.5669
 3586SOL    HW214116   4.617   4.251   4.655 -0.1488  0.9397  0.5294
 3586SOL    HW314117   4.538   4.231   4.782 -1.7052 -0.2557 -0.5837
 3586SOL    MW414118   4.541   4.249   4.697 -0.3318  0.3371  0.1327
 3587SOL     OW14119   4.721   2.796   4.310 -0.3179  0.2830  0.4900
 3587SOL    HW214120   4.792   2.753   4.358  1.4460  0.4090 -1.8352
 3587SOL    HW314121   4.664   2.725   4.282  0.9568 -0.3144 -0.7513
 3587SOL    MW414122   4.723   2.781   4.312  0.0155 -0.2602 -0.9761
 3588SOL     OW14123   3.737   0.065   1.762  0.4339 -0.6639 -0.7106
 3588SOL    HW214124   3.706   0.098   1.847  1.0271  0.0085 -0.7399
 3588SOL    HW314125   3.685  -0.013   1.746 -1.0162  0.2482 -0.6241
 3588SOL    MW414126   3.726   0.059   1.771  0.3172 -0.0517  0.3745
 3589SOL     OW14127   3.138   2.999   0.966  0.3683 -0.0848 -0.2708
 3589SOL    HW214128   3.122   2.905   0.954 -1.8760  0.1598  0.3718
 3589SOL    HW314129   3.166   3.007   1.057  1.0052 -0.1485 -0.4520
 3589SOL    MW414130   3.140   2.988   0.976  0.3906  0.1770 -0.4783
 3590SOL     OW14131   3.017   2.146   4.519 -0.4701 -0.1274  0.8124
 3590SOL    HW214132   3.019   2.181   4.430  0.6814 -1.1092  0.4192
 3590SOL    HW314133   3.046   2.218   4.575 -1.0178  0.4348  0.3837
 3590SOL    MW414134   3.021   2.160   4.515  0.2181  1.2255  0.3629
 3591SOL     OW14135   5.014   2.552   1.701  0.3574  0.2999  0.5215
 3591SOL    HW214136   5.099   2.586   1.673  0.3816 -1.1434 -1.4241
 3591SOL    HW314137   4.951   2.598   1.645  0.3552 -2.2459 -1.7992
 3591SOL    MW414138   5.017   2.563   1.690 -0.3306  0.3303 -0.4905
 3592SOL     OW14139   1.508   4.248   5.309  0.1461 -0.1200 -0.1319
 3592SOL    HW214140   1.495   4.249   5.214 -0.0851  1.4028 -0.1033
 3592SOL    HW314141   1.465   4.168   5.338 -0.9071  0.0487 -1.1546
 3592SOL    MW414142   1.501   4.237   5.300  0.7089 -0.4436  0.1916
 3593SOL     OW14143   4.215   4.907   1.616 -0.4330 -0.4872  0.1140
 3593SOL    HW214144   4.287   4.958   1.578 -0.0250 -0.7583  0.5104
 3593SOL    HW314145   4.246   4.816   1.613 -0.6485 -0.5766  0.5259
 3593SOL    MW414146   4.229   4.902   1.611  0.2851 -0.2030 -0.2043
 3594SOL     OW14147   2.552   2.127   3.752  0.0329  0.2782  0.2000
 3594SOL    HW214148   2.576   2.088   3.836  0.4636  0.5603  0.2112
 3594SOL    HW314149   2.457   2.115   3.746  0.3295 -2.2370 -0.5335
 3594SOL    MW414150   2.543   2.121   3.763 -0.1310 -0.4396  0.1565
 3595SOL     OW14151   0.782   1.579   3.840 -0.1591  0.2894 -0.2990
 3595SOL    HW214152   0.804   1.646   3.905 -0.7263  0.8511 -0.6781
 3595SOL    HW314153   0.792   1.623   3.756  0.6392 -0.4534 -0.6108
 3595SOL    MW414154   0.786   1.593   3.837 -0.0570 -0.4606  0.3116
 3596SOL     OW14155   2.805   6.238   0.718 -0.3472 -0.3149 -0.2220
 3596SOL    HW214156   2.718   6.231   0.756 -0.3090  1.6640  0.3274
 3596SOL    HW314157   2.865   6.215   0.789 -0.3940 -1.6449 -0.5911
 3596SOL    MW414158   2.801   6.234   0.732  0.9297  0.2759 -0.1915
 3597SOL     OW14159   1.105   2.160   4.610 -0.0496 -0.2239 -0.2021
 3597SOL    HW214160   1.161   2.190   4.682 -0.7793  2.1598 -0.5581
 3597SOL    HW314161   1.017   2.188   4.636 -0.4596 -0.2153 -1.5573
 3597SOL    MW414162   1.101   2.168   4.623 -0.1024  0.4718 -0.2683
 3598SOL     OW14163   5.292   4.458   2.478  0.0763  0.1975  0.5975
 3598SOL    HW214164   5.213   4.408   2.458  0.4068  0.4852 -1.7756
 3598SOL    HW314165   5.262   4.527   2.537 -1.4378  0.1948 -0.1067
 3598SOL    MW414166   5.277   4.461   2.483 -0.0412  0.0314 -0.0335
 3599SOL     OW14167   3.428   0.248   4.846  0.0713 -0.2697 -0.3433
 3599SOL    HW214168   3.383   0.332   4.838  1.1018  0.3219 -0.2191
 3599SOL    HW314169   3.377   0.199   4.911  1.6754  1.8773  2.7935
 3599SOL    MW414170   3.416   0.253   4.854 -0.0111  0.0313  0.4634
 3600SOL     OW14171   3.078   6.048   5.772  0.6987  0.4493  0.0492
 3600SOL    HW214172   2.994   6.078   5.806  1.8164  2.9161  0.7999
 3600SOL    HW314173   3.058   6.021   5.682 -1.0970 -0.3026  0.6054
 3600SOL    MW414174   3.064   6.048   5.764 -0.0404 -0.3837  0.0389
 3601SOL     OW14175   0.750   1.405   2.176 -0.3142 -0.2631 -0.1582
 3601SOL    HW214176   0.783   1.334   2.232  0.9035  0.6366  0.2957
 3601SOL    HW314177   0.779   1.382   2.088 -0.5398 -0.6818 -0.1265
 3601SOL    MW414178   0.758   1.393   2.172 -0.3992  0.4529  0.0610
 3602SOL     OW14179   3.282   2.560   1.336  0.7007  0.6571  0.4260
 3602SOL    HW214180   3.294   2.625   1.266  1.0946  0.5414  0.3828
 3602SOL    HW314181   3.286   2.476   1.292 -1.8197  0.5938  0.1687
 3602SOL    MW414182   3.284   2.558   1.321 -0.0484 -0.0333 -0.6179
 3603SOL     OW14183   1.791   1.987   2.692 -0.2159 -0.3393  0.6132
 3603SOL    HW214184   1.728   2.056   2.712  0.4287 -0.0372  1.7000
 3603SOL    HW314185   1.759   1.910   2.740 -0.8572 -0.7840 -0.4845
 3603SOL    MW414186   1.778   1.986   2.701 -0.0426 -0.1717 -0.2518
 3604SOL     OW14187   4.739   4.546   3.924 -0.2077  0.3300 -0.0631
 3604SOL    HW214188   4.739   4.505   4.010  0.8978  1.1194  0.3337
 3604SOL    HW314189   4.669   4.502   3.876 -2.1432  1.1793  1.8401
 3604SOL    MW414190   4.730   4.535   3.929  0.5041  0.2926  0.3680
 3605SOL     OW14191   6.109   1.039   3.928 -0.1292 -0.1366  0.1363
 3605SOL    HW214192   6.089   0.991   4.009 -0.2361 -1.5362 -0.7000
 3605SOL    HW314193   6.120   0.971   3.862 -0.5316  1.0035 -1.1410
 3605SOL    MW414194   6.108   1.024   3.930 -0.2345 -0.3054 -0.3091
 3606SOL     OW14195   3.661   6.285   0.846 -0.5032  0.0972 -0.0049
 3606SOL    HW214196   3.605   6.297   0.769  1.6200 -0.8844 -1.8279
 3606SOL    HW314197   3.672   6.190   0.853  0.9433  0.2586  0.2475
 3606SOL    MW414198   3.656   6.274   0.837  0.0078 -0.5784  0.2991
 3607SOL     OW14199   4.848   3.271   1.008 -0.3916 -0.0594  0.3325
 3607SOL    HW214200   4.764   3.282   1.053 -1.0562  0.0303 -0.9122
 3607SOL    HW314201   4.849   3.179   0.981 -0.6695  0.2574 -0.7816
 3607SOL    MW414202   4.837   3.260   1.011 -0.0395  0.6721  0.2619
 3608SOL     OW14203   5.111   4.336   4.815  0.0650 -0.0761 -0.2986
 3608SOL    HW214204   5.065   4.264   4.773  0.5497  0.6972 -2.3040
 3608SOL    HW314205   5.182   4.295   4.865 -0.8161 -1.0689  0.1555
 3608SOL    MW414206   5.115   4.321   4.816 -0.2609 -0.5901 -0.0955
 3609SOL     OW14207   5.672   5.847   6.243 -0.4813  0.5733 -0.1061
 3609SOL    HW214208   5.666   5.752   6.247  1.8020  0.3941  0.8700
 3609SOL    HW314209   5.746   5.868   6.300  0.6644  2.7453 -2.2467
 3609SOL    MW414210   5.681   5.837   6.251 -0.6197 -0.6170 -0.3305
 3610SOL     OW14211   3.670   0.218   4.639  0.1081 -0.3178 -0.4033
 3610SOL    HW214212   3.575   0.230   4.650  0.4649  0.9666  1.8258
 3610SOL    HW314213   3.685   0.126   4.661 -0.3962  0.0262  1.5941
 3610SOL    MW414214   3.659   0.207   4.644  0.1002 -0.5460 -0.8283
 3611SOL     OW14215   2.559   3.773   5.722  0.4027  0.6957 -0.6754
 3611SOL    HW214216   2.593   3.715   5.653 -3.0943 -2.1169 -0.2826
 3611SOL    HW314217   2.609   3.748   5.800 -1.3440 -2.4319 -0.3838
 3611SOL    MW414218   2.570   3.762   5.723  0.1132  0.8640 -0.4137
 3612SOL     OW14219   5.259   0.931   5.306 -0.1271 -0.0076  0.6057
 3612SOL    HW214220   5.302   0.900   5.226  0.0118  1.2320  0.1679
 3612SOL    HW314221   5.329   0.973   5.356 -0.2572 -0.5891  1.2885
 3612SOL    MW414222   5.274   0.932   5.302  1.1357 -0.3404 -0.2564
 3613SOL     OW14223   1.637   4.569   0.115 -0.4207  0.3963  0.7418
 3613SOL    HW214224   1.553   4.594   0.077  0.1954  2.8120  0.7955
 3613SOL    HW314225   1.629   4.591   0.208  0.1141  0.2042  0.8370
 3613SOL    MW414226   1.625   4.576   0.122  0.2455  0.1171  0.4420
 3614SOL     OW14227   6.068   4.496   2.170  0.2933  0.4342 -0.0192
 3614SOL    HW214228   6.067   4.533   2.081  0.5452  0.7160  0.0944
 3614SOL    HW314229   6.024   4.562   2.224 -1.0830 -0.3358 -0.1587
 3614SOL    MW414230   6.062   4.510   2.165  0.0612 -0.4659 -0.1486
 3615SOL     OW14231   0.258   3.463   1.455 -0.1766 -0.4440  0.5005
 3615SOL    HW214232   0.181   3.405   1.455  0.0651 -0.7713  0.4628
 3615SOL    HW314233   0.272   3.484   1.362 -0.3798 -0.1708  0.5327
 3615SOL    MW414234   0.250   3.458   1.442  0.0715 -0.0546  0.3232
 3616SOL     OW14235   6.356   1.505   4.582  0.1837 -0.3445 -0.1093
 3616SOL    HW214236   6.406   1.455   4.518  0.5327 -1.7131  1.1786
 3616SOL    HW314237   6.272   1.523   4.539  0.7662 -0.4083 -1.2818
 3616SOL    MW414238   6.351   1.501   4.568  0.1480 -0.8582 -0.4246
 3617SOL     OW14239   5.871   5.751   4.128  0.3714 -0.3626 -0.3011
 3617SOL    HW214240   5.786   5.714   4.153 -0.2028  0.7914 -0.4775
 3617SOL    HW314241   5.872   5.838   4.168  0.7168  0.3415 -1.7707
 3617SOL    MW414242   5.860   5.758   4.137 -0.2708  0.5045 -0.1451
 3618SOL     OW14243   5.171   2.642   4.878 -0.0795  0.0137  0.0094
 3618SOL    HW214244   5.255   2.685   4.896  0.1003  0.1724 -1.1891
 3618SOL    HW314245   5.195   2.561   4.832 -0.5826  0.0685 -0.3502
 3618SOL    MW414246   5.185   2.637   4.875 -0.3231 -0.3954 -0.6554
 3619SOL     OW14247   5.090   6.283   2.793 -0.4443 -0.2921 -0.0647
 3619SOL    HW214248   5.180   6.277   2.825 -0.5034  1.1565  0.4430
 3619SOL    HW314249   5.072   6.197   2.756  1.6060 -0.2053 -1.4082
 3619SOL    MW414250   5.100   6.271   2.792 -0.0512  0.1803  0.0266
 3620SOL     OW14251   5.179   0.216   4.686  0.0925  0.8476  0.1933
 3620SOL    HW214252   5.243   0.150   4.712  0.3908  1.1258  0.1829
 3620SOL    HW314253   5.096   0.169   4.679  0.1611  0.6149  0.8740
 3620SOL    MW414254   5.176   0.201   4.688 -0.0208  0.2040 -0.1643
 3621SOL     OW14255   0.325   5.383   1.661 -0.1932  0.5561  0.3170
 3621SOL    HW214256   0.379   5.444   1.611 -0.2491 -0.9513 -1.6805
 3621SOL    HW314257   0.362   5.385   1.750  0.8279  2.2316 -0.1052
 3621SOL    MW414258   0.337   5.391   1.666 -0.4084  0.5657  0.1607
 3622SOL     OW14259   1.308   4.428   2.823 -0.2514  0.6947  0.0754
 3622SOL    HW214260   1.266   4.385   2.898  1.9261  2.4235  2.5134
 3622SOL    HW314261   1.400   4.437   2.850  0.1001  3.6976 -1.6670
 3622SOL    MW414262   1.315   4.424   2.837  0.1528 -0.0472 -0.0522
 3623SOL     OW14263   2.089   1.030   2.144 -0.0944 -0.5505  0.0166
 3623SOL    HW214264   2.107   0.941   2.115 -1.7764 -0.4819 -1.3825
 3623SOL    HW314265   2.162   1.081   2.108 -0.7771 -0.8947 -1.9805
 3623SOL    MW414266   2.101   1.025   2.135  0.3306  0.3911  0.0461
 3624SOL     OW14267   2.715   3.739   0.323 -0.2086 -0.1737  0.0861
 3624SOL    HW214268   2.639   3.748   0.265  1.3793  0.0759 -2.0662
 3624SOL    HW314269   2.790   3.737   0.264  1.6610  1.7078  2.2063
 3624SOL    MW414270   2.715   3.740   0.308 -0.5210  0.5408 -0.1231
 3625SOL     OW14271   5.502   4.464   5.207  0.0416  0.6275 -0.6035
 3625SOL    HW214272   5.513   4.559   5.209 -0.0630  0.6276  1.2233
 3625SOL    HW314273   5.420   4.450   5.160 -0.7164  1.5430  0.3817
 3625SOL    MW414274   5.493   4.475   5.201  0.3998 -0.0011  0.1713
 3626SOL     OW14275   1.530   6.126   3.370  0.2463  0.2097 -0.1475
 3626SOL    HW214276   1.466   6.130   3.440 -1.5165  0.9066 -1.7208
 3626SOL    HW314277   1.615   6.137   3.414 -0.8584  1.7741  1.7314
 3626SOL    MW414278   1.533   6.128   3.385 -0.6271  0.3201  0.4171
 3627SOL     OW14279   2.326   5.523   4.379 -0.3515  0.4007  0.1373
 3627SOL    HW214280   2.290   5.612   4.376  0.1585  0.6023 -2.8532
 3627SOL    HW314281   2.384   5.518   4.303  0.6759 -2.0988  0.9814
 3627SOL    MW414282   2.329   5.534   4.369 -0.3689  0.5196 -0.8525
 3628SOL     OW14283   1.521   2.041   6.254  0.1038  0.2134 -0.0024
 3628SOL    HW214284   1.443   2.027   6.201 -0.9775  0.6417  1.4048
 3628SOL    HW314285   1.546   2.131   6.237 -1.4769  1.0359  1.7028
 3628SOL    MW414286   1.514   2.051   6.245  0.3003  0.0781 -0.3003
 3629SOL     OW14287   3.640   5.230   1.861  0.6878 -0.4474  0.2026
 3629SOL    HW214288   3.678   5.149   1.826  0.7078 -0.3728  0.0528
 3629SOL    HW314289   3.713   5.275   1.903  0.5948 -0.7042  0.6547
 3629SOL    MW414290   3.654   5.225   1.862  0.4233 -0.0807  0.0328
 3630SOL     OW14291   0.588   3.454   4.731  0.0785 -0.2427  0.5468
 3630SOL    HW214292   0.587   3.549   4.737 -0.7191 -0.1555 -0.5584
 3630SOL    HW314293   0.680   3.430   4.738  0.3206  0.6388  0.5049
 3630SOL    MW414294   0.600   3.463   4.733  0.5336 -0.3295  0.1188
 3631SOL     OW14295   0.157   5.596   2.518 -0.3619 -0.2297 -0.1710
 3631SOL    HW214296   0.085   5.579   2.579  0.5763  0.0506  1.0590
 3631SOL    HW314297   0.114   5.624   2.438 -1.6353 -0.3888  0.4288
 3631SOL    MW414298   0.142   5.597   2.516  0.0243 -0.9488 -0.0940
 3632SOL     OW14299   5.806   2.509   2.516  0.5797  0.5977 -0.4429
 3632SOL    HW214300   5.876   2.486   2.577  1.4579  2.4214 -0.6984
 3632SOL    HW314301   5.843   2.490   2.429 -0.4705 -1.4762 -0.5125
 3632SOL    MW414302   5.820   2.503   2.512  0.4141  0.2579 -0.0674
 3633SOL     OW14303   3.116   4.304   3.089 -0.0382 -0.2677  0.3390
 3633SOL    HW214304   3.194   4.263   3.127 -0.2824 -0.1487  0.9723
 3633SOL    HW314305   3.139   4.396   3.082  0.2094 -0.3745 -0.3251
 3633SOL    MW414306   3.129   4.311   3.093  0.2130  0.7028  0.5919
 3634SOL     OW14307   5.111   4.611   5.856 -0.4109 -0.1688 -0.2247
 3634SOL    HW214308   5.174   4.584   5.924 -0.5563 -0.8547 -0.3505
 3634SOL    HW314309   5.029   4.568   5.882 -0.6489  0.1483 -0.4493
 3634SOL    MW414310   5.109   4.602   5.869 -0.2180  0.2904 -0.5067
 3635SOL     OW14311   5.913   5.022   4.919 -0.4596  0.4177 -0.9083
 3635SOL    HW214312   5.829   4.990   4.951  0.1331 -0.0742  0.2299
 3635SOL    HW314313   5.891   5.094   4.860 -1.6894 -0.0055 -0.9892
 3635SOL    MW414314   5.899   5.027   4.916  0.0866  0.0132 -0.6761
 3636SOL     OW14315   0.854   4.202   6.181  0.5136  0.0462 -0.6383
 3636SOL    HW214316   0.759   4.187   6.184  0.6367 -0.6197  0.4357
 3636SOL    HW314317   0.885   4.176   6.267  1.6144  0.7701 -0.7952
 3636SOL    MW414318   0.845   4.197   6.192 -0.8573  0.3843  0.3179
 3637SOL     OW14319   2.445   3.745   3.745 -0.3223  0.1954  0.2118
 3637SOL    HW214320   2.349   3.753   3.748 -0.8312 -0.5138 -5.0050
 3637SOL    HW314321   2.464   3.662   3.787 -2.4041 -0.9109 -0.8773
 3637SOL    MW414322   2.435   3.735   3.751  0.0690  0.2960 -0.2893
 3638SOL     OW14323   6.055   0.564   0.233 -0.2425  0.3471  0.0403
 3638SOL    HW214324   6.007   0.622   0.173 -1.0263 -0.7024 -0.3806
 3638SOL    HW314325   5.988   0.534   0.295  0.0625 -0.4063  0.0155
 3638SOL    MW414326   6.040   0.568   0.233 -0.1306  0.3395 -0.0538
 3639SOL     OW14327   5.008   0.468   1.046  0.1485  0.4789  0.1682
 3639SOL    HW214328   4.954   0.407   1.097  0.2431 -1.5147 -1.9378
 3639SOL    HW314329   4.946   0.530   1.009 -0.4889 -0.6223 -0.6655
 3639SOL    MW414330   4.992   0.468   1.048  0.8214 -0.3833  0.0439
 3640SOL     OW14331   3.434   0.928   5.071  0.4767  0.0782 -0.2250
 3640SOL    HW214332   3.485   0.913   5.151  0.7970 -1.6110 -0.7064
 3640SOL    HW314333   3.485   0.993   5.022  0.4186  0.9261  0.7816
 3640SOL    MW414334   3.448   0.935   5.075 -0.2776 -0.1470  0.2527
 3641SOL     OW14335   0.405   4.274   2.562 -0.3542 -1.0179 -0.3484
 3641SOL    HW214336   0.339   4.308   2.622  0.0922 -1.0967  0.1948
 3641SOL    HW314337   0.370   4.293   2.475 -0.9786 -0.8469 -0.0663
 3641SOL    MW414338   0.392   4.281   2.558  0.0698  0.4261  0.7202
 3642SOL     OW14339   4.846   0.175   1.571  0.1607 -0.3134  0.2371
 3642SOL    HW214340   4.915   0.241   1.565  0.2909 -0.4244  0.5263
 3642SOL    HW314341   4.792   0.191   1.493 -0.2460  0.6238  0.6874
 3642SOL    MW414342   4.848   0.186   1.560  0.6433 -0.1364 -0.0502
 3643SOL     OW14343   4.637   3.640   0.893  0.1668 -0.0643  0.1539
 3643SOL    HW214344   4.543   3.628   0.905 -0.0447  1.9666  0.9560
 3643SOL    HW314345   4.660   3.581   0.821 -1.7677 -0.4182 -0.2301
 3643SOL    MW414346   4.628   3.631   0.885  0.4374 -0.4243 -0.3892
 3644SOL     OW14347   2.474   5.388   1.358  0.1685  0.4282  0.1142
 3644SOL    HW214348   2.470   5.361   1.266  0.1374 -0.1964  0.2895
 3644SOL    HW314349   2.463   5.306   1.406 -2.7922  1.0961  0.7182
 3644SOL    MW414350   2.472   5.373   1.352 -0.0345  0.4258 -0.2484
 3645SOL     OW14351   5.298   1.550   4.358 -0.1067 -0.1387 -0.3723
 3645SOL    HW214352   5.232   1.619   4.366  0.8876  1.0959 -2.2481
 3645SOL    HW314353   5.247   1.470   4.347 -1.3404  0.8339 -2.1340
 3645SOL    MW414354   5.282   1.548   4.358 -0.2039  0.0124 -0.1193
 3646SOL     OW14355   2.086   1.219   6.103  0.0024 -1.0163 -0.1496
 3646SOL    HW214356   2.029   1.294   6.085  0.5675 -0.4939  0.2170
 3646SOL    HW314357   2.149   1.251   6.168 -0.1074 -1.9790  0.4436
 3646SOL    MW414358   2.087   1.233   6.109  0.5215  0.1454  0.3243
 3647SOL     OW14359   5.991   1.503   1.270  0.1680  0.2411  0.4504
 3647SOL    HW214360   6.006   1.561   1.195  1.8874 -1.7755 -0.8689
 3647SOL    HW314361   6.076   1.497   1.313  0.3009 -1.9553 -0.0018
 3647SOL    MW414362   6.004   1.510   1.266  0.2072  0.4508 -0.1129
 3648SOL     OW14363   4.800   3.151   1.562  0.1170  0.6083 -0.0872
 3648SOL    HW214364   4.811   3.087   1.492 -0.6092  0.3601  0.0166
 3648SOL    HW314365   4.831   3.234   1.525 -0.5434  0.5396 -0.8014
 3648SOL    MW414366   4.806   3.154   1.548  0.6389  0.9459 -0.1388
 3649SOL     OW14367   6.137   5.002   1.400 -0.0073 -0.3297 -0.2347
 3649SOL    HW214368   6.133   5.074   1.463  1.3257 -0.4221 -0.0206
 3649SOL    HW314369   6.188   4.935   1.444 -1.1701 -1.4075 -0.4590
 3649SOL    MW414370   6.143   5.003   1.415 -0.0497 -0.7447 -0.4512
 3650SOL     OW14371   3.861   1.563   0.316 -0.2220 -0.2854 -0.0491
 3650SOL    HW214372   3.795   1.503   0.353 -0.5716  1.0715  1.6632
 3650SOL    HW314373   3.811   1.625   0.264 -0.2286  0.2645  0.5967
 3650SOL    MW414374   3.846   1.563   0.314  0.0592 -0.6971  0.2323
 3651SOL     OW14375   4.585   6.450   0.216 -0.8169  0.3321 -0.2911
 3651SOL    HW214376   4.669   6.442   0.261  0.0766  2.2686 -1.4952
 3651SOL    HW314377   4.550   6.534   0.245 -1.8082  0.0716 -0.6770
 3651SOL    MW414378   4.591   6.460   0.226  0.5633 -0.1445 -0.5012
 3652SOL     OW14379   3.901   4.713   5.491 -0.1216 -0.1995 -0.4177
 3652SOL    HW214380   3.933   4.757   5.412 -0.8796  1.3104  0.0772
 3652SOL    HW314381   3.909   4.779   5.560 -1.8858 -0.6202  0.2337
 3652SOL    MW414382   3.907   4.728   5.490 -0.1034  0.6443 -0.0750
 3653SOL     OW14383   0.425   3.394   3.584 -0.4212  0.3518 -0.5100
 3653SOL    HW214384   0.433   3.345   3.666  0.8428 -1.7202 -1.7830
 3653SOL    HW314385   0.500   3.365   3.532 -2.0266  0.4145 -2.9929
 3653SOL    MW414386   0.436   3.383   3.588  0.0898  0.0893 -0.3340
 3654SOL     OW14387   0.654   4.201   0.435 -0.0419  0.0926  0.2574
 3654SOL    HW214388   0.659   4.107   0.418  1.0297 -0.0618  1.2697
 3654SOL    HW314389   0.571   4.229   0.395  0.0900 -1.0820 -0.8996
 3654SOL    MW414390   0.643   4.193   0.427  0.0180  0.4220 -0.1100
 3655SOL     OW14391   0.534   5.519   4.347 -0.1406 -0.1870  0.2456
 3655SOL    HW214392   0.468   5.509   4.279 -0.0103  0.0477  0.0807
 3655SOL    HW314393   0.486   5.550   4.423 -0.4883 -1.6371  0.6500
 3655SOL    MW414394   0.519   5.522   4.348 -0.1284 -0.6636 -0.1802
 3656SOL     OW14395   6.119   6.206   3.041  0.0811 -0.3043  0.0765
 3656SOL    HW214396   6.118   6.257   3.122 -0.3379 -1.8369  1.0603
 3656SOL    HW314397   6.055   6.136   3.055  0.4952 -0.9960 -1.3177
 3656SOL    MW414398   6.110   6.204   3.054  0.0435  0.2333  0.4684
 3657SOL     OW14399   3.768   5.155   6.363  0.1976  0.1191 -0.0858
 3657SOL    HW214400   3.682   5.116   6.352  1.0495 -1.6217 -1.0619
 3657SOL    HW314401   3.813   5.097   6.424  0.8439  0.7096  0.0129
 3657SOL    MW414402   3.763   5.143   6.369 -0.4424 -0.3234 -0.2395
 3658SOL     OW14403   5.652   2.983   0.066  0.0613  0.2412  0.5813
 3658SOL    HW214404   5.740   2.961   0.036 -0.0779  0.3415  0.0952
 3658SOL    HW314405   5.640   3.075   0.040 -0.0119  0.3702  1.0563
 3658SOL    MW414406   5.662   2.992   0.059 -0.9769  0.2018 -0.0111
 3659SOL     OW14407   0.840   2.347   1.340  0.0198 -0.0873  0.5024
 3659SOL    HW214408   0.883   2.336   1.255 -2.5102  0.4428 -0.9491
 3659SOL    HW314409   0.747   2.330   1.322 -0.3662 -1.9292  3.6132
 3659SOL    MW414410   0.833   2.343   1.326  0.0259  0.3491 -0.2101
 3660SOL     OW14411   2.512   0.950   5.512  0.2343  0.0626  0.5908
 3660SOL    HW214412   2.535   1.035   5.550 -1.1545  0.6568  0.1721
 3660SOL    HW314413   2.424   0.933   5.545  0.2023 -0.8501  0.0428
 3660SOL    MW414414   2.503   0.959   5.521 -0.0672  0.5184 -0.0457
 3661SOL     OW14415   3.141   1.957   4.807  0.3208 -0.3258 -0.0589
 3661SOL    HW214416   3.120   1.938   4.898  0.1314 -2.1458 -0.4353
 3661SOL    HW314417   3.214   1.898   4.786 -0.4307 -0.8369 -1.4031
 3661SOL    MW414418   3.148   1.947   4.816 -0.0672 -0.1514  0.3852
 3662SOL     OW14419   2.930   3.626   0.155 -0.5017 -0.3599  0.3744
 3662SOL    HW214420   2.926   3.620   0.059 -0.1625 -1.3072  0.4066
 3662SOL    HW314421   2.934   3.535   0.184  0.9499 -0.0454  1.2161
 3662SOL    MW414422   2.930   3.613   0.146 -0.1486 -0.2855  0.0840
 3663SOL     OW14423   6.168   0.161   5.475 -0.0138  0.0644 -0.0366
 3663SOL    HW214424   6.104   0.223   5.441 -0.2912  0.3862  1.0372
 3663SOL    HW314425   6.172   0.091   5.409 -1.3341  0.1271 -0.2019
 3663SOL    MW414426   6.160   0.160   5.462  0.6455 -0.0145  0.2148
 3664SOL     OW14427   3.946   5.232   3.488 -0.5143 -0.3298 -0.2336
 3664SOL    HW214428   3.966   5.280   3.407  1.5903  1.6826  1.3248
 3664SOL    HW314429   3.879   5.285   3.531 -1.0209 -0.9340 -0.2788
 3664SOL    MW414430   3.940   5.245   3.483  0.1396 -0.7144  0.1083
 3665SOL     OW14431   1.874   1.826   2.029 -0.0973 -0.0246 -0.3033
 3665SOL    HW214432   1.791   1.785   2.005 -1.0492  0.8622  1.3274
 3665SOL    HW314433   1.902   1.778   2.107  1.7582 -1.3302 -1.6759
 3665SOL    MW414434   1.867   1.814   2.036 -0.3829 -0.0805  0.2208
 3666SOL     OW14435   3.798   3.376   5.966  0.1410  0.9153  0.2506
 3666SOL    HW214436   3.832   3.335   5.886 -0.2339 -1.2345  1.1352
 3666SOL    HW314437   3.869   3.368   6.029  0.0284  1.5904  0.4684
 3666SOL    MW414438   3.812   3.369   5.964 -0.2765  0.3829 -0.1711
 3667SOL     OW14439   1.206   2.218   1.070 -0.7204 -0.2515 -0.1021
 3667SOL    HW214440   1.271   2.151   1.090 -0.3215 -0.3097 -1.4793
 3667SOL    HW314441   1.249   2.301   1.091 -0.4482 -0.3253 -0.3696
 3667SOL    MW414442   1.220   2.220   1.075  0.0004 -0.2125 -0.7166
 3668SOL     OW14443   5.376   0.409   2.536 -0.1512  0.0301  0.0424
 3668SOL    HW214444   5.300   0.390   2.591 -0.7340  0.9616 -0.4136
 3668SOL    HW314445   5.371   0.503   2.521  1.2675  0.1642  0.2472
 3668SOL    MW414446   5.365   0.419   2.541 -0.2866 -0.0063  0.4178
 3669SOL     OW14447   5.712   1.055   4.341 -0.0318 -0.6232  0.0800
 3669SOL    HW214448   5.625   1.091   4.354  0.4161  0.3910  0.3506
 3669SOL    HW314449   5.698   0.974   4.291 -0.9718  0.5888 -1.7218
 3669SOL    MW414450   5.699   1.049   4.336  0.4174 -1.1337  0.0653
 3670SOL     OW14451   0.301   6.064   3.099 -0.0368  0.4403  0.5808
 3670SOL    HW214452   0.270   6.005   3.169 -0.1395 -1.6704 -1.1308
 3670SOL    HW314453   0.221   6.103   3.064 -0.5749 -2.1061 -1.3352
 3670SOL    MW414454   0.286   6.061   3.104  0.0887 -0.4436  0.5327
 3671SOL     OW14455   2.387   3.856   3.013 -0.3619 -0.2434 -0.6708
 3671SOL    HW214456   2.348   3.902   2.938  0.1296  0.7263 -0.3493
 3671SOL    HW314457   2.336   3.776   3.022 -1.0840  0.1277 -1.4002
 3671SOL    MW414458   2.375   3.851   3.004  0.0990 -0.2683 -0.9606
 3672SOL     OW14459   1.354   5.895   1.552 -0.1954 -0.0690  0.2570
 3672SOL    HW214460   1.416   5.839   1.600  0.2759 -0.2454 -0.5388
 3672SOL    HW314461   1.301   5.833   1.501 -0.0849  0.1624 -0.1479
 3672SOL    MW414462   1.356   5.879   1.551  0.1619 -0.4411 -0.5042
 3673SOL     OW14463   1.648   2.517   0.309 -0.2085 -0.2304  0.3915
 3673SOL    HW214464   1.612   2.429   0.311  0.0392 -0.3371  2.1073
 3673SOL    HW314465   1.574   2.573   0.288 -0.5050 -0.7923 -0.0830
 3673SOL    MW414466   1.634   2.513   0.306  0.5477 -0.7432  0.1177
 3674SOL     OW14467   1.865   3.946   2.000 -0.4441  0.1020 -0.2498
 3674SOL    HW214468   1.800   4.009   2.029  1.4205  1.8635  0.3922
 3674SOL    HW314469   1.816   3.865   1.985 -2.6161  1.1175  0.9037
 3674SOL    MW414470   1.850   3.943   2.002 -0.5013  0.0302 -0.5027
 3675SOL     OW14471   0.118   0.523   3.965 -0.5162 -0.2698 -0.0577
 3675SOL    HW214472   0.099   0.457   3.898 -0.7026  0.1649 -0.4392
 3675SOL    HW314473   0.161   0.474   4.036  1.1158 -0.4773 -1.1427
 3675SOL    MW414474   0.121   0.508   3.966 -0.0427  0.2906  0.4028
 3676SOL     OW14475   0.791   4.654   1.923  0.2097  0.0361  0.0042
 3676SOL    HW214476   0.711   4.674   1.972 -1.2949 -3.1872 -0.8733
 3676SOL    HW314477   0.786   4.708   1.844 -2.1252 -1.3530 -0.8971
 3676SOL    MW414478   0.780   4.664   1.919  0.3490 -0.1541  0.3787
 3677SOL     OW14479   1.660   0.497   4.348 -0.1124  0.2188 -0.1132
 3677SOL    HW214480   1.624   0.565   4.292  0.9289  1.6009  0.8082
 3677SOL    HW314481   1.639   0.415   4.304 -1.9582  1.0842 -0.9523
 3677SOL    MW414482   1.653   0.496   4.335 -0.1802  0.6088  0.1010
 3678SOL     OW14483   3.234   2.509   0.820  0.2285 -0.0139  0.0624
 3678SOL    HW214484   3.160   2.458   0.789 -0.2586  1.1122 -0.7157
 3678SOL    HW314485   3.250   2.573   0.750  0.3705  1.3299  1.2627
 3678SOL    MW414486   3.226   2.511   0.807  0.1603 -0.0817  0.1755
 3679SOL     OW14487   5.778   3.268   2.808 -0.6789  0.2306  0.9718
 3679SOL    HW214488   5.803   3.187   2.853 -1.5566 -0.2437  0.6163
 3679SOL    HW314489   5.818   3.261   2.721  2.6717  2.0006  2.1760
 3679SOL    MW414490   5.787   3.257   2.802 -0.2610 -0.9992 -0.6435
 3680SOL     OW14491   3.298   2.513   3.643  0.0555  0.0615  0.3241
 3680SOL    HW214492   3.326   2.452   3.711 -2.9758 -0.4854  1.2347
 3680SOL    HW314493   3.287   2.596   3.689  0.5658  0.3665 -0.1004
 3680SOL    MW414494   3.300   2.516   3.658  0.1224  0.2944 -0.0030
 3681SOL     OW14495   1.263   6.170   1.604 -0.0882  0.6385  0.1266
 3681SOL    HW214496   1.287   6.078   1.595 -0.9215  0.4344 -0.0549
 3681SOL    HW314497   1.208   6.189   1.528 -1.0692  0.8949  0.8799
 3681SOL    MW414498   1.259   6.160   1.593 -0.5272  0.7876  0.0131
 3682SOL     OW14499   6.320   1.564   1.926  0.6076 -0.2403 -0.1943
 3682SOL    HW214500   6.251   1.622   1.959  1.1220  1.5176 -1.9816
 3682SOL    HW314501   6.389   1.569   1.991  0.0526 -0.0160  0.3861
 3682SOL    MW414502   6.320   1.572   1.939  0.1148 -0.3083  0.3980
 3683SOL     OW14503   4.233   2.433   4.327  0.4770 -0.2101  0.3125
 3683SOL    HW214504   4.188   2.474   4.401  1.2705 -0.6807  1.0864
 3683SOL    HW314505   4.181   2.457   4.251 -1.1557 -0.8350  1.1691
 3683SOL    MW414506   4.220   2.441   4.327 -0.4043  0.0409  0.0914
 3684SOL     OW14507   4.378   1.599   4.572 -0.0256 -0.2784 -0.0351
 3684SOL    HW214508   4.299   1.652   4.585  1.0717  1.2630  0.7937
 3684SOL    HW314509   4.388   1.594   4.477  0.1870  1.6158 -0.1479
 3684SOL    MW414510   4.369   1.606   4.561 -0.4476 -0.3683 -0.6805
 3685SOL     OW14511   5.644   0.998   0.811  0.0416  0.6372  0.3206
 3685SOL    HW214512   5.671   1.090   0.816 -0.8929  1.0867 -1.7544
 3685SOL    HW314513   5.690   0.964   0.734 -0.2435 -0.4240  0.5975
 3685SOL    MW414514   5.654   1.006   0.801  0.0862  0.0606 -0.0762
 3686SOL     OW14515   4.321   2.659   5.048  0.0881 -0.7989  0.2858
 3686SOL    HW214516   4.314   2.751   5.020 -0.5373 -0.8216  0.3577
 3686SOL    HW314517   4.309   2.663   5.143  0.0740 -0.9543  0.2904
 3686SOL    MW414518   4.318   2.672   5.057 -0.2702  0.0040  0.2165
 3687SOL     OW14519   1.762   3.605   3.785  0.1029  0.5351  0.5110
 3687SOL    HW214520   1.694   3.651   3.834 -0.8943  0.9140 -1.1839
 3687SOL    HW314521   1.719   3.572   3.707  1.1759 -1.8872  0.8362
 3687SOL    MW414522   1.748   3.607   3.781  0.1397 -0.0488 -0.2368
 3688SOL     OW14523   3.510   2.468   0.935 -0.2731  0.3823 -0.0817
 3688SOL    HW214524   3.550   2.403   0.878 -0.5315  1.0851 -1.0868
 3688SOL    HW314525   3.424   2.485   0.896 -0.8062  0.2548  0.9975
 3688SOL    MW414526   3.504   2.462   0.923  0.7932 -0.6332  0.1904
 3689SOL     OW14527   0.328   3.154   1.952  0.4093 -0.7759  0.3069
 3689SOL    HW214528   0.258   3.103   1.910  0.3455  0.0755 -0.6561
 3689SOL    HW314529   0.387   3.178   1.880  1.2818 -0.8167  0.9905
 3689SOL    MW414530   0.326   3.150   1.937 -0.0955 -0.1803  0.3124
 3690SOL     OW14531   2.866   3.960   6.287 -0.3455  0.4997  0.9900
 3690SOL    HW214532   2.780   3.932   6.257 -0.6501  1.9220  0.4865
 3690SOL    HW314533   2.868   4.054   6.270  2.0384  0.2055 -0.8582
 3690SOL    MW414534   2.855   3.969   6.281 -0.3608  0.2756  0.2458
 3691SOL     OW14535   0.410   3.315   0.976  0.9030  0.3043  0.0044
 3691SOL    HW214536   0.451   3.392   0.938  0.9363  0.7369  0.9061
 3691SOL    HW314537   0.431   3.244   0.915  0.8194  1.0095 -0.8605
 3691SOL    MW414538   0.418   3.315   0.963 -0.1770 -0.1604 -0.1412
 3692SOL     OW14539   1.218   0.436   1.961  0.0423  0.6665 -0.4054
 3692SOL    HW214540   1.271   0.428   2.040 -1.3210 -1.0021  0.3845
 3692SOL    HW314541   1.271   0.397   1.892  0.4762  0.4421  0.0520
 3692SOL    MW414542   1.232   0.430   1.962  0.5165 -0.1696  0.0127
 3693SOL     OW14543   0.170   3.393   3.884 -0.2580  0.2988 -0.5653
 3693SOL    HW214544   0.257   3.360   3.862  0.2668  1.8816 -1.0186
 3693SOL    HW314545   0.183   3.446   3.963 -0.9015  0.1149 -0.3306
 3693SOL    MW414546   0.183   3.396   3.892  0.3845  0.3400 -0.3200
 3694SOL     OW14547   3.780   3.026   4.767 -0.3673 -0.8280  0.3450
 3694SOL    HW214548   3.684   3.028   4.773 -0.4199  0.1211 -0.5398
 3694SOL    HW314549   3.802   2.934   4.778 -1.3589 -1.0166  0.9026
 3694SOL    MW414550   3.770   3.014   4.769  0.3755  0.0394 -0.6050
 3695SOL     OW14551   1.302   5.547   5.815 -0.2485 -0.1008 -0.2589
 3695SOL    HW214552   1.375   5.486   5.827  2.4032  3.2882  3.0805
 3695SOL    HW314553   1.228   5.503   5.858  0.9544 -1.8504  0.1644
 3695SOL    MW414554   1.302   5.533   5.822  0.2131 -0.3158 -0.1229
 3696SOL     OW14555   2.344   4.293   4.510 -0.5146  0.1888 -0.7110
 3696SOL    HW214556   2.411   4.361   4.508  0.6212 -0.8592 -0.3825
 3696SOL    HW314557   2.392   4.214   4.537 -2.2403 -0.1960  1.5320
 3696SOL    MW414558   2.360   4.291   4.514 -0.1806 -0.3175  0.1363
 3697SOL     OW14559   4.636   0.824   2.132 -0.0799 -0.1398 -0.1233
 3697SOL    HW214560   4.563   0.848   2.075  0.2969  1.8929  0.2091
 3697SOL    HW314561   4.668   0.742   2.095  0.1494  1.0952 -2.8610
 3697SOL    MW414562   4.630   0.816   2.120  0.2788 -0.6106  0.1948
 3698SOL     OW14563   5.114   1.238   6.170  0.2242  0.2654 -0.0403
 3698SOL    HW214564   5.026   1.252   6.134  0.2546 -0.4081 -0.3860
 3698SOL    HW314565   5.163   1.317   6.145 -0.4203  0.8878  0.6207
 3698SOL    MW414566   5.109   1.250   6.162 -0.0878  0.6792 -0.0368
 3699SOL     OW14567   1.463   5.759   2.276  0.1662 -0.1917 -0.2495
 3699SOL    HW214568   1.375   5.783   2.306  0.9818 -0.1584  2.3674
 3699SOL    HW314569   1.463   5.664   2.273 -0.1303 -0.1754 -0.8663
 3699SOL    MW414570   1.452   5.750   2.280  0.3278 -0.5158 -0.1661
 3700SOL     OW14571   5.416   0.738   3.839 -0.3943 -0.4418 -0.9861
 3700SOL    HW214572   5.476   0.664   3.854 -0.3555 -0.0798  0.9038
 3700SOL    HW314573   5.335   0.696   3.808 -0.6005 -1.3887  0.7063
 3700SOL    MW414574   5.413   0.722   3.837  0.0220  0.2091 -0.2997
 3701SOL     OW14575   6.046   1.169   1.987 -0.1059 -0.2675 -0.1799
 3701SOL    HW214576   6.045   1.075   1.969  1.0065 -0.3113 -0.1048
 3701SOL    HW314577   6.089   1.177   2.072 -0.5136  0.2890 -0.0194
 3701SOL    MW414578   6.052   1.158   1.996  0.2041  0.7267 -0.4347
 3702SOL     OW14579   2.802   0.130   1.224  0.0748 -0.3973 -0.6176
 3702SOL    HW214580   2.726   0.095   1.271  0.1913 -0.4674 -0.4778
 3702SOL    HW314581   2.877   0.093   1.271  0.1914 -1.5992 -1.7205
 3702SOL    MW414582   2.802   0.121   1.237 -0.4370  0.0618  0.0054
 3703SOL     OW14583   3.200   3.033   0.665 -0.2668 -0.4722 -0.0706
 3703SOL    HW214584   3.157   3.022   0.749 -1.3481 -0.0122 -0.5395
 3703SOL    HW314585   3.181   3.124   0.640 -0.0856 -0.6390 -0.8665
 3703SOL    MW414586   3.192   3.044   0.673  0.1555  0.7781 -0.4275
 3704SOL     OW14587   4.069   2.094   1.381  0.2854  0.4080  0.4548
 3704SOL    HW214588   4.097   2.005   1.359  1.6545  0.2839  2.4362
 3704SOL    HW314589   4.151   2.143   1.390 -0.3901  1.4687  1.0048
 3704SOL    MW414590   4.084   2.088   1.379  0.1421  0.8844  0.8289
 3705SOL     OW14591   3.392   3.628   5.400  0.0141  0.7752  0.1691
 3705SOL    HW214592   3.387   3.562   5.469 -2.0646 -0.2725 -0.8793
 3705SOL    HW314593   3.336   3.699   5.432 -2.4258 -0.4460 -1.0347
 3705SOL    MW414594   3.384   3.629   5.413  0.4160 -0.1392 -0.2245
 3706SOL     OW14595   0.350   5.180   0.856 -0.1745 -0.4302 -0.4801
 3706SOL    HW214596   0.366   5.116   0.926 -1.1556 -0.9445 -0.7116
 3706SOL    HW314597   0.330   5.261   0.903 -0.9732 -0.8060 -0.1318
 3706SOL    MW414598   0.349   5.182   0.872  0.2324  0.5995 -0.5662
 3707SOL     OW14599   5.784   0.715   5.107 -0.1341  0.5467 -0.7665
 3707SOL    HW214600   5.774   0.733   5.014  1.8616  0.7346 -0.9765
 3707SOL    HW314601   5.873   0.682   5.116 -1.3724 -2.9539  0.5668
 3707SOL    MW414602   5.794   0.713   5.096  0.2300  0.1359  0.3446
 3708SOL     OW14603   3.831   2.090   3.593  0.2620 -0.3843 -0.2800
 3708SOL    HW214604   3.803   2.162   3.536 -1.6269 -0.3462  0.6299
 3708SOL    HW314605   3.851   2.133   3.676  0.6891 -0.7240 -0.2080
 3708SOL    MW414606   3.830   2.105   3.596  0.9276  0.3046  0.1262
 3709SOL     OW14607   0.915   0.670   5.113 -0.4572  0.1757 -0.0580
 3709SOL    HW214608   0.859   0.746   5.127 -0.3750  0.7191 -2.3513
 3709SOL    HW314609   0.862   0.595   5.140 -1.1577  0.9107  0.6206
 3709SOL    MW414610   0.901   0.670   5.119 -0.0954  0.7335 -0.2225
 3710SOL     OW14611   0.618   5.122   1.180  0.4620  0.2055 -0.0361
 3710SOL    HW214612   0.620   5.193   1.244  0.6400 -0.5290  0.7855
 3710SOL    HW314613   0.710   5.104   1.161  0.5582 -1.5451  1.7554
 3710SOL    MW414614   0.631   5.129   1.186  0.8679  0.1013  0.8239
 3711SOL     OW14615   0.168   0.871   3.590  0.3993  0.3905  0.3398
 3711SOL    HW214616   0.172   0.891   3.497 -0.7540 -1.7247 -0.2309
 3711SOL    HW314617   0.190   0.778   3.595 -0.0443  0.3491  2.1353
 3711SOL    MW414618   0.172   0.861   3.579 -0.5508  0.2875  0.2827
 3712SOL     OW14619   5.235   2.386   4.793  0.6576  0.6715  0.0121
 3712SOL    HW214620   5.240   2.296   4.761 -0.6183  0.2040  1.0550
 3712SOL    HW314621   5.310   2.395   4.852  0.0100 -0.1605  0.9773
 3712SOL    MW414622   5.246   2.375   4.797  0.1456  0.0466  0.1897
 3713SOL     OW14623   0.293   2.644   1.305 -0.2856 -0.2259 -0.0837
 3713SOL    HW214624   0.327   2.591   1.377  1.4689 -0.7317 -1.2023
 3713SOL    HW314625   0.301   2.587   1.228  0.2073  1.1217 -1.0696
 3713SOL    MW414626   0.299   2.629   1.304  0.2087  0.2985 -0.1949
 3714SOL     OW14627   3.892   4.368   1.108  0.0406  0.1345 -0.4870
 3714SOL    HW214628   3.844   4.422   1.170  1.3343  2.8706 -1.7029
 3714SOL    HW314629   3.980   4.406   1.105  0.8646 -1.6896 -1.8664
 3714SOL    MW414630   3.898   4.380   1.115  0.0905 -0.6387  0.4706
 3715SOL     OW14631   0.644   4.399   2.919  0.0723  0.2216 -0.2409
 3715SOL    HW214632   0.670   4.357   2.838 -0.1310  0.7230 -0.5723
 3715SOL    HW314633   0.594   4.476   2.891 -0.3580  0.1650  0.3623
 3715SOL    MW414634   0.641   4.404   2.905  0.2003  0.7100  0.7098
 3716SOL     OW14635   4.101   5.972   0.934 -0.4462  0.5654  0.0703
 3716SOL    HW214636   4.068   5.927   0.856  0.0662 -1.6558  1.0555
 3716SOL    HW314637   4.195   5.980   0.918 -0.5503  1.4298 -0.1454
 3716SOL    MW414638   4.109   5.967   0.922  0.0755  0.2796 -0.3863
 3717SOL     OW14639   3.582   4.276   3.641 -0.0089  0.1274 -0.3394
 3717SOL    HW214640   3.674   4.302   3.639 -0.1288  0.5765 -0.0689
 3717SOL    HW314641   3.533   4.357   3.655 -0.3708 -0.2555  0.7820
 3717SOL    MW414642   3.587   4.290   3.642  0.1814  0.1839  0.9584
 3718SOL     OW14643   0.638   4.193   4.570  0.4006 -0.2212  0.1522
 3718SOL    HW214644   0.549   4.226   4.585  1.0884  1.4472  0.7439
 3718SOL    HW314645   0.642   4.113   4.623 -0.5343  0.0596  0.6736
 3718SOL    MW414646   0.627   4.187   4.579  0.0412  0.5277  0.3434
 3719SOL     OW14647   2.431   3.315   4.343 -0.0719 -0.2073 -1.0905
 3719SOL    HW214648   2.394   3.247   4.399 -2.2152  0.7980 -1.1977
 3719SOL    HW314649   2.491   3.363   4.400 -2.3432  0.9192  0.4871
 3719SOL    MW414650   2.434   3.312   4.358 -0.5778 -0.1469  0.1030
 3720SOL     OW14651   5.089   3.387   0.921  0.0073  0.0690  0.1441
 3720SOL    HW214652   5.000   3.354   0.919  0.2515 -0.6921  1.1594
 3720SOL    HW314653   5.101   3.420   1.010  0.8453 -0.1692  0.1325
 3720SOL    MW414654   5.079   3.387   0.933  0.2300  0.2064 -0.5789
 3721SOL     OW14655   0.166   2.318   2.442  0.1406 -0.4091  0.5602
 3721SOL    HW214656   0.086   2.266   2.433 -0.0588 -0.0051 -0.0495
 3721SOL    HW314657   0.236   2.253   2.450  0.4631 -1.0369 -4.2047
 3721SOL    MW414658   0.165   2.302   2.442 -0.3745 -0.1535  0.3672
 3722SOL     OW14659   5.137   0.125   0.759  0.6876 -0.0963  0.4669
 3722SOL    HW214660   5.222   0.161   0.787 -0.4149  0.3429  3.6018
 3722SOL    HW314661   5.080   0.202   0.752  0.1918 -0.5225 -0.3170
 3722SOL    MW414662   5.141   0.140   0.762  0.3215 -0.3498 -0.0854
 3723SOL     OW14663   1.922   0.963   4.954  0.0431  0.1934  0.0109
 3723SOL    HW214664   1.835   0.981   4.919  1.0540  0.3132 -2.7388
 3723SOL    HW314665   1.940   1.036   5.014 -0.4869  2.0603 -1.9836
 3723SOL    MW414666   1.913   0.975   4.957 -0.7993  0.1817  0.3416
 3724SOL     OW14667   4.375   4.074   5.600  0.0094  0.3611  0.2154
 3724SOL    HW214668   4.303   4.090   5.661 -0.5494 -0.7048 -0.1368
 3724SOL    HW314669   4.370   4.145   5.537  0.7892  1.6691  1.5537
 3724SOL    MW414670   4.365   4.085   5.600 -0.6509 -0.3421 -0.1733
 3725SOL     OW14671   6.403   5.608   5.823  0.0758 -0.0149 -0.4122
 3725SOL    HW214672   6.388   5.626   5.915  0.2764 -1.4638 -0.0694
 3725SOL    HW314673   6.497   5.590   5.817 -0.2705 -2.0435 -0.4688
 3725SOL    MW414674   6.414   5.608   5.834 -0.5743 -0.1259  0.6362
 3726SOL     OW14675   0.879   0.385   0.728  0.0801 -0.3831 -0.3189
 3726SOL    HW214676   0.966   0.356   0.755 -0.1189 -0.3511  0.3603
 3726SOL    HW314677   0.896   0.448   0.658  0.7317  1.1245  1.1146
 3726SOL    MW414678   0.893   0.390   0.722  0.8884 -0.1470  0.4794
 3727SOL     OW14679   5.306   4.167   5.033  0.4370  0.2582  0.2328
 3727SOL    HW214680   5.235   4.120   5.078  0.6209  1.0975  1.4423
 3727SOL    HW314681   5.282   4.259   5.040 -0.5494  0.3887 -3.1799
 3727SOL    MW414682   5.293   4.173   5.040  0.0140 -0.4959  0.0606
 3728SOL     OW14683   4.075   2.698   0.546  0.0621  0.3520 -0.7337
 3728SOL    HW214684   4.120   2.653   0.474  0.0636 -0.3440 -0.3058
 3728SOL    HW314685   4.110   2.658   0.625 -0.4230  0.6548 -0.3584
 3728SOL    MW414686   4.085   2.687   0.547  0.8869  0.1843  0.1431
 3729SOL     OW14687   2.339   4.572   3.391  0.6279 -0.2936  0.1073
 3729SOL    HW214688   2.282   4.554   3.316  0.8433 -0.7637  0.0585
 3729SOL    HW314689   2.288   4.544   3.467  1.2000 -1.7298 -0.0076
 3729SOL    MW414690   2.325   4.566   3.391 -0.4083  0.2902 -0.2137
 3730SOL     OW14691   0.176   3.531   3.633  0.4316 -0.0898 -0.0874
 3730SOL    HW214692   0.266   3.501   3.621 -0.0533 -1.0355 -1.8282
 3730SOL    HW314693   0.158   3.519   3.726  1.3041 -2.3704 -0.1435
 3730SOL    MW414694   0.185   3.525   3.644 -0.0223 -0.2110  0.3127
 3731SOL     OW14695   3.376   5.108   6.004 -0.0736 -0.4034  0.0082
 3731SOL    HW214696   3.351   5.020   5.977  0.6898 -0.5954 -0.1011
 3731SOL    HW314697   3.471   5.110   5.993 -0.0217  0.2531  0.5445
 3731SOL    MW414698   3.385   5.097   5.999  0.3474  0.6631  0.0320
 3732SOL     OW14699   2.034   0.429   6.388  0.5728  0.0975 -0.3969
 3732SOL    HW214700   1.985   0.413   6.468  0.2469 -0.5385 -0.7159
 3732SOL    HW314701   2.035   0.344   6.343  0.3089  0.5629 -1.3109
 3732SOL    MW414702   2.028   0.416   6.392  0.5433  0.9295 -0.8562
 3733SOL     OW14703   3.405   2.989   4.170  0.3167  0.1124 -0.3142
 3733SOL    HW214704   3.461   3.033   4.107 -0.6364  1.0264 -0.5593
 3733SOL    HW314705   3.461   2.923   4.211  1.6993  1.3161 -0.1865
 3733SOL    MW414706   3.420   2.986   4.167  0.5174 -0.0619  0.3343
 3734SOL     OW14707   0.189   5.999   0.710  0.2099 -0.2950 -0.4573
 3734SOL    HW214708   0.211   6.055   0.636 -0.3064  0.1707 -0.2609
 3734SOL    HW314709   0.252   5.927   0.704  0.5680  0.0493 -0.9913
 3734SOL    MW414710   0.201   5.997   0.700  0.6181 -0.3409  0.6057
 3735SOL     OW14711   2.655   3.288   0.948  0.2422 -0.0716 -0.0062
 3735SOL    HW214712   2.710   3.213   0.968  0.6542  0.1544 -0.2784
 3735SOL    HW314713   2.587   3.287   1.015  1.6458  0.7261  1.4890
 3735SOL    MW414714   2.653   3.278   0.959  1.0375  0.1320 -0.1363
 3736SOL     OW14715   3.231   3.255   1.886 -0.0442 -0.5210  0.4186
 3736SOL    HW214716   3.317   3.260   1.929  0.2112  1.5222 -0.1972
 3736SOL    HW314717   3.168   3.269   1.956  0.2098 -0.3413  0.6131
 3736SOL    MW414718   3.234   3.257   1.901 -0.0292  0.6237 -0.2764
 3737SOL     OW14719   1.088   0.482   3.939 -0.4686  0.0970 -0.1143
 3737SOL    HW214720   1.021   0.448   3.998 -0.6694  0.7263  0.0317
 3737SOL    HW314721   1.060   0.454   3.852 -0.5154 -0.2860  0.0238
 3737SOL    MW414722   1.076   0.474   3.935 -0.3664 -0.2417 -0.1935
 3738SOL     OW14723   0.052   3.534   0.441 -0.2933 -0.6030  0.1353
 3738SOL    HW214724   0.049   3.521   0.536  0.0495 -0.7854  0.1241
 3738SOL    HW314725   0.024   3.450   0.404  0.6691 -0.9033  0.0698
 3738SOL    MW414726   0.048   3.521   0.448  0.5673 -0.3910  0.2254
 3739SOL     OW14727   2.542   5.618   3.435  0.0478 -0.1718 -0.6550
 3739SOL    HW214728   2.572   5.618   3.344 -0.1287  1.6501 -0.7577
 3739SOL    HW314729   2.474   5.685   3.438  2.3847  2.3412  1.4805
 3739SOL    MW414730   2.537   5.627   3.424  0.0168  0.7135  0.0821
 3740SOL     OW14731   1.717   3.421   0.689 -0.3546  0.0725  0.3160
 3740SOL    HW214732   1.770   3.409   0.610 -2.5388  0.1434 -1.2345
 3740SOL    HW314733   1.684   3.511   0.682 -2.3694 -0.6356  0.0921
 3740SOL    MW414734   1.720   3.432   0.678 -0.1269 -0.3018 -0.2003
 3741SOL     OW14735   0.036   2.828   0.024  0.3255  0.8586 -0.7189
 3741SOL    HW214736   0.087   2.907   0.004 -1.9788  2.5472 -0.3060
 3741SOL    HW314737  -0.025   2.855   0.092  1.1149 -2.0170  1.2992
 3741SOL    MW414738   0.035   2.842   0.030 -0.3562 -0.3990  0.1688
 3742SOL     OW14739   2.632   0.444   5.620  0.1722  0.2785  0.2349
 3742SOL    HW214740   2.620   0.521   5.565 -0.5704 -0.3427 -0.5128
 3742SOL    HW314741   2.713   0.460   5.667  0.3687  1.2210 -0.3972
 3742SOL    MW414742   2.641   0.456   5.619 -0.5311 -0.0227  0.1682
 3743SOL     OW14743   4.769   4.828   5.897  0.5670  0.2114  0.7712
 3743SOL    HW214744   4.802   4.805   5.810  1.2809 -1.7087  1.4891
 3743SOL    HW314745   4.799   4.918   5.911 -0.8217  1.1176 -1.5066
 3743SOL    MW414746   4.777   4.837   5.888 -0.8187  0.3959 -0.1922
 3744SOL     OW14747   4.599   0.826   2.419  0.0179 -0.1284  0.0361
 3744SOL    HW214748   4.684   0.857   2.450  0.1990  0.1242 -0.6961
 3744SOL    HW314749   4.609   0.819   2.324 -0.5126 -0.9216  0.0235
 3744SOL    MW414750   4.611   0.829   2.411  0.1565  0.2386  0.2734
 3745SOL     OW14751   2.382   4.493   2.740 -0.1508  0.0357  0.1972
 3745SOL    HW214752   2.468   4.470   2.705 -0.2704  2.4418 -1.9574
 3745SOL    HW314753   2.395   4.494   2.835  1.7875 -1.1104 -0.0009
 3745SOL    MW414754   2.395   4.490   2.748 -0.4478 -0.2853  0.6296
 3746SOL     OW14755   3.526   5.861   1.922  0.3514  0.1577 -0.0481
 3746SOL    HW214756   3.564   5.883   2.007 -0.9529 -0.9417  0.8577
 3746SOL    HW314757   3.472   5.784   1.939  0.2954 -0.2640 -1.9451
 3746SOL    MW414758   3.524   5.854   1.936 -0.0715 -0.4281  0.9046
 3747SOL     OW14759   4.515   2.397   5.624 -0.1752  0.3563  0.0743
 3747SOL    HW214760   4.569   2.319   5.635 -1.0496 -0.0886  1.4533
 3747SOL    HW314761   4.425   2.367   5.638 -0.6812  1.3215 -0.9008
 3747SOL    MW414762   4.510   2.383   5.627 -0.3081 -0.2421  0.3980
 3748SOL     OW14763   4.351   6.376   0.542 -0.1745 -0.2757 -0.6594
 3748SOL    HW214764   4.428   6.377   0.599 -0.5703 -1.3083 -0.0845
 3748SOL    HW314765   4.384   6.348   0.457  0.2847  0.4985 -0.7467
 3748SOL    MW414766   4.365   6.372   0.538  0.5628  0.6456 -0.4773
 3749SOL     OW14767   6.230   4.311   3.384  0.2334  0.2707 -0.5566
 3749SOL    HW214768   6.189   4.275   3.305  2.6200 -2.0631 -0.8879
 3749SOL    HW314769   6.301   4.366   3.352  1.2171 -0.6888 -0.0793
 3749SOL    MW414770   6.234   4.313   3.369  0.8155 -0.0722  0.5262
 3750SOL     OW14771   5.266   1.599   5.858 -0.3859 -1.1263  0.5462
 3750SOL    HW214772   5.340   1.661   5.861 -1.3053 -0.0007  0.6510
 3750SOL    HW314773   5.278   1.551   5.777 -0.3444  0.1015 -0.2021
 3750SOL    MW414774   5.278   1.601   5.848 -0.0102  0.1671  0.0252
 3751SOL     OW14775   3.512   4.522   3.737  0.2929 -0.1802  0.6886
 3751SOL    HW214776   3.454   4.507   3.811  0.0878  0.8086  0.7458
 3751SOL    HW314777   3.593   4.554   3.777 -0.1308  1.2573  0.4626
 3751SOL    MW414778   3.515   4.524   3.752  0.4769  0.2836  0.2033
 3752SOL     OW14779   5.178   1.916   2.900  0.1023 -0.2939 -0.1289
 3752SOL    HW214780   5.093   1.958   2.888 -1.1851 -2.9746 -1.1084
 3752SOL    HW314781   5.232   1.952   2.829 -0.7047  0.2510 -0.4827
 3752SOL    MW414782   5.174   1.926   2.889  0.1334  0.0362  0.2617
 3753SOL     OW14783   3.169   5.996   3.550 -0.2280 -0.1352  0.0096
 3753SOL    HW214784   3.174   6.015   3.644 -1.4529  1.7354 -0.2499
 3753SOL    HW314785   3.188   6.080   3.508  1.4868 -1.1993 -1.4978
 3753SOL    MW414786   3.172   6.010   3.557 -0.2747 -0.1341 -0.3692
 3754SOL     OW14787   4.709   5.780   1.841  0.6640  0.1458 -0.3550
 3754SOL    HW214788   4.650   5.787   1.916  0.1033  0.7007 -0.8311
 3754SOL    HW314789   4.652   5.758   1.767  1.1853 -0.2561 -0.6473
 3754SOL    MW414790   4.694   5.778   1.841 -0.1085 -0.3857 -0.2061
 3755SOL     OW14791   6.147   1.624   5.458 -0.1195  0.1727 -0.0822
 3755SOL    HW214792   6.137   1.592   5.368 -1.3963  0.7757 -0.1757
 3755SOL    HW314793   6.121   1.551   5.513 -0.3075  0.1362 -0.2223
 3755SOL    MW414794   6.143   1.610   5.453 -0.2525  0.3005 -0.0811
 3756SOL     OW14795   1.676   4.155   2.008 -0.6768  0.1861 -0.0153
 3756SOL    HW214796   1.706   4.210   1.936  0.6173  1.6930  1.6010
 3756SOL    HW314797   1.644   4.217   2.074  0.1605 -1.0011  1.5699
 3756SOL    MW414798   1.675   4.170   2.007 -0.3106 -0.0542  0.0871
 3757SOL     OW14799   2.562   1.458   0.249  0.0253  0.0836 -0.0235
 3757SOL    HW214800   2.604   1.447   0.335  0.1819  0.5018 -0.0432
 3757SOL    HW314801   2.623   1.418   0.187  0.2869  0.4637 -0.0223
 3757SOL    MW414802   2.576   1.452   0.252 -0.7533  0.4941  0.4176
 3758SOL     OW14803   0.913   5.410   1.305  0.0373 -0.0202 -0.3669
 3758SOL    HW214804   0.880   5.498   1.288 -1.7946 -0.6746 -0.4150
 3758SOL    HW314805   0.948   5.381   1.221  1.5892  0.9960 -0.1167
 3758SOL    MW414806   0.913   5.418   1.292 -0.2801 -0.1181  0.3999
 3759SOL     OW14807   5.679   1.155   6.134  0.1976 -0.2866  0.2007
 3759SOL    HW214808   5.629   1.182   6.211  1.3740 -0.7387  1.1494
 3759SOL    HW314809   5.765   1.130   6.169  1.6395  1.8878 -1.5114
 3759SOL    MW414810   5.684   1.156   6.149 -0.3909  0.1198  1.0364
 3760SOL     OW14811   0.143   0.306   2.034 -0.5509 -0.5327  0.8508
 3760SOL    HW214812   0.048   0.299   2.043 -0.6611 -0.4807 -0.1928
 3760SOL    HW314813   0.157   0.328   1.942  0.4949 -0.9961  0.8860
 3760SOL    MW414814   0.132   0.308   2.023 -0.2551 -0.4687 -0.4830
 3761SOL     OW14815   3.211   3.648   4.316 -0.3097 -0.3514  0.5005
 3761SOL    HW214816   3.252   3.588   4.378  1.1159 -0.1017 -0.1583
 3761SOL    HW314817   3.185   3.593   4.243  2.5715 -0.0439 -0.8959
 3761SOL    MW414818   3.213   3.633   4.315 -0.4423 -0.2168  0.2067
 3762SOL     OW14819   1.979   2.880   1.998 -0.3906  0.3205 -0.5941
 3762SOL    HW214820   1.939   2.956   1.955  0.2684 -0.4119 -2.6024
 3762SOL    HW314821   1.933   2.804   1.960 -2.2694 -0.3487  2.6169
 3762SOL    MW414822   1.967   2.880   1.988  0.3447  0.3994 -0.5757
 3763SOL     OW14823   3.053   3.485   5.211 -0.6342 -0.3539  0.2242
 3763SOL    HW214824   3.019   3.567   5.175 -0.9112 -0.2312  0.7486
 3763SOL    HW314825   3.147   3.489   5.197 -0.8299 -0.7264 -1.3105
 3763SOL    MW414826   3.061   3.496   5.205  0.5759  0.0404 -0.3583
 3764SOL     OW14827   4.668   4.423   5.170  0.3899  0.8548 -1.0243
 3764SOL    HW214828   4.669   4.510   5.129  0.9102  1.6800  0.6634
 3764SOL    HW314829   4.758   4.391   5.159  0.8853  1.6287  0.5343
 3764SOL    MW414830   4.680   4.430   5.163 -0.3564 -0.5477 -0.0400
 3765SOL     OW14831   3.179   1.035   3.668 -0.6827 -0.2711 -0.1284
 3765SOL    HW214832   3.103   1.092   3.669 -0.4466  0.0532 -0.4031
 3765SOL    HW314833   3.225   1.057   3.587 -0.7204 -1.0255 -0.3642
 3765SOL    MW414834   3.175   1.046   3.658  0.2973 -0.1202 -0.1827
 3766SOL     OW14835   3.608   5.979   2.183  0.3310  0.1225  0.3146
 3766SOL    HW214836   3.517   5.971   2.210  0.3311 -1.2444 -0.0141
 3766SOL    HW314837   3.636   6.064   2.216 -1.7303  1.6460 -1.5158
 3766SOL    MW414838   3.600   5.989   2.191  0.6804 -0.0963 -0.1625
 3767SOL     OW14839   4.982   1.792   3.787  0.3331  0.0429  0.0576
 3767SOL    HW214840   4.939   1.715   3.748  1.1481 -0.2956 -0.1944
 3767SOL    HW314841   5.049   1.755   3.844 -1.0639  0.5187  2.0982
 3767SOL    MW414842   4.985   1.777   3.789 -0.8674  0.6189  0.0911
 3768SOL     OW14843   2.383   5.965   1.313 -0.4430  0.1546  0.5945
 3768SOL    HW214844   2.384   6.060   1.323  2.1844  0.1349  1.2820
 3768SOL    HW314845   2.344   5.932   1.394 -1.0346  0.6034  0.5004
 3768SOL    MW414846   2.378   5.973   1.325 -0.4818 -0.5486  0.7055
 3769SOL     OW14847   2.169   6.045   3.184  0.7019 -0.1376 -0.4204
 3769SOL    HW214848   2.076   6.026   3.170  0.8837 -0.3549 -1.3981
 3769SOL    HW314849   2.215   5.980   3.132  1.4519 -1.0133  1.2628
 3769SOL    MW414850   2.163   6.034   3.175 -0.0744  0.6853  0.2399
 3770SOL     OW14851   2.944   4.873   1.067  0.6941 -0.5673 -0.2620
 3770SOL    HW214852   2.865   4.832   1.102  2.2966 -1.2022  3.1125
 3770SOL    HW314853   2.969   4.818   0.993 -2.4110  0.2233 -2.0821
 3770SOL    MW414854   2.937   4.860   1.062 -0.4120  0.6528  0.4120
 3771SOL     OW14855   1.621   0.516   0.631  0.0956 -0.0416 -0.3387
 3771SOL    HW214856   1.634   0.488   0.540 -0.5573 -0.5358 -0.2914
 3771SOL    HW314857   1.536   0.478   0.655 -1.8581  3.5379 -0.9001
 3771SOL    MW414858   1.611   0.507   0.622  0.1124  0.4294 -0.6462
 3772SOL     OW14859   4.635   3.516   5.541  0.2836  0.3494 -0.7066
 3772SOL    HW214860   4.714   3.506   5.594 -0.0178 -2.0992 -0.5972
 3772SOL    HW314861   4.586   3.585   5.585  1.1021 -0.0043  0.8614
 3772SOL    MW414862   4.639   3.523   5.554  0.1645 -0.4601  0.8116
 3773SOL     OW14863   1.028   5.229   0.136 -0.2887 -0.3189  0.1495
 3773SOL    HW214864   1.067   5.172   0.203  1.0607 -0.9204 -1.0828
 3773SOL    HW314865   1.087   5.221   0.061 -1.8767  0.1488 -1.2066
 3773SOL    MW414866   1.041   5.220   0.135 -0.3984  0.6198 -0.4240
 3774SOL     OW14867   4.689   0.703   0.609 -0.0784  0.0060  0.0034
 3774SOL    HW214868   4.615   0.736   0.660 -0.9329  1.6527 -2.1091
 3774SOL    HW314869   4.766   0.728   0.659 -0.8777  1.2090  0.6968
 3774SOL    MW414870   4.689   0.711   0.622  0.4216 -0.4139 -0.7207
 3775SOL     OW14871   6.037   0.283   4.916 -0.1875 -0.2622 -0.5047
 3775SOL    HW214872   6.046   0.196   4.876  2.1542 -0.8291  1.0300
 3775SOL    HW314873   6.068   0.344   4.849 -1.0119 -0.6726 -1.2807
 3775SOL    MW414874   6.042   0.279   4.902  0.0394  0.4924  0.0730
 3776SOL     OW14875  -0.005   6.325   5.564  0.2373 -0.0317  0.3594
 3776SOL    HW214876   0.062   6.305   5.499 -0.0358  0.5864 -0.1216
 3776SOL    HW314877   0.002   6.419   5.577 -0.6158  0.0557  0.2189
 3776SOL    MW414878   0.005   6.334   5.557 -0.3494  0.1616 -0.6311
 3777SOL     OW14879   5.924   5.835   1.907  0.6028  0.1532 -0.4220
 3777SOL    HW214880   5.829   5.841   1.897  0.4387  0.3423  1.0483
 3777SOL    HW314881   5.949   5.759   1.853 -0.3514  0.1962 -0.9383
 3777SOL    MW414882   5.915   5.826   1.899 -0.5024  0.2133 -0.1747
 3778SOL     OW14883   5.368   1.811   3.750  0.0912  0.2041 -0.1342
 3778SOL    HW214884   5.444   1.760   3.726 -1.0223 -0.4806 -2.5119
 3778SOL    HW314885   5.390   1.901   3.724 -0.0457 -0.0760 -1.3016
 3778SOL    MW414886   5.381   1.816   3.743  0.1510  1.0912 -0.3202
 3779SOL     OW14887   6.292   3.546   2.457  0.0493 -0.7089  0.2166
 3779SOL    HW214888   6.374   3.593   2.441 -0.2885  0.5819  2.0341
 3779SOL    HW314889   6.250   3.543   2.371  2.0563 -1.6166 -0.8153
 3779SOL    MW414890   6.297   3.552   2.443  0.5152  0.2624 -0.1625
 3780SOL     OW14891   0.566   1.050   3.347  0.4232  0.1672  0.3381
 3780SOL    HW214892   0.660   1.066   3.360  0.4627  0.0694  0.1710
 3780SOL    HW314893   0.545   1.096   3.265  0.0301  1.3505  1.0747
 3780SOL    MW414894   0.576   1.058   3.338  0.3340  0.2658  0.4982
 3781SOL     OW14895   5.846   6.451   0.889  0.8097 -0.2780 -0.3570
 3781SOL    HW214896   5.876   6.542   0.892 -0.2613  0.0622  1.8241
 3781SOL    HW314897   5.865   6.416   0.976 -1.4891 -1.2024 -0.1405
 3781SOL    MW414898   5.852   6.459   0.901 -0.6260  0.3995 -1.0506
 3782SOL     OW14899   0.824   2.439   5.869 -0.1747  0.2787 -0.1666
 3782SOL    HW214900   0.844   2.470   5.781  0.9884 -1.9669 -0.7644
 3782SOL    HW314901   0.735   2.404   5.864  0.8844 -2.5026 -1.3169
 3782SOL    MW414902   0.815   2.439   5.857 -0.0078  0.0243  0.1150
 3783SOL     OW14903   2.579   2.545   4.349  0.7887 -0.1830  0.0319
 3783SOL    HW214904   2.529   2.594   4.283  0.3353 -0.5335  0.1126
 3783SOL    HW314905   2.544   2.456   4.344  0.3158 -0.0702  1.1728
 3783SOL    MW414906   2.568   2.540   4.339 -0.2433  0.3594 -0.6999
 3784SOL     OW14907   2.520   5.834   4.812 -0.0354 -0.5504 -0.0698
 3784SOL    HW214908   2.550   5.877   4.892 -0.0882 -1.1767  0.2950
 3784SOL    HW314909   2.523   5.902   4.745 -4.9718  1.6142  1.4620
 3784SOL    MW414910   2.524   5.848   4.813 -0.3717 -0.6773 -0.2049
 3785SOL     OW14911   6.102   2.796   4.834  0.5724  0.5338  0.2631
 3785SOL    HW214912   6.194   2.820   4.827  0.0217  2.9045  0.4463
 3785SOL    HW314913   6.057   2.852   4.771 -0.8152 -0.3148  0.4477
 3785SOL    MW414914   6.108   2.806   4.825  0.2840  0.2202  0.1928
 3786SOL     OW14915   6.366   2.481   6.098 -0.4450 -0.2331  0.3205
 3786SOL    HW214916   6.380   2.519   6.185 -1.6913 -0.7556  0.7850
 3786SOL    HW314917   6.324   2.551   6.048  0.5044  0.1512  0.0545
 3786SOL    MW414918   6.362   2.495   6.103  0.2603 -0.2750  0.1323
 3787SOL     OW14919   2.166   4.622   4.261 -0.0076 -0.3435  0.3626
 3787SOL    HW214920   2.100   4.642   4.328 -0.6191  0.0141 -0.3299
 3787SOL    HW314921   2.122   4.561   4.202 -1.2138  2.8591 -2.3480
 3787SOL    MW414922   2.152   4.617   4.262 -0.2004 -0.4648 -0.0516
 3788SOL     OW14923   0.194   3.521   2.812  0.1402  0.2349 -0.8323
 3788SOL    HW214924   0.210   3.538   2.905  2.4054 -0.5034 -1.0246
 3788SOL    HW314925   0.101   3.536   2.800 -0.5221 -1.1580  1.8896
 3788SOL    MW414926   0.184   3.525   2.822  1.0360  0.0058  0.0770
 3789SOL     OW14927   6.057   4.299   2.592  0.0539 -0.2344  0.0474
 3789SOL    HW214928   5.982   4.335   2.544 -0.1174  1.6313  1.5889
 3789SOL    HW314929   6.038   4.205   2.598 -0.8183 -0.2275 -1.8601
 3789SOL    MW414930   6.044   4.292   2.587 -0.1273  0.4256 -0.2963
 3790SOL     OW14931   4.156   3.134   6.150 -0.3104 -0.1374  0.0994
 3790SOL    HW214932   4.091   3.065   6.137 -0.0804 -0.5521  1.0239
 3790SOL    HW314933   4.106   3.216   6.146 -0.4529 -0.2703 -1.8814
 3790SOL    MW414934   4.141   3.136   6.148 -0.0742  0.6649  0.3818
 3791SOL     OW14935   6.153   3.692   2.654 -0.0546 -0.0799  0.2783
 3791SOL    HW214936   6.214   3.638   2.604 -0.0745  0.7206 -0.6333
 3791SOL    HW314937   6.067   3.674   2.615 -0.0427  0.7004 -0.1344
 3791SOL    MW414938   6.150   3.683   2.642 -0.2481 -0.4845  0.6354
 3792SOL     OW14939   4.102   3.786   6.425  0.3749  0.0367  0.1056
 3792SOL    HW214940   4.065   3.866   6.387 -0.4171 -0.4155 -0.1130
 3792SOL    HW314941   4.042   3.763   6.496  1.1169  0.1458  0.7775
 3792SOL    MW414942   4.089   3.793   6.429 -0.1074 -0.5763  0.3648
 3793SOL     OW14943   1.050   0.980   3.534  0.3617  0.1357 -0.0445
 3793SOL    HW214944   1.126   1.037   3.534  0.6450 -0.2298 -0.5230
 3793SOL    HW314945   1.057   0.930   3.615 -0.7291  1.8520  1.1662
 3793SOL    MW414946   1.061   0.981   3.545  0.0710  0.2408 -0.4839
 3794SOL     OW14947   3.893   0.471   1.547 -0.5336 -0.2266 -0.0515
 3794SOL    HW214948   3.964   0.408   1.533 -0.2690  0.1413 -0.3796
 3794SOL    HW314949   3.830   0.423   1.601  0.0970 -0.4620  0.4997
 3794SOL    MW414950   3.894   0.456   1.552 -0.6400 -0.3585  0.5421
 3795SOL     OW14951   6.025   0.919   1.865 -0.8305  0.0074 -0.1846
 3795SOL    HW214952   5.973   0.885   1.938 -0.8533 -1.4878 -0.8499
 3795SOL    HW314953   6.009   0.856   1.794  0.3381  0.6170 -1.0162
 3795SOL    MW414954   6.016   0.906   1.865 -0.4069 -0.0305 -0.0490
 3796SOL     OW14955   3.315   4.568   5.809 -0.1393 -0.3136 -0.6024
 3796SOL    HW214956   3.257   4.518   5.866 -0.3392 -0.1325 -0.6465
 3796SOL    HW314957   3.256   4.615   5.750  0.0019  0.8325  0.1451
 3796SOL    MW414958   3.300   4.568   5.809 -0.1232 -0.0107  0.4065
 3797SOL     OW14959   1.106   4.787   3.350  0.5417  0.2220 -0.5294
 3797SOL    HW214960   1.059   4.789   3.434 -0.4702  0.3685 -1.0782
 3797SOL    HW314961   1.163   4.864   3.352 -1.4577  1.8166 -1.0475
 3797SOL    MW414962   1.107   4.798   3.361  0.1375 -0.8011  0.6663
 3798SOL     OW14963   3.918   6.360   4.593  0.2217  0.8371  0.0082
 3798SOL    HW214964   3.955   6.300   4.527 -1.5871 -0.6430  0.2499
 3798SOL    HW314965   3.979   6.355   4.666 -0.5032 -1.8512  0.5560
 3798SOL    MW414966   3.931   6.351   4.594  0.1362 -0.1630 -0.2845
 3799SOL     OW14967   4.739   0.967   3.516  0.2664 -0.2282 -0.1536
 3799SOL    HW214968   4.721   1.011   3.599 -0.5047  0.0249 -0.4415
 3799SOL    HW314969   4.785   1.033   3.464  0.0280 -0.1092 -0.2155
 3799SOL    MW414970   4.743   0.982   3.520  0.6489 -0.3341 -0.1339
 3800SOL     OW14971   4.475   1.682   2.264  0.2413 -0.3925 -0.0719
 3800SOL    HW214972   4.388   1.643   2.275 -0.3113  0.8486  0.0903
 3800SOL    HW314973   4.474   1.718   2.176  0.8088 -0.8686 -0.2775
 3800SOL    MW414974   4.463   1.681   2.254  0.6581 -0.2695 -0.2268
 3801SOL     OW14975   2.245   4.274   3.030  0.4599  0.6423  0.7158
 3801SOL    HW214976   2.176   4.253   2.967 -2.8471  1.2392  3.7505
 3801SOL    HW314977   2.259   4.191   3.077  2.2190  0.4196 -0.1504
 3801SOL    MW414978   2.238   4.260   3.028 -0.5337  0.2288 -0.0123
 3802SOL     OW14979   2.505   5.346   2.673  0.6119  0.4774  0.5631
 3802SOL    HW214980   2.578   5.365   2.731  1.0904 -0.2034  0.1913
 3802SOL    HW314981   2.444   5.296   2.727  0.1353  1.5556  1.0456
 3802SOL    MW414982   2.506   5.342   2.687  0.0210  0.1512  0.6765
 3803SOL     OW14983   6.042   4.263   1.142 -0.0264 -0.0529 -0.5073
 3803SOL    HW214984   6.074   4.264   1.232  0.0432  1.4399 -0.5131
 3803SOL    HW314985   6.032   4.171   1.120  0.3863 -0.4435  0.8764
 3803SOL    MW414986   6.045   4.251   1.151  0.4136  0.3267 -0.4312
 3804SOL     OW14987   3.927   1.944   2.923 -0.5165 -0.2024  0.3654
 3804SOL    HW214988   3.855   1.893   2.886 -1.2876  0.3411  1.1009
 3804SOL    HW314989   3.917   1.936   3.017 -1.1807  2.0033  0.5380
 3804SOL    MW414990   3.917   1.936   2.930  0.1209  0.1157 -0.2241
 3805SOL     OW14991   3.111   4.949   4.438 -0.6284  0.3517  0.3952
 3805SOL    HW214992   3.058   5.020   4.476  0.4783  0.8982  0.9853
 3805SOL    HW314993   3.181   4.936   4.501  0.0426 -0.2293 -0.4528
 3805SOL    MW414994   3.113   4.957   4.451  0.2904  0.4463 -0.0819
 3806SOL     OW14995   5.445   1.879   2.063 -0.3728  0.1049  0.3185
 3806SOL    HW214996   5.464   1.963   2.106  1.5868 -1.6258  3.1795
 3806SOL    HW314997   5.530   1.844   2.039 -0.8827 -2.1123  1.4572
 3806SOL    MW414998   5.458   1.886   2.066  0.4075  0.1662 -0.3428
 3807SOL     OW14999   3.520   6.160   4.854  0.0920 -0.5461  0.2964
 3807SOL    HW215000   3.509   6.219   4.929  0.7851 -0.7160  0.5407
 3807SOL    HW315001   3.582   6.094   4.885  1.3806  0.0975 -0.8164
 3807SOL    MW415002   3.527   6.159   4.868  0.7251  0.5574  0.4613
 3808SOL     OW15003   1.043   3.882   1.056  0.0014 -0.5077 -0.1376
 3808SOL    HW215004   1.082   3.905   0.972 -0.9214  0.2646 -0.3762
 3808SOL    HW315005   1.090   3.804   1.084  0.0812 -0.9974 -1.5512
 3808SOL    MW415006   1.054   3.875   1.048  0.0096 -0.5855  0.2492
 3809SOL     OW15007   4.358   3.169   0.046  0.0440  0.1644 -0.1340
 3809SOL    HW215008   4.390   3.124  -0.032  0.7419  0.8107 -0.2279
 3809SOL    HW315009   4.437   3.194   0.094 -0.3809 -0.3761  0.8738
 3809SOL    MW415010   4.373   3.167   0.042 -0.4365 -0.1522  0.0751
 3810SOL     OW15011   5.061   0.824   1.887  0.2464  0.0080 -0.0206
 3810SOL    HW215012   5.111   0.745   1.870  1.1355  0.6664 -0.5867
 3810SOL    HW315013   5.100   0.862   1.966  1.7820  1.3494 -1.3295
 3810SOL    MW415014   5.073   0.819   1.895  0.6508 -0.3728  0.1415
 3811SOL     OW15015   0.612   2.670   5.684  0.1901 -0.5984 -0.3307
 3811SOL    HW215016   0.547   2.621   5.634 -0.1227  0.3615 -0.8898
 3811SOL    HW315017   0.694   2.623   5.669  0.2012 -0.0731 -2.1631
 3811SOL    MW415018   0.614   2.657   5.676 -0.7107 -0.1572  0.3005
 3812SOL     OW15019   0.119   2.898   2.584  0.0343 -0.3104 -0.1583
 3812SOL    HW215020   0.032   2.883   2.546 -0.0396 -2.1116  0.6189
 3812SOL    HW315021   0.104   2.897   2.679  0.9044 -0.7862 -0.0100
 3812SOL    MW415022   0.105   2.896   2.592 -0.0980  0.1519  0.0973
 3813SOL     OW15023   4.150   5.965   2.748  0.0390 -0.5119  0.1767
 3813SOL    HW215024   4.088   6.011   2.804  1.0016  0.0096  0.8524
 3813SOL    HW315025   4.187   6.033   2.691  0.1155 -0.7837 -0.1044
 3813SOL    MW415026   4.147   5.980   2.748  0.5088  0.4649  0.5244
 3814SOL     OW15027   2.898   3.055   0.716 -0.1412 -1.0562  0.3237
 3814SOL    HW215028   2.865   3.071   0.805 -0.0196 -0.2996  0.2398
 3814SOL    HW315029   2.917   3.142   0.682  0.9289 -1.4093 -0.0214
 3814SOL    MW415030   2.896   3.069   0.723  0.2241 -0.3217  0.1980
 3815SOL     OW15031   5.667   0.185   4.139 -0.0828  0.6082 -0.0275
 3815SOL    HW215032   5.659   0.280   4.127 -0.7834  0.6180  0.5228
 3815SOL    HW315033   5.577   0.153   4.144  0.0690  0.3506  3.1260
 3815SOL    MW415034   5.654   0.193   4.138 -0.0281 -1.2990  0.2607
 3816SOL     OW15035   2.511   2.957   4.030 -0.2386 -0.3237 -0.0895
 3816SOL    HW215036   2.603   2.935   4.048 -0.2297 -1.3699 -1.3005
 3816SOL    HW315037   2.462   2.886   4.071 -0.5548  0.4028  0.8357
 3816SOL    MW415038   2.517   2.945   4.038  0.1231  0.3174  0.0547
 3817SOL     OW15039   3.989   2.656   2.509  0.5890 -0.1159 -0.4080
 3817SOL    HW215040   4.070   2.658   2.560  1.1342  0.2936 -1.2734
 3817SOL    HW315041   3.938   2.729   2.543  1.6210  1.1676 -1.4770
 3817SOL    MW415042   3.993   2.666   2.520  0.3754  0.0256 -0.4001
 3818SOL     OW15043   5.024   2.746   0.827 -0.7719 -0.2936 -0.0717
 3818SOL    HW215044   4.953   2.683   0.840 -1.0796 -0.3026 -1.6167
 3818SOL    HW315045   5.104   2.695   0.838 -1.0117 -0.6500  0.0313
 3818SOL    MW415046   5.025   2.731   0.830  0.2972  0.6177  0.1789
 3819SOL     OW15047   0.974   3.268   4.148  0.2091  0.3497 -0.1963
 3819SOL    HW215048   1.011   3.231   4.068 -0.7669 -0.5816 -0.2406
 3819SOL    HW315049   0.966   3.362   4.129  0.5490  0.2309 -0.9657
 3819SOL    MW415050   0.978   3.275   4.135 -0.0637 -0.1319 -0.3030
 3820SOL     OW15051   0.087   0.823   4.161  0.1630 -0.1760  0.1235
 3820SOL    HW215052   0.154   0.762   4.192  0.9438  0.3833 -0.4257
 3820SOL    HW315053   0.004   0.783   4.188  0.5174 -2.4340 -1.7370
 3820SOL    MW415054   0.085   0.809   4.169  0.7540 -0.3821  0.2153
 3821SOL     OW15055   1.887   5.335   6.002 -0.0377 -0.2604 -0.3528
 3821SOL    HW215056   1.944   5.271   6.045  1.5532  1.1010 -0.3557
 3821SOL    HW315057   1.823   5.358   6.070 -1.0890 -2.3130 -0.5639
 3821SOL    MW415058   1.886   5.330   6.017 -0.3154  0.3378  0.2476
 3822SOL     OW15059   6.003   5.311   4.295 -0.2105  0.1711  0.4865
 3822SOL    HW215060   5.951   5.281   4.220  0.1874  2.2577 -0.7028
 3822SOL    HW315061   6.084   5.344   4.256  1.2990 -1.3776  2.1459
 3822SOL    MW415062   6.007   5.311   4.280 -0.4468  0.2453  0.1568
 3823SOL     OW15063   6.108   3.313   3.671 -0.1866 -0.1709  0.2059
 3823SOL    HW215064   6.167   3.335   3.744  1.4768 -1.3946 -0.7038
 3823SOL    HW315065   6.064   3.395   3.650  1.9640  1.0676  0.2746
 3823SOL    MW415066   6.110   3.327   3.678  0.0817  0.5552 -0.4039
 3824SOL     OW15067   1.585   0.654   1.516  0.1665 -0.1350 -0.2029
 3824SOL    HW215068   1.646   0.618   1.581  0.1865  0.9499  0.3987
 3824SOL    HW315069   1.566   0.742   1.547  0.4882  0.5585 -1.8948
 3824SOL    MW415070   1.591   0.661   1.529 -0.3075 -1.1203  0.1781
 3825SOL     OW15071   3.456   3.914   0.765 -0.4922  0.8241 -0.2827
 3825SOL    HW215072   3.436   3.862   0.688  0.4010 -1.0974  0.7098
 3825SOL    HW315073   3.371   3.942   0.798 -0.9310  0.8747 -1.4059
 3825SOL    MW415074   3.442   3.911   0.759 -0.5497 -0.1698 -0.5813
 3826SOL     OW15075   2.396   1.658   1.045 -0.0357 -0.2290  0.2406
 3826SOL    HW215076   2.374   1.674   0.953  2.4038 -1.6661 -0.6848
 3826SOL    HW315077   2.456   1.729   1.069 -1.2052  0.5443  1.0051
 3826SOL    MW415078   2.401   1.669   1.036  0.8261 -0.4935  0.4253
 3827SOL     OW15079   4.442   0.996   2.978  0.0981  0.0056  0.3773
 3827SOL    HW215080   4.533   0.988   2.948  0.2899 -0.9149  1.1421
 3827SOL    HW315081   4.420   0.909   3.012  0.0971  1.0347  3.3398
 3827SOL    MW415082   4.451   0.983   2.979 -0.3700 -0.3763 -0.4085
 3828SOL     OW15083   0.880   2.829   0.965 -0.0742  0.6809  0.5076
 3828SOL    HW215084   0.920   2.824   0.879  0.0849 -1.2242  0.6529
 3828SOL    HW315085   0.786   2.823   0.948  0.0241 -1.6565  0.5295
 3828SOL    MW415086   0.873   2.828   0.952 -0.0268  0.1437 -0.0152
 3829SOL     OW15087   0.878   5.487   3.929 -0.0827  0.2629  0.1221
 3829SOL    HW215088   0.869   5.414   3.868  1.7515  1.7180 -2.0833
 3829SOL    HW315089   0.927   5.451   4.003 -0.0529 -0.9471 -0.4709
 3829SOL    MW415090   0.883   5.473   3.931  0.7643 -1.0470 -0.2523
 3830SOL     OW15091   4.270   2.161   3.426 -0.5951 -0.0779 -0.2449
 3830SOL    HW215092   4.209   2.184   3.357 -0.0605 -0.5861 -0.9032
 3830SOL    HW315093   4.352   2.204   3.401 -0.0072 -1.4200 -0.6919
 3830SOL    MW415094   4.273   2.170   3.414  0.1037 -0.3743  0.7696
 3831SOL     OW15095   4.404   5.021   6.046  0.0360 -0.8620  0.3556
 3831SOL    HW215096   4.376   5.097   6.097  1.2728 -1.4367  2.0124
 3831SOL    HW315097   4.323   4.982   6.014 -0.7362  0.0881  1.0752
 3831SOL    MW415098   4.390   5.026   6.049  0.4067 -0.5398  0.2471
 3832SOL     OW15099   1.535   6.476   0.108 -0.0464 -0.8479 -0.0667
 3832SOL    HW215100   1.514   6.419   0.182 -2.4310  0.2211  0.1598
 3832SOL    HW315101   1.499   6.432   0.032  0.5987 -0.9658 -0.3104
 3832SOL    MW415102   1.528   6.463   0.108  0.1772  0.2079 -0.0727
 3833SOL     OW15103   4.942   6.413   6.410 -0.4162  0.3621 -0.7113
 3833SOL    HW215104   5.002   6.458   6.349 -0.3609 -0.2751 -1.1374
 3833SOL    HW315105   4.872   6.379   6.354 -0.8673  0.5884 -0.2906
 3833SOL    MW415106   4.941   6.414   6.394 -0.5226  0.1751  0.1582
 3834SOL     OW15107   1.508   1.152   4.946 -0.0829 -0.1803 -0.0104
 3834SOL    HW215108   1.427   1.201   4.933 -0.8365 -0.9106  1.6316
 3834SOL    HW315109   1.506   1.126   5.038  1.8657 -0.5165 -0.0154
 3834SOL    MW415110   1.497   1.155   4.956  0.1606  0.7586  0.1374
 3835SOL     OW15111   2.850   2.429   4.209 -0.3593 -0.0346 -0.3155
 3835SOL    HW215112   2.869   2.520   4.230  1.5599 -0.5058  0.2036
 3835SOL    HW315113   2.761   2.415   4.242 -0.0412  1.1809  1.1685
 3835SOL    MW415114   2.841   2.439   4.216  0.0443  0.5707 -0.4123
 3836SOL     OW15115   1.910   3.815   2.631 -0.2005  0.0224  0.0670
 3836SOL    HW215116   1.995   3.773   2.635 -0.1389  0.1481  0.0880
 3836SOL    HW315117   1.904   3.864   2.713  0.1652  0.8975 -0.4211
 3836SOL    MW415118   1.920   3.816   2.643  0.0573  0.0404 -0.2916
 3837SOL     OW15119   1.373   4.019   5.393 -0.3338 -0.1382  0.5045
 3837SOL    HW215120   1.400   3.952   5.457 -1.5143  0.3020  1.5138
 3837SOL    HW315121   1.278   4.021   5.400 -0.3131  2.5137  1.4658
 3837SOL    MW415122   1.364   4.010   5.403  0.6380 -0.4797  0.5007
 3838SOL     OW15123   6.270   2.106   5.150  0.5953 -0.2502  0.0101
 3838SOL    HW215124   6.276   2.014   5.125  2.2360 -0.7222  1.8955
 3838SOL    HW315125   6.234   2.105   5.238  0.0164  0.9776 -0.1869
 3838SOL    MW415126   6.266   2.094   5.158  0.4707 -0.5672 -0.0254
 3839SOL     OW15127   0.968   2.642   0.227 -1.1014 -0.2746  0.1402
 3839SOL    HW215128   1.042   2.665   0.171 -1.4590  0.9869  0.1652
 3839SOL    HW315129   1.006   2.584   0.294  0.5827  2.6128  1.9102
 3839SOL    MW415130   0.983   2.637   0.229 -0.5500 -0.6595  0.0246
 3840SOL     OW15131   5.348   2.121   6.128  0.1142  0.4218  0.2159
 3840SOL    HW215132   5.369   2.107   6.221 -0.6046  2.6969  0.7768
 3840SOL    HW315133   5.253   2.110   6.122 -0.0727  1.8470  0.1175
 3840SOL    MW415134   5.338   2.118   6.140 -0.2288 -0.1656 -0.0238
 3841SOL     OW15135   4.450   1.249   3.408  0.3934 -0.3405  0.0053
 3841SOL    HW215136   4.459   1.155   3.399  0.9258 -0.1732 -1.5852
 3841SOL    HW315137   4.358   1.263   3.429 -0.2356 -1.1317 -1.9780
 3841SOL    MW415138   4.439   1.239   3.409 -0.0232  0.1359 -0.5094
 3842SOL     OW15139   6.057   3.089   2.564 -0.0848 -0.0421 -0.7200
 3842SOL    HW215140   6.026   3.104   2.475  0.1137 -3.0452 -1.4067
 3842SOL    HW315141   6.151   3.108   2.560 -0.1776  0.3461 -1.0256
 3842SOL    MW415142   6.065   3.093   2.552 -0.2197  0.0206 -1.0458
 3843SOL     OW15143   3.748   6.209   1.252  0.1691  0.3303 -0.3660
 3843SOL    HW215144   3.774   6.246   1.336  0.7002 -1.3751  0.2671
 3843SOL    HW315145   3.815   6.239   1.191 -0.6853  2.2948 -0.4166
 3843SOL    MW415146   3.760   6.218   1.255 -0.1625 -0.4903 -0.5359
 3844SOL     OW15147   3.308   2.581   2.116 -0.3890 -0.6434 -0.4627
 3844SOL    HW215148   3.317   2.659   2.063  1.2782 -1.2599 -1.1530
 3844SOL    HW315149   3.269   2.612   2.198 -0.5096  0.7558 -1.0242
 3844SOL    MW415150   3.304   2.595   2.120  0.0991 -0.0955 -0.1617
 3845SOL     OW15151   4.364   2.219   2.076 -0.1877 -0.3679 -0.5362
 3845SOL    HW215152   4.324   2.140   2.112  0.3731 -0.5742 -0.3609
 3845SOL    HW315153   4.357   2.284   2.146  1.1811 -0.8557  0.0981
 3845SOL    MW415154   4.358   2.218   2.090  0.4206  0.1840  0.3369
 3846SOL     OW15155   0.991   4.584   4.067 -0.0860 -0.6904  0.1819
 3846SOL    HW215156   1.030   4.508   4.024  0.8650 -0.4013  0.5228
 3846SOL    HW315157   0.961   4.551   4.152  1.9879 -0.3063  1.1078
 3846SOL    MW415158   0.992   4.569   4.072 -0.1584  0.0251  0.5476
 3847SOL     OW15159   3.707   3.736   4.366 -0.0607  0.2300  0.4621
 3847SOL    HW215160   3.750   3.698   4.442  1.5017  0.9414 -0.0032
 3847SOL    HW315161   3.649   3.668   4.334  0.8549 -0.8682  1.0641
 3847SOL    MW415162   3.705   3.722   4.372  0.0387 -0.7034  0.6564
 3848SOL     OW15163   2.605   0.604   5.916 -0.0122  0.8099  0.1411
 3848SOL    HW215164   2.597   0.674   5.852  1.1014  2.1127  1.3704
 3848SOL    HW315165   2.515   0.586   5.943 -0.4749  0.3995 -1.5803
 3848SOL    MW415166   2.592   0.611   5.911  0.4541 -0.0409 -0.7909
 3849SOL     OW15167   3.335   2.246   2.913 -0.2139  0.7651 -0.2651
 3849SOL    HW215168   3.367   2.204   2.834 -0.4247  0.3553 -0.1349
 3849SOL    HW315169   3.282   2.179   2.957 -0.3086  1.0675  0.0931
 3849SOL    MW415170   3.332   2.232   2.909 -0.5259  0.0336  0.3551
 3850SOL     OW15171   1.982   1.539   4.394 -0.1623 -0.0696  0.2829
 3850SOL    HW215172   2.014   1.448   4.390 -1.2570 -0.5711  2.0464
 3850SOL    HW315173   2.002   1.567   4.483 -1.8881  0.6240  0.4744
 3850SOL    MW415174   1.989   1.530   4.405 -0.1863  0.8473 -0.0172
 3851SOL     OW15175   1.656   1.316   0.341 -0.0048  0.0241  0.6313
 3851SOL    HW215176   1.733   1.285   0.389 -0.1438  1.7721  2.1218
 3851SOL    HW315177   1.667   1.411   0.339 -2.0547  0.2996  0.7636
 3851SOL    MW415178   1.668   1.325   0.347  0.8930 -0.0417  0.0781
 3852SOL     OW15179   4.779   1.646   5.531  0.4238  0.2305 -0.5249
 3852SOL    HW215180   4.808   1.577   5.471  0.9160  0.7124 -0.8488
 3852SOL    HW315181   4.734   1.599   5.601  1.7142 -0.5298 -0.1668
 3852SOL    MW415182   4.777   1.630   5.532  0.3014  0.6020 -0.1281
 3853SOL     OW15183   3.639   1.221   5.876  0.4054  0.0282  0.1233
 3853SOL    HW215184   3.552   1.260   5.878  0.9717  1.3818 -0.1456
 3853SOL    HW315185   3.625   1.130   5.900 -1.1790  0.0146 -0.7189
 3853SOL    MW415186   3.626   1.214   5.879 -0.2984  0.4493  0.1581
 3854SOL     OW15187   0.574   5.604   1.201  0.1694 -0.4040 -0.2210
 3854SOL    HW215188   0.603   5.614   1.110  1.0065 -0.4942  0.0302
 3854SOL    HW315189   0.653   5.620   1.253 -0.1001 -1.2583  0.4563
 3854SOL    MW415190   0.588   5.608   1.196  0.0627  0.3495 -0.2715
 3855SOL     OW15191   5.230   3.146   1.679 -0.6273  0.0014  0.0303
 3855SOL    HW215192   5.277   3.071   1.715  1.2645 -0.3832 -2.9341
 3855SOL    HW315193   5.297   3.213   1.668 -1.1610  0.2295 -2.2569
 3855SOL    MW415194   5.245   3.145   1.682  0.3408 -0.1113 -0.7960
 3856SOL     OW15195   2.474   1.288   1.117  0.4221 -0.7794  0.2390
 3856SOL    HW215196   2.446   1.312   1.029  0.9950  1.1357  0.5408
 3856SOL    HW315197   2.500   1.371   1.158  0.7990 -1.7106  1.9877
 3856SOL    MW415198   2.474   1.302   1.111 -0.1253  0.5070 -0.0657
 3857SOL     OW15199   2.825   0.830   1.822  0.6691 -0.8507  0.0466
 3857SOL    HW215200   2.831   0.764   1.753  2.4402 -0.7833  0.1019
 3857SOL    HW315201   2.915   0.858   1.837  0.0470  1.0645  0.5392
 3857SOL    MW415202   2.838   0.825   1.815  0.6021  0.2246 -0.4274
 3858SOL     OW15203   3.540   5.663   5.551  0.1504  0.2730  0.0408
 3858SOL    HW215204   3.491   5.739   5.522 -1.2229 -1.3159 -2.1239
 3858SOL    HW315205   3.626   5.673   5.511 -0.2078  0.4364 -0.7137
 3858SOL    MW415206   3.545   5.674   5.542  0.3689  0.4028  0.1750
 3859SOL     OW15207   0.348   3.056   4.089 -0.3627  0.3447 -0.2504
 3859SOL    HW215208   0.272   3.083   4.037 -0.9300 -0.2015  0.2740
 3859SOL    HW315209   0.352   3.119   4.160 -0.3261  0.3754 -0.2799
 3859SOL    MW415210   0.338   3.068   4.091  0.1734 -0.3737 -0.1117
 3860SOL     OW15211   0.234   6.315   0.936  0.4862  0.0058 -0.3222
 3860SOL    HW215212   0.311   6.259   0.929  0.9090  0.4369  0.6555
 3860SOL    HW315213   0.216   6.320   1.030 -1.5449 -1.1314 -0.5923
 3860SOL    MW415214   0.242   6.309   0.947  0.0364  0.1982 -0.7339
 3861SOL     OW15215   5.189   1.797   3.534  0.3403 -0.1055  0.1782
 3861SOL    HW215216   5.248   1.796   3.609  0.2029  0.7827  0.3065
 3861SOL    HW315217   5.144   1.713   3.538  2.1463 -1.1743 -0.3767
 3861SOL    MW415218   5.191   1.785   3.544 -0.2900  0.4062  0.0137
 3862SOL     OW15219   3.422   1.253   3.279  0.4070  0.1694 -0.4715
 3862SOL    HW215220   3.496   1.243   3.339 -0.4115 -0.7095  0.4505
 3862SOL    HW315221   3.451   1.212   3.198  1.2585  0.6713 -0.4274
 3862SOL    MW415222   3.436   1.246   3.276  0.2995 -0.2428 -0.0221
 3863SOL     OW15223   4.303   3.144   1.186  0.2585  0.0072 -0.6573
 3863SOL    HW215224   4.312   3.230   1.229 -1.2569 -0.2368  0.2168
 3863SOL    HW315225   4.333   3.081   1.251 -1.5988 -0.3328 -0.0888
 3863SOL    MW415226   4.308   3.147   1.200  0.4165  0.0373  0.0713
 3864SOL     OW15227   3.015   5.191   5.748 -0.4360 -0.2057 -0.3432
 3864SOL    HW215228   3.085   5.186   5.683  0.0899 -2.0269  0.2977
 3864SOL    HW315229   2.947   5.243   5.706  0.8669  0.7207 -1.3882
 3864SOL    MW415230   3.015   5.197   5.734 -0.3206 -0.2234  0.1134
 3865SOL     OW15231   3.260   4.520   4.242 -0.4298  0.3746  0.1788
 3865SOL    HW215232   3.276   4.521   4.148 -0.9390  1.5782  0.0917
 3865SOL    HW315233   3.318   4.589   4.276  1.0195 -1.1726  0.9810
 3865SOL    MW415234   3.270   4.529   4.234  0.2010 -0.1884 -0.2663
 3866SOL     OW15235   3.329   2.822   5.956  0.4215  0.5172  0.0403
 3866SOL    HW215236   3.234   2.815   5.943  0.2916  1.5118  0.3487
 3866SOL    HW315237   3.361   2.732   5.950 -0.6067  0.1062  0.4624
 3866SOL    MW415238   3.320   2.809   5.953  0.1666 -0.3479  0.0386
 3867SOL     OW15239   0.757   1.073   0.084  0.1848  0.1261  0.3063
 3867SOL    HW215240   0.796   1.127   0.153 -1.5977  1.5572  0.2612
 3867SOL    HW315241   0.663   1.077   0.101 -0.1378 -1.2530 -0.9764
 3867SOL    MW415242   0.749   1.081   0.095 -0.1078  0.1660 -0.2889
 3868SOL     OW15243   0.617   2.826   1.513 -0.1044 -0.2340 -0.1887
 3868SOL    HW215244   0.566   2.894   1.557  0.5394  0.8350 -1.0630
 3868SOL    HW315245   0.611   2.750   1.572 -0.7048  0.6140  0.8751
 3868SOL    MW415246   0.610   2.825   1.527 -0.0064  0.3178  0.0319
 3869SOL     OW15247   1.897   4.509   2.287 -0.5709  0.1974  0.1580
 3869SOL    HW215248   1.934   4.464   2.210  0.9364  0.9542  0.4018
 3869SOL    HW315249   1.813   4.543   2.256 -0.6160 -0.6668 -0.7520
 3869SOL    MW415250   1.891   4.507   2.272  0.0673 -0.0611  0.5591
 3870SOL     OW15251   1.256   2.834   0.931  0.3996  0.3374 -0.3165
 3870SOL    HW215252   1.217   2.911   0.972 -0.3593  0.9724 -2.1133
 3870SOL    HW315253   1.339   2.822   0.977 -0.1970  1.2308  1.0790
 3870SOL    MW415254   1.262   2.842   0.943 -0.1390  0.1326  0.1656
 3871SOL     OW15255   3.631   4.158   3.063  0.5700  0.6952 -0.5369
 3871SOL    HW215256   3.535   4.166   3.066  0.6600  1.6053  1.1007
 3871SOL    HW315257   3.660   4.238   3.020  0.6174  0.5451 -0.7874
 3871SOL    MW415258   3.622   4.170   3.058  0.7109  0.2545 -0.0151
 3872SOL     OW15259   0.587   5.050   1.549 -0.4318  0.1092 -0.0105
 3872SOL    HW215260   0.505   5.018   1.510 -0.0500  0.0019 -0.7311
 3872SOL    HW315261   0.653   5.036   1.482  0.3333 -0.5241  0.8499
 3872SOL    MW415262   0.585   5.044   1.535  0.1293 -0.6226 -0.3142
 3873SOL     OW15263   0.506   2.553   3.371 -0.3381 -0.0057 -0.4581
 3873SOL    HW215264   0.494   2.459   3.360  0.7161 -0.2403  0.3271
 3873SOL    HW315265   0.597   2.563   3.399 -0.8850  1.0954  1.0567
 3873SOL    MW415266   0.516   2.542   3.373  0.1364 -0.0872 -0.0369
 3874SOL     OW15267   4.276   3.032   1.484 -0.1303 -0.5810 -0.5451
 3874SOL    HW215268   4.259   3.125   1.473  2.2195 -0.1818 -1.4376
 3874SOL    HW315269   4.246   3.012   1.573 -2.6724  0.4534 -1.0880
 3874SOL    MW415270   4.270   3.041   1.495  0.0615  0.8664  0.4021
 3875SOL     OW15271   0.374   1.239   5.038 -0.0706 -0.0320  0.4450
 3875SOL    HW215272   0.294   1.268   5.082 -0.0258 -0.2400  0.6623
 3875SOL    HW315273   0.344   1.175   4.974 -0.2140  0.7462 -0.2897
 3875SOL    MW415274   0.359   1.234   5.036  0.1451  0.2418  0.4142
 3876SOL     OW15275   4.200   3.427   1.721  0.3243  0.7995 -0.8639
 3876SOL    HW215276   4.295   3.425   1.730  0.1751  0.0991  1.3280
 3876SOL    HW315277   4.175   3.515   1.749  0.2384  0.3452  0.6001
 3876SOL    MW415278   4.209   3.438   1.726  0.1007  0.2904  0.2207
 3877SOL     OW15279  -0.007   5.583   6.280 -0.2546  0.2976  0.6960
 3877SOL    HW215280  -0.050   5.665   6.255  2.4343  1.6415  0.0903
 3877SOL    HW315281   0.041   5.557   6.201  0.6860 -0.6687  1.5667
 3877SOL    MW415282  -0.007   5.591   6.266  0.0693  0.0687  0.1800
 3878SOL     OW15283   2.733   4.760   4.986 -0.0410 -0.5198  0.4941
 3878SOL    HW215284   2.784   4.832   5.024  0.6051  0.2483 -1.6681
 3878SOL    HW315285   2.656   4.803   4.950 -0.6543 -1.2272  0.9506
 3878SOL    MW415286   2.730   4.775   4.986 -0.1786 -0.0367 -0.0866
 3879SOL     OW15287   1.018   0.324   5.175  0.4267  0.0646 -0.2755
 3879SOL    HW215288   1.042   0.360   5.089  3.3511 -1.9064 -0.4655
 3879SOL    HW315289   1.091   0.349   5.232  0.4612 -1.8394  0.5961
 3879SOL    MW415290   1.031   0.332   5.171 -0.0293  0.3284  0.0868
 3880SOL     OW15291   0.593   0.795   4.594 -0.4804 -0.2182 -0.0500
 3880SOL    HW215292   0.652   0.731   4.554 -0.0086  0.5193 -0.5427
 3880SOL    HW315293   0.626   0.880   4.565 -0.9833  0.2625  0.7678
 3880SOL    MW415294   0.605   0.798   4.585  0.2035  0.2504 -0.5055
 3881SOL     OW15295   0.854   3.451   4.787 -1.0378 -0.1293  0.0070
 3881SOL    HW215296   0.855   3.481   4.878 -0.0566 -0.7285  0.2137
 3881SOL    HW315297   0.850   3.531   4.735 -0.3106  0.2924  0.5775
 3881SOL    MW415298   0.854   3.466   4.792 -0.2588 -0.2629  0.2502
 3882SOL     OW15299   3.726   5.047   3.299  0.1072 -0.2276  0.7432
 3882SOL    HW215300   3.649   5.034   3.243 -0.2024  1.6414  0.6870
 3882SOL    HW315301   3.800   5.025   3.243 -0.3528 -3.4204  1.2020
 3882SOL    MW415302   3.726   5.042   3.284  0.0099  0.3507 -0.0974
 3883SOL     OW15303   5.874   0.687   4.043  1.0230  0.3512 -0.1793
 3883SOL    HW215304   5.893   0.609   4.095  1.1471  0.2647 -0.3557
 3883SOL    HW315305   5.909   0.668   3.956  2.5873  1.2634  0.2158
 3883SOL    MW415306   5.881   0.675   4.039 -0.2248  0.1728 -0.5778
 3884SOL     OW15307   3.184   5.803   2.144 -0.6911 -0.2849  0.0821
 3884SOL    HW215308   3.241   5.872   2.176 -0.9479  0.0737 -0.2201
 3884SOL    HW315309   3.106   5.809   2.198 -1.3530  0.6830 -0.9478
 3884SOL    MW415310   3.181   5.813   2.155 -0.7484  0.1907  0.5441
 3885SOL     OW15311   4.063   1.260   0.189 -0.2167 -0.0856  0.5376
 3885SOL    HW215312   4.048   1.354   0.191 -1.3565 -0.2295 -0.2963
 3885SOL    HW315313   4.020   1.230   0.109  0.9680 -1.1869  0.2700
 3885SOL    MW415314   4.055   1.268   0.179 -0.8223  0.0526  0.6795
 3886SOL     OW15315   5.200   2.257   4.384  0.2781 -0.2813  0.1034
 3886SOL    HW215316   5.230   2.348   4.384 -1.3618  0.2968  0.4840
 3886SOL    HW315317   5.156   2.247   4.300  1.0584 -0.9580 -0.2356
 3886SOL    MW415318   5.198   2.268   4.373 -0.3596 -0.5255  0.8211
 3887SOL     OW15319   0.166   5.638   1.827 -0.7489  0.1478 -0.4310
 3887SOL    HW215320   0.255   5.633   1.861 -0.3504  0.9828 -1.2857
 3887SOL    HW315321   0.139   5.728   1.844 -1.8663 -0.3863  0.8088
 3887SOL    MW415322   0.174   5.649   1.834  0.7182 -0.0978  0.1176
 3888SOL     OW15323   4.138   6.424   0.198 -0.7034 -0.2455 -0.1566
 3888SOL    HW215324   4.158   6.471   0.279  1.0362  1.7861 -1.6579
 3888SOL    HW315325   4.214   6.368   0.184 -1.1578 -0.8559 -0.2401
 3888SOL    MW415326   4.151   6.422   0.207 -0.0010  0.0801  0.4874
 3889SOL     OW15327   3.324   0.761   1.174 -0.1033  0.2732 -0.5092
 3889SOL    HW215328   3.237   0.758   1.134  0.0197 -0.9907 -0.7348
 3889SOL    HW315329   3.362   0.675   1.155  2.0103  1.4907 -2.2251
 3889SOL    MW415330   3.318   0.749   1.166 -0.3544  0.3963  0.0950
 3890SOL     OW15331   5.748   4.553   3.345  0.2285  0.1615 -0.4635
 3890SOL    HW215332   5.841   4.532   3.338  0.0321 -0.4426 -1.4675
 3890SOL    HW315333   5.705   4.491   3.286 -0.5214  2.4054 -2.4783
 3890SOL    MW415334   5.754   4.542   3.336 -0.2286  0.2949 -0.3111
 3891SOL     OW15335   5.208   3.641   2.372  0.2859  0.2312 -0.3875
 3891SOL    HW215336   5.253   3.557   2.367 -0.3742 -0.0781 -2.3034
 3891SOL    HW315337   5.233   3.686   2.291 -0.8908  1.0629 -0.3163
 3891SOL    MW415338   5.217   3.636   2.360 -0.3307 -0.0275 -1.2760
 3892SOL     OW15339   1.535   2.754   2.717 -0.2550  0.4149 -0.0296
 3892SOL    HW215340   1.528   2.788   2.627 -1.2592  0.7578  0.1732
 3892SOL    HW315341   1.499   2.823   2.772 -1.8643 -0.7353  0.4427
 3892SOL    MW415342   1.529   2.767   2.712  0.2185  0.3101  0.1085
 3893SOL     OW15343   3.902   1.875   3.192  0.1244 -0.0310 -0.2067
 3893SOL    HW215344   3.939   1.858   3.279 -1.0815  0.2936  0.3883
 3893SOL    HW315345   3.810   1.892   3.208  0.1077  1.1898 -1.4230
 3893SOL    MW415346   3.895   1.875   3.205  0.7882  0.1254 -0.0867
 3894SOL     OW15347   1.340   3.191   0.877 -0.0681 -0.5996  0.1060
 3894SOL    HW215348   1.312   3.181   0.786 -2.2471 -0.5217  0.6957
 3894SOL    HW315349   1.269   3.152   0.928  0.7142  0.0826  1.7906
 3894SOL    MW415350   1.327   3.185   0.871  0.3693 -0.4164  0.2689
 3895SOL     OW15351   1.866   5.065   0.203 -0.0474  0.0342  0.3546
 3895SOL    HW215352   1.858   4.970   0.210 -0.2357  0.0455  0.3163
 3895SOL    HW315353   1.871   5.082   0.109  0.8313  0.0021  0.3859
 3895SOL    MW415354   1.865   5.055   0.191 -0.2411 -0.6144  0.3993
 3896SOL     OW15355   3.358   5.193   4.238 -0.0465  0.4321 -0.0388
 3896SOL    HW215356   3.288   5.252   4.264 -1.4358 -1.8667  1.9139
 3896SOL    HW315357   3.399   5.166   4.321  2.0794  0.4237 -1.0257
 3896SOL    MW415358   3.354   5.197   4.253  0.6535 -0.0533 -0.1521
 3897SOL     OW15359   4.221   5.259   2.542  0.4723  0.7632  0.0677
 3897SOL    HW215360   4.161   5.281   2.613  1.5283 -0.6854  1.4609
 3897SOL    HW315361   4.268   5.341   2.525 -0.3263  1.3316  0.4704
 3897SOL    MW415362   4.219   5.273   2.549  0.6055 -0.2113 -0.0204
 3898SOL     OW15363   5.336   6.049   4.983 -0.1380  0.6503 -0.3709
 3898SOL    HW215364   5.266   5.990   4.956  0.2958 -0.0755  0.0665
 3898SOL    HW315365   5.416   5.996   4.977  0.3179  1.3260 -0.4105
 3898SOL    MW415366   5.337   6.034   4.979  0.2421  0.5261 -0.0446
 3899SOL     OW15367   5.491   4.364   6.031  0.5467 -0.2231  0.2746
 3899SOL    HW215368   5.451   4.306   6.096 -0.8371  0.0123 -0.3213
 3899SOL    HW315369   5.496   4.311   5.951  0.8605 -0.0485  0.1753
 3899SOL    MW415370   5.486   4.350   6.029 -0.2522  0.7842 -0.2736
 3900SOL     OW15371   1.826   2.118   6.219  0.1273 -0.0854 -0.2361
 3900SOL    HW215372   1.751   2.061   6.202  0.4555 -0.2131 -1.3472
 3900SOL    HW315373   1.815   2.190   6.157  0.5419  0.2604  0.0929
 3900SOL    MW415374   1.815   2.120   6.208 -0.4673  0.0823 -0.0346
 3901SOL     OW15375   3.272   5.183   1.784  0.2241 -0.0462  0.0690
 3901SOL    HW215376   3.245   5.274   1.790  0.6818  0.0844  0.1395
 3901SOL    HW315377   3.212   5.137   1.843 -1.2077 -0.0710 -1.3348
 3901SOL    MW415378   3.260   5.189   1.793 -0.0032  0.2612  0.1180
 3902SOL     OW15379   5.119   5.366   0.653  0.2626 -0.2432  0.1419
 3902SOL    HW215380   5.182   5.326   0.712 -1.0024 -1.4264  0.7436
 3902SOL    HW315381   5.107   5.455   0.687 -0.0812 -0.7483  1.4079
 3902SOL    MW415382   5.125   5.373   0.665 -0.3586 -0.2903  0.4084
 3903SOL     OW15383   4.211   5.619   3.870  0.5819  0.0565  0.2270
 3903SOL    HW215384   4.282   5.611   3.806  0.3977  0.4853 -0.0380
 3903SOL    HW315385   4.255   5.650   3.950  0.7530 -0.0872  0.1898
 3903SOL    MW415386   4.227   5.622   3.872  0.3448  0.4343 -0.4821
 3904SOL     OW15387   3.882   4.039   1.680 -0.0471 -0.0579  0.3507
 3904SOL    HW215388   3.962   4.069   1.723  0.1495 -0.4197  0.2368
 3904SOL    HW315389   3.883   4.081   1.594 -0.0699  0.0754  0.4142
 3904SOL    MW415390   3.893   4.049   1.675 -0.0835 -0.2441 -0.2557
 3905SOL     OW15391   0.592   1.257   2.589 -0.7687 -0.3936 -0.3394
 3905SOL    HW215392   0.537   1.200   2.535 -1.5926 -1.0160  1.1011
 3905SOL    HW315393   0.537   1.333   2.607 -0.7922 -0.5491  0.2613
 3905SOL    MW415394   0.578   1.260   2.584  0.3068 -0.0203  0.1801
 3906SOL     OW15395   5.281   5.443   0.103  0.3504 -0.0547 -0.5952
 3906SOL    HW215396   5.328   5.361   0.108 -0.3177 -0.5349 -1.6688
 3906SOL    HW315397   5.198   5.427   0.148  0.4434  0.1988 -0.3309
 3906SOL    MW415398   5.276   5.430   0.109 -0.2863 -0.1778 -0.4623
 3907SOL     OW15399   2.484   0.950   5.195 -0.2348  0.2381  0.0593
 3907SOL    HW215400   2.518   1.002   5.268  0.2032  0.9441 -0.6302
 3907SOL    HW315401   2.449   1.014   5.134  2.8597  0.0561 -2.1347
 3907SOL    MW415402   2.484   0.965   5.197 -0.0901 -0.1546  0.0748
 3908SOL     OW15403   5.315   6.085   2.564 -0.1423 -0.2736  0.0949
 3908SOL    HW215404   5.372   6.009   2.556 -0.4603 -0.7526  1.8729
 3908SOL    HW315405   5.362   6.155   2.517  1.5656 -0.8387  0.8714
 3908SOL    MW415406   5.329   6.084   2.557 -0.1698  0.2718 -0.1586
 3909SOL     OW15407   5.894   5.874   5.128  0.0526  0.0901 -0.1255
 3909SOL    HW215408   5.952   5.807   5.167 -0.2604  0.0801  0.3298
 3909SOL    HW315409   5.937   5.898   5.046  0.4748 -0.2432 -0.0051
 3909SOL    MW415410   5.908   5.868   5.122 -0.3223  0.1491 -0.2069
 3910SOL     OW15411   4.063   5.347   1.273  0.1321  0.5912  0.0740
 3910SOL    HW215412   4.132   5.315   1.215 -0.1673  0.4272 -0.1926
 3910SOL    HW315413   4.095   5.329   1.361  1.4330  2.4658  0.0618
 3910SOL    MW415414   4.076   5.341   1.277 -0.0936 -0.2057 -0.2049
 3911SOL     OW15415   0.923   1.321   4.906  0.1449  0.3785 -0.2612
 3911SOL    HW215416   0.879   1.275   4.978 -2.0536  1.3998 -0.8647
 3911SOL    HW315417   0.934   1.254   4.838 -0.0887 -0.0060  0.0730
 3911SOL    MW415418   0.918   1.306   4.906  0.2811  0.0527  0.1991
 3912SOL     OW15419   2.705   5.237   6.077 -0.1260 -0.2758  0.4074
 3912SOL    HW215420   2.783   5.277   6.038  0.1663  0.4174  1.6595
 3912SOL    HW315421   2.660   5.196   6.003  1.1091 -0.1676 -0.4301
 3912SOL    MW415422   2.709   5.237   6.062 -0.2291 -0.0234 -0.2633
 3913SOL     OW15423   2.833   3.874   3.795  0.0781  0.1288 -0.2864
 3913SOL    HW215424   2.898   3.938   3.768  0.8183  0.0782  1.2784
 3913SOL    HW315425   2.753   3.926   3.807 -0.3482  0.1279 -2.5992
 3913SOL    MW415426   2.831   3.890   3.793  0.4319 -0.1136 -0.0483
 3914SOL     OW15427   2.029   2.888   1.222  0.3143  0.2268  0.2890
 3914SOL    HW215428   1.943   2.927   1.212 -0.6598 -1.9370 -0.4525
 3914SOL    HW315429   2.039   2.874   1.316  0.5485  1.8693  0.5315
 3914SOL    MW415430   2.019   2.891   1.233  0.0896 -0.1574 -0.1105
 3915SOL     OW15431   1.032   4.611   2.477  0.0377 -0.2810  0.5565
 3915SOL    HW215432   1.081   4.613   2.395  0.4220  2.8715  0.7293
 3915SOL    HW315433   0.951   4.565   2.457  0.9937 -1.3500 -1.0179
 3915SOL    MW415434   1.028   4.605   2.464 -0.3729 -0.0067 -0.0443
 3916SOL     OW15435   1.068   5.045   1.646 -0.8251  0.0958 -0.0447
 3916SOL    HW215436   1.065   4.977   1.713  0.7460 -0.1552 -0.1891
 3916SOL    HW315437   1.151   5.031   1.601 -1.7882  0.3490 -1.9809
 3916SOL    MW415438   1.078   5.034   1.649  0.2196 -0.0296  0.0954
 3917SOL     OW15439   6.380   4.783   1.871  0.1612 -0.1259 -0.2118
 3917SOL    HW215440   6.453   4.735   1.831  0.9467 -1.2086  2.2575
 3917SOL    HW315441   6.414   4.809   1.957 -1.5825  1.5197  0.0395
 3917SOL    MW415442   6.394   4.780   1.877 -0.5875 -0.4474  0.3043
 3918SOL     OW15443   2.709   2.428   1.454 -0.1320  0.4800  0.5334
 3918SOL    HW215444   2.747   2.501   1.503 -0.3554 -0.0640  1.5615
 3918SOL    HW315445   2.659   2.469   1.384  1.8710  1.2385 -0.5462
 3918SOL    MW415446   2.708   2.443   1.452 -0.0049  0.2922  0.1220
 3919SOL     OW15447   0.410   3.918   4.288 -0.2017  0.3555  0.3066
 3919SOL    HW215448   0.434   4.011   4.284 -1.1648  0.6528  1.1448
 3919SOL    HW315449   0.483   3.876   4.333  1.5906  0.1841 -2.5069
 3919SOL    MW415450   0.423   3.925   4.293  0.6532  0.2844 -0.0915
 3920SOL     OW15451   0.193   2.877   4.280 -0.1890  0.6467 -0.2306
 3920SOL    HW215452   0.248   2.896   4.204  2.4809  0.1222  1.4524
 3920SOL    HW315453   0.182   2.782   4.279 -0.4853  0.6770 -0.1446
 3920SOL    MW415454   0.199   2.867   4.270  0.0564  0.4828  0.3949
 3921SOL     OW15455   5.529   1.860   4.728  0.7082  0.2608 -0.7228
 3921SOL    HW215456   5.565   1.803   4.660  0.9402 -1.3766  0.6951
 3921SOL    HW315457   5.583   1.939   4.725  2.6198 -0.9696 -0.5203
 3921SOL    MW415458   5.541   1.863   4.719 -0.2367  0.2953 -0.1959
 3922SOL     OW15459   4.159   4.548   3.467 -0.2619 -0.1817 -0.4025
 3922SOL    HW215460   4.164   4.602   3.388 -2.7507  1.4174  0.4244
 3922SOL    HW315461   4.105   4.473   3.442 -3.2567  1.5801  0.2706
 3922SOL    MW415462   4.153   4.545   3.453  0.1029 -0.2085  0.3778
 3923SOL     OW15463   4.003   1.696   2.198  0.0133 -0.1887  0.7387
 3923SOL    HW215464   3.994   1.781   2.243 -2.1649 -0.5647  1.1460
 3923SOL    HW315465   4.029   1.719   2.109 -4.0284  1.3376 -0.2958
 3923SOL    MW415466   4.005   1.711   2.192 -0.6038  0.5329 -0.2153
 3924SOL     OW15467   0.573   5.642   5.159  0.7916 -0.3705  0.0872
 3924SOL    HW215468   0.644   5.601   5.209  1.4166 -0.0374 -0.4984
 3924SOL    HW315469   0.496   5.632   5.213  1.0725 -1.6864  0.2708
 3924SOL    MW415470   0.572   5.635   5.172 -0.1496 -0.5974 -0.2289
 3925SOL     OW15471   5.487   0.104   1.684  0.1427 -0.4590 -0.4853
 3925SOL    HW215472   5.435   0.148   1.616 -0.3835 -0.4204 -0.0632
 3925SOL    HW315473   5.422   0.066   1.742  0.5957 -0.4410  0.0357
 3925SOL    MW415474   5.471   0.105   1.682 -0.1994  0.5300 -0.6042
 3926SOL     OW15475   2.854   0.140   3.333  0.3657  0.2411 -0.3510
 3926SOL    HW215476   2.801   0.060   3.332  0.8539 -0.1338 -3.0302
 3926SOL    HW315477   2.797   0.206   3.373 -1.5902 -0.4974 -1.7808
 3926SOL    MW415478   2.840   0.138   3.338  0.5161  0.6633  0.2474
 3927SOL     OW15479   5.985   3.045   5.240  0.1250 -0.5963 -0.1551
 3927SOL    HW215480   5.921   3.105   5.200  0.4271 -0.3559 -0.2786
 3927SOL    HW315481   6.066   3.060   5.191  0.3432 -0.7192  0.1673
 3927SOL    MW415482   5.987   3.055   5.228 -0.6563 -0.3007  0.3694
 3928SOL     OW15483   5.700   4.752   1.808  0.8034  0.7817 -0.8242
 3928SOL    HW215484   5.623   4.698   1.790  1.6777 -1.1420  0.8342
 3928SOL    HW315485   5.753   4.747   1.728 -0.7021  2.0953 -1.9628
 3928SOL    MW415486   5.697   4.745   1.795  0.0850  0.2193  0.6499
 3929SOL     OW15487   4.915   2.311   2.239  0.4140 -0.2824 -0.2046
 3929SOL    HW215488   4.994   2.259   2.249 -0.1082 -0.9471  0.7143
 3929SOL    HW315489   4.915   2.369   2.316 -0.9092 -1.6075  0.8618
 3929SOL    MW415490   4.925   2.312   2.251  0.3846  0.1984  0.2462
 3930SOL     OW15491   6.221   1.015   1.488 -0.0631 -0.0957  0.1227
 3930SOL    HW215492   6.179   0.936   1.455 -1.7387  0.4374  0.8921
 3930SOL    HW315493   6.154   1.083   1.482  1.3004  1.2646 -0.3946
 3930SOL    MW415494   6.207   1.014   1.483  0.1905 -0.0395 -0.3701
 3931SOL     OW15495   1.633   5.590   3.515 -0.2739 -0.4841  0.1060
 3931SOL    HW215496   1.630   5.682   3.490  0.3819 -0.0155  1.6218
 3931SOL    HW315497   1.637   5.542   3.432  0.3447  0.8950 -0.6892
 3931SOL    MW415498   1.633   5.595   3.501 -0.4902  0.8209 -0.1928
 3932SOL     OW15499   0.522   4.410   4.146 -0.3562  0.0634  0.1379
 3932SOL    HW215500   0.545   4.502   4.159 -1.5596  0.1661  1.8523
 3932SOL    HW315501   0.446   4.411   4.088 -1.0820  0.2518  1.0675
 3932SOL    MW415502   0.515   4.422   4.140 -0.1856 -0.2522  0.1714
 3933SOL     OW15503   6.347   0.856   6.119  0.3901 -0.2061 -0.4212
 3933SOL    HW215504   6.263   0.844   6.164 -0.1924  2.2110 -0.7520
 3933SOL    HW315505   6.401   0.905   6.180  0.6127  0.5731 -1.2282
 3933SOL    MW415506   6.343   0.861   6.133  0.0356  0.1444  0.1840
 3934SOL     OW15507   1.065   2.939   1.690  0.4541  0.2483 -0.4454
 3934SOL    HW215508   1.035   2.916   1.602 -1.3914 -0.5086  0.3203
 3934SOL    HW315509   1.093   3.030   1.683  1.8529 -0.2528 -2.1361
 3934SOL    MW415510   1.065   2.948   1.678 -0.2285 -0.8116  0.5029
 3935SOL     OW15511   1.336   5.639   4.707  0.2958 -0.1097  0.1312
 3935SOL    HW215512   1.391   5.621   4.783  1.7642  0.2535 -0.8134
 3935SOL    HW315513   1.373   5.585   4.637 -1.6210 -1.1753 -0.1184
 3935SOL    MW415514   1.348   5.630   4.708  0.8853  0.8201  0.3764
 3936SOL     OW15515   0.520   2.024   2.135 -0.4560  0.2608  0.6237
 3936SOL    HW215516   0.580   1.954   2.160 -0.6094  0.0993  0.5439
 3936SOL    HW315517   0.469   1.987   2.064 -1.6477 -0.1302  1.6420
 3936SOL    MW415518   0.521   2.010   2.129 -0.0794  0.7124  0.0340
 3937SOL     OW15519   5.957   5.129   3.427 -0.3494 -0.1906  0.4923
 3937SOL    HW215520   5.936   5.036   3.427  0.0522 -0.3476  2.9705
 3937SOL    HW315521   5.963   5.153   3.334  0.4128 -2.8205 -0.2035
 3937SOL    MW415522   5.955   5.120   3.415 -0.7845 -0.1631  0.0118
 3938SOL     OW15523   0.292   5.819   2.602 -0.6766 -0.0752  0.0825
 3938SOL    HW215524   0.236   5.750   2.567 -0.9869 -0.4005  1.1856
 3938SOL    HW315525   0.379   5.798   2.570 -1.0846  0.1584 -1.2398
 3938SOL    MW415526   0.296   5.807   2.593  0.0862 -0.1269  0.1919
 3939SOL     OW15527   1.232   2.329   4.404 -0.1902 -0.3150  0.2316
 3939SOL    HW215528   1.197   2.284   4.481 -0.7261  0.9739  0.7641
 3939SOL    HW315529   1.156   2.373   4.365 -0.0424 -1.4237 -1.3950
 3939SOL    MW415530   1.217   2.329   4.409  0.0304 -0.1715 -0.1556
 3940SOL     OW15531   1.941   2.161   2.091 -0.0037  0.0595 -0.2423
 3940SOL    HW215532   1.859   2.117   2.114  0.2960  0.0083  0.7747
 3940SOL    HW315533   2.009   2.101   2.119  0.3987  0.2200 -0.8481
 3940SOL    MW415534   1.939   2.147   2.097 -0.3027  0.3648 -0.1449
 3941SOL     OW15535   5.306   1.780   1.381 -0.3662  0.2968  0.3217
 3941SOL    HW215536   5.366   1.813   1.448  0.5999 -0.7436 -0.0194
 3941SOL    HW315537   5.233   1.744   1.432 -0.7078  1.5015  0.7365
 3941SOL    MW415538   5.304   1.780   1.397  0.6501  0.3092 -0.4443
 3942SOL     OW15539   2.620   1.476   6.094 -0.0989 -0.5281  0.4387
 3942SOL    HW215540   2.652   1.506   6.179 -0.7453  1.2947  0.0947
 3942SOL    HW315541   2.596   1.556   6.048 -1.1794 -1.5593 -0.8993
 3942SOL    MW415542   2.621   1.490   6.099  0.0567  0.2855 -0.4165
 3943SOL     OW15543   1.277   4.318   1.446 -0.1125  0.0034 -0.3740
 3943SOL    HW215544   1.247   4.233   1.414  1.6488 -0.7850 -0.0647
 3943SOL    HW315545   1.371   4.319   1.428  0.4362  0.7378  2.0672
 3943SOL    MW415546   1.285   4.307   1.440 -0.3578  0.0120 -0.4801
 3944SOL     OW15547   3.045   5.258   5.009  0.3646 -0.0961  0.4163
 3944SOL    HW215548   2.974   5.273   4.947 -0.5016 -1.2279  1.0973
 3944SOL    HW315549   3.075   5.345   5.033 -2.5516  0.5526  2.0913
 3944SOL    MW415550   3.040   5.271   5.004 -0.2733 -0.3477  0.0885
 3945SOL     OW15551   0.629   1.248   0.979  0.5929 -0.1231  0.1191
 3945SOL    HW215552   0.613   1.184   1.049  1.0045 -1.2899 -0.8181
 3945SOL    HW315553   0.707   1.215   0.935  0.1979  0.4650 -1.0388
 3945SOL    MW415554   0.637   1.235   0.983 -0.3486 -0.0579  0.5886
 3946SOL     OW15555   0.036   0.509   6.089  0.9563  0.3533  0.2045
 3946SOL    HW215556   0.016   0.533   6.180  1.7800  0.0749  0.4749
 3946SOL    HW315557  -0.049   0.499   6.047  0.5670  1.0745  0.7902
 3946SOL    MW415558   0.022   0.511   6.096  0.4766  0.2041 -0.2985
 3947SOL     OW15559   2.160   3.188   0.337  0.1979 -0.2197  0.1904
 3947SOL    HW215560   2.196   3.161   0.422 -1.7021 -2.1457  0.4438
 3947SOL    HW315561   2.074   3.147   0.333 -0.4823  1.2646 -1.9551
 3947SOL    MW415562   2.154   3.179   0.348 -0.7507  0.4342  0.3986
 3948SOL     OW15563   3.808   1.684   2.430 -0.3485  0.1305  0.1907
 3948SOL    HW215564   3.817   1.680   2.335 -0.8032  0.4778  0.1297
 3948SOL    HW315565   3.898   1.691   2.462 -0.0908 -1.4493 -0.1282
 3948SOL    MW415566   3.821   1.684   2.422 -0.7235 -0.3510  0.4098
 3949SOL     OW15567   3.322   5.188   1.185  0.2338  0.4890 -0.2818
 3949SOL    HW215568   3.373   5.113   1.157 -1.2634 -0.0933 -1.5714
 3949SOL    HW315569   3.237   5.152   1.211  0.4615  1.4053  1.9598
 3949SOL    MW415570   3.317   5.174   1.185 -0.0666 -0.1026 -0.3159
 3950SOL     OW15571   3.560   3.520   5.888 -0.4027 -0.3630  0.4578
 3950SOL    HW215572   3.635   3.465   5.910  0.7446 -0.8754 -3.7596
 3950SOL    HW315573   3.508   3.466   5.828 -2.1600  1.3038  0.3848
 3950SOL    MW415574   3.563   3.506   5.883 -0.2339 -0.3371  0.0565
 3951SOL     OW15575   4.588   2.684   2.966 -0.1003  0.2985  0.3625
 3951SOL    HW215576   4.591   2.605   3.020  0.6484 -1.2443 -1.7787
 3951SOL    HW315577   4.640   2.748   3.013  0.2222 -0.8553  1.6197
 3951SOL    MW415578   4.595   2.682   2.979 -0.3750  0.2244  0.0738
 3952SOL     OW15579   1.804   5.790   3.326  0.3066  0.3738  0.0877
 3952SOL    HW215580   1.812   5.812   3.419 -0.9170  3.5615 -0.4397
 3952SOL    HW315581   1.710   5.790   3.309  0.5449  1.6557 -1.4736
 3952SOL    MW415582   1.793   5.793   3.336 -0.2458  0.1571 -0.1296
 3953SOL     OW15583   5.530   4.131   3.208 -0.1148 -0.2724  0.1052
 3953SOL    HW215584   5.535   4.054   3.265 -0.4406 -0.7166 -0.4586
 3953SOL    HW315585   5.450   4.176   3.235 -0.8462 -1.0556 -0.7024
 3953SOL    MW415586   5.521   4.127   3.219  0.3619  0.2902 -0.0111
 3954SOL     OW15587   5.289   6.168   1.149 -0.2686  0.4058  0.4927
 3954SOL    HW215588   5.247   6.190   1.232  0.5054 -0.3085  1.0900
 3954SOL    HW315589   5.360   6.231   1.140 -1.0147  1.1792 -0.1834
 3954SOL    MW415590   5.293   6.179   1.159  0.4429  0.1614  0.0603
 3955SOL     OW15591   4.513   0.272   6.073  0.1567 -0.8131 -0.0786
 3955SOL    HW215592   4.463   0.314   6.143  1.0842 -1.6398  1.1104
 3955SOL    HW315593   4.449   0.216   6.028 -0.3644 -0.5594  0.3348
 3955SOL    MW415594   4.498   0.270   6.076  0.0664 -0.3005 -0.2203
 3956SOL     OW15595   3.941   6.351   6.128 -0.1703  0.4924  0.3830
 3956SOL    HW215596   3.924   6.257   6.121  1.8508  0.1166 -0.2545
 3956SOL    HW315597   3.936   6.382   6.038 -1.7385  1.2129  0.6906
 3956SOL    MW415598   3.938   6.342   6.115  0.2811 -0.7222 -0.5366
 3957SOL     OW15599   6.041   2.270   1.976  0.1221 -0.0090  0.0689
 3957SOL    HW215600   6.004   2.214   2.044  0.7807  0.7208  1.0719
 3957SOL    HW315601   6.094   2.211   1.922  2.1761 -0.1605  2.0948
 3957SOL    MW415602   6.043   2.255   1.978 -0.9314  0.1598  0.3703
 3958SOL     OW15603   5.327   3.108   3.111  0.1052  0.3212 -0.0605
 3958SOL    HW215604   5.279   3.191   3.118 -1.8109 -0.7729  0.3482
 3958SOL    HW315605   5.415   3.130   3.141 -0.4964  2.0891  0.5818
 3958SOL    MW415606   5.332   3.122   3.116 -0.0345 -0.8820 -0.1882
 3959SOL     OW15607   2.186   2.587   0.783  0.5155  0.2409  0.4228
 3959SOL    HW215608   2.177   2.562   0.874  0.6163  1.0290  0.6628
 3959SOL    HW315609   2.104   2.632   0.762  0.0056 -0.9407 -0.2299
 3959SOL    MW415610   2.174   2.590   0.792 -0.4099 -0.1088 -0.3423
 3960SOL     OW15611   1.406   2.694   2.139 -0.2863 -0.3125  0.5265
 3960SOL    HW215612   1.461   2.689   2.061 -0.5606 -1.8813  0.4000
 3960SOL    HW315613   1.355   2.775   2.127  0.0034 -0.2846 -0.6979
 3960SOL    MW415614   1.406   2.704   2.127  0.1546  0.3493  0.1443
 3961SOL     OW15615   1.146   5.370   2.741  0.2274 -0.4856 -0.2595
 3961SOL    HW215616   1.214   5.411   2.687 -1.2241  1.4579 -0.7539
 3961SOL    HW315617   1.080   5.341   2.678  0.4404 -2.0821  0.2286
 3961SOL    MW415618   1.146   5.372   2.725 -0.1947 -0.1070  0.4270
 3962SOL     OW15619   1.814   5.555   1.294 -0.3621  0.2970 -0.5008
 3962SOL    HW215620   1.815   5.530   1.202 -0.1276  0.4522 -0.5408
 3962SOL    HW315621   1.864   5.637   1.298 -1.2371  0.8419 -0.3942
 3962SOL    MW415622   1.821   5.562   1.283  0.0011  0.4829 -0.0130
 3963SOL     OW15623   3.770   5.875   2.816  0.1305  0.5443 -0.0316
 3963SOL    HW215624   3.838   5.942   2.816 -1.9140  2.7610 -0.3568
 3963SOL    HW315625   3.707   5.904   2.750 -0.3992 -2.2707 -0.9095
 3963SOL    MW415626   3.770   5.888   2.808 -0.0354  0.1432 -0.0133
 3964SOL     OW15627   3.088   4.964   2.619  0.4579 -0.3137  0.0857
 3964SOL    HW215628   3.004   4.920   2.604  0.6725 -1.6827  2.4821
 3964SOL    HW315629   3.149   4.920   2.559 -0.2624 -0.1661 -0.7714
 3964SOL    MW415630   3.085   4.952   2.609  0.0309 -0.6737 -0.5263
 3965SOL     OW15631   2.622   1.731   0.211  0.1913 -0.1589  0.9754
 3965SOL    HW215632   2.701   1.738   0.158 -1.0190 -0.2349 -0.9315
 3965SOL    HW315633   2.613   1.637   0.228  0.1271 -0.2302  0.5609
 3965SOL    MW415634   2.631   1.719   0.206 -0.0701 -0.0639  0.1230
 3966SOL     OW15635   5.383   6.022   4.320 -0.4915 -0.0282 -0.1120
 3966SOL    HW215636   5.357   6.082   4.390 -0.7643 -1.5577  1.1506
 3966SOL    HW315637   5.301   6.004   4.273 -0.2121  1.4706 -1.2917
 3966SOL    MW415638   5.369   6.028   4.323 -0.4104  0.6771 -0.4027
 3967SOL     OW15639   5.249   1.573   0.162  0.0640  0.1241  0.0379
 3967SOL    HW215640   5.335   1.586   0.122  0.3697  0.5183  0.7981
 3967SOL    HW315641   5.196   1.536   0.092  0.1916  2.0613 -1.1640
 3967SOL    MW415642   5.254   1.570   0.148 -0.2159 -0.0652  0.6403
 3968SOL     OW15643   3.050   4.067   4.134  0.3047  0.3465 -0.4301
 3968SOL    HW215644   3.093   4.149   4.157  0.7761 -0.0173  0.0226
 3968SOL    HW315645   3.121   4.010   4.105  0.3443 -0.6426  1.4223
 3968SOL    MW415646   3.065   4.070   4.133  0.4535  0.0989  0.2480
 3969SOL     OW15647   5.661   4.351   3.084 -0.2301 -0.2449  0.0088
 3969SOL    HW215648   5.596   4.381   3.021 -1.1132 -2.8521 -0.4434
 3969SOL    HW315649   5.619   4.278   3.129  2.0862 -1.5027  0.2911
 3969SOL    MW415650   5.647   4.346   3.082  0.3715 -0.6096  0.4599
 3970SOL     OW15651   0.474   5.030   6.422  0.1849 -0.3190  0.3490
 3970SOL    HW215652   0.486   5.088   6.347  1.4498  0.8306  1.3942
 3970SOL    HW315653   0.518   4.949   6.397  0.6892  0.0896 -0.1105
 3970SOL    MW415654   0.481   5.027   6.409 -0.1028 -0.2746 -0.3542
 3971SOL     OW15655   2.725   3.498   1.781  0.0577  0.5915 -0.6853
 3971SOL    HW215656   2.765   3.584   1.771 -1.0455  1.0707 -1.1435
 3971SOL    HW315657   2.694   3.476   1.693 -0.3288  0.0633 -0.4213
 3971SOL    MW415658   2.726   3.507   1.768  0.7778  0.3696 -0.1338
 3972SOL     OW15659   6.109   0.437   6.192 -0.9883  0.2801 -0.1479
 3972SOL    HW215660   6.102   0.342   6.197  0.4594  0.1776  0.5252
 3972SOL    HW315661   6.021   0.467   6.171 -2.0353 -1.0597  1.9537
 3972SOL    MW415662   6.097   0.429   6.190 -0.0604 -0.2491  0.3256
 3973SOL     OW15663   1.120   5.406   1.513  0.2529  0.0811 -0.5543
 3973SOL    HW215664   1.071   5.395   1.432  0.3170  0.4324 -0.6393
 3973SOL    HW315665   1.175   5.328   1.518 -0.7927 -0.6615 -0.1212
 3973SOL    MW415666   1.120   5.394   1.503 -0.0391 -0.2994 -0.5355
 3974SOL     OW15667   4.269   3.069   3.541 -0.2335  0.1923  0.0952
 3974SOL    HW215668   4.343   3.107   3.495 -0.6771 -0.8383 -1.5810
 3974SOL    HW315669   4.200   3.135   3.537  0.4338  1.0108  1.3502
 3974SOL    MW415670   4.270   3.082   3.535 -0.0285 -0.2905  0.1852
 3975SOL     OW15671   4.423   1.954   1.282  0.3145 -0.3508 -1.4032
 3975SOL    HW215672   4.511   1.952   1.321 -0.1867  1.0114 -0.1073
 3975SOL    HW315673   4.365   1.926   1.352 -0.4272  0.2059 -1.7856
 3975SOL    MW415674   4.427   1.950   1.297  0.0269  0.2351 -0.5111
 3976SOL     OW15675   2.578   6.461   2.258 -0.0414  0.1746 -0.6107
 3976SOL    HW215676   2.487   6.441   2.281  0.2856  0.9271  1.5429
 3976SOL    HW315677   2.609   6.383   2.213 -1.5864 -0.3101 -0.8976
 3976SOL    MW415678   2.570   6.448   2.255  0.2134 -0.2981  0.3845
 3977SOL     OW15679   3.302   3.956   4.205  0.1760 -0.1378  0.0932
 3977SOL    HW215680   3.254   3.956   4.288 -0.5574 -2.1236 -0.2677
 3977SOL    HW315681   3.391   3.930   4.230 -0.3659 -2.1068  0.1746
 3977SOL    MW415682   3.307   3.953   4.219 -0.0565  0.1183 -0.3441
 3978SOL     OW15683   0.863   2.348   5.466  0.8344  0.0829  0.1726
 3978SOL    HW215684   0.862   2.407   5.541  1.3262  0.2707  0.0416
 3978SOL    HW315685   0.948   2.303   5.472  0.6133 -0.3516  0.0768
 3978SOL    MW415686   0.874   2.350   5.476 -0.2107 -0.1169  0.6689
 3979SOL     OW15687   3.641   1.660   0.991  0.0224  0.5341 -0.8827
 3979SOL    HW215688   3.560   1.688   0.949 -0.3469 -0.0093 -0.5453
 3979SOL    HW315689   3.629   1.684   1.083  0.1336  0.2286 -0.7865
 3979SOL    MW415690   3.629   1.667   0.998 -0.1809  0.2186 -1.0327
 3980SOL     OW15691   0.668   2.718   0.431  0.3068 -0.3092 -0.2936
 3980SOL    HW215692   0.720   2.797   0.413  0.0071  0.0501  0.3980
 3980SOL    HW315693   0.730   2.658   0.472  0.1923  0.1223  0.5382
 3980SOL    MW415694   0.683   2.721   0.434 -0.2034  0.7684 -0.4926
 3981SOL     OW15695   4.258   4.214   2.584 -0.1262 -0.0885  0.6690
 3981SOL    HW215696   4.321   4.267   2.536 -1.1132 -1.7429 -2.7992
 3981SOL    HW315697   4.308   4.135   2.609 -0.1518 -0.2115  0.3361
 3981SOL    MW415698   4.273   4.210   2.581 -0.7613 -0.8119 -0.4249
 3982SOL     OW15699   1.158   2.453   5.830  0.3421  0.3028  0.4961
 3982SOL    HW215700   1.228   2.499   5.876 -0.3354 -0.1295  2.0152
 3982SOL    HW315701   1.104   2.523   5.793 -0.1224  0.7405  1.9390
 3982SOL    MW415702   1.160   2.468   5.831  0.2773  0.3934 -0.2714
 3983SOL     OW15703   5.131   5.777   1.261  0.2375 -0.4293  0.1169
 3983SOL    HW215704   5.085   5.719   1.200 -0.9412 -1.0879  1.5797
 3983SOL    HW315705   5.067   5.846   1.281  1.2610  0.8365 -0.7781
 3983SOL    MW415706   5.116   5.779   1.255 -0.1662 -0.1538  0.2741
 3984SOL     OW15707   3.089   4.645   1.671 -0.0104  0.3497  0.1387
 3984SOL    HW215708   3.027   4.716   1.652 -0.1576 -0.2326 -1.7379
 3984SOL    HW315709   3.043   4.566   1.644  1.2114 -0.1810 -0.4137
 3984SOL    MW415710   3.074   4.644   1.665 -0.0057  0.0647  0.0090
 3985SOL     OW15711   1.612   3.929   4.859  0.0170 -0.0198  0.2022
 3985SOL    HW215712   1.602   3.838   4.832  0.1785  0.5157 -1.8265
 3985SOL    HW315713   1.686   3.929   4.919 -0.9165 -1.4037  1.4342
 3985SOL    MW415714   1.620   3.917   4.863 -0.5547 -0.6523 -0.1926
 3986SOL     OW15715   2.520   2.260   5.153 -0.1324 -0.2624  0.2788
 3986SOL    HW215716   2.490   2.320   5.221 -1.1175 -0.6541  0.2042
 3986SOL    HW315717   2.612   2.243   5.174 -0.6005 -0.9230  1.9177
 3986SOL    MW415718   2.528   2.266   5.164  0.1176 -0.0719  0.1676
 3987SOL     OW15719   0.372   4.990   1.400  0.7753 -0.8894 -0.3860
 3987SOL    HW215720   0.327   5.074   1.414  1.5371 -0.5627  0.1726
 3987SOL    HW315721   0.389   4.987   1.306  2.1250  0.3200 -0.2102
 3987SOL    MW415722   0.368   5.001   1.390 -0.6677  0.2848 -0.0702
 3988SOL     OW15723   4.284   4.616   1.593 -0.5174 -0.5612  0.1767
 3988SOL    HW215724   4.223   4.563   1.644 -1.3026  0.6463  0.5453
 3988SOL    HW315725   4.363   4.620   1.646  0.1303 -2.5729 -0.5400
 3988SOL    MW415726   4.287   4.610   1.606 -0.1350 -0.2629 -0.5166
 3989SOL     OW15727   2.353   2.727   5.029 -0.2506  0.3045 -0.1014
 3989SOL    HW215728   2.272   2.677   5.038  1.2049 -2.8143 -2.4302
 3989SOL    HW315729   2.335   2.788   4.957 -0.2943 -1.1240 -1.3565
 3989SOL    MW415730   2.340   2.729   5.021 -0.0697 -1.0037  0.2073
 3990SOL     OW15731   1.195   3.164   2.360  0.2782  0.4375  0.3118
 3990SOL    HW215732   1.129   3.213   2.310 -0.9165 -0.7526  0.6511
 3990SOL    HW315733   1.193   3.204   2.447 -2.0843 -1.3031  1.1710
 3990SOL    MW415734   1.186   3.176   2.365  0.0449  0.2374  0.2342
 3991SOL     OW15735   1.256   0.960   1.599 -0.0224  1.0557 -0.4166
 3991SOL    HW215736   1.197   0.908   1.545  1.6711  0.1188 -1.4339
 3991SOL    HW315737   1.231   0.939   1.689 -0.5496 -0.1172 -0.8195
 3991SOL    MW415738   1.245   0.951   1.604  0.1830 -0.4237 -0.3468
 3992SOL     OW15739   2.712   4.719   1.071  0.1252 -0.3299  0.4154
 3992SOL    HW215740   2.710   4.646   1.010  0.5364 -0.2880  0.3482
 3992SOL    HW315741   2.621   4.748   1.077  0.0295 -0.5618  0.1023
 3992SOL    MW415742   2.700   4.713   1.064 -0.3004 -0.3218  0.3731
 3993SOL     OW15743   0.835   5.791   1.530  0.1932  0.1431  0.0053
 3993SOL    HW215744   0.841   5.813   1.623  1.7117  1.2912 -0.3260
 3993SOL    HW315745   0.746   5.817   1.505  0.2188  1.1083  0.8348
 3993SOL    MW415746   0.824   5.797   1.539  0.2707 -0.1133  0.3575
 3994SOL     OW15747   2.941   5.378   4.217  0.3540  0.6259 -0.3521
 3994SOL    HW215748   2.946   5.289   4.184  0.1068  1.1063 -1.7215
 3994SOL    HW315749   3.031   5.399   4.243  0.5104  0.1586 -0.5107
 3994SOL    MW415750   2.953   5.369   4.216  0.3424 -0.4082  0.1644
 3995SOL     OW15751   5.635   1.983   2.976  0.1417 -0.3409  0.5086
 3995SOL    HW215752   5.650   1.948   3.063 -0.3944  0.8158  1.0868
 3995SOL    HW315753   5.566   2.048   2.987 -1.6847 -1.8532 -1.1874
 3995SOL    MW415754   5.628   1.987   2.989  0.1151  0.0482 -0.0025
 3996SOL     OW15755   2.821   2.945   2.373  0.0693  0.2044  0.5028
 3996SOL    HW215756   2.767   2.893   2.313  0.2115  1.2523 -0.5814
 3996SOL    HW315757   2.762   2.972   2.443 -0.9223  1.4959 -0.7580
 3996SOL    MW415758   2.806   2.942   2.374  0.2134  0.2980 -0.2435
 3997SOL     OW15759   3.757   3.794   0.536  0.3294 -0.3944 -0.1507
 3997SOL    HW215760   3.744   3.769   0.628 -2.6050 -0.7172 -0.5475
 3997SOL    HW315761   3.764   3.711   0.489 -1.1280 -0.3505 -0.5049
 3997SOL    MW415762   3.756   3.780   0.542 -0.1998 -0.2478  0.2540
 3998SOL     OW15763   6.371   0.942   2.924 -0.3334 -0.2616  0.3441
 3998SOL    HW215764   6.335   0.958   2.836  3.3348  0.4364 -1.2023
 3998SOL    HW315765   6.436   0.874   2.912  1.1625  0.7252  2.2446
 3998SOL    MW415766   6.375   0.935   2.911 -0.0722 -0.2112 -0.2887
 3999SOL     OW15767   5.198   3.119   4.596  0.5299 -0.4893  0.6233
 3999SOL    HW215768   5.245   3.202   4.605  0.7588 -0.6349  0.7600
 3999SOL    HW315769   5.121   3.142   4.543  1.0577 -0.3708 -0.1109
 3999SOL    MW415770   5.194   3.133   4.590  0.4237  0.3176 -0.0596
 4000SOL     OW15771   5.853   5.938   0.397 -0.8452 -0.5281 -0.1542
 4000SOL    HW215772   5.800   6.017   0.389 -0.6690 -0.3344  0.4881
 4000SOL    HW315773   5.919   5.960   0.463 -1.3980 -1.5269  0.7668
 4000SOL    MW415774   5.854   5.951   0.405 -0.2949 -0.2149 -0.0271
 4001SOL     OW15775   1.680   2.649   6.094  0.1278  0.2337 -0.1819
 4001SOL    HW215776   1.734   2.683   6.166  0.9043  0.0744 -0.6740
 4001SOL    HW315777   1.716   2.691   6.016  0.1310 -0.5877 -0.6273
 4001SOL    MW415778   1.692   2.659   6.093  0.3899  0.2251 -0.0749
 4002SOL     OW15779   2.143   4.057   1.622 -0.1787 -0.0505 -0.3171
 4002SOL    HW215780   2.094   3.997   1.678  0.4769 -0.6327 -0.3669
 4002SOL    HW315781   2.169   4.128   1.680  1.3062 -1.1052  0.3582
 4002SOL    MW415782   2.140   4.059   1.637 -0.2397 -0.1180  0.7814
 4003SOL     OW15783   5.839   5.518   2.520  0.0406  0.0341  0.1687
 4003SOL    HW215784   5.894   5.499   2.596 -0.8986  1.7928  1.3581
 4003SOL    HW315785   5.750   5.500   2.550 -0.4781  2.0346 -0.0191
 4003SOL    MW415786   5.834   5.513   2.534 -0.0067 -0.9101  0.0389
 4004SOL     OW15787   3.453   6.287   4.514  0.1384  1.4986  0.0396
 4004SOL    HW215788   3.447   6.192   4.504  0.7867  1.5568 -1.0067
 4004SOL    HW315789   3.532   6.301   4.566 -0.9844  1.4000  1.8597
 4004SOL    MW415790   3.462   6.276   4.519  0.2230 -0.0211 -0.0140
 4005SOL     OW15791   3.463   2.216   0.550 -0.1154 -0.1124  0.1035
 4005SOL    HW215792   3.539   2.264   0.585  1.3566 -2.2306 -0.0180
 4005SOL    HW315793   3.487   2.124   0.560 -2.5934 -0.8421 -0.2191
 4005SOL    MW415794   3.476   2.210   0.556  0.2854  0.8354 -0.5083
 4006SOL     OW15795   4.478   3.799   5.552 -0.0558  0.6165 -0.1515
 4006SOL    HW215796   4.443   3.874   5.600  0.2877  1.3018 -0.9376
 4006SOL    HW315797   4.563   3.829   5.520 -0.2795  0.1955 -1.1823
 4006SOL    MW415798   4.484   3.813   5.554 -0.7359 -0.9312 -0.1477
 4007SOL     OW15799   2.336   3.094   4.506  0.9846 -0.4027  0.0557
 4007SOL    HW215800   2.409   3.090   4.567 -0.3094 -1.9583  1.5788
 4007SOL    HW315801   2.310   3.002   4.492 -0.2862  0.0648 -0.9345
 4007SOL    MW415802   2.342   3.081   4.512 -0.0627 -0.0681  0.2830
 4008SOL     OW15803   4.556   1.991   5.619  0.4445  0.0878  0.3107
 4008SOL    HW215804   4.535   1.984   5.526 -1.1193  0.7325  0.5858
 4008SOL    HW315805   4.597   2.077   5.629 -1.7548  1.1800  0.5717
 4008SOL    MW415806   4.559   2.001   5.608 -0.3116 -0.9661 -0.6506
 4009SOL     OW15807   3.586   3.073   3.972 -0.0624  0.2393  0.3389
 4009SOL    HW215808   3.675   3.039   3.984 -0.7069 -1.4716  0.5431
 4009SOL    HW315809   3.594   3.136   3.901  0.8302 -2.0122 -1.6990
 4009SOL    MW415810   3.599   3.077   3.965  0.4094 -0.0272  0.1142
 4010SOL     OW15811   0.442   1.633   4.337 -0.1538  0.4765  0.0417
 4010SOL    HW215812   0.365   1.623   4.393  0.2449 -1.0848  0.3547
 4010SOL    HW315813   0.413   1.601   4.252  0.5978 -1.8566  0.5885
 4010SOL    MW415814   0.428   1.628   4.333  0.4941 -0.3124 -0.7869
 4011SOL     OW15815   2.046   4.209   2.828 -0.2824  0.3123 -0.1915
 4011SOL    HW215816   1.959   4.249   2.822 -0.7766 -0.8476 -1.2546
 4011SOL    HW315817   2.032   4.127   2.876  0.9224  1.8186  3.0713
 4011SOL    MW415818   2.033   4.203   2.834 -0.3247 -0.0911 -0.5143
 4012SOL     OW15819   1.345   3.977   4.929 -0.0314  0.3912  0.0402
 4012SOL    HW215820   1.435   3.969   4.899  0.2339 -0.6987  1.0296
 4012SOL    HW315821   1.345   3.939   5.017 -1.1112  1.9351  0.7567
 4012SOL    MW415822   1.357   3.971   4.936  0.1096  0.2384  0.6797
 4013SOL     OW15823   3.196   3.552   1.829  0.0158  0.4715  0.1038
 4013SOL    HW215824   3.157   3.468   1.806  2.2473  0.1918 -3.3875
 4013SOL    HW315825   3.179   3.608   1.753  0.8741  2.3562  1.2242
 4013SOL    MW415826   3.188   3.548   1.816  0.6623 -0.3267 -0.3129
 4014SOL     OW15827   4.957   5.729   0.682  0.1258  0.0586 -0.0243
 4014SOL    HW215828   4.891   5.661   0.694 -1.0397  1.3705  1.3941
 4014SOL    HW315829   4.956   5.747   0.588 -2.2899  0.7129  0.0667
 4014SOL    MW415830   4.948   5.722   0.671 -0.1152 -0.2794  0.1876
 4015SOL     OW15831   1.539   1.210   1.365 -0.4041 -0.0385 -0.1288
 4015SOL    HW215832   1.617   1.245   1.409 -0.7006  1.2159 -0.5886
 4015SOL    HW315833   1.552   1.230   1.273 -1.3241  0.2538 -0.1977
 4015SOL    MW415834   1.551   1.217   1.359 -0.2695  0.3243 -0.4410
 4016SOL     OW15835   2.131   5.104   2.484  0.0866 -0.3290  0.4020
 4016SOL    HW215836   2.225   5.103   2.467 -0.2757  0.9748 -2.0705
 4016SOL    HW315837   2.112   5.016   2.518  1.5342 -2.3044 -3.3733
 4016SOL    MW415838   2.141   5.092   2.486  0.3294  0.0804  0.2756
 4017SOL     OW15839   1.591   1.325   1.861 -0.2519  1.0350 -0.3220
 4017SOL    HW215840   1.529   1.367   1.801 -2.1147 -0.5623  0.4154
 4017SOL    HW315841   1.569   1.359   1.947 -0.0178  0.5554 -0.0663
 4017SOL    MW415842   1.580   1.335   1.864  0.3157  0.5143 -0.3661
 4018SOL     OW15843   2.387   4.795   3.561  0.1992 -0.6867 -0.4821
 4018SOL    HW215844   2.298   4.826   3.577 -0.6127 -2.3403 -1.5256
 4018SOL    HW315845   2.377   4.726   3.496  2.3745 -0.2088 -1.4135
 4018SOL    MW415846   2.374   4.790   3.555 -0.5808  0.1655  0.0766
 4019SOL     OW15847   4.778   1.637   3.680  0.0693 -0.0881  0.1622
 4019SOL    HW215848   4.782   1.666   3.589  0.3293 -2.2723 -0.5851
 4019SOL    HW315849   4.694   1.670   3.712 -0.0074  0.7412 -0.8500
 4019SOL    MW415850   4.767   1.646   3.672  0.0640 -0.8559 -0.5168
 4020SOL     OW15851   2.156   0.760   0.838 -0.3814  0.4230  0.0045
 4020SOL    HW215852   2.122   0.825   0.777 -2.6714 -0.0245  0.6915
 4020SOL    HW315853   2.125   0.676   0.804 -1.3451  0.1298  1.4591
 4020SOL    MW415854   2.147   0.758   0.826 -0.0725 -0.8273  0.5198
 4021SOL     OW15855   5.348   4.436   2.030  0.0221  0.4416  0.1654
 4021SOL    HW215856   5.254   4.440   2.012 -0.3534 -1.2611  1.5328
 4021SOL    HW315857   5.361   4.499   2.101  0.1129  1.3538 -0.6330
 4021SOL    MW415858   5.337   4.445   2.037  0.2349 -0.7013 -0.1641
 4022SOL     OW15859   0.767   2.341   3.008  0.0298  0.4416  0.3693
 4022SOL    HW215860   0.732   2.329   3.096 -0.8149 -0.0070 -0.0142
 4022SOL    HW315861   0.862   2.342   3.019 -0.0745  0.4754  1.2880
 4022SOL    MW415862   0.775   2.340   3.021 -0.1172 -0.1903 -0.1245
 4023SOL     OW15863   6.403   4.554   1.347 -1.2003  0.1983  0.0868
 4023SOL    HW215864   6.463   4.619   1.383 -0.8917 -0.6220  1.1229
 4023SOL    HW315865   6.396   4.488   1.416 -3.2396  0.2329 -0.0294
 4023SOL    MW415866   6.410   4.554   1.361 -0.4762 -0.1747 -0.1094
 4024SOL     OW15867   5.472   5.067   0.619 -0.6623 -0.2456 -0.3241
 4024SOL    HW215868   5.516   5.012   0.684 -2.9431  0.1256  1.6713
 4024SOL    HW315869   5.452   5.007   0.547  0.1753 -1.1476  0.1669
 4024SOL    MW415870   5.475   5.051   0.618 -0.2161 -0.0899  0.1576
 4025SOL     OW15871   3.909   1.102   4.627  0.2704 -0.3179 -0.3114
 4025SOL    HW215872   3.886   1.094   4.720 -0.1010 -0.7225 -0.4345
 4025SOL    HW315873   3.825   1.109   4.582  0.4645  0.4332 -0.5741
 4025SOL    MW415874   3.895   1.102   4.634  0.1330  0.4609  0.3205
 4026SOL     OW15875   3.176   6.424   4.397  0.0875  0.1731  1.2477
 4026SOL    HW215876   3.196   6.427   4.491  1.9644  0.6365  0.8763
 4026SOL    HW315877   3.219   6.345   4.366 -0.7132 -0.0981  0.8003
 4026SOL    MW415878   3.184   6.414   4.405 -0.1836  0.4020 -0.2903
 4027SOL     OW15879   3.983   6.452   5.866 -0.0154 -0.0899 -0.4061
 4027SOL    HW215880   3.991   6.542   5.835  0.6974  0.3793  1.0472
 4027SOL    HW315881   4.052   6.405   5.820 -0.0637  0.2020 -0.7893
 4027SOL    MW415882   3.993   6.458   5.856 -0.3795 -0.0139 -0.0948
 4028SOL     OW15883   4.931   3.317   4.895 -0.2531 -0.2153 -0.7302
 4028SOL    HW215884   4.999   3.380   4.872 -0.3530 -0.1356 -0.8099
 4028SOL    HW315885   4.960   3.235   4.854 -0.8452  0.1201 -1.8843
 4028SOL    MW415886   4.944   3.314   4.886  0.5823  0.0143  0.4179
 4029SOL     OW15887   4.718   3.532   0.643 -0.1938  0.2627 -0.8734
 4029SOL    HW215888   4.804   3.573   0.638 -0.6652  1.7175  1.2998
 4029SOL    HW315889   4.665   3.578   0.579  0.0491  1.0770 -0.5079
 4029SOL    MW415890   4.722   3.543   0.634  0.1519 -0.1388  1.0788
 4030SOL     OW15891   0.857   0.226   2.268 -0.0215  0.2727 -0.0894
 4030SOL    HW215892   0.813   0.305   2.299  1.4932  1.3278 -0.4929
 4030SOL    HW315893   0.925   0.208   2.334  0.5186  0.0982 -0.6832
 4030SOL    MW415894   0.860   0.234   2.281  0.4922  0.9738 -0.6159
 4031SOL     OW15895   0.259   2.325   3.489 -0.7020 -0.1821  0.3513
 4031SOL    HW215896   0.265   2.241   3.443  1.9182  1.4432 -2.7130
 4031SOL    HW315897   0.168   2.352   3.479 -0.9599 -1.4503 -1.0661
 4031SOL    MW415898   0.248   2.318   3.482 -0.9230 -0.3223 -0.5813
 4032SOL     OW15899   1.465   1.360   2.707  0.3016 -0.2095  0.3724
 4032SOL    HW215900   1.549   1.317   2.691 -0.1961 -1.4529  0.9194
 4032SOL    HW315901   1.400   1.303   2.664 -0.3983 -0.1516  1.3159
 4032SOL    MW415902   1.467   1.347   2.699 -0.1851 -0.2925  0.3515
 4033SOL     OW15903   2.944   2.051   0.873 -0.5717 -0.0426 -0.4702
 4033SOL    HW215904   2.971   2.019   0.787 -1.2273 -0.6161 -0.4678
 4033SOL    HW315905   3.020   2.101   0.905 -0.1379 -0.2504 -1.1584
 4033SOL    MW415906   2.957   2.054   0.866  0.0550 -0.3145  0.2233
 4034SOL     OW15907   2.328   6.250   1.412 -0.1665 -0.3756  0.0408
 4034SOL    HW215908   2.242   6.218   1.384 -0.0313 -0.3083 -0.4741
 4034SOL    HW315909   2.339   6.218   1.501 -0.9500  0.0579  0.2958
 4034SOL    MW415910   2.318   6.242   1.420 -0.3931 -0.0773 -0.0029
 4035SOL     OW15911   1.209   0.718   1.231 -0.1394  0.0291 -0.1551
 4035SOL    HW215912   1.248   0.631   1.228  0.8009  0.4675 -2.0186
 4035SOL    HW315913   1.283   0.777   1.247 -0.3832  0.6692 -1.2606
 4035SOL    MW415914   1.224   0.714   1.233 -0.1457  0.5559 -0.6099
 4036SOL     OW15915   2.361   0.491   4.606  0.0400  0.4494 -0.7114
 4036SOL    HW215916   2.389   0.525   4.521  0.6582 -0.7167 -0.9934
 4036SOL    HW315917   2.270   0.520   4.615 -0.0097  0.6303 -1.7362
 4036SOL    MW415918   2.353   0.500   4.596 -0.1464 -0.0482 -0.8970
 4037SOL     OW15919   1.759   2.554   1.593 -0.5597 -0.0429 -0.1037
 4037SOL    HW215920   1.722   2.470   1.619 -0.8438 -0.6466 -2.2304
 4037SOL    HW315921   1.710   2.619   1.642 -1.9380 -1.0166 -0.1444
 4037SOL    MW415922   1.748   2.551   1.603 -0.2181  0.7223 -0.3364
 4038SOL     OW15923   1.531   1.614   6.255  0.3368  0.4329 -0.5283
 4038SOL    HW215924   1.457   1.637   6.199 -0.9518  0.0078  0.9186
 4038SOL    HW315925   1.522   1.520   6.270  1.0324  0.4171 -0.1353
 4038SOL    MW415926   1.520   1.605   6.250 -0.2695  0.5586 -0.4301
 4039SOL     OW15927   1.079   4.223   3.272  0.0647 -0.4723  0.1095
 4039SOL    HW215928   1.157   4.278   3.282  1.4515 -1.4833 -3.4322
 4039SOL    HW315929   1.096   4.146   3.327 -0.4037  1.0806  2.5413
 4039SOL    MW415930   1.092   4.220   3.281  0.4538  0.6563  0.2852
 4040SOL     OW15931   4.882   0.650   5.173 -0.5363 -0.3000 -0.6003
 4040SOL    HW215932   4.953   0.649   5.237 -0.7210 -3.0008 -0.3396
 4040SOL    HW315933   4.804   0.674   5.223 -0.3170 -0.2475 -0.2848
 4040SOL    MW415934   4.881   0.653   5.188 -0.1593 -0.6837  0.1837
 4041SOL     OW15935   5.471   2.153   5.368  0.1064 -0.1338  0.3971
 4041SOL    HW215936   5.448   2.241   5.338  0.0110 -0.2264  0.2026
 4041SOL    HW315937   5.425   2.144   5.452 -0.6955 -0.3743 -0.0597
 4041SOL    MW415938   5.462   2.163   5.375  0.4380  0.0732  0.1806
 4042SOL     OW15939   5.118   0.408   2.231 -0.0697 -0.3827  0.0113
 4042SOL    HW215940   5.213   0.391   2.226  0.0878 -0.8937  2.9430
 4042SOL    HW315941   5.082   0.360   2.156  1.8273 -1.7312 -0.1387
 4042SOL    MW415942   5.126   0.399   2.220  0.1507  0.1811  0.3844
 4043SOL     OW15943   1.536   4.772   2.823  0.0732  0.0031  0.6763
 4043SOL    HW215944   1.572   4.857   2.798 -0.4490  0.0104 -0.0943
 4043SOL    HW315945   1.449   4.770   2.783  0.9954 -1.8633 -1.5111
 4043SOL    MW415946   1.530   4.783   2.814  0.5754  0.3434  0.6977
 4044SOL     OW15947   0.447   0.868   4.101  0.3199 -0.0405  0.3567
 4044SOL    HW215948   0.410   0.855   4.014 -1.4001  0.0379  1.0319
 4044SOL    HW315949   0.526   0.814   4.102  0.4372  0.0638 -1.2821
 4044SOL    MW415950   0.453   0.859   4.090  0.2635 -0.3466  0.1100
 4045SOL     OW15951   2.122   4.664   2.957 -0.5934  0.1587  0.5903
 4045SOL    HW215952   2.032   4.697   2.959 -0.0865  1.6472  0.3536
 4045SOL    HW315953   2.176   4.743   2.956  0.7439 -0.7046  1.4346
 4045SOL    MW415954   2.117   4.679   2.957  0.4049 -0.1876  0.4057
 4046SOL     OW15955   5.552   3.467   1.001  0.4571 -0.1338 -0.2189
 4046SOL    HW215956   5.521   3.390   0.954  2.0827 -1.1824  0.3507
 4046SOL    HW315957   5.642   3.479   0.972  0.4772  1.1130  0.2709
 4046SOL    MW415958   5.560   3.459   0.991  0.2739 -0.2267 -0.0908
 4047SOL     OW15959   4.063   5.100   0.713 -0.1727  0.1695  0.2731
 4047SOL    HW215960   4.140   5.045   0.700  0.5724  0.9226  1.3197
 4047SOL    HW315961   4.000   5.044   0.757  0.1598 -0.1591  0.3331
 4047SOL    MW415962   4.065   5.086   0.717  0.1811 -0.4863 -0.3451
 4048SOL     OW15963   5.501   4.297   2.544  0.2046  0.6142 -0.4742
 4048SOL    HW215964   5.444   4.371   2.524 -0.0376 -0.0193 -2.4272
 4048SOL    HW315965   5.444   4.234   2.588 -0.8579 -0.2606 -2.9335
 4048SOL    MW415966   5.486   4.298   2.547  0.3015  0.4665  0.0287
 4049SOL     OW15967   1.642   5.657   4.192  0.1523  0.8164 -0.6163
 4049SOL    HW215968   1.582   5.723   4.226  0.0212  0.3582  0.0673
 4049SOL    HW315969   1.719   5.663   4.248 -0.0805  0.0246 -0.1922
 4049SOL    MW415970   1.644   5.666   4.204 -0.3826  0.2992  0.2713
 4050SOL     OW15971   2.790   2.027   3.621  0.4828 -0.7327 -0.1553
 4050SOL    HW215972   2.713   2.051   3.674  0.1169  0.7251 -1.2836
 4050SOL    HW315973   2.864   2.056   3.674  0.0827  1.9887 -0.9413
 4050SOL    MW415974   2.789   2.034   3.635 -0.1725  0.3946 -0.1862
 4051SOL     OW15975   0.063   4.389   4.887  0.2259 -0.2614  0.1610
 4051SOL    HW215976   0.093   4.329   4.956  0.1345 -2.2759 -1.4763
 4051SOL    HW315977   0.144   4.419   4.845  0.3967  2.1924  1.9876
 4051SOL    MW415978   0.078   4.385   4.891 -0.1309  0.3692 -0.2668
 4052SOL     OW15979   3.857   2.287   5.297 -0.5523 -0.4053  0.4591
 4052SOL    HW215980   3.840   2.207   5.248 -0.5141 -0.1843  0.0764
 4052SOL    HW315981   3.788   2.347   5.269  0.0610  0.0603 -0.1016
 4052SOL    MW415982   3.846   2.285   5.286 -0.4075  0.0919 -0.2785
 4053SOL     OW15983   6.094   2.466   0.553 -0.2283  0.1155  0.2077
 4053SOL    HW215984   6.011   2.501   0.585  0.3126  1.1143  0.5882
 4053SOL    HW315985   6.104   2.504   0.465  0.5973  1.4015  0.8144
 4053SOL    MW415986   6.085   2.476   0.545 -0.5222  0.1243  0.0558
 4054SOL     OW15987   3.018   2.639   1.384  0.0727  0.5315 -0.6005
 4054SOL    HW215988   2.981   2.589   1.311  0.4527  0.3777 -0.6893
 4054SOL    HW315989   3.111   2.615   1.385  0.8818  3.2017 -2.3022
 4054SOL    MW415990   3.025   2.629   1.375  0.2753 -0.1618  0.6148
 4055SOL     OW15991   1.178   1.574   6.286  1.4031  0.3950  0.0260
 4055SOL    HW215992   1.228   1.612   6.214  0.1994  0.8522 -0.5887
 4055SOL    HW315993   1.119   1.511   6.245  0.2081  1.1662  0.5023
 4055SOL    MW415994   1.177   1.571   6.271 -0.6271 -0.3684 -0.0486
 4056SOL     OW15995   3.165   4.768   2.820 -0.0807  0.4568  0.1259
 4056SOL    HW215996   3.126   4.787   2.905 -0.4068  1.0032 -0.1436
 4056SOL    HW315997   3.168   4.852   2.775  1.9673  0.5637  0.3640
 4056SOL    MW415998   3.160   4.782   2.825 -0.0337  0.3074 -0.6104
 4057SOL     OW15999   3.380   3.813   0.536 -0.3411  0.0086 -0.0290
 4057SOL    HW216000   3.416   3.845   0.453 -0.9647  0.6455 -0.0627
 4057SOL    HW316001   3.413   3.723   0.543 -0.7187 -0.2427 -1.2245
 4057SOL    MW416002   3.389   3.806   0.526 -0.0678 -0.2314 -0.1323
 4058SOL     OW16003   1.141   3.022   4.240 -0.2632 -0.0831 -0.3135
 4058SOL    HW216004   1.146   2.988   4.151  0.5207  0.7767 -0.6146
 4058SOL    HW316005   1.074   3.090   4.237  1.0177  1.2123 -0.7099
 4058SOL    MW416006   1.133   3.027   4.228 -0.3463  0.1289  0.4581
 4059SOL     OW16007   2.905   5.979   4.482  0.0923  0.3484 -0.0882
 4059SOL    HW216008   2.818   6.020   4.490  0.1334  0.7612 -1.5236
 4059SOL    HW316009   2.910   5.919   4.557 -0.9350  1.2128  0.7149
 4059SOL    MW416010   2.894   5.977   4.493 -0.0148  0.9425 -0.2665
 4060SOL     OW16011   1.563   3.675   5.229  0.0257  0.5867 -0.1069
 4060SOL    HW216012   1.635   3.727   5.265 -0.6852  1.3123  0.2846
 4060SOL    HW316013   1.566   3.593   5.277 -0.6430  1.3736  1.3261
 4060SOL    MW416014   1.573   3.671   5.240  0.5292 -0.3148 -0.0683
 4061SOL     OW16015   4.269   4.654   6.155 -0.0132 -0.2011  0.0993
 4061SOL    HW216016   4.201   4.591   6.131  0.2757 -0.3981 -0.1950
 4061SOL    HW316017   4.251   4.730   6.099  0.0990 -0.3104 -0.0867
 4061SOL    MW416018   4.257   4.656   6.145 -0.0855 -0.4514 -0.0498
 4062SOL     OW16019   6.281   0.420   0.152 -0.4376 -0.2653  0.1325
 4062SOL    HW216020   6.351   0.404   0.215 -0.0431 -1.2201 -0.5265
 4062SOL    HW316021   6.221   0.479   0.197 -0.1914 -0.9622  1.4168
 4062SOL    MW416022   6.282   0.426   0.166  0.4070  0.8282  0.0417
 4063SOL     OW16023   6.028   1.584   0.799  0.0233  0.1000 -0.0841
 4063SOL    HW216024   6.099   1.541   0.847 -0.3329  1.3303  1.6439
 4063SOL    HW316025   6.069   1.613   0.717  0.8358 -1.4235 -0.2566
 4063SOL    MW416026   6.043   1.582   0.794 -0.1716 -0.1461  0.5161
 4064SOL     OW16027   2.393   6.027   0.601 -0.5546  0.0361 -0.5620
 4064SOL    HW216028   2.481   6.015   0.637  0.4343  2.9613 -1.7538
 4064SOL    HW316029   2.354   5.939   0.603  1.6207 -1.0007  1.8455
 4064SOL    MW416030   2.399   6.013   0.606  0.0490  0.5307  0.2534
 4065SOL     OW16031   5.614   5.653   1.529  0.1197  0.3093 -0.3442
 4065SOL    HW216032   5.703   5.666   1.497 -0.1513  1.2740 -0.7573
 4065SOL    HW316033   5.609   5.560   1.549  1.3430  0.3095  0.0726
 4065SOL    MW416034   5.625   5.642   1.527 -0.1204 -0.5218 -0.2716
 4066SOL     OW16035   0.768   1.549   5.237  0.2069 -0.0904 -0.2226
 4066SOL    HW216036   0.722   1.599   5.305  2.4271  0.9905  0.6017
 4066SOL    HW316037   0.789   1.614   5.170 -0.7752 -0.8792 -1.3197
 4066SOL    MW416038   0.765   1.564   5.237 -0.2002 -0.5269  0.0611
 4067SOL     OW16039   2.265   5.043   0.371 -0.5568 -0.4196  0.6023
 4067SOL    HW216040   2.249   4.999   0.287 -0.5080  0.2774  0.2148
 4067SOL    HW316041   2.277   5.135   0.347  0.5705 -0.3777  1.2573
 4067SOL    MW416042   2.264   5.049   0.357 -0.0639 -0.3161 -0.3874
 4068SOL     OW16043   5.085   2.024   0.600 -0.0921  0.0590 -0.2982
 4068SOL    HW216044   5.076   1.931   0.582  0.9168 -0.3963  1.3303
 4068SOL    HW316045   5.026   2.040   0.674  1.5626  0.1319  1.0574
 4068SOL    MW416046   5.076   2.014   0.608 -0.4268  0.5405 -0.1270
 4069SOL     OW16047   4.975   4.111   4.708  0.9745  0.6407 -0.3340
 4069SOL    HW216048   5.036   4.037   4.713 -0.8276 -0.8553  0.6157
 4069SOL    HW316049   4.911   4.085   4.642 -1.9738 -0.5731  2.7190
 4069SOL    MW416050   4.975   4.098   4.700  0.3967 -0.2218  0.2838
 4070SOL     OW16051   4.426   3.700   2.303  0.2446  0.3487 -0.0609
 4070SOL    HW216052   4.434   3.704   2.208  0.5525  2.8276  0.0015
 4070SOL    HW316053   4.338   3.666   2.319  0.5440 -1.0483 -1.1786
 4070SOL    MW416054   4.415   3.696   2.293 -0.4537  0.2917 -0.0682
 4071SOL     OW16055   4.797   4.066   3.330  0.7593  0.0272 -0.1233
 4071SOL    HW216056   4.800   4.158   3.356  0.7567  0.0139 -0.0765
 4071SOL    HW316057   4.865   4.024   3.384  0.5936 -0.0427  0.0297
 4071SOL    MW416058   4.807   4.073   3.341 -0.4836 -0.4090 -0.4917
 4072SOL     OW16059   2.925   4.371   4.621  0.6903 -0.0875  0.2961
 4072SOL    HW216060   2.925   4.296   4.562  0.3272 -0.1534  0.3728
 4072SOL    HW316061   2.880   4.440   4.571 -1.2855 -0.6833  1.1293
 4072SOL    MW416062   2.919   4.370   4.607 -0.6334  0.1532 -1.0735
 4073SOL     OW16063   3.282   2.146   5.304 -0.4270 -0.4170  0.4662
 4073SOL    HW216064   3.209   2.091   5.331 -1.6206  0.8491 -0.0651
 4073SOL    HW316065   3.245   2.205   5.238  1.3908 -0.6216 -0.8305
 4073SOL    MW416066   3.268   2.147   5.299 -0.3336 -0.3452  0.2153
 4074SOL     OW16067   0.494   0.147   2.837 -0.2661 -0.3000  0.1967
 4074SOL    HW216068   0.518   0.055   2.834 -0.5176 -0.4426  1.5347
 4074SOL    HW316069   0.551   0.190   2.774 -0.2628 -1.3883 -0.5674
 4074SOL    MW416070   0.504   0.141   2.828  0.0526  0.1614 -0.1979
 4075SOL     OW16071   6.123   2.788   4.024 -0.1795  0.1874 -0.6267
 4075SOL    HW216072   6.115   2.779   3.929  0.4891  0.0493 -0.6715
 4075SOL    HW316073   6.212   2.760   4.044 -0.3059  0.2409  0.0415
 4075SOL    MW416074   6.133   2.783   4.014  0.0669  0.4988 -0.4388
 4076SOL     OW16075   2.697   3.832   2.768 -0.0179 -0.5814  0.4222
 4076SOL    HW216076   2.695   3.797   2.857  0.6059  0.6826  0.9559
 4076SOL    HW316077   2.685   3.926   2.778  1.8786 -0.1572 -0.6485
 4076SOL    MW416078   2.695   3.840   2.781 -0.4219  0.3043 -0.5038
 4077SOL     OW16079   5.130   0.830   0.583  0.0562 -0.0156  0.4299
 4077SOL    HW216080   5.094   0.907   0.540  1.5660 -0.5334 -1.9675
 4077SOL    HW316081   5.220   0.855   0.606  1.3116 -1.5499 -2.2719
 4077SOL    MW416082   5.137   0.843   0.580 -0.1985 -0.0425 -1.0298
 4078SOL     OW16083   4.925   4.550   6.327  0.3839 -0.3647  0.4824
 4078SOL    HW216084   4.968   4.584   6.406 -0.5629  0.7580  0.5432
 4078SOL    HW316085   4.929   4.623   6.265  3.3393 -1.9761 -1.4895
 4078SOL    MW416086   4.931   4.564   6.330  0.4868 -0.3010  0.0398
 4079SOL     OW16087   2.737   6.157   6.413  0.7226 -0.0822 -0.0879
 4079SOL    HW216088   2.725   6.148   6.318  1.0975 -0.5402 -0.0894
 4079SOL    HW316089   2.773   6.074   6.441 -0.7801 -0.5029  0.6924
 4079SOL    MW416090   2.740   6.145   6.404  0.2639  0.2872 -0.0865
 4080SOL     OW16091   4.652   6.199   1.341  0.6516 -0.1610  0.3198
 4080SOL    HW216092   4.703   6.150   1.276 -0.6962 -1.2504  0.0469
 4080SOL    HW316093   4.669   6.155   1.424 -1.1007 -1.6004 -0.0324
 4080SOL    MW416094   4.661   6.187   1.343 -0.2809  0.2506 -0.0448
 4081SOL     OW16095   3.581   1.349   3.858 -0.0511 -0.5618  0.4282
 4081SOL    HW216096   3.592   1.371   3.765  0.0368  0.9943  0.7741
 4081SOL    HW316097   3.509   1.404   3.887  1.4454  0.7662  1.8249
 4081SOL    MW416098   3.573   1.359   3.849  0.1528  0.4088  0.2910
 4082SOL     OW16099   4.205   3.747   4.788 -0.1886  0.0272 -0.3937
 4082SOL    HW216100   4.270   3.748   4.858 -0.1902 -0.7160 -0.3671
 4082SOL    HW316101   4.122   3.730   4.832 -0.3228  0.4589 -0.4811
 4082SOL    MW416102   4.203   3.745   4.803  0.1752 -0.3726 -0.3241
 4083SOL     OW16103   5.058   3.504   4.021  0.1179  0.9747  0.4806
 4083SOL    HW216104   5.011   3.574   3.975 -2.3131 -0.0374  1.2462
 4083SOL    HW316105   5.150   3.522   4.005 -0.5181  2.7279 -1.7090
 4083SOL    MW416106   5.064   3.516   4.012 -0.1880 -0.4702  0.2025
 4084SOL     OW16107   0.946   2.804   3.615  0.2134  0.0825 -0.2870
 4084SOL    HW216108   0.980   2.776   3.530  1.6662  1.7285 -0.3145
 4084SOL    HW316109   0.950   2.726   3.669 -0.1102 -0.8333 -1.5406
 4084SOL    MW416110   0.951   2.790   3.611  0.0891  0.0044 -0.8222
 4085SOL     OW16111   0.248   2.416   4.191  0.2219  0.1522  0.6113
 4085SOL    HW216112   0.192   2.481   4.235  0.1087 -0.7932  1.9274
 4085SOL    HW316113   0.310   2.388   4.259 -0.5128 -2.0135  0.4632
 4085SOL    MW416114   0.249   2.421   4.206 -0.0551  0.2555  0.2102
 4086SOL     OW16115   2.098   2.074   5.996 -0.0634  0.6776  0.0080
 4086SOL    HW216116   2.160   2.016   5.951  0.2157  1.5824 -0.8158
 4086SOL    HW316117   2.012   2.041   5.971  0.0769 -0.2082  0.6556
 4086SOL    MW416118   2.095   2.062   5.986 -0.8038 -0.0997 -0.0958
 4087SOL     OW16119   3.091   3.989   0.454 -0.4673 -0.4463  0.6363
 4087SOL    HW216120   3.097   3.917   0.391  0.8661  0.1541  0.0516
 4087SOL    HW316121   3.082   3.946   0.539 -0.6742 -1.2858  0.1974
 4087SOL    MW416122   3.091   3.974   0.456  0.4242 -0.5002  0.3350
 4088SOL     OW16123   2.989   5.993   4.211  0.2656  0.3534  0.3992
 4088SOL    HW216124   3.030   5.924   4.159  0.5770  1.2961 -0.6591
 4088SOL    HW316125   2.980   5.955   4.298 -1.6239 -1.8239 -0.6298
 4088SOL    MW416126   2.993   5.979   4.215 -0.2948 -0.4225 -0.3897
 4089SOL     OW16127   1.198   5.198   6.342 -0.7646 -0.0733  0.3787
 4089SOL    HW216128   1.191   5.106   6.316  0.5960 -0.0180 -0.2478
 4089SOL    HW316129   1.243   5.240   6.269 -3.4331  1.6153 -0.4662
 4089SOL    MW416130   1.203   5.191   6.329 -0.2895 -0.4621 -0.4044
 4090SOL     OW16131   6.049   1.143   2.263 -0.2982  0.1593 -0.5126
 4090SOL    HW216132   5.956   1.156   2.244 -0.4931 -0.0065  0.2719
 4090SOL    HW316133   6.074   1.220   2.315  0.2409  0.6518 -1.4661
 4090SOL    MW416134   6.040   1.155   2.267  0.3021 -0.4343 -0.2454
 4091SOL     OW16135   4.181   3.063   5.219 -0.2273  0.0244  0.2073
 4091SOL    HW216136   4.258   3.032   5.268  0.0919 -1.3840 -1.0817
 4091SOL    HW316137   4.196   3.031   5.130 -1.3349  1.5254 -0.5488
 4091SOL    MW416138   4.193   3.054   5.214  0.0527  0.1927  0.3599
 4092SOL     OW16139   3.400   2.941   4.920  0.3078 -0.6105  0.1012
 4092SOL    HW216140   3.341   2.971   4.989  1.0300  0.7204  0.1829
 4092SOL    HW316141   3.427   2.854   4.948 -1.4714 -1.1936  0.1294
 4092SOL    MW416142   3.396   2.934   4.933 -0.0937  0.3695 -0.1513
 4093SOL     OW16143   1.072   4.436   0.256  0.3080  0.3910  0.2938
 4093SOL    HW216144   1.030   4.520   0.239  1.0211  1.5920  3.7354
 4093SOL    HW316145   1.002   4.372   0.245 -0.1594  1.2618 -2.7983
 4093SOL    MW416146   1.057   4.439   0.252  0.0478  0.0578  0.5150
 4094SOL     OW16147   6.030   2.690   2.383 -0.8108  0.5118 -0.5959
 4094SOL    HW216148   6.090   2.618   2.360 -0.6311  0.8555 -1.2166
 4094SOL    HW316149   6.062   2.721   2.468 -1.8497 -1.1746  0.4816
 4094SOL    MW416150   6.042   2.684   2.391  0.1155 -0.3838  0.3797
 4095SOL     OW16151   0.433   4.897   0.424 -0.3183  0.0891  0.2256
 4095SOL    HW216152   0.453   4.973   0.370 -0.8280  0.0192 -0.0740
 4095SOL    HW316153   0.337   4.894   0.426 -0.3237  0.5256  1.7509
 4095SOL    MW416154   0.423   4.906   0.417  0.0733  0.1251 -0.0471
 4096SOL     OW16155   0.779   1.119   3.870 -0.8832 -1.0185 -0.5918
 4096SOL    HW216156   0.707   1.100   3.931 -0.0825  0.1130  0.7844
 4096SOL    HW316157   0.777   1.047   3.807 -2.1131 -1.9513  0.4495
 4096SOL    MW416158   0.770   1.107   3.870 -0.4044  0.0268  0.3154
 4097SOL     OW16159   1.233   3.981   1.681  0.2280  0.1528 -0.9379
 4097SOL    HW216160   1.154   4.027   1.710  0.3612 -0.5330  0.6158
 4097SOL    HW316161   1.205   3.891   1.668  0.8206 -0.1795  0.0035
 4097SOL    MW416162   1.219   3.975   1.683  0.2366  0.5924  0.0582
 4098SOL     OW16163   0.075   1.631   3.990 -0.1780  0.1016 -0.1995
 4098SOL    HW216164   0.073   1.567   3.919 -0.1000  1.1487 -1.1676
 4098SOL    HW316165   0.097   1.714   3.948 -1.3363  0.9935  0.8709
 4098SOL    MW416166   0.078   1.633   3.975 -0.1121  0.0046  0.0375
 4099SOL     OW16167   5.167   2.373   1.026  0.5591  0.5169 -0.1680
 4099SOL    HW216168   5.220   2.303   0.987  0.9379  0.7136 -0.0161
 4099SOL    HW316169   5.172   2.445   0.962 -1.8435 -0.3974 -1.5372
 4099SOL    MW416170   5.175   2.373   1.012 -0.2647 -0.0324  0.4076
 4100SOL     OW16171   0.827   1.993   0.451  0.2166  0.2549  0.5180
 4100SOL    HW216172   0.800   1.933   0.521 -0.4251  0.1514  0.1857
 4100SOL    HW316173   0.886   1.942   0.396 -0.1573 -0.0079  0.3593
 4100SOL    MW416174   0.831   1.979   0.453 -0.6592  0.0281  1.0649
 4101SOL     OW16175   2.213   3.785   4.442  0.0983 -0.1403  0.2288
 4101SOL    HW216176   2.181   3.701   4.411 -1.0171  0.0585  0.7972
 4101SOL    HW316177   2.206   3.843   4.366 -0.0206 -0.3307  0.0959
 4101SOL    MW416178   2.208   3.782   4.428  0.2792 -0.5189  0.2676
 4102SOL     OW16179   5.701   4.550   5.493  0.2053  0.3911 -0.5671
 4102SOL    HW216180   5.718   4.615   5.424 -1.0501  1.4113  0.0334
 4102SOL    HW316181   5.715   4.598   5.575 -0.2442 -0.2472 -0.1076
 4102SOL    MW416182   5.705   4.565   5.495  0.3860  0.5487  0.1812
 4103SOL     OW16183   1.464   3.436   3.699 -0.0287  0.1257  0.4196
 4103SOL    HW216184   1.418   3.519   3.686 -0.0087 -0.0183 -0.6410
 4103SOL    HW316185   1.488   3.407   3.611  2.6058  0.4645  0.9370
 4103SOL    MW416186   1.461   3.443   3.686  0.0330  0.0362 -0.6041
 4104SOL     OW16187   2.211   4.473   3.620 -0.5464  0.1098 -0.6911
 4104SOL    HW216188   2.123   4.433   3.619  0.0774 -1.5368  1.2809
 4104SOL    HW316189   2.221   4.504   3.710  0.3096  1.7700 -1.3267
 4104SOL    MW416190   2.201   4.471   3.632 -0.1298  0.3996  0.7939
 4105SOL     OW16191   2.373   1.672   3.140  0.6471  0.2758 -0.5211
 4105SOL    HW216192   2.286   1.675   3.102  0.7022  1.4614 -0.6061
 4105SOL    HW316193   2.377   1.749   3.198  1.2120 -0.4430  0.4345
 4105SOL    MW416194   2.362   1.683   3.143 -0.1879  0.4796 -0.1789
 4106SOL     OW16195   2.668   3.685   1.035 -0.4494 -0.4868 -1.0381
 4106SOL    HW216196   2.683   3.651   0.947 -1.6143  0.2792 -1.5541
 4106SOL    HW316197   2.636   3.609   1.084  0.2206 -0.9209 -1.2502
 4106SOL    MW416198   2.666   3.670   1.030  0.2326  0.0299  0.5648
 4107SOL     OW16199   0.600   4.775   0.675  0.3201  0.3960  0.0603
 4107SOL    HW216200   0.560   4.845   0.624  2.3605  1.8109  0.2897
 4107SOL    HW316201   0.613   4.704   0.612 -0.8453  0.5686 -0.4094
 4107SOL    MW416202   0.596   4.774   0.660  0.1908  0.4153 -0.3633
 4108SOL     OW16203   0.621   6.231   0.201 -0.0023  0.1650  0.2076
 4108SOL    HW216204   0.652   6.144   0.177  2.8111  1.0578  0.2470
 4108SOL    HW316205   0.590   6.222   0.291 -0.1780 -0.8604  0.0620
 4108SOL    MW416206   0.621   6.218   0.209 -0.1067 -0.3326  0.0415
 4109SOL     OW16207   2.591   1.708   4.159  0.5384  0.3900 -0.5335
 4109SOL    HW216208   2.656   1.768   4.196  0.3832  1.3613 -1.7751
 4109SOL    HW316209   2.567   1.651   4.232 -0.2036  2.5907  1.0625
 4109SOL    MW416210   2.596   1.708   4.174  0.3937  0.6709  0.2128
 4110SOL     OW16211   2.322   2.372   4.040 -0.1994 -0.4808 -0.0339
 4110SOL    HW216212   2.377   2.444   4.009  1.1275 -1.1752  0.5909
 4110SOL    HW316213   2.278   2.340   3.961 -2.7148  2.4802  0.0197
 4110SOL    MW416214   2.324   2.377   4.025 -0.0665 -0.8055 -0.2939
 4111SOL     OW16215   2.022   2.820   0.293 -0.1030  0.2697  0.3489
 4111SOL    HW216216   2.113   2.846   0.285 -0.0116  0.2660  1.2714
 4111SOL    HW316217   1.978   2.897   0.329 -0.5890  0.4773 -0.6454
 4111SOL    MW416218   2.028   2.834   0.296 -0.4374  0.1828  0.4727
 4112SOL     OW16219   4.229   4.307   2.212 -0.4306  0.2034  0.0254
 4112SOL    HW216220   4.155   4.246   2.213 -0.1945 -0.0835  0.1341
 4112SOL    HW316221   4.215   4.360   2.133 -1.4074  0.9726  0.6844
 4112SOL    MW416222   4.217   4.306   2.202  0.3791 -0.3288  0.0658
 4113SOL     OW16223   1.297   1.124   1.224 -0.5755 -0.0268 -0.1070
 4113SOL    HW216224   1.368   1.171   1.268 -0.1909 -0.3822 -0.3309
 4113SOL    HW316225   1.325   1.032   1.227 -1.4470 -0.2796  0.5770
 4113SOL    MW416226   1.310   1.118   1.230 -0.0286  0.0010 -0.4915
 4114SOL     OW16227   0.248   6.249   5.415  0.0496  0.1229  0.1404
 4114SOL    HW216228   0.211   6.268   5.329  2.2411 -2.4052 -1.5336
 4114SOL    HW316229   0.218   6.160   5.436  1.0110 -0.0031  1.1102
 4114SOL    MW416230   0.239   6.239   5.406  0.2099  0.0166 -0.0315
 4115SOL     OW16231   1.464   5.438   4.134  0.2937 -0.6306 -0.0942
 4115SOL    HW216232   1.416   5.485   4.066  0.6309 -0.4539 -0.2167
 4115SOL    HW316233   1.522   5.504   4.172  0.4676 -0.8482  0.0218
 4115SOL    MW416234   1.465   5.453   4.130  0.2169 -0.5712 -0.3099
 4116SOL     OW16235   1.506   5.886   4.254  0.2036 -0.4610 -0.4519
 4116SOL    HW216236   1.485   5.946   4.182  0.2911  0.8753  0.6035
 4116SOL    HW316237   1.564   5.937   4.311 -0.0379 -1.4199  0.6779
 4116SOL    MW416238   1.511   5.901   4.252 -0.3238 -0.3412 -0.2081
 4117SOL     OW16239   0.713   0.666   1.853  0.2311 -0.3472 -0.2469
 4117SOL    HW216240   0.633   0.715   1.871  0.8121  0.9790 -1.1807
 4117SOL    HW316241   0.702   0.635   1.763 -0.9796 -3.6979  0.8724
 4117SOL    MW416242   0.701   0.668   1.843 -0.1442 -0.1546 -0.0030
 4118SOL     OW16243   0.312   0.655   4.253  0.5760  0.0863  0.2956
 4118SOL    HW216244   0.310   0.697   4.340 -0.6353  0.8504 -0.0852
 4118SOL    HW316245   0.334   0.726   4.193 -1.3388  0.1789 -0.3418
 4118SOL    MW416246   0.315   0.670   4.257 -0.1273 -0.5937  0.4975
 4119SOL     OW16247   0.165   2.229   5.783 -0.1697 -0.4232  0.2204
 4119SOL    HW216248   0.070   2.230   5.790 -0.1390 -0.7087  0.6871
 4119SOL    HW316249   0.187   2.137   5.766  0.1867 -0.7926  2.4746
 4119SOL    MW416250   0.155   2.217   5.781 -0.4681  0.3061  0.4504
 4120SOL     OW16251   3.669   4.208   5.645 -0.0820  0.2546 -0.8739
 4120SOL    HW216252   3.651   4.187   5.553  0.3687 -2.0467 -0.5068
 4120SOL    HW316253   3.593   4.257   5.674 -0.6012  0.3177 -2.2608
 4120SOL    MW416254   3.657   4.212   5.637 -0.1795  0.3987  0.1550
 4121SOL     OW16255   1.028   5.806   2.723  0.1332 -0.3372 -0.2326
 4121SOL    HW216256   1.008   5.795   2.816  0.5551  0.1367 -0.0823
 4121SOL    HW316257   0.942   5.804   2.680 -0.2072  0.8434  0.3247
 4121SOL    MW416258   1.014   5.805   2.730 -0.3399  0.3995 -0.2200
 4122SOL     OW16259   3.007   3.156   3.217 -0.1821 -0.1556  0.3048
 4122SOL    HW216260   3.083   3.151   3.159  0.2882  0.1900  0.8821
 4122SOL    HW316261   3.033   3.216   3.287 -1.1976  0.4585  0.1886
 4122SOL    MW416262   3.020   3.163   3.219 -0.2558 -0.0815 -0.4731
 4123SOL     OW16263   3.812   1.363   6.033  0.0733  0.2081  0.5324
 4123SOL    HW216264   3.864   1.433   5.994  0.8185 -1.5069 -1.8372
 4123SOL    HW316265   3.750   1.338   5.964 -0.0754 -1.5207  1.2263
 4123SOL    MW416266   3.811   1.369   6.019 -0.5553  0.5771 -0.7521
 4124SOL     OW16267   5.732   6.338   1.656 -0.5250 -0.7403  0.2027
 4124SOL    HW216268   5.651   6.372   1.695 -0.0135  0.4306  0.2915
 4124SOL    HW316269   5.802   6.384   1.702  0.1405 -0.4021 -1.0961
 4124SOL    MW416270   5.731   6.349   1.667 -0.4572 -0.6195  0.0170
 4125SOL     OW16271   2.606   6.011   2.327 -0.0256  0.0791  0.4736
 4125SOL    HW216272   2.556   6.080   2.371  0.8564  1.2458 -0.2938
 4125SOL    HW316273   2.653   6.056   2.258  1.7615 -1.0531  0.8890
 4125SOL    MW416274   2.605   6.026   2.324 -0.4897 -0.2226 -0.0657
 4126SOL     OW16275   0.539   5.926   0.429 -0.0251  0.2204  0.0839
 4126SOL    HW216276   0.457   5.882   0.409  0.8069 -2.0535  1.2207
 4126SOL    HW316277   0.602   5.855   0.442  1.6422  1.7909  1.2349
 4126SOL    MW416278   0.537   5.911   0.428  0.1302 -0.3613  0.2141
 4127SOL     OW16279   1.676   5.411   3.792 -0.0656 -0.3657 -0.2451
 4127SOL    HW216280   1.658   5.334   3.846 -0.3390 -1.1901 -1.4664
 4127SOL    HW316281   1.657   5.382   3.702  1.5096  0.5829 -0.9328
 4127SOL    MW416282   1.671   5.397   3.787  0.6182 -0.8067 -0.3241
 4128SOL     OW16283   5.039   5.775   1.631 -0.0246 -0.3589 -0.3679
 4128SOL    HW216284   5.096   5.846   1.661 -1.4374  0.3534  0.8443
 4128SOL    HW316285   4.961   5.820   1.597 -0.1501 -1.2986 -1.3718
 4128SOL    MW416286   5.036   5.790   1.631  0.7574  0.3226 -0.4307
 4129SOL     OW16287   0.766   1.577   0.234  0.0891 -0.4559 -0.1787
 4129SOL    HW216288   0.836   1.643   0.234 -0.5420  0.2374  0.6196
 4129SOL    HW316289   0.685   1.629   0.232 -0.4246 -1.2036  0.5667
 4129SOL    MW416290   0.764   1.593   0.234 -0.4256  0.2646  0.6404
 4130SOL     OW16291   1.517   0.928   1.546 -0.2559  0.3140 -0.1050
 4130SOL    HW216292   1.570   0.991   1.594 -0.8127  0.0687  0.8648
 4130SOL    HW316293   1.426   0.951   1.567 -0.5083  0.0614 -0.8720
 4130SOL    MW416294   1.512   0.939   1.555 -0.1265 -0.8610 -0.4492
 4131SOL     OW16295   1.572   5.124   1.385  0.4053  0.6433 -0.1695
 4131SOL    HW216296   1.602   5.071   1.310 -0.2276  1.7947 -1.2756
 4131SOL    HW316297   1.645   5.183   1.403  0.5834  0.3223  0.1825
 4131SOL    MW416298   1.586   5.124   1.377 -0.6764 -0.0541 -0.2420
 4132SOL     OW16299   3.423   4.730   4.702 -0.4453 -0.8282  0.3081
 4132SOL    HW216300   3.498   4.700   4.649 -0.7072 -0.4164 -0.3166
 4132SOL    HW316301   3.454   4.724   4.792  0.8360  0.5928  0.0112
 4132SOL    MW416302   3.437   4.725   4.707  0.1124  0.9447  0.5900
 4133SOL     OW16303   1.900   4.600   5.884  0.1956  0.4313  0.0020
 4133SOL    HW216304   1.828   4.569   5.831 -0.3212  0.4153  0.7017
 4133SOL    HW316305   1.908   4.535   5.954  1.4860 -0.0598 -0.5677
 4133SOL    MW416306   1.892   4.587   5.887  0.0875 -0.0797 -0.0939
 4134SOL     OW16307   3.391   2.643   4.173 -0.2343  0.2354  0.4641
 4134SOL    HW216308   3.323   2.678   4.116 -0.5844  0.7183  1.1727
 4134SOL    HW316309   3.366   2.552   4.188 -0.6627  0.3839  0.6392
 4134SOL    MW416310   3.379   2.636   4.168 -0.3546 -0.2554 -0.2003
 4135SOL     OW16311   2.000   4.756   0.713 -0.3775  0.2707  0.3314
 4135SOL    HW216312   2.021   4.703   0.790  0.3560  2.4302  1.7473
 4135SOL    HW316313   1.909   4.735   0.692 -0.0251 -1.6862  0.6394
 4135SOL    MW416314   1.991   4.746   0.721  0.3879  0.1791  0.3220
 4136SOL     OW16315   2.324   0.452   3.451 -0.1134  0.1131  0.1032
 4136SOL    HW216316   2.391   0.484   3.512  0.9030 -1.5630 -0.0750
 4136SOL    HW316317   2.275   0.530   3.426 -0.5815  0.8804  3.0682
 4136SOL    MW416318   2.326   0.466   3.456 -0.3259 -0.0627  0.0339
 4137SOL     OW16319   2.862   3.854   1.183  0.5324 -0.0583 -0.4144
 4137SOL    HW216320   2.826   3.777   1.138  1.5723  0.6089 -2.5094
 4137SOL    HW316321   2.956   3.851   1.163  0.7375  1.2713  0.2637
 4137SOL    MW416322   2.870   3.843   1.174 -0.3952  0.7964 -1.0476
 4138SOL     OW16323   1.331   2.563   6.013  0.6919  0.0306  0.3419
 4138SOL    HW216324   1.292   2.546   6.100  1.0415 -1.4844  0.2242
 4138SOL    HW316325   1.341   2.658   6.010  0.1781  0.1583  1.7527
 4138SOL    MW416326   1.327   2.573   6.024 -0.4659 -0.2875 -0.0106
 4139SOL     OW16327   6.152   6.035   3.342  0.1772  0.0450 -0.3733
 4139SOL    HW216328   6.091   6.048   3.270 -1.7972  0.4833  1.2632
 4139SOL    HW316329   6.168   5.941   3.343 -0.6570 -0.1110 -0.7169
 4139SOL    MW416330   6.146   6.024   3.333 -0.3829  0.1107 -0.0113
 4140SOL     OW16331   4.106   2.791   1.053  0.1157 -0.2230 -0.6664
 4140SOL    HW216332   4.125   2.880   1.026  0.6080 -0.5800 -1.5142
 4140SOL    HW316333   4.095   2.797   1.148 -3.6671  1.4360 -1.0144
 4140SOL    MW416334   4.107   2.803   1.062 -0.1799 -0.2150  0.3594
 4141SOL     OW16335   0.453   1.506   4.638 -0.3697 -0.3643  0.1678
 4141SOL    HW216336   0.432   1.418   4.670  1.3099 -0.6240  0.6422
 4141SOL    HW316337   0.377   1.531   4.585 -1.9027 -1.1770  1.8420
 4141SOL    MW416338   0.440   1.498   4.635  0.5444 -0.5170 -0.2919
 4142SOL     OW16339   3.887   2.917   4.290 -0.3218 -0.1186  0.2740
 4142SOL    HW216340   3.874   2.923   4.195 -0.6993 -1.8475  0.1852
 4142SOL    HW316341   3.897   2.823   4.307 -0.9462  0.0965  2.0421
 4142SOL    MW416342   3.887   2.905   4.279 -0.2845 -0.1634 -0.4058
 4143SOL     OW16343   1.197   1.612   5.424 -0.3589  0.9230 -0.1470
 4143SOL    HW216344   1.258   1.592   5.354 -0.3377  0.7923 -0.0909
 4143SOL    HW316345   1.129   1.546   5.417 -0.4846  1.0566 -0.1974
 4143SOL    MW416346   1.196   1.601   5.414 -0.0486  0.1983 -0.2461
 4144SOL     OW16347   4.221   2.869   3.970  0.7072  0.0986 -0.0654
 4144SOL    HW216348   4.235   2.943   4.029  1.1003  1.2604 -1.5873
 4144SOL    HW316349   4.302   2.862   3.920 -0.1757  0.1179 -1.5377
 4144SOL    MW416350   4.234   2.878   3.971 -0.3210 -0.4383  0.1496
 4145SOL     OW16351   4.181   3.302   1.493  0.4790 -0.0055 -0.7615
 4145SOL    HW216352   4.179   3.335   1.582  0.2086  0.7920 -1.0563
 4145SOL    HW316353   4.096   3.259   1.481 -0.1028  1.1979 -1.1090
 4145SOL    MW416354   4.169   3.301   1.503 -0.7638  0.0759 -0.1520
 4146SOL     OW16355   2.514   4.693   3.075 -0.4383  0.4932 -0.4436
 4146SOL    HW216356   2.494   4.605   3.043  1.2184 -0.9751  2.1916
 4146SOL    HW316357   2.439   4.717   3.128 -0.3898  0.1334 -0.2056
 4146SOL    MW416358   2.502   4.685   3.078 -0.2384  0.3294  0.3312
 4147SOL     OW16359   2.017   1.198   3.832  0.1460 -0.0030  0.3084
 4147SOL    HW216360   1.938   1.212   3.780  1.2353 -1.4257 -1.8616
 4147SOL    HW316361   2.062   1.283   3.830  0.0146  0.0500 -0.8316
 4147SOL    MW416362   2.013   1.211   3.825 -0.5074 -0.5892  0.0869
 4148SOL     OW16363   0.614   2.320   4.109 -0.4720  0.3581  0.1439
 4148SOL    HW216364   0.625   2.256   4.180  3.0826  0.8186  0.1760
 4148SOL    HW316365   0.601   2.404   4.154  1.8361  0.6595  0.3635
 4148SOL    MW416366   0.613   2.323   4.124  0.5269  0.0822 -0.4401
 4149SOL     OW16367   0.941   2.700   2.917 -0.4042 -0.3177 -0.3573
 4149SOL    HW216368   0.863   2.753   2.936 -0.6789 -0.0318 -2.1050
 4149SOL    HW316369   0.926   2.666   2.828  1.8755  0.5552 -1.1471
 4149SOL    MW416370   0.929   2.703   2.908  0.1202 -0.0132  0.0040
 4150SOL     OW16371   4.714   5.427   0.131  0.1146  0.3347 -0.3688
 4150SOL    HW216372   4.633   5.388   0.164  1.1082  0.0034  1.8629
 4150SOL    HW316373   4.700   5.521   0.136  0.0549  0.2851  0.6083
 4150SOL    MW416374   4.702   5.434   0.136  0.0631 -0.5119 -0.0742
 4151SOL     OW16375   3.676   2.926   2.994  0.8598 -0.4825  0.2169
 4151SOL    HW216376   3.763   2.955   3.024  0.0120  0.5640  1.8130
 4151SOL    HW316377   3.673   2.834   3.019  1.8785 -0.8119 -0.7814
 4151SOL    MW416378   3.687   2.918   3.001 -0.7789 -0.5736  0.5068
 4152SOL     OW16379   5.533   4.321   1.065 -0.5273  0.0801 -0.8985
 4152SOL    HW216380   5.456   4.308   1.120 -0.5813  0.0069 -0.9914
 4152SOL    HW316381   5.605   4.282   1.115 -0.0313  2.5479  0.4613
 4152SOL    MW416382   5.533   4.314   1.079  0.1108 -0.1308 -0.5594
 4153SOL     OW16383   0.581   2.341   1.020 -0.4061  0.0984  0.1876
 4153SOL    HW216384   0.642   2.413   1.035  0.3964 -0.4738 -0.2093
 4153SOL    HW316385   0.619   2.293   0.947 -0.8279 -0.8356  0.5651
 4153SOL    MW416386   0.594   2.344   1.012 -0.0285  0.0657 -0.3667
 4154SOL     OW16387   6.147   5.044   3.812 -0.1337  0.3982 -0.1991
 4154SOL    HW216388   6.233   5.037   3.772  0.4938 -0.1892  1.1966
 4154SOL    HW316389   6.163   5.082   3.898 -1.3126  0.6272 -0.0637
 4154SOL    MW416390   6.160   5.048   3.818 -0.9848 -0.0643 -0.2476
 4155SOL     OW16391   2.096   2.148   0.242  0.4796  0.2924  0.1774
 4155SOL    HW216392   2.017   2.149   0.188  0.2664 -0.5163  0.4514
 4155SOL    HW316393   2.164   2.187   0.187 -0.0954  0.9301 -0.0835
 4155SOL    MW416394   2.095   2.153   0.228  0.0124  0.2293 -0.4921
 4156SOL     OW16395   5.594   3.635   2.899 -0.3609  0.4021 -0.4449
 4156SOL    HW216396   5.567   3.584   2.823 -0.3681  1.8655 -1.4737
 4156SOL    HW316397   5.683   3.605   2.917 -0.9622 -1.1700  0.0796
 4156SOL    MW416398   5.602   3.624   2.892 -0.9887  0.0439 -0.0179
 4157SOL     OW16399   2.136   5.836   1.835 -0.1806  0.3406 -0.2761
 4157SOL    HW216400   2.187   5.895   1.891  0.0992 -0.4543  0.3183
 4157SOL    HW316401   2.181   5.840   1.750  0.6834 -0.0942  0.1514
 4157SOL    MW416402   2.149   5.844   1.831  0.1344 -0.1002  0.4096
 4158SOL     OW16403   4.966   5.640   0.376  0.0522 -0.0673  0.0767
 4158SOL    HW216404   5.059   5.664   0.368  0.0252 -0.3996 -1.3727
 4158SOL    HW316405   4.960   5.552   0.340 -1.0772  0.5323 -1.2933
 4158SOL    MW416406   4.978   5.632   0.370 -0.8238 -0.5591 -0.3590
 4159SOL     OW16407   0.748   1.349   4.609  0.2214  0.0915  0.3210
 4159SOL    HW216408   0.771   1.434   4.647 -0.0226  0.7348 -0.9173
 4159SOL    HW316409   0.665   1.365   4.563  0.8419 -0.4638 -1.0508
 4159SOL    MW416410   0.740   1.362   4.608 -0.5634  0.1252  0.1649
 4160SOL     OW16411   3.323   6.009   2.700  0.4291 -0.0449 -0.2160
 4160SOL    HW216412   3.287   6.086   2.653  1.0358 -0.2657 -1.0688
 4160SOL    HW316413   3.413   6.003   2.670  0.7278 -0.4177  0.7364
 4160SOL    MW416414   3.330   6.019   2.690 -0.0315 -0.0211 -0.6013
 4161SOL     OW16415   3.403   5.486   4.510 -0.0021  0.3741 -0.0891
 4161SOL    HW216416   3.483   5.477   4.457  0.0831  2.0765 -0.2978
 4161SOL    HW316417   3.339   5.430   4.466  0.2005  1.3980 -1.7726
 4161SOL    MW416418   3.406   5.477   4.497  0.0382 -0.1257  0.5732
 4162SOL     OW16419   2.718   5.572   0.254 -0.2095 -0.1999 -0.3053
 4162SOL    HW216420   2.801   5.574   0.302 -0.4208 -0.3197  0.0684
 4162SOL    HW316421   2.742   5.591   0.164  0.6307 -3.1705 -0.7944
 4162SOL    MW416422   2.732   5.575   0.249  0.1276 -0.2600  0.5108
 4163SOL     OW16423   1.879   3.015   4.257  0.0269  0.1798 -0.0440
 4163SOL    HW216424   1.866   3.101   4.297  0.7208 -1.2337  3.5716
 4163SOL    HW316425   1.794   2.972   4.266 -0.6758  0.7167 -2.9072
 4163SOL    MW416426   1.866   3.021   4.263 -0.1868  0.4723 -0.1851
 4164SOL     OW16427   2.659   0.344   4.451  0.3462  0.1353  0.6464
 4164SOL    HW216428   2.726   0.293   4.497  0.7844  0.6181  0.5580
 4164SOL    HW316429   2.661   0.310   4.362 -0.2112 -0.5143  0.8711
 4164SOL    MW416430   2.668   0.333   4.446 -0.4137  0.2285  0.2463
 4165SOL     OW16431   5.424   4.691   3.683 -0.1947 -0.5724  0.1209
 4165SOL    HW216432   5.362   4.638   3.732 -2.5194  0.4449 -1.5514
 4165SOL    HW316433   5.391   4.780   3.690 -0.9427 -0.3935 -3.4827
 4165SOL    MW416434   5.411   4.696   3.690 -0.3070 -0.1730 -0.3710
 4166SOL     OW16435   5.331   5.191   4.765 -0.2005  0.0492 -0.4642
 4166SOL    HW216436   5.287   5.273   4.744  3.0327  1.9389 -0.5181
 4166SOL    HW316437   5.355   5.200   4.858 -0.9799 -1.4941 -0.0810
 4166SOL    MW416438   5.328   5.203   4.775  0.2389  0.0602  0.4105
 4167SOL     OW16439   5.106   2.371   1.911  0.8767  0.0965 -0.1805
 4167SOL    HW216440   5.089   2.453   1.865 -0.7032  0.4625  0.9646
 4167SOL    HW316441   5.163   2.395   1.984  0.4996  0.1756  0.0933
 4167SOL    MW416442   5.111   2.385   1.914  0.2944  0.2280  0.1432
 4168SOL     OW16443   2.498   4.649   1.345 -0.0975 -0.2114  0.1282
 4168SOL    HW216444   2.542   4.564   1.341  1.0590  0.3925 -0.4869
 4168SOL    HW316445   2.427   4.641   1.280  0.0192 -0.6960  0.0522
 4168SOL    MW416446   2.495   4.636   1.336  0.1375 -0.0318  0.2297
 4169SOL     OW16447   0.626   2.480   2.636  0.5090  0.0496 -0.6559
 4169SOL    HW216448   0.536   2.480   2.603 -0.5603  2.0453  1.8921
 4169SOL    HW316449   0.644   2.572   2.655  2.4986 -0.5120  0.4523
 4169SOL    MW416450   0.617   2.492   2.634  0.0669 -0.6838 -0.5477
 4170SOL     OW16451   3.409   6.239   2.883 -0.1585  0.9198  0.0605
 4170SOL    HW216452   3.394   6.163   2.826  0.4121 -0.3502  1.5256
 4170SOL    HW316453   3.328   6.246   2.934 -0.6810  2.0716 -0.8751
 4170SOL    MW416454   3.396   6.230   2.882  0.9690  0.1607  0.3033
 4171SOL     OW16455   6.120   0.818   5.374  0.3442  0.4570 -0.1466
 4171SOL    HW216456   6.102   0.751   5.440 -0.4035 -0.6375 -1.3932
 4171SOL    HW316457   6.072   0.788   5.296  2.3526  0.9100 -1.6517
 4171SOL    MW416458   6.111   0.805   5.372 -0.6609  0.3493 -0.0331
 4172SOL     OW16459   0.442   0.479   0.203 -0.3256  0.3376  0.0218
 4172SOL    HW216460   0.379   0.450   0.268  1.8318  0.2915  2.2579
 4172SOL    HW316461   0.472   0.565   0.235 -0.6846  1.3111 -2.0693
 4172SOL    MW416462   0.438   0.487   0.216  0.2289  0.3641 -0.2834
 4173SOL     OW16463   4.370   2.795   0.761 -0.3232 -0.4190 -0.6734
 4173SOL    HW216464   4.395   2.800   0.854 -1.2298  1.3426 -0.4790
 4173SOL    HW316465   4.305   2.725   0.758  0.3236 -1.0698 -0.1498
 4173SOL    MW416466   4.365   2.786   0.773 -0.1661 -0.1493 -0.2151
 4174SOL     OW16467   3.727   1.865   4.197 -0.2209 -0.1014  0.6662
 4174SOL    HW216468   3.815   1.858   4.161  0.4559  2.6544  1.5036
 4174SOL    HW316469   3.740   1.864   4.292 -0.9353  1.3185  0.8066
 4174SOL    MW416470   3.740   1.864   4.205 -0.1351  0.2094 -0.2254
 4175SOL     OW16471   6.353   0.969   3.356 -0.1228  0.4043  0.0259
 4175SOL    HW216472   6.396   1.022   3.424 -0.6460  0.9807 -0.0908
 4175SOL    HW316473   6.376   1.012   3.274 -2.5971  1.9826  0.0642
 4175SOL    MW416474   6.362   0.982   3.354  0.2795  0.8829 -0.7250
 4176SOL     OW16475   4.341   3.558   4.569  0.0735  0.2844 -0.6210
 4176SOL    HW216476   4.395   3.621   4.521  0.4650  0.9291  0.6241
 4176SOL    HW316477   4.289   3.611   4.628  0.8887 -0.5601  0.9376
 4176SOL    MW416478   4.342   3.573   4.570  0.0821  0.0630 -0.1634
 4177SOL     OW16479   3.239   6.281   3.959  0.1921  0.5770 -0.2839
 4177SOL    HW216480   3.233   6.240   4.046  0.2008  1.3793  0.1098
 4177SOL    HW316481   3.152   6.316   3.943  0.8326  2.7486  0.6040
 4177SOL    MW416482   3.227   6.280   3.969 -0.6991  0.0625 -0.0411
 4178SOL     OW16483   2.198   4.369   4.727  0.0154 -0.1836  0.7248
 4178SOL    HW216484   2.256   4.343   4.655  0.6249  0.6863  0.8785
 4178SOL    HW316485   2.257   4.408   4.792 -0.6379 -0.1600  1.3107
 4178SOL    MW416486   2.213   4.371   4.726 -0.2901  0.5167 -0.0445
 4179SOL     OW16487   2.707   4.056   3.050  0.4672 -0.2240 -0.4356
 4179SOL    HW216488   2.642   4.004   3.097 -0.5605  1.5216  0.1858
 4179SOL    HW316489   2.791   4.024   3.081 -0.1055 -1.8204 -0.4458
 4179SOL    MW416490   2.709   4.045   3.060 -0.7761 -0.6011 -0.2148
 4180SOL     OW16491   5.408   2.005   1.811  0.8333 -0.9763  0.0779
 4180SOL    HW216492   5.431   1.972   1.898 -0.2115 -1.5048  0.1667
 4180SOL    HW316493   5.390   2.098   1.825 -0.2729 -1.2567  0.6274
 4180SOL    MW416494   5.409   2.013   1.824  0.0191  0.3364  0.7116
 4181SOL     OW16495   5.736   1.650   5.717 -0.1716 -0.4218 -0.0972
 4181SOL    HW216496   5.812   1.709   5.717 -1.1148  0.8518 -0.7916
 4181SOL    HW316497   5.773   1.563   5.708  1.1838  0.2091 -0.9434
 4181SOL    MW416498   5.751   1.646   5.716  0.1950  0.2065  0.5540
 4182SOL     OW16499   3.275   6.192   1.383  0.1233 -0.0247  0.2162
 4182SOL    HW216500   3.297   6.195   1.477  0.1322 -0.7512  0.2435
 4182SOL    HW316501   3.357   6.168   1.340 -0.4285 -2.2149  0.2697
 4182SOL    MW416502   3.289   6.190   1.390 -0.1716 -0.5856 -0.3672
 4183SOL     OW16503   1.839   5.631   1.725  0.0355 -0.3463 -0.1328
 4183SOL    HW216504   1.906   5.609   1.790  1.1054  0.4678 -0.9327
 4183SOL    HW316505   1.789   5.550   1.714  0.7367 -0.9029  0.6464
 4183SOL    MW416506   1.841   5.618   1.732  0.4618  0.2667 -0.4757
 4184SOL     OW16507   3.077   2.261   3.295 -0.2064  0.3829 -0.1525
 4184SOL    HW216508   3.069   2.221   3.382 -1.7742 -0.4411 -0.6300
 4184SOL    HW316509   3.129   2.198   3.245  0.2000  0.5833  0.0062
 4184SOL    MW416510   3.083   2.247   3.300 -0.8397 -0.5872  0.1290
 4185SOL     OW16511   4.486   1.452   0.937  0.2884 -0.2920  0.3852
 4185SOL    HW216512   4.484   1.395   1.014 -0.5032  0.9190  1.3187
 4185SOL    HW316513   4.542   1.525   0.963 -1.0184  0.7814  0.3325
 4185SOL    MW416514   4.493   1.454   0.951 -0.4632  0.1319 -0.9477
 4186SOL     OW16515   2.453   2.827   3.196 -0.1679  0.0610  0.3560
 4186SOL    HW216516   2.525   2.778   3.236 -1.5087 -3.2804 -0.9859
 4186SOL    HW316517   2.490   2.914   3.178  2.6493 -0.6421  2.0984
 4186SOL    MW416518   2.467   2.832   3.199  0.2368  0.3274 -0.3878
 4187SOL     OW16519   5.148   3.509   4.942  0.2454  0.2007  0.2035
 4187SOL    HW216520   5.184   3.537   4.858 -0.4156  1.7920  0.4226
 4187SOL    HW316521   5.137   3.589   4.993  1.9940 -0.8402  2.4204
 4187SOL    MW416522   5.151   3.523   4.938 -0.2349  0.5884  0.0441
 4188SOL     OW16523   2.923   0.214   4.970  0.1506 -0.2921 -0.1349
 4188SOL    HW216524   2.831   0.193   4.953 -0.1876  0.0905  1.0780
 4188SOL    HW316525   2.925   0.309   4.978  0.4050 -0.3841  1.0862
 4188SOL    MW416526   2.911   0.224   4.969  0.0818 -0.7019 -0.2223
 4189SOL     OW16527   5.058   1.025   2.928 -0.1304  0.2278 -0.0884
 4189SOL    HW216528   5.147   1.051   2.952 -0.5034  0.6869  0.8246
 4189SOL    HW316529   5.003   1.098   2.957 -0.8305 -0.1354 -0.4814
 4189SOL    MW416530   5.063   1.038   2.935 -0.5420  0.3207  0.3480
 4190SOL     OW16531   3.851   3.471   3.520 -0.0307 -0.3066  0.5231
 4190SOL    HW216532   3.794   3.547   3.526  1.5858  0.9847  0.0996
 4190SOL    HW316533   3.817   3.411   3.587 -0.8281  1.1167  1.4430
 4190SOL    MW416534   3.839   3.473   3.530  0.4889 -0.2872  0.1096
 4191SOL     OW16535   2.276   4.973   2.131 -0.7088  0.4690  0.1230
 4191SOL    HW216536   2.207   5.026   2.091 -0.6419  0.5539  0.1179
 4191SOL    HW316537   2.231   4.895   2.163 -1.0056  1.0333  1.1237
 4191SOL    MW416538   2.261   4.970   2.130 -0.0872  0.1415  0.0047
 4192SOL     OW16539   0.123   4.758   2.239 -0.3136  0.2239 -0.4819
 4192SOL    HW216540   0.160   4.815   2.307  0.6259 -0.1033 -0.7058
 4192SOL    HW316541   0.037   4.796   2.221 -1.0729 -0.3531  1.7033
 4192SOL    MW416542   0.117   4.771   2.246  0.3634  0.5618  0.5956
 4193SOL     OW16543   4.034   3.543   2.968  0.1455 -0.0948 -0.1261
 4193SOL    HW216544   3.954   3.590   2.990  1.5636  2.1159  0.6710
 4193SOL    HW316545   4.066   3.510   3.052  0.4762 -0.2518 -0.3124
 4193SOL    MW416546   4.028   3.545   2.982 -0.1123 -0.3288  0.3237
 4194SOL     OW16547   1.357   3.763   6.330  0.2994 -0.4454 -0.4168
 4194SOL    HW216548   1.419   3.690   6.327  0.1663 -0.6993  1.5618
 4194SOL    HW316549   1.400   3.833   6.281  2.1156 -0.6591  0.7990
 4194SOL    MW416550   1.371   3.763   6.323  0.0656 -0.3855  0.6133
 4195SOL     OW16551   0.842   5.563   3.554 -0.4439 -0.2543 -0.1883
 4195SOL    HW216552   0.766   5.611   3.585 -0.1471 -1.2479  2.3295
 4195SOL    HW316553   0.917   5.615   3.585 -0.1395 -1.3089  0.9598
 4195SOL    MW416554   0.842   5.576   3.562 -0.2673  0.7333 -0.3776
 4196SOL     OW16555   2.123   4.748   5.786  0.5728  0.6882  0.2928
 4196SOL    HW216556   2.050   4.707   5.833  1.6563 -0.2597  1.1758
 4196SOL    HW316557   2.092   4.753   5.695 -0.2442 -0.5501  0.4747
 4196SOL    MW416558   2.109   4.743   5.780 -0.0674 -0.1985 -0.1603
 4197SOL     OW16559   2.099   1.813   0.951  0.2933  0.6274  0.2578
 4197SOL    HW216560   2.115   1.719   0.962 -2.0224 -0.0543 -1.5193
 4197SOL    HW316561   2.114   1.850   1.039 -0.3555 -1.6539  1.3990
 4197SOL    MW416562   2.103   1.806   0.964  0.5610  0.7376 -0.8955
 4198SOL     OW16563   5.544   4.719   3.984  0.2348 -0.4404 -0.3401
 4198SOL    HW216564   5.572   4.663   3.912 -0.7193  2.4065 -3.1561
 4198SOL    HW316565   5.452   4.694   3.999  0.5816 -1.3883  0.3301
 4198SOL    MW416566   5.535   4.708   3.977  0.0959  0.3934 -0.3923
 4199SOL     OW16567   3.393   2.923   5.703  0.2076  0.4005 -0.4244
 4199SOL    HW216568   3.481   2.890   5.687  0.9426  2.1008 -0.1756
 4199SOL    HW316569   3.370   2.889   5.789  0.7591  0.1717 -0.3610
 4199SOL    MW416570   3.402   2.914   5.712 -0.2541  0.2252 -0.4055
 4200SOL     OW16571   4.194   1.294   1.976 -0.2545  0.0254 -0.2217
 4200SOL    HW216572   4.196   1.200   1.958  0.6673 -0.1634  0.7679
 4200SOL    HW316573   4.140   1.302   2.055  0.7665  0.1581  0.4873
 4200SOL    MW416574   4.187   1.283   1.984 -0.8077 -0.0649 -0.3019
 4201SOL     OW16575   2.126   4.257   2.362  0.0456 -0.1963 -0.2573
 4201SOL    HW216576   2.048   4.255   2.417 -0.5004  1.0068 -0.9476
 4201SOL    HW316577   2.199   4.243   2.423 -0.5903  0.4408  0.6814
 4201SOL    MW416578   2.126   4.255   2.378  0.1200  0.3829 -0.2562
 4202SOL     OW16579   0.497   1.049   5.174 -0.3032  0.3692 -0.2387
 4202SOL    HW216580   0.478   1.135   5.135  1.4773  1.3985  1.0408
 4202SOL    HW316581   0.565   1.012   5.119 -0.0589  0.4031  0.0423
 4202SOL    MW416582   0.503   1.055   5.162  0.1809 -0.1614 -0.4753
 4203SOL     OW16583   3.837   2.393   1.068  0.5778 -0.2806 -0.5120
 4203SOL    HW216584   3.888   2.312   1.069  0.2584 -0.4864 -0.7887
 4203SOL    HW316585   3.748   2.366   1.087  0.4314 -0.0231 -0.8249
 4203SOL    MW416586   3.832   2.379   1.071 -0.1271 -0.3707  0.3075
 4204SOL     OW16587   4.806   1.960   6.222 -0.3796 -0.7959  0.2097
 4204SOL    HW216588   4.813   1.997   6.310  1.6622 -1.0957  0.2264
 4204SOL    HW316589   4.831   2.032   6.164  1.2194 -1.4169  0.0881
 4204SOL    MW416590   4.810   1.975   6.226 -0.1507 -0.1838  0.4884
 4205SOL     OW16591   3.480   5.246   0.208 -0.0908  0.4985 -0.3182
 4205SOL    HW216592   3.554   5.297   0.242 -1.6912  2.4076  0.4627
 4205SOL    HW316593   3.461   5.284   0.123 -2.4216  2.5965  0.9993
 4205SOL    MW416594   3.487   5.258   0.202 -0.3410  0.5971  0.3656
 4206SOL     OW16595   2.521   0.582   5.040 -0.2955 -0.0450  0.2543
 4206SOL    HW216596   2.443   0.628   5.010  0.9417  1.3517 -0.9490
 4206SOL    HW316597   2.498   0.552   5.128 -2.5375 -0.6162 -0.4423
 4206SOL    MW416598   2.507   0.584   5.048  0.3808  0.4601 -0.6393
 4207SOL     OW16599   1.965   3.750   3.665 -0.1216 -0.1987 -0.3055
 4207SOL    HW216600   1.891   3.707   3.707 -0.3606 -0.5586 -1.0721
 4207SOL    HW316601   1.926   3.802   3.595  0.2653  0.4027 -0.0782
 4207SOL    MW416602   1.950   3.751   3.661 -0.2764  0.2564  0.2047
 4208SOL     OW16603   0.990   6.103   0.456  0.2973 -0.1027  0.0297
 4208SOL    HW216604   0.976   6.039   0.386  1.2740  0.4203 -0.6764
 4208SOL    HW316605   1.058   6.064   0.511  0.1177 -0.1550  0.2129
 4208SOL    MW416606   0.997   6.090   0.454 -0.1332  0.7346 -0.0298
 4209SOL     OW16607   1.175   6.245   0.296  0.3907 -0.3725 -0.3498
 4209SOL    HW216608   1.158   6.209   0.209  0.0448 -0.8736 -0.0791
 4209SOL    HW316609   1.102   6.214   0.349  1.6470 -1.8369  0.6181
 4209SOL    MW416610   1.163   6.236   0.291  0.1117 -0.5765 -0.0041
 4210SOL     OW16611   2.139   2.564   2.981  0.2786  0.3265 -0.9129
 4210SOL    HW216612   2.157   2.567   2.887  0.8917 -0.7060 -0.8355
 4210SOL    HW316613   2.191   2.491   3.014 -1.8533 -0.9768 -0.1915
 4210SOL    MW416614   2.148   2.555   2.973  0.1785  0.0687  0.1645
 4211SOL     OW16615   6.000   3.216   0.609 -0.2993 -0.0385  0.8169
 4211SOL    HW216616   5.918   3.178   0.640 -1.1290  1.9291  1.1438
 4211SOL    HW316617   6.068   3.171   0.660 -1.4568  1.1543  3.5475
 4211SOL    MW416618   5.998   3.205   0.620 -0.2964  0.0723  0.0121
 4212SOL     OW16619   4.550   4.617   4.517  0.1079  0.0438 -0.1616
 4212SOL    HW216620   4.538   4.538   4.465  0.0853  0.1678 -0.3467
 4212SOL    HW316621   4.515   4.595   4.603  2.5075 -1.0507  0.6257
 4212SOL    MW416622   4.544   4.604   4.522 -0.2691 -0.0935 -0.1413
 4213SOL     OW16623   2.235   5.687   3.335 -0.0555 -0.6520 -0.0257
 4213SOL    HW216624   2.269   5.598   3.340  2.4658  0.2857  0.8786
 4213SOL    HW316625   2.277   5.725   3.258  1.3269  0.6487  1.3101
 4213SOL    MW416626   2.245   5.680   3.326  0.0525  0.5519  0.6000
 4214SOL     OW16627   5.266   3.454   6.371 -0.1681 -0.4691  0.0019
 4214SOL    HW216628   5.261   3.373   6.320 -0.8207 -0.9404  0.7988
 4214SOL    HW316629   5.183   3.499   6.352  0.0076 -0.1866 -0.1011
 4214SOL    MW416630   5.254   3.449   6.362 -0.0498  0.0621  0.2073
 4215SOL     OW16631   2.012   4.391   1.149 -0.4553  0.0285  0.2878
 4215SOL    HW216632   2.026   4.302   1.117  0.3803  0.7021 -1.3416
 4215SOL    HW316633   2.083   4.405   1.213  0.7896  0.2518 -1.0922
 4215SOL    MW416634   2.023   4.381   1.153 -0.6079 -0.2225 -0.0834
 4216SOL     OW16635   4.902   1.352   0.351  1.0769 -0.0628  0.6511
 4216SOL    HW216636   4.866   1.433   0.314 -0.8339 -0.7673  0.8784
 4216SOL    HW316637   4.882   1.357   0.445  2.1600 -0.1948  0.9021
 4216SOL    MW416638   4.895   1.363   0.359  0.7426  0.2596 -0.6526
 4217SOL     OW16639   2.347   4.253   3.665 -0.1309  0.4970  0.3402
 4217SOL    HW216640   2.314   4.343   3.670 -0.9254  0.2329  0.0158
 4217SOL    HW316641   2.348   4.233   3.572  1.5860  0.7112  0.2784
 4217SOL    MW416642   2.343   4.263   3.654  0.4519 -0.5416  0.1208
 4218SOL     OW16643   4.018   3.913   5.587 -0.3576  0.2923  0.4559
 4218SOL    HW216644   4.013   3.986   5.525 -1.6919  0.8082  1.1478
 4218SOL    HW316645   3.948   3.930   5.650  0.6696 -0.4711  1.8481
 4218SOL    MW416646   4.008   3.925   5.587  0.1424 -0.0996 -0.3087
 4219SOL     OW16647   5.819   3.116   5.994  0.1673  0.3607  0.2920
 4219SOL    HW216648   5.796   3.150   5.908 -1.8947 -1.6245 -0.0390
 4219SOL    HW316649   5.783   3.179   6.056  0.6179  1.1837 -0.2664
 4219SOL    MW416650   5.811   3.129   5.991 -0.3477 -0.8093 -0.3832
 4220SOL     OW16651   2.486   3.562   0.523  0.5241 -0.0787 -0.5631
 4220SOL    HW216652   2.397   3.572   0.559  0.5335 -0.0248 -0.5552
 4220SOL    HW316653   2.473   3.550   0.429  0.6165  1.9165 -0.8632
 4220SOL    MW416654   2.472   3.562   0.516 -0.1328  0.1077  0.1667
 4221SOL     OW16655   3.942   0.327   0.938 -0.1075  0.0800  0.3765
 4221SOL    HW216656   3.978   0.415   0.946 -0.2099  0.2804 -1.0917
 4221SOL    HW316657   3.926   0.300   1.028  1.0881  1.0689  0.9261
 4221SOL    MW416658   3.945   0.335   0.951  0.1592  0.0799 -0.5370
 4222SOL     OW16659   1.612   5.028   1.136  0.4719  0.1178 -0.1100
 4222SOL    HW216660   1.602   4.963   1.066  2.4565  1.9449 -2.2674
 4222SOL    HW316661   1.607   5.112   1.092  0.8519  1.4110  2.1417
 4222SOL    MW416662   1.610   5.030   1.121  0.4391 -0.2354 -0.3948
 4223SOL     OW16663   1.982   3.521   5.942 -0.2690 -0.2545 -0.7089
 4223SOL    HW216664   2.055   3.577   5.971 -1.3410  1.6025 -1.3812
 4223SOL    HW316665   1.986   3.445   6.000  1.3761  0.4297  0.1598
 4223SOL    MW416666   1.992   3.519   5.954  0.1643 -0.6538  0.2824
 4224SOL     OW16667   2.289   1.252   5.425 -1.4158 -0.0605 -0.2713
 4224SOL    HW216668   2.307   1.235   5.332 -1.2462  2.2529 -0.7120
 4224SOL    HW316669   2.365   1.217   5.471 -1.9504 -2.1431 -0.8478
 4224SOL    MW416670   2.301   1.245   5.419  0.1985  0.0743 -0.0682
 4225SOL     OW16671   2.693   4.244   5.532 -0.3230  0.8224  0.4481
 4225SOL    HW216672   2.634   4.244   5.457  0.8668  0.2234 -0.5113
 4225SOL    HW316673   2.647   4.191   5.598 -0.1994 -0.9770 -0.8417
 4225SOL    MW416674   2.679   4.237   5.531 -0.8334  0.0224 -0.7580
 4226SOL     OW16675   4.428   4.036   5.162  0.5671  0.1884 -0.0225
 4226SOL    HW216676   4.442   4.116   5.110 -1.0797 -0.3031 -1.3386
 4226SOL    HW316677   4.369   4.063   5.232  1.5951  0.5252  0.7393
 4226SOL    MW416678   4.422   4.050   5.164  0.2507 -0.3002 -0.1934
 4227SOL     OW16679   1.693   6.023   4.841 -0.1752 -0.1056  0.2345
 4227SOL    HW216680   1.618   5.968   4.821 -0.1918  0.0362 -0.0941
 4227SOL    HW316681   1.769   5.972   4.811 -0.2057  0.1400 -0.2591
 4227SOL    MW416682   1.693   6.009   4.834  0.1946 -0.0294 -0.5196
 4228SOL     OW16683   1.712   4.604   4.225  0.3136  0.1479 -0.7762
 4228SOL    HW216684   1.747   4.640   4.307  0.1040 -2.2154  0.4521
 4228SOL    HW316685   1.627   4.646   4.215  0.0521  0.0149  0.6023
 4228SOL    MW416686   1.706   4.614   4.235 -0.5467  0.0087  0.1123
 4229SOL     OW16687   1.556   4.351   0.701 -0.2339  0.3723  0.2857
 4229SOL    HW216688   1.526   4.440   0.722 -1.8411 -0.3003  1.0201
 4229SOL    HW316689   1.641   4.364   0.660 -1.0790  2.3424 -0.9985
 4229SOL    MW416690   1.563   4.365   0.699  0.1488 -0.6317 -0.8257
 4230SOL     OW16691   4.677   3.857   1.898  0.1859  0.1946  0.2682
 4230SOL    HW216692   4.647   3.939   1.858 -0.2818  0.1722  0.5622
 4230SOL    HW316693   4.738   3.820   1.835 -0.1108  0.4415 -0.1695
 4230SOL    MW416694   4.681   3.863   1.885 -0.0574  0.4383  0.0701
 4231SOL     OW16695   4.334   4.765   3.808 -0.2376 -0.6947  0.1118
 4231SOL    HW216696   4.409   4.779   3.866  0.3837 -1.0152 -0.5997
 4231SOL    HW316697   4.360   4.692   3.752  0.3541  1.3680 -2.4663
 4231SOL    MW416698   4.347   4.757   3.809 -0.7085 -0.2553 -0.6954
 4232SOL     OW16699   0.819   5.310   3.657  0.4511  0.2941  0.0279
 4232SOL    HW216700   0.831   5.386   3.601  0.7512 -0.3535 -0.7956
 4232SOL    HW316701   0.903   5.264   3.653  0.4721  0.2302  1.0029
 4232SOL    MW416702   0.832   5.314   3.649  0.2176 -0.8497  0.2605
 4233SOL     OW16703   2.943   1.290   2.069 -0.1401  0.1474  0.4679
 4233SOL    HW216704   2.896   1.313   2.149  0.9992  2.0518  0.6428
 4233SOL    HW316705   2.915   1.354   2.005 -0.1510 -0.6471 -0.3440
 4233SOL    MW416706   2.933   1.301   2.071 -0.0769 -0.0442  0.2314
 4234SOL     OW16707   3.991   0.170   1.659  0.2274 -0.3122  0.4555
 4234SOL    HW216708   3.908   0.147   1.701  0.1933  1.1978  1.2854
 4234SOL    HW316709   4.048   0.094   1.675  1.4617  1.3106  6.6473
 4234SOL    MW416710   3.988   0.157   1.667 -0.0044  0.1019  0.2611
 4235SOL     OW16711   2.901   2.018   0.305 -0.1801  0.4773  0.5542
 4235SOL    HW216712   2.829   2.042   0.363  0.3194  2.2046  0.5233
 4235SOL    HW316713   2.862   2.011   0.218 -0.4263  0.7330  0.6448
 4235SOL    MW416714   2.886   2.020   0.301  0.4734 -0.0565  0.1303
 4236SOL     OW16715   2.407   3.273   6.165 -0.3961 -0.0064  0.4555
 4236SOL    HW216716   2.381   3.183   6.144 -1.2722  0.5260 -0.8091
 4236SOL    HW316717   2.459   3.301   6.090  0.3835  0.3618  1.1103
 4236SOL    MW416718   2.411   3.264   6.153  0.3588 -0.4134 -0.5426
 4237SOL     OW16719   6.116   4.010   2.247 -0.2430 -0.0407  0.0258
 4237SOL    HW216720   6.182   3.990   2.314 -1.1935 -0.8380  0.7608
 4237SOL    HW316721   6.073   4.090   2.279  0.6461  0.7512 -0.6918
 4237SOL    MW416722   6.119   4.018   2.260  0.2846 -0.6879 -0.8809
 4238SOL     OW16723   6.317   2.394   5.739  0.7719  0.0320  0.2010
 4238SOL    HW216724   6.335   2.458   5.808 -0.6298  0.8033 -0.1109
 4238SOL    HW316725   6.321   2.446   5.658 -0.4341 -0.2481 -0.0509
 4238SOL    MW416726   6.320   2.409   5.737 -0.4231  0.6212 -0.0752
 4239SOL     OW16727   6.113   0.742   5.877 -0.6521  0.1446  0.2683
 4239SOL    HW216728   6.049   0.734   5.806 -0.8503  0.6605  0.3815
 4239SOL    HW316729   6.152   0.655   5.884  0.6728  0.5119 -1.6925
 4239SOL    MW416730   6.110   0.730   5.868 -0.5630  0.0129 -0.4896
 4240SOL     OW16731   4.289   0.329   5.588  1.1096  1.3010  0.1610
 4240SOL    HW216732   4.241   0.386   5.528  0.2139 -1.6258 -2.1177
 4240SOL    HW316733   4.373   0.315   5.545  2.0213  2.1861  1.5615
 4240SOL    MW416734   4.294   0.335   5.575 -0.0935  0.1778 -0.1604
 4241SOL     OW16735   1.740   2.745   1.820 -0.0915  0.2012 -0.2202
 4241SOL    HW216736   1.747   2.667   1.875 -0.0622  0.0352 -0.4575
 4241SOL    HW316737   1.713   2.815   1.880  1.6319  0.4160  0.3535
 4241SOL    MW416738   1.737   2.744   1.835  0.0050 -0.1975  0.0806
 4242SOL     OW16739   4.258   3.290   3.054 -0.0322 -0.0206 -0.5068
 4242SOL    HW216740   4.335   3.327   3.097  0.7544 -2.4523  0.3091
 4242SOL    HW316741   4.187   3.306   3.116  0.2398  0.2572 -0.2624
 4242SOL    MW416742   4.258   3.297   3.068  0.0468 -0.9896 -0.2217
 4243SOL     OW16743   2.205   2.085   2.737 -0.0657 -0.2208 -0.4616
 4243SOL    HW216744   2.116   2.068   2.769  0.0066 -1.9499 -1.0658
 4243SOL    HW316745   2.245   1.999   2.732  0.9799  0.3141 -2.1424
 4243SOL    MW416746   2.199   2.071   2.741 -0.0855  0.2958 -0.2210
 4244SOL     OW16747   1.149   4.835   0.094 -0.1981 -0.2615  0.2050
 4244SOL    HW216748   1.156   4.867   0.004  0.8383 -0.0410  0.3498
 4244SOL    HW316749   1.078   4.772   0.092 -0.4177  0.0010 -0.6948
 4244SOL    MW416750   1.141   4.831   0.082 -0.5721  0.9929 -0.3543
 4245SOL     OW16751   2.412   2.519   2.038 -0.0586  0.5077 -0.1718
 4245SOL    HW216752   2.418   2.522   2.134 -2.4102  2.1560  0.0331
 4245SOL    HW316753   2.424   2.610   2.011 -1.1664  0.3668 -1.2559
 4245SOL    MW416754   2.414   2.532   2.047  0.8017 -0.3011 -0.0483
 4246SOL     OW16755   1.029   0.768   6.049 -0.2305  0.3249 -0.3088
 4246SOL    HW216756   0.940   0.751   6.017 -0.1050 -0.6130 -0.2024
 4246SOL    HW316757   1.017   0.788   6.142 -0.4895  1.9803 -0.6687
 4246SOL    MW416758   1.015   0.768   6.057 -0.6756 -0.2492  0.2321
 4247SOL     OW16759   4.009   6.105   0.482  0.0642 -0.2923  0.2866
 4247SOL    HW216760   4.034   6.060   0.401  0.3860  0.1694  0.1263
 4247SOL    HW316761   3.935   6.160   0.457  0.6608  0.4498  0.1158
 4247SOL    MW416762   4.003   6.106   0.468  0.3067  0.0249  0.0968
 4248SOL     OW16763   0.026   6.152   5.225 -0.4888 -0.1114 -0.4972
 4248SOL    HW216764  -0.064   6.158   5.255 -0.3344  1.4599 -0.2693
 4248SOL    HW316765   0.022   6.171   5.131 -0.5591 -1.6231 -0.8271
 4248SOL    MW416766   0.014   6.155   5.217  0.0100  0.2246  0.0817
 4249SOL     OW16767   2.384   0.210   2.070 -0.0982 -0.1193 -0.5436
 4249SOL    HW216768   2.306   0.246   2.028 -0.6538 -2.4394 -1.6464
 4249SOL    HW316769   2.351   0.152   2.137  0.7336  0.0815  0.0580
 4249SOL    MW416770   2.370   0.207   2.073 -0.2415 -0.0862 -0.2547
 4250SOL     OW16771   0.458   0.358   1.548  0.3863  0.2120 -0.2887
 4250SOL    HW216772   0.553   0.352   1.550  0.3908 -0.0579 -0.9519
 4250SOL    HW316773   0.436   0.371   1.456 -0.2825 -1.2081 -0.3643
 4250SOL    MW416774   0.467   0.359   1.536 -0.3337  0.0299  0.0626
 4251SOL     OW16775   0.875   4.558   2.999 -0.4923 -0.4685 -0.0951
 4251SOL    HW216776   0.811   4.489   2.982 -0.3067 -1.6477  3.2275
 4251SOL    HW316777   0.952   4.511   3.033  0.3738  1.2235  0.3956
 4251SOL    MW416778   0.877   4.543   3.002 -0.1212  0.1659  0.5823
 4252SOL     OW16779   5.438   3.005   0.559 -0.2872  0.2572  0.6598
 4252SOL    HW216780   5.439   3.083   0.504  0.1005 -0.9119 -1.0467
 4252SOL    HW316781   5.349   3.001   0.593 -0.8581  0.4077 -0.7679
 4252SOL    MW416782   5.427   3.015   0.556 -0.1875 -0.0255  0.1293
 4253SOL     OW16783   5.807   6.099   4.659  0.1117  0.0727 -0.0712
 4253SOL    HW216784   5.802   6.004   4.667  0.3997 -0.2611 -2.7986
 4253SOL    HW316785   5.897   6.121   4.686  0.0365 -0.3998  0.5923
 4253SOL    MW416786   5.818   6.089   4.664 -0.9232 -0.0353  0.0287
 4254SOL     OW16787   1.950   3.126   5.011 -0.9056 -0.4540  0.7082
 4254SOL    HW216788   1.878   3.099   4.954 -1.0539  0.4666  0.4331
 4254SOL    HW316789   2.029   3.092   4.968 -1.1399 -1.2059  0.8540
 4254SOL    MW416790   1.951   3.118   4.998 -0.3015  0.1132  0.2037
 4255SOL     OW16791   2.423   2.930   5.202  0.0222  0.2522 -0.2344
 4255SOL    HW216792   2.404   2.843   5.167 -1.6007  0.7390 -0.6342
 4255SOL    HW316793   2.399   2.990   5.132  3.2425  1.0176 -0.8545
 4255SOL    MW416794   2.417   2.926   5.188 -0.4403  0.7414  0.5167
 4256SOL     OW16795   0.288   2.038   2.284  0.5807  0.3236  0.1523
 4256SOL    HW216796   0.296   2.072   2.374  0.6483 -0.8832  0.6158
 4256SOL    HW316797   0.379   2.029   2.254  0.5912 -0.2806  0.3573
 4256SOL    MW416798   0.301   2.041   2.292  0.1763  0.0234  0.2999
 4257SOL     OW16799   0.311   5.837   6.201  0.2364 -0.2189  0.0837
 4257SOL    HW216800   0.311   5.924   6.241  0.8333  0.2337 -0.8353
 4257SOL    HW316801   0.360   5.850   6.119 -0.7331 -1.1464 -0.6602
 4257SOL    MW416802   0.318   5.850   6.195 -1.0440  0.1124 -0.1781
 4258SOL     OW16803   0.858   3.017   3.972  0.6634  0.2550  0.0877
 4258SOL    HW216804   0.915   3.083   3.933  0.7666  0.7962  1.1052
 4258SOL    HW316805   0.769   3.050   3.955  0.7033  0.3981  0.1520
 4258SOL    MW416806   0.854   3.030   3.965 -0.3157  0.0579 -0.2331
 4259SOL     OW16807   1.409   4.860   3.062  0.2550  0.5051  0.2140
 4259SOL    HW216808   1.405   4.955   3.046 -0.3570  0.5967  0.8296
 4259SOL    HW316809   1.457   4.825   2.988  1.2035  1.3977  0.3919
 4259SOL    MW416810   1.415   4.868   3.050 -0.9452 -0.0416 -0.0282
 4260SOL     OW16811   3.391   5.190   5.725  0.4231  0.7886  0.2585
 4260SOL    HW216812   3.481   5.222   5.724  0.2981  1.1337 -1.0484
 4260SOL    HW316813   3.375   5.167   5.817  1.4996  1.6782  0.6873
 4260SOL    MW416814   3.400   5.191   5.737 -0.5318  0.3600 -0.4262
 4261SOL     OW16815   3.214   1.320   2.161 -0.1256  0.3019 -0.3516
 4261SOL    HW216816   3.194   1.391   2.223 -0.4018 -0.1536  0.0933
 4261SOL    HW316817   3.128   1.289   2.132 -0.0211 -0.2415 -0.0880
 4261SOL    MW416818   3.200   1.325   2.166 -0.1303  0.0062  0.5063
 4262SOL     OW16819   2.235   3.762   1.927 -0.2617 -0.1164 -0.0739
 4262SOL    HW216820   2.206   3.762   2.018  0.7287 -0.6804  0.2581
 4262SOL    HW316821   2.159   3.792   1.877 -0.7288  0.4701  0.9617
 4262SOL    MW416822   2.221   3.766   1.932 -0.1196  0.1463 -0.0362
 4263SOL     OW16823   4.005   0.275   0.066 -0.0825  0.5082  0.0764
 4263SOL    HW216824   3.964   0.224   0.136  0.7720 -1.1554 -0.5880
 4263SOL    HW316825   4.063   0.336   0.111  0.2302 -0.3336  0.8403
 4263SOL    MW416826   4.007   0.277   0.081 -0.8278  0.6398  0.0359
 4264SOL     OW16827   2.487   1.709   2.841 -0.2253  0.9917 -0.1630
 4264SOL    HW216828   2.464   1.686   2.931 -1.0471  0.4432 -0.5002
 4264SOL    HW316829   2.403   1.711   2.794  0.3698 -1.5210 -1.5323
 4264SOL    MW416830   2.473   1.706   2.847 -0.2788 -0.2372  0.3397
 4265SOL     OW16831   2.539   5.505   4.566 -0.5497 -0.4826  0.7549
 4265SOL    HW216832   2.592   5.433   4.531  0.8900  0.3253  1.1862
 4265SOL    HW316833   2.474   5.522   4.498  1.7830  0.6610 -1.3652
 4265SOL    MW416834   2.538   5.498   4.552  0.3754 -0.7575  0.3361
 4266SOL     OW16835   6.142   2.026   4.543 -0.1635 -0.4149  0.4140
 4266SOL    HW216836   6.182   1.975   4.473  0.8467  0.6000  0.2192
 4266SOL    HW316837   6.066   1.975   4.570  1.6824 -2.8376  1.3588
 4266SOL    MW416838   6.137   2.013   4.537  0.1026  0.3407 -0.2093
 4267SOL     OW16839   0.620   3.199   0.083 -0.2955  0.2517  0.0063
 4267SOL    HW216840   0.602   3.166   0.171 -0.4684 -0.3737 -0.2644
 4267SOL    HW316841   0.546   3.257   0.064  0.4851  1.6052  0.8626
 4267SOL    MW416842   0.608   3.202   0.092 -0.6144  0.1480 -0.1689
 4268SOL     OW16843   2.844   1.137   1.827 -0.6450 -0.1751 -0.1393
 4268SOL    HW216844   2.923   1.190   1.821 -0.4165 -0.4317  0.5439
 4268SOL    HW316845   2.778   1.188   1.780  0.0635 -0.2546 -1.2792
 4268SOL    MW416846   2.846   1.151   1.820  0.0815 -0.0327  0.5741
 4269SOL     OW16847   2.939   1.587   4.999  0.0540 -0.1593 -0.1627
 4269SOL    HW216848   2.915   1.678   4.982  0.5611 -0.0145 -0.1243
 4269SOL    HW316849   2.856   1.540   5.004 -0.2057  0.2932 -0.2383
 4269SOL    MW416850   2.925   1.593   4.997  0.6167 -0.3596 -0.1472
 4270SOL     OW16851   3.800   5.926   1.328  0.1290 -0.3539 -0.0368
 4270SOL    HW216852   3.778   6.014   1.298  1.7158  0.2063  0.3222
 4270SOL    HW316853   3.832   5.881   1.250 -0.0592 -0.3920 -0.0914
 4270SOL    MW416854   3.801   5.932   1.314 -0.0305 -0.4365 -0.3537
 4271SOL     OW16855   0.284   4.452   3.459 -0.3245 -0.0457  0.2455
 4271SOL    HW216856   0.374   4.435   3.431 -0.4662 -0.1005 -0.1832
 4271SOL    HW316857   0.233   4.380   3.422 -0.4827 -0.2594  0.8605
 4271SOL    MW416858   0.289   4.440   3.451 -0.1594  0.0044 -0.7061
 4272SOL     OW16859   3.949   2.608   1.806  0.6383 -0.0908 -0.2396
 4272SOL    HW216860   3.984   2.690   1.842  0.1118 -0.1841  0.4923
 4272SOL    HW316861   3.977   2.541   1.868  0.6363 -0.4071 -0.5743
 4272SOL    MW416862   3.958   2.610   1.819 -0.2715 -0.3617 -0.4243
 4273SOL     OW16863   2.691   2.695   3.559  0.2146 -0.4329 -0.3641
 4273SOL    HW216864   2.712   2.680   3.651  0.9512  3.4647  0.2723
 4273SOL    HW316865   2.595   2.695   3.556  0.1876 -0.4999  0.4180
 4273SOL    MW416866   2.681   2.693   3.571 -0.2047 -0.5072 -0.2217
 4274SOL     OW16867   1.764   4.145   2.740 -0.0363 -0.1465  0.1783
 4274SOL    HW216868   1.698   4.119   2.675 -0.1689  0.8709 -0.1173
 4274SOL    HW316869   1.735   4.232   2.769  0.3322 -0.3534  1.1843
 4274SOL    MW416870   1.751   4.153   2.735 -0.0062  0.2764 -0.2477
 4275SOL     OW16871   2.820   6.073   5.906 -0.4367  0.0615  0.0850
 4275SOL    HW216872   2.757   6.092   5.837  1.2099  1.9911 -0.9801
 4275SOL    HW316873   2.810   5.979   5.922 -1.7086 -0.1946 -1.8948
 4275SOL    MW416874   2.810   6.063   5.899 -0.1405 -0.4169 -0.6222
 4276SOL     OW16875   2.520   2.354   1.035 -0.4360  0.4587  0.4757
 4276SOL    HW216876   2.496   2.357   0.943  0.3510  0.5480  0.2681
 4276SOL    HW316877   2.463   2.287   1.073 -2.5147  2.1360  0.4673
 4276SOL    MW416878   2.509   2.345   1.028 -0.3060 -0.3302  0.2568
 4277SOL     OW16879   2.484   2.282   4.392  0.0601 -0.0676  0.0697
 4277SOL    HW216880   2.503   2.278   4.299 -1.5235 -0.1628 -0.2773
 4277SOL    HW316881   2.388   2.286   4.397  0.1520  2.0438  1.6043
 4277SOL    MW416882   2.474   2.282   4.381 -0.1578  0.2717 -0.1574
 4278SOL     OW16883   0.644   5.302   1.424 -0.2749 -0.2356  0.3932
 4278SOL    HW216884   0.739   5.300   1.439 -0.1511 -1.7487 -0.4369
 4278SOL    HW316885   0.610   5.228   1.473 -1.0647  0.3358  0.7369
 4278SOL    MW416886   0.652   5.292   1.432 -0.1905 -0.1320  0.0608
 4279SOL     OW16887   0.361   4.919   5.276 -0.2326  1.0108 -0.0044
 4279SOL    HW216888   0.378   4.956   5.190  0.5533 -1.6255 -1.0762
 4279SOL    HW316889   0.268   4.899   5.277 -0.1075  0.3715 -0.5565
 4279SOL    MW416890   0.351   4.921   5.265  0.1803  0.0614  0.8749
 4280SOL     OW16891   5.787   0.909   0.554  0.0536  0.0802 -0.8412
 4280SOL    HW216892   5.814   0.827   0.597 -1.5939 -0.8472 -1.4783
 4280SOL    HW316893   5.778   0.885   0.462  0.0320  1.1225 -1.1165
 4280SOL    MW416894   5.789   0.895   0.547  0.5887  0.1841  0.3097
 4281SOL     OW16895   0.663   1.303   0.281  0.2246 -0.4530  0.1733
 4281SOL    HW216896   0.686   1.395   0.289 -1.6650  0.0086  0.9167
 4281SOL    HW316897   0.588   1.302   0.221  0.0607 -1.4612  0.3723
 4281SOL    MW416898   0.656   1.315   0.274 -0.4820  0.0729  0.2136
 4282SOL     OW16899   3.105   1.023   1.386  0.6361 -0.5838 -0.0853
 4282SOL    HW216900   3.035   1.022   1.451  0.3844  2.1692 -0.1736
 4282SOL    HW316901   3.071   0.971   1.313 -1.4245  0.7552 -0.1665
 4282SOL    MW416902   3.091   1.016   1.385 -0.6069  0.2512 -0.3697
 4283SOL     OW16903   3.713   3.446   4.448 -0.1936  0.3558  0.4311
 4283SOL    HW216904   3.627   3.415   4.478 -0.0553 -0.6122 -0.1421
 4283SOL    HW316905   3.736   3.387   4.377  0.4973  1.2479 -0.1037
 4283SOL    MW416906   3.704   3.434   4.443 -0.4708 -1.1427 -0.3340
 4284SOL     OW16907   0.733   3.217   2.068  0.4784 -0.1744 -0.3297
 4284SOL    HW216908   0.725   3.133   2.023 -2.1556 -0.3788  0.3757
 4284SOL    HW316909   0.646   3.233   2.104  1.3288  2.1379  0.8613
 4284SOL    MW416910   0.720   3.208   2.067 -0.0519 -0.4403  0.3501
 4285SOL     OW16911   2.713   3.272   6.062  0.0612 -0.4983 -0.6511
 4285SOL    HW216912   2.685   3.214   6.133 -1.2051  1.2429  0.3335
 4285SOL    HW316913   2.754   3.213   5.998  0.1405 -2.2728  0.9480
 4285SOL    MW416914   2.715   3.257   6.063 -0.2686  0.3423 -0.0327
 4286SOL     OW16915   5.685   3.473   4.696  1.2186 -0.1081  0.0819
 4286SOL    HW216916   5.635   3.449   4.617 -0.7643 -2.4953  1.8954
 4286SOL    HW316917   5.776   3.474   4.667  0.9383 -4.2683 -1.7095
 4286SOL    MW416918   5.691   3.470   4.682  0.3605 -0.2459 -0.4324
 4287SOL     OW16919   2.842   1.343   4.561 -0.0778 -0.3857 -0.0897
 4287SOL    HW216920   2.747   1.341   4.574  0.0646  0.2630  1.2496
 4287SOL    HW316921   2.862   1.261   4.517 -1.2815 -0.4523 -0.5444
 4287SOL    MW416922   2.832   1.332   4.557 -0.2204 -0.1799  0.3142
 4288SOL     OW16923   2.989   2.312   6.065  0.3790  0.1146  0.7676
 4288SOL    HW216924   3.081   2.287   6.075  0.8061  1.5921  0.7530
 4288SOL    HW316925   2.948   2.237   6.022  2.1315  0.4072 -1.5969
 4288SOL    MW416926   2.996   2.299   6.060  0.3760  0.1738  0.3382
 4289SOL     OW16927   0.970   2.062   5.558 -0.0274 -0.3650  0.3076
 4289SOL    HW216928   1.006   2.020   5.480 -2.7106  0.3955 -1.4651
 4289SOL    HW316929   1.031   2.134   5.576  0.8506 -0.8015 -0.8167
 4289SOL    MW416930   0.983   2.066   5.550 -0.0939  0.5863 -0.1955
 4290SOL     OW16931   3.548   1.039   1.989  0.4568 -0.0723  0.6980
 4290SOL    HW216932   3.553   1.126   1.950 -1.9161  0.0513  0.5545
 4290SOL    HW316933   3.508   0.984   1.922 -0.4742 -0.6499  1.6900
 4290SOL    MW416934   3.543   1.043   1.975 -0.2381  0.1567 -0.4141
 4291SOL     OW16935   6.320   4.775   3.574  0.1178 -0.5463  0.0329
 4291SOL    HW216936   6.258   4.771   3.647  0.5384 -0.5935  0.3949
 4291SOL    HW316937   6.377   4.849   3.595  1.3405 -1.6166  0.6728
 4291SOL    MW416938   6.320   4.784   3.587 -0.0071 -0.1073 -0.0208
 4292SOL     OW16939   5.039   0.694   2.549 -0.1353 -0.1602 -0.5070
 4292SOL    HW216940   4.984   0.702   2.471 -0.2757  0.5943 -0.3466
 4292SOL    HW316941   5.128   0.684   2.515 -0.4611 -2.7615 -0.7942
 4292SOL    MW416942   5.044   0.694   2.534  0.4152  0.0146 -0.3266
 4293SOL     OW16943   3.439   5.609   4.885  0.1273  0.6011  0.1578
 4293SOL    HW216944   3.447   5.701   4.860 -0.1518 -0.1542 -3.2763
 4293SOL    HW316945   3.359   5.579   4.842 -0.0051 -1.1668  1.5039
 4293SOL    MW416946   3.430   5.617   4.876 -0.1055  0.0253 -0.0122
 4294SOL     OW16947   4.235   0.125   3.180  0.2987 -0.2207 -0.1200
 4294SOL    HW216948   4.213   0.181   3.254  0.6498 -0.0102 -0.1746
 4294SOL    HW316949   4.303   0.066   3.213 -1.2581 -1.7943  0.4602
 4294SOL    MW416950   4.241   0.124   3.194  0.7400 -0.0162 -0.3873
 4295SOL     OW16951   1.296   3.346   1.441  0.4137 -0.5214 -0.6476
 4295SOL    HW216952   1.238   3.272   1.456  1.1973 -0.7141  1.7359
 4295SOL    HW316953   1.357   3.316   1.373 -1.0193 -0.9840 -1.7719
 4295SOL    MW416954   1.297   3.333   1.434 -0.1697 -0.1171  0.0926
 4296SOL     OW16955   2.861   3.776   4.083 -0.0241 -0.3791  0.7952
 4296SOL    HW216956   2.856   3.807   3.992  1.4813  1.2403  1.2042
 4296SOL    HW316957   2.881   3.855   4.134  1.8393 -1.6650  2.1970
 4296SOL    MW416958   2.863   3.791   4.077  0.2404  0.2115 -0.5726
 4297SOL     OW16959   4.235   4.998   3.692  0.4300  0.1188 -0.2551
 4297SOL    HW216960   4.314   5.023   3.644 -0.6710  1.6852 -1.3263
 4297SOL    HW316961   4.250   4.906   3.716  1.4875 -0.4148 -2.6702
 4297SOL    MW416962   4.248   4.989   3.689  0.3237  0.1902 -0.5051
 4298SOL     OW16963   1.624   0.102   4.491 -0.0819 -0.7195  0.3837
 4298SOL    HW216964   1.603   0.159   4.565  1.1002 -0.1188  0.2851
 4298SOL    HW316965   1.542   0.057   4.471 -0.6018 -0.3412  1.5791
 4298SOL    MW416966   1.610   0.104   4.498 -0.1516  0.0114 -0.0387
 4299SOL     OW16967   1.331   1.416   0.649  0.1755  0.2881  0.4396
 4299SOL    HW216968   1.409   1.471   0.643  1.4808 -1.4891  0.6689
 4299SOL    HW316969   1.263   1.469   0.606  1.1628  2.3768  1.2759
 4299SOL    MW416970   1.332   1.431   0.642  1.1204 -0.0313 -0.5289
 4300SOL     OW16971   1.328   4.296   0.875  0.3300  0.2336 -0.0602
 4300SOL    HW216972   1.327   4.382   0.916  0.6297  0.2776 -0.1461
 4300SOL    HW316973   1.410   4.292   0.827  1.6682 -1.1576  2.1606
 4300SOL    MW416974   1.338   4.307   0.874 -0.3438  0.4906 -0.0721
 4301SOL     OW16975   6.058   6.294   0.418 -0.1465  0.1038  0.5146
 4301SOL    HW216976   6.009   6.289   0.336  0.6214 -0.0300  0.0549
 4301SOL    HW316977   6.050   6.206   0.456  2.1174 -0.8216 -0.9759
 4301SOL    MW416978   6.050   6.282   0.412  0.1707  0.2923 -0.7423
 4302SOL     OW16979   4.861   1.192   0.112  0.3133  0.6259 -0.2599
 4302SOL    HW216980   4.855   1.231   0.199  1.0596  0.6190 -0.1983
 4302SOL    HW316981   4.891   1.263   0.056 -0.0009  0.5857 -0.4856
 4302SOL    MW416982   4.864   1.207   0.116  0.2641  0.4596 -0.5345
 4303SOL     OW16983   1.311   1.889   0.483  0.2025 -0.1457 -0.0645
 4303SOL    HW216984   1.347   1.876   0.571  1.5477 -0.2578 -0.6066
 4303SOL    HW316985   1.264   1.973   0.488  1.3695  0.4951  0.4381
 4303SOL    MW416986   1.309   1.898   0.495 -0.4402 -0.6720  0.3419
 4304SOL     OW16987   4.593   0.532   5.969 -0.1040 -0.3171 -0.6099
 4304SOL    HW216988   4.660   0.488   5.916 -0.9948 -0.9391 -1.2643
 4304SOL    HW316989   4.553   0.461   6.020  0.7353  0.2724  0.9409
 4304SOL    MW416990   4.597   0.517   5.969  0.0327  0.2265 -0.2081
 4305SOL     OW16991   3.661   1.929   4.830 -0.2300 -0.1863 -0.3798
 4305SOL    HW216992   3.659   1.868   4.904  2.4057  0.1004  0.0115
 4305SOL    HW316993   3.651   2.016   4.870 -0.5682 -0.1355 -0.5700
 4305SOL    MW416994   3.659   1.932   4.845  0.1220 -0.3509  0.3341
 4306SOL     OW16995   2.104   4.663   4.982  0.1850 -0.0113 -0.2115
 4306SOL    HW216996   2.112   4.593   5.046  2.4473  0.4232  0.0430
 4306SOL    HW316997   2.187   4.711   4.987 -0.1107  0.8766 -2.4890
 4306SOL    MW416998   2.116   4.660   4.991  0.3122  0.0779 -0.1771
 4307SOL     OW16999   2.503   4.126   2.559 -0.1188 -0.5049 -0.1292
 4307SOL    HW217000   2.429   4.183   2.581 -0.5071 -1.1579  0.2695
 4307SOL    HW317001   2.567   4.143   2.628 -0.0333 -0.2007 -0.2791
 4307SOL    MW417002   2.502   4.136   2.571 -0.6460 -0.2792  0.3296
 4308SOL     OW17003   0.500   5.123   0.278  0.0217 -0.3708 -0.3849
 4308SOL    HW217004   0.586   5.164   0.290  0.3793 -1.5626  1.5540
 4308SOL    HW317005   0.502   5.089   0.189  1.6755 -0.5743 -0.3055
 4308SOL    MW417006   0.511   5.124   0.268  0.0254  0.3248 -0.6472
 4309SOL     OW17007   1.258   5.826   1.880  0.1410 -0.3102 -0.6316
 4309SOL    HW217008   1.299   5.759   1.826  1.2230  0.5471 -0.9212
 4309SOL    HW317009   1.330   5.883   1.906 -0.7395  0.7320 -0.3823
 4309SOL    MW417010   1.273   5.825   1.877 -0.7758  0.4536 -0.3221
 4310SOL     OW17011   1.286   1.127   1.872 -0.3952 -0.2727  0.5612
 4310SOL    HW217012   1.378   1.146   1.853 -0.2435 -1.9291 -0.5729
 4310SOL    HW317013   1.250   1.210   1.902  0.8695  1.0541 -1.3761
 4310SOL    MW417014   1.294   1.140   1.873 -0.2519  0.5828  0.1772
 4311SOL     OW17015   2.424   4.436   2.342  0.1636 -0.0163 -0.0757
 4311SOL    HW217016   2.341   4.460   2.383  0.3950  2.2424 -0.7784
 4311SOL    HW317017   2.482   4.510   2.360  1.4627 -0.7328 -1.1222
 4311SOL    MW417018   2.421   4.449   2.350 -0.4640  0.0870 -0.4027
 4312SOL     OW17019   6.323   2.271   5.467 -0.2230 -0.3215 -0.3319
 4312SOL    HW217020   6.354   2.204   5.527 -1.1394 -0.1340  0.3701
 4312SOL    HW317021   6.396   2.284   5.406 -0.2866 -2.4568 -0.9423
 4312SOL    MW417022   6.337   2.264   5.467  0.6593  0.2395 -0.6450
 4313SOL     OW17023   0.468   6.210   1.520  0.2836  0.6466 -0.3135
 4313SOL    HW217024   0.445   6.173   1.435 -0.0964  0.2002 -0.0226
 4313SOL    HW317025   0.559   6.239   1.510 -0.2556  2.0919 -1.3650
 4313SOL    MW417026   0.477   6.209   1.507 -0.4190  0.5131  0.3646
 4314SOL     OW17027   6.105   2.276   3.064  0.4342 -0.4041 -0.1124
 4314SOL    HW217028   6.125   2.272   3.158  1.1372 -0.6048 -0.2626
 4314SOL    HW317029   6.137   2.361   3.036 -1.3177  0.3792  0.1552
 4314SOL    MW417030   6.112   2.287   3.073 -0.1316  0.8522 -0.2650
 4315SOL     OW17031   3.372   1.847   5.086  0.2827 -0.1682  0.5605
 4315SOL    HW217032   3.428   1.784   5.041  0.2911 -0.7432  1.3481
 4315SOL    HW317033   3.432   1.914   5.117  0.0999  1.1111 -1.6296
 4315SOL    MW417034   3.387   1.848   5.084 -0.0438 -0.4220  0.4880
 4316SOL     OW17035   3.564   5.599   1.701 -0.0217 -0.3984  0.0877
 4316SOL    HW217036   3.494   5.613   1.765 -1.0151  0.3289 -1.1190
 4316SOL    HW317037   3.546   5.512   1.665 -1.1539  0.3176 -1.1809
 4316SOL    MW417038   3.552   5.590   1.705 -0.0221 -0.0895  0.1746
 4317SOL     OW17039   4.157   3.059   0.332  0.4868 -0.0881 -0.1389
 4317SOL    HW217040   4.128   3.147   0.309  1.1630  0.4676  1.0555
 4317SOL    HW317041   4.188   3.022   0.250 -1.6009  0.0453 -1.0604
 4317SOL    MW417042   4.157   3.066   0.318 -0.4181 -0.6509  0.4040
 4318SOL     OW17043   1.851   4.253   5.914 -0.0563 -0.0281  0.7044
 4318SOL    HW217044   1.852   4.160   5.936 -1.2476  0.0573  1.2092
 4318SOL    HW317045   1.942   4.274   5.893  0.3176 -1.1860  1.0949
 4318SOL    MW417046   1.863   4.244   5.914  0.0953  0.5734  0.3748
 4319SOL     OW17047   5.519   0.779   5.581  0.4545 -0.0399  0.7689
 4319SOL    HW217048   5.539   0.736   5.498  1.2984 -0.0686  0.9766
 4319SOL    HW317049   5.585   0.746   5.641 -0.6149 -0.6125  1.6582
 4319SOL    MW417050   5.531   0.769   5.578  0.0415 -0.3127  0.4630
 4320SOL     OW17051   5.263   5.340   2.393 -0.0362 -0.6681  0.0871
 4320SOL    HW217052   5.289   5.249   2.378  0.6998 -0.3236 -0.7934
 4320SOL    HW317053   5.262   5.380   2.306  1.0845  0.5401  0.5962
 4320SOL    MW417054   5.266   5.333   2.380  0.2716  0.2024  0.0059
 4321SOL     OW17055   0.773   0.608   1.583 -0.1289 -0.1640  0.4076
 4321SOL    HW217056   0.810   0.545   1.521  1.0267 -0.3055  1.2314
 4321SOL    HW317057   0.770   0.690   1.534  1.1651 -0.1780  0.2657
 4321SOL    MW417058   0.777   0.610   1.568  0.3464 -0.3114  0.0176
 4322SOL     OW17059   6.060   4.032   0.018 -0.6010 -0.6297 -0.3918
 4322SOL    HW217060   6.129   3.991   0.070 -1.7417 -0.5538  1.2492
 4322SOL    HW317061   6.106   4.086  -0.045  0.8490 -1.2034  0.1415
 4322SOL    MW417062   6.075   4.034   0.017 -0.4395 -0.1410 -0.5242
 4323SOL     OW17063   3.464   0.805   6.083 -0.5875 -0.0736  0.3609
 4323SOL    HW217064   3.445   0.876   6.145 -1.2974  0.4664 -0.4506
 4323SOL    HW317065   3.384   0.754   6.080 -0.6835  0.1077 -0.3623
 4323SOL    MW417066   3.451   0.808   6.090 -0.6347 -0.6675  0.6318
 4324SOL     OW17067   3.213   3.624   5.691  0.5300  0.2560  0.2177
 4324SOL    HW217068   3.242   3.714   5.707 -0.0492  1.0619 -2.7751
 4324SOL    HW317069   3.126   3.633   5.653  0.4334 -1.5843 -0.0810
 4324SOL    MW417070   3.205   3.637   5.688  0.1477 -0.1515  0.7133
 4325SOL     OW17071   2.940   4.154   2.671 -0.2012 -0.4798  0.3519
 4325SOL    HW217072   2.894   4.189   2.596 -0.7430 -0.4780  0.6797
 4325SOL    HW317073   2.987   4.229   2.708 -1.5574 -0.0131  1.2011
 4325SOL    MW417074   2.940   4.168   2.666  0.7112  0.0338  0.1692
 4326SOL     OW17075   1.048   1.864   1.746  0.1966  0.6766  0.6793
 4326SOL    HW217076   1.011   1.939   1.793  0.1186 -0.1425  1.9908
 4326SOL    HW317077   1.045   1.793   1.810  1.7392 -0.0474 -0.0094
 4326SOL    MW417078   1.042   1.865   1.761 -0.3609  0.1399  0.2882
 4327SOL     OW17079   5.604   5.583   6.237  0.4220  0.1288  0.1027
 4327SOL    HW217080   5.619   5.584   6.331 -0.5445 -0.3148  0.2685
 4327SOL    HW317081   5.509   5.573   6.227  0.5980 -0.7526 -0.9213
 4327SOL    MW417082   5.593   5.582   6.248 -0.7297  0.7555 -0.1976
 4328SOL     OW17083   1.285   5.172   3.896 -0.3536 -0.4219 -0.0983
 4328SOL    HW217084   1.254   5.087   3.864 -2.8974 -0.2355  1.5416
 4328SOL    HW317085   1.284   5.164   3.991  2.6040  0.4643  0.1070
 4328SOL    MW417086   1.280   5.160   3.904  0.2751 -0.3581 -0.4158
 4329SOL     OW17087   5.100   2.560   5.394  0.3052 -0.1924  0.2761
 4329SOL    HW217088   5.051   2.642   5.399  2.5215  1.2020  0.8746
 4329SOL    HW317089   5.152   2.568   5.313 -1.0367 -2.0197 -0.8341
 4329SOL    MW417090   5.101   2.572   5.384 -0.6553  0.1216 -0.4088
 4330SOL     OW17091   5.501   3.795   1.758  0.0280 -0.2361 -0.4670
 4330SOL    HW217092   5.503   3.891   1.750 -0.4942 -0.1557  0.2289
 4330SOL    HW317093   5.408   3.773   1.750  0.3476 -0.9555 -3.2428
 4330SOL    MW417094   5.489   3.805   1.756  0.1007  0.5719 -0.0959
 4331SOL     OW17095   4.673   1.813   5.796 -0.5361  0.2880  0.0278
 4331SOL    HW217096   4.638   1.883   5.742  0.5047 -1.2474 -2.8289
 4331SOL    HW317097   4.669   1.735   5.741  1.6299 -1.1958  1.7798
 4331SOL    MW417098   4.668   1.812   5.782  0.5315 -0.4422  0.8376
 4332SOL     OW17099   5.294   5.385   3.054  0.1307 -0.1321 -0.0709
 4332SOL    HW217100   5.264   5.363   2.966  1.7138 -0.8747 -0.4637
 4332SOL    HW317101   5.218   5.426   3.096 -1.4609 -2.0915 -0.8954
 4332SOL    MW417102   5.280   5.388   3.048  0.3689  0.4954  0.1613
 4333SOL     OW17103   4.420   4.855   4.453 -0.3363  0.7071  0.0519
 4333SOL    HW217104   4.346   4.874   4.510 -0.8823  0.0533 -0.4116
 4333SOL    HW317105   4.450   4.768   4.481  1.0779  1.4897  1.0732
 4333SOL    MW417106   4.414   4.846   4.464  0.9711  1.1684 -0.2691
 4334SOL     OW17107   0.325   6.412   1.838 -0.8651  0.2468 -0.5312
 4334SOL    HW217108   0.336   6.500   1.872 -1.6262  0.7281 -1.4650
 4334SOL    HW317109   0.340   6.421   1.744  0.8805 -0.9724 -0.4222
 4334SOL    MW417110   0.328   6.425   1.830  0.2122 -0.0633 -0.1750
 4335SOL     OW17111   4.460   1.322   2.463 -0.2138  0.0712  0.1214
 4335SOL    HW217112   4.447   1.358   2.551  3.0911  0.9754  0.3698
 4335SOL    HW317113   4.534   1.262   2.473 -0.4630 -0.5993 -1.8511
 4335SOL    MW417114   4.468   1.319   2.476 -0.2304  0.3232  0.1236
 4336SOL     OW17115   3.745   3.174   1.187 -0.4080 -0.3824 -0.2846
 4336SOL    HW217116   3.706   3.157   1.102  0.6177 -0.8809 -0.6695
 4336SOL    HW317117   3.838   3.158   1.175 -0.0823  0.6547  0.6414
 4336SOL    MW417118   3.752   3.170   1.174 -0.7406 -0.4244  0.3221
 4337SOL     OW17119   5.715   0.622   3.152 -0.1515 -0.7070  0.2552
 4337SOL    HW217120   5.654   0.548   3.159 -1.2871  0.2236  0.5813
 4337SOL    HW317121   5.665   0.697   3.184  0.7157  0.3594 -0.8091
 4337SOL    MW417122   5.700   0.622   3.157 -0.3311  0.2164  0.2387
 4338SOL     OW17123   5.504   2.522   2.360  0.1468 -0.3240  0.3993
 4338SOL    HW217124   5.499   2.611   2.325  1.3059  0.5882  2.4167
 4338SOL    HW317125   5.414   2.490   2.355 -0.0072  0.2509 -1.9890
 4338SOL    MW417126   5.492   2.530   2.354 -0.0942  0.4375  0.8532
 4339SOL     OW17127   6.037   1.002   2.939 -0.5983  0.7002  0.1141
 4339SOL    HW217128   6.051   1.091   2.970 -1.2502  1.6836 -2.1949
 4339SOL    HW317129   6.093   0.948   2.994  2.2272  2.8933 -0.3655
 4339SOL    MW417130   6.047   1.007   2.950 -0.0832 -0.2427  0.2991
 4340SOL     OW17131   4.164   4.264   0.968  0.2714 -0.4453 -0.0676
 4340SOL    HW217132   4.124   4.202   1.029  1.4345  0.1703  1.4055
 4340SOL    HW317133   4.143   4.350   1.004  0.1271 -0.0262 -1.1216
 4340SOL    MW417134   4.156   4.267   0.981  0.0439 -0.0067  0.4903
 4341SOL     OW17135   0.894   4.006   3.820 -0.0482  0.1803 -0.2103
 4341SOL    HW217136   0.890   4.093   3.781 -0.6695 -0.0753 -0.7230
 4341SOL    HW317137   0.822   4.004   3.883  0.3420  0.2489  0.2391
 4341SOL    MW417138   0.884   4.017   3.823  0.1430 -0.2328 -0.1321
 4342SOL     OW17139   4.473   0.719   1.363 -0.3110 -0.2163 -0.4500
 4342SOL    HW217140   4.492   0.626   1.372 -0.0355 -0.1049  0.1510
 4342SOL    HW317141   4.499   0.758   1.447 -1.2781  0.2626 -0.3554
 4342SOL    MW417142   4.479   0.712   1.375 -0.4411  0.0030 -0.3949
 4343SOL     OW17143   1.349   1.506   3.226  0.7255  0.3472 -0.6972
 4343SOL    HW217144   1.399   1.523   3.306  0.0694 -0.3131 -0.1243
 4343SOL    HW317145   1.265   1.473   3.257 -0.3732  2.1410 -1.6251
 4343SOL    MW417146   1.344   1.504   3.240  0.1647 -0.3408 -0.0497
 4344SOL     OW17147   2.407   6.314   5.525 -0.1208  0.1551  0.0345
 4344SOL    HW217148   2.475   6.378   5.547  0.5482 -0.2300 -0.8570
 4344SOL    HW317149   2.353   6.309   5.604 -0.3832  2.0344  0.0387
 4344SOL    MW417150   2.409   6.322   5.539  0.8672  0.0052 -0.1264
 4345SOL     OW17151   1.659   5.837   4.527  0.3752  0.3631  0.4009
 4345SOL    HW217152   1.720   5.814   4.457 -0.4513  1.9343 -0.8758
 4345SOL    HW317153   1.659   5.932   4.529 -1.8743  0.4030  0.5057
 4345SOL    MW417154   1.667   5.846   4.518 -0.0254 -0.1499  0.6602
 4346SOL     OW17155   4.172   1.047   4.985  0.6260  0.2029  0.0072
 4346SOL    HW217156   4.180   0.962   5.028  0.1517  0.8754  1.4890
 4346SOL    HW317157   4.253   1.056   4.934  1.7734 -0.1475  1.7021
 4346SOL    MW417158   4.184   1.037   4.984  0.3010  0.0402 -0.1270
 4347SOL     OW17159   1.192   2.362   1.936 -0.1249  0.0002  0.3263
 4347SOL    HW217160   1.192   2.371   2.031  1.2079  1.7139  0.2314
 4347SOL    HW317161   1.125   2.424   1.906 -0.9032 -0.9143  0.1589
 4347SOL    MW417162   1.184   2.372   1.945  0.4196 -1.0838  0.2761
 4348SOL     OW17163   3.660   5.094   3.551  0.0675  0.0590 -0.5179
 4348SOL    HW217164   3.710   5.085   3.470  0.6412  0.4277 -0.2110
 4348SOL    HW317165   3.584   5.037   3.539 -0.7537  1.4005 -2.0024
 4348SOL    MW417166   3.657   5.085   3.539  0.4293 -0.1698 -0.0517
 4349SOL     OW17167   2.593   4.109   0.071  0.4383 -0.5210 -0.0593
 4349SOL    HW217168   2.533   4.146   0.006 -0.0920 -0.4463  0.4624
 4349SOL    HW317169   2.636   4.185   0.110 -0.5607 -0.4204  0.9252
 4349SOL    MW417170   2.591   4.124   0.068  0.2491 -0.4307 -0.0626
 4350SOL     OW17171   3.694   3.930   3.735 -0.5487 -0.5803 -0.1501
 4350SOL    HW217172   3.759   3.961   3.798 -0.2583  0.9557 -1.1616
 4350SOL    HW317173   3.614   3.979   3.756 -0.3468  0.2322 -1.1739
 4350SOL    MW417174   3.692   3.941   3.746 -0.4574  0.9149  0.2460
 4351SOL     OW17175   3.366   1.238   4.942 -0.0120 -0.4201 -0.1487
 4351SOL    HW217176   3.416   1.244   4.861 -0.0897 -0.9322 -0.2401
 4351SOL    HW317177   3.284   1.283   4.924 -0.9885 -2.4564 -1.1210
 4351SOL    MW417178   3.362   1.244   4.929  0.0300  0.0492 -0.0248
 4352SOL     OW17179   6.360   5.736   0.414 -0.0619  0.7003  0.6267
 4352SOL    HW217180   6.400   5.660   0.457  2.7836  0.4327 -2.1257
 4352SOL    HW317181   6.360   5.804   0.481  1.4524 -0.4795  1.9156
 4352SOL    MW417182   6.365   5.735   0.428  0.2603  0.0194  0.3274
 4353SOL     OW17183   3.474   5.286   5.025  0.2927 -0.3099 -0.1545
 4353SOL    HW217184   3.459   5.258   5.116 -1.4861 -1.6654 -0.8068
 4353SOL    HW317185   3.461   5.381   5.027 -0.1847 -0.3790  0.9433
 4353SOL    MW417186   3.470   5.295   5.037  0.1705 -0.2017  0.2436
 4354SOL     OW17187   2.242   3.664   3.410  0.2617  0.4074  0.3649
 4354SOL    HW217188   2.324   3.616   3.396 -0.8234 -0.8996 -2.2031
 4354SOL    HW317189   2.198   3.616   3.480  1.1374  0.4306  0.9597
 4354SOL    MW417190   2.247   3.651   3.418 -0.0949  0.7230  0.4628
 4355SOL     OW17191   1.201   2.467   3.646  0.3849  0.2399  0.1981
 4355SOL    HW217192   1.252   2.548   3.636  2.0200 -0.6639  0.7339
 4355SOL    HW317193   1.223   2.416   3.568  0.9615 -0.4861  0.8218
 4355SOL    MW417194   1.211   2.471   3.634  0.6449 -0.5318 -0.2082
 4356SOL     OW17195   3.311   4.268   4.362 -0.0367 -0.0876 -0.4844
 4356SOL    HW217196   3.301   4.261   4.457  2.4857  0.2777 -0.1322
 4356SOL    HW317197   3.290   4.359   4.343 -3.0039 -0.7168 -0.7183
 4356SOL    MW417198   3.307   4.279   4.372 -1.1681  0.6158 -0.2902
 4357SOL     OW17199   3.971   1.862   3.476  0.0492 -0.3695  0.2902
 4357SOL    HW217200   4.063   1.883   3.462 -0.2467 -0.1320 -1.4373
 4357SOL    HW317201   3.934   1.941   3.516 -0.2929  1.2768 -2.9529
 4357SOL    MW417202   3.978   1.875   3.480 -0.5129 -0.2450  0.1193
 4358SOL     OW17203   5.426   4.437   2.953  0.9607 -0.7153  0.8599
 4358SOL    HW217204   5.353   4.393   2.909  1.8059 -1.1979 -0.1068
 4358SOL    HW317205   5.384   4.495   3.016 -0.2307 -2.2745  1.5954
 4358SOL    MW417206   5.411   4.439   2.955 -0.4635 -0.2872 -0.7832
 4359SOL     OW17207   1.451   3.069   2.333  0.0410  0.3137 -0.2105
 4359SOL    HW217208   1.364   3.104   2.351  0.6364  1.5123  0.4782
 4359SOL    HW317209   1.469   3.011   2.407  0.2016  0.8059  0.1403
 4359SOL    MW417210   1.442   3.066   2.345 -0.3087 -0.0337 -0.7252
 4360SOL     OW17211   4.785   5.116   5.947 -0.1284  0.2072  0.1322
 4360SOL    HW217212   4.693   5.140   5.936 -0.1120  0.0766 -0.3105
 4360SOL    HW317213   4.817   5.102   5.858  0.3935  0.5143  0.2661
 4360SOL    MW417214   4.777   5.117   5.934  0.0824  0.0259  0.4568
 4361SOL     OW17215   1.384   3.813   2.576 -0.4194  0.0474  0.3703
 4361SOL    HW217216   1.459   3.872   2.586 -0.2837 -0.3493  1.9560
 4361SOL    HW317217   1.313   3.869   2.544 -0.0915  0.9300  1.1575
 4361SOL    MW417218   1.385   3.828   2.573  0.7334  0.1346  0.2933
 4362SOL     OW17219   3.042   2.620   1.836 -0.0993 -0.5747  0.5636
 4362SOL    HW217220   3.085   2.566   1.902 -0.4887 -1.6235 -0.0243
 4362SOL    HW317221   3.114   2.651   1.781  0.0306 -1.3172  0.3085
 4362SOL    MW417222   3.057   2.617   1.838  0.3220  0.2543  0.3668
 4363SOL     OW17223   1.889   4.908   3.871  0.3246 -0.0831  0.2536
 4363SOL    HW217224   1.932   4.991   3.853  0.1683  0.5127  2.4093
 4363SOL    HW317225   1.799   4.931   3.892  0.1134 -0.8544  0.2307
 4363SOL    MW417226   1.883   4.922   3.871  0.2939 -0.0253  0.4593
 4364SOL     OW17227   2.673   5.135   1.925 -0.0033  0.4785  0.0292
 4364SOL    HW217228   2.736   5.063   1.934 -0.7355 -0.0081  1.6855
 4364SOL    HW317229   2.596   5.095   1.884  0.3109  0.8025 -0.9034
 4364SOL    MW417230   2.671   5.120   1.921  0.0690 -0.0458 -0.1508
 4365SOL     OW17231   0.111   1.998   3.078 -0.4107  0.0028 -0.4260
 4365SOL    HW217232   0.189   1.954   3.045 -0.6880 -0.1053 -0.9425
 4365SOL    HW317233   0.128   2.091   3.066 -0.5561 -0.0401 -0.9874
 4365SOL    MW417234   0.123   2.004   3.072 -0.0158  0.2917 -0.0558
 4366SOL     OW17235   1.549   2.988   0.512  0.3853  0.2783  0.0690
 4366SOL    HW217236   1.530   3.081   0.523 -0.9123  0.0145  0.2216
 4366SOL    HW317237   1.464   2.948   0.490  0.7725 -0.9700  0.7082
 4366SOL    MW417238   1.535   2.995   0.510 -0.3426 -0.2477 -0.2808
 4367SOL     OW17239   6.162   5.387   0.710  0.1058  0.7411 -0.0375
 4367SOL    HW217240   6.098   5.363   0.777 -0.1882  0.9951 -0.2239
 4367SOL    HW317241   6.109   5.408   0.633  0.3947  1.2694 -0.0984
 4367SOL    MW417242   6.147   5.387   0.709 -0.6584  0.1778  0.0050
 4368SOL     OW17243   5.366   5.180   5.709 -0.5536  0.0067 -0.0158
 4368SOL    HW217244   5.451   5.204   5.746 -0.1079 -1.2865 -0.1579
 4368SOL    HW317245   5.331   5.115   5.770 -2.0852  1.4982  0.7815
 4368SOL    MW417246   5.373   5.174   5.722 -0.0966  0.4647 -0.1713
 4369SOL     OW17247   6.121   4.707   4.056  0.3315  0.2389 -0.5378
 4369SOL    HW217248   6.080   4.621   4.047  0.3026  0.2828 -0.8339
 4369SOL    HW317249   6.057   4.759   4.105  0.3238  0.1112 -0.4111
 4369SOL    MW417250   6.107   4.703   4.062  0.2907  0.3421  0.5916
 4370SOL     OW17251   2.197   2.294   2.365  0.3365  0.6016  0.0772
 4370SOL    HW217252   2.162   2.383   2.362 -0.8373  0.1352 -1.0251
 4370SOL    HW317253   2.288   2.303   2.338 -0.3577  1.2406 -2.2803
 4370SOL    MW417254   2.204   2.307   2.361  0.1464  0.0118  0.0455
 4371SOL     OW17255   6.397   3.681   0.746  0.1233  0.3444 -0.3576
 4371SOL    HW217256   6.416   3.775   0.749 -0.1936  0.3911  1.0942
 4371SOL    HW317257   6.482   3.640   0.733  1.1801  0.6610  3.9128
 4371SOL    MW417258   6.411   3.688   0.745 -0.3300  0.0592  0.0782
 4372SOL     OW17259   4.564   0.690   1.090  0.1921  0.2733 -0.3436
 4372SOL    HW217260   4.518   0.762   1.047 -0.4040 -0.6794 -1.3613
 4372SOL    HW317261   4.537   0.695   1.182 -2.4262 -0.5774 -0.9865
 4372SOL    MW417262   4.555   0.700   1.096 -0.1637 -0.5519  0.7550
 4373SOL     OW17263   3.344   3.313   4.296 -0.1566 -0.0322 -0.5859
 4373SOL    HW217264   3.258   3.278   4.272  0.1344 -1.1735 -0.0695
 4373SOL    HW317265   3.351   3.295   4.390  0.5865  0.1718 -0.5956
 4373SOL    MW417266   3.334   3.306   4.306 -0.3472 -0.2253 -0.5714
 4374SOL     OW17267   5.438   0.805   0.218  0.5559  0.2134  0.6327
 4374SOL    HW217268   5.377   0.765   0.280  0.0283 -0.5756 -0.3623
 4374SOL    HW317269   5.381   0.848   0.154  1.0878  2.6063  1.6391
 4374SOL    MW417270   5.422   0.806   0.218  0.4590  0.1687  0.0847
 4375SOL     OW17271   5.563   4.167   5.543  0.2476  0.1390 -0.3731
 4375SOL    HW217272   5.504   4.214   5.484  1.2264  2.5900  0.4804
 4375SOL    HW317273   5.649   4.205   5.527  0.8670 -0.4985  1.2445
 4375SOL    MW417274   5.566   4.179   5.533 -0.0943 -0.8467  0.4609
 4376SOL     OW17275   0.321   0.479   6.095  0.0622 -0.1238  0.3688
 4376SOL    HW217276   0.233   0.515   6.108  0.2781  0.5138  0.0983
 4376SOL    HW317277   0.376   0.556   6.080  0.6408 -0.5311  0.4012
 4376SOL    MW417278   0.317   0.494   6.095 -0.1027 -0.2568  0.5611
 4377SOL     OW17279   6.074   4.215   0.716 -0.3764 -0.0176 -0.3413
 4377SOL    HW217280   6.086   4.282   0.783  1.0967 -0.5751 -0.0073
 4377SOL    HW317281   6.088   4.262   0.633  1.9950 -0.1198 -0.0639
 4377SOL    MW417282   6.077   4.230   0.714  0.3338 -0.4428  0.0311
 4378SOL     OW17283   1.656   3.481   1.380  0.2855  0.1418 -0.5087
 4378SOL    HW217284   1.648   3.462   1.286  2.0717 -2.1510 -0.2689
 4378SOL    HW317285   1.738   3.529   1.388 -0.8139  2.0723 -0.2790
 4378SOL    MW417286   1.666   3.485   1.369 -0.3913  0.3256 -0.6185
 4379SOL     OW17287   4.939   6.332   2.283 -0.1854 -0.0629 -0.6365
 4379SOL    HW217288   4.995   6.273   2.335  2.0861  1.6818 -0.9312
 4379SOL    HW317289   4.991   6.350   2.205 -0.7414  2.3931 -0.4917
 4379SOL    MW417290   4.953   6.326   2.280 -0.1658 -0.1197  0.3078
 4380SOL     OW17291   2.120   2.488   0.183  0.4991 -0.2076  0.5740
 4380SOL    HW217292   2.123   2.575   0.143  1.1329 -1.1509 -1.5920
 4380SOL    HW317293   2.044   2.490   0.240  0.1066  1.5431  0.0542
 4380SOL    MW417294   2.111   2.500   0.185  0.4021  0.3470  0.7592
 4381SOL     OW17295   2.757   5.092   3.539 -0.8713  0.0245 -0.2034
 4381SOL    HW217296   2.850   5.102   3.556 -1.0057  1.5592 -0.2630
 4381SOL    HW317297   2.752   5.047   3.455 -0.1958 -0.5205  0.0421
 4381SOL    MW417298   2.768   5.087   3.530 -0.0534  0.4367  0.4765
 4382SOL     OW17299   5.634   5.054   1.611 -0.3573  0.0512  0.1788
 4382SOL    HW217300   5.678   5.045   1.526  0.3757  1.8732  0.3253
 4382SOL    HW317301   5.563   5.116   1.595  0.8379  1.7595  1.2169
 4382SOL    MW417302   5.631   5.061   1.597 -0.0150 -0.3091 -0.3607
 4383SOL     OW17303   3.240   4.813   2.425 -0.2665 -0.1043 -0.0518
 4383SOL    HW217304   3.328   4.845   2.403 -0.5473  1.6411  1.2000
 4383SOL    HW317305   3.183   4.852   2.358 -0.2639 -0.1230 -0.0650
 4383SOL    MW417306   3.244   4.822   2.413 -0.1477 -0.1402 -0.2947
 4384SOL     OW17307   1.787   3.701   2.309  0.3720  0.1923 -0.6928
 4384SOL    HW217308   1.828   3.655   2.382 -1.3130 -2.9965 -1.5334
 4384SOL    HW317309   1.830   3.786   2.306  3.9464 -1.3674  0.9251
 4384SOL    MW417310   1.798   3.706   2.318  0.7553  0.4897  0.9262
 4385SOL     OW17311   2.155   1.182   5.163  0.2490 -0.1718  0.0126
 4385SOL    HW217312   2.193   1.143   5.084  0.3042 -1.1376  0.5025
 4385SOL    HW317313   2.121   1.108   5.213 -1.1596  0.5647  0.1940
 4385SOL    MW417314   2.156   1.167   5.159 -0.0475 -0.0873  0.9147
 4386SOL     OW17315   2.545   5.846   1.747  0.1470  0.2645 -0.8197
 4386SOL    HW217316   2.493   5.822   1.824  0.6861  0.0152 -0.5251
 4386SOL    HW317317   2.568   5.762   1.707  0.0820  0.3844 -1.1067
 4386SOL    MW417318   2.541   5.832   1.752 -0.7708  0.4630 -0.6584
 4387SOL     OW17319   2.183   4.087   3.792  0.7260 -0.1559 -0.0967
 4387SOL    HW217320   2.244   4.144   3.746  1.5951 -1.9248 -1.2625
 4387SOL    HW317321   2.185   4.117   3.883  1.6942  1.1620 -0.5315
 4387SOL    MW417322   2.191   4.099   3.798  0.5788  0.0010  0.2012
 4388SOL     OW17323   5.444   0.332   4.960  0.2850  0.4585  0.3736
 4388SOL    HW217324   5.489   0.383   5.028 -1.0368  2.4284 -0.1420
 4388SOL    HW317325   5.380   0.393   4.923 -0.5274 -1.2384 -1.1605
 4388SOL    MW417326   5.441   0.347   4.964  0.3110 -0.0226  0.1023
 4389SOL     OW17327   3.424   4.610   2.791  0.0502  0.1138 -0.1384
 4389SOL    HW217328   3.501   4.662   2.814  1.5316 -0.4899 -3.2651
 4389SOL    HW317329   3.356   4.676   2.774  0.2827  0.7146  1.0771
 4389SOL    MW417330   3.425   4.626   2.792  0.3578 -0.1962 -0.2686
 4390SOL     OW17331   0.662   1.696   5.465  0.2271  0.0012  0.4160
 4390SOL    HW217332   0.605   1.668   5.536  1.2257 -1.0805  0.8224
 4390SOL    HW317333   0.735   1.740   5.509  0.8238 -0.6283  0.0686
 4390SOL    MW417334   0.664   1.698   5.480 -0.2120  0.1063 -0.1852
 4391SOL     OW17335   1.758   0.135   4.169  0.2233 -0.9716  0.1949
 4391SOL    HW217336   1.749   0.123   4.264  1.7184 -1.2854  0.3158
 4391SOL    HW317337   1.850   0.155   4.156  0.1007 -1.2683 -1.2372
 4391SOL    MW417338   1.769   0.136   4.180 -0.2087 -0.5889  0.1214
 4392SOL     OW17339   3.204   4.353   1.973  0.1599  0.2380 -0.9768
 4392SOL    HW217340   3.126   4.408   1.971  0.4320  0.6734 -0.1538
 4392SOL    HW317341   3.173   4.266   1.947 -0.8225  0.1567  0.3382
 4392SOL    MW417342   3.190   4.349   1.970 -0.1103 -0.3396 -0.1343
 4393SOL     OW17343   1.121   0.727   2.507  0.0646 -0.0758 -0.2348
 4393SOL    HW217344   1.170   0.779   2.444 -0.0966 -0.2034 -0.4661
 4393SOL    HW317345   1.037   0.772   2.515  0.3685  0.3895  0.4866
 4393SOL    MW417346   1.117   0.739   2.500  0.7464 -0.1249 -0.2682
 4394SOL     OW17347   3.501   0.530   0.199  0.2813  0.2384  0.7250
 4394SOL    HW217348   3.427   0.469   0.198 -0.9585  1.6164 -2.2057
 4394SOL    HW317349   3.576   0.476   0.176 -0.0825 -0.8294  1.8703
 4394SOL    MW417350   3.501   0.515   0.196  0.2101  0.5636  0.2208
 4395SOL     OW17351   3.090   5.242   5.284 -0.4023  0.1715  0.8044
 4395SOL    HW217352   3.002   5.209   5.304 -1.1915  1.1594 -0.8481
 4395SOL    HW317353   3.099   5.233   5.189  1.1535  0.4356  0.8920
 4395SOL    MW417354   3.080   5.236   5.274  0.1970 -0.3965  0.4701
 4396SOL     OW17355   5.424   5.150   2.612 -0.5897 -0.1388  0.2678
 4396SOL    HW217356   5.466   5.191   2.536 -0.1083 -1.3118 -0.1275
 4396SOL    HW317357   5.330   5.155   2.593 -0.4945 -0.0282 -0.2007
 4396SOL    MW417358   5.417   5.156   2.599  0.5301 -0.4454 -0.3317
 4397SOL     OW17359   1.074   5.418   5.918 -0.2719  0.6022 -0.6725
 4397SOL    HW217360   1.009   5.427   5.848 -2.0322  1.4278  0.9629
 4397SOL    HW317361   1.078   5.324   5.936 -4.4758  0.6639  2.0810
 4397SOL    MW417362   1.066   5.407   5.912  0.0607  0.4935 -0.7511
 4398SOL     OW17363   2.929   3.353   4.461 -1.2323 -0.2906  0.5039
 4398SOL    HW217364   2.845   3.397   4.448 -0.7346  0.7801  0.7985
 4398SOL    HW317365   2.923   3.314   4.548 -1.1553  0.4413  0.8457
 4398SOL    MW417366   2.917   3.353   4.471 -0.0632 -0.0718 -0.1409
 4399SOL     OW17367   4.110   3.679   1.793 -0.5000  0.1027  0.4957
 4399SOL    HW217368   4.111   3.704   1.885 -1.1420  0.2827  0.4523
 4399SOL    HW317369   4.026   3.636   1.780 -0.9578  1.2012 -0.3104
 4399SOL    MW417370   4.099   3.676   1.803  0.5122  0.8785 -0.4793
 4400SOL     OW17371   2.211   4.880   0.939 -0.3711 -0.2725  0.3836
 4400SOL    HW217372   2.174   4.949   0.883 -0.8590 -0.8045  0.0393
 4400SOL    HW317373   2.136   4.825   0.962 -0.2149  0.0081  1.6873
 4400SOL    MW417374   2.196   4.882   0.935 -0.5447  0.0275  0.3525
 4401SOL     OW17375   5.013   3.235   3.066 -0.8087 -0.0614  0.0155
 4401SOL    HW217376   4.979   3.161   3.015 -2.0082  0.3312  0.2131
 4401SOL    HW317377   4.984   3.312   3.018  1.5654  0.3388 -0.9239
 4401SOL    MW417378   5.005   3.235   3.053 -0.1120  0.6443 -0.6628
 4402SOL     OW17379   2.490   4.792   0.098  0.1678  0.3346  0.0295
 4402SOL    HW217380   2.402   4.827   0.114 -0.2248 -1.0908  1.3095
 4402SOL    HW317381   2.511   4.818   0.009 -2.2258 -0.6141 -0.8835
 4402SOL    MW417382   2.481   4.800   0.089 -0.3782 -0.2043  0.4213
 4403SOL     OW17383   4.048   4.489   6.137  0.1129  0.1799  0.3738
 4403SOL    HW217384   4.073   4.404   6.173 -0.1147 -0.2745 -0.4928
 4403SOL    HW317385   3.969   4.513   6.185 -0.0116 -0.2689  0.3988
 4403SOL    MW417386   4.041   4.481   6.148 -0.4028  0.0071  0.6578
 4404SOL     OW17387   4.386   0.966   4.719  0.6266  0.2234  0.7421
 4404SOL    HW217388   4.425   1.052   4.703  1.1881  0.0810  1.3097
 4404SOL    HW317389   4.436   0.906   4.663  1.4255  0.0017  1.6515
 4404SOL    MW417390   4.398   0.969   4.710  0.1892  0.2411  0.0606
 4405SOL     OW17391   5.830   1.584   3.211 -0.0497  0.0494 -0.5562
 4405SOL    HW217392   5.798   1.511   3.264 -0.1455  1.0527  0.8132
 4405SOL    HW317393   5.763   1.652   3.220  0.5175  0.6775 -0.9883
 4405SOL    MW417394   5.817   1.583   3.219  0.3722  0.0613  0.3113
 4406SOL     OW17395   5.838   3.035   2.938  0.4215  0.0317  0.0771
 4406SOL    HW217396   5.841   3.010   2.846 -0.1550 -1.3444  0.4088
 4406SOL    HW317397   5.759   2.993   2.972 -0.0067  1.4541  0.9552
 4406SOL    MW417398   5.828   3.026   2.931 -0.9914  0.3155  0.1397
 4407SOL     OW17399   1.618   4.383   1.061 -0.4426  0.3091 -0.2318
 4407SOL    HW217400   1.631   4.300   1.014  0.4977  0.5338 -0.3826
 4407SOL    HW317401   1.599   4.356   1.151  2.0086 -0.0708  0.2416
 4407SOL    MW417402   1.617   4.368   1.067 -0.3322 -1.1520 -0.1006
 4408SOL     OW17403   5.011   6.058   4.460  0.5376 -0.4587  0.4061
 4408SOL    HW217404   4.924   6.091   4.480  1.1031  1.5570 -0.2195
 4408SOL    HW317405   5.017   5.975   4.508 -0.6636  0.7515  2.8440
 4408SOL    MW417406   5.000   6.051   4.469  0.0331 -0.4558  0.1423
 4409SOL     OW17407   5.282   2.961   1.947  0.3628  0.3172 -0.4263
 4409SOL    HW217408   5.305   2.873   1.977  0.5455  0.0188 -1.4001
 4409SOL    HW317409   5.366   3.003   1.930  0.3195  1.0746  1.0564
 4409SOL    MW417410   5.296   2.955   1.949  0.2430  0.5177  0.4346
 4410SOL     OW17411   4.004   2.925   5.017  0.1317 -0.4485 -0.3253
 4410SOL    HW217412   3.980   3.017   5.008 -1.7608 -0.8946 -0.2403
 4410SOL    HW317413   3.936   2.877   4.971 -0.8346 -1.9608  2.4210
 4410SOL    MW417414   3.992   2.930   5.010 -0.2275 -0.5139 -0.3608
 4411SOL     OW17415   4.582   1.476   6.169 -0.1466  0.3178 -0.5074
 4411SOL    HW217416   4.605   1.523   6.250 -1.4824  0.2660 -0.0834
 4411SOL    HW317417   4.551   1.544   6.110  1.4703  0.4496 -1.2496
 4411SOL    MW417418   4.581   1.491   6.172 -0.0651 -0.3039  0.2849
 4412SOL     OW17419   2.397   1.032   5.924  0.1050 -0.7089 -0.0305
 4412SOL    HW217420   2.473   0.985   5.890  1.2734  2.4022 -2.1387
 4412SOL    HW317421   2.434   1.107   5.971 -1.6303  0.6822 -0.8020
 4412SOL    MW417422   2.412   1.035   5.926  0.2548  0.8617  0.2386
 4413SOL     OW17423   2.902   4.574   5.568  0.2356 -0.3507  0.5930
 4413SOL    HW217424   2.839   4.579   5.640  0.7460  0.5550  0.9928
 4413SOL    HW317425   2.905   4.481   5.545 -1.0673 -0.4452  0.7194
 4413SOL    MW417426   2.894   4.562   5.575 -0.1421  0.2066  0.6998
 4414SOL     OW17427   6.238   4.393   4.070 -0.2918  0.6348  0.0493
 4414SOL    HW217428   6.307   4.455   4.046  1.6489 -1.1532  0.7225
 4414SOL    HW317429   6.244   4.323   4.004 -3.3708  1.6765 -1.5556
 4414SOL    MW417430   6.248   4.392   4.058 -0.6048 -0.8113 -0.3298
 4415SOL     OW17431   5.376   5.898   6.201  0.3949 -0.0458  0.0569
 4415SOL    HW217432   5.457   5.882   6.249  0.9072 -0.3738 -0.8885
 4415SOL    HW317433   5.335   5.812   6.193 -0.7736  0.3104  1.7478
 4415SOL    MW417434   5.381   5.885   6.206 -0.1787  0.2550  0.6076
 4416SOL     OW17435   0.842   0.879   3.216  0.6902  0.4508 -0.6372
 4416SOL    HW217436   0.876   0.880   3.127 -0.5722  1.5545 -1.1497
 4416SOL    HW317437   0.889   0.949   3.261  2.3061 -0.9764  0.0039
 4416SOL    MW417438   0.852   0.888   3.211  0.0136 -0.4148  0.0396
 4417SOL     OW17439   2.997   3.492   2.927 -0.1908 -0.1372 -0.0204
 4417SOL    HW217440   2.972   3.584   2.928  1.2580  0.3124 -1.4602
 4417SOL    HW317441   2.965   3.459   2.843  1.0302 -0.4014 -0.4092
 4417SOL    MW417442   2.989   3.500   2.916  0.0029 -0.1992 -0.1093
 4418SOL     OW17443   6.115   4.756   3.782 -0.0070 -0.3664 -0.0113
 4418SOL    HW217444   6.102   4.850   3.792  2.8095  0.1932 -0.6842
 4418SOL    HW317445   6.133   4.725   3.871 -0.6404 -0.2285  0.1677
 4418SOL    MW417446   6.116   4.764   3.795  0.3444  0.3928  0.1080
 4419SOL     OW17447   0.357   0.281   3.708 -0.0359 -0.0142 -0.4151
 4419SOL    HW217448   0.443   0.259   3.746 -0.2202  0.0840  0.0636
 4419SOL    HW317449   0.365   0.256   3.616  1.3469  2.2672 -0.9913
 4419SOL    MW417450   0.370   0.275   3.701 -0.6831 -0.5433 -0.3456
 4420SOL     OW17451   3.286   4.932   0.963 -0.2390  0.2064  0.0048
 4420SOL    HW217452   3.331   5.015   0.949 -3.3425  2.3495  1.5237
 4420SOL    HW317453   3.238   4.945   1.045 -0.2747 -3.4350  0.7348
 4420SOL    MW417454   3.286   4.945   0.972  0.4712 -0.3598  0.4532
 4421SOL     OW17455   0.989   4.225   1.007  0.5874 -0.3820  0.1035
 4421SOL    HW217456   1.024   4.188   0.926  2.0432 -1.4851  1.1840
 4421SOL    HW317457   1.008   4.159   1.074 -0.6326  0.4725  1.3388
 4421SOL    MW417458   0.996   4.212   1.005 -0.3553 -0.1993  0.9119
 4422SOL     OW17459   0.733   0.930   3.648  0.1900 -0.0363 -0.3610
 4422SOL    HW217460   0.646   0.894   3.630  0.4064 -2.1449  2.1660
 4422SOL    HW317461   0.777   0.931   3.563 -2.6750  2.4501 -1.9753
 4422SOL    MW417462   0.727   0.925   3.634  0.3205  0.0954 -0.4024
 4423SOL     OW17463   0.640   5.284   0.952  0.5812 -0.2513 -0.1341
 4423SOL    HW217464   0.710   5.232   0.913 -0.3487 -1.0321 -0.8195
 4423SOL    HW317465   0.610   5.233   1.027 -2.1197 -2.1745 -2.3092
 4423SOL    MW417466   0.646   5.270   0.957  0.0902 -0.3961 -0.2420
 4424SOL     OW17467   0.614   3.077   3.598 -0.5040  0.2084  0.1131
 4424SOL    HW217468   0.598   3.139   3.527 -1.9571  0.2568  0.4634
 4424SOL    HW317469   0.596   2.991   3.559  1.3999 -0.0330 -0.3409
 4424SOL    MW417470   0.610   3.074   3.583 -0.1309 -0.3560  0.3041
 4425SOL     OW17471   2.148   3.226   3.986 -0.0842 -0.0256 -0.7032
 4425SOL    HW217472   2.228   3.222   4.040 -0.5165 -0.0831 -0.0539
 4425SOL    HW317473   2.106   3.141   3.999  0.3856 -0.4972 -2.0664
 4425SOL    MW417474   2.153   3.214   3.995  0.6297 -0.1753 -0.0390
 4426SOL     OW17475   4.976   4.170   5.565 -0.2767  0.2995 -0.2201
 4426SOL    HW217476   4.929   4.189   5.646 -0.2532 -0.4816 -0.0160
 4426SOL    HW317477   4.937   4.229   5.500 -0.0333  1.2092  0.4310
 4426SOL    MW417478   4.964   4.181   5.567  0.3739 -0.0173  0.0164
 4427SOL     OW17479   0.394   1.116   0.923  0.0292 -0.7722 -0.0668
 4427SOL    HW217480   0.406   1.045   0.860 -0.0709 -1.9260  1.1804
 4427SOL    HW317481   0.481   1.154   0.934  0.5153 -2.0709  0.8090
 4427SOL    MW417482   0.407   1.111   0.916  0.1778  0.3111  0.2780
 4428SOL     OW17483   2.106   0.449   5.178  0.1333  0.6462 -0.0259
 4428SOL    HW217484   2.180   0.415   5.228 -1.3635 -1.8965  0.6390
 4428SOL    HW317485   2.062   0.510   5.238 -0.7906 -1.2432  1.3457
 4428SOL    MW417486   2.110   0.453   5.193  0.2450 -0.0976 -0.3676
 4429SOL     OW17487   4.134   2.821   2.306 -0.4534 -0.2033  0.0284
 4429SOL    HW217488   4.110   2.867   2.387 -0.4629 -0.3072  0.0844
 4429SOL    HW317489   4.229   2.812   2.311 -0.4259  0.0030 -0.0860
 4429SOL    MW417490   4.143   2.826   2.318  0.2447  0.1881 -0.2007
 4430SOL     OW17491   0.340   0.479   3.329 -0.2035  0.1787  0.4349
 4430SOL    HW217492   0.292   0.534   3.391 -1.6503 -0.6820  0.1081
 4430SOL    HW317493   0.432   0.492   3.353 -0.5262  2.1699  0.8337
 4430SOL    MW417494   0.346   0.488   3.340 -0.0251  0.5808 -0.3189
 4431SOL     OW17495   3.647   3.017   2.741 -0.2110 -0.1484  0.1524
 4431SOL    HW217496   3.637   2.966   2.821 -0.6603  0.0676  0.2357
 4431SOL    HW317497   3.654   3.107   2.771  1.2561 -0.1979  0.0540
 4431SOL    MW417498   3.647   3.022   2.756 -0.0924  0.2541  0.0960
 4432SOL     OW17499   4.190   0.746   1.394 -0.7107 -0.1393 -0.4829
 4432SOL    HW217500   4.168   0.771   1.304  1.2766  0.8669 -0.7468
 4432SOL    HW317501   4.283   0.723   1.390 -1.2257 -2.8016  0.8018
 4432SOL    MW417502   4.199   0.747   1.381 -0.5891  0.3410  0.1529
 4433SOL     OW17503   5.581   3.422   3.104 -0.0087  0.3022  0.3917
 4433SOL    HW217504   5.551   3.349   3.158 -0.4595 -0.2397 -0.5641
 4433SOL    HW317505   5.649   3.464   3.156  1.5900 -1.9056  0.2539
 4433SOL    MW417506   5.586   3.418   3.118  0.0337 -0.4927 -0.2078
 4434SOL     OW17507   4.301   4.127   4.578  0.1906 -0.5964  0.0218
 4434SOL    HW217508   4.373   4.182   4.608  0.4236 -1.3605  0.9257
 4434SOL    HW317509   4.268   4.085   4.658 -0.3864 -1.2751 -0.5566
 4434SOL    MW417510   4.306   4.129   4.593  0.2796  0.3636 -0.0534
 4435SOL     OW17511   3.016   2.369   0.702 -0.3675  0.6627  0.4466
 4435SOL    HW217512   2.930   2.348   0.740 -0.5696 -1.3567 -0.9743
 4435SOL    HW317513   2.996   2.426   0.628 -0.1450  2.8591  1.9832
 4435SOL    MW417514   3.002   2.374   0.697  0.1837  0.3513 -0.0240
 4436SOL     OW17515   2.907   1.999   1.423 -0.6434  0.3327 -0.2518
 4436SOL    HW217516   2.927   2.046   1.342 -1.5759 -1.9039 -1.8852
 4436SOL    HW317517   2.882   2.068   1.485  1.3903  2.2217 -1.4127
 4436SOL    MW417518   2.906   2.014   1.421 -0.0992 -0.1661 -0.2483
 4437SOL     OW17519   3.936   5.614   2.064  0.4387  0.8199 -0.1358
 4437SOL    HW217520   4.024   5.591   2.094  0.9535  1.7318 -0.8648
 4437SOL    HW317521   3.930   5.708   2.078 -0.6961  0.6585  0.5509
 4437SOL    MW417522   3.947   5.623   2.070 -0.3401  0.7315 -0.1187
 4438SOL     OW17523   0.954   2.815   0.684  0.2000  0.1304  0.0429
 4438SOL    HW217524   0.907   2.736   0.657 -1.7341  0.2160  2.7596
 4438SOL    HW317525   1.042   2.805   0.647 -0.8827 -1.7701 -2.2504
 4438SOL    MW417526   0.960   2.803   0.675 -0.0898  0.0668  0.1171
 4439SOL     OW17527   1.200   3.702   1.596 -0.1441 -0.4612  0.0784
 4439SOL    HW217528   1.247   3.627   1.632 -0.3810 -0.5280  0.2480
 4439SOL    HW317529   1.116   3.703   1.642  0.0900  0.2560  0.5063
 4439SOL    MW417530   1.195   3.692   1.607 -0.1319 -0.0357 -0.0702
 4440SOL     OW17531   1.607   6.158   3.775  0.0892  0.4361  0.0718
 4440SOL    HW217532   1.626   6.227   3.838  0.2078  0.4382  0.0333
 4440SOL    HW317533   1.639   6.078   3.818 -0.2203  0.3769  0.1984
 4440SOL    MW417534   1.614   6.157   3.789 -0.6135 -0.4216 -0.7476
 4441SOL     OW17535   2.311   1.791   5.094 -0.4673 -0.1246  0.0288
 4441SOL    HW217536   2.287   1.701   5.071 -2.6239  0.6118 -0.9286
 4441SOL    HW317537   2.227   1.835   5.107  0.4677  2.1104 -0.9869
 4441SOL    MW417538   2.297   1.785   5.092 -0.1067  0.1983  0.2067
 4442SOL     OW17539   3.434   2.002   2.563 -0.0099  0.0647 -0.3470
 4442SOL    HW217540   3.491   2.065   2.606  0.0127  0.4722 -0.9621
 4442SOL    HW317541   3.377   1.969   2.633  1.0937 -0.4879  0.3107
 4442SOL    MW417542   3.434   2.006   2.578  0.1894  0.2029 -0.5123
 4443SOL     OW17543   4.988   0.624   3.274  0.2903  0.6798  0.1837
 4443SOL    HW217544   4.925   0.685   3.313  0.3944  1.1387 -0.3383
 4443SOL    HW317545   4.934   0.551   3.244 -0.2269  1.6717 -1.4854
 4443SOL    MW417546   4.972   0.623   3.275 -0.2868 -0.3050  0.0979
 4444SOL     OW17547   5.840   0.114   0.206 -0.1749 -0.0463 -0.2170
 4444SOL    HW217548   5.835   0.129   0.112 -1.1310  0.4914 -0.0908
 4444SOL    HW317549   5.757   0.147   0.240 -0.2275 -1.0919  0.7038
 4444SOL    MW417550   5.829   0.120   0.198  0.0906 -0.3102  0.3941
 4445SOL     OW17551   4.295   5.009   3.030  0.4688  0.3477 -0.2250
 4445SOL    HW217552   4.228   5.020   2.963 -1.1776 -0.8676  1.1485
 4445SOL    HW317553   4.334   5.096   3.038 -0.8527  1.0684 -1.1657
 4445SOL    MW417554   4.291   5.022   3.022 -0.0144  0.2366 -0.4250
 4446SOL     OW17555   2.936   4.797   5.381 -0.3484 -0.3988 -0.1888
 4446SOL    HW217556   2.901   4.744   5.452 -0.6901  0.2383  0.1279
 4446SOL    HW317557   3.031   4.784   5.386 -0.1201  1.4837  1.9284
 4446SOL    MW417558   2.944   4.788   5.391  0.1262  0.2406  0.0327
 4447SOL     OW17559   3.250   5.846   5.793  0.0186  0.6718 -0.1103
 4447SOL    HW217560   3.270   5.827   5.885 -0.0851 -0.1136 -0.2383
 4447SOL    HW317561   3.188   5.918   5.795 -0.8760 -0.1029  0.4882
 4447SOL    MW417562   3.245   5.853   5.805  0.4203 -0.5577 -0.2102
 4448SOL     OW17563   3.096   1.794   2.233  0.0723 -0.2689 -0.6859
 4448SOL    HW217564   3.092   1.872   2.177  0.0933 -0.6914 -1.2827
 4448SOL    HW317565   3.008   1.788   2.271  0.3044  0.5101  0.0152
 4448SOL    MW417566   3.083   1.804   2.230 -0.2117  0.2774  0.2842
 4449SOL     OW17567   4.924   2.797   5.952  0.1396  0.6004 -0.3065
 4449SOL    HW217568   4.843   2.847   5.939 -0.7192 -0.6834 -0.0611
 4449SOL    HW317569   4.989   2.863   5.976 -1.3095  1.4329  1.5819
 4449SOL    MW417570   4.922   2.812   5.953  0.2780 -0.0944 -0.2674
 4450SOL     OW17571   2.718   3.259   4.918 -0.7727 -0.4369  0.1214
 4450SOL    HW217572   2.706   3.260   5.013 -0.8347 -0.0528  0.1095
 4450SOL    HW317573   2.646   3.312   4.884 -0.2463  0.1638 -0.0818
 4450SOL    MW417574   2.707   3.266   4.926  0.5899  0.1131  0.7622
 4451SOL     OW17575   1.720   1.799   3.783  0.4849  0.5301  0.2911
 4451SOL    HW217576   1.648   1.741   3.806  0.5890 -0.1482 -0.9960
 4451SOL    HW317577   1.679   1.869   3.732  0.6233  0.5471  0.2009
 4451SOL    MW417578   1.705   1.801   3.779  0.2655 -0.4750 -0.2542
 4452SOL     OW17579   4.111   5.411   3.617  0.4617  0.2474 -0.5383
 4452SOL    HW217580   4.062   5.344   3.569 -0.4158  0.7032 -0.2953
 4452SOL    HW317581   4.051   5.486   3.621  0.4891  0.2109  1.3066
 4452SOL    MW417582   4.096   5.412   3.611  0.2106  0.0850  0.2126
 4453SOL     OW17583   1.580   1.811   5.612 -0.3359  0.0480  0.1695
 4453SOL    HW217584   1.485   1.801   5.606 -0.6361  0.5023  2.9208
 4453SOL    HW317585   1.613   1.721   5.610 -1.1228 -0.3343  2.1297
 4453SOL    MW417586   1.572   1.798   5.611 -0.0777  0.2276 -0.4722
 4454SOL     OW17587   2.003   0.644   1.299  0.1304 -0.0804 -0.2936
 4454SOL    HW217588   2.018   0.658   1.392  0.5852 -1.3196 -0.1712
 4454SOL    HW317589   2.074   0.694   1.256  0.5357 -0.3454  0.0595
 4454SOL    MW417590   2.015   0.653   1.306 -0.2645  0.2256  0.6371
 4455SOL     OW17591   4.873   0.768   6.291 -0.3145 -0.5748 -0.6332
 4455SOL    HW217592   4.952   0.756   6.238 -1.0781  2.7169 -2.8601
 4455SOL    HW317593   4.802   0.774   6.226 -1.8826  0.0652  1.0634
 4455SOL    MW417594   4.874   0.767   6.275 -0.0454 -0.1308  0.0958
 4456SOL     OW17595   4.627   1.473   4.602 -0.3987  0.3597  0.0431
 4456SOL    HW217596   4.692   1.498   4.668 -0.0267  0.1121 -0.2345
 4456SOL    HW317597   4.555   1.536   4.616 -0.6958 -0.2083  1.2405
 4456SOL    MW417598   4.626   1.485   4.613  0.1102 -0.1511 -0.2182
 4457SOL     OW17599   2.921   5.487   0.782  0.0631  1.0479 -0.1933
 4457SOL    HW217600   2.883   5.572   0.804  0.6028  1.7510 -1.8419
 4457SOL    HW317601   3.015   5.504   0.774  0.0451  0.5552 -1.6290
 4457SOL    MW417602   2.928   5.500   0.784  0.0842  0.0616 -0.0134
 4458SOL     OW17603   4.811   1.358   3.612 -0.2016  0.7122  0.0332
 4458SOL    HW217604   4.818   1.453   3.625  0.6535  0.6603 -0.0168
 4458SOL    HW317605   4.873   1.321   3.675 -0.3876  0.1945 -0.0858
 4458SOL    MW417606   4.820   1.366   3.622 -0.5284  0.6123  0.1582
 4459SOL     OW17607   0.550   1.294   5.761 -0.3477  0.0823 -0.1067
 4459SOL    HW217608   0.518   1.245   5.686 -2.5873  1.4078 -0.1189
 4459SOL    HW317609   0.645   1.285   5.757 -0.5105 -1.3981 -2.0186
 4459SOL    MW417610   0.559   1.287   5.750  0.0148  0.0592 -0.0087
 4460SOL     OW17611   4.176   1.324   4.074 -0.2298  0.2484  0.6104
 4460SOL    HW217612   4.152   1.279   4.155 -0.6953 -0.3863  0.1341
 4460SOL    HW317613   4.261   1.287   4.050 -2.0957 -3.1665 -1.6577
 4460SOL    MW417614   4.184   1.313   4.081 -0.8582  0.1155 -0.4207
 4461SOL     OW17615   3.041   4.338   4.229  0.0420 -0.0131  0.6727
 4461SOL    HW217616   3.114   4.395   4.252  0.9877  0.6203 -3.1760
 4461SOL    HW317617   2.963   4.392   4.243  0.8381  1.9277 -1.6722
 4461SOL    MW417618   3.040   4.352   4.234 -0.2897 -0.0809  0.8028
 4462SOL     OW17619   4.783   4.149   0.909 -0.4831  0.0945 -0.0912
 4462SOL    HW217620   4.772   4.055   0.890 -3.9980  0.5680 -1.1222
 4462SOL    HW317621   4.727   4.164   0.985 -0.2921  1.4606 -0.2092
 4462SOL    MW417622   4.774   4.138   0.916  0.3109  0.3200  0.3678
 4463SOL     OW17623   5.795   5.819   2.546  0.0876  0.1392  0.1618
 4463SOL    HW217624   5.829   5.828   2.457  1.5754 -0.4890  0.6322
 4463SOL    HW317625   5.825   5.733   2.575 -0.6296  0.2095  1.1745
 4463SOL    MW417626   5.804   5.809   2.538 -0.0608 -0.9283 -0.5579
 4464SOL     OW17627   4.474   3.403   3.184  0.1796 -0.1641  0.6236
 4464SOL    HW217628   4.562   3.364   3.190  0.6244  0.5731 -0.7491
 4464SOL    HW317629   4.445   3.408   3.275  2.0552  0.6565  1.2344
 4464SOL    MW417630   4.482   3.398   3.197  0.1564 -0.3614  0.0253
 4465SOL     OW17631   2.795   0.737   6.094 -0.2567  0.2838 -0.0696
 4465SOL    HW217632   2.814   0.673   6.163  0.6480  1.4781  0.8416
 4465SOL    HW317633   2.716   0.704   6.052 -0.3138 -0.9630  0.9489
 4465SOL    MW417634   2.787   0.724   6.098 -0.2858 -0.8742  0.3265
 4466SOL     OW17635   4.564   2.681   5.954  0.1761 -0.1022  0.2822
 4466SOL    HW217636   4.534   2.694   5.864 -1.6872  0.1101  0.9018
 4466SOL    HW317637   4.485   2.663   6.004  1.3020 -1.4565  1.6943
 4466SOL    MW417638   4.550   2.680   5.949 -0.6487 -0.3839  0.1789
 4467SOL     OW17639   4.032   6.334   3.440  0.0190 -0.2684 -0.3482
 4467SOL    HW217640   4.034   6.240   3.422  2.2434 -0.6980  1.6128
 4467SOL    HW317641   4.024   6.339   3.535  1.5152  1.4718 -0.2757
 4467SOL    MW417642   4.031   6.322   3.450 -0.4432  0.0249 -0.6727
 4468SOL     OW17643   0.217   6.435   2.826 -0.1117  0.0575  0.0690
 4468SOL    HW217644   0.167   6.490   2.887 -0.3143 -0.7435  0.6398
 4468SOL    HW317645   0.307   6.444   2.855 -0.2790 -0.8141  0.8995
 4468SOL    MW417646   0.222   6.443   2.838 -0.3368  0.7383 -0.6255
 4469SOL     OW17647   3.707   6.282   2.216  0.0002  0.1363 -0.5874
 4469SOL    HW217648   3.628   6.304   2.165  0.0229 -0.8512 -1.0707
 4469SOL    HW317649   3.769   6.250   2.151  0.7829  0.8152 -0.1941
 4469SOL    MW417650   3.705   6.281   2.201  0.4489  0.0725  0.0357
 4470SOL     OW17651   4.649   1.946   4.208  0.6783  0.3123  0.1759
 4470SOL    HW217652   4.588   1.946   4.282  0.4625 -0.8660  0.0190
 4470SOL    HW317653   4.625   1.868   4.158  4.3660 -2.1114  1.8011
 4470SOL    MW417654   4.638   1.936   4.211 -0.1413 -0.3023 -0.4097
 4471SOL     OW17655   0.254   4.499   4.710 -0.1937 -0.5934 -0.1026
 4471SOL    HW217656   0.198   4.533   4.640  1.8602  0.7146 -1.2272
 4471SOL    HW317657   0.309   4.434   4.667 -0.3427 -1.3458  0.8143
 4471SOL    MW417658   0.254   4.495   4.695 -0.0370 -0.2275 -0.2002
 4472SOL     OW17659   2.378   0.900   2.734 -0.6793  0.7952  0.2391
 4472SOL    HW217660   2.372   0.846   2.655 -2.0139 -0.1131  0.9385
 4472SOL    HW317661   2.462   0.946   2.724  1.0813 -2.1881  0.1109
 4472SOL    MW417662   2.388   0.899   2.722 -0.2173 -0.0501 -0.1827
 4473SOL     OW17663   5.364   0.307   5.355 -0.3538 -0.1666  0.0237
 4473SOL    HW217664   5.356   0.342   5.444 -0.8894 -0.8840  0.2761
 4473SOL    HW317665   5.445   0.344   5.321 -0.4525  0.5937  0.5912
 4473SOL    MW417666   5.373   0.316   5.362  0.0593 -0.0337  0.3044
 4474SOL     OW17667   2.409   4.454   0.983 -0.0975 -0.6279 -0.0673
 4474SOL    HW217668   2.386   4.522   0.920  0.4009 -2.0379 -1.8267
 4474SOL    HW317669   2.505   4.450   0.981 -0.0314 -0.2970  1.2498
 4474SOL    MW417670   2.419   4.462   0.975 -0.6195  0.5357  0.4187
 4475SOL     OW17671   1.473   3.701   1.434 -0.2577 -0.5814  0.2086
 4475SOL    HW217672   1.390   3.666   1.466  0.1958 -1.4424  0.4754
 4475SOL    HW317673   1.524   3.624   1.409  0.2056 -0.0263 -0.6013
 4475SOL    MW417674   1.469   3.686   1.435 -0.1086 -0.2783  0.0139
 4476SOL     OW17675   2.711   2.484   2.819 -0.6396 -0.5414 -0.3071
 4476SOL    HW217676   2.733   2.396   2.787  0.9328 -0.9380  1.6806
 4476SOL    HW317677   2.672   2.469   2.905 -1.5467  0.6815 -0.4750
 4476SOL    MW417678   2.708   2.470   2.826  0.4986 -0.6572 -0.3224
 4477SOL     OW17679   1.337   5.220   1.583  0.1358  0.0790  0.0415
 4477SOL    HW217680   1.402   5.180   1.526  0.6322 -1.8895  1.8394
 4477SOL    HW317681   1.379   5.224   1.669 -1.2925  0.9972  0.7549
 4477SOL    MW417682   1.351   5.216   1.587  0.0917  0.0077  0.2323
 4478SOL     OW17683   6.127   2.193   5.738 -0.4850  0.3324 -0.5264
 4478SOL    HW217684   6.196   2.259   5.736 -1.5339  1.5054  0.1650
 4478SOL    HW317685   6.157   2.129   5.802  0.1899  0.5683 -0.6022
 4478SOL    MW417686   6.140   2.194   5.746 -0.2564 -0.3449  0.4822
 4479SOL     OW17687   4.655   2.816   5.202 -0.3389  0.4388  0.4000
 4479SOL    HW217688   4.632   2.838   5.112  0.3159  0.7198  0.2963
 4479SOL    HW317689   4.737   2.863   5.218 -0.6129  0.6450  1.2467
 4479SOL    MW417690   4.663   2.825   5.192  0.3959 -0.7433  0.7301
 4480SOL     OW17691   2.879   6.122   3.325  0.2383  0.1537 -0.2804
 4480SOL    HW217692   2.804   6.179   3.343  0.6314  0.8020 -0.6629
 4480SOL    HW317693   2.880   6.061   3.398  0.7122  1.5732  0.9608
 4480SOL    MW417694   2.869   6.122   3.337  0.3386 -0.3857 -0.0713
 4481SOL     OW17695   6.064   0.832   0.775  0.5586  0.3314  0.2971
 4481SOL    HW217696   6.111   0.804   0.854  0.1789 -1.6505 -0.1226
 4481SOL    HW317697   6.132   0.839   0.708  0.5794 -0.3201  0.2409
 4481SOL    MW417698   6.079   0.829   0.777  0.4508  0.5931 -0.1497
 4482SOL     OW17699   3.909   0.061   5.032 -0.1226  0.2819 -0.1143
 4482SOL    HW217700   3.968   0.121   5.078  0.0756  0.6502 -0.8401
 4482SOL    HW317701   3.835   0.115   5.005  1.0916  0.7826 -2.7837
 4482SOL    MW417702   3.907   0.076   5.034  0.2776  0.7436 -0.1501
 4483SOL     OW17703   0.792   2.208   6.266  0.5404  0.1402  0.2451
 4483SOL    HW217704   0.813   2.163   6.185 -0.0354 -0.1943  0.2721
 4483SOL    HW317705   0.861   2.182   6.327  1.4197  1.0267 -0.3578
 4483SOL    MW417706   0.804   2.198   6.264 -0.6690  0.1221 -0.5104
 4484SOL     OW17707   2.264   2.559   3.718  0.5532 -0.5210 -0.4557
 4484SOL    HW217708   2.188   2.612   3.693  0.7973 -0.0569 -0.2108
 4484SOL    HW317709   2.229   2.470   3.725  0.2274 -0.4712 -1.2681
 4484SOL    MW417710   2.249   2.554   3.715  0.0869  0.4017  0.4232
 4485SOL     OW17711   0.275   5.557   5.027 -0.1925  0.4407 -0.7447
 4485SOL    HW217712   0.214   5.594   4.963 -1.5725 -1.4378 -0.6026
 4485SOL    HW317713   0.360   5.557   4.982 -0.7737  0.8892 -1.8778
 4485SOL    MW417714   0.279   5.562   5.013 -0.0948  0.2130  0.0684
 4486SOL     OW17715   3.212   2.873   1.516 -0.4410 -0.3598  0.0608
 4486SOL    HW217716   3.246   2.815   1.584 -1.7169 -0.3643  0.7158
 4486SOL    HW317717   3.207   2.959   1.558 -3.0977 -0.7293  0.6765
 4486SOL    MW417718   3.216   2.877   1.531  0.2217 -0.3685 -0.0151
 4487SOL     OW17719   4.474   2.508   3.807  0.6722  0.0917 -0.1143
 4487SOL    HW217720   4.409   2.487   3.874  0.4508 -0.7379 -0.5714
 4487SOL    HW317721   4.458   2.600   3.786 -0.9041 -0.3001 -0.7871
 4487SOL    MW417722   4.463   2.518   3.813  0.1812 -0.4830  0.3641
 4488SOL     OW17723   2.578   3.241   0.672 -0.5065  0.1684  0.8908
 4488SOL    HW217724   2.606   3.242   0.764  0.5052 -0.1984  0.5938
 4488SOL    HW317725   2.559   3.149   0.654 -1.1856  0.3112  0.8711
 4488SOL    MW417726   2.579   3.229   0.682 -0.6308 -0.2017 -0.6206
 4489SOL     OW17727   2.331   5.754   0.608  0.3342  0.7896 -0.1902
 4489SOL    HW217728   2.336   5.687   0.540  1.9313  1.5823 -0.9319
 4489SOL    HW317729   2.392   5.725   0.675  0.5816  1.1879 -0.2369
 4489SOL    MW417730   2.340   5.742   0.608  0.1290 -0.2152  0.8329
 4490SOL     OW17731   0.063   0.580   5.718  0.0275  0.0495 -0.2882
 4490SOL    HW217732   0.129   0.626   5.667 -0.4487 -0.5556 -1.4691
 4490SOL    HW317733   0.113   0.524   5.778  0.5946 -0.5954 -1.3491
 4490SOL    MW417734   0.078   0.579   5.719  0.1037  0.2633  0.0532
 4491SOL     OW17735   0.488   0.801   3.554 -0.0484 -0.1193  0.1529
 4491SOL    HW217736   0.420   0.857   3.593  0.3725  1.1794 -0.8984
 4491SOL    HW317737   0.480   0.815   3.460 -0.1044 -2.0972 -0.1667
 4491SOL    MW417738   0.478   0.810   3.547 -0.2151  0.0941 -0.2434
 4492SOL     OW17739   5.598   1.770   4.034  0.2378  0.2953  0.3088
 4492SOL    HW217740   5.556   1.746   4.117 -0.1771  1.3470  0.4211
 4492SOL    HW317741   5.595   1.866   4.033 -2.6403  0.3004 -2.4087
 4492SOL    MW417742   5.592   1.779   4.045  0.1642  0.8800  0.0510
 4493SOL     OW17743   3.777   4.208   6.429  0.2518 -0.0489 -0.0657
 4493SOL    HW217744   3.709   4.251   6.378  0.1240 -0.0099  0.1356
 4493SOL    HW317745   3.797   4.269   6.500 -0.7341 -0.7876  0.8765
 4493SOL    MW417746   3.771   4.221   6.432  0.6599  0.2162  0.4110
 4494SOL     OW17747   3.495   0.556   5.123 -0.4074  0.4004  0.0116
 4494SOL    HW217748   3.436   0.482   5.136 -0.4490  0.7552  2.1227
 4494SOL    HW317749   3.535   0.571   5.209  0.0350  2.4534 -0.5001
 4494SOL    MW417750   3.493   0.548   5.136  0.1959  0.3742 -0.0174
 4495SOL     OW17751   4.576   6.340   2.327 -0.3685 -0.2847 -0.3932
 4495SOL    HW217752   4.581   6.385   2.243 -1.7132 -1.3010 -1.0656
 4495SOL    HW317753   4.546   6.407   2.389  0.4525  0.4225 -0.7492
 4495SOL    MW417754   4.573   6.354   2.324 -0.0929 -0.4899 -0.7109
 4496SOL     OW17755   1.956   0.457   3.681  0.6005  0.1999  0.7116
 4496SOL    HW217756   1.922   0.406   3.607  1.9725  1.0654 -0.5904
 4496SOL    HW317757   1.891   0.446   3.750  0.0763 -2.0079 -0.0340
 4496SOL    MW417758   1.943   0.449   3.680 -0.6144  0.0152 -0.5612
 4497SOL     OW17759   2.895   4.403   5.790  0.2389 -0.3178 -0.2742
 4497SOL    HW217760   2.974   4.387   5.842  0.1002 -0.2309 -0.0383
 4497SOL    HW317761   2.870   4.493   5.811  0.0017 -0.3891 -0.2488
 4497SOL    MW417762   2.902   4.413   5.799  0.5770  0.0303  0.1599
 4498SOL     OW17763   5.991   6.209   4.886  0.0787  0.1149  0.2363
 4498SOL    HW217764   6.052   6.145   4.923 -0.7287 -0.7434  0.1455
 4498SOL    HW317765   5.930   6.228   4.957 -1.0041 -0.9368 -0.3576
 4498SOL    MW417766   5.991   6.203   4.900  0.1224 -1.1115  0.3430
 4499SOL     OW17767   2.123   1.670   3.025 -0.0820  0.0750 -0.2801
 4499SOL    HW217768   2.051   1.720   3.064 -0.3776 -1.3884  1.1583
 4499SOL    HW317769   2.089   1.581   3.018  0.7665 -0.1653 -1.8826
 4499SOL    MW417770   2.109   1.665   3.029  0.1430 -0.0585  0.1364
 4500SOL     OW17771   4.536   2.268   3.365 -0.5179  0.6600  0.0551
 4500SOL    HW217772   4.606   2.236   3.422 -0.3447  0.1275 -0.4553
 4500SOL    HW317773   4.547   2.220   3.283 -0.4978  1.7295 -0.5873
 4500SOL    MW417774   4.546   2.258   3.362  0.0511 -0.0337  0.5910
 4501SOL     OW17775   0.389   0.924   0.733 -0.1968  0.0226 -0.0410
 4501SOL    HW217776   0.457   0.972   0.686 -0.4680  0.5045  0.0472
 4501SOL    HW317777   0.309   0.940   0.683 -0.1116 -1.2386 -0.6322
 4501SOL    MW417778   0.387   0.932   0.721 -0.1863 -0.1244  0.2052
 4502SOL     OW17779   3.518   1.419   0.606  0.1008  0.5158 -0.1800
 4502SOL    HW217780   3.546   1.428   0.698 -2.2395  0.7164  0.5824
 4502SOL    HW317781   3.504   1.509   0.577 -0.6016  0.4009 -0.2210
 4502SOL    MW417782   3.520   1.432   0.615  0.0403 -0.7233 -0.0029
 4503SOL     OW17783   5.192   4.512   4.582  0.1558 -0.2245 -0.5627
 4503SOL    HW217784   5.108   4.538   4.543 -0.7225 -1.2179  0.5811
 4503SOL    HW317785   5.167   4.455   4.655  1.8752 -1.4697 -0.8984
 4503SOL    MW417786   5.177   4.508   4.586 -0.0413 -0.2987 -0.0093
 4504SOL     OW17787   5.455   3.814   5.740  0.0182 -0.6641 -0.1923
 4504SOL    HW217788   5.399   3.875   5.788  0.5202 -0.5024  0.2012
 4504SOL    HW317789   5.511   3.775   5.808 -0.2637 -1.5211 -0.4490
 4504SOL    MW417790   5.455   3.817   5.755 -0.0505 -0.3516  0.4363
 4505SOL     OW17791   0.342   5.423   2.854 -0.4547  0.0174  0.0885
 4505SOL    HW217792   0.337   5.333   2.885  0.3165  0.8465  2.8779
 4505SOL    HW317793   0.425   5.456   2.888 -1.1168  2.0466 -0.1017
 4505SOL    MW417794   0.352   5.416   2.863 -0.0299 -0.1894 -0.3501
 4506SOL     OW17795   4.284   3.692   3.472 -0.8653 -0.1275 -0.1729
 4506SOL    HW217796   4.371   3.656   3.456 -1.3476 -0.3519 -2.5972
 4506SOL    HW317797   4.294   3.786   3.458 -0.5969  0.1401  1.6292
 4506SOL    MW417798   4.297   3.699   3.468 -0.3913  0.6022 -0.5570
 4507SOL     OW17799   4.845   1.532   5.940 -1.1303 -0.1271 -0.0490
 4507SOL    HW217800   4.885   1.448   5.960 -2.0703 -0.7524 -0.6952
 4507SOL    HW317801   4.868   1.588   6.014 -1.0213 -1.1365  0.7071
 4507SOL    MW417802   4.853   1.528   5.952  0.2547 -0.3208  0.3980
 4508SOL     OW17803   6.070   6.461   4.805  0.3818  0.6748  0.0424
 4508SOL    HW217804   5.998   6.470   4.743  0.8585 -0.3324 -0.6819
 4508SOL    HW317805   6.057   6.376   4.846  1.2415  0.3949 -0.2319
 4508SOL    MW417806   6.059   6.451   4.802  0.3697  0.0996  0.3767
 4509SOL     OW17807   4.609   5.635   2.908 -0.8038  0.1216 -0.3575
 4509SOL    HW217808   4.576   5.705   2.963  0.6546  0.4437  0.1458
 4509SOL    HW317809   4.531   5.583   2.886 -1.3410 -0.6533  2.8612
 4509SOL    MW417810   4.594   5.637   2.912  0.4169  0.7022 -0.1123
 4510SOL     OW17811   6.117   0.175   1.695 -0.0515 -0.1901  0.6667
 4510SOL    HW217812   6.153   0.171   1.606  1.5315  1.0503  1.1851
 4510SOL    HW317813   6.152   0.257   1.731 -2.7131  0.6318  1.6010
 4510SOL    MW417814   6.127   0.185   1.688  0.2461  0.7767 -0.0206
 4511SOL     OW17815   4.340   0.491   0.248  0.4028  1.0015 -0.2754
 4511SOL    HW217816   4.379   0.411   0.283  0.4554  1.0786 -0.1573
 4511SOL    HW317817   4.368   0.560   0.309 -1.4121  0.7829  0.8652
 4511SOL    MW417818   4.349   0.490   0.261  0.1066  0.1090 -0.3109
 4512SOL     OW17819   5.265   2.606   1.549 -0.2839 -0.3058  0.1934
 4512SOL    HW217820   5.241   2.694   1.517 -0.8927 -0.3416  0.5448
 4512SOL    HW317821   5.361   2.603   1.541  0.0441  1.3444  2.5636
 4512SOL    MW417822   5.275   2.617   1.544 -0.2550  0.0582 -0.2724
 4513SOL     OW17823   5.138   3.682   5.334 -0.0858 -0.0993 -0.2335
 4513SOL    HW217824   5.216   3.673   5.389  1.4529  0.2391 -2.2644
 4513SOL    HW317825   5.093   3.598   5.342  1.9517 -1.3353 -1.1319
 4513SOL    MW417826   5.142   3.670   5.343 -0.4587 -0.2193  0.2996
 4514SOL     OW17827   3.320   2.377   0.098 -0.9357  0.1872 -0.5578
 4514SOL    HW217828   3.333   2.338   0.184  0.5490 -0.8518 -1.2054
 4514SOL    HW317829   3.406   2.376   0.057 -1.5259  1.0258 -1.9183
 4514SOL    MW417830   3.333   2.372   0.104 -0.0334  0.3663 -0.1702
 4515SOL     OW17831   5.794   3.225   5.728  0.2412 -0.4376 -0.4774
 4515SOL    HW217832   5.709   3.261   5.702  0.2304  0.8046  1.1385
 4515SOL    HW317833   5.857   3.294   5.709  0.5390 -0.3957  0.6038
 4515SOL    MW417834   5.791   3.239   5.722 -0.0051 -0.2701  0.1009
 4516SOL     OW17835   5.919   1.695   5.166  0.3312  0.4737 -0.1144
 4516SOL    HW217836   5.859   1.644   5.221  0.2133 -0.6218 -1.2131
 4516SOL    HW317837   5.902   1.786   5.189 -0.7714  0.1037  0.5828
 4516SOL    MW417838   5.909   1.700   5.176 -0.5227 -1.0901  0.0542
 4517SOL     OW17839   0.852   1.201   5.549  0.0837  0.1695  0.5751
 4517SOL    HW217840   0.920   1.134   5.555 -0.2401 -0.4103 -1.4171
 4517SOL    HW317841   0.809   1.200   5.635 -0.1329 -2.4513  0.5306
 4517SOL    MW417842   0.855   1.192   5.561  0.2617 -0.0517  0.0925
 4518SOL     OW17843   5.850   1.903   4.167  0.0335  0.2444 -0.1465
 4518SOL    HW217844   5.893   1.980   4.129  1.3190  0.1219  0.9972
 4518SOL    HW317845   5.806   1.936   4.245  0.8047 -0.1881  0.4939
 4518SOL    MW417846   5.850   1.918   4.172 -0.7348  0.6429 -0.2691
 4519SOL     OW17847   4.493   3.598   3.766 -0.1403 -0.4658 -0.3919
 4519SOL    HW217848   4.580   3.600   3.805 -0.1212  2.7882 -0.3335
 4519SOL    HW317849   4.509   3.583   3.673  0.2691 -1.9214 -0.1173
 4519SOL    MW417850   4.506   3.596   3.759 -0.2736  0.9764  0.3196
 4520SOL     OW17851   4.123   5.894   3.835 -0.3980  0.3234  0.0240
 4520SOL    HW217852   4.142   5.860   3.748  1.3796 -1.0791  0.8934
 4520SOL    HW317853   4.110   5.816   3.889 -0.0301  1.1105  1.3016
 4520SOL    MW417854   4.124   5.880   3.831 -0.5401 -0.5087  0.3678
 4521SOL     OW17855   5.702   2.888   3.349  0.4241  0.0482  0.3796
 4521SOL    HW217856   5.781   2.871   3.298  0.7662  0.9909  0.5585
 4521SOL    HW317857   5.706   2.982   3.368 -0.8496  0.1581  0.2134
 4521SOL    MW417858   5.713   2.898   3.345  0.1266  0.0823 -0.0736
 4522SOL     OW17859   3.967   1.282   2.489 -0.2399 -0.3683  0.2852
 4522SOL    HW217860   3.886   1.330   2.507 -0.7364 -0.8081 -0.6978
 4522SOL    HW317861   3.985   1.233   2.569 -0.2549  0.6874  0.9511
 4522SOL    MW417862   3.959   1.282   2.502 -0.2141 -0.1708 -0.5375
 4523SOL     OW17863   3.265   5.507   6.117  0.1138  0.4870  0.8967
 4523SOL    HW217864   3.237   5.485   6.028 -0.1699  0.5872  0.9604
 4523SOL    HW317865   3.192   5.481   6.173  0.6366 -0.3646  1.1949
 4523SOL    MW417866   3.251   5.501   6.113  0.0848  0.6344  0.2354
 4524SOL     OW17867   0.994   2.282   3.454 -0.1073 -0.4500  0.0860
 4524SOL    HW217868   1.000   2.350   3.387  1.4781 -0.3418  0.2924
 4524SOL    HW317869   0.961   2.328   3.531 -0.4341 -0.2237 -0.1879
 4524SOL    MW417870   0.991   2.297   3.455 -0.1101 -0.4258  0.4477
 4525SOL     OW17871   2.844   6.379   5.714 -0.4279 -0.2053 -0.0647
 4525SOL    HW217872   2.898   6.406   5.789 -0.9185 -1.2777  0.7109
 4525SOL    HW317873   2.906   6.345   5.650 -0.1149 -0.7184  0.5037
 4525SOL    MW417874   2.859   6.378   5.716  0.4918  0.1365  0.2104
 4526SOL     OW17875   1.788   2.738   0.163 -0.7288  0.6098 -0.5295
 4526SOL    HW217876   1.869   2.771   0.202 -1.5047  1.9101  0.0368
 4526SOL    HW317877   1.807   2.645   0.145  0.3870  0.5042  0.9258
 4526SOL    MW417878   1.802   2.730   0.166  0.0403 -0.0452 -0.0049
 4527SOL     OW17879   3.032   3.279   2.086 -0.7669 -0.7361 -0.8204
 4527SOL    HW217880   2.945   3.287   2.048 -0.3425 -1.6391 -2.0518
 4527SOL    HW317881   3.034   3.191   2.124 -1.5415  0.4931  2.3738
 4527SOL    MW417882   3.021   3.268   2.086  0.0313 -0.3912  0.5300
 4528SOL     OW17883   1.869   4.440   6.112 -0.5895  0.1376  0.3510
 4528SOL    HW217884   1.777   4.469   6.112 -1.1509 -1.4554  2.2654
 4528SOL    HW317885   1.865   4.351   6.078  0.2172 -0.0517  0.7575
 4528SOL    MW417886   1.856   4.432   6.108 -0.4092 -0.3839 -0.3180
 4529SOL     OW17887   4.664   3.977   5.819  0.1566 -0.4551 -0.2506
 4529SOL    HW217888   4.730   4.030   5.864  1.8603 -1.1524 -1.7763
 4529SOL    HW317889   4.688   3.983   5.727 -2.3769 -0.1947 -0.9720
 4529SOL    MW417890   4.676   3.985   5.813  0.2899  0.4783 -0.1762
 4530SOL     OW17891   3.111   2.682   4.449  0.7009 -0.9489  0.4289
 4530SOL    HW217892   3.166   2.760   4.456  0.0544 -0.3955 -0.4551
 4530SOL    HW317893   3.065   2.678   4.533  0.1107  0.1254  0.1813
 4530SOL    MW417894   3.112   2.692   4.461 -0.2509  0.6656  0.0777
 4531SOL     OW17895   3.248   4.208   4.961  0.1541  0.4692  0.0966
 4531SOL    HW217896   3.173   4.182   4.908  0.2017 -0.2664  0.3713
 4531SOL    HW317897   3.277   4.291   4.923 -0.6042  0.6019 -0.2053
 4531SOL    MW417898   3.242   4.215   4.949 -0.5737  0.1747  0.1698
 4532SOL     OW17899   5.385   2.466   3.416 -0.4145  0.1427  0.1889
 4532SOL    HW217900   5.347   2.514   3.343  0.9633  1.8580  0.5359
 4532SOL    HW317901   5.469   2.508   3.432  0.0324 -1.2112  1.7515
 4532SOL    MW417902   5.391   2.478   3.408 -0.0896 -0.1324  0.2727
 4533SOL     OW17903   1.943   2.081   2.914  0.0011 -0.0821 -0.0355
 4533SOL    HW217904   1.884   2.147   2.952  0.8226  0.0881  0.9838
 4533SOL    HW317905   1.889   2.037   2.848 -1.3562 -0.0711  1.0024
 4533SOL    MW417906   1.928   2.084   2.911  0.3004  0.1455  0.2457
 4534SOL     OW17907   6.104   3.168   0.140 -0.2833 -0.3391 -0.2129
 4534SOL    HW217908   6.178   3.229   0.149  0.5663 -1.6194  2.3364
 4534SOL    HW317909   6.081   3.173   0.047  0.9869  2.3827 -0.4973
 4534SOL    MW417910   6.111   3.177   0.129  0.3055  0.2153  0.2878
 4535SOL     OW17911   3.460   6.475   2.742 -0.1366  0.3766 -0.1650
 4535SOL    HW217912   3.394   6.544   2.751 -0.4261 -0.0342  0.9865
 4535SOL    HW317913   3.423   6.400   2.787  0.7561 -0.1213 -0.2391
 4535SOL    MW417914   3.446   6.474   2.749 -0.3428  0.0919  0.4743
 4536SOL     OW17915   4.172   4.186   3.016  0.5993  0.7934 -0.2835
 4536SOL    HW217916   4.237   4.122   2.987  1.6965  2.0295 -0.7177
 4536SOL    HW317917   4.111   4.194   2.942 -1.5796 -2.1458  1.0260
 4536SOL    MW417918   4.173   4.179   3.002  0.3097 -0.4045 -0.0329
 4537SOL     OW17919   5.431   1.422   1.551 -0.6974  0.0133  0.1803
 4537SOL    HW217920   5.418   1.343   1.605 -0.4898 -0.4826 -0.4880
 4537SOL    HW317921   5.505   1.400   1.494 -1.0214  0.4725 -0.4212
 4537SOL    MW417922   5.439   1.409   1.551 -0.0908  0.4308  0.5635
 4538SOL     OW17923   3.478   3.718   4.618 -0.0386 -0.1519  0.6239
 4538SOL    HW217924   3.522   3.652   4.672 -1.5581  0.0874  2.2213
 4538SOL    HW317925   3.408   3.670   4.574  1.0889 -0.3131 -1.1171
 4538SOL    MW417926   3.474   3.703   4.619 -0.1761 -0.2545 -0.3052
 4539SOL     OW17927   1.206   2.321   0.768  0.2073  0.1302 -0.8795
 4539SOL    HW217928   1.194   2.403   0.814  1.9222  0.3025 -0.6879
 4539SOL    HW317929   1.157   2.257   0.820  0.6288  0.6482  0.1862
 4539SOL    MW417930   1.198   2.323   0.781  0.4565  0.0904 -0.1852
 4540SOL     OW17931   5.480   1.540   0.849  0.3026 -0.3571  0.2354
 4540SOL    HW217932   5.574   1.548   0.835 -0.0454 -0.0458 -2.4816
 4540SOL    HW317933   5.470   1.460   0.902  2.0819 -0.2504  0.7872
 4540SOL    MW417934   5.491   1.530   0.854  0.3646 -0.4751 -0.2571
 4541SOL     OW17935   1.590   4.175   3.900 -0.9785  0.4482 -0.1282
 4541SOL    HW217936   1.559   4.187   3.989 -1.4002  0.6142 -0.2911
 4541SOL    HW317937   1.678   4.212   3.900 -0.6305 -0.3729  0.4346
 4541SOL    MW417938   1.597   4.182   3.911 -0.1655  0.5805  0.1276
 4542SOL     OW17939   1.096   0.114   5.483 -0.8025  0.4851 -0.1827
 4542SOL    HW217940   1.175   0.081   5.525  0.1667  1.5280 -1.0901
 4542SOL    HW317941   1.060   0.038   5.437  0.1796  0.1901 -0.4941
 4542SOL    MW417942   1.102   0.100   5.482 -0.8394 -0.2409 -0.0081
 4543SOL     OW17943   1.444   0.785   5.751 -0.4198  0.1648 -0.1752
 4543SOL    HW217944   1.500   0.708   5.758  0.5167  0.8499  0.0486
 4543SOL    HW317945   1.369   0.766   5.807 -1.1383 -1.3556 -1.5583
 4543SOL    MW417946   1.442   0.772   5.759 -0.5403  0.1795 -0.1355
 4544SOL     OW17947   6.089   4.590   0.066  0.3980 -0.3590  0.4006
 4544SOL    HW217948   6.170   4.618   0.023  0.1853 -0.4145 -0.0471
 4544SOL    HW317949   6.040   4.546  -0.003  0.1286 -0.6164  0.7532
 4544SOL    MW417950   6.093   4.588   0.051 -0.2468  0.2857 -0.2136
 4545SOL     OW17951   5.156   5.373   1.303 -0.1950  0.4433  0.4464
 4545SOL    HW217952   5.115   5.436   1.362  1.4500  2.8275 -0.7938
 4545SOL    HW317953   5.250   5.387   1.314  0.2184 -1.5904 -0.1522
 4545SOL    MW417954   5.163   5.383   1.312  0.3756  0.1770  0.1670
 4546SOL     OW17955   0.081   5.410   0.823 -0.0620 -0.0232  0.3441
 4546SOL    HW217956   0.168   5.432   0.859 -1.0353  1.5427  1.9051
 4546SOL    HW317957   0.045   5.347   0.885  0.1788 -1.2067 -0.6738
 4546SOL    MW417958   0.088   5.405   0.836  0.7573  0.4677  0.0751
 4547SOL     OW17959   1.456   6.080   5.431 -0.3636 -0.5059 -0.0770
 4547SOL    HW217960   1.526   6.021   5.461  1.6308  1.9452  0.4160
 4547SOL    HW317961   1.409   6.103   5.511 -0.2878 -0.4007 -0.0621
 4547SOL    MW417962   1.459   6.075   5.446 -0.4944  0.7295  1.0822
 4548SOL     OW17963   6.071   4.991   1.778  0.3432 -0.4059 -0.0206
 4548SOL    HW217964   6.054   4.944   1.860  2.2630 -0.6985  0.2592
 4548SOL    HW317965   6.156   5.033   1.792 -0.3807  1.5352 -1.0084
 4548SOL    MW417966   6.080   4.991   1.791 -0.8520 -0.7824  0.4540
 4549SOL     OW17967   0.074   4.279   6.114  0.2951  0.2264  0.9003
 4549SOL    HW217968   0.001   4.238   6.158 -0.6480  0.4563 -0.3879
 4549SOL    HW317969   0.142   4.286   6.181 -0.2973 -1.3921  1.7081
 4549SOL    MW417970   0.074   4.275   6.128  0.3761  0.6402  0.4723
 4550SOL     OW17971   2.698   2.551   4.625 -0.2287  0.1413 -0.3569
 4550SOL    HW217972   2.666   2.555   4.534 -1.9542 -1.1000  0.1217
 4550SOL    HW317973   2.628   2.591   4.676  1.0513  1.4876  0.3937
 4550SOL    MW417974   2.684   2.557   4.619  0.1919  0.0458 -0.5322
 4551SOL     OW17975   1.320   3.327   5.017 -0.4554  0.6893  0.5396
 4551SOL    HW217976   1.289   3.383   5.088 -2.3195 -0.5027  0.7321
 4551SOL    HW317977   1.255   3.338   4.948 -0.2515 -0.3907  0.1564
 4551SOL    MW417978   1.307   3.336   5.017 -0.4346 -0.1114  0.3236
 4552SOL     OW17979   4.042   3.945   2.834  0.0925 -0.4622 -0.0325
 4552SOL    HW217980   4.062   3.911   2.921 -0.6189  1.1807  0.8046
 4552SOL    HW317981   3.948   3.961   2.835  0.1337 -0.0809 -0.9788
 4552SOL    MW417982   4.032   3.942   2.845 -0.3555  0.2802 -0.6368
 4553SOL     OW17983   5.843   0.135   4.643  0.9382  0.0612 -0.1481
 4553SOL    HW217984   5.760   0.167   4.677  1.7351  3.3628 -0.9541
 4553SOL    HW317985   5.819   0.059   4.589 -1.0381 -1.2971  2.3741
 4553SOL    MW417986   5.829   0.129   4.640  0.0304 -0.2686 -0.3125
 4554SOL     OW17987   0.360   0.087   1.552 -0.0790  0.1076 -0.2732
 4554SOL    HW217988   0.407   0.041   1.482  2.5936  0.3577  1.2166
 4554SOL    HW317989   0.404   0.172   1.558 -0.5053  0.2370  1.4423
 4554SOL    MW417990   0.372   0.092   1.543  0.4468  0.1754 -0.4499
 4555SOL     OW17991   0.033   5.875   1.916 -0.4218  0.2453  0.6893
 4555SOL    HW217992  -0.034   5.900   1.852 -0.3256 -3.5053 -1.1097
 4555SOL    HW317993  -0.017   5.849   1.994 -1.0473 -1.3792 -0.2196
 4555SOL    MW417994   0.017   5.875   1.918  0.0539 -0.3577 -0.4499
 4556SOL     OW17995   2.099   5.812   3.540 -0.1724 -0.0286  0.0569
 4556SOL    HW217996   2.145   5.753   3.601  2.4000 -0.7440 -2.3775
 4556SOL    HW317997   2.119   5.777   3.453  0.4619  3.6698 -1.4853
 4556SOL    MW417998   2.108   5.800   3.537  0.0676  0.5968  0.0135
 4557SOL     OW17999   5.769   6.459   3.561  0.1858 -0.2311  0.0291
 4557SOL    HW218000   5.717   6.379   3.560  0.4265 -0.3855 -0.4487
 4557SOL    HW318001   5.817   6.455   3.644 -1.3019  0.4076  0.9621
 4557SOL    MW418002   5.769   6.448   3.572 -0.5056  0.0900  0.6343
 4558SOL     OW18003   2.969   1.527   0.371  0.4089 -0.1956  0.2613
 4558SOL    HW218004   2.899   1.501   0.431 -1.8872  1.7508 -1.3498
 4558SOL    HW318005   2.991   1.616   0.398  0.9504 -0.1325 -0.3825
 4558SOL    MW418006   2.963   1.536   0.382 -0.0356 -0.4620 -0.3301
 4559SOL     OW18007   1.039   0.949   4.263 -0.0025 -0.3250 -0.1676
 4559SOL    HW218008   1.127   0.970   4.294  0.3624 -0.2637 -1.2210
 4559SOL    HW318009   1.048   0.940   4.168 -1.4076  1.0627 -0.4698
 4559SOL    MW418010   1.052   0.951   4.255 -0.6324 -0.1345 -0.0738
 4560SOL     OW18011   2.396   3.639   1.645 -0.4656  0.0088 -0.0477
 4560SOL    HW218012   2.426   3.729   1.653 -0.6939  0.3358 -2.1904
 4560SOL    HW318013   2.459   3.598   1.586 -0.8316 -0.9969  0.2385
 4560SOL    MW418014   2.408   3.645   1.638  0.2442 -0.0724  0.4082
 4561SOL     OW18015   3.166   1.473   6.070 -0.3237  0.0051  0.0587
 4561SOL    HW218016   3.260   1.491   6.075 -0.8415  2.7748  1.7446
 4561SOL    HW318017   3.136   1.522   5.993 -0.3561 -1.3122 -0.7989
 4561SOL    MW418018   3.174   1.482   6.060 -0.4462 -0.0554 -0.1832
 4562SOL     OW18019   3.245   4.443   1.518 -0.2842  0.0934  0.0797
 4562SOL    HW218020   3.285   4.488   1.593  1.3212  1.6626 -1.6248
 4562SOL    HW318021   3.207   4.513   1.465 -0.1987 -0.8182 -1.2362
 4562SOL    MW418022   3.245   4.458   1.521 -0.7056 -0.0461  0.4712
 4563SOL     OW18023   4.232   3.484   2.226 -0.6438 -0.5952  0.4881
 4563SOL    HW218024   4.290   3.443   2.162 -0.0323 -0.2257  0.8001
 4563SOL    HW318025   4.150   3.434   2.219  0.3782 -2.5337  1.5545
 4563SOL    MW418026   4.229   3.472   2.216  0.0890  0.2272  0.1890
 4564SOL     OW18027   5.748   3.944   3.054 -0.2154  0.8587  0.1938
 4564SOL    HW218028   5.783   4.021   3.009  2.5433 -0.9705 -1.0768
 4564SOL    HW318029   5.825   3.896   3.083 -1.8307 -1.2042  1.3451
 4564SOL    MW418030   5.763   3.948   3.052  0.5023  0.0721  0.0212
 4565SOL     OW18031   0.564   6.199   0.479  0.3497 -0.5832  0.8510
 4565SOL    HW218032   0.478   6.230   0.505 -1.4554 -1.3527 -3.3584
 4565SOL    HW318033   0.557   6.104   0.479  0.3122 -0.6596 -1.5740
 4565SOL    MW418034   0.552   6.191   0.482  0.0816 -0.8783  0.1344
 4566SOL     OW18035   2.175   4.599   0.522  0.3939  0.2336 -0.3280
 4566SOL    HW218036   2.132   4.640   0.596 -1.5347 -1.4495 -0.4482
 4566SOL    HW318037   2.247   4.659   0.500 -0.2698  1.8075  1.5401
 4566SOL    MW418038   2.179   4.613   0.529 -0.3061 -1.0587  0.1042
 4567SOL     OW18039   4.098   4.686   0.856 -0.0943 -0.3000  0.1970
 4567SOL    HW218040   4.187   4.675   0.823 -0.1411  0.4064 -0.2070
 4567SOL    HW318041   4.099   4.772   0.897 -0.2300 -0.8784  1.4466
 4567SOL    MW418042   4.110   4.696   0.857 -0.4188  0.5878 -0.2053
 4568SOL     OW18043   6.281   5.165   4.065 -0.0291  0.2074 -0.4286
 4568SOL    HW218044   6.373   5.166   4.091  0.1332  2.8058 -0.7959
 4568SOL    HW318045   6.238   5.110   4.130  1.6780 -0.5333  0.1200
 4568SOL    MW418046   6.288   5.158   4.077  0.0391  0.0211 -0.3573
 4569SOL     OW18047  -0.008   1.441   3.436  0.4002  0.4129  0.1894
 4569SOL    HW218048   0.003   1.534   3.456  1.0792  0.0885  1.4425
 4569SOL    HW318049  -0.083   1.414   3.488  0.1813  0.2536 -0.2017
 4569SOL    MW418050  -0.016   1.450   3.445 -0.3758  0.2027 -0.0187
 4570SOL     OW18051   2.705   2.980   5.240  0.6395 -0.4339 -0.1199
 4570SOL    HW218052   2.612   2.955   5.237  0.3109  0.6037  0.8334
 4570SOL    HW318053   2.740   2.951   5.156 -0.3453 -1.6230 -0.1419
 4570SOL    MW418054   2.697   2.973   5.228 -0.1754 -0.0401 -0.0308
 4571SOL     OW18055   3.909   1.643   1.243 -0.6221  0.4104  0.0341
 4571SOL    HW218056   3.969   1.716   1.256 -0.2792 -0.1028  1.6771
 4571SOL    HW318057   3.823   1.678   1.264 -0.5469  0.5285  0.1472
 4571SOL    MW418058   3.906   1.657   1.248 -0.3483 -0.0498 -0.7363
 4572SOL     OW18059   1.467   5.900   4.776 -0.4142 -0.0284 -0.5126
 4572SOL    HW218060   1.442   5.979   4.727  1.9266 -0.3425 -2.4012
 4572SOL    HW318061   1.422   5.829   4.732 -0.8867  0.0158 -0.1121
 4572SOL    MW418062   1.458   5.901   4.764  0.0331  0.1110  0.5314
 4573SOL     OW18063   5.363   3.082   6.423 -0.6437 -0.6195 -0.2439
 4573SOL    HW218064   5.387   3.029   6.347 -0.2343  0.7063 -1.0716
 4573SOL    HW318065   5.439   3.077   6.481 -1.4483 -2.6965  0.7493
 4573SOL    MW418066   5.376   3.074   6.421  0.2658  0.0999  0.0733
 4574SOL     OW18067   0.897   3.498   4.393 -0.5517 -0.3906  0.1274
 4574SOL    HW218068   0.919   3.512   4.301 -0.3035  0.0680  0.2526
 4574SOL    HW318069   0.802   3.490   4.395 -0.6460  0.5735 -0.0475
 4574SOL    MW418070   0.888   3.499   4.381  0.6015  0.1870 -0.2864
 4575SOL     OW18071   2.369   5.277   6.377 -0.4975  0.6657 -0.1264
 4575SOL    HW218072   2.357   5.311   6.289  1.1330  0.6876 -0.3675
 4575SOL    HW318073   2.450   5.227   6.373 -0.0350  1.2150  1.5103
 4575SOL    MW418074   2.378   5.275   6.365 -0.6389 -0.3058  0.1580
 4576SOL     OW18075   1.689   2.181   4.743  0.9556 -0.2796 -0.3135
 4576SOL    HW218076   1.713   2.262   4.789  1.1396  0.5970 -1.8817
 4576SOL    HW318077   1.599   2.195   4.715 -0.4472 -2.2112  2.6311
 4576SOL    MW418078   1.680   2.193   4.746  0.0104  0.1995  0.1547
 4577SOL     OW18079   1.033   4.654   1.481  0.5332 -0.5900  0.1016
 4577SOL    HW218080   0.943   4.685   1.471 -0.3652 -2.8249  0.7299
 4577SOL    HW318081   1.044   4.589   1.412  0.9957 -1.7177  1.2103
 4577SOL    MW418082   1.022   4.650   1.471 -0.3500  0.0897 -0.1022
 4578SOL     OW18083   6.275   0.250   4.392 -0.2639  0.0269  0.7422
 4578SOL    HW218084   6.300   0.337   4.362 -0.7118  0.0900  0.5416
 4578SOL    HW318085   6.183   0.258   4.416 -0.1069 -0.2061  1.4478
 4578SOL    MW418086   6.266   0.262   4.391  0.4044  0.6264 -0.3510
 4579SOL     OW18087   4.111   4.190   6.118  0.1370 -0.1758  0.7236
 4579SOL    HW218088   4.098   4.114   6.061 -0.3464  0.7611 -0.4684
 4579SOL    HW318089   4.202   4.182   6.148  0.8535 -0.0439 -1.2479
 4579SOL    MW418090   4.121   4.179   6.114 -1.0780 -0.3923  0.1624
 4580SOL     OW18091   4.595   2.517   0.481 -0.0910 -0.0161  0.4491
 4580SOL    HW218092   4.669   2.547   0.429 -0.2052 -0.5297 -0.0135
 4580SOL    HW318093   4.629   2.441   0.530 -0.3129 -0.2622  0.2240
 4580SOL    MW418094   4.609   2.511   0.481 -0.1681 -0.6924 -0.2199
 4581SOL     OW18095   2.300   2.654   1.211 -0.1169 -0.1144 -0.2017
 4581SOL    HW218096   2.249   2.611   1.142 -0.4898  1.1861 -0.7875
 4581SOL    HW318097   2.246   2.643   1.290 -0.9770  0.5978 -0.6625
 4581SOL    MW418098   2.286   2.647   1.213 -0.1778 -0.4183  0.3711
 4582SOL     OW18099   4.014   6.086   5.342 -0.5457  0.3318  0.8872
 4582SOL    HW218100   4.006   6.179   5.362 -1.5133  0.2722  0.8240
 4582SOL    HW318101   3.981   6.077   5.253 -2.0627 -0.2971  1.4696
 4582SOL    MW418102   4.009   6.097   5.333  0.0531 -0.0315  0.2492
 4583SOL     OW18103   1.316   2.696   4.388  0.2543  0.2690 -0.1638
 4583SOL    HW218104   1.328   2.633   4.459  1.4397 -1.5735 -1.8916
 4583SOL    HW318105   1.221   2.703   4.378  0.0836 -0.1834  0.9410
 4583SOL    MW418106   1.305   2.689   4.396 -0.0725  0.0219 -0.1492
 4584SOL     OW18107   5.982   5.252   0.152  0.0113  0.0471 -0.1615
 4584SOL    HW218108   5.941   5.229   0.235 -1.6162  0.0490 -0.9240
 4584SOL    HW318109   6.057   5.305   0.176 -1.1739  1.1493  1.2730
 4584SOL    MW418110   5.986   5.256   0.166 -0.2905 -0.3263 -0.2891
 4585SOL     OW18111   1.141   1.000   6.335 -0.0501  0.7356  0.2133
 4585SOL    HW218112   1.200   0.924   6.326  0.2316  1.0748 -0.9949
 4585SOL    HW318113   1.194   1.066   6.379  0.5702  1.0991 -1.0212
 4585SOL    MW418114   1.156   0.998   6.339 -0.0700 -0.4679  0.7863
 4586SOL     OW18115   0.511   0.665   0.842  0.1537 -0.2275 -0.1172
 4586SOL    HW218116   0.450   0.737   0.823  0.2110 -0.3577 -0.8121
 4586SOL    HW318117   0.561   0.654   0.761 -0.0109 -1.2047 -0.0992
 4586SOL    MW418118   0.509   0.673   0.828 -0.3427 -0.0326 -0.2188
 4587SOL     OW18119   1.857   2.778   0.751 -0.0617  0.1212  0.3733
 4587SOL    HW218120   1.879   2.694   0.712  0.9668  0.4323  0.2667
 4587SOL    HW318121   1.840   2.758   0.843 -0.2246 -0.2596  0.2608
 4587SOL    MW418122   1.858   2.765   0.758 -0.1916  0.8933  0.5714
 4588SOL     OW18123   1.299   6.250   3.931  0.7090 -0.8379  0.4427
 4588SOL    HW218124   1.253   6.317   3.981  0.8464 -0.3917 -0.0267
 4588SOL    HW318125   1.231   6.202   3.885  0.7690  1.0789 -1.8457
 4588SOL    MW418126   1.284   6.253   3.932 -0.2126  0.3971  0.5190
 4589SOL     OW18127   4.165   4.895   5.969  0.3949 -0.3501  0.1388
 4589SOL    HW218128   4.166   4.826   5.903 -1.5884  0.4865 -0.8660
 4589SOL    HW318129   4.143   4.974   5.920  1.1607  0.7381  1.4881
 4589SOL    MW418130   4.162   4.896   5.954 -0.1900 -0.7844  0.7291
 4590SOL     OW18131   3.915   5.612   1.570  0.2348 -0.0233 -0.0117
 4590SOL    HW218132   3.871   5.679   1.622  0.1389 -0.5025  0.5352
 4590SOL    HW318133   3.855   5.596   1.497  0.3656  0.6447 -0.2713
 4590SOL    MW418134   3.901   5.619   1.567 -0.6710  0.3133  0.3368
 4591SOL     OW18135   4.081   2.955   3.721 -0.1793 -0.0118 -0.2727
 4591SOL    HW218136   4.150   2.993   3.666 -1.6712  1.7750 -1.0123
 4591SOL    HW318137   4.110   2.970   3.810  0.3813  0.7534 -0.5744
 4591SOL    MW418138   4.094   2.962   3.725  0.0019 -0.0263  0.2042
 4592SOL     OW18139   1.881   0.367   0.670 -0.3113  0.0538 -0.2895
 4592SOL    HW218140   1.880   0.370   0.766 -2.0085 -0.0702 -0.2767
 4592SOL    HW318141   1.821   0.438   0.644  1.3005  1.1015 -1.3165
 4592SOL    MW418142   1.873   0.377   0.680  0.2789  0.1415  0.0176
 4593SOL     OW18143   5.238   4.245   2.798 -0.0379  0.1449  0.0738
 4593SOL    HW218144   5.282   4.202   2.872 -0.1930 -0.2345 -0.0555
 4593SOL    HW318145   5.154   4.274   2.834 -0.1244 -0.0628  0.0390
 4593SOL    MW418146   5.233   4.244   2.813  0.6487  0.6447 -0.2677
 4594SOL     OW18147   0.007   4.073   1.891  0.1124  0.1471 -0.3432
 4594SOL    HW218148   0.019   3.987   1.932 -1.0807 -0.3558 -1.0083
 4594SOL    HW318149  -0.016   4.053   1.800  0.2059  1.1820 -0.6004
 4594SOL    MW418150   0.005   4.059   1.884 -0.2168 -0.0708  0.0614
 4595SOL     OW18151   4.954   2.715   4.441 -0.7055 -0.1690  0.2949
 4595SOL    HW218152   4.957   2.643   4.504 -1.4665  0.4768  1.0958
 4595SOL    HW318153   5.038   2.712   4.396 -0.2045 -0.7319  1.2524
 4595SOL    MW418154   4.965   2.705   4.444 -0.0078  0.2211 -0.4685
 4596SOL     OW18155   6.236   2.870   2.906  0.0283  0.1963  0.6587
 4596SOL    HW218156   6.204   2.952   2.941  0.5374  1.2016 -1.0913
 4596SOL    HW318157   6.159   2.828   2.868  0.1444  0.9838 -0.4940
 4596SOL    MW418158   6.222   2.875   2.906  0.4257 -0.3303  0.7432
 4597SOL     OW18159   3.176   3.669   2.217 -0.3826 -0.0582  0.0570
 4597SOL    HW218160   3.107   3.609   2.247  0.4836 -1.2610 -0.2545
 4597SOL    HW318161   3.215   3.702   2.298 -0.0647 -0.8908  0.2549
 4597SOL    MW418162   3.172   3.665   2.232 -0.0201 -0.2571 -0.9624
 4598SOL     OW18163   4.146   3.449   5.017 -0.2642 -0.3908  0.0498
 4598SOL    HW218164   4.194   3.431   4.936 -1.0134  0.6299 -0.6355
 4598SOL    HW318165   4.204   3.418   5.086  0.8493 -0.3137 -0.8249
 4598SOL    MW418166   4.160   3.442   5.015  0.7153  0.2850 -0.6603
 4599SOL     OW18167   4.187   6.121   1.200  0.0757 -0.2511 -0.0436
 4599SOL    HW218168   4.168   6.137   1.292 -0.4658 -1.5576  0.0999
 4599SOL    HW318169   4.103   6.135   1.156  0.3582  0.4746 -0.3509
 4599SOL    MW418170   4.173   6.125   1.206  0.1721 -0.4079 -0.4764
 4600SOL     OW18171   3.938   3.358   0.593 -0.1215 -0.1794  0.2613
 4600SOL    HW218172   4.010   3.361   0.530 -1.0497 -1.1180 -0.8722
 4600SOL    HW318173   3.964   3.421   0.661  0.7595  1.1046 -1.1898
 4600SOL    MW418174   3.951   3.367   0.594  0.2276 -1.3464 -0.0460
 4601SOL     OW18175   0.739   5.092   1.833  0.1079 -0.2080  0.0481
 4601SOL    HW218176   0.643   5.091   1.826 -0.1065  1.4119  1.6889
 4601SOL    HW318177   0.767   5.157   1.769  0.2338 -1.4722 -1.2054
 4601SOL    MW418178   0.730   5.101   1.824  0.6387 -0.4661  0.0438
 4602SOL     OW18179   1.612   4.354   1.811  0.2168  0.2395 -0.7416
 4602SOL    HW218180   1.521   4.365   1.786 -0.2297  0.7414  0.9566
 4602SOL    HW318181   1.628   4.423   1.875  1.4201 -0.6142 -0.0714
 4602SOL    MW418182   1.602   4.364   1.816 -0.7339  0.1639 -0.3132
 4603SOL     OW18183   1.861   2.736   6.289 -0.5757  0.3460  0.7280
 4603SOL    HW218184   1.823   2.745   6.376 -0.6904  1.9974  0.5487
 4603SOL    HW318185   1.948   2.700   6.304 -1.0749 -0.5994  1.4045
 4603SOL    MW418186   1.868   2.733   6.302  0.1754  0.0401 -0.5302
 4604SOL     OW18187   3.287   1.142   2.605 -0.2925 -0.3506  0.0694
 4604SOL    HW218188   3.266   1.062   2.653  1.6549 -0.2813  1.1391
 4604SOL    HW318189   3.286   1.116   2.513 -0.3532 -1.4508  0.3665
 4604SOL    MW418190   3.284   1.128   2.600 -0.4274 -0.4976 -0.1334
 4605SOL     OW18191   4.775   1.556   2.481 -0.9919 -0.3975  0.4946
 4605SOL    HW218192   4.725   1.515   2.410  1.6717 -1.6597 -0.8005
 4605SOL    HW318193   4.775   1.649   2.459 -1.0945 -0.6451 -0.6272
 4605SOL    MW418194   4.769   1.563   2.469  0.5110  0.0451  1.0640
 4606SOL     OW18195   3.233   5.311   0.351 -0.6735  0.2933 -0.2817
 4606SOL    HW218196   3.318   5.296   0.310 -0.6010  2.0608 -0.8535
 4606SOL    HW318197   3.221   5.236   0.410 -1.1667 -2.8413 -4.0019
 4606SOL    MW418198   3.242   5.299   0.354  0.2277 -0.5609  0.1944
 4607SOL     OW18199   3.960   3.089   1.475 -0.8234 -0.1450  0.2523
 4607SOL    HW218200   3.930   3.003   1.502  0.0249 -0.7828 -0.7582
 4607SOL    HW318201   3.945   3.091   1.381 -0.4978  0.6666  0.2103
 4607SOL    MW418202   3.954   3.078   1.466  0.0822 -0.9136  0.2210
 4608SOL     OW18203   2.085   1.131   3.539  0.2461 -0.6253 -0.4558
 4608SOL    HW218204   2.074   1.225   3.525 -0.7130 -0.8738 -1.5298
 4608SOL    HW318205   2.048   1.091   3.460  0.8531 -1.9004 -0.1205
 4608SOL    MW418206   2.079   1.138   3.527 -0.5760  0.4211 -0.0328
 4609SOL     OW18207   1.141   2.890   2.954 -0.4809 -0.1246  0.8436
 4609SOL    HW218208   1.081   2.815   2.948  0.6934 -1.1056  0.8238
 4609SOL    HW318209   1.133   2.919   3.045 -0.2902 -0.8706  1.1126
 4609SOL    MW418210   1.132   2.884   2.965  0.0030 -0.0508  0.5552
 4610SOL     OW18211   4.694   2.633   1.174  0.0107  0.2534  0.1334
 4610SOL    HW218212   4.731   2.559   1.222 -2.2355  1.3383  4.0175
 4610SOL    HW318213   4.757   2.704   1.186 -0.3456  0.3997  1.2483
 4610SOL    MW418214   4.707   2.633   1.182  0.2637  0.5531  0.0814
 4611SOL     OW18215   0.145   1.772   2.271  0.5915 -0.4787 -0.0679
 4611SOL    HW218216   0.059   1.814   2.270  1.6477  1.8845 -0.4425
 4611SOL    HW318217   0.207   1.845   2.265  2.6809 -1.9849  1.4971
 4611SOL    MW418218   0.142   1.787   2.270  0.5125 -0.1886  0.2742
 4612SOL     OW18219   6.106   2.460   4.058  0.4428 -0.0401 -0.2878
 4612SOL    HW218220   6.141   2.492   3.975 -0.0752  0.9696 -0.1335
 4612SOL    HW318221   6.184   2.440   4.111  0.7749  0.2475 -0.6656
 4612SOL    MW418222   6.121   2.462   4.054  0.1925  0.0516  0.0829
 4613SOL     OW18223   3.037   5.425   4.608  0.6795 -0.0284 -0.1253
 4613SOL    HW218224   2.981   5.494   4.572 -0.2920 -1.7240 -2.1253
 4613SOL    HW318225   2.981   5.381   4.673  1.7285  1.7340  2.1142
 4613SOL    MW418226   3.022   5.428   4.612  0.2362  0.3347  0.7790
 4614SOL     OW18227   2.662   4.485   0.440  0.3233  0.1167  1.5543
 4614SOL    HW218228   2.685   4.433   0.364 -0.0856  1.2481  0.6208
 4614SOL    HW318229   2.583   4.443   0.475 -0.3866  0.4804  0.4236
 4614SOL    MW418230   2.655   4.473   0.435 -0.1020  0.0069 -0.1551
 4615SOL     OW18231   2.486   5.290   3.310  0.2856 -0.2290  0.1022
 4615SOL    HW218232   2.461   5.198   3.316 -0.0275 -0.1708 -0.3101
 4615SOL    HW318233   2.422   5.336   3.364  1.2302 -0.3885  1.3975
 4615SOL    MW418234   2.474   5.284   3.318 -0.0307 -0.2966  0.3476
 4616SOL     OW18235   0.250   4.537   0.970  0.0670 -0.4914 -0.3344
 4616SOL    HW218236   0.330   4.587   0.985  0.7115 -1.5638 -0.0618
 4616SOL    HW318237   0.226   4.556   0.879  0.5915 -0.1098 -0.3953
 4616SOL    MW418238   0.257   4.546   0.960  0.7004  0.2656  0.4638
 4617SOL     OW18239   2.698   4.960   3.265 -0.0484  0.2080  0.7298
 4617SOL    HW218240   2.746   5.029   3.220  1.0430  0.5156  2.2918
 4617SOL    HW318241   2.740   4.879   3.235  1.7680  0.4793  2.2912
 4617SOL    MW418242   2.710   4.958   3.255 -0.0002  0.3217  0.2004
 4618SOL     OW18243   3.215   2.367   1.992 -0.0006  0.4556 -0.8615
 4618SOL    HW218244   3.245   2.445   2.038  1.0236  0.0660 -0.8306
 4618SOL    HW318245   3.180   2.311   2.061 -0.9345  0.9600 -0.9101
 4618SOL    MW418246   3.214   2.370   2.007 -0.4224  1.2231 -0.3705
 4619SOL     OW18247   4.377   6.138   5.661  0.1549 -0.1014  0.4952
 4619SOL    HW218248   4.313   6.182   5.716 -0.0137 -0.1288  0.3213
 4619SOL    HW318249   4.366   6.045   5.682 -0.5902 -0.2009 -0.3015
 4619SOL    MW418250   4.367   6.131   5.671 -0.4372  0.1773 -0.5472
 4620SOL     OW18251   2.705   2.975   1.901  0.5531  0.2769 -0.1402
 4620SOL    HW218252   2.796   2.947   1.891  0.6516  0.0229  1.2114
 4620SOL    HW318253   2.680   2.945   1.989 -0.5496  1.1185 -0.1331
 4620SOL    MW418254   2.714   2.968   1.912 -0.0517 -0.3476 -0.6488
 4621SOL     OW18255   0.996   2.128   0.021 -0.2582 -0.0017  0.2388
 4621SOL    HW218256   1.066   2.162  -0.035 -0.7928  0.7827  0.0278
 4621SOL    HW318257   1.019   2.159   0.109 -0.3102  0.2107  0.1788
 4621SOL    MW418258   1.009   2.137   0.025  0.5736  0.2714  0.3689
 4622SOL     OW18259   2.241   5.566   1.153  0.4230  0.5360 -0.5085
 4622SOL    HW218260   2.212   5.655   1.134 -1.7663  0.2803  1.1938
 4622SOL    HW318261   2.203   5.546   1.239  2.2960 -1.4523 -0.0393
 4622SOL    MW418262   2.232   5.575   1.162  0.0317  0.0214 -0.5629
 4623SOL     OW18263   5.711   1.955   5.595 -0.2605  0.6245 -0.1698
 4623SOL    HW218264   5.669   1.896   5.532  0.1936  0.9644 -0.7953
 4623SOL    HW318265   5.805   1.943   5.580 -0.0753 -0.6410  1.6854
 4623SOL    MW418266   5.718   1.946   5.585  0.1101  0.4690  0.5703
 4624SOL     OW18267   0.853   4.102   0.609  0.3916 -0.3922 -0.1018
 4624SOL    HW218268   0.785   4.139   0.553  0.6234 -0.0386 -0.1535
 4624SOL    HW318269   0.806   4.056   0.678  0.0380  1.8753  1.2766
 4624SOL    MW418270   0.838   4.101   0.611  0.5587 -0.6986  0.1365
 4625SOL     OW18271   6.372   2.777   1.206  0.3115 -0.1602  0.3817
 4625SOL    HW218272   6.381   2.703   1.266 -3.6824 -0.3925  0.9550
 4625SOL    HW318273   6.339   2.738   1.125 -1.4970  0.8703  0.5713
 4625SOL    MW418274   6.369   2.762   1.203  0.4299 -0.2833  0.1109
 4626SOL     OW18275   5.240   6.217   4.773  0.1716 -0.1372  0.6550
 4626SOL    HW218276   5.278   6.168   4.845 -0.6014  0.0751  1.2125
 4626SOL    HW318277   5.146   6.203   4.780  0.1235 -0.7114 -0.7473
 4626SOL    MW418278   5.232   6.209   4.783 -0.2691 -0.1399  0.6078
 4627SOL     OW18279   3.086   3.095   0.164  0.0715 -0.1759 -0.6013
 4627SOL    HW218280   3.138   3.140   0.230 -1.0567  0.6107 -0.2144
 4627SOL    HW318281   3.076   3.006   0.198 -0.8535  0.3328  0.5372
 4627SOL    MW418282   3.092   3.089   0.177  0.5960  0.0772  0.8367
 4628SOL     OW18283   2.504   0.516   3.634 -0.0493  0.1746  0.0029
 4628SOL    HW218284   2.559   0.453   3.588 -0.0211  0.6165 -0.5795
 4628SOL    HW318285   2.524   0.600   3.592  0.4270  0.6970  1.2203
 4628SOL    MW418286   2.514   0.519   3.623 -0.1718  0.1445 -0.1199
 4629SOL     OW18287   0.934   4.483   0.898 -0.6746 -0.2487  0.2974
 4629SOL    HW218288   0.841   4.500   0.887 -0.3119  0.7011 -1.7158
 4629SOL    HW318289   0.938   4.390   0.923 -2.1284 -0.4466 -0.1045
 4629SOL    MW418290   0.923   4.473   0.900  0.4142  0.7603 -0.5796
 4630SOL     OW18291   1.139   4.154   2.662 -1.2343  0.0312 -0.6801
 4630SOL    HW218292   1.126   4.076   2.608  1.5028 -0.0877 -1.2732
 4630SOL    HW318293   1.168   4.221   2.600  2.3679 -0.2166  0.5512
 4630SOL    MW418294   1.141   4.153   2.646 -0.4261 -0.3003 -0.5444
 4631SOL     OW18295   5.589   1.702   2.880 -0.4815 -0.4046 -0.4363
 4631SOL    HW218296   5.607   1.794   2.900  0.1203 -0.3118 -1.3730
 4631SOL    HW318297   5.609   1.655   2.961 -0.6350  0.2629 -0.0069
 4631SOL    MW418298   5.594   1.708   2.894 -0.2860 -0.3050  0.3518
 4632SOL     OW18299   1.344   2.860   1.661 -0.5452 -0.3808  0.4901
 4632SOL    HW218300   1.251   2.872   1.646 -0.4840 -1.5794 -1.1382
 4632SOL    HW318301   1.386   2.908   1.590  0.0945  0.2705  1.2908
 4632SOL    MW418302   1.338   2.868   1.650 -0.3005 -0.5762  0.3226
 4633SOL     OW18303   4.016   3.084   1.188 -0.1915  0.2345 -0.5023
 4633SOL    HW218304   4.079   3.138   1.140  1.0422 -0.8884 -0.1997
 4633SOL    HW318305   4.069   3.014   1.226 -1.7618 -1.3430 -1.0862
 4633SOL    MW418306   4.031   3.082   1.186 -0.1398 -0.7333 -0.2046
 4634SOL     OW18307   2.405   4.219   6.292  0.0604 -0.1747 -0.1613
 4634SOL    HW218308   2.315   4.245   6.311  0.7642  0.5637  2.5797
 4634SOL    HW318309   2.443   4.295   6.249 -0.1894  0.1257  0.1420
 4634SOL    MW418310   2.398   4.232   6.289  0.0357  0.3639 -0.1882
 4635SOL     OW18311   3.896   3.310   6.406  0.3771 -0.2861  0.3500
 4635SOL    HW218312   3.877   3.404   6.405 -1.2160 -0.5775 -0.4455
 4635SOL    HW318313   3.832   3.272   6.345  1.5914 -1.7821 -0.0452
 4635SOL    MW418314   3.885   3.317   6.398  0.5367  0.7439 -0.4727
 4636SOL     OW18315   0.883   4.841   6.225  0.1947  0.2441  0.5704
 4636SOL    HW218316   0.855   4.925   6.260 -0.1831  0.4115 -0.1129
 4636SOL    HW318317   0.840   4.835   6.139 -0.2583 -0.9027  0.8581
 4636SOL    MW418318   0.873   4.851   6.218  0.1350  0.3926 -0.0249
 4637SOL     OW18319   0.061   2.414   4.877  0.5113  0.3808  0.7257
 4637SOL    HW218320   0.081   2.324   4.904 -0.7312 -0.0942  0.1540
 4637SOL    HW318321  -0.009   2.441   4.937 -0.7834  0.0800 -0.5940
 4637SOL    MW418322   0.054   2.406   4.889  0.0826  0.6395  0.1612
 4638SOL     OW18323   3.395   4.434   1.763  0.1439  0.1630 -0.1995
 4638SOL    HW218324   3.350   4.378   1.826 -0.0424  0.5822  0.0470
 4638SOL    HW318325   3.471   4.382   1.735  0.3172  0.0280  0.4862
 4638SOL    MW418326   3.399   4.420   1.768 -0.0322  0.1087  0.0729
 4639SOL     OW18327   4.576   4.001   4.381 -0.1222 -0.3215 -0.2490
 4639SOL    HW218328   4.618   4.005   4.468 -0.6113  0.2235 -0.0315
 4639SOL    HW318329   4.515   4.075   4.381 -2.6155 -2.2522  0.2187
 4639SOL    MW418330   4.574   4.011   4.393 -0.7447  0.4221  0.3192
 4640SOL     OW18331   2.451   1.104   2.306 -0.1229  0.5305  0.4952
 4640SOL    HW218332   2.522   1.063   2.356 -0.1299 -0.6318 -0.3983
 4640SOL    HW318333   2.375   1.098   2.364 -0.4069 -1.8364 -0.0002
 4640SOL    MW418334   2.450   1.098   2.321  0.3640  1.2485  0.0063
 4641SOL     OW18335   2.418   1.483   2.323  0.2525 -0.1181  0.1846
 4641SOL    HW218336   2.464   1.563   2.297  0.1488  0.4114  1.5689
 4641SOL    HW318337   2.375   1.505   2.405  0.4251 -1.6706  0.7298
 4641SOL    MW418338   2.419   1.496   2.330 -0.5170  0.3848 -0.5545
 4642SOL     OW18339   6.295   2.268   1.619 -0.2565 -0.2733  0.5777
 4642SOL    HW218340   6.288   2.361   1.638  1.0829 -0.1740  0.7051
 4642SOL    HW318341   6.314   2.264   1.526  0.6157 -0.3493  0.7465
 4642SOL    MW418342   6.297   2.280   1.609 -0.1484 -0.0871 -0.0778
 4643SOL     OW18343   0.460   5.875   2.887 -0.6657 -0.4861  0.2619
 4643SOL    HW218344   0.415   5.944   2.937 -0.5525 -0.7242  0.6957
 4643SOL    HW318345   0.404   5.860   2.811  0.1152  1.2564 -0.7380
 4643SOL    MW418346   0.447   5.882   2.884 -0.1888  0.3913  0.1826
 4644SOL     OW18347   4.299   2.247   4.680 -0.5196 -0.6801  0.5145
 4644SOL    HW218348   4.378   2.292   4.649 -1.7145  1.9766  1.0594
 4644SOL    HW318349   4.275   2.188   4.609  1.5411 -1.0474  0.0667
 4644SOL    MW418350   4.306   2.245   4.667  0.7297  0.0690  0.0431
 4645SOL     OW18351   5.930   4.632   4.545 -0.7439 -0.1206  0.0940
 4645SOL    HW218352   5.965   4.692   4.612 -0.2356  0.7457 -0.9088
 4645SOL    HW318353   5.980   4.552   4.557  0.9965  0.7863 -0.6908
 4645SOL    MW418354   5.941   4.630   4.556 -0.2877  0.3327 -0.7146
 4646SOL     OW18355   5.973   6.188   1.480  0.2454 -0.2383 -0.4006
 4646SOL    HW218356   6.051   6.239   1.503  0.3218 -0.5199 -0.0279
 4646SOL    HW318357   6.008   6.105   1.447  0.0931 -0.5518  0.2273
 4646SOL    MW418358   5.988   6.184   1.478  0.1752 -0.4721  0.6528
 4647SOL     OW18359   4.257   3.803   5.784 -0.0589 -0.1033 -0.0734
 4647SOL    HW218360   4.188   3.836   5.726 -0.5489 -0.3022  0.3913
 4647SOL    HW318361   4.210   3.761   5.856  0.5544 -1.1170 -0.2504
 4647SOL    MW418362   4.242   3.802   5.786 -0.3203  0.3518  0.2366
 4648SOL     OW18363   4.277   2.592   5.337  0.3734 -0.1185 -0.1062
 4648SOL    HW218364   4.343   2.523   5.338  0.9709  0.4162 -0.9732
 4648SOL    HW318365   4.197   2.550   5.367  1.1284 -0.7606  1.0404
 4648SOL    MW418366   4.275   2.577   5.341 -0.0223 -0.3694 -0.0785
 4649SOL     OW18367   2.455   3.517   3.330 -0.1808 -0.3732 -0.7821
 4649SOL    HW218368   2.446   3.455   3.402 -1.2800  0.9652  0.3008
 4649SOL    HW318369   2.535   3.566   3.350  0.3845 -1.0651 -1.3381
 4649SOL    MW418370   2.464   3.516   3.342 -0.1790  0.3212 -0.2573
 4650SOL     OW18371   5.415   5.989   3.932  0.2293  0.2270  0.4077
 4650SOL    HW218372   5.459   5.963   3.851  0.8505 -0.2722  0.8890
 4650SOL    HW318373   5.485   5.992   3.997 -0.2753  0.5367  0.9513
 4650SOL    MW418374   5.430   5.986   3.930 -0.6884 -0.1356  0.3484
 4651SOL     OW18375   0.950   3.065   3.380 -0.1530 -0.5442 -0.5921
 4651SOL    HW218376   0.970   3.066   3.474  0.8376 -1.8696 -0.7502
 4651SOL    HW318377   0.882   2.998   3.371 -0.7309  0.0560 -0.7470
 4651SOL    MW418378   0.944   3.056   3.391 -0.0922 -0.1558  0.3422
 4652SOL     OW18379   0.538   2.682   4.791  0.0616  0.1853 -0.0214
 4652SOL    HW218380   0.623   2.704   4.832  0.5762  0.0076 -0.9721
 4652SOL    HW318381   0.502   2.614   4.848  0.9114 -0.2865 -0.0188
 4652SOL    MW418382   0.545   2.676   4.804  0.2490  0.0675  0.1631
 4653SOL     OW18383   5.468   2.697   1.190 -0.0528 -0.1352  0.5751
 4653SOL    HW218384   5.449   2.613   1.232 -2.5403  0.0627  0.0273
 4653SOL    HW318385   5.464   2.679   1.096 -2.8090  0.8932  0.3939
 4653SOL    MW418386   5.465   2.684   1.183  0.1117  0.0428  0.2370
 4654SOL     OW18387   4.203   5.062   3.302  0.3667  0.0039 -0.2122
 4654SOL    HW218388   4.134   5.044   3.239  1.2812 -0.2116 -1.1724
 4654SOL    HW318389   4.167   5.034   3.386 -1.5130  1.8304 -0.3318
 4654SOL    MW418390   4.189   5.056   3.305 -0.5704 -0.0807 -0.2153
 4655SOL     OW18391   3.802   4.438   5.093  0.4381 -0.2162  0.1643
 4655SOL    HW218392   3.883   4.469   5.134  0.4409  1.4189 -1.0119
 4655SOL    HW318393   3.735   4.452   5.160  0.7753  0.4388  0.3743
 4655SOL    MW418394   3.804   4.444   5.108 -0.0127  0.2087 -0.3982
 4656SOL     OW18395   4.576   1.251   3.674 -0.2525  0.8354 -0.1146
 4656SOL    HW218396   4.516   1.251   3.600  1.4966 -0.7718 -1.6562
 4656SOL    HW318397   4.656   1.291   3.640  0.3828  0.6324  1.0940
 4656SOL    MW418398   4.579   1.256   3.660  0.6349  0.7791 -0.5894
 4657SOL     OW18399   4.636   4.613   3.072  0.6604  0.0597  0.2112
 4657SOL    HW218400   4.617   4.526   3.037  0.7586 -0.4015  1.2647
 4657SOL    HW318401   4.587   4.673   3.016  1.1076 -0.6123 -0.9307
 4657SOL    MW418402   4.627   4.609   3.060  0.4409 -0.4322  0.0283
 4658SOL     OW18403   0.353   3.056   1.281  0.2038 -0.3297 -0.4748
 4658SOL    HW218404   0.419   2.987   1.271 -0.0178 -0.4932 -0.8809
 4658SOL    HW318405   0.403   3.137   1.282  0.2934 -0.2292 -3.5085
 4658SOL    MW418406   0.368   3.057   1.280  0.0406  0.1176  0.6402
 4659SOL     OW18407   5.016   5.575   1.437  0.3736 -0.6686  0.5265
 4659SOL    HW218408   5.073   5.635   1.389 -1.2710  0.5696  0.0248
 4659SOL    HW318409   5.020   5.606   1.528 -1.9549  1.6105 -0.0027
 4659SOL    MW418410   5.024   5.587   1.443  0.6023  0.0470  0.1098
 4660SOL     OW18411   3.203   3.783   5.012 -0.0135  0.8049 -0.5705
 4660SOL    HW218412   3.178   3.869   5.046  0.8047  1.3648 -1.3630
 4660SOL    HW318413   3.163   3.780   4.925 -0.3270  0.2352 -0.4095
 4660SOL    MW418414   3.194   3.794   5.005 -0.1479 -0.0047  0.6361
 4661SOL     OW18415   0.542   0.925   5.636 -0.1438  0.3535  0.7301
 4661SOL    HW218416   0.536   0.832   5.614  0.5234  0.5708 -0.4125
 4661SOL    HW318417   0.474   0.938   5.703  0.5349 -1.1959  1.7885
 4661SOL    MW418418   0.532   0.915   5.642 -0.3272 -0.1256 -0.4917
 4662SOL     OW18419   0.539   3.984   2.158 -0.5829 -0.4115 -0.1857
 4662SOL    HW218420   0.482   3.961   2.085 -1.6212  1.3665 -0.0066
 4662SOL    HW318421   0.616   4.024   2.117 -0.1051 -1.4960 -0.3720
 4662SOL    MW418422   0.542   3.986   2.143  0.0148  0.3239  0.1514
 4663SOL     OW18423   4.244   5.751   2.313 -0.4895 -0.4104  0.5513
 4663SOL    HW218424   4.185   5.752   2.388  0.0886  0.6786  1.0232
 4663SOL    HW318425   4.239   5.662   2.279 -2.0465 -0.4566  0.8475
 4663SOL    MW418426   4.236   5.740   2.319  0.0695 -0.0012  0.1854
 4664SOL     OW18427   0.322   3.845   0.524 -0.3800  0.5800  0.8999
 4664SOL    HW218428   0.338   3.918   0.464  0.5912 -0.1704  0.2306
 4664SOL    HW318429   0.289   3.774   0.468 -0.3340  0.1646  1.3891
 4664SOL    MW418430   0.320   3.845   0.509 -0.3803 -0.4468 -0.1064
 4665SOL     OW18431   1.486   6.133   6.405 -0.0705 -0.1409  0.2448
 4665SOL    HW218432   1.567   6.181   6.423 -0.2493 -0.0657  0.8957
 4665SOL    HW318433   1.502   6.088   6.323  1.3694 -1.7503  1.3376
 4665SOL    MW418434   1.499   6.134   6.397 -0.3171  0.5348 -0.2916
 4666SOL     OW18435   4.510   5.953   1.472  0.1597  0.8635 -0.0660
 4666SOL    HW218436   4.472   5.903   1.399 -0.8354  0.0145  0.9933
 4666SOL    HW318437   4.435   6.000   1.510  0.0554 -0.8942  2.1077
 4666SOL    MW418438   4.495   5.953   1.467  0.6345  0.2061 -0.0075
 4667SOL     OW18439   3.468   5.683   0.028  0.2160  0.7433  0.0503
 4667SOL    HW218440   3.535   5.732   0.075  1.5122 -0.5689 -0.3510
 4667SOL    HW318441   3.512   5.655  -0.053 -0.8394 -0.1172 -0.2413
 4667SOL    MW418442   3.483   5.686   0.023  0.4480 -0.2662 -0.1965
 4668SOL     OW18443   1.056   5.430   5.490  0.3667 -0.0481  0.0705
 4668SOL    HW218444   1.001   5.415   5.567  0.0607  1.2010  0.1117
 4668SOL    HW318445   1.055   5.346   5.444 -3.3441  0.4526 -1.0866
 4668SOL    MW418446   1.049   5.417   5.494 -0.3228 -0.1352 -0.2415
 4669SOL     OW18447   0.025   5.838   2.967 -0.0614  0.1946 -0.5648
 4669SOL    HW218448   0.010   5.916   2.914 -1.1837  0.4992  0.1729
 4669SOL    HW318449   0.089   5.787   2.917  0.7704  1.6242 -0.9974
 4669SOL    MW418450   0.032   5.841   2.953 -0.1003 -0.9699 -0.0581
 4670SOL     OW18451   2.849   5.846   4.722 -0.3847  0.7743  0.2440
 4670SOL    HW218452   2.812   5.900   4.791 -1.0480 -0.0528  0.5476
 4670SOL    HW318453   2.774   5.806   4.679  0.0685  0.5273 -0.3374
 4670SOL    MW418454   2.834   5.848   4.726  0.1252 -0.3995 -0.5459
 4671SOL     OW18455   0.932   4.058   1.416 -0.0701 -0.0480 -0.5522
 4671SOL    HW218456   1.025   4.044   1.396  0.3505 -0.5098  1.5495
 4671SOL    HW318457   0.910   4.139   1.370  1.1164 -0.4189 -1.8264
 4671SOL    MW418458   0.941   4.067   1.407 -0.0380  0.6429  0.0794
 4672SOL     OW18459   3.607   4.661   1.611 -0.0473  0.0732  1.0051
 4672SOL    HW218460   3.553   4.658   1.532  0.0931  0.2122  0.9060
 4672SOL    HW318461   3.551   4.702   1.677 -0.3503 -0.5068  1.1206
 4672SOL    MW418462   3.592   4.666   1.609 -0.3867 -0.3090  0.2897
 4673SOL     OW18463   2.118   1.600   5.587 -0.4263 -0.2890 -0.0635
 4673SOL    HW218464   2.057   1.670   5.611  0.5371  1.1003 -1.4368
 4673SOL    HW318465   2.086   1.523   5.633 -2.9805  0.4750 -0.4340
 4673SOL    MW418466   2.106   1.599   5.596  0.1094  0.1256  0.4303
 4674SOL     OW18467   1.546   3.686   4.724  0.0310  0.9398 -0.0796
 4674SOL    HW218468   1.537   3.605   4.775 -0.2534  0.4354 -0.9084
 4674SOL    HW318469   1.459   3.726   4.727  0.4822  1.8843  1.3878
 4674SOL    MW418470   1.533   3.681   4.731 -0.0312  0.3091 -0.4028
 4675SOL     OW18471   4.481   4.985   4.743 -0.4209 -0.5937  0.5590
 4675SOL    HW218472   4.435   4.902   4.731 -0.9274 -0.2648  0.1838
 4675SOL    HW318473   4.519   5.004   4.657 -0.2904 -0.4442  0.6488
 4675SOL    MW418474   4.480   4.977   4.730  0.4502 -0.0634  0.1049
 4676SOL     OW18475   1.767   0.265   5.522 -0.0941  0.1804  0.3501
 4676SOL    HW218476   1.692   0.229   5.475 -0.7508  0.8679  0.8397
 4676SOL    HW318477   1.841   0.209   5.498 -0.6793 -0.2493 -0.4702
 4676SOL    MW418478   1.767   0.253   5.513  0.1349  0.3944  0.1077
 4677SOL     OW18479   1.240   4.370   4.058 -0.4470  0.4670 -0.1202
 4677SOL    HW218480   1.330   4.393   4.035 -0.5626  0.9706 -0.0764
 4677SOL    HW318481   1.231   4.279   4.030  0.3449  0.1321  0.6707
 4677SOL    MW418482   1.251   4.361   4.051 -0.4278 -0.4191 -0.5026
 4678SOL     OW18483   5.868   4.794   3.117  0.6977 -0.7963  0.6032
 4678SOL    HW218484   5.772   4.805   3.119  0.7720 -0.1499  0.9105
 4678SOL    HW318485   5.881   4.699   3.119  0.0708 -0.8790  1.1145
 4678SOL    MW418486   5.857   4.783   3.117  0.7209  0.4323  0.5310
 4679SOL     OW18487   6.279   0.315   1.212  0.0313 -0.0811 -0.6989
 4679SOL    HW218488   6.200   0.314   1.159  0.0603  0.5393 -0.7619
 4679SOL    HW318489   6.313   0.404   1.203 -1.6732  1.1094  2.8252
 4679SOL    MW418490   6.273   0.327   1.204 -0.5259  0.3538 -0.3924
 4680SOL     OW18491   1.328   3.128   6.311  0.1960 -0.3680 -0.3093
 4680SOL    HW218492   1.378   3.062   6.360  0.6489  0.4218  0.3188
 4680SOL    HW318493   1.241   3.125   6.351  0.0226 -1.0164 -0.7110
 4680SOL    MW418494   1.323   3.119   6.323  0.0003  0.5487 -0.0398
 4681SOL     OW18495   3.809   6.017   3.163  0.2467 -0.0481 -0.4889
 4681SOL    HW218496   3.752   5.951   3.204 -1.1074  1.5866  0.4116
 4681SOL    HW318497   3.872   6.040   3.231 -0.2175  0.6089 -0.2608
 4681SOL    MW418498   3.810   6.012   3.177 -0.1372  0.4063  0.3972
 4682SOL     OW18499   5.350   1.301   0.943 -0.0262 -0.3205 -0.4112
 4682SOL    HW218500   5.335   1.249   1.023 -0.8104 -2.2207 -1.7165
 4682SOL    HW318501   5.274   1.358   0.937 -0.5675 -1.0291 -0.4188
 4682SOL    MW418502   5.338   1.302   0.953 -0.1930 -0.3585 -0.5874
 4683SOL     OW18503   1.931   2.971   6.157 -0.0872  0.3843  0.3063
 4683SOL    HW218504   2.001   2.976   6.223  0.4800  0.3411 -0.2824
 4683SOL    HW318505   1.871   2.905   6.192  0.7652 -0.4405  0.2735
 4683SOL    MW418506   1.932   2.963   6.171  0.0014  0.1831  0.3893
 4684SOL     OW18507   5.788   4.141   0.265  0.3168 -0.1080 -0.2216
 4684SOL    HW218508   5.875   4.102   0.275 -0.1108 -1.0259  0.0831
 4684SOL    HW318509   5.729   4.065   0.257 -0.5054  0.4875  0.0742
 4684SOL    MW418510   5.792   4.126   0.266 -0.4029  0.7305 -0.4424
 4685SOL     OW18511   3.020   1.422   1.265  0.3289  0.6403  0.0425
 4685SOL    HW218512   3.105   1.443   1.225 -0.0187 -2.4643 -2.7674
 4685SOL    HW318513   3.043   1.393   1.353  2.0816  0.8090 -0.3098
 4685SOL    MW418514   3.034   1.421   1.271  0.0897  0.4127  0.5499
 4686SOL     OW18515   3.902   3.164   2.396 -0.0324 -0.2615 -0.1902
 4686SOL    HW218516   3.915   3.248   2.440  0.2605 -0.9753  1.1466
 4686SOL    HW318517   3.964   3.104   2.440  0.6870 -0.8902 -1.9756
 4686SOL    MW418518   3.912   3.167   2.408 -0.9199  0.3610 -0.4499
 4687SOL     OW18519   0.080   1.368   4.324  0.1710  0.3845  0.2824
 4687SOL    HW218520   0.012   1.384   4.259 -0.4394  1.5136  1.1672
 4687SOL    HW318521   0.064   1.278   4.354 -0.2276  0.2531 -0.3117
 4687SOL    MW418522   0.069   1.358   4.320  0.3971 -0.2098 -0.0425
 4688SOL     OW18523   4.241   2.122   5.998 -0.1117 -0.0692  0.3039
 4688SOL    HW218524   4.262   2.096   5.908  2.1685  1.5575  0.2667
 4688SOL    HW318525   4.278   2.210   6.006 -4.2314  1.7809  1.4859
 4688SOL    MW418526   4.249   2.130   5.987  0.1322 -0.1858  0.7913
 4689SOL     OW18527   5.943   0.136   4.203  0.0395 -0.0713  0.4389
 4689SOL    HW218528   5.858   0.140   4.160  0.2949  0.7213  0.0016
 4689SOL    HW318529   5.945   0.049   4.244 -0.9165 -0.1500  0.3348
 4689SOL    MW418530   5.932   0.125   4.203  0.3065 -0.0297  0.5928
 4690SOL     OW18531   1.295   5.476   5.041  0.5197 -0.0090 -0.5388
 4690SOL    HW218532   1.250   5.547   5.089 -0.2183 -0.6801 -0.2188
 4690SOL    HW318533   1.289   5.401   5.100 -1.0505 -1.0657 -1.9422
 4690SOL    MW418534   1.288   5.476   5.055 -0.4381  0.1519  0.2638
 4691SOL     OW18535   5.808   3.472   0.920 -0.3590 -0.2534 -0.7198
 4691SOL    HW218536   5.842   3.471   0.831 -0.3054  1.3942 -0.7492
 4691SOL    HW318537   5.885   3.483   0.976 -0.5391  0.6621 -0.6191
 4691SOL    MW418538   5.823   3.474   0.916  0.6479  0.6538  0.1424
 4692SOL     OW18539   3.845   3.557   1.814 -0.2738 -0.0730  0.5904
 4692SOL    HW218540   3.810   3.614   1.745 -1.1899 -0.2583  0.8805
 4692SOL    HW318541   3.817   3.599   1.896  0.1565 -0.2541  0.8311
 4692SOL    MW418542   3.837   3.570   1.816  0.5291 -0.1463 -0.2386
 4693SOL     OW18543   2.939   0.099   2.857 -0.4689 -0.6304  0.0141
 4693SOL    HW218544   2.967   0.011   2.830  1.4763 -0.2636  0.6850
 4693SOL    HW318545   2.991   0.118   2.935 -1.1343  0.9829  0.1028
 4693SOL    MW418546   2.950   0.090   2.863  0.1763  0.2079 -0.0523
 4694SOL     OW18547   2.844   1.358   2.316  0.1483  0.3208  0.2988
 4694SOL    HW218548   2.779   1.380   2.383  1.0702  0.8811  1.0433
 4694SOL    HW318549   2.926   1.396   2.349  0.5791  0.8380 -1.2723
 4694SOL    MW418550   2.847   1.366   2.329 -0.0594  0.1101 -0.1619
 4695SOL     OW18551   1.608   5.352   4.470 -0.2897 -0.2114 -0.0921
 4695SOL    HW218552   1.549   5.317   4.537 -1.9721  1.1340 -0.8035
 4695SOL    HW318553   1.593   5.295   4.394 -1.0523  0.4062 -0.4177
 4695SOL    MW418554   1.598   5.340   4.469 -0.1864  0.2389  0.1424
 4696SOL     OW18555   4.504   5.216   2.192  0.4068 -0.4911 -0.3766
 4696SOL    HW218556   4.446   5.235   2.118 -0.6338  2.2795  1.0085
 4696SOL    HW318557   4.491   5.123   2.209 -3.8043 -0.0509 -0.1034
 4696SOL    MW418558   4.495   5.207   2.184 -0.6073 -0.1052 -0.2655
 4697SOL     OW18559   0.193   0.787   2.866 -0.3006 -0.1749 -0.1284
 4697SOL    HW218560   0.142   0.718   2.824 -2.4196  0.3302  1.4268
 4697SOL    HW318561   0.260   0.739   2.916  0.5919 -0.8764 -1.9335
 4697SOL    MW418562   0.195   0.771   2.867 -0.2265 -0.5019 -0.0161
 4698SOL     OW18563   5.973   1.950   0.465  0.3178 -0.1695  0.6023
 4698SOL    HW218564   5.960   2.042   0.489  0.0943 -0.3480  1.1790
 4698SOL    HW318565   5.884   1.914   0.462 -0.0272  0.5092 -3.3328
 4698SOL    MW418566   5.959   1.957   0.468 -0.1434 -0.6375 -0.1195
 4699SOL     OW18567   6.385   0.637   4.962 -0.9910 -0.1260 -0.1895
 4699SOL    HW218568   6.390   0.541   4.970  1.8051 -0.1849 -1.4373
 4699SOL    HW318569   6.403   0.669   5.051 -4.6715 -0.6373  0.9000
 4699SOL    MW418570   6.388   0.628   4.975 -0.0656 -0.8130 -0.2840
 4700SOL     OW18571   1.783   3.890   5.282  0.5327  0.6294  0.0774
 4700SOL    HW218572   1.764   3.952   5.353 -0.3519  1.1790 -0.6124
 4700SOL    HW318573   1.860   3.842   5.312  0.4764  1.1969  1.1867
 4700SOL    MW418574   1.791   3.892   5.295 -0.0480 -0.5928  0.4426
 4701SOL     OW18575   3.938   6.361   5.405  0.6327  0.4035  0.6471
 4701SOL    HW218576   3.863   6.407   5.440 -0.8267 -0.1170 -1.5917
 4701SOL    HW318577   4.012   6.390   5.459 -0.7595  2.7465  1.4320
 4701SOL    MW418578   3.938   6.371   5.417 -0.2089  0.6521  0.2803
 4702SOL     OW18579   3.053   5.011   3.263 -0.2026 -0.2928 -0.2212
 4702SOL    HW218580   3.030   4.979   3.176  0.5436 -0.7823 -0.2459
 4702SOL    HW318581   3.023   4.942   3.323  1.9670 -1.4027 -0.3185
 4702SOL    MW418582   3.046   4.998   3.260 -0.1004 -0.3509  0.0875
 4703SOL     OW18583   2.949   4.464   3.266  0.1230  0.2193  0.3854
 4703SOL    HW218584   3.015   4.532   3.277 -0.8406  1.7431 -2.3667
 4703SOL    HW318585   2.995   4.392   3.223  0.4692  0.3373  0.5546
 4703SOL    MW418586   2.964   4.463   3.262  0.7154 -0.1795 -0.1842
 4704SOL     OW18587   3.341   6.007   2.260  0.2363  0.4316 -0.3343
 4704SOL    HW218588   3.296   6.050   2.333  1.0465 -0.1885  0.5484
 4704SOL    HW318589   3.328   6.066   2.185 -0.5854  1.0854  0.3096
 4704SOL    MW418590   3.333   6.020   2.260  0.7576  0.3833  0.1599
 4705SOL     OW18591   1.779   3.313   3.942 -0.1756  0.8727  0.1665
 4705SOL    HW218592   1.707   3.376   3.936  0.5976  1.6894 -1.3334
 4705SOL    HW318593   1.834   3.347   4.013 -0.3171  1.2969  0.0805
 4705SOL    MW418594   1.777   3.326   3.950 -0.2267  0.4473  0.3830
 4706SOL     OW18595   4.876   5.275   1.637  0.2034 -0.4909 -0.3014
 4706SOL    HW218596   4.963   5.310   1.623  0.1472  0.2491  1.0638
 4706SOL    HW318597   4.890   5.189   1.678  0.3086 -0.1024  0.5044
 4706SOL    MW418598   4.889   5.268   1.641 -0.1578 -0.4397 -0.6725
 4707SOL     OW18599   5.570   0.468   0.270  0.1809 -0.4481  0.3957
 4707SOL    HW218600   5.569   0.376   0.293  0.6041  0.0647  2.7657
 4707SOL    HW318601   5.519   0.511   0.339  1.2960  1.2312  0.2419
 4707SOL    MW418602   5.563   0.462   0.283 -0.2361 -0.0441 -0.2458
 4708SOL     OW18603   5.589   1.403   6.072  0.0823  0.2925  0.2147
 4708SOL    HW218604   5.661   1.465   6.088  0.7453 -0.0033 -1.4467
 4708SOL    HW318605   5.625   1.318   6.096 -0.2716  0.3299  0.9069
 4708SOL    MW418606   5.604   1.400   6.077  0.6076  0.0841 -0.6212
 4709SOL     OW18607   1.054   0.141   2.472  0.4347 -0.1328 -0.1753
 4709SOL    HW218608   1.126   0.155   2.533 -0.1055  0.1388  0.4055
 4709SOL    HW318609   1.058   0.047   2.453  0.2457 -0.3432  0.7522
 4709SOL    MW418610   1.064   0.130   2.478  0.2358 -0.2589  0.3612
 4710SOL     OW18611   3.202   0.458   0.245 -0.5283  0.1896  0.3927
 4710SOL    HW218612   3.191   0.406   0.325 -1.0656  2.4898  1.9060
 4710SOL    HW318613   3.121   0.507   0.237 -0.7182 -0.3572 -1.9452
 4710SOL    MW418614   3.190   0.457   0.255 -0.1160  0.2022  0.2004
 4711SOL     OW18615   4.343   2.816   5.507  0.1337 -0.0716 -0.2545
 4711SOL    HW218616   4.385   2.882   5.453 -0.9569 -0.3127 -1.4537
 4711SOL    HW318617   4.342   2.737   5.453  1.2915 -1.0628  1.1026
 4711SOL    MW418618   4.348   2.814   5.493 -0.4822  0.0500 -0.0488
 4712SOL     OW18619   5.884   5.825   2.262 -0.2084  0.1564 -0.8035
 4712SOL    HW218620   5.885   5.729   2.253 -1.4761 -0.0919  1.2116
 4712SOL    HW318621   5.965   5.853   2.219  0.5283 -1.8651 -0.8621
 4712SOL    MW418622   5.895   5.816   2.255  0.0635  0.1314  0.5886
 4713SOL     OW18623   2.102   5.449   4.157  0.3562 -0.3760 -0.3654
 4713SOL    HW218624   2.185   5.436   4.112 -0.2696 -1.9803 -1.1290
 4713SOL    HW318625   2.111   5.399   4.238 -0.0626 -1.0474 -0.7258
 4713SOL    MW418626   2.114   5.441   4.162 -0.7256  0.5595  0.1555
 4714SOL     OW18627   5.830   4.689   0.607  0.7309 -0.2170 -0.3753
 4714SOL    HW218628   5.881   4.770   0.616 -1.2542  0.9204  2.1385
 4714SOL    HW318629   5.824   4.655   0.696 -2.2706 -0.5966 -0.6152
 4714SOL    MW418630   5.836   4.696   0.620  0.1369 -0.9926  0.6045
 4715SOL     OW18631   4.728   6.130   2.268 -0.3341 -0.4201  0.1011
 4715SOL    HW218632   4.801   6.186   2.241  0.3200 -1.5861 -0.6219
 4715SOL    HW318633   4.665   6.191   2.307 -0.2902  1.0447 -1.9187
 4715SOL    MW418634   4.729   6.146   2.269 -0.3544  0.7933  0.0362
 4716SOL     OW18635   4.032   0.682   3.613 -0.3346 -0.2679  0.0169
 4716SOL    HW218636   4.070   0.711   3.530  1.1594  1.6395  1.2808
 4716SOL    HW318637   3.993   0.761   3.650  0.5468 -0.6675  1.8971
 4716SOL    MW418638   4.032   0.697   3.607 -0.0072 -0.0694 -0.7125
 4717SOL     OW18639   5.860   2.658   4.027 -0.5019 -0.3792  0.9476
 4717SOL    HW218640   5.943   2.668   4.073 -1.1616 -0.9320  2.2868
 4717SOL    HW318641   5.841   2.746   3.994 -1.0442  0.5688  3.5732
 4717SOL    MW418642   5.868   2.671   4.029  0.3285 -0.4944  0.6430
 4718SOL     OW18643   1.141   3.493   3.896  0.2882 -0.1703  0.2635
 4718SOL    HW218644   1.174   3.512   3.809 -0.1427  0.1521  0.1716
 4718SOL    HW318645   1.210   3.439   3.936  0.3040 -0.6586 -0.4149
 4718SOL    MW418646   1.155   3.488   3.890 -0.2819 -0.0400 -0.5133
 4719SOL     OW18647   4.958   6.292   1.296  0.2255  0.2300  0.2051
 4719SOL    HW218648   5.018   6.244   1.354 -0.7057 -0.5793  0.5417
 4719SOL    HW318649   4.930   6.226   1.232  0.0316  0.7104 -0.2081
 4719SOL    MW418650   4.962   6.277   1.295  0.6946  0.1120 -0.1830
 4720SOL     OW18651   5.665   1.439   1.829 -0.9819 -0.0191 -0.5785
 4720SOL    HW218652   5.713   1.411   1.907  0.4423 -0.1763 -1.4740
 4720SOL    HW318653   5.717   1.405   1.756 -2.0268  0.5364 -1.6014
 4720SOL    MW418654   5.678   1.431   1.830  0.2159 -0.1041 -0.0813
 4721SOL     OW18655   1.890   4.082   6.198 -0.3558  0.6649 -0.9869
 4721SOL    HW218656   1.971   4.130   6.214 -0.0479  0.4128 -1.7410
 4721SOL    HW318657   1.914   3.990   6.212 -1.1843  0.7508  1.4509
 4721SOL    MW418658   1.904   4.076   6.202 -0.5323 -0.0612  0.0211
 4722SOL     OW18659   2.986   6.257   2.302 -0.5420  0.1631 -0.3715
 4722SOL    HW218660   2.944   6.181   2.263 -1.3287  0.2552  0.2749
 4722SOL    HW318661   2.914   6.315   2.327  0.0583  1.6360 -1.8182
 4722SOL    MW418662   2.971   6.255   2.300  0.2376  0.5224  0.4560
 4723SOL     OW18663   5.048   4.166   0.318 -0.1930  1.0728 -0.7114
 4723SOL    HW218664   5.090   4.083   0.294 -2.8950  0.0378 -2.3672
 4723SOL    HW318665   5.073   4.226   0.248 -1.5445  0.3898 -1.8294
 4723SOL    MW418666   5.057   4.163   0.305 -0.1791 -0.3992  0.1915
 4724SOL     OW18667   4.199   1.931   4.330 -0.1826  0.1366  0.2317
 4724SOL    HW218668   4.187   1.945   4.236  2.6163 -1.1770 -0.4196
 4724SOL    HW318669   4.198   2.019   4.367  1.8504  0.9830 -1.5305
 4724SOL    MW418670   4.197   1.945   4.323  0.2452 -0.0821 -0.1528
 4725SOL     OW18671   4.053   2.969   2.533  0.0021  0.1019  0.3198
 4725SOL    HW218672   4.111   3.027   2.582  0.5953 -0.9747  0.9215
 4725SOL    HW318673   3.999   2.927   2.599 -1.1045  0.6685 -0.1901
 4725SOL    MW418674   4.053   2.971   2.548  0.2795 -0.4939 -0.3965
 4726SOL     OW18675   3.361   0.659   2.299 -0.6806 -0.0947  0.0597
 4726SOL    HW218676   3.322   0.580   2.261  0.8477 -1.1523  0.5874
 4726SOL    HW318677   3.441   0.672   2.249 -1.7174  2.1845 -1.1792
 4726SOL    MW418678   3.366   0.650   2.288  0.3937 -0.0848  0.6227
 4727SOL     OW18679   0.729   0.871   0.921 -0.2942  0.2268  0.1026
 4727SOL    HW218680   0.666   0.820   0.870 -1.9464  2.9887 -0.8208
 4727SOL    HW318681   0.682   0.891   1.003  0.2681  0.4285  0.3774
 4727SOL    MW418682   0.714   0.867   0.925 -0.1449  0.7273  0.0910
 4728SOL     OW18683   5.101   3.507   1.179 -0.1152 -0.3711  0.0640
 4728SOL    HW218684   5.184   3.460   1.188 -0.7211 -1.1963  1.6521
 4728SOL    HW318685   5.121   3.596   1.205  0.4051 -0.4079 -0.1888
 4728SOL    MW418686   5.115   3.512   1.183  0.0262  0.7472  0.0746
 4729SOL     OW18687   1.606   1.687   1.957 -0.1082 -0.1928  0.9102
 4729SOL    HW218688   1.620   1.597   1.986  0.6112  0.3758  2.4148
 4729SOL    HW318689   1.569   1.731   2.033 -1.2738  0.6138 -0.0707
 4729SOL    MW418690   1.603   1.681   1.971  0.1106  0.0603  0.0146
 4730SOL     OW18691   1.234   5.340   2.360  0.5012 -0.2090  0.2177
 4730SOL    HW218692   1.274   5.255   2.342 -1.3520 -0.8712 -1.0435
 4730SOL    HW318693   1.213   5.375   2.273 -1.0362  0.3841  0.7959
 4730SOL    MW418694   1.237   5.334   2.346  0.5101  0.2599 -0.3347
 4731SOL     OW18695   3.889   5.166   4.270  0.1373 -0.1177 -0.2990
 4731SOL    HW218696   3.975   5.207   4.265 -0.1707  0.4716 -0.9044
 4731SOL    HW318697   3.835   5.216   4.209 -0.6855 -0.3476  0.2242
 4731SOL    MW418698   3.893   5.178   4.262  0.6459 -0.1372  0.0202
 4732SOL     OW18699   1.513   5.682   0.279  0.3465  0.0851 -0.1397
 4732SOL    HW218700   1.540   5.613   0.219  0.5680  0.7262 -0.7986
 4732SOL    HW318701   1.418   5.687   0.269  0.2160 -0.7259  0.5881
 4732SOL    MW418702   1.504   5.674   0.270 -0.8516  0.0406  0.0410
 4733SOL     OW18703   0.475   3.306   2.135  0.1779  0.5560  0.3275
 4733SOL    HW218704   0.428   3.389   2.143 -0.5429  0.0321  1.7771
 4733SOL    HW318705   0.416   3.250   2.084  0.3068  0.6747  0.0477
 4733SOL    MW418706   0.461   3.310   2.129  0.3164  0.1891  0.1232
 4734SOL     OW18707   5.045   2.471   2.936  0.5622 -0.2124 -0.3001
 4734SOL    HW218708   5.089   2.521   2.867  1.2159 -1.2621 -0.6649
 4734SOL    HW318709   4.957   2.457   2.903  0.6443 -0.0682 -0.5825
 4734SOL    MW418710   5.039   2.476   2.923 -0.6967  0.1115  0.1799
 4735SOL     OW18711   0.486   4.684   4.500 -0.0214  0.1225 -0.2354
 4735SOL    HW218712   0.435   4.756   4.537  0.0520  0.3132 -0.4969
 4735SOL    HW318713   0.439   4.662   4.419 -0.9587 -1.1860  0.6195
 4735SOL    MW418714   0.473   4.691   4.494 -0.0258  0.0295 -0.1390
 4736SOL     OW18715   3.034   1.861   1.116 -0.2007 -0.0617  0.3952
 4736SOL    HW218716   3.002   1.948   1.141  1.3618  0.4017  0.8785
 4736SOL    HW318717   3.019   1.856   1.021 -0.6136  0.5824  0.4190
 4736SOL    MW418718   3.028   1.872   1.107  0.4051 -0.0991 -0.0632
 4737SOL     OW18719   0.925   1.465   1.244  0.0517  0.0276 -0.3486
 4737SOL    HW218720   0.977   1.471   1.164 -0.6642 -0.2295 -0.8377
 4737SOL    HW318721   0.875   1.547   1.246  2.7292  1.8321  1.7665
 4737SOL    MW418722   0.926   1.477   1.234  0.2596 -0.3179  0.3408
 4738SOL     OW18723   1.861   3.071   0.625  0.1484 -0.0299  0.0594
 4738SOL    HW218724   1.923   3.117   0.682  0.8658 -0.6679 -0.1764
 4738SOL    HW318725   1.870   2.979   0.651 -1.4705 -0.0312  0.7254
 4738SOL    MW418726   1.870   3.065   0.636 -0.0999 -0.7831  0.1295
 4739SOL     OW18727   5.675   5.651   5.134  0.4889 -0.0758 -0.2713
 4739SOL    HW218728   5.740   5.718   5.153  0.3939 -0.4381  1.4455
 4739SOL    HW318729   5.593   5.686   5.168 -0.5223  0.8156 -3.2802
 4739SOL    MW418730   5.672   5.665   5.141 -0.0838 -0.0495 -0.1260
 4740SOL     OW18731   5.953   2.867   3.519  0.2642  0.5713 -0.3171
 4740SOL    HW218732   6.029   2.898   3.569 -0.2420  1.0496  0.1645
 4740SOL    HW318733   5.902   2.815   3.581  0.0563  0.4692 -0.5693
 4740SOL    MW418734   5.956   2.864   3.533  0.2231 -0.2045 -0.3478
 4741SOL     OW18735   2.148   3.558   1.551 -0.4434 -0.3002  0.5514
 4741SOL    HW218736   2.221   3.593   1.602 -0.2063  0.3691 -0.2182
 4741SOL    HW318737   2.176   3.470   1.526  0.6141  0.3478 -0.6763
 4741SOL    MW418738   2.162   3.551   1.554  0.0745  0.4920  0.0254
 4742SOL     OW18739   0.933   6.284   1.789  0.5123  0.4956  0.1762
 4742SOL    HW218740   0.871   6.356   1.778 -2.0866 -1.7597 -1.3619
 4742SOL    HW318741   0.937   6.270   1.884 -0.6211  1.3107  0.3645
 4742SOL    MW418742   0.925   6.292   1.800  0.0542 -0.7118 -0.1873
 4743SOL     OW18743   5.572   5.283   0.453  0.3199 -0.1843  0.2907
 4743SOL    HW218744   5.580   5.237   0.370  0.9810  0.3070  0.0780
 4743SOL    HW318745   5.573   5.214   0.519 -0.2674 -0.5800 -0.1033
 4743SOL    MW418746   5.573   5.268   0.451  0.0707  0.0279  0.1539
 4744SOL     OW18747   3.312   3.180   6.399 -0.1491 -0.6101 -0.5177
 4744SOL    HW218748   3.298   3.103   6.343 -3.0521 -0.1053 -0.6596
 4744SOL    HW318749   3.227   3.193   6.443  0.6676  1.7141  0.5298
 4744SOL    MW418750   3.299   3.171   6.397 -0.7072 -0.1440 -0.6279
 4745SOL     OW18751   2.525   6.360   3.132  0.0701  0.3744 -0.2135
 4745SOL    HW218752   2.436   6.375   3.100  0.4058  1.8023 -0.5103
 4745SOL    HW318753   2.581   6.412   3.075  1.0077  0.2976  0.6058
 4745SOL    MW418754   2.521   6.369   3.121 -0.0087 -0.2283 -0.3039
 4746SOL     OW18755   2.089   0.377   5.541  0.1063 -0.0391  0.1134
 4746SOL    HW218756   2.072   0.305   5.480 -0.7844 -2.0094  2.5421
 4746SOL    HW318757   2.175   0.359   5.577  1.2459  1.8896 -1.4602
 4746SOL    MW418758   2.098   0.365   5.537 -0.7324  0.3539  0.0227
 4747SOL     OW18759   3.865   4.378   1.589  0.0411  0.1170  0.8335
 4747SOL    HW218760   3.855   4.308   1.524 -2.2905 -0.0066  1.2638
 4747SOL    HW318761   3.878   4.457   1.538  3.8725 -0.6362  0.3246
 4747SOL    MW418762   3.866   4.379   1.574 -0.0727 -0.1712  0.0520
 4748SOL     OW18763   4.775   0.388   4.763  0.2933  0.4310  0.0743
 4748SOL    HW218764   4.856   0.407   4.716  0.6045 -0.6114  0.1678
 4748SOL    HW318765   4.795   0.407   4.855  0.2288  0.7854  0.0163
 4748SOL    MW418766   4.788   0.393   4.769  0.5178 -0.2245  0.3492
 4749SOL     OW18767   0.599   3.114   2.688 -0.3079 -0.0179  0.3205
 4749SOL    HW218768   0.546   3.042   2.722 -0.2534  0.4145  1.3467
 4749SOL    HW318769   0.599   3.180   2.758  0.9300  0.3245  0.0261
 4749SOL    MW418770   0.592   3.113   2.702  0.1993 -0.4148 -0.0048
 4750SOL     OW18771   1.293   0.679   3.969 -0.0255  0.3332  0.7278
 4750SOL    HW218772   1.224   0.613   3.963 -0.8682  1.3409 -3.0946
 4750SOL    HW318773   1.371   0.629   3.994 -0.9210 -1.9314 -0.6484
 4750SOL    MW418774   1.294   0.663   3.972  0.5894 -0.3957  0.5250
 4751SOL     OW18775   3.191   6.432   3.117  0.6618  0.2632 -0.0768
 4751SOL    HW218776   3.116   6.492   3.121 -0.1315 -0.6668 -0.6556
 4751SOL    HW318777   3.265   6.489   3.097 -0.2934  0.9145 -2.0352
 4751SOL    MW418778   3.191   6.447   3.115  0.1738  0.0397  0.1313
 4752SOL     OW18779   4.666   1.713   1.697 -0.1284 -0.5874 -0.7134
 4752SOL    HW218780   4.682   1.802   1.667 -2.1406  0.2536  0.4732
 4752SOL    HW318781   4.731   1.699   1.765 -1.7961  1.3202  1.4422
 4752SOL    MW418782   4.676   1.723   1.702 -0.0796  0.4182 -0.0260
 4753SOL     OW18783   1.371   0.963   3.791 -0.0926  0.4596  0.2785
 4753SOL    HW218784   1.321   0.932   3.867 -2.2921  0.4709 -1.0725
 4753SOL    HW318785   1.419   0.886   3.760 -0.0146  0.1977  1.0284
 4753SOL    MW418786   1.371   0.949   3.797 -0.1372 -0.5805 -0.0030
 4754SOL     OW18787   2.616   1.089   0.147 -0.5614  0.0281  0.5937
 4754SOL    HW218788   2.690   1.035   0.172  0.3043  0.4927 -0.8641
 4754SOL    HW318789   2.552   1.027   0.111 -0.4243 -0.2429  0.8157
 4754SOL    MW418790   2.617   1.073   0.146  0.0068 -0.7265 -0.1556
 4755SOL     OW18791   2.687   3.562   4.158  0.2544 -0.2568  0.5115
 4755SOL    HW218792   2.749   3.633   4.141  0.7770 -0.0729  2.8507
 4755SOL    HW318793   2.610   3.606   4.196 -0.3015 -0.7578 -0.0067
 4755SOL    MW418794   2.685   3.577   4.161  0.3220 -0.2446 -0.3460
 4756SOL     OW18795   3.332   3.319   3.870  0.4358 -0.0851 -0.2980
 4756SOL    HW218796   3.320   3.381   3.798  0.4912  2.2441  1.5703
 4756SOL    HW318797   3.405   3.355   3.921 -0.3879 -0.9458  1.5985
 4756SOL    MW418798   3.340   3.332   3.868  0.2186  0.1801  0.6406
 4757SOL     OW18799   3.790   3.599   1.420 -0.2520 -0.2369  0.3693
 4757SOL    HW218800   3.885   3.589   1.434 -0.1384  0.6148  0.2511
 4757SOL    HW318801   3.761   3.654   1.492 -0.8694 -1.4106  1.0354
 4757SOL    MW418802   3.799   3.605   1.431 -0.4397 -0.2201 -0.3221
 4758SOL     OW18803   4.738   4.565   1.953 -0.0144  0.2336 -0.4733
 4758SOL    HW218804   4.781   4.563   1.867 -0.0094  0.3962 -0.4746
 4758SOL    HW318805   4.650   4.532   1.936 -0.3124  1.1308 -0.7108
 4758SOL    MW418806   4.732   4.561   1.939  0.0771  0.2567  0.0120
 4759SOL     OW18807   3.430   1.653   0.515 -0.4815 -0.1897  0.8391
 4759SOL    HW218808   3.454   1.676   0.425  1.0117 -1.7676  0.7896
 4759SOL    HW318809   3.351   1.600   0.505 -1.8826  1.7852  0.7122
 4759SOL    MW418810   3.423   1.649   0.501 -0.1862 -0.0474 -1.0106
 4760SOL     OW18811   1.616   5.687   3.903  0.0238  0.4927 -0.7729
 4760SOL    HW218812   1.643   5.659   3.991 -2.2090  0.1870 -0.1245
 4760SOL    HW318813   1.630   5.610   3.848 -0.7596 -0.0789 -0.1861
 4760SOL    MW418814   1.622   5.673   3.908  0.3471 -0.3183  0.0348
 4761SOL     OW18815   4.044   3.055   5.764  0.0241  0.0366 -0.1097
 4761SOL    HW218816   4.047   2.995   5.689  0.9845 -0.7082  0.5062
 4761SOL    HW318817   4.136   3.072   5.784 -0.2328  1.2911  0.0831
 4761SOL    MW418818   4.057   3.049   5.757  0.0349 -0.2700 -0.2290
 4762SOL     OW18819   3.260   5.965   1.828 -0.1127 -0.0365  0.0385
 4762SOL    HW218820   3.345   5.943   1.865 -0.3981 -0.4020  0.4968
 4762SOL    HW318821   3.209   5.885   1.836 -0.6334  0.3006  0.1733
 4762SOL    MW418822   3.264   5.952   1.834 -0.2492 -0.2540 -0.3059
 4763SOL     OW18823   2.350   1.842   1.808  0.1751  0.5395  0.1340
 4763SOL    HW218824   2.291   1.819   1.880 -0.3514 -3.1368 -1.2824
 4763SOL    HW318825   2.291   1.868   1.737  0.4407  0.1255 -0.2397
 4763SOL    MW418826   2.334   1.842   1.808  0.4986 -0.2709  0.2850
 4764SOL     OW18827   0.289   5.737   1.003  0.0690 -0.0062 -0.1636
 4764SOL    HW218828   0.359   5.796   1.032  0.4979 -0.6042  0.0266
 4764SOL    HW318829   0.271   5.681   1.078 -0.7690  0.2792 -0.1399
 4764SOL    MW418830   0.296   5.738   1.017  0.0408  0.8154 -0.2008
 4765SOL     OW18831   3.884   6.043   5.112 -0.3586 -0.3943  0.4954
 4765SOL    HW218832   3.931   6.037   5.029  0.6326 -1.1387  1.0992
 4765SOL    HW318833   3.853   6.134   5.115 -0.6160 -0.4122 -0.7855
 4765SOL    MW418834   3.886   6.054   5.101 -0.3145  0.3920  0.0392
 4766SOL     OW18835   2.075   1.382   5.753  0.1894 -0.1067  0.0811
 4766SOL    HW218836   2.058   1.311   5.690 -1.4797  2.0472 -2.1179
 4766SOL    HW318837   2.015   1.364   5.825  0.1127 -1.1604 -0.2194
 4766SOL    MW418838   2.065   1.370   5.754  0.1994  0.3218 -0.5216
 4767SOL     OW18839   5.202   5.564   5.879  0.2809 -0.1124 -0.3039
 4767SOL    HW218840   5.118   5.601   5.906 -0.2581 -1.5510  0.1035
 4767SOL    HW318841   5.179   5.504   5.808  0.6815 -1.8520  0.9760
 4767SOL    MW418842   5.188   5.561   5.874  0.2696  0.1579 -0.4559
 4768SOL     OW18843   3.742   1.432   2.568 -0.1892  0.0718 -0.3630
 4768SOL    HW218844   3.767   1.444   2.660 -0.6165 -0.0143 -0.2363
 4768SOL    HW318845   3.757   1.517   2.528  1.7742 -0.3443 -0.6430
 4768SOL    MW418846   3.747   1.444   2.575 -0.6064  0.1641 -0.0844
 4769SOL     OW18847   5.888   5.679   1.487 -0.0029  0.6771 -0.2621
 4769SOL    HW218848   5.890   5.769   1.453  0.8419 -0.0963 -2.3991
 4769SOL    HW318849   5.888   5.624   1.409  1.0132 -1.2197  1.0201
 4769SOL    MW418850   5.888   5.684   1.472 -0.1408  0.5901 -0.3542
 4770SOL     OW18851   5.375   2.069   0.900  0.2541 -0.2212 -0.6093
 4770SOL    HW218852   5.447   2.100   0.955  0.6738 -0.0979 -1.2206
 4770SOL    HW318853   5.304   2.051   0.962  1.4584 -2.3341  0.2605
 4770SOL    MW418854   5.375   2.071   0.915  0.5967 -0.3508 -0.4886
 4771SOL     OW18855   3.470   0.252   0.014 -0.0172  0.1562 -0.5377
 4771SOL    HW218856   3.479   0.192  -0.060 -0.5270  0.9341 -1.2437
 4771SOL    HW318857   3.553   0.299   0.018 -0.4935  1.1124 -1.5204
 4771SOL    MW418858   3.482   0.250   0.005  0.1320 -0.0270  0.3236
 4772SOL     OW18859   3.176   1.031   0.902 -0.1296 -0.0788 -0.2141
 4772SOL    HW218860   3.119   1.107   0.904  1.6361  1.3276 -1.0076
 4772SOL    HW318861   3.214   1.031   0.814  1.2447 -0.8229  0.3386
 4772SOL    MW418862   3.174   1.041   0.891  0.8769  0.0548  0.2769
 4773SOL     OW18863   4.248   6.475   3.658 -0.3405  0.2155  0.0000
 4773SOL    HW218864   4.186   6.404   3.640 -1.0090  1.0141 -0.8943
 4773SOL    HW318865   4.334   6.434   3.647 -0.7133 -0.5142 -0.2948
 4773SOL    MW418866   4.251   6.460   3.654  0.5719 -0.2908  0.1667
 4774SOL     OW18867   2.390   1.404   3.259 -0.0276  0.0570  0.1888
 4774SOL    HW218868   2.389   1.495   3.229 -1.7755  0.3826  1.1023
 4774SOL    HW318869   2.315   1.364   3.215  1.8892 -1.5670 -1.8376
 4774SOL    MW418870   2.380   1.411   3.249 -0.3588 -0.2657  0.7625
 4775SOL     OW18871   3.260   1.033   1.840  0.1972 -1.0533  0.1168
 4775SOL    HW218872   3.217   0.963   1.791  0.4337 -0.5555 -0.8112
 4775SOL    HW318873   3.266   0.999   1.930 -0.3345 -1.9264 -0.1706
 4775SOL    MW418874   3.255   1.019   1.846 -0.5444  0.0920  0.0413
 4776SOL     OW18875   0.015   2.216   3.324  0.3644  0.3877  0.7145
 4776SOL    HW218876   0.003   2.259   3.408 -1.0269 -0.3740  0.9290
 4776SOL    HW318877   0.049   2.285   3.266 -0.2856  1.3477  1.4572
 4776SOL    MW418878   0.018   2.231   3.327 -0.2339 -1.2998 -0.3318
 4777SOL     OW18879   5.617   5.810   0.177 -0.0388 -0.1351 -0.4193
 4777SOL    HW218880   5.656   5.727   0.150 -0.6959  0.0164 -1.9442
 4777SOL    HW318881   5.691   5.871   0.183  0.8684 -1.3423  3.3282
 4777SOL    MW418882   5.632   5.807   0.174 -0.5042 -0.1205  0.2107
 4778SOL     OW18883   3.583   6.276   1.696 -0.0389 -0.0223 -0.2217
 4778SOL    HW218884   3.594   6.181   1.686  1.1478 -0.1384  1.7785
 4778SOL    HW318885   3.489   6.288   1.705 -0.2592 -0.9166 -1.0893
 4778SOL    MW418886   3.572   6.265   1.696 -0.1997 -0.1806  0.3766
 4779SOL     OW18887   2.908   5.154   3.800  0.4099  0.1214 -0.9024
 4779SOL    HW218888   2.900   5.109   3.884  0.8429 -1.7549 -1.8031
 4779SOL    HW318889   2.968   5.099   3.750 -0.2948  0.8798 -2.6474
 4779SOL    MW418890   2.915   5.141   3.805 -0.1667 -0.1976 -0.0507
 4780SOL     OW18891   3.727   2.076   4.556  0.0528  0.0921 -0.6269
 4780SOL    HW218892   3.788   2.076   4.629 -0.1982 -1.8354 -0.3739
 4780SOL    HW318893   3.641   2.072   4.597 -0.1172 -0.1719 -1.0022
 4780SOL    MW418894   3.724   2.075   4.571  0.3175  0.2394  0.6892
 4781SOL     OW18895   1.999   2.656   2.668  0.1552 -0.3928 -0.5101
 4781SOL    HW218896   1.989   2.562   2.657  0.2826 -0.3849 -0.6965
 4781SOL    HW318897   2.077   2.666   2.722 -0.5533 -0.4372  0.5488
 4781SOL    MW418898   2.008   2.645   2.674  0.3677 -0.2807 -0.0905
 4782SOL     OW18899   6.331   4.422   5.182 -0.5830 -0.0238 -0.1413
 4782SOL    HW218900   6.410   4.473   5.162 -0.7305 -0.1890 -1.2378
 4782SOL    HW318901   6.359   4.360   5.249 -0.6443  2.0869  1.9580
 4782SOL    MW418902   6.345   4.421   5.188 -0.0729  0.0097  0.2825
 4783SOL     OW18903   0.168   0.907   1.286 -0.3264  0.7353 -0.3000
 4783SOL    HW218904   0.219   0.836   1.325  1.3086  0.8822 -2.0524
 4783SOL    HW318905   0.132   0.954   1.362 -0.8360 -1.4674  0.9112
 4783SOL    MW418906   0.170   0.904   1.301 -0.0982  0.3352  0.2742
 4784SOL     OW18907   2.970   0.626   3.131  0.8637 -0.0038 -0.6634
 4784SOL    HW218908   3.021   0.632   3.211  0.1120  0.4154 -0.2037
 4784SOL    HW318909   2.937   0.714   3.117  2.1343  0.2721 -2.2215
 4784SOL    MW418910   2.972   0.638   3.140  0.0791  0.6998  0.2159
 4785SOL     OW18911   1.981   0.807   4.651  0.5748  0.1443  0.3213
 4785SOL    HW218912   1.981   0.786   4.745  3.8212 -1.1627  0.1496
 4785SOL    HW318913   2.005   0.899   4.647  1.7832 -0.1369  0.7785
 4785SOL    MW418914   1.984   0.816   4.663  0.0234 -0.0090 -0.7141
 4786SOL     OW18915   0.380   3.926   1.936 -0.0741  0.0987  0.0926
 4786SOL    HW218916   0.315   3.859   1.912 -0.3679  0.2422  0.4701
 4786SOL    HW318917   0.444   3.923   1.865 -0.0705 -0.5976  0.1121
 4786SOL    MW418918   0.380   3.917   1.924  0.2314  0.6799  0.5932
 4787SOL     OW18919   4.240   1.894   6.168 -0.4321 -0.4800 -0.5136
 4787SOL    HW218920   4.327   1.905   6.205 -0.1000 -1.7309 -0.8746
 4787SOL    HW318921   4.228   1.970   6.111 -0.8230  1.3307  1.7928
 4787SOL    MW418922   4.250   1.906   6.165  0.5634  0.0834 -0.1729
 4788SOL     OW18923   3.747   1.149   4.421 -0.0486 -0.1195  0.2523
 4788SOL    HW218924   3.803   1.189   4.355 -0.8573 -0.3985 -0.6267
 4788SOL    HW318925   3.658   1.158   4.387 -0.4409 -0.7493  1.0447
 4788SOL    MW418926   3.743   1.155   4.408  0.8851  1.0770  0.8507
 4789SOL     OW18927   0.075   0.331   5.321 -0.0596 -0.2568  0.3664
 4789SOL    HW218928   0.021   0.373   5.387  0.2312  0.1831  0.3295
 4789SOL    HW318929   0.028   0.345   5.239  0.0139 -0.0428  0.3609
 4789SOL    MW418930   0.062   0.338   5.319  0.5671 -0.0510  0.3068
 4790SOL     OW18931   2.624   0.688   5.480  0.1521  0.2850 -0.4752
 4790SOL    HW218932   2.569   0.639   5.418 -1.1140 -0.4891  1.1966
 4790SOL    HW318933   2.575   0.770   5.494  0.5349  0.5420 -0.6174
 4790SOL    MW418934   2.610   0.693   5.473  0.0470 -0.2905 -0.2159
 4791SOL     OW18935   1.579   4.551   5.115  0.1959  0.1952 -0.8182
 4791SOL    HW218936   1.579   4.521   5.024 -0.1339 -0.8524 -0.4921
 4791SOL    HW318937   1.671   4.565   5.137  0.2932  0.1917 -1.2278
 4791SOL    MW418938   1.591   4.549   5.106 -0.2229 -0.7246  0.1029
 4792SOL     OW18939   4.538   2.389   2.681 -0.2506 -0.7478  0.3282
 4792SOL    HW218940   4.567   2.382   2.590  1.2814  0.2940  0.7082
 4792SOL    HW318941   4.510   2.300   2.704  0.1903 -1.2115 -0.8769
 4792SOL    MW418942   4.538   2.376   2.672 -0.0665 -0.2482  0.0861
 4793SOL     OW18943   1.175   0.574   4.609 -0.7732  0.0400  0.4435
 4793SOL    HW218944   1.174   0.646   4.546  2.4983 -0.3496 -0.2145
 4793SOL    HW318945   1.198   0.616   4.692  1.7520 -0.1931 -0.0577
 4793SOL    MW418946   1.178   0.589   4.612 -0.0381 -0.6675  0.4922
 4794SOL     OW18947   5.780   6.261   5.072  0.2443 -0.6502  0.3787
 4794SOL    HW218948   5.694   6.283   5.034  0.2739 -2.0268 -0.5883
 4794SOL    HW318949   5.759   6.214   5.152  0.0575 -1.3550 -0.0697
 4794SOL    MW418950   5.766   6.258   5.077 -0.0113 -0.1398 -0.5158
 4795SOL     OW18951   5.682   0.579   3.642  0.1706 -0.2174 -0.0289
 4795SOL    HW218952   5.604   0.633   3.628  0.6105  1.1644  2.3155
 4795SOL    HW318953   5.666   0.500   3.590 -1.1976  1.4702 -2.3522
 4795SOL    MW418954   5.669   0.576   3.633 -0.2163 -0.7230  0.3132
 4796SOL     OW18955   2.212   2.378   2.661 -0.4213 -0.5917  0.1822
 4796SOL    HW218956   2.166   2.358   2.579  1.5334 -1.9321 -0.6490
 4796SOL    HW318957   2.213   2.294   2.708  0.9326 -0.5302  0.2794
 4796SOL    MW418958   2.206   2.364   2.656 -0.4039 -0.4069  0.4926
 4797SOL     OW18959   4.793   3.003   0.353  0.4954 -0.0779  0.7530
 4797SOL    HW218960   4.816   3.096   0.354  0.2131 -0.0041  1.4712
 4797SOL    HW318961   4.820   2.972   0.440  1.2342 -0.8340  0.2642
 4797SOL    MW418962   4.800   3.011   0.365  1.0437  0.2862  0.0092
 4798SOL     OW18963   4.541   4.395   3.756 -0.3247  0.4414 -0.0112
 4798SOL    HW218964   4.488   4.380   3.834 -1.5406 -1.3160 -1.0827
 4798SOL    HW318965   4.486   4.452   3.701  0.3145  1.2664  0.1891
 4798SOL    MW418966   4.526   4.401   3.759 -0.1312 -0.3969 -0.4108
 4799SOL     OW18967   5.010   4.414   3.867 -0.0402  0.3970 -0.3133
 4799SOL    HW218968   5.076   4.467   3.822 -0.5561  1.2904 -0.0533
 4799SOL    HW318969   4.933   4.471   3.871 -0.6047 -0.3830 -0.0176
 4799SOL    MW418970   5.009   4.429   3.862 -0.1407  0.3842 -0.0848
 4800SOL     OW18971   1.153   0.086   0.537 -0.1145 -0.2565 -0.2386
 4800SOL    HW218972   1.181   0.127   0.455  0.4024  0.1670  0.1466
 4800SOL    HW318973   1.063   0.059   0.520  0.4197 -1.3813 -1.3896
 4800SOL    MW418974   1.145   0.088   0.524 -0.0499  0.2561  0.3399
 4801SOL     OW18975   4.979   4.454   2.179  0.2143 -0.1278 -0.3143
 4801SOL    HW218976   4.934   4.534   2.207  2.5122  1.3754 -0.5873
 4801SOL    HW318977   4.909   4.393   2.158 -1.6520  1.7950 -0.0365
 4801SOL    MW418978   4.964   4.457   2.180 -0.0600  0.1665  0.5531
 4802SOL     OW18979   5.444   1.904   3.360 -0.1247  0.6357 -0.3805
 4802SOL    HW218980   5.397   1.987   3.369 -0.0966  0.6474 -0.3398
 4802SOL    HW318981   5.500   1.899   3.438  0.0033  0.6628 -0.4699
 4802SOL    MW418982   5.445   1.914   3.371  0.2012 -0.1822  0.0486
 4803SOL     OW18983   2.636   1.943   1.397 -0.0300  0.4691 -0.1909
 4803SOL    HW218984   2.726   1.970   1.413 -0.0226  1.3566 -1.5495
 4803SOL    HW318985   2.585   1.988   1.465  0.6445 -1.0726  1.4072
 4803SOL    MW418986   2.641   1.953   1.408 -0.8512  0.1403 -0.0169
 4804SOL     OW18987   4.957   2.174   0.852  0.2616 -0.3754  0.2753
 4804SOL    HW218988   5.037   2.151   0.899  2.1252  2.1257 -1.4674
 4804SOL    HW318989   4.920   2.247   0.901 -0.5099 -0.9470  0.5681
 4804SOL    MW418990   4.962   2.180   0.865 -0.5733  0.4064 -0.1485
 4805SOL     OW18991   4.813   3.006   2.467 -0.3250 -0.2438 -0.5798
 4805SOL    HW218992   4.734   3.060   2.456 -0.0144  0.4719  0.5089
 4805SOL    HW318993   4.831   2.972   2.380 -1.1175  0.6139 -1.1006
 4805SOL    MW418994   4.805   3.009   2.454 -0.6409  0.2243 -0.1559
 4806SOL     OW18995   0.559   4.093   6.227  0.2770 -0.9887  0.1820
 4806SOL    HW218996   0.528   4.018   6.177  0.4477  0.0608 -1.5976
 4806SOL    HW318997   0.602   4.055   6.304  0.6590 -2.7170 -0.8279
 4806SOL    MW418998   0.561   4.078   6.231 -0.1949  0.3212 -0.3742
 4807SOL     OW18999   4.732   3.695   4.566  0.1771 -0.0742 -0.1413
 4807SOL    HW219000   4.729   3.602   4.544 -3.0635 -0.1924  0.2343
 4807SOL    HW319001   4.719   3.698   4.661  0.1454  0.7433 -0.1669
 4807SOL    MW419002   4.730   3.683   4.575 -0.0117  0.7197  0.6206
 4808SOL     OW19003   5.539   0.412   2.764  0.6402 -0.1833  0.0987
 4808SOL    HW219004   5.601   0.341   2.781  0.5463 -0.1282  0.7064
 4808SOL    HW319005   5.486   0.382   2.691 -1.0182 -1.8090  1.8505
 4808SOL    MW419006   5.541   0.399   2.757 -0.1119  0.0987 -0.1725
 4809SOL     OW19007   1.016   0.731   6.343  0.1145 -0.1236 -0.0651
 4809SOL    HW219008   0.989   0.779   6.421  1.1807  1.6751 -0.7329
 4809SOL    HW319009   1.109   0.712   6.357 -0.4048 -2.6890  0.4655
 4809SOL    MW419010   1.025   0.735   6.355 -0.0181 -0.2178  0.1051
 4810SOL     OW19011   0.759   2.272   0.490  0.0374  0.4001 -0.2535
 4810SOL    HW219012   0.671   2.287   0.456 -0.5395 -1.1977  0.4329
 4810SOL    HW319013   0.771   2.178   0.483  1.6181  0.5739 -0.1097
 4810SOL    MW419014   0.749   2.262   0.485 -0.4515  0.0329  0.7833
 4811SOL     OW19015   3.480   3.714   5.092 -0.2612  0.5408  0.1464
 4811SOL    HW219016   3.390   3.734   5.067 -0.6313 -0.6440  0.4610
 4811SOL    HW319017   3.524   3.695   5.008 -0.3418  0.9645  0.0067
 4811SOL    MW419018   3.474   3.714   5.077  0.3723 -0.5653  0.3884
 4812SOL     OW19019   0.129   4.139   4.158 -0.3964 -0.1314  0.0106
 4812SOL    HW219020   0.072   4.203   4.202 -0.5622  0.6972 -1.3584
 4812SOL    HW319021   0.213   4.146   4.203 -0.3897  1.1227 -0.1796
 4812SOL    MW419022   0.132   4.148   4.170  0.1035 -0.4873  0.1859
 4813SOL     OW19023   2.703   3.880   0.561  0.2407  0.0591 -0.2816
 4813SOL    HW219024   2.716   3.815   0.631 -0.0812  1.2447  0.9234
 4813SOL    HW319025   2.696   3.828   0.481  0.1682 -1.3838  0.6263
 4813SOL    MW419026   2.704   3.864   0.560 -0.2622 -0.3716 -0.2489
 4814SOL     OW19027   1.170   0.400   4.928  0.3083  0.1374 -0.2902
 4814SOL    HW219028   1.241   0.348   4.966  1.5736  0.0446 -2.5637
 4814SOL    HW319029   1.173   0.378   4.834 -2.2196  0.7729 -0.5804
 4814SOL    MW419030   1.180   0.390   4.920 -0.4307  0.0865 -0.3760
 4815SOL     OW19031   4.268   0.388   0.615 -0.0401  0.2174  0.2601
 4815SOL    HW219032   4.217   0.341   0.680  0.5823 -0.2890  0.3940
 4815SOL    HW319033   4.359   0.364   0.634  0.2113  0.7184 -0.2743
 4815SOL    MW419034   4.273   0.379   0.626 -0.5567 -0.0594  0.2827
 4816SOL     OW19035   4.843   6.094   0.433  0.4984  0.2158  0.2361
 4816SOL    HW219036   4.807   6.094   0.522 -0.8121 -0.1124 -0.2712
 4816SOL    HW319037   4.928   6.050   0.442 -0.3501 -1.3599  1.0667
 4816SOL    MW419038   4.850   6.088   0.446  0.2274 -0.2838 -0.6973
 4817SOL     OW19039   3.006   0.633   0.653  0.1113 -0.4926  0.3581
 4817SOL    HW219040   2.962   0.549   0.645  1.4374 -1.1745 -0.2496
 4817SOL    HW319041   3.090   0.620   0.609 -0.0120  1.4263 -0.5485
 4817SOL    MW419042   3.012   0.621   0.646 -0.0029  0.5220 -0.3355
 4818SOL     OW19043   5.118   3.381   3.765  0.1585 -0.2744 -0.1522
 4818SOL    HW219044   5.157   3.453   3.717  1.3902 -1.1132 -0.4623
 4818SOL    HW319045   5.125   3.407   3.857  1.2918 -0.2956 -0.2112
 4818SOL    MW419046   5.124   3.394   3.771 -0.2775 -0.0526 -0.5437
 4819SOL     OW19047  -0.004   5.378   1.461  0.4484 -0.1980 -0.2922
 4819SOL    HW219048  -0.005   5.426   1.544 -0.2160  0.1830 -0.5099
 4819SOL    HW319049  -0.068   5.424   1.406  0.9976 -0.3430 -1.0724
 4819SOL    MW419050  -0.013   5.391   1.464 -0.8453  0.4764  0.6201
 4820SOL     OW19051   3.952   4.503   2.456  0.3815 -0.0392  1.2624
 4820SOL    HW219052   3.928   4.417   2.419  1.4151 -0.4386  1.4816
 4820SOL    HW319053   4.007   4.482   2.531  1.6966  0.8243  0.5743
 4820SOL    MW419054   3.956   4.489   2.461  0.3700  0.1739 -0.3804
 4821SOL     OW19055   2.745   0.282   2.167  0.0232  0.1650  0.1617
 4821SOL    HW219056   2.792   0.269   2.085 -2.2228  1.7790 -1.5198
 4821SOL    HW319057   2.690   0.204   2.176 -0.7685  0.6130 -0.6637
 4821SOL    MW419058   2.744   0.270   2.157 -0.7745 -0.3381 -0.3964
 4822SOL     OW19059   2.443   0.638   2.134 -0.3180  0.2024  0.6275
 4822SOL    HW219060   2.487   0.722   2.144 -1.3747  0.7159  1.1107
 4822SOL    HW319061   2.501   0.586   2.078 -0.5393  1.9039 -1.2934
 4822SOL    MW419062   2.456   0.642   2.128  0.2864  0.0696  0.5994
 4823SOL     OW19063   3.361   1.977   5.584 -0.1858 -0.4010  0.1960
 4823SOL    HW219064   3.429   2.021   5.534 -0.4801  1.0161  0.9742
 4823SOL    HW319065   3.358   1.888   5.549  1.3520 -0.1941 -0.5306
 4823SOL    MW419066   3.369   1.971   5.573 -0.2009 -0.2598  0.3437
 4824SOL     OW19067   3.297   0.628   5.721  0.0810 -0.5951  1.0056
 4824SOL    HW219068   3.372   0.609   5.777 -0.5722 -2.8860  1.1747
 4824SOL    HW319069   3.273   0.718   5.744  3.4425  0.6886  0.0940
 4824SOL    MW419070   3.304   0.638   5.732  0.0575  0.6075 -0.0232
 4825SOL     OW19071   5.381   5.186   1.525  0.1826  0.7483  0.2575
 4825SOL    HW219072   5.367   5.197   1.431  1.2096  2.2871  0.2517
 4825SOL    HW319073   5.323   5.114   1.549  0.3117 -0.0744 -1.6542
 4825SOL    MW419074   5.372   5.178   1.516 -0.3160 -0.0510  0.9974
 4826SOL     OW19075   6.138   0.654   0.991 -0.3871 -0.0118 -0.1929
 4826SOL    HW219076   6.117   0.601   0.914  0.4048  1.5736 -1.5775
 4826SOL    HW319077   6.214   0.611   1.029  0.6032  0.3615 -1.6278
 4826SOL    MW419078   6.145   0.641   0.986  0.2666 -0.2778  0.2878
 4827SOL     OW19079   0.599   1.068   0.614  0.2497 -0.4475  0.4513
 4827SOL    HW219080   0.589   1.160   0.591  0.4711 -0.5676 -0.1483
 4827SOL    HW319081   0.678   1.064   0.667  2.2930 -0.7304 -2.3771
 4827SOL    MW419082   0.608   1.079   0.618 -0.2210  0.0260  0.1895
 4828SOL     OW19083   3.645   0.908   5.255 -0.2417  0.1778  0.1329
 4828SOL    HW219084   3.652   0.959   5.336  1.1299 -0.3468  0.3768
 4828SOL    HW319085   3.724   0.855   5.254  0.6857  1.4840 -2.4907
 4828SOL    MW419086   3.656   0.907   5.266  0.3230 -0.2948  0.2474
 4829SOL     OW19087   1.155   5.458   2.092  0.2777  0.5970  0.2794
 4829SOL    HW219088   1.106   5.526   2.047  2.7831  1.3886 -1.5158
 4829SOL    HW319089   1.121   5.376   2.056  0.5847  1.1412 -1.3355
 4829SOL    MW419090   1.144   5.456   2.082 -1.0879  0.9323  0.0314
 4830SOL     OW19091   5.811   0.480   6.177  0.1506 -0.4105  0.1143
 4830SOL    HW219092   5.754   0.412   6.214 -1.6185  0.4960 -0.8390
 4830SOL    HW319093   5.768   0.562   6.198 -0.6295  0.1964 -3.2551
 4830SOL    MW419094   5.798   0.482   6.184  0.2668 -0.4274 -0.7966
 4831SOL     OW19095   6.171   5.407   1.802 -0.2861  0.2455  0.1119
 4831SOL    HW219096   6.179   5.339   1.735 -1.9080 -1.1379  1.2464
 4831SOL    HW319097   6.165   5.359   1.885  0.0327  1.8519  1.1164
 4831SOL    MW419098   6.172   5.392   1.804  0.5298 -0.7662 -0.2938
 4832SOL     OW19099   1.001   5.610   1.679 -0.1663 -0.5312 -0.1981
 4832SOL    HW219100   1.056   5.552   1.627 -0.0895 -0.7326  0.1121
 4832SOL    HW319101   0.932   5.638   1.617 -0.2156 -0.9623 -0.3419
 4832SOL    MW419102   0.999   5.606   1.664 -0.3244 -0.0536 -0.2247
 4833SOL     OW19103   1.681   0.999   4.810  0.3187  0.2290  0.5002
 4833SOL    HW219104   1.603   1.022   4.861  0.8932 -0.1771  1.6173
 4833SOL    HW319105   1.668   0.908   4.786  0.0917  0.3930 -0.0043
 4833SOL    MW419106   1.669   0.990   4.814 -0.4218  0.8546 -0.1692
 4834SOL     OW19107   0.011   2.606   5.474 -0.0889  0.2217 -0.3133
 4834SOL    HW219108  -0.079   2.628   5.451 -0.5894 -0.1973  1.1194
 4834SOL    HW319109   0.063   2.680   5.442 -1.0031  0.7119 -0.6990
 4834SOL    MW419110   0.006   2.619   5.467  0.3586  0.3268  0.1965
 4835SOL     OW19111   2.950   2.309   0.102 -0.6047 -0.3992 -0.1016
 4835SOL    HW219112   3.017   2.321   0.169 -1.1952 -1.9823  0.8284
 4835SOL    HW319113   2.925   2.397   0.076 -0.2620  0.2477  1.6644
 4835SOL    MW419114   2.956   2.322   0.107 -0.2657 -0.0878  0.6073
 4836SOL     OW19115   2.523   2.078   0.056 -0.1890  0.8320  0.3472
 4836SOL    HW219116   2.492   2.165   0.081 -2.6154  0.1352  0.0080
 4836SOL    HW319117   2.462   2.050  -0.012 -0.2322 -1.6060  1.2953
 4836SOL    MW419118   2.511   2.086   0.050  0.2023  0.1701 -0.3367
 4837SOL     OW19119   2.724   4.616   3.810 -0.1908 -0.3796 -0.1706
 4837SOL    HW219120   2.662   4.689   3.803  0.3698  0.5266  2.8018
 4837SOL    HW319121   2.677   4.541   3.774 -3.2683  0.1886  2.2164
 4837SOL    MW419122   2.709   4.616   3.804  0.2099  0.2154  0.4186
 4838SOL     OW19123   5.710   1.880   0.476  0.2635 -0.4091  0.3903
 4838SOL    HW219124   5.643   1.888   0.543  1.0326 -0.5109  1.1946
 4838SOL    HW319125   5.673   1.820   0.411 -0.5256 -0.2307  0.6642
 4838SOL    MW419126   5.696   1.873   0.476  0.8224  0.3509 -0.4135
 4839SOL     OW19127   2.921   4.459   1.547  0.5237 -0.2741 -0.1351
 4839SOL    HW219128   2.946   4.380   1.500 -2.4495 -1.3163 -0.1744
 4839SOL    HW319129   2.884   4.517   1.480 -0.7072 -0.4129  0.3989
 4839SOL    MW419130   2.919   4.457   1.532 -0.3901  0.6473  0.0597
 4840SOL     OW19131   1.787   2.945   3.132 -0.0070  0.2707  0.3489
 4840SOL    HW219132   1.792   2.874   3.068 -2.6912 -0.8853  1.2524
 4840SOL    HW319133   1.762   3.022   3.082  0.3311 -0.0406 -0.3057
 4840SOL    MW419134   1.785   2.946   3.117 -0.1442 -0.2413  0.3184
 4841SOL     OW19135   2.754   5.359   4.470 -0.0421  0.1404  0.3306
 4841SOL    HW219136   2.772   5.293   4.403  0.3418 -1.0587  1.5751
 4841SOL    HW319137   2.817   5.429   4.452 -0.4562  0.2009 -1.0084
 4841SOL    MW419138   2.765   5.359   4.458 -0.2145 -0.1235 -0.3221
 4842SOL     OW19139   4.269   4.885   1.231 -0.1832  0.0085  0.5406
 4842SOL    HW219140   4.344   4.937   1.260  0.8468 -0.4462 -1.1976
 4842SOL    HW319141   4.279   4.801   1.275 -1.0283  0.7182  2.1782
 4842SOL    MW419142   4.280   4.881   1.240 -0.6126  0.5045 -0.0964
 4843SOL     OW19143   3.194   5.479   4.852 -0.0329  0.1912  0.4464
 4843SOL    HW219144   3.157   5.489   4.765 -0.5783 -0.7654  0.5601
 4843SOL    HW319145   3.146   5.542   4.906  1.7269  2.3047 -0.3279
 4843SOL    MW419146   3.183   5.488   4.848 -0.5507  0.3178  0.2404
 4844SOL     OW19147   2.583   1.526   0.734  0.0250  0.4660  0.1554
 4844SOL    HW219148   2.526   1.595   0.768  0.2573  0.0988  1.3071
 4844SOL    HW319149   2.669   1.545   0.770  0.4611  0.5289 -0.8947
 4844SOL    MW419150   2.587   1.537   0.743  0.1431 -0.1055  0.2676
 4845SOL     OW19151   3.235   5.621   3.444  0.0056  0.0248 -0.5077
 4845SOL    HW219152   3.284   5.688   3.492  1.2014 -0.4714 -0.9915
 4845SOL    HW319153   3.144   5.649   3.450  0.3391  0.9748  0.4334
 4845SOL    MW419154   3.230   5.633   3.451 -0.6119  0.2505  0.1567
 4846SOL     OW19155   0.260   2.183   0.494  0.0088 -0.0744  0.1462
 4846SOL    HW219156   0.215   2.199   0.412 -1.5593 -0.8090  0.8220
 4846SOL    HW319157   0.275   2.089   0.495 -1.5547 -0.3574  1.4203
 4846SOL    MW419158   0.256   2.173   0.484 -0.0584 -0.3186 -0.1516
 4847SOL     OW19159   5.126   0.717   6.174 -0.1643  0.0240 -0.5892
 4847SOL    HW219160   5.108   0.667   6.095 -0.1794 -0.1804 -0.4585
 4847SOL    HW319161   5.146   0.805   6.143 -0.4572  0.0176 -0.7984
 4847SOL    MW419162   5.127   0.722   6.160 -0.6510 -0.8724 -0.4082
 4848SOL     OW19163   1.406   6.009   4.040  0.0943  0.3419 -0.2658
 4848SOL    HW219164   1.371   6.096   4.019  0.0280  0.2891 -0.3736
 4848SOL    HW319165   1.399   5.960   3.958 -1.0589 -0.1627  0.1107
 4848SOL    MW419166   1.400   6.014   4.026 -0.2614  0.1784  0.0191
 4849SOL     OW19167   1.470   1.653   4.389 -0.3334  0.6104 -0.1309
 4849SOL    HW219168   1.408   1.610   4.448  1.6598  0.1668  1.7795
 4849SOL    HW319169   1.553   1.650   4.436  1.2962  0.6325 -2.8209
 4849SOL    MW419170   1.473   1.647   4.403 -0.3500  0.3040  0.8398
 4850SOL     OW19171   1.711   0.781   0.112  0.4377 -0.0906 -0.2987
 4850SOL    HW219172   1.711   0.864   0.066 -0.5141 -0.3631 -0.8031
 4850SOL    HW319173   1.739   0.717   0.046 -1.8211 -0.6241 -0.7998
 4850SOL    MW419174   1.715   0.783   0.097  0.0852 -0.0887 -0.3670
 4851SOL     OW19175   3.743   4.557   1.267  0.5193 -0.2172 -0.5734
 4851SOL    HW219176   3.741   4.652   1.253  3.8131  0.0011 -0.3134
 4851SOL    HW319177   3.655   4.536   1.297 -0.3933  2.7026 -0.8098
 4851SOL    MW419178   3.731   4.567   1.269 -0.3549 -0.1691 -0.3003
 4852SOL     OW19179   4.165   1.258   5.317  0.0090 -0.3886 -0.1887
 4852SOL    HW219180   4.189   1.312   5.242 -1.1492 -0.2462 -0.4679
 4852SOL    HW319181   4.234   1.191   5.320  2.2138  1.7628  0.9306
 4852SOL    MW419182   4.178   1.257   5.307  0.8057 -0.0170  0.1144
 4853SOL     OW19183   0.081   1.333   5.143  0.0913 -0.0192 -0.1330
 4853SOL    HW219184   0.045   1.251   5.177 -0.4063 -0.5444 -1.8233
 4853SOL    HW319185   0.072   1.396   5.215 -1.0054 -1.0390  0.6445
 4853SOL    MW419186   0.075   1.331   5.157  0.0094  0.1398  0.0023
 4854SOL     OW19187   4.837   4.850   4.124 -0.3191 -0.1599  0.1053
 4854SOL    HW219188   4.897   4.925   4.119 -1.4953  0.7859 -0.3544
 4854SOL    HW319189   4.785   4.868   4.202  0.4479 -1.3496  0.9209
 4854SOL    MW419190   4.838   4.862   4.134  0.1405  0.3656  0.0353
 4855SOL     OW19191   3.430   0.665   4.412 -0.2122 -0.6022  0.3269
 4855SOL    HW219192   3.386   0.639   4.332 -0.0493 -0.4072  0.1732
 4855SOL    HW319193   3.487   0.592   4.434  0.4716 -0.2578 -0.2685
 4855SOL    MW419194   3.432   0.652   4.405 -0.1483  0.1559  0.1007
 4856SOL     OW19195   3.678   4.914   3.776 -0.3471  0.4435  0.4862
 4856SOL    HW219196   3.679   4.965   3.695 -1.1202  0.6891  0.6205
 4856SOL    HW319197   3.728   4.835   3.756 -1.6950 -0.1581 -0.6870
 4856SOL    MW419198   3.684   4.910   3.763  0.1452  0.3992 -0.3799
 4857SOL     OW19199   2.620   2.898   2.166  0.1259 -0.0555 -0.1995
 4857SOL    HW219200   2.543   2.846   2.143 -1.1181  1.4967  0.3004
 4857SOL    HW319201   2.585   2.985   2.186  1.7487  0.1133  2.2582
 4857SOL    MW419202   2.605   2.903   2.166 -0.2836 -0.1847 -0.2645
 4858SOL     OW19203   1.328   1.029   0.306 -0.1574  0.4219 -0.6576
 4858SOL    HW219204   1.374   1.107   0.275  0.3893  0.1484 -0.5464
 4858SOL    HW319205   1.359   0.958   0.249 -1.2611  0.4214 -1.2865
 4858SOL    MW419206   1.338   1.030   0.294  0.0135  0.2034  0.4272
 4859SOL     OW19207   0.417   2.254   1.514  0.9359 -0.0377  0.1656
 4859SOL    HW219208   0.452   2.259   1.425  0.0451 -0.4392 -0.2173
 4859SOL    HW319209   0.394   2.344   1.536  2.8506  0.3658  0.7110
 4859SOL    MW419210   0.419   2.266   1.505 -0.0635  0.0380 -0.2635
 4860SOL     OW19211   0.261   2.612   3.191  0.2537  0.0413 -0.0869
 4860SOL    HW219212   0.191   2.549   3.177 -0.8323  0.5367  2.5808
 4860SOL    HW319213   0.329   2.564   3.237  0.9302  0.0072 -1.0913
 4860SOL    MW419214   0.261   2.598   3.195 -0.2637 -0.3022 -0.9435
 4861SOL     OW19215   2.681   5.734   4.219 -0.1518  0.0337 -0.5120
 4861SOL    HW219216   2.621   5.661   4.206  0.1719 -0.3358  0.0393
 4861SOL    HW319217   2.648   5.803   4.161 -1.1608 -0.1276 -0.1537
 4861SOL    MW419218   2.669   5.734   4.210 -0.7979 -0.1504 -0.0671
 4862SOL     OW19219   0.829   1.370   1.890 -0.4915  0.0113  0.2495
 4862SOL    HW219220   0.751   1.315   1.880 -0.4973  0.2839 -1.6192
 4862SOL    HW319221   0.881   1.353   1.811 -0.1495  2.1029 -0.0592
 4862SOL    MW419222   0.826   1.361   1.878 -0.3748 -0.4026 -0.6956
 4863SOL     OW19223   5.871   1.702   0.221 -0.4036  0.4638 -0.4134
 4863SOL    HW219224   5.881   1.756   0.143 -0.2693  1.3055  0.1726
 4863SOL    HW319225   5.943   1.727   0.278  1.6936 -2.6876 -1.3944
 4863SOL    MW419226   5.882   1.712   0.218 -0.4918  0.2083 -0.8344
 4864SOL     OW19227   5.472   0.625   0.838 -0.3832  0.7861  0.2547
 4864SOL    HW219228   5.492   0.699   0.895 -1.6025  0.0133  1.7615
 4864SOL    HW319229   5.379   0.636   0.818 -0.0152  0.9570 -1.5138
 4864SOL    MW419230   5.462   0.636   0.843  0.5461 -0.1170 -0.3522
 4865SOL     OW19231   5.254   0.935   4.203 -0.0415 -0.0527 -0.4569
 4865SOL    HW219232   5.217   1.009   4.156  0.7680  1.2728  0.8967
 4865SOL    HW319233   5.215   0.858   4.162 -0.0760  1.0571 -2.6276
 4865SOL    MW419234   5.244   0.935   4.192 -0.3301  0.7590  0.5634
 4866SOL     OW19235   1.929   2.985   3.744  0.2559 -0.2758  0.7443
 4866SOL    HW219236   1.943   2.979   3.838  1.6319  0.7756  0.6351
 4866SOL    HW319237   1.984   2.915   3.707  1.0857  0.4199  0.6352
 4866SOL    MW419238   1.938   2.975   3.751 -0.3091 -0.0575 -0.2048
 4867SOL     OW19239   0.006   1.671   6.030  0.7422 -0.0873 -0.6060
 4867SOL    HW219240   0.090   1.670   6.075 -0.2941 -0.3014  1.4609
 4867SOL    HW319241  -0.035   1.587   6.053 -0.2553  0.2415 -1.1067
 4867SOL    MW419242   0.012   1.659   6.039 -0.3330  0.4380 -0.0196
 4868SOL     OW19243   4.430   5.825   2.763  0.0989 -0.0179  0.3059
 4868SOL    HW219244   4.360   5.880   2.798 -1.4031 -0.4826 -1.7424
 4868SOL    HW319245   4.409   5.737   2.795  0.6737  0.0875  0.9836
 4868SOL    MW419246   4.418   5.821   2.771 -0.4125 -0.4225 -0.0826
 4869SOL     OW19247   5.751   5.949   3.958  0.2732  0.2608  0.1396
 4869SOL    HW219248   5.709   6.002   4.026 -1.2999 -0.2042 -0.4279
 4869SOL    HW319249   5.784   5.872   4.005 -0.8606 -0.0906  0.4193
 4869SOL    MW419250   5.750   5.946   3.973  0.2665 -0.0660 -0.3671
 4870SOL     OW19251   0.309   5.726   5.264  0.8068 -0.2152  0.6579
 4870SOL    HW219252   0.271   5.693   5.182  3.5497  0.1471 -0.8841
 4870SOL    HW319253   0.292   5.820   5.262 -0.7968 -0.4585  1.5113
 4870SOL    MW419254   0.302   5.734   5.253 -0.4210  0.2069 -0.7085
 4871SOL     OW19255   2.729   1.232   0.816 -0.1095  0.5769 -0.0606
 4871SOL    HW219256   2.710   1.140   0.835  0.4634  0.0662 -1.7689
 4871SOL    HW319257   2.755   1.269   0.900 -1.1179 -0.6125  0.8096
 4871SOL    MW419258   2.730   1.225   0.829 -0.2126 -0.1793  0.3827
 4872SOL     OW19259   2.780   0.611   1.605  0.4386 -0.3156 -0.0049
 4872SOL    HW219260   2.710   0.546   1.615 -0.3065  0.1205 -1.9979
 4872SOL    HW319261   2.838   0.574   1.538 -0.1177  1.1349 -1.3353
 4872SOL    MW419262   2.778   0.597   1.597 -0.4330 -0.5006  0.9220
 4873SOL     OW19263   6.395   3.175   3.337  0.3081 -0.2950 -0.0580
 4873SOL    HW219264   6.377   3.161   3.430 -0.8775  0.6359 -0.1238
 4873SOL    HW319265   6.359   3.098   3.294  0.7909 -0.6926  0.2325
 4873SOL    MW419266   6.388   3.163   3.344 -0.1705 -0.5624 -0.3101
 4874SOL     OW19267   2.029   2.907   4.469  0.1974 -0.1548  0.5252
 4874SOL    HW219268   1.967   2.862   4.527  0.3280  1.3273  1.9019
 4874SOL    HW319269   1.978   2.931   4.392 -1.0278  1.1380  1.6823
 4874SOL    MW419270   2.014   2.904   4.467  0.0051  0.0720  0.3465
 4875SOL     OW19271   3.080   4.051   0.093 -0.3444  0.2057  0.1860
 4875SOL    HW219272   2.994   4.014   0.072 -0.2249 -0.3934  0.7430
 4875SOL    HW319273   3.138   3.976   0.096  0.3291  0.6743 -0.7835
 4875SOL    MW419274   3.076   4.036   0.090 -0.1398  0.9844 -0.2036
 4876SOL     OW19275   2.156   2.274   1.641 -0.0305 -0.5057  0.1580
 4876SOL    HW219276   2.221   2.261   1.709 -1.6026 -0.8444  1.6835
 4876SOL    HW319277   2.104   2.349   1.671  0.5528  0.7793 -1.7956
 4876SOL    MW419278   2.157   2.283   1.654 -0.1316  0.2598  0.4300
 4877SOL     OW19279   4.412   3.802   4.978  0.0372  0.3334  0.3274
 4877SOL    HW219280   4.416   3.873   5.043  1.5816 -0.1655  0.8097
 4877SOL    HW319281   4.503   3.784   4.956 -0.3516 -1.1059 -0.2328
 4877SOL    MW419282   4.425   3.809   4.984  0.0728  0.1873  0.1204
 4878SOL     OW19283   3.978   6.066   3.381  0.2070 -0.2726  0.1641
 4878SOL    HW219284   3.960   5.973   3.393  1.5874 -0.9097 -2.0018
 4878SOL    HW319285   4.072   6.070   3.363 -0.1244  1.2845 -1.5744
 4878SOL    MW419286   3.988   6.054   3.380 -0.3077 -0.2028 -0.3750
 4879SOL     OW19287   1.105   4.333   3.031  0.2873 -0.6198  0.6310
 4879SOL    HW219288   1.090   4.282   3.111  1.0695 -3.3376 -0.8341
 4879SOL    HW319289   1.049   4.292   2.965 -0.0935  1.3503 -0.3638
 4879SOL    MW419290   1.095   4.321   3.033 -0.1982 -0.3943  0.2199
 4880SOL     OW19291   1.550   5.604   4.953  0.2113 -0.0257 -0.3721
 4880SOL    HW219292   1.464   5.574   4.983  0.6092 -1.1890 -0.3334
 4880SOL    HW319293   1.610   5.577   5.022  0.6051  0.8200 -0.3783
 4880SOL    MW419294   1.546   5.596   4.966 -0.4441  0.4989 -0.3429
 4881SOL     OW19295   0.981   5.655   2.385 -0.1778 -0.3628  0.0539
 4881SOL    HW219296   1.071   5.686   2.373 -0.3882 -0.2022 -1.2815
 4881SOL    HW319297   0.954   5.694   2.469  1.0880 -0.6772  0.6382
 4881SOL    MW419298   0.989   5.664   2.395 -0.4194  0.5538  0.0186
 4882SOL     OW19299   1.128   2.479   0.546  0.0862  0.3147 -0.3231
 4882SOL    HW219300   1.177   2.454   0.624  1.2827  0.8176 -0.8779
 4882SOL    HW319301   1.169   2.428   0.475  1.1582  2.1661 -1.1188
 4882SOL    MW419302   1.140   2.469   0.547  0.5150 -0.8699  0.7223
 4883SOL     OW19303   5.749   2.469   0.422  0.0521  0.1619  0.2174
 4883SOL    HW219304   5.797   2.479   0.504  0.6516 -0.6677 -0.0130
 4883SOL    HW319305   5.660   2.496   0.443 -0.1007 -1.1500  1.4707
 4883SOL    MW419306   5.744   2.474   0.436 -0.2399 -0.2058  0.1915
 4884SOL     OW19307   2.120   3.525   3.632  0.4141 -0.0987 -0.3810
 4884SOL    HW219308   2.132   3.485   3.718 -0.3487 -3.1586 -1.5660
 4884SOL    HW319309   2.052   3.591   3.645 -0.9794 -1.7190  1.0744
 4884SOL    MW419310   2.113   3.528   3.645  0.4239 -0.4241 -0.2056
 4885SOL     OW19311   2.679   6.339   3.347 -0.0844 -0.0161 -0.0883
 4885SOL    HW219312   2.615   6.337   3.419 -0.6946  0.4791 -0.6044
 4885SOL    HW319313   2.625   6.351   3.268  0.7844  3.1132 -0.3303
 4885SOL    MW419314   2.663   6.340   3.346 -0.0041  0.3672  0.0836
 4886SOL     OW19315   1.886   2.401   2.657  0.0333  0.4132 -0.0081
 4886SOL    HW219316   1.806   2.452   2.651  0.3015  0.8316 -0.0878
 4886SOL    HW319317   1.890   2.353   2.575 -0.6474 -0.3848  0.4131
 4886SOL    MW419318   1.876   2.401   2.645 -0.3517  0.3420 -0.0435
 4887SOL     OW19319   2.614   3.593   2.184 -0.3034 -0.3336 -0.2174
 4887SOL    HW219320   2.626   3.647   2.106  2.6416 -0.6784 -0.1402
 4887SOL    HW319321   2.692   3.537   2.186 -1.2138 -1.6508  1.9598
 4887SOL    MW419322   2.626   3.593   2.174  0.1585 -0.6846 -0.2093
 4888SOL     OW19323   3.016   5.832   6.131 -0.0359 -0.1548  0.3142
 4888SOL    HW219324   3.031   5.819   6.225  1.6345  2.1268  0.4538
 4888SOL    HW319325   3.095   5.797   6.089 -0.9041 -1.4540 -0.3424
 4888SOL    MW419326   3.029   5.825   6.138  0.0919 -0.0326 -0.3003
 4889SOL     OW19327   5.763   2.472   4.422 -0.0475  0.1076 -0.6086
 4889SOL    HW219328   5.823   2.534   4.463  0.4786 -0.2040 -0.8932
 4889SOL    HW319329   5.814   2.391   4.413 -0.0712  0.2360 -2.0838
 4889SOL    MW419330   5.777   2.469   4.426 -0.0861 -0.6769 -0.3241
 4890SOL     OW19331   5.922   0.477   0.447 -0.4496 -0.1168  0.1198
 4890SOL    HW219332   5.928   0.538   0.520 -0.8048 -1.1542  1.0370
 4890SOL    HW319333   5.949   0.393   0.484  0.3443 -0.4694 -1.1977
 4890SOL    MW419334   5.926   0.474   0.461 -0.4401 -0.1554  0.6461
 4891SOL     OW19335   0.521   3.284   1.271 -0.3018  0.7044 -0.2762
 4891SOL    HW219336   0.554   3.317   1.355  0.3256  0.2162 -0.3158
 4891SOL    HW319337   0.494   3.362   1.223  0.5516  1.1066 -0.1240
 4891SOL    MW419338   0.522   3.298   1.276  0.3329  0.6773  0.2223
 4892SOL     OW19339   5.817   4.085   4.217 -0.3574 -0.5311 -0.3473
 4892SOL    HW219340   5.877   4.129   4.158  0.0696 -0.4315  0.1487
 4892SOL    HW319341   5.754   4.153   4.244  0.0329 -0.3321  0.0698
 4892SOL    MW419342   5.816   4.100   4.213 -0.6065  0.0455  0.0979
 4893SOL     OW19343   1.901   6.355   0.874  0.4862 -0.4457 -0.0638
 4893SOL    HW219344   1.915   6.414   0.800 -0.1645 -1.7896 -1.2934
 4893SOL    HW319345   1.989   6.340   0.909  0.5637  2.1346  1.0359
 4893SOL    MW419346   1.915   6.361   0.869 -0.2854  0.4925 -0.3554
 4894SOL     OW19347   2.613   0.876   5.780  0.2147  0.0050  0.2775
 4894SOL    HW219348   2.675   0.947   5.794 -0.5139  0.3863  1.8529
 4894SOL    HW319349   2.594   0.878   5.687  0.3802  1.7356  0.2490
 4894SOL    MW419350   2.619   0.886   5.770  0.5965 -0.1798 -0.1659
 4895SOL     OW19351   2.132   4.266   4.318  0.0251 -0.1308  0.5028
 4895SOL    HW219352   2.197   4.265   4.389  1.3557  0.5709 -0.6452
 4895SOL    HW319353   2.048   4.252   4.361  0.9761 -1.5188  2.0109
 4895SOL    MW419354   2.130   4.264   4.333  0.5459  0.3919 -0.2161
 4896SOL     OW19355   4.769   4.310   4.530  0.9487  0.4290  0.0731
 4896SOL    HW219356   4.703   4.308   4.461  1.6472 -0.3636 -0.6045
 4896SOL    HW319357   4.850   4.284   4.486  1.5142  0.4075  1.0909
 4896SOL    MW419358   4.771   4.307   4.515 -0.1805 -0.4863  0.3354
 4897SOL     OW19359   2.446   4.000   0.548 -0.4725 -0.1961 -0.4685
 4897SOL    HW219360   2.459   4.051   0.468  0.7863  0.1514 -0.0699
 4897SOL    HW319361   2.530   3.957   0.563  0.2198  1.7773  2.0453
 4897SOL    MW419362   2.459   4.001   0.540  0.5067  0.6791 -0.0421
 4898SOL     OW19363   3.213   3.138   3.029  0.2118  0.0449 -0.7168
 4898SOL    HW219364   3.204   3.090   2.946  0.3177 -2.8259  0.7861
 4898SOL    HW319365   3.303   3.118   3.057  0.0916  0.7683  0.1989
 4898SOL    MW419366   3.224   3.129   3.022  0.5298 -0.7264  0.1774
 4899SOL     OW19367   5.229   0.952   0.054 -0.7041  0.1726  0.2632
 4899SOL    HW219368   5.209   1.041   0.083 -0.9403 -0.1266  1.0341
 4899SOL    HW319369   5.175   0.896   0.110 -3.0570 -0.3508 -2.3022
 4899SOL    MW419370   5.219   0.957   0.065 -0.2684  0.4425  0.0557
 4900SOL     OW19371   4.770   0.908   2.632  0.3032  0.1164  0.5289
 4900SOL    HW219372   4.717   0.987   2.624 -0.1289 -0.1633  0.5969
 4900SOL    HW319373   4.744   0.870   2.717 -0.8991 -1.1172 -0.3505
 4900SOL    MW419374   4.760   0.913   2.642 -0.0146  0.4926  0.1365
 4901SOL     OW19375   1.343   2.150   0.215 -0.5661  0.3366  0.2533
 4901SOL    HW219376   1.313   2.141   0.124 -1.1271  2.5615  0.1692
 4901SOL    HW319377   1.278   2.101   0.266 -0.9984  0.1851 -0.4259
 4901SOL    MW419378   1.330   2.142   0.210  0.1435  0.1193 -0.3856
 4902SOL     OW19379   4.902   2.125   4.010 -0.1839 -0.5385 -0.0628
 4902SOL    HW219380   4.891   2.215   3.979 -0.2667 -0.0760  1.2504
 4902SOL    HW319381   4.856   2.072   3.945 -0.7645  0.4228 -0.4660
 4902SOL    MW419382   4.895   2.130   3.997 -0.7882 -0.5335  0.4688
 4903SOL     OW19383   0.888   4.258   3.725  0.1252 -0.5614  0.2762
 4903SOL    HW219384   0.841   4.288   3.803 -0.0201  0.2905 -0.1347
 4903SOL    HW319385   0.821   4.250   3.658  0.6651  1.7662 -0.6359
 4903SOL    MW419386   0.873   4.261   3.727 -0.1068  0.4266 -0.4964
 4904SOL     OW19387   5.659   5.143   1.284 -0.1375  0.4460  0.6843
 4904SOL    HW219388   5.573   5.179   1.262  0.3288  2.0919  1.4008
 4904SOL    HW319389   5.721   5.194   1.232  0.6609  1.7884  2.8261
 4904SOL    MW419390   5.656   5.155   1.274  0.0334 -0.1411  0.2583
 4905SOL     OW19391   5.608   5.250   2.376 -0.7029 -0.6030  0.4698
 4905SOL    HW219392   5.576   5.340   2.373 -2.5669 -1.1657  1.5921
 4905SOL    HW319393   5.611   5.223   2.284  1.7912  1.1514 -0.0692
 4905SOL    MW419394   5.604   5.258   2.363 -0.1399  0.3711  0.0075
 4906SOL     OW19395   2.888   3.479   3.742  0.3246 -0.1260 -0.5600
 4906SOL    HW219396   2.910   3.393   3.777  0.8250 -0.0902 -0.7816
 4906SOL    HW319397   2.802   3.467   3.701  0.7443 -0.7202 -1.2870
 4906SOL    MW419398   2.879   3.466   3.741 -0.0349 -0.6707  0.1719
 4907SOL     OW19399   3.592   3.373   3.874  0.3757 -0.3624 -0.2605
 4907SOL    HW219400   3.560   3.454   3.835  0.9332 -0.0568 -0.0957
 4907SOL    HW319401   3.597   3.392   3.967 -3.7586 -1.9837  0.5305
 4907SOL    MW419402   3.588   3.386   3.881  0.6465 -1.2389 -0.2189
 4908SOL     OW19403   3.065   0.589   3.406 -0.6406 -0.0444  0.0175
 4908SOL    HW219404   3.027   0.635   3.481 -1.2989 -0.1853 -0.2229
 4908SOL    HW319405   3.085   0.502   3.439 -0.8722 -0.0866  0.0488
 4908SOL    MW419406   3.063   0.584   3.420  0.4393  0.1206  0.5488
 4909SOL     OW19407   3.949   2.963   5.345 -0.1874  0.1616  0.2765
 4909SOL    HW219408   4.021   2.977   5.284 -1.2428 -0.8490 -1.2795
 4909SOL    HW319409   3.893   2.900   5.301 -2.3888  1.4231  1.1036
 4909SOL    MW419410   3.951   2.957   5.331 -0.0957  0.1685 -1.0586
 4910SOL     OW19411   2.934   6.284   4.814 -0.4388  0.1122 -0.5456
 4910SOL    HW219412   3.004   6.220   4.804 -0.7764 -1.0345  3.0963
 4910SOL    HW319413   2.977   6.369   4.803  0.7517 -0.6125 -1.7601
 4910SOL    MW419414   2.949   6.287   4.811 -0.2208  0.2471 -0.1347
 4911SOL     OW19415   0.308   1.823   2.940  0.1051  0.6648 -0.0547
 4911SOL    HW219416   0.324   1.729   2.946 -0.7686  0.4673 -0.5805
 4911SOL    HW319417   0.395   1.863   2.934  0.4502 -0.1744 -0.7119
 4911SOL    MW419418   0.321   1.816   2.940  0.0976 -0.4662 -0.4882
 4912SOL     OW19419   3.665   5.395   5.953  0.4537 -0.0204 -0.1281
 4912SOL    HW219420   3.614   5.466   5.915  0.8128  1.4299  1.9403
 4912SOL    HW319421   3.752   5.432   5.966  0.6169 -0.7725  1.0856
 4912SOL    MW419422   3.670   5.409   5.950  0.3456 -0.4548 -0.2838
 4913SOL     OW19423   5.180   1.161   5.623 -0.2161 -0.2473  0.4628
 4913SOL    HW219424   5.223   1.175   5.707 -1.6402  3.6787  0.7090
 4913SOL    HW319425   5.102   1.216   5.626 -1.3755 -1.4744 -2.7398
 4913SOL    MW419426   5.175   1.170   5.635  0.6998  0.1992 -0.2287
 4914SOL     OW19427   4.265   2.587   0.306  0.1085  0.0235  0.0937
 4914SOL    HW219428   4.286   2.505   0.350 -1.0446  0.4644  1.5753
 4914SOL    HW319429   4.333   2.648   0.334 -1.0395  0.5165  2.0426
 4914SOL    MW419430   4.277   2.585   0.316 -0.9839  0.8013  0.4160
 4915SOL     OW19431   1.581   1.566   2.891  0.4252  0.3731 -0.1301
 4915SOL    HW219432   1.542   1.514   2.821 -1.0920 -0.0397  0.9731
 4915SOL    HW319433   1.628   1.636   2.846  1.2128 -1.0382 -1.5997
 4915SOL    MW419434   1.582   1.569   2.876  0.6185  0.0396  0.4236
 4916SOL     OW19435   1.411   2.894   2.930  0.0965  0.1765  0.2117
 4916SOL    HW219436   1.315   2.893   2.926  0.0374  0.8748  1.0920
 4916SOL    HW319437   1.432   2.976   2.974  1.2983  2.0093 -3.4003
 4916SOL    MW419438   1.401   2.905   2.935  0.3388 -0.2243  0.7103
 4917SOL     OW19439   3.404   1.405   0.964 -0.1111 -0.0458 -0.1725
 4917SOL    HW219440   3.497   1.390   0.947 -0.2272  0.6472 -1.6144
 4917SOL    HW319441   3.375   1.328   1.012  1.1460 -0.3942  0.0498
 4917SOL    MW419442   3.413   1.393   0.968 -0.1267 -0.1857  0.2508
 4918SOL     OW19443   1.292   1.017   4.405 -0.2881 -0.2771  0.5054
 4918SOL    HW219444   1.273   1.019   4.499 -2.2786 -2.2318  0.2131
 4918SOL    HW319445   1.254   1.099   4.372  0.1229  0.2621  1.3384
 4918SOL    MW419446   1.284   1.028   4.413 -0.2947  0.3396  0.4112
 4919SOL     OW19447   0.144   4.924   4.236 -0.4459  0.4751  0.0877
 4919SOL    HW219448   0.121   5.005   4.283 -2.6011  0.0247 -0.1039
 4919SOL    HW319449   0.067   4.868   4.246  0.9734 -1.5683  0.1698
 4919SOL    MW419450   0.131   4.928   4.244 -0.4932  0.0397  0.4558
 4920SOL     OW19451   4.448   5.906   6.093 -0.8007 -0.5590 -0.2333
 4920SOL    HW219452   4.403   5.985   6.122 -1.5711 -1.2502  0.5158
 4920SOL    HW319453   4.526   5.938   6.047 -1.4903  0.6410 -0.6140
 4920SOL    MW419454   4.452   5.920   6.091 -0.0346  0.1647 -0.3428
 4921SOL     OW19455   5.795   5.832   0.881  0.1717  0.3492 -0.0221
 4921SOL    HW219456   5.713   5.784   0.894  0.1844  0.9164  2.9844
 4921SOL    HW319457   5.850   5.805   0.954  2.3823  0.6663 -1.4696
 4921SOL    MW419458   5.791   5.822   0.892  0.1895 -0.2396 -0.2448
 4922SOL     OW19459   0.105   4.100   1.203  0.6061  0.2629  0.2234
 4922SOL    HW219460   0.159   4.063   1.133  1.7427  1.7362  0.2784
 4922SOL    HW319461   0.120   4.195   1.197 -1.5080  0.6737  0.6456
 4922SOL    MW419462   0.114   4.108   1.193  0.5320 -0.2078  0.0157
 4923SOL     OW19463   5.592   5.077   3.257 -0.6283  0.5854 -0.3654
 4923SOL    HW219464   5.511   5.122   3.236 -0.5079  1.0536  0.1523
 4923SOL    HW319465   5.588   4.995   3.207 -1.1201  0.8961 -0.8369
 4923SOL    MW419466   5.581   5.072   3.247 -0.1976 -0.2601  0.3935
 4924SOL     OW19467   4.737   1.724   3.434  0.3527  0.0933 -0.2308
 4924SOL    HW219468   4.644   1.705   3.445  0.9177 -2.0562  1.6374
 4924SOL    HW319469   4.740   1.819   3.419 -2.0738  0.3972  0.6839
 4924SOL    MW419470   4.725   1.734   3.434  0.0917  0.1273  0.3154
 4925SOL     OW19471   4.995   2.083   2.573  0.3383 -0.7217  0.2979
 4925SOL    HW219472   4.930   2.037   2.519  0.8024 -1.4830  0.3788
 4925SOL    HW319473   4.958   2.170   2.584  0.4411 -0.3967 -1.6328
 4925SOL    MW419474   4.981   2.088   2.567  0.2163  0.3751  0.4160
 4926SOL     OW19475   1.949   6.338   2.023  0.0530 -0.2827  0.6294
 4926SOL    HW219476   1.878   6.308   1.966  0.2140 -1.4470  1.0065
 4926SOL    HW319477   2.029   6.317   1.975  0.1663  0.3624  0.5239
 4926SOL    MW419478   1.951   6.331   2.009  0.2956  0.1423  0.2791
 4927SOL     OW19479   3.422   5.140   0.611 -0.0194  0.0461  0.0603
 4927SOL    HW219480   3.338   5.120   0.568 -0.0030 -1.9444  0.8701
 4927SOL    HW319481   3.400   5.143   0.704  0.9142 -1.2148  0.3390
 4927SOL    MW419482   3.408   5.138   0.617  0.9134  0.0820 -0.2932
 4928SOL     OW19483   0.584   3.977   4.789  0.2372 -0.5945  0.1142
 4928SOL    HW219484   0.505   4.019   4.823 -0.3571  0.8410 -2.6718
 4928SOL    HW319485   0.563   3.884   4.788 -0.1396 -0.5728  2.3841
 4928SOL    MW419486   0.570   3.970   4.793  0.0702 -0.8391  0.4496
 4929SOL     OW19487   2.594   6.427   1.373 -0.3150 -0.0931  0.5811
 4929SOL    HW219488   2.632   6.485   1.439  2.2013 -0.6475 -0.2781
 4929SOL    HW319489   2.548   6.360   1.423  1.4068 -0.4167  1.8006
 4929SOL    MW419490   2.593   6.426   1.388  0.4194  0.1677  0.2814
 4930SOL     OW19491   2.863   1.505   1.619 -0.2091  0.2727 -0.2557
 4930SOL    HW219492   2.837   1.424   1.575 -3.5332 -0.1999  2.1644
 4930SOL    HW319493   2.817   1.574   1.571 -0.1609  0.3016 -0.2604
 4930SOL    MW419494   2.853   1.503   1.607 -0.3258  0.2092 -0.2169
 4931SOL     OW19495   1.651   5.941   1.340 -0.1567  0.5641  0.4584
 4931SOL    HW219496   1.632   5.999   1.413  1.0644  0.9611  0.4915
 4931SOL    HW319497   1.570   5.938   1.289 -0.9887  0.3615  1.7554
 4931SOL    MW419498   1.638   5.948   1.343  0.0520 -0.0478  0.0559
 4932SOL     OW19499   3.742   0.395   2.298  0.0353  0.2252 -0.5336
 4932SOL    HW219500   3.803   0.353   2.357 -0.5072 -0.9497 -0.7774
 4932SOL    HW319501   3.702   0.465   2.350  0.9443  0.4538 -0.1212
 4932SOL    MW419502   3.745   0.399   2.313 -0.3935 -0.0658 -0.0503
 4933SOL     OW19503   5.145   3.188   3.519  0.6966 -0.0285  0.4183
 4933SOL    HW219504   5.232   3.183   3.478  0.2470  1.6765 -0.8613
 4933SOL    HW319505   5.162   3.223   3.607  1.4914 -1.8467  1.0241
 4933SOL    MW419506   5.159   3.192   3.525  0.1957 -0.3681  0.2875
 4934SOL     OW19507   0.472   1.901   4.956  0.6760  0.2848 -0.0078
 4934SOL    HW219508   0.436   1.929   4.872 -1.7541  0.8187  1.1005
 4934SOL    HW319509   0.505   1.812   4.940 -0.8486 -0.1018 -1.2658
 4934SOL    MW419510   0.471   1.893   4.943 -0.1261 -0.3893 -0.3504
 4935SOL     OW19511   2.711   3.906   1.782  0.6574 -0.1856 -0.2679
 4935SOL    HW219512   2.649   3.843   1.820 -0.9275  0.3050 -1.8746
 4935SOL    HW319513   2.752   3.947   1.858 -1.2145 -0.3445  0.9062
 4935SOL    MW419514   2.708   3.903   1.797 -0.1192 -0.6221  0.2228
 4936SOL     OW19515   0.380   1.251   4.712  0.1425 -0.2499  0.2448
 4936SOL    HW219516   0.440   1.190   4.754  0.1674 -1.4666 -1.4423
 4936SOL    HW319517   0.322   1.280   4.782  0.9492 -1.1983  1.3437
 4936SOL    MW419518   0.380   1.247   4.727 -0.3206 -0.6840 -0.2955
 4937SOL     OW19519   2.988   3.049   3.883 -0.2011  0.3751  0.6276
 4937SOL    HW219520   3.024   2.990   3.817 -1.9689 -1.9684  1.6185
 4937SOL    HW319521   3.043   3.034   3.960 -0.2951  0.4486  0.7089
 4937SOL    MW419522   3.000   3.039   3.884  0.4720  0.0253 -0.7303
 4938SOL     OW19523   1.141   3.460   0.673  0.0018 -0.0329  0.7078
 4938SOL    HW219524   1.175   3.544   0.705 -0.8619 -0.2043  2.1466
 4938SOL    HW319525   1.065   3.484   0.619 -0.3523  0.1029  1.2635
 4938SOL    MW419526   1.136   3.474   0.670 -0.1184  0.0927  0.3573
 4939SOL     OW19527   5.049   1.650   5.640  0.0479  0.0532  0.4357
 4939SOL    HW219528   5.070   1.722   5.580  0.9664 -0.6907 -0.1558
 4939SOL    HW319529   4.960   1.625   5.617  0.2176  0.1031 -0.2965
 4939SOL    MW419530   5.040   1.656   5.629  0.0524  0.0987  0.0972
 4940SOL     OW19531   3.945   1.513   4.462  0.0007  0.1186 -0.0109
 4940SOL    HW219532   3.909   1.545   4.379  0.2260 -1.2972 -0.6790
 4940SOL    HW319533   4.007   1.581   4.488 -0.8988  1.1322 -0.4004
 4940SOL    MW419534   3.948   1.526   4.454 -0.1537  0.5871 -0.5587
 4941SOL     OW19535   3.863   4.352   0.484  0.1378  0.5046 -0.3171
 4941SOL    HW219536   3.918   4.410   0.538 -0.9354  1.8665 -0.6177
 4941SOL    HW319537   3.802   4.312   0.546 -0.8072  1.7305 -0.4152
 4941SOL    MW419538   3.863   4.355   0.499 -0.6645 -0.2040  0.6504
 4942SOL     OW19539   4.901   1.162   3.355  0.5648 -0.3891 -0.4627
 4942SOL    HW219540   4.989   1.150   3.390  0.5253 -1.0674 -0.5986
 4942SOL    HW319541   4.872   1.245   3.393  1.1763 -0.2721 -0.2437
 4942SOL    MW419542   4.909   1.172   3.365 -0.5404  0.1949 -0.0709
 4943SOL     OW19543   4.886   2.495   4.853 -0.3476 -0.3436  0.0171
 4943SOL    HW219544   4.799   2.522   4.883  0.0136  0.8865  0.0081
 4943SOL    HW319545   4.933   2.473   4.933 -0.1329  0.6723  0.1909
 4943SOL    MW419546   4.881   2.496   4.867 -0.2020 -0.5847  0.6117
 4944SOL     OW19547   5.517   0.358   1.315  0.4772 -0.0789 -1.0223
 4944SOL    HW219548   5.573   0.434   1.327 -0.2398  0.4817 -1.1688
 4944SOL    HW319549   5.476   0.371   1.229  0.7393 -0.8882 -1.2799
 4944SOL    MW419550   5.519   0.370   1.305  0.1375 -0.2841 -0.2284
 4945SOL     OW19551   4.145   0.788   1.083 -0.2790  0.1871 -0.3552
 4945SOL    HW219552   4.231   0.816   1.051 -0.9053 -0.5986 -2.9751
 4945SOL    HW319553   4.088   0.864   1.071 -0.3695  0.0900 -0.5630
 4945SOL    MW419554   4.149   0.801   1.077 -0.2325  0.1717  0.0166
 4946SOL     OW19555   0.408   2.816   5.178 -0.1313 -0.0511  0.4467
 4946SOL    HW219556   0.353   2.805   5.101  2.1211  0.4616 -1.3273
 4946SOL    HW319557   0.431   2.727   5.204 -0.3870 -0.2105  0.1293
 4946SOL    MW419558   0.404   2.803   5.171  0.4218 -0.5501  0.1460
 4947SOL     OW19559   3.464   6.094   5.757  0.3429 -0.0786  0.0686
 4947SOL    HW219560   3.496   6.139   5.835 -0.8480  3.8116 -1.4719
 4947SOL    HW319561   3.437   6.008   5.789 -0.4515  1.4120  4.0208
 4947SOL    MW419562   3.465   6.089   5.772 -0.2010 -0.4777  0.0317
 4948SOL     OW19563   5.825   4.665   1.067  0.4693 -0.2618 -0.3169
 4948SOL    HW219564   5.844   4.635   1.156 -1.3140  0.9784  0.5393
 4948SOL    HW319565   5.828   4.586   1.013 -0.3233 -1.3529  1.1900
 4948SOL    MW419566   5.828   4.651   1.071  0.0584 -0.1400 -0.4631
 4949SOL     OW19567   1.655   1.464   5.851 -0.4203  0.1215  0.3608
 4949SOL    HW219568   1.701   1.381   5.864  2.5954  1.7183  0.7005
 4949SOL    HW319569   1.643   1.470   5.757  0.0977 -0.3125  0.2622
 4949SOL    MW419570   1.659   1.454   5.841  0.0408 -0.3680 -0.4949
 4950SOL     OW19571   2.276   4.401   6.064 -0.0062  0.0209  0.1814
 4950SOL    HW219572   2.348   4.441   6.112  1.2528 -0.7163 -1.0259
 4950SOL    HW319573   2.209   4.384   6.131  0.7142  1.1856  1.2343
 4950SOL    MW419574   2.277   4.404   6.079  0.5019 -0.0878  0.3150
 4951SOL     OW19575   1.190   1.903   3.076 -0.6904  0.3397  0.8030
 4951SOL    HW219576   1.122   1.882   3.140 -2.3993  0.3152 -0.9528
 4951SOL    HW319577   1.237   1.820   3.064 -3.2803 -0.9485 -1.2822
 4951SOL    MW419578   1.187   1.889   3.083  0.1281 -0.2413  0.2468
 4952SOL     OW19579   2.183   3.185   3.412  0.2310 -0.1502  0.5400
 4952SOL    HW219580   2.221   3.098   3.406  1.2855  0.1326  2.4330
 4952SOL    HW319581   2.088   3.170   3.405  0.4161 -1.3957  0.4567
 4952SOL    MW419582   2.175   3.172   3.411 -0.6818 -0.5078 -0.0066
 4953SOL     OW19583   1.516   5.295   1.825 -0.2525  0.5419 -0.0098
 4953SOL    HW219584   1.564   5.347   1.761 -0.9539  1.1926 -0.0353
 4953SOL    HW319585   1.494   5.358   1.895 -0.6199  0.1497  0.2351
 4953SOL    MW419586   1.519   5.310   1.826  0.3732  0.1045  0.1207
 4954SOL     OW19587   6.356   6.050   0.360 -0.2480  0.1217 -0.2467
 4954SOL    HW219588   6.351   6.117   0.429 -0.2783  0.3909 -0.5062
 4954SOL    HW319589   6.290   6.077   0.296 -0.9734 -0.7198  0.1267
 4954SOL    MW419590   6.346   6.063   0.361 -0.6136 -0.2307  0.3841
 4955SOL     OW19591   3.504   3.624   3.770  0.0372 -0.1056 -0.2325
 4955SOL    HW219592   3.545   3.670   3.843 -0.2699 -0.4554  0.1651
 4955SOL    HW319593   3.554   3.651   3.693  2.3132 -2.0256  0.4574
 4955SOL    MW419594   3.516   3.634   3.769 -0.5031 -0.1810 -0.1405
 4956SOL     OW19595   3.778   5.080   0.718  0.3148 -0.6634 -0.2941
 4956SOL    HW219596   3.833   5.148   0.680  0.0745 -0.3936 -0.1628
 4956SOL    HW319597   3.733   5.040   0.644 -0.1962 -0.1015 -0.2839
 4956SOL    MW419598   3.779   5.083   0.703 -0.2980  0.6036  0.5575
 4957SOL     OW19599   2.444   2.753   4.613 -0.4323  0.0418 -0.0259
 4957SOL    HW219600   2.390   2.767   4.535 -1.3464 -0.9680  0.4109
 4957SOL    HW319601   2.392   2.791   4.685  0.4368  1.0353  0.1070
 4957SOL    MW419602   2.430   2.760   4.612  0.0618 -0.1108  0.7890
 4958SOL     OW19603   0.280   2.166   2.885  0.1407  0.2698  0.1053
 4958SOL    HW219604   0.281   2.259   2.867 -1.5554  0.0649 -1.2764
 4958SOL    HW319605   0.352   2.130   2.834 -1.8211  0.3193 -2.9864
 4958SOL    MW419606   0.289   2.173   2.876 -0.4544 -0.4215  0.0541
 4959SOL     OW19607   0.057   5.667   2.261  0.1336 -0.3760 -0.3959
 4959SOL    HW219608   0.041   5.761   2.252 -1.9752 -0.6061  0.4862
 4959SOL    HW319609  -0.008   5.626   2.204  1.5381 -1.3128 -1.3697
 4959SOL    MW419610   0.046   5.674   2.252 -0.0167  0.5543  0.1423
 4960SOL     OW19611   5.877   3.243   5.054  0.5530 -0.3900  0.1807
 4960SOL    HW219612   5.945   3.310   5.057  0.4630 -0.3060  2.2386
 4960SOL    HW319613   5.851   3.238   4.962  0.5714  2.3804 -0.0588
 4960SOL    MW419614   5.882   3.251   5.043 -0.3936  0.3643  0.3181
 4961SOL     OW19615   2.235   6.250   0.677 -0.8611  0.3971  1.0014
 4961SOL    HW219616   2.287   6.186   0.629 -0.4457  0.8521  0.8315
 4961SOL    HW319617   2.294   6.282   0.745 -1.2726  0.1425  1.4814
 4961SOL    MW419618   2.250   6.246   0.680 -0.5724  0.4594 -0.0030
 4962SOL     OW19619   4.959   3.474   5.344 -0.2254 -0.1132 -0.0288
 4962SOL    HW219620   4.885   3.525   5.311 -0.3790 -0.4872 -0.2714
 4962SOL    HW319621   4.939   3.384   5.318  0.5761 -0.1427 -0.5697
 4962SOL    MW419622   4.947   3.469   5.336  0.0601  0.0526 -0.4343
 4963SOL     OW19623   1.989   6.233   3.529  0.2663  0.0392 -0.3234
 4963SOL    HW219624   2.040   6.178   3.590  0.1016  0.5896  0.3183
 4963SOL    HW319625   2.055   6.266   3.468  0.6698  0.5938  0.3877
 4963SOL    MW419626   2.005   6.230   3.529  0.6316  1.0088 -0.6722
 4964SOL     OW19627   1.368   3.342   3.947  0.0359  0.4620 -0.1499
 4964SOL    HW219628   1.405   3.321   3.861  1.4087  1.0482  0.2823
 4964SOL    HW319629   1.373   3.259   3.996  0.7467  0.5162 -0.1183
 4964SOL    MW419630   1.374   3.328   3.942  0.1920  0.1325 -0.6166
 4965SOL     OW19631   0.405   5.596   1.957 -0.0399 -0.0384  0.0305
 4965SOL    HW219632   0.445   5.511   1.938 -0.6227 -0.2538 -0.2678
 4965SOL    HW319633   0.381   5.590   2.050 -3.4629 -1.6939 -0.7820
 4965SOL    MW419634   0.407   5.584   1.967 -0.3003 -0.1105  0.0648
 4966SOL     OW19635   5.948   0.913   6.022  0.3703  0.4939  0.1595
 4966SOL    HW219636   6.016   0.870   5.970 -0.5900 -0.9765  0.0488
 4966SOL    HW319637   5.877   0.929   5.959 -0.1226  0.2942  0.6570
 4966SOL    MW419638   5.947   0.909   6.007  0.0626  0.1608 -0.5343
 4967SOL     OW19639   2.794   4.133   0.582  0.5669 -0.2100 -0.0104
 4967SOL    HW219640   2.756   4.046   0.571 -1.5427  0.6372  0.1634
 4967SOL    HW319641   2.843   4.148   0.501 -1.1807 -0.5700 -1.1902
 4967SOL    MW419642   2.796   4.124   0.570  0.1036  0.0850 -0.4124
 4968SOL     OW19643   1.631   0.508   2.960  0.4240 -0.2971 -0.6123
 4968SOL    HW219644   1.601   0.596   2.980  1.0821 -0.4034  1.0900
 4968SOL    HW319645   1.721   0.519   2.929  0.3923 -0.3410 -0.7199
 4968SOL    MW419646   1.639   0.521   2.959  0.1057 -0.2031  0.6709
 4969SOL     OW19647   1.763   5.924   3.865  0.1955  0.1667 -0.0366
 4969SOL    HW219648   1.791   5.897   3.777 -2.5485 -0.6940 -0.7300
 4969SOL    HW319649   1.715   5.849   3.899  1.8154  0.1935  2.5906
 4969SOL    MW419650   1.760   5.910   3.858 -0.2261  0.2130  0.1269
 4970SOL     OW19651   0.471   5.546   6.065  0.5940  0.0301 -0.1229
 4970SOL    HW219652   0.430   5.485   6.005  0.6046 -0.4554  0.3533
 4970SOL    HW319653   0.459   5.632   6.025  0.1074 -0.2290 -0.5352
 4970SOL    MW419654   0.464   5.549   6.052  1.0433  0.2373  0.2879
 4971SOL     OW19655   5.019   0.485   4.678 -0.4785  0.5405 -0.7030
 4971SOL    HW219656   5.075   0.544   4.627  0.1127  0.5653 -0.0308
 4971SOL    HW319657   5.071   0.406   4.689 -0.2819  0.8297  0.5465
 4971SOL    MW419658   5.033   0.482   4.672 -0.3073 -0.6517  0.4973
 4972SOL     OW19659   1.651   3.075   3.463  0.0626  0.7804  0.0186
 4972SOL    HW219660   1.656   2.994   3.513 -0.3239  1.0756  0.5419
 4972SOL    HW319661   1.593   3.054   3.389 -0.1192  0.6050  0.2082
 4972SOL    MW419662   1.644   3.061   3.460 -0.0174  0.1516  0.0289
 4973SOL     OW19663   2.391   0.430   2.893  0.3209  0.2366 -0.7902
 4973SOL    HW219664   2.376   0.406   2.984 -0.7739  0.3208 -0.9355
 4973SOL    HW319665   2.370   0.351   2.844 -0.6279  0.6519 -1.0737
 4973SOL    MW419666   2.386   0.417   2.898  0.7464  0.3102  0.5234
 4974SOL     OW19667   2.629   0.223   0.772  0.4189  0.1458 -0.1382
 4974SOL    HW219668   2.589   0.151   0.722  0.5133  0.4347 -0.6351
 4974SOL    HW319669   2.615   0.199   0.863  2.0757 -1.4366 -0.2436
 4974SOL    MW419670   2.622   0.210   0.777  0.1654 -0.8719 -0.2508
 4975SOL     OW19671   3.001   0.901   4.046  0.1269  0.5166 -0.2975
 4975SOL    HW219672   2.969   0.990   4.059  3.2489  1.8043 -0.5976
 4975SOL    HW319673   2.998   0.861   4.133 -0.8372  1.0646 -0.0664
 4975SOL    MW419674   2.996   0.907   4.059  0.0958  0.4854 -0.0985
 4976SOL     OW19675   4.642   5.046   4.526  0.2356 -0.3564 -0.0480
 4976SOL    HW219676   4.639   5.129   4.479 -0.0359 -0.0916  0.4338
 4976SOL    HW319677   4.685   5.066   4.609 -0.1029 -0.6343  0.1976
 4976SOL    MW419678   4.648   5.059   4.531  0.2002  0.0833  0.0789
 4977SOL     OW19679   0.875   1.127   6.272 -0.6011  0.0784  0.6009
 4977SOL    HW219680   0.847   1.101   6.359  1.0813 -1.4790  0.7513
 4977SOL    HW319681   0.962   1.088   6.262 -1.2000 -0.8259 -2.1994
 4977SOL    MW419682   0.883   1.118   6.282  0.0945 -0.3881 -0.3004
 4978SOL     OW19683   2.360   3.127   4.978 -0.5197  0.0793 -0.3666
 4978SOL    HW219684   2.287   3.084   4.934 -0.8623  0.6991 -0.4096
 4978SOL    HW319685   2.383   3.201   4.920  0.0965 -0.0692 -0.3235
 4978SOL    MW419686   2.354   3.131   4.964 -0.1170 -1.0423  0.5615
 4979SOL     OW19687   4.147   6.244   0.680  0.3627 -0.1864 -0.2340
 4979SOL    HW219688   4.203   6.299   0.625 -0.2314  0.5514 -0.1159
 4979SOL    HW319689   4.100   6.189   0.618 -1.4694  1.7143 -0.6421
 4979SOL    MW419690   4.148   6.244   0.665  0.0311 -0.0834  0.5845
 4980SOL     OW19691   0.066   0.367   3.031 -0.3810  0.2752  0.2675
 4980SOL    HW219692   0.145   0.381   2.979 -0.0737  0.6880  0.8424
 4980SOL    HW319693   0.078   0.281   3.071  0.0364  0.5943  0.8205
 4980SOL    MW419694   0.078   0.358   3.029  0.1012 -0.2020  0.4790
 4981SOL     OW19695   2.579   5.002   0.310 -0.3620  0.1975 -0.5481
 4981SOL    HW219696   2.504   4.950   0.339 -0.8436  0.8303 -0.6492
 4981SOL    HW319697   2.561   5.021   0.218  0.9745 -1.4776 -1.2295
 4981SOL    MW419698   2.567   4.998   0.302  0.5505 -0.1013 -0.2533
 4982SOL     OW19699   6.149   6.092   5.303  0.6757 -0.1001  0.1360
 4982SOL    HW219700   6.143   6.008   5.348  0.1215  0.2917  0.8105
 4982SOL    HW319701   6.165   6.069   5.211  1.1587 -0.9201  0.4164
 4982SOL    MW419702   6.150   6.078   5.296 -0.2029 -0.1215 -0.0627
 4983SOL     OW19703   0.834   4.828   0.820 -0.5190  0.4353  0.1127
 4983SOL    HW219704   0.754   4.805   0.772  0.0102  0.7282 -0.9331
 4983SOL    HW319705   0.898   4.763   0.792 -0.5683 -0.2314  1.4907
 4983SOL    MW419706   0.832   4.817   0.810 -0.0481  0.8568  0.0884
 4984SOL     OW19707   4.392   1.680   0.205 -0.0618  0.2675  0.2484
 4984SOL    HW219708   4.301   1.653   0.209 -0.2927  0.6773 -1.4532
 4984SOL    HW319709   4.414   1.706   0.295 -0.9962 -1.7198  1.0982
 4984SOL    MW419710   4.383   1.680   0.217  0.1874 -0.4980 -0.0675
 4985SOL     OW19711   0.754   4.082   3.134 -0.3739 -0.2171 -0.3403
 4985SOL    HW219712   0.700   4.011   3.169  0.6479 -2.0238 -2.1768
 4985SOL    HW319713   0.795   4.121   3.212  0.0432 -2.5290  0.7065
 4985SOL    MW419714   0.752   4.078   3.149  0.0787 -0.2442 -0.4785
 4986SOL     OW19715   0.276   5.313   3.744  0.3865 -0.1677 -0.1829
 4986SOL    HW219716   0.358   5.345   3.708  0.8730 -1.1776  0.0095
 4986SOL    HW319717   0.210   5.338   3.679  1.1822 -1.5551 -1.5896
 4986SOL    MW419718   0.278   5.321   3.731  0.1594  0.5597  0.1776
 4987SOL     OW19719   2.687   1.476   4.974  0.2321  0.4022  0.6224
 4987SOL    HW219720   2.628   1.518   4.910 -0.1987 -0.0957  0.6870
 4987SOL    HW319721   2.672   1.525   5.055  1.5534  1.7309  0.1187
 4987SOL    MW419722   2.677   1.488   4.976 -0.4168  0.5489 -0.1015
 4988SOL     OW19723   5.793   1.001   3.890  0.3222  0.4921 -0.0529
 4988SOL    HW219724   5.810   0.924   3.836 -0.3396  0.4283 -0.1783
 4988SOL    HW319725   5.758   1.066   3.828  1.0249  0.9520  0.0197
 4988SOL    MW419726   5.790   1.000   3.874 -0.3427 -0.5679 -0.1517
 4989SOL     OW19727   5.866   2.411   5.429 -0.0542  0.1578  0.4958
 4989SOL    HW219728   5.905   2.442   5.511  1.5029 -1.1784  0.3069
 4989SOL    HW319729   5.798   2.350   5.457 -0.5130  0.7916  0.7976
 4989SOL    MW419730   5.862   2.407   5.444 -0.0291 -0.0623  0.8077
 4990SOL     OW19731   5.666   2.289   2.337 -0.3327  0.5582  0.1005
 4990SOL    HW219732   5.752   2.324   2.313 -0.5059  0.6653 -0.3739
 4990SOL    HW319733   5.620   2.363   2.377 -0.0909  0.4141  0.6568
 4990SOL    MW419734   5.671   2.304   2.339 -0.1686 -0.5272 -0.2404
 4991SOL     OW19735   5.120   4.787   2.213 -0.0101 -0.6176 -0.0795
 4991SOL    HW219736   5.091   4.863   2.162 -0.2292  1.0255  2.3270
 4991SOL    HW319737   5.040   4.742   2.236 -0.0590 -0.3372  0.3038
 4991SOL    MW419738   5.106   4.791   2.209 -0.3234  0.2603 -0.0398
 4992SOL     OW19739   4.392   6.277   0.282 -0.0158 -0.5289 -0.2320
 4992SOL    HW219740   4.389   6.206   0.217  0.3444 -0.7870  0.0232
 4992SOL    HW319741   4.466   6.331   0.254 -0.2088 -0.3253 -0.3515
 4992SOL    MW419742   4.402   6.275   0.270 -0.3615  0.3513  0.0028
 4993SOL     OW19743   5.836   2.604   3.086 -0.2079  0.3018 -0.4869
 4993SOL    HW219744   5.745   2.608   3.116  0.0814 -1.8503  0.8832
 4993SOL    HW319745   5.884   2.658   3.149 -0.2028 -0.7453  0.4400
 4993SOL    MW419746   5.830   2.612   3.098 -0.0733  0.4355 -0.3675
 4994SOL     OW19747   0.987   1.848   1.106  0.2149  0.5770  0.0650
 4994SOL    HW219748   0.948   1.934   1.091 -0.8605  0.3016  1.1502
 4994SOL    HW319749   0.917   1.796   1.143  0.9028 -0.7330 -0.4189
 4994SOL    MW419750   0.973   1.853   1.109  0.1942 -0.3230 -0.4445
 4995SOL     OW19751   2.233   1.491   2.555 -0.3458 -0.3377 -0.4273
 4995SOL    HW219752   2.262   1.462   2.641 -0.0148 -1.3597 -0.8696
 4995SOL    HW319753   2.193   1.577   2.571  0.2528 -0.2372  0.6459
 4995SOL    MW419754   2.232   1.499   2.568  0.2606  0.0986 -0.5501
 4996SOL     OW19755   3.216   1.146   5.179  0.1613 -0.2697  0.2799
 4996SOL    HW219756   3.255   1.092   5.248 -1.6299 -2.0224  0.0317
 4996SOL    HW319757   3.290   1.176   5.127  1.3360 -1.3527  1.2507
 4996SOL    MW419758   3.231   1.143   5.181 -0.1771  0.6612 -0.3498
 4997SOL     OW19759   6.385   2.962   3.801  0.1062 -0.2008 -0.5655
 4997SOL    HW219760   6.446   2.892   3.778 -1.4161 -1.6260 -0.4945
 4997SOL    HW319761   6.429   3.010   3.871  1.9532  0.0658 -1.8274
 4997SOL    MW419762   6.399   2.959   3.808 -0.5839 -0.8656 -0.2343
 4998SOL     OW19763   0.254   6.440   3.555 -0.3568  0.1582 -0.3044
 4998SOL    HW219764   0.329   6.424   3.612 -0.5985 -1.7223 -0.4485
 4998SOL    HW319765   0.284   6.506   3.493  0.0618  1.9396  1.6453
 4998SOL    MW419766   0.268   6.447   3.555  0.4930 -0.7693  0.3482
 4999SOL     OW19767   6.333   3.326   0.126  0.0140  0.0788  0.1357
 4999SOL    HW219768   6.400   3.336   0.058  1.2968 -0.4527  1.2873
 4999SOL    HW319769   6.307   3.416   0.146  0.1778  0.2775 -0.5102
 4999SOL    MW419770   6.339   3.339   0.120 -0.3440 -0.3608  0.2947
 5000SOL     OW19771   5.976   1.709   2.420 -0.1656 -0.6448  0.5909
 5000SOL    HW219772   6.005   1.634   2.472 -0.3209  0.7162  2.7969
 5000SOL    HW319773   5.888   1.728   2.453 -0.3778  0.1346 -0.3720
 5000SOL    MW419774   5.968   1.702   2.431  0.1707  0.1913  0.1508
 5001SOL     OW19775   3.426   3.723   6.000  0.0325  0.2070  0.0193
 5001SOL    HW219776   3.456   3.636   5.972  0.6983  0.3686  0.2224
 5001SOL    HW319777   3.467   3.736   6.085 -1.4605 -0.0016  0.8001
 5001SOL    MW419778   3.436   3.713   6.007  0.0234 -0.0595 -0.3539
 5002SOL     OW19779   4.792   2.381   3.525 -0.9858  0.1248  0.0164
 5002SOL    HW219780   4.764   2.473   3.524 -3.1388 -0.3757  2.4662
 5002SOL    HW319781   4.750   2.345   3.603  0.2216 -2.8479 -0.5934
 5002SOL    MW419782   4.783   2.389   3.535 -0.9387 -0.5252  0.1421
 5003SOL     OW19783   3.801   2.626   2.772 -0.5571  0.2642  0.5105
 5003SOL    HW219784   3.887   2.663   2.791 -1.3813  1.9757  1.0274
 5003SOL    HW319785   3.754   2.629   2.855 -1.1652 -0.6065  0.2229
 5003SOL    MW419786   3.806   2.631   2.785 -0.6136 -0.4691  0.2575
 5004SOL     OW19787   4.011   4.764   2.990  0.1853 -0.1458 -0.0958
 5004SOL    HW219788   4.060   4.695   2.944 -0.0750  0.5607 -1.4778
 5004SOL    HW319789   4.062   4.781   3.069  0.0632 -2.1791  0.4995
 5004SOL    MW419790   4.024   4.757   2.995 -0.2908  0.1625  0.1999
 5005SOL     OW19791   0.842   2.387   2.015 -0.4688  0.5603  0.0325
 5005SOL    HW219792   0.900   2.394   1.939 -1.2927 -1.4421 -0.8434
 5005SOL    HW319793   0.870   2.458   2.073  1.8341  0.6022 -1.0229
 5005SOL    MW419794   0.854   2.397   2.013  0.7226  0.5908 -0.5534
 5006SOL     OW19795   4.940   2.643   3.143 -0.2964 -0.1710 -0.0629
 5006SOL    HW219796   4.903   2.727   3.117 -0.5310 -0.2817 -0.0876
 5006SOL    HW319797   4.994   2.616   3.069  0.8423  0.5876  0.4733
 5006SOL    MW419798   4.942   2.650   3.130 -0.1084 -0.0556 -0.0255
 5007SOL     OW19799   0.428   0.309   5.499 -0.0203  0.0759 -0.5904
 5007SOL    HW219800   0.414   0.215   5.498 -0.7416  0.1726  0.0342
 5007SOL    HW319801   0.497   0.322   5.565 -2.1332  0.2428  1.7307
 5007SOL    MW419802   0.436   0.298   5.508  0.2586  0.3656 -0.7197
 5008SOL     OW19803   0.720   0.868   6.058 -0.3069  0.2588  0.3138
 5008SOL    HW219804   0.696   0.959   6.075  0.1992  0.3554  0.5033
 5008SOL    HW319805   0.742   0.865   5.965 -1.1933  0.1358  0.0974
 5008SOL    MW419806   0.719   0.879   6.048 -0.1354 -0.4989 -0.4722
 5009SOL     OW19807   0.457   4.087   3.414 -0.3070 -0.7884 -0.5117
 5009SOL    HW219808   0.439   4.047   3.499 -1.6270 -0.3432 -0.5514
 5009SOL    HW319809   0.372   4.121   3.385  0.1104 -0.9582 -2.0297
 5009SOL    MW419810   0.443   4.087   3.421 -0.0449  0.5950 -0.0141
 5010SOL     OW19811   3.598   0.496   2.527  0.3225  0.1097 -0.2436
 5010SOL    HW219812   3.532   0.445   2.480 -0.2273 -1.8665  2.5070
 5010SOL    HW319813   3.620   0.444   2.603  0.9267  3.2609  1.9376
 5010SOL    MW419814   3.592   0.483   2.531  0.2921 -0.1749  0.0556
 5011SOL     OW19815   0.080   4.182   0.603 -0.9623 -0.7734 -0.0396
 5011SOL    HW219816   0.034   4.266   0.608  0.4493 -0.0493  1.6759
 5011SOL    HW319817   0.071   4.156   0.512 -0.3995  1.8582 -0.9506
 5011SOL    MW419818   0.073   4.190   0.592  0.4436 -0.8713  0.3336
 5012SOL     OW19819   2.312   6.068   4.474  0.8066  0.6936 -0.1968
 5012SOL    HW219820   2.350   6.091   4.390 -0.5047 -0.9176 -1.2938
 5012SOL    HW319821   2.260   6.144   4.499  0.6002  0.8990 -1.2228
 5012SOL    MW419822   2.310   6.081   4.466 -0.1530 -0.1692 -0.2021
 5013SOL     OW19823   1.105   3.731   5.107  0.4959 -0.6894  0.1281
 5013SOL    HW219824   1.183   3.785   5.108 -0.0004  0.0326  1.5151
 5013SOL    HW319825   1.042   3.777   5.163 -0.0734 -2.4760  1.0516
 5013SOL    MW419826   1.107   3.744   5.114 -0.3033 -0.4630  0.1155
 5014SOL     OW19827   4.969   1.787   5.872  0.3220 -0.2358 -0.3373
 5014SOL    HW219828   4.991   1.736   5.794  0.8180  1.1443 -1.1432
 5014SOL    HW319829   4.875   1.775   5.883  0.3141 -0.7517 -0.9177
 5014SOL    MW419830   4.960   1.779   5.863  0.1825  0.4164 -0.2771
 5015SOL     OW19831   5.913   5.057   2.867  1.0033  0.1809  0.1271
 5015SOL    HW219832   5.940   4.966   2.878 -1.4105 -0.5764  0.2972
 5015SOL    HW319833   5.938   5.100   2.950  4.2318  0.3595 -0.7778
 5015SOL    MW419834   5.920   5.051   2.880 -0.0088 -0.0310  0.1055
 5016SOL     OW19835   4.908   0.497   6.064 -0.0609 -0.1207 -0.8452
 5016SOL    HW219836   4.857   0.446   6.001 -0.1708  0.5152 -1.2818
 5016SOL    HW319837   4.915   0.440   6.141 -0.7325 -0.5359 -1.0813
 5016SOL    MW419838   4.903   0.483   6.066 -0.3062 -0.6584 -0.1886
 5017SOL     OW19839   3.784   2.420   3.437 -0.0471 -0.7269  0.4164
 5017SOL    HW219840   3.868   2.462   3.456 -0.7918  0.9864  0.0934
 5017SOL    HW319841   3.796   2.381   3.351  0.1048  0.4618 -0.1233
 5017SOL    MW419842   3.797   2.420   3.428  0.6892  0.1665  0.6287
 5018SOL     OW19843   1.980   5.411   3.061  0.5297  0.1068  0.0508
 5018SOL    HW219844   1.977   5.484   3.122  1.9219  1.3209 -1.2524
 5018SOL    HW319845   2.008   5.336   3.114  2.7513  1.3488  0.7639
 5018SOL    MW419846   1.983   5.410   3.076  0.1417  0.0716  0.2837
 5019SOL     OW19847   2.681   3.012   1.278  0.6777 -0.4557 -0.3367
 5019SOL    HW219848   2.693   2.961   1.358  1.3369  0.7753  0.3731
 5019SOL    HW319849   2.769   3.041   1.255  0.2643  0.7545 -0.4498
 5019SOL    MW419850   2.694   3.009   1.286  0.2302  0.2517 -0.2437
 5020SOL     OW19851   4.975   4.884   3.741  0.0800 -1.0300  0.7088
 5020SOL    HW219852   4.991   4.967   3.785 -0.3372 -1.0335  0.8724
 5020SOL    HW319853   5.030   4.887   3.663 -1.2041  0.1342 -0.1999
 5020SOL    MW419854   4.985   4.895   3.736  0.1850  0.1459 -0.1301
 5021SOL     OW19855   1.180   5.181   4.564 -0.2419  0.1494  0.0388
 5021SOL    HW219856   1.213   5.210   4.649  1.1608 -0.0379 -0.4022
 5021SOL    HW319857   1.249   5.123   4.531 -0.4142  0.8026 -1.5510
 5021SOL    MW419858   1.194   5.177   4.571 -0.4425 -0.1183 -0.6939
 5022SOL     OW19859   3.140   5.668   1.080  0.2660 -0.5166  0.0307
 5022SOL    HW219860   3.067   5.614   1.110 -0.3974  1.0944  1.4694
 5022SOL    HW319861   3.211   5.649   1.142  1.4083 -2.5908 -1.7517
 5022SOL    MW419862   3.140   5.658   1.092  0.0113  0.3884  0.0637
 5023SOL     OW19863   6.263   1.962   3.255  0.0283  0.1897 -0.4447
 5023SOL    HW219864   6.232   1.898   3.191  0.0898 -1.3519  1.0078
 5023SOL    HW319865   6.332   2.010   3.210 -0.1956 -0.5875 -1.6464
 5023SOL    MW419866   6.268   1.960   3.241 -0.5683 -0.3249 -0.3000
 5024SOL     OW19867   6.229   1.001   2.703 -0.6009 -0.4558  0.1514
 5024SOL    HW219868   6.273   1.086   2.703 -2.5465  0.6762 -1.9032
 5024SOL    HW319869   6.158   1.011   2.766  0.4670 -1.4045  1.5734
 5024SOL    MW419870   6.226   1.014   2.711 -0.3345 -0.0429  0.0118
 5025SOL     OW19871   1.932   3.581   3.351  0.5417 -0.1216 -0.1792
 5025SOL    HW219872   1.982   3.537   3.420 -1.3894  0.8048  1.9668
 5025SOL    HW319873   1.914   3.512   3.287  2.5012 -0.9926  0.1392
 5025SOL    MW419874   1.936   3.566   3.352  0.0427  0.5868  0.2693
 5026SOL     OW19875   4.010   3.420   3.874 -0.5339  0.6528 -0.1563
 5026SOL    HW219876   4.032   3.447   3.785  0.4081  0.9733  0.1586
 5026SOL    HW319877   4.094   3.421   3.921 -1.2461  2.0822  1.1510
 5026SOL    MW419878   4.024   3.423   3.869  0.1169  0.2428 -0.2247
 5027SOL     OW19879   0.264   4.146   2.136  0.4428  0.0955 -0.2414
 5027SOL    HW219880   0.214   4.194   2.069  0.0861 -1.6265 -1.2462
 5027SOL    HW319881   0.318   4.084   2.087  2.1232  0.5327  0.9503
 5027SOL    MW419882   0.264   4.144   2.121  0.0825 -0.1128  0.3978
 5028SOL     OW19883   5.453   2.171   3.017 -0.3196  0.7332  0.3977
 5028SOL    HW219884   5.428   2.158   3.108 -2.8634 -1.4928 -0.4789
 5028SOL    HW319885   5.373   2.202   2.975  0.3859  0.3244 -1.3320
 5028SOL    MW419886   5.439   2.173   3.023  0.3719 -0.1076  0.0071
 5029SOL     OW19887   4.375   3.448   6.419 -0.0537 -0.1595 -0.3247
 5029SOL    HW219888   4.445   3.468   6.357 -1.1764  0.6542 -1.3689
 5029SOL    HW319889   4.372   3.353   6.423  2.6160 -0.2601  1.5123
 5029SOL    MW419890   4.384   3.438   6.411  0.4327  0.2391 -0.2947
 5030SOL     OW19891  -0.009   1.510   0.476  0.3205 -0.0713 -0.1952
 5030SOL    HW219892  -0.083   1.468   0.519  0.5811 -0.0930  0.2490
 5030SOL    HW319893   0.055   1.439   0.465  1.0284  0.3249  1.1638
 5030SOL    MW419894  -0.010   1.495   0.481  0.2531  0.4397 -0.5758
 5031SOL     OW19895   5.723   4.945   6.429 -0.5952  0.2819 -0.3789
 5031SOL    HW219896   5.801   4.918   6.478 -1.7856 -1.0036  0.9289
 5031SOL    HW319897   5.681   4.863   6.404 -1.5444  0.9482 -1.0448
 5031SOL    MW419898   5.728   4.930   6.432 -0.0496  0.3506 -0.3004
 5032SOL     OW19899   6.080   3.010   5.627 -0.0707 -0.2888 -0.5741
 5032SOL    HW219900   6.073   3.090   5.576 -3.1462 -0.4290 -0.5764
 5032SOL    HW319901   6.172   2.985   5.620  0.6525  2.3558 -1.8667
 5032SOL    MW419902   6.091   3.017   5.619 -0.2825  0.1152  0.2360
 5033SOL     OW19903   6.215   0.526   0.519 -0.9273 -0.0492  0.2395
 5033SOL    HW219904   6.169   0.448   0.549 -0.1353  0.3215  2.7221
 5033SOL    HW319905   6.265   0.555   0.596  1.5498  0.9251 -1.5971
 5033SOL    MW419906   6.216   0.519   0.533  0.1795  0.5959 -0.2335
 5034SOL     OW19907   4.016   1.565   3.855  0.0900  0.2127 -0.9463
 5034SOL    HW219908   4.015   1.637   3.918  0.6088 -0.9193  0.4229
 5034SOL    HW319909   3.959   1.498   3.894  1.8442 -1.2375 -0.7164
 5034SOL    MW419910   4.008   1.565   3.868  0.2795  0.3546  0.1628
 5035SOL     OW19911   0.325   5.766   0.325  0.3610 -0.2485  0.3392
 5035SOL    HW219912   0.268   5.843   0.333  0.4771 -0.1783  0.4801
 5035SOL    HW319913   0.274   5.705   0.272  0.5768  0.2269 -0.4365
 5035SOL    MW419914   0.310   5.768   0.319 -0.0499 -0.4679 -0.1432
 5036SOL     OW19915   2.819   0.421   5.834  0.3848 -0.1322 -0.1414
 5036SOL    HW219916   2.740   0.449   5.881 -0.1203  0.1845 -1.1577
 5036SOL    HW319917   2.887   0.482   5.863 -0.0098  0.3045 -0.1211
 5036SOL    MW419918   2.817   0.433   5.844  0.5033  0.3567 -0.7161
 5037SOL     OW19919   1.371   4.630   3.535 -0.3404 -0.9683  0.3800
 5037SOL    HW219920   1.375   4.683   3.614  0.3614  1.3317 -1.0916
 5037SOL    HW319921   1.413   4.548   3.559  0.7663  0.0414  2.1104
 5037SOL    MW419922   1.377   4.626   3.548 -0.1468  0.6395  0.7529
 5038SOL     OW19923   2.778   1.295   3.581 -0.6256 -0.4478 -0.2069
 5038SOL    HW219924   2.707   1.307   3.644 -0.5683 -1.6139  0.1013
 5038SOL    HW319925   2.854   1.272   3.634 -0.7263 -2.0801 -0.7106
 5038SOL    MW419926   2.779   1.294   3.596 -0.0483 -0.3377 -0.6039
 5039SOL     OW19927   5.616   2.881   3.053  0.0642  0.5688 -0.1362
 5039SOL    HW219928   5.624   2.813   3.120  0.9789  0.9509  0.1555
 5039SOL    HW319929   5.544   2.852   2.997 -1.6522  0.9182  1.7945
 5039SOL    MW419930   5.608   2.868   3.054 -0.2811 -0.1422  0.3293
 5040SOL     OW19931   5.600   0.559   6.429  0.3784 -0.3973  0.1928
 5040SOL    HW219932   5.513   0.577   6.395  0.1037 -2.0635 -0.0721
 5040SOL    HW319933   5.586   0.540   6.522  0.6409  0.5220  0.4325
 5040SOL    MW419934   5.587   0.559   6.437 -0.7261 -0.6732 -0.3496
 5041SOL     OW19935   1.144   6.207   0.880 -0.1491  0.1977 -0.3540
 5041SOL    HW219936   1.161   6.210   0.786 -0.8127 -2.1699 -0.6143
 5041SOL    HW319937   1.064   6.259   0.892  0.5968  1.5056 -0.8785
 5041SOL    MW419938   1.135   6.214   0.870 -0.1998 -0.4253 -0.5674
 5042SOL     OW19939   5.786   3.199   4.802  0.0796  0.6079  0.3434
 5042SOL    HW219940   5.727   3.273   4.791 -0.0177  0.8249  2.1141
 5042SOL    HW319941   5.728   3.123   4.805 -0.0723  0.7491  1.3290
 5042SOL    MW419942   5.770   3.199   4.801  0.0337  0.1974 -0.0837
 5043SOL     OW19943   1.369   1.152   2.333  0.4055  0.2991  0.7214
 5043SOL    HW219944   1.306   1.187   2.270 -1.3717  0.2919  2.3989
 5043SOL    HW319945   1.452   1.150   2.285 -0.4196  2.2363 -0.9384
 5043SOL    MW419946   1.372   1.156   2.318 -0.4771  0.1755 -0.7680
 5044SOL     OW19947   0.363   4.240   4.621  0.1723 -0.2798 -0.0066
 5044SOL    HW219948   0.270   4.224   4.602 -0.3336  2.2923 -0.0521
 5044SOL    HW319949   0.377   4.200   4.707 -1.2415  0.0950  0.4252
 5044SOL    MW419950   0.352   4.232   4.630  0.7899  0.3546  0.4621
 5045SOL     OW19951   1.092   4.497   3.513 -0.0747 -0.3043  0.3135
 5045SOL    HW219952   1.180   4.471   3.485  0.3376  0.7633  0.5626
 5045SOL    HW319953   1.090   4.592   3.498 -0.9821 -0.2325  0.8563
 5045SOL    MW419954   1.103   4.506   3.507  0.4116 -0.2732  0.0889
 5046SOL     OW19955   3.708   3.341   5.134  0.2079  0.1624 -0.1025
 5046SOL    HW219956   3.679   3.427   5.165  0.3768 -0.2862  1.4001
 5046SOL    HW319957   3.768   3.310   5.202  0.6431 -0.8780 -0.9343
 5046SOL    MW419958   3.712   3.348   5.147  0.2179  0.5457  0.5304
 5047SOL     OW19959   0.594   0.563   5.947  0.3343  0.4688 -0.2567
 5047SOL    HW219960   0.562   0.572   5.858  0.4887  0.9052 -0.2666
 5047SOL    HW319961   0.567   0.643   5.992 -0.1501  0.0485  0.2150
 5047SOL    MW419962   0.587   0.574   5.941 -0.3750 -0.4705  0.1703
 5048SOL     OW19963   4.267   5.450   4.897  0.2678  0.0412 -0.0126
 5048SOL    HW219964   4.293   5.507   4.825 -0.2369 -0.6535 -0.7701
 5048SOL    HW319965   4.256   5.364   4.856 -1.3279 -0.0891  0.6219
 5048SOL    MW419966   4.269   5.446   4.882  0.3454  0.1633  0.2680
 5049SOL     OW19967   5.718   2.754   4.647  0.0839 -0.0015 -0.1154
 5049SOL    HW219968   5.811   2.733   4.648  0.1904  0.4652 -0.1733
 5049SOL    HW319969   5.696   2.766   4.555 -0.2575 -1.0609 -0.1935
 5049SOL    MW419970   5.727   2.753   4.635 -0.3363 -0.2102 -0.1328
 5050SOL     OW19971   3.302   0.717   4.656  0.1372 -0.7535 -0.2234
 5050SOL    HW219972   3.333   0.687   4.570  2.3741 -0.9104  0.5922
 5050SOL    HW319973   3.355   0.669   4.719  0.7613  1.6898  1.2188
 5050SOL    MW419974   3.313   0.707   4.653  0.3872 -0.8337 -0.1261
 5051SOL     OW19975   4.300   0.637   3.369 -0.3862  0.5716  0.1585
 5051SOL    HW219976   4.222   0.655   3.317 -2.0001  0.4514  2.3851
 5051SOL    HW319977   4.314   0.718   3.419  2.3619  1.4633 -1.7711
 5051SOL    MW419978   4.292   0.650   3.369 -0.0421 -0.0438  0.6993
 5052SOL     OW19979   5.716   2.031   1.653  0.3157  0.4417  0.0481
 5052SOL    HW219980   5.700   2.125   1.661 -0.2635  0.2181  1.9252
 5052SOL    HW319981   5.635   1.997   1.614  0.5886  0.7079 -0.7898
 5052SOL    MW419982   5.703   2.039   1.649 -0.3331  0.2047 -0.2223
 5053SOL     OW19983   0.553   4.420   3.313 -0.2750 -0.0753  0.1776
 5053SOL    HW219984   0.648   4.426   3.306 -0.2778  0.5428  0.6555
 5053SOL    HW319985   0.530   4.341   3.262  0.6022 -0.8852  1.0022
 5053SOL    MW419986   0.562   4.410   3.305 -0.2710  0.2864 -0.0588
 5054SOL     OW19987   6.356   6.077   6.079  0.3491  0.5279 -0.0114
 5054SOL    HW219988   6.405   6.134   6.019  0.7072  1.1375  0.8299
 5054SOL    HW319989   6.264   6.097   6.061  0.4429  0.4724 -0.5704
 5054SOL    MW419990   6.350   6.087   6.069  0.0284  0.2239  0.2353
 5055SOL     OW19991   3.859   5.256   0.480  0.2266  0.4355 -0.1490
 5055SOL    HW219992   3.943   5.279   0.440 -0.1279  0.4570 -0.8902
 5055SOL    HW319993   3.794   5.305   0.430 -0.4011 -0.9427 -0.7406
 5055SOL    MW419994   3.862   5.266   0.468 -0.0228 -0.5557  0.3509
 5056SOL     OW19995   0.876   5.462   0.456  0.0172  0.3765 -0.1242
 5056SOL    HW219996   0.887   5.490   0.365 -0.7430 -1.2565 -0.7534
 5056SOL    HW319997   0.796   5.411   0.456  1.1401 -1.4789  1.0012
 5056SOL    MW419998   0.867   5.459   0.444  0.0632  0.0768 -0.1639
 5057SOL     OW19999   1.732   6.290   4.913  0.4981  0.1512  0.4979
 5057SOL    HW220000   1.735   6.341   4.832 -1.2340  1.1270  0.9928
 5057SOL    HW320001   1.704   6.203   4.885 -1.9751  0.9653  0.1605
 5057SOL    MW420002   1.728   6.285   4.899  0.1733  0.5271 -0.1071
 5058SOL     OW20003   4.403   0.833   6.332 -0.1441 -0.0142 -0.7787
 5058SOL    HW220004   4.310   0.849   6.312 -0.6684  0.1534  1.4462
 5058SOL    HW320005   4.405   0.744   6.367  0.9909 -0.9332 -2.9917
 5058SOL    MW420006   4.391   0.824   6.334  0.4017 -0.4615 -0.1186
 5059SOL     OW20007   2.138   6.226   1.821 -0.2219  0.2816 -0.2752
 5059SOL    HW220008   2.077   6.153   1.811  0.6753 -0.4690 -0.3794
 5059SOL    HW320009   2.097   6.298   1.772 -1.1493 -0.1210 -0.1095
 5059SOL    MW420010   2.124   6.226   1.813 -0.1107 -0.4777  0.0033
 5060SOL     OW20011   5.572   2.259   2.081  0.5478 -0.5690 -0.1482
 5060SOL    HW220012   5.589   2.243   2.174  1.5457 -0.0587 -0.2323
 5060SOL    HW320013   5.659   2.273   2.043  0.1448 -0.7295 -1.1519
 5060SOL    MW420014   5.586   2.258   2.089 -0.0314 -0.5080 -0.1517
 5061SOL     OW20015   1.947   3.118   1.834  0.0905  0.2718 -0.1868
 5061SOL    HW220016   1.896   3.161   1.765  0.2390 -0.5125 -0.7852
 5061SOL    HW320017   2.026   3.171   1.842  0.2573  0.1405 -0.9004
 5061SOL    MW420018   1.950   3.131   1.826 -0.1009 -0.7052 -0.3768
 5062SOL     OW20019   3.317   3.940   2.874  0.4476 -0.1843 -0.2698
 5062SOL    HW220020   3.371   3.977   2.804 -0.0511  1.9020  0.3580
 5062SOL    HW320021   3.233   3.921   2.832  0.9267 -1.3107 -0.7530
 5062SOL    MW420022   3.313   3.943   2.860  0.9851  0.5428 -0.1274
 5063SOL     OW20023   2.598   3.935   0.947 -0.5623 -0.0528 -0.2118
 5063SOL    HW220024   2.636   3.854   0.981  2.0435  1.7938  1.7469
 5063SOL    HW320025   2.661   3.965   0.882 -1.6916  0.2681 -1.1896
 5063SOL    MW420026   2.612   3.928   0.943  0.0314  0.1887 -0.1229
 5064SOL     OW20027   3.727   1.417   4.632 -0.0474  0.3560  0.1823
 5064SOL    HW220028   3.659   1.482   4.614 -1.4223 -1.3195 -0.9531
 5064SOL    HW320029   3.799   1.442   4.573 -0.9793  0.2606 -1.0496
 5064SOL    MW420030   3.727   1.429   4.622 -0.2933  0.0836 -0.4567
 5065SOL     OW20031   2.099   1.286   4.348 -0.8784  0.2325  0.2588
 5065SOL    HW220032   2.047   1.299   4.269  0.4615 -1.0869 -0.8989
 5065SOL    HW320033   2.168   1.352   4.343 -1.6726  1.1801  1.1758
 5065SOL    MW420034   2.101   1.296   4.337 -0.2377 -0.0597  0.1381
 5066SOL     OW20035   4.217   0.193   4.795  0.1772 -0.0609 -0.3969
 5066SOL    HW220036   4.158   0.262   4.766  1.3114  0.5177 -1.3850
 5066SOL    HW320037   4.162   0.115   4.801 -0.5150  0.2592 -2.1675
 5066SOL    MW420038   4.202   0.192   4.792  0.3980 -0.6702 -1.0199
 5067SOL     OW20039   2.178   3.291   1.321  0.2902  0.1206  0.6323
 5067SOL    HW220040   2.124   3.361   1.284 -1.1416 -0.6858  1.0787
 5067SOL    HW320041   2.119   3.246   1.382  1.0416 -1.6754  0.1106
 5067SOL    MW420042   2.163   3.294   1.324 -0.0203  0.0330  0.1874
 5068SOL     OW20043   2.396   2.095   4.643  0.2188  0.2643  0.3135
 5068SOL    HW220044   2.427   2.008   4.616  1.3810  1.6736 -3.6782
 5068SOL    HW320045   2.309   2.102   4.603  0.5735  1.2485 -0.3180
 5068SOL    MW420046   2.389   2.084   4.634 -0.1113 -0.2409  0.5450
 5069SOL     OW20047   4.423   5.981   3.443  0.4979  0.4682  0.1136
 5069SOL    HW220048   4.510   6.017   3.427  0.4685  0.1001 -0.9605
 5069SOL    HW320049   4.430   5.889   3.418 -0.1881  0.4318  0.0338
 5069SOL    MW420050   4.435   5.974   3.437 -0.1522  0.0894 -0.2261
 5070SOL     OW20051   1.270   1.318   4.964  0.2963 -0.6006  0.7812
 5070SOL    HW220052   1.242   1.285   5.050 -0.3806 -1.7667  0.1447
 5070SOL    HW320053   1.190   1.353   4.925  0.7273  0.5124  0.8497
 5070SOL    MW420054   1.256   1.318   4.970 -0.3881 -0.4589 -0.4609
 5071SOL     OW20055   4.161   3.032   0.889 -0.2289 -0.4513  0.2607
 5071SOL    HW220056   4.251   3.041   0.859 -0.5037 -0.5211 -0.6162
 5071SOL    HW320057   4.126   3.121   0.890 -0.3918 -0.5015 -0.2219
 5071SOL    MW420058   4.168   3.045   0.885 -0.3587 -0.2593  0.3230
 5072SOL     OW20059   5.965   0.338   2.160 -0.2361 -0.2573  0.5190
 5072SOL    HW220060   6.053   0.330   2.196  0.2179 -1.1191 -0.7291
 5072SOL    HW320061   5.978   0.379   2.074 -1.2713  1.5335  1.1557
 5072SOL    MW420062   5.978   0.342   2.154  0.4439  0.5714  0.0292
 5073SOL     OW20063   4.737   0.084   1.844  0.0859 -0.3623 -0.0777
 5073SOL    HW220064   4.689   0.019   1.896  0.1332 -0.2174  0.1495
 5073SOL    HW320065   4.707   0.168   1.878  0.6231 -0.2684  0.1819
 5073SOL    MW420066   4.727   0.086   1.856  0.1662 -0.5415 -0.6160
 5074SOL     OW20067   6.146   1.744   0.578  0.1102  0.6887  0.2315
 5074SOL    HW220068   6.240   1.757   0.568  0.2537  0.5721  1.3094
 5074SOL    HW320069   6.106   1.824   0.546  0.3839 -0.3477 -3.0120
 5074SOL    MW420070   6.153   1.756   0.573  0.0355  0.1448 -0.0880
 5075SOL     OW20071   0.779   3.217   0.854 -0.0908 -0.6077 -0.3456
 5075SOL    HW220072   0.788   3.312   0.851  0.5237 -0.5339  1.7222
 5075SOL    HW320073   0.863   3.184   0.822  0.2450 -0.3977  0.3014
 5075SOL    MW420074   0.792   3.225   0.850  0.0710  0.1452 -0.8426
 5076SOL     OW20075   2.962   2.352   3.632  0.5030  0.1542  0.3442
 5076SOL    HW220076   2.870   2.363   3.609  0.6733  0.0649 -0.4134
 5076SOL    HW320077   2.996   2.442   3.638  0.6100  0.1707 -0.4272
 5076SOL    MW420078   2.954   2.365   3.630  0.1669  0.0870 -0.1450
 5077SOL     OW20079   0.285   1.286   4.112  0.6190  0.6846 -0.4623
 5077SOL    HW220080   0.307   1.379   4.117  1.7370  0.3506  2.0677
 5077SOL    HW320081   0.256   1.263   4.200 -0.4208 -1.1985 -1.2512
 5077SOL    MW420082   0.284   1.296   4.124 -0.5348 -0.3385  0.1619
 5078SOL     OW20083   5.375   4.056   2.980 -0.5593 -0.1050  0.3386
 5078SOL    HW220084   5.425   4.008   2.914  0.2129  0.5347  0.4445
 5078SOL    HW320085   5.434   4.065   3.054 -0.5228  1.3667  0.1615
 5078SOL    MW420086   5.389   4.051   2.981  0.0158 -0.2138 -0.0142
 5079SOL     OW20087   5.666   1.640   6.324  0.4757  0.3345  0.1311
 5079SOL    HW220088   5.590   1.681   6.283 -0.2355  0.7323  1.7906
 5079SOL    HW320089   5.717   1.606   6.250 -0.2623  1.8412 -1.1327
 5079SOL    MW420090   5.663   1.641   6.309  0.5350 -0.1005  0.0635
 5080SOL     OW20091   5.132   5.826   5.690 -0.4320 -0.4502  0.6009
 5080SOL    HW220092   5.066   5.769   5.649  0.1186 -0.5652 -0.1384
 5080SOL    HW320093   5.142   5.791   5.778 -2.4950  0.5048  1.2867
 5080SOL    MW420094   5.124   5.814   5.696 -0.3792  0.2457  0.1420
 5081SOL     OW20095   0.738   5.677   4.674  0.0841  0.0607 -0.3401
 5081SOL    HW220096   0.797   5.724   4.732  1.4458 -1.7280 -0.1678
 5081SOL    HW320097   0.700   5.609   4.730 -1.1568  0.3828 -0.7708
 5081SOL    MW420098   0.741   5.674   4.689 -0.0257  0.7150 -0.3790
 5082SOL     OW20099   1.679   1.175   2.625 -0.2664 -0.0995 -0.1551
 5082SOL    HW220100   1.696   1.154   2.717  2.9952 -0.8928 -0.8148
 5082SOL    HW320101   1.626   1.103   2.594  1.7889 -1.9082  0.2713
 5082SOL    MW420102   1.674   1.163   2.633 -0.0865 -0.2634 -0.4060
 5083SOL     OW20103   5.043   5.534   2.452  0.0176  1.0245 -0.3666
 5083SOL    HW220104   4.967   5.496   2.496  2.1019 -2.0939  0.8629
 5083SOL    HW320105   5.113   5.470   2.465  2.9046  3.7086 -1.4179
 5083SOL    MW420106   5.042   5.521   2.460  0.0048 -0.2185  0.2824
 5084SOL     OW20107   0.456   3.882   6.068  0.8860 -0.3058  0.5428
 5084SOL    HW220108   0.529   3.843   6.020  1.2843 -0.5331  1.3230
 5084SOL    HW320109   0.423   3.812   6.123 -1.5604 -0.9908 -1.5811
 5084SOL    MW420110   0.461   3.868   6.069 -0.3422 -0.1988  0.1151
 5085SOL     OW20111   4.427   4.170   2.852  0.2497  0.2554 -0.2441
 5085SOL    HW220112   4.519   4.174   2.826  0.7978 -0.1491  1.4501
 5085SOL    HW320113   4.395   4.260   2.840  0.6059  0.2006 -1.6816
 5085SOL    MW420114   4.435   4.183   2.847  0.0946  0.4700 -0.1536
 5086SOL     OW20115   2.049   6.431   1.648  0.2970  0.1127 -0.0494
 5086SOL    HW220116   2.116   6.481   1.600  0.9489 -0.8019 -0.1083
 5086SOL    HW320117   2.022   6.490   1.719 -0.5278  1.4086 -1.3610
 5086SOL    MW420118   2.054   6.446   1.651 -0.0554 -0.3584 -0.0274
 5087SOL     OW20119   0.986   5.979   3.449  0.7167 -0.9305  0.2931
 5087SOL    HW220120   0.897   5.975   3.413  0.5757  0.2652  0.4807
 5087SOL    HW320121   0.982   5.924   3.527 -0.2392  0.1703  1.0566
 5087SOL    MW420122   0.973   5.971   3.454 -0.2339  0.5171  0.0501
 5088SOL     OW20123   0.673   1.993   5.140  0.4245 -0.7253  0.0453
 5088SOL    HW220124   0.629   1.962   5.220 -0.9568 -1.3590 -0.9204
 5088SOL    HW320125   0.614   1.968   5.069 -0.7456  3.9252 -0.9131
 5088SOL    MW420126   0.660   1.986   5.142  0.6619 -0.6799 -0.2102
 5089SOL     OW20127   0.344   2.114   2.546 -0.4385 -0.3922 -0.5455
 5089SOL    HW220128   0.298   2.040   2.587 -1.2946  0.0138 -0.7560
 5089SOL    HW320129   0.434   2.083   2.538 -0.5584 -1.0318  0.3021
 5089SOL    MW420130   0.349   2.100   2.551  0.4249  0.2029 -0.4086
 5090SOL     OW20131   0.763   4.362   3.941  0.3308  0.6808  0.8763
 5090SOL    HW220132   0.683   4.311   3.950  1.0585 -0.8791 -0.8754
 5090SOL    HW320133   0.735   4.453   3.949 -1.3821  0.1317  1.6221
 5090SOL    MW420134   0.749   4.367   3.943  0.1178  0.6859  0.2638
 5091SOL     OW20135   2.843   4.880   0.349 -0.0821  0.0371 -0.1585
 5091SOL    HW220136   2.752   4.909   0.349  0.9931  3.9884 -1.2594
 5091SOL    HW320137   2.874   4.897   0.438  0.2244  1.1806 -0.4741
 5091SOL    MW420138   2.835   4.886   0.360 -0.0922  0.3027  0.5733
 5092SOL     OW20139   4.907   6.076   3.757  0.4892 -0.1441 -0.0778
 5092SOL    HW220140   4.925   6.105   3.668 -0.1207 -1.3606 -0.6229
 5092SOL    HW320141   4.965   6.001   3.770  1.0694  0.4497  0.8008
 5092SOL    MW420142   4.917   6.070   3.747  0.6983 -0.5897 -0.4278
 5093SOL     OW20143   3.999   5.340   1.662 -0.4228 -0.1942  0.0358
 5093SOL    HW220144   3.965   5.426   1.641  0.0106 -0.0626 -0.1432
 5093SOL    HW320145   3.965   5.321   1.749 -0.4285  0.2026  0.1218
 5093SOL    MW420146   3.990   5.349   1.671  0.2945 -0.3026  0.0891
 5094SOL     OW20147   4.742   0.537   1.445 -0.3047 -1.5368 -0.3279
 5094SOL    HW220148   4.776   0.568   1.361 -1.0886  1.3948  0.3169
 5094SOL    HW320149   4.701   0.614   1.484 -2.6271 -3.5113  1.4404
 5094SOL    MW420150   4.741   0.551   1.439 -0.1897 -0.3019  0.5252
 5095SOL     OW20151   0.096   3.139   3.992 -0.1843  0.3747 -0.2523
 5095SOL    HW220152   0.101   3.223   3.946 -1.2577  1.0845  0.8666
 5095SOL    HW320153   0.070   3.162   4.081 -0.3160 -1.1363  0.1240
 5095SOL    MW420154   0.093   3.153   3.998 -0.1506  0.1296 -0.4917
 5096SOL     OW20155   1.354   0.533   1.577 -0.4898 -0.0736 -0.0806
 5096SOL    HW220156   1.333   0.469   1.508 -0.2065  0.0833 -0.3147
 5096SOL    HW320157   1.434   0.575   1.547  0.2009 -0.7003  0.8268
 5096SOL    MW420158   1.362   0.530   1.564 -0.0260  0.0756 -0.3310
 5097SOL     OW20159   5.193   2.118   4.992 -0.4583 -0.1245  0.0680
 5097SOL    HW220160   5.176   2.031   5.030 -3.4056  0.4322  0.2785
 5097SOL    HW320161   5.286   2.116   4.968  0.0556 -2.6298  1.8304
 5097SOL    MW420162   5.203   2.106   4.994  0.0078 -0.3713  0.3672
 5098SOL     OW20163   3.072   2.549   5.806 -0.3433  0.2884 -0.2523
 5098SOL    HW220164   3.033   2.471   5.845  0.4393 -1.2436 -2.3632
 5098SOL    HW320165   3.043   2.548   5.715  1.9832  0.8384 -1.0825
 5098SOL    MW420166   3.063   2.539   5.799 -0.5524  0.5111 -0.2793
 5099SOL     OW20167   3.765   4.123   6.088 -0.4936 -0.3930 -0.7500
 5099SOL    HW220168   3.838   4.072   6.052  0.7958  0.7631  0.1595
 5099SOL    HW320169   3.776   4.210   6.051 -0.1856  0.3451  0.9786
 5099SOL    MW420170   3.776   4.128   6.078 -0.0953 -0.2397  0.2158
 5100SOL     OW20171   0.375   4.151   4.865 -0.3130 -0.5074 -0.2627
 5100SOL    HW220172   0.306   4.118   4.923 -2.3285  1.2495 -1.5083
 5100SOL    HW320173   0.422   4.216   4.918  1.5009 -2.7741  1.0946
 5100SOL    MW420174   0.372   4.155   4.880 -0.2312 -0.2678  0.0330
 5101SOL     OW20175   5.891   4.021   5.477 -0.3045  0.4562  0.4447
 5101SOL    HW220176   5.855   4.081   5.411  0.6389  1.3259  0.6833
 5101SOL    HW320177   5.929   4.079   5.543  2.3716 -0.3198 -0.2538
 5101SOL    MW420178   5.892   4.037   5.477 -0.6030 -0.1870 -0.5735
 5102SOL     OW20179   4.540   0.889   0.160 -0.4854  0.1080  0.0791
 5102SOL    HW220180   4.634   0.895   0.142 -0.7961  1.4106 -1.3222
 5102SOL    HW320181   4.500   0.880   0.074 -1.6933  0.3014  0.5995
 5102SOL    MW420182   4.547   0.889   0.146  0.2590 -0.2478 -0.4705
 5103SOL     OW20183   1.310   4.374   3.266  0.3234  0.0195  0.3082
 5103SOL    HW220184   1.312   4.459   3.223 -0.1512 -0.5362 -0.8711
 5103SOL    HW320185   1.399   4.340   3.255  0.3160  0.0580  0.1242
 5103SOL    MW420186   1.322   4.380   3.259 -0.5198 -0.2369 -0.0326
 5104SOL     OW20187   2.624   4.389   3.687 -0.0086  0.6940 -0.1701
 5104SOL    HW220188   2.536   4.355   3.707 -0.5548  2.3575  0.4385
 5104SOL    HW320189   2.619   4.415   3.595  1.0417 -2.5774 -1.2883
 5104SOL    MW420190   2.611   4.388   3.678  0.1735 -0.7608 -0.0959
 5105SOL     OW20191   5.793   5.221   4.110 -0.2569 -0.7605 -0.1870
 5105SOL    HW220192   5.762   5.137   4.143 -1.0333 -0.8362 -1.0594
 5105SOL    HW320193   5.722   5.282   4.128 -1.1552 -1.0072 -2.5155
 5105SOL    MW420194   5.780   5.218   4.117 -0.3298  0.3577  0.5573
 5106SOL     OW20195   2.517   5.011   2.263 -0.4287 -0.5117  0.2123
 5106SOL    HW220196   2.542   4.937   2.208  0.8548 -0.0714  0.1628
 5106SOL    HW320197   2.428   5.033   2.235 -0.1548 -0.8941 -1.0220
 5106SOL    MW420198   2.509   5.004   2.252  0.2102  0.2997  0.6663
 5107SOL     OW20199   4.179   5.413   4.525 -0.8618 -0.3200 -0.1726
 5107SOL    HW220200   4.096   5.461   4.521 -0.1599  0.9440  0.1770
 5107SOL    HW320201   4.171   5.359   4.604 -1.6782 -0.8692 -0.6049
 5107SOL    MW420202   4.167   5.412   4.535  0.8585  0.6072  0.5745
 5108SOL     OW20203   3.946   1.592   5.957 -0.4806 -0.2933  0.1076
 5108SOL    HW220204   3.884   1.662   5.973  1.8229  1.9877 -0.3098
 5108SOL    HW320205   3.947   1.581   5.862  0.0351 -0.0143  0.0754
 5108SOL    MW420206   3.938   1.600   5.947 -0.3793  0.1313 -0.4273
 5109SOL     OW20207   5.263   1.348   3.727  0.1378 -0.4761  0.4614
 5109SOL    HW220208   5.321   1.355   3.652  0.9033 -1.3851  0.9453
 5109SOL    HW320209   5.312   1.389   3.799 -0.1808 -0.4721  0.6787
 5109SOL    MW420210   5.277   1.354   3.727  0.3853  0.2802 -0.1661
 5110SOL     OW20211   2.943   5.107   4.174  0.1797  0.7150 -0.0004
 5110SOL    HW220212   2.995   5.105   4.254  1.7713 -0.7242 -0.9895
 5110SOL    HW320213   2.892   5.026   4.176 -0.7491  1.2922  0.1459
 5110SOL    MW420214   2.943   5.096   4.185  0.2547 -0.1525  0.7699
 5111SOL     OW20215   3.844   1.171   1.739  0.0298 -0.2652 -0.8908
 5111SOL    HW220216   3.755   1.196   1.764 -0.2453 -1.2723 -0.8058
 5111SOL    HW320217   3.841   1.075   1.734  1.0491 -0.2944 -1.1223
 5111SOL    MW420218   3.832   1.162   1.742 -0.0537 -0.0678  0.1055
 5112SOL     OW20219   6.052   1.241   0.298  0.2472 -0.1379 -0.0634
 5112SOL    HW220220   6.049   1.200   0.384 -1.0430  0.8993  0.4300
 5112SOL    HW320221   5.964   1.279   0.287  0.8906  1.1059 -1.1550
 5112SOL    MW420222   6.040   1.240   0.308  0.3308 -0.3512 -0.1441
 5113SOL     OW20223   0.975   1.881   3.244  0.0131  0.4546 -0.4704
 5113SOL    HW220224   0.893   1.897   3.198 -0.2723  0.5065  0.0486
 5113SOL    HW320225   0.958   1.804   3.298 -0.6187  2.0638  1.7764
 5113SOL    MW420226   0.962   1.873   3.245 -0.1203 -0.1337  0.0212
 5114SOL     OW20227   5.769   2.384   4.019 -0.5414 -0.5214  0.4324
 5114SOL    HW220228   5.706   2.392   3.947 -0.9936 -0.1859  0.8682
 5114SOL    HW320229   5.820   2.465   4.016 -0.2409 -0.7158  0.1920
 5114SOL    MW420230   5.767   2.395   4.009 -0.0607  0.0516 -0.6170
 5115SOL     OW20231   1.444   0.824   0.156  0.1426 -0.0785 -0.4172
 5115SOL    HW220232   1.425   0.751   0.216 -0.3661  0.4236  0.0471
 5115SOL    HW320233   1.534   0.810   0.128  1.1758  0.8383  2.1489
 5115SOL    MW420234   1.453   0.812   0.161 -0.0811  0.1491 -0.8198
 5116SOL     OW20235   3.733   3.401   2.157 -0.2914 -0.1532  0.5971
 5116SOL    HW220236   3.809   3.343   2.147 -0.6639 -0.6964  0.9142
 5116SOL    HW320237   3.680   3.360   2.225 -0.9705  0.1283  0.2431
 5116SOL    MW420238   3.736   3.388   2.165 -0.2030 -0.5685  0.0471
 5117SOL     OW20239   4.944   0.334   5.368  0.2313  0.4698  0.2644
 5117SOL    HW220240   5.024   0.365   5.327  0.7521 -0.2082  0.7390
 5117SOL    HW320241   4.894   0.413   5.388  1.3350  0.9881  1.0671
 5117SOL    MW420242   4.948   0.348   5.365 -0.6253  0.5329  0.4461
 5118SOL     OW20243   3.389   0.356   2.445 -0.2420  0.1297  0.1104
 5118SOL    HW220244   3.314   0.415   2.439  0.3297  0.8057 -0.4446
 5118SOL    HW320245   3.378   0.297   2.371  0.2928  0.8434 -0.5446
 5118SOL    MW420246   3.378   0.356   2.435 -0.0086  0.6045  0.7098
 5119SOL     OW20247   5.632   4.689   6.416  0.1714 -0.6322  0.4308
 5119SOL    HW220248   5.678   4.616   6.376  1.7283 -0.6358  2.0941
 5119SOL    HW320249   5.652   4.682   6.509  0.2210  1.7706  0.6822
 5119SOL    MW420250   5.641   4.679   6.423  0.1288  0.1252  0.1771
 5120SOL     OW20251   4.460   6.400   3.304  0.2852  0.3801  0.1900
 5120SOL    HW220252   4.449   6.305   3.303 -3.2411  0.6873 -0.3410
 5120SOL    HW320253   4.507   6.419   3.224 -0.1042 -0.8215 -0.3537
 5120SOL    MW420254   4.465   6.390   3.294 -0.1145 -0.2263  0.1683
 5121SOL     OW20255   5.205   0.754   3.180 -0.1536 -0.2265  0.1462
 5121SOL    HW220256   5.190   0.763   3.086 -1.1895  3.1082  0.4795
 5121SOL    HW320257   5.126   0.711   3.213 -0.7800  0.5417 -0.3008
 5121SOL    MW420258   5.193   0.750   3.172 -0.0929 -0.1209  0.1030
 5122SOL     OW20259   1.369   5.669   3.162 -0.4618 -0.0413  0.3213
 5122SOL    HW220260   1.365   5.689   3.068  0.1611  0.8398  0.4714
 5122SOL    HW320261   1.437   5.602   3.169  0.6266  1.0444  0.3159
 5122SOL    MW420262   1.377   5.663   3.150 -0.3513  0.3166 -0.4868
 5123SOL     OW20263   4.758   4.585   3.592  0.5409  0.6436  1.0672
 5123SOL    HW220264   4.739   4.658   3.533  0.8821  0.7514  1.0867
 5123SOL    HW320265   4.713   4.510   3.553  1.1719  0.6023  0.3829
 5123SOL    MW420266   4.750   4.585   3.579 -0.0087  0.0415 -0.2041
 5124SOL     OW20267   1.522   4.719   4.455 -0.1384 -0.2882  0.2270
 5124SOL    HW220268   1.566   4.716   4.540  0.5024  0.2287 -0.0843
 5124SOL    HW320269   1.520   4.627   4.427 -1.2408 -0.6106  1.2286
 5124SOL    MW420270   1.528   4.706   4.463 -0.6684  0.3297 -0.4036
 5125SOL     OW20271   0.560   4.351   0.652  0.2350 -0.1051 -0.0967
 5125SOL    HW220272   0.480   4.312   0.688  0.6998 -0.6304  0.3832
 5125SOL    HW320273   0.588   4.291   0.583  1.0400 -0.7404  0.7515
 5125SOL    MW420274   0.553   4.338   0.648  0.4066 -0.4006 -0.3265
 5126SOL     OW20275   6.024   5.195   4.713 -0.2655 -0.0392 -0.2176
 5126SOL    HW220276   5.978   5.267   4.756  3.4293  0.6081  3.2653
 5126SOL    HW320277   6.103   5.235   4.677  0.0707 -1.8160 -1.6006
 5126SOL    MW420278   6.028   5.210   4.714 -0.0855 -0.2171  0.5849
 5127SOL     OW20279   1.387   1.461   5.934  0.1133  0.2083  0.1626
 5127SOL    HW220280   1.329   1.420   5.870  0.7671 -0.7823  0.1863
 5127SOL    HW320281   1.475   1.445   5.901  0.4133  0.7211  0.6961
 5127SOL    MW420282   1.391   1.453   5.921 -0.1194  0.2947  0.1247
 5128SOL     OW20283   1.837   6.298   3.182  0.1646  0.6628  0.4134
 5128SOL    HW220284   1.891   6.310   3.104 -1.3658  1.0888 -0.6305
 5128SOL    HW320285   1.833   6.204   3.195  1.5713  0.6451  0.8267
 5128SOL    MW420286   1.844   6.287   3.173  0.6954  0.2415 -0.5364
 5129SOL     OW20287   3.677   2.900   5.638  0.0276  0.1575  0.1497
 5129SOL    HW220288   3.735   2.841   5.590 -0.6013  0.6404 -1.2716
 5129SOL    HW320289   3.685   2.983   5.592 -2.1727  0.1018 -0.4444
 5129SOL    MW420290   3.685   2.903   5.625  0.1761 -0.1027  0.0816
 5130SOL     OW20291   0.654   4.483   0.890 -0.1248  0.2913 -0.1209
 5130SOL    HW220292   0.656   4.417   0.959  0.5567  1.6982  1.2537
 5130SOL    HW320293   0.641   4.433   0.810 -1.2629 -1.3596  1.0417
 5130SOL    MW420294   0.653   4.468   0.888  0.3095  0.8063  0.2744
 5131SOL     OW20295   1.867   0.666   5.752 -0.1072 -0.1457  0.7530
 5131SOL    HW220296   1.865   0.615   5.833 -0.7750 -1.7111 -0.2203
 5131SOL    HW320297   1.810   0.620   5.692 -0.9206  1.8835 -0.1407
 5131SOL    MW420298   1.859   0.653   5.755 -0.2820 -0.6536  0.1307
 5132SOL     OW20299   1.038   3.215   1.386 -0.3225 -0.0637 -0.2124
 5132SOL    HW220300   0.964   3.157   1.406 -1.6329  1.3927 -0.5744
 5132SOL    HW320301   1.014   3.256   1.302  1.1663  0.0459 -0.6081
 5132SOL    MW420302   1.025   3.213   1.377  0.1845 -0.4357 -0.4557
 5133SOL     OW20303   1.390   1.421   1.108 -0.3209 -0.0086  0.3124
 5133SOL    HW220304   1.364   1.487   1.044 -0.5831  2.5857  2.8935
 5133SOL    HW320305   1.471   1.383   1.073 -1.1140  0.3699 -2.0913
 5133SOL    MW420306   1.397   1.425   1.095 -0.4689  0.0306  0.0836
 5134SOL     OW20307   4.079   3.397   3.232  0.0567  0.2251 -0.4145
 5134SOL    HW220308   3.987   3.391   3.208 -0.4178 -0.4917  1.3935
 5134SOL    HW320309   4.094   3.491   3.246 -0.7219  0.2495  0.3466
 5134SOL    MW420310   4.069   3.409   3.231 -0.1501  0.4171  0.5193
 5135SOL     OW20311   1.561   2.686   3.054 -0.9501 -0.2796  0.5457
 5135SOL    HW220312   1.482   2.727   3.020 -2.5789 -3.5686 -0.0379
 5135SOL    HW320313   1.629   2.705   2.989 -2.0121  0.1310 -0.4548
 5135SOL    MW420314   1.560   2.694   3.041 -0.1755 -0.2062  0.0266
 5136SOL     OW20315   6.062   1.288   3.805  0.1358 -0.4938 -0.4884
 5136SOL    HW220316   6.119   1.289   3.728  0.1609 -2.6450 -0.5697
 5136SOL    HW320317   6.090   1.210   3.854 -1.5806 -0.6269  0.3525
 5136SOL    MW420318   6.073   1.278   3.801  0.0680 -0.2350 -0.4796
 5137SOL     OW20319   2.331   0.369   3.163 -0.3620  0.5055  0.0010
 5137SOL    HW220320   2.348   0.275   3.152 -1.5666  0.4259 -1.6768
 5137SOL    HW320321   2.352   0.387   3.254 -0.0227 -1.3811  0.3413
 5137SOL    MW420322   2.336   0.359   3.173 -0.1159  0.0808  0.2786
 5138SOL     OW20323   3.033   5.959   5.147 -0.0211  0.2163 -0.2292
 5138SOL    HW220324   2.960   5.904   5.174 -1.3143  0.8958 -2.1689
 5138SOL    HW320325   2.997   6.017   5.081  2.2711  0.6114 -1.2437
 5138SOL    MW420326   3.019   5.960   5.142  0.5258  0.1704  0.5272
 5139SOL     OW20327   4.728   2.839   3.189  0.4032 -0.1369 -0.2086
 5139SOL    HW220328   4.650   2.858   3.240  1.0615 -0.0696  0.8022
 5139SOL    HW320329   4.790   2.908   3.213  1.1405 -0.7933 -0.1714
 5139SOL    MW420330   4.726   2.851   3.199 -0.1636  0.2244 -0.2006
 5140SOL     OW20331   2.067   5.824   2.578 -0.1761 -0.2651 -0.4737
 5140SOL    HW220332   2.059   5.728   2.578  0.5240 -0.3226 -1.3024
 5140SOL    HW320333   2.059   5.847   2.671 -1.0800 -1.0546 -0.3258
 5140SOL    MW420334   2.065   5.814   2.591  0.4994 -0.0948  0.5393
 5141SOL     OW20335   5.791   3.835   2.393 -0.1553  0.3933  0.4423
 5141SOL    HW220336   5.706   3.804   2.362  0.5655  0.8544 -2.3477
 5141SOL    HW320337   5.772   3.916   2.439 -1.3920 -0.6328  1.8236
 5141SOL    MW420338   5.777   3.841   2.395  0.0003 -0.3380 -0.3050
 5142SOL     OW20339   5.682   0.294   3.527  0.6519 -0.1123 -0.5282
 5142SOL    HW220340   5.709   0.205   3.548  0.8054 -0.6811 -2.8507
 5142SOL    HW320341   5.759   0.332   3.484 -0.4074  0.0461 -2.3832
 5142SOL    MW420342   5.696   0.287   3.524  0.1376  0.1594 -0.0166
 5143SOL     OW20343   3.706   0.064   5.498 -0.0954  0.0130 -0.6252
 5143SOL    HW220344   3.707   0.138   5.558 -1.9581 -0.3594 -0.0727
 5143SOL    HW320345   3.616   0.032   5.500  0.6673 -2.3433 -0.7521
 5143SOL    MW420346   3.695   0.069   5.506  0.0943  0.0098  0.0632
 5144SOL     OW20347   6.209   6.309   3.582  0.8954  0.6882  0.5028
 5144SOL    HW220348   6.251   6.391   3.609  0.6167  0.9262  0.2290
 5144SOL    HW320349   6.268   6.240   3.613  0.5600  0.9408  1.7833
 5144SOL    MW420350   6.222   6.311   3.590 -0.2626  0.1512  0.6506
 5145SOL     OW20351   5.730   4.188   1.194 -1.3109  0.1205 -0.1803
 5145SOL    HW220352   5.807   4.242   1.213 -1.0679 -0.4242  0.4183
 5145SOL    HW320353   5.688   4.175   1.278 -1.8216  0.0488 -0.4418
 5145SOL    MW420354   5.735   4.193   1.207  0.9139  0.0553  0.0428
 5146SOL     OW20355   2.264   0.712   2.433  0.0089 -0.2980 -0.4649
 5146SOL    HW220356   2.311   0.662   2.500 -0.2508  0.6557  0.4577
 5146SOL    HW320357   2.193   0.755   2.481  2.0708  3.5539 -0.5074
 5146SOL    MW420358   2.261   0.711   2.448 -0.3397  0.6093  0.5723
 5147SOL     OW20359   4.889   5.159   3.738  0.0419  0.7553 -0.2023
 5147SOL    HW220360   4.874   5.141   3.831  1.2377  0.4268 -0.0572
 5147SOL    HW320361   4.969   5.211   3.736  0.0612  0.7115 -1.0482
 5147SOL    MW420362   4.898   5.163   3.750  0.2585 -0.0762  0.2290
 5148SOL     OW20363   3.970   0.618   2.193 -0.3337  0.2268  0.7987
 5148SOL    HW220364   3.972   0.537   2.244 -1.7024  0.2304  0.8995
 5148SOL    HW320365   3.973   0.687   2.259 -0.2845  0.2497  0.7724
 5148SOL    MW420366   3.971   0.616   2.208  0.4847  0.0645 -0.5739
 5149SOL     OW20367   0.273   5.195   3.459  0.0445  0.0316 -0.1668
 5149SOL    HW220368   0.235   5.202   3.372  1.2683 -0.5919 -0.7815
 5149SOL    HW320369   0.366   5.178   3.443  0.3953  0.4625  1.2659
 5149SOL    MW420370   0.280   5.194   3.445  0.3780 -0.3390 -0.6237
 5150SOL     OW20371   3.758   4.152   4.248  0.4034  0.4525 -0.0014
 5150SOL    HW220372   3.792   4.215   4.184  4.0981  1.7179  2.8158
 5150SOL    HW320373   3.824   4.083   4.250 -0.3544 -0.2650  1.3947
 5150SOL    MW420374   3.771   4.151   4.240 -0.2124  0.3825  0.4165
 5151SOL     OW20375   3.434   6.398   5.507  0.3418 -0.4899 -0.1120
 5151SOL    HW220376   3.403   6.385   5.596  3.2357  0.0452  1.0995
 5151SOL    HW320377   3.401   6.485   5.482  1.2820  0.3253  1.3420
 5151SOL    MW420378   3.426   6.408   5.515  0.5980  0.0198 -0.4396
 5152SOL     OW20379   2.535   2.219   4.127  0.2264  0.0624 -0.7252
 5152SOL    HW220380   2.454   2.263   4.099  0.5422  0.2118 -1.4326
 5152SOL    HW320381   2.509   2.128   4.142 -0.7851  0.7343  2.2930
 5152SOL    MW420382   2.521   2.213   4.125  0.2697 -1.0441 -0.2184
 5153SOL     OW20383   3.079   0.784   1.016 -0.1938 -0.2865 -0.0515
 5153SOL    HW220384   3.103   0.870   0.983  1.1759 -0.0473  1.4567
 5153SOL    HW320385   3.116   0.723   0.952  0.1136  0.2132 -0.3547
 5153SOL    MW420386   3.087   0.787   1.003  0.0700  0.2529 -0.1498
 5154SOL     OW20387   4.207   2.567   0.740  0.2999 -0.0843  0.1567
 5154SOL    HW220388   4.133   2.555   0.799 -0.0060  1.4946  0.1589
 5154SOL    HW320389   4.255   2.484   0.742 -1.6563 -1.2740 -0.1329
 5154SOL    MW420390   4.204   2.555   0.748  0.2981  0.2889  0.4631
 5155SOL     OW20391   5.198   5.980   1.753  0.5184  0.0669 -0.1602
 5155SOL    HW220392   5.144   6.042   1.801 -1.4705 -2.4972  1.1444
 5155SOL    HW320393   5.245   5.931   1.820  0.6359 -1.0395 -1.0041
 5155SOL    MW420394   5.197   5.982   1.768  0.4464 -0.1684  0.8885
 5156SOL     OW20395   6.182   1.297   5.245  0.0164  0.2970 -0.5446
 5156SOL    HW220396   6.104   1.271   5.293  1.2643 -0.8057  0.9497
 5156SOL    HW320397   6.164   1.388   5.218 -1.2575  0.4947  0.8621
 5156SOL    MW420398   6.169   1.306   5.247  0.1167 -0.1875  0.3232
 5157SOL     OW20399   1.364   6.101   2.600  0.0776  0.0981 -0.0044
 5157SOL    HW220400   1.421   6.110   2.523 -1.3521  0.8909 -0.9961
 5157SOL    HW320401   1.371   6.185   2.645 -0.7631  0.4190 -0.4607
 5157SOL    MW420402   1.373   6.113   2.595  0.0372  0.3325 -0.0414
 5158SOL     OW20403   1.600   2.265   4.307 -0.5900 -0.1858 -0.1457
 5158SOL    HW220404   1.655   2.280   4.384  0.7634 -0.4980 -1.0153
 5158SOL    HW320405   1.535   2.201   4.336  2.0642 -3.1226 -0.1361
 5158SOL    MW420406   1.598   2.258   4.321  0.3673  0.0711 -0.9087
 5159SOL     OW20407   2.409   4.432   0.580  0.5440  0.2318 -0.0755
 5159SOL    HW220408   2.318   4.459   0.571  0.0116 -1.0994  1.0115
 5159SOL    HW320409   2.406   4.350   0.630  2.3687  0.5046  0.5958
 5159SOL    MW420410   2.397   4.425   0.586 -0.3057 -0.0435  0.2050
 5160SOL     OW20411   5.023   2.026   3.546  0.4115 -0.0583 -0.2706
 5160SOL    HW220412   5.098   1.975   3.517  1.0939  1.7434 -1.9097
 5160SOL    HW320413   4.993   1.982   3.625  1.9169 -2.0178 -0.7105
 5160SOL    MW420414   5.029   2.013   3.553 -0.4183  0.0158  0.4792
 5161SOL     OW20415   4.915   1.804   4.996  0.2890  0.3138  0.2571
 5161SOL    HW220416   4.942   1.787   4.906  1.5255  1.8118  0.3037
 5161SOL    HW320417   4.835   1.855   4.987 -1.2002 -1.9128  0.0906
 5161SOL    MW420418   4.908   1.809   4.983 -0.0622 -0.2379 -0.3846
 5162SOL     OW20419   5.208   4.275   0.611  0.2035  0.3758  0.3268
 5162SOL    HW220420   5.181   4.366   0.600  0.4505  0.5029  0.7599
 5162SOL    HW320421   5.271   4.260   0.541  3.0630  1.6931  2.4338
 5162SOL    MW420422   5.213   4.285   0.600  0.1285  0.7247 -0.3618
 5163SOL     OW20423   4.493   6.417   1.306  0.3057 -0.3413 -0.2779
 5163SOL    HW220424   4.414   6.400   1.357  0.1926  2.6701  0.7740
 5163SOL    HW320425   4.545   6.337   1.315 -0.5007 -0.6526  3.2003
 5163SOL    MW420426   4.490   6.404   1.314 -0.1029 -0.5143 -0.2144
 5164SOL     OW20427   2.693   5.380   3.524 -0.0761  0.1671  0.6263
 5164SOL    HW220428   2.685   5.287   3.503  0.8276 -0.0388  1.1539
 5164SOL    HW320429   2.635   5.424   3.462  0.2967 -0.6569 -0.3219
 5164SOL    MW420430   2.684   5.374   3.513  0.3016 -0.6349 -0.6331
 5165SOL     OW20431   5.068   4.310   2.393  0.4232  0.3197 -0.1486
 5165SOL    HW220432   5.054   4.338   2.303 -1.4592  0.2125  0.0796
 5165SOL    HW320433   5.127   4.235   2.386  1.9137  1.5198 -1.0976
 5165SOL    MW420434   5.074   4.304   2.380 -0.9859  0.2495  0.1220
 5166SOL     OW20435   3.224   0.356   0.753 -0.5034  0.0180  0.4176
 5166SOL    HW220436   3.314   0.323   0.747 -0.0770  1.3974 -1.2442
 5166SOL    HW320437   3.233   0.445   0.787 -1.2254  0.2395  0.0406
 5166SOL    MW420438   3.237   0.363   0.757 -0.8461  0.4392  0.3281
 5167SOL     OW20439   4.736   1.722   2.761  0.5012  0.2608  0.4482
 5167SOL    HW220440   4.664   1.668   2.729  2.0716 -3.1125  2.0897
 5167SOL    HW320441   4.724   1.724   2.856  1.6491  1.0277  0.5919
 5167SOL    MW420442   4.725   1.715   2.769  0.3001  0.1863 -0.3588
 5168SOL     OW20443   1.325   4.881   5.650 -0.3201  0.6201  0.1681
 5168SOL    HW220444   1.327   4.795   5.609  2.2711  1.2834 -1.2782
 5168SOL    HW320445   1.272   4.934   5.591 -0.0282  0.5583 -0.1528
 5168SOL    MW420446   1.318   4.877   5.637 -0.5665 -0.4496 -0.2171
 5169SOL     OW20447   2.809   0.841   0.599 -0.3651 -0.8121  0.1058
 5169SOL    HW220448   2.857   0.914   0.559 -1.6397 -0.0283 -0.0333
 5169SOL    HW320449   2.876   0.774   0.614  0.4391 -0.5545 -1.9645
 5169SOL    MW420450   2.824   0.841   0.595  0.4580  0.2898  0.0143
 5170SOL     OW20451   3.390   5.351   6.401  0.4015 -0.0995 -0.2536
 5170SOL    HW220452   3.424   5.422   6.346 -0.3324  0.7467  0.3599
 5170SOL    HW320453   3.317   5.390   6.449  0.4320 -1.0750  0.6284
 5170SOL    MW420454   3.385   5.366   6.400 -0.2276 -0.1423  0.0351
 5171SOL     OW20455   2.191   1.863   3.745  0.2052 -0.0815  0.1257
 5171SOL    HW220456   2.111   1.844   3.793 -1.0350  0.9126 -1.4700
 5171SOL    HW320457   2.203   1.790   3.685  1.1700 -0.7993  1.1501
 5171SOL    MW420458   2.182   1.851   3.743 -0.1749  0.4639  0.2865
 5172SOL     OW20459   1.549   2.320   3.436 -0.8473  0.0749 -0.5339
 5172SOL    HW220460   1.559   2.404   3.392 -1.5377  1.8943  2.5197
 5172SOL    HW320461   1.577   2.336   3.526  1.7083 -3.7446 -0.4295
 5172SOL    MW420462   1.554   2.333   3.442  0.1196  0.4275  0.1675
 5173SOL     OW20463   3.931   5.625   3.926  0.1335  0.9406 -0.5998
 5173SOL    HW220464   3.926   5.615   4.021  0.4575  1.2586 -0.5461
 5173SOL    HW320465   4.017   5.591   3.902 -0.8921 -1.5550 -1.1176
 5173SOL    MW420466   3.941   5.619   3.935 -0.4304  0.0142 -0.1841
 5174SOL     OW20467   1.769   5.172   5.329 -0.0871  0.2480  0.4476
 5174SOL    HW220468   1.760   5.212   5.242 -1.7648 -0.2994  0.3388
 5174SOL    HW320469   1.828   5.231   5.376 -0.7535  1.6643 -0.4152
 5174SOL    MW420470   1.776   5.185   5.324 -0.5057  0.1623 -0.4414
 5175SOL     OW20471   6.216   5.260   6.092 -0.0127  0.0361 -0.0001
 5175SOL    HW220472   6.144   5.318   6.071  0.2500  0.7661  1.0447
 5175SOL    HW320473   6.175   5.175   6.108 -0.4891  0.1309 -0.7100
 5175SOL    MW420474   6.201   5.256   6.092  0.0544 -0.0519 -0.5890
 5176SOL     OW20475   1.295   5.179   4.174 -0.0071 -0.2612 -0.5136
 5176SOL    HW220476   1.224   5.241   4.161 -0.3016  0.3024  2.8931
 5176SOL    HW320477   1.370   5.232   4.200  0.7981 -1.0871 -1.0630
 5176SOL    MW420478   1.296   5.194   4.176  0.3224  0.2499 -0.2753
 5177SOL     OW20479   5.393   3.969   1.049 -0.1441  0.2473  0.0456
 5177SOL    HW220480   5.463   4.001   0.993 -0.0024  2.0327  1.1680
 5177SOL    HW320481   5.391   3.875   1.033  0.6490  0.5430 -2.0544
 5177SOL    MW420482   5.402   3.961   1.040  0.0771  0.1329  0.0384
 5178SOL     OW20483   0.469   3.460   0.213  0.3420  0.1257  0.1963
 5178SOL    HW220484   0.415   3.522   0.262 -0.5701  0.6065 -1.3193
 5178SOL    HW320485   0.490   3.390   0.275 -0.6889  0.7321  1.2563
 5178SOL    MW420486   0.465   3.459   0.227  0.4972  0.0301 -0.0976
 5179SOL     OW20487   2.331   5.739   5.495 -0.0636  0.0131 -0.1862
 5179SOL    HW220488   2.309   5.706   5.408 -0.6063  0.3744 -0.1989
 5179SOL    HW320489   2.292   5.676   5.555 -0.1289  0.0318 -0.2085
 5179SOL    MW420490   2.323   5.727   5.492 -0.0084  0.9077 -0.2563
 5180SOL     OW20491   0.529   1.463   2.972 -0.0179 -0.2601  0.1572
 5180SOL    HW220492   0.452   1.491   3.021  1.8013  0.3086  2.9400
 5180SOL    HW320493   0.534   1.369   2.985 -1.3660 -0.6850 -1.9102
 5180SOL    MW420494   0.520   1.455   2.980  0.3662 -0.0657 -1.0474
 5181SOL     OW20495   5.181   0.959   2.097  0.2275 -0.3741  1.0230
 5181SOL    HW220496   5.167   0.953   2.191 -0.8281  0.5606  0.9376
 5181SOL    HW320497   5.273   0.987   2.088 -0.0659  0.9202  1.8261
 5181SOL    MW420498   5.191   0.962   2.108  0.7454  0.4837 -0.1656
 5182SOL     OW20499   5.400   1.396   1.894  0.0981 -0.3803 -0.2242
 5182SOL    HW220500   5.364   1.482   1.874  0.0404 -0.5424 -0.8580
 5182SOL    HW320501   5.495   1.409   1.896  0.1415 -0.4582 -1.1764
 5182SOL    MW420502   5.408   1.409   1.892  0.1446 -1.0098  0.2877
 5183SOL     OW20503   3.959   0.705   5.680  0.1374 -0.4857  0.0383
 5183SOL    HW220504   3.895   0.659   5.627  1.7667 -0.3273 -2.2064
 5183SOL    HW320505   3.963   0.793   5.643 -1.9662  1.2348  3.4027
 5183SOL    MW420506   3.951   0.711   5.668 -0.2507 -0.0792 -0.0384
 5184SOL     OW20507   2.780   0.409   1.252 -0.3508 -0.3647  0.1306
 5184SOL    HW220508   2.865   0.443   1.224 -1.5642  2.2273 -0.7249
 5184SOL    HW320509   2.790   0.314   1.248  2.6076 -0.1671  0.5069
 5184SOL    MW420510   2.793   0.401   1.248  0.1096  0.3924 -0.3759
 5185SOL     OW20511   5.774   0.555   2.779  0.3857 -1.1976 -0.2527
 5185SOL    HW220512   5.688   0.515   2.764 -0.9309  0.7239  1.6236
 5185SOL    HW320513   5.794   0.535   2.871  0.8238  0.3298  0.0079
 5185SOL    MW420514   5.765   0.547   2.789  0.5796 -0.3505  1.1662
 5186SOL     OW20515   1.197   1.398   1.923  0.1278  0.1379 -0.9196
 5186SOL    HW220516   1.277   1.434   1.884  1.0211  0.0007  0.6789
 5186SOL    HW320517   1.126   1.436   1.873  1.2044  0.0414 -2.5826
 5186SOL    MW420518   1.198   1.407   1.912 -0.3920  0.0384 -0.0145
 5187SOL     OW20519   3.262   0.773   3.336  0.0996  1.0143  0.2570
 5187SOL    HW220520   3.230   0.859   3.363 -1.8697  0.3601  0.2123
 5187SOL    HW320521   3.202   0.711   3.379  0.0897 -0.2429 -1.4571
 5187SOL    MW420522   3.250   0.776   3.345  0.5762 -0.1797  0.2465
 5188SOL     OW20523   4.721   0.988   0.881 -0.0982  0.2128  0.0557
 5188SOL    HW220524   4.628   0.981   0.901 -0.5396  0.6268 -1.7309
 5188SOL    HW320525   4.725   1.039   0.800  1.4762 -2.1916 -1.5202
 5188SOL    MW420526   4.709   0.994   0.873  0.0259  0.3685  0.6264
 5189SOL     OW20527   2.257   1.194   0.075 -0.4968 -0.5220 -0.0252
 5189SOL    HW220528   2.276   1.216   0.166  0.9893  0.5823 -0.5733
 5189SOL    HW320529   2.162   1.177   0.074 -0.4682 -0.9816  1.7843
 5189SOL    MW420530   2.247   1.195   0.087 -0.2652  0.0524  0.7687
 5190SOL     OW20531   4.170   0.343   5.900  0.6416 -0.5438  0.2056
 5190SOL    HW220532   4.196   0.434   5.885  1.5162 -0.7896  0.1625
 5190SOL    HW320533   4.124   0.318   5.820 -0.0421  0.0059  0.4175
 5190SOL    MW420534   4.167   0.352   5.888  0.4470  0.3751  0.4831
 5191SOL     OW20535   1.365   4.000   0.497  0.2737  0.2754 -0.2126
 5191SOL    HW220536   1.271   4.008   0.482  0.4876 -1.0478 -2.7290
 5191SOL    HW320537   1.373   3.979   0.591 -2.0717 -1.3759 -0.3054
 5191SOL    MW420538   1.354   3.998   0.508 -0.4453 -0.6306 -0.5028
 5192SOL     OW20539   2.316   3.017   1.502  0.4764  0.2554  0.0127
 5192SOL    HW220540   2.404   3.035   1.535  0.4893  0.7735 -0.3058
 5192SOL    HW320541   2.290   2.936   1.546  2.4375 -1.8302 -2.4046
 5192SOL    MW420542   2.324   3.009   1.512 -0.3310  0.1027  0.2012
 5193SOL     OW20543   2.651   0.231   2.520 -0.5054  0.3819  0.2179
 5193SOL    HW220544   2.723   0.242   2.583  2.0482  0.4200 -2.4881
 5193SOL    HW320545   2.642   0.317   2.479 -2.3139  0.4328  0.6404
 5193SOL    MW420546   2.659   0.244   2.523  0.8325 -0.3316 -0.4502
 5194SOL     OW20547   3.499   6.135   0.139 -0.1711  0.3328 -0.3243
 5194SOL    HW220548   3.513   6.077   0.214  0.4360  0.0501 -0.6414
 5194SOL    HW320549   3.407   6.124   0.117  0.0549 -1.0001 -0.7538
 5194SOL    MW420550   3.489   6.126   0.146  0.0461 -0.5121 -0.1105
 5195SOL     OW20551   2.760   2.112   3.971  0.0866  0.2655 -0.2207
 5195SOL    HW220552   2.828   2.180   3.973  1.8112 -1.3992  1.3984
 5195SOL    HW320553   2.698   2.137   4.040  0.2349  0.6445 -0.2229
 5195SOL    MW420554   2.761   2.124   3.980 -0.3399  0.4723 -0.5512
 5196SOL     OW20555   1.996   0.991   5.320 -0.5026  0.0554 -0.3145
 5196SOL    HW220556   1.919   0.951   5.279  0.0271 -1.0068 -0.3146
 5196SOL    HW320557   1.989   0.966   5.413  0.1038 -0.4973 -0.4101
 5196SOL    MW420558   1.985   0.982   5.327 -0.0498 -0.5305 -1.2815
 5197SOL     OW20559   3.257   4.560   2.214 -0.3579  0.5026  0.1220
 5197SOL    HW220560   3.299   4.557   2.129 -0.2383  0.8429  0.1686
 5197SOL    HW320561   3.174   4.513   2.202 -0.0955  0.0770 -0.0390
 5197SOL    MW420562   3.252   4.553   2.201 -1.0328 -0.3211  0.7766
 5198SOL     OW20563   5.580   3.401   1.486 -0.4388  0.1915  0.0998
 5198SOL    HW220564   5.595   3.483   1.439 -0.4296  0.4014  0.4681
 5198SOL    HW320565   5.594   3.333   1.420 -1.0872  0.5076 -0.3718
 5198SOL    MW420566   5.584   3.403   1.471 -0.0681  0.0754 -0.1019
 5199SOL     OW20567   6.412   1.112   4.134  0.1160  0.0545  0.2875
 5199SOL    HW220568   6.429   1.163   4.055 -1.0679  0.1715  0.0845
 5199SOL    HW320569   6.435   1.022   4.111 -1.2736 -0.1121 -0.5880
 5199SOL    MW420570   6.417   1.107   4.121  0.6476 -0.2146 -0.3856
 5200SOL     OW20571   0.662   0.473   0.039 -0.1991  0.0834 -0.1593
 5200SOL    HW220572   0.669   0.565   0.014 -0.2161  0.0989 -0.1055
 5200SOL    HW320573   0.604   0.473   0.115 -1.6256 -0.1282 -1.2039
 5200SOL    MW420574   0.655   0.485   0.046  0.0597  0.5084  0.4807
 5201SOL     OW20575   2.561   6.436   5.747 -0.4985 -0.2103 -0.1402
 5201SOL    HW220576   2.547   6.364   5.808 -1.0293 -0.8408 -0.9797
 5201SOL    HW320577   2.656   6.442   5.737 -0.4284 -0.4022  0.3743
 5201SOL    MW420578   2.571   6.427   5.754 -0.1177 -0.2156  0.2546
 5202SOL     OW20579   2.755   2.665   3.873 -0.5228  0.2768 -0.1947
 5202SOL    HW220580   2.846   2.639   3.886 -0.5615 -0.3446 -1.0326
 5202SOL    HW320581   2.735   2.724   3.946  0.8028  1.0868 -0.4622
 5202SOL    MW420582   2.764   2.670   3.884  0.5620 -0.6218 -0.3575
 5203SOL     OW20583   4.287   4.451   3.119  0.0986  0.2712 -0.5817
 5203SOL    HW220584   4.339   4.484   3.046 -0.4461 -0.2387 -1.2150
 5203SOL    HW320585   4.235   4.380   3.082 -0.9939  0.7152  0.0361
 5203SOL    MW420586   4.287   4.446   3.105  0.1939 -0.9394 -0.0401
 5204SOL     OW20587   2.199   0.207   3.508 -0.2640 -0.0097 -0.2291
 5204SOL    HW220588   2.271   0.265   3.481  1.0807 -0.5902  1.8353
 5204SOL    HW320589   2.177   0.236   3.597  0.5472 -2.6565  0.9355
 5204SOL    MW420590   2.206   0.218   3.516 -0.3686 -0.3572 -0.6711
 5205SOL     OW20591   2.417   0.569   0.915  0.6375 -0.3252  0.3050
 5205SOL    HW220592   2.500   0.553   0.959 -0.0962 -1.1252  1.4631
 5205SOL    HW320593   2.439   0.627   0.842  2.1947 -0.5095  0.5930
 5205SOL    MW420594   2.431   0.574   0.911 -0.0722  0.1457 -0.2594
 5206SOL     OW20595   4.662   1.985   1.644  0.1203  0.5981 -0.2385
 5206SOL    HW220596   4.662   1.985   1.548 -1.1375  0.3329 -0.2580
 5206SOL    HW320597   4.569   1.990   1.667  0.1156 -2.5912  0.9259
 5206SOL    MW420598   4.650   1.985   1.634  0.0943 -0.6360  0.7315
 5207SOL     OW20599   2.590   4.841   2.848 -0.2620  0.3115 -0.1238
 5207SOL    HW220600   2.662   4.903   2.860  1.2189 -1.2927 -0.2560
 5207SOL    HW320601   2.572   4.808   2.936 -0.6106  0.4741 -0.1340
 5207SOL    MW420602   2.597   4.845   2.861  0.6093  0.2407  0.2690
 5208SOL     OW20603   4.691   3.873   1.136  0.8693  0.7363  0.5490
 5208SOL    HW220604   4.730   3.786   1.129  1.5223  1.0133  0.7007
 5208SOL    HW320605   4.749   3.921   1.195 -0.5774  0.6542  2.1348
 5208SOL    MW420606   4.704   3.868   1.143  0.2182 -0.1533  1.0388
 5209SOL     OW20607   2.176   0.569   5.848  0.1994 -0.1479 -0.7321
 5209SOL    HW220608   2.207   0.579   5.758 -0.3051  1.3743 -0.7574
 5209SOL    HW320609   2.247   0.522   5.892  1.0051  0.2073 -1.6189
 5209SOL    MW420610   2.190   0.564   5.842  0.3876 -0.0419  0.1616
 5210SOL     OW20611   3.496   4.727   4.985 -0.1510 -0.2728  0.1376
 5210SOL    HW220612   3.464   4.817   4.982 -0.1444 -0.2317  1.0286
 5210SOL    HW320613   3.456   4.690   5.064  0.1553 -0.9306 -0.0072
 5210SOL    MW420614   3.486   4.734   4.995  0.6478 -0.0032  0.0932
 5211SOL     OW20615   2.291   3.494   5.620 -0.0605 -0.2103 -0.3961
 5211SOL    HW220616   2.287   3.498   5.715  0.8442  0.9758 -0.3794
 5211SOL    HW320617   2.201   3.475   5.593 -0.1251 -1.6483  0.7033
 5211SOL    MW420618   2.279   3.492   5.629  0.5131 -0.1244  0.2350
 5212SOL     OW20619   3.057   1.962   4.166 -0.1265  0.2971 -0.6461
 5212SOL    HW220620   3.049   1.906   4.089 -1.1608 -0.8599  0.2545
 5212SOL    HW320621   3.144   1.944   4.201 -0.6041 -1.1244 -0.1261
 5212SOL    MW420622   3.067   1.952   4.160  0.0814 -0.2610 -0.4835
 5213SOL     OW20623   3.134   5.349   3.491  0.4767  0.2234  0.0781
 5213SOL    HW220624   3.162   5.437   3.468 -0.3653  0.5184  0.1411
 5213SOL    HW320625   3.212   5.295   3.481  0.7441  0.7872 -0.9901
 5213SOL    MW420626   3.148   5.353   3.487 -0.1488  0.2627 -0.7994
 5214SOL     OW20627   2.670   1.383   0.491  0.2275  0.3897  0.2278
 5214SOL    HW220628   2.635   1.438   0.562 -0.2606  0.0433  0.2616
 5214SOL    HW320629   2.736   1.329   0.533  0.0539  0.2989  0.3859
 5214SOL    MW420630   2.674   1.383   0.506  0.1266  0.3870  0.4638
 5215SOL     OW20631   4.126   1.544   0.188  0.2702  0.0152 -0.1576
 5215SOL    HW220632   4.094   1.591   0.111  2.3751  1.1753 -0.3956
 5215SOL    HW320633   4.060   1.560   0.255  0.5395  2.7897 -0.4307
 5215SOL    MW420634   4.113   1.552   0.187  0.0371  0.4166 -0.4278
 5216SOL     OW20635   3.534   4.021   5.915  0.4585 -1.0914 -0.1673
 5216SOL    HW220636   3.497   3.959   5.978 -1.8280 -0.8267 -1.1518
 5216SOL    HW320637   3.627   4.025   5.938 -0.1432 -1.4351  2.8004
 5216SOL    MW420638   3.541   4.013   5.927  0.6750  0.1431 -1.0206
 5217SOL     OW20639   2.980   4.659   0.255  0.4888  0.5185 -0.2771
 5217SOL    HW220640   2.942   4.743   0.280  1.5369  0.6132  1.1071
 5217SOL    HW320641   3.026   4.630   0.333 -0.4620 -1.7182 -0.4771
 5217SOL    MW420642   2.981   4.666   0.269  0.6350 -0.4899 -0.4835
 5218SOL     OW20643   3.103   0.097   2.555 -0.3891 -0.0644  0.4047
 5218SOL    HW220644   3.024   0.124   2.507 -0.2316  0.6975  0.5519
 5218SOL    HW320645   3.088   0.005   2.577 -1.4056  0.1707  0.7663
 5218SOL    MW420646   3.091   0.089   2.551 -0.5598  0.4521 -0.2765
 5219SOL     OW20647   5.371   2.993   1.446 -0.3449  0.1768 -0.7248
 5219SOL    HW220648   5.429   2.956   1.380 -0.6794 -1.4329 -0.1416
 5219SOL    HW320649   5.423   2.994   1.527 -0.0819  1.7358 -0.8770
 5219SOL    MW420650   5.386   2.989   1.448 -0.7050  0.2449 -0.2916
 5220SOL     OW20651   3.680   1.210   3.420  0.2304  0.1059  0.0482
 5220SOL    HW220652   3.679   1.133   3.475  0.9946 -1.6284 -2.2168
 5220SOL    HW320653   3.771   1.221   3.393  0.0975  1.6485  0.0924
 5220SOL    MW420654   3.692   1.202   3.424 -0.1229  0.0586 -0.3362
 5221SOL     OW20655   4.139   5.353   5.379 -0.1469  0.6850  0.3822
 5221SOL    HW220656   4.163   5.436   5.337  1.2702  0.4389  0.6640
 5221SOL    HW320657   4.184   5.355   5.463  0.7900 -0.8411 -0.0652
 5221SOL    MW420658   4.148   5.365   5.384 -0.7947  0.1465 -0.3801
 5222SOL     OW20659   5.371   0.641   2.186 -0.1387  0.0806 -0.3897
 5222SOL    HW220660   5.404   0.560   2.225  0.4153  0.4581 -0.0647
 5222SOL    HW320661   5.334   0.614   2.102  0.1598 -0.4949 -0.3392
 5222SOL    MW420662   5.371   0.627   2.180  0.3640 -0.5128  0.9633
 5223SOL     OW20663   0.953   3.892   2.260 -0.0735 -0.4106  0.5240
 5223SOL    HW220664   0.872   3.842   2.265 -0.4583  0.2526  1.0054
 5223SOL    HW320665   0.959   3.919   2.168  0.1050 -1.2694  0.2758
 5223SOL    MW420666   0.943   3.889   2.248  0.7708 -1.0598 -0.2979
 5224SOL     OW20667   2.826   0.999   4.773 -0.6166  0.1389 -0.6414
 5224SOL    HW220668   2.858   1.089   4.781 -3.1031  1.1364 -1.0157
 5224SOL    HW320669   2.869   0.965   4.694  0.8347  0.7248 -0.1448
 5224SOL    MW420670   2.836   1.006   4.764 -0.2504 -0.3430 -0.0123
 5225SOL     OW20671   6.345   3.749   1.180  0.1747 -0.1771 -0.2253
 5225SOL    HW220672   6.345   3.664   1.137 -2.4287 -0.3625 -0.0172
 5225SOL    HW320673   6.350   3.812   1.109  2.3851 -0.4550 -0.3654
 5225SOL    MW420674   6.345   3.746   1.165 -0.4966  0.2205  0.0660
 5226SOL     OW20675   5.489   5.870   1.687 -0.2573 -0.1902 -0.2470
 5226SOL    HW220676   5.490   5.875   1.783 -1.0291  1.3345 -0.2797
 5226SOL    HW320677   5.563   5.813   1.665 -1.2539 -2.2232  1.3015
 5226SOL    MW420678   5.499   5.863   1.697 -0.3252  0.5389  0.1390
 5227SOL     OW20679   4.411   6.162   3.108 -0.0203 -0.1379 -0.2748
 5227SOL    HW220680   4.398   6.252   3.078  0.2402  0.3305  0.9498
 5227SOL    HW320681   4.507   6.152   3.112 -0.0432 -0.6841 -1.0122
 5227SOL    MW420682   4.422   6.173   3.105  0.3252  0.2037  0.0663
 5228SOL     OW20683   1.013   4.855   5.034  0.1110  0.0888  0.3849
 5228SOL    HW220684   1.045   4.943   5.015  0.7204 -0.0849  0.5897
 5228SOL    HW320685   1.087   4.810   5.075 -0.2415 -0.4723  0.4261
 5228SOL    MW420686   1.027   4.861   5.037  0.3129 -0.0545 -0.0598
 5229SOL     OW20687   4.784   1.527   4.805  0.5833 -0.4924  0.4688
 5229SOL    HW220688   4.752   1.562   4.888  1.6176 -0.2770  0.7923
 5229SOL    HW320689   4.854   1.466   4.830 -1.2211 -2.9642 -0.0489
 5229SOL    MW420690   4.789   1.523   4.820  0.2714 -0.3746  0.3836
 5230SOL     OW20691   4.094   2.481   3.459  0.1602  0.2314  0.0783
 5230SOL    HW220692   4.083   2.555   3.518 -1.6260  0.5245 -0.5742
 5230SOL    HW320693   4.186   2.455   3.470  0.8691  2.5789  0.2442
 5230SOL    MW420694   4.105   2.487   3.468 -0.0853  0.6146 -0.1437
 5231SOL     OW20695   4.162   2.007   0.178 -0.3323 -0.0630 -0.2074
 5231SOL    HW220696   4.165   2.100   0.156  0.7661  0.1455  0.7505
 5231SOL    HW320697   4.251   1.976   0.166 -0.4137 -0.6906  0.7122
 5231SOL    MW420698   4.174   2.015   0.173 -0.2869 -0.3119 -0.4127
 5232SOL     OW20699   5.429   4.733   5.859  0.2287  0.8757 -0.6294
 5232SOL    HW220700   5.508   4.760   5.905 -0.4159  2.3735 -0.3274
 5232SOL    HW320701   5.387   4.670   5.918  1.4494 -0.3589 -1.0459
 5232SOL    MW420702   5.434   4.728   5.873  0.0221 -0.2416 -0.1666
 5233SOL     OW20703   3.614   2.094   4.105 -0.4845  0.2725  0.6915
 5233SOL    HW220704   3.589   2.136   4.188 -0.1328 -0.1292  1.0065
 5233SOL    HW320705   3.677   2.027   4.131  0.2587  0.6947  0.0050
 5233SOL    MW420706   3.619   2.091   4.119  0.3644  0.1811  0.4055
 5234SOL     OW20707   1.530   5.747   5.796  0.5348  0.7766 -0.5217
 5234SOL    HW220708   1.476   5.820   5.826 -0.3619 -1.1134  3.1119
 5234SOL    HW320709   1.468   5.676   5.781  1.7209 -0.8447  1.6969
 5234SOL    MW420710   1.515   5.747   5.798 -0.3182 -0.6805  0.8562
 5235SOL     OW20711   4.991   0.283   2.007  0.0640 -0.3305 -0.1480
 5235SOL    HW220712   4.914   0.230   1.990 -1.0692  1.1482  0.1485
 5235SOL    HW320713   4.978   0.362   1.955  2.3279 -0.8368 -1.6104
 5235SOL    MW420714   4.979   0.287   1.998  0.2467 -0.1740 -0.1669
 5236SOL     OW20715   3.788   1.952   1.321 -0.6903  0.7921 -0.0029
 5236SOL    HW220716   3.813   2.041   1.345  0.1178  0.3977  0.6403
 5236SOL    HW320717   3.767   1.957   1.228 -0.8269  1.6860  0.0696
 5236SOL    MW420718   3.788   1.964   1.312 -0.5928 -0.1348 -0.0197
 5237SOL     OW20719   5.153   2.207   3.183 -0.0065 -0.3755 -0.2793
 5237SOL    HW220720   5.152   2.237   3.092  0.4128  1.8382  0.3850
 5237SOL    HW320721   5.072   2.242   3.220  1.2719  1.4507  0.9519
 5237SOL    MW420722   5.142   2.216   3.176 -0.0092  0.3846  0.3746
 5238SOL     OW20723   5.002   2.626   3.449 -0.2333 -0.0480 -0.1693
 5238SOL    HW220724   5.010   2.718   3.426  2.0893 -0.3851 -1.0374
 5238SOL    HW320725   5.042   2.579   3.375  0.6679 -1.6035  1.2129
 5238SOL    MW420726   5.009   2.632   3.436  0.3965 -0.0889 -0.0237
 5239SOL     OW20727   3.668   5.760   4.520  0.1366  0.0164 -0.1924
 5239SOL    HW220728   3.751   5.751   4.566  0.7978 -2.3432 -1.6387
 5239SOL    HW320729   3.606   5.789   4.587  1.6491 -0.3720  1.4469
 5239SOL    MW420730   3.671   5.763   4.535 -0.2112 -0.3381  0.4695
 5240SOL     OW20731   1.468   2.448   1.908  0.3173  0.3249  0.7277
 5240SOL    HW220732   1.385   2.413   1.938  0.4546 -3.5855 -2.5685
 5240SOL    HW320733   1.447   2.497   1.828  1.1095 -1.6437 -0.7820
 5240SOL    MW420734   1.454   2.450   1.901 -0.0146  0.0476  0.5279
 5241SOL     OW20735   5.520   1.482   3.146 -0.0867  0.1571  0.1246
 5241SOL    HW220736   5.503   1.540   3.221  0.0846 -0.2870  0.5061
 5241SOL    HW320737   5.476   1.400   3.169  1.2612 -0.5059  0.4470
 5241SOL    MW420738   5.512   1.479   3.159  0.2753 -0.0618  0.0765
 5242SOL     OW20739   1.934   1.923   0.772  0.0449  0.1489  0.5283
 5242SOL    HW220740   1.999   1.882   0.830  0.6933  1.3702  0.7113
 5242SOL    HW320741   1.987   1.966   0.705 -0.6516 -0.0373 -0.1442
 5242SOL    MW420742   1.950   1.923   0.771 -0.4047  0.2201  0.0160
 5243SOL     OW20743   3.445   1.005   4.281 -0.0790  0.1829  0.1840
 5243SOL    HW220744   3.405   0.966   4.204  0.6778  2.3646 -1.4221
 5243SOL    HW320745   3.371   1.023   4.340 -0.6419 -1.6882  0.0994
 5243SOL    MW420746   3.430   1.003   4.279 -0.0279  0.0238 -0.5112
 5244SOL     OW20747   0.569   2.217   2.792 -0.0826  0.6137 -0.0874
 5244SOL    HW220748   0.629   2.244   2.861 -0.3346 -0.1405  0.4467
 5244SOL    HW320749   0.579   2.283   2.724  1.8496  0.1434 -0.3129
 5244SOL    MW420750   0.578   2.229   2.792  0.4783 -0.0140  0.3030
 5245SOL     OW20751   2.340   1.696   0.137 -0.0216 -0.1265 -0.0657
 5245SOL    HW220752   2.296   1.781   0.128  0.6356  0.8320  3.9080
 5245SOL    HW320753   2.431   1.718   0.156  0.2178 -1.7116  0.7640
 5245SOL    MW420754   2.346   1.710   0.138 -0.2292  0.2846  0.0183
 5246SOL     OW20755   6.401   3.662   6.417 -0.0886 -0.7100 -0.1264
 5246SOL    HW220756   6.341   3.655   6.492  0.3985  0.7689  0.4236
 5246SOL    HW320757   6.375   3.590   6.360 -2.0875 -0.4180  0.3224
 5246SOL    MW420758   6.389   3.652   6.420  0.0956  0.3338  0.6100
 5247SOL     OW20759   2.869   2.064   5.952  0.4160  0.1156  0.0818
 5247SOL    HW220760   2.825   2.035   5.872 -0.9500  0.4541  0.6732
 5247SOL    HW320761   2.924   1.990   5.978  0.0254 -0.4108 -0.5707
 5247SOL    MW420762   2.870   2.051   5.945  0.3445 -0.0781  0.6919
 5248SOL     OW20763   3.687   5.505   0.815  0.1639 -0.3004  0.3983
 5248SOL    HW220764   3.706   5.485   0.907  2.0395 -1.1421 -0.1237
 5248SOL    HW320765   3.773   5.509   0.773 -0.6020  0.9282 -1.1717
 5248SOL    MW420766   3.701   5.503   0.822 -0.4132 -0.1378 -0.0076
 5249SOL     OW20767   2.420   1.852   5.466 -0.4356  0.1356  0.1114
 5249SOL    HW220768   2.395   1.759   5.469  0.5837 -0.1541  0.0416
 5249SOL    HW320769   2.399   1.880   5.377  0.7827 -0.4969 -0.4037
 5249SOL    MW420770   2.414   1.843   5.455  0.2936  0.2973 -0.5942
 5250SOL     OW20771   5.040   6.209   3.971  0.4334  0.0396  0.2658
 5250SOL    HW220772   5.001   6.258   4.043 -0.7343  1.0505 -0.9914
 5250SOL    HW320773   4.968   6.198   3.908  0.9444 -2.3398 -0.0075
 5250SOL    MW420774   5.025   6.214   3.972  0.4106 -0.6086  0.2616
 5251SOL     OW20775   3.560   1.959   3.006  0.2445  0.3290  1.0266
 5251SOL    HW220776   3.485   1.910   3.038 -2.7259  3.1748 -0.9502
 5251SOL    HW320777   3.586   2.014   3.079 -1.6557  1.4637  0.9127
 5251SOL    MW420778   3.554   1.960   3.020 -0.9360  0.4135 -0.1853
 5252SOL     OW20779   3.921   5.834   1.100  0.1578  0.3140 -0.0003
 5252SOL    HW220780   3.951   5.743   1.095 -0.1843  0.2567 -1.6576
 5252SOL    HW320781   3.972   5.880   1.033 -0.9336  0.9464 -0.4379
 5252SOL    MW420782   3.932   5.828   1.090  0.6158  0.2656  0.6886
 5253SOL     OW20783   6.201   1.350   1.612 -0.5692  0.0230  0.1861
 5253SOL    HW220784   6.142   1.357   1.686 -0.4587 -0.7960  0.3615
 5253SOL    HW320785   6.288   1.337   1.651 -0.6422 -1.4634 -0.0603
 5253SOL    MW420786   6.205   1.349   1.627  0.0820  0.3615  0.1272
 5254SOL     OW20787   5.506   4.655   0.527 -0.4436  0.7695  0.7252
 5254SOL    HW220788   5.444   4.628   0.595  0.7006 -1.0579  1.1029
 5254SOL    HW320789   5.588   4.611   0.550  0.5231  1.7159 -0.7364
 5254SOL    MW420790   5.508   4.646   0.539  0.1980  0.0540  0.7397
 5255SOL     OW20791   3.190   3.793   3.847  0.1987  0.1565 -0.2636
 5255SOL    HW220792   3.213   3.877   3.807  0.6567 -0.6508 -1.7452
 5255SOL    HW320793   3.264   3.773   3.905 -0.0461  0.8856  0.3276
 5255SOL    MW420794   3.203   3.802   3.850  0.3958 -0.4488  0.1451
 5256SOL     OW20795   5.650   0.964   1.331  0.6661 -0.5843 -0.0523
 5256SOL    HW220796   5.587   0.900   1.297 -1.4746  1.7399 -0.7883
 5256SOL    HW320797   5.665   1.023   1.257  0.7983  1.0203  1.2230
 5256SOL    MW420798   5.644   0.963   1.317  0.0929 -0.1960  0.0492
 5257SOL     OW20799   4.537   2.009   1.978 -0.3204  0.0945 -0.3276
 5257SOL    HW220800   4.615   2.007   2.034 -1.4566 -0.0447  1.3069
 5257SOL    HW320801   4.496   2.093   1.999 -0.8412 -0.0304 -0.8540
 5257SOL    MW420802   4.542   2.020   1.988 -0.0340  0.0772  0.8675
 5258SOL     OW20803   3.112   1.531   4.672  0.0828 -0.1137 -0.6664
 5258SOL    HW220804   3.122   1.475   4.749 -0.5872  1.1012  0.3325
 5258SOL    HW320805   3.037   1.587   4.692  0.1598  0.5253 -2.0270
 5258SOL    MW420806   3.103   1.531   4.684 -0.1136 -0.0999 -0.2277
 5259SOL     OW20807   4.204   5.232   3.838  0.4204 -0.4878 -0.3029
 5259SOL    HW220808   4.191   5.300   3.772 -0.8477 -0.1146  0.2941
 5259SOL    HW320809   4.199   5.150   3.789  0.3709 -0.1895 -0.8034
 5259SOL    MW420810   4.201   5.230   3.823 -0.3220 -0.1217 -0.5616
 5260SOL     OW20811   3.050   0.463   1.162  0.2149 -0.0603 -0.5735
 5260SOL    HW220812   3.033   0.387   1.107 -0.5858  0.5050 -1.1400
 5260SOL    HW320813   3.111   0.432   1.229  0.7590 -0.9158 -1.4408
 5260SOL    MW420814   3.056   0.449   1.163 -0.2294  0.1798 -0.0595
 5261SOL     OW20815   2.609   1.746   1.792  0.1362 -0.1623  0.6799
 5261SOL    HW220816   2.523   1.787   1.781  1.4095  2.3110 -1.2165
 5261SOL    HW320817   2.607   1.670   1.734 -1.1884 -1.0169  1.7711
 5261SOL    MW420818   2.597   1.742   1.783 -0.2021  0.1223  0.4717
 5262SOL     OW20819   3.415   2.452   6.118 -0.3360 -0.4257  0.0601
 5262SOL    HW220820   3.368   2.525   6.158 -1.1407 -0.6002 -0.5346
 5262SOL    HW320821   3.439   2.484   6.031  1.3688 -0.0583  0.6249
 5262SOL    MW420822   3.412   2.466   6.111 -0.0121  0.2098 -0.2335
 5263SOL     OW20823   3.556   1.099   3.924 -0.7593  0.3990  0.2063
 5263SOL    HW220824   3.627   1.072   3.983  1.6465 -1.3860 -3.1678
 5263SOL    HW320825   3.577   1.190   3.902 -0.7016  0.5216  0.7486
 5263SOL    MW420826   3.568   1.108   3.929  0.1615 -0.1355  0.1002
 5264SOL     OW20827   0.885   3.524   2.555  0.2497  0.3757  0.1773
 5264SOL    HW220828   0.977   3.523   2.532  0.2768  0.7231  0.2677
 5264SOL    HW320829   0.865   3.616   2.571 -0.8144  0.7433 -2.6709
 5264SOL    MW420830   0.894   3.536   2.554 -0.0136 -0.4881  0.3329
 5265SOL     OW20831   2.389   1.547   5.385 -0.6146  0.1898 -0.2009
 5265SOL    HW220832   2.377   1.457   5.414 -1.4187  0.9920  2.2817
 5265SOL    HW320833   2.310   1.566   5.333 -1.3204 -0.0391  0.7538
 5265SOL    MW420834   2.377   1.538   5.382  0.0990  0.0534 -0.0426
 5266SOL     OW20835   0.149   4.895   0.415 -0.1369 -0.1067 -0.4689
 5266SOL    HW220836   0.133   4.802   0.431  2.5484 -0.2507  2.2579
 5266SOL    HW320837   0.176   4.899   0.324 -1.4954 -1.7606 -1.0092
 5266SOL    MW420838   0.150   4.883   0.406  0.1248  0.4118 -0.0960
 5267SOL     OW20839   6.251   4.048   5.491  0.0608 -0.6208  0.2068
 5267SOL    HW220840   6.219   4.051   5.401  0.3859  1.0813  0.1196
 5267SOL    HW320841   6.322   3.983   5.488 -0.3300 -1.0376 -0.6050
 5267SOL    MW420842   6.256   4.040   5.478 -0.4426  0.0893 -0.7057
 5268SOL     OW20843   3.948   0.796   2.390  0.4668 -0.4658  0.1174
 5268SOL    HW220844   4.019   0.786   2.454 -0.0886 -0.0210  0.8208
 5268SOL    HW320845   3.978   0.866   2.332  1.3512 -1.4572 -0.6485
 5268SOL    MW420846   3.961   0.804   2.391  0.1140 -0.3370  0.0212
 5269SOL     OW20847   3.355   2.744   1.122  0.7095  0.4853 -0.2617
 5269SOL    HW220848   3.311   2.693   1.055 -0.1631 -0.4529  0.9666
 5269SOL    HW320849   3.301   2.822   1.133  1.3754  1.1168 -1.2798
 5269SOL    MW420850   3.342   2.748   1.115 -0.5112  0.1928 -0.0816
 5270SOL     OW20851   5.677   5.382   5.077 -0.0276  0.6415 -0.1517
 5270SOL    HW220852   5.743   5.376   5.008 -1.2319 -0.1758 -1.2803
 5270SOL    HW320853   5.680   5.473   5.106  1.7927  0.5386  0.0471
 5270SOL    MW420854   5.686   5.393   5.072 -0.4242 -0.3263  0.0513
 5271SOL     OW20855   0.082   1.138   5.792 -0.1660  0.1153  0.1980
 5271SOL    HW220856   0.028   1.149   5.713  0.0954  2.0263  0.2455
 5271SOL    HW320857   0.123   1.223   5.805  0.3500 -0.3779  2.0253
 5271SOL    MW420858   0.081   1.151   5.783  0.8265 -0.3455  0.5783
 5272SOL     OW20859   4.484   1.707   1.135  0.5302  0.2572  0.6508
 5272SOL    HW220860   4.481   1.800   1.159 -1.4129  0.3384  0.2368
 5272SOL    HW320861   4.427   1.664   1.199  0.2696 -0.4514 -0.0469
 5272SOL    MW420862   4.476   1.713   1.147  0.3149  0.4935  0.6619
 5273SOL     OW20863   0.317   1.011   2.703  0.4065 -0.6017  0.4727
 5273SOL    HW220864   0.261   0.945   2.743 -0.1122 -0.3846  0.1045
 5273SOL    HW320865   0.398   0.964   2.683  0.3059 -0.9490  0.8667
 5273SOL    MW420866   0.321   0.996   2.706 -0.3677 -0.1392 -0.0199
 5274SOL     OW20867   1.171   3.601   1.339 -0.1175  0.3571  0.0577
 5274SOL    HW220868   1.220   3.519   1.349  1.2678  1.0282 -0.9780
 5274SOL    HW320869   1.163   3.635   1.428  0.1308 -0.4299  0.3890
 5274SOL    MW420870   1.177   3.595   1.352  0.1587 -0.8584 -0.0959
 5275SOL     OW20871   2.543   5.630   1.548 -0.0384  0.1635 -0.5563
 5275SOL    HW220872   2.494   5.554   1.519  0.7314 -0.7237  0.3997
 5275SOL    HW320873   2.630   5.619   1.511  0.0266  0.6872 -0.5745
 5275SOL    MW420874   2.548   5.619   1.539  0.7561 -0.3848  0.3432
 5276SOL     OW20875   1.688   1.204   6.182 -0.0980  0.0432  0.0145
 5276SOL    HW220876   1.710   1.162   6.265  1.4541  1.0743  0.1557
 5276SOL    HW320877   1.619   1.267   6.204 -2.1130 -1.9697 -0.1217
 5276SOL    MW420878   1.682   1.207   6.196 -0.4463  0.7424  0.1455
 5277SOL     OW20879   1.389   5.622   6.110 -0.7527 -0.0188 -0.2918
 5277SOL    HW220880   1.359   5.713   6.115  0.8209  0.5037  0.0727
 5277SOL    HW320881   1.411   5.609   6.018  0.3003  0.4072 -0.1069
 5277SOL    MW420882   1.388   5.632   6.099  0.1818 -0.3246 -0.0325
 5278SOL     OW20883   4.286   3.170   4.804 -0.4268 -0.6617 -0.3210
 5278SOL    HW220884   4.199   3.171   4.765 -0.9601 -0.6278  0.8179
 5278SOL    HW320885   4.307   3.263   4.818 -1.0637 -0.7036  1.1646
 5278SOL    MW420886   4.277   3.182   4.801 -0.4935  0.0633 -0.0133
 5279SOL     OW20887   0.739   3.938   1.108 -0.0263 -0.5692  0.2290
 5279SOL    HW220888   0.712   3.968   1.021  0.7339  0.0222  0.1871
 5279SOL    HW320889   0.835   3.936   1.104  0.0796  0.5732  1.4054
 5279SOL    MW420890   0.748   3.942   1.096  0.1594 -0.2986  0.4787
 5280SOL     OW20891   1.012   5.965   2.463 -0.2095 -0.6092  0.3123
 5280SOL    HW220892   0.958   6.013   2.525 -0.4712 -2.4285  1.5892
 5280SOL    HW320893   0.965   5.971   2.379 -1.5723 -0.8218  1.0382
 5280SOL    MW420894   0.999   5.972   2.460  0.6108  0.4027  0.1623
 5281SOL     OW20895   5.318   2.400   2.103  0.4006  0.4065  0.3624
 5281SOL    HW220896   5.396   2.346   2.092 -0.4257 -0.8154  0.3209
 5281SOL    HW320897   5.298   2.393   2.197  1.5334  2.4699  0.8280
 5281SOL    MW420898   5.326   2.392   2.114  0.1486 -0.2518 -0.1638
 5282SOL     OW20899   3.672   0.192   3.931 -0.4816 -0.6362 -0.5971
 5282SOL    HW220900   3.602   0.171   3.992 -1.3366  0.1422 -1.2771
 5282SOL    HW320901   3.744   0.134   3.956 -1.6632 -2.0953 -0.4451
 5282SOL    MW420902   3.673   0.181   3.942  0.1290 -0.0451 -0.7920
 5283SOL     OW20903   3.955   0.269   4.198  0.0305 -0.0465  0.1752
 5283SOL    HW220904   3.959   0.209   4.273  0.1226 -0.0871  0.1373
 5283SOL    HW320905   3.931   0.213   4.124 -0.9659  0.1429  0.3437
 5283SOL    MW420906   3.952   0.253   4.198  0.0096 -0.6163  0.0925
 5284SOL     OW20907   6.284   0.657   3.698 -0.7237 -0.9357  0.4324
 5284SOL    HW220908   6.303   0.658   3.604 -0.9897 -1.1722  0.3744
 5284SOL    HW320909   6.359   0.700   3.738 -0.5500 -0.9449  0.1213
 5284SOL    MW420910   6.296   0.663   3.691  0.5330  0.6475 -0.4469
 5285SOL     OW20911   3.090   2.355   4.662  0.1572  0.4680 -0.0731
 5285SOL    HW220912   3.095   2.314   4.748 -2.4513 -0.4539 -0.2661
 5285SOL    HW320913   3.181   2.373   4.638  0.9642  0.5770  2.7603
 5285SOL    MW420914   3.103   2.352   4.670 -0.6754 -0.8171 -0.6005
 5286SOL     OW20915   1.642   2.502   1.277  0.1337  0.1624  0.1879
 5286SOL    HW220916   1.645   2.592   1.309 -0.2627 -0.4901  2.1921
 5286SOL    HW320917   1.734   2.482   1.256  0.4549  0.5629  1.1484
 5286SOL    MW420918   1.655   2.511   1.278  0.4700 -0.6429  0.2267
 5287SOL     OW20919   6.396   1.852   3.475 -0.1919  0.5522 -0.3244
 5287SOL    HW220920   6.478   1.836   3.427 -1.1625  0.5067 -2.0357
 5287SOL    HW320921   6.343   1.904   3.416 -0.9949  1.5935  1.2304
 5287SOL    MW420922   6.400   1.856   3.461  0.4339  0.4821  1.3219
 5288SOL     OW20923   5.460   5.522   4.700  0.1201  0.0892  0.3085
 5288SOL    HW220924   5.491   5.589   4.762 -0.0199  0.9484 -0.5173
 5288SOL    HW320925   5.365   5.525   4.707  0.1121  0.0038  0.2375
 5288SOL    MW420926   5.452   5.532   4.709 -0.0761 -0.3670  0.5028
 5289SOL     OW20927   0.238   4.525   0.677  0.2438 -0.2839 -0.1210
 5289SOL    HW220928   0.149   4.505   0.650  0.2452  0.4138 -0.6504
 5289SOL    HW320929   0.289   4.522   0.596  0.2999  1.5174 -0.1722
 5289SOL    MW420930   0.233   4.522   0.663  0.0720  0.1850 -0.1604
 5290SOL     OW20931   5.810   4.037   1.927  0.2506  0.1146 -0.6581
 5290SOL    HW220932   5.765   3.990   1.857 -0.0848  0.0893 -0.4245
 5290SOL    HW320933   5.832   3.970   1.991  0.1680  0.2088 -0.5317
 5290SOL    MW420934   5.807   4.022   1.926  0.0009  0.4727  0.7241
 5291SOL     OW20935   5.092   3.351   5.807 -0.1897  0.4943  0.9605
 5291SOL    HW220936   5.100   3.436   5.851 -0.8807  1.2397 -0.2873
 5291SOL    HW320937   5.021   3.306   5.853 -2.3040  2.0783 -0.5636
 5291SOL    MW420938   5.084   3.356   5.819 -0.1001  0.1620  0.2751
 5292SOL     OW20939   4.452   5.293   6.386  0.0754 -0.6832  0.0846
 5292SOL    HW220940   4.444   5.337   6.470  0.8811  1.6784 -0.9880
 5292SOL    HW320941   4.539   5.253   6.387  0.5731  0.3661 -0.0433
 5292SOL    MW420942   4.462   5.294   6.397  0.0222 -0.3983  0.0106
 5293SOL     OW20943   0.164   4.371   2.675  0.2701  0.0678  0.4161
 5293SOL    HW220944   0.170   4.445   2.614  0.0260  0.2838  0.6525
 5293SOL    HW320945   0.082   4.328   2.652  0.3726 -0.0860  0.3327
 5293SOL    MW420946   0.154   4.375   2.664  0.3420  0.0457  0.3596
 5294SOL     OW20947   2.841   5.567   2.106  0.1700 -0.0439  0.3660
 5294SOL    HW220948   2.884   5.653   2.110 -0.1889  0.1590 -0.0105
 5294SOL    HW320949   2.780   5.568   2.180  0.2148 -0.0017  0.4030
 5294SOL    MW420950   2.838   5.579   2.117 -0.3278  0.1275  0.2150
 5295SOL     OW20951   6.065   1.254   3.042  0.0590  0.3946 -0.1143
 5295SOL    HW220952   6.053   1.264   3.136 -1.9768 -0.3319 -0.2561
 5295SOL    HW320953   5.997   1.308   3.003  0.0639 -0.3258 -1.1472
 5295SOL    MW420954   6.054   1.263   3.049 -0.1204  0.3666  0.1192
 5296SOL     OW20955   6.150   2.101   1.780  0.2225 -0.0149  0.5481
 5296SOL    HW220956   6.194   2.167   1.726  0.6603 -1.5348 -1.0645
 5296SOL    HW320957   6.108   2.044   1.716 -0.6152 -0.9698  1.9237
 5296SOL    MW420958   6.150   2.102   1.764 -0.3716 -0.6126  0.4693
 5297SOL     OW20959   4.923   5.250   4.119  0.4749 -0.0798 -0.3903
 5297SOL    HW220960   4.856   5.221   4.181  0.5308 -0.0379 -0.3092
 5297SOL    HW320961   4.971   5.319   4.166  0.6371 -0.1779 -0.4100
 5297SOL    MW420962   4.921   5.256   4.133 -0.4724 -0.5490 -0.4759
 5298SOL     OW20963   5.770   3.401   3.880 -0.0231 -0.0576  0.4444
 5298SOL    HW220964   5.826   3.329   3.908  1.2571  0.6226 -0.2816
 5298SOL    HW320965   5.829   3.463   3.839 -1.3690  0.5363 -0.6839
 5298SOL    MW420966   5.785   3.400   3.878 -0.0684 -0.1037 -0.4896
 5299SOL     OW20967   2.995   1.093   0.515 -0.1460 -0.2465  0.3225
 5299SOL    HW220968   2.990   1.101   0.420  1.1353  0.7229  0.3185
 5299SOL    HW320969   3.079   1.051   0.531 -0.2915 -0.2750  1.0398
 5299SOL    MW420970   3.006   1.089   0.504  0.4817 -0.1060  0.4634
 5300SOL     OW20971   0.581   0.236   3.838  0.5190  0.0853 -0.5229
 5300SOL    HW220972   0.602   0.288   3.916 -1.2725  0.1466 -0.0381
 5300SOL    HW320973   0.601   0.146   3.865  0.1540  0.1321 -0.0842
 5300SOL    MW420974   0.587   0.231   3.852  0.6156  0.3481 -0.9066
 5301SOL     OW20975   3.457   1.969   3.674  0.0603  0.3892  0.5762
 5301SOL    HW220976   3.397   1.959   3.748  1.8264 -2.6919  1.7565
 5301SOL    HW320977   3.528   2.022   3.708 -0.2690  1.0196  0.2960
 5301SOL    MW420978   3.458   1.975   3.688 -0.2614  0.2107  0.0449
 5302SOL     OW20979   5.207   3.969   1.756 -0.1234 -0.3528 -0.2028
 5302SOL    HW220980   5.264   4.036   1.796 -1.4473  1.8070 -1.7146
 5302SOL    HW320981   5.245   3.954   1.670 -0.7679 -0.3380 -0.4894
 5302SOL    MW420982   5.220   3.976   1.750 -0.0077  0.0601  0.5180
 5303SOL     OW20983   1.991   5.292   1.760  0.3917  0.0010 -0.4757
 5303SOL    HW220984   1.905   5.274   1.796  0.7720 -0.5487  0.1670
 5303SOL    HW320985   2.032   5.352   1.823  0.5099  0.2067 -0.7426
 5303SOL    MW420986   1.985   5.298   1.773  0.2704  0.1219  0.5436
 5304SOL     OW20987   5.322   0.559   4.067 -0.0586  0.3989  0.0853
 5304SOL    HW220988   5.391   0.612   4.027  0.5694 -1.0221 -0.7561
 5304SOL    HW320989   5.243   0.614   4.061  0.1168  0.4792 -2.6520
 5304SOL    MW420990   5.320   0.574   4.061 -0.2229  0.3767 -0.9119
 5305SOL     OW20991   1.054   4.478   3.806  0.6707  0.0225 -0.2715
 5305SOL    HW220992   1.081   4.518   3.723 -0.0878  0.1097 -0.4854
 5305SOL    HW320993   0.978   4.424   3.783  0.3517  0.1761  0.3901
 5305SOL    MW420994   1.048   4.476   3.792  0.1291  0.1605 -0.4102
 5306SOL     OW20995   5.166   3.808   3.275 -0.1529 -0.1902 -0.0126
 5306SOL    HW220996   5.254   3.783   3.301 -0.0705  1.8389  1.8715
 5306SOL    HW320997   5.125   3.842   3.354 -1.7367  1.3630 -1.3974
 5306SOL    MW420998   5.172   3.809   3.289 -0.1937 -0.0183 -0.4459
 5307SOL     OW20999   3.480   3.692   1.563  0.1421  0.7498  0.1513
 5307SOL    HW221000   3.455   3.653   1.480  0.6641 -0.6478  0.6295
 5307SOL    HW321001   3.399   3.731   1.596 -0.4610 -0.1469 -0.2267
 5307SOL    MW421002   3.466   3.692   1.556  0.3479  0.0175  0.3310
 5308SOL     OW21003   2.008   5.776   1.245  0.0803 -0.2739 -0.1633
 5308SOL    HW221004   2.086   5.806   1.199  0.8223  0.3284  1.4074
 5308SOL    HW321005   1.937   5.831   1.212  0.4212 -0.4610 -1.2147
 5308SOL    MW421006   2.009   5.787   1.235  0.8849  0.8917 -0.0295
 5309SOL     OW21007   0.686   0.922   4.973 -0.2553  0.2849  0.4227
 5309SOL    HW221008   0.725   0.857   4.914  1.1626  1.2769  0.2078
 5309SOL    HW321009   0.673   0.999   4.917 -1.1539  0.4690  0.8670
 5309SOL    MW421010   0.689   0.923   4.958 -0.5450  0.2369  0.0108
 5310SOL     OW21011   3.751   5.594   0.131 -0.1429 -0.3476  0.4903
 5310SOL    HW221012   3.778   5.534   0.062  1.0827 -1.1570  1.6200
 5310SOL    HW321013   3.766   5.681   0.094 -0.4646 -0.7458 -0.6072
 5310SOL    MW421014   3.757   5.598   0.117 -0.3401  0.0357 -0.0374
 5311SOL     OW21015   5.568   2.595   3.166  0.0415  0.4200  0.4865
 5311SOL    HW221016   5.482   2.636   3.176 -0.3119 -0.1442 -0.1300
 5311SOL    HW321017   5.551   2.518   3.111  0.5901 -0.8493  2.0348
 5311SOL    MW421018   5.554   2.591   3.160 -0.0251 -0.2042 -0.3896
 5312SOL     OW21019   0.346   2.364   6.226 -0.5114  0.7227 -0.0751
 5312SOL    HW221020   0.362   2.358   6.132  0.2593  0.7272  0.0444
 5312SOL    HW321021   0.428   2.398   6.262 -1.1488  1.6776  0.4909
 5312SOL    MW421022   0.359   2.367   6.219  0.3821 -0.1825  0.0495
 5313SOL     OW21023   1.313   0.327   4.621 -0.2588 -0.5072  0.2443
 5313SOL    HW221024   1.277   0.414   4.606  1.1207 -0.0523 -0.4989
 5313SOL    HW321025   1.255   0.269   4.572 -1.3451 -0.0783  0.9541
 5313SOL    MW421026   1.301   0.331   4.613  0.5420  0.2710  0.7913
 5314SOL     OW21027   0.742   5.941   1.090 -0.4674  0.0284  0.3306
 5314SOL    HW221028   0.773   6.031   1.102  1.1362 -0.2759 -1.2306
 5314SOL    HW321029   0.715   5.937   0.999 -3.4349 -0.2963  1.1119
 5314SOL    MW421030   0.742   5.953   1.080  1.0241 -0.4802 -0.1150
 5315SOL     OW21031   5.949   1.316   5.845  0.5298 -0.2252  0.4607
 5315SOL    HW221032   5.982   1.272   5.923 -0.2265 -0.1364  0.8442
 5315SOL    HW321033   5.895   1.251   5.801 -0.0679  0.1113  0.6852
 5315SOL    MW421034   5.946   1.302   5.849  0.0068  0.7966  0.1465
 5316SOL     OW21035   0.088   2.883   2.842 -0.1408  0.0970 -0.4111
 5316SOL    HW221036  -0.005   2.888   2.865 -0.3770 -1.3231 -0.9271
 5316SOL    HW321037   0.130   2.948   2.898 -1.2122 -0.5323  1.1973
 5316SOL    MW421038   0.081   2.892   2.853  0.1543 -0.4448  0.0984
 5317SOL     OW21039   6.314   2.298   6.407  0.0581 -0.1488  0.1989
 5317SOL    HW221040   6.244   2.253   6.358 -0.1642  0.2352  0.1619
 5317SOL    HW321041   6.384   2.309   6.343 -0.7472  1.5910 -0.4574
 5317SOL    MW421042   6.314   2.293   6.392  0.2972 -0.4981 -0.6508
 5318SOL     OW21043   0.081   2.621   4.352 -0.2179  0.6206  1.1833
 5318SOL    HW221044   0.152   2.609   4.415 -1.6892 -0.6236  2.7200
 5318SOL    HW321045   0.018   2.553   4.374 -1.2910  0.8214 -1.0028
 5318SOL    MW421046   0.082   2.611   4.363 -0.1733  0.3577 -0.2077
 5319SOL     OW21047   3.105   1.505   6.353  0.1816 -0.2792 -0.3729
 5319SOL    HW221048   3.087   1.490   6.260 -0.6097 -0.4961 -0.1979
 5319SOL    HW321049   3.199   1.494   6.362  0.3866  0.5571 -1.2981
 5319SOL    MW421050   3.115   1.502   6.342 -0.1004  0.0800 -0.2780
 5320SOL     OW21051   0.940   5.912   0.252  0.0128 -0.5377 -0.1437
 5320SOL    HW221052   0.867   5.954   0.207  0.4671  0.6524  0.2027
 5320SOL    HW321053   0.993   5.873   0.182  0.4704  0.9007 -0.6254
 5320SOL    MW421054   0.937   5.912   0.237  0.1274 -0.3158  0.2672
 5321SOL     OW21055   2.626   0.457   2.370  0.7057  0.6967  0.3246
 5321SOL    HW221056   2.690   0.437   2.302  1.6333 -0.6510  1.5286
 5321SOL    HW321057   2.542   0.430   2.333  1.0791  0.7464 -0.5758
 5321SOL    MW421058   2.623   0.451   2.356 -0.3336  0.1109 -0.1364
 5322SOL     OW21059   1.845   1.047   2.283 -0.3889  0.1415 -0.1414
 5322SOL    HW221060   1.927   1.041   2.235 -0.6352  1.8452 -0.8464
 5322SOL    HW321061   1.859   1.115   2.348 -0.3958 -1.4389  1.5965
 5322SOL    MW421062   1.857   1.055   2.285 -0.2221  0.7783 -0.8256
 5323SOL     OW21063   6.047   3.051   1.164 -0.4426  0.0009 -0.0244
 5323SOL    HW221064   5.984   3.040   1.234  1.2178 -0.9225  1.3872
 5323SOL    HW321065   6.109   3.117   1.197  0.0406 -0.0137 -0.8553
 5323SOL    MW421066   6.047   3.058   1.177  0.3903 -1.0873 -0.5313
 5324SOL     OW21067   0.999   4.453   0.509  0.5206  0.0570 -0.2217
 5324SOL    HW221068   1.052   4.396   0.564  0.2829  0.9798  0.9953
 5324SOL    HW321069   1.028   4.433   0.420  2.4810  0.1108  0.3618
 5324SOL    MW421070   1.010   4.443   0.504  0.2877 -0.1840  1.0720
 5325SOL     OW21071   2.821   2.189   1.623 -0.2859  0.5841  0.7140
 5325SOL    HW221072   2.808   2.269   1.572 -1.1092  0.2758  0.4293
 5325SOL    HW321073   2.854   2.220   1.707 -0.5796  1.2222  0.6049
 5325SOL    MW421074   2.824   2.204   1.627 -0.4020 -0.2363 -0.4019
 5326SOL     OW21075   1.450   2.576   1.674  0.2630 -0.4634 -0.3951
 5326SOL    HW221076   1.410   2.661   1.690 -0.9609 -1.0660 -0.0867
 5326SOL    HW321077   1.428   2.557   1.583  0.3034 -0.5612 -0.3844
 5326SOL    MW421078   1.442   2.584   1.664 -0.5459  0.1657  0.0708
 5327SOL     OW21079   0.916   0.327   4.070  0.3475  0.3126 -0.2647
 5327SOL    HW221080   0.823   0.342   4.084  0.3083  0.7859 -1.0117
 5327SOL    HW321081   0.921   0.272   3.993  0.6787  0.0583 -0.0666
 5327SOL    MW421082   0.905   0.322   4.062  0.1661 -0.4803 -0.4736
 5328SOL     OW21083   5.881   4.340   1.437  0.1400 -0.3448  0.0323
 5328SOL    HW221084   5.943   4.267   1.443  0.9564  0.2492 -0.8177
 5328SOL    HW321085   5.842   4.345   1.524 -0.7920 -2.5082 -0.1996
 5328SOL    MW421086   5.884   4.331   1.450  0.3003 -0.0124  0.1289
 5329SOL     OW21087   0.635   5.292   6.370 -0.0195  0.4337  0.1923
 5329SOL    HW221088   0.667   5.352   6.302  0.3710 -2.6263 -2.5257
 5329SOL    HW321089   0.559   5.337   6.407 -0.0577  2.4165 -2.0143
 5329SOL    MW421090   0.629   5.306   6.366  0.6390 -0.1838 -0.0371
 5330SOL     OW21091   4.223   1.395   5.085  0.0251  0.6493 -0.2841
 5330SOL    HW221092   4.147   1.407   5.028  0.7759  1.1736 -1.2040
 5330SOL    HW321093   4.293   1.365   5.027  0.2260 -0.9918  0.7533
 5330SOL    MW421094   4.222   1.393   5.070 -0.4955  0.1973 -0.0301
 5331SOL     OW21095   0.528   2.858   2.781 -0.4773 -0.0197  0.3977
 5331SOL    HW221096   0.488   2.807   2.851  1.0684 -2.2376 -0.1965
 5331SOL    HW321097   0.606   2.807   2.757  0.5574  2.0993 -1.0504
 5331SOL    MW421098   0.533   2.844   2.787 -0.2010 -0.0613  0.2088
 5332SOL     OW21099   3.338   4.978   4.597  0.3009  0.3226 -0.2806
 5332SOL    HW221100   3.372   4.897   4.635  0.0758  0.1634 -0.4118
 5332SOL    HW321101   3.322   5.035   4.672  1.9530  0.8465 -0.2902
 5332SOL    MW421102   3.340   4.974   4.612  0.2210  0.5404 -0.1651
 5333SOL     OW21103   2.411   0.191   1.265 -0.6119 -0.3794  0.1286
 5333SOL    HW221104   2.446   0.278   1.285 -0.4060  0.5502 -3.5347
 5333SOL    HW321105   2.475   0.130   1.301  0.9613  1.0854 -0.0835
 5333SOL    MW421106   2.424   0.195   1.272 -0.3273  0.3529  0.1069
 5334SOL     OW21107   4.940   2.054   5.775  0.3041  0.4904 -0.3777
 5334SOL    HW221108   4.959   1.964   5.803 -0.0277  0.3121 -0.7079
 5334SOL    HW321109   4.937   2.104   5.856  0.1116  0.1257 -0.1552
 5334SOL    MW421110   4.942   2.049   5.789  0.5588 -0.7175 -0.5611
 5335SOL     OW21111   5.058   3.985   2.553 -0.5814 -0.0907 -0.0355
 5335SOL    HW221112   4.971   4.019   2.533 -1.1146 -1.1937  0.3490
 5335SOL    HW321113   5.056   3.965   2.646 -0.2489 -1.0560 -0.2272
 5335SOL    MW421114   5.046   3.987   2.562 -0.0602  0.1651  0.1759
 5336SOL     OW21115   4.584   1.887   0.754  0.3523 -0.0295 -0.5216
 5336SOL    HW221116   4.629   1.966   0.784 -0.7576 -0.1731  1.7233
 5336SOL    HW321117   4.647   1.816   0.768 -0.1056 -0.0797  1.5474
 5336SOL    MW421118   4.599   1.888   0.760 -0.2491 -0.2329  0.3828
 5337SOL     OW21119   4.696   4.452   1.412  0.1375  0.4316  0.1508
 5337SOL    HW221120   4.699   4.445   1.507 -0.5094  1.0454  0.2269
 5337SOL    HW321121   4.782   4.488   1.388  0.3393  0.1759  0.4891
 5337SOL    MW421122   4.708   4.456   1.421 -0.3961 -0.1400  0.4825
 5338SOL     OW21123   3.065   0.819   6.216 -0.4389 -0.6585  0.1117
 5338SOL    HW221124   2.981   0.847   6.180 -0.0713  0.9927  0.4591
 5338SOL    HW321125   3.064   0.851   6.306  1.2832  1.0309 -0.4148
 5338SOL    MW421126   3.054   0.827   6.223 -0.1794 -0.0445 -0.1720
 5339SOL     OW21127   3.294   1.698   4.091  0.3130  0.3610 -1.1100
 5339SOL    HW221128   3.387   1.690   4.108 -0.0163  1.3013  1.5454
 5339SOL    HW321129   3.287   1.701   3.995  2.8060 -1.3615 -1.4374
 5339SOL    MW421130   3.305   1.698   4.080 -0.5767 -0.1602 -0.5768
 5340SOL     OW21131   4.038   1.392   1.159 -0.2090 -0.0492  0.0615
 5340SOL    HW221132   3.987   1.469   1.182  1.8428  1.0280  1.2867
 5340SOL    HW321133   4.100   1.423   1.092 -0.8234 -1.2059 -1.0844
 5340SOL    MW421134   4.040   1.406   1.153 -0.4631  0.3374  0.5423
 5341SOL     OW21135   5.189   3.671   2.832  0.8943  0.0416  0.9690
 5341SOL    HW221136   5.154   3.757   2.855  0.2340 -0.1138  0.5907
 5341SOL    HW321137   5.242   3.687   2.754 -0.7020 -0.1523 -0.2060
 5341SOL    MW421138   5.191   3.685   2.824  0.1189 -0.1293 -0.4365
 5342SOL     OW21139   6.034   1.890   2.216  0.7905  0.5498 -0.3916
 5342SOL    HW221140   6.042   1.838   2.136 -2.7706  1.1151 -1.2835
 5342SOL    HW321141   6.024   1.826   2.286  0.3970  0.0327 -0.9161
 5342SOL    MW421142   6.034   1.875   2.215 -0.3984 -0.1008  0.1170
 5343SOL     OW21143   3.508   6.071   1.274 -0.2790 -0.5453 -0.0980
 5343SOL    HW221144   3.470   6.081   1.187  2.1004  1.1665 -1.0516
 5343SOL    HW321145   3.586   6.126   1.272  0.0658 -0.7597  3.0135
 5343SOL    MW421146   3.513   6.080   1.262  0.4863 -0.1398 -0.3283
 5344SOL     OW21147   1.668   4.091   4.657 -0.3447 -0.2792 -0.0234
 5344SOL    HW221148   1.586   4.138   4.644 -0.5341 -0.9198 -1.3848
 5344SOL    HW321149   1.665   4.062   4.748 -1.5690 -0.1756 -0.0095
 5344SOL    MW421150   1.657   4.093   4.667 -0.3040  0.4036  0.2248
 5345SOL     OW21151   3.863   5.399   5.466  0.0859 -0.1406  0.0004
 5345SOL    HW221152   3.953   5.380   5.439  0.6601  1.5349  0.6190
 5345SOL    HW321153   3.867   5.409   5.561 -1.0938 -1.6485  0.2484
 5345SOL    MW421154   3.875   5.398   5.475  0.5123 -0.3591 -0.6789
 5346SOL     OW21155   0.567   0.504   0.545  0.4659 -0.0636  0.3041
 5346SOL    HW221156   0.499   0.464   0.491  0.7417 -0.8910  0.5481
 5346SOL    HW321157   0.626   0.432   0.566 -0.8672 -0.3611  3.6617
 5346SOL    MW421158   0.566   0.489   0.540  0.7610  0.5899 -0.4058
 5347SOL     OW21159   2.563   6.131   5.342  0.3845  0.3099  0.3370
 5347SOL    HW221160   2.498   6.182   5.389 -0.2096 -1.1154  1.1171
 5347SOL    HW321161   2.543   6.146   5.249 -1.2843 -0.3559  0.5560
 5347SOL    MW421162   2.552   6.140   5.336 -0.3571  0.4584  0.2622
 5348SOL     OW21163   0.322   6.063   3.722  0.5423  0.5880 -0.0260
 5348SOL    HW221164   0.383   6.135   3.708  1.1828  0.4683  1.9321
 5348SOL    HW321165   0.282   6.080   3.807  0.7465 -1.3668  0.5190
 5348SOL    MW421166   0.325   6.075   3.731  0.1267  0.4103 -0.8162
 5349SOL     OW21167   5.304   3.173   5.367  0.3478 -0.2996  0.5049
 5349SOL    HW221168   5.309   3.244   5.430  1.4553 -0.0577  0.1803
 5349SOL    HW321169   5.269   3.213   5.288  1.6391  0.0725  0.1010
 5349SOL    MW421170   5.300   3.187   5.365 -0.3420  0.0560 -0.1678
 5350SOL     OW21171   2.791   1.602   5.815 -0.0969 -0.1533  0.2346
 5350SOL    HW221172   2.721   1.607   5.749  0.0617  2.6166  0.1465
 5350SOL    HW321173   2.763   1.663   5.884  1.3588 -0.4060  1.0883
 5350SOL    MW421174   2.778   1.611   5.815 -0.1844  1.0710 -0.1485
 5351SOL     OW21175   5.297   0.462   3.307 -0.3956 -0.5171  0.0020
 5351SOL    HW221176   5.220   0.506   3.271  0.5807  0.9423 -0.3813
 5351SOL    HW321177   5.270   0.371   3.316 -1.4288 -0.5100 -2.2995
 5351SOL    MW421178   5.284   0.456   3.303 -0.1235 -0.1233 -0.7992
 5352SOL     OW21179   0.218   4.232   0.071 -0.4285  0.3557 -0.6213
 5352SOL    HW221180   0.280   4.241  -0.002  0.0552  0.5714 -0.1921
 5352SOL    HW321181   0.239   4.147   0.109 -0.1938  0.5570 -0.2952
 5352SOL    MW421182   0.229   4.222   0.067 -0.0539 -0.5219 -0.0878
 5353SOL     OW21183   0.858   6.429   3.410  0.2992  0.0935  0.0408
 5353SOL    HW221184   0.937   6.455   3.458  0.5797  0.3799 -0.5662
 5353SOL    HW321185   0.879   6.445   3.318  0.2470 -1.7044 -0.3056
 5353SOL    MW421186   0.871   6.435   3.404  0.6248  0.1388 -0.0088
 5354SOL     OW21187   6.130   1.254   1.150 -0.4685 -0.2785 -0.0070
 5354SOL    HW221188   6.137   1.169   1.107 -0.1103 -0.4596  0.3935
 5354SOL    HW321189   6.037   1.268   1.162 -0.5240 -0.6634  0.0165
 5354SOL    MW421190   6.119   1.245   1.146 -0.1815 -0.0781 -0.4445
 5355SOL     OW21191   5.623   2.620   4.203 -0.5529 -0.0105  0.1467
 5355SOL    HW221192   5.696   2.657   4.154  0.7185 -1.1102  1.1475
 5355SOL    HW321193   5.663   2.556   4.262 -2.3401 -0.7640  0.6177
 5355SOL    MW421194   5.638   2.616   4.204 -0.0910  0.9158  0.1696
 5356SOL     OW21195   2.381   0.434   5.987  0.6370 -0.2815  0.1864
 5356SOL    HW221196   2.403   0.430   6.080  0.7799 -1.4370  0.1241
 5356SOL    HW321197   2.380   0.342   5.960  0.6738  0.0524 -0.9705
 5356SOL    MW421198   2.384   0.421   5.996 -0.1129 -0.1656  0.0738
 5357SOL     OW21199   1.607   3.043   5.430 -0.1559  0.0433 -0.4081
 5357SOL    HW221200   1.617   2.976   5.364  0.7909  0.2562 -0.4968
 5357SOL    HW321201   1.667   3.113   5.403  0.9661 -0.2626  1.1563
 5357SOL    MW421202   1.616   3.044   5.418  0.4364 -0.0690 -0.5865
 5358SOL     OW21203   2.623   1.585   5.239 -0.2630  0.1263 -0.3253
 5358SOL    HW221204   2.650   1.676   5.235 -1.1380  0.3744 -0.6944
 5358SOL    HW321205   2.541   1.585   5.289 -1.3633 -0.1712 -2.0402
 5358SOL    MW421206   2.616   1.597   5.245  0.3631  0.2976 -0.6966
 5359SOL     OW21207   6.014   0.291   4.447  0.6562 -0.3203  0.3720
 5359SOL    HW221208   5.995   0.254   4.361  2.3222  0.6904 -0.4817
 5359SOL    HW321209   5.949   0.252   4.505 -2.5259  1.2783 -1.8686
 5359SOL    MW421210   6.003   0.281   4.444  0.7069  0.3532  0.0893
 5360SOL     OW21211   4.161   2.190   5.400  0.1112  0.0788  0.0335
 5360SOL    HW221212   4.238   2.141   5.371  1.0597  0.6736  1.4260
 5360SOL    HW321213   4.116   2.130   5.459  1.0516  0.6926  1.4172
 5360SOL    MW421214   4.165   2.175   5.404 -0.1508  0.4894  0.8219
 5361SOL     OW21215   4.343   5.863   5.694 -0.0701 -0.8954  0.1699
 5361SOL    HW221216   4.316   5.783   5.649  0.9496 -1.2830  0.2122
 5361SOL    HW321217   4.269   5.886   5.749 -0.2274 -2.0442  0.4638
 5361SOL    MW421218   4.330   5.855   5.695  0.0463 -0.1917 -0.1366
 5362SOL     OW21219   3.045   4.598   1.961 -0.2339 -0.5080 -0.4331
 5362SOL    HW221220   3.069   4.639   1.878 -2.0745  2.6501  0.4052
 5362SOL    HW321221   2.953   4.573   1.950 -0.2175 -0.9296  0.3407
 5362SOL    MW421222   3.036   4.600   1.949 -0.5813 -0.5152  0.3142
 5363SOL     OW21223   1.740   0.292   5.799  0.1513 -0.0363 -0.2079
 5363SOL    HW221224   1.733   0.267   5.707 -1.2893  2.2302 -0.7711
 5363SOL    HW321225   1.699   0.220   5.847  0.0515 -0.7873 -1.3917
 5363SOL    MW421226   1.734   0.279   5.793  0.4185  0.2760  0.5657
 5364SOL     OW21227   1.612   0.529   1.071 -0.1381  0.2619 -0.1478
 5364SOL    HW221228   1.553   0.557   1.001  1.1750  2.7679 -0.3793
 5364SOL    HW321229   1.642   0.611   1.111  1.2055 -1.0125  1.6145
 5364SOL    MW421230   1.609   0.543   1.067  0.0374  0.5257 -0.2661
 5365SOL     OW21231   2.428   2.587   6.099  0.6059 -0.2437 -0.5575
 5365SOL    HW221232   2.512   2.614   6.062  0.0896  0.2820 -1.3934
 5365SOL    HW321233   2.365   2.651   6.065  0.0012 -0.0656  0.8161
 5365SOL    MW421234   2.431   2.599   6.089  0.4860  0.0875  0.0860
 5366SOL     OW21235   6.339   4.337   1.550  0.7012 -0.2970  0.2610
 5366SOL    HW221236   6.416   4.368   1.598 -0.1795  0.8532  1.0051
 5366SOL    HW321237   6.264   4.369   1.601 -0.3006 -2.4499  0.2434
 5366SOL    MW421238   6.339   4.345   1.563 -0.3077 -0.0473  0.0210
 5367SOL     OW21239   4.746   6.061   1.867  0.6104  0.0547  0.1416
 5367SOL    HW221240   4.744   5.965   1.871 -0.2152  0.0963  1.9148
 5367SOL    HW321241   4.837   6.084   1.885  0.6963 -0.3885  0.2990
 5367SOL    MW421242   4.758   6.051   1.870 -0.4454 -0.0179 -0.6369
 5368SOL     OW21243   4.090   3.260   1.919  0.5121  0.0175 -0.0328
 5368SOL    HW221244   4.025   3.202   1.879  0.8073  0.5512 -1.3512
 5368SOL    HW321245   4.114   3.321   1.849  1.5780  0.5523  0.7664
 5368SOL    MW421246   4.085   3.260   1.904 -0.0481  0.0463 -0.3589
 5369SOL     OW21247   0.727   1.621   3.108 -0.1122  0.6964  0.4981
 5369SOL    HW221248   0.660   1.569   3.064 -0.1865  1.1363  0.0885
 5369SOL    HW321249   0.680   1.693   3.149  0.1029  1.0180  0.1926
 5369SOL    MW421250   0.712   1.623   3.108  0.2739 -0.1800 -0.6014
 5370SOL     OW21251   1.280   5.796   3.625 -0.0183  0.1715  0.4336
 5370SOL    HW221252   1.324   5.878   3.602 -0.2287  0.0421 -0.4638
 5370SOL    HW321253   1.308   5.734   3.558 -1.6376  0.1214 -0.2413
 5370SOL    MW421254   1.289   5.799   3.613  0.3284  0.4836 -0.0622
 5371SOL     OW21255   2.061   0.223   6.218  0.3039 -0.1273  0.2169
 5371SOL    HW221256   2.119   0.171   6.274  0.7995 -0.0942 -0.2489
 5371SOL    HW321257   2.115   0.243   6.141 -1.0022 -2.0399 -1.2931
 5371SOL    MW421258   2.076   0.219   6.215  0.0080  0.4553  1.0107
 5372SOL     OW21259   0.163   6.002   5.496 -0.0939  0.1894 -0.2155
 5372SOL    HW221260   0.126   5.994   5.584 -0.1665  1.3717 -0.1176
 5372SOL    HW321261   0.123   5.931   5.446 -0.3197 -0.2787  0.6131
 5372SOL    MW421262   0.153   5.992   5.501 -0.6165  0.2785 -0.6571
 5373SOL     OW21263   1.302   2.485   1.172 -0.2469 -0.3777 -0.3623
 5373SOL    HW221264   1.222   2.520   1.131 -0.6054 -0.7326  0.0284
 5373SOL    HW321265   1.373   2.526   1.123 -0.6599 -1.1252 -1.6417
 5373SOL    MW421266   1.301   2.495   1.160 -0.1124 -0.3088 -0.0866
 5374SOL     OW21267   1.214   1.795   0.243 -0.3398  0.2313  0.0973
 5374SOL    HW221268   1.257   1.810   0.327 -0.3486  0.3827  0.0752
 5374SOL    HW321269   1.281   1.811   0.178 -0.0424 -0.9093  0.1013
 5374SOL    MW421270   1.228   1.799   0.246 -0.1528  0.3404 -0.3355
 5375SOL     OW21271   3.403   1.005   6.289 -0.1678  0.6045  0.6524
 5375SOL    HW221272   3.328   0.978   6.341 -0.9212  0.6788 -0.3717
 5375SOL    HW321273   3.457   1.056   6.349 -1.0377  0.7172  1.3478
 5375SOL    MW421274   3.400   1.009   6.304  0.1767 -0.5939  0.1733
 5376SOL     OW21275   5.990   6.439   5.924  0.5147  0.6697 -0.1553
 5376SOL    HW221276   6.003   6.455   5.831 -0.6715  2.5095 -0.0443
 5376SOL    HW321277   5.896   6.424   5.934  0.6021  0.6691  0.7752
 5376SOL    MW421278   5.980   6.439   5.913 -0.2819  0.3081  0.0485
 5377SOL     OW21279   6.093   3.816   5.673 -0.0929 -0.2110 -0.0866
 5377SOL    HW221280   6.099   3.910   5.659 -0.2544 -0.4025 -1.5572
 5377SOL    HW321281   6.091   3.778   5.585  0.2983 -1.6111  0.4787
 5377SOL    MW421282   6.093   3.823   5.660  0.1222  0.6888  0.0772
 5378SOL     OW21283   0.442   2.964   2.204  0.1259  0.5534 -0.2376
 5378SOL    HW221284   0.368   3.024   2.193 -0.6155 -0.2946 -0.0121
 5378SOL    HW321285   0.497   3.006   2.271 -2.1284 -0.5627  2.5437
 5378SOL    MW421286   0.440   2.978   2.211 -0.0303 -0.2779  0.7977
 5379SOL     OW21287   1.002   2.362   5.159  0.1851  0.2666 -0.0485
 5379SOL    HW221288   1.045   2.293   5.208 -0.7084  1.1961  2.1740
 5379SOL    HW321289   1.027   2.443   5.203 -0.7983  1.1491 -1.0316
 5379SOL    MW421290   1.011   2.364   5.171  0.0368 -0.0347 -0.0736
 5380SOL     OW21291   3.387   0.910   3.120 -0.0312  0.1250 -0.6129
 5380SOL    HW221292   3.353   0.855   3.190  2.1773  1.2624  1.4790
 5380SOL    HW321293   3.439   0.851   3.066 -0.7569 -0.5307 -0.6129
 5380SOL    MW421294   3.389   0.895   3.122 -0.2519 -0.4416  0.1917
 5381SOL     OW21295   5.365   3.892   4.955 -0.4070  0.0317  0.2878
 5381SOL    HW221296   5.289   3.852   4.998 -0.7525  1.0178  0.6128
 5381SOL    HW321297   5.366   3.982   4.987 -0.3168  0.6217 -1.3175
 5381SOL    MW421298   5.355   3.899   4.965  0.1554  0.3503 -0.0236
 5382SOL     OW21299   6.071   5.697   3.778 -0.2764  0.1174 -0.0086
 5382SOL    HW221300   6.022   5.653   3.709 -2.1544  0.8485  0.7849
 5382SOL    HW321301   6.093   5.783   3.742  1.2541 -0.5033 -0.6685
 5382SOL    MW421302   6.068   5.703   3.765 -0.1565  0.2114 -0.1899
 5383SOL     OW21303   2.322   3.542   0.899 -0.2884 -0.3555  0.0673
 5383SOL    HW221304   2.360   3.456   0.920 -0.3191  0.1830  2.7045
 5383SOL    HW321305   2.228   3.527   0.899 -0.3018 -0.3183  0.7219
 5383SOL    MW421306   2.315   3.528   0.902 -0.1486  0.5572 -0.6019
 5384SOL     OW21307   5.815   6.310   5.505 -0.2618  0.2258  0.3706
 5384SOL    HW221308   5.851   6.225   5.531  0.0189  0.5465  1.0479
 5384SOL    HW321309   5.724   6.306   5.534 -0.8423 -0.6078 -1.3973
 5384SOL    MW421310   5.807   6.298   5.512  0.3614  0.0793 -0.7694
 5385SOL     OW21311   2.834   3.686   4.666  0.0162  0.2417  0.2935
 5385SOL    HW221312   2.838   3.736   4.747  0.9350 -1.5647  1.4145
 5385SOL    HW321313   2.749   3.709   4.628 -0.4756  1.0317  1.8009
 5385SOL    MW421314   2.823   3.696   4.671 -0.7000  0.3081 -0.1554
 5386SOL     OW21315   5.844   6.239   6.293  0.3054 -0.7134 -0.0828
 5386SOL    HW221316   5.780   6.207   6.358 -0.7813  0.5099 -0.5039
 5386SOL    HW321317   5.810   6.206   6.210  0.3820 -0.2996 -0.2766
 5386SOL    MW421318   5.831   6.230   6.291  0.9918 -0.0074  0.1868
 5387SOL     OW21319   1.941   4.283   2.564 -0.5627  0.0193 -0.1879
 5387SOL    HW221320   1.981   4.347   2.622 -1.2454 -0.0004  0.3170
 5387SOL    HW321321   1.914   4.212   2.622  0.3559 -0.8279 -0.7563
 5387SOL    MW421322   1.943   4.282   2.579  0.1345  0.3996  0.3295
 5388SOL     OW21323   4.703   2.964   5.964  0.4991 -0.0325  0.4478
 5388SOL    HW221324   4.664   3.028   5.904 -0.7190 -0.2953  0.9272
 5388SOL    HW321325   4.638   2.894   5.970  0.5501  0.0270  2.1327
 5388SOL    MW421326   4.689   2.963   5.957  0.1555  0.0818 -0.4212
 5389SOL     OW21327   3.728   0.866   0.906 -0.0953 -0.7392 -0.5836
 5389SOL    HW221328   3.724   0.894   0.815  0.9034  0.3135 -0.3248
 5389SOL    HW321329   3.743   0.771   0.902  0.8176 -0.5632 -1.5105
 5389SOL    MW421330   3.729   0.857   0.894  0.0683  0.1888  0.4009
 5390SOL     OW21331   1.432   1.411   5.402 -0.3735  0.5073 -0.1471
 5390SOL    HW221332   1.486   1.409   5.323 -1.6962 -0.9078 -1.0675
 5390SOL    HW321333   1.365   1.344   5.388 -0.3705 -0.1475  2.3911
 5390SOL    MW421334   1.430   1.402   5.390  0.1469 -0.3041  0.1312
 5391SOL     OW21335   4.666   6.282   6.206  0.2047  0.2502 -0.6526
 5391SOL    HW221336   4.613   6.350   6.248  0.5590  0.3996 -0.4418
 5391SOL    HW321337   4.697   6.323   6.125  2.7891  1.4159  0.7960
 5391SOL    MW421338   4.663   6.297   6.201  0.1582 -0.0977  0.1237
 5392SOL     OW21339   0.774   1.254   1.344 -0.5208  0.0132  0.2960
 5392SOL    HW221340   0.854   1.202   1.353  0.4217  1.6334  1.9368
 5392SOL    HW321341   0.800   1.329   1.290 -1.7672 -0.9435 -1.7271
 5392SOL    MW421342   0.788   1.257   1.338  0.4487 -0.1083  0.0273
 5393SOL     OW21343   5.633   3.455   3.393  0.1093 -0.2878 -0.6783
 5393SOL    HW221344   5.658   3.364   3.409  1.4395 -0.2903 -2.4590
 5393SOL    HW321345   5.694   3.485   3.325 -1.3056  1.4478 -1.2634
 5393SOL    MW421346   5.645   3.447   3.386 -0.2613 -0.1534 -0.4812
 5394SOL     OW21347   4.990   0.130   5.935  0.1017 -0.0214 -0.2853
 5394SOL    HW221348   5.030   0.214   5.910  0.3828 -0.4194 -1.2207
 5394SOL    HW321349   4.900   0.136   5.903  0.3258 -0.3452 -0.9997
 5394SOL    MW421350   4.984   0.142   5.927  0.4528  0.4493 -0.1954
 5395SOL     OW21351   1.452   1.346   6.248  0.5768 -0.4397  0.5955
 5395SOL    HW221352   1.395   1.359   6.172  1.1052 -0.8040  0.1228
 5395SOL    HW321353   1.395   1.306   6.314 -0.0123  0.3379  0.5792
 5395SOL    MW421354   1.437   1.342   6.246  0.5739  0.3491  0.1088
 5396SOL     OW21355   2.351   3.839   4.677 -0.9261  0.0428 -0.4101
 5396SOL    HW221356   2.301   3.835   4.595  0.4062  0.5609 -1.2866
 5396SOL    HW321357   2.330   3.925   4.714 -0.7351  0.2353 -0.7446
 5396SOL    MW421358   2.341   3.850   4.671 -0.1678  0.5036  0.2391
 5397SOL     OW21359   4.088   4.311   0.105 -0.9805 -0.2954  0.3435
 5397SOL    HW221360   4.064   4.242   0.167  0.9238 -2.0475 -0.7732
 5397SOL    HW321361   4.180   4.294   0.083  0.1926  3.6450  1.3352
 5397SOL    MW421362   4.097   4.300   0.110  0.1685  0.3673 -0.0070
 5398SOL     OW21363   3.188   2.341   5.109 -0.0756 -0.0939 -0.4380
 5398SOL    HW221364   3.164   2.284   5.037  0.2601 -1.3676  0.4240
 5398SOL    HW321365   3.128   2.415   5.102 -1.3928 -1.1595 -0.8319
 5398SOL    MW421366   3.177   2.343   5.099  0.0399 -0.2258  0.2706
 5399SOL     OW21367   6.083   6.063   1.148 -0.4686  0.2145 -0.5538
 5399SOL    HW221368   6.160   6.065   1.092 -1.3185  0.0883 -1.7595
 5399SOL    HW321369   6.117   6.044   1.235  0.9905  1.4740 -0.8209
 5399SOL    MW421370   6.097   6.061   1.152 -0.0758  0.0198  0.0366
 5400SOL     OW21371   0.159   2.187   3.764 -0.7363  0.4331 -0.1921
 5400SOL    HW221372   0.251   2.212   3.765 -0.7866  0.6139  0.1275
 5400SOL    HW321373   0.112   2.267   3.787 -1.0342  0.5767 -1.2378
 5400SOL    MW421374   0.165   2.201   3.767 -0.7137  0.0368  0.3446
 5401SOL     OW21375   4.415   1.099   1.580 -0.0913  0.4532 -0.0131
 5401SOL    HW221376   4.379   1.186   1.565 -0.5012  0.1747 -0.6891
 5401SOL    HW321377   4.504   1.115   1.611 -1.2117  1.1840  3.1218
 5401SOL    MW421378   4.422   1.113   1.582 -0.1881 -0.2403  0.3221
 5402SOL     OW21379   0.403   3.247   3.834  0.0997  0.2584 -0.0638
 5402SOL    HW221380   0.382   3.161   3.796  1.7004 -0.5134  0.7082
 5402SOL    HW321381   0.475   3.229   3.895  0.2513  2.1114  0.3491
 5402SOL    MW421382   0.410   3.233   3.837 -0.1604  0.0909  0.5487
 5403SOL     OW21383   1.532   1.064   5.734 -0.0114  0.3300  0.8631
 5403SOL    HW221384   1.624   1.078   5.712 -0.0516  0.1386  0.5771
 5403SOL    HW321385   1.517   0.971   5.719 -0.3747  0.4498  0.4645
 5403SOL    MW421386   1.542   1.054   5.729  0.3411  0.2791 -0.3299
 5404SOL     OW21387   3.451   3.142   1.056  0.7619 -0.3410  0.0753
 5404SOL    HW221388   3.507   3.080   1.008  0.8443  0.4868 -0.9404
 5404SOL    HW321389   3.433   3.211   0.993 -0.3768  0.0433  0.7980
 5404SOL    MW421390   3.456   3.143   1.041  0.1504 -0.4452 -0.0582
 5405SOL     OW21391   6.299   1.978   2.184 -0.3218 -0.0041  0.1224
 5405SOL    HW221392   6.214   1.935   2.191 -0.2157  0.0363  2.0191
 5405SOL    HW321393   6.328   1.958   2.095 -2.9288  1.1932 -1.0996
 5405SOL    MW421394   6.292   1.970   2.173 -0.1339 -0.0781 -0.3275
 5406SOL     OW21395   5.514   6.393   4.435  0.0603 -0.4108  0.2998
 5406SOL    HW221396   5.608   6.385   4.451  0.0440  0.9125  1.2155
 5406SOL    HW321397   5.508   6.427   4.345  0.6037  1.7205  0.9958
 5406SOL    MW421398   5.526   6.397   4.425  0.0706 -0.1525  0.0043
 5407SOL     OW21399   0.238   2.774   0.218 -0.1394  0.2511  0.3124
 5407SOL    HW221400   0.172   2.793   0.151  0.1303 -0.0196 -0.0342
 5407SOL    HW321401   0.242   2.678   0.220  0.4640  0.2671  0.1114
 5407SOL    MW421402   0.230   2.764   0.209 -0.3034 -0.3440  0.1316
 5408SOL     OW21403   6.071   5.642   5.226 -0.0749  0.0398  0.0291
 5408SOL    HW221404   6.082   5.572   5.290  0.0912  0.4536  0.4529
 5408SOL    HW321405   6.158   5.653   5.188 -0.0461  0.1889  0.1394
 5408SOL    MW421406   6.084   5.634   5.229  0.5210 -0.5661 -0.0356
 5409SOL     OW21407   1.851   3.295   4.392  0.5084 -0.0456 -0.3816
 5409SOL    HW221408   1.911   3.325   4.460  0.4722  0.4578 -0.5683
 5409SOL    HW321409   1.778   3.255   4.441  0.8284 -0.3468 -0.1475
 5409SOL    MW421410   1.849   3.294   4.408 -0.2067 -1.0828 -0.1990
 5410SOL     OW21411   4.044   5.143   2.359  0.0458 -0.0077 -0.4675
 5410SOL    HW221412   4.104   5.190   2.417  0.2205 -2.9030  1.8797
 5410SOL    HW321413   3.959   5.186   2.372  0.3073  0.0650  1.1086
 5410SOL    MW421414   4.041   5.155   2.368  0.4651 -0.0257  0.2757
 5411SOL     OW21415   1.451   3.409   4.363 -0.5310 -0.0970  0.3693
 5411SOL    HW221416   1.500   3.327   4.359 -1.3094 -0.5310 -0.8961
 5411SOL    HW321417   1.454   3.443   4.273 -1.6480  0.3896  0.4962
 5411SOL    MW421418   1.458   3.402   4.351 -0.3136 -0.5293 -0.3190
 5412SOL     OW21419   3.062   1.959   3.720 -0.0596  0.3308 -0.5263
 5412SOL    HW221420   3.094   2.027   3.661  2.3242  0.6307  0.9648
 5412SOL    HW321421   3.008   1.902   3.665 -0.7829  2.4900 -2.1634
 5412SOL    MW421422   3.059   1.960   3.705  0.2409 -0.3646  0.0525
 5413SOL     OW21423   2.401   3.950   1.563  0.3160  0.3496 -0.2774
 5413SOL    HW221424   2.459   4.016   1.601  0.0642 -0.6624  2.0096
 5413SOL    HW321425   2.313   3.979   1.586  0.1145  0.0385 -0.6423
 5413SOL    MW421426   2.397   3.962   1.571 -0.3133  0.2614 -0.0000
 5414SOL     OW21427   4.490   3.190   3.414  0.0319  0.3733  0.3692
 5414SOL    HW221428   4.583   3.211   3.420 -0.1063  2.0964 -2.2016
 5414SOL    HW321429   4.486   3.117   3.352 -0.3571  0.7767 -0.0894
 5414SOL    MW421430   4.502   3.183   3.406 -0.4835 -0.1796  0.2721
 5415SOL     OW21431   5.895   6.475   1.824 -0.7075  0.2308  0.3651
 5415SOL    HW221432   5.937   6.411   1.881 -0.9350 -1.1309 -0.9395
 5415SOL    HW321433   5.966   6.512   1.772 -0.9007 -1.1989 -0.9940
 5415SOL    MW421434   5.910   6.472   1.825  0.5578  0.0698  0.3585
 5416SOL     OW21435   5.821   3.570   0.381  0.0367 -0.1736 -0.0990
 5416SOL    HW221436   5.863   3.489   0.351  1.5214  0.6218 -0.2663
 5416SOL    HW321437   5.878   3.640   0.349 -1.3857  0.9777 -0.2386
 5416SOL    MW421438   5.834   3.568   0.373 -0.9133  0.2417 -0.1751
 5417SOL     OW21439   1.214   3.499   2.549  0.0514  0.4145  0.7455
 5417SOL    HW221440   1.300   3.536   2.569  0.7900 -0.4019 -0.7756
 5417SOL    HW321441   1.216   3.483   2.455 -0.4210 -2.8888  1.1760
 5417SOL    MW421442   1.226   3.502   2.539 -0.4618 -0.9966 -0.4525
 5418SOL     OW21443   1.475   4.594   1.369 -0.0157  0.4220  0.1975
 5418SOL    HW221444   1.384   4.606   1.344 -0.3832 -1.1203  0.6635
 5418SOL    HW321445   1.474   4.597   1.465  0.5452  1.1283  0.1889
 5418SOL    MW421446   1.463   4.596   1.379  0.2524 -0.1399 -0.5726
 5419SOL     OW21447   6.316   1.220   6.277 -0.1718  0.1398  0.2393
 5419SOL    HW221448   6.240   1.215   6.335 -0.6730  0.6934 -0.3484
 5419SOL    HW321449   6.367   1.142   6.297 -1.8279 -1.2317 -0.5975
 5419SOL    MW421450   6.313   1.209   6.287 -0.0511 -0.0058  0.2713
 5420SOL     OW21451   3.221   1.060   2.300 -0.2121 -0.5847  0.1499
 5420SOL    HW221452   3.250   0.993   2.239 -1.2340  0.0158 -1.0534
 5420SOL    HW321453   3.237   1.143   2.254  0.0442 -0.0499  1.1677
 5420SOL    MW421454   3.227   1.062   2.286  0.3752 -0.2469 -0.0454
 5421SOL     OW21455   2.789   2.473   6.169  0.1783 -0.6329  0.5807
 5421SOL    HW221456   2.853   2.423   6.118 -0.0264  0.2101 -0.5526
 5421SOL    HW321457   2.744   2.527   6.104 -0.4721  0.0846  1.5969
 5421SOL    MW421458   2.792   2.473   6.154 -0.5559  0.0446 -0.4537
 5422SOL     OW21459   4.337   1.197   3.148 -0.0149  0.2726  0.5628
 5422SOL    HW221460   4.391   1.131   3.104 -1.2354  0.1688 -0.8786
 5422SOL    HW321461   4.397   1.240   3.209  1.4694 -0.4066 -0.3434
 5422SOL    MW421462   4.352   1.194   3.150 -0.2769 -0.1820  0.3167
 5423SOL     OW21463   2.388   1.596   6.276  0.0519  0.1637 -0.8216
 5423SOL    HW221464   2.317   1.639   6.228 -1.9358 -1.5252  0.3990
 5423SOL    HW321465   2.370   1.616   6.368  1.8924  0.6798 -0.5541
 5423SOL    MW421466   2.376   1.604   6.282 -0.6895  0.1952  0.0471
 5424SOL     OW21467   5.810   5.572   4.706  0.0801  0.8467 -0.0028
 5424SOL    HW221468   5.750   5.517   4.654  0.5377 -0.2019  0.5555
 5424SOL    HW321469   5.826   5.648   4.650 -0.0311  0.0954 -1.1024
 5424SOL    MW421470   5.804   5.574   4.692  0.6526 -0.4351 -0.1736
 5425SOL     OW21471   1.043   0.814   1.447  0.1776 -0.3269  0.0971
 5425SOL    HW221472   1.043   0.753   1.521 -0.6205 -0.3813  0.0662
 5425SOL    HW321473   1.099   0.772   1.381  1.5277  0.0836  0.9425
 5425SOL    MW421474   1.050   0.800   1.448 -0.0234 -0.3490 -0.1154
 5426SOL     OW21475   4.671   2.254   0.557  0.0290 -0.1314 -0.3230
 5426SOL    HW221476   4.674   2.280   0.649 -0.0582 -1.4140  0.0514
 5426SOL    HW321477   4.762   2.230   0.536 -0.0634 -0.4132 -0.4025
 5426SOL    MW421478   4.684   2.254   0.566 -0.1778  0.5303 -0.3293
 5427SOL     OW21479   6.334   6.468   5.084  0.8949  0.3572  0.1843
 5427SOL    HW221480   6.426   6.458   5.110  0.2787 -0.7703  2.1067
 5427SOL    HW321481   6.285   6.430   5.156 -1.0773  0.1115 -1.2264
 5427SOL    MW421482   6.340   6.461   5.097  0.2954  0.1147  0.0744
 5428SOL     OW21483   5.653   4.549   4.450 -0.5516  0.4949 -0.3760
 5428SOL    HW221484   5.608   4.570   4.532 -1.4305  0.5416 -0.8591
 5428SOL    HW321485   5.744   4.574   4.466 -0.7131  0.5066  0.5818
 5428SOL    MW421486   5.659   4.555   4.463  0.6391 -0.2080  0.0111
 5429SOL     OW21487   4.499   0.702   5.028  0.8854  0.1769  0.2358
 5429SOL    HW221488   4.475   0.612   5.006 -0.1708  0.3933  0.4254
 5429SOL    HW321489   4.572   0.723   4.970  2.0683 -1.2553  1.1524
 5429SOL    MW421490   4.506   0.693   5.017  0.3270  0.4370  0.8919
 5430SOL     OW21491   6.302   6.291   1.235 -0.4629  0.4908 -0.2683
 5430SOL    HW221492   6.279   6.225   1.169 -0.1573 -1.9829  1.9529
 5430SOL    HW321493   6.398   6.295   1.232 -0.5201  1.4718 -0.9591
 5430SOL    MW421494   6.312   6.283   1.226  0.5472  0.5152 -0.0769
 5431SOL     OW21495   4.789   5.585   1.234 -0.3424 -0.0143 -0.3984
 5431SOL    HW221496   4.708   5.635   1.227  0.7180  1.7199 -0.8024
 5431SOL    HW321497   4.818   5.598   1.324 -0.5814 -0.7828 -0.2005
 5431SOL    MW421498   4.782   5.593   1.245  0.6326  0.5172 -0.2014
 5432SOL     OW21499   5.629   5.876   2.201 -0.6925  0.0770 -0.2022
 5432SOL    HW221500   5.604   5.966   2.223 -1.8291  0.3669 -2.3508
 5432SOL    HW321501   5.722   5.870   2.224 -0.7875  1.5692  0.6570
 5432SOL    MW421502   5.638   5.887   2.207  0.9602 -0.5999  0.0483
 5433SOL     OW21503   4.868   5.711   6.171 -0.0910 -0.6123  0.0170
 5433SOL    HW221504   4.868   5.761   6.252  0.1676 -0.9261  0.2165
 5433SOL    HW321505   4.779   5.678   6.163 -0.4816  0.5432 -0.5397
 5433SOL    MW421506   4.857   5.713   6.181 -0.3051  0.1011 -0.8462
 5434SOL     OW21507   3.703   1.787   0.714 -0.1607 -0.2234  0.2564
 5434SOL    HW221508   3.768   1.751   0.775 -0.3354 -0.5247  0.2631
 5434SOL    HW321509   3.745   1.780   0.628  0.3470  0.7916  0.4090
 5434SOL    MW421510   3.717   1.781   0.711  0.5669 -0.1180 -0.2857
 5435SOL     OW21511   1.588   1.973   3.601 -0.0732  0.1546 -0.3216
 5435SOL    HW221512   1.565   1.918   3.526  0.8484 -2.4722  1.2058
 5435SOL    HW321513   1.505   1.992   3.643 -0.6244  1.8064 -2.0163
 5435SOL    MW421514   1.574   1.968   3.597  0.3533 -0.1954  0.0961
 5436SOL     OW21515   5.409   0.374   2.249 -0.7557 -0.0586 -0.0704
 5436SOL    HW221516   5.483   0.384   2.310  0.0069 -3.5118 -0.2149
 5436SOL    HW321517   5.449   0.374   2.163 -0.8585 -1.8196 -0.1564
 5436SOL    MW421518   5.424   0.375   2.246  0.5818  0.1261  0.1511
 5437SOL     OW21519   1.218   3.388   4.519  0.2069 -0.2254 -0.3887
 5437SOL    HW221520   1.140   3.419   4.472  0.4244 -0.5484 -0.9683
 5437SOL    HW321521   1.291   3.428   4.472  0.5985 -2.7441 -2.1037
 5437SOL    MW421522   1.217   3.397   4.507  0.3642 -0.0577  0.5457
 5438SOL     OW21523   0.172   3.727   1.590  0.4598 -0.0699  0.3062
 5438SOL    HW221524   0.207   3.656   1.535 -0.3580 -1.0771  1.0592
 5438SOL    HW321525   0.098   3.761   1.541  1.6666  1.2264 -0.7025
 5438SOL    MW421526   0.167   3.722   1.576 -0.2297  0.2551  0.1251
 5439SOL     OW21527   5.403   6.291   6.423  0.1253 -0.4188  0.0475
 5439SOL    HW221528   5.471   6.285   6.356 -0.9636  1.0040 -1.2728
 5439SOL    HW321529   5.322   6.269   6.377 -0.5371 -0.3049  1.1214
 5439SOL    MW421530   5.401   6.287   6.408 -0.3391 -0.3999 -0.5411
 5440SOL     OW21531   1.639   4.066   0.204 -0.0803 -0.3575  0.2460
 5440SOL    HW221532   1.614   4.135   0.266  1.1924 -1.1872  1.7448
 5440SOL    HW321533   1.665   4.114   0.125  0.7447  0.9086  1.2386
 5440SOL    MW421534   1.639   4.082   0.202 -0.1970 -0.1794 -0.3669
 5441SOL     OW21535   3.468   3.300   2.035  0.2343  0.1070  0.2308
 5441SOL    HW221536   3.541   3.360   2.018  1.3969 -1.5734 -1.0461
 5441SOL    HW321537   3.510   3.214   2.045 -1.6140 -1.0968 -1.5938
 5441SOL    MW421538   3.483   3.296   2.034 -0.2881  0.4012 -0.2189
 5442SOL     OW21539   2.269   5.195   5.409  0.5374 -0.1790 -0.3589
 5442SOL    HW221540   2.364   5.188   5.410  0.5444 -0.0248  0.2041
 5442SOL    HW321541   2.239   5.113   5.370  0.9263  0.1161 -1.3240
 5442SOL    MW421542   2.278   5.183   5.404  0.0475 -0.2864  1.3262
 5443SOL     OW21543   0.060   3.886   5.505  0.1760 -0.1831  0.4276
 5443SOL    HW221544   0.042   3.818   5.570 -0.0954 -1.2650 -0.7286
 5443SOL    HW321545   0.137   3.932   5.539  1.7873 -2.5299  0.1945
 5443SOL    MW421546   0.068   3.883   5.518  0.3034 -0.5975  0.4835
 5444SOL     OW21547   6.385   1.952   2.836  0.3157  0.1554 -0.0413
 5444SOL    HW221548   6.297   1.931   2.868  0.3741 -0.4171 -0.2340
 5444SOL    HW321549   6.437   1.965   2.915  0.2285 -0.2601  0.0896
 5444SOL    MW421550   6.380   1.951   2.851 -0.5889  0.1889 -0.1570
 5445SOL     OW21551   4.558   4.377   4.349  0.2898 -0.0903  0.2327
 5445SOL    HW221552   4.624   4.385   4.280 -0.5983 -0.6698 -0.7151
 5445SOL    HW321553   4.492   4.318   4.312 -0.9700  0.8071  0.9968
 5445SOL    MW421554   4.558   4.370   4.335 -0.0676  0.6260 -0.1759
 5446SOL     OW21555   4.674   0.342   1.944 -0.0379 -0.2254 -0.0628
 5446SOL    HW221556   4.697   0.404   2.013  0.1259  0.2080 -0.5029
 5446SOL    HW321557   4.650   0.397   1.870 -2.6457 -0.6406  0.3919
 5446SOL    MW421558   4.674   0.358   1.943 -0.2628 -0.7622 -0.3396
 5447SOL     OW21559   0.046   3.653   3.077 -0.0919 -0.7441 -0.1243
 5447SOL    HW221560  -0.000   3.687   3.000 -0.7995  0.0119  0.6125
 5447SOL    HW321561   0.023   3.714   3.147  2.3090 -0.1394  0.2096
 5447SOL    MW421562   0.037   3.665   3.076 -0.3472 -0.0995  0.1425
 5448SOL     OW21563   1.152   6.216   6.153 -0.2767  0.5251 -0.0224
 5448SOL    HW221564   1.173   6.204   6.061  0.8768 -0.0484  0.2893
 5448SOL    HW321565   1.066   6.257   6.154 -0.4515  0.2075 -1.3426
 5448SOL    MW421566   1.144   6.220   6.141 -0.1423 -1.4127 -0.2839
 5449SOL     OW21567   5.354   6.212   1.733  0.0504 -0.3848 -0.0936
 5449SOL    HW221568   5.279   6.271   1.743  2.0879  2.0501  2.2764
 5449SOL    HW321569   5.314   6.125   1.726 -3.0233  0.6983  1.6852
 5449SOL    MW421570   5.339   6.208   1.734 -0.0628  0.0291  0.2771
 5450SOL     OW21571   1.754   1.540   4.133 -0.0831  0.1936  0.3006
 5450SOL    HW221572   1.817   1.467   4.130  0.8563  1.0139 -1.0008
 5450SOL    HW321573   1.670   1.498   4.153  0.6752 -1.0630  1.0319
 5450SOL    MW421574   1.752   1.525   4.135 -0.6426 -0.2347  0.0652
 5451SOL     OW21575   0.240   3.181   5.700 -0.4309 -0.7395 -0.1907
 5451SOL    HW221576   0.152   3.202   5.668 -1.3862 -1.9883  1.4576
 5451SOL    HW321577   0.230   3.170   5.794  1.7646  0.2687  0.2333
 5451SOL    MW421578   0.227   3.182   5.708 -0.5497  0.4488  0.1989
 5452SOL     OW21579   5.877   5.930   6.414 -0.2527 -0.0920  0.5503
 5452SOL    HW221580   5.935   5.864   6.450 -0.3321 -0.4147  0.0979
 5452SOL    HW321581   5.926   5.970   6.343 -0.0809  0.5697  1.0278
 5452SOL    MW421582   5.891   5.926   6.409 -0.3757 -0.2871  0.0895
 5453SOL     OW21583   1.493   4.899   4.246  0.4619  0.7733  0.0395
 5453SOL    HW221584   1.525   4.837   4.311 -0.7963 -0.0198 -0.0650
 5453SOL    HW321585   1.504   4.854   4.162  0.4740  1.0866 -0.1278
 5453SOL    MW421586   1.498   4.885   4.243 -0.1894  0.4457  0.5900
 5454SOL     OW21587   2.511   6.351   6.036 -0.0218 -0.3132  0.4467
 5454SOL    HW221588   2.591   6.310   6.068  0.7810  1.0698  0.3033
 5454SOL    HW321589   2.494   6.422   6.097  0.3677  1.0486 -0.9451
 5454SOL    MW421590   2.519   6.355   6.048  0.2648 -0.3150 -0.1952
 5455SOL     OW21591   3.518   4.457   6.056  0.3012  0.2162  0.2013
 5455SOL    HW221592   3.523   4.551   6.072  1.1587  0.2225 -0.0300
 5455SOL    HW321593   3.595   4.439   6.001 -0.7944 -0.3207 -1.2077
 5455SOL    MW421594   3.529   4.467   6.051 -0.3570  0.5686 -0.5551
 5456SOL     OW21595   2.778   2.321   1.145 -0.0472 -0.2517 -0.1322
 5456SOL    HW221596   2.752   2.302   1.235 -1.2330 -1.2834 -0.6561
 5456SOL    HW321597   2.696   2.319   1.095  0.4831  1.1246 -1.1155
 5456SOL    MW421598   2.764   2.318   1.150 -0.0398 -0.4509 -0.1348
 5457SOL     OW21599   2.992   5.810   6.409 -0.0802 -0.4409  0.4779
 5457SOL    HW221600   3.073   5.830   6.457  0.0394 -0.8159  0.4368
 5457SOL    HW321601   2.922   5.824   6.472 -0.0099  0.2615  0.4022
 5457SOL    MW421602   2.994   5.814   6.423  0.3411 -0.0114  0.2798
 5458SOL     OW21603   6.269   3.854   5.007 -0.5472  0.2498  0.1439
 5458SOL    HW221604   6.327   3.927   4.985 -0.4633  0.6334  1.5586
 5458SOL    HW321605   6.281   3.791   4.936  1.4243  0.4209  0.2765
 5458SOL    MW421606   6.278   3.855   4.995 -0.0627  0.1662  0.1336
 5459SOL     OW21607   0.855   0.717   2.124  0.5619  0.0103  0.2583
 5459SOL    HW221608   0.931   0.664   2.146  0.2886 -0.7722 -0.6024
 5459SOL    HW321609   0.841   0.702   2.030 -1.2078 -0.6278  0.5819
 5459SOL    MW421610   0.863   0.708   2.114 -0.2520 -0.0328 -0.6192
 5460SOL     OW21611   3.451   3.452   2.912  0.0990  1.0098  0.3727
 5460SOL    HW221612   3.467   3.428   3.003  2.6569 -1.6312 -0.5951
 5460SOL    HW321613   3.370   3.407   2.889 -0.3073  1.3020  1.1825
 5460SOL    MW421614   3.442   3.443   2.921 -0.5616 -0.3260  0.4738
 5461SOL     OW21615   1.747   3.536   2.948 -0.0679 -0.1046 -0.0307
 5461SOL    HW221616   1.697   3.498   3.020  0.1880 -1.4627 -0.5389
 5461SOL    HW321617   1.681   3.569   2.887 -0.3478 -1.1338 -0.3028
 5461SOL    MW421618   1.732   3.535   2.949 -0.1831  0.1044  0.4775
 5462SOL     OW21619   3.036   0.508   1.788 -0.3856 -0.2482 -0.3241
 5462SOL    HW221620   2.971   0.531   1.722  1.6864  1.2079 -1.9764
 5462SOL    HW321621   3.098   0.451   1.743 -0.4348 -1.6369  1.2314
 5462SOL    MW421622   3.035   0.503   1.774 -0.4043  0.2454 -0.2323
 5463SOL     OW21623   5.901   3.630   2.542  0.1275 -0.2096  0.3325
 5463SOL    HW221624   5.839   3.636   2.614 -0.6131  0.9983 -0.3657
 5463SOL    HW321625   5.865   3.687   2.474  0.6227 -1.5432 -1.1349
 5463SOL    MW421626   5.888   3.638   2.543 -0.3787  0.0751 -0.0646
 5464SOL     OW21627   5.317   4.235   6.220 -0.1654  0.1888 -0.3615
 5464SOL    HW221628   5.244   4.174   6.212 -0.5529  0.5911  0.0132
 5464SOL    HW321629   5.369   4.202   6.293  0.2541 -0.3199 -0.8791
 5464SOL    MW421630   5.314   4.223   6.228  0.2826 -0.9326  0.1496
 5465SOL     OW21631   0.598   1.944   0.851 -0.0268 -0.2303  0.5654
 5465SOL    HW221632   0.539   1.898   0.911 -1.4205 -0.9104 -1.2404
 5465SOL    HW321633   0.543   2.011   0.810  1.4669  1.7568  1.6364
 5465SOL    MW421634   0.583   1.947   0.853  0.0738 -0.2845 -0.8509
 5466SOL     OW21635   5.036   2.570   6.104  0.7624 -0.4549  0.1238
 5466SOL    HW221636   5.034   2.659   6.068 -0.6702 -1.3422 -2.2281
 5466SOL    HW321637   4.998   2.579   6.191 -1.8016  0.9042 -1.0327
 5466SOL    MW421638   5.031   2.583   6.110 -0.3131 -0.7803 -0.3313
 5467SOL     OW21639   1.735   4.177   2.397 -0.1535 -0.0428 -0.4034
 5467SOL    HW221640   1.784   4.101   2.365  1.6792  0.5329  0.8502
 5467SOL    HW321641   1.798   4.225   2.451 -1.3700  2.1715 -0.8325
 5467SOL    MW421642   1.750   4.173   2.400 -0.3797  0.5395  0.2594
 5468SOL     OW21643   3.295   3.326   0.442 -0.3389  0.4209 -0.0056
 5468SOL    HW221644   3.383   3.289   0.452 -1.8100 -3.9592 -0.8204
 5468SOL    HW321645   3.288   3.348   0.349  0.0501  1.4060  0.1859
 5468SOL    MW421646   3.306   3.324   0.431  0.5456  0.2793 -0.4427
 5469SOL     OW21647   4.027   4.769   4.619  0.5474 -0.6303  0.4481
 5469SOL    HW221648   4.119   4.775   4.646  0.2298 -1.6902  1.8413
 5469SOL    HW321649   4.030   4.771   4.523  2.2453 -3.2546  0.3633
 5469SOL    MW421650   4.039   4.770   4.610  0.2145 -0.1934  0.2403
 5470SOL     OW21651   4.112   0.361   1.833  0.4187  0.6549 -0.5488
 5470SOL    HW221652   4.075   0.292   1.777 -1.7043  2.5218 -1.6163
 5470SOL    HW321653   4.161   0.417   1.773  1.5223  0.5351  0.1966
 5470SOL    MW421654   4.114   0.359   1.818 -0.0518  0.6660 -0.0922
 5471SOL     OW21655   5.748   6.391   2.933  0.4629  0.1953 -0.6014
 5471SOL    HW221656   5.756   6.466   2.873 -3.1921  0.7648 -0.5923
 5471SOL    HW321657   5.707   6.428   3.011 -2.0805 -1.8454 -0.8539
 5471SOL    MW421658   5.744   6.406   2.935 -0.3640 -0.4023  0.4763
 5472SOL     OW21659   5.676   5.638   3.433 -0.4952 -0.1519 -0.2387
 5472SOL    HW221660   5.678   5.546   3.406  0.5601  0.0980 -1.0337
 5472SOL    HW321661   5.606   5.677   3.381 -0.4628 -0.3431 -0.4242
 5472SOL    MW421662   5.667   5.631   3.423  0.3413 -0.7801  0.2887
 5473SOL     OW21663   5.992   5.431   6.041 -0.0424 -0.5338 -0.2349
 5473SOL    HW221664   6.010   5.391   5.956  1.0626 -0.2957 -0.1358
 5473SOL    HW321665   5.996   5.526   6.023 -1.9596 -0.4450 -0.3374
 5473SOL    MW421666   5.995   5.438   6.027  0.7122 -0.2094  0.7379
 5474SOL     OW21667   5.657   0.293   6.348  0.0977 -0.1075 -0.8416
 5474SOL    HW221668   5.650   0.381   6.386  1.3008 -0.5073  0.4263
 5474SOL    HW321669   5.567   0.262   6.342 -0.2678  0.7998 -0.2636
 5474SOL    MW421670   5.644   0.300   6.352  0.1961  0.5333 -0.3192
 5475SOL     OW21671   3.350   2.754   3.054 -0.4293  0.2833  0.0108
 5475SOL    HW221672   3.370   2.829   3.111 -0.0342 -0.7760  1.3292
 5475SOL    HW321673   3.300   2.792   2.982  0.1527  1.8895  0.3932
 5475SOL    MW421674   3.346   2.769   3.052 -0.2891  0.2874 -0.6660
 5476SOL     OW21675   5.120   2.015   0.015 -0.5963  0.0765 -0.1966
 5476SOL    HW221676   5.215   2.014   0.001 -0.4954  0.5053  0.4003
 5476SOL    HW321677   5.102   1.936   0.065 -0.6243 -0.2429 -0.7024
 5476SOL    MW421678   5.130   2.005   0.020  0.0281  0.1186  0.5345
 5477SOL     OW21679   4.007   6.368   2.241 -0.0500  0.2377  0.1863
 5477SOL    HW221680   4.099   6.385   2.221 -0.3280  2.0216  0.3226
 5477SOL    HW321681   3.966   6.351   2.156  0.8664 -3.4154  0.3070
 5477SOL    MW421682   4.014   6.368   2.227 -0.5248  0.9771 -0.4085
 5478SOL     OW21683   6.069   5.044   6.175 -0.1704  0.0666 -0.2829
 5478SOL    HW221684   6.106   5.015   6.259 -0.6258  0.1560 -0.0477
 5478SOL    HW321685   5.979   5.070   6.197  0.0995  1.2776 -0.5651
 5478SOL    MW421686   6.062   5.044   6.189  0.0636  0.3272  0.0240
 5479SOL     OW21687   4.165   2.304   5.136  0.1452 -0.3699  0.9107
 5479SOL    HW221688   4.252   2.268   5.157 -0.1366 -0.1822  2.5816
 5479SOL    HW321689   4.108   2.268   5.205 -0.4825  1.9060  1.6483
 5479SOL    MW421690   4.169   2.294   5.148  0.0171 -0.2411 -0.0088
 5480SOL     OW21691   4.919   5.710   4.001  0.1412 -0.0972 -0.5611
 5480SOL    HW221692   4.985   5.711   4.070  0.3782  2.0174 -0.7283
 5480SOL    HW321693   4.900   5.618   3.986  3.8046 -0.8610 -1.2340
 5480SOL    MW421694   4.925   5.698   4.008 -0.3297 -0.2620 -0.8307
 5481SOL     OW21695   4.362   2.747   6.296 -0.6092  0.5334 -0.2092
 5481SOL    HW221696   4.307   2.673   6.268 -0.6591  0.7559 -0.7035
 5481SOL    HW321697   4.326   2.773   6.381 -0.3019 -0.3056  0.1926
 5481SOL    MW421698   4.350   2.740   6.304 -0.4783 -0.0567 -0.2901
 5482SOL     OW21699   3.834   4.614   4.077  0.0030  0.0015 -0.0440
 5482SOL    HW221700   3.766   4.634   4.141  0.2604 -1.2718  0.6667
 5482SOL    HW321701   3.916   4.618   4.126  0.1969 -1.1007 -0.2570
 5482SOL    MW421702   3.836   4.617   4.092 -0.4288 -0.1984  0.1944
 5483SOL     OW21703   0.236   2.510   2.164  0.2464 -0.2024 -0.1718
 5483SOL    HW221704   0.180   2.558   2.103 -1.6214 -1.3886  0.5160
 5483SOL    HW321705   0.237   2.420   2.131  0.6293 -0.4923  0.5958
 5483SOL    MW421706   0.229   2.504   2.152  0.2462 -0.6091  0.2313
 5484SOL     OW21707   6.146   5.817   2.095  0.1389  0.0106 -0.1943
 5484SOL    HW221708   6.074   5.817   2.031  1.4002 -1.0968 -1.6958
 5484SOL    HW321709   6.184   5.905   2.088 -0.2054  0.1438 -0.4196
 5484SOL    MW421710   6.141   5.829   2.085 -0.5068  0.1581 -0.2671
 5485SOL     OW21711   2.181   1.072   2.404 -1.0528  0.1153  0.3901
 5485SOL    HW221712   2.162   1.005   2.469  1.0692 -1.0829 -0.1300
 5485SOL    HW321713   2.159   1.032   2.320  2.7360 -1.1281 -0.1860
 5485SOL    MW421714   2.175   1.058   2.402  0.0434  0.0088 -0.1021
 5486SOL     OW21715   2.323   4.188   0.983  0.2043 -0.5545  0.4220
 5486SOL    HW221716   2.231   4.174   1.003 -0.4178 -0.4150 -2.0349
 5486SOL    HW321717   2.334   4.283   0.984  0.2104 -0.5532  0.2704
 5486SOL    MW421718   2.312   4.199   0.986  0.5469  0.1272 -0.2403
 5487SOL     OW21719   3.178   4.338   3.470 -0.3481 -0.1180 -0.3584
 5487SOL    HW221720   3.145   4.373   3.553 -0.4522  1.5960 -1.0748
 5487SOL    HW321721   3.234   4.265   3.495 -0.9220 -0.0639  1.1803
 5487SOL    MW421722   3.181   4.333   3.484 -0.4743  0.2252  0.2573
 5488SOL     OW21723   1.523   0.283   4.212  0.3952  0.1043  0.0395
 5488SOL    HW221724   1.437   0.241   4.215 -0.1232  1.1546  0.4996
 5488SOL    HW321725   1.584   0.213   4.191 -0.6989 -0.4639 -1.3320
 5488SOL    MW421726   1.520   0.269   4.210 -0.7764  0.4434  0.4138
 5489SOL     OW21727   1.417   3.092   6.061  0.2512 -0.0549  0.1004
 5489SOL    HW221728   1.405   3.124   6.150 -1.4996  1.7759 -0.7101
 5489SOL    HW321729   1.475   3.156   6.020  0.4341 -0.4651 -0.2859
 5489SOL    MW421730   1.423   3.105   6.067  0.3096  0.0073  0.6187
 5490SOL     OW21731   6.066   2.008   3.563 -0.4067  0.2187  0.4025
 5490SOL    HW221732   6.046   1.943   3.631  0.0373  1.3648  1.6595
 5490SOL    HW321733   6.011   1.981   3.489  1.9174 -3.3947 -0.2955
 5490SOL    MW421734   6.056   1.996   3.563  0.5778  0.1548  0.2766
 5491SOL     OW21735   1.559   1.069   3.076  0.7253 -0.5662 -0.3911
 5491SOL    HW221736   1.531   0.982   3.046  0.5537 -0.2148 -1.2782
 5491SOL    HW321737   1.654   1.070   3.059  1.2654 -1.5547  2.1131
 5491SOL    MW421738   1.568   1.057   3.070 -0.1598  0.1100 -0.2853
 5492SOL     OW21739   0.182   5.270   3.125  0.2508  0.4600  0.1220
 5492SOL    HW221740   0.176   5.245   3.033  1.5637 -0.8511  0.3486
 5492SOL    HW321741   0.267   5.314   3.132  1.0133 -1.0568  1.0014
 5492SOL    MW421742   0.193   5.273   3.114  0.6591 -0.0628  0.1748
 5493SOL     OW21743   4.008   4.679   1.872  0.0175  0.0265  0.4244
 5493SOL    HW221744   3.962   4.714   1.796 -2.3497  0.2095  1.8130
 5493SOL    HW321745   3.984   4.587   1.874  0.3320 -0.0502  0.7724
 5493SOL    MW421746   3.999   4.672   1.862  0.3776  0.1050  0.0381
 5494SOL     OW21747   4.704   5.048   2.715 -0.7131  0.8001 -0.0328
 5494SOL    HW221748   4.658   5.130   2.697  0.1695  1.1205 -0.9006
 5494SOL    HW321749   4.783   5.053   2.662 -0.1441 -0.1642  0.7041
 5494SOL    MW421750   4.708   5.060   2.706  0.4426  0.5476  0.2573
 5495SOL     OW21751   3.968   4.193   2.176 -0.0647  0.7542  0.0962
 5495SOL    HW221752   3.985   4.181   2.083  2.2005 -0.2557  0.5720
 5495SOL    HW321753   3.980   4.106   2.214 -3.4498  0.5661  1.0720
 5495SOL    MW421754   3.972   4.180   2.169  0.1413 -0.2533  0.1305
 5496SOL     OW21755   4.837   4.210   5.821 -0.4491 -0.0259 -0.5731
 5496SOL    HW221756   4.747   4.239   5.807 -1.4122 -1.8964  1.1693
 5496SOL    HW321757   4.881   4.285   5.860 -1.0897  1.0610 -1.8669
 5496SOL    MW421758   4.831   4.224   5.824 -0.4289 -0.0444  0.2551
 5497SOL     OW21759   4.618   2.656   2.694 -0.5302  0.3012  0.4425
 5497SOL    HW221760   4.625   2.654   2.789  1.8772 -1.3821  0.3126
 5497SOL    HW321761   4.600   2.565   2.669  0.7759  0.3298 -0.7553
 5497SOL    MW421762   4.617   2.644   2.703 -0.4470  0.6156 -0.1690
 5498SOL     OW21763   1.867   5.337   3.418 -0.1077  0.0609  0.4547
 5498SOL    HW221764   1.799   5.368   3.358 -1.6587 -0.6107  1.7592
 5498SOL    HW321765   1.894   5.414   3.467 -0.7553  0.1497  0.6799
 5498SOL    MW421766   1.861   5.351   3.417 -0.1146  0.0995  0.3661
 5499SOL     OW21767   1.103   0.966   5.866 -0.5867  0.1785  0.2776
 5499SOL    HW221768   1.156   1.028   5.918 -1.3602  0.5112  0.6869
 5499SOL    HW321769   1.082   0.896   5.928 -0.3840 -0.0994  0.0337
 5499SOL    MW421770   1.107   0.965   5.881 -0.1330  0.1554 -0.8465
 5500SOL     OW21771   3.345   2.000   4.210 -0.4340  0.6665 -0.3987
 5500SOL    HW221772   3.426   1.970   4.169 -0.4701 -0.3041  0.2066
 5500SOL    HW321773   3.373   2.042   4.291 -0.4527  1.4963 -0.8101
 5500SOL    MW421774   3.359   2.002   4.215 -0.2610 -0.3087  0.6846
 5501SOL     OW21775   5.068   4.513   0.587  0.0434 -0.1479 -0.0760
 5501SOL    HW221776   4.980   4.479   0.577  0.0055  0.1247 -0.7874
 5501SOL    HW321777   5.076   4.578   0.517  0.3925  0.6994  0.7258
 5501SOL    MW421778   5.058   4.517   0.576 -0.3013  0.0570 -0.2686
 5502SOL     OW21779   2.574   4.541   0.052  0.2395  0.0751  0.0414
 5502SOL    HW221780   2.561   4.633   0.071 -0.8803  0.0615 -0.5444
 5502SOL    HW321781   2.667   4.525   0.066  0.0816  0.8018  2.2000
 5502SOL    MW421782   2.585   4.551   0.057 -0.1172 -0.7189 -0.1149
 5503SOL     OW21783   6.194   5.802   3.016 -0.5314  0.1695 -0.1975
 5503SOL    HW221784   6.284   5.827   2.997 -0.5734  0.3572 -0.1460
 5503SOL    HW321785   6.141   5.852   2.955 -0.5810 -0.1829 -0.4462
 5503SOL    MW421786   6.199   5.812   3.006  0.4789  0.2838 -0.6827
 5504SOL     OW21787   3.002   2.931   5.600 -0.3091  0.2553 -0.1020
 5504SOL    HW221788   3.055   3.010   5.614  0.1247  0.3419 -1.9348
 5504SOL    HW321789   3.000   2.888   5.685  1.5078  1.0140  0.3765
 5504SOL    MW421790   3.009   2.936   5.613 -0.0210 -0.4468  0.5135
 5505SOL     OW21791   4.315   3.940   3.348  0.1194  0.4948  0.0511
 5505SOL    HW221792   4.341   4.001   3.417 -1.4271  1.3598 -0.0897
 5505SOL    HW321793   4.397   3.911   3.309  0.9205  1.6587  0.8236
 5505SOL    MW421794   4.329   3.944   3.352  0.2038 -1.2777 -0.0876
 5506SOL     OW21795   0.284   1.891   4.737  0.2845  0.1621  0.3571
 5506SOL    HW221796   0.354   1.858   4.681  1.1268 -0.3211  1.6690
 5506SOL    HW321797   0.258   1.815   4.790 -1.7616  0.1149 -0.5853
 5506SOL    MW421798   0.290   1.876   4.736 -0.3775 -0.6422 -0.0191
 5507SOL     OW21799   3.222   3.733   2.513 -0.3773 -0.2202  0.1685
 5507SOL    HW221800   3.307   3.717   2.554  0.6746  0.0778 -1.7578
 5507SOL    HW321801   3.192   3.816   2.549  1.2715  0.8382 -0.8147
 5507SOL    MW421802   3.229   3.742   2.523 -0.1348  0.2164  0.1579
 5508SOL     OW21803   4.108   5.909   3.094 -0.0111  0.2666 -0.0139
 5508SOL    HW221804   4.024   5.952   3.078  0.0536  0.6280  0.5899
 5508SOL    HW321805   4.161   5.976   3.136  0.0507 -0.4329  1.0646
 5508SOL    MW421806   4.104   5.923   3.097 -0.1217  0.2539 -0.1048
 5509SOL     OW21807   2.537   4.104   4.566 -0.2404  0.2416 -0.1749
 5509SOL    HW221808   2.517   4.013   4.544 -2.2119  0.9153 -1.5462
 5509SOL    HW321809   2.583   4.138   4.489 -2.0169  1.0904 -0.9228
 5509SOL    MW421810   2.540   4.097   4.553  0.0897  0.2757 -0.0807
 5510SOL     OW21811   3.365   5.072   3.638  0.2916 -0.0861  0.0629
 5510SOL    HW221812   3.372   5.009   3.709 -2.7608  0.0131  0.5963
 5510SOL    HW321813   3.348   5.155   3.681  0.2346  0.3167 -0.7235
 5510SOL    MW421814   3.364   5.074   3.653  0.2526 -0.0555  0.7626
 5511SOL     OW21815   4.414   3.373   2.045 -0.0212 -0.1702 -0.1296
 5511SOL    HW221816   4.497   3.338   2.078  0.6866  1.2730 -0.3134
 5511SOL    HW321817   4.424   3.374   1.949  0.0711  0.7277 -0.1217
 5511SOL    MW421818   4.426   3.369   2.036 -0.5485  0.0059  0.0123
 5512SOL     OW21819   0.142   1.426   5.843  0.5467  0.2483 -0.6192
 5512SOL    HW221820   0.225   1.411   5.888  1.1477  1.3807 -1.3107
 5512SOL    HW321821   0.163   1.489   5.774 -1.5208  3.2671  1.2953
 5512SOL    MW421822   0.156   1.432   5.840  0.1193  0.2526  0.3631
 5513SOL     OW21823   0.696   3.554   2.948 -0.2410 -0.0986 -0.2718
 5513SOL    HW221824   0.645   3.473   2.938 -0.9890 -0.0695  2.4337
 5513SOL    HW321825   0.773   3.541   2.893 -0.7506 -2.3125 -0.5638
 5513SOL    MW421826   0.699   3.541   2.940  0.6648 -0.4120 -0.3431
 5514SOL     OW21827   1.519   4.454   4.371 -0.0124 -0.3715 -0.1006
 5514SOL    HW221828   1.591   4.447   4.434  0.0079  0.4182 -0.0242
 5514SOL    HW321829   1.447   4.405   4.411 -0.0891  0.3556  0.6817
 5514SOL    MW421830   1.519   4.447   4.385 -0.3863 -0.3184  0.3168
 5515SOL     OW21831   3.796   4.314   4.027  0.2305  0.5026 -0.3814
 5515SOL    HW221832   3.857   4.383   4.005 -1.0820  1.3769 -1.4028
 5515SOL    HW321833   3.823   4.239   3.973  1.1037  0.4783  0.0683
 5515SOL    MW421834   3.807   4.313   4.017 -0.2566  0.4823 -0.0004
 5516SOL     OW21835   4.442   4.483   2.888  0.3403  0.3150  0.0877
 5516SOL    HW221836   4.494   4.469   2.809 -0.2619  0.4839 -0.3477
 5516SOL    HW321837   4.398   4.567   2.873 -0.6902 -0.2093  0.0846
 5516SOL    MW421838   4.443   4.492   2.875 -0.2489 -0.3904 -0.1565
 5517SOL     OW21839   1.096   3.407   0.960 -0.4056 -0.2304 -0.2062
 5517SOL    HW221840   1.015   3.422   0.911 -0.2586 -0.6159 -0.5747
 5517SOL    HW321841   1.161   3.386   0.893  0.1440  0.6618  0.0331
 5517SOL    MW421842   1.094   3.406   0.945  0.5721  0.1771 -0.1248
 5518SOL     OW21843   6.253   0.216   1.464 -0.7273  0.1126 -0.2919
 5518SOL    HW221844   6.262   0.227   1.369  0.8471  1.0264 -0.0638
 5518SOL    HW321845   6.322   0.154   1.487 -1.4277 -0.4937  0.2002
 5518SOL    MW421846   6.263   0.209   1.454  0.2453 -0.7103  0.3874
 5519SOL     OW21847   5.755   4.293   0.032  0.3553  0.3013 -0.3520
 5519SOL    HW221848   5.699   4.237  -0.021  1.4557 -0.1350 -1.1025
 5519SOL    HW321849   5.771   4.243   0.112 -0.9816  0.7892  0.2428
 5519SOL    MW421850   5.750   4.279   0.035 -0.9055 -0.0017 -0.6413
 5520SOL     OW21851   1.471   3.540   4.106 -0.3858  0.4844  0.1914
 5520SOL    HW221852   1.432   3.491   4.035  0.6526  1.4390 -1.0864
 5520SOL    HW321853   1.400   3.597   4.138 -0.6847  0.4997 -0.4908
 5520SOL    MW421854   1.456   3.541   4.101  0.1942 -0.3954  0.4212
 5521SOL     OW21855   5.819   4.496   0.418  0.2706 -0.1065 -0.2447
 5521SOL    HW221856   5.770   4.423   0.457 -0.9981  0.9885  0.2959
 5521SOL    HW321857   5.833   4.557   0.491  0.0203  0.8648 -0.9859
 5521SOL    MW421858   5.815   4.494   0.433  0.1252  0.6806 -0.0780
 5522SOL     OW21859   4.297   2.354   2.320 -0.1261 -0.0199  0.0178
 5522SOL    HW221860   4.303   2.448   2.336 -0.2640  0.0341 -0.2313
 5522SOL    HW321861   4.203   2.338   2.309  0.0301  0.2534 -2.4437
 5522SOL    MW421862   4.285   2.364   2.320 -0.1153  0.1437  0.3067
 5523SOL     OW21863   5.752   5.614   0.055 -0.0480  0.6452 -0.1857
 5523SOL    HW221864   5.838   5.605   0.013 -0.1333 -0.5470 -0.1371
 5523SOL    HW321865   5.762   5.568   0.139 -0.9763 -0.2895 -0.5644
 5523SOL    MW421866   5.765   5.607   0.061  0.1262  0.8671 -0.3292
 5524SOL     OW21867   2.518   0.496   3.912  0.1121  0.3400 -0.5994
 5524SOL    HW221868   2.530   0.514   3.819  2.7167  0.8458 -0.2533
 5524SOL    HW321869   2.523   0.401   3.919 -0.7979  0.2496 -1.0248
 5524SOL    MW421870   2.520   0.486   3.901 -0.0283  0.4664 -0.2275
 5525SOL     OW21871   1.559   3.345   3.437 -0.0747 -0.9002 -0.0532
 5525SOL    HW221872   1.472   3.328   3.401  0.2962  0.4411 -1.6974
 5525SOL    HW321873   1.599   3.259   3.447 -1.0058 -1.4291 -0.7812
 5525SOL    MW421874   1.553   3.332   3.434  0.0356 -0.7171  0.1094
 5526SOL     OW21875   2.614   1.753   5.948  0.2385  0.3769  0.8454
 5526SOL    HW221876   2.572   1.798   6.021 -0.8075  0.3242  0.2960
 5526SOL    HW321877   2.576   1.794   5.870  0.3024 -0.5102  0.3410
 5526SOL    MW421878   2.603   1.764   5.948  0.0412  0.2479 -0.7192
 5527SOL     OW21879   2.264   0.667   5.551  0.3805 -0.4837  0.0199
 5527SOL    HW221880   2.234   0.682   5.461  3.0902 -0.7941 -1.0176
 5527SOL    HW321881   2.296   0.577   5.550 -0.0846 -0.6842  1.4949
 5527SOL    MW421882   2.264   0.657   5.539 -0.1428 -0.3636 -0.0070
 5528SOL     OW21883   5.399   4.978   1.874 -0.1741  0.0190  0.1210
 5528SOL    HW221884   5.365   4.898   1.915  0.5132  0.1402  0.9321
 5528SOL    HW321885   5.493   4.962   1.865  0.0031  0.8212  0.4862
 5528SOL    MW421886   5.407   4.965   1.878  0.1891  0.0631  0.0174
 5529SOL     OW21887   0.527   1.711   0.245 -0.2594  0.3658  0.1235
 5529SOL    HW221888   0.542   1.804   0.261 -1.2511  0.5318  0.1543
 5529SOL    HW321889   0.493   1.707   0.156 -1.2526  0.1683  0.4899
 5529SOL    MW421890   0.524   1.723   0.236  0.7111 -0.1226  0.4999
 5530SOL     OW21891   3.599   4.788   2.940  0.4928  0.1443 -0.2076
 5530SOL    HW221892   3.571   4.862   2.995  2.6086  0.3250  0.7186
 5530SOL    HW321893   3.680   4.758   2.981  1.5496 -0.4591 -2.6122
 5530SOL    MW421894   3.606   4.794   2.953 -0.3615 -0.5856 -0.4329
 5531SOL     OW21895   0.984   2.310   0.256  0.0877 -0.1792 -0.1675
 5531SOL    HW221896   0.930   2.257   0.315  0.9092 -0.2452  0.5338
 5531SOL    HW321897   0.920   2.351   0.197 -0.8926  0.8793  1.5356
 5531SOL    MW421898   0.968   2.308   0.256 -0.3253 -0.4435  0.3365
 5532SOL     OW21899   4.412   1.835   2.502  0.3663  0.0363  0.5716
 5532SOL    HW221900   4.424   1.767   2.568 -1.3675 -0.8158  0.0628
 5532SOL    HW321901   4.443   1.796   2.421  1.0446  0.5263  0.5853
 5532SOL    MW421902   4.418   1.821   2.500 -0.7995 -0.5379  0.5771
 5533SOL     OW21903   3.187   6.164   0.653 -0.0654 -0.2541  0.0048
 5533SOL    HW221904   3.137   6.224   0.708 -1.8639 -0.9656 -0.7750
 5533SOL    HW321905   3.233   6.220   0.591  0.1597  0.4310  0.7850
 5533SOL    MW421906   3.186   6.179   0.652  0.1244  0.5826 -0.3366
 5534SOL     OW21907   5.929   6.227   2.784 -0.0234  0.3689 -0.0516
 5534SOL    HW221908   5.888   6.232   2.698  0.9042 -1.5001 -0.6372
 5534SOL    HW321909   5.875   6.284   2.839 -2.1005 -0.3133 -1.2781
 5534SOL    MW421910   5.917   6.235   2.780  0.4401  0.3218 -0.1797
 5535SOL     OW21911   3.717   3.177   5.570 -0.2821 -0.3517  0.2837
 5535SOL    HW221912   3.776   3.212   5.636  1.1976 -1.6032 -0.3117
 5535SOL    HW321913   3.770   3.172   5.491 -1.1594 -1.6127 -0.2614
 5535SOL    MW421914   3.732   3.181   5.568 -0.8061  0.2230  0.1941
 5536SOL     OW21915   1.229   1.365   2.224 -0.0747 -0.2015  0.0784
 5536SOL    HW221916   1.288   1.428   2.265 -2.0095  1.4503  0.4891
 5536SOL    HW321917   1.231   1.388   2.131 -0.8973  0.6528  0.2474
 5536SOL    MW421918   1.237   1.376   2.217 -0.6487 -0.2190 -0.2759
 5537SOL     OW21919   0.732   3.509   6.002  0.5588 -0.1119  0.7896
 5537SOL    HW221920   0.705   3.539   6.089  0.2306 -0.6227  0.8645
 5537SOL    HW321921   0.815   3.464   6.017  0.5862 -0.0510  0.8175
 5537SOL    MW421922   0.739   3.507   6.015 -0.4508 -0.4238 -0.0018
 5538SOL     OW21923   5.715   3.046   0.723  0.0086  0.0474 -0.4074
 5538SOL    HW221924   5.669   3.011   0.647 -0.3901 -0.7916  0.1959
 5538SOL    HW321925   5.650   3.100   0.768  0.0962  0.1566 -0.4127
 5538SOL    MW421926   5.700   3.048   0.719  0.3169  0.3734  0.0540
 5539SOL     OW21927   4.170   2.195   4.435  0.2112  0.3801 -0.0799
 5539SOL    HW221928   4.197   2.280   4.399  0.0600  0.9306  1.0476
 5539SOL    HW321929   4.079   2.184   4.406  0.3038  0.4991 -0.4145
 5539SOL    MW421930   4.162   2.205   4.426 -0.4085 -0.0369  0.1671
 5540SOL     OW21931   2.585   2.092   6.055  0.0082 -0.1801  0.5662
 5540SOL    HW221932   2.587   2.003   6.091  0.2415 -0.3610  0.1161
 5540SOL    HW321933   2.675   2.109   6.029 -0.2909 -0.3476 -0.6317
 5540SOL    MW421934   2.597   2.082   6.057 -0.4074  0.4874 -0.1047
 5541SOL     OW21935   0.685   3.817   5.923  0.0744 -0.2526 -0.4441
 5541SOL    HW221936   0.682   3.728   5.889 -0.1891  0.1857 -1.6109
 5541SOL    HW321937   0.776   3.845   5.910  0.5101 -0.7865  1.1573
 5541SOL    MW421938   0.697   3.809   5.917 -0.0334  0.4770  0.5014
 5542SOL     OW21939   6.198   0.969   5.726  0.4246 -0.2813  0.2608
 5542SOL    HW221940   6.189   0.882   5.764  1.3889 -1.5328 -2.1311
 5542SOL    HW321941   6.227   1.025   5.798  3.0952 -2.6723  1.2310
 5542SOL    MW421942   6.201   0.965   5.740 -0.2582 -0.6245 -0.0951
 5543SOL     OW21943   5.353   4.315   5.384 -0.7623 -0.1143 -0.2477
 5543SOL    HW221944   5.409   4.372   5.332  0.0980 -0.5092  0.2212
 5543SOL    HW321945   5.295   4.374   5.432  0.6394  0.4331  0.8325
 5543SOL    MW421946   5.353   4.330   5.383 -0.4462  0.4521 -0.0873
 5544SOL     OW21947   4.755   6.072   4.680 -0.4050  0.3856  0.2085
 5544SOL    HW221948   4.702   6.095   4.603 -0.2906 -1.2210 -0.3946
 5544SOL    HW321949   4.692   6.034   4.741 -0.3754  0.9853  0.6175
 5544SOL    MW421950   4.739   6.070   4.678  0.5107  0.0813 -0.6349
 5545SOL     OW21951   5.964   3.566   3.715 -0.2218  0.1883  0.0605
 5545SOL    HW221952   5.998   3.637   3.768  1.2661  1.2197 -2.1407
 5545SOL    HW321953   5.900   3.607   3.656  0.2690 -0.3427 -0.8810
 5545SOL    MW421954   5.960   3.581   3.714  0.4232 -0.2918 -0.0147
 5546SOL     OW21955   4.340   2.192   4.150 -0.3631 -0.3431  0.1096
 5546SOL    HW221956   4.398   2.157   4.082 -0.3237 -1.1911  0.5672
 5546SOL    HW321957   4.399   2.212   4.223 -0.4028  0.5820 -0.0969
 5546SOL    MW421958   4.356   2.190   4.151  1.2251  0.2833 -0.3969
 5547SOL     OW21959   2.954   0.250   3.922 -0.4773  0.5378  0.5372
 5547SOL    HW221960   2.948   0.275   3.830  1.3650  0.9115  0.4720
 5547SOL    HW321961   2.943   0.332   3.970 -1.7879  0.2928  0.7009
 5547SOL    MW421962   2.952   0.264   3.916 -0.7984  0.0656  0.2319
 5548SOL     OW21963   0.973   5.168   3.209 -0.4182  0.2318  0.2040
 5548SOL    HW221964   0.883   5.199   3.219 -0.1377  1.2339 -0.2866
 5548SOL    HW321965   0.968   5.101   3.141 -0.6114  1.1853 -0.7521
 5548SOL    MW421966   0.960   5.164   3.201 -0.1404 -0.2290 -0.4309
 5549SOL     OW21967   2.933   4.437   6.100  0.1964 -0.1233 -0.0558
 5549SOL    HW221968   2.974   4.352   6.115 -0.7651 -0.4805  0.6188
 5549SOL    HW321969   3.006   4.499   6.098  0.7607 -0.7203  1.3060
 5549SOL    MW421970   2.948   4.434   6.102  0.1978 -0.3576  0.0365
 5550SOL     OW21971   0.030   0.634   4.625  0.1647 -0.4720  0.7301
 5550SOL    HW221972   0.102   0.609   4.682 -0.7513 -0.8310  1.7615
 5550SOL    HW321973   0.006   0.723   4.652  1.0161  0.1514 -0.4619
 5550SOL    MW421974   0.036   0.642   4.636  0.4593 -0.0555  0.2799
 5551SOL     OW21975   1.735   5.205   2.487 -0.2491 -0.4508 -0.0265
 5551SOL    HW221976   1.790   5.198   2.409 -2.4559  1.5603 -1.9100
 5551SOL    HW321977   1.737   5.298   2.509 -3.4727 -0.1184 -0.7089
 5551SOL    MW421978   1.742   5.217   2.480 -0.0903 -0.0173  0.0497
 5552SOL     OW21979   1.509   3.413   4.844 -0.2451  0.3175  0.1557
 5552SOL    HW221980   1.455   3.370   4.910 -0.2629  0.5299  0.2808
 5552SOL    HW321981   1.538   3.342   4.786 -0.1204  0.1078  0.4700
 5552SOL    MW421982   1.506   3.398   4.845  0.2075 -0.0930  0.1540
 5553SOL     OW21983   2.530   1.220   5.560  0.2210 -0.1580  0.6090
 5553SOL    HW221984   2.589   1.262   5.498  1.8026 -1.8238  0.8859
 5553SOL    HW321985   2.555   1.255   5.645  0.1650 -0.1514  0.6227
 5553SOL    MW421986   2.541   1.230   5.563 -0.2427 -0.5482 -0.5535
 5554SOL     OW21987   3.671   0.187   4.961 -0.6046 -0.3471  0.5217
 5554SOL    HW221988   3.646   0.184   5.053 -0.1070 -1.8396  0.6277
 5554SOL    HW321989   3.592   0.219   4.916 -0.9610  0.0678  1.4117
 5554SOL    MW421990   3.657   0.191   4.967 -0.5768  0.7586  0.4429
 5555SOL     OW21991   2.026   6.208   2.575 -0.6449 -0.6155  0.7002
 5555SOL    HW221992   2.105   6.182   2.528 -0.5789  1.4724 -0.4557
 5555SOL    HW321993   1.956   6.161   2.529 -0.4947  0.8102 -1.1314
 5555SOL    MW421994   2.027   6.198   2.563  0.5361  0.0341  0.4913
 5556SOL     OW21995   5.907   2.255   0.516  0.1069  0.2710  0.2715
 5556SOL    HW221996   5.990   2.299   0.533  1.2827 -1.7033 -0.1758
 5556SOL    HW321997   5.864   2.310   0.451  0.5608  1.8659  1.2495
 5556SOL    MW421998   5.912   2.268   0.510  0.0634 -0.3686  0.0177
 5557SOL     OW21999   5.904   5.124   4.487  0.1949 -0.5619 -0.1087
 5557SOL    HW222000   5.941   5.172   4.413 -0.8472 -0.0640 -0.3251
 5557SOL    HW322001   5.953   5.155   4.563 -1.0919  1.6446 -0.0903
 5557SOL    MW422002   5.915   5.135   4.487 -0.3833  0.4727  0.2002
 5558SOL     OW22003   4.404   2.189   1.139  0.4522 -0.1037  0.2039
 5558SOL    HW222004   4.400   2.114   1.199  1.8154 -0.2206  0.1935
 5558SOL    HW322005   4.350   2.256   1.181 -1.2356 -1.2372 -0.0564
 5558SOL    MW422006   4.397   2.188   1.153  0.3000 -0.5513  0.1243
 5559SOL     OW22007   3.870   4.779   0.579 -0.1841  0.5209 -0.3914
 5559SOL    HW222008   3.826   4.771   0.663 -2.0652  1.1490 -1.2543
 5559SOL    HW322009   3.920   4.698   0.570 -0.3487  0.2258  1.0873
 5559SOL    MW422010   3.871   4.767   0.589 -0.3747  0.5976 -0.1798
 5560SOL     OW22011   1.765   3.290   0.917  0.0499  0.0768  0.1483
 5560SOL    HW222012   1.742   3.331   0.833  2.5235  0.5360 -0.3795
 5560SOL    HW322013   1.725   3.203   0.912 -1.9183  0.9431 -0.4097
 5560SOL    MW422014   1.757   3.284   0.905  0.4664  0.7191 -0.1620
 5561SOL     OW22015   4.937   2.313   5.494 -0.1634  0.0978  0.3853
 5561SOL    HW222016   5.006   2.252   5.524  0.3538  0.1501 -0.6620
 5561SOL    HW322017   4.976   2.400   5.505 -0.3446  0.1664  0.4839
 5561SOL    MW422018   4.951   2.316   5.499  0.0935 -0.7130  0.5414
 5562SOL     OW22019   1.642   2.761   1.368 -0.0849 -0.2588  0.0287
 5562SOL    HW222020   1.604   2.848   1.364  1.7241  0.5479 -0.4454
 5562SOL    HW322021   1.692   2.760   1.450 -0.1741 -0.8811  0.0790
 5562SOL    MW422022   1.644   2.772   1.379  0.4483 -0.6086 -0.2085
 5563SOL     OW22023   0.883   3.139   3.097  0.1708 -0.6606 -0.4475
 5563SOL    HW222024   0.923   3.149   3.183  1.4122  0.7426 -1.1399
 5563SOL    HW322025   0.948   3.174   3.036 -0.6686 -1.6394 -1.9603
 5563SOL    MW422026   0.896   3.145   3.100  0.7738 -0.5696  0.3827
 5564SOL     OW22027   0.541   3.046   5.066  0.0615  0.3266 -0.2809
 5564SOL    HW222028   0.511   3.000   5.145  1.4440  1.5680  1.0477
 5564SOL    HW322029   0.636   3.031   5.064 -0.2620 -2.5143 -3.6838
 5564SOL    MW422030   0.550   3.038   5.076  0.2337  0.6712 -0.0995
 5565SOL     OW22031   3.417   4.281   2.150  0.0254  0.2995 -0.3934
 5565SOL    HW222032   3.337   4.309   2.105 -0.1756 -1.1951 -1.0161
 5565SOL    HW322033   3.438   4.354   2.208 -0.6605  1.5756 -1.6750
 5565SOL    MW422034   3.409   4.294   2.152 -0.0670  0.1917 -0.2257
 5566SOL     OW22035   3.691   0.373   3.711 -0.6630  0.3716  0.0462
 5566SOL    HW222036   3.668   0.313   3.781 -2.4405  0.4690 -0.3998
 5566SOL    HW322037   3.676   0.460   3.748 -1.2787  0.4302 -0.3194
 5566SOL    MW422038   3.686   0.377   3.725 -0.1019  0.1855 -0.3894
 5567SOL     OW22039   1.375   4.882   1.745  0.3273 -0.1804 -0.5453
 5567SOL    HW222040   1.448   4.917   1.693  1.3840 -0.4539  0.6937
 5567SOL    HW322041   1.359   4.949   1.812  0.0249 -0.5191 -0.2755
 5567SOL    MW422042   1.383   4.895   1.747 -0.5095  0.1986 -0.0240
 5568SOL     OW22043   0.399   3.427   4.504  0.2802 -0.3033 -0.0912
 5568SOL    HW222044   0.456   3.413   4.579  0.9721  0.9066 -0.3512
 5568SOL    HW322045   0.311   3.433   4.541  0.6727  0.8572  0.7159
 5568SOL    MW422046   0.395   3.426   4.519  0.8273  0.0668 -0.0236
 5569SOL     OW22047   3.742   5.333   1.313 -0.0157 -0.4375 -0.0187
 5569SOL    HW222048   3.834   5.305   1.319  0.1157 -0.0700 -0.3007
 5569SOL    HW322049   3.700   5.294   1.389  0.3507 -0.7070  0.0486
 5569SOL    MW422050   3.749   5.324   1.324 -0.3802 -0.8641  0.5509
 5570SOL     OW22051   0.477   2.031   3.275 -0.0456 -0.2683  0.0651
 5570SOL    HW222052   0.502   1.939   3.260 -0.0789 -0.5113  1.3604
 5570SOL    HW322053   0.385   2.026   3.304 -0.9447  0.4277 -2.4725
 5570SOL    MW422054   0.468   2.018   3.277  0.1995  0.3828 -0.1183
 5571SOL     OW22055   6.024   0.557   2.603  0.1721 -0.4927  0.4467
 5571SOL    HW222056   5.938   0.561   2.646 -0.1134 -0.8338 -0.0855
 5571SOL    HW322057   6.004   0.555   2.509  0.8061  1.2376  0.2333
 5571SOL    MW422058   6.010   0.558   2.596  0.8267 -0.1348 -0.1636
 5572SOL     OW22059   3.773   3.396   0.910  0.1524 -0.5477  0.0409
 5572SOL    HW222060   3.849   3.349   0.875  1.0790 -0.4293  1.7630
 5572SOL    HW322061   3.767   3.367   1.002 -2.6827 -1.5233 -0.3346
 5572SOL    MW422062   3.782   3.386   0.918  0.0306 -0.8958  0.0103
 5573SOL     OW22063   5.355   1.599   5.410  0.4828  0.1414 -0.1484
 5573SOL    HW222064   5.284   1.658   5.435 -0.9627 -1.7903  0.5807
 5573SOL    HW322065   5.357   1.601   5.315 -1.4951 -0.7555 -0.2511
 5573SOL    MW422066   5.346   1.607   5.401 -0.6273  0.2491  0.3614
 5574SOL     OW22067   5.821   2.794   0.829 -0.1092 -0.1931  0.3658
 5574SOL    HW222068   5.913   2.814   0.842  0.1528 -0.7220 -0.5556
 5574SOL    HW322069   5.790   2.861   0.768 -0.6915  0.7875  1.6904
 5574SOL    MW422070   5.829   2.805   0.822 -0.2891 -0.2550 -0.0126
 5575SOL     OW22071   5.975   1.996   1.553 -0.9203  0.5307  0.1306
 5575SOL    HW222072   5.897   2.024   1.602 -0.2118  0.0780  1.5681
 5575SOL    HW322073   5.963   1.902   1.540 -0.1893  0.2735  1.2052
 5575SOL    MW422074   5.963   1.987   1.558 -0.0059  0.1278  0.1750
 5576SOL     OW22075   3.361   6.301   0.442  0.7496  0.0125  0.0670
 5576SOL    HW222076   3.346   6.346   0.359 -2.9158 -0.7251  0.1415
 5576SOL    HW322077   3.404   6.219   0.418 -0.7651 -0.4392 -1.2168
 5576SOL    MW422078   3.365   6.296   0.428 -0.1203  0.2969 -0.5222
 5577SOL     OW22079   3.584   1.982   5.800  0.4326 -0.3454 -0.2819
 5577SOL    HW222080   3.616   1.899   5.766 -0.3114 -0.9046  0.3646
 5577SOL    HW322081   3.533   2.019   5.729  0.9279 -0.3436 -0.6412
 5577SOL    MW422082   3.582   1.976   5.786 -0.0612 -0.2417 -0.5161
 5578SOL     OW22083   0.508   5.257   2.429  0.1361  0.0058  0.3352
 5578SOL    HW222084   0.447   5.205   2.376  0.6035 -0.8187  0.5994
 5578SOL    HW322085   0.451   5.313   2.482 -0.4430 -1.3054  1.1575
 5578SOL    MW422086   0.492   5.258   2.429  0.0460 -0.5504  0.0233
 5579SOL     OW22087   1.691   4.783   5.475  0.1457  0.1356 -0.2911
 5579SOL    HW222088   1.718   4.869   5.508  4.2715 -0.8789 -0.4815
 5579SOL    HW322089   1.675   4.798   5.382  1.8266  0.6244 -0.5474
 5579SOL    MW422090   1.693   4.796   5.467  0.6009  0.0851 -0.2931
 5580SOL     OW22091   2.824   4.497   4.319 -0.6929 -0.0249 -0.0882
 5580SOL    HW222092   2.900   4.548   4.350  0.5412 -1.8114 -0.0154
 5580SOL    HW322093   2.789   4.549   4.246  0.9801  0.5741 -0.5259
 5580SOL    MW422094   2.830   4.511   4.313 -0.4106  0.0685 -0.7737
 5581SOL     OW22095   2.744   0.748   2.765 -0.6313  0.1205  0.3610
 5581SOL    HW222096   2.701   0.834   2.768 -2.7408 -0.9140  2.2033
 5581SOL    HW322097   2.815   0.760   2.701 -1.2300  3.0309  0.0731
 5581SOL    MW422098   2.748   0.761   2.757  0.0761 -0.6363 -0.0473
 5582SOL     OW22099   2.322   1.450   4.266 -0.1710 -0.3305  0.3566
 5582SOL    HW222100   2.400   1.489   4.305 -0.5317  0.0875  0.6724
 5582SOL    HW322101   2.287   1.519   4.209  1.6058 -1.6583 -2.5871
 5582SOL    MW422102   2.328   1.464   4.264  0.3345  0.1807 -0.0513
 5583SOL     OW22103   2.756   2.501   0.046 -0.0205  0.4241  0.3126
 5583SOL    HW222104   2.756   2.480  -0.048 -1.1842  1.7083  0.0045
 5583SOL    HW322105   2.682   2.451   0.081  0.6313 -0.3398  0.6430
 5583SOL    MW422106   2.746   2.491   0.038 -0.5044  0.6387  0.0095
 5584SOL     OW22107   1.783   4.342   4.150 -0.2099  0.1862 -0.1550
 5584SOL    HW222108   1.709   4.282   4.164 -1.2177  0.8215 -2.3787
 5584SOL    HW322109   1.751   4.427   4.181 -0.2957  0.3878 -0.7833
 5584SOL    MW422110   1.769   4.345   4.156  0.4847  1.0526  0.5051
 5585SOL     OW22111   1.708   1.691   6.009 -0.7082 -0.1568 -0.2050
 5585SOL    HW222112   1.697   1.613   5.955  0.2731 -0.6136  0.2390
 5585SOL    HW322113   1.674   1.666   6.095  0.4159 -0.3942  0.1808
 5585SOL    MW422114   1.702   1.678   6.014  0.1825 -0.1217  0.1597
 5586SOL     OW22115   0.935   2.681   2.165  0.4787 -0.5353 -0.2068
 5586SOL    HW222116   0.944   2.681   2.070 -2.6602 -0.1628 -0.6058
 5586SOL    HW322117   0.939   2.773   2.189 -3.4224 -0.1060 -0.6810
 5586SOL    MW422118   0.937   2.693   2.156  0.3678  0.2485  0.1086
 5587SOL     OW22119   5.612   5.228   5.836  0.1042 -0.2065 -0.1952
 5587SOL    HW222120   5.686   5.168   5.826 -1.0720 -1.5572 -1.3555
 5587SOL    HW322121   5.639   5.290   5.903  3.9111  1.8578 -3.2561
 5587SOL    MW422122   5.625   5.229   5.843  0.2061 -0.3724 -0.6395
 5588SOL     OW22123   3.586   5.343   1.596  0.6234 -0.6274 -0.3124
 5588SOL    HW222124   3.511   5.295   1.561  0.9579 -1.5526  0.2113
 5588SOL    HW322125   3.601   5.304   1.683  0.3036  1.0832  0.5502
 5588SOL    MW422126   3.578   5.331   1.603  0.5999 -0.2138 -0.4333
 5589SOL     OW22127   6.260   0.472   2.783  0.5689 -0.4581 -0.3674
 5589SOL    HW222128   6.176   0.487   2.741  0.4277  2.3455  0.7309
 5589SOL    HW322129   6.243   0.484   2.876  2.1751  0.2651 -0.1291
 5589SOL    MW422130   6.247   0.476   2.790  0.7863  0.2135 -0.2323
 5590SOL     OW22131   0.936   5.285   2.580 -0.0766 -0.1007  0.5262
 5590SOL    HW222132   0.960   5.268   2.488  0.2210 -0.4720  0.6681
 5590SOL    HW322133   0.870   5.218   2.600  0.1598 -0.2820  0.7039
 5590SOL    MW422134   0.931   5.274   2.570 -0.5694 -0.0771  0.6561
 5591SOL     OW22135   5.164   0.530   4.983  0.2362  0.5286 -0.0202
 5591SOL    HW222136   5.143   0.492   5.068 -1.0597  0.8393 -0.1764
 5591SOL    HW322137   5.099   0.493   4.923  1.9795 -0.7753 -1.2022
 5591SOL    MW422138   5.152   0.520   4.986  0.6581  0.5052  0.1948
 5592SOL     OW22139   5.052   5.869   2.336 -0.2245 -0.3665 -0.1229
 5592SOL    HW222140   5.082   5.960   2.341  2.0181 -1.0026 -0.8711
 5592SOL    HW322141   5.071   5.833   2.423  0.8244 -0.6482 -0.4580
 5592SOL    MW422142   5.059   5.876   2.348 -0.7673 -0.3166  0.0663
 5593SOL     OW22143   2.029   1.261   1.724 -0.0198  0.2481  0.5713
 5593SOL    HW222144   1.963   1.306   1.776  0.0951 -0.4264  1.3202
 5593SOL    HW322145   2.077   1.331   1.679 -2.2660  0.7123 -1.2958
 5593SOL    MW422146   2.027   1.276   1.725  0.2191  0.7651  0.0329
 5594SOL     OW22147   5.369   0.734   5.966  0.1931  0.5167  0.1096
 5594SOL    HW222148   5.383   0.828   5.979 -0.4775  0.5455  0.7270
 5594SOL    HW322149   5.275   0.726   5.950  0.5012  0.1142 -1.6430
 5594SOL    MW422150   5.358   0.745   5.966  0.1506  0.0191 -0.0905
 5595SOL     OW22151   4.022   1.238   6.144 -0.3156 -0.4399  0.5548
 5595SOL    HW222152   3.948   1.261   6.088 -1.3743 -0.5707  1.8491
 5595SOL    HW322153   3.982   1.221   6.230  1.3764  1.0402  1.6959
 5595SOL    MW422154   4.007   1.239   6.148  0.0496 -0.1075 -0.2443
 5596SOL     OW22155   4.373   3.043   2.987 -0.2925 -0.2382  0.3950
 5596SOL    HW222156   4.439   3.077   2.926 -0.8859 -0.2856 -0.2909
 5596SOL    HW322157   4.318   3.119   3.007  0.1229 -0.1356  1.1784
 5596SOL    MW422158   4.374   3.058   2.981  0.1764 -0.5121 -0.4961
 5597SOL     OW22159   5.377   4.929   1.196  0.5190 -0.3634 -0.4983
 5597SOL    HW222160   5.400   5.007   1.146 -0.1065  1.1825  1.4982
 5597SOL    HW322161   5.435   4.861   1.162  3.1473  1.6599 -0.3834
 5597SOL    MW422162   5.388   4.930   1.185 -0.6811 -0.4163 -0.0852
 5598SOL     OW22163   4.861   2.456   1.322 -0.0964  0.2012  0.2729
 5598SOL    HW222164   4.849   2.392   1.392  0.6409  0.2140  0.4222
 5598SOL    HW322165   4.955   2.452   1.303 -0.4654 -0.7197 -1.5785
 5598SOL    MW422166   4.872   2.447   1.329 -0.2269 -0.4650  0.5493
 5599SOL     OW22167   4.839   2.876   2.232  0.1795  0.2163  0.2127
 5599SOL    HW222168   4.929   2.843   2.226  0.8101  2.0247 -1.1269
 5599SOL    HW322169   4.825   2.922   2.149 -1.9745  0.0526  0.4403
 5599SOL    MW422170   4.849   2.878   2.220  0.1332  0.0845 -0.1837
 5600SOL     OW22171   3.906   2.193   4.345  0.3944 -0.6293  0.3966
 5600SOL    HW222172   3.832   2.162   4.397 -0.1771  0.3963  0.2264
 5600SOL    HW322173   3.890   2.158   4.257 -0.5720  0.5955  0.0542
 5600SOL    MW422174   3.894   2.184   4.340  0.2307  0.1742 -0.3018
 5601SOL     OW22175   2.909   3.441   2.678 -0.1325  0.1991  0.2251
 5601SOL    HW222176   2.833   3.474   2.631 -0.5194 -0.7427  0.1620
 5601SOL    HW322177   2.982   3.453   2.618 -0.1969  1.2061  0.3257
 5601SOL    MW422178   2.908   3.447   2.664  0.1329  0.2085 -0.0838
 5602SOL     OW22179   5.621   3.905   0.307 -0.6905  0.1272  0.4662
 5602SOL    HW222180   5.598   3.814   0.288 -0.2288  0.2860 -0.9793
 5602SOL    HW322181   5.542   3.955   0.286 -0.9140  0.0737  1.1705
 5602SOL    MW422182   5.608   3.900   0.301 -0.1505  0.4438  0.9629
 5603SOL     OW22183   5.001   0.352   1.381  0.0922  0.6810  0.2699
 5603SOL    HW222184   4.925   0.380   1.328  0.5076  0.9155 -0.2129
 5603SOL    HW322185   5.026   0.268   1.343  0.9506  1.2666 -0.5235
 5603SOL    MW422186   4.994   0.345   1.369 -0.3121 -0.5013 -0.3866
 5604SOL     OW22187   2.680   2.133   0.461 -0.2558 -0.1648 -0.1513
 5604SOL    HW222188   2.604   2.079   0.437  0.0551 -0.9965  0.6654
 5604SOL    HW322189   2.656   2.222   0.434 -1.5377 -0.4078  0.1302
 5604SOL    MW422190   2.666   2.138   0.454  0.6924  0.4779 -0.1387
 5605SOL     OW22191   3.415   1.913   1.393 -0.5796 -0.1275 -0.3097
 5605SOL    HW222192   3.328   1.897   1.429  0.3412 -2.1426  1.2725
 5605SOL    HW322193   3.433   2.005   1.413 -1.0544 -0.5471  2.4461
 5605SOL    MW422194   3.406   1.923   1.400 -0.4223 -0.2499  0.5573
 5606SOL     OW22195   2.236   4.892   0.126  0.0769 -0.0025  1.1406
 5606SOL    HW222196   2.172   4.822   0.110  1.0174 -0.5766 -0.2634
 5606SOL    HW322197   2.193   4.971   0.094 -0.1534 -0.2871  0.7379
 5606SOL    MW422198   2.222   4.893   0.120 -0.3619 -0.0327 -0.0173
 5607SOL     OW22199   2.106   6.248   4.845 -0.4573  0.1625 -0.2610
 5607SOL    HW222200   2.032   6.197   4.811  0.2580 -1.2268  0.2130
 5607SOL    HW322201   2.066   6.311   4.906 -1.1281 -1.7102  1.3247
 5607SOL    MW422202   2.091   6.250   4.849 -0.0542 -0.3253  0.2783
 5608SOL     OW22203   2.044   2.701   4.154  0.5149 -0.0853  0.2782
 5608SOL    HW222204   2.112   2.691   4.221  0.2276  2.6169  1.0772
 5608SOL    HW322205   1.971   2.648   4.187 -0.0465  2.0610  2.8460
 5608SOL    MW422206   2.043   2.693   4.168  0.0179 -0.0908 -0.0368
 5609SOL     OW22207   6.215   2.232   3.663 -0.2091  0.3805  0.2224
 5609SOL    HW222208   6.195   2.139   3.651  0.8247 -0.0573  1.7571
 5609SOL    HW322209   6.132   2.276   3.642 -0.4342 -0.7748 -1.5457
 5609SOL    MW422210   6.201   2.225   3.658 -0.1361  0.6411 -0.0665
 5610SOL     OW22211   0.995   6.477   3.161 -0.1196  0.6752 -0.6862
 5610SOL    HW222212   0.939   6.438   3.093 -2.0948  0.8146  0.7576
 5610SOL    HW322213   0.966   6.568   3.166  0.7105  0.9273 -0.3600
 5610SOL    MW422214   0.984   6.484   3.153  0.0512 -0.9378  0.5333
 5611SOL     OW22215   4.036   4.434   3.876 -0.0245 -0.3744  0.3337
 5611SOL    HW222216   4.051   4.517   3.920 -0.6977  0.9296 -1.7540
 5611SOL    HW322217   4.119   4.386   3.884  1.5681  1.9094 -1.2301
 5611SOL    MW422218   4.049   4.439   3.883  0.8029 -0.3083  0.1371
 5612SOL     OW22219   4.685   0.680   4.171 -0.1039  0.2364 -0.2001
 5612SOL    HW222220   4.756   0.711   4.226 -1.1156  0.7997  0.8283
 5612SOL    HW322221   4.619   0.649   4.232 -0.1937 -1.5729 -1.1674
 5612SOL    MW422222   4.686   0.680   4.186  0.1925  0.6043  0.0752
 5613SOL     OW22223   5.515   0.365   1.992 -0.2166 -0.5275  0.2602
 5613SOL    HW222224   5.582   0.314   1.947  0.4199  1.2591 -0.9107
 5613SOL    HW322225   5.438   0.359   1.935 -0.8175 -1.8126  1.1478
 5613SOL    MW422226   5.514   0.357   1.979  0.1564 -0.1307  0.0899
 5614SOL     OW22227   3.788   2.890   2.023  0.0626 -0.0685 -0.1784
 5614SOL    HW222228   3.763   2.829   2.092 -0.1543 -0.3666 -0.5182
 5614SOL    HW322229   3.872   2.926   2.052 -0.9205  1.2594  1.1962
 5614SOL    MW422230   3.796   2.887   2.036  0.0496 -0.3554  0.3439
 5615SOL     OW22231   4.623   3.523   4.229 -0.3820  0.1259 -0.4306
 5615SOL    HW222232   4.672   3.460   4.282 -1.0134 -0.5227 -0.6056
 5615SOL    HW322233   4.581   3.581   4.294  0.0267  0.2400 -0.2649
 5615SOL    MW422234   4.624   3.522   4.245  0.4957 -0.9055  0.0453
 5616SOL     OW22235   4.328   2.969   0.546  0.1010 -0.4356  0.0980
 5616SOL    HW222236   4.340   2.911   0.621  0.9485  1.0082  1.1239
 5616SOL    HW322237   4.233   2.971   0.532  0.0277 -1.6759  0.3436
 5616SOL    MW422238   4.317   2.962   0.554  0.2086 -0.1699  0.0204
 5617SOL     OW22239   2.165   1.924   0.112 -0.0969  0.1223  0.6234
 5617SOL    HW222240   2.133   2.002   0.158  1.1737  1.0396 -0.0039
 5617SOL    HW322241   2.091   1.897   0.058 -0.4045  1.1988  0.4775
 5617SOL    MW422242   2.151   1.931   0.111  0.8383  0.3744  0.0475
 5618SOL     OW22243   0.988   1.728   5.830  0.1548 -0.1692  0.3225
 5618SOL    HW222244   1.071   1.771   5.847  1.0443 -1.2533 -1.0634
 5618SOL    HW322245   1.009   1.635   5.823 -1.2152 -0.5046  0.2252
 5618SOL    MW422246   1.001   1.722   5.831  0.3950 -0.1481 -0.4957
 5619SOL     OW22247   2.122   6.048   3.726 -0.0932  0.4330 -0.2126
 5619SOL    HW222248   2.216   6.066   3.729 -0.0125  0.1100 -0.7387
 5619SOL    HW322249   2.117   5.953   3.714 -0.4999  0.0731  2.2462
 5619SOL    MW422250   2.134   6.038   3.725 -0.6352  0.2468 -0.0920
 5620SOL     OW22251   6.260   5.306   4.619  0.4196 -0.4898  0.1266
 5620SOL    HW222252   6.330   5.335   4.678  1.1236  1.5321 -1.5665
 5620SOL    HW322253   6.306   5.271   4.543 -0.2360  2.1140 -1.6140
 5620SOL    MW422254   6.275   5.305   4.617 -0.6834 -0.2870  0.0008
 5621SOL     OW22255   0.962   3.499   2.809 -0.1255 -0.3112 -0.1837
 5621SOL    HW222256   1.007   3.579   2.834  1.4357 -1.6127  1.4314
 5621SOL    HW322257   0.944   3.509   2.715  1.8724  1.0612 -0.4768
 5621SOL    MW422258   0.965   3.511   2.800  0.4339  0.4126 -0.6525
 5622SOL     OW22259   3.064   4.072   4.779 -0.0562  0.0693 -0.2307
 5622SOL    HW222260   3.128   4.013   4.739 -0.7581 -0.1263 -1.0771
 5622SOL    HW322261   2.988   4.017   4.797  0.0130  0.2922  0.8125
 5622SOL    MW422262   3.063   4.057   4.776  0.0824 -0.5819  0.1871
 5623SOL     OW22263   2.052   5.879   2.841  0.1579  0.3306 -1.0761
 5623SOL    HW222264   2.046   5.974   2.848  1.1771  0.3728 -0.6352
 5623SOL    HW322265   2.142   5.858   2.869  0.3769 -0.6361 -2.4140
 5623SOL    MW422266   2.063   5.889   2.846 -0.3234 -0.1400 -0.2864
 5624SOL     OW22267   5.602   3.248   0.026 -0.7034  0.0130 -0.4200
 5624SOL    HW222268   5.678   3.307   0.028 -0.9460  0.3683  2.5085
 5624SOL    HW322269   5.528   3.304   0.003 -0.3445 -0.0273 -1.7455
 5624SOL    MW422270   5.602   3.263   0.024 -0.0252  0.1485 -0.4246
 5625SOL     OW22271   1.739   6.168   1.911  0.6200 -0.0492 -0.1546
 5625SOL    HW222272   1.798   6.123   1.850  2.0505  2.3928 -0.6846
 5625SOL    HW322273   1.669   6.202   1.855 -0.5061 -1.5684  0.2580
 5625SOL    MW422274   1.737   6.166   1.895  0.1687  0.3716  0.5266
 5626SOL     OW22275   4.643   0.331   2.499  0.0396 -0.0724 -0.2544
 5626SOL    HW222276   4.682   0.262   2.445 -0.2454 -0.2005 -0.3026
 5626SOL    HW322277   4.636   0.292   2.587 -1.7669 -0.7807 -0.6560
 5626SOL    MW422278   4.647   0.316   2.504 -0.1326  0.6086 -0.3080
 5627SOL     OW22279   0.597   6.091   4.902 -0.0141 -0.0953  0.2061
 5627SOL    HW222280   0.684   6.106   4.866  0.1111 -1.0343  0.0957
 5627SOL    HW322281   0.613   6.045   4.985 -0.3818  0.2049  0.4462
 5627SOL    MW422282   0.610   6.087   4.908  0.0328  0.0144 -0.0661
 5628SOL     OW22283   0.622   3.463   0.648 -0.5098 -0.2479 -0.2203
 5628SOL    HW222284   0.576   3.501   0.723 -0.0066  1.9976 -0.9849
 5628SOL    HW322285   0.558   3.402   0.610 -1.8613  0.7713  0.3285
 5628SOL    MW422286   0.607   3.460   0.652  0.6020 -0.3181 -0.4268
 5629SOL     OW22287   0.768   1.914   2.274  0.3561 -0.2670 -0.5424
 5629SOL    HW222288   0.816   1.852   2.219  2.2317 -0.4008  1.1650
 5629SOL    HW322289   0.800   2.000   2.247  0.8860 -0.3041 -0.0541
 5629SOL    MW422290   0.779   1.917   2.263  0.5428  0.0460  0.1351
 5630SOL     OW22291   4.482   4.468   1.980 -0.2334 -0.1862 -0.2618
 5630SOL    HW222292   4.386   4.468   1.972 -0.4452 -2.1996  1.3412
 5630SOL    HW322293   4.503   4.379   2.009  2.1967  0.0624 -1.0670
 5630SOL    MW422294   4.472   4.456   1.983 -0.6302 -0.6735 -0.3822
 5631SOL     OW22295   4.454   1.062   0.730  0.0887 -0.1388 -0.0950
 5631SOL    HW222296   4.391   1.127   0.699  0.6642 -0.2325 -1.4929
 5631SOL    HW322297   4.538   1.089   0.695  0.7380 -0.4120  1.1729
 5631SOL    MW422298   4.456   1.074   0.722  0.1685  0.1956  0.2919
 5632SOL     OW22299   3.648   2.728   5.017  0.3709 -0.1400  0.8476
 5632SOL    HW222300   3.724   2.724   4.958  0.3438 -0.7480  0.8504
 5632SOL    HW322301   3.592   2.657   4.988 -1.3242  1.7023 -0.6739
 5632SOL    MW422302   3.651   2.718   5.005 -0.0497 -0.0298 -0.4485
 5633SOL     OW22303   2.380   0.688   1.303 -0.4524  0.0358  0.2405
 5633SOL    HW222304   2.468   0.706   1.271  0.4923 -3.3601  0.5521
 5633SOL    HW322305   2.371   0.743   1.381  1.9349 -0.4617  0.9343
 5633SOL    MW422306   2.390   0.698   1.309 -0.6590 -0.2014 -0.5232
 5634SOL     OW22307   6.035   1.934   0.804 -0.5415  0.0564  0.1625
 5634SOL    HW222308   6.068   1.860   0.753  0.1400  0.8220 -0.5425
 5634SOL    HW322309   5.940   1.924   0.803 -0.7977  1.5045 -3.6184
 5634SOL    MW422310   6.027   1.923   0.797  0.4599  0.0234 -0.1967
 5635SOL     OW22311   2.652   2.621   0.491 -0.2532  0.9598 -0.4861
 5635SOL    HW222312   2.701   2.702   0.479  1.2429 -0.0341 -1.4805
 5635SOL    HW322313   2.646   2.611   0.586  1.7631  1.0028 -0.2954
 5635SOL    MW422314   2.658   2.630   0.502  0.2247  0.0030 -0.3496
 5636SOL     OW22315   4.223   5.609   5.293  0.0322  0.1935 -0.2154
 5636SOL    HW222316   4.155   5.664   5.253 -0.7956 -0.8061 -0.2077
 5636SOL    HW322317   4.298   5.618   5.234 -0.8315 -0.4401 -1.4585
 5636SOL    MW422318   4.224   5.618   5.280  0.0897  0.1983 -0.1260
 5637SOL     OW22319   5.762   4.354   1.704  0.4060  0.1904 -0.6236
 5637SOL    HW222320   5.821   4.324   1.774  0.5614  0.8149 -0.4739
 5637SOL    HW322321   5.702   4.281   1.690 -1.9997  1.2837  2.7171
 5637SOL    MW422322   5.762   4.341   1.712 -0.7509 -0.5630 -0.8326
 5638SOL     OW22323   2.887   1.803   5.469 -0.0322  0.0796  0.1229
 5638SOL    HW222324   2.817   1.821   5.405  0.0434  1.7919  0.4730
 5638SOL    HW322325   2.899   1.708   5.465 -1.7074 -0.1409 -0.6504
 5638SOL    MW422326   2.879   1.793   5.460 -0.5500  0.9270  0.1625
 5639SOL     OW22327   5.723   1.314   3.332 -0.1050  0.1461 -0.3591
 5639SOL    HW222328   5.728   1.354   3.419 -0.6827 -0.3204 -0.1056
 5639SOL    HW322329   5.648   1.357   3.291 -1.9112 -1.8932  0.5807
 5639SOL    MW422330   5.714   1.325   3.338 -0.3966  0.1363 -0.2184
 5640SOL     OW22331   4.237   1.710   5.961 -0.1746  0.3732 -0.2177
 5640SOL    HW222332   4.148   1.680   5.982 -0.7131  1.9903 -0.0470
 5640SOL    HW322333   4.258   1.771   6.031  0.6679  0.8036 -0.8360
 5640SOL    MW422334   4.228   1.714   5.973  0.0264 -0.0811 -0.1250
 5641SOL     OW22335   4.883   5.072   5.695  0.5373  0.0563  0.2814
 5641SOL    HW222336   4.828   5.142   5.659  0.6087  0.6208  1.2123
 5641SOL    HW322337   4.872   4.999   5.635 -0.5266  0.4586 -0.0449
 5641SOL    MW422338   4.874   5.072   5.682  0.6188 -0.4720  0.0951
 5642SOL     OW22339   4.528   6.111   0.730 -0.3648 -0.4494 -0.4388
 5642SOL    HW222340   4.620   6.084   0.724  0.8164  2.9843 -0.0153
 5642SOL    HW322341   4.493   6.092   0.643  1.1261 -0.5932 -1.0457
 5642SOL    MW422342   4.536   6.105   0.717  0.1870 -0.0308  0.2580
 5643SOL     OW22343   5.598   1.483   4.777  0.2805  0.6600 -0.0159
 5643SOL    HW222344   5.576   1.509   4.688 -1.4395  0.6837  0.3826
 5643SOL    HW322345   5.618   1.566   4.821 -2.0764  1.0804  0.4219
 5643SOL    MW422346   5.598   1.498   4.771  0.0811  0.2643 -0.2446
 5644SOL     OW22347   6.024   4.788   5.229 -0.4581 -0.1182 -0.2941
 5644SOL    HW222348   6.055   4.839   5.154  0.3303  1.0076  0.7637
 5644SOL    HW322349   6.038   4.697   5.203  1.2623  0.2818 -0.9402
 5644SOL    MW422350   6.030   4.783   5.215 -0.0933  0.3296  0.1172
 5645SOL     OW22351   5.867   5.190   2.438  0.1164 -0.3227  0.2077
 5645SOL    HW222352   5.900   5.225   2.521 -0.0539  1.1428 -0.3111
 5645SOL    HW322353   5.772   5.204   2.442 -0.0195 -1.1758  0.1758
 5645SOL    MW422354   5.858   5.196   2.449 -0.1751 -0.3706 -0.2229
 5646SOL     OW22355   2.720   5.451   3.862 -0.5235  0.4167  0.0834
 5646SOL    HW222356   2.740   5.500   3.942 -0.2878 -0.4744  0.5828
 5646SOL    HW322357   2.804   5.411   3.837 -0.1710  2.0407 -1.5917
 5646SOL    MW422358   2.734   5.452   3.869 -0.0056  0.0813 -0.3503
 5647SOL     OW22359   6.368   5.791   0.136 -0.6247  0.2824  0.4397
 5647SOL    HW222360   6.448   5.838   0.116  0.4573 -1.4878  0.3655
 5647SOL    HW322361   6.354   5.804   0.230  0.6556 -0.6714  0.7846
 5647SOL    MW422362   6.377   5.799   0.146 -0.2737  0.3392 -0.3241
 5648SOL     OW22363   3.479   4.015   4.897 -0.5802 -0.1140 -0.5003
 5648SOL    HW222364   3.463   4.054   4.983 -0.3570  0.2073 -0.6057
 5648SOL    HW322365   3.567   3.979   4.903 -0.6492 -0.2876 -0.5224
 5648SOL    MW422366   3.488   4.015   4.909 -0.1953  0.4549 -0.0759
 5649SOL     OW22367   4.052   4.482   5.538 -0.3062  0.3910  0.1708
 5649SOL    HW222368   4.004   4.564   5.539  0.7272  1.0214  0.5450
 5649SOL    HW322369   4.142   4.507   5.562  0.2303 -0.7165 -0.6058
 5649SOL    MW422370   4.058   4.496   5.542 -0.2409 -0.4800  0.4252
 5650SOL     OW22371   4.430   0.581   6.428  0.3510 -0.2805 -0.3641
 5650SOL    HW222372   4.390   0.555   6.511  0.5766 -0.9746 -0.4584
 5650SOL    HW322373   4.521   0.600   6.451  0.2839  0.0522 -0.3659
 5650SOL    MW422374   4.437   0.580   6.442  0.0197 -0.1354  0.3901
 5651SOL     OW22375   5.608   1.663   0.335 -0.2487  0.2955  0.1706
 5651SOL    HW222376   5.671   1.692   0.268 -0.5858  0.1482 -0.2116
 5651SOL    HW322377   5.644   1.580   0.367 -0.5875 -0.1257 -0.5195
 5651SOL    MW422378   5.621   1.656   0.331  0.0875 -0.4432 -0.0806
 5652SOL     OW22379   4.010   3.386   2.526 -0.2948 -0.1724  0.4070
 5652SOL    HW222380   3.974   3.445   2.460  0.3080  0.0334  0.2520
 5652SOL    HW322381   4.099   3.368   2.496 -0.1968 -0.5086  0.8845
 5652SOL    MW422382   4.017   3.391   2.514  0.1884 -0.1617 -0.1966
 5653SOL     OW22383   5.391   5.215   6.025 -0.6945 -0.0927  0.9894
 5653SOL    HW222384   5.451   5.171   5.964 -2.9857 -0.1129 -1.4507
 5653SOL    HW322385   5.416   5.307   6.021 -0.4168 -0.1862  0.4770
 5653SOL    MW422386   5.402   5.221   6.016  0.5366  0.3161 -0.4988
 5654SOL     OW22387   4.212   6.028   2.335  0.5396 -0.6583 -0.4643
 5654SOL    HW222388   4.227   5.934   2.329 -0.2770 -0.8984  0.9043
 5654SOL    HW322389   4.238   6.050   2.425  0.1313  0.3115 -0.5761
 5654SOL    MW422390   4.218   6.019   2.346 -0.2043 -0.1681  0.8456
 5655SOL     OW22391   2.919   4.119   5.197 -0.5453  0.0499  0.4837
 5655SOL    HW222392   2.872   4.038   5.215  1.5948 -1.2771  0.5327
 5655SOL    HW322393   3.011   4.092   5.193  0.0319  2.0412 -2.0179
 5655SOL    MW422394   2.925   4.105   5.199 -0.1175  0.1544  0.4598
 5656SOL     OW22395   0.091   0.626   3.209 -0.1614  0.1955 -0.0566
 5656SOL    HW222396   0.027   0.564   3.174  0.4262 -0.1717 -0.4942
 5656SOL    HW322397   0.175   0.599   3.170  0.4051  0.1670  1.1368
 5656SOL    MW422398   0.094   0.614   3.199  0.5149  0.4023  0.4372
 5657SOL     OW22399   3.113   1.930   5.356 -0.6868 -0.2574 -0.4712
 5657SOL    HW222400   3.037   1.886   5.394 -0.4279 -0.4251 -0.1476
 5657SOL    HW322401   3.188   1.891   5.400 -0.4446  0.4201 -0.2653
 5657SOL    MW422402   3.113   1.919   5.367 -0.2719  0.1647 -0.3744
 5658SOL     OW22403   6.216   4.225   5.007 -0.1748 -0.3708  0.2656
 5658SOL    HW222404   6.274   4.161   4.967 -0.1164  0.0368 -0.3040
 5658SOL    HW322405   6.270   4.303   5.018 -0.8508  0.3153 -1.1104
 5658SOL    MW422406   6.231   4.227   5.003  0.4393  0.8476  0.5322
 5659SOL     OW22407   3.109   4.289   0.747  0.0814  0.6166 -0.8473
 5659SOL    HW222408   3.060   4.213   0.778 -0.7304  1.4365 -0.0596
 5659SOL    HW322409   3.157   4.257   0.671  0.0843 -0.7873 -0.2826
 5659SOL    MW422410   3.109   4.274   0.741  0.3322  0.2187 -0.8789
 5660SOL     OW22411   5.120   0.290   3.937 -0.3487 -0.2129 -0.3609
 5660SOL    HW222412   5.062   0.338   3.997  0.4722 -1.2754  1.3695
 5660SOL    HW322413   5.132   0.204   3.979 -0.2161 -1.2286 -2.3799
 5660SOL    MW422414   5.114   0.285   3.951 -0.3418 -0.2805  0.5742
 5661SOL     OW22415   3.281   0.086   4.636 -0.1172 -0.1680  0.5666
 5661SOL    HW222416   3.341   0.015   4.615  1.3640  1.1312  0.1729
 5661SOL    HW322417   3.333   0.146   4.690 -1.1935  0.8154  0.5617
 5661SOL    MW422418   3.296   0.085   4.641  0.4466 -0.2328  0.1269
 5662SOL     OW22419   0.355   0.974   0.031 -0.7660  0.1089  0.5904
 5662SOL    HW222420   0.392   1.055  -0.004 -0.9625  0.0341  0.2038
 5662SOL    HW322421   0.287   1.003   0.092 -0.3082  0.2418  1.0399
 5662SOL    MW422422   0.351   0.988   0.034  0.1445 -0.5722 -0.4779
 5663SOL     OW22423   1.653   0.205   3.823 -0.0804  0.4155  0.3297
 5663SOL    HW222424   1.608   0.233   3.743 -0.1525  0.0044  0.2264
 5663SOL    HW322425   1.598   0.135   3.858 -0.0055  0.5387  0.6976
 5663SOL    MW422426   1.639   0.200   3.817 -0.5419 -0.0573 -0.2306
 5664SOL     OW22427   3.658   0.579   0.677  0.5539  0.0346 -0.9628
 5664SOL    HW222428   3.624   0.509   0.622 -0.2207 -0.6035  0.2857
 5664SOL    HW322429   3.750   0.557   0.690  0.2589 -0.9256 -0.3726
 5664SOL    MW422430   3.666   0.567   0.672 -0.1589 -0.1360  0.2407
 5665SOL     OW22431   5.789   1.259   1.655  0.3629 -0.0485 -0.2660
 5665SOL    HW222432   5.876   1.241   1.621  0.4382  0.6716 -0.4687
 5665SOL    HW322433   5.761   1.176   1.694  1.3511 -0.1380  0.2810
 5665SOL    MW422434   5.797   1.246   1.656 -0.2196 -0.5470  0.5249
 5666SOL     OW22435   0.112   5.137   2.615 -0.3318 -0.6703 -0.0800
 5666SOL    HW222436   0.123   5.073   2.545  0.8500 -2.0927  1.3262
 5666SOL    HW322437   0.179   5.204   2.596  0.9892 -1.7933  0.4243
 5666SOL    MW422438   0.123   5.137   2.603  0.1332  0.2084  0.6128
 5667SOL     OW22439   0.239   6.257   3.340 -0.2985  0.5790 -0.0372
 5667SOL    HW222440   0.226   6.298   3.425 -1.9573  1.4807 -0.6943
 5667SOL    HW322441   0.168   6.193   3.332 -0.7626  1.1955 -1.1284
 5667SOL    MW422442   0.228   6.254   3.350 -0.4398  0.1788 -0.1294
 5668SOL     OW22443   0.838   4.415   3.386  0.3568  0.0238 -0.1889
 5668SOL    HW222444   0.924   4.434   3.422  0.8103 -1.3544 -0.4570
 5668SOL    HW322445   0.777   4.467   3.439  1.3292  0.9031  0.0906
 5668SOL    MW422446   0.841   4.424   3.398  0.1029 -0.2541  0.3897
 5669SOL     OW22447   2.151   2.013   2.174 -0.1988 -0.4772 -0.1739
 5669SOL    HW222448   2.225   2.068   2.146 -0.1869  0.0928  0.9480
 5669SOL    HW322449   2.178   1.978   2.259 -1.8575  1.0281  1.0303
 5669SOL    MW422450   2.164   2.015   2.181 -0.3438 -0.4996 -0.1000
 5670SOL     OW22451   4.245   2.426   2.687  0.7476  0.6549 -0.3088
 5670SOL    HW222452   4.339   2.408   2.692  0.9991  1.5505 -1.3969
 5670SOL    HW322453   4.223   2.463   2.772  1.3154  0.1639  0.0573
 5670SOL    MW422454   4.254   2.429   2.699  0.1978 -0.0467  0.1613
 5671SOL     OW22455   3.068   3.283   4.196 -0.4215  0.1362 -0.3927
 5671SOL    HW222456   3.075   3.359   4.138  0.6162 -0.5310 -1.1724
 5671SOL    HW322457   2.985   3.297   4.242 -0.1803  1.8228 -0.3812
 5671SOL    MW422458   3.058   3.295   4.194  0.6245  0.4982  0.2387
 5672SOL     OW22459   1.736   0.839   6.201  0.5871 -0.0103  0.5545
 5672SOL    HW222460   1.756   0.754   6.240 -1.0146  0.4586  2.6334
 5672SOL    HW322461   1.818   0.868   6.163  1.1936 -2.4159 -0.1335
 5672SOL    MW422462   1.749   0.832   6.201  0.1431  0.3029 -0.0662
 5673SOL     OW22463   0.240   6.039   4.275  0.3274  0.2226  0.0576
 5673SOL    HW222464   0.321   6.067   4.316  0.3762  0.1684 -0.0018
 5673SOL    HW322465   0.234   5.946   4.294 -0.0237  0.3456  0.5753
 5673SOL    MW422466   0.250   6.030   4.283  0.0915 -0.0253 -0.7387
 5674SOL     OW22467   0.589   0.442   1.017  0.3129  0.1325 -0.3976
 5674SOL    HW222468   0.589   0.532   0.985 -0.7350 -0.1304 -1.1838
 5674SOL    HW322469   0.601   0.389   0.938 -2.4162 -0.5362 -0.4519
 5674SOL    MW422470   0.591   0.447   1.002  0.0049  0.8997  0.3584
 5675SOL     OW22471   1.849   4.771   2.949  0.3525  0.0558  0.1938
 5675SOL    HW222472   1.786   4.732   2.888  0.5751 -0.0240  0.0137
 5675SOL    HW322473   1.863   4.859   2.915 -1.0251  0.7108  1.2485
 5675SOL    MW422474   1.843   4.777   2.936 -0.0986 -0.4620 -0.2580
 5676SOL     OW22475   1.171   5.947   5.043  0.0378 -0.2617 -0.1991
 5676SOL    HW222476   1.140   5.998   4.969 -0.4212 -0.3808 -0.0909
 5676SOL    HW322477   1.247   5.996   5.076 -1.6074  1.5086  1.1805
 5676SOL    MW422478   1.177   5.960   5.038 -0.4014 -0.1210  0.3768
 5677SOL     OW22479   6.409   2.386   3.532  0.3249 -0.0060 -0.3350
 5677SOL    HW222480   6.342   2.331   3.573 -0.0203 -0.0679 -0.9749
 5677SOL    HW322481   6.361   2.462   3.498  0.6005  0.0254 -0.6661
 5677SOL    MW422482   6.394   2.389   3.533 -0.0180  0.0318  0.3902
 5678SOL     OW22483   5.026   3.610   6.402  0.2264 -0.1952  0.1200
 5678SOL    HW222484   4.962   3.550   6.440 -1.7861  1.7742  0.0683
 5678SOL    HW322485   4.986   3.639   6.320  0.8819  1.5334  0.3606
 5678SOL    MW422486   5.013   3.606   6.396 -0.6408  0.5025  0.2570
 5679SOL     OW22487   5.116   2.013   1.023 -0.0975 -0.3312 -0.0930
 5679SOL    HW222488   5.102   1.919   1.035 -2.0444 -0.1001 -0.2964
 5679SOL    HW322489   5.170   2.039   1.098  1.2716 -1.7384 -0.5188
 5679SOL    MW422490   5.122   2.004   1.034 -0.3671  0.5366 -0.1063
 5680SOL     OW22491   4.997   3.784   0.943  0.0581 -0.6963 -0.3672
 5680SOL    HW222492   5.052   3.860   0.965 -1.3064  0.3142 -0.2731
 5680SOL    HW322493   4.917   3.823   0.907 -0.6840 -2.1086 -0.2987
 5680SOL    MW422494   4.994   3.799   0.941  0.1321 -0.1169 -0.4196
 5681SOL     OW22495   3.303   3.892   4.710 -0.0891 -0.7436 -0.8804
 5681SOL    HW222496   3.361   3.821   4.683 -0.6577 -1.3491 -0.5543
 5681SOL    HW322497   3.352   3.941   4.776  0.0133 -1.3195 -0.5240
 5681SOL    MW422498   3.317   3.889   4.715  0.5705  0.5127 -0.4045
 5682SOL     OW22499   5.360   3.602   3.049 -0.4713  0.3880  0.0577
 5682SOL    HW222500   5.302   3.603   2.972 -0.5499 -0.0918  0.1050
 5682SOL    HW322501   5.440   3.560   3.018 -1.0245 -1.1331  0.5843
 5682SOL    MW422502   5.363   3.596   3.035 -0.2037  0.5186 -0.5910
 5683SOL     OW22503   2.772   3.174   0.015 -0.5706  0.7437 -0.3238
 5683SOL    HW222504   2.794   3.108   0.081 -0.3165  0.6617 -0.4888
 5683SOL    HW322505   2.741   3.249   0.065 -0.4771  0.6428 -0.1153
 5683SOL    MW422506   2.771   3.175   0.030 -0.6372  0.7146 -0.2992
 5684SOL     OW22507   2.653   6.202   2.861  0.4058 -0.2884 -0.2907
 5684SOL    HW222508   2.692   6.117   2.880  1.1438  0.0139 -0.4540
 5684SOL    HW322509   2.679   6.222   2.771 -1.0916 -0.6049 -0.8374
 5684SOL    MW422510   2.661   6.193   2.852  0.4929  0.1589  0.2136
 5685SOL     OW22511   4.619   3.480   2.309 -0.1887  1.0776  0.5427
 5685SOL    HW222512   4.546   3.534   2.279  0.1239  0.7161 -0.9223
 5685SOL    HW322513   4.697   3.533   2.293  0.2269 -0.1705 -1.9813
 5685SOL    MW422514   4.620   3.494   2.303 -0.3385  0.1217 -0.0942
 5686SOL     OW22515   1.089   4.331   1.678 -0.2150 -0.3559 -0.1493
 5686SOL    HW222516   1.054   4.243   1.666 -1.9540  0.3751 -0.7024
 5686SOL    HW322517   1.133   4.351   1.596  0.7315 -0.9101  0.2000
 5686SOL    MW422518   1.091   4.322   1.666  0.7585 -0.5969 -0.1598
 5687SOL     OW22519   5.384   2.795   4.005  0.0997  0.2116  0.8220
 5687SOL    HW222520   5.326   2.860   3.966  0.5268  0.5054  0.6598
 5687SOL    HW322521   5.348   2.711   3.979 -0.9662  0.3557  1.7646
 5687SOL    MW422522   5.372   2.792   3.996  0.1620  0.2767 -0.3196
 5688SOL     OW22523   4.894   6.082   2.979  0.0674 -0.3244  0.0107
 5688SOL    HW222524   4.825   6.032   2.935  1.0253 -0.0027 -1.9709
 5688SOL    HW322525   4.904   6.161   2.926  2.0865 -0.4699  0.0980
 5688SOL    MW422526   4.886   6.085   2.966  0.4406 -0.2416 -0.4815
 5689SOL     OW22527   1.045   1.155   3.827 -0.0829  0.6603 -0.3730
 5689SOL    HW222528   0.951   1.139   3.839 -0.1342 -1.8964 -3.0821
 5689SOL    HW322529   1.087   1.078   3.865  0.7424  0.7759 -1.0313
 5689SOL    MW422530   1.038   1.143   3.833  0.1896  0.0143 -0.4628
 5690SOL     OW22531   2.866   5.644   2.612 -0.3905 -0.2547  0.0975
 5690SOL    HW222532   2.855   5.582   2.539  1.3218 -0.4075 -0.0587
 5690SOL    HW322533   2.823   5.724   2.582  0.6657 -0.1732 -1.2975
 5690SOL    MW422534   2.859   5.646   2.598  0.5287 -0.7152 -0.1562
 5691SOL     OW22535   2.262   4.990   5.808  0.1131  0.0613 -0.2101
 5691SOL    HW222536   2.211   4.910   5.801 -0.5018  0.2455  1.6115
 5691SOL    HW322537   2.225   5.048   5.742  0.0840 -0.9026 -1.0512
 5691SOL    MW422538   2.250   4.987   5.799 -0.1245 -0.8487 -0.1054
 5692SOL     OW22539   1.921   5.970   0.027  0.0582 -0.4088  0.6804
 5692SOL    HW222540   1.838   5.949   0.071 -0.4592  0.0963 -0.0157
 5692SOL    HW322541   1.961   6.037   0.082 -0.4174 -0.0303  0.5718
 5692SOL    MW422542   1.915   5.976   0.040  0.8700  0.0738 -0.2552
 5693SOL     OW22543   4.908   2.175   0.424  0.1934 -0.0418 -0.3328
 5693SOL    HW222544   4.934   2.233   0.353  2.1856 -1.2561 -0.6829
 5693SOL    HW322545   4.991   2.145   0.462 -0.7960 -1.1140  1.1066
 5693SOL    MW422546   4.923   2.179   0.420  0.4312  0.5223 -0.7786
 5694SOL     OW22547   2.556   0.185   6.247  0.4067 -0.1742  0.5133
 5694SOL    HW222548   2.554   0.281   6.241 -1.5361 -0.2526 -2.0232
 5694SOL    HW322549   2.646   0.162   6.225  0.9285  1.0607  1.2336
 5694SOL    MW422550   2.568   0.195   6.243  0.3009  0.0456  0.0205
 5695SOL     OW22551   6.214   5.812   6.314 -0.4635  1.0030 -0.0910
 5695SOL    HW222552   6.255   5.825   6.400 -0.4999  1.3995 -0.1330
 5695SOL    HW322553   6.138   5.757   6.332  0.4352 -0.2836 -0.0988
 5695SOL    MW422554   6.209   5.806   6.327 -0.1115 -0.4414  0.2811
 5696SOL     OW22555   3.532   6.420   4.301  0.0724 -0.2928 -0.0445
 5696SOL    HW222556   3.499   6.373   4.377 -1.5715  0.4666 -0.2523
 5696SOL    HW322557   3.512   6.512   4.318 -1.9711 -0.2544 -2.1176
 5696SOL    MW422558   3.525   6.426   4.313  0.0654  0.6313  0.0268
 5697SOL     OW22559   1.014   2.944   2.080  0.4364 -0.9049  0.2681
 5697SOL    HW222560   0.969   2.923   1.998  1.0393  3.6055 -1.5140
 5697SOL    HW322561   0.945   2.975   2.138  0.5577  2.2189 -1.0623
 5697SOL    MW422562   0.999   2.945   2.077 -0.0942  0.2451  0.2766
 5698SOL     OW22563   2.658   2.332   3.394 -0.0921  0.0555  0.0641
 5698SOL    HW222564   2.573   2.374   3.377 -0.1349  0.3593  0.9617
 5698SOL    HW322565   2.683   2.364   3.481  0.9015 -0.1047 -0.1524
 5698SOL    MW422566   2.650   2.342   3.403  0.2483  0.2555  0.2130
 5699SOL     OW22567   0.013   6.260   0.560  0.1116  0.1679  0.1867
 5699SOL    HW222568   0.005   6.289   0.651 -2.9149  0.5721 -0.1249
 5699SOL    HW322569  -0.027   6.329   0.509  3.4475  0.8606 -1.7634
 5699SOL    MW422570   0.007   6.273   0.566 -0.1464 -0.3345  0.6977
 5700SOL     OW22571   1.157   4.672   2.863 -0.4634 -0.2927 -0.6976
 5700SOL    HW222572   1.201   4.676   2.948 -0.1510  0.6237 -0.8813
 5700SOL    HW322573   1.171   4.583   2.832 -2.0960 -1.1797  0.9702
 5700SOL    MW422574   1.165   4.661   2.870  0.5067  0.6263  0.2473
 5701SOL     OW22575   0.790   3.418   0.149 -0.6742  0.6356 -0.3098
 5701SOL    HW222576   0.726   3.347   0.138 -1.7270  1.5303 -0.1187
 5701SOL    HW322577   0.857   3.381   0.206 -1.2973 -0.1571 -0.0706
 5701SOL    MW422578   0.790   3.403   0.155  0.4103  0.0495 -0.6999
 5702SOL     OW22579   2.960   2.567   5.554 -0.5193  0.2815  0.5022
 5702SOL    HW222580   3.020   2.541   5.484  1.5480  1.2092  1.8262
 5702SOL    HW322581   2.896   2.623   5.511 -0.0520 -0.1626 -0.8435
 5702SOL    MW422582   2.960   2.571   5.539 -0.8115 -0.0995 -0.1622
 5703SOL     OW22583   0.935   5.274   4.947 -0.6848 -0.0445  0.0669
 5703SOL    HW222584   0.974   5.349   4.902  0.9148 -1.0341 -0.2913
 5703SOL    HW322585   0.934   5.299   5.039  0.3119  0.2404  0.0126
 5703SOL    MW422586   0.940   5.288   4.953 -0.6234  0.1404 -0.4449
 5704SOL     OW22587   3.427   5.120   5.239  0.3845  0.3908 -0.1371
 5704SOL    HW222588   3.515   5.082   5.241 -0.0648 -0.6702  0.7247
 5704SOL    HW322589   3.383   5.075   5.168 -0.0517 -0.5249  0.6856
 5704SOL    MW422590   3.433   5.109   5.230 -0.2484 -0.2855  0.4144
 5705SOL     OW22591   2.891   1.013   2.109  0.5250 -0.0684  0.4426
 5705SOL    HW222592   2.845   1.017   2.026  2.0045 -1.0636 -0.4812
 5705SOL    HW322593   2.954   1.085   2.105 -0.3936  0.8028  1.3527
 5705SOL    MW422594   2.893   1.023   2.097 -0.0300  0.5742  0.0075
 5706SOL     OW22595   1.559   3.138   2.763  0.1507 -0.0039 -0.1730
 5706SOL    HW222596   1.495   3.084   2.716  0.5872 -1.0156  0.3563
 5706SOL    HW322597   1.643   3.095   2.746  0.5056  0.4988  0.2918
 5706SOL    MW422598   1.562   3.125   2.754 -0.3643 -0.1254  0.0836
 5707SOL     OW22599   1.068   6.168   0.051  0.2855  0.2893 -0.6047
 5707SOL    HW222600   1.143   6.201  -0.000 -0.5069  0.5601 -1.6381
 5707SOL    HW322601   1.000   6.234   0.039  0.3569  0.8412  1.6248
 5707SOL    MW422602   1.069   6.181   0.042 -0.8469  0.5199  0.7067
 5708SOL     OW22603   1.380   1.446   1.730 -0.1925  0.1106 -0.3914
 5708SOL    HW222604   1.384   1.533   1.689  3.0380 -0.6513 -1.9865
 5708SOL    HW322605   1.348   1.389   1.660  0.1787 -0.3796 -0.1612
 5708SOL    MW422606   1.376   1.450   1.715  0.4060  0.6018 -0.2866
 5709SOL     OW22607   2.289   4.871   3.218  0.4575 -0.0376  0.0744
 5709SOL    HW222608   2.203   4.881   3.258  0.4874 -2.0569  0.7605
 5709SOL    HW322609   2.346   4.930   3.267 -0.1100 -0.2798  1.0366
 5709SOL    MW422610   2.285   4.880   3.230 -0.4652  0.2853 -0.1738
 5710SOL     OW22611   0.867   0.172   4.307 -0.1512 -0.3308  0.9405
 5710SOL    HW222612   0.882   0.079   4.292  2.0444 -0.0016  0.7632
 5710SOL    HW322613   0.914   0.216   4.236 -1.8504  0.9124  0.5267
 5710SOL    MW422614   0.875   0.166   4.296  0.2269 -0.3892 -0.3259
 5711SOL     OW22615   5.671   4.306   3.601 -0.3119 -0.2628  0.0403
 5711SOL    HW222616   5.693   4.279   3.690 -1.3734  0.0475  0.4180
 5711SOL    HW322617   5.673   4.402   3.605  0.3001 -0.2519 -0.4535
 5711SOL    MW422618   5.674   4.315   3.614 -0.5130  0.3058  0.6232
 5712SOL     OW22619   4.550   1.003   5.964 -0.9716 -0.0211  0.3524
 5712SOL    HW222620   4.520   1.074   6.022  1.8820  1.7078 -0.0704
 5712SOL    HW322621   4.573   0.932   6.024  0.2577  1.0833  1.2599
 5712SOL    MW422622   4.549   1.003   5.980  0.1125 -0.3709 -0.0057
 5713SOL     OW22623   1.506   2.321   2.347 -0.3925  0.9861  0.2686
 5713SOL    HW222624   1.521   2.257   2.278 -2.3520  0.2654  0.4448
 5713SOL    HW322625   1.580   2.381   2.341  1.4671 -1.1897  0.0227
 5713SOL    MW422626   1.517   2.321   2.337 -0.2585 -0.4233  0.0533
 5714SOL     OW22627   1.231   5.771   1.349 -0.2626 -0.2774  0.0822
 5714SOL    HW222628   1.139   5.789   1.331 -0.5397 -0.5970  1.1257
 5714SOL    HW322629   1.241   5.678   1.331  0.3560  0.1216 -1.9567
 5714SOL    MW422630   1.220   5.761   1.344  0.1151 -0.0753  1.0586
 5715SOL     OW22631   3.015   4.935   0.075 -0.6127 -0.0461  0.6003
 5715SOL    HW222632   3.022   4.887   0.158 -1.1691 -1.0711  0.0759
 5715SOL    HW322633   3.106   4.955   0.052 -0.1680 -2.4609 -0.0483
 5715SOL    MW422634   3.028   4.931   0.083  0.4332  0.4651 -0.3005
 5716SOL     OW22635   0.117   3.283   0.977  0.2980 -0.2329  0.2046
 5716SOL    HW222636   0.210   3.294   0.957  0.1762 -1.9741 -1.5692
 5716SOL    HW322637   0.114   3.214   1.043  0.2328 -0.5388 -0.1191
 5716SOL    MW422638   0.129   3.275   0.983  0.2059 -0.2713  0.0760
 5717SOL     OW22639   3.092   2.740   0.873 -0.2215  0.2844 -0.3589
 5717SOL    HW222640   3.014   2.736   0.817 -2.0698 -0.7417  2.0649
 5717SOL    HW322641   3.134   2.655   0.861  0.3235  0.6912 -1.3868
 5717SOL    MW422642   3.087   2.728   0.864  0.3446 -0.2754 -0.1968
 5718SOL     OW22643   3.736   6.226   2.599  0.9170  0.2195 -0.4437
 5718SOL    HW222644   3.801   6.179   2.546  0.9905  1.5472 -1.5914
 5718SOL    HW322645   3.714   6.303   2.546  0.5793  1.3164  1.2302
 5718SOL    MW422646   3.742   6.230   2.585 -0.5036  0.4306  0.5285
 5719SOL     OW22647   5.193   5.427   4.725  0.1686 -0.0557 -0.0346
 5719SOL    HW222648   5.144   5.469   4.796  1.4139 -1.2074  1.5660
 5719SOL    HW322649   5.130   5.422   4.653 -0.4062  3.4282  0.0482
 5719SOL    MW422650   5.178   5.432   4.725 -0.3278  0.0212 -0.8116
 5720SOL     OW22651   3.699   0.709   6.235 -0.9129  0.2003 -0.0486
 5720SOL    HW222652   3.608   0.738   6.228 -1.4462 -1.2325  0.5205
 5720SOL    HW322653   3.725   0.691   6.144 -2.1792 -2.0799 -0.0518
 5720SOL    MW422654   3.690   0.710   6.222 -0.1106 -0.1327  0.2560
 5721SOL     OW22655   1.419   0.347   3.031 -1.3730 -0.3986 -0.3022
 5721SOL    HW222656   1.477   0.423   3.039 -1.6097 -0.4138  2.5570
 5721SOL    HW322657   1.474   0.279   2.990  0.4782 -0.1813  1.6382
 5721SOL    MW422658   1.434   0.348   3.027 -0.2060  0.1058  0.2912
 5722SOL     OW22659   5.698   0.272   5.946  0.0291 -0.2075 -0.4429
 5722SOL    HW222660   5.709   0.364   5.970 -0.4243 -0.2807  0.0531
 5722SOL    HW322661   5.604   0.257   5.950 -0.0543 -0.2800 -2.0605
 5722SOL    MW422662   5.687   0.282   5.950  0.0647  0.1256  0.5756
 5723SOL     OW22663   3.747   3.767   1.636 -0.1765 -0.3722  0.0434
 5723SOL    HW222664   3.660   3.796   1.609 -0.1867 -1.5148 -1.2512
 5723SOL    HW322665   3.797   3.848   1.646 -1.0489  0.2428 -0.4178
 5723SOL    MW422666   3.742   3.782   1.633  0.4743  0.5588 -0.2705
 5724SOL     OW22667   5.405   4.266   0.402  0.3981  0.2923 -0.0346
 5724SOL    HW222668   5.378   4.201   0.337  1.3601 -1.1702  0.9679
 5724SOL    HW322669   5.497   4.246   0.418  0.2611  0.8187  1.5393
 5724SOL    MW422670   5.413   4.255   0.395  0.1455 -0.0486  0.0078
 5725SOL     OW22671   5.682   2.165   0.646  0.2808 -0.2055 -0.5698
 5725SOL    HW222672   5.758   2.190   0.594  0.9287  0.7079  0.7904
 5725SOL    HW322673   5.704   2.079   0.681  0.2360 -0.4030 -1.0175
 5725SOL    MW422674   5.695   2.157   0.644  0.3319  0.6646  0.0789
 5726SOL     OW22675   2.603   2.628   5.751  0.5437 -0.4787 -0.3064
 5726SOL    HW222676   2.637   2.554   5.700 -0.7124  0.1759 -2.1935
 5726SOL    HW322677   2.518   2.647   5.712  0.7192  1.7967  0.2929
 5726SOL    MW422678   2.597   2.621   5.739 -0.0494  0.2053  0.2335
 5727SOL     OW22679   0.891   0.484   1.372 -0.2627  0.4766  0.1671
 5727SOL    HW222680   0.803   0.450   1.353 -0.1826 -0.3259  1.1408
 5727SOL    HW322681   0.921   0.519   1.289 -1.2506  0.1639 -0.3463
 5727SOL    MW422682   0.883   0.484   1.359 -0.0933 -0.2116  1.0160
 5728SOL     OW22683   4.683   4.433   1.690  0.1203  0.2568  0.3019
 5728SOL    HW222684   4.627   4.511   1.695 -0.9050 -0.5129  4.2649
 5728SOL    HW322685   4.625   4.364   1.659  0.0923  0.3733  0.0944
 5728SOL    MW422686   4.668   4.434   1.687 -0.4742  0.1354 -0.2350
 5729SOL     OW22687   2.576   1.123   1.349 -0.4291 -0.5298 -0.5406
 5729SOL    HW222688   2.538   1.176   1.279 -0.4196 -0.6832 -0.6616
 5729SOL    HW322689   2.515   1.131   1.422  0.5737  1.3672  0.1853
 5729SOL    MW422690   2.563   1.131   1.349  0.0686  0.0378  0.2840
 5730SOL     OW22691   0.016   5.295   5.925 -0.0469 -0.5032  0.1808
 5730SOL    HW222692   0.030   5.201   5.920  0.6637 -0.3897  0.0295
 5730SOL    HW322693  -0.060   5.304   5.984  1.8057 -1.0217  2.8414
 5730SOL    MW422694   0.008   5.284   5.932  0.2661 -0.4621 -0.3017
 5731SOL     OW22695   6.036   2.689   4.289 -0.0752  0.6833 -0.7164
 5731SOL    HW222696   6.080   2.608   4.314 -2.1982 -0.6611 -1.1425
 5731SOL    HW322697   6.065   2.705   4.199 -0.0836  0.0941 -0.8256
 5731SOL    MW422698   6.046   2.680   4.280 -0.5264 -0.0241  0.5169
 5732SOL     OW22699   2.665   3.227   2.675  0.0473 -0.8090  0.0410
 5732SOL    HW222700   2.749   3.243   2.719 -0.4787 -2.4576  1.8007
 5732SOL    HW322701   2.648   3.307   2.626  1.1371  0.8245  2.1504
 5732SOL    MW422702   2.674   3.240   2.675  0.0102  0.4392  0.1239
 5733SOL     OW22703   2.013   0.532   2.129  0.4595  0.3008 -0.0621
 5733SOL    HW222704   2.074   0.604   2.146  1.1420 -0.0175 -1.0496
 5733SOL    HW322705   1.951   0.567   2.065 -0.3251  0.5731  0.8216
 5733SOL    MW422706   2.013   0.546   2.123 -0.2029 -0.3353  0.1603
 5734SOL     OW22707   3.625   4.032   1.797 -0.3017 -1.1226  0.2030
 5734SOL    HW222708   3.710   4.014   1.756 -0.7567  0.4884 -1.5477
 5734SOL    HW322709   3.646   4.042   1.890  1.1179 -2.5733  0.0945
 5734SOL    MW422710   3.639   4.031   1.804  0.2919 -0.0172  0.2254
 5735SOL     OW22711   6.020   3.635   2.014  0.1344 -0.1942  0.2007
 5735SOL    HW222712   5.962   3.705   2.042  0.1165  0.0404 -0.4087
 5735SOL    HW322713   5.993   3.616   1.924  0.6260 -0.4749  0.1080
 5735SOL    MW422714   6.009   3.641   2.005 -0.3108  0.3978  0.0237
 5736SOL     OW22715   0.209   2.904   1.452  0.0068 -0.0095 -0.3331
 5736SOL    HW222716   0.250   2.967   1.394  0.7357 -0.7045 -0.5834
 5736SOL    HW322717   0.233   2.818   1.417 -1.2185 -0.4456 -0.1791
 5736SOL    MW422718   0.217   2.901   1.440  0.0666 -0.0074  0.0054
 5737SOL     OW22719   2.810   5.161   3.104 -0.2559  0.1533  0.4706
 5737SOL    HW222720   2.750   5.235   3.103 -0.9505 -0.3574  1.8004
 5737SOL    HW322721   2.883   5.190   3.159  0.0250  0.2590  0.0435
 5737SOL    MW422722   2.812   5.174   3.111  0.9580  0.3939  0.0253
 5738SOL     OW22723   3.182   3.129   1.592  0.1437  0.1570  0.5078
 5738SOL    HW222724   3.150   3.175   1.515  1.0865  0.4716  0.2846
 5738SOL    HW322725   3.178   3.193   1.663 -1.6909 -0.4344  0.9832
 5738SOL    MW422726   3.178   3.143   1.591 -0.1094  0.0195  0.3833
 5739SOL     OW22727   3.457   4.119   0.119  0.7797 -0.2481  0.3616
 5739SOL    HW222728   3.470   4.194   0.177  2.6228  0.6629 -1.1215
 5739SOL    HW322729   3.545   4.089   0.098  0.1971 -0.6217 -1.8193
 5739SOL    MW422730   3.470   4.125   0.124 -0.4209  0.4398  0.6955
 5740SOL     OW22731   3.222   1.488   0.527  0.0691 -0.0496  0.5717
 5740SOL    HW222732   3.131   1.483   0.498  0.4112  0.6771 -0.6956
 5740SOL    HW322733   3.251   1.397   0.529 -0.1320 -0.1699 -0.9097
 5740SOL    MW422734   3.214   1.475   0.523 -0.9799  0.8119  0.0661
 5741SOL     OW22735   6.311   4.978   2.796  0.2536  0.0462  0.3005
 5741SOL    HW222736   6.289   4.929   2.875  0.9493 -2.6955 -1.0848
 5741SOL    HW322737   6.228   4.982   2.747  0.0753  0.7677  0.6495
 5741SOL    MW422738   6.297   4.972   2.800  0.3511 -0.1541  0.3474
 5742SOL     OW22739   4.916   0.495   4.028  0.0568  0.1898  0.1904
 5742SOL    HW222740   4.961   0.578   4.017 -0.4695  0.3222 -1.1372
 5742SOL    HW322741   4.841   0.515   4.084 -0.2852  0.6899 -0.4427
 5742SOL    MW422742   4.912   0.508   4.034 -0.2198 -0.3964  0.0086
 5743SOL     OW22743   1.413   2.891   0.046  1.0671  0.4291 -0.0829
 5743SOL    HW222744   1.465   2.887  -0.034 -0.4057  3.4483 -1.3506
 5743SOL    HW322745   1.477   2.886   0.117  2.5528 -0.7156 -1.4345
 5743SOL    MW422746   1.428   2.890   0.045 -0.2257 -0.4966 -0.7634
 5744SOL     OW22747   4.580   6.445   1.617  0.4487 -0.0374  0.4973
 5744SOL    HW222748   4.608   6.485   1.534  0.5163  1.5258  1.2471
 5744SOL    HW322749   4.644   6.475   1.681  0.7505 -1.7153  1.0477
 5744SOL    MW422750   4.592   6.454   1.614 -0.2906 -0.3018  0.0668
 5745SOL     OW22751   4.770   0.221   3.943 -0.2753  0.6838  0.1941
 5745SOL    HW222752   4.728   0.273   4.013  2.9580  1.2190  1.9238
 5745SOL    HW322753   4.799   0.286   3.880 -0.1523  0.5247  0.0882
 5745SOL    MW422754   4.768   0.237   3.944  0.0146  0.3265  0.1095
 5746SOL     OW22755   2.084   2.537   5.916 -0.3698  0.1323 -0.3168
 5746SOL    HW222756   1.991   2.514   5.918 -0.4100 -0.1162 -2.5561
 5746SOL    HW322757   2.125   2.462   5.872  0.6933  0.8490 -0.5577
 5746SOL    MW422758   2.077   2.524   5.910  0.4173  0.2163  0.0508
 5747SOL     OW22759   1.677   1.112   1.673 -0.7278  0.2535  0.4678
 5747SOL    HW222760   1.663   1.114   1.768 -3.2687  1.2151  0.1590
 5747SOL    HW322761   1.671   1.204   1.646 -2.5248 -0.1941 -0.8616
 5747SOL    MW422762   1.674   1.125   1.682  0.0452 -1.0308 -0.4554
 5748SOL     OW22763   6.281   1.648   3.634  0.2894  0.2955  0.0922
 5748SOL    HW222764   6.215   1.618   3.572  1.8592 -1.6846 -0.7228
 5748SOL    HW322765   6.315   1.729   3.596 -0.0806  0.1195 -0.6256
 5748SOL    MW422766   6.277   1.655   3.621  0.3807  0.0632  0.4494
 5749SOL     OW22767   1.288   3.705   0.776  0.3364  0.3611 -0.3247
 5749SOL    HW222768   1.378   3.681   0.756  0.6424  1.3250 -0.1769
 5749SOL    HW322769   1.278   3.686   0.869  0.7535  1.2925 -0.0774
 5749SOL    MW422770   1.299   3.699   0.786  0.1625  0.5635 -0.0220
 5750SOL     OW22771   0.807   2.830   3.254 -0.3561  0.0490  0.6258
 5750SOL    HW222772   0.884   2.775   3.264 -1.3287 -1.0607  2.6008
 5750SOL    HW322773   0.792   2.834   3.160  1.4618 -0.5908  0.2698
 5750SOL    MW422774   0.815   2.824   3.243  0.1448  0.0128  0.0821
 5751SOL     OW22775   4.910   4.040   3.042 -0.0621  0.8764 -0.6820
 5751SOL    HW222776   4.997   4.058   3.078  0.0713  0.2277 -0.6686
 5751SOL    HW322777   4.850   4.051   3.116 -0.3100  3.6074 -1.1574
 5751SOL    MW422778   4.913   4.044   3.056  0.1356  0.3445  0.8120
 5752SOL     OW22779   4.714   4.703   0.184  0.1805 -0.2633 -0.2401
 5752SOL    HW222780   4.699   4.737   0.272  0.8476 -0.5826  0.0034
 5752SOL    HW322781   4.766   4.770   0.141  0.4735 -0.4331 -0.1519
 5752SOL    MW422782   4.719   4.716   0.190  0.3764  0.3921 -0.5796
 5753SOL     OW22783   3.539   2.405   4.807 -0.0036 -0.0379 -0.0492
 5753SOL    HW222784   3.521   2.355   4.728  0.6162  1.6179 -1.3007
 5753SOL    HW322785   3.622   2.449   4.789  0.0732  0.4835  1.4651
 5753SOL    MW422786   3.547   2.404   4.794  0.0730  0.1546  0.7713
 5754SOL     OW22787   5.839   1.250   1.205  0.3207 -0.3507  0.4191
 5754SOL    HW222788   5.834   1.325   1.147 -0.6940  0.0091  0.9446
 5754SOL    HW322789   5.828   1.174   1.148  0.2510 -0.0439  0.0242
 5754SOL    MW422790   5.837   1.250   1.190  0.1436  0.2606  0.1999
 5755SOL     OW22791   4.700   6.043   3.419 -0.3191  0.8580 -0.5867
 5755SOL    HW222792   4.777   5.986   3.421 -2.1449 -1.7679  0.6676
 5755SOL    HW322793   4.675   6.053   3.511 -2.4151  0.2593 -1.0503
 5755SOL    MW422794   4.707   6.037   3.431  0.2202  0.3749 -0.2993
 5756SOL     OW22795   5.585   3.212   1.264 -0.3680 -0.0232 -0.2980
 5756SOL    HW222796   5.641   3.231   1.189 -0.9272  0.8521 -0.5144
 5756SOL    HW322797   5.559   3.120   1.252  0.2949 -0.1650 -0.6727
 5756SOL    MW422798   5.589   3.202   1.252 -0.1799  0.1033 -0.5523
 5757SOL     OW22799   1.873   3.282   5.669 -0.4032  0.5806  0.2750
 5757SOL    HW222800   1.816   3.357   5.679 -0.7549  0.3044  0.3632
 5757SOL    HW322801   1.854   3.249   5.580  1.1575  1.7512 -0.5428
 5757SOL    MW422802   1.863   3.287   5.658  0.5303  0.1054 -0.2396
 5758SOL     OW22803   4.583   4.888   6.217  0.4516 -0.5568 -0.1642
 5758SOL    HW222804   4.510   4.906   6.158 -0.8954 -1.1679  1.2575
 5758SOL    HW322805   4.547   4.899   6.305  1.7728 -1.9278  0.6047
 5758SOL    MW422806   4.569   4.892   6.221  0.5044  0.1745  0.1976
 5759SOL     OW22807   4.455   6.058   1.191 -0.7678 -0.2691  0.2690
 5759SOL    HW222808   4.502   6.128   1.237 -1.8746  1.2895 -0.8878
 5759SOL    HW322809   4.363   6.078   1.204 -1.1094 -1.2233 -0.5550
 5759SOL    MW422810   4.449   6.070   1.199 -0.1594  0.2993 -0.9639
 5760SOL     OW22811   3.935   5.767   6.241 -0.6015 -0.0120  0.5531
 5760SOL    HW222812   4.013   5.715   6.261 -0.7491 -0.3659  0.2310
 5760SOL    HW322813   3.968   5.848   6.204 -0.3539  0.2874  1.4110
 5760SOL    MW422814   3.950   5.771   6.239  0.1052  0.2322  0.1580
 5761SOL     OW22815   0.721   3.182   4.233 -0.2148 -0.1653 -0.0009
 5761SOL    HW222816   0.652   3.237   4.195  1.1455  0.1104 -2.2797
 5761SOL    HW322817   0.802   3.219   4.199  0.8478 -2.5205 -0.2063
 5761SOL    MW422818   0.723   3.194   4.223  0.2146  0.6799 -0.2216
 5762SOL     OW22819   0.847   1.225   2.986  0.7082  0.1080 -0.1478
 5762SOL    HW222820   0.857   1.279   2.908  1.4376 -1.4134 -1.1595
 5762SOL    HW322821   0.926   1.172   2.989 -0.8306 -2.3979 -0.4232
 5762SOL    MW422822   0.858   1.225   2.976 -0.2591 -0.3415 -0.7699
 5763SOL     OW22823   2.296   4.506   3.885  0.0004 -0.1734 -0.3906
 5763SOL    HW222824   2.371   4.548   3.928  0.5700  0.5564 -1.9978
 5763SOL    HW322825   2.266   4.441   3.948  1.1977  0.3793  0.8178
 5763SOL    MW422826   2.302   4.503   3.899 -0.0944 -0.6488  0.3126
 5764SOL     OW22827   6.162   3.971   3.611 -0.0880  0.8477  0.0443
 5764SOL    HW222828   6.174   3.917   3.689  1.0016 -0.9113 -1.2540
 5764SOL    HW322829   6.089   4.028   3.632 -2.1229 -1.9229  1.1598
 5764SOL    MW422830   6.154   3.971   3.624  0.3222 -0.1635 -0.3615
 5765SOL     OW22831   6.166   3.741   4.103  0.1510 -0.1686 -0.1683
 5765SOL    HW222832   6.255   3.706   4.100  0.0188 -0.5208 -0.0811
 5765SOL    HW322833   6.152   3.763   4.195  0.7308  1.4520 -0.4251
 5765SOL    MW422834   6.176   3.739   4.115  0.1678  0.0655 -0.5087
 5766SOL     OW22835   5.447   3.598   0.501  0.1297 -0.1382 -0.1336
 5766SOL    HW222836   5.383   3.669   0.502 -0.6486 -0.8192 -0.4083
 5766SOL    HW322837   5.465   3.583   0.408 -2.0893 -2.3439 -0.3164
 5766SOL    MW422838   5.441   3.605   0.489 -0.2415 -0.0628 -0.5761
 5767SOL     OW22839   6.164   5.536   2.930  0.1781 -0.1842 -0.4714
 5767SOL    HW222840   6.204   5.552   2.844 -2.2765  1.2240 -1.4491
 5767SOL    HW322841   6.168   5.620   2.975 -1.4577 -0.0345 -0.5413
 5767SOL    MW422842   6.170   5.549   2.925  0.3491  0.5569 -0.4913
 5768SOL     OW22843   3.793   4.956   4.705  0.3832  0.0027 -0.4102
 5768SOL    HW222844   3.822   5.018   4.638  2.6278  0.4431  0.8502
 5768SOL    HW322845   3.716   4.996   4.744  0.6834  1.0841 -0.8860
 5768SOL    MW422846   3.787   4.969   4.701  0.1282 -0.0132  0.1061
 5769SOL     OW22847   2.334   4.857   6.053 -0.2432  0.2161 -0.0201
 5769SOL    HW222848   2.367   4.772   6.023 -1.0265 -0.1735  0.2063
 5769SOL    HW322849   2.327   4.909   5.973 -0.3040 -0.1163 -0.2312
 5769SOL    MW422850   2.338   4.853   6.038  0.3304  0.4048 -0.0755
 5770SOL     OW22851   5.271   5.429   2.130  0.6621 -0.0893 -0.2717
 5770SOL    HW222852   5.230   5.515   2.124 -0.3617 -0.5846 -0.6266
 5770SOL    HW322853   5.244   5.384   2.050 -0.0926 -1.2695  0.6098
 5770SOL    MW422854   5.262   5.434   2.119  0.2141 -0.4095  0.1965
 5771SOL     OW22855   1.381   2.165   2.991 -0.9304  0.1556 -0.0778
 5771SOL    HW222856   1.432   2.086   3.009  0.5959  1.0843 -0.1519
 5771SOL    HW322857   1.360   2.201   3.077 -0.6233  0.2852 -0.0566
 5771SOL    MW422858   1.385   2.159   3.005 -0.3330 -0.0502 -0.1062
 5772SOL     OW22859   5.692   6.080   0.906  0.2381  0.2701  0.2254
 5772SOL    HW222860   5.745   6.001   0.906  0.1701 -0.1088 -4.9248
 5772SOL    HW322861   5.615   6.058   0.853 -0.7550  3.2234  0.2520
 5772SOL    MW422862   5.689   6.067   0.899 -0.1187 -0.5640 -0.6895
 5773SOL     OW22863   3.148   3.687   6.077 -0.1143 -0.1804 -0.1551
 5773SOL    HW222864   3.121   3.655   5.991  1.5794  0.8866 -1.1540
 5773SOL    HW322865   3.244   3.694   6.070 -0.1814  2.9513  0.6794
 5773SOL    MW422866   3.157   3.684   6.065 -0.4844 -0.2877  0.3006
 5774SOL     OW22867   6.371   4.767   5.706 -0.0431 -0.1879 -0.2645
 5774SOL    HW222868   6.392   4.836   5.643  0.8359 -1.1280 -1.0582
 5774SOL    HW322869   6.308   4.711   5.660 -1.7264  0.7307  0.8338
 5774SOL    MW422870   6.365   4.769   5.691 -0.4013 -0.5218 -0.2641
 5775SOL     OW22871   3.213   0.911   5.734  0.2030  0.4387  0.0762
 5775SOL    HW222872   3.290   0.963   5.712  1.2802 -0.9358  0.4609
 5775SOL    HW322873   3.187   0.942   5.821  2.1493 -1.0566  1.2698
 5775SOL    MW422874   3.220   0.922   5.742  0.2939 -0.0616 -0.4452
 5776SOL     OW22875   4.464   3.013   2.604  0.1902 -0.9214  0.7862
 5776SOL    HW222876   4.457   3.048   2.515 -0.8000 -1.7285  0.5376
 5776SOL    HW322877   4.514   2.932   2.595 -0.4406 -1.3263  0.8655
 5776SOL    MW422878   4.470   3.007   2.591 -0.2241 -0.5036 -0.4296
 5777SOL     OW22879   1.592   4.791   0.985  0.1641 -0.0065 -0.1886
 5777SOL    HW222880   1.602   4.794   0.890  0.1959  0.6193 -0.1667
 5777SOL    HW322881   1.535   4.715   1.000  0.3810 -0.2760 -0.6832
 5777SOL    MW422882   1.586   4.781   0.974 -0.3741 -0.0645  0.0698
 5778SOL     OW22883   6.384   3.046   1.403 -0.0485 -0.1189 -0.1218
 5778SOL    HW222884   6.333   3.014   1.477  0.2611  1.6278  0.9136
 5778SOL    HW322885   6.449   2.978   1.388 -0.0221 -0.4631  1.3341
 5778SOL    MW422886   6.386   3.033   1.411 -0.3004 -0.5850  0.2530
 5779SOL     OW22887   2.165   4.522   2.440  0.0695 -0.1301  0.3642
 5779SOL    HW222888   2.149   4.522   2.535 -2.8040  0.2258 -0.0321
 5779SOL    HW322889   2.138   4.435   2.412 -2.5636  0.8457 -0.5003
 5779SOL    MW422890   2.159   4.511   2.449 -0.1472  0.1248 -0.1615
 5780SOL     OW22891   5.571   5.983   5.279 -0.1823 -0.6601 -0.1268
 5780SOL    HW222892   5.654   5.959   5.320  1.3273  1.1143 -1.9588
 5780SOL    HW322893   5.549   6.067   5.319 -0.2864 -0.3818 -0.7644
 5780SOL    MW422894   5.579   5.991   5.290  0.1986 -0.0683 -0.3862
 5781SOL     OW22895   2.547   5.579   1.062  0.2193  0.5568 -0.5427
 5781SOL    HW222896   2.562   5.488   1.035 -0.3149  0.3433 -0.1276
 5781SOL    HW322897   2.459   5.579   1.100 -0.2600  1.4878 -1.5834
 5781SOL    MW422898   2.538   5.567   1.063 -0.6135 -0.1895  0.4504
 5782SOL     OW22899   1.318   4.148   6.239 -0.6468 -0.5259 -0.2631
 5782SOL    HW222900   1.393   4.088   6.246 -0.7577 -0.5261  1.2639
 5782SOL    HW322901   1.338   4.218   6.301  0.0651  1.7507 -2.9217
 5782SOL    MW422902   1.331   4.149   6.248  0.5376  0.4377 -0.4239
 5783SOL     OW22903   5.568   1.674   1.617 -0.5858  0.5521 -0.3962
 5783SOL    HW222904   5.599   1.650   1.704  1.2590 -2.2769 -1.6906
 5783SOL    HW322905   5.535   1.592   1.579 -0.9159  1.5879 -2.5166
 5783SOL    MW422906   5.568   1.660   1.623  0.1981  0.1221 -0.0877
 5784SOL     OW22907   1.245   0.807   2.261  0.1398 -0.1037 -0.6164
 5784SOL    HW222908   1.215   0.893   2.231 -1.0513  0.6349  2.3722
 5784SOL    HW322909   1.338   0.818   2.278  0.1327  0.3730 -0.8794
 5784SOL    MW422910   1.253   0.819   2.259 -0.1280  0.0587  0.0733
 5785SOL     OW22911   5.284   5.241   1.904 -0.2656 -0.1295  0.0930
 5785SOL    HW222912   5.359   5.285   1.863  0.4842 -1.6655 -0.2310
 5785SOL    HW322913   5.301   5.148   1.894 -1.8549 -0.5315  0.7084
 5785SOL    MW422914   5.296   5.235   1.897  0.6669 -0.2164  0.3200
 5786SOL     OW22915   3.654   2.573   0.115  0.6370  0.3431 -0.2505
 5786SOL    HW222916   3.723   2.579   0.050 -0.0133 -2.6306 -1.3258
 5786SOL    HW322917   3.687   2.511   0.180 -0.2126  0.4564  0.3112
 5786SOL    MW422918   3.667   2.566   0.115  0.0792 -0.0063 -0.5376
 5787SOL     OW22919   4.237   0.588   1.673 -0.1793 -0.5562  0.4845
 5787SOL    HW222920   4.306   0.648   1.702  0.7114 -1.2454 -0.1106
 5787SOL    HW322921   4.167   0.645   1.641  1.2476  0.2322 -1.4804
 5787SOL    MW422922   4.237   0.603   1.673  0.0454 -0.0772  0.2309
 5788SOL     OW22923   2.543   1.901   1.113  0.3065 -0.6109 -0.1941
 5788SOL    HW222924   2.584   1.923   1.197  0.1989  0.6756 -0.4594
 5788SOL    HW322925   2.616   1.894   1.052  0.2077  1.9253 -0.7211
 5788SOL    MW422926   2.558   1.903   1.116  0.0403 -0.5566 -0.4772
 5789SOL     OW22927   0.283   5.522   5.438 -0.6281  0.2946 -0.2702
 5789SOL    HW222928   0.322   5.461   5.376 -1.6532  0.4430 -1.0848
 5789SOL    HW322929   0.260   5.599   5.386  0.3325  1.2715  0.6782
 5789SOL    MW422930   0.285   5.524   5.423 -0.2441 -0.1545  0.2406
 5790SOL     OW22931   4.555   2.234   6.169 -0.2832  0.4158 -0.0251
 5790SOL    HW222932   4.531   2.239   6.077 -1.9363 -0.4394  0.3149
 5790SOL    HW322933   4.551   2.141   6.190  2.0749  0.3561  0.4578
 5790SOL    MW422934   4.552   2.222   6.160  0.4912  0.0374 -0.4268
 5791SOL     OW22935   2.498   2.741   4.191  0.1405 -0.2646  0.0755
 5791SOL    HW222936   2.433   2.769   4.255 -1.4069 -1.2162 -0.9770
 5791SOL    HW322937   2.583   2.758   4.232 -0.7702  0.6448  1.6753
 5791SOL    MW422938   2.501   2.747   4.205  0.2239 -0.2229  0.2462
 5792SOL     OW22939   2.693   0.611   4.378 -0.1192 -0.2319 -0.1089
 5792SOL    HW222940   2.689   0.520   4.405  0.2658 -0.2169  0.0104
 5792SOL    HW322941   2.602   0.637   4.365 -0.2224 -0.6768 -0.2916
 5792SOL    MW422942   2.681   0.602   4.380 -0.4976  0.8153  0.0960
 5793SOL     OW22943   5.496   1.758   2.352  0.1153  0.5492 -0.1769
 5793SOL    HW222944   5.476   1.824   2.285  0.0601 -0.2691 -0.9790
 5793SOL    HW322945   5.420   1.700   2.352  0.1384  0.5096  0.5691
 5793SOL    MW422946   5.484   1.759   2.343 -0.0192 -0.0184  0.4800
 5794SOL     OW22947  -0.010   0.701   2.266  0.0529 -0.8597  0.7776
 5794SOL    HW222948   0.020   0.772   2.322 -0.9069  0.0253  0.2055
 5794SOL    HW322949   0.071   0.661   2.233  0.6094 -0.0304  1.0911
 5794SOL    MW422950   0.005   0.705   2.269  0.0180 -0.1296  0.6618
 5795SOL     OW22951   3.472   0.686   4.892  0.7588 -0.3184  0.1089
 5795SOL    HW222952   3.468   0.619   4.960 -1.8025  0.8037  1.1576
 5795SOL    HW322953   3.481   0.769   4.940  2.2035  0.2873 -1.1075
 5795SOL    MW422954   3.473   0.688   4.907  0.1124  1.1367 -0.7535
 5796SOL     OW22955   4.194   5.664   6.363 -0.1734  0.0791  0.0813
 5796SOL    HW222956   4.271   5.668   6.306 -0.4051 -0.2979 -0.2637
 5796SOL    HW322957   4.228   5.638   6.449  0.0485 -0.3603 -0.1385
 5796SOL    MW422958   4.209   5.661   6.367  0.2294 -0.2102 -0.2654
 5797SOL     OW22959   2.130   5.001   4.724 -0.4400  0.5750  0.2233
 5797SOL    HW222960   2.109   4.986   4.816  0.7722  1.8208  0.7522
 5797SOL    HW322961   2.164   4.917   4.693  1.9452  0.8487  1.7983
 5797SOL    MW422962   2.132   4.988   4.732 -0.1066 -0.6509 -0.4368
 5798SOL     OW22963   0.252   0.485   2.218 -0.0478 -0.5937 -0.1445
 5798SOL    HW222964   0.334   0.438   2.234  1.4245  1.4121 -1.3570
 5798SOL    HW322965   0.215   0.441   2.141  0.8593 -0.3601 -0.7329
 5798SOL    MW422966   0.258   0.473   2.210 -0.1270 -0.3583 -0.0308
 5799SOL     OW22967   4.305   4.610   5.638  0.0055  0.2973 -0.6569
 5799SOL    HW222968   4.327   4.698   5.667  0.2276 -0.0143  0.1539
 5799SOL    HW322969   4.382   4.581   5.588  1.9669 -1.0711  2.7832
 5799SOL    MW422970   4.318   4.617   5.636  0.3318  0.1113 -0.0711
 5800SOL     OW22971   2.221   2.325   5.745  0.7976 -0.3503 -0.3962
 5800SOL    HW222972   2.244   2.241   5.784 -2.6557 -0.3222  2.2367
 5800SOL    HW322973   2.148   2.305   5.686  1.4738  0.5752 -1.6088
 5800SOL    MW422974   2.214   2.311   5.742  0.2095 -0.3710 -0.3147
 5801SOL     OW22975   0.203   3.027   6.348 -0.1221  0.0110 -0.4255
 5801SOL    HW222976   0.184   3.121   6.341  0.4085  0.0263 -2.3626
 5801SOL    HW322977   0.298   3.022   6.353 -0.1990 -0.3950  0.8086
 5801SOL    MW422978   0.213   3.039   6.347  0.1388  0.1542 -0.3220
 5802SOL     OW22979   0.973   2.120   2.992  0.3770 -0.3737  0.1353
 5802SOL    HW222980   1.001   2.190   2.934  1.1609 -2.3349 -1.9937
 5802SOL    HW322981   1.055   2.081   3.024 -0.0391  0.0241  1.8288
 5802SOL    MW422982   0.988   2.124   2.989  0.3955 -0.3950 -0.0772
 5803SOL     OW22983   0.599   4.293   1.091 -0.2932 -0.0632  0.2357
 5803SOL    HW222984   0.675   4.246   1.125  1.4271  2.3956  0.0272
 5803SOL    HW322985   0.545   4.311   1.168 -0.0152 -0.6974  0.5865
 5803SOL    MW422986   0.602   4.289   1.106 -0.2393  0.1869  0.5769
 5804SOL     OW22987   2.388   3.238   2.429  0.7225 -0.2910  0.1689
 5804SOL    HW222988   2.323   3.233   2.359  1.1910  1.4271 -0.4441
 5804SOL    HW322989   2.384   3.153   2.472 -2.0054 -0.2237  0.2408
 5804SOL    MW422990   2.379   3.226   2.426 -0.0790 -0.9380 -0.0377
 5805SOL     OW22991   5.919   3.471   6.036 -0.2520  0.0859 -0.3609
 5805SOL    HW222992   5.998   3.425   6.007 -0.4674 -0.8407  0.4635
 5805SOL    HW322993   5.855   3.401   6.049 -1.5650  0.9189 -2.0831
 5805SOL    MW422994   5.921   3.455   6.034  0.4022 -0.2591 -0.1821
 5806SOL     OW22995   2.570   1.909   5.701 -0.6318 -0.4191  0.0523
 5806SOL    HW222996   2.661   1.931   5.683 -0.9370 -0.0582 -1.1128
 5806SOL    HW322997   2.534   1.883   5.617 -0.9973 -2.9206  0.8816
 5806SOL    MW422998   2.577   1.908   5.688 -0.8115 -0.1812  0.0602
 5807SOL     OW22999   6.344   2.582   2.666  0.3987 -0.3579 -0.0537
 5807SOL    HW223000   6.397   2.594   2.588 -0.0322 -1.3817 -0.5308
 5807SOL    HW323001   6.398   2.613   2.738  0.7242  0.7872 -0.7726
 5807SOL    MW423002   6.358   2.587   2.665 -0.2884  0.7676  0.1178
 5808SOL     OW23003   2.050   2.197   0.701 -0.0300 -0.2823  0.9571
 5808SOL    HW223004   2.071   2.210   0.794 -0.2709 -0.0265  0.9769
 5808SOL    HW323005   1.955   2.210   0.696 -0.0936 -0.7973  0.7615
 5808SOL    MW423006   2.040   2.200   0.713  0.0384  0.1034  0.1060
 5809SOL     OW23007   0.398   3.364   3.228  0.6205  0.5818  0.0666
 5809SOL    HW223008   0.305   3.364   3.207  0.8187  1.6753 -0.9201
 5809SOL    HW323009   0.416   3.453   3.258  1.1293  0.0626  1.3583
 5809SOL    MW423010   0.388   3.376   3.229 -0.3836  0.0072  0.7552
 5810SOL     OW23011   2.888   4.225   3.966  0.7264 -0.2309 -0.0491
 5810SOL    HW223012   2.796   4.200   3.982  0.2363  1.6441  0.2568
 5810SOL    HW323013   2.938   4.161   4.017 -0.3818 -1.3683 -0.3143
 5810SOL    MW423014   2.882   4.213   3.975 -0.2319  0.1900  0.0682
 5811SOL     OW23015   1.613   2.182   0.670  0.3023 -0.1353  0.1040
 5811SOL    HW223016   1.537   2.219   0.625  0.2868  1.8374  1.6006
 5811SOL    HW323017   1.683   2.183   0.604 -0.6162 -0.8126 -0.9228
 5811SOL    MW423018   1.612   2.187   0.655 -0.2278  0.2972  0.4630
 5812SOL     OW23019   5.950   6.261   0.162 -0.8235 -0.4378 -0.3952
 5812SOL    HW223020   5.871   6.212   0.185 -1.4590  1.3627  1.5557
 5812SOL    HW323021   5.921   6.352   0.156  1.3380  0.5886  2.3298
 5812SOL    MW423022   5.936   6.266   0.165  0.0771  0.3264  0.5903
 5813SOL     OW23023   6.296   3.636   1.579  1.0652  0.0670  0.1010
 5813SOL    HW223024   6.343   3.579   1.639  2.0845  0.3859 -0.3627
 5813SOL    HW323025   6.244   3.694   1.635  1.9505  0.3239  0.6794
 5813SOL    MW423026   6.295   3.637   1.594 -0.1215  0.4314 -0.4034
 5814SOL     OW23027   3.116   5.288   3.961 -0.4342 -0.0208  0.2428
 5814SOL    HW223028   3.034   5.276   3.912 -1.0973  2.4931  0.6062
 5814SOL    HW323029   3.184   5.286   3.895 -0.8461 -1.3063 -0.1716
 5814SOL    MW423030   3.114   5.286   3.946  0.0458  0.3839  0.7482
 5815SOL     OW23031   2.004   4.962   3.275  0.0836 -0.1749  0.0144
 5815SOL    HW223032   2.012   4.909   3.355 -0.8728 -1.3911 -0.6644
 5815SOL    HW323033   1.918   4.940   3.240 -0.0226  1.2800 -0.7121
 5815SOL    MW423034   1.994   4.952   3.281  0.7819  0.3269 -0.6170
 5816SOL     OW23035   1.844   2.472   0.042 -0.4769 -0.8471 -0.1314
 5816SOL    HW223036   1.936   2.477   0.067 -0.2491  1.6398 -1.2398
 5816SOL    HW323037   1.844   2.469  -0.054 -1.5606 -2.0174 -0.1355
 5816SOL    MW423038   1.856   2.472   0.033 -0.0159 -0.1773  0.3291
 5817SOL     OW23039   6.336   2.491   5.125  0.0258 -0.1646  0.1138
 5817SOL    HW223040   6.368   2.417   5.176 -0.7385 -1.9871 -1.9009
 5817SOL    HW323041   6.242   2.477   5.118 -0.1492  1.0464 -0.2313
 5817SOL    MW423042   6.328   2.479   5.130  0.0376 -0.1127 -0.0576
 5818SOL     OW23043   1.517   1.625   2.558  0.0065 -0.7937 -0.4414
 5818SOL    HW223044   1.488   1.549   2.608 -0.9921 -0.3218 -0.2784
 5818SOL    HW323045   1.458   1.695   2.585  2.0342  0.5464  0.8134
 5818SOL    MW423046   1.506   1.624   2.568 -0.2428  0.1544  1.0220
 5819SOL     OW23047   5.436   6.473   4.163 -0.0121  0.1062 -0.0007
 5819SOL    HW223048   5.390   6.409   4.108 -0.4932 -0.2655  0.8200
 5819SOL    HW323049   5.376   6.547   4.168 -1.0059 -0.7443  1.8399
 5819SOL    MW423050   5.422   6.474   4.156  0.0502  0.0130  0.2902
 5820SOL     OW23051   1.521   4.219   0.405  0.6283  0.2038 -0.0387
 5820SOL    HW223052   1.461   4.162   0.454  0.2489  0.0058 -0.7220
 5820SOL    HW323053   1.486   4.307   0.419 -0.3268  0.0197 -1.0907
 5820SOL    MW423054   1.508   4.223   0.413  0.1312  0.4268  0.3440
 5821SOL     OW23055   3.606   3.214   4.276 -0.0639 -0.5533 -0.8088
 5821SOL    HW223056   3.619   3.126   4.312 -0.4323 -0.5214 -0.6024
 5821SOL    HW323057   3.515   3.216   4.249  0.1387 -0.4866 -1.5071
 5821SOL    MW423058   3.596   3.203   4.277  0.1985  0.1541 -0.1992
 5822SOL     OW23059   3.302   3.904   5.459  0.3536 -0.1358  0.1797
 5822SOL    HW223060   3.314   3.967   5.530  1.2865  0.1540 -0.2251
 5822SOL    HW323061   3.382   3.911   5.406  0.5004 -1.6773  0.1481
 5822SOL    MW423062   3.314   3.913   5.461  0.0004  0.2908 -0.0960
 5823SOL     OW23063   2.716   3.607   4.918 -0.2514  0.3604 -0.2836
 5823SOL    HW223064   2.703   3.601   4.824  0.5745 -0.5139 -0.3623
 5823SOL    HW323065   2.629   3.591   4.955 -0.1199 -2.1395 -0.8545
 5823SOL    MW423066   2.703   3.604   4.911 -0.0557 -1.0577  0.4618
 5824SOL     OW23067   4.215   1.537   2.280  0.1252  0.2077 -0.3004
 5824SOL    HW223068   4.192   1.444   2.281  0.0138  0.2236  1.2847
 5824SOL    HW323069   4.140   1.579   2.237  0.8543 -0.5478 -2.4355
 5824SOL    MW423070   4.202   1.530   2.275 -0.2937  0.6204  0.5267
 5825SOL     OW23071   3.789   6.281   1.501 -0.1813  0.5570  0.0969
 5825SOL    HW223072   3.747   6.341   1.564  0.3368  0.1594  0.8430
 5825SOL    HW323073   3.797   6.198   1.549  0.0988  0.2033 -0.5508
 5825SOL    MW423074   3.784   6.278   1.516  0.0879 -0.1102  0.5699
 5826SOL     OW23075   0.349   1.567   4.085  0.0686 -0.8444 -0.0046
 5826SOL    HW223076   0.264   1.607   4.066  1.6536  2.0418 -1.7479
 5826SOL    HW323077   0.386   1.547   3.999  0.8969 -2.7231  0.7351
 5826SOL    MW423078   0.343   1.570   4.071  0.6439 -0.1279 -0.3803
 5827SOL     OW23079   3.911   4.981   0.097  0.2310 -0.4948 -0.2670
 5827SOL    HW223080   3.894   4.964   0.190  1.0942 -1.1217 -0.2078
 5827SOL    HW323081   3.969   4.909   0.070  0.6054  0.1046 -1.0959
 5827SOL    MW423082   3.917   4.969   0.106  0.2611  0.1451  0.0567
 5828SOL     OW23083   5.817   0.074   0.530  0.5490  0.2544 -0.1277
 5828SOL    HW223084   5.752   0.014   0.566  1.5580  0.3094  1.9734
 5828SOL    HW323085   5.887   0.017   0.497  0.5711  0.2458 -0.0655
 5828SOL    MW423086   5.818   0.059   0.530 -0.0685  0.2864 -0.3166
 5829SOL     OW23087   6.247   2.165   3.941  0.3804  0.9783  0.0212
 5829SOL    HW223088   6.286   2.244   3.978  1.7370  0.6608 -0.6652
 5829SOL    HW323089   6.243   2.181   3.847  0.1268  0.4624 -0.0605
 5829SOL    MW423090   6.251   2.177   3.934 -0.0736  0.2352  0.1786
 5830SOL     OW23091   2.582   2.484   1.723  0.4038 -0.1263 -0.5300
 5830SOL    HW223092   2.564   2.578   1.714  1.2397 -0.0475 -1.6939
 5830SOL    HW323093   2.605   2.456   1.634 -0.6787 -1.6274 -0.3726
 5830SOL    MW423094   2.583   2.493   1.710  0.4106 -0.4616  0.4348
 5831SOL     OW23095   5.771   0.120   2.459  0.6394 -1.1237  0.2098
 5831SOL    HW223096   5.680   0.139   2.481  0.0689  1.9494 -3.6866
 5831SOL    HW323097   5.821   0.189   2.504  0.8308 -1.5627  0.6830
 5831SOL    MW423098   5.766   0.132   2.468 -0.0937  0.1575  0.0116
 5832SOL     OW23099   3.583   1.682   4.070  0.0541 -0.2127  0.2055
 5832SOL    HW223100   3.574   1.690   3.975 -0.5186 -2.1715  0.0608
 5832SOL    HW323101   3.637   1.758   4.095  1.8121 -0.6584 -1.9160
 5832SOL    MW423102   3.589   1.693   4.060 -0.6805 -0.4972  0.4945
 5833SOL     OW23103   5.573   1.379   2.438  0.1746 -0.3901 -0.4893
 5833SOL    HW223104   5.523   1.437   2.495 -1.3257 -0.4892 -1.6173
 5833SOL    HW323105   5.592   1.432   2.361  0.5557 -0.7948 -0.6780
 5833SOL    MW423106   5.569   1.393   2.435 -0.1873 -0.1839 -0.2955
 5834SOL     OW23107   0.087   2.269   6.206 -0.3854  0.4964 -0.4948
 5834SOL    HW223108   0.168   2.303   6.243 -1.4721  0.5666  2.0232
 5834SOL    HW323109   0.059   2.336   6.144 -0.0515  1.9383  0.8677
 5834SOL    MW423110   0.094   2.282   6.203  0.1962 -0.1025  0.3652
 5835SOL     OW23111   4.928   4.281   3.611 -0.5691  0.9910 -0.1182
 5835SOL    HW223112   4.935   4.288   3.706 -1.5650 -0.4430  0.0880
 5835SOL    HW323113   5.016   4.257   3.582 -0.7231 -0.6299  0.6757
 5835SOL    MW423114   4.941   4.279   3.620 -0.6242  0.2102 -0.1535
 5836SOL     OW23115   2.018   2.851   2.295 -0.2173  0.1351  0.4000
 5836SOL    HW223116   1.993   2.851   2.202 -1.4297  1.2226  0.6967
 5836SOL    HW323117   1.946   2.807   2.339  0.4870 -0.6286  0.8191
 5836SOL    MW423118   2.005   2.846   2.288 -0.0502 -0.5938  0.3984
 5837SOL     OW23119   2.139   5.824   3.971  0.7277  0.2723 -0.1593
 5837SOL    HW223120   2.105   5.912   3.985  1.6581  0.7099 -0.5544
 5837SOL    HW323121   2.064   5.766   3.985 -0.2965  1.2289 -1.4533
 5837SOL    MW423122   2.125   5.828   3.975 -0.1426  0.5444 -0.4943
 5838SOL     OW23123   2.537   3.866   3.278  0.4076 -0.1944 -0.2298
 5838SOL    HW223124   2.465   3.820   3.236  0.9754 -1.8067  0.5045
 5838SOL    HW323125   2.600   3.798   3.301  1.1185  0.8940  1.2458
 5838SOL    MW423126   2.536   3.851   3.276  0.2216 -0.4989 -0.0860
 5839SOL     OW23127   0.705   4.659   0.275 -0.0923  0.3021 -0.0886
 5839SOL    HW223128   0.632   4.640   0.217  0.4783  1.4722 -1.2453
 5839SOL    HW323129   0.692   4.601   0.351 -0.7436 -1.4340 -1.4606
 5839SOL    MW423130   0.694   4.649   0.278 -0.1108 -0.8762  0.1751
 5840SOL     OW23131   0.327   2.442   2.885  0.7116 -0.0534  0.2048
 5840SOL    HW223132   0.372   2.511   2.934  0.7485 -0.6330  1.0017
 5840SOL    HW323133   0.340   2.466   2.793  0.1533  1.3649  0.4677
 5840SOL    MW423134   0.335   2.454   2.879  0.1439 -1.0081 -0.2249
 5841SOL     OW23135   4.496   4.905   0.068 -0.1941 -0.1784 -0.0688
 5841SOL    HW223136   4.409   4.872   0.044 -0.2236 -0.0216 -0.1737
 5841SOL    HW323137   4.531   4.838   0.127 -0.2772 -0.3719 -0.2383
 5841SOL    MW423138   4.489   4.892   0.073  0.2119  0.5710 -0.0928
 5842SOL     OW23139   3.606   3.152   3.434  0.4926 -0.7005 -0.6697
 5842SOL    HW223140   3.638   3.178   3.520  1.3062 -0.5530 -0.9991
 5842SOL    HW323141   3.574   3.063   3.446  0.7562 -0.7429 -0.2531
 5842SOL    MW423142   3.606   3.144   3.447  0.3452 -1.3221  0.5749
 5843SOL     OW23143   6.232   4.150   6.252 -0.0939 -0.2271 -0.5309
 5843SOL    HW223144   6.279   4.067   6.263 -1.8699 -0.9906  2.8912
 5843SOL    HW323145   6.276   4.210   6.312 -0.6558  0.3856 -0.7224
 5843SOL    MW423146   6.244   4.147   6.262 -0.5005  0.1474  0.1101
 5844SOL     OW23147   1.665   0.728   4.816 -0.1586 -0.1264  0.6794
 5844SOL    HW223148   1.726   0.694   4.881 -1.5257 -1.5394  1.2992
 5844SOL    HW323149   1.595   0.768   4.867  0.0129  1.1064 -0.0094
 5844SOL    MW423150   1.664   0.729   4.831  0.1276  0.0751 -0.1052
 5845SOL     OW23151   4.899   2.622   6.344  0.5066  0.3356  0.1147
 5845SOL    HW223152   4.945   2.698   6.381  3.0065  0.0833 -2.1233
 5845SOL    HW323153   4.914   2.552   6.408  1.8248  0.7140  0.2627
 5845SOL    MW423154   4.907   2.623   6.357 -0.3553  0.1758 -0.4447
 5846SOL     OW23155   3.358   0.398   4.555  0.3052 -0.3777 -0.3154
 5846SOL    HW223156   3.321   0.476   4.514 -1.4415 -2.0453 -2.1241
 5846SOL    HW323157   3.321   0.399   4.644  2.5420  2.2210  0.7155
 5846SOL    MW423158   3.348   0.408   4.562 -0.0466 -0.1324 -0.4802
 5847SOL     OW23159   5.196   6.443   4.374  0.3381 -0.5407  0.6493
 5847SOL    HW223160   5.259   6.505   4.409  0.5927 -0.6837  0.4547
 5847SOL    HW323161   5.223   6.359   4.411  0.0153 -0.5401  0.8860
 5847SOL    MW423162   5.208   6.440   4.383  0.6013  0.4951 -0.3749
 5848SOL     OW23163   0.881   2.890   0.357 -0.0323  0.0030 -0.9359
 5848SOL    HW223164   0.971   2.912   0.380  0.4222 -2.1105 -0.5074
 5848SOL    HW323165   0.889   2.816   0.297 -1.4878 -1.0448  0.0840
 5848SOL    MW423166   0.894   2.883   0.352  1.0084 -0.6812  0.3955
 5849SOL     OW23167   1.374   5.356   3.102  0.2236 -0.2268  0.0364
 5849SOL    HW223168   1.314   5.320   3.167 -2.2411  1.7548 -0.9605
 5849SOL    HW323169   1.409   5.280   3.057 -1.1563 -1.5053  1.0199
 5849SOL    MW423170   1.370   5.341   3.105 -0.0174 -0.0281  0.3560
 5850SOL     OW23171   3.189   5.843   4.040  0.0110  0.1024  0.2448
 5850SOL    HW223172   3.196   5.884   3.954 -2.2214  1.8564  0.8036
 5850SOL    HW323173   3.279   5.843   4.074  0.6616  0.9489 -1.3564
 5850SOL    MW423174   3.202   5.848   4.033 -0.1773  0.3034  0.1490
 5851SOL     OW23175   4.130   0.210   3.863 -0.3074 -0.1782  0.2240
 5851SOL    HW223176   4.161   0.162   3.786  1.9150 -0.5052  1.2480
 5851SOL    HW323177   4.077   0.281   3.827  2.3439  0.9616 -1.8331
 5851SOL    MW423178   4.127   0.213   3.848  0.0230 -0.1008 -0.2084
 5852SOL     OW23179   2.878   3.371   0.793  0.4784 -0.1507  0.0109
 5852SOL    HW223180   2.794   3.380   0.840  0.0444 -1.2763 -0.5078
 5852SOL    HW323181   2.940   3.345   0.861  0.1938 -0.2716  0.2296
 5852SOL    MW423182   2.875   3.369   0.808  0.2073 -0.3694  0.2866
 5853SOL     OW23183   1.371   2.629   1.411 -0.2306  0.1344 -0.0354
 5853SOL    HW223184   1.347   2.593   1.326 -0.8679 -1.0399  0.6144
 5853SOL    HW323185   1.429   2.702   1.391 -0.7710  0.1953 -1.4919
 5853SOL    MW423186   1.375   2.634   1.397  0.3132  0.4447  0.1792
 5854SOL     OW23187   6.375   2.383   4.110 -0.3143  0.1962 -0.0999
 5854SOL    HW223188   6.414   2.428   4.035 -0.6077  0.9609  0.1934
 5854SOL    HW323189   6.442   2.322   4.139  0.6185  1.3745  0.3019
 5854SOL    MW423190   6.389   2.381   4.104  0.1763 -0.1714 -0.0133
 5855SOL     OW23191   1.148   5.715   5.163 -0.0324  0.1642 -0.1369
 5855SOL    HW223192   1.171   5.796   5.118 -1.4413 -0.3920 -2.0035
 5855SOL    HW323193   1.094   5.743   5.237  1.5308  1.0448  0.7106
 5855SOL    MW423194   1.144   5.729   5.166  0.1160 -0.4500  0.3498
 5856SOL     OW23195   5.336   2.333   6.389 -0.0373 -0.0510  0.5622
 5856SOL    HW223196   5.337   2.397   6.460 -1.8909  1.5384 -0.7304
 5856SOL    HW323197   5.350   2.385   6.310  0.3060 -1.5382 -0.3818
 5856SOL    MW423198   5.338   2.348   6.388 -0.2005 -0.6093 -0.8651
 5857SOL     OW23199   1.696   3.058   4.923 -0.3848 -0.1516 -0.2841
 5857SOL    HW223200   1.638   3.097   4.989 -1.0136  2.0329 -2.0360
 5857SOL    HW323201   1.654   2.975   4.901 -0.7853 -0.3745  1.1997
 5857SOL    MW423202   1.683   3.052   4.929 -0.1173 -0.3849 -0.5811
 5858SOL     OW23203   0.969   0.314   2.013 -0.3321 -0.1322 -0.2930
 5858SOL    HW223204   0.984   0.275   2.099 -2.1254  0.4909  0.3317
 5858SOL    HW323205   1.051   0.360   1.994 -0.6958  1.8255  2.2593
 5858SOL    MW423206   0.982   0.315   2.022 -0.5883  0.0960  0.3342
 5859SOL     OW23207   6.059   4.734   0.872 -0.0824 -0.1583  0.0573
 5859SOL    HW223208   5.980   4.694   0.910  0.6419 -0.9391  0.7789
 5859SOL    HW323209   6.123   4.732   0.943  0.7462  0.0082 -0.6730
 5859SOL    MW423210   6.057   4.728   0.886 -0.0002 -1.0001 -0.4434
 5860SOL     OW23211   5.562   6.374   5.778  0.4158  0.0652  0.7972
 5860SOL    HW223212   5.505   6.299   5.793 -0.1426  0.2221 -0.4334
 5860SOL    HW323213   5.513   6.430   5.718  1.4918  0.6289  0.4189
 5860SOL    MW423214   5.548   6.371   5.772  0.2727 -0.1476  0.1580
 5861SOL     OW23215   2.565   0.897   2.145  0.9872  0.5111 -0.1491
 5861SOL    HW223216   2.569   0.931   2.056  1.8343 -0.2049 -0.3985
 5861SOL    HW323217   2.492   0.944   2.186  0.4984  0.7329 -1.2548
 5861SOL    MW423218   2.556   0.908   2.139  0.0514  0.6583  0.6093
 5862SOL     OW23219   4.589   5.114   4.981  0.3311  0.2947 -0.7113
 5862SOL    HW223220   4.651   5.061   5.032  0.3101  1.0581  0.1434
 5862SOL    HW323221   4.526   5.051   4.947 -0.1030 -0.1783  0.8773
 5862SOL    MW423222   4.589   5.098   4.983  0.1776 -0.0460  0.4716
 5863SOL     OW23223   4.260   1.449   3.029 -0.0046  0.2494 -0.0811
 5863SOL    HW223224   4.306   1.371   3.058 -0.9308 -0.9723 -1.7059
 5863SOL    HW323225   4.239   1.431   2.937 -1.9057  1.6059  0.0336
 5863SOL    MW423226   4.264   1.437   3.020 -0.7054 -0.8213  0.2795
 5864SOL     OW23227   4.420   1.313   4.915  0.4092 -0.7772  0.2709
 5864SOL    HW223228   4.493   1.261   4.883  0.0869 -1.5940  0.8410
 5864SOL    HW323229   4.363   1.324   4.839 -0.9636 -3.7312  0.7514
 5864SOL    MW423230   4.422   1.308   4.901 -0.0253  0.3197  0.0507
 5865SOL     OW23231   5.275   3.035   4.956  0.1396  0.1789 -0.2921
 5865SOL    HW223232   5.187   3.041   4.917 -1.0239 -0.2975  2.0900
 5865SOL    HW323233   5.328   3.095   4.903 -1.3350 -0.2816 -2.4487
 5865SOL    MW423234   5.270   3.044   4.944  0.2829  0.4714  0.0323
 5866SOL     OW23235   4.618   5.495   4.292 -0.2121 -0.1743 -0.1983
 5866SOL    HW223236   4.676   5.507   4.367 -1.8257  2.1259  0.7718
 5866SOL    HW323237   4.645   5.564   4.230 -1.5894  0.6538  0.0930
 5866SOL    MW423238   4.629   5.506   4.293  0.3409 -0.3657  0.0089
 5867SOL     OW23239   1.185   4.925   4.317  0.0160 -0.0877 -0.2561
 5867SOL    HW223240   1.206   5.002   4.264  1.5949 -1.2219 -1.3699
 5867SOL    HW323241   1.240   4.933   4.394 -0.2310  0.1625 -0.1021
 5867SOL    MW423242   1.195   4.936   4.320  0.5782  0.5282 -0.0329
 5868SOL     OW23243   2.905   4.508   2.406 -0.1004 -0.0460  0.3761
 5868SOL    HW223244   2.948   4.534   2.487  1.4852  0.7865 -0.6836
 5868SOL    HW323245   2.878   4.590   2.365  0.4562 -0.3612 -0.6454
 5868SOL    MW423246   2.907   4.522   2.412  0.5741 -0.0106 -0.1948
 5869SOL     OW23247   0.617   2.612   4.546  0.9346  0.0396  0.1189
 5869SOL    HW223248   0.598   2.614   4.640  1.6289  1.2757  0.2657
 5869SOL    HW323249   0.676   2.537   4.535  0.4132 -0.4461  0.5673
 5869SOL    MW423250   0.622   2.602   4.557 -0.2676 -0.4800  0.5378
 5870SOL     OW23251   4.684   0.608   1.811  0.2575  0.1465 -0.0113
 5870SOL    HW223252   4.767   0.582   1.851  0.3490  0.5272  0.0441
 5870SOL    HW323253   4.677   0.552   1.733 -0.3066 -1.1690  0.9390
 5870SOL    MW423254   4.694   0.597   1.806  0.1294  0.4544  0.3673
 5871SOL     OW23255   4.990   3.038   5.741  0.3199  0.7012 -0.1604
 5871SOL    HW223256   4.924   2.987   5.696 -0.3173  1.2304  0.1576
 5871SOL    HW323257   5.066   2.980   5.747 -0.4234 -0.2520  0.3003
 5871SOL    MW423258   4.992   3.024   5.736 -0.2823  0.8185 -0.1596
 5872SOL     OW23259   4.601   5.509   2.010 -0.2178  0.5537 -0.4389
 5872SOL    HW223260   4.553   5.427   2.000  0.3535  0.4262 -2.7958
 5872SOL    HW323261   4.533   5.577   2.005 -0.8413  0.3159  2.6493
 5872SOL    MW423262   4.586   5.508   2.008 -0.1242 -0.4586  0.0782
 5873SOL     OW23263   1.402   1.778   5.190 -0.0088  0.0682  0.2563
 5873SOL    HW223264   1.394   1.869   5.164  0.7067  0.7264  2.1082
 5873SOL    HW323265   1.356   1.728   5.123 -0.5053  1.7950 -0.7253
 5873SOL    MW423266   1.395   1.783   5.178  0.2415 -0.6344 -0.5736
 5874SOL     OW23267   2.336   0.864   3.891 -0.0428  0.0017  0.1451
 5874SOL    HW223268   2.340   0.958   3.874  1.0179 -0.0886 -0.1632
 5874SOL    HW323269   2.427   0.838   3.905 -0.0502 -1.3916 -1.9683
 5874SOL    MW423270   2.349   0.873   3.891 -0.1054  0.5115 -0.0290
 5875SOL     OW23271   5.402   6.142   5.773 -0.2221 -0.2694  0.1765
 5875SOL    HW223272   5.343   6.101   5.836  0.5887  0.4957  1.5035
 5875SOL    HW323273   5.469   6.076   5.757 -1.3853 -1.1323 -1.3222
 5875SOL    MW423274   5.403   6.128   5.780  0.4718  0.0962  0.0035
 5876SOL     OW23275   3.004   3.543   6.293  0.2690 -0.5485  0.0152
 5876SOL    HW223276   3.081   3.574   6.245  0.6137 -2.9206 -1.0792
 5876SOL    HW323277   2.930   3.581   6.245  0.6914 -0.6859 -0.7604
 5876SOL    MW423278   3.004   3.552   6.280 -0.1080  0.4513  0.0322
 5877SOL     OW23279   2.862   2.953   6.071 -0.0267 -0.4485  0.4923
 5877SOL    HW223280   2.941   3.006   6.060 -0.0917 -0.5471 -0.5918
 5877SOL    HW323281   2.891   2.877   6.122  0.8125 -0.9498 -0.6719
 5877SOL    MW423282   2.876   2.950   6.076  0.3349 -0.0290  0.5019
 5878SOL     OW23283   5.146   3.404   0.428  0.0425 -0.0249 -0.1379
 5878SOL    HW223284   5.091   3.480   0.406  0.8117  0.4868 -0.3584
 5878SOL    HW323285   5.158   3.359   0.344  0.2822  0.0817 -0.1595
 5878SOL    MW423286   5.140   3.408   0.414 -0.1956  0.4795  0.2436
 5879SOL     OW23287   1.788   0.415   3.933  0.5182 -0.0390 -0.0300
 5879SOL    HW223288   1.739   0.346   3.888 -2.4269  0.6019  1.9575
 5879SOL    HW323289   1.821   0.373   4.013  1.1056  0.1727 -0.1573
 5879SOL    MW423290   1.786   0.400   3.938 -0.3849  0.0468  0.5578
 5880SOL     OW23291   3.725   0.684   4.200  0.0840 -0.0109  0.0725
 5880SOL    HW223292   3.669   0.608   4.219  1.1056 -1.2767 -1.7610
 5880SOL    HW323293   3.791   0.683   4.270 -1.0094  0.3639  1.1510
 5880SOL    MW423294   3.726   0.674   4.212  0.1296 -0.0209 -0.0959
 5881SOL     OW23295   0.578   6.151   3.257  0.1625 -0.1298 -0.3087
 5881SOL    HW223296   0.648   6.176   3.196 -0.6625 -1.6063 -1.9374
 5881SOL    HW323297   0.512   6.110   3.202 -1.1326 -0.5359  1.4643
 5881SOL    MW423298   0.578   6.149   3.242  0.1556  0.8084  0.0336
 5882SOL     OW23299   5.278   4.439   5.054  0.0773 -0.1581  0.1183
 5882SOL    HW223300   5.301   4.483   4.973 -0.3534 -0.2476 -0.0505
 5882SOL    HW323301   5.205   4.489   5.090  0.1326 -0.2370  0.3482
 5882SOL    MW423302   5.271   4.451   5.048  0.8314  0.2886  0.6715
 5883SOL     OW23303   1.561   2.317   6.234  0.4775  0.3082 -0.7387
 5883SOL    HW223304   1.529   2.358   6.314 -1.1112 -0.2279 -1.0738
 5883SOL    HW323305   1.653   2.344   6.229  0.4489  0.8337  0.9354
 5883SOL    MW423306   1.569   2.326   6.244 -0.3175 -0.3392  0.0515
 5884SOL     OW23307   0.169   3.410   2.077  0.1774 -0.3340  0.4997
 5884SOL    HW223308   0.221   3.339   2.038 -0.1726 -0.7410  0.7637
 5884SOL    HW323309   0.189   3.405   2.170  1.1018  0.7105  0.3839
 5884SOL    MW423310   0.179   3.400   2.084  0.7308 -0.0084 -0.0311
 5885SOL     OW23311   0.078   3.284   6.304  0.4764  0.4076 -0.4500
 5885SOL    HW223312   0.150   3.317   6.250 -0.2756  0.5771 -1.3657
 5885SOL    HW323313   0.047   3.206   6.259  0.7080 -0.2272  0.4611
 5885SOL    MW423314   0.083   3.278   6.291 -0.0714  0.1412 -0.5661
 5886SOL     OW23315   3.727   0.686   4.713  0.1115 -0.1180 -0.2105
 5886SOL    HW223316   3.658   0.682   4.780  0.0496 -1.9076 -0.3417
 5886SOL    HW323317   3.693   0.746   4.647  0.1851  1.7263  1.3300
 5886SOL    MW423318   3.713   0.694   4.713 -0.4389 -0.4165  0.1264
 5887SOL     OW23319   5.659   1.395   0.462  0.4630 -0.1941 -0.0084
 5887SOL    HW223320   5.611   1.322   0.422  1.1556  0.6771 -2.5922
 5887SOL    HW323321   5.648   1.381   0.556 -2.4181 -1.6194 -0.4376
 5887SOL    MW423322   5.651   1.383   0.469  0.0907 -0.2040  0.5295
 5888SOL     OW23323   2.819   2.632   2.286  0.2366 -0.0720  0.4778
 5888SOL    HW223324   2.847   2.636   2.195 -0.2036  1.2627  0.3793
 5888SOL    HW323325   2.725   2.616   2.282 -0.3253  2.7061  0.5642
 5888SOL    MW423326   2.810   2.631   2.274 -0.5502  0.1299  0.6472
 5889SOL     OW23327   2.861   2.071   2.366 -0.0418 -0.2383  0.4534
 5889SOL    HW223328   2.888   2.161   2.349  0.1303 -0.0903  1.4540
 5889SOL    HW323329   2.776   2.079   2.409  0.8742 -0.4102  2.4478
 5889SOL    MW423330   2.853   2.084   2.370 -0.4614  0.0610 -0.1632
 5890SOL     OW23331   3.892   2.265   3.827  0.1584  0.4870  0.1846
 5890SOL    HW223332   3.976   2.252   3.783  0.1203  0.8427 -0.0007
 5890SOL    HW323333   3.889   2.359   3.844  0.8061  0.1913  2.2410
 5890SOL    MW423334   3.903   2.276   3.824 -0.0952  0.1000 -0.1902
 5891SOL     OW23335   4.430   0.129   4.967  0.1423  0.7170  0.2288
 5891SOL    HW223336   4.506   0.161   4.918  0.2078  0.4981  0.1837
 5891SOL    HW323337   4.355   0.170   4.924  0.1462  0.0089 -0.4937
 5891SOL    MW423338   4.430   0.139   4.955 -0.4438 -1.0828 -0.1882
 5892SOL     OW23339   0.874   5.045   1.431 -0.0041  0.0348 -0.0023
 5892SOL    HW223340   0.927   5.050   1.510  0.5810 -1.4986 -0.2641
 5892SOL    HW323341   0.937   5.054   1.359 -0.2573 -0.5566 -0.3062
 5892SOL    MW423342   0.889   5.047   1.432 -0.4704  0.3751 -0.3933
 5893SOL     OW23343   1.505   5.543   1.126  0.4586  1.2227  0.0993
 5893SOL    HW223344   1.534   5.454   1.104 -0.7543  1.0245 -0.7911
 5893SOL    HW323345   1.482   5.538   1.218 -1.4202  0.0743 -0.3815
 5893SOL    MW423346   1.506   5.530   1.135 -0.1111 -0.3222  0.0442
 5894SOL     OW23347   3.483   2.885   3.426  0.2586  0.0477  0.0258
 5894SOL    HW223348   3.511   2.795   3.438 -0.8570 -0.6399 -2.0582
 5894SOL    HW323349   3.394   2.887   3.461  0.7983  0.7999  1.4843
 5894SOL    MW423350   3.475   2.874   3.433  0.3354  0.7038 -0.0444
 5895SOL     OW23351   3.502   3.637   2.654 -0.1821  0.5373 -0.2551
 5895SOL    HW223352   3.505   3.586   2.735 -0.5413  0.9771  0.0350
 5895SOL    HW323353   3.587   3.682   2.651 -0.2481  0.6745 -0.0268
 5895SOL    MW423354   3.514   3.636   2.664  0.4773 -0.2042  0.2261
 5896SOL     OW23355   3.064   6.262   2.750 -0.4078  0.1728 -0.1305
 5896SOL    HW223356   3.010   6.215   2.686  0.0211  1.0475 -1.1806
 5896SOL    HW323357   3.064   6.207   2.828 -1.5541 -0.5720 -0.6387
 5896SOL    MW423358   3.057   6.249   2.752  0.1749  0.0839  0.1006
 5897SOL     OW23359   1.001   1.752   0.776 -0.6517 -0.1850 -0.3588
 5897SOL    HW223360   0.967   1.694   0.844 -1.6612  0.2923 -0.4401
 5897SOL    HW323361   1.080   1.708   0.745  0.0557 -0.2131  1.3753
 5897SOL    MW423362   1.007   1.738   0.781  0.1116 -0.5029 -0.5955
 5898SOL     OW23363   3.132   4.345   3.892 -1.0727  0.2175  0.0509
 5898SOL    HW223364   3.063   4.328   3.957 -0.6920  0.6933  0.5843
 5898SOL    HW323365   3.087   4.391   3.822 -1.2171  0.9470  0.6094
 5898SOL    MW423366   3.117   4.349   3.892  0.2013 -0.4044  0.1048
 5899SOL     OW23367   2.201   5.788   4.404  0.0792 -0.0145  0.1739
 5899SOL    HW223368   2.145   5.755   4.474 -0.2482 -1.2775 -0.6411
 5899SOL    HW323369   2.229   5.874   4.434 -0.3463 -0.3718  1.6803
 5899SOL    MW423370   2.197   5.795   4.417 -0.0974  0.4041 -0.1123
 5900SOL     OW23371   2.391   4.043   0.248 -0.1597 -0.1355 -0.3635
 5900SOL    HW223372   2.448   4.057   0.172 -0.2569 -0.1172 -0.4339
 5900SOL    HW323373   2.341   4.124   0.256  1.0654  0.5324  0.7749
 5900SOL    MW423374   2.392   4.055   0.239  0.6322 -0.3809  0.5536
 5901SOL     OW23375   5.264   4.486   6.376 -0.2239 -1.1788  0.6330
 5901SOL    HW223376   5.273   4.405   6.326  1.6248  0.0350 -1.1553
 5901SOL    HW323377   5.336   4.482   6.440  1.1214 -0.1683 -0.7377
 5901SOL    MW423378   5.275   4.475   6.378 -0.0424 -0.5173 -0.2861
 5902SOL     OW23379   4.872   1.571   3.188  0.0644 -0.3222 -0.8302
 5902SOL    HW223380   4.847   1.507   3.254 -0.7494  0.2500 -0.5804
 5902SOL    HW323381   4.944   1.620   3.228  0.7424 -1.1003 -1.0485
 5902SOL    MW423382   4.879   1.569   3.202 -0.1899 -0.6085 -0.2047
 5903SOL     OW23383   3.299   6.303   5.705  0.2737  0.0856 -0.0792
 5903SOL    HW223384   3.257   6.325   5.788 -0.3838  0.4535 -0.4956
 5903SOL    HW323385   3.331   6.213   5.717 -1.4306 -0.5485 -0.0263
 5903SOL    MW423386   3.298   6.294   5.718  0.4455  0.1425  1.2255
 5904SOL     OW23387   1.270   2.462   2.220 -0.3870 -0.4032 -0.1671
 5904SOL    HW223388   1.318   2.534   2.179  1.0781 -2.0143 -1.4469
 5904SOL    HW323389   1.335   2.418   2.275 -0.8476 -1.5816 -0.5314
 5904SOL    MW423390   1.285   2.466   2.222  0.4727 -0.2296  0.2064
 5905SOL     OW23391   6.091   5.019   2.540  0.0938  0.5180 -0.5057
 5905SOL    HW223392   6.151   5.093   2.541  1.9322 -0.8834 -1.5983
 5905SOL    HW323393   6.013   5.052   2.494  0.1519  2.2205  0.5283
 5905SOL    MW423394   6.088   5.033   2.534 -0.0004 -0.2211 -0.4244
 5906SOL     OW23395   5.747   2.608   0.183  0.0981 -0.0616 -0.4831
 5906SOL    HW223396   5.659   2.646   0.183 -0.1092 -0.5453 -0.5832
 5906SOL    HW323397   5.756   2.566   0.268  0.8944  1.4947  0.2548
 5906SOL    MW423398   5.737   2.608   0.194  0.1838  0.1665  0.1542
 5907SOL     OW23399   4.808   1.779   4.565  0.2533  0.1174 -0.1058
 5907SOL    HW223400   4.812   1.851   4.503 -2.2112  0.6019  0.2031
 5907SOL    HW323401   4.722   1.787   4.606  0.7288 -1.7927  1.4252
 5907SOL    MW423402   4.797   1.790   4.562  0.1835  0.0682  0.7785
 5908SOL     OW23403   4.243   1.087   6.073 -0.1012  0.1362 -0.2929
 5908SOL    HW223404   4.167   1.138   6.100  0.0818  0.1571  0.2107
 5908SOL    HW323405   4.207   1.002   6.048 -0.0896 -0.8126  2.5106
 5908SOL    MW423406   4.228   1.082   6.073 -0.3460 -0.0790 -0.2989
 5909SOL     OW23407   6.220   4.014   4.077 -0.2365 -0.5637  0.0340
 5909SOL    HW223408   6.209   4.058   4.162  0.9994 -0.5348  0.1971
 5909SOL    HW323409   6.202   3.922   4.096 -2.3112 -0.2534 -0.1974
 5909SOL    MW423410   6.217   4.008   4.091  0.6547  0.6096  0.6122
 5910SOL     OW23411   5.001   5.636   2.938 -0.2151  0.2247 -0.2741
 5910SOL    HW223412   4.958   5.623   2.854 -0.9381 -1.5083  0.3217
 5910SOL    HW323413   4.950   5.704   2.981 -1.9856 -1.2808  0.1261
 5910SOL    MW423414   4.989   5.643   2.933  0.6360  0.0144  0.1514
 5911SOL     OW23415   1.349   4.708   0.214 -0.3118 -0.1075  0.5081
 5911SOL    HW223416   1.270   4.757   0.192 -1.3979 -1.2653  1.6820
 5911SOL    HW323417   1.413   4.776   0.238 -1.5445  0.8018  1.3804
 5911SOL    MW423418   1.347   4.723   0.214  0.3512  0.5867  0.2169
 5912SOL     OW23419   0.822   2.450   1.588  0.1897 -0.6767  0.5056
 5912SOL    HW223420   0.867   2.385   1.642 -0.2460 -1.3261  0.0980
 5912SOL    HW323421   0.823   2.413   1.500 -0.0654 -0.1267  0.2657
 5912SOL    MW423422   0.828   2.437   1.583  0.3207  0.5475  0.0713
 5913SOL     OW23423   0.721   0.171   0.773 -0.2630 -0.6927 -0.4878
 5913SOL    HW223424   0.774   0.251   0.774 -0.5654 -0.4995  0.2736
 5913SOL    HW323425   0.704   0.155   0.680 -2.3536  1.5799 -0.5872
 5913SOL    MW423426   0.725   0.179   0.761 -0.0806  0.1369  0.3844
 5914SOL     OW23427   1.424   0.426   5.607  0.2134  0.2047 -0.0701
 5914SOL    HW223428   1.384   0.396   5.525  0.3520  0.0419 -0.0778
 5914SOL    HW323429   1.364   0.493   5.640  0.7865  1.1952 -0.9557
 5914SOL    MW423430   1.411   0.431   5.600 -0.4755 -0.2656  0.2609
 5915SOL     OW23431   3.532   0.436   6.111  0.4090  0.2823 -0.7835
 5915SOL    HW223432   3.440   0.419   6.093  0.8834 -0.8626 -2.3430
 5915SOL    HW323433   3.531   0.501   6.181 -1.5665 -0.4092 -0.0980
 5915SOL    MW423434   3.520   0.442   6.118 -0.5498  0.7316  0.1072
 5916SOL     OW23435   4.103   6.027   4.941 -0.5107 -0.4357 -0.5461
 5916SOL    HW223436   4.153   5.946   4.946 -0.0187 -0.1615 -0.9788
 5916SOL    HW323437   4.158   6.093   4.982 -1.8155 -0.7137  1.8297
 5916SOL    MW423438   4.117   6.025   4.947 -0.1948 -0.4685  0.3106
 5917SOL     OW23439   6.382   0.272   5.918 -0.1794  0.3262  0.2006
 5917SOL    HW223440   6.469   0.312   5.917 -0.3236  0.6452 -0.5333
 5917SOL    HW323441   6.374   0.229   5.832 -0.8365  0.5223  0.1513
 5917SOL    MW423442   6.392   0.272   5.906 -0.1040  0.1465 -0.4268
 5918SOL     OW23443   1.860   1.602   3.581  0.4333 -0.3483  0.0766
 5918SOL    HW223444   1.784   1.618   3.525  0.6635 -0.8769 -0.3978
 5918SOL    HW323445   1.832   1.631   3.668  0.2414  0.9547 -0.3936
 5918SOL    MW423446   1.846   1.608   3.585 -0.8357  0.0016  0.0611
 5919SOL     OW23447   5.164   4.934   4.338  0.0503  0.0919  0.0959
 5919SOL    HW223448   5.177   4.839   4.340  1.2781  0.2240  2.6367
 5919SOL    HW323449   5.107   4.952   4.413  2.0110  1.5545  1.3260
 5919SOL    MW423450   5.158   4.924   4.349  0.3477 -0.6931 -0.2183
 5920SOL     OW23451   4.689   2.420   2.430 -0.2394  0.4840  0.7466
 5920SOL    HW223452   4.690   2.487   2.361 -0.7582  1.1534  1.3672
 5920SOL    HW323453   4.655   2.342   2.387 -0.2820  0.8150  0.1660
 5920SOL    MW423454   4.685   2.419   2.415 -0.0493  0.2906  0.5131
 5921SOL     OW23455   6.405   4.499   3.261 -0.2093 -0.6279  0.2615
 5921SOL    HW223456   6.493   4.514   3.227  0.7052 -0.9442  2.3370
 5921SOL    HW323457   6.367   4.587   3.269 -0.6325 -0.5655 -1.8810
 5921SOL    MW423458   6.412   4.513   3.258  0.2216  0.8083 -0.5782
 5922SOL     OW23459   4.519   3.899   4.140  0.2178 -0.2165  0.5261
 5922SOL    HW223460   4.589   3.833   4.137 -0.3905 -0.9126  1.1175
 5922SOL    HW323461   4.542   3.955   4.214  1.0837  0.6602 -0.3767
 5922SOL    MW423462   4.531   3.898   4.150  0.5522  0.2449 -1.2413
 5923SOL     OW23463   4.840   3.252   5.204  0.1888  0.4276  0.1040
 5923SOL    HW223464   4.874   3.247   5.115  0.9207 -1.1957  0.4444
 5923SOL    HW323465   4.747   3.233   5.195  0.0549  1.2620 -0.4076
 5923SOL    MW423466   4.832   3.249   5.191 -0.0495 -0.6826  0.0089
 5924SOL     OW23467   0.192   4.677   6.096  0.0040 -0.4714  0.4991
 5924SOL    HW223468   0.213   4.745   6.032 -0.3801 -0.0661  0.8049
 5924SOL    HW323469   0.097   4.673   6.098 -0.1278  1.4954  3.0782
 5924SOL    MW423470   0.182   4.685   6.088  0.5219  0.3492 -0.2383
 5925SOL     OW23471   6.283   3.628   3.713  0.2833 -0.2809  0.5378
 5925SOL    HW223472   6.292   3.580   3.630  1.0188 -1.0536  1.0540
 5925SOL    HW323473   6.201   3.677   3.703  0.5634 -0.0581 -0.7942
 5925SOL    MW423474   6.273   3.628   3.701 -0.0607 -0.5030  0.2134
 5926SOL     OW23475   4.900   4.220   6.314  0.4812  0.0466  0.0899
 5926SOL    HW223476   4.860   4.265   6.239  0.1087  0.2549  0.4159
 5926SOL    HW323477   4.837   4.153   6.339 -1.2362  2.4045  2.6445
 5926SOL    MW423478   4.887   4.217   6.307  0.4945 -0.0226 -0.2999
 5927SOL     OW23479   4.450   1.721   3.422 -0.4808 -0.1037 -0.7163
 5927SOL    HW223480   4.370   1.765   3.394 -1.0671 -1.1285 -0.6748
 5927SOL    HW323481   4.440   1.710   3.516 -0.7522 -1.1416 -0.8595
 5927SOL    MW423482   4.438   1.726   3.431  0.2115 -0.3201  0.3582
 5928SOL     OW23483   2.416   3.208   4.073  0.0395  0.1152  0.6160
 5928SOL    HW223484   2.421   3.221   4.168  3.3282 -0.5873  0.6769
 5928SOL    HW323485   2.434   3.114   4.061 -0.7422  0.1072 -0.6971
 5928SOL    MW423486   2.419   3.197   4.084  0.1897 -0.4805  0.4287
 5929SOL     OW23487   4.181   0.847   5.951  0.1677  0.4029 -0.2632
 5929SOL    HW223488   4.089   0.871   5.935  0.7240  1.9127 -1.4224
 5929SOL    HW323489   4.189   0.761   5.911 -0.5101  0.6817 -1.0400
 5929SOL    MW423490   4.170   0.839   5.944 -0.2620 -0.0847  0.1475
 5930SOL     OW23491   2.863   4.635   1.361 -0.3674  0.2658 -0.0068
 5930SOL    HW223492   2.804   4.574   1.317 -1.6093  0.5322  1.2461
 5930SOL    HW323493   2.830   4.721   1.338  0.1022  0.4403 -0.0433
 5930SOL    MW423494   2.851   4.638   1.352 -0.0102 -0.0700  0.2119
 5931SOL     OW23495   1.678   3.617   3.507 -0.2745  0.3080 -0.3070
 5931SOL    HW223496   1.650   3.532   3.472 -1.5155 -0.1352  1.6245
 5931SOL    HW323497   1.768   3.627   3.475 -0.6311 -0.9932 -1.8394
 5931SOL    MW423498   1.686   3.607   3.498 -0.2514  0.5340 -0.1136
 5932SOL     OW23499   2.284   5.126   1.745 -0.3693  0.5137 -0.4368
 5932SOL    HW223500   2.223   5.120   1.819  0.6390  0.0675  0.3796
 5932SOL    HW323501   2.353   5.064   1.766  1.5673  2.6302 -0.1668
 5932SOL    MW423502   2.285   5.117   1.758  0.1981  0.6884 -0.6623
 5933SOL     OW23503   4.666   1.508   2.021 -0.6958 -0.1089  0.0149
 5933SOL    HW223504   4.601   1.577   2.024 -2.1771 -1.2700 -2.3575
 5933SOL    HW323505   4.661   1.466   2.107 -2.1131  0.6548  0.3292
 5933SOL    MW423506   4.657   1.511   2.033 -0.5683  0.2887 -0.1092
 5934SOL     OW23507   0.739   0.555   4.506  0.0845 -0.0036  0.1030
 5934SOL    HW223508   0.822   0.524   4.540  0.2860  0.5573  0.1300
 5934SOL    HW323509   0.701   0.479   4.462  1.3939  0.1760 -1.4308
 5934SOL    MW423510   0.745   0.541   4.504 -0.3915  0.6071 -0.0147
 5935SOL     OW23511   1.068   3.242   2.905 -0.1998 -0.3691 -0.2743
 5935SOL    HW223512   1.135   3.267   2.968  1.2730 -1.1203 -1.4780
 5935SOL    HW323513   1.029   3.325   2.877  0.5110  0.1061  0.1331
 5935SOL    MW423514   1.071   3.256   2.910 -0.0406  0.5068  0.3995
 5936SOL     OW23515   2.677   4.415   1.321 -0.1384 -0.0462  0.1710
 5936SOL    HW223516   2.597   4.380   1.361  0.4945 -1.3961  0.3371
 5936SOL    HW323517   2.689   4.362   1.242  0.2164  0.6139 -0.2248
 5936SOL    MW423518   2.668   4.403   1.316 -0.0918  0.6241  0.5520
 5937SOL     OW23519   5.213   3.804   4.095  0.1108 -0.3045  0.4404
 5937SOL    HW223520   5.280   3.737   4.082 -1.0267 -1.5456  0.7101
 5937SOL    HW323521   5.196   3.837   4.007  0.9413 -0.1004  0.3463
 5937SOL    MW423522   5.220   3.799   4.081  0.1797 -0.0242  0.0198
 5938SOL     OW23523   4.386   0.879   0.975  0.1159 -0.2110  0.0122
 5938SOL    HW223524   4.390   0.870   0.880 -0.6985  0.2780 -0.0799
 5938SOL    HW323525   4.362   0.970   0.990 -1.1269 -0.6123  0.6409
 5938SOL    MW423526   4.383   0.890   0.965  0.0808 -0.2502 -0.1126
 5939SOL     OW23527   0.904   4.991   4.294 -0.2853  0.2154 -0.0059
 5939SOL    HW223528   0.993   4.961   4.279 -0.1044 -0.5241  2.1809
 5939SOL    HW323529   0.862   4.987   4.208  0.7772 -2.8911 -0.5048
 5939SOL    MW423530   0.910   4.987   4.281 -0.2717  0.4839 -0.4615
 5940SOL     OW23531   0.155   1.893   5.644  0.1807  0.3892  0.0848
 5940SOL    HW223532   0.171   1.931   5.557 -1.3510 -0.3763 -0.5833
 5940SOL    HW323533   0.068   1.926   5.668 -0.0790 -0.6561  0.6192
 5940SOL    MW423534   0.145   1.903   5.636 -0.3795  0.1621  0.2913
 5941SOL     OW23535   4.750   3.749   4.109 -0.4913 -0.1118 -0.0458
 5941SOL    HW223536   4.736   3.667   4.156 -0.6676 -0.1825 -0.2220
 5941SOL    HW323537   4.818   3.794   4.159 -0.0809 -0.5585 -0.1902
 5941SOL    MW423538   4.757   3.744   4.122  0.0205 -0.1270 -0.3566
 5942SOL     OW23539   4.905   4.609   1.310  0.2050  0.1765  0.6738
 5942SOL    HW223540   4.828   4.662   1.291 -0.6752 -1.4994 -0.5526
 5942SOL    HW323541   4.975   4.650   1.259 -0.4590  0.1746 -0.2470
 5942SOL    MW423542   4.904   4.622   1.301 -0.1616  0.0626 -0.0276
 5943SOL     OW23543   5.613   4.884   0.787 -0.4166 -0.1421 -0.6422
 5943SOL    HW223544   5.659   4.826   0.725 -0.5404 -0.0121 -0.8564
 5943SOL    HW323545   5.581   4.825   0.855 -2.1873 -0.6317 -1.8121
 5943SOL    MW423546   5.615   4.868   0.788 -0.2435 -0.0575  0.0849
 5944SOL     OW23547   1.872   3.190   5.378  0.1424  0.1700  0.2632
 5944SOL    HW223548   1.848   3.253   5.310  1.7667  1.7525  1.0868
 5944SOL    HW323549   1.917   3.120   5.331 -0.9614 -0.0151 -0.5680
 5944SOL    MW423550   1.874   3.189   5.363 -0.0089 -0.0139 -0.1057
 5945SOL     OW23551   0.540   5.350   3.642  0.0319  0.2094  0.5720
 5945SOL    HW223552   0.495   5.271   3.615  0.0508  0.0541  0.9777
 5945SOL    HW323553   0.633   5.328   3.637  0.0652  0.4869 -0.1379
 5945SOL    MW423554   0.546   5.337   3.638  0.5031  0.1144  0.4019
 5946SOL     OW23555   4.258   0.316   1.189 -0.4557  0.3020 -0.4519
 5946SOL    HW223556   4.207   0.385   1.232 -1.0416  0.4589 -1.3547
 5946SOL    HW323557   4.213   0.235   1.213 -1.5108  0.4756 -1.6636
 5946SOL    MW423558   4.245   0.314   1.198  0.2134  0.0117  0.0274
 5947SOL     OW23559   1.811   2.416   6.164 -0.4567  0.2815  0.0801
 5947SOL    HW223560   1.900   2.451   6.175 -0.5906  0.4399  0.7391
 5947SOL    HW323561   1.760   2.491   6.134 -0.5642  0.4483  0.6569
 5947SOL    MW423562   1.816   2.431   6.162 -0.1331 -0.1457 -0.5013
 5948SOL     OW23563   2.275   1.198   4.050 -0.1455 -0.2498  0.3267
 5948SOL    HW223564   2.216   1.205   4.125  0.4093 -1.4801  0.9127
 5948SOL    HW323565   2.357   1.164   4.086  0.8041  1.0024 -0.5364
 5948SOL    MW423566   2.278   1.194   4.064  0.0600  0.2481 -0.3101
 5949SOL     OW23567   1.486   2.946   3.233 -0.5928  0.2007  0.4696
 5949SOL    HW223568   1.535   2.869   3.203 -2.1506 -0.6775  0.0580
 5949SOL    HW323569   1.509   3.015   3.170 -2.5814 -1.1876 -2.0045
 5949SOL    MW423570   1.495   2.945   3.221 -0.0563  0.5813 -0.1983
 5950SOL     OW23571   5.383   3.616   3.335  0.5360  0.3359  0.0448
 5950SOL    HW223572   5.379   3.613   3.240 -0.3693  1.4038  0.0282
 5950SOL    HW323573   5.476   3.606   3.355  0.7151 -0.0680 -0.9376
 5950SOL    MW423574   5.395   3.614   3.325 -0.5490 -0.2516  0.5900
 5951SOL     OW23575   6.338   3.744   5.274 -0.4330 -0.4700 -0.6601
 5951SOL    HW223576   6.397   3.781   5.339  1.1768 -2.3229 -0.9505
 5951SOL    HW323577   6.352   3.798   5.196  0.9252 -0.8654 -0.7189
 5951SOL    MW423578   6.348   3.756   5.272  0.4001  0.0211 -0.0716
 5952SOL     OW23579   0.484   4.634   0.100  0.0153 -0.2437 -0.2226
 5952SOL    HW223580   0.533   4.680   0.032 -0.4289 -1.6961 -1.5918
 5952SOL    HW323581   0.394   4.664   0.090 -0.0629 -0.5072 -0.3020
 5952SOL    MW423582   0.478   4.644   0.090 -0.6994  0.2306  0.2739
 5953SOL     OW23583   4.351   5.502   2.533  0.3443 -0.1112 -1.2066
 5953SOL    HW223584   4.345   5.529   2.625 -1.2387 -0.7825 -1.0795
 5953SOL    HW323585   4.435   5.537   2.503  0.9380  0.0530  0.5157
 5953SOL    MW423586   4.362   5.510   2.541  0.1557 -0.2060 -0.1980
 5954SOL     OW23587   1.108   5.167   2.135 -0.2040  0.4861  0.3731
 5954SOL    HW223588   1.035   5.206   2.183  0.1609  1.9047 -0.1997
 5954SOL    HW323589   1.067   5.123   2.060 -0.4461  1.7400 -0.2500
 5954SOL    MW423590   1.093   5.166   2.132  0.6282  0.0606  0.1243
 5955SOL     OW23591   5.319   0.670   2.472 -0.0755  0.1568 -0.0221
 5955SOL    HW223592   5.327   0.711   2.386 -1.2334 -1.1967 -0.8316
 5955SOL    HW323593   5.389   0.709   2.525  0.7090  0.9541 -1.5967
 5955SOL    MW423594   5.329   0.680   2.468 -0.2211  0.1196  0.0638
 5956SOL     OW23595   5.726   5.421   1.094 -0.0652  0.2945 -0.2970
 5956SOL    HW223596   5.754   5.338   1.056  1.4152  1.0437 -0.9287
 5956SOL    HW323597   5.791   5.441   1.161 -0.4393  0.9222 -0.1067
 5956SOL    MW423598   5.738   5.413   1.098 -0.0690 -0.1891  0.3097
 5957SOL     OW23599   4.244   6.281   1.410 -0.1988  0.0404 -0.2210
 5957SOL    HW223600   4.253   6.332   1.491 -0.9132  0.8861 -0.6429
 5957SOL    HW323601   4.227   6.347   1.343  0.3207 -0.6577 -1.0536
 5957SOL    MW423602   4.243   6.297   1.412  0.2255 -0.5372 -0.1570
 5958SOL     OW23603   2.717   6.174   3.938 -0.8805  0.2873 -0.2387
 5958SOL    HW223604   2.774   6.200   4.011 -1.6238 -0.1544  0.5287
 5958SOL    HW323605   2.766   6.106   3.892 -0.3059  0.7298 -0.2888
 5958SOL    MW423606   2.731   6.168   3.942 -0.0645 -0.3334 -0.5958
 5959SOL     OW23607   4.268   6.244   4.990  0.3579 -0.0938  0.4183
 5959SOL    HW223608   4.348   6.194   4.974  0.6853  0.4727  0.2764
 5959SOL    HW323609   4.269   6.264   5.083 -1.0136 -2.4633  1.0381
 5959SOL    MW423610   4.279   6.240   5.000 -0.5179  0.3322  0.2477
 5960SOL     OW23611   2.314   0.286   5.315  0.4775  0.0321  0.2716
 5960SOL    HW223612   2.373   0.247   5.380  1.4802  0.2094 -0.5081
 5960SOL    HW323613   2.295   0.215   5.255 -0.7147 -0.2178  0.9173
 5960SOL    MW423614   2.319   0.272   5.316  0.3503 -0.3672  0.9411
 5961SOL     OW23615   0.735   1.607   1.675 -0.1373 -0.3373 -0.8673
 5961SOL    HW223616   0.692   1.526   1.647 -0.3732  0.4238 -2.8887
 5961SOL    HW323617   0.765   1.647   1.593  2.3414  0.3397  0.2794
 5961SOL    MW423618   0.733   1.602   1.660  0.3382  0.1074  0.7501
 5962SOL     OW23619   5.625   3.863   3.439 -0.3276 -0.3577  0.1792
 5962SOL    HW223620   5.574   3.913   3.502 -0.8249  1.4358 -1.5378
 5962SOL    HW323621   5.564   3.846   3.367  1.1358  0.9999 -1.4940
 5962SOL    MW423622   5.610   3.867   3.438  0.3766  0.1624 -0.2602
 5963SOL     OW23623   4.016   2.423   5.728  0.3404  0.2331  0.1528
 5963SOL    HW223624   4.084   2.361   5.702  0.4577  0.4255  0.0076
 5963SOL    HW323625   3.987   2.391   5.814  0.8507  0.3513  0.3712
 5963SOL    MW423626   4.021   2.410   5.736  0.4756  0.1082  0.2837
 5964SOL     OW23627   4.913   3.065   2.874  0.2349 -0.1412  0.1577
 5964SOL    HW223628   4.959   3.034   2.795  0.6877 -1.4103  0.8873
 5964SOL    HW323629   4.852   3.131   2.841  0.4921 -0.5566 -1.2482
 5964SOL    MW423630   4.911   3.069   2.859  0.1123 -0.0071  0.6570
 5965SOL     OW23631   3.553   5.885   6.200  0.6846  0.0771  0.5777
 5965SOL    HW223632   3.521   5.975   6.212  2.4548  0.7898  0.2015
 5965SOL    HW323633   3.603   5.866   6.279 -0.5777 -1.0208  1.1496
 5965SOL    MW423634   3.555   5.894   6.212  0.5640  0.1969  0.1685
 5966SOL     OW23635   2.985   4.122   3.723 -0.1277 -0.0980  0.0848
 5966SOL    HW223636   2.974   4.156   3.634 -0.1026 -0.5720 -0.1043
 5966SOL    HW323637   2.932   4.180   3.777 -0.7528 -0.2544 -0.3449
 5966SOL    MW423638   2.976   4.134   3.718  0.4125  0.3139  0.3424
 5967SOL     OW23639   5.368   3.363   0.615 -0.0469 -0.0209  0.0479
 5967SOL    HW223640   5.410   3.445   0.586  0.3462  0.8721  2.8131
 5967SOL    HW323641   5.274   3.381   0.609  0.0355  0.5760  0.4949
 5967SOL    MW423642   5.361   3.376   0.610  0.0649  0.1643 -0.5635
 5968SOL     OW23643   5.151   4.057   3.141  0.0859 -0.2087  0.1054
 5968SOL    HW223644   5.149   3.965   3.166 -0.6118 -1.3052 -3.3689
 5968SOL    HW323645   5.219   4.061   3.073 -1.3239  1.3459 -1.2862
 5968SOL    MW423646   5.160   4.045   3.135  0.5143 -0.1138  0.1105
 5969SOL     OW23647   0.780   2.258   3.900 -0.1538  0.2469  0.0092
 5969SOL    HW223648   0.731   2.287   3.976  0.7843  2.7565 -0.2473
 5969SOL    HW323649   0.727   2.188   3.862 -2.0402  0.8755  1.3598
 5969SOL    MW423650   0.767   2.253   3.905 -0.2465  0.5612  0.5574
 5970SOL     OW23651   1.124   1.795   4.735 -0.4327 -0.3017  0.0792
 5970SOL    HW223652   1.210   1.811   4.774 -0.6198  1.0772 -0.0020
 5970SOL    HW323653   1.089   1.720   4.783 -0.0735  0.4743  1.6251
 5970SOL    MW423654   1.130   1.787   4.747 -0.4208 -0.0924 -0.2669
 5971SOL     OW23655   4.876   0.615   2.911 -0.5341  0.2740 -0.1373
 5971SOL    HW223656   4.864   0.594   2.818 -0.1822 -1.9803  0.2828
 5971SOL    HW323657   4.971   0.619   2.922 -0.4818 -1.6924  0.5201
 5971SOL    MW423658   4.887   0.613   2.900 -0.4755  0.7628 -0.8901
 5972SOL     OW23659   4.592   5.763   5.528 -0.0608 -0.2676 -0.1680
 5972SOL    HW223660   4.547   5.808   5.456  0.3786 -1.2474 -1.0868
 5972SOL    HW323661   4.627   5.833   5.582 -0.4932  0.4960 -0.8485
 5972SOL    MW423662   4.591   5.778   5.525  0.2117  0.5574  0.6785
 5973SOL     OW23663   5.910   0.347   5.516  0.0315 -0.4021 -0.3677
 5973SOL    HW223664   5.886   0.337   5.424 -0.5018  2.4070 -0.6092
 5973SOL    HW323665   5.833   0.316   5.564  0.0958 -1.3497 -0.8485
 5973SOL    MW423666   5.897   0.342   5.510 -0.0369  0.2744  0.0351
 5974SOL     OW23667   0.629   6.358   4.977 -0.1872 -0.5090  0.1677
 5974SOL    HW223668   0.561   6.411   4.936  0.4600  1.3133  1.3199
 5974SOL    HW323669   0.600   6.268   4.964 -2.0017  0.1515 -0.7512
 5974SOL    MW423670   0.616   6.353   4.970  0.1033 -0.3397  0.0644
 5975SOL     OW23671   2.940   0.200   6.360  0.5176 -0.4182 -0.1502
 5975SOL    HW223672   2.946   0.116   6.406  1.8456 -0.3136 -0.0880
 5975SOL    HW323673   2.884   0.182   6.284 -2.3228 -0.4353  1.7842
 5975SOL    MW423674   2.933   0.186   6.356 -0.7942 -0.3483  0.3255
 5976SOL     OW23675   2.276   0.992   4.973 -0.0185  0.4679  0.3575
 5976SOL    HW223676   2.276   0.906   5.014  0.5465  0.7614  0.9958
 5976SOL    HW323677   2.228   0.980   4.892  0.7923 -0.6510  0.0209
 5976SOL    MW423678   2.270   0.979   4.968  0.5062  0.2238 -0.1132
 5977SOL     OW23679   4.421   4.356   1.283 -0.5773 -0.0596  0.0862
 5977SOL    HW223680   4.366   4.281   1.262 -1.6584  0.6954  0.1460
 5977SOL    HW323681   4.460   4.335   1.368 -0.8691 -0.5489  0.1015
 5977SOL    MW423682   4.419   4.344   1.291 -0.2574  0.4813  0.6414
 5978SOL     OW23683   5.290   4.023   5.334  0.1709  0.1508 -0.1784
 5978SOL    HW223684   5.372   3.981   5.309  0.8365  1.0100  0.4882
 5978SOL    HW323685   5.313   4.115   5.346 -0.8891  0.4002  0.0520
 5978SOL    MW423686   5.304   4.029   5.332 -0.0130  0.7707 -0.1375
 5979SOL     OW23687   3.107   3.101   6.080  0.0501  0.4422  0.2019
 5979SOL    HW223688   3.100   3.168   6.148  2.5636  0.5876  0.4021
 5979SOL    HW323689   3.175   3.042   6.112  2.6450  1.4778 -2.9011
 5979SOL    MW423690   3.115   3.102   6.093  0.4547 -0.0524 -0.4792
 5980SOL     OW23691   3.801   6.450   3.306  0.0671 -0.4350  0.6512
 5980SOL    HW223692   3.742   6.379   3.283  1.4668 -1.4954  0.2084
 5980SOL    HW323693   3.868   6.409   3.362  1.0424  0.4500  0.1769
 5980SOL    MW423694   3.802   6.435   3.311  0.9524 -0.5306 -0.0591
 5981SOL     OW23695   6.376   0.307   5.082 -0.2017 -0.8398 -0.6284
 5981SOL    HW223696   6.347   0.216   5.079  1.6126 -1.5422  1.1565
 5981SOL    HW323697   6.443   0.314   5.014  3.0682 -2.2353  2.2249
 5981SOL    MW423698   6.381   0.296   5.072  0.6480  0.5533 -0.2058
 5982SOL     OW23699   0.861   2.469   6.260 -0.8494  0.4398 -0.3672
 5982SOL    HW223700   0.834   2.380   6.241 -2.0030  0.6928  0.0310
 5982SOL    HW323701   0.875   2.509   6.174  2.6791 -0.9468 -0.5996
 5982SOL    MW423702   0.859   2.463   6.246  0.5195  0.2351  0.1533
 5983SOL     OW23703   5.387   6.353   1.427  0.2790 -0.4884 -0.1501
 5983SOL    HW223704   5.452   6.394   1.485  0.6406  0.8887 -1.4610
 5983SOL    HW323705   5.424   6.267   1.407  0.2175 -0.9430  1.4960
 5983SOL    MW423706   5.401   6.347   1.432 -0.0229 -0.8099 -0.4127
 5984SOL     OW23707   6.369   0.694   1.370  0.1418 -0.2464  0.0153
 5984SOL    HW223708   6.404   0.611   1.401 -2.3374 -0.7482  1.7365
 5984SOL    HW323709   6.431   0.760   1.401 -0.0529 -1.1196  2.4234
 5984SOL    MW423710   6.382   0.692   1.378 -0.8215 -0.0474 -0.6878
 5985SOL     OW23711   2.807   5.864   5.476 -0.2560  0.4787 -0.1096
 5985SOL    HW223712   2.717   5.887   5.498 -0.8744 -0.2626 -1.7029
 5985SOL    HW323713   2.820   5.778   5.517 -0.1147  0.7667  0.4651
 5985SOL    MW423714   2.797   5.855   5.485 -0.3077  0.4133 -0.1640
 5986SOL     OW23715   5.412   2.078   3.684  0.1811  0.1935 -0.3525
 5986SOL    HW223716   5.363   2.121   3.754  0.0276 -1.2730  0.4669
 5986SOL    HW323717   5.386   2.125   3.604  1.6995  3.0791  0.6988
 5986SOL    MW423718   5.402   2.090   3.682  0.2094  0.0003 -0.2330
 5987SOL     OW23719   1.806   5.081   6.332  0.1356  0.1942  0.1477
 5987SOL    HW223720   1.781   4.995   6.365  4.1961 -0.5074  2.0316
 5987SOL    HW323721   1.869   5.062   6.262  0.9541  1.5768  0.4743
 5987SOL    MW423722   1.811   5.067   6.327  0.1168 -0.5952  0.0726
 5988SOL     OW23723   4.745   5.173   2.026  0.2813  0.3084 -0.0632
 5988SOL    HW223724   4.682   5.202   2.093 -0.6311 -0.2161 -0.6773
 5988SOL    HW323725   4.771   5.254   1.981 -0.9710  0.3897 -0.6715
 5988SOL    MW423726   4.740   5.188   2.029 -0.4268  0.7690 -0.4324
 5989SOL     OW23727   5.670   2.380   0.024 -0.1578 -0.2466  0.3931
 5989SOL    HW223728   5.694   2.459   0.070 -0.1784 -0.5026  0.8457
 5989SOL    HW323729   5.604   2.338   0.079 -2.4321  0.9219 -1.2728
 5989SOL    MW423730   5.664   2.385   0.037 -0.2949  0.3580  0.0123
 5990SOL     OW23731   0.616   4.478   1.773 -0.2480  0.2712  0.1836
 5990SOL    HW223732   0.664   4.537   1.831 -0.7964 -0.5952  1.5454
 5990SOL    HW323733   0.545   4.443   1.827  0.3472 -2.0180 -0.4247
 5990SOL    MW423734   0.613   4.481   1.788 -0.2563  0.2701  0.6349
 5991SOL     OW23735   3.907   2.936   0.286 -0.5022 -0.3242  0.5046
 5991SOL    HW223736   3.982   2.956   0.342 -0.9342 -1.8845  1.6770
 5991SOL    HW323737   3.841   2.901   0.345 -2.0846  0.7307 -0.5558
 5991SOL    MW423738   3.909   2.934   0.301  0.0230  0.2268 -0.1948
 5992SOL     OW23739   6.406   4.670   4.932  0.0992  0.1256 -0.5981
 5992SOL    HW223740   6.426   4.584   4.894 -2.3781 -1.2091  0.8710
 5992SOL    HW323741   6.458   4.673   5.012  1.0528  0.5354 -1.2103
 5992SOL    MW423742   6.415   4.659   4.938 -0.0628 -0.1089 -0.3257
 5993SOL     OW23743   2.555   2.604   4.884 -0.3205  0.7235  0.5109
 5993SOL    HW223744   2.476   2.641   4.923 -2.0695  0.0314 -2.1165
 5993SOL    HW323745   2.601   2.680   4.847 -2.2627  0.7881 -2.0585
 5993SOL    MW423746   2.551   2.619   4.884  0.1079 -0.0347 -0.1433
 5994SOL     OW23747   2.102   2.209   0.989 -0.0125 -0.3337 -0.0788
 5994SOL    HW223748   2.177   2.151   1.005  0.3949  0.4807  1.0481
 5994SOL    HW323749   2.026   2.158   1.014  0.3067 -0.5547  0.4538
 5994SOL    MW423750   2.102   2.195   0.994 -0.0175 -0.3487 -0.2854
 5995SOL     OW23751   0.579   3.800   2.857  0.6285  0.5780  0.0207
 5995SOL    HW223752   0.621   3.719   2.886 -0.0843  0.1737 -0.0542
 5995SOL    HW323753   0.516   3.772   2.791 -1.5026  0.8251  1.8098
 5995SOL    MW423754   0.576   3.786   2.852 -0.4866 -0.0428  0.4243
 5996SOL     OW23755   0.212   4.950   0.148  0.2701  0.4503  0.1173
 5996SOL    HW223756   0.134   5.002   0.127 -0.2591 -0.3646  0.0153
 5996SOL    HW323757   0.284   4.997   0.106 -0.4774  0.0110 -1.7876
 5996SOL    MW423758   0.211   4.963   0.140  0.6516  0.3761 -0.6072
 5997SOL     OW23759   2.348   3.222   0.134  0.3846  1.0048  0.4754
 5997SOL    HW223760   2.300   3.214   0.216  1.2333  0.4879  0.9341
 5997SOL    HW323761   2.426   3.273   0.156  0.0674  1.8504 -0.2626
 5997SOL    MW423762   2.352   3.228   0.148 -0.0788 -0.5177 -0.0119
 5998SOL     OW23763   5.442   4.850   2.346  0.1425  0.2548  0.2427
 5998SOL    HW223764   5.413   4.771   2.301  0.4590  0.1046  0.2965
 5998SOL    HW323765   5.450   4.824   2.438  0.2965  0.3316  0.2524
 5998SOL    MW423766   5.439   4.836   2.352 -0.2894  0.3615  0.1452
 5999SOL     OW23767   0.170   4.770   1.447  0.0005 -0.4505  0.0929
 5999SOL    HW223768   0.253   4.766   1.400  0.9916 -0.5190  1.7602
 5999SOL    HW323769   0.130   4.852   1.420  1.3240  0.3093  0.3926
 5999SOL    MW423770   0.176   4.780   1.437  1.0032 -0.2429  0.5740
 6000SOL     OW23771   0.196   6.294   2.432  0.0199 -0.4207  0.5672
 6000SOL    HW223772   0.240   6.232   2.490  0.7296  0.4984  1.0312
 6000SOL    HW323773   0.236   6.379   2.452  0.9279 -0.1941 -1.8701
 6000SOL    MW423774   0.207   6.297   2.442 -0.2984  0.7634 -0.2840
 6001SOL     OW23775   4.367   1.710   3.003  0.8104  0.1939  0.2284
 6001SOL    HW223776   4.460   1.697   3.022  0.6527  0.2592  1.1064
 6001SOL    HW323777   4.326   1.626   3.023  0.8455 -0.2147 -1.3520
 6001SOL    MW423778   4.374   1.697   3.008  0.3339 -0.0585  0.7220
 6002SOL     OW23779   5.265   3.827   2.153  0.2096  0.7009  0.6241
 6002SOL    HW223780   5.205   3.844   2.080  1.1288  0.3532 -0.2320
 6002SOL    HW323781   5.246   3.897   2.216  0.1342  1.6633 -0.4267
 6002SOL    MW423782   5.255   3.839   2.151 -0.0784  0.2469 -0.7045
 6003SOL     OW23783   0.980   3.407   1.809  0.7314  0.0745 -0.1943
 6003SOL    HW223784   1.046   3.456   1.858  0.7232 -0.9001  0.8356
 6003SOL    HW323785   0.906   3.400   1.870  1.1338 -2.1383  0.1164
 6003SOL    MW423786   0.979   3.413   1.824  0.1371  0.4468  0.2692
 6004SOL     OW23787   1.890   4.173   4.446  0.4255 -0.0013 -0.4477
 6004SOL    HW223788   1.874   4.143   4.357  3.2289  0.2987 -1.1622
 6004SOL    HW323789   1.900   4.093   4.497  3.9311 -0.4521 -1.5543
 6004SOL    MW423790   1.889   4.158   4.441 -0.3732  0.1401  0.0749
 6005SOL     OW23791   3.016   2.605   3.850  0.1515  0.3693  0.3124
 6005SOL    HW223792   3.069   2.626   3.927  2.1938 -0.2590 -0.8630
 6005SOL    HW323793   3.047   2.664   3.782 -2.0546  1.3442  0.0681
 6005SOL    MW423794   3.027   2.615   3.851  0.7648  0.1259  0.0431
 6006SOL     OW23795   3.710   0.367   0.088 -0.1589  0.1225  0.0833
 6006SOL    HW223796   3.745   0.287   0.127 -0.2156  0.5725  1.0970
 6006SOL    HW323797   3.785   0.409   0.046  0.3176  0.5135  1.2691
 6006SOL    MW423798   3.725   0.362   0.088 -0.0895 -0.1106  0.1682
 6007SOL     OW23799   3.755   5.862   3.876 -0.2506  0.2321 -0.2823
 6007SOL    HW223800   3.835   5.809   3.871 -1.4633 -1.9711  1.7495
 6007SOL    HW323801   3.762   5.908   3.959 -0.0377  1.9977 -1.2258
 6007SOL    MW423802   3.766   5.861   3.886  0.2462  0.1914 -0.0803
 6008SOL     OW23803   6.354   5.902   0.638  0.2374  0.0264 -0.4982
 6008SOL    HW223804   6.321   5.819   0.672 -2.0525  0.8226 -0.6309
 6008SOL    HW323805   6.437   5.916   0.686  1.0454 -2.6057 -0.9813
 6008SOL    MW423806   6.361   5.893   0.649 -0.5675 -0.1616 -0.1007
 6009SOL     OW23807   0.041   5.067   5.156 -0.4094 -0.7759  0.5703
 6009SOL    HW223808   0.058   5.120   5.077  0.1012 -1.1323  0.4361
 6009SOL    HW323809   0.020   5.132   5.223  0.5921 -0.3634  0.5069
 6009SOL    MW423810   0.040   5.083   5.154  0.2758 -0.0066 -1.2707
 6010SOL     OW23811   2.860   3.948   2.346  0.9565 -0.2228 -0.5359
 6010SOL    HW223812   2.871   4.041   2.366 -0.0147 -0.3991  0.9733
 6010SOL    HW323813   2.815   3.946   2.261 -0.9823  0.7622  0.4049
 6010SOL    MW423814   2.856   3.960   2.337  0.3623  0.2376 -0.6286
 6011SOL     OW23815   5.097   4.521   1.947 -0.2823 -0.3504  0.0095
 6011SOL    HW223816   5.045   4.503   2.026  0.9364  0.9350  1.1609
 6011SOL    HW323817   5.032   4.537   1.879 -1.5130  2.4626  1.6695
 6011SOL    MW423818   5.081   4.521   1.949 -1.1165  0.5956 -0.0818
 6012SOL     OW23819   6.097   5.476   4.998  0.0267  0.4829 -0.8288
 6012SOL    HW223820   6.125   5.547   4.940 -1.6450  1.2812 -0.7090
 6012SOL    HW323821   6.076   5.519   5.080  0.8335 -0.4419 -0.1130
 6012SOL    MW423822   6.098   5.491   5.001 -0.0781  0.1395 -0.5384
 6013SOL     OW23823   1.457   0.887   1.267 -0.5575 -0.3480  0.2666
 6013SOL    HW223824   1.494   0.929   1.344 -1.3859  1.6858 -0.3874
 6013SOL    HW323825   1.528   0.887   1.202 -0.8853  1.2059 -0.1291
 6013SOL    MW423826   1.471   0.892   1.268  0.7179 -0.0846 -0.7563
 6014SOL     OW23827   2.210   0.344   3.776  0.3920  0.6236 -0.3184
 6014SOL    HW223828   2.231   0.359   3.868 -0.8845 -0.2486  0.1401
 6014SOL    HW323829   2.151   0.416   3.752  0.5756  0.7463 -0.4058
 6014SOL    MW423830   2.205   0.355   3.785 -0.2821 -0.5051 -0.1278
 6015SOL     OW23831   4.484   6.243   4.501 -0.1680 -0.1356 -0.2214
 6015SOL    HW223832   4.433   6.243   4.420  0.1230  1.1774 -0.4273
 6015SOL    HW323833   4.451   6.318   4.550 -0.5001 -1.0567  1.0020
 6015SOL    MW423834   4.473   6.253   4.497 -0.1188  0.1194 -0.3138
 6016SOL     OW23835   1.362   1.749   1.733 -0.0235 -0.7961  0.0262
 6016SOL    HW223836   1.454   1.773   1.725 -0.3847  0.6336 -0.0356
 6016SOL    HW323837   1.320   1.784   1.655 -0.9695  0.3490  1.0106
 6016SOL    MW423838   1.368   1.756   1.722  0.3856  0.1868 -0.0664
 6017SOL     OW23839   3.675   0.236   5.987 -0.8618  0.1251 -0.2742
 6017SOL    HW223840   3.638   0.304   6.044 -0.5003 -0.8633  1.2088
 6017SOL    HW323841   3.770   0.246   5.997 -0.8032 -0.4192 -0.2536
 6017SOL    MW423842   3.683   0.247   5.996  0.2705 -0.5029  0.7342
 6018SOL     OW23843   0.699   3.083   4.506  0.3204 -0.1889  0.9834
 6018SOL    HW223844   0.789   3.077   4.538 -0.2222  0.9309  2.8773
 6018SOL    HW323845   0.703   3.149   4.437  1.0230 -0.5579  0.6502
 6018SOL    MW423846   0.712   3.091   4.501 -0.0899 -0.2051 -0.4188
 6019SOL     OW23847   1.412   2.317   0.506  0.2950  0.3906  0.5885
 6019SOL    HW223848   1.472   2.386   0.531  0.1561  1.4093 -1.6312
 6019SOL    HW323849   1.462   2.262   0.445 -0.2713 -0.1850  0.6237
 6019SOL    MW423850   1.427   2.319   0.501  0.0315  0.0170  0.5676
 6020SOL     OW23851   4.489   5.904   3.987  0.1377  0.2082 -0.0901
 6020SOL    HW223852   4.548   5.977   3.965  1.7186 -1.4344 -1.5930
 6020SOL    HW323853   4.464   5.868   3.902  0.4780 -1.8175  0.6281
 6020SOL    MW423854   4.494   5.909   3.973 -0.3419  0.9878  0.0339
 6021SOL     OW23855   3.560   5.860   3.007 -0.5802  0.2140  0.3025
 6021SOL    HW223856   3.570   5.778   3.056 -1.0063  0.3247  0.5798
 6021SOL    HW323857   3.649   5.885   2.983 -0.3620  0.1613  1.0274
 6021SOL    MW423858   3.573   5.852   3.010 -0.6054 -0.2897  0.4357
 6022SOL     OW23859   0.705   3.053   6.086 -0.0124 -0.2895 -0.1808
 6022SOL    HW223860   0.629   3.108   6.102  1.4651  1.1106  2.5471
 6022SOL    HW323861   0.675   2.964   6.107 -0.8535  0.2576  1.0149
 6022SOL    MW423862   0.691   3.048   6.091 -0.4599  0.3426  0.3691
 6023SOL     OW23863   5.375   4.981   3.625  0.0790  0.3137  0.1076
 6023SOL    HW223864   5.464   4.987   3.591  0.8851 -1.1913  1.7747
 6023SOL    HW323865   5.377   5.033   3.706  0.1074 -1.3723  1.2592
 6023SOL    MW423866   5.387   4.988   3.631 -0.0238  0.1126  0.4953
 6024SOL     OW23867   1.458   3.808   2.838 -0.0722 -0.1623 -0.2010
 6024SOL    HW223868   1.424   3.890   2.873 -0.1925  0.1269 -0.9807
 6024SOL    HW323869   1.420   3.801   2.751 -0.7654 -1.4911  0.1837
 6024SOL    MW423870   1.449   3.818   2.831  0.1353 -0.1507  0.2091
 6025SOL     OW23871   1.462   6.469   3.953 -0.2607  0.2557 -0.4339
 6025SOL    HW223872   1.415   6.404   3.901 -1.0197  0.4714 -0.0466
 6025SOL    HW323873   1.400   6.543   3.959  0.6458  1.0865 -1.0091
 6025SOL    MW423874   1.447   6.470   3.947  0.9729  0.2494  0.0727
 6026SOL     OW23875   2.612   4.381   5.801 -0.3249  0.1889  0.1320
 6026SOL    HW223876   2.707   4.376   5.797 -0.3507 -1.6538  0.6356
 6026SOL    HW323877   2.589   4.459   5.751  1.3691 -0.0717 -1.1381
 6026SOL    MW423878   2.621   4.391   5.794 -0.2425 -0.3243 -0.1298
 6027SOL     OW23879   2.798   0.725   0.994 -0.5964  0.1688 -0.1543
 6027SOL    HW223880   2.767   0.636   0.977  0.6431  0.1385 -2.7058
 6027SOL    HW323881   2.893   0.717   1.001 -0.5370  1.1921  0.4759
 6027SOL    MW423882   2.806   0.712   0.992 -0.4999 -0.1102  0.2700
 6028SOL     OW23883   2.363   0.171   5.869 -0.0873 -0.0614  0.2445
 6028SOL    HW223884   2.286   0.113   5.873 -0.7729  0.8142  0.0425
 6028SOL    HW323885   2.435   0.113   5.845 -0.7046 -0.8905  0.3508
 6028SOL    MW423886   2.362   0.155   5.866  0.8606  0.3132  0.0192
 6029SOL     OW23887   5.281   0.506   1.598 -0.0873 -0.4781 -0.2255
 6029SOL    HW223888   5.190   0.528   1.619  0.2624  1.5534 -0.6861
 6029SOL    HW323889   5.275   0.426   1.545 -1.6646  0.1490 -1.0422
 6029SOL    MW423890   5.268   0.498   1.594  0.0009 -0.2099 -0.1923
 6030SOL     OW23891   5.782   5.001   5.875 -0.1653  0.2234  0.1843
 6030SOL    HW223892   5.773   4.967   5.964  0.2243 -1.1313 -0.2608
 6030SOL    HW323893   5.824   4.929   5.827  0.7482  1.3837 -0.8089
 6030SOL    MW423894   5.786   4.987   5.881 -0.4309 -0.6578  0.1245
 6031SOL     OW23895   1.765   0.878   4.510 -0.1411 -0.0160  0.2721
 6031SOL    HW223896   1.784   0.853   4.419  0.2934  1.4754 -0.0781
 6031SOL    HW323897   1.835   0.838   4.561  0.7491  0.7482 -0.3139
 6031SOL    MW423898   1.776   0.870   4.505 -0.4469  0.6092 -0.1934
 6032SOL     OW23899   0.203   4.418   3.733  0.1394 -0.0717  0.0807
 6032SOL    HW223900   0.242   4.434   3.648 -0.3210  1.2587  0.0830
 6032SOL    HW323901   0.131   4.482   3.738 -0.1449 -0.4606  1.2536
 6032SOL    MW423902   0.199   4.429   3.723 -0.5360  0.3178 -0.8244
 6033SOL     OW23903   2.906   3.118   0.361 -0.6502  0.2363 -0.5150
 6033SOL    HW223904   2.967   3.157   0.423  1.4774 -3.0408 -0.2801
 6033SOL    HW323905   2.957   3.108   0.280 -0.8563 -2.2277 -0.4324
 6033SOL    MW423906   2.921   3.122   0.359  0.0527 -0.3657  0.5257
 6034SOL     OW23907   3.393   1.280   5.402  0.2638 -0.4054  0.4181
 6034SOL    HW223908   3.402   1.188   5.427 -1.7098 -1.5063 -2.3892
 6034SOL    HW323909   3.318   1.311   5.453  1.1352 -0.1941  1.6167
 6034SOL    MW423910   3.384   1.272   5.412 -0.7568  0.3548 -0.2389
 6035SOL     OW23911   5.924   5.237   3.866  0.2875 -0.2125  0.2393
 6035SOL    HW223912   5.891   5.242   3.955 -0.9628 -1.2781 -0.1318
 6035SOL    HW323913   5.941   5.144   3.851  2.1536  0.1408 -0.0733
 6035SOL    MW423914   5.922   5.226   3.875 -0.4647  0.0959  0.2078
 6036SOL     OW23915   1.109   0.840   1.822  0.1699 -0.1730  0.0582
 6036SOL    HW223916   1.100   0.762   1.768 -0.3900 -1.1071  1.4670
 6036SOL    HW323917   1.164   0.813   1.895  0.5550  0.9511  0.2044
 6036SOL    MW423918   1.115   0.826   1.825 -0.0208  0.0388 -0.1615
 6037SOL     OW23919   3.302   4.805   1.522 -0.2742  0.5665 -0.1451
 6037SOL    HW223920   3.229   4.749   1.549  1.1148 -2.3035 -1.8820
 6037SOL    HW323921   3.311   4.788   1.428  0.0643  4.0679 -0.8758
 6037SOL    MW423922   3.293   4.795   1.513 -0.2233 -0.1921  0.0097
 6038SOL     OW23923   2.512   5.021   4.630 -0.4123 -0.0054  0.4764
 6038SOL    HW223924   2.471   5.082   4.692 -1.1086 -0.5670  0.5826
 6038SOL    HW323925   2.443   5.000   4.568  0.2024  0.3232 -0.3324
 6038SOL    MW423926   2.498   5.026   4.630 -0.8207 -0.5980 -0.7898
 6039SOL     OW23927   0.680   4.593   6.124  0.4776 -0.1213  0.3397
 6039SOL    HW223928   0.729   4.547   6.191  2.6200 -0.6369 -1.4630
 6039SOL    HW323929   0.746   4.639   6.072 -1.1687  1.1170 -0.7969
 6039SOL    MW423930   0.695   4.593   6.126  0.3254  0.5169  0.5722
 6040SOL     OW23931   6.391   1.028   0.141 -0.2617  0.0107  0.3621
 6040SOL    HW223932   6.353   0.948   0.107 -0.3579  0.7487 -1.3311
 6040SOL    HW323933   6.328   1.097   0.120  1.3081  1.0433 -1.3059
 6040SOL    MW423934   6.378   1.027   0.134  0.2369  0.3919  0.0225
 6041SOL     OW23935   0.524   0.859   1.910 -0.3332  0.5789  0.6923
 6041SOL    HW223936   0.562   0.918   1.975 -1.8767 -0.9248  3.1208
 6041SOL    HW323937   0.467   0.915   1.857  0.7107  1.7799  0.7907
 6041SOL    MW423938   0.521   0.874   1.911  0.3805 -0.0770  0.0351
 6042SOL     OW23939   3.474   4.969   2.678 -0.3853  0.1038  0.0066
 6042SOL    HW223940   3.533   4.895   2.670 -1.3685 -0.6039 -1.0073
 6042SOL    HW323941   3.457   4.977   2.772 -0.7866 -1.3762  0.0754
 6042SOL    MW423942   3.479   4.961   2.689  0.3557  0.3029  0.3662
 6043SOL     OW23943   3.969   0.964   4.198  0.4727 -0.6552  0.5346
 6043SOL    HW223944   4.010   0.928   4.120  2.0588 -0.1852  1.1234
 6043SOL    HW323945   3.886   1.001   4.167  1.7684  0.9394 -1.2429
 6043SOL    MW423946   3.963   0.964   4.184 -0.3139 -0.0072  0.2712
 6044SOL     OW23947   4.778   0.707   3.525 -0.3659  0.0041  0.5805
 6044SOL    HW223948   4.770   0.801   3.538  0.8648  0.0018  1.4641
 6044SOL    HW323949   4.828   0.676   3.600 -1.3225 -1.4697  0.6627
 6044SOL    MW423950   4.783   0.715   3.537  1.3598 -0.0364 -0.5386
 6045SOL     OW23951   2.092   0.541   4.631  1.2370 -0.0425  0.1807
 6045SOL    HW223952   2.031   0.495   4.689  3.4283 -2.1815  0.9402
 6045SOL    HW323953   2.055   0.629   4.623 -0.2376 -0.2516  3.2089
 6045SOL    MW423954   2.079   0.547   4.638  0.1633  0.1132 -0.0263
 6046SOL     OW23955   0.143   3.395   4.653 -0.6967 -0.0312 -0.1140
 6046SOL    HW223956   0.142   3.447   4.733  1.9490  0.4462 -0.3089
 6046SOL    HW323957   0.164   3.306   4.682  0.2901  0.1470 -0.2375
 6046SOL    MW423958   0.145   3.390   4.667 -0.6236  0.3139  0.2846
 6047SOL     OW23959   3.208   1.003   6.025 -0.2176 -0.3907  0.1176
 6047SOL    HW223960   3.149   0.949   6.077 -1.8490  0.4093 -0.8150
 6047SOL    HW323961   3.160   1.085   6.011  1.3464  0.5133 -0.2167
 6047SOL    MW423962   3.194   1.007   6.030 -0.9159  0.5742 -0.2013
 6048SOL     OW23963   0.485   2.492   3.850  0.2612  0.1114  0.0670
 6048SOL    HW223964   0.458   2.460   3.936  2.3329 -1.6244  0.1610
 6048SOL    HW323965   0.403   2.515   3.807 -1.0360 -1.2250  1.6573
 6048SOL    MW423966   0.471   2.491   3.856  0.1627  0.6477  0.2420
 6049SOL     OW23967   5.458   6.205   0.474 -0.2424  0.1243  0.4201
 6049SOL    HW223968   5.470   6.183   0.382  0.6761  0.5002  0.4393
 6049SOL    HW323969   5.467   6.300   0.477 -2.5920  0.4049  0.5702
 6049SOL    MW423970   5.460   6.215   0.462  0.0068 -0.5436 -0.2537
 6050SOL     OW23971   0.196   4.425   4.388 -0.0230 -0.1728  0.0452
 6050SOL    HW223972   0.116   4.405   4.340 -0.0263 -1.3969  0.5249
 6050SOL    HW323973   0.234   4.500   4.342 -1.6834  0.7621  0.1024
 6050SOL    MW423974   0.190   4.432   4.376  0.1962  0.0681 -0.1732
 6051SOL     OW23975   5.805   2.743   6.182 -0.0462  0.0861 -0.3465
 6051SOL    HW223976   5.823   2.657   6.144 -0.2252 -0.9881  1.8376
 6051SOL    HW323977   5.765   2.792   6.111  1.3390 -1.1354 -2.0781
 6051SOL    MW423978   5.802   2.738   6.168 -0.2460 -0.0656 -0.5498
 6052SOL     OW23979   6.385   2.570   6.356 -0.0551 -0.1887  0.0767
 6052SOL    HW223980   6.373   2.648   6.410  1.5060 -0.2819  0.5972
 6052SOL    HW323981   6.336   2.501   6.401  1.3352 -0.3017  1.4739
 6052SOL    MW423982   6.377   2.572   6.369 -0.2094  0.0425  0.7419
 6053SOL     OW23983   2.738   3.144   3.759 -0.5222  0.0074 -0.1692
 6053SOL    HW223984   2.818   3.106   3.796 -0.5342  0.5191  0.3943
 6053SOL    HW323985   2.715   3.216   3.818 -0.3132  1.1214 -1.3820
 6053SOL    MW423986   2.745   3.148   3.772 -0.1394 -0.0434  0.2394
 6054SOL     OW23987   3.262   2.578   0.421 -0.3545  0.2727 -0.1459
 6054SOL    HW223988   3.254   2.634   0.498 -2.3979  0.7181 -0.6073
 6054SOL    HW323989   3.181   2.593   0.372  0.2908 -1.0052 -1.7068
 6054SOL    MW423990   3.250   2.587   0.425 -0.5955  0.2805 -0.2535
 6055SOL     OW23991   5.847   2.772   2.183  0.1159  0.0909 -0.2495
 6055SOL    HW223992   5.783   2.834   2.218 -0.5583 -0.9088  0.3865
 6055SOL    HW323993   5.911   2.761   2.254  0.2637  0.1154 -0.3797
 6055SOL    MW423994   5.847   2.779   2.197 -0.1161  0.7797  0.1665
 6056SOL     OW23995   2.515   5.523   4.139  0.1851  0.2516  0.4608
 6056SOL    HW223996   2.478   5.591   4.083 -2.8881 -0.8550  0.9322
 6056SOL    HW323997   2.507   5.443   4.086  0.5699 -0.2557  1.1621
 6056SOL    MW423998   2.509   5.521   4.124 -0.0297  0.2755  0.0024
 6057SOL     OW23999   4.436   1.799   4.071  0.3032  0.5151 -0.0245
 6057SOL    HW224000   4.372   1.866   4.046 -1.0312 -0.4633  0.5894
 6057SOL    HW324001   4.382   1.728   4.106  1.4449 -1.9525 -2.8959
 6057SOL    MW424002   4.420   1.799   4.073 -0.1896  0.2278 -0.4201
 6058SOL     OW24003   5.537   2.008   5.812  0.5981 -0.2279 -0.3538
 6058SOL    HW224004   5.593   2.063   5.867  1.1527 -1.2381  0.1421
 6058SOL    HW324005   5.598   1.963   5.753  0.2193 -0.6379 -0.4423
 6058SOL    MW424006   5.553   2.009   5.811  0.7156  0.3153 -0.8214
 6059SOL     OW24007   1.061   2.243   2.730  1.1210 -0.5373 -0.0194
 6059SOL    HW224008   1.135   2.259   2.671  0.8112 -1.0265 -0.5518
 6059SOL    HW324009   1.001   2.189   2.679  1.8234 -2.8750  1.4738
 6059SOL    MW424010   1.063   2.238   2.715 -0.0328  0.1843 -0.5673
 6060SOL     OW24011   3.326   2.254   3.751  0.7839  0.3574 -0.3231
 6060SOL    HW224012   3.411   2.216   3.774  0.6942  0.8042  0.7829
 6060SOL    HW324013   3.275   2.251   3.832 -0.3247 -0.0463 -1.0028
 6060SOL    MW424014   3.330   2.249   3.765  0.0699  0.1667  0.2138
 6061SOL     OW24015   4.670   2.298   3.778  0.3342 -0.0802 -0.9382
 6061SOL    HW224016   4.602   2.364   3.790  1.5567  0.7797  2.3317
 6061SOL    HW324017   4.744   2.329   3.830  1.2203 -3.6728  0.2678
 6061SOL    MW424018   4.671   2.311   3.786  0.1345 -0.4079  0.0111
 6062SOL     OW24019   2.127   2.121   5.343 -0.2943 -0.4990  0.3374
 6062SOL    HW224020   2.168   2.076   5.417  2.1081 -0.5933 -0.9270
 6062SOL    HW324021   2.114   2.052   5.277  0.8106  0.0902 -0.5554
 6062SOL    MW424022   2.131   2.106   5.344  0.3705 -0.2252  0.1799
 6063SOL     OW24023   4.922   4.570   4.531  0.0557 -0.2082  0.4996
 6063SOL    HW224024   4.869   4.642   4.497  0.0881  0.0862  1.0637
 6063SOL    HW324025   4.864   4.494   4.531 -0.4826  0.1978  1.4753
 6063SOL    MW424026   4.907   4.569   4.526  0.5072  0.1628  0.1722
 6064SOL     OW24027   1.255   5.586   4.001 -0.6775 -0.3831  0.4341
 6064SOL    HW224028   1.302   5.655   3.954 -0.5498 -0.3989  0.5396
 6064SOL    HW324029   1.228   5.628   4.083 -0.6329 -0.4486  0.4816
 6064SOL    MW424030   1.257   5.601   4.005  0.1616 -0.3570  0.1263
 6065SOL     OW24031   1.953   3.704   3.072  0.0901  0.0949 -0.2770
 6065SOL    HW224032   1.943   3.701   3.167 -0.5686  0.9040 -0.3041
 6065SOL    HW324033   1.881   3.652   3.038  0.4583 -0.3829 -0.3343
 6065SOL    MW424034   1.942   3.697   3.080 -0.8273  0.2238 -0.3017
 6066SOL     OW24035   1.169   4.524   6.197  0.0872 -0.5140 -0.4636
 6066SOL    HW224036   1.175   4.611   6.157  0.3224 -0.9993 -1.5218
 6066SOL    HW324037   1.191   4.539   6.289  0.6821  0.4624 -0.7441
 6066SOL    MW424038   1.173   4.538   6.204  0.1408 -0.2054 -0.9271
 6067SOL     OW24039   0.676   0.138   1.051 -0.3256  0.7076  0.2094
 6067SOL    HW224040   0.616   0.067   1.075 -0.0226  0.0573 -0.8954
 6067SOL    HW324041   0.659   0.154   0.958  0.6954  1.0220  0.0699
 6067SOL    MW424042   0.666   0.131   1.042  0.3290 -0.1699  0.2225
 6068SOL     OW24043   5.020   1.454   0.016 -0.2967 -0.5662  0.2876
 6068SOL    HW224044   4.952   1.517   0.040 -0.4286 -0.7052  0.2719
 6068SOL    HW324045   4.985   1.407  -0.059  0.2004  0.0110 -0.3202
 6068SOL    MW424046   5.007   1.456   0.010  0.0201 -0.6014  0.0590
 6069SOL     OW24047   3.067   4.159   5.666  0.3378 -0.1719 -0.3286
 6069SOL    HW224048   3.035   4.219   5.600  1.1412  0.7454  0.0760
 6069SOL    HW324049   2.990   4.135   5.718 -0.0168  0.3896 -0.5953
 6069SOL    MW424050   3.053   4.164   5.664 -0.4231  0.2271 -0.0590
 6070SOL     OW24051   5.976   5.790   1.102 -0.2363 -0.3201 -0.4011
 6070SOL    HW224052   5.987   5.884   1.118 -0.7600  0.7427 -4.9987
 6070SOL    HW324053   6.064   5.758   1.084  0.1927 -1.2484  2.7755
 6070SOL    MW424054   5.989   5.798   1.102  0.0048  0.2477  0.0055
 6071SOL     OW24055   3.664   3.295   2.823  0.3059  0.0059 -0.2780
 6071SOL    HW224056   3.582   3.326   2.861  0.0985 -0.0307 -0.6804
 6071SOL    HW324057   3.709   3.375   2.795  0.7589  0.0755  0.6275
 6071SOL    MW424058   3.659   3.310   2.824 -0.1652  0.0078 -0.7563
 6072SOL     OW24059   0.819   5.115   4.704 -0.1062  0.0374 -0.4734
 6072SOL    HW224060   0.858   5.038   4.662 -0.5137 -0.5847  0.2627
 6072SOL    HW324061   0.882   5.141   4.770 -0.4339 -0.3090 -0.0163
 6072SOL    MW424062   0.832   5.108   4.707  0.6612  0.2676 -0.6093
 6073SOL     OW24063   5.371   4.182   3.857 -0.0267  0.2692  0.2347
 6073SOL    HW224064   5.320   4.121   3.911  0.5566 -1.7702 -1.3917
 6073SOL    HW324065   5.410   4.242   3.920 -2.4697  0.4272  1.7284
 6073SOL    MW424066   5.369   4.182   3.873  0.0530 -0.3062  0.0681
 6074SOL     OW24067   3.246   0.977   4.743 -0.0975 -0.1793  0.1489
 6074SOL    HW224068   3.264   0.886   4.720 -1.9306 -0.6381  0.3708
 6074SOL    HW324069   3.317   1.002   4.801  1.0086 -1.1131 -0.7664
 6074SOL    MW424070   3.258   0.969   4.748  0.1902  0.1125  0.2226
 6075SOL     OW24071   1.220   4.218   3.783 -0.5256  0.3466 -0.2588
 6075SOL    HW224072   1.159   4.150   3.755 -0.6887  0.4082 -0.0608
 6075SOL    HW324073   1.167   4.297   3.787 -0.5316  0.3177  0.3155
 6075SOL    MW424074   1.205   4.219   3.780  0.4023 -0.0820 -0.7928
 6076SOL     OW24075   2.502   4.494   6.210 -0.1034 -0.2199 -0.4379
 6076SOL    HW224076   2.528   4.522   6.298 -1.6201  1.0629 -0.3514
 6076SOL    HW324077   2.536   4.561   6.152 -0.5351 -0.1727 -0.6421
 6076SOL    MW424078   2.510   4.506   6.214 -0.0420  0.3652  0.9160
 6077SOL     OW24079   2.746   1.699   3.542  0.8049 -0.0481 -0.5317
 6077SOL    HW224080   2.743   1.793   3.523 -2.0071 -0.1127 -0.7946
 6077SOL    HW324081   2.714   1.692   3.632 -2.6037 -0.9160 -1.6714
 6077SOL    MW424082   2.742   1.710   3.552  0.0440 -0.0131 -0.0391
 6078SOL     OW24083   4.226   0.301   3.526 -0.2889  0.1800 -0.7563
 6078SOL    HW224084   4.168   0.349   3.586 -0.1901  0.0068 -0.5219
 6078SOL    HW324085   4.229   0.213   3.561 -2.0663 -0.5697 -2.2950
 6078SOL    MW424086   4.219   0.296   3.539 -0.0358 -0.0354 -0.5007
 6079SOL     OW24087   2.439   4.198   5.932 -0.2826 -0.3030  0.3261
 6079SOL    HW224088   2.488   4.255   5.874 -0.5939 -0.1629  0.1961
 6079SOL    HW324089   2.389   4.258   5.988 -2.8827 -0.3911 -1.7153
 6079SOL    MW424090   2.439   4.213   5.932  0.3996 -0.1852  0.0645
 6080SOL     OW24091   1.637   3.436   5.632 -0.2422 -0.1829 -0.8094
 6080SOL    HW224092   1.548   3.426   5.665 -0.5289 -0.4282 -1.6455
 6080SOL    HW324093   1.629   3.426   5.537  0.2214  2.7769 -1.2498
 6080SOL    MW424094   1.624   3.433   5.624 -0.0655 -0.1918  0.1349
 6081SOL     OW24095   2.394   6.143   2.753  0.3054 -0.0114 -0.6627
 6081SOL    HW224096   2.473   6.172   2.799  0.1758  1.1585 -1.1352
 6081SOL    HW324097   2.399   6.187   2.668 -0.0149 -1.2695 -1.3426
 6081SOL    MW424098   2.405   6.153   2.748  0.5290 -0.0369 -0.4216
 6082SOL     OW24099   6.397   4.559   3.739  0.2379  0.3100  0.2534
 6082SOL    HW224100   6.334   4.491   3.715 -1.0896  0.8964  1.8736
 6082SOL    HW324101   6.385   4.627   3.672 -0.0313 -0.0910 -0.1098
 6082SOL    MW424102   6.387   4.559   3.727  0.4329  0.4626  0.8240
 6083SOL     OW24103   4.096   4.118   3.277 -0.1521  0.1820  0.4539
 6083SOL    HW224104   4.172   4.060   3.285  0.7723  1.2519 -0.2064
 6083SOL    HW324105   4.091   4.138   3.183 -1.3584  0.0105  0.4641
 6083SOL    MW424106   4.105   4.113   3.266  0.4530  0.6213  0.1837
 6084SOL     OW24107   5.914   2.993   1.420 -0.0477  0.3760  0.2233
 6084SOL    HW224108   5.994   2.990   1.473 -0.0628 -0.1730  0.2215
 6084SOL    HW324109   5.884   2.902   1.417 -0.0697  0.4011 -0.6917
 6084SOL    MW424110   5.921   2.980   1.427 -0.0273 -0.3000  0.3418
 6085SOL     OW24111   3.273   2.976   1.264 -0.3391 -0.0833 -0.3189
 6085SOL    HW224112   3.243   2.947   1.350 -0.8672  1.4575  0.0336
 6085SOL    HW324113   3.363   3.006   1.280 -0.7023  0.9283 -0.1318
 6085SOL    MW424114   3.281   2.976   1.278  0.2171  0.4545  0.0717
 6086SOL     OW24115   4.814   5.859   0.929 -0.0665  0.1829  0.3173
 6086SOL    HW224116   4.742   5.797   0.940  0.1990 -0.5754 -1.7799
 6086SOL    HW324117   4.893   5.804   0.934  0.1337 -0.0713 -3.1962
 6086SOL    MW424118   4.815   5.843   0.931 -0.5578 -0.5810 -0.1216
 6087SOL     OW24119   4.129   5.647   0.955 -0.1803 -0.1409 -0.1064
 6087SOL    HW224120   4.131   5.731   1.002  0.0155 -0.0041 -0.3581
 6087SOL    HW324121   4.209   5.603   0.983 -0.0307 -0.0315 -0.3654
 6087SOL    MW424122   4.140   5.653   0.965 -0.2744  0.0501 -0.0694
 6088SOL     OW24123   1.732   6.445   1.329  0.4349 -0.4089  0.0378
 6088SOL    HW224124   1.751   6.477   1.241  0.8034  1.1649  0.6629
 6088SOL    HW324125   1.638   6.456   1.339  0.3290 -0.9640 -0.2835
 6088SOL    MW424126   1.722   6.451   1.319 -0.3731 -0.1096 -0.2073
 6089SOL     OW24127   1.230   2.277   1.478  0.4627  0.1532  0.2862
 6089SOL    HW224128   1.316   2.298   1.441 -0.1044  0.2880 -0.9960
 6089SOL    HW324129   1.198   2.361   1.511 -0.2607  0.6551 -1.5819
 6089SOL    MW424130   1.237   2.291   1.477  0.0308 -0.7765  0.9777
 6090SOL     OW24131   2.098   0.535   0.595 -0.1328 -0.3316 -0.2102
 6090SOL    HW224132   2.062   0.588   0.524  1.3785  1.5031  0.2981
 6090SOL    HW324133   2.024   0.483   0.626 -1.6231  1.1684 -1.0486
 6090SOL    MW424134   2.083   0.535   0.590  0.0079 -0.2678  0.4627
 6091SOL     OW24135   4.146   0.722   1.973 -0.2430  0.1962 -0.1601
 6091SOL    HW224136   4.110   0.686   2.054 -1.0486 -0.3438 -0.7439
 6091SOL    HW324137   4.219   0.663   1.951  0.9186  1.1734  0.9129
 6091SOL    MW424138   4.151   0.709   1.981  0.2820  0.0879 -0.7499
 6092SOL     OW24139   4.637   2.362   0.823  0.2888  0.0088 -0.4989
 6092SOL    HW224140   4.645   2.282   0.875 -0.6140 -1.3983 -2.4077
 6092SOL    HW324141   4.543   2.371   0.808  0.2918  1.9431  0.3762
 6092SOL    MW424142   4.625   2.352   0.828  0.4937 -0.1319  0.1964
 6093SOL     OW24143   5.765   1.238   0.835 -0.0092 -0.4968 -0.1537
 6093SOL    HW224144   5.768   1.307   0.901  0.0623 -2.7054  2.3187
 6093SOL    HW324145   5.856   1.214   0.820 -0.1252 -1.6404  0.8441
 6093SOL    MW424146   5.777   1.244   0.842 -0.1273 -0.3152 -0.1296
 6094SOL     OW24147   1.742   1.790   2.892 -0.0909  0.2074  0.6715
 6094SOL    HW224148   1.811   1.822   2.950  0.6704 -2.7777  1.6420
 6094SOL    HW324149   1.661   1.819   2.933  0.5237  1.4843  1.0315
 6094SOL    MW424150   1.741   1.798   2.905 -0.0204  0.6247 -0.2057
 6095SOL     OW24151   1.162   1.130   3.071 -0.1297  0.0046 -0.2234
 6095SOL    HW224152   1.202   1.046   3.049 -0.2975 -0.9343  2.6828
 6095SOL    HW324153   1.224   1.196   3.039  2.3282 -1.3369  1.5158
 6095SOL    MW424154   1.175   1.128   3.064 -0.0852  0.6032  0.5662
 6096SOL     OW24155   2.551   5.265   3.978 -0.3135  0.3762 -0.0178
 6096SOL    HW224156   2.569   5.179   3.940  0.3909  0.3196  0.4385
 6096SOL    HW324157   2.592   5.327   3.918  0.3365  0.3158  0.3579
 6096SOL    MW424158   2.559   5.262   3.965 -0.2893  0.3695  0.0285
 6097SOL     OW24159   1.027   5.991   1.842  0.0156 -0.3780  0.5765
 6097SOL    HW224160   1.071   6.075   1.826 -1.9488  0.2817 -2.1832
 6097SOL    HW324161   1.098   5.926   1.838  1.3644  0.9922  1.2177
 6097SOL    MW424162   1.042   5.993   1.839  0.0201 -0.9226 -0.3044
 6098SOL     OW24163   5.875   4.514   3.089  0.0785 -0.0414 -0.3111
 6098SOL    HW224164   5.791   4.470   3.076 -0.4419  1.0287 -0.6457
 6098SOL    HW324165   5.925   4.494   3.010 -0.1609 -0.0016 -0.4709
 6098SOL    MW424166   5.871   4.505   3.077 -0.2341 -0.2680  0.0993
 6099SOL     OW24167   2.091   5.086   1.963  0.3028 -0.3787  0.5354
 6099SOL    HW224168   2.059   5.176   1.956  2.7119  0.5663  0.5428
 6099SOL    HW324169   2.012   5.032   1.970 -1.1751  1.8236  1.7510
 6099SOL    MW424170   2.077   5.091   1.963 -0.1590 -0.5066 -0.2419
 6100SOL     OW24171   5.630   1.341   2.937 -0.0989 -0.3100 -0.1412
 6100SOL    HW224172   5.717   1.378   2.953  0.0843 -1.1589  0.9508
 6100SOL    HW324173   5.571   1.394   2.991 -0.2318  0.1113 -0.6938
 6100SOL    MW424174   5.634   1.353   2.946 -0.2577  0.1679 -0.2256
 6101SOL     OW24175   6.316   3.977   2.448  0.2052  0.7067 -0.1106
 6101SOL    HW224176   6.355   3.909   2.503  0.3915 -0.5247 -1.6942
 6101SOL    HW324177   6.247   4.016   2.503  0.1504 -0.7068  0.8652
 6101SOL    MW424178   6.312   3.973   2.463 -0.4781 -0.2190 -0.1488
 6102SOL     OW24179   5.081   5.616   6.330  0.1773  0.4870 -0.4885
 6102SOL    HW224180   5.036   5.631   6.413  1.4621 -2.1809  0.8421
 6102SOL    HW324181   5.012   5.621   6.264 -1.1320  1.3605  0.8817
 6102SOL    MW424182   5.066   5.618   6.332 -0.4119 -0.0915  0.1190
 6103SOL     OW24183   0.299   4.359   2.326 -0.1049 -0.5575  0.1083
 6103SOL    HW224184   0.285   4.287   2.265 -0.6610  0.7267 -1.3425
 6103SOL    HW324185   0.336   4.429   2.272 -0.2748  0.4917  1.3144
 6103SOL    MW424186   0.302   4.358   2.311  0.1758 -0.0169  0.2608
 6104SOL     OW24187   3.707   1.370   6.291  0.1725  0.0907 -0.3919
 6104SOL    HW224188   3.737   1.365   6.200 -0.4528 -0.3792 -0.5729
 6104SOL    HW324189   3.738   1.456   6.321 -0.9306  0.9183 -1.5201
 6104SOL    MW424190   3.715   1.381   6.283 -0.1576 -0.1028  0.2736
 6105SOL     OW24191   5.576   2.567   1.557  0.2191 -0.5494  0.3349
 6105SOL    HW224192   5.633   2.634   1.520 -1.2833 -0.2511 -1.6330
 6105SOL    HW324193   5.632   2.491   1.570  1.4386  0.3208  0.2352
 6105SOL    MW424194   5.591   2.566   1.554  0.0381  0.0007  0.8150
 6106SOL     OW24195   0.118   2.376   5.313  0.4665  0.0427  0.1306
 6106SOL    HW224196   0.178   2.339   5.377  0.4933  0.3071  0.2607
 6106SOL    HW324197   0.094   2.461   5.349 -1.4583 -0.8153  1.0256
 6106SOL    MW424198   0.123   2.383   5.326  0.2810  0.4411  0.3434
 6107SOL     OW24199   5.612   6.111   4.157 -0.4487 -0.0659  1.0850
 6107SOL    HW224200   5.530   6.076   4.193 -0.1506 -1.5099  0.3922
 6107SOL    HW324201   5.677   6.095   4.226  0.1132 -2.7998  0.0369
 6107SOL    MW424202   5.610   6.104   4.171 -0.2156  0.2320  0.3732
 6108SOL     OW24203   3.320   1.360   4.082 -0.2661  0.4807  0.4238
 6108SOL    HW224204   3.317   1.274   4.039 -2.5748 -0.2614  1.8433
 6108SOL    HW324205   3.320   1.423   4.010 -1.1841 -0.7093 -0.6698
 6108SOL    MW424206   3.320   1.357   4.067  0.4660 -0.1566 -0.2964
 6109SOL     OW24207   3.056   5.214   2.740  0.1585  0.1308  0.2241
 6109SOL    HW224208   3.070   5.120   2.731  0.6266  0.1881  0.3121
 6109SOL    HW324209   3.107   5.252   2.668 -1.8584  0.2024 -1.2417
 6109SOL    MW424210   3.065   5.207   2.730  0.4272  0.3129  0.8751
 6110SOL     OW24211   2.610   4.631   1.634  0.3060 -0.2019  0.1310
 6110SOL    HW224212   2.641   4.541   1.629 -0.8257 -0.5845 -0.3028
 6110SOL    HW324213   2.557   4.635   1.714  0.8285  0.2333  0.4599
 6110SOL    MW424214   2.607   4.620   1.644 -0.3425 -0.2921  0.0240
 6111SOL     OW24215   1.868   2.522   3.076 -0.0204 -0.0029 -0.4231
 6111SOL    HW224216   1.842   2.580   3.004 -0.3533  1.0772  0.5256
 6111SOL    HW324217   1.962   2.510   3.064 -0.1712 -0.2759 -1.3451
 6111SOL    MW424218   1.877   2.528   3.065  0.3627  0.1560 -0.2645
 6112SOL     OW24219   1.796   5.737   2.884  0.0279 -0.0407 -0.1249
 6112SOL    HW224220   1.751   5.703   2.807 -0.6227  2.1525 -0.7880
 6112SOL    HW324221   1.887   5.746   2.857  0.0328 -0.3994 -0.2312
 6112SOL    MW424222   1.802   5.734   2.870 -0.2917 -0.6353  0.2054
 6113SOL     OW24223   5.709   1.103   3.158 -0.1925  0.2089  0.1597
 6113SOL    HW224224   5.719   1.171   3.224  2.0592 -0.0050  0.1067
 6113SOL    HW324225   5.695   1.150   3.076  1.2825  0.6533  0.1327
 6113SOL    MW424226   5.708   1.118   3.156  0.1138 -0.6634  0.0045
 6114SOL     OW24227   3.540   5.254   4.030 -0.0848 -0.2880  0.1000
 6114SOL    HW224228   3.491   5.243   4.111  0.4624  2.1896  0.8625
 6114SOL    HW324229   3.625   5.290   4.057  0.2948  0.1614 -1.5219
 6114SOL    MW424230   3.545   5.257   4.044 -0.7269 -0.4763 -0.2253
 6115SOL     OW24231   5.244   2.168   4.628  0.2682  0.5500  0.5857
 6115SOL    HW224232   5.220   2.210   4.545 -2.4994 -1.5375  0.1796
 6115SOL    HW324233   5.307   2.100   4.603 -0.0273  0.3836  0.2891
 6115SOL    MW424234   5.249   2.164   4.614 -0.2390  0.4982  0.1118
 6116SOL     OW24235   0.491   5.631   3.040 -0.2314  0.0835  0.9214
 6116SOL    HW224236   0.547   5.665   3.109 -0.2298  1.7827  0.1407
 6116SOL    HW324237   0.478   5.705   2.981 -2.4131 -0.5566  0.5039
 6116SOL    MW424238   0.497   5.645   3.041  0.4076  0.2079  0.2236
 6117SOL     OW24239   2.516   0.503   5.301 -0.0562 -0.5749 -0.1531
 6117SOL    HW224240   2.450   0.439   5.276  0.4115 -1.5368  0.9747
 6117SOL    HW324241   2.599   0.457   5.290  0.2797 -0.2305  0.8228
 6117SOL    MW424242   2.518   0.488   5.296 -0.3157  0.0824  0.0198
 6118SOL     OW24243   3.519   4.358   1.115  0.0771  0.1457  0.1963
 6118SOL    HW224244   3.513   4.360   1.211  1.3673  1.0685  0.2824
 6118SOL    HW324245   3.519   4.265   1.093  2.3076 -0.1784  1.3176
 6118SOL    MW424246   3.518   4.346   1.125  0.2174  0.6339 -0.1804
 6119SOL     OW24247   5.415   0.600   2.932  0.2451 -0.6040 -0.3185
 6119SOL    HW224248   5.407   0.529   2.868  0.0898 -0.2359 -0.7136
 6119SOL    HW324249   5.445   0.557   3.012  1.2836 -0.9540 -0.8786
 6119SOL    MW424250   5.418   0.585   2.934 -0.3057 -0.3319 -0.0226
 6120SOL     OW24251   5.928   3.605   1.745 -0.1636  0.5923  0.1728
 6120SOL    HW224252   5.922   3.676   1.681  0.8990  0.1252 -0.4780
 6120SOL    HW324253   5.931   3.525   1.693  0.0919  0.1573  0.8341
 6120SOL    MW424254   5.928   3.604   1.730 -0.4693  0.2953  0.7444
 6121SOL     OW24255   0.889   6.348   0.872 -0.6334  0.6470 -0.1300
 6121SOL    HW224256   0.859   6.306   0.791 -2.4167  0.7834  0.4199
 6121SOL    HW324257   0.888   6.442   0.852  1.0311  0.5998 -0.5977
 6121SOL    MW424258   0.885   6.355   0.858 -0.2567  0.6440 -0.7862
 6122SOL     OW24259   2.921   2.916   4.620 -0.4573 -0.3191 -0.0069
 6122SOL    HW224260   3.001   2.917   4.673 -0.4197  0.4091 -0.0636
 6122SOL    HW324261   2.945   2.964   4.540 -0.6902 -0.8777 -0.4157
 6122SOL    MW424262   2.935   2.923   4.616 -0.4224  0.3714  0.0504
 6123SOL     OW24263   2.881   6.118   2.593 -0.1768  0.6657  0.7867
 6123SOL    HW224264   2.813   6.052   2.583  0.4891  0.1609 -0.6831
 6123SOL    HW324265   2.838   6.200   2.570 -0.0754  0.2205 -1.1705
 6123SOL    MW424266   2.866   6.120   2.589  0.5262  0.4732 -0.1358
 6124SOL     OW24267   2.599   2.075   2.531 -0.3497  0.1352 -0.3473
 6124SOL    HW224268   2.582   2.167   2.550 -0.5645 -0.1816  1.1759
 6124SOL    HW324269   2.593   2.032   2.617 -0.3312 -1.3031 -1.0396
 6124SOL    MW424270   2.596   2.081   2.545 -0.0074  0.0332  0.7167
 6125SOL     OW24271   3.310   5.667   1.895  0.2309  0.0794 -0.2533
 6125SOL    HW224272   3.285   5.651   1.986 -0.2299 -0.3294 -0.4456
 6125SOL    HW324273   3.262   5.601   1.845 -0.5552  1.1214 -0.9233
 6125SOL    MW424274   3.300   5.656   1.900  0.3024 -0.0199 -0.2197
 6126SOL     OW24275   5.616   2.067   5.132 -0.2179 -0.1847  0.5979
 6126SOL    HW224276   5.593   2.085   5.223 -2.6883  1.1495 -0.2012
 6126SOL    HW324277   5.578   1.981   5.115  0.9773 -0.8203  1.0132
 6126SOL    MW424278   5.608   2.058   5.142 -0.6155 -0.2656  0.0988
 6127SOL     OW24279   2.267   3.782   4.130 -0.0119  0.5077  0.4823
 6127SOL    HW224280   2.255   3.753   4.040  0.0796  0.1368  0.5904
 6127SOL    HW324281   2.199   3.848   4.143  0.7439  1.4716 -0.2541
 6127SOL    MW424282   2.257   3.787   4.120  0.0694 -0.8814 -0.1749
 6128SOL     OW24283   1.184   4.266   4.755  0.4317  0.2860 -0.3962
 6128SOL    HW224284   1.181   4.242   4.847  1.0970 -1.5235 -0.8077
 6128SOL    HW324285   1.101   4.312   4.739 -0.0968 -0.1883  0.8773
 6128SOL    MW424286   1.173   4.269   4.765  0.0710 -0.0131  0.1888
 6129SOL     OW24287   3.695   4.890   4.285 -0.4697  0.4513  0.5797
 6129SOL    HW224288   3.658   4.925   4.204 -2.0749 -0.7880  0.7208
 6129SOL    HW324289   3.782   4.928   4.290 -0.1484  0.2172 -1.9665
 6129SOL    MW424290   3.701   4.900   4.275  0.5622  0.3531 -0.2017
 6130SOL     OW24291   4.240   2.390   3.917  0.2642 -0.3268 -0.0051
 6130SOL    HW224292   4.177   2.445   3.964  0.6905  0.3182 -0.1670
 6130SOL    HW324293   4.274   2.329   3.983 -0.3665 -0.5314  0.1298
 6130SOL    MW424294   4.236   2.389   3.932 -0.2126 -0.3875 -0.4167
 6131SOL     OW24295   5.968   4.414   6.299  0.1212 -0.1977  0.3462
 6131SOL    HW224296   5.904   4.377   6.359 -0.9638  1.4153  0.2496
 6131SOL    HW324297   6.010   4.338   6.259 -1.2982 -1.3113  0.8690
 6131SOL    MW424298   5.965   4.399   6.302  0.3379  0.4678  0.0132
 6132SOL     OW24299   1.220   2.521   4.101 -0.0956 -0.1286  0.6173
 6132SOL    HW224300   1.237   2.476   4.019 -1.4848  1.3232 -0.5230
 6132SOL    HW324301   1.292   2.583   4.111  1.5802 -2.1271  1.9694
 6132SOL    MW424302   1.232   2.523   4.092  0.7643  0.2995 -0.4695
 6133SOL     OW24303   6.222   1.644   5.784 -0.3178  0.0917 -0.2240
 6133SOL    HW224304   6.261   1.637   5.871 -0.3205 -0.0524 -0.2339
 6133SOL    HW324305   6.175   1.561   5.772  0.5915 -0.3511 -0.8012
 6133SOL    MW424306   6.221   1.632   5.794 -0.1004 -0.1657 -0.2231
 6134SOL     OW24307   4.128   4.074   5.053 -0.7559  0.1054 -0.0804
 6134SOL    HW224308   4.157   4.044   4.967 -0.5702  1.1286 -0.3895
 6134SOL    HW324309   4.153   4.004   5.113  0.9889  0.2923 -0.5609
 6134SOL    MW424310   4.135   4.061   5.049  0.2509 -0.4221 -0.0131
 6135SOL     OW24311   4.270   0.222   2.890  0.3078 -0.0911 -0.2743
 6135SOL    HW224312   4.262   0.257   2.979 -0.1531  0.7479 -0.6376
 6135SOL    HW324313   4.264   0.127   2.902 -1.0480  0.0519  0.4909
 6135SOL    MW424314   4.268   0.214   2.904 -0.0372 -0.3590 -0.1075
 6136SOL     OW24315   5.992   3.854   2.814 -0.0931  0.3523 -0.1533
 6136SOL    HW224316   5.948   3.807   2.885  0.2246  0.0657 -0.1439
 6136SOL    HW324317   6.043   3.787   2.768  2.1359  1.0056  1.1886
 6136SOL    MW424318   5.993   3.839   2.818  0.4336  0.0836  0.5180
 6137SOL     OW24319   3.354   2.356   4.136  0.0326 -0.1697  0.8654
 6137SOL    HW224320   3.306   2.285   4.094 -2.0599  0.2522  2.3929
 6137SOL    HW324321   3.394   2.404   4.063 -0.9520 -1.1870 -0.3990
 6137SOL    MW424322   3.353   2.353   4.121 -0.6562 -0.4587  0.0892
 6138SOL     OW24323   2.016   0.817   2.853  0.6979 -0.3468  0.3291
 6138SOL    HW224324   1.922   0.821   2.874  0.3388 -3.0852 -0.4674
 6138SOL    HW324325   2.059   0.820   2.938 -0.3276 -2.3847  0.9871
 6138SOL    MW424326   2.009   0.818   2.867  0.0360  0.2766  0.5472
 6139SOL     OW24327   2.081   1.877   5.232  0.2850  0.0081  0.0634
 6139SOL    HW224328   2.009   1.879   5.169  0.3974  0.3248 -0.0603
 6139SOL    HW324329   2.075   1.791   5.273  2.0482 -1.5196 -2.5697
 6139SOL    MW424330   2.071   1.866   5.229 -0.3794 -0.0046 -0.1864
 6140SOL     OW24331   6.347   1.218   5.571 -0.1255 -0.3588 -0.2021
 6140SOL    HW224332   6.414   1.261   5.518 -1.1224  0.7501 -0.6074
 6140SOL    HW324333   6.325   1.139   5.521  0.8893 -0.7506 -0.0438
 6140SOL    MW424334   6.353   1.213   5.557 -0.1555 -0.5343 -0.0950
 6141SOL     OW24335   6.073   4.146   2.891  0.1550 -0.0335 -0.1907
 6141SOL    HW224336   6.087   4.057   2.923  0.8880  0.3508  0.6043
 6141SOL    HW324337   6.157   4.191   2.905 -0.6765  1.2414  0.9961
 6141SOL    MW424338   6.086   4.141   2.897 -0.3251 -0.2310  0.3877
 6142SOL     OW24339   4.318   2.708   2.072 -0.1845 -0.0144  0.5991
 6142SOL    HW224340   4.297   2.616   2.058 -0.8185  0.3109 -0.7780
 6142SOL    HW324341   4.355   2.711   2.160 -1.4286 -1.3754  1.2150
 6142SOL    MW424342   4.320   2.696   2.082 -0.0639 -0.0594  0.1082
 6143SOL     OW24343   0.514   1.118   1.536  0.4408 -0.0288  0.5479
 6143SOL    HW224344   0.479   1.088   1.452 -2.0935  0.8116  1.2284
 6143SOL    HW324345   0.577   1.050   1.561  0.7139 -0.6701 -1.6477
 6143SOL    MW424346   0.518   1.105   1.528  0.1124  0.0517  0.3375
 6144SOL     OW24347   4.279   2.708   2.595  0.5248 -0.4550 -0.0639
 6144SOL    HW224348   4.258   2.625   2.638 -1.9682  0.2884  0.3210
 6144SOL    HW324349   4.298   2.769   2.666  0.8719 -0.3287 -0.2620
 6144SOL    MW424350   4.279   2.705   2.610 -0.1225 -0.3991  0.2138
 6145SOL     OW24351   1.089   4.020   0.813 -0.3887  0.1872  0.3942
 6145SOL    HW224352   1.041   4.038   0.732  0.0691  2.0863  0.5078
 6145SOL    HW324353   1.181   4.018   0.787 -0.2710  0.3272  0.8019
 6145SOL    MW424354   1.095   4.022   0.799  0.2092  0.3327  0.0728
 6146SOL     OW24355   3.983   3.565   5.766 -0.3407  0.2256 -0.3073
 6146SOL    HW224356   4.022   3.583   5.681 -0.2429 -4.0473 -1.4116
 6146SOL    HW324357   3.892   3.593   5.757  0.4573  3.0867 -0.4292
 6146SOL    MW424358   3.976   3.571   5.754 -0.2753 -0.5824  0.1265
 6147SOL     OW24359   4.351   0.377   6.266  0.1946 -0.5998 -0.2790
 6147SOL    HW224360   4.262   0.412   6.260  0.0581 -0.7958  0.4196
 6147SOL    HW324361   4.395   0.435   6.328 -0.2330 -1.9895  1.4309
 6147SOL    MW424362   4.345   0.389   6.274  0.2872 -0.3587 -0.2473
 6148SOL     OW24363   0.315   4.847   3.222 -0.2891  0.6109  0.5122
 6148SOL    HW224364   0.374   4.786   3.177  0.1860  1.3221  0.1589
 6148SOL    HW324365   0.336   4.838   3.314  0.4964  0.9888  0.3728
 6148SOL    MW424366   0.325   4.837   3.228 -0.1781  0.5167  0.2011
 6149SOL     OW24367   4.715   1.985   4.911  0.0101  0.0296 -0.6970
 6149SOL    HW224368   4.690   1.998   5.003  1.7894  1.7601 -0.3777
 6149SOL    HW324369   4.743   2.072   4.882  0.7899 -0.7762 -2.4582
 6149SOL    MW424370   4.716   1.998   4.920 -0.6732 -0.3244  0.4674
 6150SOL     OW24371   3.555   5.903   5.017 -0.7879  0.7363  0.1835
 6150SOL    HW224372   3.607   5.845   5.072  0.8616  1.1925 -0.8469
 6150SOL    HW324373   3.465   5.891   5.048 -0.8064 -3.5017 -0.9133
 6150SOL    MW424374   3.550   5.894   5.028  0.2704  0.2065 -0.1288
 6151SOL     OW24375   3.626   0.359   1.407 -0.2084  0.1722 -0.1357
 6151SOL    HW224376   3.639   0.402   1.491  0.8621  1.1744 -0.7855
 6151SOL    HW324377   3.663   0.419   1.343  0.1038 -1.1202 -1.2151
 6151SOL    MW424378   3.632   0.373   1.409 -0.3544 -0.5106  0.4781
 6152SOL     OW24379   0.301   1.627   3.694  0.2052 -0.4998  0.4225
 6152SOL    HW224380   0.373   1.612   3.755 -0.5336 -0.1487  1.4120
 6152SOL    HW324381   0.231   1.570   3.724 -1.3640  2.0855  2.0310
 6152SOL    MW424382   0.301   1.617   3.706 -0.7329 -0.3147  0.4933
 6153SOL     OW24383   6.049   3.304   1.915 -0.0611 -0.9601  0.2403
 6153SOL    HW224384   6.028   3.354   1.994 -0.5692 -1.2578  0.2969
 6153SOL    HW324385   5.988   3.231   1.916  0.2085 -1.1956 -0.2131
 6153SOL    MW424386   6.038   3.301   1.926 -0.0980 -0.0936  0.1253
 6154SOL     OW24387   3.105   5.646   4.267 -0.3037  0.0189 -0.1227
 6154SOL    HW224388   3.095   5.668   4.174 -1.3011  0.9826  0.1885
 6154SOL    HW324389   3.177   5.701   4.298 -2.0939  2.1949  0.4021
 6154SOL    MW424390   3.113   5.656   4.259 -0.4566  0.3791 -0.3450
 6155SOL     OW24391   1.124   6.235   4.998  0.0676  0.3198 -0.0134
 6155SOL    HW224392   1.090   6.321   4.973 -0.3084  0.1325 -0.1618
 6155SOL    HW324393   1.113   6.232   5.093 -1.7506 -0.3091 -0.1965
 6155SOL    MW424394   1.118   6.246   5.007 -0.1805 -0.7693  0.3350
 6156SOL     OW24395   5.164   5.191   0.329 -0.1005 -0.1348  0.7909
 6156SOL    HW224396   5.222   5.256   0.369 -0.5517 -1.0347  3.0960
 6156SOL    HW324397   5.213   5.158   0.253  1.8625  0.0477  1.9126
 6156SOL    MW424398   5.178   5.195   0.324 -0.3887 -0.0760  0.2648
 6157SOL     OW24399   1.079   1.541   4.860  0.0426  0.2736  0.0769
 6157SOL    HW224400   1.088   1.597   4.937 -0.7311 -0.6342  0.8548
 6157SOL    HW324401   1.022   1.470   4.889  0.9779 -0.9016 -0.9017
 6157SOL    MW424402   1.072   1.539   4.874  0.7572  0.0606  0.1217
 6158SOL     OW24403   2.526   0.064   5.089 -0.3841  0.1585 -0.5289
 6158SOL    HW224404   2.602   0.037   5.141 -0.6488 -0.3415 -0.3887
 6158SOL    HW324405   2.563   0.111   5.015 -0.0448  1.7913  0.6309
 6158SOL    MW424406   2.541   0.066   5.086 -0.2239  0.2349 -0.6030
 6159SOL     OW24407   5.810   4.310   5.492  0.2667 -0.1060 -0.4960
 6159SOL    HW224408   5.757   4.387   5.473 -1.7430 -1.4733 -0.7809
 6159SOL    HW324409   5.853   4.329   5.576  0.0086  1.3904 -0.6942
 6159SOL    MW424410   5.809   4.322   5.501 -0.1460  0.0148  0.0211
 6160SOL     OW24411   1.927   3.801   0.400  0.4446 -0.6259 -0.2027
 6160SOL    HW224412   1.914   3.790   0.306 -1.0544 -2.0799  0.1157
 6160SOL    HW324413   2.005   3.750   0.420  0.9512 -0.0477 -0.7026
 6160SOL    MW424414   1.935   3.793   0.390 -0.0727 -0.1130  0.5862
 6161SOL     OW24415   6.167   2.214   3.342 -0.3355  0.2897  0.0453
 6161SOL    HW224416   6.134   2.124   3.331 -1.1877  0.4853  0.9176
 6161SOL    HW324417   6.260   2.208   3.318 -0.3320 -0.8657  0.2773
 6161SOL    MW424418   6.175   2.201   3.337 -0.6174 -0.6545  0.6261
 6162SOL     OW24419   5.284   1.722   3.080 -0.0653  0.7577  0.4918
 6162SOL    HW224420   5.237   1.779   3.020  0.7161  0.8190 -0.0753
 6162SOL    HW324421   5.376   1.748   3.071  0.1630  0.1773  1.0661
 6162SOL    MW424422   5.290   1.733   3.071  0.3075  0.2941 -0.4505
 6163SOL     OW24423   1.067   1.599   3.737 -0.3015  0.4163  0.3601
 6163SOL    HW224424   0.977   1.568   3.743 -0.1279  0.0855  1.4794
 6163SOL    HW324425   1.121   1.521   3.753  0.1350  1.1418  2.9648
 6163SOL    MW424426   1.062   1.585   3.740 -0.1907  1.1824 -0.0029
 6164SOL     OW24427   3.127   4.578   2.582  0.3312 -0.1331 -0.0412
 6164SOL    HW224428   3.174   4.632   2.519  0.3538  0.6499  0.6295
 6164SOL    HW324429   3.111   4.636   2.656 -2.2390 -0.2029 -0.4788
 6164SOL    MW424430   3.131   4.593   2.584  0.3560 -0.0748 -0.3826
 6165SOL     OW24431   4.059   2.538   0.104 -0.2073 -0.2261  0.3765
 6165SOL    HW224432   4.134   2.538   0.164 -0.8188 -1.7399  1.1942
 6165SOL    HW324433   4.035   2.630   0.097 -0.0839  0.0280  2.4644
 6165SOL    MW424434   4.066   2.550   0.111  0.1218 -0.2899  0.7125
 6166SOL     OW24435   5.305   3.613   4.729 -0.4295  0.5065 -0.5363
 6166SOL    HW224436   5.332   3.535   4.681 -0.5624  0.7821 -1.0608
 6166SOL    HW324437   5.243   3.657   4.671 -1.0145  0.5563  0.1156
 6166SOL    MW424438   5.301   3.608   4.715  0.1516  0.1247  0.6242
 6167SOL     OW24439   4.504   2.229   4.385  0.2488 -0.3953  0.2920
 6167SOL    HW224440   4.582   2.251   4.334 -0.2096 -0.0628 -0.2700
 6167SOL    HW324441   4.513   2.135   4.401  0.2347 -0.5811 -0.6994
 6167SOL    MW424442   4.515   2.219   4.380 -0.0517 -0.3913 -0.0257
 6168SOL     OW24443   3.223   6.106   0.021 -0.7470  0.4436 -0.3710
 6168SOL    HW224444   3.175   6.144   0.095  1.0500  0.6780  0.7238
 6168SOL    HW324445   3.219   6.011   0.037 -2.0083  0.3423 -1.0765
 6168SOL    MW424446   3.216   6.098   0.033 -0.0947  0.3420  0.3447
 6169SOL     OW24447   0.053   0.767   3.870  0.0410  0.3769 -0.6199
 6169SOL    HW224448   0.079   0.695   3.927 -0.8552  0.4261 -0.1443
 6169SOL    HW324449   0.035   0.840   3.929  0.2875  0.7957 -1.0523
 6169SOL    MW424450   0.054   0.767   3.885  0.1529  0.9327  0.4282
 6170SOL     OW24451   1.948   1.881   3.919  0.0632 -0.5308 -0.5444
 6170SOL    HW224452   1.877   1.861   3.858 -0.7721  3.0090 -0.9345
 6170SOL    HW324453   1.908   1.874   4.005  0.5394 -2.8491 -0.4201
 6170SOL    MW424454   1.934   1.877   3.922 -0.2399 -0.2949  0.0603
 6171SOL     OW24455   3.374   3.908   6.197  0.1675  0.3985 -0.3342
 6171SOL    HW224456   3.282   3.928   6.181 -0.0477 -0.6609 -0.5056
 6171SOL    HW324457   3.372   3.829   6.251  0.9550  1.3092  1.1067
 6171SOL    MW424458   3.362   3.900   6.202 -0.1460 -0.0446  0.4914
 6172SOL     OW24459   5.162   2.792   0.539 -0.6111 -0.2670  0.1633
 6172SOL    HW224460   5.157   2.762   0.630  2.0549  0.7565  0.7282
 6172SOL    HW324461   5.162   2.888   0.545  2.6290 -0.1202 -0.5750
 6172SOL    MW424462   5.161   2.801   0.552  0.3290 -0.0040 -0.1400
 6173SOL     OW24463   5.545   4.420   4.697 -0.5712 -0.1377  0.2052
 6173SOL    HW224464   5.471   4.462   4.740 -1.4641 -2.7929  1.5281
 6173SOL    HW324465   5.612   4.413   4.765  0.8584  1.9089 -0.8804
 6173SOL    MW424466   5.544   4.424   4.712  0.3641 -0.5580  0.4254
 6174SOL     OW24467   2.577   4.205   2.312 -0.0807 -0.0993  0.3129
 6174SOL    HW224468   2.549   4.165   2.394  0.3722 -1.7942 -0.2968
 6174SOL    HW324469   2.538   4.292   2.312 -0.2589 -0.1509  2.2103
 6174SOL    MW424470   2.568   4.211   2.323  0.5409 -0.0348 -0.3369
 6175SOL     OW24471   2.264   1.939   0.426 -0.0280 -0.1032  0.1629
 6175SOL    HW224472   2.339   1.961   0.371  0.6421 -2.5636 -0.0318
 6175SOL    HW324473   2.277   1.992   0.505  3.1013 -1.8091  0.9891
 6175SOL    MW424474   2.276   1.949   0.429  0.4685 -0.4147  0.6204
 6176SOL     OW24475   4.165   4.016   4.776 -0.1724  0.1693 -0.6442
 6176SOL    HW224476   4.069   4.011   4.767 -0.4473 -0.9531  1.9265
 6176SOL    HW324477   4.195   3.928   4.757  0.3560  0.4949 -1.3342
 6176SOL    MW424478   4.156   4.004   4.772  0.0830  0.0932  0.2092
 6177SOL     OW24479   0.273   0.099   2.553  0.2924 -0.0446  0.5120
 6177SOL    HW224480   0.268   0.056   2.638 -1.4571 -0.9151  0.0211
 6177SOL    HW324481   0.312   0.185   2.571  1.8768 -0.9905  1.8375
 6177SOL    MW424482   0.278   0.105   2.567  0.3962 -0.8022 -0.1678
 6178SOL     OW24483   5.173   1.013   2.373  0.0373  0.0476 -0.0505
 6178SOL    HW224484   5.114   0.999   2.447  0.0709 -1.2542 -0.2436
 6178SOL    HW324485   5.257   1.037   2.414  0.0200 -0.5300  0.3444
 6178SOL    MW424486   5.177   1.014   2.388 -0.9389  0.2851 -0.5979
 6179SOL     OW24487   2.067   2.546   2.408  0.5125  0.4321 -0.4582
 6179SOL    HW224488   2.071   2.587   2.495 -1.2804  1.1033 -0.6488
 6179SOL    HW324489   2.120   2.602   2.352  3.8226 -1.3647  0.6152
 6179SOL    MW424490   2.074   2.559   2.412  0.5047  0.1564 -0.3264
 6180SOL     OW24491   3.876   1.042   1.285  0.5523 -0.2492 -0.6615
 6180SOL    HW224492   3.849   1.105   1.217  1.6841 -0.2892 -1.1679
 6180SOL    HW324493   3.805   1.045   1.349  0.5973  1.5987 -0.6318
 6180SOL    MW424494   3.863   1.051   1.284 -0.1762 -0.0825  0.3773
 6181SOL     OW24495   3.029   0.820   5.401  0.3362  0.4244  0.2883
 6181SOL    HW224496   2.985   0.859   5.326 -0.1440  0.9914  0.8497
 6181SOL    HW324497   3.122   0.822   5.378  0.3092  1.7286  0.2032
 6181SOL    MW424498   3.036   0.826   5.388  0.7517 -0.7351  0.6418
 6182SOL     OW24499   2.879   5.518   1.149 -0.1637  0.3129 -0.2474
 6182SOL    HW224500   2.829   5.467   1.086  1.9364 -1.7378 -0.3902
 6182SOL    HW324501   2.836   5.501   1.233 -0.3285 -0.6086 -0.5051
 6182SOL    MW424502   2.867   5.509   1.152 -0.3860 -0.0702 -0.4110
 6183SOL     OW24503   5.993   2.031   4.912  0.0008  0.1699  0.0091
 6183SOL    HW224504   5.958   2.080   4.987  0.0820 -0.7029  0.6322
 6183SOL    HW324505   6.086   2.052   4.912  0.1712 -0.5172  0.7153
 6183SOL    MW424506   6.000   2.040   4.922  0.2834  0.1376 -0.5642
 6184SOL     OW24507   5.549   4.836   3.136  0.1729  0.3419  0.4994
 6184SOL    HW224508   5.532   4.754   3.182  2.6160 -0.4722  0.0699
 6184SOL    HW324509   5.514   4.822   3.048  3.6395 -1.7139 -0.7234
 6184SOL    MW424510   5.542   4.823   3.130  0.6448  0.1310  1.1685
 6185SOL     OW24511   0.958   3.937   1.958 -0.5081 -0.3787 -0.0260
 6185SOL    HW224512   0.923   3.848   1.965  2.4735 -1.6729  0.0547
 6185SOL    HW324513   0.970   3.950   1.864  0.2796 -0.6302  0.0303
 6185SOL    MW424514   0.955   3.927   1.946 -0.1654  0.2542  0.0255
 6186SOL     OW24515   3.250   1.057   3.414 -0.4649 -0.5247  0.2700
 6186SOL    HW224516   3.289   1.125   3.358 -1.0445  0.4170  0.9690
 6186SOL    HW324517   3.156   1.065   3.399 -0.5006 -1.8051 -0.3127
 6186SOL    MW424518   3.243   1.067   3.404  0.9018 -0.3710  0.2034
 6187SOL     OW24519   6.340   2.946   5.666  0.6810 -0.6627 -0.7178
 6187SOL    HW224520   6.375   3.008   5.601 -2.5285 -0.1408 -2.1489
 6187SOL    HW324521   6.355   2.990   5.750  0.8314  0.8621 -1.4912
 6187SOL    MW424522   6.346   2.960   5.669  0.2428  0.0427  0.1170
 6188SOL     OW24523   3.203   3.251   4.545  0.1065 -0.4091  0.6128
 6188SOL    HW224524   3.185   3.236   4.637  0.4720 -0.9380  0.5971
 6188SOL    HW324525   3.132   3.310   4.516 -0.4502 -0.8640  1.0337
 6188SOL    MW424526   3.191   3.257   4.553 -0.0004  0.0431 -0.3739
 6189SOL     OW24527   5.944   3.802   3.182 -0.1728 -0.7084  0.3039
 6189SOL    HW224528   5.926   3.711   3.205 -0.7251 -1.1899 -1.7782
 6189SOL    HW324529   5.928   3.851   3.262 -0.3085 -2.3919  1.3530
 6189SOL    MW424530   5.939   3.796   3.195 -0.1809 -0.7267  0.2957
 6190SOL     OW24531   4.360   5.488   3.469 -0.0231  0.4484 -0.1986
 6190SOL    HW224532   4.430   5.453   3.525 -0.0461  3.4446  1.9058
 6190SOL    HW324533   4.280   5.472   3.518 -0.4080  0.4478 -0.8174
 6190SOL    MW424534   4.359   5.481   3.483 -0.3024 -0.5414 -0.2316
 6191SOL     OW24535   0.253   5.109   4.449  0.3928  0.1118 -0.1911
 6191SOL    HW224536   0.243   5.031   4.502 -0.8897 -0.8088 -1.7198
 6191SOL    HW324537   0.314   5.084   4.379  0.8854  0.8508 -0.0495
 6191SOL    MW424538   0.260   5.096   4.447  0.0177  0.0885  0.1402
 6192SOL     OW24539   1.546   1.894   3.335  0.4983 -0.4050  0.1941
 6192SOL    HW224540   1.587   1.808   3.346  0.7904 -0.1432  1.2642
 6192SOL    HW324541   1.620   1.954   3.323  0.2785 -0.3617 -1.1905
 6192SOL    MW424542   1.561   1.891   3.335  0.7187  0.5552  0.0048
 6193SOL     OW24543   1.614   3.448   1.116 -0.6046  0.2872  0.2255
 6193SOL    HW224544   1.619   3.536   1.079  1.6504  0.9162  1.7701
 6193SOL    HW324545   1.671   3.395   1.059 -0.8109  0.1662  0.1311
 6193SOL    MW424546   1.622   3.452   1.104  0.0327  0.1591  0.0257
 6194SOL     OW24547   1.666   3.373   2.012  0.5992 -0.0711 -0.4827
 6194SOL    HW224548   1.621   3.441   2.063  2.0346  0.5466  0.0168
 6194SOL    HW324549   1.666   3.297   2.069 -0.2190 -0.2355 -0.6830
 6194SOL    MW424550   1.660   3.372   2.027  0.2617 -0.1071 -0.2444
 6195SOL     OW24551   2.125   5.396   3.715  0.2198  0.3653 -0.1946
 6195SOL    HW224552   2.053   5.446   3.678 -1.0480  1.4402  3.2820
 6195SOL    HW324553   2.100   5.305   3.705 -0.1227  0.6034 -1.6896
 6195SOL    MW424554   2.112   5.391   3.709 -0.0915  0.0507 -0.0168
 6196SOL     OW24555   2.093   4.438   5.154 -0.3506 -0.0471  0.1168
 6196SOL    HW224556   2.011   4.485   5.168 -1.1363 -1.3547  0.0538
 6196SOL    HW324557   2.140   4.448   5.237 -0.9086  0.0500  0.4252
 6196SOL    MW424558   2.088   4.446   5.167  0.2557 -0.1379  0.1349
 6197SOL     OW24559   4.278   2.503   3.199  0.3840 -0.0927  0.5867
 6197SOL    HW224560   4.361   2.457   3.191 -0.3962 -1.5486  0.4441
 6197SOL    HW324561   4.296   2.574   3.261  2.2818  1.0872 -1.1813
 6197SOL    MW424562   4.291   2.506   3.206  0.9390  0.7089  0.8872
 6198SOL     OW24563   2.805   1.071   5.848  0.1900 -0.5398  0.3581
 6198SOL    HW224564   2.847   1.064   5.762 -1.0460 -0.0586 -0.3016
 6198SOL    HW324565   2.797   1.165   5.863  2.5122 -0.5049  2.1079
 6198SOL    MW424566   2.810   1.083   5.838  0.2341 -0.0536  0.1381
 6199SOL     OW24567   3.180   2.272   2.245 -0.3502 -0.1462 -0.0633
 6199SOL    HW224568   3.174   2.177   2.235  0.6784 -0.2665  0.3486
 6199SOL    HW324569   3.264   2.286   2.287  0.6885  1.1018 -2.3610
 6199SOL    MW424570   3.190   2.261   2.249  0.3891  0.4704  0.8632
 6200SOL     OW24571   1.229   4.727   5.134 -0.2498  0.6397 -0.1765
 6200SOL    HW224572   1.262   4.797   5.191  1.9442 -0.9975  0.6982
 6200SOL    HW324573   1.280   4.736   5.053 -0.6181  0.6115 -0.4107
 6200SOL    MW424574   1.240   4.737   5.131 -0.7413 -0.0473 -0.0509
 6201SOL     OW24575   3.642   6.355   4.674  0.4462 -0.0547 -0.5113
 6201SOL    HW224576   3.625   6.291   4.743  0.3766  0.1819 -0.3082
 6201SOL    HW324577   3.720   6.323   4.629  0.6980 -0.0158 -0.0961
 6201SOL    MW424578   3.650   6.342   4.677 -0.2475 -0.5258 -0.7293
 6202SOL     OW24579   1.197   4.384   4.344  0.6181  0.5890  0.0584
 6202SOL    HW224580   1.108   4.418   4.349  0.0061 -0.8746 -0.4113
 6202SOL    HW324581   1.216   4.381   4.250  0.5494 -0.6038  0.0749
 6202SOL    MW424582   1.188   4.388   4.332 -0.0894  0.3748 -0.1817
 6203SOL     OW24583   5.219   1.606   1.761 -0.3408 -0.2774 -0.8666
 6203SOL    HW224584   5.211   1.578   1.670 -0.3841  2.4085 -1.7878
 6203SOL    HW324585   5.177   1.692   1.763  0.0754 -0.0712  1.5993
 6203SOL    MW424586   5.213   1.614   1.749 -0.0407 -0.1313 -0.0421
 6204SOL     OW24587   4.886   4.041   4.245  0.7200 -0.2589  0.3248
 6204SOL    HW224588   4.836   4.078   4.173  2.0166  0.2316 -0.3518
 6204SOL    HW324589   4.829   4.049   4.321 -1.0695 -1.6620 -0.7820
 6204SOL    MW424590   4.872   4.047   4.246 -0.3484  1.1283  0.1761
 6205SOL     OW24591   4.284   3.329   2.447 -0.5987  0.2332 -0.1070
 6205SOL    HW224592   4.295   3.383   2.368 -0.9671  1.2642  0.5354
 6205SOL    HW324593   4.330   3.377   2.516 -0.8729 -0.3161  0.4675
 6205SOL    MW424594   4.292   3.342   2.445  0.7931  0.5127  0.2537
 6206SOL     OW24595   2.264   4.916   2.949 -0.2350  0.6688  0.0356
 6206SOL    HW224596   2.321   4.979   2.904  0.9039 -0.9442 -0.8702
 6206SOL    HW324597   2.292   4.920   3.040 -0.3065  1.5744  0.0351
 6206SOL    MW424598   2.275   4.925   2.955 -0.1679  0.1220  0.5498
 6207SOL     OW24599   2.371   6.329   3.448 -0.6019 -0.2847  0.5955
 6207SOL    HW224600   2.295   6.280   3.417 -2.3094  1.4696  1.7423
 6207SOL    HW324601   2.340   6.419   3.456  2.5804  1.2827 -2.1591
 6207SOL    MW424602   2.357   6.334   3.445 -0.1385 -0.0197  0.0641
 6208SOL     OW24603   6.400   6.085   6.358  0.4799  0.2329  0.1250
 6208SOL    HW224604   6.316   6.105   6.400  0.5449  0.5815  0.0938
 6208SOL    HW324605   6.379   6.076   6.265  0.4677  0.2773  0.1234
 6208SOL    MW424606   6.386   6.087   6.351  0.3903  0.5678 -0.7274
 6209SOL     OW24607   2.714   3.813   6.011 -0.0470 -0.3187 -0.3252
 6209SOL    HW224608   2.797   3.854   5.984 -0.5910  1.0786  0.0317
 6209SOL    HW324609   2.740   3.746   6.074  1.0340 -1.8915 -2.3118
 6209SOL    MW424610   2.728   3.810   6.015  0.8389  0.4199 -0.1590
 6210SOL     OW24611   1.506   6.408   3.332 -0.5824  0.5831 -0.4383
 6210SOL    HW224612   1.469   6.459   3.404  0.2998  0.4527  0.1193
 6210SOL    HW324613   1.505   6.318   3.363 -1.8985  0.2665 -1.3239
 6210SOL    MW424614   1.501   6.403   3.346 -0.1086  0.5117 -0.5987
 6211SOL     OW24615   2.293   2.976   5.444 -0.4102 -0.1984  0.0632
 6211SOL    HW224616   2.276   3.069   5.456 -1.9280 -0.4157 -0.2444
 6211SOL    HW324617   2.330   2.970   5.355  1.2819  0.2615  0.6898
 6211SOL    MW424618   2.296   2.987   5.434  0.2069  0.4009  0.2739
 6212SOL     OW24619   0.993   6.256   2.052  0.2640 -0.1514 -0.3869
 6212SOL    HW224620   1.023   6.167   2.073 -1.5969 -0.3751  1.7006
 6212SOL    HW324621   1.069   6.311   2.071  1.1704 -1.1994 -0.8515
 6212SOL    MW424622   1.007   6.251   2.057 -0.2811 -0.0268  0.5255
 6213SOL     OW24623   0.105   4.641   4.534 -0.3993  0.5817 -0.1042
 6213SOL    HW224624   0.129   4.571   4.472 -0.4793 -0.2241  0.7601
 6213SOL    HW324625   0.010   4.648   4.526 -0.4250  0.3853  0.0269
 6213SOL    MW424626   0.096   4.633   4.525  0.4006  0.7895 -0.3256
 6214SOL     OW24627   2.774   6.250   4.555  0.4188 -0.7999  0.7682
 6214SOL    HW224628   2.780   6.250   4.651 -0.6201  3.0248  0.9889
 6214SOL    HW324629   2.691   6.294   4.536  0.0453 -2.4281 -1.9547
 6214SOL    MW424630   2.764   6.256   4.565 -0.5577  0.2940  0.4640
 6215SOL     OW24631   3.651   4.906   5.266  0.3750 -0.1473 -0.2833
 6215SOL    HW224632   3.702   4.974   5.311  0.9178 -0.1937 -0.8157
 6215SOL    HW324633   3.712   4.868   5.203 -0.3752 -0.0950 -1.0572
 6215SOL    MW424634   3.666   4.910   5.264 -0.1276 -0.7227 -0.3458
 6216SOL     OW24635   1.245   3.623   5.866 -0.6236 -0.2589 -0.6936
 6216SOL    HW224636   1.228   3.716   5.855  0.4600  0.0885  0.4272
 6216SOL    HW324637   1.233   3.607   5.960 -1.6406 -1.4332 -0.9966
 6216SOL    MW424638   1.241   3.633   5.877  0.8191 -0.7519 -0.1809
 6217SOL     OW24639   4.652   0.197   1.368  0.1728 -0.0683 -0.3348
 6217SOL    HW224640   4.694   0.239   1.293 -0.4603 -0.0709 -0.6974
 6217SOL    HW324641   4.603   0.124   1.331 -0.4787  0.1742  0.0211
 6217SOL    MW424642   4.651   0.193   1.353  0.6158  0.1436  0.1254
 6218SOL     OW24643   0.590   4.179   1.655 -0.5853 -0.0173  0.2528
 6218SOL    HW224644   0.506   4.207   1.618  0.5957  1.4522 -1.4779
 6218SOL    HW324645   0.655   4.235   1.613  1.1878 -0.3507  2.3708
 6218SOL    MW424646   0.588   4.190   1.645  0.7514  0.5437 -0.4231
 6219SOL     OW24647   3.344   3.451   5.190 -0.0007  0.1600  0.8421
 6219SOL    HW224648   3.367   3.519   5.253  0.2495 -1.0830  2.1352
 6219SOL    HW324649   3.344   3.370   5.241 -3.7500 -0.4308  0.1607
 6219SOL    MW424650   3.347   3.449   5.205 -0.3061  0.0401  0.2584
 6220SOL     OW24651   4.018   4.185   5.442 -0.3986  0.1322  0.5280
 6220SOL    HW224652   4.105   4.144   5.440 -0.5714 -0.3042 -2.3567
 6220SOL    HW324653   4.032   4.267   5.491  0.9049 -1.2575  2.6825
 6220SOL    MW424654   4.031   4.191   5.449 -0.5067 -0.6687 -0.7611
 6221SOL     OW24655   1.844   3.899   3.464 -0.5151 -0.0187  0.1110
 6221SOL    HW224656   1.787   3.864   3.395  0.3341 -1.1322 -0.0610
 6221SOL    HW324657   1.924   3.924   3.418 -0.0759 -0.4472  0.6266
 6221SOL    MW424658   1.847   3.898   3.449  0.0846  0.2334 -0.7837
 6222SOL     OW24659   0.379   2.524   1.545 -0.0043  0.0601 -0.5556
 6222SOL    HW224660   0.311   2.557   1.603 -0.6664 -2.1146  0.0140
 6222SOL    HW324661   0.461   2.550   1.586 -0.4558  1.4939 -0.5067
 6222SOL    MW424662   0.381   2.532   1.558  0.8533  0.0756  0.5295
 6223SOL     OW24663   1.625   5.902   5.587  0.8626  0.3164 -0.4857
 6223SOL    HW224664   1.677   5.845   5.531  0.6867  0.8174 -1.1753
 6223SOL    HW324665   1.609   5.850   5.666  2.4605  0.1681 -0.2194
 6223SOL    MW424666   1.630   5.888   5.590  0.3259  0.3270 -0.3344
 6224SOL     OW24667   2.566   4.132   3.364 -0.0275  0.0803  0.0083
 6224SOL    HW224668   2.563   4.042   3.333 -0.0424 -0.8645  2.4800
 6224SOL    HW324669   2.650   4.166   3.333 -0.1137 -0.6938 -1.1210
 6224SOL    MW424670   2.577   4.125   3.356  0.2343 -0.1991 -0.4141
 6225SOL     OW24671   0.683   0.359   5.627  0.4050  0.4518  0.3450
 6225SOL    HW224672   0.754   0.325   5.573  1.2398  0.1254  1.6029
 6225SOL    HW324673   0.715   0.352   5.717 -0.6959  1.5322  0.8645
 6225SOL    MW424674   0.697   0.354   5.632 -0.2938 -0.3197  0.2512
 6226SOL     OW24675   0.761   0.466   2.923 -0.3105  0.6325 -0.4116
 6226SOL    HW224676   0.690   0.408   2.950  0.8178  0.3166  2.1479
 6226SOL    HW324677   0.820   0.409   2.873 -0.3192  0.1054  0.1640
 6226SOL    MW424678   0.760   0.451   2.920  0.2152  0.2392  0.2416
 6227SOL     OW24679   5.252   5.906   5.461 -0.4878  0.2237 -0.2940
 6227SOL    HW224680   5.344   5.887   5.478 -0.4788 -1.9848 -2.3098
 6227SOL    HW324681   5.207   5.884   5.543  0.6877  0.9533  0.5778
 6227SOL    MW424682   5.258   5.901   5.474  0.5780 -0.1372  0.9120
 6228SOL     OW24683   0.984   5.645   0.950  0.1695  0.0218 -0.2817
 6228SOL    HW224684   1.022   5.649   0.862  0.2903 -0.3006 -0.2455
 6228SOL    HW324685   1.035   5.709   1.001  0.0859  0.2226 -0.4512
 6228SOL    MW424686   0.996   5.654   0.945 -0.1347 -0.3646 -0.8846
 6229SOL     OW24687   3.319   2.934   0.378 -0.1344  0.1827  0.0913
 6229SOL    HW224688   3.387   2.867   0.382 -2.4272 -2.4285 -0.9239
 6229SOL    HW324689   3.293   2.946   0.470  0.5078 -0.0804  0.3166
 6229SOL    MW424690   3.324   2.926   0.391 -0.5666 -0.2100  0.3579
 6230SOL     OW24691   0.408   4.687   3.773  0.0299 -0.4703  0.0838
 6230SOL    HW224692   0.355   4.725   3.843  0.0850  0.5019 -0.3888
 6230SOL    HW324693   0.489   4.659   3.816  1.9265  3.9102 -0.1505
 6230SOL    MW424694   0.411   4.688   3.788 -0.7699 -0.0390  0.2145
 6231SOL     OW24695   1.315   5.294   4.801 -0.1436 -0.5653  0.1409
 6231SOL    HW224696   1.402   5.263   4.778  0.4463  0.3531  1.0998
 6231SOL    HW324697   1.326   5.343   4.882 -1.3294  0.6547 -0.3814
 6231SOL    MW424698   1.328   5.296   4.808 -0.0032 -0.0899  0.0391
 6232SOL     OW24699   0.602   6.322   3.469 -0.5630 -0.2815 -0.4626
 6232SOL    HW224700   0.586   6.250   3.408  0.0817 -0.5206 -0.3588
 6232SOL    HW324701   0.696   6.341   3.459 -0.2647 -0.8256  0.9906
 6232SOL    MW424702   0.613   6.315   3.460 -0.1309  0.4233 -0.0590
 6233SOL     OW24703   0.884   2.502   0.867 -0.3124 -0.1658 -0.5178
 6233SOL    HW224704   0.901   2.443   0.941 -0.6875 -0.6505 -0.8094
 6233SOL    HW324705   0.832   2.449   0.807 -1.3998  0.7440 -0.3978
 6233SOL    MW424706   0.880   2.487   0.869  0.2307  0.7410 -0.1885
 6234SOL     OW24707   1.669   0.406   3.612 -0.4762 -0.0398 -0.1258
 6234SOL    HW224708   1.658   0.500   3.598 -0.2243  0.0856  0.5111
 6234SOL    HW324709   1.744   0.382   3.557  1.0458  0.6100  1.5778
 6234SOL    MW424710   1.677   0.415   3.603 -0.0109  0.2296 -0.1832
 6235SOL     OW24711   4.868   2.976   0.950 -0.1092  0.1623  0.0758
 6235SOL    HW224712   4.864   2.944   1.040 -1.5269 -0.2412 -0.0999
 6235SOL    HW324713   4.928   2.916   0.906 -1.2381 -1.1182  0.2191
 6235SOL    MW424714   4.875   2.964   0.956  0.2540  0.4730 -0.0917
 6236SOL     OW24715   4.423   3.749   1.161  0.2639  0.3241 -0.4408
 6236SOL    HW224716   4.506   3.792   1.140  0.7633 -0.4887 -0.1601
 6236SOL    HW324717   4.398   3.703   1.081  0.5522 -0.1793 -0.2437
 6236SOL    MW424718   4.430   3.749   1.148 -0.0778 -0.4683 -0.9249
 6237SOL     OW24719   2.996   0.327   3.631  0.1688 -0.0847 -1.0479
 6237SOL    HW224720   3.045   0.402   3.663 -0.8751 -0.4304  1.5860
 6237SOL    HW324721   3.057   0.281   3.574  2.6199 -0.0327  1.3669
 6237SOL    MW424722   3.010   0.331   3.628  0.3333  0.2919  0.0106
 6238SOL     OW24723   6.225   5.112   0.643 -0.0806  0.1877  0.7634
 6238SOL    HW224724   6.267   5.092   0.559 -0.5091 -1.4848  0.9130
 6238SOL    HW324725   6.232   5.207   0.651 -0.0653  0.3906 -1.1854
 6238SOL    MW424726   6.231   5.122   0.633 -0.0673  0.5017 -0.2031
 6239SOL     OW24727   4.018   4.884   4.265 -0.4557  0.5525 -0.0814
 6239SOL    HW224728   4.092   4.945   4.272 -2.2447  2.8299  0.2453
 6239SOL    HW324729   3.977   4.906   4.182 -0.0541 -1.6326 -0.9198
 6239SOL    MW424730   4.023   4.895   4.255  0.7858  0.0148 -0.3959
 6240SOL     OW24731   3.396   4.399   3.314  0.1437  0.9739 -0.0968
 6240SOL    HW224732   3.413   4.493   3.308 -0.1312  1.0271 -0.0600
 6240SOL    HW324733   3.311   4.393   3.357  1.3017  0.6651  2.3576
 6240SOL    MW424734   3.387   4.411   3.319 -0.4463  0.2411  0.9677
 6241SOL     OW24735   5.306   4.037   5.852 -0.5951 -0.1788  0.0999
 6241SOL    HW224736   5.274   4.033   5.762  1.9188  1.5348 -0.9934
 6241SOL    HW324737   5.381   4.097   5.848 -0.7817  0.4851  3.4659
 6241SOL    MW424738   5.312   4.045   5.840 -0.8442 -0.2803  0.2651
 6242SOL     OW24739   5.906   2.416   2.274  0.1902  0.1197  0.5790
 6242SOL    HW224740   5.952   2.336   2.301 -0.8612 -0.9005 -0.5523
 6242SOL    HW324741   5.966   2.459   2.213 -0.1225 -0.9350 -0.4916
 6242SOL    MW424742   5.920   2.411   2.270  0.4412 -0.0113 -0.6716
 6243SOL     OW24743   1.925   3.067   0.345  0.2212  1.0972 -0.1266
 6243SOL    HW224744   1.891   3.063   0.434 -1.3215 -2.5550 -0.7179
 6243SOL    HW324745   1.852   3.100   0.293 -1.7912 -3.7477 -0.9168
 6243SOL    MW424746   1.911   3.071   0.350  0.1707 -0.4095 -0.1563
 6244SOL     OW24747   5.352   3.740   2.591  0.0747 -0.0890 -0.3066
 6244SOL    HW224748   5.327   3.720   2.501 -0.9067  0.3749 -0.1475
 6244SOL    HW324749   5.356   3.836   2.595  0.5704 -0.1148  0.0316
 6244SOL    MW424750   5.349   3.750   2.580  0.4057 -0.2641  0.5105
 6245SOL     OW24751   2.680   2.684   3.279  0.4609 -0.8613 -0.2671
 6245SOL    HW224752   2.679   2.685   3.375  1.1925  1.9695 -0.2004
 6245SOL    HW324753   2.773   2.686   3.256  0.2748 -0.5443 -1.0117
 6245SOL    MW424754   2.692   2.685   3.289  0.4835 -0.3225  0.3731
 6246SOL     OW24755   2.071   0.718   6.062 -0.5230 -0.1675  0.7947
 6246SOL    HW224756   2.001   0.667   6.103 -0.4252  0.0389  1.2309
 6246SOL    HW324757   2.093   0.670   5.982 -0.9817 -0.3743  0.7885
 6246SOL    MW424758   2.065   0.705   6.057  0.0105  0.5315  0.8745
 6247SOL     OW24759   1.406   1.303   4.688 -0.6642  0.4553  1.0284
 6247SOL    HW224760   1.358   1.375   4.648  1.4851  0.8886 -0.9764
 6247SOL    HW324761   1.469   1.345   4.747 -0.8525  0.0673  1.5178
 6247SOL    MW424762   1.408   1.318   4.691 -0.1042 -0.1441  0.1439
 6248SOL     OW24763   2.151   2.355   3.440  0.1411 -0.1444 -0.2412
 6248SOL    HW224764   2.069   2.400   3.457  0.3102  0.2151 -0.3516
 6248SOL    HW324765   2.126   2.264   3.422 -0.2532  0.0132 -0.5131
 6248SOL    MW424766   2.137   2.349   3.440  0.3675 -0.1813 -0.2231
 6249SOL     OW24767   1.273   6.326   6.364 -0.3221  0.3498  0.1968
 6249SOL    HW224768   1.349   6.269   6.379 -3.3552 -4.1741  0.4906
 6249SOL    HW324769   1.248   6.308   6.274 -1.3649  1.2671  0.2881
 6249SOL    MW424770   1.280   6.316   6.354 -0.0919 -0.2333 -0.2459
 6250SOL     OW24771   0.390   0.833   4.829 -0.3154  0.4909  0.1750
 6250SOL    HW224772   0.433   0.793   4.905 -0.6362  0.1007  0.1533
 6250SOL    HW324773   0.454   0.824   4.758  0.6678  2.3342  0.7688
 6250SOL    MW424774   0.404   0.826   4.829 -1.0096  0.2306 -0.8343
 6251SOL     OW24775   3.176   1.493   2.797  0.1963 -0.5226 -0.0920
 6251SOL    HW224776   3.233   1.561   2.761  0.4713 -0.9202 -0.4287
 6251SOL    HW324777   3.227   1.456   2.870 -0.2026  0.0311  0.4673
 6251SOL    MW424778   3.190   1.497   2.802  0.0706 -0.9430  0.1756
 6252SOL     OW24779   0.596   5.938   3.742 -0.8141 -0.1345 -0.4476
 6252SOL    HW224780   0.503   5.953   3.753 -1.0364 -0.3809 -1.9213
 6252SOL    HW324781   0.603   5.847   3.714 -0.5006  0.9255 -4.3362
 6252SOL    MW424782   0.585   5.928   3.740 -0.0564  0.0752  0.0986
 6253SOL     OW24783   0.538   1.023   4.313  0.0300  0.0626 -0.4050
 6253SOL    HW224784   0.498   0.956   4.258 -0.8400 -0.6484  1.0406
 6253SOL    HW324785   0.465   1.061   4.362  0.5463  1.8571 -0.9279
 6253SOL    MW424786   0.523   1.019   4.312  0.7004  0.2068 -0.3833
 6254SOL     OW24787   5.172   1.543   1.492  0.5885 -0.0714 -0.7635
 6254SOL    HW224788   5.266   1.528   1.490  0.7550  0.6463  0.3245
 6254SOL    HW324789   5.133   1.457   1.478  1.4145 -0.4945 -0.5194
 6254SOL    MW424790   5.179   1.530   1.490  0.2130 -0.3540  0.0090
 6255SOL     OW24791   5.370   1.385   1.231  0.3522 -0.0927 -0.4541
 6255SOL    HW224792   5.369   1.314   1.295  1.5350  1.6008  1.5317
 6255SOL    HW324793   5.282   1.423   1.235  0.8790  1.0253  1.4210
 6255SOL    MW424794   5.358   1.380   1.240 -0.0511  0.3257 -0.7515
 6256SOL     OW24795   2.907   1.579   4.303 -0.4071 -0.2538 -0.0832
 6256SOL    HW224796   2.854   1.524   4.361 -1.7809 -0.8185 -1.7827
 6256SOL    HW324797   2.956   1.516   4.249 -1.0134  0.1929 -1.1778
 6256SOL    MW424798   2.907   1.563   4.304 -0.0267  0.5722  0.0270
 6257SOL     OW24799   2.589   1.563   5.632  0.1616  0.2177  0.3527
 6257SOL    HW224800   2.501   1.591   5.655 -0.6457 -2.0712  0.2985
 6257SOL    HW324801   2.599   1.477   5.673  2.2751  0.2916  0.1212
 6257SOL    MW424802   2.579   1.556   5.640 -0.5271  0.2445 -0.0245
 6258SOL     OW24803   1.520   1.896   5.879  0.1542  0.3066  0.4095
 6258SOL    HW224804   1.551   1.876   5.791  0.1656 -1.5054  0.7820
 6258SOL    HW324805   1.559   1.829   5.934  0.1447  1.4097  1.8160
 6258SOL    MW424806   1.529   1.885   5.875 -0.1334  0.0692 -0.2521
 6259SOL     OW24807   2.355   1.112   3.742 -0.6902 -0.0066 -0.2961
 6259SOL    HW224808   2.371   1.069   3.658  0.3454 -0.1024 -0.0651
 6259SOL    HW324809   2.261   1.132   3.742 -0.6390  0.2782 -1.5949
 6259SOL    MW424810   2.344   1.109   3.731  0.2961  0.1408  0.2100
 6260SOL     OW24811   1.150   2.882   3.990 -0.2384 -0.2951  0.0207
 6260SOL    HW224812   1.214   2.812   4.003  0.2744 -0.1900 -1.6436
 6260SOL    HW324813   1.071   2.838   3.960  0.0209 -0.1958 -0.8331
 6260SOL    MW424814   1.148   2.867   3.988  0.2265 -0.4874  0.4764
 6261SOL     OW24815   4.003   3.321   2.164  0.1719 -0.2954  0.2383
 6261SOL    HW224816   4.016   3.228   2.185  3.2624 -0.6123 -2.2293
 6261SOL    HW324817   4.044   3.332   2.078 -0.5004  3.3005  0.2132
 6261SOL    MW424818   4.010   3.310   2.155 -0.0363 -0.0626 -0.2560
 6262SOL     OW24819   4.266   2.315   5.651  0.0631 -0.6704  0.4157
 6262SOL    HW224820   4.272   2.230   5.695 -0.1300 -0.8107  0.1753
 6262SOL    HW324821   4.237   2.294   5.562  2.2276 -0.5639 -0.3731
 6262SOL    MW424822   4.263   2.301   5.645 -0.3301 -0.0894  0.3202
 6263SOL     OW24823   1.596   3.176   4.434  0.1333 -0.3568 -0.0829
 6263SOL    HW224824   1.604   3.091   4.392 -0.9549 -0.3540 -0.3247
 6263SOL    HW324825   1.588   3.156   4.527 -0.0489 -0.5226 -0.1327
 6263SOL    MW424826   1.596   3.162   4.441  0.2617  0.4478 -0.5905
 6264SOL     OW24827   4.066   3.530   1.407  0.2488 -0.6252 -0.0277
 6264SOL    HW224828   4.126   3.604   1.398 -0.5607  0.2048  1.0991
 6264SOL    HW324829   4.122   3.456   1.430  1.2882 -0.8343 -2.7537
 6264SOL    MW424830   4.081   3.530   1.409 -0.3629  0.1165 -0.6509
 6265SOL     OW24831   0.026   6.099   4.450  0.1725 -0.2641  0.0694
 6265SOL    HW224832  -0.034   6.146   4.393 -0.9883 -0.5700  1.0103
 6265SOL    HW324833   0.107   6.092   4.399 -0.5306  0.2776 -1.1566
 6265SOL    MW424834   0.029   6.104   4.436 -0.4853 -0.3712  0.1709
 6266SOL     OW24835   1.886   1.460   2.236  0.2168  0.3083 -0.3473
 6266SOL    HW224836   1.977   1.433   2.225 -0.6592 -2.8971 -0.5926
 6266SOL    HW324837   1.860   1.424   2.321 -0.8718  1.1107 -0.3095
 6266SOL    MW424838   1.894   1.452   2.246 -0.0804 -0.0137  0.1312
 6267SOL     OW24839   3.569   5.768   1.467  0.0054  0.1129 -0.0381
 6267SOL    HW224840   3.642   5.824   1.442 -0.3936  0.5700 -0.2182
 6267SOL    HW324841   3.603   5.711   1.535  0.3990  0.6390  0.2065
 6267SOL    MW424842   3.583   5.768   1.472 -0.5977  0.1875  0.5519
 6268SOL     OW24843   1.820   3.045   2.765  0.3515  0.0607  0.0376
 6268SOL    HW224844   1.898   3.034   2.820  0.2396  0.7355  0.3366
 6268SOL    HW324845   1.845   3.112   2.701 -0.3348  1.0628  0.8051
 6268SOL    MW424846   1.834   3.052   2.764  0.8383  0.3892  0.0187
 6269SOL     OW24847   4.722   3.455   1.869  0.5055  0.1640 -0.0626
 6269SOL    HW224848   4.757   3.435   1.956  0.1497 -2.3353 -0.4267
 6269SOL    HW324849   4.792   3.505   1.827  0.5345  1.7550  1.7411
 6269SOL    MW424850   4.736   3.459   1.875 -0.0302  0.2818  0.8980
 6270SOL     OW24851   3.273   4.529   0.844 -0.7296  0.4106  0.4000
 6270SOL    HW224852   3.227   4.462   0.795 -1.1355 -0.0980  1.4339
 6270SOL    HW324853   3.365   4.503   0.840 -0.9901 -0.8548  1.6913
 6270SOL    MW424854   3.279   4.517   0.837  0.1430  0.7789 -0.4685
 6271SOL     OW24855   5.726   6.416   5.994  0.4318  0.4314 -0.3540
 6271SOL    HW224856   5.736   6.512   5.994  2.0205  0.3516 -2.7189
 6271SOL    HW324857   5.668   6.399   5.920 -1.7000 -0.3837  1.4010
 6271SOL    MW424858   5.720   6.427   5.984 -0.0190 -0.4127 -0.4132
 6272SOL     OW24859   5.166   3.063   0.612  0.0755 -0.6662 -0.1304
 6272SOL    HW224860   5.179   3.090   0.703  0.2516  0.2884 -0.4269
 6272SOL    HW324861   5.099   3.124   0.579 -0.9942 -1.8748 -0.2549
 6272SOL    MW424862   5.159   3.075   0.620 -0.3808  0.2727 -0.0947
 6273SOL     OW24863   2.355   4.785   5.065  0.3579 -0.0064 -0.0756
 6273SOL    HW224864   2.404   4.849   5.014  0.4749  1.7015  2.0380
 6273SOL    HW324865   2.325   4.834   5.142 -2.8002 -1.5186 -0.1736
 6273SOL    MW424866   2.357   4.800   5.068 -0.8537 -0.3183  0.4790
 6274SOL     OW24867   2.070   3.466   0.887 -0.0485 -1.0231  0.6324
 6274SOL    HW224868   2.064   3.466   0.983  2.3640  0.5359  0.8538
 6274SOL    HW324869   2.051   3.375   0.862  1.4948 -2.0315  2.7900
 6274SOL    MW424870   2.066   3.454   0.896 -0.3802 -0.3065 -0.2148
 6275SOL     OW24871   1.750   4.391   4.530 -0.2099  0.4970  0.9413
 6275SOL    HW224872   1.795   4.310   4.508 -0.0109  0.2074  2.3168
 6275SOL    HW324873   1.746   4.391   4.625 -0.1620  2.1395  0.9712
 6275SOL    MW424874   1.755   4.380   4.539  0.2191 -0.7945  0.0272
 6276SOL     OW24875   3.500   4.427   1.395 -0.0708 -0.1282  0.3715
 6276SOL    HW224876   3.543   4.375   1.463  0.5268  0.9135  0.8097
 6276SOL    HW324877   3.411   4.442   1.429 -0.0645 -0.3727  0.4984
 6276SOL    MW424878   3.494   4.422   1.408 -0.3389 -1.0390 -0.1259
 6277SOL     OW24879   2.910   1.185   4.019  0.0497 -0.0962 -0.0818
 6277SOL    HW224880   2.835   1.240   3.994 -2.0401 -1.7481  2.0949
 6277SOL    HW324881   2.949   1.231   4.094  0.3480  0.0568 -0.3304
 6277SOL    MW424882   2.905   1.199   4.026  0.1722  0.0571  0.3663
 6278SOL     OW24883   3.728   3.653   5.706  0.5014 -0.2915 -0.0299
 6278SOL    HW224884   3.731   3.595   5.630 -0.2912 -0.9891  0.4530
 6278SOL    HW324885   3.661   3.615   5.762 -0.2078  1.2180  0.1973
 6278SOL    MW424886   3.719   3.640   5.703 -0.0678  0.0529 -0.6151
 6279SOL     OW24887   5.060   2.951   4.181  0.1956  0.1672  0.2624
 6279SOL    HW224888   5.001   3.017   4.217  0.1236 -0.9114  2.2828
 6279SOL    HW324889   5.006   2.900   4.122 -0.1789  0.8636 -0.0087
 6279SOL    MW424890   5.045   2.953   4.178 -0.0199  0.5942 -0.2665
 6280SOL     OW24891   3.385   1.370   0.216 -0.2293  0.0467  0.3478
 6280SOL    HW224892   3.293   1.380   0.191 -0.0989 -0.0817 -0.2055
 6280SOL    HW324893   3.423   1.456   0.203 -0.0774 -0.1103 -0.2601
 6280SOL    MW424894   3.378   1.382   0.211  0.4452  0.0913 -0.5267
 6281SOL     OW24895   0.512   4.236   3.092  0.4781 -0.4612 -0.0073
 6281SOL    HW224896   0.563   4.294   3.036  1.6834 -1.4580  0.0322
 6281SOL    HW324897   0.570   4.163   3.112 -0.0297 -0.3154  2.2706
 6281SOL    MW424898   0.526   4.234   3.087  0.4891  0.3469 -0.2622
 6282SOL     OW24899   5.745   3.173   3.406 -0.5751  0.3695  0.0345
 6282SOL    HW224900   5.840   3.161   3.409 -0.6331 -0.3955 -0.7364
 6282SOL    HW324901   5.719   3.179   3.498 -0.0474 -1.7930  0.3887
 6282SOL    MW424902   5.754   3.172   3.419 -0.3406  0.1179 -0.2525
 6283SOL     OW24903   0.183   2.246   2.114 -0.1080  0.5265  0.2402
 6283SOL    HW224904   0.097   2.283   2.135 -1.1936 -1.7957  0.1499
 6283SOL    HW324905   0.197   2.177   2.178  0.2082 -1.2501 -1.6373
 6283SOL    MW424906   0.174   2.242   2.125 -0.4995 -0.0634  0.1747
 6284SOL     OW24907   0.152   2.800   3.398  0.3027 -0.7399 -0.3764
 6284SOL    HW224908   0.184   2.882   3.359  1.2313 -0.5568  0.7319
 6284SOL    HW324909   0.168   2.734   3.330 -0.9220  0.0432 -1.4886
 6284SOL    MW424910   0.158   2.802   3.384 -0.3053  0.4883  0.0647
 6285SOL     OW24911   0.067   5.028   3.580  0.4670  0.1653  0.1269
 6285SOL    HW224912   0.139   5.065   3.529  0.4593  0.9376  0.6636
 6285SOL    HW324913  -0.012   5.065   3.542  0.4106  0.0494  0.1316
 6285SOL    MW424914   0.066   5.038   3.568  0.3783  0.1867  0.3364
 6286SOL     OW24915   0.697   1.610   4.331  0.0114 -0.3304 -0.0313
 6286SOL    HW224916   0.719   1.519   4.310  1.2842 -0.2165  0.6492
 6286SOL    HW324917   0.604   1.609   4.352 -0.3244 -1.1895 -1.4838
 6286SOL    MW424918   0.688   1.598   4.331 -0.6761 -0.0839  1.4455
 6287SOL     OW24919   4.564   2.579   4.274  0.5219  0.3269  0.0555
 6287SOL    HW224920   4.493   2.601   4.214 -0.0599 -0.2952  0.4939
 6287SOL    HW324921   4.586   2.488   4.253  0.4593  0.1754  0.6285
 6287SOL    MW424922   4.558   2.569   4.263  0.2542  0.1728  0.2936
 6288SOL     OW24923   1.278   4.765   6.060  0.1068 -0.4394 -0.0141
 6288SOL    HW224924   1.244   4.771   5.971 -0.8175  4.2789  0.3870
 6288SOL    HW324925   1.370   4.790   6.053  0.0383 -0.0777  0.3210
 6288SOL    MW424926   1.286   4.769   6.047  0.1105  0.2487 -0.9894
 6289SOL     OW24927   0.897   3.234   0.337  0.5615  0.7498 -0.2796
 6289SOL    HW224928   0.946   3.285   0.401  1.0786  1.2787 -1.0880
 6289SOL    HW324929   0.834   3.184   0.390  1.7588  0.2780  0.7397
 6289SOL    MW424930   0.895   3.234   0.353 -0.3189 -0.8873  0.4599
 6290SOL     OW24931   6.090   1.699   2.030  0.0618 -0.1202  0.6986
 6290SOL    HW224932   6.029   1.641   2.076 -2.2206  1.0531 -0.6399
 6290SOL    HW324933   6.060   1.699   1.939  0.8646  2.0009  0.3654
 6290SOL    MW424934   6.078   1.691   2.024 -0.0027 -0.2380  0.2616
 6291SOL     OW24935   3.476   2.297   4.560  0.0944  0.1275 -0.0741
 6291SOL    HW224936   3.449   2.208   4.578 -1.5574  0.2265 -1.7580
 6291SOL    HW324937   3.397   2.340   4.526  1.2616  1.7384 -0.9085
 6291SOL    MW424938   3.462   2.291   4.558 -0.0647 -0.6193  0.0220
 6292SOL     OW24939   4.124   1.394   5.562  0.2771 -0.2158 -0.0855
 6292SOL    HW224940   4.081   1.327   5.615  1.9069 -0.6744  0.7341
 6292SOL    HW324941   4.127   1.357   5.474 -1.8238  0.2567 -0.4213
 6292SOL    MW424942   4.119   1.381   5.557 -0.1197 -0.1889  0.2500
 6293SOL     OW24943   0.489   3.158   0.334  0.0057  0.2092 -0.7243
 6293SOL    HW224944   0.478   3.074   0.288 -0.1383  0.8903 -1.9820
 6293SOL    HW324945   0.574   3.150   0.377 -0.6488 -1.1209  0.3942
 6293SOL    MW424946   0.499   3.146   0.333 -0.3453 -0.0521  0.3113
 6294SOL     OW24947   5.423   3.435   3.653 -0.1127  0.0413  0.2113
 6294SOL    HW224948   5.509   3.405   3.621 -0.0389  0.1621  0.2946
 6294SOL    HW324949   5.402   3.374   3.724  0.2623  0.4751  0.7034
 6294SOL    MW424950   5.432   3.423   3.658 -0.4146  0.0977 -0.1629
 6295SOL     OW24951   3.811   6.057   4.082 -0.6181 -0.5292  0.1838
 6295SOL    HW224952   3.793   6.110   4.159  0.6066  1.3182 -0.7320
 6295SOL    HW324953   3.878   6.106   4.034  0.6756 -2.9769 -0.6849
 6295SOL    MW424954   3.817   6.070   4.085 -0.1243  0.1947 -0.4177
 6296SOL     OW24955   0.956   3.440   1.211  0.3485  0.7454 -0.3426
 6296SOL    HW224956   1.008   3.518   1.229 -0.7633  1.8267 -1.6086
 6296SOL    HW324957   0.997   3.401   1.134  0.0150  0.9321 -0.6190
 6296SOL    MW424958   0.968   3.445   1.203 -0.7142  0.2076 -0.0229
 6297SOL     OW24959   4.497   5.806   3.722 -0.0783  0.1139 -0.2385
 6297SOL    HW224960   4.451   5.797   3.639  1.2359  1.4991 -1.1752
 6297SOL    HW324961   4.573   5.748   3.714 -1.1780 -1.5922  1.0011
 6297SOL    MW424962   4.501   5.797   3.710 -0.2269 -0.3681  0.2293
 6298SOL     OW24963   5.016   6.196   1.851  0.1270  0.2690 -0.0104
 6298SOL    HW224964   4.998   6.259   1.781  2.1809 -0.6291 -1.4241
 6298SOL    HW324965   5.050   6.250   1.923  1.1982  0.9064 -0.9513
 6298SOL    MW424966   5.018   6.212   1.851 -0.2338  0.5163  0.2853
 6299SOL     OW24967   3.086   5.219   0.753  0.1249  0.2246  0.6739
 6299SOL    HW224968   3.107   5.295   0.808 -0.0087  1.2675 -0.6478
 6299SOL    HW324969   3.010   5.179   0.796 -1.1367  2.0857  0.3227
 6299SOL    MW424970   3.078   5.224   0.766  0.1391  0.1078  0.2517
 6300SOL     OW24971   4.205   0.626   4.023 -0.2976 -0.7676  0.4498
 6300SOL    HW224972   4.146   0.700   4.011  0.6629  0.2509  1.6967
 6300SOL    HW324973   4.189   0.597   4.113  1.4597 -0.0623  1.0489
 6300SOL    MW424974   4.195   0.632   4.033 -0.3973 -0.0193  0.3974
 6301SOL     OW24975   3.788   2.853   6.300 -0.2767  0.1219 -0.5734
 6301SOL    HW224976   3.867   2.839   6.352 -0.9569  1.3963  0.8513
 6301SOL    HW324977   3.799   2.940   6.261  0.1817 -0.7668 -2.5721
 6301SOL    MW424978   3.800   2.862   6.301  0.3555  0.2099 -0.4433
 6302SOL     OW24979   5.515   4.748   5.217  0.5652 -0.2110 -0.4549
 6302SOL    HW224980   5.585   4.787   5.270 -0.7369  1.5701  0.0736
 6302SOL    HW324981   5.435   4.772   5.264 -0.4740 -0.9176 -1.8258
 6302SOL    MW424982   5.514   4.756   5.230  0.5322  0.8316  0.0942
 6303SOL     OW24983   6.156   3.480   2.211 -0.4240  0.6989  0.0525
 6303SOL    HW224984   6.220   3.440   2.152 -0.8144  0.7634 -0.4241
 6303SOL    HW324985   6.098   3.529   2.153 -2.2927 -1.1832  0.1917
 6303SOL    MW424986   6.157   3.481   2.196  0.2784 -1.0663  0.1142
 6304SOL     OW24987   5.262   0.624   1.935 -0.2484 -0.1897 -0.2183
 6304SOL    HW224988   5.345   0.666   1.911 -1.1389  0.9095 -1.4959
 6304SOL    HW324989   5.246   0.559   1.867 -0.9231  0.3013 -0.5368
 6304SOL    MW424990   5.271   0.621   1.923 -0.4467  0.4201 -0.8153
 6305SOL     OW24991   0.315   6.130   4.938 -0.4604  0.2810 -0.4567
 6305SOL    HW224992   0.402   6.108   4.905  0.1305  0.3137  1.0094
 6305SOL    HW324993   0.289   6.208   4.889  0.6562  0.7062 -0.3823
 6305SOL    MW424994   0.323   6.138   4.927 -0.2888 -0.0600  0.4199
 6306SOL     OW24995   3.433   6.024   4.421 -0.5241  0.1257 -0.0893
 6306SOL    HW224996   3.449   5.981   4.337 -0.2792 -0.3311  0.1854
 6306SOL    HW324997   3.380   5.961   4.471  2.4133 -1.2752  1.4888
 6306SOL    MW424998   3.428   6.010   4.417 -0.0848 -0.3518  0.1705
 6307SOL     OW24999   1.253   1.058   4.681  0.0501 -0.1204 -0.0694
 6307SOL    HW225000   1.233   1.022   4.768 -1.5180 -1.1187 -0.8045
 6307SOL    HW325001   1.297   1.141   4.700  3.0135 -1.8882  1.7048
 6307SOL    MW425002   1.256   1.064   4.695  0.0026  0.3933  0.1212
 6308SOL     OW25003   2.315   3.641   6.305  0.1774  0.3729 -0.0546
 6308SOL    HW225004   2.323   3.685   6.221  0.5751  1.5825  0.5980
 6308SOL    HW325005   2.397   3.594   6.315  0.4407  0.8362 -0.0089
 6308SOL    MW425006   2.327   3.641   6.295 -0.0467 -0.1651 -0.4204
 6309SOL     OW25007   0.668   5.155   2.650  0.2278  0.1782 -0.2922
 6309SOL    HW225008   0.619   5.092   2.704  1.9000 -0.9467  0.0079
 6309SOL    HW325009   0.605   5.184   2.584 -1.4198  0.3776  1.2679
 6309SOL    MW425010   0.653   5.150   2.648 -0.0075  0.1219 -0.2998
 6310SOL     OW25011   6.138   0.441   0.806 -0.3264 -0.4800  0.3220
 6310SOL    HW225012   6.056   0.400   0.778  0.3992 -2.0338  0.3742
 6310SOL    HW325013   6.206   0.392   0.761  0.5833  1.0891 -0.0814
 6310SOL    MW425014   6.136   0.429   0.797 -0.1608 -0.7966  0.1068
 6311SOL     OW25015   5.476   4.403   1.434 -0.1071  0.0018  0.2729
 6311SOL    HW225016   5.390   4.443   1.423 -0.2817 -0.0436  1.3015
 6311SOL    HW325017   5.535   4.477   1.447  0.0898  0.0535 -0.8296
 6311SOL    MW425018   5.472   4.418   1.435  0.5141 -0.0513  0.8382
 6312SOL     OW25019   5.391   1.936   0.338 -0.1809  0.0844 -0.1124
 6312SOL    HW225020   5.473   1.942   0.290 -0.2256  2.5357  0.0071
 6312SOL    HW325021   5.418   1.927   0.430 -0.0970 -1.5573 -0.2676
 6312SOL    MW425022   5.406   1.935   0.344  0.2340 -0.5725 -0.4136
 6313SOL     OW25023   5.833   3.502   2.954  0.5787 -0.4656  0.4221
 6313SOL    HW225024   5.802   3.421   2.914  2.4699 -0.6225 -0.8406
 6313SOL    HW325025   5.928   3.497   2.949  0.7499  1.7967  0.3629
 6313SOL    MW425026   5.841   3.491   2.948  0.2668  0.1749 -0.1168
 6314SOL     OW25027   3.795   1.621   6.341  0.4292 -0.0569  0.1665
 6314SOL    HW225028   3.890   1.624   6.328  0.0401  2.4042 -3.3199
 6314SOL    HW325029   3.758   1.656   6.260 -3.4367  0.7163  2.0290
 6314SOL    MW425030   3.803   1.626   6.329 -1.0606 -0.4561 -0.2153
 6315SOL     OW25031   1.671   6.114   4.490  0.0207 -0.7319 -0.5049
 6315SOL    HW225032   1.676   6.144   4.399 -0.8068  0.1069 -0.2938
 6315SOL    HW325033   1.759   6.129   4.525  0.4212 -1.3168 -1.2397
 6315SOL    MW425034   1.683   6.120   4.482 -0.6418 -0.6916 -0.1338
 6316SOL     OW25035   3.671   6.460   2.990  0.0015  0.6256 -0.5997
 6316SOL    HW225036   3.595   6.471   2.932  0.8376 -0.1863 -1.9081
 6316SOL    HW325037   3.646   6.389   3.049 -1.0100  1.7196  0.3449
 6316SOL    MW425038   3.658   6.452   2.990 -0.7122  0.0573 -0.0996
 6317SOL     OW25039   5.165   4.480   5.540  0.0267 -0.5548 -0.2395
 6317SOL    HW225040   5.232   4.535   5.580  0.3606 -0.6584 -0.6437
 6317SOL    HW325041   5.159   4.404   5.597  1.2053 -1.1677 -0.8862
 6317SOL    MW425042   5.173   4.477   5.553 -0.7389  0.2304  0.2508
 6318SOL     OW25043   0.814   6.162   3.101 -0.3233  0.0687 -0.1462
 6318SOL    HW225044   0.807   6.083   3.046  0.0268  0.5797 -0.9361
 6318SOL    HW325045   0.903   6.160   3.134 -0.7414 -0.6033  0.9824
 6318SOL    MW425046   0.825   6.151   3.098 -0.0715  0.6063 -0.5158
 6319SOL     OW25047   4.844   4.922   0.068 -0.4012 -0.4072  0.2990
 6319SOL    HW225048   4.788   4.984   0.021 -1.6719 -0.8079  1.2215
 6319SOL    HW325049   4.862   4.964   0.151  0.7958 -0.2434 -0.0182
 6319SOL    MW425050   4.839   4.936   0.072 -0.5732  0.0235 -0.0568
 6320SOL     OW25051   1.993   0.088   5.466  0.4632 -0.3238 -0.0592
 6320SOL    HW225052   1.925   0.034   5.426 -0.1215  0.9922 -0.8878
 6320SOL    HW325053   2.064   0.089   5.402  0.0507  0.7082 -0.5316
 6320SOL    MW425054   1.993   0.081   5.453  0.2161 -0.0551 -0.2333
 6321SOL     OW25055   0.421   4.401   1.968  0.0341  0.2051  0.4490
 6321SOL    HW225056   0.333   4.365   1.957  0.6090 -1.0519 -0.2319
 6321SOL    HW325057   0.410   4.472   2.031 -1.7074  1.0644 -0.7625
 6321SOL    MW425058   0.408   4.405   1.975  0.2141  0.0780  0.1547
 6322SOL     OW25059   1.360   4.610   6.389  0.3126  0.4810 -0.5716
 6322SOL    HW225060   1.341   4.670   6.461 -1.2772  1.2787 -1.5920
 6322SOL    HW325061   1.423   4.658   6.334  1.3810 -0.0530  0.1421
 6322SOL    MW425062   1.366   4.624   6.391  0.2442 -0.2135 -0.1475
 6323SOL     OW25063   2.071   6.215   0.106  0.0359 -0.2061  0.2895
 6323SOL    HW225064   2.149   6.181   0.062  0.1365  1.2498 -0.7447
 6323SOL    HW325065   2.099   6.233   0.195  0.4624 -1.1099  0.3433
 6323SOL    MW425066   2.085   6.213   0.112 -0.5572 -0.3318  0.2449
 6324SOL     OW25067   6.271   1.417   3.956 -0.2439  0.5513  0.2877
 6324SOL    HW225068   6.203   1.395   3.892  0.9277  0.9003 -1.1292
 6324SOL    HW325069   6.323   1.337   3.963  1.8123  1.5279 -2.0712
 6324SOL    MW425070   6.269   1.403   3.948 -0.6054 -0.3564 -0.0344
 6325SOL     OW25071   1.322   2.718   3.691 -0.6161 -0.5624  0.4764
 6325SOL    HW225072   1.340   2.740   3.600 -0.5925 -1.9488  0.1251
 6325SOL    HW325073   1.406   2.691   3.727 -0.8386 -1.1832  0.5515
 6325SOL    MW425074   1.335   2.718   3.684 -0.0722 -0.2360  0.0438
 6326SOL     OW25075   0.285   1.733   6.137 -0.7127  0.2609  0.5792
 6326SOL    HW225076   0.329   1.756   6.055 -0.8046 -0.1967  0.3986
 6326SOL    HW325077   0.283   1.815   6.187 -0.2571  0.4399  0.3114
 6326SOL    MW425078   0.290   1.747   6.133  0.1447 -0.1405 -0.2030
 6327SOL     OW25079   4.740   3.392   4.580  0.4626  0.0356 -0.1135
 6327SOL    HW225080   4.824   3.345   4.576 -0.2547 -1.4213  0.9010
 6327SOL    HW325081   4.705   3.371   4.667 -1.2313  0.0999 -0.7466
 6327SOL    MW425082   4.746   3.383   4.591  0.1341  0.0228 -0.3868
 6328SOL     OW25083   1.224   0.846   0.524  0.1577 -0.6677  0.2190
 6328SOL    HW225084   1.232   0.874   0.432  1.1979  0.4154  0.6120
 6328SOL    HW325085   1.315   0.842   0.555 -0.0934 -2.4279  0.8064
 6328SOL    MW425086   1.237   0.849   0.516 -0.5974 -0.0037  0.8104
 6329SOL     OW25087   1.833   3.729   0.114  0.1990  0.7871  0.3316
 6329SOL    HW225088   1.739   3.726   0.127  0.0099  1.3700 -0.7155
 6329SOL    HW325089   1.858   3.639   0.093 -0.4874  0.9800 -1.4900
 6329SOL    MW425090   1.824   3.717   0.113  0.2010  0.3239 -0.0608
 6330SOL     OW25091   1.542   5.474   2.268  0.7773  0.4481  0.0710
 6330SOL    HW225092   1.547   5.380   2.252  1.7888  0.3988  0.5375
 6330SOL    HW325093   1.612   5.490   2.332 -1.7435  0.8961  2.9288
 6330SOL    MW425094   1.552   5.464   2.275 -0.2114  0.1819  0.1621
 6331SOL     OW25095   1.613   0.104   5.952 -0.0330  0.1838  0.4098
 6331SOL    HW225096   1.635   0.125   6.043  0.9008  0.9911  0.0095
 6331SOL    HW325097   1.525   0.139   5.941  0.3344  1.1991  0.6447
 6331SOL    MW425098   1.604   0.111   5.963 -0.2221  0.3732 -0.3219
 6332SOL     OW25099   5.948   4.279   4.927  0.3835  0.0866  0.5096
 6332SOL    HW225100   5.950   4.198   4.979  1.4368 -0.0320  0.3057
 6332SOL    HW325101   6.040   4.299   4.911  0.1109  1.0353  0.0913
 6332SOL    MW425102   5.961   4.271   4.932  0.3188  0.1176 -0.1005
 6333SOL     OW25103   3.467   6.042   0.449 -0.0715 -0.2349 -0.9395
 6333SOL    HW225104   3.500   6.023   0.537  0.4574 -1.6965 -1.4090
 6333SOL    HW325105   3.398   5.977   0.435 -1.3543  1.0979 -0.9747
 6333SOL    MW425106   3.463   6.031   0.459  0.5985  0.2392 -0.3143
 6334SOL     OW25107   0.694   4.611   4.737 -0.5871  0.1963  0.3300
 6334SOL    HW225108   0.634   4.612   4.663 -0.4887 -0.8420  0.2181
 6334SOL    HW325109   0.776   4.576   4.702 -1.0003 -1.8018  1.2130
 6334SOL    MW425110   0.697   4.607   4.723  0.1807 -0.0181  0.4847
 6335SOL     OW25111   0.945   4.498   4.338  0.1335  0.6396  0.0290
 6335SOL    HW225112   0.887   4.540   4.402 -0.4926  1.8602 -1.2671
 6335SOL    HW325113   0.902   4.416   4.316 -0.6319  1.0877 -0.1979
 6335SOL    MW425114   0.932   4.493   4.343 -0.2007  0.0599  0.8813
 6336SOL     OW25115   5.785   4.070   2.542  0.2753 -0.0808 -0.2609
 6336SOL    HW225116   5.745   4.067   2.630  0.9883  2.2180  0.2165
 6336SOL    HW325117   5.768   4.159   2.512 -0.8156 -1.0936 -2.9426
 6336SOL    MW425118   5.777   4.081   2.550  0.0107 -0.1963  0.1626
 6337SOL     OW25119   5.969   2.586   4.649  0.0113  0.2336 -0.5166
 6337SOL    HW225120   6.029   2.636   4.704  1.3531  0.6858 -2.3025
 6337SOL    HW325121   5.965   2.499   4.689  1.1555  0.4666  0.1303
 6337SOL    MW425122   5.976   2.581   4.661 -0.4100 -0.4714 -0.1880
 6338SOL     OW25123   6.250   3.030   0.432 -0.5382 -0.3430  0.0462
 6338SOL    HW225124   6.285   2.977   0.503  0.2819 -0.2091 -0.2546
 6338SOL    HW325125   6.244   2.971   0.357  2.5065  0.4294 -0.9571
 6338SOL    MW425126   6.253   3.015   0.431 -0.4889 -0.4317  0.4605
 6339SOL     OW25127   0.833   5.667   1.293  0.0659 -0.0116  0.5623
 6339SOL    HW225128   0.863   5.692   1.381  0.6628 -0.3930  0.4722
 6339SOL    HW325129   0.842   5.747   1.241 -0.7705  0.3573  0.9602
 6339SOL    MW425130   0.838   5.681   1.298 -0.0460  0.5861 -0.4681
 6340SOL     OW25131   3.008   0.739   0.096  0.3035 -0.7185 -0.2906
 6340SOL    HW225132   2.997   0.674   0.027  0.0595 -1.4091  0.3972
 6340SOL    HW325133   2.926   0.788   0.098 -0.8623 -2.6073  1.4599
 6340SOL    MW425134   2.996   0.737   0.087  0.0768 -0.4054  0.1304
 6341SOL     OW25135   5.194   3.943   4.737  0.0653  0.1507  0.0457
 6341SOL    HW225136   5.254   3.960   4.665  0.0073  0.3297  0.0387
 6341SOL    HW325137   5.252   3.927   4.812  0.1583 -1.6473 -0.3780
 6341SOL    MW425138   5.210   3.943   4.738  0.2324 -0.0448  0.2697
 6342SOL     OW25139   1.514   3.296   1.805  0.2913 -0.0538  0.6109
 6342SOL    HW225140   1.551   3.319   1.890 -0.4315  0.5574  0.7707
 6342SOL    HW325141   1.460   3.219   1.823  0.3034 -0.0489  0.6709
 6342SOL    MW425142   1.512   3.289   1.819  0.5107 -0.4977  0.3941
 6343SOL     OW25143   5.001   2.642   0.367 -0.4781  0.1697 -0.2539
 6343SOL    HW225144   5.034   2.553   0.357 -0.0735  0.2203  0.5453
 6343SOL    HW325145   5.052   2.679   0.439 -1.4439  0.6676  0.1993
 6343SOL    MW425146   5.012   2.635   0.375  0.3482 -0.3426  0.6678
 6344SOL     OW25147   0.495   0.797   3.252  0.6952  0.6002 -0.4686
 6344SOL    HW225148   0.490   0.785   3.158  0.0367 -0.9185 -0.2740
 6344SOL    HW325149   0.542   0.880   3.264  1.3907  0.4689 -2.1022
 6344SOL    MW425150   0.500   0.806   3.241 -0.0753 -0.5004 -0.0939
 6345SOL     OW25151   5.089   0.760   4.039  0.0587 -0.3864 -0.3050
 6345SOL    HW225152   5.029   0.834   4.030 -0.6950 -0.9256  0.1532
 6345SOL    HW325153   5.115   0.740   3.950 -0.1174  0.1162 -0.4776
 6345SOL    MW425154   5.084   0.767   4.026 -0.2822  0.4681  0.4017
 6346SOL     OW25155   0.634   4.259   3.600  0.1183 -0.5267 -0.1719
 6346SOL    HW225156   0.597   4.347   3.594 -1.6129 -1.2556 -0.8390
 6346SOL    HW325157   0.594   4.211   3.528  2.6318 -1.3540 -1.1316
 6346SOL    MW425158   0.624   4.265   3.590  0.2393  0.2724  0.3994
 6347SOL     OW25159   0.712   5.471   1.774 -0.2037 -0.3442 -0.1608
 6347SOL    HW225160   0.728   5.537   1.842  1.9517 -0.1913 -0.7406
 6347SOL    HW325161   0.656   5.406   1.816  1.6219 -0.6111  2.0159
 6347SOL    MW425162   0.707   5.471   1.788  0.7884 -0.0368  0.0504
 6348SOL     OW25163   1.389   0.438   3.419 -0.0760 -0.1990 -0.1249
 6348SOL    HW225164   1.377   0.528   3.450  2.5179  0.0234  0.4578
 6348SOL    HW325165   1.476   0.437   3.380 -0.9182 -1.9530 -2.1890
 6348SOL    MW425166   1.399   0.449   3.418 -0.3000  0.1743  0.2731
 6349SOL     OW25167   3.509   0.174   0.290 -0.2310 -0.1018 -0.3285
 6349SOL    HW225168   3.492   0.199   0.199  0.8658  0.2809 -0.4369
 6349SOL    HW325169   3.422   0.159   0.327 -0.7234  0.4100 -1.2471
 6349SOL    MW425170   3.495   0.175   0.283  0.2462  0.3809 -0.0847
 6350SOL     OW25171   2.802   5.845   1.981 -0.4686  0.3430 -0.7749
 6350SOL    HW225172   2.725   5.790   1.964 -1.0155  0.5643  0.7996
 6350SOL    HW325173   2.872   5.805   1.930 -0.6313 -2.3956  0.9403
 6350SOL    MW425174   2.801   5.833   1.972 -0.1353 -0.7445 -0.6138
 6351SOL     OW25175   4.116   4.943   2.543  0.7459  0.1339 -0.5404
 6351SOL    HW225176   4.077   4.986   2.466  0.5307 -0.7956 -0.9632
 6351SOL    HW325177   4.169   4.872   2.507 -0.5792 -1.2973  0.2096
 6351SOL    MW425178   4.118   4.939   2.528 -0.3588 -0.0487  0.2609
 6352SOL     OW25179   4.842   1.337   4.344 -0.1675 -0.1231  0.2106
 6352SOL    HW225180   4.790   1.313   4.420 -0.4883  0.6400  0.2469
 6352SOL    HW325181   4.795   1.300   4.270 -0.8408  0.6475  0.2344
 6352SOL    MW425182   4.829   1.329   4.344  0.1335 -0.1007 -0.4522
 6353SOL     OW25183   2.802   3.047   0.991 -0.2790  0.1328 -0.6987
 6353SOL    HW225184   2.742   2.977   1.017  0.1449  0.2019  0.5185
 6353SOL    HW325185   2.889   3.010   1.004 -0.0522  0.7442 -0.4363
 6353SOL    MW425186   2.806   3.033   0.996  0.1298  0.4098 -0.5248
 6354SOL     OW25187   2.883   0.920   3.180  0.1379 -0.0784 -0.0167
 6354SOL    HW225188   2.911   0.991   3.122  0.9094 -0.7598 -0.4941
 6354SOL    HW325189   2.906   0.949   3.268 -1.0649  0.9795 -0.0206
 6354SOL    MW425190   2.889   0.933   3.184 -0.2582  0.4446  0.3175
 6355SOL     OW25191   4.850   0.082   1.080  0.4516 -0.1511 -0.1149
 6355SOL    HW225192   4.818   0.027   1.152 -0.2413  0.1896 -0.1592
 6355SOL    HW325193   4.940   0.053   1.067 -0.4758 -2.7500 -1.5207
 6355SOL    MW425194   4.858   0.071   1.088 -0.3822  0.1893 -0.3857
 6356SOL     OW25195   4.251   0.840   2.221 -0.3542 -0.1347 -0.2977
 6356SOL    HW225196   4.326   0.892   2.250 -0.0120  0.2425 -1.8064
 6356SOL    HW325197   4.268   0.823   2.129 -2.9270  1.3843 -1.1476
 6356SOL    MW425198   4.263   0.844   2.213 -0.1062  0.3813  0.6127
 6357SOL     OW25199   5.158   1.388   3.306  0.3713  0.4041 -0.0107
 6357SOL    HW225200   5.133   1.301   3.339 -1.5504  0.6889 -0.5967
 6357SOL    HW325201   5.174   1.375   3.213 -0.4778  0.7639 -0.2151
 6357SOL    MW425202   5.157   1.375   3.298 -0.0528 -0.7900 -0.0698
 6358SOL     OW25203   3.668   4.187   4.733 -0.2991  0.2281  0.0206
 6358SOL    HW225204   3.580   4.166   4.764 -0.8540  1.5585 -0.5838
 6358SOL    HW325205   3.692   4.266   4.781  0.7636 -0.3684  0.5066
 6358SOL    MW425206   3.660   4.195   4.743  0.6424 -0.0641  0.2729
 6359SOL     OW25207   1.964   0.163   1.880 -0.0805 -0.2986  0.4228
 6359SOL    HW225208   1.877   0.194   1.853  0.4662  1.1361  0.1933
 6359SOL    HW325209   1.946   0.097   1.946 -1.3903 -1.8685 -1.3991
 6359SOL    MW425210   1.950   0.159   1.885  0.1638  0.4700 -0.0375
 6360SOL     OW25211   4.853   4.491   0.837  0.7385 -0.1640  0.3898
 6360SOL    HW225212   4.841   4.428   0.766  0.8825 -2.1867  2.0736
 6360SOL    HW325213   4.881   4.571   0.793 -0.6638 -0.8669 -1.9603
 6360SOL    MW425214   4.855   4.493   0.822 -0.2884 -0.0064 -0.6950
 6361SOL     OW25215   6.221   1.537   1.417 -0.1566 -0.5787 -0.1181
 6361SOL    HW225216   6.296   1.533   1.358  1.0097  0.8011  1.1754
 6361SOL    HW325217   6.242   1.475   1.487  1.0977  1.6214  1.5850
 6361SOL    MW425218   6.234   1.528   1.418 -0.9711  0.6467  0.4421
 6362SOL     OW25219   5.514   0.162   2.524 -0.3645 -0.4243  0.2770
 6362SOL    HW225220   5.476   0.244   2.493 -1.2276 -1.1085 -0.5340
 6362SOL    HW325221   5.453   0.131   2.591 -1.0168 -1.2905 -0.6946
 6362SOL    MW425222   5.501   0.168   2.529  0.5297 -0.0889  0.6442
 6363SOL     OW25223   4.258   2.567   5.981 -0.1953 -0.0845  0.2144
 6363SOL    HW225224   4.225   2.623   5.911  0.6676  1.4959  1.0156
 6363SOL    HW325225   4.209   2.595   6.059 -0.9563 -1.6313  0.3349
 6363SOL    MW425226   4.247   2.578   5.982 -0.2612 -0.0943  0.4126
 6364SOL     OW25227   1.838   5.406   4.100 -0.1334 -0.2727 -0.6453
 6364SOL    HW225228   1.933   5.391   4.106  0.0537  1.1078  0.6118
 6364SOL    HW325229   1.831   5.500   4.083 -1.2582  0.4137  2.8132
 6364SOL    MW425230   1.850   5.417   4.099  0.5056  0.8319 -0.4751
 6365SOL     OW25231   5.670   1.741   4.519 -0.3080  0.4447  0.2852
 6365SOL    HW225232   5.738   1.808   4.510 -0.2007  0.5100  1.4272
 6365SOL    HW325233   5.719   1.659   4.528 -0.4323 -0.2155 -3.4508
 6365SOL    MW425234   5.686   1.739   4.519 -0.9406 -0.2138 -0.8143
 6366SOL     OW25235   4.613   0.771   6.141 -0.2316  0.3266 -0.4384
 6366SOL    HW225236   4.538   0.762   6.199  0.8507 -2.1399  0.7382
 6366SOL    HW325237   4.600   0.705   6.073 -0.4363  1.7609 -1.8586
 6366SOL    MW425238   4.602   0.761   6.140 -0.9705  0.1303  0.6950
 6367SOL     OW25239   4.966   6.050   5.750  0.0753 -0.5910 -0.0697
 6367SOL    HW225240   5.033   5.983   5.765  0.4621 -0.2120 -0.0875
 6367SOL    HW325241   4.956   6.094   5.834 -0.7483 -1.1766  0.1522
 6367SOL    MW425242   4.974   6.047   5.763 -0.1283 -0.2997  0.5028
 6368SOL     OW25243   2.554   6.051   3.112  0.3083 -0.7302 -0.6552
 6368SOL    HW225244   2.555   6.146   3.127  0.3597 -0.5336 -1.8658
 6368SOL    HW325245   2.557   6.014   3.200 -1.9323  0.3839 -0.0395
 6368SOL    MW425246   2.555   6.059   3.126 -0.5980  0.0958 -0.5143
 6369SOL     OW25247   3.914   4.401   1.899 -0.2766 -0.2666  0.3812
 6369SOL    HW225248   3.894   4.397   1.805  0.6347 -1.5854  0.2225
 6369SOL    HW325249   3.828   4.402   1.941 -0.7393 -2.2775 -0.4032
 6369SOL    MW425250   3.900   4.401   1.892  0.2467 -0.1366 -0.5190
 6370SOL     OW25251   1.960   3.690   4.083  0.4735 -0.1624 -0.1756
 6370SOL    HW225252   2.017   3.660   4.012 -0.2930  0.7176 -1.1892
 6370SOL    HW325253   1.898   3.617   4.097 -0.7485  0.4890 -1.9323
 6370SOL    MW425254   1.959   3.676   4.076 -0.5279 -0.3422  0.1253
 6371SOL     OW25255   5.813   0.275   3.116  0.0117  0.7310  0.1089
 6371SOL    HW225256   5.830   0.318   3.199 -0.0359 -0.6390  0.8532
 6371SOL    HW325257   5.759   0.199   3.138  1.1758 -0.4610 -0.9779
 6371SOL    MW425258   5.808   0.270   3.130  0.3796  0.3794 -0.0625
 6372SOL     OW25259   5.724   0.960   5.868 -0.3346 -0.2266  0.4957
 6372SOL    HW225260   5.732   1.019   5.794 -2.8648 -2.5419 -1.8283
 6372SOL    HW325261   5.634   0.970   5.898  0.0181 -0.9166  1.9039
 6372SOL    MW425262   5.713   0.969   5.862  0.1899 -0.2302 -0.5012
 6373SOL     OW25263   2.262   2.381   4.927 -0.2543 -0.9688 -0.1185
 6373SOL    HW225264   2.192   2.386   4.862 -0.7617 -0.8303  0.4282
 6373SOL    HW325265   2.342   2.393   4.877 -0.6382 -0.8614 -0.7175
 6373SOL    MW425266   2.263   2.383   4.912  0.0647 -0.0031  0.4751
 6374SOL     OW25267   5.690   3.857   1.240  0.1872  0.3505 -0.0330
 6374SOL    HW225268   5.751   3.930   1.247 -1.6706  1.9301  0.6446
 6374SOL    HW325269   5.680   3.843   1.146 -0.6152  2.0693 -0.2426
 6374SOL    MW425270   5.697   3.865   1.229  0.2521 -0.0220 -0.0377
 6375SOL     OW25271   4.385   0.452   3.915 -0.0578  0.3088 -0.1152
 6375SOL    HW225272   4.354   0.363   3.931 -0.1374  0.4728  0.6782
 6375SOL    HW325273   4.326   0.508   3.965  0.0263  0.8093 -0.5596
 6375SOL    MW425274   4.373   0.448   3.924  0.6564 -0.1979 -0.4943
 6376SOL     OW25275   4.311   6.276   2.233 -0.4796 -0.0981 -0.4561
 6376SOL    HW225276   4.388   6.303   2.283 -1.5922  1.5365  0.4597
 6376SOL    HW325277   4.295   6.186   2.261  0.4692 -0.0923  0.1546
 6376SOL    MW425278   4.319   6.268   2.244  0.4238 -0.0537 -0.1584
 6377SOL     OW25279   0.640   6.321   5.466  0.2381 -0.0968 -0.5532
 6377SOL    HW225280   0.608   6.237   5.435  0.7283 -0.3695 -0.3340
 6377SOL    HW325281   0.661   6.370   5.386  0.0631 -0.2234 -0.6780
 6377SOL    MW425282   0.639   6.316   5.451 -0.1732  0.1347 -0.3764
 6378SOL     OW25283   5.039   1.705   2.759  0.0395 -0.1564  0.3924
 6378SOL    HW225284   5.051   1.772   2.825 -0.4690 -0.1600  0.4865
 6378SOL    HW325285   4.945   1.700   2.745  0.1434 -0.0368 -0.4533
 6378SOL    MW425286   5.028   1.713   2.766 -0.4407 -0.2405  1.0358
 6379SOL     OW25287   5.382   0.286   5.744  0.0531 -0.0694 -0.2305
 6379SOL    HW225288   5.404   0.241   5.826 -0.8063 -0.0670  0.0101
 6379SOL    HW325289   5.367   0.215   5.682 -0.6865 -0.1079 -0.0136
 6379SOL    MW425290   5.383   0.270   5.747  0.7056  0.9151  0.3807
 6380SOL     OW25291   5.307   1.642   2.076 -0.1572 -0.3287 -0.0180
 6380SOL    HW225292   5.350   1.727   2.063  2.0183 -0.9695  2.1866
 6380SOL    HW325293   5.252   1.631   1.999  0.9372  2.2248 -1.2897
 6380SOL    MW425294   5.306   1.652   2.064  0.4915  0.3282  0.1109
 6381SOL     OW25295   2.696   4.381   1.676 -0.3477  0.7447 -0.3395
 6381SOL    HW225296   2.786   4.389   1.642 -0.2986 -1.1449 -0.7224
 6381SOL    HW325297   2.668   4.293   1.651 -3.0938  1.9667 -2.0594
 6381SOL    MW425298   2.705   4.371   1.668  0.1050  0.0503  0.4100
 6382SOL     OW25299   0.506   5.485   3.398  0.4469  0.3152 -0.1119
 6382SOL    HW225300   0.571   5.555   3.389  1.2785 -0.2107  1.4362
 6382SOL    HW325301   0.525   5.446   3.483 -2.0608  0.2877  0.5002
 6382SOL    MW425302   0.517   5.489   3.408 -0.1952  0.2118 -0.0204
 6383SOL     OW25303   5.744   5.363   4.509  0.4705 -0.0512  0.0178
 6383SOL    HW225304   5.789   5.432   4.460  0.6579  0.8990  1.4902
 6383SOL    HW325305   5.805   5.289   4.508  1.4585  0.7378  0.7655
 6383SOL    MW425306   5.758   5.362   4.502 -0.1699 -0.5725 -0.4392
 6384SOL     OW25307   6.124   2.199   0.808  0.0308  0.6047  0.3400
 6384SOL    HW225308   6.089   2.113   0.784 -0.8190  0.2971  2.4044
 6384SOL    HW325309   6.187   2.220   0.739 -0.5186 -1.1825 -0.7787
 6384SOL    MW425310   6.128   2.190   0.796  0.3476  0.1380 -0.1119
 6385SOL     OW25311   5.524   1.447   5.206 -0.4670  0.1614  0.0857
 6385SOL    HW225312   5.460   1.501   5.161  0.3100  0.5584 -0.5621
 6385SOL    HW325313   5.472   1.391   5.264 -1.5884 -0.9712 -1.9017
 6385SOL    MW425314   5.509   1.446   5.208  0.2775 -0.7558  0.4513
 6386SOL     OW25315   1.833   0.242   1.464 -0.8294  0.0063  0.0409
 6386SOL    HW225316   1.808   0.159   1.423  0.7373 -0.2026 -0.5853
 6386SOL    HW325317   1.781   0.308   1.419 -1.4044 -0.5441 -0.1149
 6386SOL    MW425318   1.823   0.240   1.453  0.2805 -0.7287 -0.5270
 6387SOL     OW25319   2.889   6.270   0.455 -0.2263 -0.4409 -0.3032
 6387SOL    HW225320   2.866   6.269   0.548  2.0322 -0.9841  0.3056
 6387SOL    HW325321   2.825   6.330   0.415 -0.9280  0.2004  1.6570
 6387SOL    MW425322   2.877   6.278   0.462  0.3153  0.9252 -0.3928
 6388SOL     OW25323   6.097   3.969   1.078  0.2134  0.6545  0.1676
 6388SOL    HW225324   6.133   3.981   0.990  1.0683  1.9205  0.6541
 6388SOL    HW325325   6.049   3.886   1.073 -0.9948  1.3959 -1.8735
 6388SOL    MW425326   6.096   3.960   1.066  0.1384 -0.3861  0.0020
 6389SOL     OW25327   6.299   4.309   2.926  0.4064  0.9209 -0.2227
 6389SOL    HW225328   6.291   4.392   2.879  2.4985  1.8326  0.9192
 6389SOL    HW325329   6.357   4.328   3.000 -0.3168 -1.1986  0.9766
 6389SOL    MW425330   6.306   4.322   2.930  0.2329 -0.7383 -0.2245
 6390SOL     OW25331   5.941   2.264   1.437 -0.0926 -0.4596  0.0254
 6390SOL    HW225332   5.946   2.173   1.467  0.3231 -1.1995 -2.1003
 6390SOL    HW325333   5.966   2.260   1.345  1.4764  2.0503  0.2551
 6390SOL    MW425334   5.945   2.251   1.429  1.0909  0.1191 -0.6923
 6391SOL     OW25335   3.228   2.180   0.723  0.3698 -0.2888 -0.2921
 6391SOL    HW225336   3.172   2.243   0.678 -0.0491  0.1672  0.8544
 6391SOL    HW325337   3.315   2.197   0.688  0.1976  0.6748 -0.2798
 6391SOL    MW425338   3.232   2.191   0.712  0.3436  0.4610  0.1551
 6392SOL     OW25339   1.052   5.273   0.521 -0.0930 -0.4844  0.1179
 6392SOL    HW225340   0.990   5.327   0.471 -0.5257 -0.4005  0.7304
 6392SOL    HW325341   1.007   5.189   0.531  0.2307 -0.6859 -0.1198
 6392SOL    MW425342   1.038   5.269   0.516 -0.4896 -0.3428  0.9867
 6393SOL     OW25343   3.529   0.588   5.865 -0.3733  0.1732 -0.6997
 6393SOL    HW225344   3.602   0.645   5.889  1.3388 -2.1660 -0.0220
 6393SOL    HW325345   3.524   0.525   5.937  0.5243 -2.9996 -3.1783
 6393SOL    MW425346   3.538   0.587   5.878  0.9910  0.3979  0.6660
 6394SOL     OW25347   3.200   0.634   6.045 -0.0473 -0.1034 -0.4716
 6394SOL    HW225348   3.156   0.685   6.112 -0.3427 -0.8260 -0.0986
 6394SOL    HW325349   3.141   0.634   5.970 -0.4730 -0.6682 -0.1425
 6394SOL    MW425350   3.187   0.640   6.044  0.2374 -0.1066  0.2731
 6395SOL     OW25351   0.725   1.335   4.227 -0.2289 -0.2561  0.3171
 6395SOL    HW225352   0.659   1.289   4.176  0.5547 -0.4413 -0.5598
 6395SOL    HW325353   0.787   1.369   4.162  1.3751 -1.3800  1.1676
 6395SOL    MW425354   0.725   1.333   4.212 -0.6387  0.2908  0.3099
 6396SOL     OW25355   2.478   3.528   5.424 -0.0581 -0.2746  0.1854
 6396SOL    HW225356   2.412   3.520   5.492  0.4411 -0.7088  0.6301
 6396SOL    HW325357   2.448   3.471   5.354 -0.0474 -0.6460  0.4806
 6396SOL    MW425358   2.466   3.519   5.424 -0.1062 -0.1740 -0.7384
 6397SOL     OW25359   4.891   2.368   3.261  0.3452 -0.0462  0.2546
 6397SOL    HW225360   4.865   2.383   3.352  3.1535  0.6638  1.0373
 6397SOL    HW325361   4.905   2.455   3.225  0.8861 -0.3735 -0.3429
 6397SOL    MW425362   4.889   2.382   3.268  0.8805 -0.4394 -0.2781
 6398SOL     OW25363   4.704   1.373   5.135  0.0253 -0.1564 -0.3198
 6398SOL    HW225364   4.758   1.316   5.080  1.1664  1.3325 -0.8143
 6398SOL    HW325365   4.753   1.380   5.217  0.3887  0.8533 -0.6105
 6398SOL    MW425366   4.718   1.367   5.139  0.3061 -0.5546  0.1623
 6399SOL     OW25367   1.470   0.747   6.124 -0.2863  0.0671 -0.3478
 6399SOL    HW225368   1.562   0.721   6.125  0.3294  2.0417  0.7917
 6399SOL    HW325369   1.472   0.842   6.112 -2.0780  0.3810  1.3202
 6399SOL    MW425370   1.482   0.756   6.123  0.4105 -0.6994  0.4886
 6400SOL     OW25371   2.709   2.922   0.182  0.5667  0.0010 -0.6630
 6400SOL    HW225372   2.631   2.936   0.129  1.1968  1.4591 -1.2817
 6400SOL    HW325373   2.768   2.873   0.124  0.1526 -1.0464 -0.2176
 6400SOL    MW425374   2.707   2.917   0.167 -0.6523  0.1570 -0.4222
 6401SOL     OW25375   4.826   4.052   1.305 -0.2889  0.7915  0.3858
 6401SOL    HW225376   4.795   4.131   1.261 -1.2311 -0.6317 -1.6614
 6401SOL    HW325377   4.751   4.022   1.356  0.0664  1.1851  1.1568
 6401SOL    MW425378   4.812   4.058   1.306  0.4409 -0.4405 -0.0919
 6402SOL     OW25379   5.460   1.629   3.370  0.1834  0.2276  0.2947
 6402SOL    HW225380   5.367   1.607   3.367  0.4656 -1.0440 -0.2464
 6402SOL    HW325381   5.463   1.724   3.367 -1.1591  0.4103  2.6262
 6402SOL    MW425382   5.448   1.638   3.369 -0.5819  0.2441 -0.4661
 6403SOL     OW25383   5.187   0.903   5.724 -0.0694  0.3370  0.7491
 6403SOL    HW225384   5.161   0.988   5.690  0.6219  0.5014  0.6141
 6403SOL    HW325385   5.283   0.904   5.722 -0.0481 -0.3742  0.9150
 6403SOL    MW425386   5.196   0.914   5.719  0.4493 -0.1053 -0.3426
 6404SOL     OW25387   3.892   5.140   1.504  0.4291  0.0534  0.3873
 6404SOL    HW225388   3.964   5.099   1.457 -0.0140  0.1363 -0.3919
 6404SOL    HW325389   3.933   5.196   1.569  1.1174  1.7641 -1.4464
 6404SOL    MW425390   3.907   5.142   1.506  0.0813  0.0697 -0.2752
 6405SOL     OW25391   5.740   1.580   0.743  0.4511  0.0098 -0.1545
 6405SOL    HW225392   5.810   1.529   0.784  0.3382  0.3039  0.4165
 6405SOL    HW325393   5.781   1.621   0.667  1.2502  1.1846  0.8620
 6405SOL    MW425394   5.755   1.579   0.738 -0.3491  0.4143  0.6272
 6406SOL     OW25395   3.269   2.704   1.718 -0.1123 -0.7476  0.0980
 6406SOL    HW225396   3.275   2.747   1.803  0.8304  0.0353 -0.3486
 6406SOL    HW325397   3.357   2.671   1.701  0.2733  0.9428 -1.4936
 6406SOL    MW425398   3.281   2.706   1.727 -0.4830 -0.6551  0.1412
 6407SOL     OW25399   1.916   6.029   5.598  0.4464 -0.5608 -0.1248
 6407SOL    HW225400   1.960   5.945   5.607  0.6688 -0.2651  1.7958
 6407SOL    HW325401   1.827   6.013   5.628  0.6891  0.0475  0.9395
 6407SOL    MW425402   1.910   6.016   5.603  0.1150  0.1068  0.3149
 6408SOL     OW25403   3.466   5.552   4.124  0.4183  1.2688  0.4392
 6408SOL    HW225404   3.374   5.534   4.101  0.2592  2.2288  0.2764
 6408SOL    HW325405   3.514   5.534   4.043  0.3115  1.2333  0.3823
 6408SOL    MW425406   3.460   5.547   4.110 -0.1452 -0.3021  0.2577
 6409SOL     OW25407   2.464   5.026   3.372 -0.4202 -0.3642  0.3308
 6409SOL    HW225408   2.549   5.005   3.333 -0.0117  1.5340  0.0946
 6409SOL    HW325409   2.476   5.013   3.466 -0.5433 -2.1672  0.1298
 6409SOL    MW425410   2.476   5.021   3.379  0.0254  0.2955  0.3314
 6410SOL     OW25411   2.015   0.379   4.150 -0.2144  0.0617 -0.4836
 6410SOL    HW225412   2.091   0.413   4.103 -1.3329  1.8556 -1.0849
 6410SOL    HW325413   2.009   0.435   4.228 -1.9792  1.2750 -1.3972
 6410SOL    MW425414   2.024   0.391   4.154 -0.5324  0.0879  0.3165
 6411SOL     OW25415   5.624   3.877   5.540  0.6124  0.4678 -0.1573
 6411SOL    HW225416   5.558   3.857   5.607  1.7626  1.1900  1.2381
 6411SOL    HW325417   5.627   3.972   5.537  1.1061  0.4406 -0.7168
 6411SOL    MW425418   5.616   3.887   5.548 -0.3063 -0.0553  0.0032
 6412SOL     OW25419   2.284   5.414   3.426  0.9151  0.4266  0.4746
 6412SOL    HW225420   2.301   5.396   3.519 -0.9057 -1.8573  0.4572
 6412SOL    HW325421   2.224   5.345   3.399 -0.7045  2.5561 -1.7806
 6412SOL    MW425422   2.279   5.402   3.434  0.4917 -0.1858  0.2350
 6413SOL     OW25423   2.890   2.769   0.064 -0.1569 -0.4579  0.0387
 6413SOL    HW225424   2.857   2.682   0.085 -3.0680  0.7219  0.7640
 6413SOL    HW325425   2.959   2.785   0.129 -0.3014 -1.7855  0.5442
 6413SOL    MW425426   2.895   2.759   0.075 -0.4414 -0.2630 -0.0270
 6414SOL     OW25427   2.299   0.852   6.141 -0.5822  0.0609 -0.1077
 6414SOL    HW225428   2.323   0.898   6.060  0.4827  0.5332  0.4581
 6414SOL    HW325429   2.234   0.788   6.113  1.9871 -1.9502 -1.9605
 6414SOL    MW425430   2.294   0.850   6.126  0.6346 -0.5810 -0.8283
 6415SOL     OW25431   4.207   5.656   5.567 -0.1820 -0.1093 -0.0267
 6415SOL    HW225432   4.151   5.733   5.564  0.8529  0.7062  0.9439
 6415SOL    HW325433   4.210   5.625   5.477 -0.8237  0.8210 -0.3811
 6415SOL    MW425434   4.200   5.662   5.555  0.2081  0.1918  0.0976
 6416SOL     OW25435   2.281   3.227   3.712 -0.3986 -0.1047  0.4609
 6416SOL    HW225436   2.217   3.248   3.780  0.0920  0.3000  0.8083
 6416SOL    HW325437   2.229   3.213   3.633 -0.8971  0.6013  0.6526
 6416SOL    MW425438   2.266   3.228   3.710  0.1241 -0.2430  0.7832
 6417SOL     OW25439   5.710   6.285   3.907 -0.1212  0.1462 -0.0346
 6417SOL    HW225440   5.632   6.289   3.962  0.8141  0.1770  1.3361
 6417SOL    HW325441   5.678   6.259   3.821 -1.7407  0.9729  0.2857
 6417SOL    MW425442   5.696   6.282   3.903  0.1152 -0.2619 -0.2530
 6418SOL     OW25443   1.838   4.383   2.933  0.3887 -0.3183  0.1500
 6418SOL    HW225444   1.837   4.330   3.013 -1.1837 -0.4805  0.0507
 6418SOL    HW325445   1.749   4.418   2.926  0.8341  0.6532 -0.8995
 6418SOL    MW425446   1.826   4.380   2.943 -0.5107  0.0525 -0.2264
 6419SOL     OW25447   4.718   0.845   2.913 -0.2359  0.6010 -0.4389
 6419SOL    HW225448   4.777   0.772   2.930 -2.2867 -1.1002 -0.2617
 6419SOL    HW325449   4.730   0.903   2.988  1.1218  0.2652 -0.3653
 6419SOL    MW425450   4.727   0.843   2.925 -0.3991  0.5323 -0.3362
 6420SOL     OW25451   2.151   6.002   5.317  0.4185  0.0164 -0.1732
 6420SOL    HW225452   2.133   5.929   5.258  0.1806  0.1553 -0.2724
 6420SOL    HW325453   2.066   6.042   5.332  0.2285 -0.9473  1.4947
 6420SOL    MW425454   2.138   5.998   5.311  0.8700 -0.1587  0.1845
 6421SOL     OW25455   2.636   5.593   0.595  0.2301  0.0699 -0.0949
 6421SOL    HW225456   2.608   5.519   0.541  1.0855 -1.7887  1.8397
 6421SOL    HW325457   2.732   5.593   0.587  0.5048 -1.0641  2.2780
 6421SOL    MW425458   2.645   5.583   0.587 -0.4752  0.3285 -0.1971
 6422SOL     OW25459   0.126   4.390   1.179 -0.0987 -0.2454 -0.5529
 6422SOL    HW225460   0.063   4.440   1.231  0.1453  0.3192 -0.7834
 6422SOL    HW325461   0.146   4.448   1.105  1.9490  0.3254  0.3585
 6422SOL    MW425462   0.121   4.404   1.176  0.0136  0.3571 -0.1535
 6423SOL     OW25463   4.901   3.398   2.062 -0.2066  0.4769  0.1659
 6423SOL    HW225464   4.948   3.373   1.983  0.6789  2.5416 -0.0362
 6423SOL    HW325465   4.916   3.327   2.124 -0.5438 -0.9611 -1.3521
 6423SOL    MW425466   4.909   3.386   2.060 -0.0534  0.0611 -0.2598
 6424SOL     OW25467   3.731   5.173   0.979  0.4967 -0.1350  0.2456
 6424SOL    HW225468   3.774   5.259   0.982  1.0132 -0.3905  0.1761
 6424SOL    HW325469   3.739   5.145   0.888  0.1586 -0.1743  0.2272
 6424SOL    MW425470   3.738   5.181   0.968  0.1726 -0.4349 -0.4682
 6425SOL     OW25471   4.356   1.833   0.889 -0.2863  0.3024 -0.0795
 6425SOL    HW225472   4.438   1.866   0.852 -0.7122  0.9657 -0.4607
 6425SOL    HW325473   4.383   1.772   0.957  0.5380  1.1637  0.3982
 6425SOL    MW425474   4.371   1.830   0.893 -0.0437 -0.3821  0.6522
 6426SOL     OW25475   5.207   4.791   1.425 -0.4522  0.1025  0.5563
 6426SOL    HW225476   5.222   4.851   1.498  0.9571 -1.5185  1.6865
 6426SOL    HW325477   5.292   4.781   1.383 -0.2914 -2.0625  1.2437
 6426SOL    MW425478   5.220   4.798   1.429  0.3141 -0.6566  0.4537
 6427SOL     OW25479   1.416   3.258   5.418  0.4429  0.0806  0.4817
 6427SOL    HW225480   1.472   3.183   5.400  0.1882  0.4008 -1.9548
 6427SOL    HW325481   1.329   3.220   5.435  0.1628 -0.1937 -1.4087
 6427SOL    MW425482   1.412   3.243   5.418  0.2865 -0.2224 -0.1040
 6428SOL     OW25483   0.243   6.477   6.193  0.3792  0.4390 -0.1779
 6428SOL    HW225484   0.220   6.436   6.109  0.1723 -1.5743  0.7949
 6428SOL    HW325485   0.235   6.406   6.257  2.2592  1.4629  1.3008
 6428SOL    MW425486   0.239   6.462   6.190 -0.2990  0.4526  0.6465
 6429SOL     OW25487   1.460   0.327   6.182  0.5547  0.5515 -0.0293
 6429SOL    HW225488   1.366   0.331   6.164 -0.2899  1.9058  3.6633
 6429SOL    HW325489   1.469   0.255   6.244  2.1678 -0.1965 -1.0795
 6429SOL    MW425490   1.449   0.318   6.188 -0.1469  0.0262  1.1914
 6430SOL     OW25491   1.771   4.988   4.843 -0.4117 -0.3702  0.0695
 6430SOL    HW225492   1.857   4.972   4.882 -1.0586 -1.7612  1.0123
 6430SOL    HW325493   1.772   4.939   4.761  0.0788  0.5536 -0.4940
 6430SOL    MW425494   1.782   4.980   4.838 -0.2584 -0.1925 -0.0391
 6431SOL     OW25495   4.599   3.233   2.195  0.1802 -0.0926 -0.3342
 6431SOL    HW225496   4.527   3.185   2.237 -1.1710 -0.1102 -2.5040
 6431SOL    HW325497   4.608   3.313   2.247  0.8202 -1.5026  1.8838
 6431SOL    MW425498   4.591   3.237   2.207  0.3939  0.2021  0.3887
 6432SOL     OW25499   3.227   2.879   2.835 -0.3791 -0.5712  0.1386
 6432SOL    HW225500   3.144   2.848   2.801  0.2710  0.1838 -2.3582
 6432SOL    HW325501   3.282   2.891   2.757  0.8886  2.3726  1.3278
 6432SOL    MW425502   3.224   2.877   2.820 -0.4767 -0.0954 -0.1199
 6433SOL     OW25503   2.602   0.400   1.617 -0.2919  0.1995  0.8946
 6433SOL    HW225504   2.561   0.413   1.531  1.7162 -0.3152 -0.1978
 6433SOL    HW325505   2.531   0.415   1.679 -2.1500 -0.7298 -0.8765
 6433SOL    MW425506   2.587   0.404   1.614 -0.3653 -0.3776  0.0774
 6434SOL     OW25507   0.013   5.242   1.028 -0.2901  0.7350  0.6025
 6434SOL    HW225508  -0.036   5.167   1.062  0.4216  0.4415  0.9996
 6434SOL    HW325509   0.088   5.250   1.086  0.2189  1.0866 -0.0854
 6434SOL    MW425510   0.016   5.233   1.040  0.4578 -0.2622  0.0254
 6435SOL     OW25511   2.839   1.237   2.789 -0.2125 -0.2481  0.0457
 6435SOL    HW225512   2.764   1.296   2.799 -0.1680 -0.2286  0.2650
 6435SOL    HW325513   2.899   1.284   2.731  0.4515  0.5384  1.3220
 6435SOL    MW425514   2.837   1.251   2.783  0.1659  0.3451  0.2684
 6436SOL     OW25515   4.140   2.262   0.042 -0.3161 -0.2358 -0.0123
 6436SOL    HW225516   4.233   2.256   0.019 -0.2842 -0.0762  0.0725
 6436SOL    HW325517   4.128   2.352   0.072 -1.0417  0.5537 -2.4580
 6436SOL    MW425518   4.151   2.273   0.043  0.1166  0.7898  0.2528
 6437SOL     OW25519   5.552   0.621   1.889 -0.2675 -0.4651 -0.4523
 6437SOL    HW225520   5.531   0.537   1.931 -0.5904 -0.0374  0.2572
 6437SOL    HW325521   5.601   0.669   1.955  0.3761 -0.2884 -1.0453
 6437SOL    MW425522   5.556   0.616   1.903  0.2001 -0.0561  0.3692
 6438SOL     OW25523   5.729   4.594   4.173 -0.1935  0.1280 -0.0833
 6438SOL    HW225524   5.667   4.651   4.127  2.9857  2.7348 -1.5502
 6438SOL    HW325525   5.697   4.591   4.263 -2.7984  0.6837 -0.9213
 6438SOL    MW425526   5.717   4.601   4.179  0.0622 -0.3798  0.5447
 6439SOL     OW25527   4.098   0.568   0.916 -0.5723  0.5830  0.1714
 6439SOL    HW225528   4.106   0.636   0.983 -0.9623 -0.0752  0.9098
 6439SOL    HW325529   4.136   0.607   0.837  0.1297  1.2803  0.8392
 6439SOL    MW425530   4.104   0.582   0.914  0.3703  0.1190 -0.6905
 6440SOL     OW25531   4.713   4.810   1.318 -0.2485 -0.0066 -0.1091
 6440SOL    HW225532   4.755   4.886   1.276 -1.4680  0.8287  0.1387
 6440SOL    HW325533   4.656   4.774   1.251  0.1411 -0.5664 -0.1432
 6440SOL    MW425534   4.711   4.815   1.304  0.0720  0.2016 -0.1519
 6441SOL     OW25535   3.913   0.791   5.192  0.1346  0.3385  0.0837
 6441SOL    HW225536   3.928   0.789   5.097 -0.4884  0.6928 -0.0308
 6441SOL    HW325537   3.938   0.879   5.219 -0.1807  0.4071  0.1584
 6441SOL    MW425538   3.918   0.802   5.183  0.0056 -0.7991 -0.1154
 6442SOL     OW25539   0.384   3.152   0.750  0.1404 -0.3013  0.0102
 6442SOL    HW225540   0.460   3.095   0.759 -0.4689 -1.1149  0.0558
 6442SOL    HW325541   0.328   3.108   0.686 -1.9870 -1.6222  2.5700
 6442SOL    MW425542   0.387   3.139   0.743 -0.2905  0.0153  0.0384
 6443SOL     OW25543   4.646   1.723   5.319  0.1686 -0.4302  0.2049
 6443SOL    HW225544   4.689   1.713   5.404 -0.0647 -1.6203  0.1928
 6443SOL    HW325545   4.594   1.643   5.309  0.8734 -0.7045 -1.4448
 6443SOL    MW425546   4.645   1.711   5.329 -0.0623 -0.2136 -0.2450
 6444SOL     OW25547   0.500   4.659   1.024 -0.4467 -0.3980 -0.4010
 6444SOL    HW225548   0.482   4.740   0.975  1.0821  1.4914  1.9462
 6444SOL    HW325549   0.549   4.605   0.963 -1.3962  0.4511 -2.0098
 6444SOL    MW425550   0.504   4.663   1.009  0.1277  0.0427 -0.4368
 6445SOL     OW25551   0.369   0.544   3.046 -0.3963 -0.2158 -0.3408
 6445SOL    HW225552   0.407   0.478   3.104  1.5446 -0.2188 -1.5106
 6445SOL    HW325553   0.439   0.609   3.035 -0.8712  0.0396 -2.2392
 6445SOL    MW425554   0.383   0.544   3.052  0.0054 -0.2578  0.1417
 6446SOL     OW25555   4.087   1.833   0.998  0.2608  0.2488  0.2366
 6446SOL    HW225556   4.013   1.781   0.966 -0.2140 -0.0971  1.7731
 6446SOL    HW325557   4.163   1.797   0.953 -0.1263 -1.4773  0.8832
 6446SOL    MW425558   4.087   1.821   0.988  0.1733  0.9385 -0.0003
 6447SOL     OW25559   5.058   2.372   5.925 -0.0484  0.1925  0.4896
 6447SOL    HW225560   5.031   2.441   5.985  0.5302  1.4237 -0.6214
 6447SOL    HW325561   5.150   2.356   5.945 -0.6607 -1.7509  2.1134
 6447SOL    MW425562   5.066   2.379   5.936  0.7058 -0.2367  0.6890
 6448SOL     OW25563   5.471   2.769   3.411  0.1369 -0.2462  0.0568
 6448SOL    HW225564   5.427   2.795   3.492 -1.0443  0.3821 -0.7501
 6448SOL    HW325565   5.557   2.809   3.416  0.9128 -1.9621  1.9402
 6448SOL    MW425566   5.476   2.778   3.422 -0.1437  0.4201  0.7354
 6449SOL     OW25567   2.511   5.523   5.051 -0.1075  0.2495 -0.5032
 6449SOL    HW225568   2.444   5.580   5.090 -1.9283 -0.5909 -2.2183
 6449SOL    HW325569   2.523   5.453   5.116 -1.6560 -0.0996 -0.5321
 6449SOL    MW425570   2.503   5.521   5.065  0.0873 -0.4066  0.1685
 6450SOL     OW25571   3.776   0.711   2.586 -0.1922  0.4128  0.0037
 6450SOL    HW225572   3.731   0.631   2.558  1.8648 -0.7448 -0.1593
 6450SOL    HW325573   3.817   0.744   2.506  0.1252  0.8504  0.3429
 6450SOL    MW425574   3.775   0.705   2.572  0.1825 -0.0548 -0.2097
 6451SOL     OW25575   6.143   5.602   0.336 -0.1903 -0.1731  0.2457
 6451SOL    HW225576   6.218   5.651   0.371 -0.1818  0.2676 -0.3674
 6451SOL    HW325577   6.183   5.536   0.279 -0.2755  0.3824 -0.4764
 6451SOL    MW425578   6.158   5.600   0.333 -0.0584 -0.0725 -0.8584
 6452SOL     OW25579   1.952   6.370   5.720 -0.3546  0.7901  0.0983
 6452SOL    HW225580   1.974   6.426   5.645 -0.3404  0.8036  0.1124
 6452SOL    HW325581   2.017   6.300   5.718 -0.7899  0.3915 -0.3300
 6452SOL    MW425582   1.964   6.368   5.710  0.7053  0.0767 -0.0298
 6453SOL     OW25583   4.628   0.980   5.701  0.2836  0.2932  0.9406
 6453SOL    HW225584   4.650   1.068   5.668  1.0518 -0.2915 -0.1790
 6453SOL    HW325585   4.602   0.995   5.792 -0.2643  1.7641  0.5756
 6453SOL    MW425586   4.628   0.994   5.709  0.6963 -0.3811  0.2167
 6454SOL     OW25587   0.144   1.898   3.922 -0.4561  0.1151 -0.4175
 6454SOL    HW225588   0.093   1.928   3.847  0.9146  2.6488 -0.4184
 6454SOL    HW325589   0.101   1.936   3.998 -1.1480 -1.4860  0.0479
 6454SOL    MW425590   0.132   1.907   3.922 -0.1289 -0.5317 -0.1993
 6455SOL     OW25591   4.130   0.736   2.921 -0.0999 -0.0142  0.5076
 6455SOL    HW225592   4.139   0.648   2.959 -0.7998 -0.3534 -0.0903
 6455SOL    HW325593   4.213   0.752   2.877 -0.0042 -0.4204  0.5360
 6455SOL    MW425594   4.142   0.727   2.921  0.1868 -0.0295  0.2696
 6456SOL     OW25595   5.046   4.717   1.076 -0.0820  0.3815  0.4241
 6456SOL    HW225596   5.066   4.805   1.110  3.3903 -1.2004  3.1814
 6456SOL    HW325597   5.014   4.732   0.988  1.7754  4.4052  0.1918
 6456SOL    MW425598   5.045   4.731   1.069  0.2021  0.3255  0.5788
 6457SOL     OW25599   3.678   2.639   3.025 -0.3064 -0.3245 -0.0214
 6457SOL    HW225600   3.610   2.574   3.043 -0.5289 -0.2004 -0.4063
 6457SOL    HW325601   3.760   2.590   3.035 -0.4550 -0.5323  0.2139
 6457SOL    MW425602   3.680   2.624   3.029  0.2012 -0.1596  0.2938
 6458SOL     OW25603   1.024   1.736   4.296  0.4596  0.6853  0.7011
 6458SOL    HW225604   1.079   1.803   4.337  1.7922 -0.4314  0.8203
 6458SOL    HW325605   1.043   1.745   4.202 -1.8822  2.6218  0.3264
 6458SOL    MW425606   1.034   1.746   4.289  0.4412  0.2787  0.1371
 6459SOL     OW25607   0.373   0.713   2.380 -0.0212 -0.3438 -0.1829
 6459SOL    HW225608   0.292   0.760   2.399 -1.3134 -2.4608 -0.0979
 6459SOL    HW325609   0.369   0.695   2.286  0.3166 -0.5434 -0.1614
 6459SOL    MW425610   0.362   0.717   2.370  0.8905  0.0194  0.2398
 6460SOL     OW25611   4.001   4.177   0.325 -0.5755  0.4865 -0.3411
 6460SOL    HW225612   3.938   4.205   0.392 -0.4940  0.2666 -0.1703
 6460SOL    HW325613   4.020   4.086   0.347 -0.1549  0.5689 -0.3562
 6460SOL    MW425614   3.995   4.169   0.337  0.5918  0.0377 -0.1247
 6461SOL     OW25615   2.840   3.159   5.826  0.3717  0.0857 -0.5290
 6461SOL    HW225616   2.930   3.132   5.845  0.8363  0.7722 -1.5788
 6461SOL    HW325617   2.846   3.199   5.739 -1.0676 -0.3778 -0.8637
 6461SOL    MW425618   2.853   3.161   5.817 -0.1888 -0.5622 -0.0798
 6462SOL     OW25619   4.365   5.306   3.245 -0.0021  0.2198 -0.1174
 6462SOL    HW225620   4.312   5.231   3.274  0.4499  0.2987  0.9753
 6462SOL    HW325621   4.360   5.367   3.318 -0.8555  1.5365 -1.2389
 6462SOL    MW425622   4.357   5.304   3.259  0.2408 -0.0352  0.2132
 6463SOL     OW25623   0.866   1.049   5.135 -0.0805  0.3476  0.1839
 6463SOL    HW225624   0.816   1.119   5.177  0.2291  1.2761 -0.9578
 6463SOL    HW325625   0.808   1.014   5.068  0.2832  0.4708 -0.1982
 6463SOL    MW425626   0.852   1.054   5.132 -0.1893  0.3352 -0.4532
 6464SOL     OW25627   0.721   5.990   3.416  0.0027  0.1251 -0.2466
 6464SOL    HW225628   0.651   6.023   3.360 -0.9853 -2.0247 -0.3786
 6464SOL    HW325629   0.689   6.004   3.505  0.6731  1.6670 -0.2164
 6464SOL    MW425630   0.708   5.996   3.420 -0.5428 -0.3242  0.0078
 6465SOL     OW25631   4.994   3.609   3.185  0.0277  0.2278 -0.1533
 6465SOL    HW225632   4.909   3.638   3.217  0.2626  0.9267 -0.1504
 6465SOL    HW325633   5.057   3.669   3.225  0.3764  0.7853 -1.4959
 6465SOL    MW425634   4.991   3.621   3.194  0.0997  0.2174  0.4796
 6466SOL     OW25635   4.907   4.557   3.119 -0.2406  0.4531  0.1067
 6466SOL    HW225636   4.961   4.619   3.070  0.5171  1.4618  2.1109
 6466SOL    HW325637   4.817   4.584   3.102  0.0335  1.2562 -0.0893
 6466SOL    MW425638   4.902   4.569   3.110 -0.4659 -0.4395  0.4139
 6467SOL     OW25639   5.210   3.119   0.888  0.1436 -0.8035 -0.4990
 6467SOL    HW225640   5.180   3.073   0.966  1.5351  0.7643  1.0363
 6467SOL    HW325641   5.179   3.208   0.898  1.6847 -0.1810 -0.9252
 6467SOL    MW425642   5.202   3.124   0.899  0.2727 -0.0245  0.2946
 6468SOL     OW25643   2.457   4.709   0.412  0.3303 -0.0217 -0.3537
 6468SOL    HW225644   2.397   4.678   0.344  0.0879  0.2813 -0.2792
 6468SOL    HW325645   2.524   4.641   0.417 -0.7755 -1.0981  0.5774
 6468SOL    MW425646   2.458   4.696   0.404  0.0858 -0.6668  0.1281
 6469SOL     OW25647   3.414   0.649   5.476  0.5227  0.0546  0.4609
 6469SOL    HW225648   3.371   0.636   5.560  0.7044  1.0605  0.7242
 6469SOL    HW325649   3.354   0.612   5.412 -0.3185  0.6319  0.9060
 6469SOL    MW425650   3.401   0.643   5.479 -0.0891  0.2118 -0.2779
 6470SOL     OW25651   4.984   1.055   0.961 -0.1882  0.3107 -0.3127
 6470SOL    HW225652   4.891   1.044   0.946  0.0472 -1.1310 -0.8587
 6470SOL    HW325653   5.014   1.111   0.890 -0.3353 -0.6911 -1.1818
 6470SOL    MW425654   4.976   1.061   0.950  0.1882 -0.8371  0.2501
 6471SOL     OW25655   3.084   3.548   1.459 -0.4124  0.0939  0.0361
 6471SOL    HW225656   3.056   3.490   1.530 -0.9102 -0.9313 -0.9732
 6471SOL    HW325657   3.004   3.591   1.430 -0.6916 -1.3279 -1.4966
 6471SOL    MW425658   3.070   3.546   1.465 -0.4280  0.2100 -0.2292
 6472SOL     OW25659   5.876   5.277   5.522  0.4383  0.5319  0.1425
 6472SOL    HW225660   5.952   5.311   5.475  0.9134  0.4415  0.8335
 6472SOL    HW325661   5.804   5.286   5.460  0.7199  1.9591  0.0014
 6472SOL    MW425662   5.877   5.282   5.508  0.3610  0.0136  0.7598
 6473SOL     OW25663   2.678   3.310   5.605 -0.0104 -0.0108 -0.3436
 6473SOL    HW225664   2.702   3.225   5.569 -0.5309  0.1396 -1.0556
 6473SOL    HW325665   2.603   3.292   5.661  0.8318 -0.2529  0.7555
 6473SOL    MW425666   2.672   3.296   5.608 -0.4120  0.2770 -0.4942
 6474SOL     OW25667   1.215   1.259   4.303  0.2696 -0.1139 -0.6171
 6474SOL    HW225668   1.171   1.318   4.364  0.4254  0.2038 -0.8110
 6474SOL    HW325669   1.210   1.303   4.219 -0.0408 -0.6008 -0.8615
 6474SOL    MW425670   1.209   1.273   4.300  0.4695 -0.1329 -0.5500
 6475SOL     OW25671   2.931   0.456   0.366 -0.6676 -0.2234  0.8389
 6475SOL    HW225672   2.891   0.406   0.295  0.2411  0.6797 -0.3434
 6475SOL    HW325673   2.895   0.544   0.356 -0.4266 -0.0534  1.4230
 6475SOL    MW425674   2.921   0.461   0.355 -0.1893  0.1958 -0.0899
 6476SOL     OW25675   3.235   0.867   2.095 -0.7065 -1.2594  0.5318
 6476SOL    HW225676   3.287   0.813   2.154  2.9501 -0.0605 -1.2915
 6476SOL    HW325677   3.205   0.807   2.027 -0.3618 -1.7321  0.7922
 6476SOL    MW425678   3.238   0.852   2.094  0.2511 -0.2608 -0.2514
 6477SOL     OW25679   1.102   5.240   3.628  0.4578  1.2256 -0.7276
 6477SOL    HW225680   1.171   5.188   3.669 -1.7060  0.0009  1.6937
 6477SOL    HW325681   1.123   5.330   3.651  1.0082  0.8210  0.4281
 6477SOL    MW425682   1.114   5.245   3.637  0.3300 -0.8451 -1.1084
 6478SOL     OW25683   2.078   3.267   0.045 -0.4670 -0.6374 -0.5154
 6478SOL    HW225684   2.167   3.253   0.076 -0.4733 -0.8936 -0.6030
 6478SOL    HW325685   2.088   3.318  -0.036 -0.3992 -0.6662 -0.5250
 6478SOL    MW425686   2.091   3.272   0.038 -0.0936 -0.2315 -0.3643
 6479SOL     OW25687   1.971   2.664   1.056  0.0731 -0.5095  0.0646
 6479SOL    HW225688   2.014   2.732   1.107  0.6967 -0.3397 -0.6729
 6479SOL    HW325689   1.939   2.601   1.121 -1.3867  0.9609  0.8249
 6479SOL    MW425690   1.973   2.664   1.071 -0.3635  0.8013  0.1948
 6480SOL     OW25691   5.837   3.660   5.544  0.2297 -0.2249  0.7008
 6480SOL    HW225692   5.895   3.688   5.473 -1.7331 -2.7924 -2.1941
 6480SOL    HW325693   5.772   3.730   5.550  0.8085  0.3465  0.4922
 6480SOL    MW425694   5.836   3.673   5.535 -0.1914 -0.1224  0.5922
 6481SOL     OW25695   5.802   1.269   4.764 -0.1306 -0.6793 -0.2536
 6481SOL    HW225696   5.868   1.319   4.811  1.1147 -0.6550 -1.9084
 6481SOL    HW325697   5.718   1.306   4.791  0.7163  2.0288 -1.0562
 6481SOL    MW425698   5.799   1.280   4.774 -0.0694  0.3311  0.9903
 6482SOL     OW25699   0.673   2.262   0.777  0.3729 -0.0961  0.0616
 6482SOL    HW225700   0.709   2.270   0.689  0.7951  1.7512  0.3742
 6482SOL    HW325701   0.587   2.303   0.772  0.7525  0.8074  0.6902
 6482SOL    MW425702   0.666   2.268   0.765  0.0787  0.4121  0.4977
 6483SOL     OW25703   4.742   5.153   4.755 -0.4756 -0.2904 -0.1282
 6483SOL    HW225704   4.781   5.232   4.792 -0.6462 -0.7820  1.1752
 6483SOL    HW325705   4.667   5.136   4.812 -1.4202 -0.4704 -1.3962
 6483SOL    MW425706   4.737   5.161   4.767 -0.1407 -0.3426  0.1397
 6484SOL     OW25707   4.928   0.802   0.761  0.0139  0.1653  0.1910
 6484SOL    HW225708   4.927   0.890   0.798  0.9658  1.0182 -1.6661
 6484SOL    HW325709   4.994   0.806   0.692  0.0828 -2.0212  0.0564
 6484SOL    MW425710   4.937   0.814   0.757 -0.1934 -0.3726 -0.7849
 6485SOL     OW25711   0.318   5.633   3.594  0.1722 -0.4169  0.1073
 6485SOL    HW225712   0.243   5.578   3.620  0.4796 -0.2124  1.4929
 6485SOL    HW325713   0.355   5.588   3.518 -0.3434 -1.4428  0.4407
 6485SOL    MW425714   0.313   5.620   3.587 -0.2738  0.0339 -0.1155
 6486SOL     OW25715   5.879   5.564   4.377 -0.7349 -0.0588  0.2047
 6486SOL    HW225716   5.925   5.491   4.336 -0.0249 -0.1881  1.1925
 6486SOL    HW325717   5.809   5.587   4.315 -1.7867 -2.3828  0.4253
 6486SOL    MW425718   5.876   5.558   4.364  0.1712  0.1821 -0.6039
 6487SOL     OW25719   5.412   0.386   0.599  0.9799 -0.7615  0.1820
 6487SOL    HW225720   5.503   0.380   0.571  0.5624 -2.2093 -1.0157
 6487SOL    HW325721   5.362   0.351   0.525 -0.4862 -0.7999  1.1440
 6487SOL    MW425722   5.417   0.381   0.585 -0.2137  0.4066  0.0848
 6488SOL     OW25723   0.873   1.811   5.595 -0.0063 -0.5310  0.0667
 6488SOL    HW225724   0.914   1.783   5.676  0.4463  0.0445  0.0428
 6488SOL    HW325725   0.903   1.901   5.582 -1.5645  0.0574  0.2493
 6488SOL    MW425726   0.882   1.819   5.604  0.5416  0.3494  0.4743
 6489SOL     OW25727   4.385   2.719   1.710  0.6590 -0.3826 -0.0064
 6489SOL    HW225728   4.340   2.799   1.738 -0.8406 -1.4286  0.7005
 6489SOL    HW325729   4.472   2.748   1.685 -1.0841  2.2676 -4.0836
 6489SOL    MW425730   4.390   2.733   1.710  0.6104 -0.2720 -0.1408
 6490SOL     OW25731   0.715   1.611   5.886 -0.3957 -0.3199  0.3645
 6490SOL    HW225732   0.653   1.616   5.813 -0.1762 -1.0404  0.1148
 6490SOL    HW325733   0.801   1.617   5.845 -0.2807  0.1657  0.6611
 6490SOL    MW425734   0.718   1.612   5.871  0.0957  0.7834 -0.4891
 6491SOL     OW25735   1.315   4.619   5.546 -0.2362 -0.1223 -0.4166
 6491SOL    HW225736   1.331   4.581   5.460  1.1700 -0.0012 -0.2237
 6491SOL    HW325737   1.227   4.588   5.570  0.3285 -2.1949 -0.8198
 6491SOL    MW425738   1.305   4.610   5.538  0.6057  0.1590 -0.1923
 6492SOL     OW25739   5.406   5.738   5.159 -0.4762  0.0545 -0.1398
 6492SOL    HW225740   5.374   5.747   5.069  0.1639  1.0006 -0.2866
 6492SOL    HW325741   5.411   5.828   5.192 -0.2543 -0.2483  0.6926
 6492SOL    MW425742   5.402   5.751   5.152 -0.1298 -0.3813  0.2250
 6493SOL     OW25743   0.332   2.845   4.874 -0.0406 -0.3260 -0.8371
 6493SOL    HW225744   0.269   2.777   4.848  0.4035  0.1742 -3.5948
 6493SOL    HW325745   0.417   2.809   4.849  0.6664 -0.3732  1.4631
 6493SOL    MW425746   0.335   2.831   4.867 -0.0968 -0.3094 -0.6262
 6494SOL     OW25747   0.430   2.546   0.535 -0.2976  0.2564  0.0435
 6494SOL    HW225748   0.470   2.618   0.487  1.8543 -1.6009 -1.1739
 6494SOL    HW325749   0.386   2.494   0.467 -0.3461 -0.4724  0.6221
 6494SOL    MW425750   0.430   2.548   0.519 -0.5153 -0.0786 -0.2834
 6495SOL     OW25751   6.411   3.076   5.913  0.2814  0.6172 -0.3162
 6495SOL    HW225752   6.412   3.164   5.875  0.0086  0.1947 -1.3226
 6495SOL    HW325753   6.498   3.066   5.951  0.4579  1.1557 -0.5653
 6495SOL    MW425754   6.422   3.087   5.913  0.2220 -0.3738  0.2435
 6496SOL     OW25755   1.611   0.627   5.321 -0.1173 -0.1735 -0.4382
 6496SOL    HW225756   1.564   0.693   5.373  1.0661  0.1328  0.2736
 6496SOL    HW325757   1.644   0.565   5.385 -0.6118 -1.0927 -1.0482
 6496SOL    MW425758   1.609   0.628   5.336  0.1818  0.2124 -0.2344
 6497SOL     OW25759   6.232   5.769   3.318 -0.2160  0.2622  0.8319
 6497SOL    HW225760   6.163   5.702   3.322 -0.2206  0.2617  0.7579
 6497SOL    HW325761   6.252   5.776   3.224  1.9194 -1.8073  1.0492
 6497SOL    MW425762   6.225   5.761   3.306 -0.3812 -0.1874 -0.6249
 6498SOL     OW25763   3.522   2.479   1.435  0.1595 -0.0109 -0.5653
 6498SOL    HW225764   3.569   2.448   1.357 -1.3785  1.1778 -2.0499
 6498SOL    HW325765   3.437   2.507   1.402  0.0275  2.0386  1.2847
 6498SOL    MW425766   3.517   2.479   1.420 -0.3436  0.1123  0.2399
 6499SOL     OW25767   5.653   4.843   6.119  0.3833 -0.3220 -0.1229
 6499SOL    HW225768   5.707   4.764   6.129  0.5569 -0.2924 -0.8294
 6499SOL    HW325769   5.702   4.911   6.166  0.8263 -0.3625 -0.5159
 6499SOL    MW425770   5.667   4.842   6.127 -0.0177 -0.8866 -0.6517
 6500SOL     OW25771   1.088   0.147   3.524 -0.3023  0.2030 -0.1013
 6500SOL    HW225772   1.134   0.153   3.441 -0.7711 -0.4244 -0.4157
 6500SOL    HW325773   1.149   0.102   3.582  0.3936  1.4672  0.1832
 6500SOL    MW425774   1.102   0.142   3.521  0.1385 -0.3483  0.5295
 6501SOL     OW25775   4.148   4.649   5.853 -0.0781  0.0616 -0.2125
 6501SOL    HW225776   4.057   4.631   5.829  0.2260  0.4035 -1.7253
 6501SOL    HW325777   4.197   4.636   5.772  1.0215  1.3966  0.1982
 6501SOL    MW425778   4.142   4.645   5.839 -0.6979 -0.2584 -0.3305
 6502SOL     OW25779   3.803   0.316   3.269 -0.2220 -0.3693  0.0088
 6502SOL    HW225780   3.763   0.380   3.328 -0.9322  0.5208 -1.3644
 6502SOL    HW325781   3.779   0.231   3.304 -0.6191  0.1370  0.9875
 6502SOL    MW425782   3.795   0.313   3.281  0.2806 -0.3458  0.2540
 6503SOL     OW25783   2.626   6.129   5.730 -0.4855  0.1549 -0.3515
 6503SOL    HW225784   2.627   6.217   5.692 -2.8419  0.6070  0.5306
 6503SOL    HW325785   2.594   6.073   5.659 -0.2390  0.2073 -0.5059
 6503SOL    MW425786   2.622   6.133   5.715  0.7912 -0.2901  0.7087
 6504SOL     OW25787   5.997   4.673   2.386 -0.3706  0.3212 -0.1431
 6504SOL    HW225788   5.949   4.750   2.357 -0.6734  0.6133  1.0714
 6504SOL    HW325789   6.084   4.706   2.410 -0.0055  0.0248 -0.9975
 6504SOL    MW425790   6.002   4.687   2.385  0.4789 -0.1584 -0.0572
 6505SOL     OW25791   2.313   6.114   6.122 -0.1630 -0.0872 -0.3704
 6505SOL    HW225792   2.343   6.024   6.129 -0.9222 -0.4139 -1.1280
 6505SOL    HW325793   2.319   6.134   6.029  0.1147  0.6855 -0.1907
 6505SOL    MW425794   2.318   6.105   6.111 -0.1985  0.1213 -0.0650
 6506SOL     OW25795   0.452   5.137   5.436 -0.4572  0.2933  0.1130
 6506SOL    HW225796   0.478   5.104   5.522  1.9662  0.7306 -0.3830
 6506SOL    HW325797   0.429   5.058   5.386 -1.3561 -0.0040  0.9422
 6506SOL    MW425798   0.452   5.122   5.441 -0.1504  0.8893  0.1674
 6507SOL     OW25799   0.366   5.095   5.764 -0.2091  0.7147  0.3877
 6507SOL    HW225800   0.331   5.008   5.782 -1.1539  1.3645  1.9383
 6507SOL    HW325801   0.461   5.083   5.758 -0.2284 -0.2526  1.6737
 6507SOL    MW425802   0.374   5.082   5.765  0.1658 -0.4539  0.1475
 6508SOL     OW25803   1.027   1.419   0.961  0.1094  0.8873  0.2307
 6508SOL    HW225804   1.088   1.486   0.930  0.2427  0.4417 -0.4864
 6508SOL    HW325805   0.965   1.407   0.889  1.2900 -1.2312 -0.5216
 6508SOL    MW425806   1.027   1.426   0.948  0.0238  0.0185 -0.0145
 6509SOL     OW25807   4.027   4.949   3.539  0.0142 -0.2063  0.1135
 6509SOL    HW225808   4.088   4.953   3.612  0.2441  2.9501 -0.1146
 6509SOL    HW325809   3.998   5.039   3.527 -1.5325 -0.9404 -2.4463
 6509SOL    MW425810   4.032   4.961   3.547  0.2913  0.6577  0.1446
 6510SOL     OW25811   4.457   0.814   4.506  0.2422 -0.1068 -0.1496
 6510SOL    HW225812   4.480   0.726   4.477 -0.0038 -0.1245 -0.2970
 6510SOL    HW325813   4.403   0.850   4.436  0.4700  0.2205 -0.1614
 6510SOL    MW425814   4.453   0.807   4.493 -0.9103 -0.3484  0.0234
 6511SOL     OW25815   1.490   5.775   0.558  0.1260  0.0663  0.3520
 6511SOL    HW225816   1.502   5.709   0.490  1.1811  0.1210  0.4759
 6511SOL    HW325817   1.406   5.817   0.537 -0.9857 -1.8474  0.7353
 6511SOL    MW425818   1.480   5.772   0.546 -0.0189 -0.1461  0.0318
 6512SOL     OW25819   0.943   3.997   2.946  0.1453  0.0514 -0.3501
 6512SOL    HW225820   0.865   4.002   3.001 -0.9970 -2.5327 -1.5521
 6512SOL    HW325821   0.945   4.080   2.899 -1.1541  0.6682  0.6420
 6512SOL    MW425822   0.933   4.009   2.947  0.2872 -0.0676  0.5247
 6513SOL     OW25823   4.340   0.410   2.699 -0.0235  0.4768 -0.5437
 6513SOL    HW225824   4.393   0.481   2.736 -0.6235  1.3669 -1.3784
 6513SOL    HW325825   4.323   0.352   2.774  1.1466  0.7702 -0.0214
 6513SOL    MW425826   4.345   0.412   2.714  0.0469  0.1509  0.0098
 6514SOL     OW25827   2.906   5.222   0.390 -0.2028  0.2934 -0.1064
 6514SOL    HW225828   2.887   5.202   0.298  0.1620 -0.5505  0.0007
 6514SOL    HW325829   2.979   5.166   0.413 -0.3014  0.4851  0.7150
 6514SOL    MW425830   2.913   5.212   0.381 -0.7670  0.2527  0.6795
 6515SOL     OW25831   4.751   3.976   4.612 -0.4996  0.3772 -0.0313
 6515SOL    HW225832   4.786   3.888   4.601 -2.2244 -0.1539 -2.1479
 6515SOL    HW325833   4.737   3.985   4.706  3.4733  0.0363  0.7659
 6515SOL    MW425834   4.753   3.965   4.623 -0.1766 -0.4135 -0.1126
 6516SOL     OW25835   1.585   5.058   0.240 -0.1934 -0.2227  0.0427
 6516SOL    HW225836   1.535   5.133   0.208  0.0767 -1.2006 -2.9880
 6516SOL    HW325837   1.676   5.078   0.217  0.1310 -0.6588  0.9233
 6516SOL    MW425838   1.590   5.070   0.232  0.1954 -0.1435  0.0339
 6517SOL     OW25839   2.655   5.909   3.306 -0.2952  0.2384 -0.4158
 6517SOL    HW225840   2.751   5.915   3.311 -0.2358 -1.2478  0.7876
 6517SOL    HW325841   2.626   5.917   3.396 -1.3000  0.4601 -0.7504
 6517SOL    MW425842   2.664   5.911   3.318  0.1306 -0.5239 -0.1515
 6518SOL     OW25843   0.124   3.410   5.129  0.1804  0.1534  0.7589
 6518SOL    HW225844   0.153   3.447   5.212 -0.5956  0.9560  0.6855
 6518SOL    HW325845   0.030   3.428   5.127  0.4758  1.7642 -1.0973
 6518SOL    MW425846   0.115   3.417   5.140 -0.1429 -0.1442 -0.6929
 6519SOL     OW25847   0.624   2.301   5.326  0.3071  0.3005 -0.0700
 6519SOL    HW225848   0.715   2.325   5.346  0.1323  1.7910 -0.8964
 6519SOL    HW325849   0.626   2.278   5.233  0.2914 -2.2545  0.4927
 6519SOL    MW425850   0.637   2.301   5.316 -0.1321 -0.8311 -0.0722
 6520SOL     OW25851   4.240   3.184   3.903 -0.6397  0.5069 -0.2069
 6520SOL    HW225852   4.220   3.234   3.982 -2.0951  0.9903 -0.8359
 6520SOL    HW325853   4.273   3.249   3.841  1.3874 -0.0165  0.2591
 6520SOL    MW425854   4.241   3.199   3.905 -0.0128 -0.7751 -0.3476
 6521SOL     OW25855   4.460   5.271   2.930 -0.5371 -0.3845 -0.0380
 6521SOL    HW225856   4.534   5.250   2.987 -2.0936 -1.9913  1.5297
 6521SOL    HW325857   4.487   5.239   2.844  2.3297  3.0985 -0.6946
 6521SOL    MW425858   4.474   5.264   2.926  0.0830  0.1141  0.8684
 6522SOL     OW25859   3.315   2.939   6.229  0.2355  0.1168 -0.0427
 6522SOL    HW225860   3.294   2.847   6.210 -1.3574  0.5721 -0.6985
 6522SOL    HW325861   3.379   2.963   6.162  0.1420 -0.3383 -0.3034
 6522SOL    MW425862   3.321   2.930   6.217  0.0443 -0.4102  0.3101
 6523SOL     OW25863   0.669   4.260   2.688  0.6145 -0.0122  0.0888
 6523SOL    HW225864   0.594   4.296   2.641 -0.5287  0.1687  1.9423
 6523SOL    HW325865   0.679   4.172   2.652 -0.0474  0.2129 -0.6802
 6523SOL    MW425866   0.660   4.253   2.677 -0.0057 -0.2147  0.4275
 6524SOL     OW25867   4.925   0.204   0.262 -0.0222  0.0199 -0.4400
 6524SOL    HW225868   4.848   0.257   0.242 -0.4265 -1.3341 -3.0753
 6524SOL    HW325869   4.891   0.115   0.270  1.1598 -0.5152 -1.0532
 6524SOL    MW425870   4.911   0.199   0.260 -0.3321 -0.1794 -0.6345
 6525SOL     OW25871   0.068   2.900   5.090  0.0178 -0.1059  0.1934
 6525SOL    HW225872   0.099   2.810   5.093 -0.3180 -0.3932 -2.4140
 6525SOL    HW325873  -0.012   2.900   5.143 -0.0866 -1.3830  0.0552
 6525SOL    MW425874   0.061   2.889   5.097 -0.4481  0.1399 -0.3187
 6526SOL     OW25875   2.191   4.435   1.366  0.0566 -0.0626 -0.1592
 6526SOL    HW225876   2.165   4.484   1.444 -0.4232  1.8343 -1.4386
 6526SOL    HW325877   2.271   4.389   1.392  0.9688  1.9975  0.9628
 6526SOL    MW425878   2.198   4.436   1.379 -0.4630 -0.1525  0.0787
 6527SOL     OW25879   4.533   5.930   2.211  0.2124  0.0494 -0.4906
 6527SOL    HW225880   4.598   5.999   2.217  0.0589  0.0628  1.7028
 6527SOL    HW325881   4.521   5.900   2.301 -2.4196 -0.3219 -0.8828
 6527SOL    MW425882   4.540   5.935   2.224 -0.4863  0.4429 -0.0917
 6528SOL     OW25883   3.940   0.284   5.701  0.3751  0.1547 -0.4492
 6528SOL    HW225884   3.965   0.300   5.610  0.3132  0.8235 -0.3585
 6528SOL    HW325885   3.853   0.324   5.709  0.8982  1.2232  0.2153
 6528SOL    MW425886   3.932   0.291   5.690 -0.1052 -0.1264  0.3964
 6529SOL     OW25887   3.174   1.284   1.502 -0.1395 -0.6983 -0.4093
 6529SOL    HW225888   3.185   1.206   1.449 -2.3779 -1.2570 -0.1448
 6529SOL    HW325889   3.133   1.253   1.583 -0.9741  0.6888 -0.2570
 6529SOL    MW425890   3.170   1.270   1.506  0.5280  0.2467  0.2581
 6530SOL     OW25891   2.313   4.496   5.351  0.6089 -0.0826  0.1663
 6530SOL    HW225892   2.322   4.576   5.300  1.0492 -1.5463 -2.2601
 6530SOL    HW325893   2.369   4.432   5.305  1.7892 -1.3185  3.0910
 6530SOL    MW425894   2.321   4.498   5.338  0.1748 -0.5816  0.1415
 6531SOL     OW25895   4.765   2.042   0.037 -0.2275 -0.0292  0.1557
 6531SOL    HW225896   4.730   2.116   0.088 -0.5853  0.1178 -0.2977
 6531SOL    HW325897   4.814   1.990   0.101 -1.0556 -0.1001  0.7561
 6531SOL    MW425898   4.767   2.045   0.052 -0.5386 -0.5796 -0.2746
 6532SOL     OW25899   5.384   2.908   6.200  0.4199 -0.0495  0.2179
 6532SOL    HW225900   5.454   2.842   6.202  2.2046  1.7293  1.9925
 6532SOL    HW325901   5.425   2.984   6.158 -0.8676  0.6278  0.1548
 6532SOL    MW425902   5.399   2.910   6.195  0.2512 -0.3229 -0.2756
 6533SOL     OW25903   1.863   3.700   1.073  0.2145 -0.3156  0.0151
 6533SOL    HW225904   1.925   3.761   1.112 -1.0467  1.0337 -0.0440
 6533SOL    HW325905   1.889   3.695   0.981  0.0774  0.4510 -0.0686
 6533SOL    MW425906   1.875   3.707   1.066 -0.0950  0.1061  0.1626
 6534SOL     OW25907   3.485   0.453   0.504 -0.5644 -0.1338  0.1533
 6534SOL    HW225908   3.552   0.474   0.439 -0.7753  0.3739  0.0942
 6534SOL    HW325909   3.417   0.407   0.454  0.1138 -1.4201  0.3709
 6534SOL    MW425910   3.485   0.450   0.489  0.2074 -0.0375 -0.3704
 6535SOL     OW25911   4.787   1.832   2.499 -0.0330 -0.7670  0.3465
 6535SOL    HW225912   4.735   1.902   2.460  0.8526 -0.4390 -0.2780
 6535SOL    HW325913   4.755   1.825   2.589 -1.4741 -0.9023 -0.1416
 6535SOL    MW425914   4.776   1.840   2.506  0.2150  0.2811 -1.1568
 6536SOL     OW25915   0.923   1.685   2.933 -0.3401 -0.2942  0.0283
 6536SOL    HW225916   0.859   1.652   2.996 -0.0718 -0.6561  0.1139
 6536SOL    HW325917   1.004   1.697   2.983  0.0194 -1.0658 -0.3413
 6536SOL    MW425918   0.925   1.682   2.948  0.2758  0.1286  0.2607
 6537SOL     OW25919   2.321   4.184   0.709  0.3518  0.1384  0.2894
 6537SOL    HW225920   2.329   4.180   0.804 -0.6699 -0.2471  0.3708
 6537SOL    HW325921   2.379   4.114   0.678 -0.1827 -0.5052  0.6938
 6537SOL    MW425922   2.330   4.174   0.718  0.4164 -0.4577 -0.3777
 6538SOL     OW25923   0.842   5.529   0.186 -0.0744 -0.1154  0.3852
 6538SOL    HW225924   0.748   5.529   0.169  0.0361 -0.3960 -0.2934
 6538SOL    HW325925   0.880   5.498   0.104  0.3750 -3.7355  1.7352
 6538SOL    MW425926   0.835   5.525   0.173  0.0550 -0.4648  0.5420
 6539SOL     OW25927   2.330   0.241   0.607  0.4416 -0.7938 -0.3720
 6539SOL    HW225928   2.360   0.330   0.587  1.6266 -1.0633  0.0985
 6539SOL    HW325929   2.400   0.184   0.574  0.0658 -1.5072  0.0354
 6539SOL    MW425930   2.343   0.245   0.600 -0.0202 -0.2491 -0.3001
 6540SOL     OW25931   6.321   0.986   1.988 -0.1368  0.4412 -0.1403
 6540SOL    HW225932   6.343   0.968   2.079  0.8214  0.1422 -0.4140
 6540SOL    HW325933   6.305   1.081   1.985 -0.3182  0.4254  0.3673
 6540SOL    MW425934   6.322   0.996   1.999 -0.2180 -0.4821 -0.1846
 6541SOL     OW25935   5.998   3.615   0.010  0.0606  0.0690  0.2511
 6541SOL    HW225936   6.034   3.641  -0.075 -0.2674  1.2934  0.4681
 6541SOL    HW325937   5.941   3.687   0.035  2.0444  0.9292  2.6736
 6541SOL    MW425938   5.995   3.628   0.002  1.1006  0.0112 -0.0615
 6542SOL     OW25939   4.404   3.031   6.247 -0.2541  0.1373  0.7468
 6542SOL    HW225940   4.323   3.055   6.203 -0.2265 -0.5493  0.3214
 6542SOL    HW325941   4.404   2.936   6.248  2.2521 -0.0646 -2.5252
 6542SOL    MW425942   4.393   3.022   6.242 -0.0096 -0.2967  1.1167
 6543SOL     OW25943   2.245   6.036   4.940 -0.3257  0.5052 -0.1137
 6543SOL    HW225944   2.298   6.089   5.000  0.4563  1.1285 -1.3178
 6543SOL    HW325945   2.186   6.098   4.899  0.4473  0.4398 -1.3753
 6543SOL    MW425946   2.245   6.051   4.943 -0.2639 -0.0226  0.1197
 6544SOL     OW25947   0.802   4.283   4.223  0.1227  0.0710  0.2872
 6544SOL    HW225948   0.729   4.223   4.238  0.3452 -0.4205 -0.4999
 6544SOL    HW325949   0.791   4.310   4.131  0.3847  0.7472  0.4503
 6544SOL    MW425950   0.791   4.278   4.213 -0.2876  0.3378 -0.1241
 6545SOL     OW25951   0.648   5.879   2.245 -0.2157 -0.1987  0.2792
 6545SOL    HW225952   0.613   5.872   2.157 -0.0635 -2.1734  0.3393
 6545SOL    HW325953   0.741   5.898   2.233 -0.4970  1.1971  0.0779
 6545SOL    MW425954   0.656   5.881   2.232  0.4923  1.1725  0.4230
 6546SOL     OW25955   1.077   3.092   0.008  0.2083  0.6924  0.4488
 6546SOL    HW225956   1.002   3.136   0.048  0.5921  0.6934  1.1963
 6546SOL    HW325957   1.061   3.097  -0.086 -0.0447  1.9171  0.5388
 6546SOL    MW425958   1.065   3.098   0.001  0.2301  0.7857  0.0394
 6547SOL     OW25959   6.063   4.012   2.580  0.1706  0.7688  0.5608
 6547SOL    HW225960   6.045   3.975   2.666  0.9260 -1.3977 -0.1283
 6547SOL    HW325961   5.978   4.016   2.537 -0.1027  1.1118  1.1242
 6547SOL    MW425962   6.050   4.007   2.586  0.1126 -0.3157 -0.4823
 6548SOL     OW25963   4.430   4.833   5.710 -0.7622  0.3030  0.3939
 6548SOL    HW225964   4.459   4.822   5.800 -0.4098  0.4593  0.3017
 6548SOL    HW325965   4.381   4.915   5.710  0.5345  1.1209  0.1443
 6548SOL    MW425966   4.428   4.843   5.722  0.0776 -0.1137 -0.5129
 6549SOL     OW25967   6.244   3.221   1.233 -0.5702 -0.4148 -0.0961
 6549SOL    HW225968   6.297   3.155   1.278 -0.5520  0.5386  1.3401
 6549SOL    HW325969   6.268   3.304   1.275 -1.6996  0.3079 -0.8287
 6549SOL    MW425970   6.254   3.223   1.244  0.1033  0.1573  0.1671
 6550SOL     OW25971   3.735   5.707   0.513  0.1417  0.1061 -0.0005
 6550SOL    HW225972   3.768   5.735   0.598 -0.9433 -2.1096  1.2415
 6550SOL    HW325973   3.640   5.714   0.521  0.0494  0.9631 -1.4791
 6550SOL    MW425974   3.727   5.711   0.525 -0.0613 -0.7860  0.1020
 6551SOL     OW25975   0.192   4.119   5.566  0.6570 -0.6799 -0.2827
 6551SOL    HW225976   0.186   4.165   5.650  0.1385  0.8177 -1.1011
 6551SOL    HW325977   0.278   4.141   5.533 -0.0798  0.8379 -1.2767
 6551SOL    MW425978   0.202   4.128   5.573  0.1510 -0.2196  0.2940
 6552SOL     OW25979   2.028   2.272   5.573 -0.3176 -0.2211 -0.0435
 6552SOL    HW225980   1.990   2.358   5.554  1.5863  0.3487 -1.7427
 6552SOL    HW325981   2.040   2.232   5.486  2.7733 -0.3493  0.3193
 6552SOL    MW425982   2.025   2.278   5.559  0.4081 -0.2086 -0.2974
 6553SOL     OW25983   0.426   0.407   4.217  0.0365 -0.3334  0.0192
 6553SOL    HW225984   0.476   0.381   4.295 -1.1833  1.3773  1.4282
 6553SOL    HW325985   0.400   0.497   4.233 -0.5666 -0.0283 -2.2471
 6553SOL    MW425986   0.429   0.415   4.229  0.2208 -0.0866  0.0413
 6554SOL     OW25987   5.776   6.333   4.492  0.3489  0.6109  0.5995
 6554SOL    HW225988   5.862   6.330   4.450 -0.1335 -2.2991 -0.4364
 6554SOL    HW325989   5.775   6.257   4.551 -2.2269 -0.8829 -1.1400
 6554SOL    MW425990   5.787   6.322   4.494 -0.2664 -0.3472  0.2463
 6555SOL     OW25991   0.400   1.025   2.960 -0.0832 -0.3497 -0.6222
 6555SOL    HW225992   0.375   1.048   2.871  1.7893  2.8991 -0.4776
 6555SOL    HW325993   0.327   1.056   3.014 -0.0304  0.2187 -0.8649
 6555SOL    MW425994   0.387   1.032   2.955  0.1777  0.6550 -0.3172
 6556SOL     OW25995   4.307   4.559   2.317  0.0045 -0.0937 -0.2773
 6556SOL    HW225996   4.394   4.559   2.278  0.1941  0.2710  0.1340
 6556SOL    HW325997   4.267   4.477   2.287  0.1175  0.2013 -1.2686
 6556SOL    MW425998   4.313   4.548   2.308  0.1677  0.1784 -0.5878
 6557SOL     OW25999   3.842   2.062   2.597 -0.4029 -0.1095 -0.3004
 6557SOL    HW226000   3.909   2.125   2.625  0.3314  0.1370 -2.4526
 6557SOL    HW326001   3.800   2.104   2.522 -2.6587 -0.5022  0.6558
 6557SOL    MW426002   3.845   2.076   2.591 -0.2316  0.1309 -0.2670
 6558SOL     OW26003   4.878   0.392   3.150  0.4338  0.6456 -0.0242
 6558SOL    HW226004   4.958   0.354   3.113 -0.0377 -0.6903  0.2861
 6558SOL    HW326005   4.808   0.363   3.091 -0.1823 -0.5846  1.2759
 6558SOL    MW426006   4.879   0.383   3.137  0.0372  0.4333 -0.6840
 6559SOL     OW26007   2.640   5.741   4.510 -0.3117 -0.1049  0.1179
 6559SOL    HW226008   2.644   5.742   4.415 -0.1366 -0.5358  0.1185
 6559SOL    HW326009   2.600   5.657   4.531 -1.5703  0.5256  0.3873
 6559SOL    MW426010   2.635   5.730   4.500 -0.3806  0.6039 -0.4260
 6560SOL     OW26011   3.854   5.926   5.783  0.2572 -0.6374  0.0497
 6560SOL    HW226012   3.803   5.903   5.860  0.3559 -0.0396  0.2979
 6560SOL    HW326013   3.808   6.001   5.745  1.2987  0.3541  0.6651
 6560SOL    MW426014   3.842   5.933   5.788  0.5152  0.8005  0.3353
 6561SOL     OW26015   5.525   5.303   2.104  0.1437  0.4227  0.8601
 6561SOL    HW226016   5.507   5.264   2.019 -1.6209 -0.7916  1.7406
 6561SOL    HW326017   5.451   5.360   2.122  0.1737  0.1881  1.8366
 6561SOL    MW426018   5.513   5.305   2.095 -0.5870  0.8438  0.1281
 6562SOL     OW26019   6.063   4.873   4.694 -0.4412 -0.1247  0.3603
 6562SOL    HW226020   6.147   4.913   4.672 -0.4114  0.2103  1.0568
 6562SOL    HW326021   6.023   4.934   4.756 -0.1755 -1.3894  1.8463
 6562SOL    MW426022   6.069   4.886   4.700 -1.1684 -0.4229 -0.7432
 6563SOL     OW26023   1.267   0.197   6.385 -0.2036  0.0379 -0.1863
 6563SOL    HW226024   1.265   0.102   6.376 -0.8817 -0.3113  2.6937
 6563SOL    HW326025   1.234   0.229   6.301  1.8580 -2.1236 -1.9686
 6563SOL    MW426026   1.262   0.189   6.372  0.2065  0.5555  0.3017
 6564SOL     OW26027   3.537   5.492   6.194  0.5196  0.2332  0.3841
 6564SOL    HW226028   3.451   5.486   6.152  1.1360  1.3336 -1.1229
 6564SOL    HW326029   3.592   5.431   6.144  1.0751  0.9814  0.0593
 6564SOL    MW426030   3.533   5.483   6.182  0.5301 -0.2780  0.1885
 6565SOL     OW26031   3.000   6.406   3.897 -0.0668 -0.0025 -0.6433
 6565SOL    HW226032   2.954   6.365   3.970 -0.6560 -0.4508 -1.2595
 6565SOL    HW326033   2.984   6.500   3.907 -1.6230 -0.1950 -1.1914
 6565SOL    MW426034   2.992   6.413   3.908 -0.1201  0.3232  0.6363
 6566SOL     OW26035   3.141   3.100   5.041 -0.0024  0.5194 -0.4994
 6566SOL    HW226036   3.074   3.037   5.012  2.3273 -1.7033 -1.4412
 6566SOL    HW326037   3.123   3.113   5.134 -1.1767 -0.7754 -0.5074
 6566SOL    MW426038   3.129   3.093   5.049  0.4473 -0.2567  0.3966
 6567SOL     OW26039   6.077   3.663   6.144 -0.2627 -0.0564  0.1075
 6567SOL    HW226040   6.022   3.590   6.117 -1.7080  0.3403  1.7519
 6567SOL    HW326041   6.136   3.678   6.071 -0.4120 -2.3830 -0.5672
 6567SOL    MW426042   6.077   3.655   6.131  0.2654 -0.1294 -0.0815
 6568SOL     OW26043   0.161   3.086   1.658 -0.2730  0.5622 -0.2031
 6568SOL    HW226044   0.187   3.033   1.584 -2.0712 -1.1083  0.2949
 6568SOL    HW326045   0.102   3.152   1.621 -1.8471 -0.7840 -0.2215
 6568SOL    MW426046   0.157   3.088   1.644 -0.0940 -0.2846 -0.3981
 6569SOL     OW26047   2.253   4.932   5.334 -0.1872  0.0633  0.2370
 6569SOL    HW226048   2.197   4.875   5.387  0.7429 -0.3252  0.8168
 6569SOL    HW326049   2.341   4.896   5.344 -0.0110 -0.1393 -1.7667
 6569SOL    MW426050   2.257   4.920   5.343  0.3026 -0.2445  0.4839
 6570SOL     OW26051   5.581   3.088   2.027 -0.4587  0.2485 -0.4640
 6570SOL    HW226052   5.667   3.101   1.985 -0.6678  1.6508 -0.4960
 6570SOL    HW326053   5.538   3.173   2.020 -2.4769 -0.8215 -1.8060
 6570SOL    MW426054   5.587   3.101   2.020  0.2873  0.1372  0.5585
 6571SOL     OW26055   5.838   1.406   2.517  0.1107  0.3654 -0.0219
 6571SOL    HW226056   5.745   1.390   2.499  0.0970 -0.0020  0.3452
 6571SOL    HW326057   5.838   1.476   2.582  0.1207  0.8917 -0.5821
 6571SOL    MW426058   5.826   1.413   2.523 -0.2103 -0.3566 -1.1350
 6572SOL     OW26059   2.268   5.080   4.403 -0.1280  0.3729 -0.6466
 6572SOL    HW226060   2.339   5.038   4.355 -0.4168  1.6322 -2.2750
 6572SOL    HW326061   2.198   5.015   4.406  0.4006 -0.2019 -0.7104
 6572SOL    MW426062   2.268   5.066   4.397  0.7770  0.3015  0.0145
 6573SOL     OW26063   4.715   1.000   4.200 -0.3036  0.6203  0.2909
 6573SOL    HW226064   4.638   0.963   4.157  0.3051  0.0388 -0.3399
 6573SOL    HW326065   4.709   0.970   4.291 -1.7894  2.1491  0.7294
 6573SOL    MW426066   4.704   0.991   4.206 -0.1971 -0.3178  0.7978
 6574SOL     OW26067   5.925   5.210   1.182 -0.4554  0.1039  0.2528
 6574SOL    HW226068   5.942   5.215   1.276  2.0640  0.9895 -0.1615
 6574SOL    HW326069   5.945   5.120   1.159 -1.4581 -0.2190  0.6062
 6574SOL    MW426070   5.930   5.199   1.192  0.1539  0.5454 -0.3245
 6575SOL     OW26071   1.842   1.811   1.364 -0.2759  0.0113  0.4458
 6575SOL    HW226072   1.796   1.749   1.421 -0.9311  0.5586  0.5181
 6575SOL    HW326073   1.856   1.888   1.419  0.5205 -0.0526  0.3493
 6575SOL    MW426074   1.838   1.813   1.379 -0.3065 -0.3279 -0.1229
 6576SOL     OW26075   1.679   0.329   5.108  0.2759  0.2579 -0.2429
 6576SOL    HW226076   1.609   0.339   5.043  0.6767  1.4350 -0.5304
 6576SOL    HW326077   1.730   0.410   5.100  1.0639 -0.1301  0.6794
 6576SOL    MW426078   1.676   0.341   5.098  0.1202 -0.4381  0.8306
 6577SOL     OW26079   3.106   2.802   0.235  0.8618  0.4989  0.1081
 6577SOL    HW226080   3.158   2.856   0.294  1.2886  2.0062 -1.5838
 6577SOL    HW326081   3.170   2.750   0.187  0.5238 -0.5860  0.7872
 6577SOL    MW426082   3.121   2.802   0.237  0.5121 -0.4049 -0.0561
 6578SOL     OW26083   0.661   3.629   6.240 -0.2394 -0.0335 -0.1472
 6578SOL    HW226084   0.566   3.636   6.239 -0.2414  0.1939 -2.0717
 6578SOL    HW326085   0.687   3.665   6.325 -1.6206  3.7373 -1.1217
 6578SOL    MW426086   0.652   3.634   6.251  0.1784 -0.9702 -0.0484
 6579SOL     OW26087   3.289   2.658   0.093  0.1797 -0.7763 -0.4271
 6579SOL    HW226088   3.317   2.571   0.121  1.4955 -0.0730  0.5313
 6579SOL    HW326089   3.368   2.712   0.097 -1.0637  1.0847  1.4965
 6579SOL    MW426090   3.303   2.654   0.097  0.6052  0.2444 -0.2266
 6580SOL     OW26091   4.264   4.957   2.053  0.4572  0.2568  0.3417
 6580SOL    HW226092   4.216   4.920   2.127  1.9445 -1.7132  0.4139
 6580SOL    HW326093   4.197   4.985   1.992 -0.7847 -0.9523  1.0986
 6580SOL    MW426094   4.249   4.956   2.055 -0.0641 -0.0949 -0.5643
 6581SOL     OW26095   5.328   5.744   0.082 -0.2203 -0.0806  0.0390
 6581SOL    HW226096   5.337   5.658   0.041  0.3689 -1.3464  2.6087
 6581SOL    HW326097   5.416   5.765   0.114 -0.2890  1.6536 -0.7606
 6581SOL    MW426098   5.341   5.736   0.081 -0.1891 -0.4081 -0.3503
 6582SOL     OW26099   2.461   6.197   2.479 -0.0402 -0.2180  0.2041
 6582SOL    HW226100   2.454   6.292   2.491  1.8176 -0.0447  0.2877
 6582SOL    HW326101   2.374   6.169   2.453 -0.9335  1.3324  1.3837
 6582SOL    MW426102   2.449   6.206   2.477  0.0754 -0.3632  0.1217
 6583SOL     OW26103   4.124   2.501   4.942 -0.1868 -0.1335 -0.1103
 6583SOL    HW226104   4.185   2.566   4.976 -0.7195  0.7632 -0.8310
 6583SOL    HW326105   4.139   2.423   4.996  0.7001  0.4728  0.5381
 6583SOL    MW426106   4.134   2.499   4.954 -0.3123  0.1763 -0.7324
 6584SOL     OW26107   2.610   1.313   4.255  0.2027  0.5149  0.1134
 6584SOL    HW226108   2.638   1.349   4.171 -1.5537  0.0530 -0.7341
 6584SOL    HW326109   2.681   1.255   4.281  0.8636  0.8036 -0.9664
 6584SOL    MW426110   2.623   1.310   4.247  0.0578  0.1629  0.5194
 6585SOL     OW26111   6.187   4.216   2.035 -0.1266 -0.5442 -0.4519
 6585SOL    HW226112   6.231   4.144   1.990 -1.7764 -0.6090 -2.0977
 6585SOL    HW326113   6.167   4.181   2.122 -0.8727 -2.1212 -1.2085
 6585SOL    MW426114   6.190   4.202   2.041 -0.1730 -0.5436  0.1159
 6586SOL     OW26115   3.484   4.970   3.176  0.0606 -0.3668  0.0698
 6586SOL    HW226116   3.499   4.893   3.231 -2.7098 -0.4981  0.8022
 6586SOL    HW326117   3.418   5.021   3.224  0.3004  1.4292 -1.3876
 6586SOL    MW426118   3.477   4.967   3.190 -0.0008  0.6517 -0.0859
 6587SOL     OW26119   0.912   1.739   2.098  0.5190 -0.1951 -0.5307
 6587SOL    HW226120   0.985   1.684   2.127  0.3437 -0.3176 -0.3211
 6587SOL    HW326121   0.858   1.681   2.044  1.8883  0.5200 -2.8344
 6587SOL    MW426122   0.914   1.724   2.094  0.5273  0.2175  0.6334
 6588SOL     OW26123   6.364   3.923   6.342 -0.3116 -0.2065 -0.1002
 6588SOL    HW226124   6.443   3.941   6.292  2.7312  0.1520  4.2144
 6588SOL    HW326125   6.365   3.828   6.356 -0.1147 -0.0933  0.6915
 6588SOL    MW426126   6.375   3.913   6.337 -0.8788 -0.2871  0.1797
 6589SOL     OW26127   2.810   0.968   3.843  0.3490 -0.0577 -0.0172
 6589SOL    HW226128   2.834   1.056   3.871 -0.2464 -0.8877  3.7229
 6589SOL    HW326129   2.871   0.911   3.890 -0.3019 -1.6894 -1.0600
 6589SOL    MW426130   2.821   0.972   3.853  0.6340 -0.0601 -0.0707
 6590SOL     OW26131   1.160   3.191   1.727  0.1295  0.2263 -0.4754
 6590SOL    HW226132   1.094   3.260   1.735  0.1249  0.3067 -1.0977
 6590SOL    HW326133   1.170   3.156   1.815  0.2371  1.1173 -0.1217
 6590SOL    MW426134   1.153   3.196   1.739 -0.2020  0.0106  0.0541
 6591SOL     OW26135   3.907   6.285   0.136  0.0104  0.3603  0.3045
 6591SOL    HW226136   3.987   6.333   0.157  0.3790 -0.7133  1.5169
 6591SOL    HW326137   3.836   6.342   0.166  0.4582  0.0267  2.1207
 6591SOL    MW426138   3.908   6.299   0.143  0.2896  0.2239 -0.2956
 6592SOL     OW26139   5.744   5.355   2.842  0.0538  0.1366 -0.3271
 6592SOL    HW226140   5.709   5.275   2.879 -1.9468  1.2806  0.3869
 6592SOL    HW326141   5.825   5.328   2.797 -0.2529 -2.1315  0.3941
 6592SOL    MW426142   5.750   5.341   2.841 -0.5239 -0.0244 -0.3310
 6593SOL     OW26143   3.647   0.252   2.697  0.0173  0.1605  0.4473
 6593SOL    HW226144   3.692   0.260   2.781  0.1674  1.3197  0.2678
 6593SOL    HW326145   3.581   0.184   2.712  0.5268 -0.1676  1.2780
 6593SOL    MW426146   3.644   0.244   2.710  0.3018  0.5614  0.3432
 6594SOL     OW26147   4.294   3.841   1.649  0.3596 -0.1542  0.5800
 6594SOL    HW226148   4.228   3.798   1.704  1.5853 -1.9274  0.7417
 6594SOL    HW326149   4.374   3.837   1.701  0.5354  2.4892  0.6349
 6594SOL    MW426150   4.295   3.835   1.663  0.0501  0.5577  0.2762
 6595SOL     OW26151   0.620   4.707   4.181  0.1605 -0.1595  0.4736
 6595SOL    HW226152   0.555   4.764   4.221  0.4641  0.3565  0.2400
 6595SOL    HW326153   0.675   4.678   4.253 -0.4250 -0.7439  0.7016
 6595SOL    MW426154   0.619   4.710   4.196  0.2419  0.5587  0.2418
 6596SOL     OW26155   1.674   4.777   1.409 -0.1380  1.0080 -0.2179
 6596SOL    HW226156   1.613   4.711   1.377 -0.9479  1.8939 -0.5489
 6596SOL    HW326157   1.719   4.809   1.331 -1.7509  2.8049 -0.4826
 6596SOL    MW426158   1.672   4.772   1.395  0.6631  0.3352 -0.0930
 6597SOL     OW26159   4.339   2.692   4.165  0.5241  0.8942  0.1087
 6597SOL    HW226160   4.291   2.696   4.248  1.8388 -1.2348  1.0636
 6597SOL    HW326161   4.297   2.757   4.110 -1.8008  0.8817  1.7138
 6597SOL    MW426162   4.327   2.701   4.169 -0.1473 -0.2401  0.0174
 6598SOL     OW26163   5.154   4.913   6.130 -0.7140  0.1219 -0.2286
 6598SOL    HW226164   5.090   4.842   6.140  0.4621 -0.6761  2.4058
 6598SOL    HW326165   5.163   4.950   6.218  0.5216  1.9449 -1.0620
 6598SOL    MW426166   5.147   4.908   6.143 -0.2131  0.2468  0.1884
 6599SOL     OW26167   4.966   5.931   3.334 -0.3233 -0.3511 -0.0800
 6599SOL    HW226168   4.992   5.875   3.407  0.7964  0.1264 -0.0937
 6599SOL    HW326169   4.926   5.871   3.271  1.7099 -1.3517 -0.5191
 6599SOL    MW426170   4.964   5.916   3.335  0.2990  0.3509  0.0979
 6600SOL     OW26171   5.336   0.221   2.992  0.4051  0.2574  0.4323
 6600SOL    HW226172   5.363   0.179   2.910 -0.1642  0.2976  0.2181
 6600SOL    HW326173   5.248   0.255   2.974  0.6314  1.0592  0.7732
 6600SOL    MW426174   5.328   0.220   2.979  0.2333  0.3958 -0.0788
 6601SOL     OW26175   0.846   1.045   2.510  0.0956  0.1793  0.1113
 6601SOL    HW226176   0.755   1.075   2.502 -0.1979 -0.7970 -0.3662
 6601SOL    HW326177   0.867   1.011   2.423  1.5020  1.9290 -0.2953
 6601SOL    MW426178   0.837   1.045   2.498  0.4052 -0.5811 -0.3241
 6602SOL     OW26179   2.513   3.049   4.718  0.6725 -0.1112  0.3751
 6602SOL    HW226180   2.446   3.007   4.773 -2.7669  2.6458 -1.2844
 6602SOL    HW326181   2.548   3.120   4.773 -0.6056  0.7807  0.0942
 6602SOL    MW426182   2.509   3.053   4.733  0.4086 -0.1303  0.3700
 6603SOL     OW26183   3.797   1.508   2.833 -0.6977 -0.4903 -0.6436
 6603SOL    HW226184   3.801   1.489   2.926  0.1936 -1.2062 -0.8145
 6603SOL    HW326185   3.765   1.598   2.828 -1.9097 -0.8449  0.3010
 6603SOL    MW426186   3.793   1.518   2.844  0.0105 -0.4723  0.3734
 6604SOL     OW26187   1.249   4.421   2.557  0.0193 -0.2387 -0.4559
 6604SOL    HW226188   1.278   4.415   2.648 -0.1571 -0.5414 -0.4177
 6604SOL    HW326189   1.174   4.480   2.559 -0.5493 -0.9629 -0.2668
 6604SOL    MW426190   1.243   4.428   2.569 -0.5040 -0.2644  0.0139
 6605SOL     OW26191   5.354   0.129   1.209 -0.3270 -0.6181 -0.1993
 6605SOL    HW226192   5.389   0.068   1.273  1.1145  0.4418  0.0690
 6605SOL    HW326193   5.429   0.156   1.157 -0.9403  0.8351 -0.3859
 6605SOL    MW426194   5.368   0.125   1.210  0.0967 -0.0577  0.2651
 6606SOL     OW26195   5.037   4.599   3.530 -0.3161  0.4218  0.1468
 6606SOL    HW226196   5.052   4.692   3.512  1.0734  0.4445  1.3162
 6606SOL    HW326197   4.944   4.594   3.554 -1.3718  0.9285 -3.2007
 6606SOL    MW426198   5.027   4.611   3.531  0.0754 -0.0669 -0.6267
 6607SOL     OW26199   2.008   5.281   4.649  0.4828  0.0883 -0.2173
 6607SOL    HW226200   2.039   5.301   4.561 -0.7611  1.6949 -0.3486
 6607SOL    HW326201   2.042   5.194   4.668  0.3232 -0.5390 -2.5138
 6607SOL    MW426202   2.016   5.272   4.640  0.2571  0.0162 -0.1143
 6608SOL     OW26203   2.879   4.809   2.304 -0.1096  0.5554 -0.0132
 6608SOL    HW226204   2.958   4.784   2.258 -0.8864 -1.3809 -0.3976
 6608SOL    HW326205   2.907   4.822   2.395  0.8211  0.9420 -0.3483
 6608SOL    MW426206   2.893   4.807   2.310  0.3571  0.2295 -0.0969
 6609SOL     OW26207   5.988   3.372   5.321 -0.1117  0.5775  0.0795
 6609SOL    HW226208   6.080   3.385   5.295 -0.2097  0.5073 -0.3158
 6609SOL    HW326209   5.943   3.450   5.291 -0.2075  0.5473  0.1439
 6609SOL    MW426210   5.995   3.384   5.314 -0.2744  0.4020  1.1030
 6610SOL     OW26211   3.059   5.549   6.331 -0.6498 -0.1636  0.2130
 6610SOL    HW226212   3.003   5.528   6.257  0.7044 -1.4462 -0.4944
 6610SOL    HW326213   3.031   5.636   6.358 -1.4290  0.1746 -1.5427
 6610SOL    MW426214   3.048   5.557   6.325 -0.2531  0.7316  0.3820
 6611SOL     OW26215   4.996   0.239   4.953  0.4151 -0.2056 -0.3802
 6611SOL    HW226216   5.085   0.212   4.977  0.0260 -1.6450 -0.4622
 6611SOL    HW326217   4.971   0.178   4.884 -1.4710 -1.2898  1.1678
 6611SOL    MW426218   5.004   0.227   4.947  0.2681 -0.0945  0.0853
 6612SOL     OW26219   3.196   3.291   5.884 -0.5098  0.0176  0.0532
 6612SOL    HW226220   3.141   3.369   5.889 -1.2795 -0.4357 -0.8753
 6612SOL    HW326221   3.155   3.229   5.945 -1.1669 -0.3819 -0.7680
 6612SOL    MW426222   3.183   3.293   5.893 -0.4632 -0.3844  0.4465
 6613SOL     OW26223   0.179   4.549   2.880 -0.3552  0.4879 -0.7163
 6613SOL    HW226224   0.092   4.587   2.886 -0.0358  1.1250  0.1988
 6613SOL    HW326225   0.170   4.476   2.819 -1.5483  0.4583 -0.5198
 6613SOL    MW426226   0.167   4.545   2.872 -0.0227  0.2803 -0.6474
 6614SOL     OW26227   3.649   0.561   3.397 -0.3157  0.4691  0.3044
 6614SOL    HW226228   3.615   0.519   3.318  0.6117 -0.6732  0.4708
 6614SOL    HW326229   3.572   0.580   3.450 -0.8579  0.1632 -0.3626
 6614SOL    MW426230   3.634   0.558   3.394 -0.2596  1.0140  0.2913
 6615SOL     OW26231   0.357   1.003   1.750 -0.2024  0.2046  0.5619
 6615SOL    HW226232   0.421   1.051   1.696  1.0684 -0.2404  1.6277
 6615SOL    HW326233   0.314   1.070   1.802  0.1537  0.3986  0.6068
 6615SOL    MW426234   0.360   1.018   1.750  0.0885  0.5369 -0.6104
 6616SOL     OW26235   5.143   6.468   4.077 -0.1671 -0.2637  0.2624
 6616SOL    HW226236   5.159   6.464   4.171 -0.2354 -1.5822  0.2457
 6616SOL    HW326237   5.151   6.377   4.048 -2.3336 -0.2321 -0.6345
 6616SOL    MW426238   5.146   6.455   4.085  0.0993  0.2964  0.5185
 6617SOL     OW26239   4.119   4.513   4.744  0.4961  0.2866  0.2185
 6617SOL    HW226240   4.170   4.548   4.672  1.2527 -0.3407  0.4388
 6617SOL    HW326241   4.092   4.590   4.794 -1.1214  0.8461 -1.4046
 6617SOL    MW426242   4.122   4.528   4.742 -0.0689  0.2190  0.2521
 6618SOL     OW26243   4.513   3.240   5.482 -0.4457  0.0406  0.9000
 6618SOL    HW226244   4.552   3.190   5.554  0.2850  0.7046  0.9719
 6618SOL    HW326245   4.551   3.327   5.489 -1.6575  0.6084  0.7298
 6618SOL    MW426246   4.523   3.245   5.492  0.0212 -0.4178 -0.5581
 6619SOL     OW26247   0.410   5.379   0.065 -0.2941 -0.5735 -0.1951
 6619SOL    HW226248   0.398   5.460   0.017  3.7498 -1.9322 -4.1886
 6619SOL    HW326249   0.453   5.406   0.146  0.3320  1.3567 -1.1029
 6619SOL    MW426250   0.415   5.393   0.070 -0.1377 -0.1902 -0.3937
 6620SOL     OW26251   0.507   6.168   4.346 -0.0683  0.6998 -0.4624
 6620SOL    HW226252   0.503   6.241   4.285 -1.1329  0.1264 -1.1064
 6620SOL    HW326253   0.589   6.123   4.325 -0.6915  0.1762 -1.8955
 6620SOL    MW426254   0.517   6.172   4.336 -0.4156 -0.0272 -0.0309
 6621SOL     OW26255   1.784   5.484   2.451 -0.0641  0.1413  0.2183
 6621SOL    HW226256   1.864   5.507   2.404  1.0000 -0.1989  1.7863
 6621SOL    HW326257   1.774   5.552   2.517 -0.9157  0.0246  0.2204
 6621SOL    MW426258   1.793   5.496   2.453 -0.5303  0.4296  0.4106
 6622SOL     OW26259   5.300   0.442   0.131  0.1828  0.4084 -0.7120
 6622SOL    HW226260   5.341   0.456   0.217 -1.4762 -1.4683  0.4969
 6622SOL    HW326261   5.212   0.480   0.140 -0.0546  0.0700 -1.5273
 6622SOL    MW426262   5.293   0.449   0.144  0.4616  0.5391 -0.5589
 6623SOL     OW26263   0.248   6.428   4.304 -0.0311 -0.1566 -0.0197
 6623SOL    HW226264   0.280   6.494   4.365 -1.7378 -0.0423  0.8145
 6623SOL    HW326265   0.158   6.455   4.283  0.7498  0.3422 -3.3760
 6623SOL    MW426266   0.240   6.440   4.309 -0.2527 -0.3376  0.0431
 6624SOL     OW26267   0.642   2.298   3.259 -0.2745  0.0796  0.2708
 6624SOL    HW226268   0.636   2.209   3.295 -0.7930  0.2749  0.6729
 6624SOL    HW326269   0.577   2.301   3.189  1.1082 -0.4716 -1.0916
 6624SOL    MW426270   0.633   2.287   3.255  0.8701 -0.5215 -0.7957
 6625SOL     OW26271   3.871   3.889   4.196 -0.3990 -0.0295 -0.2538
 6625SOL    HW226272   3.830   3.821   4.250 -0.5005  0.2193 -0.0164
 6625SOL    HW326273   3.930   3.841   4.138  2.5473 -0.0627  2.5332
 6625SOL    MW426274   3.873   3.874   4.195  0.3348  0.2983  0.0193
 6626SOL     OW26275   5.705   0.826   0.287  0.4428 -0.3367 -0.0341
 6626SOL    HW226276   5.732   0.879   0.212  1.7153 -2.5915 -1.2879
 6626SOL    HW326277   5.613   0.805   0.270  0.2251  0.5660 -0.0411
 6626SOL    MW426278   5.696   0.830   0.275  0.4908 -0.5650 -0.6217
 6627SOL     OW26279   3.178   2.209   0.997  0.1182 -0.0279  0.4836
 6627SOL    HW226280   3.216   2.195   0.910 -1.7678 -2.3294 -0.0643
 6627SOL    HW326281   3.245   2.258   1.044  1.5184  0.6621 -2.0170
 6627SOL    MW426282   3.192   2.214   0.991 -0.4347 -0.4981 -0.4335
 6628SOL     OW26283   4.118   3.325   5.478  0.1681 -0.0933 -0.6252
 6628SOL    HW226284   4.100   3.417   5.457 -1.0222 -0.8836 -3.5979
 6628SOL    HW326285   4.184   3.328   5.547 -0.0855  2.9732 -0.3938
 6628SOL    MW426286   4.124   3.337   5.484  0.0705  0.2816 -0.4465
 6629SOL     OW26287   2.386   3.997   1.962  0.1585 -0.1799  0.3213
 6629SOL    HW226288   2.337   3.918   1.941 -0.7360 -0.1254  2.0121
 6629SOL    HW326289   2.442   3.972   2.036 -1.3404  1.0975  1.9964
 6629SOL    MW426290   2.387   3.983   1.969 -0.1691 -0.4359 -0.4245
 6630SOL     OW26291   4.421   5.618   5.094 -0.5055  0.5925 -0.0899
 6630SOL    HW226292   4.483   5.595   5.164 -0.2783  1.8788  0.1525
 6630SOL    HW326293   4.393   5.533   5.059  0.2042 -0.0534  0.8323
 6630SOL    MW426294   4.425   5.603   5.099  0.2305  0.0038 -0.0167
 6631SOL     OW26295   2.045   2.732   3.854  0.2450  0.4533 -0.3934
 6631SOL    HW226296   2.066   2.716   3.946  0.0307  0.5599 -0.3244
 6631SOL    HW326297   2.124   2.772   3.817 -0.6176  3.1154  0.4430
 6631SOL    MW426298   2.058   2.735   3.861 -0.5490 -0.0320 -0.6589
 6632SOL     OW26299   3.500   4.100   1.376  0.3489  0.0606 -0.4406
 6632SOL    HW226300   3.581   4.145   1.353  0.8576 -0.8005 -0.3324
 6632SOL    HW326301   3.483   4.126   1.467  1.8077 -1.6360  0.3699
 6632SOL    MW426302   3.508   4.110   1.385 -0.2809  0.6430 -0.0513
 6633SOL     OW26303   5.943   6.315   1.110 -0.0707  0.3069  0.3326
 6633SOL    HW226304   5.888   6.341   1.183 -0.2164 -0.2015  0.4095
 6633SOL    HW326305   5.995   6.242   1.144  1.5249  1.5436  0.6349
 6633SOL    MW426306   5.943   6.309   1.124  0.3943  0.5818  0.0704
 6634SOL     OW26307   5.606   4.063   0.885  0.2330 -0.3759 -0.0428
 6634SOL    HW226308   5.694   4.031   0.902  1.1646  2.0194  0.0039
 6634SOL    HW326309   5.598   4.142   0.938 -2.2161 -0.8778  0.4625
 6634SOL    MW426310   5.617   4.069   0.894 -0.0604  0.1835  0.0465
 6635SOL     OW26311   0.310   1.466   6.235  0.0617 -0.1039  0.2266
 6635SOL    HW226312   0.315   1.544   6.179  0.8225  0.9109  1.6223
 6635SOL    HW326313   0.217   1.451   6.247 -0.1313  1.6167  1.2297
 6635SOL    MW426314   0.299   1.475   6.229  0.5109 -0.0075  0.4665
 6636SOL     OW26315   4.247   4.155   1.580  0.0386 -0.5495 -0.3383
 6636SOL    HW226316   4.265   4.125   1.491  0.5864 -0.1715 -0.3558
 6636SOL    HW326317   4.226   4.074   1.628  0.1656 -0.8039 -0.7037
 6636SOL    MW426318   4.246   4.140   1.575  0.0485 -0.1995 -0.6000
 6637SOL     OW26319   5.788   1.992   1.937  0.7050 -0.0283 -0.4646
 6637SOL    HW226320   5.767   1.900   1.950  2.2404 -0.5206 -1.2466
 6637SOL    HW326321   5.756   2.012   1.849  0.5175  0.1643 -0.3564
 6637SOL    MW426322   5.781   1.983   1.927 -0.0135  0.0436 -0.2737
 6638SOL     OW26323   5.011   3.949   3.504  0.3113  0.4184 -0.2596
 6638SOL    HW226324   5.103   3.967   3.524  0.2810  0.2262  0.0489
 6638SOL    HW326325   4.980   3.894   3.576 -0.7995  2.6814  1.0819
 6638SOL    MW426326   5.019   3.944   3.516  0.1592  0.2686 -0.7298
 6639SOL     OW26327   5.987   2.256   0.126  0.5484 -0.1942 -0.3875
 6639SOL    HW226328   5.892   2.263   0.123  0.3352 -2.5187 -0.0669
 6639SOL    HW326329   6.012   2.237   0.035  0.2421 -3.7379  0.1390
 6639SOL    MW426330   5.978   2.255   0.113 -0.0370 -0.2983 -0.3510
 6640SOL     OW26331   4.484   3.364   1.753 -0.2481  0.0853 -0.0366
 6640SOL    HW226332   4.573   3.385   1.782 -0.7487 -0.0573  1.6875
 6640SOL    HW326333   4.491   3.274   1.719  0.0599 -0.3503  1.1353
 6640SOL    MW426334   4.497   3.355   1.752 -0.0873 -0.0967 -0.8114
 6641SOL     OW26335   4.432   4.974   2.343 -0.5960  0.2854 -0.4839
 6641SOL    HW226336   4.350   4.939   2.310 -2.1561  2.0554  1.2707
 6641SOL    HW326337   4.417   4.987   2.437  2.4506 -1.3475  0.3795
 6641SOL    MW426338   4.419   4.971   2.351 -0.1531 -0.6531  0.7507
 6642SOL     OW26339   3.065   0.653   4.516  0.0453 -0.4720  0.2139
 6642SOL    HW226340   3.030   0.587   4.575 -2.2540  1.2576  0.9415
 6642SOL    HW326341   3.124   0.705   4.571 -0.4769 -0.1279  0.4590
 6642SOL    MW426342   3.068   0.651   4.531  0.0021 -0.1494 -0.0717
 6643SOL     OW26343   6.178   6.020   5.018  0.2893 -0.3637 -0.1548
 6643SOL    HW226344   6.257   6.060   4.983 -0.4627 -0.1022 -1.6710
 6643SOL    HW326345   6.145   5.966   4.946 -1.5757  0.5282 -0.0281
 6643SOL    MW426346   6.184   6.018   5.004  0.2461  0.2637  0.3086
 6644SOL     OW26347   4.775   0.346   4.382  0.1782 -0.1340 -0.0218
 6644SOL    HW226348   4.725   0.291   4.443 -0.0437  0.9318  0.7952
 6644SOL    HW326349   4.718   0.356   4.306 -0.4242  0.1823  0.4571
 6644SOL    MW426350   4.761   0.340   4.380 -0.3269  0.2887 -0.2808
 6645SOL     OW26351   2.370   6.420   3.925 -0.5996  0.0860 -0.1193
 6645SOL    HW226352   2.287   6.443   3.883 -0.2292  0.1579 -0.8210
 6645SOL    HW326353   2.345   6.391   4.013 -1.2769  1.0510  0.0164
 6645SOL    MW426354   2.356   6.419   3.931 -0.0065 -0.2805  0.1993
 6646SOL     OW26355   0.008   1.761   1.733  0.2027  0.1745 -0.1306
 6646SOL    HW226356  -0.035   1.694   1.786 -0.5547  1.6947  1.2717
 6646SOL    HW326357  -0.055   1.780   1.664  0.0082  0.1236  0.0320
 6646SOL    MW426358  -0.006   1.755   1.731  0.4506  0.0513  0.7310
 6647SOL     OW26359   3.502   5.744   3.802  0.1672  0.1196 -0.6401
 6647SOL    HW226360   3.490   5.783   3.715 -0.4549  2.3556  0.3732
 6647SOL    HW326361   3.577   5.790   3.839 -0.5771  0.3913  0.5943
 6647SOL    MW426362   3.510   5.755   3.795 -0.6097 -0.3578 -0.9062
 6648SOL     OW26363   2.525   3.494   1.185 -0.1514  0.5100  0.4889
 6648SOL    HW226364   2.441   3.536   1.206 -0.2972  0.7315 -0.4898
 6648SOL    HW326365   2.519   3.408   1.225 -0.0775  1.1948  2.0461
 6648SOL    MW426366   2.513   3.489   1.193 -0.5357 -0.1681  0.0025
 6649SOL     OW26367   4.885   6.399   3.184 -0.2424 -0.1459  0.1209
 6649SOL    HW226368   4.922   6.472   3.233  1.2424 -0.5867 -0.2836
 6649SOL    HW326369   4.950   6.329   3.192 -1.4982 -1.3585  0.2817
 6649SOL    MW426370   4.898   6.399   3.192 -0.4201 -0.2792  0.3057
 6650SOL     OW26371   2.962   3.837   5.842  0.5497  0.3417  0.2304
 6650SOL    HW226372   3.050   3.862   5.814  0.2904  1.2852  0.1988
 6650SOL    HW326373   2.932   3.775   5.776  0.5941  1.2477 -0.6685
 6650SOL    MW426374   2.970   3.832   5.830 -0.6044 -0.1752 -0.0896
 6651SOL     OW26375   3.571   1.480   5.515 -0.3708 -0.2899  0.1715
 6651SOL    HW226376   3.514   1.426   5.460 -0.5341  0.7435 -0.6960
 6651SOL    HW326377   3.578   1.563   5.469  0.0076  0.3907  1.4123
 6651SOL    MW426378   3.565   1.484   5.501 -0.0503  0.3603 -0.0370
 6652SOL     OW26379   1.386   0.274   0.840 -0.3195 -0.5917 -0.2593
 6652SOL    HW226380   1.370   0.343   0.776 -1.8987 -0.4357  0.2636
 6652SOL    HW326381   1.466   0.231   0.809  0.8697  1.6266 -0.4264
 6652SOL    MW426382   1.395   0.277   0.827  0.0799  0.6670 -0.5092
 6653SOL     OW26383   5.537   3.633   6.115  0.0373 -0.2504 -0.0031
 6653SOL    HW226384   5.567   3.604   6.029 -0.9291  0.6362 -0.6681
 6653SOL    HW326385   5.517   3.726   6.103 -1.3950 -0.4287  0.8064
 6653SOL    MW426386   5.538   3.642   6.102 -0.1942 -0.7538 -0.0862
 6654SOL     OW26387   4.393   4.574   3.602 -0.3503 -0.2737  0.7178
 6654SOL    HW226388   4.307   4.572   3.560  0.4366  1.8895 -1.2020
 6654SOL    HW326389   4.454   4.586   3.529  1.6875 -2.3603  1.9617
 6654SOL    MW426390   4.389   4.575   3.587 -0.0419  0.2109 -0.2494
 6655SOL     OW26391   3.816   4.910   5.676 -0.1775  0.4735 -0.1979
 6655SOL    HW226392   3.798   4.948   5.590 -0.4602 -1.9159 -1.2723
 6655SOL    HW326393   3.734   4.867   5.701 -0.3249  1.7278  1.6292
 6655SOL    MW426394   3.803   4.909   5.668  0.6966  0.1397 -0.5892
 6656SOL     OW26395   0.258   5.991   5.162  0.1959  0.9566  0.8881
 6656SOL    HW226396   0.169   6.020   5.182 -1.3725 -2.2485 -0.7242
 6656SOL    HW326397   0.286   6.046   5.089 -0.3633  2.0779  1.4999
 6656SOL    MW426398   0.250   6.002   5.155 -0.3729  0.4555  0.4205
 6657SOL     OW26399   0.775   4.975   5.088  0.2738 -0.4296  0.2590
 6657SOL    HW226400   0.737   4.930   5.163  2.4874  0.0710  1.7647
 6657SOL    HW326401   0.858   4.930   5.072  0.6993  0.6405 -0.7119
 6657SOL    MW426402   0.781   4.964   5.096  0.1790 -0.3837  0.0034
 6658SOL     OW26403   5.125   6.472   2.512 -0.3120 -0.0216 -0.6704
 6658SOL    HW226404   5.053   6.409   2.522 -1.4647  1.3446 -0.1052
 6658SOL    HW326405   5.083   6.558   2.513  1.3890  0.8521  0.2131
 6658SOL    MW426406   5.110   6.475   2.513  0.6236  0.1039 -0.3309
 6659SOL     OW26407   4.897   0.106   5.223 -0.3440 -0.3483 -0.0780
 6659SOL    HW226408   4.981   0.065   5.243 -0.1476  0.1591  0.1513
 6659SOL    HW326409   4.906   0.196   5.255 -1.2682 -0.5284  0.7381
 6659SOL    MW426410   4.909   0.112   5.230 -0.1600 -0.6601 -0.5510
 6660SOL     OW26411   2.042   4.431   4.042 -0.0407 -0.1942  0.9450
 6660SOL    HW226412   1.998   4.370   4.102 -0.6536 -0.3984  0.3096
 6660SOL    HW326413   1.976   4.498   4.024 -0.0823 -0.4680  0.0296
 6660SOL    MW426414   2.027   4.432   4.048 -0.2890 -0.1684 -0.1587
 6661SOL     OW26415   1.362   3.009   2.606 -0.0047 -0.7571 -0.0479
 6661SOL    HW226416   1.306   2.932   2.599 -0.2684 -0.6914  1.0750
 6661SOL    HW326417   1.302   3.080   2.633  0.4401 -0.4642  0.1892
 6661SOL    MW426418   1.346   3.009   2.609 -0.0312 -0.1241 -0.1312
 6662SOL     OW26419   1.279   2.538   2.700 -0.6277 -0.2001  0.2044
 6662SOL    HW226420   1.192   2.566   2.730 -0.5026 -0.5947  0.9700
 6662SOL    HW326421   1.261   2.479   2.627 -0.9493  0.6894 -0.4492
 6662SOL    MW426422   1.265   2.534   2.695 -0.4363  0.0891 -0.4343
 6663SOL     OW26423   5.581   3.754   0.724 -0.2537 -0.0723 -0.3309
 6663SOL    HW226424   5.506   3.732   0.780 -1.8149  1.0730 -1.8575
 6663SOL    HW326425   5.587   3.682   0.662  1.5902 -1.4302  1.2971
 6663SOL    MW426426   5.572   3.742   0.723 -0.2870  0.3315  0.6127
 6664SOL     OW26427   1.731   6.023   2.947 -0.2687 -0.0252 -0.1985
 6664SOL    HW226428   1.650   6.040   2.996 -0.9919 -0.9805 -1.0152
 6664SOL    HW326429   1.725   5.930   2.924  0.6919  0.0887 -0.9420
 6664SOL    MW426430   1.719   6.013   2.951  0.5153 -0.1720  0.0286
 6665SOL     OW26431   1.354   1.678   3.014  0.0089 -0.0713 -0.6485
 6665SOL    HW226432   1.436   1.643   2.980 -1.3954 -2.8708 -1.5219
 6665SOL    HW326433   1.338   1.627   3.094 -1.3311 -0.3336 -1.0516
 6665SOL    MW426434   1.363   1.667   3.020 -0.2925 -0.7201  0.5044
 6666SOL     OW26435   1.537   4.778   3.349 -0.5035  0.2563 -0.6480
 6666SOL    HW226436   1.485   4.728   3.412  1.4877  1.8022  2.4046
 6666SOL    HW326437   1.475   4.842   3.313 -0.8709  2.2592  3.1114
 6666SOL    MW426438   1.522   4.780   3.352 -0.3126 -0.0292  0.4357
 6667SOL     OW26439   3.653   5.275   5.677  0.0938  0.1753  0.6486
 6667SOL    HW226440   3.674   5.348   5.735  0.9021  0.3511  0.1439
 6667SOL    HW326441   3.631   5.316   5.593 -0.4301 -0.1092  0.6430
 6667SOL    MW426442   3.653   5.290   5.673 -0.1430 -0.6879  0.1932
 6668SOL     OW26443   2.809   5.041   2.862 -0.0565 -0.2848 -0.2443
 6668SOL    HW226444   2.795   5.104   2.933  0.3040  0.0396 -0.4516
 6668SOL    HW326445   2.771   5.083   2.785 -1.2096 -1.0047 -0.0894
 6668SOL    MW426446   2.802   5.055   2.861  0.0058 -0.0592  0.5151
 6669SOL     OW26447   4.947   3.232   0.572 -0.0753  0.1929  0.3298
 6669SOL    HW226448   4.855   3.258   0.572  0.1790  1.1424  1.0997
 6669SOL    HW326449   4.989   3.292   0.510  0.2057  0.4495  0.7677
 6669SOL    MW426450   4.941   3.243   0.563  0.0640  0.0629 -0.6716
 6670SOL     OW26451   6.008   3.040   2.149 -0.0356 -0.2025 -0.6621
 6670SOL    HW226452   5.960   3.027   2.067 -0.0680 -0.8508 -0.5484
 6670SOL    HW326453   6.050   2.955   2.166  0.3716  0.0703 -0.2608
 6670SOL    MW426454   6.007   3.027   2.140  0.7835 -0.0327  0.2517
 6671SOL     OW26455   1.161   3.194   0.578  0.4487 -0.0861 -0.0291
 6671SOL    HW226456   1.225   3.185   0.507 -0.1032 -0.2166 -0.5216
 6671SOL    HW326457   1.164   3.287   0.601  1.7981 -0.3325  0.9017
 6671SOL    MW426458   1.170   3.205   0.572  0.0109  0.1328 -0.5480
 6672SOL     OW26459   0.627   3.032   0.756  0.1543  0.4644 -0.0898
 6672SOL    HW226460   0.677   3.107   0.790 -1.6577  1.1779  1.1369
 6672SOL    HW326461   0.625   2.970   0.829 -0.1087  0.1133 -0.3924
 6672SOL    MW426462   0.634   3.034   0.770  0.0499  0.4993  0.6015
 6673SOL     OW26463   1.626   3.181   1.436 -0.0253  0.6393  0.0027
 6673SOL    HW226464   1.656   3.198   1.525 -1.0464  0.9560  0.2966
 6673SOL    HW326465   1.627   3.267   1.394 -0.3857  0.6282 -0.0281
 6673SOL    MW426466   1.630   3.195   1.442  0.3342  0.2346 -0.5455
 6674SOL     OW26467   0.268   4.611   2.522  0.1999  0.2860  0.1915
 6674SOL    HW226468   0.221   4.692   2.543 -0.9168 -0.4298  0.5743
 6674SOL    HW326469   0.347   4.640   2.476 -0.1733  1.5859  0.3243
 6674SOL    MW426470   0.272   4.626   2.519  0.7365 -0.4319  0.3050
 6675SOL     OW26471   0.762   1.658   0.915  0.2506  0.2204  0.1143
 6675SOL    HW226472   0.719   1.670   1.000  0.2625 -1.3486  0.3816
 6675SOL    HW326473   0.711   1.589   0.872 -0.1035  1.3953 -1.4204
 6675SOL    MW426474   0.750   1.650   0.921 -0.1481 -0.1386 -0.0567
 6676SOL     OW26475   3.658   5.024   1.415 -0.3764  0.3735  0.2904
 6676SOL    HW226476   3.609   5.012   1.497 -0.2154  0.6813  0.4306
 6676SOL    HW326477   3.742   5.060   1.442 -0.0879 -0.1035  0.0406
 6676SOL    MW426478   3.662   5.027   1.429 -0.4223  0.0767  0.1138
 6677SOL     OW26479   2.572   1.250   1.763  0.5400  0.1214  0.0566
 6677SOL    HW226480   2.488   1.253   1.718  1.2046 -0.6709 -1.2853
 6677SOL    HW326481   2.566   1.319   1.830 -0.5948  1.0943 -1.0058
 6677SOL    MW426482   2.560   1.259   1.766  0.0870  0.1392 -0.9966
 6678SOL     OW26483   0.560   4.899   2.184 -0.0647  0.1533  0.3038
 6678SOL    HW226484   0.546   4.844   2.261 -2.7333 -0.2872 -0.4090
 6678SOL    HW326485   0.636   4.953   2.207  1.5192 -2.4999  1.7436
 6678SOL    MW426486   0.568   4.899   2.197 -0.0432  0.1069 -0.1141
 6679SOL     OW26487   2.252   4.905   4.106 -0.3108 -0.0281  0.1328
 6679SOL    HW226488   2.258   4.823   4.056 -1.2041 -1.3647  2.0819
 6679SOL    HW326489   2.342   4.925   4.130  0.1877  0.8158 -2.1483
 6679SOL    MW426490   2.264   4.897   4.102  0.4502 -0.9582  0.0512
 6680SOL     OW26491   1.218   1.133   3.351 -0.2436 -0.5173 -0.8127
 6680SOL    HW226492   1.197   1.126   3.258 -1.8943 -2.3403 -0.3767
 6680SOL    HW326493   1.307   1.099   3.358 -0.7166 -1.9652 -1.5329
 6680SOL    MW426494   1.227   1.128   3.339 -0.3665  0.0752 -0.1545
 6681SOL     OW26495   3.759   0.880   2.046  0.1368  0.0950  0.1177
 6681SOL    HW226496   3.705   0.958   2.038 -1.8145 -1.1823  0.1983
 6681SOL    HW326497   3.835   0.908   2.097 -1.6483  1.4046  2.1801
 6681SOL    MW426498   3.762   0.894   2.051  0.6021 -0.6348  0.2543
 6682SOL     OW26499   5.788   2.729   3.688  0.3016  0.2854  0.2580
 6682SOL    HW226500   5.758   2.667   3.755 -0.2121  1.3285  1.0184
 6682SOL    HW326501   5.748   2.812   3.712 -0.3211  0.5919 -1.6694
 6682SOL    MW426502   5.779   2.732   3.700 -0.2807 -0.1161  0.0749
 6683SOL     OW26503   0.045   3.307   4.266 -0.5008  0.2551 -0.0879
 6683SOL    HW226504   0.001   3.224   4.284 -1.1895  0.3351 -1.2630
 6683SOL    HW326505  -0.022   3.361   4.223  0.2768  0.9836 -0.4223
 6683SOL    MW426506   0.031   3.303   4.263  0.4041 -0.5345 -0.3922
 6684SOL     OW26507   5.173   0.375   5.904  0.6693 -0.5356  0.1027
 6684SOL    HW226508   5.236   0.340   5.841  0.0159 -1.2535 -0.1614
 6684SOL    HW326509   5.159   0.465   5.876 -1.0594 -1.3769 -1.9881
 6684SOL    MW426510   5.179   0.382   5.892  0.0975 -0.5720  0.0688
 6685SOL     OW26511   0.598   4.881   4.888  0.5553 -0.6253  0.0718
 6685SOL    HW226512   0.629   4.817   4.824  1.3665  0.8291 -1.0642
 6685SOL    HW326513   0.674   4.938   4.903 -0.7856  1.4818 -0.7859
 6685SOL    MW426514   0.612   4.880   4.882 -0.0481  0.1981  0.0733
 6686SOL     OW26515   3.626   4.528   5.694 -0.0362  0.4060  0.3165
 6686SOL    HW226516   3.544   4.483   5.711  0.1605 -0.3778 -0.7048
 6686SOL    HW326517   3.617   4.564   5.606  0.8213  0.0409  0.0666
 6686SOL    MW426518   3.614   4.527   5.685 -0.5899 -0.0636 -0.0866
 6687SOL     OW26519   4.473   1.921   5.371 -0.8460  0.1893  0.0104
 6687SOL    HW226520   4.549   1.864   5.356  0.5558  1.8964  0.1947
 6687SOL    HW326521   4.403   1.862   5.399  0.2210 -1.5351 -0.7716
 6687SOL    MW426522   4.474   1.906   5.372  0.2623 -0.4791  0.2111
 6688SOL     OW26523   0.263   3.949   5.889 -0.1167  0.2628 -0.5338
 6688SOL    HW226524   0.214   3.868   5.906  0.7575 -0.1168  0.2697
 6688SOL    HW326525   0.338   3.944   5.948 -0.2807  1.8805 -0.1472
 6688SOL    MW426526   0.266   3.937   5.899  0.6261 -0.5799 -0.3071
 6689SOL     OW26527   2.092   0.233   2.873  0.1462 -0.1274 -0.6911
 6689SOL    HW226528   2.124   0.231   2.963 -0.8805  2.5413 -0.1856
 6689SOL    HW326529   2.169   0.213   2.820  1.2576  0.3040  0.6973
 6689SOL    MW426530   2.106   0.230   2.878  0.3005  0.0505  0.0810
 6690SOL     OW26531   5.136   4.934   2.844 -0.0547  0.0731  0.8506
 6690SOL    HW226532   5.067   4.988   2.884 -0.1152  0.5925  0.0682
 6690SOL    HW326533   5.128   4.952   2.750 -0.2309 -1.5018  0.5464
 6690SOL    MW426534   5.126   4.944   2.837 -0.4677  0.0570 -0.6247
 6691SOL     OW26535   4.090   5.979   6.141 -0.3440  0.5009 -0.3941
 6691SOL    HW226536   4.166   6.022   6.179 -1.3501 -0.1025  2.5628
 6691SOL    HW326537   4.114   5.964   6.050  2.4625  1.6499  0.0577
 6691SOL    MW426538   4.103   5.983   6.134 -0.0447 -0.2053 -0.0696
 6692SOL     OW26539   3.901   4.139   1.417 -0.3837  0.0566  0.5970
 6692SOL    HW226540   3.979   4.128   1.363  0.1994 -2.3237  1.8010
 6692SOL    HW326541   3.828   4.122   1.357  0.1171  0.2725 -0.0776
 6692SOL    MW426542   3.901   4.135   1.402  0.1868 -0.0974 -0.3682
 6693SOL     OW26543   0.003   3.931   4.335 -0.5509 -0.6158 -0.2718
 6693SOL    HW226544   0.044   3.986   4.268  0.2197 -0.1901  0.5273
 6693SOL    HW326545   0.073   3.870   4.361  0.2894  1.3607  2.4995
 6693SOL    MW426546   0.018   3.930   4.329 -0.1980 -0.2018 -0.0422
 6694SOL     OW26547   6.029   6.323   4.384  0.2028  0.1131 -0.2220
 6694SOL    HW226548   6.045   6.253   4.321  1.6080 -0.6123  0.8627
 6694SOL    HW326549   6.099   6.312   4.450 -0.6883  1.3589  0.9919
 6694SOL    MW426550   6.041   6.312   4.385  0.0772  0.1110 -0.0402
 6695SOL     OW26551   3.410   6.123   3.345  0.2134  0.0162  0.4002
 6695SOL    HW226552   3.423   6.067   3.269  0.6554  1.4096 -0.5863
 6695SOL    HW326553   3.326   6.166   3.329 -0.5051 -0.9153  1.5306
 6695SOL    MW426554   3.401   6.121   3.333  0.2852  0.1624  0.2196
 6696SOL     OW26555   5.910   0.729   1.676  0.1490  0.2535  0.5856
 6696SOL    HW226556   5.862   0.648   1.693 -0.1995  0.1434 -0.7672
 6696SOL    HW326557   5.842   0.794   1.657  0.4932  0.1463 -1.1577
 6696SOL    MW426558   5.895   0.727   1.676  1.0111  0.2607  0.0611
 6697SOL     OW26559   5.881   1.588   2.171 -0.2538  0.5706  0.4268
 6697SOL    HW226560   5.875   1.496   2.147  1.5761  0.4254  0.3732
 6697SOL    HW326561   5.901   1.587   2.265  0.8697  0.8579  0.2017
 6697SOL    MW426562   5.883   1.576   2.181  0.1333  0.3199 -0.8218
 6698SOL     OW26563   2.457   1.200   4.917 -0.1007  0.0340 -0.0225
 6698SOL    HW226564   2.438   1.107   4.908  0.5405 -0.2051  0.9435
 6698SOL    HW326565   2.412   1.241   4.843  1.9883 -1.3438 -2.1874
 6698SOL    MW426566   2.448   1.193   4.906  0.3512 -0.0801 -0.7220
 6699SOL     OW26567   2.327   5.575   0.385  0.2535 -0.5381  0.4524
 6699SOL    HW226568   2.383   5.507   0.349 -1.1022 -0.7588 -1.3781
 6699SOL    HW326569   2.239   5.552   0.356 -0.3795  1.4880  0.5892
 6699SOL    MW426570   2.323   5.563   0.377  0.5245 -0.1823  0.1434
 6700SOL     OW26571   6.077   1.420   4.905 -0.0474 -0.2407 -0.3289
 6700SOL    HW226572   6.090   1.357   4.833 -0.1608 -0.1333 -0.4454
 6700SOL    HW326573   6.165   1.438   4.938  0.0043 -0.3003 -0.4338
 6700SOL    MW426574   6.090   1.414   4.900 -0.5261 -0.2925  0.1068
 6701SOL     OW26575   5.376   4.342   1.693 -0.0222  0.5869 -0.0597
 6701SOL    HW226576   5.283   4.347   1.671  0.3906  0.9765 -1.9193
 6701SOL    HW326577   5.420   4.347   1.609  1.7019  0.6425  0.8089
 6701SOL    MW426578   5.369   4.343   1.679  1.0333  0.5053 -0.2571
 6702SOL     OW26579   1.875   0.351   2.303  0.1043  0.2731  0.8170
 6702SOL    HW226580   1.918   0.411   2.242 -2.7786  1.5563 -0.1240
 6702SOL    HW326581   1.914   0.370   2.388  0.8229  1.8744  0.1588
 6702SOL    MW426582   1.886   0.361   2.306 -0.0594  0.1615 -0.4170
 6703SOL     OW26583   5.728   4.226   3.860  0.4717  0.0145 -0.3167
 6703SOL    HW226584   5.801   4.222   3.922 -0.7806  2.6736  1.5045
 6703SOL    HW326585   5.669   4.155   3.888  1.4043 -0.8700 -0.5544
 6703SOL    MW426586   5.730   4.216   3.872  0.7673  0.3281  0.1007
 6704SOL     OW26587   1.876   5.532   3.636 -0.0118  0.6160 -0.8119
 6704SOL    HW226588   1.828   5.495   3.711  0.6069  2.1562  0.4018
 6704SOL    HW326589   1.811   5.587   3.592 -0.0469  0.6946 -0.6644
 6704SOL    MW426590   1.861   5.534   3.640 -0.2562 -0.5883  0.4494
 6705SOL     OW26591   5.575   4.190   5.023 -0.3089 -0.4713 -0.3336
 6705SOL    HW226592   5.479   4.197   5.025 -0.3343  0.9863 -2.5626
 6705SOL    HW326593   5.604   4.277   4.993  1.6307 -1.2436 -0.8384
 6705SOL    MW426594   5.566   4.203   5.019  0.2380  0.1206 -0.3083
 6706SOL     OW26595   6.087   0.361   3.671 -0.1947  0.2845  0.0940
 6706SOL    HW226596   6.138   0.360   3.753 -1.1298 -0.6989  0.6836
 6706SOL    HW326597   6.119   0.439   3.625  0.2291  0.9649  1.4730
 6706SOL    MW426598   6.098   0.372   3.676  0.6454  0.7250  0.3226
 6707SOL     OW26599   0.504   4.657   3.154 -0.0479 -0.0966 -0.2764
 6707SOL    HW226600   0.542   4.656   3.067 -0.8907 -1.8428 -0.6670
 6707SOL    HW326601   0.537   4.578   3.196 -0.6751  0.0529  0.5321
 6707SOL    MW426602   0.513   4.647   3.148 -0.1681  0.3655  0.3325
 6708SOL     OW26603   1.524   5.268   0.998  0.0114 -0.2454  0.1066
 6708SOL    HW226604   1.524   5.216   0.917  2.1820  0.6788 -0.5691
 6708SOL    HW326605   1.432   5.280   1.018 -0.6619  0.2527 -2.7496
 6708SOL    MW426606   1.512   5.263   0.990 -0.4876  0.1518 -0.0679
 6709SOL     OW26607   4.174   6.035   1.527 -0.9074  0.0659  0.0253
 6709SOL    HW226608   4.079   6.048   1.528 -0.6814  2.1437 -0.8094
 6709SOL    HW326609   4.209   6.115   1.487  1.0943 -1.3357 -1.2144
 6709SOL    MW426610   4.166   6.047   1.522  0.0996 -0.2910  0.2411
 6710SOL     OW26611   4.990   1.025   5.363 -0.0475  0.4142 -0.8165
 6710SOL    HW226612   5.072   0.976   5.363 -0.9387 -1.1350  0.0665
 6710SOL    HW326613   5.016   1.116   5.380  1.3581 -0.3353  1.4408
 6710SOL    MW426614   5.004   1.031   5.365 -0.1273  0.3241  0.0546
 6711SOL     OW26615   2.968   2.615   4.725 -0.1265  0.3195 -0.2897
 6711SOL    HW226616   2.873   2.606   4.712 -0.0842 -1.2168  0.3316
 6711SOL    HW326617   3.005   2.533   4.693  0.8803  0.3841  0.6357
 6711SOL    MW426618   2.960   2.603   4.719  0.3021  0.5039  0.0607
 6712SOL     OW26619   5.409   5.415   5.276 -0.3190 -0.7417  0.1861
 6712SOL    HW226620   5.331   5.464   5.250 -1.4567 -2.4016  0.2998
 6712SOL    HW326621   5.428   5.359   5.200 -0.3090 -1.6049  0.8102
 6712SOL    MW426622   5.402   5.414   5.262  0.2497 -0.1722  0.1303
 6713SOL     OW26623   4.662   0.797   4.823  0.0416 -0.0947  0.0298
 6713SOL    HW226624   4.752   0.793   4.792 -0.1394  1.1763 -0.7131
 6713SOL    HW326625   4.616   0.731   4.771  0.5343 -0.8148  0.4755
 6713SOL    MW426626   4.668   0.788   4.812 -0.3890  0.1145 -0.0198
 6714SOL     OW26627   2.614   5.811   0.406 -0.3100  0.1574  0.6174
 6714SOL    HW226628   2.635   5.755   0.330  1.8908  1.4779  0.1500
 6714SOL    HW326629   2.609   5.750   0.479 -1.1411 -0.9963 -0.3492
 6714SOL    MW426630   2.616   5.796   0.405 -0.0507  0.1618  0.0256
 6715SOL     OW26631   6.251   0.875   0.576 -0.4883  0.7514  0.2648
 6715SOL    HW226632   6.344   0.887   0.596 -0.8775  1.3645  1.9205
 6715SOL    HW326633   6.250   0.824   0.495  1.2848  0.6239  0.2808
 6715SOL    MW426634   6.263   0.870   0.568  0.3850  0.2298  0.8179
 6716SOL     OW26635   5.090   5.156   0.997 -0.1576  0.0242  0.1559
 6716SOL    HW226636   5.118   5.103   0.922  2.1130  1.4854 -0.1190
 6716SOL    HW326637   5.153   5.229   1.000 -1.0375  0.7772  2.6436
 6716SOL    MW426638   5.102   5.159   0.987 -0.4553 -0.2168  0.0852
 6717SOL     OW26639   4.995   2.351   5.070  0.0039  0.2305 -0.2198
 6717SOL    HW226640   4.929   2.306   5.124  0.3203  0.5867  0.4832
 6717SOL    HW326641   5.054   2.281   5.042  0.2517  0.1327  0.5173
 6717SOL    MW426642   4.994   2.336   5.074 -0.4341  0.1189  0.1796
 6718SOL     OW26643   4.397   1.073   5.238  0.1269 -0.0710  0.1172
 6718SOL    HW226644   4.459   1.123   5.291  0.5259  0.1939 -0.5738
 6718SOL    HW326645   4.384   1.128   5.160 -0.8032 -0.2324  0.1526
 6718SOL    MW426646   4.403   1.087   5.235  0.1692 -0.3701  0.3281
 6719SOL     OW26647   1.611   4.517   3.840 -0.0997 -0.6289 -1.3675
 6719SOL    HW226648   1.553   4.459   3.791  1.6261 -2.2401 -1.6204
 6719SOL    HW326649   1.688   4.463   3.859  0.9617  1.1628 -0.3159
 6719SOL    MW426650   1.613   4.502   3.836 -0.5351  0.0424  0.0583
 6720SOL     OW26651   2.102   1.851   1.245 -0.3705 -0.0575  0.2085
 6720SOL    HW226652   2.018   1.842   1.289 -0.6137  1.7552  0.1668
 6720SOL    HW326653   2.149   1.917   1.296 -0.4366  1.6911 -1.8418
 6720SOL    MW426654   2.097   1.858   1.258  0.2679 -0.1390  0.5055
 6721SOL     OW26655   6.377   3.040   4.247  0.0924 -0.2178 -0.4312
 6721SOL    HW226656   6.459   2.995   4.271 -0.9232 -1.2692  1.2976
 6721SOL    HW326657   6.323   3.034   4.326 -0.3150  3.6741 -0.2206
 6721SOL    MW426658   6.381   3.033   4.261  0.4269 -0.6374  0.2338
 6722SOL     OW26659   2.528   4.470   2.082  0.3273 -0.7204  0.1985
 6722SOL    HW226660   2.501   4.466   2.174 -0.5985  0.3844  0.0008
 6722SOL    HW326661   2.481   4.398   2.041  1.2402 -1.6242  0.6869
 6722SOL    MW426662   2.518   4.460   2.089  0.0304 -0.8598  0.4780
 6723SOL     OW26663   2.307   1.330   6.240  0.5598  0.4822  0.9448
 6723SOL    HW226664   2.306   1.294   6.329  1.9475  1.9800  1.6168
 6723SOL    HW326665   2.357   1.411   6.248  1.1247  0.4020 -1.3273
 6723SOL    MW426666   2.313   1.336   6.253 -0.4244  0.6694  0.3408
 6724SOL     OW26667   3.099   0.846   1.714  0.1673  0.4905 -0.2535
 6724SOL    HW226668   3.043   0.888   1.649 -1.0232 -1.0745 -0.2874
 6724SOL    HW326669   3.133   0.769   1.670  2.3614  1.3497 -0.2083
 6724SOL    MW426670   3.096   0.842   1.700  0.2410  0.0506 -0.3604
 6725SOL     OW26671   1.593   2.929   0.231  0.0783 -0.5611 -0.1073
 6725SOL    HW226672   1.661   2.861   0.228 -0.0645 -0.7174  0.1488
 6725SOL    HW326673   1.580   2.946   0.324 -0.5479 -0.8564 -0.1310
 6725SOL    MW426674   1.600   2.922   0.243  0.4930  0.0829 -0.0981
 6726SOL     OW26675   4.097   2.273   3.182 -0.2146 -0.0774  0.1835
 6726SOL    HW226676   4.119   2.276   3.089  2.4685 -2.9360  0.5829
 6726SOL    HW326677   4.143   2.348   3.219  2.0328 -1.1400 -0.2975
 6726SOL    MW426678   4.106   2.284   3.174 -0.0432 -0.3339 -0.7558
 6727SOL     OW26679   3.408   5.340   3.351  0.2432 -0.1339  0.9638
 6727SOL    HW226680   3.363   5.409   3.302  1.9026 -1.0143 -2.0671
 6727SOL    HW326681   3.355   5.262   3.337 -0.1515 -0.0643  2.0248
 6727SOL    MW426682   3.395   5.339   3.342  0.3103  0.7904  0.1294
 6728SOL     OW26683   1.674   1.619   0.327  0.2510 -0.4128 -0.2157
 6728SOL    HW226684   1.748   1.644   0.272  0.2050 -1.2794 -0.6880
 6728SOL    HW326685   1.649   1.700   0.372  0.0085  0.4272 -1.7842
 6728SOL    MW426686   1.680   1.633   0.326 -0.9547  0.8344 -0.6213
 6729SOL     OW26687   0.063   5.415   0.312 -0.6344 -0.0309  0.1092
 6729SOL    HW226688   0.128   5.346   0.323 -0.5803 -0.2170 -1.1779
 6729SOL    HW326689   0.050   5.452   0.400  0.5311 -0.5937  0.5249
 6729SOL    MW426690   0.070   5.411   0.325 -0.5475  0.3269  0.2295
 6730SOL     OW26691   1.658   1.918   1.188  0.5880  0.1341 -0.7342
 6730SOL    HW226692   1.721   1.884   1.252 -0.3739  1.1247  0.8163
 6730SOL    HW326693   1.587   1.854   1.188  0.9363 -0.2551 -1.3992
 6730SOL    MW426694   1.657   1.905   1.196 -0.0647  0.6051 -0.6506
 6731SOL     OW26695   2.166   3.414   6.231  0.2652 -0.1279 -0.7298
 6731SOL    HW226696   2.248   3.376   6.199  0.1082 -1.4915  0.3668
 6731SOL    HW326697   2.190   3.500   6.265  1.3705 -0.7029  0.0225
 6731SOL    MW426698   2.180   3.420   6.232  0.7233  0.0709 -0.2061
 6732SOL     OW26699   5.333   3.550   1.787 -0.3091  0.2186 -0.2210
 6732SOL    HW226700   5.300   3.560   1.876 -0.6872  0.1482 -0.3490
 6732SOL    HW326701   5.254   3.552   1.732 -0.1901 -0.9429 -0.4618
 6732SOL    MW426702   5.318   3.552   1.791 -0.6216  0.0611 -0.7858
 6733SOL     OW26703   5.615   5.958   5.737  0.2186  0.4834 -0.4972
 6733SOL    HW226704   5.590   5.907   5.814  1.3188 -1.0898 -1.1436
 6733SOL    HW326705   5.696   6.001   5.762 -0.7546  2.0872  0.0800
 6733SOL    MW426706   5.622   5.957   5.751 -1.3355  0.2349 -0.2696
 6734SOL     OW26707   3.679   3.308   1.844 -0.5964  1.0407  0.4483
 6734SOL    HW226708   3.591   3.344   1.829 -0.5093  0.7749 -0.8266
 6734SOL    HW326709   3.738   3.381   1.826 -0.4639  0.5670 -1.2128
 6734SOL    MW426710   3.675   3.322   1.839  0.1576  0.4776 -0.8385
 6735SOL     OW26711   4.388   5.112   4.032 -0.2346 -0.3541 -0.0793
 6735SOL    HW226712   4.329   5.148   3.965 -1.8728 -1.5645  0.6590
 6735SOL    HW326713   4.340   5.124   4.115  1.2593  0.0678  0.7600
 6735SOL    MW426714   4.373   5.119   4.034 -0.6171 -0.3074 -0.1874
 6736SOL     OW26715   4.624   4.582   2.258  0.3853 -0.1305 -0.1517
 6736SOL    HW226716   4.620   4.525   2.181 -1.1650 -0.6222  0.2436
 6736SOL    HW326717   4.645   4.524   2.331 -2.3246 -0.5034  0.4446
 6736SOL    MW426718   4.626   4.567   2.258  0.1029  0.2007  0.4319
 6737SOL     OW26719   0.439   1.180   6.250 -0.0523  0.1552 -0.2660
 6737SOL    HW226720   0.389   1.254   6.214  1.1196  0.6752 -0.8760
 6737SOL    HW326721   0.424   1.109   6.188  1.4633  0.8689 -1.5018
 6737SOL    MW426722   0.430   1.180   6.237 -0.0146 -0.2880  0.2132
 6738SOL     OW26723   5.885   2.212   4.530  0.4020 -0.4412 -0.3751
 6738SOL    HW226724   5.952   2.235   4.466  0.6982  3.2224  0.9963
 6738SOL    HW326725   5.932   2.211   4.614 -0.5516 -1.9921  0.1850
 6738SOL    MW426726   5.900   2.215   4.533 -0.0913 -0.2849 -0.8964
 6739SOL     OW26727   6.115   1.512   6.065  0.5059 -0.2162  0.0209
 6739SOL    HW226728   6.169   1.452   6.014 -0.2511 -0.1462 -0.9008
 6739SOL    HW326729   6.160   1.520   6.150  0.9538 -1.5617 -0.0755
 6739SOL    MW426730   6.128   1.505   6.070  0.1726 -0.3015  0.0677
 6740SOL     OW26731   1.737   4.556   5.646 -0.0689 -0.3528 -0.3683
 6740SOL    HW226732   1.664   4.499   5.623 -0.2496 -0.4788  0.4924
 6740SOL    HW326733   1.718   4.639   5.603 -0.4700 -0.5363 -0.5438
 6740SOL    MW426734   1.725   4.559   5.638 -0.0799 -0.5885  1.1201
 6741SOL     OW26735   3.975   4.049   3.675 -0.1830 -0.8165  0.7960
 6741SOL    HW226736   4.014   3.963   3.692 -2.7616 -1.8605  1.9076
 6741SOL    HW326737   3.921   4.037   3.597  1.5763  0.6187 -0.7520
 6741SOL    MW426738   3.973   4.036   3.667 -0.3308  0.0496  0.6146
 6742SOL     OW26739   1.099   2.115   2.360 -0.1878  0.8406  0.1101
 6742SOL    HW226740   1.025   2.120   2.299 -0.5269  1.5784  0.5668
 6742SOL    HW326741   1.175   2.097   2.305 -0.3325  2.4482 -0.6705
 6742SOL    MW426742   1.099   2.114   2.345  0.4539 -0.0507  0.3980
 6743SOL     OW26743   3.673   6.428   2.441 -0.1080  0.0600 -0.6519
 6743SOL    HW226744   3.725   6.505   2.461 -2.5835  1.6153  0.2340
 6743SOL    HW326745   3.707   6.397   2.357  2.7516  0.4050  0.2755
 6743SOL    MW426746   3.684   6.434   2.433 -0.1679  0.5167  0.4539
 6744SOL     OW26747   0.891   3.484   0.535 -0.1669 -0.1148 -0.1460
 6744SOL    HW226748   0.887   3.575   0.506  2.4796  0.1503  0.0103
 6744SOL    HW326749   0.803   3.465   0.568 -0.5965  2.6562  0.5908
 6744SOL    MW426750   0.879   3.494   0.536 -0.0211 -0.4428  0.2454
 6745SOL     OW26751   2.302   1.395   5.903 -0.5823 -0.3771  0.2052
 6745SOL    HW226752   2.285   1.356   5.988  0.4730  0.3873  0.7920
 6745SOL    HW326753   2.221   1.381   5.853 -0.6270 -2.2786  0.7563
 6745SOL    MW426754   2.289   1.388   5.908  1.2455 -0.0955  0.6173
 6746SOL     OW26755   0.778   0.590   0.297  0.5268 -0.5973 -0.2127
 6746SOL    HW226756   0.823   0.522   0.247 -0.4202 -0.8173 -0.8095
 6746SOL    HW326757   0.804   0.672   0.255  0.4946 -0.7123 -0.4624
 6746SOL    MW426758   0.787   0.592   0.285  0.0734  0.2557  0.8837
 6747SOL     OW26759   2.807   5.954   3.796 -0.0300  0.0805  0.0156
 6747SOL    HW226760   2.854   5.875   3.820  0.6688  0.6549  0.5936
 6747SOL    HW326761   2.715   5.931   3.806  0.1830 -0.4573  0.8747
 6747SOL    MW426762   2.801   5.941   3.801  0.0373 -0.1722  0.1681
 6748SOL     OW26763   5.318   0.068   2.739  0.2910 -0.0441 -0.3868
 6748SOL    HW226764   5.231   0.034   2.718 -0.3260  1.5286 -0.5446
 6748SOL    HW326765   5.364  -0.005   2.780 -1.0369 -0.9638 -0.4980
 6748SOL    MW426766   5.313   0.054   2.742 -0.4101 -0.3600  0.0743
 6749SOL     OW26767   2.543   0.990   1.047  0.4825 -0.5813 -0.4206
 6749SOL    HW226768   2.600   0.968   0.973 -1.7804 -0.2247 -2.3950
 6749SOL    HW326769   2.541   1.086   1.047 -1.1202 -0.5686 -1.3040
 6749SOL    MW426770   2.550   1.000   1.037  0.4109 -0.1338 -0.3562
 6750SOL     OW26771   6.041   4.324   0.431 -0.0800 -0.1121 -0.0197
 6750SOL    HW226772   5.961   4.378   0.431 -1.0843 -1.5153  1.5103
 6750SOL    HW326773   6.107   4.380   0.390 -1.8991  0.9718 -1.6865
 6750SOL    MW426774   6.039   4.339   0.425  0.7567  0.6731 -0.0644
 6751SOL     OW26775   5.901   0.342   3.901  0.0846  0.3945 -0.5554
 6751SOL    HW226776   5.841   0.271   3.877 -0.8201  1.6106 -2.1503
 6751SOL    HW326777   5.968   0.341   3.833  1.3046 -0.2703  0.6193
 6751SOL    MW426778   5.902   0.333   3.889 -0.2813 -0.2278 -0.7260
 6752SOL     OW26779   3.351   3.592   1.320 -0.1241  0.3523  0.3434
 6752SOL    HW226780   3.377   3.501   1.304 -0.3014  0.2556  0.5944
 6752SOL    HW326781   3.268   3.585   1.367 -0.0365  0.6411  0.5461
 6752SOL    MW426782   3.344   3.579   1.324 -0.1876  0.2942 -0.1235
 6753SOL     OW26783   3.143   0.637   5.030  0.3894  0.2079 -0.2092
 6753SOL    HW226784   3.190   0.631   5.113 -0.7772 -0.9972  0.4089
 6753SOL    HW326785   3.131   0.731   5.016  0.6904  0.4296  0.9393
 6753SOL    MW426786   3.147   0.649   5.039 -0.0509 -0.0735  0.0521
 6754SOL     OW26787   2.554   1.832   6.199 -0.3408 -0.4767  0.5446
 6754SOL    HW226788   2.469   1.866   6.228  0.0970  0.9985  0.1921
 6754SOL    HW326789   2.551   1.739   6.220 -1.5770 -0.2216  1.6562
 6754SOL    MW426790   2.542   1.825   6.206  0.0371 -0.2340  0.9083
 6755SOL     OW26791   1.109   0.635   2.978 -0.0790 -0.0149 -0.5833
 6755SOL    HW226792   1.089   0.627   3.072 -0.4500 -0.8035 -0.7246
 6755SOL    HW326793   1.046   0.699   2.945 -0.3873 -0.2414 -0.4306
 6755SOL    MW426794   1.098   0.642   2.986 -0.5435  0.1273 -0.1333
 6756SOL     OW26795   4.649   3.684   5.877  0.0135  0.6406 -0.1300
 6756SOL    HW226796   4.569   3.651   5.837 -0.6147 -0.0824  1.6338
 6756SOL    HW326797   4.655   3.775   5.846 -1.1398  0.5202 -0.7750
 6756SOL    MW426798   4.639   3.692   5.868  0.7443  0.4970  0.3099
 6757SOL     OW26799   0.789   1.467   3.504 -0.0717 -0.0153 -0.2946
 6757SOL    HW226800   0.710   1.519   3.488 -0.6104 -0.7540 -0.0743
 6757SOL    HW326801   0.780   1.391   3.447 -0.1256 -0.7167  0.6236
 6757SOL    MW426802   0.777   1.464   3.494 -0.2547  0.0108 -0.4719
 6758SOL     OW26803   1.206   3.620   6.141  0.3571  0.3927 -0.8383
 6758SOL    HW226804   1.233   3.702   6.181 -2.2628  1.1323 -0.4029
 6758SOL    HW326805   1.237   3.553   6.202 -1.9205  1.4083  1.6583
 6758SOL    MW426806   1.214   3.622   6.154  0.6779  0.7910  0.0984
 6759SOL     OW26807  -0.000   1.549   0.197 -0.9131  0.0100  0.0019
 6759SOL    HW226808  -0.003   1.576   0.289 -0.6086 -1.1176  0.3537
 6759SOL    HW326809  -0.082   1.503   0.182 -0.4658 -0.8262  0.0486
 6759SOL    MW426810  -0.011   1.547   0.207  0.8496  0.2242  1.0999
 6760SOL     OW26811   6.273   1.819   1.504 -0.3664  0.1295 -0.0700
 6760SOL    HW226812   6.298   1.753   1.439  0.3248 -0.9960  1.2826
 6760SOL    HW326813   6.190   1.854   1.472  0.0115 -0.3016 -1.6121
 6760SOL    MW426814   6.266   1.815   1.491  0.7490  0.6786  0.2348
 6761SOL     OW26815   0.216   3.090   2.296  0.0827 -0.3472  0.4414
 6761SOL    HW226816   0.242   3.131   2.378  4.3661  1.4961 -1.5021
 6761SOL    HW326817   0.152   3.151   2.259 -2.2690 -1.4450  2.4397
 6761SOL    MW426818   0.211   3.104   2.302  0.1052 -0.6237  0.3742
 6762SOL     OW26819   2.159   2.561   1.895 -0.4904  0.4812 -0.2799
 6762SOL    HW226820   2.238   2.514   1.922 -0.2616  0.2689 -1.2790
 6762SOL    HW326821   2.087   2.513   1.937 -0.0482  1.2595  1.4421
 6762SOL    MW426822   2.160   2.548   1.904  0.0060  0.0448 -0.0476
 6763SOL     OW26823   0.013   5.955   2.247 -0.1301 -0.1077 -0.3600
 6763SOL    HW226824   0.108   5.946   2.244 -0.0711  0.6127 -1.2572
 6763SOL    HW326825  -0.005   5.994   2.332  0.4204  0.0929 -0.3277
 6763SOL    MW426826   0.023   5.959   2.258  0.1629  0.0186 -0.2123
 6764SOL     OW26827   5.686   4.274   0.562 -0.3142  0.3901  0.1377
 6764SOL    HW226828   5.698   4.179   0.563 -0.6353  0.3064 -1.3159
 6764SOL    HW326829   5.646   4.294   0.646  3.4503 -0.1912  2.2678
 6764SOL    MW426830   5.682   4.264   0.573  0.3686  0.2383  0.0275
 6765SOL     OW26831   3.992   0.977   2.957  0.4198 -0.0679 -0.0476
 6765SOL    HW226832   3.904   0.961   2.992 -0.8372 -1.1662 -3.3199
 6765SOL    HW326833   4.035   0.891   2.960  1.3384  0.4102  1.2858
 6765SOL    MW426834   3.986   0.963   2.962 -0.0933  0.3482  0.0477
 6766SOL     OW26835   1.384   0.234   5.853  0.0535  0.3286  0.3009
 6766SOL    HW226836   1.305   0.280   5.880  0.5691  1.6395 -0.3242
 6766SOL    HW326837   1.419   0.287   5.782  0.7848 -0.9599 -0.3253
 6766SOL    MW426838   1.378   0.247   5.847  0.0194 -0.1569  0.2630
 6767SOL     OW26839   3.518   3.751   2.967 -0.8402 -0.6134  0.1613
 6767SOL    HW226840   3.462   3.811   2.917  1.4986  1.1496 -0.5451
 6767SOL    HW326841   3.466   3.672   2.977 -2.5363  0.0336 -2.5542
 6767SOL    MW426842   3.504   3.749   2.961  0.3328  0.2430 -0.2407
 6768SOL     OW26843   1.621   6.121   1.555  0.0204 -0.0756  0.1939
 6768SOL    HW226844   1.584   6.159   1.634  1.8135  0.9551  0.5969
 6768SOL    HW326845   1.702   6.169   1.541 -0.0312 -0.5294 -2.0474
 6768SOL    MW426846   1.627   6.132   1.563  0.0668  0.4666  0.2336
 6769SOL     OW26847   6.136   0.984   1.046  0.1655 -0.2700 -0.2182
 6769SOL    HW226848   6.229   0.964   1.045 -0.3588 -3.2913  1.0210
 6769SOL    HW326849   6.095   0.909   1.090 -2.9359  0.5902 -1.3324
 6769SOL    MW426850   6.143   0.972   1.052 -1.1036  0.2091 -0.2501
 6770SOL     OW26851   1.609   2.512   0.602 -0.0483 -0.1762  0.6123
 6770SOL    HW226852   1.635   2.546   0.516  1.5002  0.0611  1.1445
 6770SOL    HW326853   1.550   2.579   0.636 -0.4731 -0.1475 -0.1497
 6770SOL    MW426854   1.605   2.526   0.595 -0.9140  0.3150  0.3109
 6771SOL     OW26855   5.483   2.623   0.923  0.0913  0.5995  0.0463
 6771SOL    HW226856   5.528   2.687   0.867  0.0710 -0.9654 -1.8486
 6771SOL    HW326857   5.524   2.540   0.902 -0.9620 -0.2665  1.2818
 6771SOL    MW426858   5.494   2.621   0.913  0.1653  0.5186 -0.3355
 6772SOL     OW26859   1.812   6.055   2.183 -0.4604  0.1416  0.1770
 6772SOL    HW226860   1.809   6.130   2.243 -1.8897 -1.1742  1.8760
 6772SOL    HW326861   1.786   6.091   2.098  1.1789  1.9792  0.3886
 6772SOL    MW426862   1.808   6.070   2.180  0.1135 -0.1426  0.1456
 6773SOL     OW26863   0.732   4.557   0.556 -0.0348  0.3306 -0.0352
 6773SOL    HW226864   0.669   4.491   0.587  1.0910 -0.0329  1.5972
 6773SOL    HW326865   0.818   4.517   0.570  0.6157  0.9785 -1.8387
 6773SOL    MW426866   0.735   4.543   0.562 -0.7593 -0.1016 -0.5363
 6774SOL     OW26867   3.961   5.520   2.498  0.2195  0.1698  0.3870
 6774SOL    HW226868   3.928   5.565   2.575 -0.4953  1.1754 -0.4750
 6774SOL    HW326869   3.896   5.539   2.430  1.8660  1.0837 -1.0145
 6774SOL    MW426870   3.948   5.529   2.499 -0.5869  0.0494  0.0822
 6775SOL     OW26871   4.437   0.341   4.678 -0.8259 -0.2289  0.2423
 6775SOL    HW226872   4.460   0.381   4.761  1.9664  0.8945 -0.9439
 6775SOL    HW326873   4.357   0.292   4.696 -1.2272  1.2957  3.1465
 6775SOL    MW426874   4.429   0.340   4.691  0.1077 -0.1845 -0.0117
 6776SOL     OW26875   1.921   4.227   1.817 -0.1633  0.5310  0.8869
 6776SOL    HW226876   1.866   4.167   1.765  1.7103  0.7746 -1.5389
 6776SOL    HW326877   1.937   4.301   1.759 -0.3110  2.2546  2.9277
 6776SOL    MW426878   1.916   4.229   1.803  0.3906  0.4824  0.3139
 6777SOL     OW26879   0.805   1.154   5.837  0.1200  0.4126 -0.4931
 6777SOL    HW226880   0.882   1.173   5.892 -0.7368  2.2748  0.1288
 6777SOL    HW326881   0.738   1.125   5.899 -1.0288  3.0482 -0.3845
 6777SOL    MW426882   0.807   1.153   5.853 -0.0800  0.6185  0.0765
 6778SOL     OW26883   3.296   5.563   2.183 -0.1239  0.1368  0.2733
 6778SOL    HW226884   3.255   5.649   2.175  1.2740  0.6737 -2.2825
 6778SOL    HW326885   3.381   5.581   2.224 -0.6233 -0.3737  1.6056
 6778SOL    MW426886   3.302   5.577   2.188  0.7080 -0.3313  0.2038
 6779SOL     OW26887   4.923   2.044   2.845 -0.4837 -0.2799 -0.1581
 6779SOL    HW226888   4.902   2.131   2.882 -1.1160 -0.4917  0.0009
 6779SOL    HW326889   4.929   2.059   2.751 -2.7261 -0.4326 -0.3790
 6779SOL    MW426890   4.921   2.058   2.838  0.0147  0.5461 -0.5165
 6780SOL     OW26891   4.768   4.396   4.170  0.1244  0.3508  0.1528
 6780SOL    HW226892   4.769   4.308   4.133  0.8172 -0.3087  1.6483
 6780SOL    HW326893   4.860   4.415   4.187 -0.2017  0.2384  2.3068
 6780SOL    MW426894   4.780   4.387   4.167 -0.6972  0.1381 -0.4373
 6781SOL     OW26895   3.127   5.446   1.790  0.9583 -0.2840  0.4352
 6781SOL    HW226896   3.061   5.424   1.855  0.8152  0.2469  0.4799
 6781SOL    HW326897   3.077   5.470   1.711  1.0136  1.3395  0.8432
 6781SOL    MW426898   3.112   5.446   1.788  0.0338 -0.0183  0.1656
 6782SOL     OW26899   2.016   0.321   1.074  0.6246 -0.4350 -0.3697
 6782SOL    HW226900   2.087   0.345   1.013  1.7516 -0.1187  1.0146
 6782SOL    HW326901   2.043   0.359   1.157 -1.8294  0.7833 -0.0630
 6782SOL    MW426902   2.029   0.329   1.077  0.0775 -0.3542  0.5078
 6783SOL     OW26903   4.024   2.503   4.090  0.2981  0.0590  0.2048
 6783SOL    HW226904   3.997   2.562   4.020 -1.5892  0.9179  1.5835
 6783SOL    HW326905   3.952   2.441   4.099  0.1560  0.4333  1.8780
 6783SOL    MW426906   4.011   2.502   4.082 -0.9173 -0.2910 -0.3249
 6784SOL     OW26907   1.821   1.063   5.725  0.1061  0.2867  0.2296
 6784SOL    HW226908   1.872   1.106   5.657  0.5589  2.6910  1.9369
 6784SOL    HW326909   1.881   1.001   5.766  1.0564  1.5375  0.8070
 6784SOL    MW426910   1.836   1.060   5.722  0.4663  0.0282 -0.3824
 6785SOL     OW26911   2.525   2.150   1.618  0.4469 -0.5437 -0.1908
 6785SOL    HW226912   2.615   2.164   1.648  0.4521  1.0180 -0.8462
 6785SOL    HW326913   2.507   2.224   1.561 -1.8412  0.1216  1.2596
 6785SOL    MW426914   2.534   2.161   1.615 -0.1006 -0.2049 -0.0402
 6786SOL     OW26915   5.608   4.699   4.957 -0.2983 -0.0395  0.5450
 6786SOL    HW226916   5.620   4.790   4.929  3.5622 -0.6439 -0.3925
 6786SOL    HW326917   5.611   4.703   5.052  0.1991  0.8368  0.5120
 6786SOL    MW426918   5.610   4.711   4.966 -0.2230  0.1475 -0.3076
 6787SOL     OW26919   0.979   0.319   3.272 -0.0904  0.1976 -0.0836
 6787SOL    HW226920   0.965   0.405   3.233  0.2896 -0.5906 -2.0570
 6787SOL    HW326921   1.072   0.301   3.260 -0.0780 -0.3105  0.6965
 6787SOL    MW426922   0.989   0.328   3.265  0.8522  0.2584  0.0502
 6788SOL     OW26923   5.643   4.548   3.766  0.0269 -0.3069 -0.4249
 6788SOL    HW226924   5.720   4.570   3.713  0.1504  0.1301 -0.0759
 6788SOL    HW326925   5.571   4.595   3.724  0.2513  0.6332  0.1906
 6788SOL    MW426926   5.643   4.557   3.754  0.9509 -0.0789 -0.1716
 6789SOL     OW26927   5.452   2.345   0.232  0.3775  0.0960 -0.1527
 6789SOL    HW226928   5.453   2.416   0.296  3.4624 -1.6137  1.9393
 6789SOL    HW326929   5.374   2.294   0.253 -0.3188  1.2648  0.1597
 6789SOL    MW426930   5.442   2.348   0.243  0.3729 -0.1717 -0.2700
 6790SOL     OW26931   0.015   1.476   6.231 -0.3537  0.4134  0.3921
 6790SOL    HW226932  -0.012   1.384   6.236 -1.8420  0.7933  0.0470
 6790SOL    HW326933  -0.041   1.520   6.295 -0.9413  1.3238 -0.7097
 6790SOL    MW426934   0.004   1.470   6.240  0.3878  0.0858  0.2141
 6791SOL     OW26935   3.530   0.716   2.968  0.0283  0.0607 -0.0922
 6791SOL    HW226936   3.449   0.666   2.983 -0.8780  0.6723 -2.4840
 6791SOL    HW326937   3.600   0.652   2.977 -0.9423 -1.1357 -0.7289
 6791SOL    MW426938   3.528   0.701   2.971 -0.3390  0.3256 -0.1948
 6792SOL     OW26939   2.294   2.843   0.246  0.3067 -0.2868 -0.0050
 6792SOL    HW226940   2.330   2.900   0.178  0.2987  0.8811  0.9552
 6792SOL    HW326941   2.348   2.763   0.240  1.2769  0.3762 -0.3984
 6792SOL    MW426942   2.306   2.840   0.236 -0.2063  0.2552 -0.2178
 6793SOL     OW26943   0.533   4.724   1.978  0.6902  0.2511  0.0441
 6793SOL    HW226944   0.499   4.756   1.894 -3.1780 -2.7959  0.1588
 6793SOL    HW326945   0.528   4.799   2.036 -1.6354  1.1876 -1.2244
 6793SOL    MW426946   0.528   4.738   1.974 -0.5733 -0.2104 -0.1198
 6794SOL     OW26947   5.636   0.113   1.070  0.4341  0.0788 -0.5498
 6794SOL    HW226948   5.635   0.023   1.038  2.5582 -0.6175  1.0585
 6794SOL    HW326949   5.658   0.105   1.163 -1.6337  2.1831  0.2263
 6794SOL    MW426950   5.639   0.100   1.078 -0.1780  0.0621 -0.6586
 6795SOL     OW26951   2.318   0.425   1.694 -0.3682 -0.3411 -0.4755
 6795SOL    HW226952   2.302   0.520   1.697 -0.1556 -0.3069 -0.4277
 6795SOL    HW326953   2.250   0.387   1.750 -1.6966 -0.3716 -2.0406
 6795SOL    MW426954   2.307   0.433   1.702 -0.5036  0.2126 -0.0751
 6796SOL     OW26955   6.233   2.518   3.818  0.4260  0.3018  0.3109
 6796SOL    HW226956   6.223   2.453   3.749  3.6041 -1.0934  0.9631
 6796SOL    HW326957   6.217   2.602   3.776 -1.1751 -0.7088 -1.2032
 6796SOL    MW426958   6.230   2.521   3.804 -0.2415 -0.1015  0.2506
 6797SOL     OW26959   0.211   1.625   4.485  0.3801 -0.3539  0.0793
 6797SOL    HW226960   0.160   1.705   4.472  0.8140 -0.4444 -2.9967
 6797SOL    HW326961   0.157   1.557   4.445  0.7020 -1.3675  1.3153
 6797SOL    MW426962   0.197   1.627   4.478 -0.5501  0.1474 -0.0866
 6798SOL     OW26963   3.483   2.029   4.656  0.3313 -0.0573  0.4205
 6798SOL    HW226964   3.418   1.971   4.617  0.7470 -0.7968  0.8074
 6798SOL    HW326965   3.526   1.976   4.723  2.6302 -0.2138 -1.0675
 6798SOL    MW426966   3.480   2.015   4.660 -0.6806  0.6397 -0.5289
 6799SOL     OW26967   4.492   5.013   3.565  0.1386 -0.2327  0.2976
 6799SOL    HW226968   4.543   4.952   3.618  1.5372  1.2081  0.6933
 6799SOL    HW326969   4.544   5.093   3.563 -0.9463  0.4991 -1.4046
 6799SOL    MW426970   4.505   5.016   3.572  0.9421  0.8394 -0.1620
 6800SOL     OW26971   0.295   4.454   4.012  0.0467 -0.2878  0.6346
 6800SOL    HW226972   0.311   4.443   3.918  0.1015  3.2595  0.0745
 6800SOL    HW326973   0.200   4.460   4.019 -0.1330 -2.8196  1.2313
 6800SOL    MW426974   0.285   4.453   4.000 -0.0519  0.3234 -0.1910
 6801SOL     OW26975   4.735   2.040   2.165 -0.6060 -0.1349  0.3157
 6801SOL    HW226976   4.803   2.095   2.125 -0.6332  0.9821  1.7268
 6801SOL    HW326977   4.783   1.966   2.202  0.0414  1.2156  2.2943
 6801SOL    MW426978   4.751   2.038   2.164  0.3111  0.2988  0.0005
 6802SOL     OW26979   4.317   5.734   4.129  0.0190 -0.6073  0.8140
 6802SOL    HW226980   4.375   5.801   4.091  0.7711 -1.5200  0.3153
 6802SOL    HW326981   4.240   5.783   4.158  0.0051  0.3263 -0.6571
 6802SOL    MW426982   4.314   5.750   4.128  0.5948  0.4023  0.1771
 6803SOL     OW26983   4.665   3.667   4.850 -0.2904 -0.0012  0.2311
 6803SOL    HW226984   4.755   3.680   4.881 -0.5338 -0.6670  1.2545
 6803SOL    HW326985   4.648   3.574   4.865 -0.1550 -0.5820 -2.7135
 6803SOL    MW426986   4.675   3.657   4.856 -0.4740  0.3533 -0.1563
 6804SOL     OW26987   1.625   0.718   4.157  0.4699  0.5174 -0.1383
 6804SOL    HW226988   1.564   0.789   4.135  0.7927  0.7109 -0.4044
 6804SOL    HW326989   1.594   0.644   4.105  1.1067  0.9151 -1.1026
 6804SOL    MW426990   1.613   0.718   4.147 -0.2833 -0.2571 -0.1866
 6805SOL     OW26991   5.209   2.548   5.137 -0.2683  0.6731  0.6599
 6805SOL    HW226992   5.139   2.482   5.142  0.6186 -0.3291  0.3025
 6805SOL    HW326993   5.185   2.604   5.063 -0.2272 -0.2473 -0.0682
 6805SOL    MW426994   5.197   2.547   5.128 -0.5161 -0.0866  0.0136
 6806SOL     OW26995   6.245   3.397   4.142  0.5698 -0.1922  0.1263
 6806SOL    HW226996   6.255   3.430   4.053  0.9957 -0.0017  0.2412
 6806SOL    HW326997   6.157   3.360   4.144  0.9577 -1.2198 -0.7126
 6806SOL    MW426998   6.235   3.396   4.131  0.1130 -0.0428 -0.0872
 6807SOL     OW26999   5.592   0.089   0.748 -0.0341 -0.1813 -0.1655
 6807SOL    HW227000   5.670   0.067   0.798 -0.4186  2.1742  1.6714
 6807SOL    HW327001   5.545   0.151   0.803 -1.8623  0.5497 -2.3744
 6807SOL    MW427002   5.596   0.094   0.762 -0.0625 -0.1468  1.1463
 6808SOL     OW27003   3.210   0.934   0.406 -0.2936  0.0789  0.0058
 6808SOL    HW227004   3.240   0.861   0.461 -0.2688  1.2233  1.5794
 6808SOL    HW327005   3.291   0.969   0.368 -0.3159 -0.7483 -0.8596
 6808SOL    MW427006   3.225   0.929   0.408  0.4838 -0.2873  0.1985
 6809SOL     OW27007   4.311   1.868   4.769 -0.0115 -0.0773  0.3802
 6809SOL    HW227008   4.405   1.855   4.757  0.0795  0.2334  0.7206
 6809SOL    HW327009   4.305   1.941   4.831 -0.4390 -1.3911  1.9924
 6809SOL    MW427010   4.322   1.876   4.776  0.1380  0.0180 -0.1638
 6810SOL     OW27011   0.766   5.683   1.994 -0.2485  0.1672 -0.1259
 6810SOL    HW227012   0.861   5.680   2.001 -0.2580  0.6450  0.3254
 6810SOL    HW327013   0.748   5.761   1.941 -0.4030  0.5721  0.5017
 6810SOL    MW427014   0.776   5.693   1.988 -0.0946  0.0189 -0.0179
 6811SOL     OW27015   6.314   0.351   1.806  0.1059 -0.1957 -0.3253
 6811SOL    HW227016   6.313   0.438   1.766  0.0084  0.0537  0.2055
 6811SOL    HW327017   6.294   0.367   1.898 -0.5897 -0.8567 -0.3514
 6811SOL    MW427018   6.312   0.364   1.813 -0.2050  0.0532 -0.8358
 6812SOL     OW27019   4.199   5.411   3.070  0.2742  0.4238  0.1849
 6812SOL    HW227020   4.187   5.488   3.125 -0.1215  0.4084  0.1242
 6812SOL    HW327021   4.269   5.362   3.112 -0.5663  0.0017  1.1482
 6812SOL    MW427022   4.206   5.415   3.083 -0.2323  0.2936 -0.1802
 6813SOL     OW27023   4.510   5.725   3.360 -0.5316  0.3445  0.2437
 6813SOL    HW227024   4.453   5.648   3.367 -0.5998  0.4135  0.4629
 6813SOL    HW327025   4.596   5.693   3.390 -1.0671  0.9072  2.5777
 6813SOL    MW427026   4.514   5.710   3.365 -0.6307 -0.6600  0.5236
 6814SOL     OW27027   4.541   5.730   1.266 -0.7989 -0.0665 -0.1003
 6814SOL    HW227028   4.451   5.714   1.293 -1.6291  4.8933  0.9880
 6814SOL    HW327029   4.538   5.729   1.170 -1.0071 -3.6242 -0.1816
 6814SOL    MW427030   4.529   5.727   1.257 -0.1942 -0.0471  0.3676
 6815SOL     OW27031   1.695   5.171   0.549 -0.3198  0.1314  0.5597
 6815SOL    HW227032   1.657   5.189   0.463  1.0655  1.3877  0.1582
 6815SOL    HW327033   1.788   5.192   0.539  0.0393 -0.5409  2.1368
 6815SOL    MW427034   1.702   5.176   0.536 -0.0659 -0.0700  0.1233
 6816SOL     OW27035   0.161   2.584   1.695 -0.5242 -0.0200 -0.5842
 6816SOL    HW227036   0.192   2.653   1.754 -2.3747  0.2143  0.1918
 6816SOL    HW327037   0.082   2.620   1.656 -1.5725 -1.6919 -0.1098
 6816SOL    MW427038   0.155   2.598   1.698  0.2437  0.0259 -0.2508
 6817SOL     OW27039   2.514   4.924   4.892 -0.2282 -0.8295 -0.1855
 6817SOL    HW227040   2.495   4.928   4.799 -1.7756 -0.3442  0.1282
 6817SOL    HW327041   2.548   5.011   4.914 -2.0669 -0.1443  0.1197
 6817SOL    MW427042   2.516   4.936   4.883  0.2704  0.0205  0.2599
 6818SOL     OW27043   0.011   4.229   5.386 -0.0366  0.1283 -0.4714
 6818SOL    HW227044   0.089   4.199   5.433  0.1914  0.0452 -0.8969
 6818SOL    HW327045  -0.061   4.179   5.424  0.0562  0.4840  0.1933
 6818SOL    MW427046   0.012   4.219   5.397 -0.2549  0.0413 -0.5940
 6819SOL     OW27047   4.397   0.827   1.700 -0.3074  0.2839  0.3827
 6819SOL    HW227048   4.319   0.873   1.670 -0.4510  0.4879  1.0323
 6819SOL    HW327049   4.469   0.866   1.651 -0.5248  0.6607  0.3622
 6819SOL    MW427050   4.396   0.838   1.690 -0.5660 -0.4367  0.0455
 6820SOL     OW27051   5.591   1.133   0.190  0.4163  0.0835  0.2327
 6820SOL    HW227052   5.555   1.173   0.111  1.4771  0.5672 -0.0242
 6820SOL    HW327053   5.518   1.132   0.252 -0.5619 -0.7517 -0.8983
 6820SOL    MW427054   5.577   1.138   0.188  0.4164 -0.2894  0.1474
 6821SOL     OW27055   1.811   3.565   6.229 -0.1026 -0.4661  0.3320
 6821SOL    HW227056   1.854   3.644   6.260 -0.9848  0.4375 -0.6825
 6821SOL    HW327057   1.862   3.539   6.152  0.3523 -1.0670  0.8205
 6821SOL    MW427058   1.824   3.572   6.223  0.0985 -0.0801 -0.5088
 6822SOL     OW27059   5.424   1.458   0.579  0.5426 -0.4768  0.4292
 6822SOL    HW227060   5.433   1.498   0.665  0.1544 -1.3138  0.8664
 6822SOL    HW327061   5.502   1.487   0.531  0.1832  0.9420  0.6595
 6822SOL    MW427062   5.435   1.467   0.584  0.7479 -0.0372  0.3714
 6823SOL     OW27063   0.683   2.192   4.362  0.5878 -0.5897 -0.6210
 6823SOL    HW227064   0.748   2.250   4.402  0.4149 -0.6648 -0.2227
 6823SOL    HW327065   0.725   2.106   4.361  0.7694 -0.4960 -1.0299
 6823SOL    MW427066   0.697   2.188   4.367  0.5098 -0.4102  0.1636
 6824SOL     OW27067   1.616   0.932   0.780 -0.1037  0.2097 -0.5347
 6824SOL    HW227068   1.574   1.017   0.767 -0.5004  0.0164 -0.5266
 6824SOL    HW327069   1.592   0.881   0.703  0.7940  0.3655 -0.9222
 6824SOL    MW427070   1.607   0.937   0.768 -0.8283  0.9217  0.0135
 6825SOL     OW27071   1.842   1.475   5.401  0.4738 -0.4105  0.0781
 6825SOL    HW227072   1.832   1.464   5.307 -0.1969  0.4565  0.0422
 6825SOL    HW327073   1.890   1.557   5.410  0.6086 -0.5332  0.5007
 6825SOL    MW427074   1.847   1.484   5.390 -0.2519  0.1005 -0.0165
 6826SOL     OW27075   2.886   3.728   5.116 -0.0609 -0.0507 -0.1135
 6826SOL    HW227076   2.829   3.795   5.153 -0.0054 -0.2106  0.2622
 6826SOL    HW327077   2.832   3.683   5.051  0.5933  1.9022 -2.1234
 6826SOL    MW427078   2.871   3.731   5.112  0.1169  0.2448 -0.5252
 6827SOL     OW27079   5.850   6.199   3.363  0.1720 -0.4575  0.3931
 6827SOL    HW227080   5.923   6.261   3.364  0.0647 -0.2990 -0.4883
 6827SOL    HW327081   5.887   6.120   3.323 -0.4221  0.0161 -1.1484
 6827SOL    MW427082   5.865   6.197   3.358 -0.3587  0.4529  0.1633
 6828SOL     OW27083   2.630   1.193   3.347  0.5421  0.1721 -0.3586
 6828SOL    HW227084   2.653   1.243   3.425  2.6261 -0.7545 -0.3028
 6828SOL    HW327085   2.548   1.232   3.316 -0.4017  0.5088  2.3233
 6828SOL    MW427086   2.622   1.205   3.353  0.1141 -0.3961  0.3672
 6829SOL     OW27087   2.815   2.226   5.471 -0.3862  0.6359  0.0112
 6829SOL    HW227088   2.907   2.251   5.466 -0.0125 -0.2693  1.7322
 6829SOL    HW327089   2.778   2.282   5.540 -0.2304 -1.3805  1.8456
 6829SOL    MW427090   2.822   2.237   5.480  0.1849 -0.0602  0.3286
 6830SOL     OW27091   6.220   3.432   1.414  0.4067 -0.6536  0.0805
 6830SOL    HW227092   6.139   3.415   1.463 -0.9010  0.0231 -1.7095
 6830SOL    HW327093   6.250   3.517   1.447  0.3172 -0.8414  0.6636
 6830SOL    MW427094   6.213   3.441   1.425 -0.0056 -0.2409 -0.3585
 6831SOL     OW27095   0.728   3.434   2.342  0.0126 -0.1676 -0.8189
 6831SOL    HW227096   0.781   3.465   2.416 -0.5532 -1.0638 -0.0127
 6831SOL    HW327097   0.792   3.406   2.277  0.5234  1.0835 -0.8822
 6831SOL    MW427098   0.744   3.434   2.343  0.1264 -0.7391 -0.2936
 6832SOL     OW27099   3.927   5.527   4.472 -0.4772 -0.7662  0.4141
 6832SOL    HW227100   3.875   5.456   4.512  0.2406 -0.3296  2.2152
 6832SOL    HW327101   3.920   5.599   4.534 -0.3565  0.4239 -0.9074
 6832SOL    MW427102   3.919   5.527   4.486 -0.1393  0.3484  0.1559
 6833SOL     OW27103   5.134   6.458   5.334  0.0232 -0.3581 -0.1793
 6833SOL    HW227104   5.174   6.371   5.333  1.4552  0.2640  0.3620
 6833SOL    HW327105   5.156   6.494   5.420  1.5212  1.4309 -1.2209
 6833SOL    MW427106   5.143   6.451   5.345  0.3125 -0.6500 -0.2070
 6834SOL     OW27107   3.084   3.580   4.054  0.2632  0.8279  0.1125
 6834SOL    HW227108   3.052   3.555   3.968  0.4247 -0.8355  0.4957
 6834SOL    HW327109   3.010   3.623   4.096 -0.5010 -0.2007 -0.1367
 6834SOL    MW427110   3.070   3.582   4.048 -0.5694 -0.0886 -0.0986
 6835SOL     OW27111   1.258   1.747   2.234 -0.6825 -0.1370 -0.2392
 6835SOL    HW227112   1.253   1.747   2.138  0.0066 -2.7556 -0.3477
 6835SOL    HW327113   1.192   1.683   2.261  1.9527 -2.7124  0.6812
 6835SOL    MW427114   1.249   1.738   2.225  0.6190  0.0719 -0.4748
 6836SOL     OW27115   3.289   3.876   0.108  0.5778 -0.1728  0.0041
 6836SOL    HW227116   3.345   3.949   0.135  1.2361 -0.8032  0.4021
 6836SOL    HW327117   3.255   3.842   0.191  1.1321 -0.9723 -0.0856
 6836SOL    MW427118   3.292   3.881   0.123  0.2889  0.5828  0.2439
 6837SOL     OW27119   3.847   6.101   6.119 -0.2818  0.1627 -0.5033
 6837SOL    HW227120   3.927   6.052   6.139 -1.0652 -1.4217 -0.9966
 6837SOL    HW327121   3.808   6.120   6.205  0.3587  0.5060 -0.2814
 6837SOL    MW427122   3.852   6.097   6.133  0.0456 -0.0683 -0.1162
 6838SOL     OW27123   4.667   4.861   1.638  0.5138  0.3515 -0.1922
 6838SOL    HW227124   4.619   4.890   1.560 -0.9755  1.1833  0.9593
 6838SOL    HW327125   4.753   4.835   1.606 -0.5424 -0.8026 -2.3271
 6838SOL    MW427126   4.672   4.861   1.623  0.2227  0.1929  0.2928
 6839SOL     OW27127   2.191   3.955   6.333 -0.3750 -0.2015  0.2277
 6839SOL    HW227128   2.280   3.935   6.304  0.0780  3.2513 -1.2068
 6839SOL    HW327129   2.199   3.967   6.427  0.9045  0.8989  0.0133
 6839SOL    MW427130   2.204   3.954   6.342  0.2777 -0.2291 -0.2321
 6840SOL     OW27131   3.042   6.365   1.633 -0.3504 -0.4025 -0.0697
 6840SOL    HW227132   3.022   6.375   1.540  1.1304 -1.5821 -0.5440
 6840SOL    HW327133   3.012   6.277   1.655 -1.1249  0.0427  0.7060
 6840SOL    MW427134   3.035   6.355   1.623 -0.7973  0.0631 -0.1431
 6841SOL     OW27135   6.359   0.654   5.255 -0.0206  1.0824  0.2635
 6841SOL    HW227136   6.355   0.617   5.343 -0.1111 -0.8537 -0.5215
 6841SOL    HW327137   6.300   0.729   5.259  0.1214  1.1587  1.8870
 6841SOL    MW427138   6.351   0.659   5.267  0.0293 -0.2988  0.4170
 6842SOL     OW27139   1.162   3.742   4.445 -0.0474 -0.3133 -0.2490
 6842SOL    HW227140   1.182   3.714   4.535  0.1417 -0.4960 -0.3466
 6842SOL    HW327141   1.229   3.807   4.425 -0.9379  0.7733  0.2470
 6842SOL    MW427142   1.174   3.747   4.454  0.0841 -0.3858 -0.1082
 6843SOL     OW27143   4.186   2.554   1.373  0.5454 -0.2518  0.7374
 6843SOL    HW227144   4.156   2.523   1.288 -0.3525  1.9612  0.1871
 6843SOL    HW327145   4.277   2.580   1.359  0.1982  0.7320  0.2724
 6843SOL    MW427146   4.194   2.553   1.360  0.5322 -0.6691  1.0036
 6844SOL     OW27147   2.013   1.502   6.062 -0.2632  0.3947 -0.5544
 6844SOL    HW227148   1.976   1.565   5.999 -0.0799  1.2331  0.1575
 6844SOL    HW327149   2.073   1.554   6.115 -0.1484 -0.3801  0.0934
 6844SOL    MW427150   2.016   1.517   6.061 -0.4311 -0.0708 -0.4435
 6845SOL     OW27151   2.317   1.356   2.853 -0.1420  0.7042  0.5943
 6845SOL    HW227152   2.255   1.411   2.901  0.7580  2.6327 -0.3335
 6845SOL    HW327153   2.300   1.267   2.885 -3.4404  1.0791  0.3097
 6845SOL    MW427154   2.306   1.352   2.864 -0.1470 -0.0835 -0.0325
 6846SOL     OW27155   1.327   4.514   4.756  0.0893  0.3936 -0.2651
 6846SOL    HW227156   1.310   4.562   4.675  1.0252 -1.4806 -1.6531
 6846SOL    HW327157   1.260   4.445   4.758 -0.6481  1.1037  1.1966
 6846SOL    MW427158   1.316   4.511   4.746  0.1191 -0.1630 -0.2497
 6847SOL     OW27159   5.192   4.022   5.602  0.7867  0.1623  0.0144
 6847SOL    HW227160   5.239   4.020   5.518  1.8716 -1.6020  0.6184
 6847SOL    HW327161   5.116   4.078   5.585  0.9754 -0.1398 -2.1511
 6847SOL    MW427162   5.188   4.029   5.588  0.0200 -0.1412  0.2263
 6848SOL     OW27163   0.958   4.561   1.175  0.1018 -0.5407  0.1112
 6848SOL    HW227164   0.962   4.532   1.084 -0.4494 -2.2234  0.5999
 6848SOL    HW327165   0.905   4.641   1.172  1.6570  0.5231 -1.2544
 6848SOL    MW427166   0.952   4.568   1.162 -0.0221 -0.3565 -0.1088
 6849SOL     OW27167   0.811   5.535   5.225 -0.9533  0.6557  0.0161
 6849SOL    HW227168   0.841   5.445   5.241 -0.7664  0.8269  0.6432
 6849SOL    HW327169   0.855   5.561   5.144 -0.7071  0.3199  0.0408
 6849SOL    MW427170   0.821   5.526   5.216  0.3097  0.6532 -0.3129
 6850SOL     OW27171   0.536   3.725   4.679  0.7307  0.0910 -0.4736
 6850SOL    HW227172   0.441   3.726   4.673  0.7064  1.6253 -0.1393
 6850SOL    HW327173   0.566   3.754   4.593  0.8272  1.3929 -0.0298
 6850SOL    MW427174   0.527   3.729   4.667 -0.4478  0.0825 -0.3504
 6851SOL     OW27175   5.127   1.785   4.418 -0.0699  0.0396  0.1675
 6851SOL    HW227176   5.096   1.778   4.509 -1.0766  0.0888 -0.1676
 6851SOL    HW327177   5.061   1.838   4.374  0.7221  0.5189 -0.4637
 6851SOL    MW427178   5.115   1.791   4.425  0.2107  0.1066 -0.2758
 6852SOL     OW27179   3.525   2.929   0.636  0.3052  0.7126  0.1152
 6852SOL    HW227180   3.611   2.922   0.596  0.5764  3.2649  0.0783
 6852SOL    HW327181   3.537   2.898   0.726  1.1783  0.6965 -0.0008
 6852SOL    MW427182   3.538   2.924   0.643 -0.1816  0.1941  0.9379
 6853SOL     OW27183   5.250   5.023   3.911 -0.2430  0.2402  0.3255
 6853SOL    HW227184   5.188   5.020   3.984 -0.8377 -1.5134 -0.1987
 6853SOL    HW327185   5.335   5.003   3.952 -0.5750 -0.7465  0.5750
 6853SOL    MW427186   5.253   5.020   3.926  0.6084  0.0396  0.0409
 6854SOL     OW27187   5.776   2.448   1.099  0.2358 -0.4913 -0.3420
 6854SOL    HW227188   5.802   2.385   1.167 -0.5803 -1.0154 -0.5031
 6854SOL    HW327189   5.854   2.458   1.045  0.6177 -0.7606  0.1478
 6854SOL    MW427190   5.790   2.441   1.101 -0.2943  0.5438  0.2445
 6855SOL     OW27191   3.253   0.291   0.469 -0.5469  0.1574  0.0976
 6855SOL    HW227192   3.183   0.228   0.451  0.9895 -1.9410  0.9870
 6855SOL    HW327193   3.230   0.330   0.553 -1.3466  0.5422 -0.2966
 6855SOL    MW427194   3.241   0.288   0.478  0.3112  0.0553  0.1470
 6856SOL     OW27195   3.243   2.223   6.100  0.1009  0.2168  0.3880
 6856SOL    HW227196   3.297   2.302   6.099  0.9920 -0.3447  1.3893
 6856SOL    HW327197   3.264   2.179   6.017 -0.6318  1.1600 -0.3128
 6856SOL    MW427198   3.253   2.227   6.089  0.1143 -0.4131 -0.2664
 6857SOL     OW27199   3.274   2.082   5.848  0.1490  0.1534 -0.4056
 6857SOL    HW227200   3.274   2.049   5.758 -0.0660 -0.0101 -0.3445
 6857SOL    HW327201   3.295   2.005   5.901 -1.1043 -0.0650 -0.1967
 6857SOL    MW427202   3.277   2.067   5.843  0.0060  0.2292  0.2786
 6858SOL     OW27203   5.563   6.265   1.096  0.5278  0.2626 -0.2351
 6858SOL    HW227204   5.605   6.203   1.036  1.2095 -0.3629  0.8573
 6858SOL    HW327205   5.594   6.239   1.183 -1.7637  0.0620  0.5882
 6858SOL    MW427206   5.573   6.253   1.100  0.1391 -0.0791  0.4558
 6859SOL     OW27207   1.759   4.890   3.184  0.0602  0.3208  0.1477
 6859SOL    HW227208   1.781   4.831   3.113  1.2057  0.4803  0.3482
 6859SOL    HW327209   1.681   4.852   3.224 -0.8102  0.4186 -1.3921
 6859SOL    MW427210   1.752   4.877   3.180 -0.4586  0.3083 -0.2488
 6860SOL     OW27211   2.794   2.988   3.264  0.2592  0.1096 -0.1299
 6860SOL    HW227212   2.870   3.045   3.255 -0.6867  1.3899 -0.2243
 6860SOL    HW327213   2.812   2.914   3.205  1.4420  0.3602 -0.0916
 6860SOL    MW427214   2.806   2.986   3.255 -0.4674  0.1169 -0.5989
 6861SOL     OW27215   6.163   3.349   5.957  0.0282  0.2619  0.7923
 6861SOL    HW227216   6.134   3.259   5.947 -0.1463  0.3185  0.7865
 6861SOL    HW327217   6.244   3.354   5.906 -1.4912  0.8835 -1.7385
 6861SOL    MW427218   6.170   3.338   5.949 -0.0410 -0.0899 -0.6295
 6862SOL     OW27219   6.372   4.147   2.703 -0.1811  0.4931  0.4446
 6862SOL    HW227220   6.343   4.201   2.630  2.0837 -0.0522 -0.9369
 6862SOL    HW327221   6.355   4.200   2.781  0.5147  2.5304 -0.7383
 6862SOL    MW427222   6.366   4.161   2.704  0.7007  0.5378  0.4260
 6863SOL     OW27223   2.357   4.774   4.443 -0.0802 -0.4856 -0.0558
 6863SOL    HW227224   2.299   4.751   4.516 -2.1280 -0.9134 -1.7081
 6863SOL    HW327225   2.309   4.746   4.365  1.5138  0.9635 -1.6489
 6863SOL    MW427226   2.343   4.767   4.443  0.2431  0.4073 -0.0962
 6864SOL     OW27227   1.003   4.181   4.514 -0.2746 -0.2242 -0.1062
 6864SOL    HW227228   1.098   4.180   4.518 -0.3083 -1.4560  0.8303
 6864SOL    HW327229   0.975   4.108   4.569 -1.7259 -0.8729 -1.5852
 6864SOL    MW427230   1.012   4.171   4.521  0.1294 -0.4747 -0.2337
 6865SOL     OW27231   6.366   1.893   1.068 -0.6077  0.1199 -0.0560
 6865SOL    HW227232   6.390   1.982   1.042 -2.1011  0.5155 -0.1421
 6865SOL    HW327233   6.439   1.865   1.124  0.5871  0.8405 -1.1858
 6865SOL    MW427234   6.379   1.901   1.072  0.0426 -0.1014 -0.2918
 6866SOL     OW27235   5.537   0.886   2.908  0.4438  0.4338 -0.4842
 6866SOL    HW227236   5.631   0.871   2.917  0.2191 -0.9791 -0.2536
 6866SOL    HW327237   5.498   0.798   2.912 -0.8868  0.9961 -0.5557
 6866SOL    MW427238   5.544   0.872   2.910  0.1878  0.0813 -0.2546
 6867SOL     OW27239   1.146   4.754   5.820 -0.1037 -0.5323  0.1459
 6867SOL    HW227240   1.194   4.812   5.762 -1.9839  1.7313  0.7271
 6867SOL    HW327241   1.106   4.689   5.762  0.4692 -0.1128 -0.7403
 6867SOL    MW427242   1.147   4.753   5.805 -0.0763  0.4136  0.5589
 6868SOL     OW27243   3.632   5.737   4.234  0.1740  0.1960  0.0237
 6868SOL    HW227244   3.566   5.673   4.207 -1.3652  2.1506 -1.1253
 6868SOL    HW327245   3.635   5.730   4.330  1.4250 -2.7840 -0.1120
 6868SOL    MW427246   3.624   5.728   4.243 -0.2972 -1.2467  0.1053
 6869SOL     OW27247   3.449   4.455   2.375 -0.2613 -0.5348 -0.2761
 6869SOL    HW227248   3.499   4.532   2.403 -1.6286 -0.0464  0.9223
 6869SOL    HW327249   3.374   4.492   2.328 -0.4879 -1.1757 -0.4166
 6869SOL    MW427250   3.446   4.470   2.372 -0.5470 -0.1048  0.1171
 6870SOL     OW27251   4.061   2.241   2.579  0.2745 -0.0597 -1.2263
 6870SOL    HW227252   4.114   2.300   2.632 -0.3202  0.5953 -1.3338
 6870SOL    HW327253   4.101   2.155   2.590  1.1425  0.3636 -1.0446
 6870SOL    MW427254   4.073   2.237   2.588 -0.5940  0.7869  0.4047
 6871SOL     OW27255   0.535   5.573   4.869 -0.0542 -0.7549  0.3243
 6871SOL    HW227256   0.588   5.597   4.946  0.9692  0.2138 -0.6469
 6871SOL    HW327257   0.529   5.477   4.874 -1.9322 -0.5946  2.8083
 6871SOL    MW427258   0.541   5.563   4.880  0.4222  0.4226  0.2631
 6872SOL     OW27259   4.386   3.814   0.060 -0.0153  0.0425 -0.1920
 6872SOL    HW227260   4.434   3.836  -0.020  0.2827 -1.1948 -0.3796
 6872SOL    HW327261   4.295   3.807   0.033 -0.2157  1.6448  0.0079
 6872SOL    MW427262   4.380   3.816   0.046 -0.3382  0.7227  0.0354
 6873SOL     OW27263   1.427   5.264   3.670 -0.2192 -0.1015 -0.5481
 6873SOL    HW227264   1.411   5.248   3.763  0.1027  1.5384 -0.1692
 6873SOL    HW327265   1.462   5.182   3.636 -3.7750 -2.0120 -0.1071
 6873SOL    MW427266   1.429   5.251   3.678 -0.2566  0.0947  0.1189
 6874SOL     OW27267   3.396   3.337   0.879  0.2171  0.6183 -0.0956
 6874SOL    HW227268   3.448   3.306   0.805  1.5333  0.3205  0.9153
 6874SOL    HW327269   3.421   3.429   0.889  0.8827  0.3684  0.6432
 6874SOL    MW427270   3.406   3.345   0.871  0.3973  0.4462 -0.3283
 6875SOL     OW27271   6.341   4.733   4.238  0.4177 -0.0177 -0.3634
 6875SOL    HW227272   6.258   4.724   4.191 -0.2670  2.0181  0.3606
 6875SOL    HW327273   6.321   4.703   4.327  0.9095 -1.0231 -0.5778
 6875SOL    MW427274   6.327   4.728   4.244 -0.0178  0.5628  0.5277
 6876SOL     OW27275   5.293   2.514   4.415 -0.1862  0.1581  0.4346
 6876SOL    HW227276   5.274   2.588   4.357  0.8601  0.6923  0.7369
 6876SOL    HW327277   5.337   2.554   4.491  0.4181 -0.7672  0.5891
 6876SOL    MW427278   5.297   2.529   4.417  0.0560 -0.7074 -0.1384
 6877SOL     OW27279   1.517   2.608   6.389  0.2255  0.5275 -0.2041
 6877SOL    HW227280   1.488   2.643   6.473  0.0896 -0.6884  0.2798
 6877SOL    HW327281   1.498   2.677   6.326 -2.8167  0.1874  0.2240
 6877SOL    MW427282   1.511   2.621   6.392 -0.0569 -0.4117 -0.5211
 6878SOL     OW27283   0.896   6.111   4.063 -0.6601  0.1543 -0.7896
 6878SOL    HW227284   0.978   6.066   4.043  0.4216  2.1219 -1.0490
 6878SOL    HW327285   0.869   6.076   4.148 -0.7629 -2.1115 -1.6769
 6878SOL    MW427286   0.903   6.101   4.071 -0.2952  0.2738 -0.2625
 6879SOL     OW27287   5.005   5.045   4.556 -0.1435  0.5735 -0.4990
 6879SOL    HW227288   5.072   5.023   4.620  0.4623  0.0258 -1.2995
 6879SOL    HW327289   4.923   5.012   4.593  0.2488 -0.0188 -0.1518
 6879SOL    MW427290   5.003   5.038   4.569  0.5205  0.4735 -0.0947
 6880SOL     OW27291   3.733   5.077   5.459  0.0319 -0.3308  0.8178
 6880SOL    HW227292   3.741   5.165   5.494 -2.8742  0.8370 -1.0390
 6880SOL    HW327293   3.641   5.053   5.473  0.2637 -2.2466 -0.4628
 6880SOL    MW427294   3.722   5.085   5.465 -0.3892 -0.3619 -0.5822
 6881SOL     OW27295   3.221   2.690   2.360  0.0759  0.0009 -0.1745
 6881SOL    HW227296   3.145   2.691   2.419  0.2174 -1.3267  0.0668
 6881SOL    HW327297   3.282   2.629   2.401  1.1728  0.8385 -0.5146
 6881SOL    MW427298   3.219   2.682   2.373 -0.0968  0.7070  0.2015
 6882SOL     OW27299   6.411   5.806   6.041  0.6024 -0.1840 -0.2507
 6882SOL    HW227300   6.399   5.892   6.082 -1.2778  0.6498 -2.3581
 6882SOL    HW327301   6.480   5.765   6.093  0.7895  2.1359  1.5278
 6882SOL    MW427302   6.419   5.812   6.054 -0.3253  0.5425  0.2537
 6883SOL     OW27303   4.186   5.938   1.833 -0.2287 -0.3713  0.2793
 6883SOL    HW227304   4.189   5.876   1.760 -0.9793  1.7093 -1.6324
 6883SOL    HW327305   4.272   5.980   1.832 -0.2054 -0.4062  0.6827
 6883SOL    MW427306   4.198   5.935   1.823  0.1354 -0.1262 -0.6111
 6884SOL     OW27307   4.780   0.247   3.382 -0.0541  0.3509 -0.1333
 6884SOL    HW227308   4.848   0.269   3.319  0.0867  0.9554  0.2255
 6884SOL    HW327309   4.732   0.329   3.396 -0.4427  0.0865  0.1123
 6884SOL    MW427310   4.782   0.261   3.375 -0.3248  0.2026  0.4884
 6885SOL     OW27311   5.941   4.811   0.147  0.0289  0.5900  0.0163
 6885SOL    HW227312   5.861   4.775   0.187  1.0082 -0.9616  0.6976
 6885SOL    HW327313   5.993   4.734   0.126  0.5343  1.4826 -2.2451
 6885SOL    MW427314   5.937   4.796   0.150  0.0785  0.1738  0.1692
 6886SOL     OW27315   0.425   1.836   1.059 -0.4728 -0.3693  0.3563
 6886SOL    HW227316   0.487   1.871   1.124  0.3398  1.4097 -1.2862
 6886SOL    HW327317   0.341   1.837   1.104  0.2481 -0.2776  1.7642
 6886SOL    MW427318   0.422   1.841   1.074 -0.0197  0.4117 -0.3093
 6887SOL     OW27319   2.513   1.961   0.313 -0.5895  0.1544 -0.4720
 6887SOL    HW227320   2.518   1.990   0.222 -0.3641 -0.6002 -0.7078
 6887SOL    HW327321   2.560   1.878   0.314 -2.2896 -0.8503 -0.0943
 6887SOL    MW427322   2.520   1.954   0.301 -0.2573  0.3521 -0.2364
 6888SOL     OW27323   5.906   6.204   0.728 -0.6337  0.0573 -0.5149
 6888SOL    HW227324   5.873   6.166   0.810  0.9338 -1.4052 -0.5156
 6888SOL    HW327325   5.934   6.292   0.753  1.7746 -1.0460  1.1041
 6888SOL    MW427326   5.905   6.210   0.742  0.0127 -0.2002  0.1873
 6889SOL     OW27327   2.878   5.074   5.368 -0.1106  0.3882  0.4023
 6889SOL    HW227328   2.914   4.988   5.389  1.7442  1.2853  1.1055
 6889SOL    HW327329   2.792   5.075   5.409 -0.1430 -1.1203  0.4054
 6889SOL    MW427330   2.872   5.063   5.376  0.2479 -0.2139  0.1231
 6890SOL     OW27331   5.200   3.316   5.138 -0.6128  0.4700 -0.1783
 6890SOL    HW227332   5.158   3.379   5.080  1.2496  1.0721 -0.9589
 6890SOL    HW327333   5.212   3.237   5.085 -0.9188  0.2458  0.0860
 6890SOL    MW427334   5.196   3.314   5.123  0.3685 -0.0880  0.2697
 6891SOL     OW27335   6.026   1.022   4.819 -0.1817 -0.3529 -0.1301
 6891SOL    HW227336   6.102   1.078   4.804  0.3791 -1.2507 -0.6829
 6891SOL    HW327337   6.062   0.936   4.842 -1.0239 -0.7423 -0.2099
 6891SOL    MW427338   6.040   1.018   4.820 -0.0840 -0.2454  0.1208
 6892SOL     OW27339   2.527   5.274   1.112 -0.0663  0.2276  0.4122
 6892SOL    HW227340   2.513   5.239   1.025  1.5340  0.1827  0.1490
 6892SOL    HW327341   2.596   5.220   1.150 -0.7914  0.1898  1.7538
 6892SOL    MW427342   2.534   5.263   1.106 -0.2664 -0.1261  0.2773
 6893SOL     OW27343   1.128   0.586   5.282 -0.0229 -0.6674 -0.3768
 6893SOL    HW227344   1.070   0.615   5.212 -1.6281 -1.7396  0.4432
 6893SOL    HW327345   1.216   0.606   5.251 -0.7782  4.8232 -0.0923
 6893SOL    MW427346   1.132   0.593   5.269 -0.1492 -0.9114  0.0457
 6894SOL     OW27347   3.267   4.206   0.521 -0.2433  0.1980  0.1965
 6894SOL    HW227348   3.221   4.128   0.489 -0.2722  0.4939 -0.4999
 6894SOL    HW327349   3.253   4.271   0.453 -0.2815  0.8386  0.8095
 6894SOL    MW427350   3.259   4.204   0.508 -0.2201 -0.6884  0.5445
 6895SOL     OW27351   0.610   2.892   5.348  0.4266 -0.7310  0.7412
 6895SOL    HW227352   0.524   2.867   5.315  0.3201 -0.2408  0.6268
 6895SOL    HW327353   0.594   2.922   5.437  0.3127  0.2663  0.4045
 6895SOL    MW427354   0.597   2.893   5.355 -0.2398  0.1105  0.1309
 6896SOL     OW27355   4.066   5.026   4.833 -0.0573 -0.1153 -0.5675
 6896SOL    HW227356   3.984   5.012   4.785 -0.4850  1.5107 -0.3725
 6896SOL    HW327357   4.038   5.044   4.923  0.6104 -0.7467 -0.2164
 6896SOL    MW427358   4.051   5.026   4.839 -0.3576  0.4165  0.8631
 6897SOL     OW27359   1.308   0.059   6.080 -0.8564  0.1309  0.1297
 6897SOL    HW227360   1.388   0.057   6.133 -0.6019  2.3744 -0.0692
 6897SOL    HW327361   1.324  -0.005   6.011 -0.0586 -0.8488  1.1790
 6897SOL    MW427362   1.321   0.051   6.078  0.4358 -0.3004  0.5560
 6898SOL     OW27363   4.945   1.753   1.310 -0.4597  0.4834 -0.0083
 6898SOL    HW227364   4.941   1.783   1.400 -1.0940 -2.6832  1.1583
 6898SOL    HW327365   4.906   1.666   1.312  0.9870 -0.3900 -3.0477
 6898SOL    MW427366   4.939   1.746   1.322 -0.8231 -0.4137  0.1639
 6899SOL     OW27367   0.300   4.654   4.280 -0.5656 -0.0741 -0.0019
 6899SOL    HW227368   0.312   4.630   4.188 -3.2148 -1.5144 -0.0811
 6899SOL    HW327369   0.292   4.749   4.280  0.4599  0.0367 -1.0899
 6899SOL    MW427370   0.301   4.663   4.268 -0.3271 -0.2622 -0.4703
 6900SOL     OW27371   0.952   0.548   5.613  0.0995  1.0142 -0.7186
 6900SOL    HW227372   1.047   0.555   5.625  0.0114  1.1719 -0.0033
 6900SOL    HW327373   0.917   0.556   5.702 -0.5603  0.5010 -0.9269
 6900SOL    MW427374   0.960   0.550   5.627  0.4549 -0.3327 -0.5526
 6901SOL     OW27375   3.618   2.930   4.339  0.0754 -0.2041  0.3645
 6901SOL    HW227376   3.713   2.936   4.324  0.4810  2.7974  3.0637
 6901SOL    HW327377   3.609   2.870   4.413  0.0714  0.7258  1.1378
 6901SOL    MW427378   3.630   2.923   4.347 -0.3152  0.1915 -0.1638
 6902SOL     OW27379   3.776   6.049   0.932 -0.5386  0.0488  0.0704
 6902SOL    HW227380   3.810   6.038   0.843 -3.9787  1.0034 -1.5692
 6902SOL    HW327381   3.787   5.963   0.973 -0.1684 -0.8602 -1.8218
 6902SOL    MW427382   3.782   6.036   0.926 -0.0547  0.2772 -0.3173
 6903SOL     OW27383   4.478   3.555   5.105 -0.1918 -0.0055  0.4725
 6903SOL    HW227384   4.440   3.635   5.068 -0.3151 -1.0684 -1.8012
 6903SOL    HW327385   4.412   3.488   5.092  0.2732 -0.6997  1.5338
 6903SOL    MW427386   4.465   3.557   5.099 -0.5230  0.0224 -0.2183
 6904SOL     OW27387   2.893   1.729   2.653  0.2748  0.4564  0.1872
 6904SOL    HW227388   2.979   1.726   2.612  0.1272 -1.0649 -0.0697
 6904SOL    HW327389   2.908   1.700   2.743 -0.1320 -0.9759 -0.1922
 6904SOL    MW427390   2.906   1.725   2.659 -0.1551 -0.0111 -0.6160
 6905SOL     OW27391   2.171   5.254   5.660  0.2085  0.0563  0.4063
 6905SOL    HW227392   2.218   5.256   5.577  1.5682  0.0814  1.1359
 6905SOL    HW327393   2.079   5.265   5.637  0.7368  2.0496 -0.9569
 6905SOL    MW427394   2.165   5.256   5.646 -0.2827 -0.1063  0.0001
 6906SOL     OW27395   3.017   0.925   4.319  0.0382 -0.5699 -0.1265
 6906SOL    HW227396   2.962   0.884   4.387  1.1355 -4.3329 -1.2628
 6906SOL    HW327397   3.080   0.977   4.368 -1.9199  0.5285  1.4146
 6906SOL    MW427398   3.018   0.926   4.334 -0.3168  0.4224 -0.3572
 6907SOL     OW27399   2.018   0.717   4.907  0.3453 -0.0556 -0.3234
 6907SOL    HW227400   2.107   0.720   4.941  1.2318  0.5110 -2.5692
 6907SOL    HW327401   1.980   0.801   4.933  0.9168  0.2647 -0.5162
 6907SOL    MW427402   2.025   0.728   4.915 -0.9057  0.2944  0.2566
 6908SOL     OW27403   5.813   4.357   2.475  0.0073 -0.5138 -0.2282
 6908SOL    HW227404   5.864   4.322   2.402 -0.3734  0.1107 -0.8096
 6908SOL    HW327405   5.772   4.436   2.439  0.0447 -0.0433  0.7539
 6908SOL    MW427406   5.814   4.362   2.460  0.3510 -0.3083  0.2018
 6909SOL     OW27407   6.306   3.091   6.185 -0.1177  0.1573  0.2390
 6909SOL    HW227408   6.313   2.999   6.212  2.4347  0.2718  0.2553
 6909SOL    HW327409   6.314   3.089   6.090 -0.2117  0.3545  0.2261
 6909SOL    MW427410   6.308   3.078   6.176 -0.2985 -0.6975 -0.4689
 6910SOL     OW27411   4.282   5.339   5.618  0.1735  0.1115  0.0558
 6910SOL    HW227412   4.306   5.247   5.611  0.4842  0.2033 -0.0831
 6910SOL    HW327413   4.360   5.387   5.590 -0.1528  0.4100 -0.3463
 6910SOL    MW427414   4.295   5.333   5.614  0.2266  0.3858 -0.2251
 6911SOL     OW27415   2.687   1.350   3.981  0.2792 -0.8838  0.1440
 6911SOL    HW227416   2.637   1.324   3.903  0.5644  0.3460 -0.4724
 6911SOL    HW327417   2.692   1.445   3.976  0.2729 -0.7814  1.7147
 6911SOL    MW427418   2.681   1.359   3.970  0.4682 -0.2050  0.0617
 6912SOL     OW27419   5.454   3.207   4.839  0.2293 -0.3751 -0.1866
 6912SOL    HW227420   5.499   3.133   4.798  0.3249 -0.3351 -0.1558
 6912SOL    HW327421   5.505   3.224   4.919  2.2651  1.8437 -1.8112
 6912SOL    MW427422   5.467   3.199   4.844 -0.7093 -0.5458  0.2750
 6913SOL     OW27423   3.409   6.387   6.338  0.3582 -0.4193  0.0960
 6913SOL    HW227424   3.361   6.437   6.272  0.3597 -0.3794  0.1253
 6913SOL    HW327425   3.501   6.410   6.323  0.2835  0.3633  0.7501
 6913SOL    MW427426   3.415   6.396   6.327  0.5734  0.4523  0.1622
 6914SOL     OW27427   2.879   5.587   4.075 -0.5650 -0.0534  0.0087
 6914SOL    HW227428   2.826   5.635   4.138 -1.0495  0.4801 -0.7777
 6914SOL    HW327429   2.915   5.513   4.124 -0.2410  0.8002  1.1146
 6914SOL    MW427430   2.877   5.584   4.090 -0.3672 -0.4889  0.0371
 6915SOL     OW27431   2.537   0.066   0.522 -0.1080 -0.4339 -0.6399
 6915SOL    HW227432   2.497  -0.015   0.490 -1.4015 -0.4313  0.8981
 6915SOL    HW327433   2.583   0.101   0.445 -0.9134 -1.7567 -1.7787
 6915SOL    MW427434   2.538   0.060   0.507  0.2269 -0.4762 -0.1664
 6916SOL     OW27435   6.197   2.255   4.913  0.4332  0.0307 -0.5933
 6916SOL    HW227436   6.251   2.197   4.859 -0.1238 -1.1532  0.0876
 6916SOL    HW327437   6.221   2.233   5.003 -0.6318  0.0287 -0.2985
 6916SOL    MW427438   6.207   2.245   4.918  1.0073  0.7083  0.2482
 6917SOL     OW27439   2.873   5.632   5.600 -0.5424  0.1318  0.0429
 6917SOL    HW227440   2.919   5.633   5.684 -0.4865 -2.1000  0.1090
 6917SOL    HW327441   2.943   5.618   5.535 -0.3194  3.7735 -0.6756
 6917SOL    MW427442   2.889   5.630   5.603  0.8991 -0.0015  0.5983
 6918SOL     OW27443   0.320   5.901   1.633  0.1255 -0.2967 -0.1389
 6918SOL    HW227444   0.267   5.970   1.593 -0.3068 -0.2043  0.5611
 6918SOL    HW327445   0.368   5.946   1.703 -0.9535 -0.8780  1.0161
 6918SOL    MW427446   0.319   5.916   1.637 -0.3607  0.2850  0.2609
 6919SOL     OW27447   5.538   3.911   5.276  0.4175 -0.4823 -0.5837
 6919SOL    HW227448   5.575   3.880   5.359  2.7553  1.0775 -0.9364
 6919SOL    HW327449   5.561   3.843   5.213  0.1519 -0.8709 -0.2634
 6919SOL    MW427450   5.546   3.898   5.279  0.2966  0.6194 -0.1040
 6920SOL     OW27451   6.029   4.121   1.432 -0.4328  0.1185 -0.9790
 6920SOL    HW227452   5.989   4.035   1.443  0.7475 -0.5358 -1.5089
 6920SOL    HW327453   6.117   4.102   1.398  1.0300  1.3748  1.7840
 6920SOL    MW427454   6.035   4.107   1.429  0.6231 -0.0755  0.0587
 6921SOL     OW27455   4.287   0.077   4.491 -0.5029 -0.1665 -0.0661
 6921SOL    HW227456   4.197   0.101   4.468 -0.9538  0.1870  1.8863
 6921SOL    HW327457   4.281   0.045   4.581  0.9936 -2.2826 -0.6354
 6921SOL    MW427458   4.275   0.076   4.500  0.2916 -0.4682 -0.5328
 6922SOL     OW27459   5.892   0.298   1.490 -1.0699  0.1743 -0.0546
 6922SOL    HW227460   5.924   0.340   1.410  0.6743  1.6044  1.2972
 6922SOL    HW327461   5.972   0.280   1.540 -2.0758 -1.3339  1.0665
 6922SOL    MW427462   5.907   0.301   1.486 -0.0681  0.8663  0.6404
 6923SOL     OW27463   3.151   6.216   3.292 -0.0570  0.0452  0.2964
 6923SOL    HW227464   3.165   6.279   3.221  3.3238 -0.8994 -0.0247
 6923SOL    HW327465   3.058   6.192   3.284 -0.4308  1.8723 -2.1434
 6923SOL    MW427466   3.140   6.221   3.281  0.1183  0.5497 -0.2615
 6924SOL     OW27467   6.178   5.396   6.330  0.1064  0.3319  0.5228
 6924SOL    HW227468   6.257   5.450   6.320 -0.3816  0.8504 -0.8210
 6924SOL    HW327469   6.184   5.332   6.259 -0.5569  0.2232  0.5619
 6924SOL    MW427470   6.189   5.395   6.319 -0.4247 -0.0967 -0.2150
 6925SOL     OW27471   0.866   3.486   3.541 -0.0294 -0.5694 -0.1469
 6925SOL    HW227472   0.804   3.559   3.545  1.5145  0.7468  1.0642
 6925SOL    HW327473   0.854   3.450   3.453 -3.6526 -1.5081  0.5614
 6925SOL    MW427474   0.856   3.491   3.530 -0.4883 -0.0036 -0.3863
 6926SOL     OW27475   3.988   2.699   3.886 -0.3348 -0.1830  0.1016
 6926SOL    HW227476   3.988   2.669   3.795 -1.6936  0.5683 -0.1798
 6926SOL    HW327477   4.065   2.756   3.892  1.5155 -2.5600  0.2949
 6926SOL    MW427478   3.998   2.702   3.874 -0.4784  0.0777 -0.3841
 6927SOL     OW27479   0.211   0.861   3.324 -0.1109 -0.1976 -0.7037
 6927SOL    HW227480   0.302   0.848   3.297 -0.2248 -2.2066 -0.3300
 6927SOL    HW327481   0.164   0.785   3.288 -1.8072  1.1580 -1.4862
 6927SOL    MW427482   0.217   0.849   3.316 -0.0757 -0.1775  0.2058
 6928SOL     OW27483   6.394   0.183   5.625 -0.5260 -0.0740 -0.2018
 6928SOL    HW227484   6.450   0.238   5.570 -0.2125  1.2394  1.3435
 6928SOL    HW327485   6.313   0.174   5.575 -0.5117  1.6583 -0.6278
 6928SOL    MW427486   6.391   0.189   5.612 -0.3011 -0.1574  0.6666
 6929SOL     OW27487   0.341   1.166   4.443 -0.0854 -0.6161 -0.1314
 6929SOL    HW227488   0.358   1.196   4.532  0.4876  0.7472 -0.6596
 6929SOL    HW327489   0.260   1.116   4.449 -1.5121  1.6349  0.7593
 6929SOL    MW427490   0.333   1.164   4.455  0.4302 -0.1879  0.2694
 6930SOL     OW27491   4.493   2.911   1.381  0.1968 -0.0840 -0.2778
 6930SOL    HW227492   4.410   2.950   1.408  0.2571 -0.4348  0.4182
 6930SOL    HW327493   4.546   2.910   1.460  0.2528 -1.4337 -0.3167
 6930SOL    MW427494   4.489   2.916   1.395  0.2521  0.4423 -0.0423
 6931SOL     OW27495   3.798   5.284   2.484  0.3512 -0.2185 -0.3376
 6931SOL    HW227496   3.840   5.360   2.523 -1.1033  0.6572 -0.4157
 6931SOL    HW327497   3.708   5.312   2.466 -0.5723 -2.2974  0.7014
 6931SOL    MW427498   3.791   5.298   2.486 -0.0048 -0.4662 -0.3443
 6932SOL     OW27499   4.975   3.858   5.525 -0.2264  0.0226  0.1228
 6932SOL    HW227500   5.033   3.931   5.547 -0.6630 -0.4347  3.0843
 6932SOL    HW327501   5.031   3.799   5.473  0.9534  1.1297  0.0853
 6932SOL    MW427502   4.990   3.859   5.521  0.4774  0.0085 -0.0524
 6933SOL     OW27503   1.123   3.601   3.624 -0.1979  0.3047  0.0957
 6933SOL    HW227504   1.157   3.601   3.535 -1.2379 -0.5634 -0.3345
 6933SOL    HW327505   1.037   3.559   3.616  0.0048 -0.4599  1.6160
 6933SOL    MW427506   1.116   3.595   3.611  0.1393 -0.7785  0.7206
 6934SOL     OW27507   3.732   3.783   2.420  0.3256  0.3203 -0.5339
 6934SOL    HW227508   3.661   3.723   2.396 -0.9696  1.1590  0.9880
 6934SOL    HW327509   3.744   3.769   2.514 -0.6319  3.0093  0.0631
 6934SOL    MW427510   3.724   3.773   2.429  0.3374 -0.0925  0.2445
 6935SOL     OW27511   5.360   6.331   2.428 -0.2122 -0.1554  0.2265
 6935SOL    HW227512   5.277   6.373   2.452  0.2066 -0.1681  1.8423
 6935SOL    HW327513   5.427   6.390   2.462  0.4173 -0.8308  0.1818
 6935SOL    MW427514   5.358   6.344   2.436 -0.0457  0.7795  0.0678
 6936SOL     OW27515   6.405   5.373   4.869  0.3314 -0.3389  0.0330
 6936SOL    HW227516   6.476   5.310   4.860  0.7259  0.1801 -0.5504
 6936SOL    HW327517   6.328   5.320   4.887  0.5527 -1.0432 -1.0227
 6936SOL    MW427518   6.404   5.358   4.870  0.5936  0.1287 -0.2948
 6937SOL     OW27519   3.676   2.667   0.848 -0.1746  0.4526  0.1200
 6937SOL    HW227520   3.715   2.727   0.912 -1.2903  1.9118 -0.4925
 6937SOL    HW327521   3.615   2.613   0.899  0.8619 -0.1976  0.6864
 6937SOL    MW427522   3.673   2.668   0.863  1.3896 -0.2930  0.1647
 6938SOL     OW27523   1.972   1.375   1.422  0.6957  0.7279  0.0992
 6938SOL    HW227524   1.995   1.467   1.430  1.2355  0.5563  0.5718
 6938SOL    HW327525   2.053   1.332   1.392  0.3623  0.4532 -0.4329
 6938SOL    MW427526   1.986   1.381   1.419 -0.2399  0.0112 -0.0434
 6939SOL     OW27527   2.127   1.068   5.832  0.1075 -0.9033 -0.1181
 6939SOL    HW227528   2.066   1.076   5.906 -0.0330  0.3747 -0.3495
 6939SOL    HW327529   2.212   1.094   5.868  0.0823 -0.4949 -0.3581
 6939SOL    MW427530   2.130   1.072   5.847 -0.0358 -0.0010 -0.3305
 6940SOL     OW27531   4.191   2.578   2.927  0.0783 -0.1165 -0.0026
 6940SOL    HW227532   4.245   2.572   3.006  0.1235  0.7239  0.0378
 6940SOL    HW327533   4.219   2.659   2.885  0.4321 -0.8260 -1.1686
 6940SOL    MW427534   4.202   2.588   2.932 -0.2106 -0.4880 -0.1772
 6941SOL     OW27535   0.782   5.808   2.588 -0.0329  0.3698 -0.2592
 6941SOL    HW227536   0.751   5.717   2.589 -2.0726  1.0090  0.5204
 6941SOL    HW327537   0.728   5.851   2.522 -0.4345  1.4014  0.6941
 6941SOL    MW427538   0.771   5.802   2.580 -0.5172 -0.4947  0.2975
 6942SOL     OW27539   5.471   0.058   0.504  0.3896  0.0048  0.4259
 6942SOL    HW227540   5.375   0.064   0.506  0.3533 -0.6197  0.9976
 6942SOL    HW327541   5.498   0.075   0.594  0.8670  0.7328  0.1581
 6942SOL    MW427542   5.462   0.061   0.516  0.2081 -0.1082 -0.7096
 6943SOL     OW27543   1.793   6.314   0.316 -0.2987  0.1065  0.1912
 6943SOL    HW227544   1.823   6.248   0.379 -2.2249  0.0152  1.0662
 6943SOL    HW327545   1.852   6.388   0.331  0.8130 -0.7689  0.3752
 6943SOL    MW427546   1.805   6.315   0.326  0.2286  0.2927 -0.2198
 6944SOL     OW27547   4.999   3.263   2.568  0.4275  0.2134  0.2689
 6944SOL    HW227548   5.024   3.171   2.569  1.6699  0.5266 -0.0721
 6944SOL    HW327549   5.075   3.309   2.604 -0.2362  1.0895  0.5753
 6944SOL    MW427550   5.013   3.257   2.573  0.7713  0.4206  0.6352
 6945SOL     OW27551   6.142   5.931   2.534  0.0448 -0.0382 -0.0792
 6945SOL    HW227552   6.231   5.965   2.547  0.6929 -0.9961 -1.6730
 6945SOL    HW327553   6.101   5.994   2.475 -0.1012  0.0403  0.1053
 6945SOL    MW427554   6.148   5.944   2.528  0.0086  0.6260  0.5128
 6946SOL     OW27555   4.588   1.692   3.852  0.4153 -0.2491 -0.3429
 6946SOL    HW227556   4.539   1.722   3.929 -1.0340 -1.1588 -0.8738
 6946SOL    HW327557   4.628   1.609   3.880 -0.7758 -1.0000 -0.7687
 6946SOL    MW427558   4.587   1.685   3.866 -1.0082  0.0077 -0.3763
 6947SOL     OW27559   1.501   4.414   5.576 -0.5391 -0.1267  0.1622
 6947SOL    HW227560   1.490   4.372   5.490 -1.5390 -0.5580  0.4933
 6947SOL    HW327561   1.446   4.492   5.571 -0.1289  0.1713  0.2119
 6947SOL    MW427562   1.493   4.419   5.564 -0.2947 -0.3382 -0.1120
 6948SOL     OW27563   4.675   6.131   3.165  0.9693  0.8776  0.3008
 6948SOL    HW227564   4.698   6.109   3.255  2.3600 -0.0162 -0.2497
 6948SOL    HW327565   4.756   6.119   3.115  0.5155  2.4143 -0.9029
 6948SOL    MW427566   4.689   6.127   3.170 -0.2781 -0.0083  0.2706
 6949SOL     OW27567   2.674   4.893   1.576  0.1499  0.0420 -0.4168
 6949SOL    HW227568   2.705   4.905   1.487  0.6396 -0.8837 -0.3828
 6949SOL    HW327569   2.642   4.802   1.578 -0.4764  0.2642  0.1663
 6949SOL    MW427570   2.674   4.882   1.565  0.0960  0.4330 -0.0600
 6950SOL     OW27571   1.358   3.851   5.166  0.6454  0.5738 -0.0928
 6950SOL    HW227572   1.380   3.904   5.242 -1.4065 -0.1316  1.0608
 6950SOL    HW327573   1.417   3.776   5.172  0.5686  0.5703  0.7647
 6950SOL    MW427574   1.369   3.848   5.177 -0.3503  0.1684 -0.2025
 6951SOL     OW27575   6.069   3.279   5.550  0.0730  0.5150  0.1908
 6951SOL    HW227576   6.024   3.306   5.470 -2.4336  0.7084  1.5491
 6951SOL    HW327577   6.062   3.355   5.608 -0.6236 -0.5184  1.5140
 6951SOL    MW427578   6.062   3.292   5.547 -0.6375 -0.0105 -0.5392
 6952SOL     OW27579   1.888   6.481   3.653  0.5088 -0.2790  0.1669
 6952SOL    HW227580   1.877   6.554   3.593  0.9248  0.3190  0.7951
 6952SOL    HW327581   1.915   6.408   3.598 -0.4827 -0.1188 -0.5471
 6952SOL    MW427582   1.890   6.481   3.638  0.0181  0.2555  0.3287
 6953SOL     OW27583   4.430   2.339   5.923 -0.1300  0.1626  0.2156
 6953SOL    HW227584   4.383   2.421   5.936 -1.1622 -0.2363 -0.7865
 6953SOL    HW327585   4.496   2.359   5.856  1.3672  0.7889  1.8107
 6953SOL    MW427586   4.433   2.353   5.916 -0.0090  0.3734  0.4232
 6954SOL     OW27587   5.773   2.049   3.814 -0.1744 -0.6026 -0.1352
 6954SOL    HW227588   5.683   2.058   3.846 -0.0073 -2.1216  0.8503
 6954SOL    HW327589   5.827   2.061   3.893  0.3309 -2.6447 -0.1162
 6954SOL    MW427590   5.768   2.052   3.829 -0.1024 -0.0348  0.1383
 6955SOL     OW27591   4.400   1.023   2.373 -0.5698  0.0869 -0.3904
 6955SOL    HW227592   4.343   1.044   2.446  0.8390  0.5203  0.6121
 6955SOL    HW327593   4.470   0.970   2.411  0.3603  0.5932 -1.3538
 6955SOL    MW427594   4.402   1.019   2.387 -0.1210  0.0245  0.4715
 6956SOL     OW27595   1.513   6.305   4.196 -0.7929  0.1215 -0.3249
 6956SOL    HW227596   1.498   6.355   4.115 -1.1782 -0.2477 -0.4829
 6956SOL    HW327597   1.455   6.346   4.260 -0.3540  0.5312 -0.1828
 6956SOL    MW427598   1.504   6.317   4.194 -0.2207  0.0651 -0.0039
 6957SOL     OW27599   1.163   1.545   0.456 -0.2423  0.8102  0.1511
 6957SOL    HW227600   1.181   1.596   0.377  0.0656 -1.5006 -1.3902
 6957SOL    HW327601   1.086   1.492   0.433  0.5229 -0.7144  0.9244
 6957SOL    MW427602   1.156   1.545   0.442  0.3761 -0.7161 -0.0409
 6958SOL     OW27603   0.034   2.563   1.969 -0.4015 -0.1509 -0.2688
 6958SOL    HW227604   0.083   2.540   1.890  0.1877 -0.2884  0.1284
 6958SOL    HW327605  -0.014   2.484   1.991  0.0681 -0.3775 -0.0365
 6958SOL    MW427606   0.034   2.550   1.962 -0.3477 -0.3194  0.4578
 6959SOL     OW27607   4.711   5.393   4.613 -0.0659 -0.2083  0.4865
 6959SOL    HW227608   4.722   5.462   4.678 -2.2511  0.1335  0.5490
 6959SOL    HW327609   4.647   5.333   4.652  1.2437 -1.9200  0.1266
 6959SOL    MW427610   4.704   5.394   4.626 -0.4032 -0.3936 -0.1429
 6960SOL     OW27611   3.556   2.465   2.180  0.0941 -0.2015 -0.1832
 6960SOL    HW227612   3.548   2.402   2.252 -0.0208  1.5196  1.3784
 6960SOL    HW327613   3.471   2.508   2.176 -0.0056 -0.4843 -1.5936
 6960SOL    MW427614   3.544   2.462   2.189 -0.0527 -0.5297 -0.1954
 6961SOL     OW27615   4.211   2.520   6.299  0.4314  0.5749 -0.3341
 6961SOL    HW227616   4.140   2.526   6.363  2.2138  1.9793  1.6884
 6961SOL    HW327617   4.271   2.456   6.338  0.8351  0.2983 -1.3954
 6961SOL    MW427618   4.210   2.512   6.313  0.0927  0.6080  0.1417
 6962SOL     OW27619   3.743   6.215   4.289 -0.8661  0.2424 -0.2048
 6962SOL    HW227620   3.750   6.181   4.378  1.0892  1.8531  0.3388
 6962SOL    HW327621   3.706   6.303   4.300 -0.5541  0.4775 -0.9613
 6962SOL    MW427622   3.739   6.222   4.302  0.3018 -0.4662 -0.1487
 6963SOL     OW27623   3.195   3.406   3.095 -0.0308  0.0215  0.6138
 6963SOL    HW227624   3.131   3.453   3.042  0.9167  0.9180  0.2186
 6963SOL    HW327625   3.192   3.316   3.063  1.5447  0.8039 -2.0692
 6963SOL    MW427626   3.186   3.400   3.084 -0.2122  0.0630 -0.0281
 6964SOL     OW27627   2.415   3.348   1.459  0.4480 -0.2735 -0.5374
 6964SOL    HW227628   2.352   3.293   1.412  0.9889  0.1090 -1.7580
 6964SOL    HW327629   2.498   3.302   1.452 -0.0233 -2.0383  3.1832
 6964SOL    MW427630   2.418   3.335   1.452  0.4440  0.0899  0.1641
 6965SOL     OW27631   0.021   1.060   2.270 -0.0017 -0.5667 -0.0028
 6965SOL    HW227632   0.041   1.152   2.285 -0.8825 -0.0877 -1.5500
 6965SOL    HW327633  -0.057   1.043   2.322 -0.7673  0.0201 -0.9271
 6965SOL    MW427634   0.013   1.070   2.279  0.5865  0.3275  0.3222
 6966SOL     OW27635   3.507   5.596   5.834 -0.1183 -0.1356 -0.4073
 6966SOL    HW227636   3.511   5.632   5.746 -0.1394 -1.4543 -0.9571
 6966SOL    HW327637   3.538   5.667   5.890 -0.0843  0.7076 -1.4663
 6966SOL    MW427638   3.511   5.610   5.830  0.3222 -0.3929 -0.0245
 6967SOL     OW27639   1.268   6.273   5.900  0.4514  0.5269 -0.1207
 6967SOL    HW227640   1.190   6.317   5.866  0.0108  0.7812  1.1458
 6967SOL    HW327641   1.296   6.215   5.829 -1.4569 -0.2851 -0.2747
 6967SOL    MW427642   1.261   6.271   5.886 -0.1125 -0.0716 -0.4191
 6968SOL     OW27643   2.626   1.372   2.502  0.2567 -0.3877 -0.2011
 6968SOL    HW227644   2.557   1.407   2.446 -0.8949 -1.2578  0.6196
 6968SOL    HW327645   2.651   1.444   2.559 -1.3270 -0.5502  0.7514
 6968SOL    MW427646   2.620   1.386   2.502 -0.3376  0.1565  0.2035
 6969SOL     OW27647   5.087   2.910   3.491 -0.0575 -0.3506  0.0428
 6969SOL    HW227648   5.153   2.914   3.421  0.0098 -1.4747  0.0360
 6969SOL    HW327649   5.077   3.002   3.519 -0.0423  0.1114 -1.3888
 6969SOL    MW427650   5.095   2.923   3.486 -0.0054 -0.0308 -0.0876
 6970SOL     OW27651   5.140   1.482   0.903  0.6167 -0.1628  0.6995
 6970SOL    HW227652   5.141   1.486   0.998  2.9536  0.8548  0.7018
 6970SOL    HW327653   5.149   1.574   0.875  0.0158 -0.4434 -0.5010
 6970SOL    MW427654   5.141   1.495   0.912 -0.0262 -0.5447 -0.8050
 6971SOL     OW27655   4.866   3.256   4.005  0.4936 -0.2075 -0.0809
 6971SOL    HW227656   4.815   3.332   3.976 -0.0945  0.1735  1.7944
 6971SOL    HW327657   4.803   3.200   4.049  1.6086  0.3114  2.3684
 6971SOL    MW427658   4.851   3.259   4.007 -0.0625 -0.6916  0.0225
 6972SOL     OW27659   4.112   3.523   3.627  0.3550  0.5518  0.2080
 6972SOL    HW227660   4.024   3.529   3.592  0.4605  2.5207  0.1673
 6972SOL    HW327661   4.169   3.554   3.556  1.1623 -1.2626  0.0156
 6972SOL    MW427662   4.108   3.528   3.613  0.2428 -0.4737  0.0999
 6973SOL     OW27663   5.950   4.246   2.266 -0.5005 -0.1020 -0.5613
 6973SOL    HW227664   5.993   4.325   2.232  1.4057 -1.2324 -0.9410
 6973SOL    HW327665   5.873   4.235   2.211  0.0176  0.6763 -1.4847
 6973SOL    MW427666   5.946   4.255   2.254 -0.0884 -0.2102 -0.1079
 6974SOL     OW27667   4.864   2.832   2.679 -0.3925  0.1004 -0.2249
 6974SOL    HW227668   4.784   2.783   2.663  0.5458 -1.1160 -1.3918
 6974SOL    HW327669   4.864   2.900   2.612 -0.1545 -0.2784 -0.6107
 6974SOL    MW427670   4.853   2.835   2.668  0.6712 -0.1987  0.1228
 6975SOL     OW27671   4.667   5.707   0.133 -0.1353 -0.5057  0.0676
 6975SOL    HW227672   4.604   5.744   0.070 -1.0994 -2.0657  0.0500
 6975SOL    HW327673   4.622   5.710   0.217  0.5581  0.1864  0.4188
 6975SOL    MW427674   4.652   5.712   0.136  0.5653  0.1931  0.1129
 6976SOL     OW27675   1.983   1.203   6.364  0.2346 -0.0762 -0.0442
 6976SOL    HW227676   2.011   1.214   6.273  0.4163 -1.0900 -0.1304
 6976SOL    HW327677   1.966   1.291   6.396 -0.1260  0.2648 -1.1590
 6976SOL    MW427678   1.985   1.216   6.356 -0.4252 -0.3410  0.1776
 6977SOL     OW27679   2.907   1.817   6.261  0.2899  0.5986  0.2104
 6977SOL    HW227680   2.886   1.886   6.324  0.4091 -0.3720  1.3334
 6977SOL    HW327681   2.835   1.755   6.268  0.4879  0.3024 -0.3514
 6977SOL    MW427682   2.895   1.818   6.270  0.5004  0.5388 -0.7496
 6978SOL     OW27683   2.840   5.350   4.784 -0.4733  0.4157 -0.6376
 6978SOL    HW227684   2.780   5.279   4.804  0.2587 -0.4952 -1.5749
 6978SOL    HW327685   2.791   5.430   4.803 -0.8782 -0.3122  1.7291
 6978SOL    MW427686   2.826   5.351   4.789 -0.3236  0.2630  0.3838
 6979SOL     OW27687   4.617   6.386   2.798  0.2749 -0.1026 -0.0472
 6979SOL    HW227688   4.587   6.473   2.773  1.8305  0.8095  1.0822
 6979SOL    HW327689   4.545   6.328   2.774 -0.2611  1.2999 -2.0504
 6979SOL    MW427690   4.604   6.390   2.792  0.1868 -0.4165 -0.2962
 6980SOL     OW27691   1.005   5.907   1.180 -0.5088 -0.1987 -0.2795
 6980SOL    HW227692   1.068   5.890   1.110  0.2655 -1.4847  0.6929
 6980SOL    HW327693   0.926   5.936   1.134  0.0392 -0.8024 -1.6750
 6980SOL    MW427694   1.003   5.909   1.164  0.3229  0.1802  0.8510
 6981SOL     OW27695   5.574   2.409   2.952 -0.3329  0.3909  0.2862
 6981SOL    HW227696   5.667   2.386   2.952 -0.6476 -1.0232  0.5254
 6981SOL    HW327697   5.530   2.325   2.968 -1.7154  0.7390 -1.4334
 6981SOL    MW427698   5.581   2.395   2.954 -0.3945 -0.2156 -0.4731
 6982SOL     OW27699   2.445   4.518   5.097 -0.0118 -0.1242  0.3426
 6982SOL    HW227700   2.462   4.469   5.017 -1.6213 -1.3621  0.7287
 6982SOL    HW327701   2.429   4.608   5.068  2.2836  0.0971 -0.4292
 6982SOL    MW427702   2.445   4.524   5.083 -1.1965 -0.7221  0.0019
 6983SOL     OW27703   3.706   5.700   5.175  0.4348  0.3520  0.4187
 6983SOL    HW227704   3.643   5.629   5.180  1.2314 -0.6027 -1.8965
 6983SOL    HW327705   3.771   5.680   5.242  0.4108 -0.8914  0.0934
 6983SOL    MW427706   3.706   5.688   5.184  0.1851  0.3660  0.1912
 6984SOL     OW27707   4.957   6.047   6.084 -0.0009  0.1405  0.1338
 6984SOL    HW227708   4.874   6.032   6.040 -0.3025  0.3142  0.6462
 6984SOL    HW327709   4.946   6.009   6.171  0.4532  0.1700  0.2077
 6984SOL    MW427710   4.945   6.040   6.089 -0.5684  0.0580  0.1758
 6985SOL     OW27711   3.258   6.461   6.107  0.1309  0.0399 -0.1080
 6985SOL    HW227712   3.243   6.544   6.063 -1.3461 -0.0925  0.0974
 6985SOL    HW327713   3.209   6.397   6.056 -0.6832 -0.3033  1.0551
 6985SOL    MW427714   3.249   6.463   6.095 -0.2732 -0.2994  0.1297
 6986SOL     OW27715   0.065   1.203   3.870  0.3128  0.5252  0.0596
 6986SOL    HW227716   0.159   1.189   3.881  0.1878  0.2055  0.7993
 6986SOL    HW327717   0.039   1.141   3.803  0.7035  0.9038 -0.4460
 6986SOL    MW427718   0.074   1.193   3.863 -0.1803  0.3450  0.0153
 6987SOL     OW27719   1.840   5.678   0.108 -0.0293 -0.2034 -0.6297
 6987SOL    HW227720   1.752   5.715   0.099 -0.4970 -1.4320 -1.4516
 6987SOL    HW327721   1.829   5.585   0.087  1.0561 -0.8858  1.4487
 6987SOL    MW427722   1.827   5.671   0.104 -0.4889  0.3120  1.2363
 6988SOL     OW27723   6.377   1.027   3.685 -0.4242 -0.3822  0.2300
 6988SOL    HW227724   6.439   0.960   3.655 -0.7832 -0.0134 -1.4206
 6988SOL    HW327725   6.296   0.979   3.703 -0.5448 -0.4693 -0.5186
 6988SOL    MW427726   6.374   1.012   3.683 -0.3805  0.3411  0.5352
 6989SOL     OW27727   4.974   0.302   2.461  0.3063 -0.0239 -0.1574
 6989SOL    HW227728   4.918   0.241   2.413 -0.4789 -0.3342  1.0950
 6989SOL    HW327729   5.030   0.342   2.394 -0.6004 -0.5820 -1.2818
 6989SOL    MW427730   4.974   0.299   2.446  0.0794 -0.7798  0.1558
 6990SOL     OW27731   1.831   0.772   5.241 -0.0211 -0.4978  0.1027
 6990SOL    HW227732   1.744   0.737   5.262  0.0561 -0.0158  1.3228
 6990SOL    HW327733   1.892   0.715   5.288  0.3252 -0.7625 -0.6552
 6990SOL    MW427734   1.827   0.760   5.250  0.5379  0.6193  0.3396
 6991SOL     OW27735   2.089   2.993   5.907  0.1633  0.1269  0.2602
 6991SOL    HW227736   2.122   3.082   5.892  0.3029 -0.2320 -1.7357
 6991SOL    HW327737   2.022   3.004   5.974 -1.1026  2.0411 -1.2145
 6991SOL    MW427738   2.085   3.006   5.914  0.9448  0.0894 -0.0779
 6992SOL     OW27739   5.753   5.286   0.734 -0.4736  0.7480 -0.3889
 6992SOL    HW227740   5.693   5.353   0.766 -0.2987  1.3874 -1.3493
 6992SOL    HW327741   5.839   5.313   0.767 -0.7028 -0.2297  1.0833
 6992SOL    MW427742   5.757   5.298   0.742 -0.2984 -0.6491 -0.3144
 6993SOL     OW27743   2.006   4.527   4.584  1.0454 -0.0839 -0.2734
 6993SOL    HW227744   2.043   4.453   4.632 -1.7320  0.1556  2.5582
 6993SOL    HW327745   1.920   4.496   4.555  0.3187  1.6417 -0.0815
 6993SOL    MW427746   1.999   4.513   4.586  0.5471 -0.0743 -0.1654
 6994SOL     OW27747   5.711   3.974   5.895  0.2296 -0.1418 -0.0601
 6994SOL    HW227748   5.767   3.904   5.860  0.5641 -0.3381  0.8405
 6994SOL    HW327749   5.664   3.933   5.968 -1.5631 -0.1484 -1.1673
 6994SOL    MW427750   5.713   3.959   5.900 -0.6790 -0.4545 -0.1825
 6995SOL     OW27751   4.265   0.689   2.466  0.1579 -0.3810  0.4379
 6995SOL    HW227752   4.246   0.740   2.387 -1.9812  1.3206  1.9154
 6995SOL    HW327753   4.202   0.617   2.464  0.7412 -0.8884  0.1401
 6995SOL    MW427754   4.254   0.687   2.455 -0.1824 -0.3067  0.3935
 6996SOL     OW27755   3.932   3.542   4.588  0.0389 -0.1625  0.7618
 6996SOL    HW227756   3.850   3.493   4.579 -0.5791  0.6845  1.6267
 6996SOL    HW327757   4.000   3.477   4.572 -0.7811 -0.3419 -2.8110
 6996SOL    MW427758   3.930   3.527   4.585  0.2798 -0.3080 -0.3568
 6997SOL     OW27759   2.990   0.423   4.656  0.2348 -0.1203 -0.0788
 6997SOL    HW227760   2.945   0.344   4.626  2.1180 -1.8912  1.4220
 6997SOL    HW327761   2.921   0.476   4.696 -0.7054 -2.4209  1.5749
 6997SOL    MW427762   2.975   0.420   4.658 -0.1850 -0.3631  0.4532
 6998SOL     OW27763   0.123   6.229   1.756 -0.0608 -0.1910  0.2969
 6998SOL    HW227764   0.170   6.157   1.799 -0.9530 -0.2969  1.1422
 6998SOL    HW327765   0.173   6.307   1.779  0.6550 -0.4855 -0.2403
 6998SOL    MW427766   0.136   6.230   1.765 -0.1598 -0.1126 -0.4763
 6999SOL     OW27767   6.058   5.948   4.473 -0.0422  0.4751 -0.0826
 6999SOL    HW227768   6.137   5.901   4.446 -0.5818 -2.0996  2.3183
 6999SOL    HW327769   6.090   6.029   4.513  1.4364 -0.4876  0.7912
 6999SOL    MW427770   6.073   5.952   4.475 -0.0121 -0.4807 -0.1434
 7000SOL     OW27771   1.320   4.061   2.873 -0.2701  0.2180  0.3101
 7000SOL    HW227772   1.254   4.091   2.811  0.1692  1.8993  0.6202
 7000SOL    HW327773   1.287   4.087   2.959 -0.2632 -0.9619  0.6955
 7000SOL    MW427774   1.307   4.068   2.876  0.4036  0.1468  0.2795
 7001SOL     OW27775   1.822   4.324   3.862 -0.6655  0.0572  0.1713
 7001SOL    HW227776   1.892   4.318   3.928 -1.3052 -0.9392  0.7881
 7001SOL    HW327777   1.867   4.308   3.779 -0.0349  0.1477  0.4904
 7001SOL    MW427778   1.837   4.321   3.860 -0.4003  0.2032  0.1446
 7002SOL     OW27779   4.903   3.100   1.304  0.0953  0.3582  0.7749
 7002SOL    HW227780   4.889   3.154   1.226 -1.9469 -2.3058 -0.8724
 7002SOL    HW327781   4.971   3.147   1.353  1.0649  2.4789 -2.2651
 7002SOL    MW427782   4.910   3.114   1.300 -0.2391 -0.7313 -0.3726
 7003SOL     OW27783   4.909   2.835   1.194 -0.0637  0.2418 -0.5353
 7003SOL    HW227784   4.992   2.789   1.210 -0.6778 -0.1631  1.9729
 7003SOL    HW327785   4.911   2.908   1.256 -1.8743 -0.2091  0.0941
 7003SOL    MW427786   4.921   2.839   1.204  0.5806  0.5037  0.2996
 7004SOL     OW27787   4.531   0.372   3.682  0.1018  0.6076  0.4280
 7004SOL    HW227788   4.506   0.398   3.771 -1.5365 -0.8400  0.4413
 7004SOL    HW327789   4.626   0.382   3.680  0.2143  0.3965  2.4336
 7004SOL    MW427790   4.540   0.377   3.693  0.2424 -0.0464 -0.4037
 7005SOL     OW27791   6.396   6.266   5.844 -0.3484 -0.3576  0.2696
 7005SOL    HW227792   6.336   6.325   5.889  2.4059  2.4747  0.5557
 7005SOL    HW327793   6.397   6.296   5.753  1.0895  0.0946  0.4130
 7005SOL    MW427794   6.388   6.278   5.838 -0.5466 -1.0088  0.4128
 7006SOL     OW27795   6.017   0.743   4.415  0.8280 -0.2803  0.1799
 7006SOL    HW227796   5.991   0.784   4.332  1.0666 -0.2363  0.1251
 7006SOL    HW327797   5.940   0.751   4.471  0.4621 -0.8539 -0.2376
 7006SOL    MW427798   6.004   0.750   4.411 -0.0493 -0.2920  0.3151
 7007SOL     OW27799   0.632   1.078   1.187  0.1206  0.0901  0.6551
 7007SOL    HW227800   0.672   1.147   1.241 -1.6270  1.7819 -0.1153
 7007SOL    HW327801   0.539   1.082   1.209 -0.3141 -0.5662 -0.9866
 7007SOL    MW427802   0.625   1.088   1.197  0.4873 -0.6449 -0.2374
 7008SOL     OW27803   0.430   4.505   6.199 -0.0352  0.1314 -0.5995
 7008SOL    HW227804   0.362   4.556   6.155 -0.6678 -0.1762  0.0018
 7008SOL    HW327805   0.510   4.526   6.151 -0.3406  1.3918 -0.6015
 7008SOL    MW427806   0.431   4.514   6.187  0.4002 -0.4134  0.1612
 7009SOL     OW27807   6.164   3.320   4.603 -0.5291  0.6752 -0.5051
 7009SOL    HW227808   6.178   3.365   4.519 -1.0218 -0.6902 -1.3537
 7009SOL    HW327809   6.229   3.250   4.605 -2.0544 -0.8437 -0.9322
 7009SOL    MW427810   6.174   3.317   4.592  0.2278 -0.3184  0.6815
 7010SOL     OW27811   0.747   0.360   6.137 -0.1974 -0.1912  0.0914
 7010SOL    HW227812   0.804   0.393   6.207 -1.3886  0.6470  0.7069
 7010SOL    HW327813   0.683   0.429   6.124 -2.2626 -1.8661  0.7910
 7010SOL    MW427814   0.746   0.373   6.145  0.3068 -0.4123  0.2230
 7011SOL     OW27815   0.364   5.848   5.655  0.1213  0.2802 -0.3708
 7011SOL    HW227816   0.310   5.908   5.604  0.3293  1.0099  0.2437
 7011SOL    HW327817   0.454   5.873   5.634  0.2100  0.1846 -0.1171
 7011SOL    MW427818   0.369   5.859   5.646 -0.7347 -0.1021 -0.1012
 7012SOL     OW27819   5.617   0.587   5.912  0.0803 -0.3461 -0.6676
 7012SOL    HW227820   5.534   0.631   5.933  0.2364  0.2698 -1.3134
 7012SOL    HW327821   5.670   0.598   5.991 -0.5793 -1.0727 -0.1061
 7012SOL    MW427822   5.613   0.594   5.925  0.6192  0.4032  0.7428
 7013SOL     OW27823   1.632   2.079   5.523 -0.0654 -0.0489 -0.1781
 7013SOL    HW227824   1.617   1.985   5.533 -0.3818  0.1411  1.4959
 7013SOL    HW327825   1.699   2.099   5.588  0.3480  0.8037 -0.8622
 7013SOL    MW427826   1.639   2.069   5.533  0.4919  0.7757 -0.0752
 7014SOL     OW27827   5.017   6.051   2.686 -0.0109  0.6553 -0.3224
 7014SOL    HW227828   5.070   5.977   2.657 -0.9969 -0.1637 -0.0867
 7014SOL    HW327829   4.927   6.026   2.665 -0.6310  0.6742  2.0103
 7014SOL    MW427830   5.012   6.038   2.679 -0.7771 -0.2912 -0.7406
 7015SOL     OW27831   3.051   1.303   2.601  0.2141  0.2350 -0.1808
 7015SOL    HW227832   3.097   1.369   2.653 -0.2592 -0.8692  1.7723
 7015SOL    HW327833   3.113   1.231   2.592 -0.2736 -0.2792  0.3949
 7015SOL    MW427834   3.065   1.302   2.607 -0.1164 -0.1827  0.3405
 7016SOL     OW27835   2.284   2.628   2.758 -0.6356  0.0920  0.0982
 7016SOL    HW227836   2.264   2.540   2.727  0.3284 -0.7637  1.7500
 7016SOL    HW327837   2.335   2.614   2.838  2.2022  2.1221 -1.1863
 7016SOL    MW427838   2.288   2.615   2.764  0.2097 -0.2427  0.2553
 7017SOL     OW27839   2.447   2.630   3.000 -0.2324  0.0785  0.4436
 7017SOL    HW227840   2.447   2.678   3.083 -0.6372 -0.5800  0.8389
 7017SOL    HW327841   2.502   2.553   3.017 -1.5717 -0.8819  0.6203
 7017SOL    MW427842   2.454   2.626   3.013  0.0525  0.2822 -0.2161
 7018SOL     OW27843   5.730   0.134   3.860  0.4855 -0.5739 -0.0766
 7018SOL    HW227844   5.696   0.154   3.947 -0.4340  0.3477 -0.6236
 7018SOL    HW327845   5.764   0.045   3.867 -1.3769 -1.2690  0.7158
 7018SOL    MW427846   5.730   0.125   3.872  0.4921  0.2676  0.3461
 7019SOL     OW27847   3.839   5.641   6.022 -0.1874  0.5169 -0.6475
 7019SOL    HW227848   3.859   5.672   6.110 -0.6789  0.3167 -0.4638
 7019SOL    HW327849   3.924   5.619   5.984 -0.1133 -1.0305  0.3727
 7019SOL    MW427850   3.853   5.642   6.028 -0.2055  0.6372 -0.0294
 7020SOL     OW27851   1.264   4.615   4.517 -0.5409 -0.1005 -0.0290
 7020SOL    HW227852   1.343   4.657   4.485 -0.0089  0.8516  2.2903
 7020SOL    HW327853   1.244   4.547   4.453  2.1149 -0.3256 -0.7028
 7020SOL    MW427854   1.272   4.612   4.504  0.4413 -1.0565  0.0027
 7021SOL     OW27855   2.358   3.244   0.823  0.0916 -0.3171  0.3424
 7021SOL    HW227856   2.368   3.162   0.871 -1.3221 -1.2145 -0.7931
 7021SOL    HW327857   2.439   3.252   0.773 -0.0827 -1.4802 -0.1729
 7021SOL    MW427858   2.370   3.234   0.823 -0.0921  0.1394  0.2651
 7022SOL     OW27859   1.369   6.398   4.395 -0.1060 -0.9366 -0.2753
 7022SOL    HW227860   1.331   6.470   4.345 -0.0710 -0.6695  0.0816
 7022SOL    HW327861   1.294   6.343   4.420 -0.1201 -1.0921 -0.6462
 7022SOL    MW427862   1.354   6.400   4.392  0.4710  0.1262  0.6292
 7023SOL     OW27863   1.170   3.622   0.367  0.1520  0.7228  0.3412
 7023SOL    HW227864   1.147   3.646   0.456 -0.2901 -0.7327  0.6474
 7023SOL    HW327865   1.219   3.697   0.334 -0.9932  1.9376  1.2709
 7023SOL    MW427866   1.173   3.635   0.374 -0.8106 -0.4079 -0.5549
 7024SOL     OW27867   1.790   2.802   5.878 -0.1061 -0.0017  0.7241
 7024SOL    HW227868   1.843   2.759   5.811  0.7761 -2.4671  2.8195
 7024SOL    HW327869   1.782   2.893   5.849  0.9980 -0.7443 -2.1842
 7024SOL    MW427870   1.796   2.809   5.865  0.5341 -0.5651 -0.2709
 7025SOL     OW27871   5.122   6.376   0.972  0.0276  0.0752 -0.7982
 7025SOL    HW227872   5.107   6.437   0.900  1.7471 -0.1358 -1.3920
 7025SOL    HW327873   5.212   6.347   0.960 -0.3765 -1.6980  0.1537
 7025SOL    MW427874   5.132   6.381   0.961 -0.2544 -0.4154 -0.5320
 7026SOL     OW27875   5.255   6.194   4.489  0.2054 -0.2056 -0.0625
 7026SOL    HW227876   5.258   6.201   4.585  2.4868 -3.0847  0.2002
 7026SOL    HW327877   5.172   6.149   4.472  0.1135 -0.3090  0.6018
 7026SOL    MW427878   5.244   6.189   4.500  0.4777  0.4012 -0.0143
 7027SOL     OW27879   3.206   0.451   2.204 -0.7423 -0.1505 -0.5947
 7027SOL    HW227880   3.173   0.519   2.144  1.0386  1.0518 -0.3178
 7027SOL    HW327881   3.240   0.383   2.146 -1.3301 -0.1848 -0.9056
 7027SOL    MW427882   3.206   0.451   2.188 -1.0735 -0.0616  0.6708
 7028SOL     OW27883   5.090   2.878   1.753  0.1609  0.0312 -0.0739
 7028SOL    HW227884   5.011   2.930   1.770 -0.6929 -1.1254 -0.3557
 7028SOL    HW327885   5.148   2.899   1.826 -0.4125  0.8916  0.1526
 7028SOL    MW427886   5.087   2.887   1.765  0.1814  0.0048  0.3898
 7029SOL     OW27887   4.259   5.203   4.738  0.1514  0.0688 -0.2517
 7029SOL    HW227888   4.343   5.158   4.749 -0.0008 -0.6318 -1.7852
 7029SOL    HW327889   4.197   5.151   4.789  0.8419  1.4107  2.1392
 7029SOL    MW427890   4.262   5.190   4.746 -0.1880  0.6600 -0.2834
 7030SOL     OW27891   2.575   4.055   5.714 -0.7551  0.0485  0.3156
 7030SOL    HW227892   2.644   4.071   5.778  0.5625  2.0703 -1.4653
 7030SOL    HW327893   2.569   3.960   5.708  0.9518 -0.1754  1.5042
 7030SOL    MW427894   2.583   4.045   5.721 -0.4553 -0.0453 -0.2422
 7031SOL     OW27895   6.080   0.812   2.284  0.0420  0.0517 -0.1970
 7031SOL    HW227896   6.126   0.871   2.344  1.0582 -0.8195 -0.0783
 7031SOL    HW327897   6.150   0.771   2.233 -0.7940  0.7709 -2.0181
 7031SOL    MW427898   6.095   0.814   2.285  0.5431 -0.3167 -0.3806
 7032SOL     OW27899   6.275   3.834   3.410  0.1844  0.4471 -0.5295
 7032SOL    HW227900   6.240   3.877   3.332  2.1384  2.5021 -0.3885
 7032SOL    HW327901   6.238   3.882   3.483  0.5284  0.3349 -0.2773
 7032SOL    MW427902   6.265   3.846   3.409  0.3443 -0.1656 -0.0935
 7033SOL     OW27903   1.817   6.293   0.036  0.1993 -0.1197 -0.4552
 7033SOL    HW227904   1.784   6.310   0.124 -3.0075 -1.7527 -1.2204
 7033SOL    HW327905   1.905   6.258   0.050 -0.6215 -1.3457  2.2142
 7033SOL    MW427906   1.825   6.291   0.049  1.1495 -0.3781  0.2381
 7034SOL     OW27907   3.602   2.342   2.968  0.3246 -0.1259 -0.7120
 7034SOL    HW227908   3.546   2.391   3.028  2.0023  0.8219  0.1397
 7034SOL    HW327909   3.542   2.285   2.921 -1.2478  0.2218  0.7748
 7034SOL    MW427910   3.587   2.341   2.970 -0.1233  0.4196  0.4198
 7035SOL     OW27911   0.920   4.399   1.953  0.3715 -0.4044  0.4877
 7035SOL    HW227912   0.859   4.342   1.998 -0.0919  1.2027  1.9966
 7035SOL    HW327913   0.869   4.477   1.931  1.2023 -0.1702 -0.7369
 7035SOL    MW427914   0.906   4.402   1.956  0.4538  0.3282  0.8785
 7036SOL     OW27915   3.815   2.086   0.683  0.0405  0.5026 -0.6976
 7036SOL    HW227916   3.907   2.110   0.673  0.8304 -1.1843  1.6527
 7036SOL    HW327917   3.814   1.990   0.676 -1.5580  0.5001 -0.8159
 7036SOL    MW427918   3.827   2.076   0.681 -0.4521  0.1918  0.3494
 7037SOL     OW27919   0.667   4.281   2.063 -0.3676 -0.4837 -0.5781
 7037SOL    HW227920   0.679   4.353   2.125  1.1354  0.7529 -2.2379
 7037SOL    HW327921   0.578   4.290   2.032  0.0845  1.2533 -1.4437
 7037SOL    MW427922   0.657   4.291   2.067 -0.0243  0.0314 -0.0540
 7038SOL     OW27923   5.419   3.218   0.380  0.3015 -0.9816 -0.0337
 7038SOL    HW227924   5.386   3.279   0.446 -1.1280  2.2567 -3.3651
 7038SOL    HW327925   5.512   3.240   0.370 -0.3393  1.3641 -1.6666
 7038SOL    MW427926   5.427   3.229   0.387  0.1511  0.1222 -0.2109
 7039SOL     OW27927   0.513   1.650   5.706 -0.3693 -0.1506 -0.0657
 7039SOL    HW227928   0.476   1.566   5.678  0.3071 -1.2911  2.1599
 7039SOL    HW327929   0.440   1.698   5.743 -0.5514 -0.2388 -0.3087
 7039SOL    MW427930   0.499   1.645   5.707  0.4486  0.5414  0.2163
 7040SOL     OW27931   1.960   0.977   1.659  0.1426 -0.0015 -0.7899
 7040SOL    HW227932   2.004   1.062   1.652 -1.2540  1.0991  1.9981
 7040SOL    HW327933   1.867   0.997   1.648 -0.0689 -1.5353 -2.0780
 7040SOL    MW427934   1.954   0.991   1.657 -0.0041  0.0628  0.0583
 7041SOL     OW27935   2.918   4.406   5.061 -0.2270  0.1849  0.2118
 7041SOL    HW227936   2.860   4.450   5.123 -0.6825  0.6538 -0.5204
 7041SOL    HW327937   2.912   4.313   5.085 -0.4640  0.3491  0.8076
 7041SOL    MW427938   2.909   4.400   5.072  0.7122  0.1355  0.2741
 7042SOL     OW27939   1.262   1.542   0.866 -0.1275  0.2153 -0.4668
 7042SOL    HW227940   1.299   1.620   0.826  0.2931  0.3798  0.2245
 7042SOL    HW327941   1.274   1.473   0.800 -0.1902  0.6510 -0.9406
 7042SOL    MW427942   1.268   1.543   0.852 -0.1169  0.0917  0.7349
 7043SOL     OW27943   2.265   1.292   4.661  0.6462  0.5718 -0.1558
 7043SOL    HW227944   2.257   1.196   4.662  1.4008  0.4488  2.4055
 7043SOL    HW327945   2.182   1.323   4.696  1.8393  0.5113  3.1791
 7043SOL    MW427946   2.253   1.283   4.666  0.0913  0.2025  0.2262
 7044SOL     OW27947   1.757   1.591   1.186 -0.5863 -0.3105 -0.9047
 7044SOL    HW227948   1.789   1.500   1.187  0.9502  0.1850 -1.3142
 7044SOL    HW327949   1.762   1.619   1.277 -0.9665 -0.6033 -0.7928
 7044SOL    MW427950   1.762   1.582   1.198 -0.1084 -0.0067  0.1779
 7045SOL     OW27951   5.563   5.912   3.719  0.2069  0.1827 -0.1671
 7045SOL    HW227952   5.554   5.816   3.719  0.8163  0.1022 -1.5331
 7045SOL    HW327953   5.656   5.927   3.731 -0.1833  0.7315  3.0536
 7045SOL    MW427954   5.574   5.901   3.721 -0.1514  0.1747  0.0683
 7046SOL     OW27955   4.547   5.511   5.308 -0.0190 -0.8762  0.0132
 7046SOL    HW227956   4.527   5.504   5.402 -2.6631  0.8186 -0.3318
 7046SOL    HW327957   4.520   5.426   5.272  0.6679 -1.4027  0.6978
 7046SOL    MW427958   4.540   5.499   5.316 -0.2060  0.2860  0.1227
 7047SOL     OW27959   5.151   3.591   3.532  0.0179 -0.2497 -0.0134
 7047SOL    HW227960   5.106   3.529   3.475  0.7844 -0.2416 -0.6459
 7047SOL    HW327961   5.237   3.602   3.492 -0.3997  1.9186 -0.4454
 7047SOL    MW427962   5.157   3.584   3.519 -0.0245 -0.2312  0.4941
 7048SOL     OW27963   6.193   6.320   2.713 -0.0688  0.2001  0.4157
 7048SOL    HW227964   6.190   6.395   2.772  0.7733 -1.3601  2.5823
 7048SOL    HW327965   6.104   6.284   2.716  0.0201  0.0173  0.8890
 7048SOL    MW427966   6.181   6.325   2.721 -0.9714 -0.0798 -0.1977
 7049SOL     OW27967   5.077   3.758   5.073  0.3820 -0.4443  0.2365
 7049SOL    HW227968   4.982   3.752   5.071  0.1960  1.1635  1.8976
 7049SOL    HW327969   5.100   3.755   5.166  2.1263 -2.5303 -0.1834
 7049SOL    MW427970   5.068   3.757   5.085  0.2329 -0.1942 -0.1642
 7050SOL     OW27971   4.031   2.012   4.953 -0.6797 -0.5040  0.5610
 7050SOL    HW227972   4.013   2.021   4.860 -1.8559 -3.3270  0.4284
 7050SOL    HW327973   4.120   2.045   4.964 -0.8925  0.8382 -1.3386
 7050SOL    MW427974   4.040   2.018   4.942 -0.3229  0.0537 -0.3438
 7051SOL     OW27975   3.258   2.063   3.184  0.6018  0.0879 -0.0187
 7051SOL    HW227976   3.229   1.985   3.138  3.0101 -0.9902  0.1309
 7051SOL    HW327977   3.300   2.029   3.264  1.6751  1.5267  0.0583
 7051SOL    MW427978   3.260   2.048   3.189 -0.1184  0.0786  0.0244
 7052SOL     OW27979   2.101   5.988   0.331  0.5115  0.5747 -0.4651
 7052SOL    HW227980   2.042   6.029   0.394  0.3024  1.0680 -0.9738
 7052SOL    HW327981   2.188   6.003   0.366  0.3462 -3.1560  2.1729
 7052SOL    MW427982   2.105   5.995   0.344  0.5092 -0.2384  0.5468
 7053SOL     OW27983   2.559   3.111   1.635 -0.1876 -0.4168 -0.1004
 7053SOL    HW227984   2.524   3.197   1.658  0.6427  0.6586 -2.4419
 7053SOL    HW327985   2.548   3.058   1.714  0.1640  2.1086  1.7768
 7053SOL    MW427986   2.553   3.116   1.648  0.3779 -0.0162  0.0869
 7054SOL     OW27987   2.224   3.618   0.621 -0.0011 -0.3599 -0.2867
 7054SOL    HW227988   2.250   3.601   0.712  1.8380 -1.9888 -1.0515
 7054SOL    HW327989   2.170   3.543   0.597  1.2334 -1.0103 -1.1364
 7054SOL    MW427990   2.220   3.606   0.630 -0.1205 -0.1304 -0.2816
 7055SOL     OW27991   3.676   1.809   5.075  0.2566 -0.0248 -0.5242
 7055SOL    HW227992   3.681   1.901   5.102 -0.8665 -0.2982  0.7556
 7055SOL    HW327993   3.766   1.783   5.059  0.8162  0.7390  1.1552
 7055SOL    MW427994   3.688   1.818   5.077  0.0222 -0.6734  0.0259
 7056SOL     OW27995   1.570   0.749   1.960 -1.1871  0.4432  0.3811
 7056SOL    HW227996   1.478   0.731   1.939 -0.9030  0.6864 -1.1877
 7056SOL    HW327997   1.578   0.844   1.952 -0.7333  0.3918  0.2316
 7056SOL    MW427998   1.559   0.759   1.956  0.0838  0.3103 -0.8043
 7057SOL     OW27999   1.731   4.341   1.533  0.1099 -0.3703 -0.7403
 7057SOL    HW228000   1.733   4.369   1.624 -0.0461 -1.6370 -0.3194
 7057SOL    HW328001   1.778   4.409   1.485 -3.5366  2.7063 -0.4554
 7057SOL    MW428002   1.737   4.354   1.538 -0.1732 -0.1386  0.7130
 7058SOL     OW28003   1.894   2.441   1.200 -0.3083 -0.5571 -0.2959
 7058SOL    HW228004   1.854   2.405   1.121 -4.1707 -2.0658  2.0411
 7058SOL    HW328005   1.937   2.367   1.242 -1.9247 -0.8385  0.9626
 7058SOL    MW428006   1.894   2.427   1.195  0.7035 -0.1132  0.9174
 7059SOL     OW28007   0.692   4.018   4.035  0.1748 -0.1897 -0.2594
 7059SOL    HW228008   0.675   4.033   4.128  0.3077  0.2999 -0.3089
 7059SOL    HW328009   0.627   4.073   3.990  0.4514 -0.0199 -0.4533
 7059SOL    MW428010   0.681   4.028   4.041 -0.3253  0.3593  0.1558
 7060SOL     OW28011   0.256   2.756   5.424  0.5962 -0.7192 -0.1943
 7060SOL    HW228012   0.291   2.839   5.456 -2.3190  0.9639 -0.9709
 7060SOL    HW328013   0.253   2.766   5.329 -1.4040 -0.9198 -0.2015
 7060SOL    MW428014   0.260   2.768   5.416  0.3850 -0.4396 -0.2217
 7061SOL     OW28015   1.710   5.515   0.522  0.1920  0.1489  0.3094
 7061SOL    HW228016   1.740   5.605   0.535  0.4937 -0.0384  0.9783
 7061SOL    HW328017   1.665   5.493   0.604 -0.5989 -0.0334 -0.1687
 7061SOL    MW428018   1.708   5.524   0.535 -0.2026 -0.2466 -0.3614
 7062SOL     OW28019   4.444   1.653   2.735  0.0874  0.2943 -0.3032
 7062SOL    HW228020   4.432   1.559   2.721 -0.0648  0.3552 -0.5959
 7062SOL    HW328021   4.401   1.672   2.818  1.5837 -0.2036  0.6125
 7062SOL    MW428022   4.437   1.643   2.744 -0.6158 -0.2052 -0.5007
 7063SOL     OW28023   1.436   1.809   0.065 -0.8523 -0.1058 -0.1060
 7063SOL    HW228024   1.426   1.840  -0.025 -0.8861 -0.5380 -0.2534
 7063SOL    HW328025   1.464   1.717   0.056 -1.6593 -0.4056  0.3243
 7063SOL    MW428026   1.438   1.801   0.052  0.1484 -0.5026  0.1930
 7064SOL     OW28027   4.933   1.011   4.016 -0.0562  0.4971  0.1441
 7064SOL    HW228028   4.864   1.006   4.082 -0.0606  0.3584  0.1302
 7064SOL    HW328029   4.998   1.070   4.053  0.5819 -0.6296  0.8761
 7064SOL    MW428030   4.932   1.018   4.029  0.0075  0.6009  0.0661
 7065SOL     OW28031   0.796   0.853   1.336  0.4272 -0.2311  0.3228
 7065SOL    HW228032   0.751   0.927   1.378 -0.2553 -0.0917 -0.6308
 7065SOL    HW328033   0.877   0.844   1.386  0.5083  1.1319  0.4938
 7065SOL    MW428034   0.801   0.862   1.348  0.5083 -0.7763  0.5430
 7066SOL     OW28035   4.552   2.932   4.975 -0.2108 -0.4345 -0.2371
 7066SOL    HW228036   4.458   2.933   4.994 -0.6586  0.1043 -2.2744
 7066SOL    HW328037   4.559   2.901   4.885  1.4641  0.6944 -0.5642
 7066SOL    MW428038   4.541   2.928   4.966 -0.4690  1.0145 -0.1924
 7067SOL     OW28039   4.461   5.354   0.739 -0.2295 -0.6446 -0.0579
 7067SOL    HW228040   4.458   5.288   0.670  2.0598 -1.2363  0.3073
 7067SOL    HW328041   4.374   5.351   0.779 -0.5867 -2.5882 -0.8468
 7067SOL    MW428042   4.449   5.345   0.736 -0.1351 -0.0917  0.0353
 7068SOL     OW28043   5.858   0.508   4.571  0.3890 -0.1297  0.0784
 7068SOL    HW228044   5.894   0.474   4.489  2.9094  0.9583  0.6618
 7068SOL    HW328045   5.763   0.507   4.557  0.6943 -0.8611 -2.4690
 7068SOL    MW428046   5.850   0.503   4.559  0.1987  0.1850 -0.3157
 7069SOL     OW28047   4.515   0.250   5.453 -0.1568 -0.7166  0.1130
 7069SOL    HW228048   4.498   0.204   5.371 -1.5013  0.9743 -0.6378
 7069SOL    HW328049   4.562   0.330   5.426 -1.3647  0.2774  0.8424
 7069SOL    MW428050   4.519   0.255   5.438 -0.0686 -0.3483 -0.2926
 7070SOL     OW28051   3.373   2.183   1.435 -0.7178  0.1187 -0.0327
 7070SOL    HW228052   3.423   2.255   1.475 -0.9059  0.7745 -0.9385
 7070SOL    HW328053   3.301   2.167   1.496  0.0310 -0.1592  0.7995
 7070SOL    MW428054   3.370   2.191   1.448 -1.0570  0.1163  0.2235
 7071SOL     OW28055   1.044   0.112   6.139  0.5761  0.1110 -0.2763
 7071SOL    HW228056   1.011   0.120   6.050  1.2660  1.3680 -0.4433
 7071SOL    HW328057   1.131   0.073   6.130  2.3707  3.7785 -0.6049
 7071SOL    MW428058   1.051   0.108   6.126  0.3847 -0.3152  0.3796
 7072SOL     OW28059   0.928   4.251   2.827 -0.3581 -0.0498  0.3408
 7072SOL    HW228060   0.845   4.247   2.779  0.3480 -0.4506 -0.9020
 7072SOL    HW328061   0.995   4.242   2.759  0.6914 -0.8264  1.4432
 7072SOL    MW428062   0.926   4.249   2.811  0.0568  0.1206 -0.5144
 7073SOL     OW28063   5.094   3.904   6.005  0.5174  0.2023 -0.1798
 7073SOL    HW228064   5.172   3.929   5.955  1.0293 -1.4809 -0.3053
 7073SOL    HW328065   5.028   3.883   5.939  0.5976 -0.2381 -0.1267
 7073SOL    MW428066   5.096   3.904   5.990  0.7515  0.7687 -0.3021
 7074SOL     OW28067   1.791   1.457   3.103 -0.4824 -0.0077  0.2412
 7074SOL    HW228068   1.758   1.504   3.026  0.0032  1.6195  0.9931
 7074SOL    HW328069   1.713   1.412   3.138 -0.6412 -1.0548 -1.3526
 7074SOL    MW428070   1.776   1.457   3.097  0.1965  0.2407 -0.1125
 7075SOL     OW28071   0.827   3.494   0.894  0.4235  0.0671 -0.5465
 7075SOL    HW228072   0.805   3.530   0.980  2.9759 -1.0739  0.6866
 7075SOL    HW328073   0.810   3.565   0.833 -0.9473  1.0825  0.9413
 7075SOL    MW428074   0.822   3.508   0.898 -0.2553 -0.0073 -0.3037
 7076SOL     OW28075   5.429   0.886   4.591  0.3135 -0.2218 -0.0341
 7076SOL    HW228076   5.488   0.832   4.538  0.3821  0.9954 -1.2487
 7076SOL    HW328077   5.486   0.953   4.629 -0.0324 -0.0133  0.1196
 7076SOL    MW428078   5.444   0.888   4.589  0.6965 -0.4125 -0.3378
 7077SOL     OW28079   3.595   4.941   0.536 -0.1693 -0.7774  0.0532
 7077SOL    HW228080   3.529   5.009   0.545  0.4994 -0.1154  0.0753
 7077SOL    HW328081   3.580   4.904   0.448  0.8859  0.9608 -0.9100
 7077SOL    MW428082   3.585   4.945   0.525  0.3675  0.6586  0.2833
 7078SOL     OW28083   0.593   2.267   2.272 -0.2863 -0.2800  0.3697
 7078SOL    HW228084   0.684   2.253   2.299 -0.3417 -0.6717  0.3498
 7078SOL    HW328085   0.571   2.190   2.221 -0.5963 -0.1312  0.2778
 7078SOL    MW428086   0.602   2.255   2.269  0.0690 -0.2900  0.4131
 7079SOL     OW28087   1.629   4.681   0.364 -0.3886  0.1569  0.2194
 7079SOL    HW228088   1.573   4.740   0.413 -0.2152  0.4140  0.1073
 7079SOL    HW328089   1.715   4.723   0.365 -0.2367 -0.1473  0.2391
 7079SOL    MW428090   1.633   4.694   0.371 -0.6871  0.0959 -0.1138
 7080SOL     OW28091   1.316   3.113   3.581  0.1067  0.0781 -0.2120
 7080SOL    HW228092   1.369   3.060   3.641  0.3321 -1.9421 -2.0678
 7080SOL    HW328093   1.226   3.084   3.595  0.0670  0.1591 -0.2940
 7080SOL    MW428094   1.312   3.102   3.591  0.1274  0.1960  0.2252
 7081SOL     OW28095   2.111   5.512   4.765  0.1489 -0.2878  0.2910
 7081SOL    HW228096   2.078   5.426   4.737 -0.6798 -0.4233  1.5885
 7081SOL    HW328097   2.202   5.495   4.791 -0.3936 -1.1050  1.8143
 7081SOL    MW428098   2.119   5.498   4.765 -0.4464  0.3046  0.0077
 7082SOL     OW28099   6.305   1.358   2.971 -0.0382 -0.5355  0.7423
 7082SOL    HW228100   6.371   1.304   3.014 -0.7519 -1.9779  0.0693
 7082SOL    HW328101   6.221   1.322   3.001 -0.5358 -0.5049 -0.5766
 7082SOL    MW428102   6.303   1.346   2.981 -0.2597 -0.2169  0.1571
 7083SOL     OW28103   4.508   5.476   5.568  0.0722 -0.2803  0.2763
 7083SOL    HW228104   4.535   5.560   5.606 -0.5656 -0.3516  0.9148
 7083SOL    HW328105   4.580   5.416   5.590  1.0780  0.3325 -1.1757
 7083SOL    MW428106   4.521   5.479   5.576  0.3084 -0.6527  0.5020
 7084SOL     OW28107   1.427   1.512   3.507  0.0398  0.0610 -0.3968
 7084SOL    HW228108   1.379   1.588   3.539  1.6890  0.4142  1.4152
 7084SOL    HW328109   1.403   1.442   3.568  0.3262 -0.2703 -0.6608
 7084SOL    MW428110   1.418   1.513   3.519  0.0757 -0.3884  0.8908
 7085SOL     OW28111   5.691   3.323   6.132  0.1527  0.1072  0.4583
 7085SOL    HW228112   5.609   3.276   6.147  1.4222 -2.6277 -0.5672
 7085SOL    HW328113   5.730   3.331   6.219 -0.3839 -0.1305  0.7282
 7085SOL    MW428114   5.685   3.318   6.145 -0.4821  0.3387  0.3601
 7086SOL     OW28115   3.104   1.374   4.904  0.4865 -0.4059  0.3597
 7086SOL    HW228116   3.070   1.410   4.986  2.2734 -0.1350  1.0182
 7086SOL    HW328117   3.027   1.336   4.861 -0.6228  0.1346  1.7860
 7086SOL    MW428118   3.089   1.374   4.909 -0.3431  0.9258 -0.1305
 7087SOL     OW28119   2.075   1.812   4.296  0.4581  0.6817  0.0498
 7087SOL    HW228120   2.041   1.733   4.337 -0.0369  1.7497  1.8209
 7087SOL    HW328121   1.998   1.853   4.256  0.6817  0.3783 -0.7128
 7087SOL    MW428122   2.060   1.807   4.296  0.2465 -0.4725  0.0106
 7088SOL     OW28123   5.148   1.248   5.029  0.0225  0.0526 -0.0872
 7088SOL    HW228124   5.111   1.294   4.954  0.3407  0.7560  0.1758
 7088SOL    HW328125   5.222   1.199   4.994 -0.3451 -0.3074 -0.3779
 7088SOL    MW428126   5.153   1.248   5.015 -0.2987 -0.7090 -0.1382
 7089SOL     OW28127   4.239   4.005   5.367 -0.2016  0.6464 -0.0228
 7089SOL    HW228128   4.215   3.919   5.333 -1.2463  0.1127  1.9327
 7089SOL    HW328129   4.293   3.986   5.444 -2.7396  1.5808  2.1303
 7089SOL    MW428130   4.243   3.991   5.372 -0.3375  0.6082 -0.9505
 7090SOL     OW28131   3.981   2.850   2.802 -0.5464  0.0772  0.3590
 7090SOL    HW228132   4.033   2.909   2.857 -0.9078 -0.0721  0.8739
 7090SOL    HW328133   3.895   2.891   2.799 -0.8081 -0.4295  0.7404
 7090SOL    MW428134   3.976   2.863   2.809  0.1426  0.8622  0.5556
 7091SOL     OW28135   2.655   0.461   3.275 -0.5014  0.0176 -0.3358
 7091SOL    HW228136   2.640   0.428   3.187 -0.2443 -1.2467  0.0797
 7091SOL    HW328137   2.671   0.555   3.263 -0.2573 -0.1794 -1.6471
 7091SOL    MW428138   2.655   0.469   3.262  0.2460  0.1321 -0.3586
 7092SOL     OW28139   5.992   3.287   2.314 -0.1108  0.4519 -0.4329
 7092SOL    HW228140   6.050   3.352   2.274  1.6617 -0.5942  0.2770
 7092SOL    HW328141   6.001   3.210   2.258  1.5037 -0.6517  1.2435
 7092SOL    MW428142   6.001   3.285   2.301 -0.4595  0.3456 -0.0653
 7093SOL     OW28143   1.375   4.359   6.067 -0.1415 -1.1557 -0.1224
 7093SOL    HW228144   1.315   4.429   6.091  1.5466  0.8306 -1.4000
 7093SOL    HW328145   1.360   4.291   6.133 -0.5029  1.1731  2.3849
 7093SOL    MW428146   1.365   4.359   6.079  0.7869  0.5598  0.0409
 7094SOL     OW28147   4.693   3.066   4.198 -0.2312 -0.2683  0.5584
 7094SOL    HW228148   4.707   2.983   4.243 -3.5839 -0.9452  0.6536
 7094SOL    HW328149   4.651   3.121   4.263  0.6543  1.0366  0.0602
 7094SOL    MW428150   4.689   3.062   4.212 -0.5956 -0.4981 -0.7225
 7095SOL     OW28151   5.233   0.976   6.191 -0.0679 -0.0598 -0.5747
 7095SOL    HW228152   5.243   0.976   6.286 -1.3927 -0.2166 -0.4191
 7095SOL    HW328153   5.194   1.062   6.171 -1.9272 -0.8764 -0.6937
 7095SOL    MW428154   5.229   0.987   6.201  0.0576  0.1406 -0.5382
 7096SOL     OW28155   3.606   2.845   3.809 -0.3132 -0.0397  0.3426
 7096SOL    HW228156   3.578   2.927   3.849 -1.3038  0.2773 -0.9111
 7096SOL    HW328157   3.605   2.863   3.715  2.3305 -0.6280  0.1327
 7096SOL    MW428158   3.602   2.858   3.802  0.4266 -0.5731  0.4256
 7097SOL     OW28159   0.297   5.265   0.392  0.3151 -0.2145 -0.6484
 7097SOL    HW228160   0.279   5.221   0.475  0.0756  1.9084  0.4660
 7097SOL    HW328161   0.375   5.220   0.358 -0.0912 -1.6837  0.2644
 7097SOL    MW428162   0.305   5.253   0.398 -0.1535  0.6880 -0.7200
 7098SOL     OW28163   6.237   2.988   1.626 -0.1903 -0.0368 -0.3123
 7098SOL    HW228164   6.243   3.079   1.658  2.3403 -0.1982 -0.1344
 7098SOL    HW328165   6.174   2.947   1.686 -1.9605  1.7271 -0.8424
 7098SOL    MW428166   6.229   2.995   1.638 -0.0832  0.2145  0.9239
 7099SOL     OW28167   5.608   3.579   4.303  0.3158 -0.4069  0.5627
 7099SOL    HW228168   5.553   3.643   4.347 -1.6137 -1.4480 -0.2315
 7099SOL    HW328169   5.698   3.609   4.320 -0.4452  1.0523  2.3327
 7099SOL    MW428170   5.613   3.591   4.311  0.6437 -0.5308  0.0583
 7100SOL     OW28171   1.543   4.328   1.337 -0.1132  0.6616  0.4266
 7100SOL    HW228172   1.605   4.307   1.408  2.2693  1.4179 -1.3196
 7100SOL    HW328173   1.527   4.422   1.346  1.3041  1.0555 -0.7925
 7100SOL    MW428174   1.549   4.337   1.348  0.5749 -0.1779 -0.1518
 7101SOL     OW28175   0.653   4.467   2.274  0.3204  0.3736 -0.4439
 7101SOL    HW228176   0.715   4.536   2.252  1.1919  0.0286  0.8398
 7101SOL    HW328177   0.697   4.415   2.341 -1.2457 -0.0494  0.2974
 7101SOL    MW428178   0.667   4.469   2.280  0.3696 -0.0827  0.0952
 7102SOL     OW28179   3.088   0.473   2.569 -0.3986  0.7664 -0.0779
 7102SOL    HW228180   3.088   0.389   2.616 -1.1613  1.5073  1.2866
 7102SOL    HW328181   3.016   0.464   2.507  0.4586 -0.1251 -0.9926
 7102SOL    MW428182   3.079   0.461   2.567 -0.0045  0.4645  0.3558
 7103SOL     OW28183   2.102   3.585   4.311 -0.4255 -0.2705  0.6503
 7103SOL    HW228184   2.019   3.592   4.358 -0.4984  1.2892  0.3227
 7103SOL    HW328185   2.085   3.623   4.225 -0.4732 -3.5997 -0.9897
 7103SOL    MW428186   2.089   3.591   4.306  0.1892 -0.5713 -0.3449
 7104SOL     OW28187   1.865   0.583   3.246 -0.8140 -0.1035 -0.1820
 7104SOL    HW228188   1.940   0.595   3.188 -1.2855  0.7602 -0.6295
 7104SOL    HW328189   1.901   0.594   3.334 -0.2822 -0.4018 -0.3615
 7104SOL    MW428190   1.880   0.586   3.250 -0.2398  0.3504  0.2981
 7105SOL     OW28191   1.475   3.992   1.054  0.4138 -0.5291 -0.0002
 7105SOL    HW228192   1.465   3.901   1.025  0.2387 -0.2681 -0.7973
 7105SOL    HW328193   1.567   4.013   1.035  0.3030 -0.3626 -0.3666
 7105SOL    MW428194   1.486   3.983   1.048  0.5282  0.0019  0.0792
 7106SOL     OW28195   0.105   1.376   4.771 -0.3731  0.1543 -0.3943
 7106SOL    HW228196   0.051   1.300   4.792 -0.8583  0.6547  0.2455
 7106SOL    HW328197   0.049   1.431   4.716  1.2784 -1.6661 -4.2034
 7106SOL    MW428198   0.091   1.374   4.767  0.3575 -0.3139  0.5336
 7107SOL     OW28199   4.287   4.488   0.487  0.4638  0.4370 -0.5732
 7107SOL    HW228200   4.278   4.509   0.394  1.2723  1.8400 -0.3706
 7107SOL    HW328201   4.278   4.393   0.492 -1.7953  0.5297 -1.7865
 7107SOL    MW428202   4.285   4.478   0.475  0.1920 -0.2454 -0.0369
 7108SOL     OW28203   5.342   1.508   4.638 -0.0878 -0.1305 -0.1198
 7108SOL    HW228204   5.339   1.531   4.545 -1.5956  0.3137  0.0035
 7108SOL    HW328205   5.363   1.415   4.639  0.9109  0.0762 -0.8579
 7108SOL    MW428206   5.344   1.499   4.626  0.3945 -0.0950  0.5017
 7109SOL     OW28207   5.620   3.798   3.865  0.2913  0.4748 -0.1620
 7109SOL    HW228208   5.684   3.745   3.913  2.2536  2.3507 -0.5864
 7109SOL    HW328209   5.603   3.873   3.921 -2.1751 -0.2822  0.2584
 7109SOL    MW428210   5.626   3.801   3.879 -0.2205  0.3252 -0.2043
 7110SOL     OW28211   5.057   1.022   0.418 -0.1644 -0.1459 -0.1353
 7110SOL    HW228212   5.067   0.975   0.335  0.3491  1.0015 -0.7420
 7110SOL    HW328213   5.112   1.099   0.409  0.5754 -0.4043  1.5989
 7110SOL    MW428214   5.066   1.026   0.406  0.8269 -0.5484 -0.3381
 7111SOL     OW28215   0.937   0.139   1.120 -0.1813  0.0090  0.0043
 7111SOL    HW228216   0.844   0.133   1.099 -0.0475 -1.8860 -0.1867
 7111SOL    HW328217   0.970   0.209   1.062 -1.4965  0.8845  0.2593
 7111SOL    MW428218   0.929   0.148   1.109  0.1227  0.0135  0.3934
 7112SOL     OW28219   3.623   4.248   4.471  0.1700 -0.0720 -0.4242
 7112SOL    HW228220   3.697   4.203   4.431  1.4849  0.4369  1.3103
 7112SOL    HW328221   3.629   4.227   4.564 -0.7547  1.4969  0.0329
 7112SOL    MW428222   3.633   4.239   4.478  0.6884  0.0109  0.1883
 7113SOL     OW28223   3.630   0.644   2.156 -0.1782 -0.1482 -0.0965
 7113SOL    HW228224   3.659   0.713   2.097  1.1490  0.0289  0.7106
 7113SOL    HW328225   3.707   0.587   2.167 -1.0833 -1.4692 -0.3316
 7113SOL    MW428226   3.644   0.645   2.150  0.1550 -0.1281  0.3676
 7114SOL     OW28227   4.716   5.043   3.918 -0.0199 -0.3401  0.0171
 7114SOL    HW228228   4.678   4.980   3.856  1.0622  1.2288 -2.4060
 7114SOL    HW328229   4.741   4.990   3.994  1.2086 -2.9596 -2.0401
 7114SOL    MW428230   4.715   5.027   3.920 -0.6242 -0.0484 -0.5889
 7115SOL     OW28231   6.201   3.512   4.394  0.0153 -0.4885 -0.2086
 7115SOL    HW228232   6.153   3.595   4.394 -1.6685 -1.3921 -1.5222
 7115SOL    HW328233   6.205   3.487   4.301  1.7902 -1.1800  0.0131
 7115SOL    MW428234   6.195   3.520   4.382  0.1909 -0.2155  0.6526
 7116SOL     OW28235   1.826   0.074   6.261  0.3905  0.6244  0.1009
 7116SOL    HW228236   1.841   0.002   6.322 -0.6499  0.2385 -0.0763
 7116SOL    HW328237   1.910   0.120   6.257  1.0741 -0.5809  0.2016
 7116SOL    MW428238   1.839   0.071   6.269 -0.6808 -0.3771  0.1911
 7117SOL     OW28239   5.298   5.897   0.573 -0.2336  0.5704  0.7315
 7117SOL    HW228240   5.379   5.882   0.524 -0.0464  2.0259  0.5538
 7117SOL    HW328241   5.279   5.812   0.613 -0.7635 -0.8838 -2.3447
 7117SOL    MW428242   5.307   5.884   0.572  0.2587 -0.6305  0.1295
 7118SOL     OW28243   0.366   1.090   1.265  0.5367 -0.1549 -0.2540
 7118SOL    HW228244   0.301   1.023   1.284  0.9169 -1.0053 -1.7616
 7118SOL    HW328245   0.317   1.172   1.264 -0.3565 -0.6799 -0.5502
 7118SOL    MW428246   0.351   1.092   1.267 -1.0132 -0.3252  0.5635
 7119SOL     OW28247   0.644   5.402   2.863 -0.1596 -0.2572  0.2756
 7119SOL    HW228248   0.683   5.332   2.811  1.7915  0.3592  0.8122
 7119SOL    HW328249   0.714   5.430   2.922 -0.9191  2.0008  0.2066
 7119SOL    MW428250   0.659   5.397   2.864 -0.6103  0.3346 -0.0584
 7120SOL     OW28251   4.761   3.896   0.818  0.0417  0.1934 -0.1673
 7120SOL    HW228252   4.753   3.936   0.732  3.0724  1.0330 -0.1683
 7120SOL    HW328253   4.705   3.818   0.813  1.0608 -0.5037 -3.3681
 7120SOL    MW428254   4.753   3.891   0.806 -0.4252  0.1556  0.1102
 7121SOL     OW28255   0.083   1.001   6.294  0.5061 -0.4178 -0.1946
 7121SOL    HW228256   0.067   0.968   6.383  0.3694 -1.4698 -0.5974
 7121SOL    HW328257   0.177   1.020   6.293  0.3983  0.1545  0.3551
 7121SOL    MW428258   0.094   0.999   6.306 -0.0843 -0.7666  0.2197
 7122SOL     OW28259   4.401   5.585   4.433  0.4879 -0.2714 -0.2306
 7122SOL    HW228260   4.340   5.511   4.427 -0.1315  0.2282 -0.2096
 7122SOL    HW328261   4.472   5.562   4.374 -0.5474 -0.0911 -1.5996
 7122SOL    MW428262   4.402   5.572   4.425  0.4481  0.6308  0.2552
 7123SOL     OW28263   3.972   5.265   6.001  0.0561  0.2038 -0.4311
 7123SOL    HW228264   3.934   5.201   6.061 -0.3896  0.5016 -0.3872
 7123SOL    HW328265   4.028   5.319   6.057  1.6419 -1.0769 -0.7317
 7123SOL    MW428266   3.974   5.264   6.017  0.8376  0.6988 -0.1230
 7124SOL     OW28267   4.909   1.959   4.377 -0.4041 -0.3613  0.1580
 7124SOL    HW228268   4.844   1.959   4.307  0.0797 -0.7878 -0.3062
 7124SOL    HW328269   4.917   2.051   4.403 -1.1100 -0.2952  0.1466
 7124SOL    MW428270   4.902   1.971   4.371  0.0418  0.3894  0.1880
 7125SOL     OW28271   1.601   1.227   1.094 -0.3784 -0.1479  0.4839
 7125SOL    HW228272   1.611   1.132   1.096 -1.3601 -0.3336 -1.2733
 7125SOL    HW328273   1.639   1.253   1.010  1.9159  1.3399  1.8809
 7125SOL    MW428274   1.607   1.218   1.083  0.2972 -0.3248 -0.7464
 7126SOL     OW28275   2.086   6.181   1.337  0.5264 -0.4777 -0.5480
 7126SOL    HW228276   2.026   6.158   1.407  0.8327  1.6211  0.4730
 7126SOL    HW328277   2.029   6.192   1.260 -0.4918  1.4985  0.3988
 7126SOL    MW428278   2.070   6.179   1.336 -0.0880 -0.4880 -0.2618
 7127SOL     OW28279   2.567   1.339   5.814  0.4051 -0.2031 -0.1821
 7127SOL    HW228280   2.481   1.350   5.856 -0.2970  1.1968 -1.8586
 7127SOL    HW328281   2.630   1.349   5.885 -0.7847 -0.7767  1.0047
 7127SOL    MW428282   2.564   1.341   5.829 -0.1194 -0.1430  0.0383
 7128SOL     OW28283   3.665   0.081   6.315  0.0417 -0.1770 -0.2375
 7128SOL    HW228284   3.715   0.133   6.252 -0.0899 -1.4869 -1.4770
 7128SOL    HW328285   3.706  -0.006   6.313 -0.9835 -0.6906  0.2754
 7128SOL    MW428286   3.677   0.076   6.306 -0.6802 -0.2535  0.5182
 7129SOL     OW28287   5.375   5.350   4.326 -0.0727 -0.5759 -0.8519
 7129SOL    HW228288   5.423   5.317   4.249  1.0258  0.1695 -0.5139
 7129SOL    HW328289   5.396   5.288   4.395 -0.4704 -0.8394 -0.9627
 7129SOL    MW428290   5.385   5.338   4.325  0.1103  0.0254  0.3329
 7130SOL     OW28291   5.308   4.733   1.987 -0.3765  0.3716 -0.2953
 7130SOL    HW228292   5.305   4.726   2.082  2.8013 -3.7095 -0.1973
 7130SOL    HW328293   5.239   4.675   1.956  0.9316 -1.2930 -0.2668
 7130SOL    MW428294   5.299   4.724   1.996 -0.5705 -0.1019 -0.0944
 7131SOL     OW28295   6.232   1.445   0.958 -0.1224  0.1754  0.1953
 7131SOL    HW228296   6.244   1.399   0.874  1.5439  1.0558 -0.0882
 7131SOL    HW328297   6.181   1.384   1.011  1.5287 -1.8019 -0.3491
 7131SOL    MW428298   6.227   1.431   0.954 -0.4443  0.0179 -0.1801
 7132SOL     OW28299   2.245   0.380   0.839 -0.2341 -0.2112  0.2726
 7132SOL    HW228300   2.308   0.449   0.857  0.3412 -0.8134  0.5732
 7132SOL    HW328301   2.280   0.334   0.763  0.0212 -0.9497  0.8331
 7132SOL    MW428302   2.258   0.383   0.831 -0.6113 -0.6053 -0.9505
 7133SOL     OW28303   4.354   4.190   6.256 -0.4746  0.8966 -0.2206
 7133SOL    HW228304   4.338   4.221   6.345  0.1519  0.8426 -0.0852
 7133SOL    HW328305   4.419   4.251   6.220  0.8394 -0.2603  0.0800
 7133SOL    MW428306   4.361   4.202   6.263  0.2372 -0.2231  0.2937
 7134SOL     OW28307   4.588   4.245   0.281  0.6665 -0.5120  0.1381
 7134SOL    HW228308   4.630   4.314   0.230  0.4074  0.9436  1.8216
 7134SOL    HW328309   4.659   4.183   0.299  0.9258 -0.6832 -1.2848
 7134SOL    MW428310   4.603   4.246   0.276 -0.0950 -1.1542 -0.5710
 7135SOL     OW28311   2.920   5.460   3.649  0.2714 -0.1401  0.2983
 7135SOL    HW228312   2.984   5.413   3.595 -0.9426 -1.7480  0.1606
 7135SOL    HW328313   2.835   5.429   3.617 -0.5817  1.6161  0.7557
 7135SOL    MW428314   2.918   5.449   3.638  0.4688 -0.0568  0.0397
 7136SOL     OW28315   3.172   2.017   2.067 -0.0638 -0.1911  0.0391
 7136SOL    HW228316   3.246   1.966   2.099  1.0331  0.7577 -0.9017
 7136SOL    HW328317   3.172   2.005   1.972 -0.8365  0.2007 -0.0234
 7136SOL    MW428318   3.182   2.009   2.059  0.4761 -0.0177  0.2715
 7137SOL     OW28319   3.727   6.345   5.801 -0.1744 -0.0515  0.4825
 7137SOL    HW228320   3.807   6.397   5.807 -0.3603  0.2305  0.5096
 7137SOL    HW328321   3.749   6.274   5.740  0.3401 -0.4254  1.0894
 7137SOL    MW428322   3.740   6.342   5.794 -0.0863  0.1742  0.2034
 7138SOL     OW28323   0.015   5.440   1.948  0.1908 -0.0519  0.3353
 7138SOL    HW228324   0.049   5.521   1.911  1.3859 -0.9355 -0.5775
 7138SOL    HW328325  -0.065   5.466   1.995 -1.0574  1.2580 -2.2921
 7138SOL    MW428326   0.009   5.454   1.949  0.0079  0.5288  0.3362
 7139SOL     OW28327   0.462   1.160   5.516  0.6636  0.3858 -0.4889
 7139SOL    HW228328   0.376   1.124   5.494  0.7608 -0.7106  0.8146
 7139SOL    HW328329   0.504   1.091   5.567  2.0375  1.2027 -0.4896
 7139SOL    MW428330   0.456   1.146   5.519  0.0176  0.4080 -0.0416
 7140SOL     OW28331   3.481   0.877   0.126  0.2820 -0.3816 -0.3380
 7140SOL    HW228332   3.419   0.858   0.055  1.0429 -2.3414 -0.5274
 7140SOL    HW328333   3.475   0.802   0.184 -0.9442  1.5554  2.2232
 7140SOL    MW428334   3.472   0.865   0.124  0.1650  0.7003 -0.8360
 7141SOL     OW28335   5.166   0.965   4.499 -0.0915 -0.1306 -0.2662
 7141SOL    HW228336   5.248   0.942   4.544  1.3156  2.2063 -1.4109
 7141SOL    HW328337   5.189   0.964   4.406 -1.5342  0.0422 -0.6405
 7141SOL    MW428338   5.180   0.962   4.493 -0.0549  0.5527  0.3052
 7142SOL     OW28339   1.898   3.233   3.438 -0.3614 -0.3115 -0.4792
 7142SOL    HW228340   1.906   3.240   3.533  0.5869 -0.9434 -0.5079
 7142SOL    HW328341   1.843   3.156   3.425  0.0316 -0.5934 -0.4608
 7142SOL    MW428342   1.892   3.224   3.449 -0.3386 -0.0532 -0.1841
 7143SOL     OW28343   4.796   3.107   3.564 -0.6002 -0.1945  0.0747
 7143SOL    HW228344   4.724   3.114   3.626  0.3240 -3.8033  1.8087
 7143SOL    HW328345   4.875   3.119   3.616  0.1475  0.4773 -1.1600
 7143SOL    MW428346   4.796   3.109   3.579 -0.2247 -0.1084 -0.3468
 7144SOL     OW28347   5.202   4.551   3.735 -0.7130 -0.3993 -0.4053
 7144SOL    HW228348   5.232   4.476   3.684 -0.2205  0.7921 -1.9647
 7144SOL    HW328349   5.126   4.584   3.687 -1.7285 -0.6283  0.9685
 7144SOL    MW428350   5.196   4.546   3.722 -0.1660  0.7201  0.2785
 7145SOL     OW28351   0.212   4.849   5.861  0.3666  0.1133 -0.6153
 7145SOL    HW228352   0.179   4.914   5.923  1.5697  0.5993 -0.4701
 7145SOL    HW328353   0.142   4.843   5.795 -0.7195 -0.0679  0.5104
 7145SOL    MW428354   0.198   4.857   5.860 -0.2200  0.3163 -0.2986
 7146SOL     OW28355   6.142   0.220   2.370  0.1119 -0.1843 -0.2391
 7146SOL    HW228356   6.093   0.227   2.452  1.9493  2.9403  0.7831
 7146SOL    HW328357   6.231   0.197   2.398  0.3201 -1.0816 -1.5818
 7146SOL    MW428358   6.147   0.218   2.385  0.1215  0.2103  0.4988
 7147SOL     OW28359   1.613   1.494   4.775 -0.9409  0.3168 -0.3000
 7147SOL    HW228360   1.637   1.470   4.685 -0.4332 -1.2562  0.2154
 7147SOL    HW328361   1.651   1.580   4.788  0.4824 -0.1624 -1.0453
 7147SOL    MW428362   1.621   1.502   4.765  0.1970 -0.3738 -0.3726
 7148SOL     OW28363   6.144   6.356   3.310 -0.0681 -0.1212 -0.6396
 7148SOL    HW228364   6.108   6.440   3.335  0.8204  0.2204 -0.4511
 7148SOL    HW328365   6.166   6.313   3.392  1.3155  0.3070 -0.7572
 7148SOL    MW428366   6.142   6.361   3.324 -0.2041 -0.1012  0.3741
 7149SOL     OW28367   5.434   1.214   3.187 -0.0388  0.0403  0.3163
 7149SOL    HW228368   5.402   1.178   3.104 -0.5372  0.1626  0.4514
 7149SOL    HW328369   5.468   1.138   3.234 -1.6845 -0.3911  0.8778
 7149SOL    MW428370   5.434   1.199   3.182  0.2544  0.0387  0.1349
 7150SOL     OW28371   1.730   0.528   4.635 -0.6047  0.8631 -0.0522
 7150SOL    HW228372   1.706   0.602   4.691 -0.8507  0.9328 -0.2451
 7150SOL    HW328373   1.680   0.543   4.554 -1.0865  0.2004  0.1122
 7150SOL    MW428374   1.720   0.540   4.631  0.5016 -0.6036  0.0148
 7151SOL     OW28375   2.559   1.555   4.386  0.7553  0.1029 -0.2319
 7151SOL    HW228376   2.580   1.462   4.381 -1.7418 -0.7300  2.2339
 7151SOL    HW328377   2.518   1.565   4.472 -1.3663  2.9835 -1.4337
 7151SOL    MW428378   2.557   1.544   4.397  0.2159 -0.5247 -0.6114
 7152SOL     OW28379   2.134   4.504   3.218  0.0738  0.5716  0.2488
 7152SOL    HW228380   2.160   4.420   3.180  1.7806  0.8753  0.6660
 7152SOL    HW328381   2.113   4.560   3.143 -0.0408  0.0940 -0.0768
 7152SOL    MW428382   2.135   4.500   3.203  0.5845  0.8366  0.4944
 7153SOL     OW28383   3.655   3.682   3.555  0.3726 -0.6328 -0.0210
 7153SOL    HW228384   3.590   3.712   3.492 -0.4520 -0.9644  0.6503
 7153SOL    HW328385   3.698   3.762   3.586 -0.8373 -0.2562  0.7245
 7153SOL    MW428386   3.652   3.696   3.551 -0.1817 -0.0049  0.3458
 7154SOL     OW28387   4.582   5.379   1.001 -0.2344  0.2843 -0.1265
 7154SOL    HW228388   4.549   5.369   0.912  1.2196 -0.9839 -0.5806
 7154SOL    HW328389   4.677   5.372   0.992 -0.0549  0.1099  1.5235
 7154SOL    MW428390   4.590   5.377   0.988 -0.0711  1.1670 -0.3327
 7155SOL     OW28391   4.730   3.009   4.518 -0.0003  0.2592 -0.1551
 7155SOL    HW228392   4.719   2.930   4.465 -1.3614  0.4419 -0.1807
 7155SOL    HW328393   4.648   3.016   4.568  1.6189 -0.5323  2.8663
 7155SOL    MW428394   4.717   3.000   4.518 -0.1026 -0.4452 -0.6400
 7156SOL     OW28395   5.172   6.371   5.824 -0.0722 -0.5020  0.0380
 7156SOL    HW228396   5.106   6.426   5.865 -0.9640 -2.1787  0.9873
 7156SOL    HW328397   5.122   6.307   5.774  0.8959 -0.8465 -0.5114
 7156SOL    MW428398   5.157   6.370   5.823  0.0125 -0.1626 -0.1153
 7157SOL     OW28399   0.116   0.070   3.095  0.0909 -0.1699 -0.0752
 7157SOL    HW228400   0.205   0.035   3.094 -0.1038 -0.6802 -0.9884
 7157SOL    HW328401   0.059  -0.006   3.088 -0.3973  0.2044 -0.3084
 7157SOL    MW428402   0.120   0.056   3.094  0.5040  0.5953  0.0593
 7158SOL     OW28403  -0.010   0.223   6.286 -0.1994 -0.1582 -0.2518
 7158SOL    HW228404   0.038   0.157   6.236 -1.8546 -0.9644 -0.8508
 7158SOL    HW328405  -0.017   0.298   6.227 -0.2235 -0.2647 -0.3823
 7158SOL    MW428406  -0.004   0.224   6.272  0.2270  0.2741  0.0308
 7159SOL     OW28407   2.194   3.269   5.804  0.6706  0.0395 -0.2480
 7159SOL    HW228408   2.190   3.347   5.859 -1.2917  0.5970 -1.0725
 7159SOL    HW328409   2.104   3.259   5.772  1.3878 -1.2410 -1.9777
 7159SOL    MW428410   2.182   3.278   5.807 -0.3521  0.1762  0.1056
 7160SOL     OW28411   6.351   5.630   5.171  0.0599  0.1623 -0.2857
 7160SOL    HW228412   6.398   5.547   5.182 -0.5095 -0.3449 -1.5153
 7160SOL    HW328413   6.370   5.679   5.251 -1.0598 -1.8878  1.3476
 7160SOL    MW428414   6.359   5.626   5.183 -0.4821 -0.3688  0.4975
 7161SOL     OW28415   0.259   0.601   1.886 -0.5746  0.2007 -0.9308
 7161SOL    HW228416   0.166   0.615   1.908 -0.2300  0.8091  0.2163
 7161SOL    HW328417   0.257   0.535   1.817 -1.8485 -0.1163 -0.6253
 7161SOL    MW428418   0.246   0.594   1.880 -0.4356  0.3326  0.2152
 7162SOL     OW28419   3.839   1.156   0.332 -0.5091  0.5182 -0.0690
 7162SOL    HW228420   3.926   1.177   0.298 -1.0992  0.7947 -1.4904
 7162SOL    HW328421   3.813   1.077   0.285 -0.5316 -0.2786  1.2573
 7162SOL    MW428422   3.847   1.148   0.321 -0.5894  0.0299  0.5077
 7163SOL     OW28423   3.591   6.186   5.990  0.1069  0.4238  0.1557
 7163SOL    HW228424   3.616   6.262   5.937 -0.1068 -1.6158 -3.1093
 7163SOL    HW328425   3.674   6.145   6.014  0.1811 -0.5551 -1.6653
 7163SOL    MW428426   3.605   6.191   5.986  0.0000  0.1582  0.5383
 7164SOL     OW28427   5.085   4.033   5.142  0.4618  0.1054 -0.1574
 7164SOL    HW228428   5.136   4.033   5.223 -0.7463 -1.6090  0.6724
 7164SOL    HW328429   5.080   3.940   5.118  0.2417  0.5316 -1.8492
 7164SOL    MW428430   5.091   4.021   5.150 -0.2569  0.5086  0.8042
 7165SOL     OW28431   1.180   1.436   0.130  0.2998  0.2271 -0.4888
 7165SOL    HW228432   1.099   1.428   0.180 -1.3428  2.4848 -2.5730
 7165SOL    HW328433   1.163   1.506   0.067  2.3272 -2.0783 -3.9644
 7165SOL    MW428434   1.167   1.444   0.128 -0.2987 -0.0758  0.0308
 7166SOL     OW28435   0.031   5.861   1.071  0.2994  0.3269 -0.3386
 7166SOL    HW228436   0.120   5.847   1.037  0.1388  0.4242 -0.8070
 7166SOL    HW328437   0.042   5.862   1.166  0.9239  1.2067 -0.4131
 7166SOL    MW428438   0.044   5.859   1.079  0.0159 -0.3640  0.5801
 7167SOL     OW28439   0.951   3.014   2.781  0.3872 -0.2207 -0.0247
 7167SOL    HW228440   1.028   2.972   2.819 -0.6653 -1.1713  1.1611
 7167SOL    HW328441   0.949   3.102   2.818  0.4368 -0.4869  0.6081
 7167SOL    MW428442   0.961   3.020   2.791  0.3740  0.3789 -0.0154
 7168SOL     OW28443   4.885   2.580   5.764  0.5069 -0.0772  0.5963
 7168SOL    HW228444   4.854   2.505   5.814 -3.1111  1.3253  0.7564
 7168SOL    HW328445   4.893   2.651   5.828 -2.4346  1.2542 -0.3147
 7168SOL    MW428446   4.882   2.580   5.779 -0.0417  0.1506  0.1498
 7169SOL     OW28447   1.755   3.917   1.426 -0.2318  0.3711 -1.0081
 7169SOL    HW228448   1.784   3.972   1.499 -0.6078 -1.6331  0.7800
 7169SOL    HW328449   1.661   3.907   1.441  0.0126 -1.6328 -0.5911
 7169SOL    MW428450   1.746   3.923   1.438  0.3587 -0.0230  0.2199
 7170SOL     OW28451   5.267   1.854   4.172 -0.0234  0.3697  0.0087
 7170SOL    HW228452   5.224   1.828   4.254 -0.1983  2.1614  0.5238
 7170SOL    HW328453   5.360   1.843   4.189 -0.0872  0.1861  0.2490
 7170SOL    MW428454   5.273   1.849   4.185 -0.0197 -0.6924 -0.2324
 7171SOL     OW28455   1.399   3.033   1.882 -0.3251 -0.1607  0.0130
 7171SOL    HW228456   1.377   2.991   1.798 -1.3848 -0.2400  0.3194
 7171SOL    HW328457   1.344   2.990   1.946 -1.3344  1.5617  0.3730
 7171SOL    MW428458   1.389   3.022   1.879  0.1868 -0.3267  0.0802
 7172SOL     OW28459   1.886   1.828   0.191 -0.2057  0.2695  0.6049
 7172SOL    HW228460   1.839   1.789   0.117 -0.2538 -0.3436  0.9556
 7172SOL    HW328461   1.945   1.759   0.222  2.1469  1.5008 -0.8180
 7172SOL    MW428462   1.888   1.814   0.186  0.3290 -0.3171 -0.0461
 7173SOL     OW28463   0.365   3.588   1.222 -0.5290  0.0596 -0.3301
 7173SOL    HW228464   0.392   3.676   1.249 -1.1659 -0.1277  1.0215
 7173SOL    HW328465   0.332   3.599   1.133 -1.7961  1.4634  0.2596
 7173SOL    MW428466   0.364   3.601   1.214  0.4068 -0.2752  0.4080
 7174SOL     OW28467   0.487   2.787   3.608  0.2572  0.1577  0.0446
 7174SOL    HW228468   0.445   2.704   3.585 -1.2192  0.8081  0.3148
 7174SOL    HW328469   0.551   2.764   3.675  1.9940 -1.1943 -1.9354
 7174SOL    MW428470   0.490   2.773   3.614 -0.6390  0.2346  0.5638
 7175SOL     OW28471   5.209   3.265   6.188 -0.5798 -0.3565  0.5258
 7175SOL    HW228472   5.128   3.215   6.190  1.0157 -3.3718 -1.3434
 7175SOL    HW328473   5.192   3.338   6.128 -1.5285 -1.8531 -1.1186
 7175SOL    MW428474   5.196   3.268   6.180 -0.4224  0.1064  0.1319
 7176SOL     OW28475   6.156   3.810   4.367 -0.3010 -0.0601  0.0283
 7176SOL    HW228476   6.110   3.890   4.392  1.0168  0.8867 -0.4236
 7176SOL    HW328477   6.246   3.839   4.349  0.1002 -1.5734 -0.5801
 7176SOL    MW428478   6.162   3.825   4.368 -0.2210 -0.2647  0.2471
 7177SOL     OW28479   6.281   6.039   2.805 -0.3122  0.7128  0.2151
 7177SOL    HW228480   6.195   6.010   2.838  0.3727  0.1142  1.5626
 7177SOL    HW328481   6.262   6.120   2.759 -1.4532  1.3562  1.7001
 7177SOL    MW428482   6.267   6.046   2.804 -0.2544 -0.3108  0.3054
 7178SOL     OW28483   2.369   5.894   0.314 -0.0712 -0.0358 -0.1176
 7178SOL    HW228484   2.453   5.893   0.360 -0.8155  1.5347  1.3941
 7178SOL    HW328485   2.335   5.806   0.324 -0.3389  0.2998  2.7608
 7178SOL    MW428486   2.376   5.883   0.321  0.3298 -0.0045 -0.6209
 7179SOL     OW28487   4.586   2.015   3.625 -0.4969 -0.1214  0.3633
 7179SOL    HW228488   4.621   2.095   3.664  0.5250 -0.6375  0.5593
 7179SOL    HW328489   4.642   2.000   3.549 -1.3615 -0.0795 -0.2952
 7179SOL    MW428490   4.598   2.024   3.620 -0.5176  0.3912 -0.5439
 7180SOL     OW28491   3.119   1.934   1.786  0.2807  0.3158 -0.1717
 7180SOL    HW228492   3.024   1.947   1.789  0.2467  0.0240  0.0368
 7180SOL    HW328493   3.141   1.945   1.693  0.4994  3.4644  0.1736
 7180SOL    MW428494   3.109   1.937   1.774  0.3305 -0.1615  0.1774
 7181SOL     OW28495   1.453   3.708   3.646  0.8411  0.5458  0.2381
 7181SOL    HW228496   1.490   3.757   3.719 -0.8953  0.6028  1.1297
 7181SOL    HW328497   1.529   3.676   3.598  2.0303  0.9521  1.7604
 7181SOL    MW428498   1.468   3.710   3.649  0.0118 -0.2775 -0.3289
 7182SOL     OW28499   0.501   3.848   1.300 -0.0599 -0.6270  0.2371
 7182SOL    HW228500   0.553   3.876   1.225 -0.4902  0.2870  0.2673
 7182SOL    HW328501   0.555   3.781   1.343  0.1535 -1.2067 -0.9105
 7182SOL    MW428502   0.515   3.843   1.296  0.0135  0.3581 -0.1754
 7183SOL     OW28503   3.356   5.115   6.267 -0.4464  0.2648 -0.8594
 7183SOL    HW228504   3.382   5.195   6.313 -0.2702 -0.3950  0.2187
 7183SOL    HW328505   3.375   5.133   6.175  2.1394  0.5064 -0.3641
 7183SOL    MW428506   3.362   5.128   6.261  0.1082  0.0296 -0.6398
 7184SOL     OW28507   3.920   0.938   5.976 -0.1311  0.0067 -0.1527
 7184SOL    HW228508   3.915   0.954   6.070  2.4084  2.8511 -0.3378
 7184SOL    HW328509   3.828   0.932   5.948 -1.1508  2.9911  1.9867
 7184SOL    MW428510   3.907   0.939   5.985  0.3311  0.4363 -0.2268
 7185SOL     OW28511   2.971   5.736   3.833 -0.0528  0.2259 -0.1313
 7185SOL    HW228512   2.928   5.680   3.769  0.7644 -0.4847 -0.0789
 7185SOL    HW328513   2.968   5.686   3.915 -1.4155  1.2747  0.5063
 7185SOL    MW428514   2.965   5.722   3.835 -0.3493  0.2786 -0.2198
 7186SOL     OW28515   2.803   2.890   4.078  0.4004 -0.7596 -0.3204
 7186SOL    HW228516   2.848   2.926   4.001 -0.4164  0.5314 -0.2384
 7186SOL    HW328517   2.870   2.841   4.125  0.7824 -2.1026 -2.1564
 7186SOL    MW428518   2.817   2.889   4.074  0.3015 -0.4535  0.4932
 7187SOL     OW28519   2.904   5.344   1.948  0.1757  1.0236 -0.2678
 7187SOL    HW228520   2.864   5.417   1.995  1.0629  2.0821 -1.1250
 7187SOL    HW328521   2.841   5.272   1.957 -1.4800  2.3572 -0.7965
 7187SOL    MW428522   2.891   5.344   1.956 -0.0468  0.2342 -0.1203
 7188SOL     OW28523   1.704   5.637   4.720  0.2344  0.0875 -0.4420
 7188SOL    HW228524   1.639   5.644   4.790 -1.1535  2.5490 -1.8493
 7188SOL    HW328525   1.683   5.708   4.659  3.0163 -0.2770 -2.0372
 7188SOL    MW428526   1.693   5.647   4.721  0.0417  0.5070 -0.5253
 7189SOL     OW28527   2.478   6.422   1.886 -0.1029  0.0524 -0.0720
 7189SOL    HW228528   2.454   6.458   1.800 -1.0230 -1.5862 -0.5473
 7189SOL    HW328529   2.465   6.494   1.947 -1.4178  0.6706 -1.0452
 7189SOL    MW428530   2.473   6.436   1.882  0.1339 -0.4546  0.0021
 7190SOL     OW28531   3.070   1.288   0.842  0.0789 -0.6910 -0.0129
 7190SOL    HW228532   3.116   1.371   0.848  0.7511 -1.0992  0.6381
 7190SOL    HW328533   3.036   1.285   0.752  1.7644 -0.6232 -0.6760
 7190SOL    MW428534   3.071   1.299   0.831 -0.1042  0.1919 -0.2928
 7191SOL     OW28535   4.445   4.541   0.090  0.1639  0.1707 -0.3316
 7191SOL    HW228536   4.507   4.576   0.154  0.9933 -0.8232 -0.5742
 7191SOL    HW328537   4.360   4.544   0.135  0.5763  0.3658  0.4581
 7191SOL    MW428538   4.442   4.546   0.104  0.3517 -0.1705  0.6689
 7192SOL     OW28539   3.496   1.245   4.690  0.3900  0.0520 -0.5830
 7192SOL    HW228540   3.582   1.282   4.668  0.3036  1.3383  1.0871
 7192SOL    HW328541   3.436   1.288   4.629  0.7759 -0.1480 -1.1217
 7192SOL    MW428542   3.499   1.255   4.679  0.1133 -0.2229  0.3833
 7193SOL     OW28543   1.446   0.782   5.472  0.1943 -0.2655  0.2091
 7193SOL    HW228544   1.442   0.791   5.567  0.4755  1.6981  0.0763
 7193SOL    HW328545   1.462   0.870   5.440  1.4380 -1.0740 -1.6031
 7193SOL    MW428546   1.447   0.794   5.480  0.1529  0.2814  0.0810
 7194SOL     OW28547   4.891   4.774   6.162 -0.1776  0.6343 -0.0098
 7194SOL    HW228548   4.840   4.830   6.221 -1.5974 -2.3766  1.8463
 7194SOL    HW328549   4.855   4.792   6.075 -3.5722 -0.2883  1.0442
 7194SOL    MW428550   4.879   4.784   6.158 -0.0070 -0.1900  0.7619
 7195SOL     OW28551   2.890   1.853   3.947 -0.1434  0.5630  0.2716
 7195SOL    HW228552   2.844   1.935   3.960 -0.3372  0.3863  0.7395
 7195SOL    HW328553   2.961   1.874   3.886 -0.0679  1.1224  0.5429
 7195SOL    MW428554   2.893   1.866   3.941  0.0121  0.0571 -0.3935
 7196SOL     OW28555   5.444   4.904   4.383  0.2008 -0.1922  0.5554
 7196SOL    HW228556   5.417   4.988   4.421  1.1517 -0.0797  1.0107
 7196SOL    HW328557   5.363   4.867   4.346 -0.9135 -0.5726  3.1613
 7196SOL    MW428558   5.429   4.910   4.383  0.3126  0.3044 -0.2795
 7197SOL     OW28559   2.865   4.252   3.468  0.1933 -0.2460 -0.3980
 7197SOL    HW228560   2.894   4.326   3.415  0.4294 -0.6195 -0.7997
 7197SOL    HW328561   2.785   4.282   3.510  0.5763  0.4268 -0.1291
 7197SOL    MW428562   2.859   4.266   3.467  0.2798  0.0365  0.3268
 7198SOL     OW28563   0.882   2.130   2.159 -0.6983 -0.3636  0.2960
 7198SOL    HW228564   0.949   2.082   2.109  0.5918  0.6296  0.9998
 7198SOL    HW328565   0.867   2.209   2.107 -0.6803 -0.1772  0.5755
 7198SOL    MW428566   0.889   2.134   2.145 -0.0465  0.2322 -0.1615
 7199SOL     OW28567   3.614   4.993   4.031 -0.3434 -0.0346 -0.2991
 7199SOL    HW228568   3.577   5.081   4.032  0.1197  0.1933 -1.5374
 7199SOL    HW328569   3.637   4.978   3.939  1.2629 -0.7246  0.1775
 7199SOL    MW428570   3.612   5.003   4.019  0.1956  0.4027 -0.0572
 7200SOL     OW28571   2.343   0.705   2.942 -0.2251  0.3307  0.3781
 7200SOL    HW228572   2.333   0.751   2.858 -0.4021  2.1434  1.3458
 7200SOL    HW328573   2.368   0.616   2.917  2.2961  1.4435 -1.5599
 7200SOL    MW428574   2.345   0.699   2.928  0.1565  0.4577 -0.0568
 7201SOL     OW28575   3.973   3.622   0.735 -0.1964  0.5437 -0.3169
 7201SOL    HW228576   3.998   3.712   0.717 -0.4803  0.2272 -2.4571
 7201SOL    HW328577   3.879   3.626   0.754  0.2164  0.9546  1.9883
 7201SOL    MW428578   3.964   3.634   0.735  0.5674  0.0125 -0.5009
 7202SOL     OW28579   2.845   0.414   0.666  0.7678 -0.5305  0.1373
 7202SOL    HW228580   2.765   0.369   0.691  0.9104 -0.1595  1.3422
 7202SOL    HW328581   2.864   0.383   0.578  0.9342 -2.9656  0.9515
 7202SOL    MW428582   2.837   0.404   0.658 -0.0888  0.0654 -1.0760
 7203SOL     OW28583   3.557   4.466   0.774  0.0606  0.1678  0.2392
 7203SOL    HW228584   3.635   4.488   0.825  0.1067  1.6416 -0.4128
 7203SOL    HW328585   3.546   4.540   0.714 -2.0412  0.1639  0.5510
 7203SOL    MW428586   3.566   4.478   0.773  0.3132 -0.0631  0.2575
 7204SOL     OW28587   1.983   0.833   5.566  0.2119 -0.1459  0.0590
 7204SOL    HW228588   1.948   0.789   5.644  1.6632 -0.8859  0.3215
 7204SOL    HW328589   2.072   0.857   5.590  0.9148 -0.9850 -1.5784
 7204SOL    MW428590   1.990   0.830   5.580  0.3928 -0.2522  0.3195
 7205SOL     OW28591   1.386   1.278   2.980  0.3820  0.2175 -0.2925
 7205SOL    HW228592   1.450   1.209   2.999  0.2770  0.5592  1.5659
 7205SOL    HW328593   1.403   1.302   2.889 -1.1613 -3.8859 -1.9190
 7205SOL    MW428594   1.397   1.272   2.971  0.0155  0.4046 -0.0129
 7206SOL     OW28595   3.814   2.064   6.388  0.4189  0.1045  0.1237
 7206SOL    HW228596   3.887   2.011   6.358  1.2082  1.2098 -0.0033
 7206SOL    HW328597   3.813   2.139   6.329 -0.8387  0.1080  0.1153
 7206SOL    MW428598   3.824   2.067   6.377 -0.7383 -0.1762  0.2197
 7207SOL     OW28599   2.492   3.599   5.092  0.0715 -0.1475  0.4517
 7207SOL    HW228600   2.494   3.692   5.112  1.1071 -0.1230  0.3191
 7207SOL    HW328601   2.408   3.584   5.049  0.4621  0.9922 -0.7585
 7207SOL    MW428602   2.481   3.609   5.089  0.1651  0.5904 -0.5271
 7208SOL     OW28603   1.320   0.291   5.351 -0.1074  0.3875  0.2778
 7208SOL    HW228604   1.255   0.226   5.375 -0.8614  0.7481 -0.7235
 7208SOL    HW328605   1.403   0.243   5.351 -0.8403 -1.0610 -2.0663
 7208SOL    MW428606   1.323   0.276   5.354  0.2043  0.0555  0.1414
 7209SOL     OW28607   1.368   0.277   5.077  0.1220  0.6902  0.6398
 7209SOL    HW228608   1.340   0.191   5.046  2.5799  0.1199 -0.2043
 7209SOL    HW328609   1.354   0.274   5.172  3.1716 -2.0183  1.2067
 7209SOL    MW428610   1.362   0.265   5.086  0.0483 -0.3928  0.3407
 7210SOL     OW28611   4.124   4.532   1.104 -0.4993  0.5752 -0.3156
 7210SOL    HW228612   4.196   4.558   1.161 -1.6484  0.0937  1.4223
 7210SOL    HW328613   4.130   4.592   1.029  0.6923  1.6447  0.5862
 7210SOL    MW428614   4.134   4.544   1.101 -0.5674 -0.1112  0.2542
 7211SOL     OW28615   5.274   3.586   1.476 -0.3451 -0.0809 -0.0105
 7211SOL    HW228616   5.368   3.602   1.487  0.1064 -2.8584  0.9220
 7211SOL    HW328617   5.268   3.522   1.404 -1.6810  1.1662 -1.0787
 7211SOL    MW428618   5.285   3.580   1.468  0.6604 -0.1562  0.4150
 7212SOL     OW28619   3.771   5.782   1.776 -0.1316 -0.9403  0.0638
 7212SOL    HW228620   3.799   5.807   1.863 -0.0124 -1.5282  0.2028
 7212SOL    HW328621   3.692   5.729   1.790 -1.6363  1.0662 -0.3445
 7212SOL    MW428622   3.764   5.778   1.789 -0.0253  0.3114 -0.7419
 7213SOL     OW28623   3.874   2.363   4.930 -0.4546 -0.0875 -0.3428
 7213SOL    HW228624   3.947   2.423   4.944  0.8481 -1.6798  0.0078
 7213SOL    HW328625   3.843   2.342   5.017 -2.0600  1.3645 -0.5171
 7213SOL    MW428626   3.880   2.368   4.943  0.3187  0.3508  0.7770
 7214SOL     OW28627   1.605   4.722   4.717  0.2762  0.3713 -0.4145
 7214SOL    HW228628   1.697   4.713   4.740 -0.0040  1.2586  1.2612
 7214SOL    HW328629   1.559   4.715   4.801 -1.3095 -1.3325 -1.3556
 7214SOL    MW428630   1.611   4.720   4.731 -0.4372 -0.5066  0.2846
 7215SOL     OW28631   4.677   2.242   1.215  0.3243 -0.2920  0.2666
 7215SOL    HW228632   4.719   2.288   1.143  0.3638 -1.4745 -0.5062
 7215SOL    HW328633   4.592   2.214   1.180 -0.3851  0.5575  1.2446
 7215SOL    MW428634   4.671   2.244   1.201  0.1791  0.3811  0.4188
 7216SOL     OW28635   1.442   0.640   0.885  0.6030  0.2823 -0.2249
 7216SOL    HW228636   1.441   0.643   0.789 -0.2992 -0.6673 -0.2627
 7216SOL    HW328637   1.393   0.717   0.913 -0.1242 -0.0512 -0.5597
 7216SOL    MW428638   1.436   0.651   0.876 -0.0319 -0.3011 -0.1469
 7217SOL     OW28639   0.275   1.892   3.610 -0.5142 -0.2795  0.0230
 7217SOL    HW228640   0.360   1.917   3.647  0.9511 -2.4469 -1.6047
 7217SOL    HW328641   0.259   1.804   3.645 -1.4230 -0.4240 -0.7309
 7217SOL    MW428642   0.284   1.883   3.620  0.6909  0.4836 -0.9796
 7218SOL     OW28643   0.029   2.603   1.402  0.1482 -0.8314 -0.1082
 7218SOL    HW228644   0.116   2.615   1.365  0.5303 -0.2615  0.9419
 7218SOL    HW328645   0.013   2.508   1.396  0.7726 -0.9204 -0.4311
 7218SOL    MW428646   0.038   2.592   1.396  0.0225 -0.6434 -0.0720
 7219SOL     OW28647   0.263   6.127   4.003  0.3102 -0.0158  0.3951
 7219SOL    HW228648   0.177   6.152   3.973 -0.4119 -1.4226  1.1517
 7219SOL    HW328649   0.249   6.095   4.093  1.6397 -0.0921  0.6077
 7219SOL    MW428650   0.250   6.126   4.011 -0.0678  0.4826 -0.2956
 7220SOL     OW28651   0.360   6.257   2.202 -0.1689 -0.2201  0.0399
 7220SOL    HW228652   0.283   6.295   2.243  1.3721  0.7620  2.2314
 7220SOL    HW328653   0.419   6.237   2.275  2.7223  1.5173 -1.6029
 7220SOL    MW428654   0.358   6.259   2.217  0.3948 -0.1012  0.0117
 7221SOL     OW28655   5.291   2.604   3.181 -0.2626 -0.0881 -0.3633
 7221SOL    HW228656   5.268   2.697   3.184 -1.3377 -0.3062 -0.9412
 7221SOL    HW328657   5.257   2.575   3.096 -0.7642 -1.2043  0.2050
 7221SOL    MW428658   5.283   2.612   3.170 -0.0099 -0.7048  0.6494
 7222SOL     OW28659   5.627   2.604   2.080  0.4840  0.1142 -0.1466
 7222SOL    HW228660   5.696   2.632   2.139 -2.1472  0.8608  2.8164
 7222SOL    HW328661   5.615   2.511   2.099 -0.4178  0.3722  0.6067
 7222SOL    MW428662   5.635   2.595   2.090 -0.0256 -0.0753 -0.3881
 7223SOL     OW28663   0.244   4.877   4.592  0.5638 -0.3378  0.4284
 7223SOL    HW228664   0.249   4.862   4.687 -0.4324 -0.0641  0.5398
 7223SOL    HW328665   0.175   4.818   4.562  0.0466  0.4392  0.0720
 7223SOL    MW428666   0.236   4.867   4.601  0.2119  0.3560 -0.7056
 7224SOL     OW28667   6.208   0.504   5.929  0.0071  0.4136 -0.0987
 7224SOL    HW228668   6.156   0.473   6.004  0.1741  0.2931 -0.0335
 7224SOL    HW328669   6.268   0.432   5.910  0.5733  0.7913  0.2161
 7224SOL    MW428670   6.209   0.490   5.936  0.5174 -0.3418 -0.1679
 7225SOL     OW28671   3.841   0.904   1.765  0.1004  0.0666 -0.4820
 7225SOL    HW228672   3.816   0.853   1.842  0.0475  0.8017 -0.0014
 7225SOL    HW328673   3.908   0.851   1.722  0.3200 -0.2383  0.2148
 7225SOL    MW428674   3.846   0.890   1.770  0.0142  0.6457  0.0394
 7226SOL     OW28675   2.019   3.439   2.865 -0.1790  0.3838 -0.0411
 7226SOL    HW228676   1.926   3.456   2.856 -0.5265 -1.5122 -0.3620
 7226SOL    HW328677   2.028   3.394   2.949  0.4509  0.5841  0.0058
 7226SOL    MW428678   2.008   3.435   2.875 -0.2279 -0.5242 -0.6281
 7227SOL     OW28679   2.948   5.514   0.420  0.4226  0.3511  0.0047
 7227SOL    HW228680   2.986   5.505   0.507 -1.1851  0.0667  0.7177
 7227SOL    HW328681   2.943   5.425   0.386  0.8320  0.4375 -0.2892
 7227SOL    MW428682   2.952   5.501   0.427  0.0142  0.2988  0.0256
 7228SOL     OW28683   1.789   2.637   4.217 -0.1326  0.2418 -0.3002
 7228SOL    HW228684   1.779   2.691   4.139 -0.4708 -0.4316 -0.7353
 7228SOL    HW328685   1.729   2.563   4.203 -2.0370  1.2803  1.6521
 7228SOL    MW428686   1.780   2.634   4.205  0.6776 -0.0899 -0.0469
 7229SOL     OW28687   4.699   3.610   5.285  0.2069 -0.4817 -0.2988
 7229SOL    HW228688   4.673   3.578   5.372 -1.0843 -1.7241 -1.1018
 7229SOL    HW328689   4.621   3.598   5.231  1.4915 -1.3681 -2.0531
 7229SOL    MW428690   4.685   3.604   5.290 -0.2853  0.1735  0.2515
 7230SOL     OW28691   5.767   2.599   5.210  0.2404 -0.4368 -0.1709
 7230SOL    HW228692   5.839   2.661   5.202  0.3869 -0.7222 -1.2034
 7230SOL    HW328693   5.784   2.553   5.292  1.6013 -0.9466 -0.7075
 7230SOL    MW428694   5.779   2.601   5.220  0.1321  0.5177  0.3536
 7231SOL     OW28695   0.145   5.784   4.307  0.4904 -0.2235  0.0073
 7231SOL    HW228696   0.052   5.768   4.327  0.9692 -1.4624  1.4081
 7231SOL    HW328697   0.177   5.700   4.274  0.7342  0.6752 -2.2282
 7231SOL    MW428698   0.137   5.771   4.305  0.0119 -0.2793  0.3991
 7232SOL     OW28699   4.058   0.148   2.689  0.0004  0.0525  0.1507
 7232SOL    HW228700   4.097   0.195   2.762  0.3043 -1.9403  1.3356
 7232SOL    HW328701   3.981   0.104   2.727 -0.8615  0.3704 -1.1408
 7232SOL    MW428702   4.053   0.148   2.703  0.4991  0.1785  0.1093
 7233SOL     OW28703   5.258   2.381   2.378  0.1469 -0.6806 -0.2487
 7233SOL    HW228704   5.201   2.445   2.420  1.4018 -0.4990  1.2807
 7233SOL    HW328705   5.312   2.346   2.449  1.5444 -1.2531 -1.5217
 7233SOL    MW428706   5.258   2.385   2.393 -0.0167  0.1821 -0.0791
 7234SOL     OW28707   0.534   1.485   0.881 -0.2092 -0.5472  0.0162
 7234SOL    HW228708   0.444   1.495   0.913  0.0222  1.0436  0.2423
 7234SOL    HW328709   0.568   1.410   0.930 -1.2013 -0.7726  0.3926
 7234SOL    MW428710   0.527   1.476   0.892  0.3150  0.0809  0.4884
 7235SOL     OW28711   1.847   1.939   5.921 -0.0489  0.1789 -0.1843
 7235SOL    HW228712   1.796   2.019   5.905 -0.0967  1.1697  3.8376
 7235SOL    HW328713   1.783   1.877   5.954  0.5089 -0.5150 -0.3936
 7235SOL    MW428714   1.831   1.942   5.923  0.5796 -0.3254 -0.7993
 7236SOL     OW28715   5.611   1.958   0.168 -0.4720 -0.2293  0.2083
 7236SOL    HW228716   5.641   2.029   0.226 -1.7432  3.3102 -3.0394
 7236SOL    HW328717   5.689   1.930   0.121 -0.1358 -0.2469  0.7666
 7236SOL    MW428718   5.625   1.964   0.170 -0.0053 -0.0841  0.3519
 7237SOL     OW28719   1.401   2.753   3.435  0.1815  0.1765  0.0022
 7237SOL    HW228720   1.466   2.696   3.395  1.2424  1.8217 -0.7151
 7237SOL    HW328721   1.406   2.834   3.384 -0.3169  1.3898  1.8161
 7237SOL    MW428722   1.410   2.756   3.423 -0.4875 -0.3820  0.0471
 7238SOL     OW28723   0.878   4.900   4.539  0.4667  0.4320  0.4684
 7238SOL    HW228724   0.879   4.931   4.448  1.2904  1.5403  0.8455
 7238SOL    HW328725   0.969   4.877   4.558  0.4350  0.9263  1.2496
 7238SOL    MW428726   0.890   4.901   4.529  0.3186  0.0380 -0.1950
 7239SOL     OW28727   1.891   4.926   1.183  0.1926  0.0779  0.4443
 7239SOL    HW228728   1.873   5.019   1.166 -0.9246 -0.3715 -0.9540
 7239SOL    HW328729   1.986   4.922   1.195  0.1555  1.5488  1.6276
 7239SOL    MW428730   1.901   4.938   1.183  0.4950 -0.6105 -0.1069
 7240SOL     OW28731   3.775   6.245   0.452 -0.1781 -0.2160  0.4866
 7240SOL    HW228732   3.710   6.284   0.394  0.6410 -0.4026 -0.5916
 7240SOL    HW328733   3.770   6.297   0.533 -0.4078  0.9131 -0.2355
 7240SOL    MW428734   3.766   6.257   0.455 -0.8289 -0.2559 -0.1159
 7241SOL     OW28735   2.091   4.030   0.566  0.2115 -0.2431  0.2564
 7241SOL    HW228736   2.145   4.109   0.574 -0.8291  0.5336 -0.0276
 7241SOL    HW328737   2.148   3.966   0.524  1.1783  0.2571  0.7620
 7241SOL    MW428738   2.106   4.032   0.562 -0.0201  0.0343 -0.4570
 7242SOL     OW28739   0.297   3.375   6.145 -0.4163  0.4291  0.2700
 7242SOL    HW228740   0.383   3.348   6.112 -1.4086 -1.3358 -1.0501
 7242SOL    HW328741   0.254   3.415   6.069 -0.9721  0.8103  0.7795
 7242SOL    MW428742   0.303   3.377   6.131  0.2010 -0.0619 -0.3104
 7243SOL     OW28743   5.207   3.000   3.910 -0.2326  0.0553  1.0374
 7243SOL    HW228744   5.142   2.998   3.981 -1.6470 -1.9679 -0.2176
 7243SOL    HW328745   5.156   3.022   3.832  0.8143 -0.3776  0.2126
 7243SOL    MW428746   5.192   3.003   3.909  0.5780 -0.3155 -0.4201
 7244SOL     OW28747   6.389   5.210   2.208  0.4081 -0.0526 -0.0429
 7244SOL    HW228748   6.316   5.247   2.158 -0.1407 -0.3418  0.5224
 7244SOL    HW328749   6.466   5.260   2.180 -0.1865  1.0161  0.1571
 7244SOL    MW428750   6.389   5.221   2.198 -0.2433  0.4389  0.2473
 7245SOL     OW28751   1.276   0.857   2.971 -0.0877  0.3554  0.2473
 7245SOL    HW228752   1.230   0.774   2.975  0.8074 -0.2949 -1.7769
 7245SOL    HW328753   1.286   0.875   2.878  0.4631  2.3420  0.6298
 7245SOL    MW428754   1.271   0.849   2.959 -0.6117 -0.0260 -0.7534
 7246SOL     OW28755   1.116   4.827   4.623  0.1113 -0.0464  0.8026
 7246SOL    HW228756   1.180   4.767   4.585  0.1233 -0.6688  1.7700
 7246SOL    HW328757   1.068   4.774   4.686  0.8392  1.1795  2.4702
 7246SOL    MW428758   1.118   4.812   4.626  0.2271 -0.3981  0.5319
 7247SOL     OW28759   2.769   4.908   1.300 -0.1043  0.5514  0.0706
 7247SOL    HW228760   2.786   4.984   1.244 -1.9851  0.5732 -0.5256
 7247SOL    HW328761   2.705   4.856   1.251  1.4252 -1.6581  0.2607
 7247SOL    MW428762   2.763   4.911   1.286 -0.2474 -0.1044 -0.6872
 7248SOL     OW28763   3.682   3.341   0.219 -1.2710  0.2147 -0.3979
 7248SOL    HW228764   3.619   3.277   0.250  0.0744 -0.2731  1.4704
 7248SOL    HW328765   3.739   3.292   0.159 -1.4023  0.1437 -0.4650
 7248SOL    MW428766   3.682   3.326   0.215 -0.1708  0.4389  0.6174
 7249SOL     OW28767   2.800   5.222   2.625  0.1492 -0.1598 -0.1862
 7249SOL    HW228768   2.768   5.302   2.667 -0.2822 -1.1090  1.4031
 7249SOL    HW328769   2.891   5.214   2.656 -0.0144 -0.6116  0.1823
 7249SOL    MW428770   2.808   5.232   2.635 -0.3450 -0.4366  0.3190
 7250SOL     OW28771   0.282   0.393   0.777 -0.3313 -0.3635  0.2244
 7250SOL    HW228772   0.329   0.332   0.721 -0.7319 -1.1096  0.6843
 7250SOL    HW328773   0.323   0.382   0.863  0.8911  1.4199 -0.0648
 7250SOL    MW428774   0.294   0.383   0.781 -0.1609  0.2716  0.7934
 7251SOL     OW28775   4.808   5.441   3.939  0.5663  0.4266  0.2683
 7251SOL    HW228776   4.862   5.381   3.991  0.0966  2.1799  2.9470
 7251SOL    HW328777   4.727   5.392   3.923  0.6548 -0.1030  1.3454
 7251SOL    MW428778   4.805   5.427   3.944 -0.2579  0.2052 -0.0989
 7252SOL     OW28779   4.290   3.474   5.989 -0.2718 -0.0187 -0.2109
 7252SOL    HW228780   4.245   3.557   6.006 -1.6766 -0.6581 -0.6362
 7252SOL    HW328781   4.340   3.457   6.068  0.6518  1.5908 -0.3924
 7252SOL    MW428782   4.290   3.483   6.002 -0.0106  0.0919 -0.4608
 7253SOL     OW28783   5.920   5.636   2.821 -0.0504 -0.0758  0.1809
 7253SOL    HW228784   5.926   5.699   2.894 -0.7583 -0.6802  0.7729
 7253SOL    HW328785   5.973   5.562   2.849  0.7635  0.2323 -0.5088
 7253SOL    MW428786   5.928   5.635   2.834  0.3842  0.4843  0.4059
 7254SOL     OW28787   0.860   4.977   2.064 -0.4454  0.4263 -0.6687
 7254SOL    HW228788   0.819   5.026   1.992  2.4887  1.5327 -1.7144
 7254SOL    HW328789   0.922   4.918   2.021  0.7321  0.4721  0.8914
 7254SOL    MW428790   0.862   4.976   2.049  0.5105  0.0414 -0.1446
 7255SOL     OW28791   4.538   3.405   2.583 -0.5689 -0.1300 -0.5945
 7255SOL    HW228792   4.580   3.416   2.499 -1.5586 -1.5735 -1.3340
 7255SOL    HW328793   4.570   3.477   2.637  0.9936  0.1283 -1.8241
 7255SOL    MW428794   4.547   3.416   2.579  0.3341 -0.5662 -0.4983
 7256SOL     OW28795   3.875   1.421   5.293 -0.4295 -0.4238  0.5742
 7256SOL    HW228796   3.867   1.379   5.378 -0.5665 -0.5586  0.4962
 7256SOL    HW328797   3.786   1.417   5.257 -0.5684  0.4465  0.8089
 7256SOL    MW428798   3.862   1.415   5.299  0.0110  0.2214 -0.1188
 7257SOL     OW28799   4.588   4.541   0.900  0.2511 -0.1702 -0.3707
 7257SOL    HW228800   4.544   4.456   0.905 -1.0253  0.5184  0.3372
 7257SOL    HW328801   4.680   4.518   0.883  0.0297 -1.7212  0.2865
 7257SOL    MW428802   4.595   4.527   0.899 -0.3550 -0.9734 -0.1347
 7258SOL     OW28803   4.082   5.011   2.822 -0.4167  0.1693 -0.3096
 7258SOL    HW228804   4.063   4.921   2.849 -1.9090  0.4268 -0.4194
 7258SOL    HW328805   4.072   5.009   2.726  1.0672  0.1251 -0.4866
 7258SOL    MW428806   4.078   4.999   2.813  0.5561 -0.3999  0.0989
 7259SOL     OW28807   1.990   5.598   3.267  0.7785  0.2382  0.5724
 7259SOL    HW228808   1.918   5.659   3.285  1.6558  1.5080 -0.0080
 7259SOL    HW328809   2.068   5.644   3.299  1.8721  0.7947 -2.5738
 7259SOL    MW428810   1.991   5.612   3.274  0.3378  0.6645 -0.1597
 7260SOL     OW28811   3.206   5.390   4.372 -0.3158 -0.2312  0.5130
 7260SOL    HW228812   3.196   5.471   4.321 -0.0397 -0.4871  0.0426
 7260SOL    HW328813   3.136   5.393   4.437 -0.3352  0.3651  0.4672
 7260SOL    MW428814   3.196   5.401   4.374  0.1623 -0.0838 -0.4503
 7261SOL     OW28815   0.098   3.057   1.148  0.1860 -0.5692  0.6572
 7261SOL    HW228816   0.061   2.972   1.173 -0.2530  0.0222  2.1442
 7261SOL    HW328817   0.180   3.063   1.197  0.0839 -0.0307  0.7708
 7261SOL    MW428818   0.104   3.047   1.158  0.5914 -0.2395  0.2549
 7262SOL     OW28819   1.550   4.383   4.896  0.3674  0.1431 -0.0603
 7262SOL    HW228820   1.487   4.435   4.847  0.6835  0.6790  0.0941
 7262SOL    HW328821   1.496   4.330   4.956 -0.0053 -0.3417 -0.7987
 7262SOL    MW428822   1.534   4.383   4.898 -0.2912 -0.2825 -0.1743
 7263SOL     OW28823   5.671   3.373   2.366  0.2010 -0.2150  0.6078
 7263SOL    HW228824   5.647   3.286   2.399  1.3829 -1.9626 -2.6560
 7263SOL    HW328825   5.759   3.388   2.400  0.0179 -0.2989  1.1341
 7263SOL    MW428826   5.680   3.363   2.375  0.1982 -0.4030  0.5858
 7264SOL     OW28827   5.988   6.094   3.829  0.5123  0.4005 -0.1778
 7264SOL    HW228828   5.970   6.184   3.802 -0.1265  0.4598  0.4133
 7264SOL    HW328829   5.905   6.062   3.864  0.8201 -0.3083 -0.0754
 7264SOL    MW428830   5.975   6.102   3.830 -0.4443  0.2111 -0.0792
 7265SOL     OW28831   3.073   1.370   3.138 -0.5924 -0.6065 -0.1997
 7265SOL    HW228832   3.036   1.289   3.102 -1.1882  0.1535 -1.3920
 7265SOL    HW328833   3.018   1.390   3.214  1.3033 -2.7766  1.8972
 7265SOL    MW428834   3.061   1.362   3.143  0.8739  0.8873 -0.1691
 7266SOL     OW28835   6.100   2.501   0.270 -0.3064  0.0655  0.3201
 7266SOL    HW228836   6.062   2.571   0.217 -0.0585  0.5192  0.7449
 7266SOL    HW328837   6.074   2.421   0.224 -2.4708  0.3043  1.0276
 7266SOL    MW428838   6.091   2.500   0.257 -0.0632  0.2188 -0.2595
 7267SOL     OW28839   2.771   1.552   6.305 -0.0152  0.0158 -0.1150
 7267SOL    HW228840   2.795   1.570   6.396  2.1551  0.2054 -0.6616
 7267SOL    HW328841   2.830   1.481   6.278 -1.4780 -0.9203 -1.0262
 7267SOL    MW428842   2.782   1.545   6.313  0.0529  0.6895 -0.0419
 7268SOL     OW28843   5.950   3.352   4.211  0.1261  0.0253  0.0385
 7268SOL    HW228844   5.937   3.338   4.305 -0.7682  1.2218  0.1083
 7268SOL    HW328845   5.885   3.296   4.169  2.3821 -2.7662 -0.0325
 7268SOL    MW428846   5.940   3.343   4.218 -0.2414 -0.1508 -0.0732
 7269SOL     OW28847   0.699   3.641   1.103 -0.3491  0.2135 -0.2048
 7269SOL    HW228848   0.719   3.608   1.191 -1.5360 -0.4334 -0.1743
 7269SOL    HW328849   0.710   3.736   1.111  1.6773  0.0158  0.0623
 7269SOL    MW428850   0.703   3.649   1.116 -0.2721 -0.5333  0.1183
 7270SOL     OW28851   4.839   1.308   6.219  0.1866  0.1131 -0.5203
 7270SOL    HW228852   4.814   1.216   6.226  0.1898  0.1002 -0.6752
 7270SOL    HW328853   4.761   1.351   6.183  0.5796 -0.0229 -1.5722
 7270SOL    MW428854   4.825   1.301   6.215  0.0407 -0.5727 -0.3882
 7271SOL     OW28855   6.114   3.825   4.704 -0.0314  0.4501 -0.5428
 7271SOL    HW228856   6.045   3.851   4.765  0.0905  0.5532 -0.4478
 7271SOL    HW328857   6.164   3.758   4.752 -0.3198  0.0627 -0.7715
 7271SOL    MW428858   6.111   3.819   4.718  0.5065  0.5331  0.0621
 7272SOL     OW28859   5.840   5.724   3.084  0.5153 -0.0891  0.5459
 7272SOL    HW228860   5.831   5.629   3.080  0.1582 -0.0822  1.0569
 7272SOL    HW328861   5.757   5.754   3.120  0.3921  0.4708 -0.1836
 7272SOL    MW428862   5.828   5.715   3.089  0.4883  0.4697  0.5087
 7273SOL     OW28863   2.536   5.374   0.331 -0.7402 -0.4352 -0.4406
 7273SOL    HW228864   2.597   5.435   0.290 -1.1778 -0.9089 -1.8537
 7273SOL    HW328865   2.592   5.312   0.379 -0.2828  0.8154  0.6865
 7273SOL    MW428866   2.551   5.374   0.332  0.1112 -0.4031 -0.8121
 7274SOL     OW28867   2.290   5.384   3.968  0.4043  0.2728  0.3221
 7274SOL    HW228868   2.361   5.325   3.943  0.5807  0.1019  1.1903
 7274SOL    HW328869   2.243   5.401   3.886  1.7657  0.8460 -0.3862
 7274SOL    MW428870   2.293   5.379   3.954  0.1710 -0.5823  0.0567
 7275SOL     OW28871   5.530   2.943   2.711 -0.1616 -0.2636 -0.2500
 7275SOL    HW228872   5.518   2.974   2.801 -0.8990 -1.3240  0.0321
 7275SOL    HW328873   5.619   2.908   2.710  0.6089  1.5620 -0.5157
 7275SOL    MW428874   5.540   2.943   2.723  0.0391 -0.2258  0.4258
 7276SOL     OW28875   2.464   1.847   3.342  0.0801  0.7674  0.3553
 7276SOL    HW228876   2.547   1.808   3.317  0.1180  0.9993  0.1233
 7276SOL    HW328877   2.474   1.940   3.323 -0.3831  0.7325 -0.0840
 7276SOL    MW428878   2.476   1.854   3.336  0.0965  0.6218  0.2689
 7277SOL     OW28879   5.106   4.325   0.096  0.1885  0.1571  0.5886
 7277SOL    HW228880   5.045   4.298   0.027  1.0500  0.3945 -0.2792
 7277SOL    HW328881   5.158   4.394   0.057 -1.1284  2.2853  2.3884
 7277SOL    MW428882   5.105   4.330   0.082 -0.3217  0.3077 -0.0910
 7278SOL     OW28883   1.803   2.924   1.600  0.1195  0.1774 -0.4813
 7278SOL    HW228884   1.800   2.863   1.674  0.8503 -0.9318 -1.3378
 7278SOL    HW328885   1.811   3.010   1.641 -1.0992 -0.2541  0.7614
 7278SOL    MW428886   1.803   2.927   1.615  0.5261 -0.2673 -0.1852
 7279SOL     OW28887   2.156   2.298   3.811  0.2167 -0.2737 -0.2282
 7279SOL    HW228888   2.195   2.224   3.765 -0.6202 -0.5175 -0.5703
 7279SOL    HW328889   2.071   2.266   3.840 -0.0119  0.4492 -0.0739
 7279SOL    MW428890   2.150   2.284   3.809  0.0691  0.5146  0.3783
 7280SOL     OW28891   6.135   2.772   2.637 -0.4092  0.3231  0.4941
 7280SOL    HW228892   6.217   2.724   2.626 -1.2565 -0.8801 -0.7809
 7280SOL    HW328893   6.095   2.733   2.714 -0.6346 -0.3727  0.0351
 7280SOL    MW428894   6.140   2.761   2.646  0.5798 -0.2284  0.2895
 7281SOL     OW28895   6.132   4.660   4.911  0.3433 -0.0047  0.1919
 7281SOL    HW228896   6.081   4.733   4.876  0.0785 -0.7941 -1.1398
 7281SOL    HW328897   6.222   4.693   4.913  0.0707  0.7178  0.6366
 7281SOL    MW428898   6.137   4.674   4.906  0.1608  0.0763 -0.4220
 7282SOL     OW28899   5.119   0.444   2.693  0.9296  0.1314 -0.5411
 7282SOL    HW228900   5.111   0.539   2.688 -0.1496  0.1265  0.6194
 7282SOL    HW328901   5.049   0.411   2.636  0.0863  0.0552  0.5113
 7282SOL    MW428902   5.108   0.452   2.685  0.3505 -0.2692  0.4846
 7283SOL     OW28903   5.815   5.925   5.430  0.2519 -0.0235  0.2483
 7283SOL    HW228904   5.855   5.933   5.344 -0.1981 -2.0608 -0.2013
 7283SOL    HW328905   5.875   5.971   5.489  1.3703  0.0634 -0.9235
 7283SOL    MW428906   5.828   5.932   5.427 -1.2947  0.1707  0.6737
 7284SOL     OW28907   2.484   1.825   4.595  0.1407 -0.0510 -0.2383
 7284SOL    HW228908   2.567   1.841   4.551 -1.2332  1.9738 -2.3451
 7284SOL    HW328909   2.434   1.772   4.533 -0.2615 -1.0037  0.8698
 7284SOL    MW428910   2.488   1.820   4.581  0.3839  0.1142 -0.3545
 7285SOL     OW28911   1.585   2.209   1.873  0.0595 -0.2027  0.3462
 7285SOL    HW228912   1.535   2.290   1.881  1.6579  0.8739 -0.0206
 7285SOL    HW328913   1.520   2.139   1.878 -1.0992  0.9112  3.9770
 7285SOL    MW428914   1.570   2.210   1.875  0.4997  0.8047  0.1701
 7286SOL     OW28915   0.958   5.046   3.478  0.0463 -0.0679 -0.2066
 7286SOL    HW228916   0.923   5.081   3.396 -0.4728 -0.4575 -0.1522
 7286SOL    HW328917   1.010   5.117   3.514  0.6053 -0.0211 -1.0720
 7286SOL    MW428918   0.961   5.060   3.472 -0.1187  0.1215  0.1903
 7287SOL     OW28919   3.599   2.059   5.486 -0.0495 -0.5876  0.6553
 7287SOL    HW228920   3.634   2.138   5.526 -1.1539  0.8576 -1.0617
 7287SOL    HW328921   3.676   2.007   5.463  1.2033  2.3192 -2.6646
 7287SOL    MW428922   3.614   2.062   5.488  0.0024 -0.1183 -0.7168
 7288SOL     OW28923   4.720   2.814   3.634  0.0777 -0.2599  0.2474
 7288SOL    HW228924   4.767   2.896   3.647 -0.2745  0.1675 -1.0516
 7288SOL    HW328925   4.628   2.839   3.626 -0.1355 -0.8745  0.6390
 7288SOL    MW428926   4.714   2.828   3.635  0.7054  0.0780  0.3292
 7289SOL     OW28927   2.618   2.628   5.170 -0.1850  0.0460 -0.5602
 7289SOL    HW228928   2.581   2.633   5.083 -0.7050  0.5992 -0.3099
 7289SOL    HW328929   2.559   2.570   5.218 -1.3347  1.7129  0.1229
 7289SOL    MW428930   2.606   2.621   5.165  0.4526  0.0934 -0.0066
 7290SOL     OW28931   0.922   3.842   4.345  0.2696  0.2024 -0.0936
 7290SOL    HW228932   0.953   3.918   4.295  0.7411 -0.0043 -0.1252
 7290SOL    HW328933   1.003   3.799   4.375  0.1109 -1.6297 -2.0661
 7290SOL    MW428934   0.937   3.846   4.342 -0.6607  0.5058 -0.4756
 7291SOL     OW28935   2.824   3.189   1.608  0.4559  0.5174 -0.3632
 7291SOL    HW228936   2.868   3.107   1.587 -0.1541  0.3446 -1.0188
 7291SOL    HW328937   2.732   3.164   1.619  0.4025  0.9792  0.2804
 7291SOL    MW428938   2.817   3.175   1.606 -0.2040 -0.1629  0.0604
 7292SOL     OW28939   4.680   1.001   3.791  0.4454  0.6547 -0.0200
 7292SOL    HW228940   4.749   1.039   3.844 -0.6276  0.9785  1.1998
 7292SOL    HW328941   4.625   1.075   3.766  0.5803  0.4156 -1.0650
 7292SOL    MW428942   4.682   1.016   3.795 -0.1740 -0.4450  0.1530
 7293SOL     OW28943   1.191   2.757   0.590 -0.5552 -0.2129  0.6425
 7293SOL    HW228944   1.262   2.740   0.653  1.4066  0.0750 -1.3373
 7293SOL    HW328945   1.165   2.670   0.560 -0.9189 -0.3153  1.2475
 7293SOL    MW428946   1.197   2.743   0.594 -0.3255  0.0426  0.6769
 7294SOL     OW28947   0.556   0.093   4.620 -0.0350  0.1749  0.1952
 7294SOL    HW228948   0.487   0.028   4.604  0.8297 -0.5041 -0.9642
 7294SOL    HW328949   0.636   0.041   4.624  0.5180  1.0418  0.6632
 7294SOL    MW428950   0.557   0.077   4.619  0.2497  0.3019 -0.6065
 7295SOL     OW28951   3.537   2.789   0.274 -0.0914 -0.8138  0.6170
 7295SOL    HW228952   3.521   2.858   0.210  0.8593 -1.0027  0.1675
 7295SOL    HW328953   3.572   2.716   0.223 -0.2433 -1.3178  1.2153
 7295SOL    MW428954   3.539   2.788   0.259  0.6364 -0.1550  0.4046
 7296SOL     OW28955   3.621   4.409   6.312 -0.2361 -0.2729 -0.2993
 7296SOL    HW228956   3.554   4.474   6.333 -0.7830 -0.2643 -1.9410
 7296SOL    HW328957   3.610   4.392   6.219  0.7460 -1.7714 -0.1814
 7296SOL    MW428958   3.610   4.415   6.303 -0.2520 -0.4419 -0.0007
 7297SOL     OW28959   4.350   3.277   0.532  0.0380 -0.0957  0.2334
 7297SOL    HW228960   4.337   3.183   0.526 -1.2866  0.1466 -1.1106
 7297SOL    HW328961   4.445   3.287   0.546  0.4020 -1.5820 -0.9301
 7297SOL    MW428962   4.361   3.266   0.533 -0.4805  0.0139  0.4256
 7298SOL     OW28963   0.981   4.797   3.581  0.7105 -0.2319  0.3437
 7298SOL    HW228964   0.974   4.889   3.558 -0.2847  0.1271  1.9468
 7298SOL    HW328965   1.008   4.797   3.673  0.5600 -1.5381  0.4046
 7298SOL    MW428966   0.984   4.809   3.590  0.2410 -0.6027 -0.8579
 7299SOL     OW28967   1.219   5.105   2.803 -0.0961 -0.1350  0.1463
 7299SOL    HW228968   1.142   5.058   2.834  0.6680 -0.4771  1.6656
 7299SOL    HW328969   1.187   5.192   2.779 -1.0208 -0.4356  0.2615
 7299SOL    MW428970   1.205   5.111   2.804 -0.0664 -0.7500 -0.5688
 7300SOL     OW28971   6.116   2.715   1.389  0.4292  0.8519 -0.2153
 7300SOL    HW228972   6.173   2.755   1.323  0.3078  0.5419 -0.5164
 7300SOL    HW328973   6.043   2.680   1.338 -0.5085  2.0580  0.2525
 7300SOL    MW428974   6.114   2.715   1.373  0.2038  0.1510 -0.5140
 7301SOL     OW28975   4.457   6.062   1.793  0.0153  0.8766 -0.0744
 7301SOL    HW228976   4.539   6.091   1.753 -0.1254  0.3919 -0.7460
 7301SOL    HW328977   4.420   6.140   1.834  1.3972  0.8540  1.3046
 7301SOL    MW428978   4.463   6.076   1.793 -0.3718  0.4899  0.3271
 7302SOL     OW28979   3.645   2.054   3.250  0.1244  0.3015 -0.1494
 7302SOL    HW228980   3.565   2.057   3.303  0.2413  2.5240 -0.0194
 7302SOL    HW328981   3.692   2.133   3.274  2.2283 -0.7863 -0.4939
 7302SOL    MW428982   3.640   2.065   3.260  0.1740 -0.7599 -0.0049
 7303SOL     OW28983   3.439   6.199   1.027  0.1582  0.2543 -0.1835
 7303SOL    HW228984   3.369   6.264   1.029 -0.9136 -0.8401 -0.6618
 7303SOL    HW328985   3.499   6.231   0.960  0.4137  1.4812  0.6068
 7303SOL    MW428986   3.438   6.212   1.018  0.3296  0.3023  0.1845
 7304SOL     OW28987   5.723   4.845   5.389  0.4482 -0.1097 -0.1328
 7304SOL    HW228988   5.817   4.842   5.369  0.2303 -0.1562 -1.1797
 7304SOL    HW328989   5.718   4.900   5.467  1.2799  0.5622 -0.5300
 7304SOL    MW428990   5.735   4.852   5.397 -0.0216  0.1628 -0.0657
 7305SOL     OW28991   0.969   3.102   6.157 -0.1158 -0.2168 -0.0221
 7305SOL    HW228992   1.002   3.130   6.072  1.0952  0.9645  0.7981
 7305SOL    HW328993   0.874   3.110   6.151 -0.0202  0.1090 -1.1724
 7305SOL    MW428994   0.961   3.107   6.145  0.5701 -0.1153 -0.6641
 7306SOL     OW28995   5.987   3.489   4.744 -0.4596 -0.1270  0.1715
 7306SOL    HW228996   5.981   3.547   4.667 -0.4573  0.5324  0.6634
 7306SOL    HW328997   6.052   3.423   4.719  1.8899  1.8364  0.7204
 7306SOL    MW428998   5.995   3.488   4.730  0.1312 -0.4443  0.4066
 7307SOL     OW28999   0.577   5.603   0.677 -0.4509 -0.5281  0.1323
 7307SOL    HW229000   0.605   5.598   0.768 -1.6373  2.2341  0.7521
 7307SOL    HW329001   0.495   5.652   0.680 -2.0228 -2.7711 -2.2024
 7307SOL    MW429002   0.570   5.609   0.689 -0.3346 -0.1142 -0.0095
 7308SOL     OW29003   2.075   5.701   1.574  0.0640 -0.3904  0.4186
 7308SOL    HW229004   2.105   5.624   1.526  1.5282  1.4348 -1.8055
 7308SOL    HW329005   2.007   5.668   1.633 -0.4052 -3.1221 -1.4890
 7308SOL    MW429006   2.070   5.687   1.576 -0.5843  0.2326 -0.0320
 7309SOL     OW29007   4.748   3.438   3.588 -0.2081 -0.8465 -0.1113
 7309SOL    HW229008   4.806   3.514   3.597 -0.7986 -0.3225 -0.6529
 7309SOL    HW329009   4.792   3.381   3.525  0.1316 -0.8604  0.1357
 7309SOL    MW429010   4.762   3.440   3.581 -0.2973 -0.8097  0.0218
 7310SOL     OW29011   6.117   1.626   3.144  0.0456 -0.3255 -0.5228
 7310SOL    HW229012   6.032   1.586   3.161 -0.4369  0.1751 -1.6292
 7310SOL    HW329013   6.166   1.615   3.225 -2.2457  2.4124  1.4272
 7310SOL    MW429014   6.113   1.620   3.157  0.1095 -0.4751 -0.1972
 7311SOL     OW29015   0.316   4.904   4.851  0.0845  0.0862 -0.4261
 7311SOL    HW229016   0.320   4.820   4.896  0.4850  0.5422  0.4217
 7311SOL    HW329017   0.407   4.928   4.835  0.0184  0.7821  0.1806
 7311SOL    MW429018   0.328   4.896   4.855 -0.5471 -0.3412 -0.6179
 7312SOL     OW29019   6.263   1.830   5.080  0.5460 -0.3363 -0.2612
 7312SOL    HW229020   6.314   1.787   5.149  0.2390 -0.6360 -0.2177
 7312SOL    HW329021   6.290   1.786   5.000 -2.0498 -2.8988  0.0919
 7312SOL    MW429022   6.274   1.819   5.079  0.4689 -0.0936 -0.5629
 7313SOL     OW29023   4.781   3.506   6.052  0.6987 -0.4952  0.3585
 7313SOL    HW229024   4.738   3.553   5.981  1.6772  0.2419  0.2435
 7313SOL    HW329025   4.777   3.414   6.025 -3.5958 -0.9677  1.8072
 7313SOL    MW429026   4.774   3.500   6.039  0.0457 -0.0539  0.5382
 7314SOL     OW29027   3.790   5.864   2.434  0.3377 -0.6978  0.0359
 7314SOL    HW229028   3.774   5.903   2.348 -1.0734 -1.8976 -0.2901
 7314SOL    HW329029   3.886   5.864   2.443  0.5739 -1.4658 -1.9843
 7314SOL    MW429030   3.801   5.869   2.424  0.1680  0.3093  0.1039
 7315SOL     OW29031   5.593   3.482   2.071 -0.2593  0.3356  0.1273
 7315SOL    HW229032   5.640   3.429   2.135  1.9075  2.6357  0.6151
 7315SOL    HW329033   5.642   3.472   1.990 -1.5158 -0.5699 -0.5571
 7315SOL    MW429034   5.605   3.474   2.069 -0.3325  0.4418 -0.2358
 7316SOL     OW29035   4.421   1.284   3.931  0.1900 -0.6402 -0.1746
 7316SOL    HW229036   4.364   1.348   3.889 -0.4720 -0.9009  0.3047
 7316SOL    HW329037   4.479   1.253   3.861 -0.1523 -0.2604 -0.6316
 7316SOL    MW429038   4.421   1.288   3.916  0.0699  0.0970  0.8002
 7317SOL     OW29039   3.856   3.168   2.997  0.4554 -0.0760  0.6273
 7317SOL    HW229040   3.801   3.230   2.949 -0.4513 -1.8329 -0.7272
 7317SOL    HW329041   3.835   3.183   3.089 -4.1775 -2.0847  0.2020
 7317SOL    MW429042   3.846   3.178   3.003 -0.4215  0.0724 -0.5390
 7318SOL     OW29043   2.652   4.452   2.627 -0.2781  0.0901 -0.0115
 7318SOL    HW229044   2.669   4.526   2.569  1.2961  1.0945  1.6103
 7318SOL    HW329045   2.709   4.382   2.595 -0.6873  0.0600 -0.6810
 7318SOL    MW429046   2.662   4.452   2.615  0.3931  0.5578  0.4448
 7319SOL     OW29047   6.071   2.435   5.168  0.0442 -0.1646  0.3450
 7319SOL    HW229048   6.056   2.341   5.172  1.6880 -0.4370  1.9835
 7319SOL    HW329049   5.987   2.472   5.142 -0.1408 -2.1641 -2.3634
 7319SOL    MW429050   6.058   2.428   5.165 -0.8138  0.3713 -0.5755
 7320SOL     OW29051   2.373   1.722   3.897  0.4392 -0.3164 -0.1674
 7320SOL    HW229052   2.308   1.779   3.856 -0.2397 -0.5002  0.6234
 7320SOL    HW329053   2.411   1.776   3.966 -0.1591 -0.7940  0.5402
 7320SOL    MW429054   2.369   1.737   3.901 -0.9378  0.1551  0.0743
 7321SOL     OW29055   5.547   5.008   3.992  0.1241  0.2896  0.3424
 7321SOL    HW229056   5.580   5.005   4.082 -1.9502 -0.0420  1.1481
 7321SOL    HW329057   5.540   4.917   3.966 -2.2792  0.2077  1.0703
 7321SOL    MW429058   5.551   4.996   4.001  0.0453  0.7077  0.0858
 7322SOL     OW29059   6.219   4.727   3.340 -0.2394  0.9463  0.3812
 7322SOL    HW229060   6.266   4.754   3.419  1.0909 -2.3004  0.8764
 7322SOL    HW329061   6.154   4.664   3.371 -0.5137  0.5259 -0.9740
 7322SOL    MW429062   6.217   4.722   3.355 -0.3510  0.0116  0.6437
 7323SOL     OW29063   6.224   0.862   3.127  0.2767 -0.4284  0.7875
 7323SOL    HW229064   6.249   0.770   3.120  0.8721 -0.1672 -2.3385
 7323SOL    HW329065   6.274   0.906   3.058  0.3487  2.3643  2.4408
 7323SOL    MW429066   6.234   0.856   3.117 -0.0759  0.4680  0.4425
 7324SOL     OW29067   0.522   3.049   3.071 -0.9228 -0.1480 -0.5862
 7324SOL    HW229068   0.517   3.053   3.166  0.2594  1.9278 -0.5593
 7324SOL    HW329069   0.608   3.011   3.053 -0.4252  1.0380 -0.7901
 7324SOL    MW429070   0.533   3.045   3.081  0.9717  0.2015 -0.4986
 7325SOL     OW29071   3.618   1.650   3.200 -0.9582  0.2681  0.1707
 7325SOL    HW229072   3.578   1.606   3.275 -2.4087 -1.5874 -1.5672
 7325SOL    HW329073   3.544   1.695   3.158 -0.1054  1.5582 -0.0073
 7325SOL    MW429074   3.603   1.650   3.205 -0.2556  0.3903 -0.2774
 7326SOL     OW29075   1.388   4.453   0.441 -0.2833 -0.2934  0.2227
 7326SOL    HW229076   1.405   4.499   0.524 -0.4450 -0.3910  0.3109
 7326SOL    HW329077   1.351   4.521   0.384 -0.1253 -0.2143  0.2141
 7326SOL    MW429078   1.385   4.468   0.445  0.0807 -0.1443 -0.0515
 7327SOL     OW29079   4.116   3.256   0.147 -0.4926 -0.7003 -0.0525
 7327SOL    HW229080   4.196   3.213   0.120  0.2415  0.4850  0.1575
 7327SOL    HW329081   4.060   3.254   0.069  0.9653  1.2270 -1.2326
 7327SOL    MW429082   4.119   3.250   0.133  0.0333  0.2955 -0.3785
 7328SOL     OW29083   4.259   2.303   1.419 -0.2017 -0.1244 -0.1530
 7328SOL    HW229084   4.226   2.392   1.428 -1.6151 -0.7837  1.8632
 7328SOL    HW329085   4.328   2.296   1.486  1.7837  0.1803 -2.0380
 7328SOL    MW429086   4.264   2.314   1.429 -0.6694 -0.1040  0.0092
 7329SOL     OW29087   2.811   0.576   6.317 -0.4870  0.4357  0.0438
 7329SOL    HW229088   2.811   0.506   6.383 -1.4346  0.4880  0.1102
 7329SOL    HW329089   2.760   0.647   6.357 -0.9405  0.5259 -0.6759
 7329SOL    MW429090   2.804   0.576   6.331 -0.0501  0.0023  0.3797
 7330SOL     OW29091   1.554   3.803   0.134 -0.2866 -0.2485 -0.1667
 7330SOL    HW229092   1.526   3.787   0.044  3.1535 -2.3054 -1.0348
 7330SOL    HW329093   1.600   3.886   0.131 -0.2142 -0.2935 -0.2918
 7330SOL    MW429094   1.556   3.812   0.122 -0.0288  1.0764 -0.3925
 7331SOL     OW29095   4.201   4.552   0.215  0.5657  0.6404 -0.6285
 7331SOL    HW229096   4.147   4.625   0.185 -0.8126  0.7155  1.7764
 7331SOL    HW329097   4.161   4.474   0.175 -1.6080  0.6710  1.2411
 7331SOL    MW429098   4.189   4.551   0.206  0.4886 -0.1835  0.3739
 7332SOL     OW29099   0.144   2.797   0.504  0.2071  0.0588  0.4476
 7332SOL    HW229100   0.129   2.779   0.411  0.5253  0.1014  0.3889
 7332SOL    HW329101   0.126   2.714   0.548 -0.3979  0.1599  0.3971
 7332SOL    MW429102   0.139   2.784   0.498  0.5679  0.4758  0.7326
 7333SOL     OW29103   6.303   0.288   2.083  0.6946 -0.5514 -0.6306
 7333SOL    HW229104   6.250   0.208   2.080 -1.0334  0.5231 -0.3752
 7333SOL    HW329105   6.271   0.335   2.160  0.6415  1.0391 -1.5734
 7333SOL    MW429106   6.292   0.283   2.093  0.1685  0.4741 -0.3750
 7334SOL     OW29107   1.922   0.217   5.127  0.2616  0.2175  0.4396
 7334SOL    HW229108   1.828   0.229   5.133 -0.1816 -1.7692 -1.1985
 7334SOL    HW329109   1.960   0.303   5.146 -1.8986  1.2448  0.3124
 7334SOL    MW429110   1.915   0.230   5.131 -0.3554 -0.0723  0.5569
 7335SOL     OW29111   2.010   3.778   5.427 -0.8790  0.2916  0.1162
 7335SOL    HW229112   2.009   3.732   5.511 -1.7697  2.0308  1.1100
 7335SOL    HW329113   2.074   3.848   5.438  0.7419 -0.8592 -1.5034
 7335SOL    MW429114   2.018   3.781   5.439  0.4113 -0.6765 -0.2387
 7336SOL     OW29115   2.014   4.993   4.990 -0.1219  0.5961 -0.1871
 7336SOL    HW229116   1.995   5.085   5.006  1.1971  0.9764 -0.6103
 7336SOL    HW329117   2.008   4.952   5.076  0.0191  1.2255  0.1333
 7336SOL    MW429118   2.011   5.000   5.003  0.7470  0.2095 -0.0709
 7337SOL     OW29119   5.507   6.282   3.327  0.2174 -0.5675 -0.0639
 7337SOL    HW229120   5.490   6.224   3.252 -0.0428 -0.4871 -0.0690
 7337SOL    HW329121   5.437   6.260   3.389  0.2078 -0.3631 -0.0047
 7337SOL    MW429122   5.495   6.271   3.325 -0.0797 -0.0126 -0.3060
 7338SOL     OW29123   4.774   4.063   2.570  0.3011  0.1245  0.2509
 7338SOL    HW229124   4.744   4.095   2.655 -0.0893  0.9771 -0.1929
 7338SOL    HW329125   4.711   3.996   2.547  0.6105 -0.3598  0.7908
 7338SOL    MW429126   4.762   4.059   2.578  0.4190  0.5715  0.1088
 7339SOL     OW29127   1.213   5.312   0.751  0.2733  0.1438 -0.2129
 7339SOL    HW229128   1.294   5.296   0.703  0.4304 -1.7939  0.5849
 7339SOL    HW329129   1.147   5.321   0.682  0.9419  0.3634 -0.8418
 7339SOL    MW429130   1.215   5.311   0.736 -0.2481 -0.2601  0.2114
 7340SOL     OW29131   3.133   3.871   1.162 -0.2068  0.6257  0.0260
 7340SOL    HW229132   3.200   3.803   1.174 -0.0974  0.6949 -0.1891
 7340SOL    HW329133   3.168   3.947   1.207  0.5267  1.0984 -1.2987
 7340SOL    MW429134   3.146   3.872   1.169 -0.2602  0.2711 -0.5729
 7341SOL     OW29135   4.300   6.109   5.388 -0.6267  0.1247 -0.2090
 7341SOL    HW229136   4.206   6.091   5.391 -0.5600 -0.1200  0.6354
 7341SOL    HW329137   4.328   6.108   5.480  0.1689  0.3693 -0.4378
 7341SOL    MW429138   4.291   6.107   5.401  0.7663  0.2633  0.0589
 7342SOL     OW29139   6.129   2.522   2.095 -0.1805  0.0527 -0.2375
 7342SOL    HW229140   6.108   2.480   2.012 -0.4486  0.8498 -0.5899
 7342SOL    HW329141   6.198   2.468   2.133 -1.0023 -1.0887 -0.3297
 7342SOL    MW429142   6.135   2.510   2.089 -0.7399  0.0221  0.3976
 7343SOL     OW29143   6.329   1.494   4.988 -0.3271 -0.0295 -0.1396
 7343SOL    HW229144   6.380   1.415   5.007  1.0894  0.4226 -1.7426
 7343SOL    HW329145   6.381   1.540   4.921 -2.0955  1.2681 -0.6926
 7343SOL    MW429146   6.343   1.490   4.982  0.4750 -0.1884  0.1829
 7344SOL     OW29147   3.594   2.609   3.536  0.0898 -0.4802  0.8063
 7344SOL    HW229148   3.520   2.563   3.575 -0.4013  0.0309  0.4899
 7344SOL    HW329149   3.642   2.542   3.489 -1.0179 -0.5674 -0.2520
 7344SOL    MW429150   3.590   2.594   3.535  0.9056 -0.5682 -0.3976
 7345SOL     OW29151   5.671   1.411   1.429 -0.2043 -0.2386  0.7729
 7345SOL    HW229152   5.704   1.359   1.356 -1.7588 -0.5688  0.2729
 7345SOL    HW329153   5.720   1.379   1.505  2.8179  1.3711 -0.2835
 7345SOL    MW429154   5.682   1.400   1.429  0.0022 -0.4247 -0.1913
 7346SOL     OW29155   3.563   3.021   1.375 -0.1521  0.0024  0.1194
 7346SOL    HW229156   3.627   3.055   1.313  1.4436 -1.4943  0.8685
 7346SOL    HW329157   3.544   3.095   1.433  1.5998  0.2499  0.4233
 7346SOL    MW429158   3.569   3.036   1.374  0.0718 -0.1928 -0.2164
 7347SOL     OW29159   2.329   6.382   4.220  0.3376  0.2046  0.2706
 7347SOL    HW229160   2.383   6.303   4.231 -0.6127 -0.4907  0.0400
 7347SOL    HW329161   2.249   6.364   4.269  0.5925  1.5393  1.2473
 7347SOL    MW429162   2.326   6.369   4.228 -0.0827 -0.2861 -0.4012
 7348SOL     OW29163   4.541   3.274   0.238  0.2041  0.0074 -0.1817
 7348SOL    HW229164   4.629   3.237   0.246 -0.4584 -1.8630 -1.0020
 7348SOL    HW329165   4.510   3.280   0.328  1.0215  0.3313  0.0907
 7348SOL    MW429166   4.549   3.270   0.251 -0.2038  0.6520  0.7535
 7349SOL     OW29167   1.123   4.602   2.227  0.1938 -0.1426  0.1816
 7349SOL    HW229168   1.144   4.533   2.164 -0.4589  0.3385 -0.5889
 7349SOL    HW329169   1.185   4.672   2.207 -1.5796  1.0324 -1.6851
 7349SOL    MW429170   1.134   4.602   2.216  0.4012  0.5131 -0.1307
 7350SOL     OW29171   1.116   6.301   2.421 -0.3928 -0.3464  0.5487
 7350SOL    HW229172   1.164   6.313   2.339 -0.4321  2.5282  0.8449
 7350SOL    HW329173   1.183   6.282   2.486 -0.3366 -2.3794 -0.0309
 7350SOL    MW429174   1.131   6.300   2.419  0.4733  0.6475  0.1549
 7351SOL     OW29175   0.949   0.813   4.640 -0.6118 -0.2558 -0.4553
 7351SOL    HW229176   0.889   0.876   4.600 -0.3614  0.3485  0.0925
 7351SOL    HW329177   0.981   0.857   4.719 -0.0863 -0.8975 -0.2960
 7351SOL    MW429178   0.945   0.827   4.645 -0.5247 -0.3093  0.0901
 7352SOL     OW29179   5.560   4.140   1.410 -0.1790  0.3476  0.5472
 7352SOL    HW229180   5.477   4.096   1.429 -0.2854  0.1632 -0.3002
 7352SOL    HW329181   5.537   4.230   1.392 -0.2784  0.1659 -0.2792
 7352SOL    MW429182   5.546   4.146   1.410  0.3201 -0.0030  1.0254
 7353SOL     OW29183   6.226   2.042   5.956  0.5240  0.6021  0.3529
 7353SOL    HW229184   6.251   2.040   6.048  4.4854  1.5956 -0.4990
 7353SOL    HW329185   6.163   1.971   5.946  1.9209 -1.2464  3.3413
 7353SOL    MW429186   6.221   2.033   5.966  0.8415 -0.2710  0.1192
 7354SOL     OW29187   2.828   3.378   1.158  0.1889  0.0890 -0.0128
 7354SOL    HW229188   2.752   3.373   1.101 -0.3416  0.7498  0.6167
 7354SOL    HW329189   2.857   3.288   1.169 -0.7323 -0.2080  0.0345
 7354SOL    MW429190   2.822   3.366   1.152  0.0939 -0.4183 -0.6240
 7355SOL     OW29191   5.531   5.395   4.061  0.5009  0.2410  0.1719
 7355SOL    HW229192   5.439   5.417   4.050  0.7849  1.5557  0.3313
 7355SOL    HW329193   5.558   5.360   3.976 -0.2441 -0.5904  0.2617
 7355SOL    MW429194   5.523   5.393   4.048 -0.4961  1.1148 -0.5452
 7356SOL     OW29195   2.971   0.663   5.885  0.0816 -0.1640  0.8221
 7356SOL    HW229196   2.921   0.717   5.946 -0.8826 -0.6390  0.4705
 7356SOL    HW329197   2.934   0.685   5.799  0.3784 -0.6315  0.5727
 7356SOL    MW429198   2.959   0.673   5.882 -0.3820  0.4375 -0.4138
 7357SOL     OW29199   6.110   4.857   2.969  0.4769  0.0956 -0.4198
 7357SOL    HW229200   6.038   4.825   3.023 -0.5487  1.8983 -0.6170
 7357SOL    HW329201   6.096   4.815   2.884  0.0354 -0.0869 -0.2635
 7357SOL    MW429202   6.098   4.847   2.965  0.8339  0.2716 -0.7534
 7358SOL     OW29203   2.561   0.750   3.515  0.1327  0.2393 -0.1102
 7358SOL    HW229204   2.646   0.788   3.534 -0.1160  1.6731 -1.5716
 7358SOL    HW329205   2.569   0.717   3.425  0.5660 -4.0760  1.3058
 7358SOL    MW429206   2.573   0.750   3.505  0.1960  0.2543 -0.1018
 7359SOL     OW29207   1.748   2.299   2.872 -0.3760  0.1099 -0.4792
 7359SOL    HW229208   1.813   2.317   2.804  1.2914  0.8819  1.2221
 7359SOL    HW329209   1.672   2.350   2.848 -0.2200 -0.4605 -2.2988
 7359SOL    MW429210   1.747   2.308   2.860  0.1124  0.0781  0.3787
 7360SOL     OW29211   1.566   0.164   5.351 -0.6762  0.2203 -0.9105
 7360SOL    HW229212   1.617   0.190   5.275 -0.3748  1.0520 -0.4411
 7360SOL    HW329213   1.574   0.068   5.355  1.4111  0.3812 -0.4600
 7360SOL    MW429214   1.573   0.155   5.342  0.4177 -0.0049 -0.2007
 7361SOL     OW29215   0.040   3.305   1.455  0.5415 -0.0668 -0.3396
 7361SOL    HW229216  -0.038   3.361   1.463  2.0966  2.2018 -0.2059
 7361SOL    HW329217   0.005   3.219   1.432 -1.9790  0.9588 -0.6850
 7361SOL    MW429218   0.025   3.301   1.453 -0.1717 -0.1125  0.3343
 7362SOL     OW29219   3.982   0.110   3.081 -0.0745 -0.1040 -0.1118
 7362SOL    HW229220   4.055   0.134   3.138  0.0622  0.7051 -0.6056
 7362SOL    HW329221   3.912   0.086   3.141  0.0865  0.6663  0.4052
 7362SOL    MW429222   3.983   0.110   3.097  0.0209 -0.3115  0.2784
 7363SOL     OW29223   3.232   2.187   1.684  0.2026  0.3810 -0.5116
 7363SOL    HW229224   3.147   2.210   1.724  0.0648  2.3672 -1.8280
 7363SOL    HW329225   3.296   2.240   1.732  0.7131 -0.9330  0.3140
 7363SOL    MW429226   3.229   2.197   1.696  0.3420  0.3678 -0.0916
 7364SOL     OW29227   4.124   3.536   6.317  0.8591 -0.0821  0.2928
 7364SOL    HW229228   4.108   3.625   6.347  0.2855 -0.1491  0.1890
 7364SOL    HW329229   4.203   3.509   6.365  0.9744  0.4397  0.4017
 7364SOL    MW429230   4.132   3.544   6.327 -0.2531  0.4014 -0.4396
 7365SOL     OW29231   4.465   5.279   5.174 -0.3111  0.5316  0.0590
 7365SOL    HW229232   4.515   5.246   5.099 -0.7890 -0.6122  0.2271
 7365SOL    HW329233   4.374   5.255   5.155 -0.3602 -0.3295  1.2857
 7365SOL    MW429234   4.460   5.271   5.161 -0.8407  0.1330 -0.3356
 7366SOL     OW29235   3.120   0.918   5.017  0.7345  0.2767 -0.0235
 7366SOL    HW229236   3.175   0.973   5.072  2.0035  0.0415 -1.0113
 7366SOL    HW329237   3.135   0.950   4.928 -0.3539 -0.1292 -0.3767
 7366SOL    MW429238   3.129   0.929   5.013  0.5945  0.2465  0.0785
 7367SOL     OW29239   1.325   0.649   0.352 -0.1292  0.2404  0.3025
 7367SOL    HW229240   1.263   0.577   0.368 -1.3746  1.2260  0.0825
 7367SOL    HW329241   1.327   0.696   0.435  0.8805 -0.1713  0.5255
 7367SOL    MW429242   1.317   0.645   0.365  0.0492  0.3445  0.2254
 7368SOL     OW29243   6.257   2.770   5.203 -0.6643 -0.3420 -0.1496
 7368SOL    HW229244   6.296   2.686   5.177  1.0961  0.4985 -0.4003
 7368SOL    HW329245   6.165   2.762   5.179 -0.4857 -2.1106 -0.3840
 7368SOL    MW429246   6.250   2.758   5.196 -0.3851  0.0217  0.1735
 7369SOL     OW29247   3.983   1.379   1.826 -0.1075  0.2398 -0.3045
 7369SOL    HW229248   4.062   1.376   1.880  0.3868  1.2859 -0.9475
 7369SOL    HW329249   3.952   1.289   1.826 -0.4595  0.2854  2.1916
 7369SOL    MW429250   3.990   1.367   1.833  0.3511 -0.1505  0.3944
 7370SOL     OW29251   5.628   4.417   1.951  0.2120  0.6048  0.7530
 7370SOL    HW229252   5.646   4.409   1.857 -0.2449 -0.4564  0.7443
 7370SOL    HW329253   5.537   4.445   1.955  0.8422  2.8780  0.8655
 7370SOL    MW429254   5.618   4.420   1.939 -0.1607  0.3253  0.4479
 7371SOL     OW29255   3.982   4.723   4.873 -0.1997 -0.3760 -0.1663
 7371SOL    HW229256   3.974   4.773   4.792  2.0743 -1.0327 -0.8759
 7371SOL    HW329257   4.058   4.761   4.918 -0.7686 -0.7208  1.1565
 7371SOL    MW429258   3.991   4.735   4.869  0.2896 -0.5821  0.1066
 7372SOL     OW29259   3.660   2.684   4.041  0.8290 -0.1191 -0.1131
 7372SOL    HW229260   3.578   2.659   4.084  1.2396  0.5007  1.1057
 7372SOL    HW329261   3.634   2.742   3.971  0.2901  1.5245  1.3767
 7372SOL    MW429262   3.646   2.688   4.038  0.1951 -0.3844 -0.2638
 7373SOL     OW29263   4.435   2.841   3.588 -0.2316  0.0484 -0.9573
 7373SOL    HW229264   4.379   2.917   3.571 -0.0532  0.0919 -1.3662
 7373SOL    HW329265   4.410   2.778   3.520  0.3176  0.1244 -1.2330
 7373SOL    MW429266   4.424   2.842   3.577 -0.1724 -0.2026 -0.1059
 7374SOL     OW29267   2.460   1.330   5.153 -0.0663 -0.1914 -0.1884
 7374SOL    HW229268   2.469   1.285   5.069  1.5111  0.8997 -0.6496
 7374SOL    HW329269   2.545   1.370   5.168 -1.2406  2.2825  0.3956
 7374SOL    MW429270   2.472   1.330   5.143 -0.3976  0.4559 -0.1549
 7375SOL     OW29271   5.126   1.504   1.204  0.0196 -0.2523 -0.1683
 7375SOL    HW229272   5.169   1.588   1.189  1.2620 -0.8949 -0.3562
 7375SOL    HW329273   5.087   1.511   1.291 -0.5031  0.7520 -0.4662
 7375SOL    MW429274   5.126   1.516   1.213  0.1054  0.9091  0.6212
 7376SOL     OW29275   4.578   2.359   4.635  0.8257  0.4005 -0.0362
 7376SOL    HW229276   4.570   2.322   4.547  0.6495  0.0074  0.1439
 7376SOL    HW329277   4.639   2.302   4.680  1.4350  0.9885 -0.1055
 7376SOL    MW429278   4.585   2.347   4.629  0.0002  0.1497 -0.1311
 7377SOL     OW29279   1.741   5.328   0.313  0.6261  1.2915  0.1230
 7377SOL    HW229280   1.744   5.386   0.389  0.3537 -0.4330  1.5221
 7377SOL    HW329281   1.825   5.281   0.316 -1.4509 -2.9238  2.9261
 7377SOL    MW429282   1.753   5.329   0.324  0.3162 -0.3377  0.3309
 7378SOL     OW29283   0.894   0.983   2.252 -0.3780 -0.3085  0.6397
 7378SOL    HW229284   0.919   1.053   2.193 -1.6999 -0.7464 -0.5158
 7378SOL    HW329285   0.938   0.905   2.217 -1.6945 -0.7034 -0.2586
 7378SOL    MW429286   0.903   0.982   2.239 -0.3304  0.6143  0.2010
 7379SOL     OW29287   3.940   3.732   0.251  0.0143  0.2433  0.4300
 7379SOL    HW229288   3.925   3.654   0.305  0.3465  0.3925  0.7473
 7379SOL    HW329289   3.977   3.796   0.312  1.0289  0.1900 -0.1081
 7379SOL    MW429290   3.943   3.730   0.266  0.1739 -0.4142 -0.5494
 7380SOL     OW29291   0.724   3.978   0.829 -1.3402  0.1237  0.9586
 7380SOL    HW229292   0.712   3.884   0.814  0.0916 -0.1339  1.2743
 7380SOL    HW329293   0.635   4.013   0.832 -1.9501 -1.3833  1.8402
 7380SOL    MW429294   0.711   3.970   0.827  0.4719  0.4479 -0.0490
 7381SOL     OW29295   6.007   2.455   0.905 -0.0864 -0.0977  0.4385
 7381SOL    HW229296   6.028   2.365   0.882 -0.6443  0.1820 -1.3089
 7381SOL    HW329297   6.089   2.491   0.938  0.6634 -0.7140 -0.6820
 7381SOL    MW429298   6.020   2.448   0.906 -0.2885  0.0948  0.3597
 7382SOL     OW29299   4.199   5.518   0.577 -0.1321 -0.3017  0.6718
 7382SOL    HW229300   4.154   5.473   0.506  1.2388  0.0826 -0.4801
 7382SOL    HW329301   4.197   5.455   0.649  0.8055 -1.8337 -0.5680
 7382SOL    MW429302   4.193   5.503   0.577  0.1649 -0.0207 -0.3478
 7383SOL     OW29303   0.586   0.199   6.425 -0.0807  0.2348  0.2756
 7383SOL    HW229304   0.502   0.205   6.381  1.5257  0.2406 -3.1017
 7383SOL    HW329305   0.615   0.290   6.433  0.0510  0.1765  0.4701
 7383SOL    MW429306   0.579   0.212   6.420  0.1558  0.1753  0.2409
 7384SOL     OW29307   2.012   5.809   5.852  0.1432  0.1745  0.2306
 7384SOL    HW229308   1.959   5.733   5.880  1.4416 -0.8305  0.0416
 7384SOL    HW329309   1.957   5.884   5.872 -1.7812 -0.8535 -0.8432
 7384SOL    MW429310   1.998   5.809   5.858 -0.2363  0.5691 -0.7461
 7385SOL     OW29311   2.046   6.000   4.256 -0.2586 -0.3153 -0.3410
 7385SOL    HW229312   2.105   5.925   4.258 -1.0814 -0.9730 -0.5188
 7385SOL    HW329313   2.095   6.067   4.207  1.3312  0.0402  1.6060
 7385SOL    MW429314   2.060   5.999   4.250 -0.4818  0.3942  0.0721
 7386SOL     OW29315   5.505   6.275   5.347 -0.7557 -0.0551  0.0133
 7386SOL    HW229316   5.526   6.361   5.385 -1.8912 -0.3492  1.3567
 7386SOL    HW329317   5.444   6.294   5.276 -0.5851  0.2810 -0.0464
 7386SOL    MW429318   5.500   6.289   5.343 -0.0683 -0.8570  0.2552
 7387SOL     OW29319   0.961   5.161   3.896  0.3029  0.4987  0.4066
 7387SOL    HW229320   1.018   5.211   3.956  0.0199  0.3560  0.7937
 7387SOL    HW329321   1.006   5.166   3.812  1.1924 -0.0865  0.8259
 7387SOL    MW429322   0.975   5.169   3.893  0.4834 -0.0420 -0.2539
 7388SOL     OW29323   4.680   1.397   3.351 -0.5423 -0.5389 -0.2864
 7388SOL    HW229324   4.603   1.346   3.376 -1.0721  0.6372  0.5124
 7388SOL    HW329325   4.707   1.442   3.431 -0.2615  0.6626 -1.0306
 7388SOL    MW429326   4.674   1.396   3.365  0.0965  0.6331  0.2880
 7389SOL     OW29327   2.481   1.578   3.673 -0.0578 -0.0388 -0.0654
 7389SOL    HW229328   2.482   1.604   3.765  2.5801 -2.2874  0.6858
 7389SOL    HW329329   2.520   1.652   3.627  2.2586 -0.3362  1.2492
 7389SOL    MW429330   2.486   1.591   3.679  0.6486 -0.0197 -0.2233
 7390SOL     OW29331   2.926   4.134   1.092 -0.6354  0.0682 -0.3567
 7390SOL    HW229332   2.911   4.111   1.000 -3.4525 -0.7149  0.1851
 7390SOL    HW329333   2.910   4.052   1.139  1.0990  0.3797  0.8389
 7390SOL    MW429334   2.922   4.120   1.086  0.1662  0.0973 -0.4896
 7391SOL     OW29335   2.068   6.070   1.037  0.1794 -0.1691  0.0412
 7391SOL    HW229336   2.081   6.095   0.945  1.0755 -0.5427  0.0621
 7391SOL    HW329337   1.975   6.045   1.041  0.4503 -1.5018 -1.0965
 7391SOL    MW429338   2.057   6.070   1.025 -0.0389  0.0289 -0.5328
 7392SOL     OW29339   1.746   5.318   5.766 -0.0796 -0.1184 -0.2066
 7392SOL    HW229340   1.742   5.223   5.766  2.7995 -0.3344 -1.2546
 7392SOL    HW329341   1.797   5.340   5.844 -1.3392  0.6542  0.4311
 7392SOL    MW429342   1.752   5.309   5.776 -0.5050  0.0552  0.1232
 7393SOL     OW29343   2.661   2.923   2.637 -0.2702 -0.0465 -0.1761
 7393SOL    HW229344   2.660   3.010   2.678  0.5589 -0.6466  1.1900
 7393SOL    HW329345   2.573   2.913   2.600 -1.1318  0.4826  1.6272
 7393SOL    MW429346   2.649   2.933   2.638 -0.1124  0.2013 -0.3983
 7394SOL     OW29347   3.549   0.904   1.113 -0.7865  0.0419  0.4009
 7394SOL    HW229348   3.590   0.871   1.032  1.7231  1.3953  1.0315
 7394SOL    HW329349   3.475   0.844   1.127  1.2670 -2.9914 -0.5192
 7394SOL    MW429350   3.545   0.891   1.104  0.4450 -0.3451 -0.4695
 7395SOL     OW29351   0.794   0.482   5.272  0.5055  0.5606 -0.4361
 7395SOL    HW229352   0.865   0.420   5.255 -0.0985 -0.7700  1.5483
 7395SOL    HW329353   0.814   0.518   5.358 -1.6548 -0.5860  0.6461
 7395SOL    MW429354   0.806   0.478   5.281  0.1793  0.3162  0.4842
 7396SOL     OW29355   3.735   2.203   2.372 -0.0201  0.2547 -0.3509
 7396SOL    HW229356   3.752   2.294   2.397  1.1384 -0.1967  0.5933
 7396SOL    HW329357   3.761   2.197   2.280 -0.0278  0.8455 -0.3947
 7396SOL    MW429358   3.741   2.214   2.363 -0.1479  0.3467 -0.6006
 7397SOL     OW29359   2.567   1.722   2.383  0.1987 -0.3349 -0.3924
 7397SOL    HW229360   2.650   1.726   2.335  0.5180 -1.0760  0.0672
 7397SOL    HW329361   2.592   1.686   2.469 -0.5741 -0.3998 -0.1912
 7397SOL    MW429362   2.582   1.718   2.388  0.3521  0.2710 -0.7388
 7398SOL     OW29363   5.763   2.086   2.492  0.7888 -0.6509  0.4334
 7398SOL    HW229364   5.852   2.120   2.487  0.6367 -0.0390  1.4470
 7398SOL    HW329365   5.711   2.146   2.438  0.6218  0.4227  1.7395
 7398SOL    MW429366   5.768   2.099   2.484  0.2580 -0.7910  0.6435
 7399SOL     OW29367   5.830   3.822   2.105  0.3000 -0.3615 -0.2675
 7399SOL    HW229368   5.738   3.800   2.092  0.2856  0.2809 -1.3984
 7399SOL    HW329369   5.836   3.846   2.197 -0.3348 -1.8726  0.2034
 7399SOL    MW429370   5.819   3.822   2.115  0.0103 -0.0090  0.0970
 7400SOL     OW29371   5.010   0.466   0.126  0.5079 -0.2401  0.3513
 7400SOL    HW229372   4.965   0.409   0.189 -1.3104 -0.4217 -1.0204
 7400SOL    HW329373   4.980   0.435   0.041  1.5454  1.1134 -0.5390
 7400SOL    MW429374   5.000   0.454   0.123  0.0356 -0.7700  0.3572
 7401SOL     OW29375   0.490   4.086   0.900  0.0713  0.0390  0.3261
 7401SOL    HW229376   0.528   4.152   0.958  2.3241 -0.2719 -0.7062
 7401SOL    HW329377   0.427   4.135   0.847  0.2557  0.9484  0.9278
 7401SOL    MW429378   0.487   4.101   0.900 -0.0650  0.2698  0.2775
 7402SOL     OW29379   2.685   0.845   1.499  0.0946 -0.1904  0.1196
 7402SOL    HW229380   2.724   0.770   1.545 -0.3226 -0.7247 -0.3945
 7402SOL    HW329381   2.682   0.818   1.407 -0.2026  0.3978 -0.0474
 7402SOL    MW429382   2.690   0.832   1.493 -0.1389 -0.7299 -0.7661
 7403SOL     OW29383   5.980   6.466   5.656  0.1313  0.3641  0.0538
 7403SOL    HW229384   6.047   6.501   5.598 -0.1804  0.9304  0.0230
 7403SOL    HW329385   5.930   6.404   5.602  1.3213 -0.9351  0.3887
 7403SOL    MW429386   5.982   6.463   5.642  0.0171 -0.1362  0.1745
 7404SOL     OW29387   0.759   3.829   1.533  0.1173 -0.3086 -0.0169
 7404SOL    HW229388   0.795   3.903   1.485  0.9603  0.8646  2.2922
 7404SOL    HW329389   0.676   3.860   1.567  1.1643  0.2225  2.2569
 7404SOL    MW429390   0.753   3.843   1.531  0.1044 -0.1581 -0.6937
 7405SOL     OW29391   4.903   3.498   5.632  0.0988 -0.1139 -0.1904
 7405SOL    HW229392   4.944   3.509   5.546 -1.3747 -0.9615 -1.0361
 7405SOL    HW329393   4.955   3.430   5.674  0.4271 -0.1629 -0.6638
 7405SOL    MW429394   4.915   3.491   5.626  0.0644 -0.0351 -0.0321
 7406SOL     OW29395   5.258   3.042   0.266 -0.7796  0.0049 -0.5014
 7406SOL    HW229396   5.327   3.095   0.305 -0.8894 -0.7577  0.8034
 7406SOL    HW329397   5.271   3.050   0.171  1.7705 -0.9629 -0.3179
 7406SOL    MW429398   5.269   3.050   0.258 -0.0434  0.2079  0.2130
 7407SOL     OW29399   3.446   3.423   1.691  0.2567 -0.0831 -0.1812
 7407SOL    HW229400   3.473   3.500   1.641  0.0638 -0.8833 -1.5760
 7407SOL    HW329401   3.371   3.453   1.743 -0.7449  0.3495 -1.7974
 7407SOL    MW429402   3.439   3.437   1.691  0.2190  0.1844  0.3025
 7408SOL     OW29403   6.012   2.216   1.151 -0.6043 -0.3923  0.0777
 7408SOL    HW229404   6.063   2.138   1.131 -1.2188 -0.7762 -0.0220
 7408SOL    HW329405   5.940   2.214   1.088  0.0782  0.9496 -0.7821
 7408SOL    MW429406   6.009   2.206   1.140 -0.3569  0.4126  0.0677
 7409SOL     OW29407   5.845   0.447   3.330 -0.0538  0.3441  0.0663
 7409SOL    HW229408   5.819   0.529   3.289  0.5319 -0.2244 -1.5484
 7409SOL    HW329409   5.918   0.470   3.387  0.9029  0.7905 -1.2969
 7409SOL    MW429410   5.851   0.461   3.332 -0.3170 -0.2946 -0.0600
 7410SOL     OW29411   3.893   3.280   5.742  0.4117  0.0943  0.5773
 7410SOL    HW229412   3.950   3.357   5.742  0.4626  0.0608 -0.1039
 7410SOL    HW329413   3.951   3.206   5.757  0.4237  0.1390  0.7611
 7410SOL    MW429414   3.908   3.281   5.744 -0.0165 -0.1799  0.4613
 7411SOL     OW29415   1.963   5.202   2.242 -0.4612 -0.7087 -0.1753
 7411SOL    HW229416   2.007   5.154   2.313 -0.7372 -2.1187 -0.9085
 7411SOL    HW329417   1.969   5.294   2.267  0.1456 -1.1190  1.2750
 7411SOL    MW429418   1.970   5.207   2.254  0.1914  0.4577 -0.3555
 7412SOL     OW29419   4.183   6.471   5.521 -0.2507 -0.0376 -0.0626
 7412SOL    HW229420   4.206   6.563   5.537  2.2809 -0.3702 -1.2709
 7412SOL    HW329421   4.219   6.452   5.435  2.6574 -3.1019  1.5728
 7412SOL    MW429422   4.191   6.481   5.512  0.9168  0.5230 -0.0896
 7413SOL     OW29423   1.390   3.409   5.755 -0.6168  0.0224 -0.5041
 7413SOL    HW229424   1.326   3.343   5.728  0.6470 -0.9985 -1.0679
 7413SOL    HW329425   1.336   3.483   5.782 -2.3540 -2.3990  3.7260
 7413SOL    MW429426   1.374   3.410   5.755  0.3234  0.6068 -0.0603
 7414SOL     OW29427   0.397   6.083   0.877 -0.1712 -0.2254 -0.1841
 7414SOL    HW229428   0.470   6.030   0.846 -1.2271 -1.4063 -0.7340
 7414SOL    HW329429   0.323   6.058   0.822 -0.7765  1.6798 -0.3121
 7414SOL    MW429430   0.397   6.073   0.866  0.2764 -0.3009 -0.0301
 7415SOL     OW29431   4.116   5.882   5.876  0.2732 -0.0269  0.5689
 7415SOL    HW229432   4.110   5.789   5.896  0.9799 -0.8068 -2.3980
 7415SOL    HW329433   4.030   5.904   5.840 -0.0086  0.5966  1.5739
 7415SOL    MW429434   4.104   5.873   5.874  0.3609 -0.5179 -0.6485
 7416SOL     OW29435   3.428   3.676   6.355 -0.0161 -0.2201  0.0508
 7416SOL    HW229436   3.379   3.710   6.430 -0.2808  1.1132 -0.6943
 7416SOL    HW329437   3.380   3.598   6.328  0.7027 -1.3793  1.9105
 7416SOL    MW429438   3.415   3.670   6.361  0.4787  0.4871  0.0929
 7417SOL     OW29439   4.115   1.717   4.528  0.0420  0.3685  0.7165
 7417SOL    HW229440   4.127   1.791   4.469 -2.0202  0.7687  0.7258
 7417SOL    HW329441   4.088   1.757   4.611 -1.9584 -0.3440  0.4829
 7417SOL    MW429442   4.113   1.732   4.531 -0.1175 -0.1404  0.1129
 7418SOL     OW29443   4.135   0.216   0.787 -0.6590 -0.0374 -0.5385
 7418SOL    HW229444   4.140   0.131   0.831 -0.1057  0.5717  0.6212
 7418SOL    HW329445   4.075   0.268   0.841  0.8286  1.0577  0.1308
 7418SOL    MW429446   4.128   0.212   0.800  0.1044 -0.8727  0.4163
 7419SOL     OW29447   2.793   6.223   6.133 -0.2900 -0.0364 -0.7161
 7419SOL    HW229448   2.784   6.167   6.056 -0.9969  0.6366 -1.1345
 7419SOL    HW329449   2.885   6.213   6.158  0.2791  0.6651 -2.3883
 7419SOL    MW429450   2.804   6.214   6.126 -0.2333  0.2806 -0.2842
 7420SOL     OW29451   1.199   1.918   4.485 -0.0600 -0.1949 -0.2540
 7420SOL    HW229452   1.181   1.847   4.546  0.2349 -1.4072 -1.5036
 7420SOL    HW329453   1.173   1.998   4.531 -1.9484 -1.2457  0.5899
 7420SOL    MW429454   1.193   1.919   4.499 -0.2657  0.0209  0.0016
 7421SOL     OW29455   2.602   1.509   1.199 -0.2551 -0.3223  0.4239
 7421SOL    HW229456   2.527   1.567   1.185  0.7888  0.8829 -0.4021
 7421SOL    HW329457   2.672   1.548   1.147  0.5289 -2.2855 -0.0909
 7421SOL    MW429458   2.601   1.522   1.190 -0.1280  0.2603  0.4617
 7422SOL     OW29459   0.551   1.174   4.081  0.2164 -0.0366  0.1532
 7422SOL    HW229460   0.466   1.218   4.084  0.5772  0.6397  2.3608
 7422SOL    HW329461   0.547   1.109   4.150  0.6850 -1.6783 -1.3078
 7422SOL    MW429462   0.539   1.171   4.090  0.2296 -0.8806 -0.0387
 7423SOL     OW29463   5.330   2.195   3.912  0.2430 -0.3159  0.1913
 7423SOL    HW229464   5.280   2.156   3.985 -0.6429  1.9626  0.9132
 7423SOL    HW329465   5.348   2.285   3.942 -0.3163  0.7642 -2.4633
 7423SOL    MW429466   5.326   2.202   3.926 -0.4163  0.5972 -0.6349
 7424SOL     OW29467   1.809   2.703   3.394 -0.0578  0.1493 -0.8135
 7424SOL    HW229468   1.868   2.628   3.400  0.4087  0.6430  1.9421
 7424SOL    HW329469   1.865   2.774   3.362 -0.3883 -0.4762 -2.9491
 7424SOL    MW429470   1.824   2.703   3.391 -0.7633 -0.2778 -0.0238
 7425SOL     OW29471   1.757   1.281   3.718  0.2432 -0.6203 -0.2114
 7425SOL    HW229472   1.668   1.252   3.737  0.0761  0.4423  0.7810
 7425SOL    HW329473   1.763   1.367   3.761  1.8106 -0.7743 -0.0837
 7425SOL    MW429474   1.746   1.289   3.726  0.1529 -0.0119  0.1197
 7426SOL     OW29475   5.220   5.687   0.748 -0.7974  0.1111 -0.5199
 7426SOL    HW229476   5.242   5.718   0.836 -1.2581 -0.2136 -0.2930
 7426SOL    HW329477   5.125   5.694   0.743 -0.7741  0.0904 -0.9785
 7426SOL    MW429478   5.211   5.692   0.759 -0.3855 -0.7418 -0.5434
 7427SOL     OW29479   2.197   1.553   1.239 -0.1225 -0.2723  0.4694
 7427SOL    HW229480   2.140   1.630   1.243 -1.9763 -1.5871  1.1647
 7427SOL    HW329481   2.249   1.565   1.159 -0.5575  1.5545  0.4377
 7427SOL    MW429482   2.196   1.564   1.229  0.0318  0.3369  0.5180
 7428SOL     OW29483   1.917   3.571   4.799  0.6921 -0.3139  0.1779
 7428SOL    HW229484   1.829   3.576   4.838  0.7859 -0.0680  0.3627
 7428SOL    HW329485   1.958   3.654   4.822  0.7596 -0.1739 -0.4315
 7428SOL    MW429486   1.911   3.583   4.807 -0.4672 -1.1398 -0.1790
 7429SOL     OW29487   0.166   5.893   3.563  1.2795 -0.4339  0.5087
 7429SOL    HW229488   0.233   5.948   3.604  0.7160  0.1754  0.6382
 7429SOL    HW329489   0.211   5.811   3.543  2.1950  0.1331  0.1427
 7429SOL    MW429490   0.181   5.889   3.566 -0.0882  0.3596  0.0473
 7430SOL     OW29491   2.460   3.322   2.870 -0.5559  0.2497 -0.1071
 7430SOL    HW229492   2.495   3.327   2.959  1.1459  3.1882 -0.8037
 7430SOL    HW329493   2.504   3.247   2.831  3.4117  2.3233 -0.1531
 7430SOL    MW429494   2.470   3.313   2.877 -0.2284 -0.1290 -0.2909
 7431SOL     OW29495   3.125   2.153   3.555  0.3563  0.2581 -0.4107
 7431SOL    HW229496   3.074   2.223   3.596 -0.4089 -1.1186  1.0863
 7431SOL    HW329497   3.209   2.155   3.601 -0.3358 -0.9820  0.9795
 7431SOL    MW429498   3.129   2.163   3.566 -0.5610  0.0361 -0.8936
 7432SOL     OW29499   5.400   3.784   1.276 -0.4255  0.1477 -0.2769
 7432SOL    HW229500   5.430   3.847   1.211  0.1050  0.8439  0.6008
 7432SOL    HW329501   5.480   3.754   1.319 -0.7934  0.0629  0.3709
 7432SOL    MW429502   5.415   3.788   1.273 -0.5041 -0.2481  0.3502
 7433SOL     OW29503   5.668   3.240   3.659 -0.4015 -0.2793  0.2790
 7433SOL    HW229504   5.672   3.294   3.738  1.8947  0.2289 -0.1028
 7433SOL    HW329505   5.639   3.154   3.690 -1.8408  0.5354  1.2774
 7433SOL    MW429506   5.665   3.236   3.674 -0.1004  0.1673 -0.2089
 7434SOL     OW29507   4.473   6.254   3.756  0.0428  0.4364 -0.8652
 7434SOL    HW229508   4.501   6.322   3.694 -0.2320  2.3117  0.9478
 7434SOL    HW329509   4.526   6.178   3.732  1.3957  1.6852 -2.1274
 7434SOL    MW429510   4.484   6.253   3.744 -0.1995 -0.1979 -0.6046
 7435SOL     OW29511   1.239   2.420   0.284 -0.1884  0.3826  0.6044
 7435SOL    HW229512   1.305   2.353   0.301  1.1195  0.5822 -2.8671
 7435SOL    HW329513   1.160   2.371   0.262  0.2620 -0.0163 -0.1798
 7435SOL    MW429514   1.237   2.405   0.284 -0.5125 -0.3866 -0.4701
 7436SOL     OW29515   4.208   4.640   2.794 -0.1155 -0.2705  0.1153
 7436SOL    HW229516   4.158   4.567   2.759 -0.5918  0.4644 -0.7955
 7436SOL    HW329517   4.246   4.682   2.717  0.2198  0.3880  0.6288
 7436SOL    MW429518   4.206   4.636   2.780 -0.6562 -0.2410 -0.0201
 7437SOL     OW29519   0.781   1.788   4.529 -0.4416 -0.0294  0.0794
 7437SOL    HW229520   0.826   1.856   4.479  1.0237  0.3141  1.7735
 7437SOL    HW329521   0.782   1.712   4.471  1.0645  0.3903 -0.5050
 7437SOL    MW429522   0.787   1.787   4.515  0.1336  0.1130  0.2227
 7438SOL     OW29523   1.560   2.406   5.950 -0.1627 -0.0796 -0.5641
 7438SOL    HW229524   1.561   2.427   6.043 -0.5787 -1.9554 -0.0959
 7438SOL    HW329525   1.480   2.446   5.918 -0.9024 -0.8304  0.2779
 7438SOL    MW429526   1.550   2.414   5.958 -0.5192  1.0014 -0.1047
 7439SOL     OW29527   4.109   2.920   3.256 -0.0041  0.1156  0.1108
 7439SOL    HW229528   4.108   2.939   3.163 -2.0816 -2.1252 -0.4068
 7439SOL    HW329529   4.040   2.974   3.292  1.9702  2.3805  0.7854
 7439SOL    MW429530   4.100   2.930   3.249 -0.1044  0.6248  0.2567
 7440SOL     OW29531   5.149   2.454   1.291  0.0159 -0.8346  0.5464
 7440SOL    HW229532   5.148   2.413   1.204  1.7084 -1.0653  0.6078
 7440SOL    HW329533   5.149   2.548   1.273  0.5849 -0.8839  0.2965
 7440SOL    MW429534   5.149   2.461   1.277 -0.0603  0.5329 -0.0961
 7441SOL     OW29535   2.843   0.814   4.514 -0.2613 -0.0465 -0.1049
 7441SOL    HW229536   2.912   0.761   4.554 -0.4373  0.8813  1.4757
 7441SOL    HW329537   2.785   0.750   4.472 -0.1425 -1.0688  1.2338
 7441SOL    MW429538   2.845   0.799   4.513 -0.2873  0.0286  0.1545
 7442SOL     OW29539   1.713   2.724   1.004 -0.7892 -0.2993 -0.4594
 7442SOL    HW229540   1.654   2.648   1.000 -0.0218 -1.1023  1.7216
 7442SOL    HW329541   1.792   2.689   1.046  0.0996  1.4145 -0.6605
 7442SOL    MW429542   1.715   2.709   1.009 -0.5108  0.0603  0.2183
 7443SOL     OW29543   1.679   1.043   3.920  1.0121 -0.4637  0.1630
 7443SOL    HW229544   1.708   1.055   4.011 -0.9757 -1.5757  1.0120
 7443SOL    HW329545   1.586   1.026   3.927  0.5756  0.5440 -2.2217
 7443SOL    MW429546   1.671   1.042   3.933 -0.2607 -0.0821  0.0579
 7444SOL     OW29547   6.162   1.638   6.327 -0.1604 -0.2766 -0.6821
 7444SOL    HW229548   6.159   1.600   6.415 -0.9475 -0.9332 -0.9807
 7444SOL    HW329549   6.240   1.692   6.327  2.0792 -3.2669 -0.7914
 7444SOL    MW429550   6.172   1.640   6.339 -0.4880 -0.2498 -0.0789
 7445SOL     OW29551   3.074   2.399   2.613 -0.6849 -0.4264  0.0059
 7445SOL    HW229552   3.131   2.423   2.685 -1.7406 -1.6538  1.3124
 7445SOL    HW329553   3.027   2.480   2.591 -1.9640 -0.4790  2.2439
 7445SOL    MW429554   3.075   2.413   2.619 -0.3963  0.0875  0.1619
 7446SOL     OW29555   1.259   4.253   0.123  0.1061  0.5218  0.5683
 7446SOL    HW229556   1.236   4.161   0.127  0.6375  0.3078 -0.7253
 7446SOL    HW329557   1.208   4.294   0.193  0.7176 -0.9005  1.8909
 7446SOL    MW429558   1.249   4.247   0.133 -0.6298 -0.1948 -0.1180
 7447SOL     OW29559   6.217   2.327   2.642 -0.0884 -0.0359 -0.3614
 7447SOL    HW229560   6.271   2.405   2.649  1.5262 -1.0587 -0.7332
 7447SOL    HW329561   6.271   2.257   2.678 -0.8822 -1.2337 -1.4051
 7447SOL    MW429562   6.231   2.328   2.647 -0.3146  0.4309 -0.6854
 7448SOL     OW29563   0.194   0.713   6.240  0.2533 -1.0100  0.2115
 7448SOL    HW229564   0.103   0.742   6.235  0.4077 -0.5006  0.3198
 7448SOL    HW329565   0.211   0.705   6.334  1.0920  1.4091  0.3315
 7448SOL    MW429566   0.184   0.715   6.252 -0.4399  0.0872  0.2473
 7449SOL     OW29567   3.301   5.729   0.820 -0.5317 -0.1580  0.1607
 7449SOL    HW229568   3.338   5.705   0.905  0.7199  1.3167  0.0738
 7449SOL    HW329569   3.264   5.816   0.834 -1.6694 -0.5148 -0.4557
 7449SOL    MW429570   3.301   5.737   0.833  0.0615  0.3208 -0.0209
 7450SOL     OW29571   3.518   3.192   0.634  0.3668  0.3871  0.5790
 7450SOL    HW229572   3.500   3.098   0.636  1.8280  0.0707  2.5576
 7450SOL    HW329573   3.613   3.199   0.620  0.0082  1.6729 -1.6402
 7450SOL    MW429574   3.528   3.181   0.633 -0.2936  0.0856  0.1316
 7451SOL     OW29575   1.395   2.002   1.895  0.2097 -0.4646 -0.2332
 7451SOL    HW229576   1.338   2.062   1.847 -2.5762 -3.1976 -0.6379
 7451SOL    HW329577   1.432   1.945   1.828 -0.2648 -1.5908  0.4298
 7451SOL    MW429578   1.392   2.002   1.880 -0.8606  0.3412 -0.0024
 7452SOL     OW29579   3.844   2.952   4.028  0.1525 -0.2754  0.1885
 7452SOL    HW229580   3.882   3.018   3.970  2.0000 -0.7779  0.7828
 7452SOL    HW329581   3.847   2.871   3.978 -1.6232 -0.0719 -0.3344
 7452SOL    MW429582   3.849   2.950   4.014  0.3824 -0.3333 -0.1218
 7453SOL     OW29583   5.544   2.745   5.135  0.4447 -0.5241 -0.0936
 7453SOL    HW229584   5.614   2.683   5.152  0.6058 -0.2006  0.4354
 7453SOL    HW329585   5.504   2.761   5.221 -0.0091 -0.3863 -0.3233
 7453SOL    MW429586   5.548   2.739   5.149 -0.3945  0.0524 -0.5824
 7454SOL     OW29587   4.188   2.498   1.690  0.2122  0.3207  0.1735
 7454SOL    HW229588   4.115   2.542   1.733  0.6184  0.2179  0.9838
 7454SOL    HW329589   4.242   2.569   1.655 -0.1459  0.4023 -0.2297
 7454SOL    MW429590   4.185   2.513   1.691  0.4933 -0.8576 -0.3338
 7455SOL     OW29591   3.491   0.073   5.817 -0.3142 -0.4584  0.6680
 7455SOL    HW229592   3.552   0.006   5.786  1.6571  1.3534  0.3925
 7455SOL    HW329593   3.541   0.122   5.883 -1.2707  1.3588  0.1147
 7455SOL    MW429594   3.506   0.071   5.822 -0.1995  0.6696 -0.0189
 7456SOL     OW29595   0.239   6.075   2.608 -0.1018  0.2055  0.4090
 7456SOL    HW229596   0.247   5.980   2.600 -0.7532  0.0383  1.5065
 7456SOL    HW329597   0.193   6.088   2.691 -0.9743  1.4486 -0.2443
 7456SOL    MW429598   0.234   6.064   2.618  0.3256 -0.2602  0.1908
 7457SOL     OW29599   2.839   1.519   1.895  0.1347  0.5933  0.5701
 7457SOL    HW229600   2.858   1.522   1.802  1.1649  0.2893  0.7587
 7457SOL    HW329601   2.910   1.569   1.936 -0.9221  1.7250  1.1234
 7457SOL    MW429602   2.851   1.526   1.888 -0.0789 -0.6891 -0.0157
 7458SOL     OW29603   1.274   2.355   3.885  0.2263 -0.2272 -0.1114
 7458SOL    HW229604   1.255   2.407   3.807  0.2337  2.0333  1.2943
 7458SOL    HW329605   1.192   2.309   3.904 -0.2753  0.4521 -0.5651
 7458SOL    MW429606   1.261   2.356   3.878 -0.1810  0.2494 -0.6963
 7459SOL     OW29607   2.221   3.273   2.748 -1.2034  0.5169  0.7039
 7459SOL    HW229608   2.161   3.339   2.784 -0.1966  0.4344  2.6457
 7459SOL    HW329609   2.303   3.288   2.794  0.1738  0.2975 -1.5358
 7459SOL    MW429610   2.224   3.284   2.759  0.5430 -0.4011  0.3412
 7460SOL     OW29611   4.236   6.097   3.299  0.7511 -0.1015 -0.5064
 7460SOL    HW229612   4.290   6.140   3.232  1.5799 -0.2103  0.0719
 7460SOL    HW329613   4.299   6.061   3.361  0.0122  2.0603  1.6483
 7460SOL    MW429614   4.251   6.098   3.299 -0.6422 -0.2661 -0.0731
 7461SOL     OW29615   6.309   1.379   5.922  0.6155  0.4357 -0.0484
 7461SOL    HW229616   6.399   1.398   5.896  0.5152  0.0866 -0.6507
 7461SOL    HW329617   6.304   1.284   5.926  0.8190  0.4672  1.9330
 7461SOL    MW429618   6.320   1.369   5.919  0.0316  0.0023 -0.3658
 7462SOL     OW29619   3.525   5.391   2.480 -0.1662  0.2299 -0.5815
 7462SOL    HW229620   3.528   5.425   2.570  2.5868  0.1951 -0.5508
 7462SOL    HW329621   3.438   5.353   2.471 -0.9283  1.2702  1.6819
 7462SOL    MW429622   3.514   5.390   2.491 -0.0442  0.6978  0.3309
 7463SOL     OW29623   0.889   3.676   4.618  0.4570  0.6023  0.5586
 7463SOL    HW229624   0.888   3.643   4.528 -2.0462  1.6153  0.1509
 7463SOL    HW329625   0.927   3.764   4.610 -1.7252  1.5549  0.0879
 7463SOL    MW429626   0.894   3.684   4.605 -0.2391 -0.3147  0.3511
 7464SOL     OW29627   3.424   1.822   6.280 -0.3850 -0.1745 -0.2378
 7464SOL    HW229628   3.345   1.825   6.333 -0.6142 -2.6494 -0.2955
 7464SOL    HW329629   3.463   1.909   6.290 -1.2069 -0.0124  2.7518
 7464SOL    MW429630   3.419   1.834   6.289  0.2339 -0.0669 -0.3574
 7465SOL     OW29631   4.971   5.451   2.218  0.2110  0.3741  0.1969
 7465SOL    HW229632   5.013   5.475   2.300  1.2608 -0.0609 -0.1889
 7465SOL    HW329633   5.003   5.363   2.200 -0.0609  0.4396 -0.6474
 7465SOL    MW429634   4.981   5.442   2.226  0.0072 -0.8958  0.2074
 7466SOL     OW29635   1.475   1.721   1.145  0.0295  0.0696  0.2153
 7466SOL    HW229636   1.528   1.655   1.100 -0.3383 -0.7829  0.9986
 7466SOL    HW329637   1.429   1.672   1.213 -3.4998  0.3025 -1.7383
 7466SOL    MW429638   1.476   1.706   1.148  0.8629  0.1676  0.5805
 7467SOL     OW29639   0.404   3.372   4.911  0.5741  0.3623  0.3551
 7467SOL    HW229640   0.478   3.405   4.859  0.9843 -2.7080 -1.2343
 7467SOL    HW329641   0.436   3.374   5.001  4.0650 -3.6795 -0.4558
 7467SOL    MW429642   0.418   3.377   4.916 -0.4768 -0.3172  0.6824
 7468SOL     OW29643   0.337   4.724   3.510  0.0527 -0.6223 -0.0981
 7468SOL    HW229644   0.298   4.642   3.477 -0.8904 -0.1706 -0.1415
 7468SOL    HW329645   0.349   4.708   3.604  0.1585 -0.9231 -0.1616
 7468SOL    MW429646   0.333   4.711   3.518 -0.0903 -0.1904  0.2937
 7469SOL     OW29647   0.482   2.759   2.023 -0.4067 -0.1560 -0.3398
 7469SOL    HW229648   0.509   2.680   2.070  0.1433  0.6565  0.7916
 7469SOL    HW329649   0.463   2.822   2.093 -0.8326  0.7110 -1.2163
 7469SOL    MW429650   0.483   2.757   2.039  0.1533 -0.4662 -0.0544
 7470SOL     OW29651   3.049   0.125   1.849  0.3543  0.9990  0.8559
 7470SOL    HW229652   3.048   0.076   1.767 -1.2323 -0.0224  1.4421
 7470SOL    HW329653   3.056   0.058   1.917 -0.2934  1.6867  1.6268
 7470SOL    MW429654   3.050   0.110   1.847  0.0211  0.3907 -0.2646
 7471SOL     OW29655   0.317   3.944   1.499  0.2557  0.1931  0.1477
 7471SOL    HW229656   0.241   3.889   1.518  1.1350 -0.4726  1.9993
 7471SOL    HW329657   0.358   3.904   1.423  0.1268 -0.9487  0.6562
 7471SOL    MW429658   0.312   3.931   1.492  0.0358  0.8534 -0.4812
 7472SOL     OW29659   4.453   3.015   5.321 -0.4530  0.1734 -0.3917
 7472SOL    HW229660   4.524   2.958   5.293 -0.3411 -0.6183  1.3614
 7472SOL    HW329661   4.495   3.081   5.376 -0.9073  0.4689 -0.3922
 7472SOL    MW429662   4.468   3.016   5.324 -0.3572 -0.2677 -0.5312
 7473SOL     OW29663   3.599   5.966   2.618  0.4749 -0.1810  0.1562
 7473SOL    HW229664   3.623   6.058   2.610 -0.2703 -0.0798 -1.0904
 7473SOL    HW329665   3.659   5.921   2.559  2.2581 -0.7985  2.2885
 7473SOL    MW429666   3.610   5.972   2.610  0.2968  0.2117 -0.0313
 7474SOL     OW29667   2.304   1.969   1.392 -0.2919  0.4054 -0.1081
 7474SOL    HW229668   2.254   1.959   1.473  1.0416 -0.4618  0.6585
 7474SOL    HW329669   2.341   1.882   1.376 -0.6951  0.5146 -1.7755
 7474SOL    MW429670   2.302   1.956   1.401  0.1451  0.3307  0.3067
 7475SOL     OW29671   1.369   1.751   4.152 -0.3804  0.5257  0.4290
 7475SOL    HW229672   1.325   1.830   4.183 -0.6472  0.0590  1.2842
 7475SOL    HW329673   1.410   1.715   4.231  3.4067  2.0678 -0.5992
 7475SOL    MW429674   1.369   1.757   4.167  0.5343  0.4715 -0.2225
 7476SOL     OW29675   0.128   1.179   3.454 -0.1006  0.3396  0.0380
 7476SOL    HW229676   0.209   1.211   3.493  0.7830 -0.7605 -0.8026
 7476SOL    HW329677   0.084   1.257   3.420  0.5682  0.9556  0.5905
 7476SOL    MW429678   0.133   1.193   3.454  0.5022  0.1639 -0.0858
 7477SOL     OW29679   2.488   2.615   2.575 -0.4708 -0.4270 -0.0150
 7477SOL    HW229680   2.564   2.632   2.630 -1.3292 -1.7018  1.6806
 7477SOL    HW329681   2.413   2.628   2.633 -1.3670 -3.3801 -0.3415
 7477SOL    MW429682   2.488   2.619   2.589  0.4560 -0.9343  0.1669
 7478SOL     OW29683   0.208   2.149   1.353 -0.0612  0.3256 -0.7082
 7478SOL    HW229684   0.174   2.097   1.425 -0.4172 -0.9376 -1.7593
 7478SOL    HW329685   0.284   2.195   1.390 -2.2119  2.4655  1.4357
 7478SOL    MW429686   0.214   2.148   1.367  0.3174  0.0876 -0.0661
 7479SOL     OW29687   1.728   6.136   0.891  0.0743 -0.3470 -0.5666
 7479SOL    HW229688   1.786   6.211   0.876 -3.1299  2.2123 -1.4732
 7479SOL    HW329689   1.735   6.083   0.812  0.8751  0.1211 -0.8153
 7479SOL    MW429690   1.736   6.139   0.879 -0.0661 -0.5872  0.0567
 7480SOL     OW29691   6.333   0.976   5.360  0.5134  0.0503  0.3419
 7480SOL    HW229692   6.251   0.927   5.363  0.0030  0.9424  1.5051
 7480SOL    HW329693   6.381   0.947   5.438  1.0593 -0.0381 -0.0204
 7480SOL    MW429694   6.329   0.965   5.371  0.0006 -0.4859  0.1299
 7481SOL     OW29695   5.242   4.067   2.324 -0.4777  0.1618  0.1521
 7481SOL    HW229696   5.203   4.031   2.404  0.2740 -1.7828 -0.2984
 7481SOL    HW329697   5.323   4.110   2.355 -0.8821  0.6368  0.5781
 7481SOL    MW429698   5.248   4.068   2.339  0.9558  0.1074  0.4854
 7482SOL     OW29699   4.075   2.021   2.004 -0.0241  0.8008 -0.7249
 7482SOL    HW229700   3.995   2.057   2.043 -1.2186 -0.2019 -2.1189
 7482SOL    HW329701   4.098   2.083   1.934 -0.7858  0.0869 -1.6450
 7482SOL    MW429702   4.067   2.034   2.000 -0.3667  0.2747 -0.0932
 7483SOL     OW29703   4.592   3.588   0.146  0.5996 -0.2338 -0.4848
 7483SOL    HW229704   4.569   3.672   0.106 -1.7298  1.2089  3.3500
 7483SOL    HW329705   4.512   3.536   0.140  0.6841 -0.5464  0.7421
 7483SOL    MW429706   4.578   3.593   0.140 -0.0586 -0.0209 -0.0181
 7484SOL     OW29707   3.078   1.241   1.770 -0.4563 -0.3354  0.3123
 7484SOL    HW229708   3.114   1.163   1.812 -0.3178  0.9889  2.8589
 7484SOL    HW329709   3.151   1.302   1.765 -0.7543 -0.0579 -0.8703
 7484SOL    MW429710   3.092   1.239   1.775 -0.2016  0.4077  0.4343
 7485SOL     OW29711   1.438   1.168   3.994  0.2510 -0.7392 -0.0479
 7485SOL    HW229712   1.450   1.198   3.904 -0.1229  1.2507  0.5260
 7485SOL    HW329713   1.496   1.224   4.045 -1.4363 -0.0941  1.2295
 7485SOL    MW429714   1.448   1.180   3.989  0.7393 -0.2233  0.2154
 7486SOL     OW29715   4.875   5.305   1.244 -0.0672 -0.2946 -0.3573
 7486SOL    HW229716   4.838   5.393   1.245  1.0237  0.2437  2.5840
 7486SOL    HW329717   4.966   5.317   1.273  0.1688 -2.3664 -0.0970
 7486SOL    MW429718   4.882   5.319   1.248 -0.1668  0.0579 -0.1990
 7487SOL     OW29719   4.719   5.172   3.525 -0.4704  0.4936  0.1067
 7487SOL    HW229720   4.780   5.224   3.475  0.0879 -0.9516 -0.7763
 7487SOL    HW329721   4.764   5.154   3.608  0.8365 -1.4559 -0.9424
 7487SOL    MW429722   4.733   5.176   3.530 -0.0060 -0.6909  0.0041
 7488SOL     OW29723   1.697   4.751   3.704 -0.0746 -1.1880 -0.1469
 7488SOL    HW229724   1.684   4.678   3.764 -0.4529 -0.0252  1.2290
 7488SOL    HW329725   1.774   4.796   3.737 -0.9126  0.0892  0.1707
 7488SOL    MW429726   1.705   4.747   3.716  0.6478  0.1668  0.1180
 7489SOL     OW29727   1.843   5.438   4.377 -0.1542 -0.4128  0.0390
 7489SOL    HW229728   1.768   5.394   4.416  1.9679 -2.8484  1.7236
 7489SOL    HW329729   1.828   5.431   4.283 -2.4501  0.0215  0.3256
 7489SOL    MW429730   1.831   5.431   4.370 -0.4925  0.4159  0.2532
 7490SOL     OW29731   1.249   1.525   4.554  0.0206  0.0572 -0.2633
 7490SOL    HW229732   1.163   1.529   4.511 -0.0558  1.4258 -0.0170
 7490SOL    HW329733   1.232   1.553   4.644  0.7477  0.4776 -0.2509
 7490SOL    MW429734   1.235   1.529   4.560  0.0117  0.9064  0.1838
 7491SOL     OW29735   2.997   4.863   3.010  0.5030 -0.3554 -0.6710
 7491SOL    HW229736   2.932   4.804   3.048  2.0188 -2.1038 -0.6521
 7491SOL    HW329737   2.945   4.932   2.969 -1.2773 -0.2005  1.6293
 7491SOL    MW429738   2.982   4.864   3.009  0.0650 -0.6096  0.4594
 7492SOL     OW29739   1.995   5.261   4.986  0.5786 -0.2111 -0.3838
 7492SOL    HW229740   2.029   5.323   5.051 -0.3525  0.3116 -0.3747
 7492SOL    HW329741   1.945   5.316   4.925  2.0989 -0.5696 -2.0295
 7492SOL    MW429742   1.993   5.277   4.987  0.0742 -0.2438 -0.5878
 7493SOL     OW29743   6.226   6.478   0.053  0.0101  0.2894  0.8579
 7493SOL    HW229744   6.183   6.516   0.130  0.8550 -1.3417  2.2160
 7493SOL    HW329745   6.230   6.550  -0.010 -0.0883  1.9186  2.5908
 7493SOL    MW429746   6.221   6.493   0.055  0.2201 -0.2646 -0.3383
 7494SOL     OW29747   3.924   5.182   3.879  0.0341  0.1112  0.3180
 7494SOL    HW229748   3.896   5.230   3.958 -0.5629  2.0608 -1.0026
 7494SOL    HW329749   4.015   5.208   3.867  0.1954 -0.3704  0.4828
 7494SOL    MW429750   3.932   5.192   3.888  0.6153  0.0445 -0.2403
 7495SOL     OW29751   3.723   4.862   2.235  0.1572  0.0697 -0.1575
 7495SOL    HW229752   3.726   4.839   2.142  0.8842  0.4807 -0.2455
 7495SOL    HW329753   3.805   4.828   2.270 -0.8582 -1.6003  0.7159
 7495SOL    MW429754   3.734   4.854   2.227  0.1744 -0.8275  0.1116
 7496SOL     OW29755   2.972   4.209   0.364 -0.0353 -0.0072 -0.9713
 7496SOL    HW229756   3.013   4.127   0.390  1.3077  0.6155 -1.0673
 7496SOL    HW329757   3.043   4.262   0.327 -0.7181  1.4678 -0.2920
 7496SOL    MW429758   2.987   4.206   0.362  0.1090  0.0096  0.2260
 7497SOL     OW29759   0.211   0.371   1.702 -0.1930  0.4461 -0.7467
 7497SOL    HW229760   0.280   0.351   1.639 -2.5419 -0.9862 -3.0873
 7497SOL    HW329761   0.174   0.285   1.724  0.1964  0.9579  2.3135
 7497SOL    MW429762   0.215   0.357   1.697 -0.3411  0.0413 -0.2535
 7498SOL     OW29763   3.374   4.603   5.203 -0.0745  0.0998  0.4472
 7498SOL    HW229764   3.324   4.527   5.173 -0.1976  0.0593  0.7459
 7498SOL    HW329765   3.460   4.568   5.227  0.4768  0.3437 -1.0974
 7498SOL    MW429766   3.379   4.589   5.202  0.1671  0.7287  0.2218
 7499SOL     OW29767   2.480   4.865   1.033 -0.2080  0.1476 -0.4553
 7499SOL    HW229768   2.516   4.945   0.994 -0.5900  0.6159  0.1364
 7499SOL    HW329769   2.386   4.872   1.019 -0.4194  0.6022  1.0394
 7499SOL    MW429770   2.472   4.876   1.026 -0.5486  0.1522  0.2373
 7500SOL     OW29771   3.795   5.603   1.323 -0.0874  0.3681 -1.0201
 7500SOL    HW229772   3.713   5.651   1.325 -0.7708 -0.7299  1.8816
 7500SOL    HW329773   3.770   5.512   1.312  0.7020 -0.0117  0.1651
 7500SOL    MW429774   3.781   5.598   1.322 -0.6063 -0.5679  0.0216
 7501SOL     OW29775   0.190   1.096   0.308  0.1517  0.2364 -0.6748
 7501SOL    HW229776   0.107   1.073   0.266  0.3313 -0.3645 -0.7146
 7501SOL    HW329777   0.171   1.176   0.357 -0.6128 -0.2208 -0.1966
 7501SOL    MW429778   0.176   1.104   0.309  0.0261 -0.4021 -0.6919
 7502SOL     OW29779   5.742   0.707   5.706  1.2157  0.1153  0.0151
 7502SOL    HW229780   5.704   0.661   5.781  2.5160 -1.0657 -0.0004
 7502SOL    HW329781   5.768   0.792   5.741  1.0554 -0.1115  0.7060
 7502SOL    MW429782   5.741   0.712   5.721  0.1486 -0.5223  0.6322
 7503SOL     OW29783   5.306   4.587   4.005 -0.3909  0.8817 -0.3464
 7503SOL    HW229784   5.227   4.582   3.952 -0.9842  0.4428  0.5529
 7503SOL    HW329785   5.344   4.499   4.001 -0.0564  1.0358 -0.6110
 7503SOL    MW429786   5.301   4.575   3.998  0.4191  0.1379  0.2510
 7504SOL     OW29787   3.320   4.608   3.080 -0.0894 -0.0052 -0.2949
 7504SOL    HW229788   3.388   4.669   3.109 -0.2614  0.3996 -0.7454
 7504SOL    HW329789   3.326   4.609   2.984  1.0272 -1.9327 -0.3123
 7504SOL    MW429790   3.330   4.616   3.071  0.4653 -0.8427  0.0752
 7505SOL     OW29791   1.517   5.944   1.931 -0.1132  0.0743 -0.6676
 7505SOL    HW229792   1.578   5.991   1.874  1.1400  0.9222  1.2688
 7505SOL    HW329793   1.573   5.899   1.995 -1.4558  1.5307  1.6969
 7505SOL    MW429794   1.532   5.944   1.932  0.5276  0.3095 -0.4467
 7506SOL     OW29795   1.795   5.264   1.440 -0.0866 -0.1604 -0.1365
 7506SOL    HW229796   1.830   5.297   1.357  0.8449  1.3124  0.7929
 7506SOL    HW329797   1.867   5.213   1.478  0.0299  0.4354  0.4489
 7506SOL    MW429798   1.809   5.262   1.434  0.2465 -0.3398  0.6205
 7507SOL     OW29799   3.051   2.566   4.998  0.0270 -0.0075 -0.0273
 7507SOL    HW229800   2.988   2.564   4.926  0.1942  1.1159 -0.2282
 7507SOL    HW329801   3.126   2.615   4.963  0.1064  0.5583  0.8951
 7507SOL    MW429802   3.052   2.572   4.984  0.0168 -0.1545 -0.6909
 7508SOL     OW29803   1.209   3.150   5.691 -0.2796 -0.4043 -0.1610
 7508SOL    HW229804   1.174   3.129   5.604  0.3440 -2.2336 -0.0177
 7508SOL    HW329805   1.294   3.107   5.694  1.0672  2.1440  0.3043
 7508SOL    MW429806   1.215   3.141   5.680  0.2527  0.9444 -0.3969
 7509SOL     OW29807   4.326   2.805   2.839  0.3060  0.0955 -0.0218
 7509SOL    HW229808   4.410   2.770   2.869  0.2042  1.0977  1.5941
 7509SOL    HW329809   4.322   2.893   2.877 -0.3737  1.0551 -2.1887
 7509SOL    MW429810   4.337   2.812   2.848 -1.0874 -0.5525  0.0968
 7510SOL     OW29811   2.188   6.138   4.028  0.0882 -0.0009 -0.4802
 7510SOL    HW229812   2.213   6.115   3.939  0.1040 -0.9251 -0.2426
 7510SOL    HW329813   2.093   6.145   4.025  0.1257  0.5073 -0.6832
 7510SOL    MW429814   2.179   6.136   4.016  0.2629  0.9424  0.5114
 7511SOL     OW29815   4.768   4.083   1.708 -0.2954  0.0083  0.2518
 7511SOL    HW229816   4.823   4.144   1.758 -1.6928  0.8315  0.8381
 7511SOL    HW329817   4.826   4.049   1.640  0.8368  1.1252  0.6204
 7511SOL    MW429818   4.783   4.086   1.706 -0.2113  0.5028  0.4471
 7512SOL     OW29819   1.412   0.172   3.509  0.1903 -0.2310 -0.1484
 7512SOL    HW229820   1.402   0.267   3.513  0.6730 -0.1972  0.3709
 7512SOL    HW329821   1.356   0.138   3.578  1.3708 -0.2038  0.8673
 7512SOL    MW429822   1.403   0.180   3.518  0.0543  0.4718  0.4411
 7513SOL     OW29823   2.519   5.832   0.082  0.1267  0.1148  0.1915
 7513SOL    HW229824   2.457   5.854   0.151 -0.3192 -1.7973  0.4325
 7513SOL    HW329825   2.466   5.823   0.003  0.6780  2.6685 -0.5706
 7513SOL    MW429826   2.504   5.834   0.081 -0.5438  0.0999  0.4844
 7514SOL     OW29827   3.127   0.372   5.612 -0.4980  0.5848  0.6543
 7514SOL    HW229828   3.134   0.309   5.684 -0.8280 -0.2272 -0.0031
 7514SOL    HW329829   3.165   0.452   5.646 -1.7901  0.5926  2.1820
 7514SOL    MW429830   3.133   0.374   5.626 -0.4492  0.2107  1.1545
 7515SOL     OW29831   1.628   0.677   3.582  0.1585 -0.0586 -0.2366
 7515SOL    HW229832   1.637   0.768   3.612  1.3974  0.6322 -2.4532
 7515SOL    HW329833   1.633   0.683   3.486 -1.8803 -2.2693 -0.5832
 7515SOL    MW429834   1.629   0.690   3.573  0.3801  0.4521  0.0425
 7516SOL     OW29835   0.823   4.142   3.403  0.1643  0.3664 -0.5838
 7516SOL    HW229836   0.917   4.123   3.402 -0.0490 -1.0709  1.6532
 7516SOL    HW329837   0.819   4.238   3.405  1.7400  0.4899  2.6569
 7516SOL    MW429838   0.835   4.152   3.403  0.0852  0.3813 -0.5564
 7517SOL     OW29839   0.690   3.708   4.038 -0.0699  0.5171 -0.2378
 7517SOL    HW229840   0.694   3.804   4.035 -2.0773  0.6208 -0.9359
 7517SOL    HW329841   0.694   3.680   3.947 -0.6438  0.0098 -0.1165
 7517SOL    MW429842   0.691   3.717   4.026  0.3480 -0.3756 -0.0734
 7518SOL     OW29843   5.608   5.682   4.871  0.3518 -0.3481 -0.3731
 7518SOL    HW229844   5.681   5.651   4.818  2.7360  2.2393  1.1510
 7518SOL    HW329845   5.631   5.658   4.961 -0.7454  0.4293  0.1448
 7518SOL    MW429846   5.621   5.675   4.876 -0.5551  0.5054  0.0803
 7519SOL     OW29847   5.155   4.884   2.521  0.8794 -0.0641  0.7151
 7519SOL    HW229848   5.200   4.968   2.524  1.1223 -0.1499 -0.1630
 7519SOL    HW329849   5.176   4.849   2.434  0.4756 -0.8583  0.9293
 7519SOL    MW429850   5.164   4.891   2.510 -0.0390  0.9208 -0.1915
 7520SOL     OW29851   1.737   0.849   3.377 -0.2249  0.0952 -0.7186
 7520SOL    HW229852   1.805   0.801   3.425  0.0509  0.7604 -0.4288
 7520SOL    HW329853   1.783   0.922   3.337 -0.7729  0.5790 -0.4873
 7520SOL    MW429854   1.752   0.852   3.378  0.0348  0.4316  0.0318
 7521SOL     OW29855   1.257   5.606   5.553 -0.3968 -0.1560  0.5883
 7521SOL    HW229856   1.196   5.537   5.528 -0.0074 -0.5044  0.5842
 7521SOL    HW329857   1.258   5.606   5.648  2.3538 -2.6927  0.6990
 7521SOL    MW429858   1.249   5.597   5.562  0.0623 -0.3697 -0.1472
 7522SOL     OW29859   0.506   5.714   2.431 -0.2069 -0.3269 -0.2960
 7522SOL    HW229860   0.564   5.764   2.373 -1.2398  2.7678  1.0830
 7522SOL    HW329861   0.562   5.647   2.470  1.5638  0.3321 -1.5815
 7522SOL    MW429862   0.521   5.712   2.428 -0.5586 -0.5884  0.1515
 7523SOL     OW29863   1.964   0.767   0.462  0.1463 -0.0248  0.0499
 7523SOL    HW229864   2.014   0.848   0.476  2.3864 -1.1709 -0.8397
 7523SOL    HW329865   1.940   0.739   0.550  0.7015  0.7882  0.4793
 7523SOL    MW429866   1.967   0.774   0.475  0.5425 -0.2228  0.1032
 7524SOL     OW29867   0.584   3.774   0.559  0.2178 -0.1897 -0.2077
 7524SOL    HW229868   0.494   3.807   0.555  0.1112  0.0549  2.4204
 7524SOL    HW329869   0.575   3.679   0.563  0.2498 -0.3229 -2.2833
 7524SOL    MW429870   0.571   3.766   0.559  0.2199 -0.0003 -0.4950
 7525SOL     OW29871   4.393   4.162   4.267 -0.5870 -0.2325  0.0613
 7525SOL    HW229872   4.343   4.181   4.346 -0.0572 -0.4394  0.4458
 7525SOL    HW329873   4.326   4.147   4.200 -1.0642 -1.2962  0.7460
 7525SOL    MW429874   4.377   4.163   4.268  0.0474 -0.2893  0.4372
 7526SOL     OW29875   5.156   6.358   2.068  1.0402  0.4831 -0.0248
 7526SOL    HW229876   5.203   6.278   2.092  1.7042  0.2208 -2.0491
 7526SOL    HW329877   5.214   6.429   2.095  2.4583  0.1708 -2.0569
 7526SOL    MW429878   5.170   6.357   2.075  0.5173  0.3904 -0.0338
 7527SOL     OW29879   0.179   5.203   5.562 -0.3575  0.3220 -1.1752
 7527SOL    HW229880   0.213   5.196   5.652 -0.4319  1.3343 -1.0509
 7527SOL    HW329881   0.257   5.195   5.507 -0.0821  1.2137 -0.9449
 7527SOL    MW429882   0.194   5.201   5.567 -0.1643  0.1460  1.1040
 7528SOL     OW29883   0.956   5.501   4.545  0.4131  0.3073 -0.5738
 7528SOL    HW229884   1.015   5.575   4.554  0.4721  0.1360  0.5753
 7528SOL    HW329885   0.870   5.540   4.528  0.6356  0.5940 -1.0563
 7528SOL    MW429886   0.953   5.516   4.544 -0.0421 -0.7086  0.5015
 7529SOL     OW29887   3.340   1.746   5.393  0.4319 -0.2636 -0.3553
 7529SOL    HW229888   3.274   1.723   5.328 -0.8769  0.5130  0.6367
 7529SOL    HW329889   3.421   1.756   5.344  0.3908 -3.5158 -1.3220
 7529SOL    MW429890   3.342   1.744   5.378  0.0918 -0.4387  0.1821
 7530SOL     OW29891   1.243   4.844   1.475  0.0023  0.3155  0.1759
 7530SOL    HW229892   1.159   4.798   1.480 -0.3868  0.9599 -0.2540
 7530SOL    HW329893   1.282   4.830   1.561 -0.4814 -0.1136  0.3340
 7530SOL    MW429894   1.237   4.836   1.487 -0.0212 -0.3837  0.5942
 7531SOL     OW29895   5.820   2.729   1.510 -0.3824 -0.0719 -0.3790
 7531SOL    HW229896   5.884   2.679   1.562  1.5477  0.5319 -2.0344
 7531SOL    HW329897   5.827   2.692   1.422 -3.2160 -0.7452 -0.3952
 7531SOL    MW429898   5.829   2.718   1.505  0.3577  0.2357  0.3186
 7532SOL     OW29899   4.698   0.686   0.326 -0.2801  0.0124  0.4600
 7532SOL    HW229900   4.737   0.773   0.328  0.3638 -0.2690  0.7338
 7532SOL    HW329901   4.679   0.666   0.418  1.0843 -0.7708  0.6081
 7532SOL    MW429902   4.701   0.695   0.338 -0.3124  0.1155  0.4743
 7533SOL     OW29903   6.374   4.594   6.401 -0.0213  0.3054 -0.1897
 7533SOL    HW229904   6.454   4.644   6.415 -0.6704  1.4667 -0.5273
 7533SOL    HW329905   6.365   4.589   6.306  0.4789 -1.2080 -0.1819
 7533SOL    MW429906   6.384   4.600   6.390 -0.1719 -0.2854 -0.1717
 7534SOL     OW29907   1.108   0.198   0.782  0.1535  0.1184  0.2948
 7534SOL    HW229908   1.120   0.174   0.690  1.2481  1.0624  0.1764
 7534SOL    HW329909   1.197   0.201   0.818  0.0496  3.1712  0.4957
 7534SOL    MW429910   1.122   0.195   0.774  0.0259 -0.4812 -0.3859
 7535SOL     OW29911   4.142   2.197   3.687 -0.4622  0.1645 -0.3070
 7535SOL    HW229912   4.170   2.211   3.596 -0.0862  1.3800 -0.0247
 7535SOL    HW329913   4.185   2.267   3.736  0.2581 -1.1352  1.0034
 7535SOL    MW429914   4.151   2.208   3.681 -0.0309  0.3203 -0.5618
 7536SOL     OW29915   5.850   5.557   2.205  0.0221  0.1055  0.1202
 7536SOL    HW229916   5.785   5.572   2.136  0.0712  0.8762  0.2322
 7536SOL    HW329917   5.798   5.546   2.285 -0.1312 -2.3188 -0.2341
 7536SOL    MW429918   5.835   5.558   2.206 -0.1343  0.2666  0.1294
 7537SOL     OW29919   4.490   4.679   5.967  0.2056  0.0066  0.0618
 7537SOL    HW229920   4.425   4.676   6.038 -0.1398  0.4536 -0.2307
 7537SOL    HW329921   4.565   4.724   6.006 -0.1127  0.5569  0.0447
 7537SOL    MW429922   4.491   4.685   5.982  0.3251  1.0828 -0.6767
 7538SOL     OW29923   1.372   1.904   2.643 -0.5225 -0.2975  0.0175
 7538SOL    HW229924   1.429   1.981   2.651 -0.6720  0.0284 -1.5666
 7538SOL    HW329925   1.292   1.927   2.690  0.2837 -0.3957  1.4813
 7538SOL    MW429926   1.369   1.917   2.650  0.6868  0.6945 -0.3440
 7539SOL     OW29927   1.779   1.201   5.452 -0.0738  0.3884 -0.3314
 7539SOL    HW229928   1.843   1.134   5.426  1.0099  1.2968 -0.1036
 7539SOL    HW329929   1.821   1.284   5.430 -1.1765  1.0184 -0.1437
 7539SOL    MW429930   1.793   1.203   5.446  0.0933  0.3934  1.0451
 7540SOL     OW29931   4.596   3.626   2.747 -0.3469 -0.6097 -0.2460
 7540SOL    HW229932   4.574   3.621   2.840 -1.4831  0.0977 -0.4551
 7540SOL    HW329933   4.535   3.691   2.711  0.8499 -0.0106 -1.2697
 7540SOL    MW429934   4.585   3.634   2.755 -0.2587  0.6026 -0.0388
 7541SOL     OW29935   2.834   2.148   4.890  0.0231 -0.3503  0.3391
 7541SOL    HW229936   2.813   2.201   4.967 -1.2375 -0.0290 -0.2180
 7541SOL    HW329937   2.845   2.059   4.925 -1.2191 -0.3303  0.8027
 7541SOL    MW429938   2.833   2.143   4.905 -0.1557  0.2584  0.0169
 7542SOL     OW29939   4.033   4.795   5.260 -0.2145  0.0958 -0.0335
 7542SOL    HW229940   4.070   4.858   5.199 -1.5679 -0.8439 -1.9121
 7542SOL    HW329941   4.045   4.710   5.218 -1.8042 -0.5187  0.6622
 7542SOL    MW429942   4.039   4.792   5.247 -0.2850 -0.0524 -0.2570
 7543SOL     OW29943   4.700   2.125   2.427 -0.0971  0.1312  0.1214
 7543SOL    HW229944   4.714   2.117   2.332  0.4713 -1.3178  0.3010
 7543SOL    HW329945   4.605   2.117   2.437 -0.0309 -1.3823 -0.2158
 7543SOL    MW429946   4.689   2.123   2.415  0.2686 -0.4839 -0.6095
 7544SOL     OW29947   4.480   1.497   5.250 -0.3560 -0.2886  0.1014
 7544SOL    HW229948   4.555   1.465   5.200 -0.1977  0.6165 -0.2756
 7544SOL    HW329949   4.405   1.479   5.194 -0.4923 -1.6617  0.7037
 7544SOL    MW429950   4.480   1.490   5.236 -0.3806 -0.3637  0.1618
 7545SOL     OW29951   2.595   0.816   3.972 -0.7653  0.2603  0.5734
 7545SOL    HW229952   2.661   0.881   3.948 -1.3460  0.8017  0.4027
 7545SOL    HW329953   2.645   0.744   4.011 -0.1760  1.2496  1.7202
 7545SOL    MW429954   2.610   0.815   3.974 -0.2418 -0.2482  0.5373
 7546SOL     OW29955   1.552   4.838   6.062  0.2433 -0.0744  0.4079
 7546SOL    HW229956   1.644   4.832   6.037  0.6704  2.5172  1.0484
 7546SOL    HW329957   1.541   4.929   6.092 -1.5993 -1.2671  3.9474
 7546SOL    MW429958   1.563   4.850   6.063 -0.9965 -0.0779  0.7964
 7547SOL     OW29959   6.365   1.256   2.718  0.5808 -0.3032 -0.5057
 7547SOL    HW229960   6.460   1.258   2.708  0.5134 -0.7903 -1.4064
 7547SOL    HW329961   6.348   1.302   2.800  1.4976  0.9789 -1.0016
 7547SOL    MW429962   6.376   1.262   2.727 -0.0557  0.0851  0.6527
 7548SOL     OW29963   3.344   3.071   3.716 -0.3978 -0.3897 -0.3699
 7548SOL    HW229964   3.369   3.148   3.768  0.1975  0.8467 -2.3659
 7548SOL    HW329965   3.294   3.108   3.643 -0.8442 -2.0101 -0.9103
 7548SOL    MW429966   3.341   3.086   3.713 -0.0139  0.3681  0.0049
 7549SOL     OW29967   0.826   3.690   1.975  0.1494 -0.2001 -0.6088
 7549SOL    HW229968   0.771   3.727   2.043  1.2593 -0.3134  0.3772
 7549SOL    HW329969   0.787   3.604   1.956 -1.1638  0.5284 -1.3742
 7549SOL    MW429970   0.814   3.683   1.981  0.1078  0.3741 -0.7146
 7550SOL     OW29971   2.097   0.343   0.366 -0.4978  0.1231 -0.0894
 7550SOL    HW229972   2.173   0.310   0.320  0.2904  0.5021  0.8948
 7550SOL    HW329973   2.133   0.397   0.437 -1.6745  0.2518  0.4412
 7550SOL    MW429974   2.112   0.346   0.370 -0.2712 -0.2040  0.4548
 7551SOL     OW29975   1.486   0.088   1.418  0.4435  0.2403 -0.1432
 7551SOL    HW229976   1.427   0.164   1.414  0.1490  0.0148 -0.1725
 7551SOL    HW329977   1.450   0.027   1.353  3.0373  1.6897 -3.1781
 7551SOL    MW429978   1.473   0.090   1.409 -0.2324 -0.0550  0.7224
 7552SOL     OW29979   1.081   0.621   1.642 -0.1823 -0.2666 -0.0862
 7552SOL    HW229980   1.017   0.550   1.646  0.3733 -0.7424  0.6679
 7552SOL    HW329981   1.164   0.577   1.626  0.2076  0.1916  0.6503
 7552SOL    MW429982   1.083   0.606   1.640  0.1719  0.7051 -0.6522
 7553SOL     OW29983   3.631   2.298   1.221  0.5635  0.0253 -0.1012
 7553SOL    HW229984   3.704   2.266   1.275 -1.4445 -0.6553  2.4041
 7553SOL    HW329985   3.628   2.238   1.147  0.2488 -2.4033  1.7373
 7553SOL    MW429986   3.641   2.286   1.219 -0.3811 -0.2183 -0.1661
 7554SOL     OW29987   0.004   1.495   1.189  0.0738  0.0254  0.4666
 7554SOL    HW229988   0.022   1.402   1.202 -2.5372 -0.6259 -0.0104
 7554SOL    HW329989  -0.042   1.499   1.105  0.5830  1.8310  0.2306
 7554SOL    MW429990  -0.000   1.483   1.180 -0.1279  0.4058 -0.1159
 7555SOL     OW29991   1.595   4.971   1.622 -0.0685  0.1147  0.4025
 7555SOL    HW229992   1.613   4.889   1.576 -1.8206 -0.3914  0.5767
 7555SOL    HW329993   1.593   5.037   1.552  1.8462  0.1449  0.3166
 7555SOL    MW429994   1.597   4.969   1.607 -0.3373  0.7765 -0.5002
 7556SOL     OW29995   3.708   1.803   4.475  0.0776  0.1415  0.4678
 7556SOL    HW229996   3.620   1.774   4.501  0.6462 -1.1612  1.0035
 7556SOL    HW329997   3.711   1.895   4.501 -1.0141  0.1258  0.7302
 7556SOL    MW429998   3.697   1.811   4.482 -0.0159  0.6221 -0.7703
 7557SOL     OW29999   3.820   0.641   5.938 -0.3855  0.7240  0.4140
 7557SOL    HW230000   3.868   0.559   5.946 -1.3643  0.0966  0.0861
 7557SOL    HW330001   3.868   0.691   5.872 -1.0966 -0.6023 -1.1937
 7557SOL    MW430002   3.832   0.637   5.931 -0.8148 -0.1999 -0.1954
 7558SOL     OW30003   3.740   4.670   4.595 -0.4593  0.2628  0.4113
 7558SOL    HW230004   3.794   4.740   4.632 -0.3107  0.9855 -1.1271
 7558SOL    HW330005   3.803   4.600   4.575 -0.4737  0.0671  1.0155
 7558SOL    MW430006   3.756   4.670   4.597 -0.2434 -0.3120 -0.4939
 7559SOL     OW30007   2.866   3.899   4.858  0.4669  0.6354  0.7708
 7559SOL    HW230008   2.783   3.946   4.866  0.1280 -0.0913  1.6848
 7559SOL    HW330009   2.873   3.850   4.940  0.4967 -1.4052 -0.4064
 7559SOL    MW430010   2.856   3.899   4.870  0.0758 -0.2641  0.7467
 7560SOL     OW30011   0.247   5.262   1.425 -0.1081  0.3026 -0.2806
 7560SOL    HW230012   0.157   5.295   1.424  0.3283  1.5859  0.6485
 7560SOL    HW330013   0.275   5.269   1.516  0.8333 -0.3988 -0.4949
 7560SOL    MW430014   0.239   5.267   1.437 -0.1498  0.6336  0.0452
 7561SOL     OW30015   1.428   4.023   3.223  0.6553  0.1882  0.1973
 7561SOL    HW230016   1.359   3.996   3.162  1.2556  0.7949 -0.7782
 7561SOL    HW330017   1.394   4.000   3.310 -1.3424  1.5980 -0.1248
 7561SOL    MW430018   1.415   4.017   3.227  0.4124 -0.6838  0.4327
 7562SOL     OW30019   4.552   5.321   1.281 -0.6637 -0.0212  0.2503
 7562SOL    HW230020   4.552   5.346   1.189 -2.5505  0.8371  0.4197
 7562SOL    HW330021   4.557   5.225   1.280  2.6118  0.0388 -0.5635
 7562SOL    MW430022   4.552   5.312   1.269 -0.2120  0.3575  0.2548
 7563SOL     OW30023   0.327   5.147   4.132 -0.3343  0.0342  0.1189
 7563SOL    HW230024   0.314   5.052   4.133  0.2939 -0.1183 -1.7780
 7563SOL    HW330025   0.242   5.182   4.106  0.3127 -0.3335 -2.9163
 7563SOL    MW430026   0.314   5.139   4.129 -0.1979 -0.5673 -0.2179
 7564SOL     OW30027   5.968   1.327   5.417 -0.1271 -0.4232  0.0829
 7564SOL    HW230028   6.002   1.335   5.506 -1.1514 -0.9164  0.5489
 7564SOL    HW330029   5.932   1.238   5.414  0.6519 -0.7098 -1.1066
 7564SOL    MW430030   5.968   1.316   5.429  0.6418  0.3871 -0.1803
 7565SOL     OW30031   0.932   5.881   2.199 -0.3395 -0.1861  0.0673
 7565SOL    HW230032   0.965   5.805   2.246 -0.1148  0.1632  0.4843
 7565SOL    HW330033   1.010   5.925   2.166 -0.5020 -0.4912 -0.7401
 7565SOL    MW430034   0.946   5.877   2.201 -0.5487 -0.9989  0.1920
 7566SOL     OW30035   2.937   3.684   1.752 -0.0999 -0.4548  0.5246
 7566SOL    HW230036   2.971   3.719   1.834  0.3273 -0.8036  0.5037
 7566SOL    HW330037   2.881   3.754   1.717 -0.9142 -0.6182  1.4840
 7566SOL    MW430038   2.934   3.698   1.758 -0.3785  0.3154  0.1485
 7567SOL     OW30039   1.580   3.713   0.988  0.1157  0.6476  0.1121
 7567SOL    HW230040   1.584   3.705   0.893  0.6754  0.1802  0.1648
 7567SOL    HW330041   1.672   3.721   1.015 -0.0781  1.5669  0.5553
 7567SOL    MW430042   1.593   3.713   0.979 -0.2203  0.0712  0.1592
 7568SOL     OW30043   1.546   0.098   1.700 -0.6015 -0.1019  0.0849
 7568SOL    HW230044   1.533   0.084   1.607 -1.0694  0.0703  0.1251
 7568SOL    HW330045   1.634   0.137   1.706 -0.1474 -1.0392 -0.1967
 7568SOL    MW430046   1.556   0.101   1.689 -0.2089 -0.0098 -0.2582
 7569SOL     OW30047   6.097   6.159   5.916 -0.3243  0.1449  0.0096
 7569SOL    HW230048   6.070   6.251   5.914  0.0852  0.2520 -1.0525
 7569SOL    HW330049   6.160   6.151   5.845  1.2727 -0.4725  1.4173
 7569SOL    MW430050   6.102   6.170   5.906  0.2231 -1.1001  0.8732
 7570SOL     OW30051   0.740   4.844   1.714 -0.1423  0.7763  0.0482
 7570SOL    HW230052   0.756   4.928   1.758  1.4075  0.0470  0.9621
 7570SOL    HW330053   0.691   4.867   1.636  0.0517  2.5141  0.3946
 7570SOL    MW430054   0.736   4.858   1.710 -0.4120  0.0115  0.1562
 7571SOL     OW30055   2.029   0.112   4.114  0.1137 -0.0027  0.1167
 7571SOL    HW230056   2.073   0.117   4.029 -1.4750 -0.3527 -0.7702
 7571SOL    HW330057   2.051   0.194   4.158  1.1201  0.0913 -0.5460
 7571SOL    MW430058   2.037   0.123   4.109  0.5991 -0.5572 -0.0822
 7572SOL     OW30059   1.874   1.436   0.033 -0.1746 -0.2763  0.7568
 7572SOL    HW230060   1.790   1.413   0.074  1.2290 -1.9525  2.8911
 7572SOL    HW330061   1.927   1.470   0.104  0.7076  1.7119 -0.7606
 7572SOL    MW430062   1.870   1.438   0.048 -0.2362  0.0042  0.6595
 7573SOL     OW30063   4.994   4.065   1.540  0.0436  0.3780  0.2956
 7573SOL    HW230064   4.956   4.081   1.454 -0.2717  0.5331  0.4605
 7573SOL    HW330065   5.017   3.972   1.539 -0.6533  0.1962  0.3080
 7573SOL    MW430066   4.992   4.055   1.529 -0.7079  0.2824  0.4394
 7574SOL     OW30067   2.445   5.681   1.953  0.3233  0.2226  0.1858
 7574SOL    HW230068   2.452   5.588   1.930 -2.3459 -0.5494  2.0083
 7574SOL    HW330069   2.491   5.689   2.036 -0.0396  0.3428  0.3808
 7574SOL    MW430070   2.452   5.670   1.961 -0.2790 -0.5455  0.1387
 7575SOL     OW30071   2.996   5.877   0.945  0.2808  0.3511 -0.1871
 7575SOL    HW230072   2.979   5.835   0.860  2.2378  2.3366 -1.6647
 7575SOL    HW330073   3.064   5.823   0.985 -1.5772 -1.3791  0.8529
 7575SOL    MW430074   3.003   5.864   0.939  0.3408  0.0273  0.2154
 7576SOL     OW30075   2.563   4.879   6.236  0.1810 -0.5826  0.2652
 7576SOL    HW230076   2.501   4.904   6.168  2.9967  0.7558 -2.0184
 7576SOL    HW330077   2.599   4.962   6.267  2.7210 -1.3421 -0.4512
 7576SOL    MW430078   2.559   4.894   6.231  0.1738  0.4123 -0.6417
 7577SOL     OW30079   0.045   4.044   3.711  0.3299  0.2419  0.6582
 7577SOL    HW230080   0.130   4.075   3.743  0.7327 -0.7687  0.6065
 7577SOL    HW330081   0.062   4.020   3.620 -0.2589  0.9558  0.3508
 7577SOL    MW430082   0.059   4.045   3.703 -0.1907 -0.1271 -0.4771
 7578SOL     OW30083   3.659   0.793   5.564  0.1055 -0.0165 -0.4123
 7578SOL    HW230084   3.574   0.749   5.556 -1.0066  2.0275 -0.5059
 7578SOL    HW330085   3.721   0.732   5.523 -1.3517 -1.4159 -0.6479
 7578SOL    MW430086   3.656   0.779   5.557 -0.1813  0.3735 -0.4037
 7579SOL     OW30087   3.013   0.133   0.458 -0.0699 -0.8153  0.6405
 7579SOL    HW230088   3.015   0.080   0.537 -1.4402  0.7719  1.8308
 7579SOL    HW330089   2.920   0.135   0.433  0.2550 -0.7723 -0.6541
 7579SOL    MW430090   3.001   0.127   0.465  0.0610  0.6987  0.1384
 7580SOL     OW30091   0.027   5.889   5.726  0.1969 -0.1542  0.0515
 7580SOL    HW230092   0.070   5.910   5.809 -2.1549 -1.4725  1.7280
 7580SOL    HW330093   0.003   5.797   5.734 -0.5127 -0.1867 -1.9143
 7580SOL    MW430094   0.029   5.880   5.738  0.2997 -0.0697 -0.7108
 7581SOL     OW30095   0.802   2.918   2.295 -0.4632  0.2730 -0.6451
 7581SOL    HW230096   0.764   3.005   2.308 -1.3933 -0.0963 -0.8703
 7581SOL    HW330097   0.734   2.857   2.322  0.8609 -0.3985  1.3575
 7581SOL    MW430098   0.788   2.922   2.300 -0.2148 -0.1862 -0.8273
 7582SOL     OW30099   1.579   5.024   5.675  0.5361 -0.4122  0.5556
 7582SOL    HW230100   1.555   5.092   5.612 -1.4425 -0.1606  1.5254
 7582SOL    HW330101   1.506   4.963   5.673  0.4850 -0.4596  2.5231
 7582SOL    MW430102   1.566   5.025   5.666 -0.2668  0.1322  0.0818
 7583SOL     OW30103   6.014   3.168   3.417 -0.4724  0.2354 -0.1929
 7583SOL    HW230104   6.053   3.188   3.502 -0.3724 -2.7338  0.5808
 7583SOL    HW330105   6.053   3.230   3.356 -0.1259  2.0834  1.8120
 7583SOL    MW430106   6.024   3.179   3.420 -0.1438  0.3133  0.1798
 7584SOL     OW30107   0.409   5.390   5.808 -1.1400  0.0486  0.0129
 7584SOL    HW230108   0.345   5.435   5.753 -1.5429  0.5229  0.8583
 7584SOL    HW330109   0.391   5.297   5.794 -1.7607  0.1717 -0.0492
 7584SOL    MW430110   0.398   5.383   5.799  0.0608  0.1219 -0.1476
 7585SOL     OW30111   1.342   4.933   0.777 -0.5161 -0.0048  0.3608
 7585SOL    HW230112   1.292   4.951   0.697 -0.4289 -2.5245 -0.3497
 7585SOL    HW330113   1.276   4.936   0.847 -0.8669  0.7799  0.0092
 7585SOL    MW430114   1.327   4.936   0.776 -0.8262 -0.2441  0.3482
 7586SOL     OW30115   1.685   3.691   5.600 -0.5863 -0.2222  0.0998
 7586SOL    HW230116   1.777   3.699   5.628 -0.7607 -0.4894  0.7581
 7586SOL    HW330117   1.665   3.598   5.609 -0.7274 -0.2780 -0.6921
 7586SOL    MW430118   1.695   3.680   5.605 -1.0238 -0.6236 -0.2665
 7587SOL     OW30119   1.169   1.989   4.971  0.4347 -0.0910  0.2966
 7587SOL    HW230120   1.087   2.029   4.998  0.1753 -0.3180 -0.1454
 7587SOL    HW330121   1.204   2.049   4.905  1.4062  0.8213  1.6043
 7587SOL    MW430122   1.163   2.002   4.966  0.1584 -0.8966  0.0592
 7588SOL     OW30123   6.248   5.563   2.137 -0.3206  0.2635 -0.5723
 7588SOL    HW230124   6.214   5.652   2.136 -2.1546 -0.3936 -0.7394
 7588SOL    HW330125   6.221   5.528   2.222 -2.1713 -1.0040 -1.6109
 7588SOL    MW430126   6.240   5.570   2.148 -0.0482 -0.1378  0.4237
 7589SOL     OW30127   0.212   3.145   5.098  0.5995  0.0987 -0.2529
 7589SOL    HW230128   0.139   3.085   5.088  0.7752 -0.0811 -0.4763
 7589SOL    HW330129   0.175   3.232   5.085  0.4579 -0.0038 -0.5382
 7589SOL    MW430130   0.198   3.148   5.095 -0.2183  0.3876 -0.4896
 7590SOL     OW30131   3.339   3.194   5.343 -0.2047 -0.4368 -0.0122
 7590SOL    HW230132   3.396   3.161   5.274  0.3579  0.7879 -0.1580
 7590SOL    HW330133   3.253   3.158   5.322 -0.0328 -0.1294 -1.3241
 7590SOL    MW430134   3.335   3.185   5.332 -0.0947 -0.1771  0.1113
 7591SOL     OW30135   5.141   0.853   1.091  0.0536  0.4107 -0.0663
 7591SOL    HW230136   5.073   0.916   1.067  0.4105  0.5864 -0.6282
 7591SOL    HW330137   5.095   0.787   1.143 -0.5051  0.6298 -0.2732
 7591SOL    MW430138   5.126   0.853   1.095 -0.4304  0.2409  0.2984
 7592SOL     OW30139   6.382   1.804   6.316 -0.2089  0.0690  0.5397
 7592SOL    HW230140   6.410   1.774   6.229 -2.6190  1.8143 -0.9717
 7592SOL    HW330141   6.462   1.803   6.369  1.0281 -2.6113 -1.1983
 7592SOL    MW430142   6.397   1.800   6.311 -0.0644  0.0657 -0.5354
 7593SOL     OW30143   4.481   0.567   2.228  0.7169 -0.4501  0.2159
 7593SOL    HW230144   4.479   0.631   2.298  0.8634  0.9772 -1.0397
 7593SOL    HW330145   4.435   0.491   2.264 -1.4366  1.1347  0.9933
 7593SOL    MW430146   4.475   0.565   2.242 -0.1857 -0.1690 -0.0575
 7594SOL     OW30147   6.339   1.288   2.030  0.0247 -0.2863 -0.4394
 7594SOL    HW230148   6.386   1.337   1.962  1.9606  0.3167  1.2200
 7594SOL    HW330149   6.319   1.354   2.097  1.4872 -1.4209  1.2201
 7594SOL    MW430150   6.343   1.303   2.030 -0.1140  0.1108 -0.1230
 7595SOL     OW30151   4.047   0.478   0.273  0.7918 -0.1518  0.1463
 7595SOL    HW230152   4.141   0.479   0.292  1.1528 -0.5193 -1.4640
 7595SOL    HW330153   4.030   0.560   0.227  0.6525 -0.7713 -0.9332
 7595SOL    MW430154   4.057   0.489   0.270 -1.0000  0.0775  0.5713
 7596SOL     OW30155   0.592   0.155   1.362 -0.1290  0.1882  0.1659
 7596SOL    HW230156   0.529   0.142   1.292  2.0336  0.1339 -1.9156
 7596SOL    HW330157   0.634   0.239   1.340 -0.7884  1.2364  2.6077
 7596SOL    MW430158   0.589   0.165   1.350 -0.3444 -0.5155 -0.0468
 7597SOL     OW30159   1.500   2.779   2.412  0.2508  0.7652 -0.2248
 7597SOL    HW230160   1.406   2.796   2.420  0.1925  0.0513  0.8591
 7597SOL    HW330161   1.512   2.754   2.320 -0.9401 -0.8948  0.0198
 7597SOL    MW430162   1.489   2.778   2.401 -0.5796 -0.2142  0.2081
 7598SOL     OW30163   0.212   1.420   1.598 -0.2109 -0.0768 -0.3133
 7598SOL    HW230164   0.222   1.515   1.586  1.4377 -0.4270 -2.0849
 7598SOL    HW330165   0.273   1.398   1.668 -1.8068  0.3628  1.2828
 7598SOL    MW430166   0.221   1.430   1.606 -0.0502  0.1984  0.0002
 7599SOL     OW30167   0.442   0.565   3.771 -0.3473  0.1627  0.2601
 7599SOL    HW230168   0.421   0.471   3.770  0.4165 -0.0210  0.5133
 7599SOL    HW330169   0.536   0.568   3.753 -0.2894  0.8585  0.6696
 7599SOL    MW430170   0.451   0.553   3.768  0.0294 -0.0285 -1.1335
 7600SOL     OW30171   0.044   4.611   0.387  0.1138 -0.2037 -0.0776
 7600SOL    HW230172  -0.046   4.605   0.355  0.3003  0.9231 -0.8613
 7600SOL    HW330173   0.094   4.555   0.327 -0.1094 -1.1601  0.6071
 7600SOL    MW430174   0.039   4.603   0.375 -0.1435  0.6303  0.1068
 7601SOL     OW30175   4.595   2.729   0.023 -0.4956  0.5292  0.7245
 7601SOL    HW230176   4.666   2.700  -0.034 -0.0899  2.3250  0.2499
 7601SOL    HW330177   4.519   2.735  -0.034 -0.6701  0.0744  0.9019
 7601SOL    MW430178   4.594   2.726   0.008  0.3472  0.3018  0.3109
 7602SOL     OW30179   5.008   1.367   5.638 -0.3566  0.4846 -0.7326
 7602SOL    HW230180   5.029   1.460   5.634  0.3355  0.4771  1.2580
 7602SOL    HW330181   4.991   1.351   5.731  0.3215 -1.5238 -0.9000
 7602SOL    MW430182   5.009   1.377   5.650  0.0584  0.8771  0.7274
 7603SOL     OW30183   1.730   4.139   0.964 -0.1861  0.1504 -0.5107
 7603SOL    HW230184   1.786   4.128   0.887 -1.4054 -0.6124 -1.3209
 7603SOL    HW330185   1.789   4.131   1.039  0.6479 -1.6396 -1.3109
 7603SOL    MW430186   1.745   4.137   0.964 -0.1893 -0.3114  0.3825
 7604SOL     OW30187   4.146   3.424   0.394  0.5563  0.0660 -0.0599
 7604SOL    HW230188   4.216   3.382   0.445  2.2819  1.3292 -1.2905
 7604SOL    HW330189   4.134   3.367   0.318 -0.9457 -1.0031  0.9222
 7604SOL    MW430190   4.153   3.411   0.391 -0.0485  0.3890 -0.8836
 7605SOL     OW30191   4.053   3.898   0.755  0.7697 -0.2543 -0.1117
 7605SOL    HW230192   4.022   3.989   0.759  0.7298 -0.2922  0.8769
 7605SOL    HW330193   4.145   3.905   0.730  0.5748  0.0107 -0.7684
 7605SOL    MW430194   4.061   3.911   0.752  0.5163 -0.3299  0.0737
 7606SOL     OW30195   0.824   3.038   5.838 -0.8687  0.2860  0.2328
 7606SOL    HW230196   0.782   3.045   5.924 -0.7990 -0.2808  0.3160
 7606SOL    HW330197   0.894   2.975   5.851  0.7244  2.0097  0.3584
 7606SOL    MW430198   0.827   3.031   5.851 -0.1770 -0.5939  0.1545
 7607SOL     OW30199   3.479   0.249   0.722 -0.3496 -0.5553 -0.1230
 7607SOL    HW230200   3.501   0.307   0.649 -0.2332 -1.0943 -0.5224
 7607SOL    HW330201   3.499   0.161   0.690 -2.1822 -0.9980 -0.1555
 7607SOL    MW430202   3.485   0.245   0.708 -0.3536  0.0857 -0.6544
 7608SOL     OW30203   5.564   0.527   3.890 -0.2455  0.2622  0.0946
 7608SOL    HW230204   5.503   0.459   3.860  1.2349 -0.7566 -0.7293
 7608SOL    HW330205   5.631   0.531   3.822  1.1074  0.6754  1.3957
 7608SOL    MW430206   5.564   0.518   3.877 -0.0509 -0.0788 -0.1279
 7609SOL     OW30207   3.506   4.672   3.302  0.2518 -0.1114  0.6856
 7609SOL    HW230208   3.593   4.633   3.311  0.1496 -0.4795  0.1109
 7609SOL    HW330209   3.474   4.681   3.392  1.5616  1.5752  1.0339
 7609SOL    MW430210   3.513   4.668   3.315 -0.3039  0.1745 -0.1525
 7610SOL     OW30211   3.346   0.886   1.431  0.4376 -0.1342  0.0755
 7610SOL    HW230212   3.260   0.929   1.431  1.7397  2.6846  0.0191
 7610SOL    HW330213   3.345   0.830   1.354 -1.1824  0.2270 -0.1940
 7610SOL    MW430214   3.335   0.884   1.421  0.2472 -0.4151  0.3384
 7611SOL     OW30215   4.832   1.311   2.651  0.1109  0.6002  0.4886
 7611SOL    HW230216   4.797   1.397   2.625 -0.9590 -0.2504 -1.0930
 7611SOL    HW330217   4.924   1.314   2.624 -0.6503  0.2141 -2.6056
 7611SOL    MW430218   4.839   1.323   2.644  0.3225  0.4922  0.7042
 7612SOL     OW30219   1.939   0.981   6.033  0.0288 -0.2556 -0.1298
 7612SOL    HW230220   1.983   1.029   6.103 -1.6559  0.2586  0.6344
 7612SOL    HW330221   1.985   0.897   6.029  1.6414  0.5913 -0.0228
 7612SOL    MW430222   1.951   0.976   6.042 -0.1037  0.6757  0.3179
 7613SOL     OW30223   2.027   5.607   1.920  0.4574  0.0455 -0.2759
 7613SOL    HW230224   2.092   5.537   1.931  2.0653  1.1606 -1.9374
 7613SOL    HW330225   2.079   5.683   1.893 -1.3930  1.4730 -0.0016
 7613SOL    MW430226   2.043   5.607   1.918  0.8369  0.2268  0.1005
 7614SOL     OW30227   0.154   2.144   4.087  0.0273  0.5266  0.6765
 7614SOL    HW230228   0.129   2.158   3.995 -0.6333  1.4497  0.9813
 7614SOL    HW330229   0.215   2.215   4.106  1.4100 -0.5757  0.5163
 7614SOL    MW430230   0.159   2.155   4.077  0.4678  0.0192 -0.0358
 7615SOL     OW30231   1.161   6.067   2.178  0.0008 -0.1258 -0.4612
 7615SOL    HW230232   1.157   6.097   2.269 -1.0974 -0.3205 -0.4367
 7615SOL    HW330233   1.254   6.047   2.164  0.2509  0.3146  0.4771
 7615SOL    MW430234   1.173   6.068   2.188  0.1479  0.4382 -0.3417
 7616SOL     OW30235   1.755   0.222   0.062  0.4617 -0.2033 -0.1187
 7616SOL    HW230236   1.787   0.185  -0.020  1.5739  3.4531 -1.5403
 7616SOL    HW330237   1.669   0.182   0.074  0.6714 -1.6048 -2.5210
 7616SOL    MW430238   1.748   0.212   0.053  0.3622  0.1769 -0.2290
 7617SOL     OW30239   2.506   0.458   6.231  0.0503 -0.4768  0.0455
 7617SOL    HW230240   2.562   0.536   6.234  1.2459 -1.3244  0.5496
 7617SOL    HW330241   2.449   0.467   6.307 -1.2861  0.9333 -1.0699
 7617SOL    MW430242   2.506   0.470   6.241  0.5329  0.2319  0.2286
 7618SOL     OW30243   6.135   4.460   4.673  0.0607 -0.4687  0.0304
 7618SOL    HW230244   6.125   4.501   4.759  0.4399  0.1700 -0.2240
 7618SOL    HW330245   6.213   4.405   4.682 -0.8853 -1.7693  0.6019
 7618SOL    MW430246   6.144   4.458   4.686  0.6025 -0.0098 -0.4319
 7619SOL     OW30247   5.646   2.817   4.385  0.1139 -0.0980 -0.6883
 7619SOL    HW230248   5.556   2.842   4.403  0.9249  1.1531  2.2514
 7619SOL    HW330249   5.640   2.749   4.318 -2.9858 -0.2064 -0.4192
 7619SOL    MW430250   5.633   2.811   4.379 -0.0082 -0.2110  0.4722
 7620SOL     OW30251   0.241   5.586   5.689  0.2324  0.2778  0.3324
 7620SOL    HW230252   0.259   5.560   5.598 -2.2688  1.1624 -0.5062
 7620SOL    HW330253   0.269   5.678   5.693  0.4605  0.2012  0.4958
 7620SOL    MW430254   0.247   5.595   5.677  0.0550  0.0731 -0.6150
 7621SOL     OW30255   5.937   3.278   0.319  0.0503 -0.3576  0.2005
 7621SOL    HW230256   5.995   3.240   0.252 -1.5312 -2.7488  0.0540
 7621SOL    HW330257   5.976   3.250   0.402  0.2967 -0.0752  0.1822
 7621SOL    MW430258   5.950   3.269   0.321  0.4436 -0.0062  0.1500
 7622SOL     OW30259   3.219   3.797   1.625  0.2712 -0.8238 -0.1585
 7622SOL    HW230260   3.223   3.875   1.681  2.8897  0.6132 -2.0799
 7622SOL    HW330261   3.128   3.792   1.597  0.1145  1.9629 -0.4328
 7622SOL    MW430262   3.208   3.807   1.629 -0.2355 -0.4236 -0.0573
 7623SOL     OW30263   2.403   6.453   6.410  0.3465 -0.5685 -0.0722
 7623SOL    HW230264   2.451   6.510   6.351 -1.3817  0.8517 -0.1803
 7623SOL    HW330265   2.337   6.411   6.355  1.0287 -2.0346  0.1833
 7623SOL    MW430266   2.400   6.455   6.395 -0.1301  0.2671 -0.1564
 7624SOL     OW30267   2.089   3.917   0.828 -0.2640  0.5232 -0.7330
 7624SOL    HW230268   2.165   3.873   0.866 -0.0907 -0.0335 -1.6952
 7624SOL    HW330269   2.117   3.941   0.740 -1.6929 -1.1001 -1.6981
 7624SOL    MW430270   2.102   3.915   0.821 -0.3354 -0.3533 -0.7167
 7625SOL     OW30271   1.699   6.157   2.699 -0.0850 -0.0285  0.1967
 7625SOL    HW230272   1.749   6.107   2.635  1.8446  0.5754  1.1559
 7625SOL    HW330273   1.696   6.100   2.776 -0.2111  0.2569  0.4050
 7625SOL    MW430274   1.705   6.143   2.701  0.0412  0.8848 -0.5777
 7626SOL     OW30275   0.861   1.811   6.416  0.1232  0.1109  0.4412
 7626SOL    HW230276   0.933   1.830   6.356  0.4848 -1.3472  0.3837
 7626SOL    HW330277   0.782   1.827   6.363  0.3740  1.3912  0.4061
 7626SOL    MW430278   0.860   1.816   6.401 -0.3744  0.0802 -0.1640
 7627SOL     OW30279   5.463   2.432   4.974  0.4002  0.4672 -0.0159
 7627SOL    HW230280   5.473   2.340   4.950  1.4846  0.8050 -0.9618
 7627SOL    HW330281   5.460   2.431   5.070 -1.7908 -0.7220 -0.0343
 7627SOL    MW430282   5.464   2.420   4.984  0.5953  0.8805 -0.3566
 7628SOL     OW30283   6.306   1.682   2.434  0.5027 -0.2334  0.0187
 7628SOL    HW230284   6.377   1.700   2.496  1.0328 -1.9713 -0.0304
 7628SOL    HW330285   6.239   1.637   2.486  0.9746 -1.7588 -0.6338
 7628SOL    MW430286   6.306   1.678   2.449 -0.2066 -0.0300 -0.2697
 7629SOL     OW30287   3.327   2.848   4.641 -0.2271  0.6454 -0.2390
 7629SOL    HW230288   3.327   2.915   4.573  2.5475  0.9901 -0.0316
 7629SOL    HW330289   3.371   2.890   4.715  1.5822 -1.3504 -0.0991
 7629SOL    MW430290   3.333   2.863   4.642  0.1311  0.3913  0.7455
 7630SOL     OW30291   3.606   5.424   4.346 -0.2022  0.0485 -0.0068
 7630SOL    HW230292   3.559   5.455   4.269  1.7630  0.1297 -1.2382
 7630SOL    HW330293   3.584   5.330   4.351  0.5394 -0.2262 -1.3825
 7630SOL    MW430294   3.597   5.415   4.336  0.3081  0.0710  0.1635
 7631SOL     OW30295   6.189   6.430   1.004  0.3472  0.4491  0.4860
 7631SOL    HW230296   6.158   6.521   1.012  2.6851  1.1885  2.1194
 7631SOL    HW330297   6.120   6.378   1.045 -0.2799  1.6654  1.0298
 7631SOL    MW430298   6.176   6.435   1.010  0.2961 -0.0675 -0.5336
 7632SOL     OW30299   6.106   5.001   0.048  0.0684  0.5603  1.0800
 7632SOL    HW230300   6.067   5.081   0.082  0.0468  1.2287 -0.4695
 7632SOL    HW330301   6.052   4.931   0.085 -1.5393  1.3832  0.3829
 7632SOL    MW430302   6.094   5.002   0.058 -0.2231  0.0168 -0.6517
 7633SOL     OW30303   1.087   2.723   3.380  0.2077  0.8904 -0.2838
 7633SOL    HW230304   1.133   2.786   3.324  0.1326  0.6054 -0.6731
 7633SOL    HW330305   1.120   2.638   3.351  0.8518  0.7785  0.7207
 7633SOL    MW430306   1.098   2.720   3.369 -0.5365 -0.3308  0.2862
 7634SOL     OW30307   5.522   1.806   5.129 -0.0846  0.0365 -0.6328
 7634SOL    HW230308   5.587   1.766   5.070 -0.3556  1.0838 -1.6965
 7634SOL    HW330309   5.551   1.782   5.217  1.3874 -0.0648 -1.1144
 7634SOL    MW430310   5.534   1.798   5.133 -0.4861  0.2660  0.1389
 7635SOL     OW30311   3.514   4.726   0.679  0.0906  0.2048  0.4664
 7635SOL    HW230312   3.563   4.784   0.621  0.2872 -1.7591 -1.4650
 7635SOL    HW330313   3.516   4.770   0.764  0.8668  2.6032 -0.6943
 7635SOL    MW430314   3.521   4.739   0.682 -0.4107 -0.1712 -0.4022
 7636SOL     OW30315   2.780   4.659   5.811  0.0353  0.0302  0.4346
 7636SOL    HW230316   2.848   4.725   5.819  0.7585 -0.7429  0.7661
 7636SOL    HW330317   2.746   4.648   5.899  0.1464 -0.2751  0.4413
 7636SOL    MW430318   2.784   4.666   5.823 -0.0112 -0.3528  0.0723
 7637SOL     OW30319   5.600   0.302   4.424 -0.3559 -0.1238 -0.2338
 7637SOL    HW230320   5.645   0.224   4.392  0.1103 -0.2286  0.6373
 7637SOL    HW330321   5.599   0.362   4.350  2.0327  0.2350 -0.0394
 7637SOL    MW430322   5.606   0.300   4.410  0.2640 -0.8366 -0.1224
 7638SOL     OW30323   6.323   4.949   4.585  0.1414  0.3065 -0.1898
 7638SOL    HW230324   6.384   5.005   4.537 -0.6505  0.5262 -0.9749
 7638SOL    HW330325   6.357   4.946   4.674  1.6979 -0.1611 -0.7699
 7638SOL    MW430326   6.335   4.956   4.590 -0.6938  0.1653  0.3070
 7639SOL     OW30327   2.570   2.928   5.919 -0.1825  0.1272 -0.2619
 7639SOL    HW230328   2.598   2.876   5.843  0.5549  0.5515 -0.2901
 7639SOL    HW330329   2.643   2.988   5.935 -0.2032 -0.1544  0.9668
 7639SOL    MW430330   2.584   2.929   5.911 -0.2508 -0.1999 -0.2116
 7640SOL     OW30331   0.599   1.835   6.332 -0.6754  0.1881  0.1189
 7640SOL    HW230332   0.553   1.905   6.286  0.7792  1.4267  0.4721
 7640SOL    HW330333   0.529   1.778   6.366 -1.8809  1.3287 -0.3840
 7640SOL    MW430334   0.583   1.836   6.331 -0.5012 -0.1510 -0.3437
 7641SOL     OW30335   6.330   3.778   0.362 -0.4448  0.1390 -0.6659
 7641SOL    HW230336   6.266   3.802   0.429  1.4092  1.3795  0.7163
 7641SOL    HW330337   6.376   3.702   0.399  0.5974  0.8413 -0.4914
 7641SOL    MW430338   6.327   3.771   0.376  0.3433 -0.0315  0.1774
 7642SOL     OW30339   1.149   4.914   6.266  0.5139 -0.3692 -0.2166
 7642SOL    HW230340   1.058   4.894   6.245  0.1072  0.6885  0.4439
 7642SOL    HW330341   1.199   4.877   6.194 -0.4068 -1.2503 -0.4309
 7642SOL    MW430342   1.144   4.906   6.254 -0.7818  0.3277 -0.1192
 7643SOL     OW30343   1.965   0.674   3.498  0.0812  0.5552  0.0070
 7643SOL    HW230344   1.964   0.751   3.554 -2.4368  0.8340 -0.3149
 7643SOL    HW330345   1.970   0.600   3.559 -3.6377  0.8123  0.8323
 7643SOL    MW430346   1.966   0.674   3.513 -0.0000  0.6827  0.7002
 7644SOL     OW30347   0.122   6.480   5.244 -0.3868 -0.1580 -0.4808
 7644SOL    HW230348   0.107   6.564   5.287  0.7603 -1.1095  1.9850
 7644SOL    HW330349   0.177   6.501   5.169  1.2623  1.1755  1.0049
 7644SOL    MW430350   0.127   6.494   5.240 -0.5778  0.8266  0.2995
 7645SOL     OW30351   1.266   2.239   6.369  0.0383 -0.3807 -0.8283
 7645SOL    HW230352   1.269   2.334   6.355  0.3302 -0.1792  0.5233
 7645SOL    HW330353   1.286   2.202   6.283 -2.4998  0.7431 -2.0255
 7645SOL    MW430354   1.269   2.247   6.356 -0.7339  0.7585 -0.2109
 7646SOL     OW30355   2.450   6.255   0.409  0.3313  0.0047 -0.1743
 7646SOL    HW230356   2.478   6.225   0.323 -0.7643 -0.6239 -0.3298
 7646SOL    HW330357   2.439   6.175   0.460 -0.4147  0.2826  0.1080
 7646SOL    MW430358   2.452   6.241   0.404  0.5762 -0.0164  0.1642
 7647SOL     OW30359   0.096   3.974   3.421  0.0941 -0.3812  0.0880
 7647SOL    HW230360   0.012   3.928   3.412  0.3482 -0.5824 -1.4630
 7647SOL    HW330361   0.155   3.909   3.459  0.1237 -0.9719 -0.9337
 7647SOL    MW430362   0.092   3.959   3.425 -0.2802 -0.6551  0.0698
 7648SOL     OW30363   3.338   6.168   5.361 -0.0369 -0.4552  0.3079
 7648SOL    HW230364   3.345   6.251   5.409  0.2696  1.0939 -2.2157
 7648SOL    HW330365   3.415   6.118   5.386  0.7569  0.8251  0.4869
 7648SOL    MW430366   3.349   6.172   5.371  0.5777  0.1698  0.1871
 7649SOL     OW30367   4.377   3.434   4.823 -0.1961 -0.4974  0.1469
 7649SOL    HW230368   4.352   3.453   4.733  0.1239 -1.0065 -0.0477
 7649SOL    HW330369   4.471   3.422   4.821  0.2376  2.0972  1.0069
 7649SOL    MW430370   4.386   3.435   4.811  0.8523  0.5783  0.2172
 7650SOL     OW30371   3.931   6.242   1.051 -1.1025  0.5422  0.5247
 7650SOL    HW230372   3.901   6.177   0.987 -1.7801  2.4438 -1.1894
 7650SOL    HW330373   4.016   6.271   1.017 -1.5950  1.7697  0.3039
 7650SOL    MW430374   3.939   6.237   1.038 -0.4561  0.5754 -0.3362
 7651SOL     OW30375   4.173   4.816   2.271  1.0279 -0.0769 -0.1171
 7651SOL    HW230376   4.216   4.731   2.283 -0.0629 -1.2921 -3.6883
 7651SOL    HW330377   4.085   4.803   2.306  0.5647 -0.7954 -1.4740
 7651SOL    MW430378   4.167   4.803   2.277 -0.3158 -0.0820  0.0219
 7652SOL     OW30379   0.938   2.760   4.695  0.4503 -0.5406 -0.0247
 7652SOL    HW230380   0.927   2.667   4.677  1.6844 -0.5858 -0.6284
 7652SOL    HW330381   1.013   2.765   4.754  1.7737  0.1858 -1.6910
 7652SOL    MW430382   0.946   2.749   4.701 -0.7022 -0.4100  0.2551
 7653SOL     OW30383   0.048   0.384   3.400  0.4930 -0.3017  0.2553
 7653SOL    HW230384   0.123   0.402   3.343  0.0686 -1.2523 -0.6566
 7653SOL    HW330385   0.005   0.309   3.359  0.5000 -1.4163  2.1827
 7653SOL    MW430386   0.052   0.376   3.387 -0.2136 -0.1535  0.6195
 7654SOL     OW30387   0.493   3.582   1.538  0.5794  0.6007 -0.3737
 7654SOL    HW230388   0.564   3.534   1.494 -0.3727 -0.5971 -0.6737
 7654SOL    HW330389   0.414   3.535   1.512 -0.1816  0.9375  1.2283
 7654SOL    MW430390   0.492   3.570   1.529  0.5502 -0.2933 -0.0416
 7655SOL     OW30391   4.511   3.905   6.244 -0.3701 -0.3112 -0.2240
 7655SOL    HW230392   4.459   3.981   6.271 -0.4321 -0.6501  0.6554
 7655SOL    HW330393   4.493   3.894   6.151 -0.4311  0.6936 -0.3359
 7655SOL    MW430394   4.502   3.914   6.235 -1.1300  0.4273  0.0202
 7656SOL     OW30395   1.603   1.160   2.192  0.3598 -0.4180  0.4122
 7656SOL    HW230396   1.617   1.250   2.162 -2.4141  0.2998  0.9194
 7656SOL    HW330397   1.687   1.133   2.229  1.4617  1.7093 -0.3783
 7656SOL    MW430398   1.616   1.168   2.193 -0.1068 -0.1434  0.7222
 7657SOL     OW30399   1.311   0.293   1.408  0.5786  0.2526  0.0335
 7657SOL    HW230400   1.311   0.305   1.313  1.1589 -0.9316 -0.1350
 7657SOL    HW330401   1.220   0.274   1.430  0.2363  1.6186 -0.1160
 7657SOL    MW430402   1.299   0.293   1.399 -0.3958  0.0180 -0.4531
 7658SOL     OW30403   5.065   1.250   0.784 -0.3595 -0.0826 -0.1236
 7658SOL    HW230404   5.104   1.328   0.823 -2.0662  1.2575 -0.9422
 7658SOL    HW330405   5.130   1.221   0.720  0.9295 -0.2325  1.1984
 7658SOL    MW430406   5.079   1.257   0.781 -0.5190 -0.3505  0.8026
 7659SOL     OW30407   0.033   5.915   1.376 -0.2504 -0.1060 -0.4785
 7659SOL    HW230408   0.078   5.834   1.399  2.0830  0.8489 -1.4557
 7659SOL    HW330409   0.086   5.984   1.414 -0.1872  1.1334 -2.6747
 7659SOL    MW430410   0.046   5.913   1.384  0.2168 -0.6552 -0.4244
 7660SOL     OW30411   3.700   4.813   2.684 -0.2482 -0.4934  0.2464
 7660SOL    HW230412   3.734   4.901   2.672 -0.2284 -0.4149  0.8144
 7660SOL    HW330413   3.718   4.793   2.776 -1.3543 -0.6088  0.4504
 7660SOL    MW430414   3.707   4.822   2.695  0.0440  0.5991 -0.2028
 7661SOL     OW30415   6.216   2.906   0.172 -0.0300 -0.0495 -0.1513
 7661SOL    HW230416   6.163   2.984   0.158 -0.3703 -0.1043  0.7612
 7661SOL    HW330417   6.155   2.833   0.166  0.0555 -0.1571  0.2646
 7661SOL    MW430418   6.201   2.907   0.169  0.4684  0.4252  0.3370
 7662SOL     OW30419   4.863   2.391   0.205 -0.6478  0.5685 -0.1678
 7662SOL    HW230420   4.939   2.401   0.148  0.1444  0.8279  0.8924
 7662SOL    HW330421   4.828   2.479   0.215 -1.4313  0.3734 -1.0889
 7662SOL    MW430422   4.868   2.404   0.199 -0.0935 -0.9932  0.0939
 7663SOL     OW30423   5.105   4.952   1.185  0.6002  0.3954 -0.3967
 7663SOL    HW230424   5.111   5.028   1.127 -0.1602  0.6193 -0.1966
 7663SOL    HW330425   5.196   4.923   1.196  0.6326 -1.1033 -3.6071
 7663SOL    MW430426   5.118   4.958   1.179 -0.1691 -0.2628  0.2349
 7664SOL     OW30427   5.466   3.173   6.105  0.2435 -0.2790  0.2836
 7664SOL    HW230428   5.449   3.188   6.012  1.3393 -0.0908  0.1034
 7664SOL    HW330429   5.388   3.206   6.149 -0.2056 -0.1945 -0.5583
 7664SOL    MW430430   5.454   3.180   6.099 -0.6563 -0.0524 -0.2671
 7665SOL     OW30431   2.393   6.373   4.751 -0.2375 -0.1474  0.9604
 7665SOL    HW230432   2.310   6.332   4.725  0.6835 -1.3188 -0.2888
 7665SOL    HW330433   2.368   6.458   4.785 -1.7655  0.7681 -2.0754
 7665SOL    MW430434   2.379   6.379   4.752 -0.0697  0.1654 -0.1220
 7666SOL     OW30435   4.210   5.164   1.056  0.3525  0.5366  0.1273
 7666SOL    HW230436   4.142   5.102   1.031 -0.0398  0.2607  1.7269
 7666SOL    HW330437   4.292   5.117   1.044  0.1439  0.2223 -0.0712
 7666SOL    MW430438   4.212   5.150   1.051  0.1404  0.3189  0.0591
 7667SOL     OW30439   5.817   3.650   4.015 -0.4514 -0.3258 -0.2687
 7667SOL    HW230440   5.840   3.559   4.002  0.2803 -0.0174 -1.2037
 7667SOL    HW330441   5.853   3.672   4.101  0.2077 -0.6584 -0.4575
 7667SOL    MW430442   5.825   3.641   4.025 -0.2777 -0.9124  1.1253
 7668SOL     OW30443   0.281   0.432   0.422 -0.0536 -0.1313 -0.2649
 7668SOL    HW230444   0.187   0.438   0.404  0.0413 -0.3887 -0.8451
 7668SOL    HW330445   0.296   0.501   0.487 -1.0111 -1.3889  1.3611
 7668SOL    MW430446   0.270   0.442   0.428  0.4154  0.0536 -0.0442
 7669SOL     OW30447   4.944   5.975   1.319  0.7256  0.1718  0.0457
 7669SOL    HW230448   4.871   5.972   1.258  0.9294  0.0700 -0.1912
 7669SOL    HW330449   4.903   5.961   1.405  0.4290  0.4076 -0.0539
 7669SOL    MW430450   4.929   5.973   1.323 -0.2541  0.3298 -0.3931
 7670SOL     OW30451   4.293   5.270   6.134 -0.7068 -0.5143  0.2162
 7670SOL    HW230452   4.347   5.299   6.208 -1.0231  0.7346 -0.0208
 7670SOL    HW330453   4.309   5.336   6.066 -2.8585  0.1645  0.3003
 7670SOL    MW430454   4.302   5.283   6.135  0.5703 -0.5146 -0.3088
 7671SOL     OW30455   2.335   3.796   2.742  0.0269  0.2779 -0.0602
 7671SOL    HW230456   2.373   3.832   2.662 -0.0693 -0.6340 -0.5300
 7671SOL    HW330457   2.395   3.725   2.767 -0.3361  0.0853  0.2721
 7671SOL    MW430458   2.348   3.791   2.735 -0.0048  0.4338  0.1480
 7672SOL     OW30459   5.842   0.305   5.259 -0.5041  0.4904  0.2207
 7672SOL    HW230460   5.927   0.349   5.256 -1.4018  2.5359  2.0036
 7672SOL    HW330461   5.858   0.219   5.220  1.7861  1.6895 -1.7055
 7672SOL    MW430462   5.855   0.299   5.254  0.4624 -0.0719  0.1990
 7673SOL     OW30463   1.837   0.829   2.440 -0.2536 -0.2881  0.1327
 7673SOL    HW230464   1.806   0.747   2.401  1.0085 -0.0218 -1.5569
 7673SOL    HW330465   1.826   0.894   2.370  0.2302  0.6378  0.9014
 7673SOL    MW430466   1.832   0.827   2.425 -0.4254 -0.2657 -0.3533
 7674SOL     OW30467   2.034   0.111   2.249 -0.5608 -0.4268  0.5432
 7674SOL    HW230468   1.986   0.046   2.198  1.6109 -0.6693 -1.3234
 7674SOL    HW330469   1.974   0.186   2.254 -2.2799 -1.7511  0.9189
 7674SOL    MW430470   2.019   0.113   2.243 -0.2392 -0.5253 -0.1079
 7675SOL     OW30471   2.777   1.185   5.178 -0.2581 -0.2781 -0.2190
 7675SOL    HW230472   2.809   1.095   5.179 -1.7018 -0.8355 -1.6718
 7675SOL    HW330473   2.751   1.201   5.088  1.4198  2.1671 -0.3832
 7675SOL    MW430474   2.778   1.175   5.167 -0.5602 -0.3874 -0.3628
 7676SOL     OW30475   3.035   6.325   2.022  0.1939 -0.6136  0.2386
 7676SOL    HW230476   2.959   6.276   1.992  0.7352 -1.9542  0.9916
 7676SOL    HW330477   3.021   6.337   2.116 -0.6350  2.0131 -0.1266
 7676SOL    MW430478   3.024   6.320   2.030  0.6636 -0.2617 -0.0820
 7677SOL     OW30479   1.533   1.047   5.422 -0.0369  0.0128 -0.6910
 7677SOL    HW230480   1.602   1.113   5.426 -0.1074  0.0603 -0.1785
 7677SOL    HW330481   1.462   1.083   5.475  1.0236 -1.7193  2.1263
 7677SOL    MW430482   1.533   1.061   5.429  0.6154  0.2648 -0.0871
 7678SOL     OW30483   3.279   0.906   4.082 -0.2550 -0.6904  0.4844
 7678SOL    HW230484   3.269   0.971   4.013  0.3175 -1.2378 -0.1246
 7678SOL    HW330485   3.189   0.892   4.114 -0.4847 -0.2041  0.0691
 7678SOL    MW430486   3.266   0.913   4.077 -0.1155  0.2604 -0.7668
 7679SOL     OW30487   5.151   1.873   1.803  0.5449  0.6909  0.4207
 7679SOL    HW230488   5.244   1.895   1.800  0.6082  0.4024  0.2025
 7679SOL    HW330489   5.125   1.889   1.894  0.8311  0.6742  0.5049
 7679SOL    MW430490   5.159   1.878   1.814  0.2498  0.2599 -0.2358
 7680SOL     OW30491   2.308   4.530   0.206 -0.2019 -0.5997  0.1553
 7680SOL    HW230492   2.307   4.443   0.246 -0.0977 -0.9356 -0.5610
 7680SOL    HW330493   2.368   4.522   0.132 -0.4581 -0.0148 -0.1227
 7680SOL    MW430494   2.315   4.518   0.201 -0.7788 -0.5617 -0.2533
 7681SOL     OW30495   1.169   4.937   3.806  0.2870 -0.4580  0.8250
 7681SOL    HW230496   1.232   4.866   3.818  0.0672 -0.6886  0.6371
 7681SOL    HW330497   1.097   4.916   3.866 -0.5613 -1.3214 -0.4420
 7681SOL    MW430498   1.168   4.925   3.816  0.2954 -0.2063  0.4064
 7682SOL     OW30499   1.089   5.344   4.082 -0.4950 -0.1006  0.0642
 7682SOL    HW230500   1.082   5.364   4.176 -0.4953 -1.4012  0.3562
 7682SOL    HW330501   1.147   5.412   4.048  1.5731 -1.0202  1.5041
 7682SOL    MW430502   1.096   5.355   4.090 -0.1952  0.3675  1.0380
 7683SOL     OW30503   1.303   1.252   1.542 -0.1114  0.4651  0.3409
 7683SOL    HW230504   1.293   1.165   1.580 -1.1103 -0.0636 -1.0706
 7683SOL    HW330505   1.384   1.247   1.491 -0.2080  0.3552  0.2008
 7683SOL    MW430506   1.313   1.240   1.541 -0.4721  0.8919  0.3324
 7684SOL     OW30507   3.155   5.113   0.515  0.0177 -0.3470  0.0551
 7684SOL    HW230508   3.128   5.156   0.596  0.2540 -0.7876  0.3702
 7684SOL    HW330509   3.117   5.026   0.519 -1.5353  0.2170 -1.1700
 7684SOL    MW430510   3.146   5.107   0.526 -0.3271 -0.8485 -0.3537
 7685SOL     OW30511   0.645   1.176   1.905  0.0229 -0.5062  0.3720
 7685SOL    HW230512   0.706   1.116   1.864  1.2532 -0.5816  2.2007
 7685SOL    HW330513   0.618   1.132   1.986 -1.5977  0.0201  0.1563
 7685SOL    MW430514   0.649   1.162   1.911 -0.2766  0.3480 -0.2723
 7686SOL     OW30515   0.378   1.357   5.966 -0.4138  0.0044 -0.4468
 7686SOL    HW230516   0.447   1.348   5.901  1.2610 -1.5987  1.4233
 7686SOL    HW330517   0.421   1.399   6.041 -0.9206 -2.5526  1.4045
 7686SOL    MW430518   0.393   1.361   5.967 -0.0174  0.1936 -0.1334
 7687SOL     OW30519   1.973   3.991   3.003  0.1296 -0.2521 -0.5910
 7687SOL    HW230520   1.916   4.045   3.058 -0.5152 -2.2984  0.8835
 7687SOL    HW330521   1.931   3.905   3.003  2.6319 -1.5642 -0.3538
 7687SOL    MW430522   1.960   3.986   3.011  0.5698  0.0687 -0.4422
 7688SOL     OW30523   1.616   1.813   1.669 -0.2647 -0.4496  0.4471
 7688SOL    HW230524   1.634   1.905   1.646 -0.6977 -0.6263 -0.6211
 7688SOL    HW330525   1.686   1.791   1.730  0.1463  0.4404  0.3249
 7688SOL    MW430526   1.628   1.823   1.674  0.2182 -0.4417  0.2069
 7689SOL     OW30527   3.646   6.358   0.235 -0.0879 -0.4590  0.2828
 7689SOL    HW230528   3.591   6.436   0.237  0.0329 -0.2462  4.5533
 7689SOL    HW330529   3.585   6.285   0.227 -0.8406 -0.0871  2.0814
 7689SOL    MW430530   3.631   6.358   0.234 -0.1236  0.5273  0.2057
 7690SOL     OW30531   0.434   3.561   1.817  0.2171  0.2513  0.0427
 7690SOL    HW230532   0.351   3.605   1.837  1.4516  1.5768  2.7978
 7690SOL    HW330533   0.464   3.603   1.736 -0.5102  1.7506  0.4960
 7690SOL    MW430534   0.427   3.573   1.809 -0.8583  0.1334 -0.6418
 7691SOL     OW30535   5.768   6.300   1.338  0.1241  0.3633 -0.1887
 7691SOL    HW230536   5.826   6.264   1.405  0.5471  0.8298 -0.2951
 7691SOL    HW330537   5.751   6.390   1.367 -0.5296  0.2400 -0.1746
 7691SOL    MW430538   5.774   6.307   1.351  0.1965 -0.4157  0.0677
 7692SOL     OW30539   0.988   3.447   6.093  0.2294  0.6142 -0.2369
 7692SOL    HW230540   1.052   3.516   6.112 -0.2365  1.0036 -0.0720
 7692SOL    HW330541   1.036   3.386   6.037  1.1918  0.1695  1.0075
 7692SOL    MW430542   1.003   3.448   6.088 -0.1770  0.4033 -0.5485
 7693SOL     OW30543   5.472   1.932   0.612  0.3296  0.5769  0.4641
 7693SOL    HW230544   5.441   1.876   0.682  1.2276  0.0452  0.4506
 7693SOL    HW330545   5.424   2.014   0.624 -1.6398 -0.4459 -0.0276
 7693SOL    MW430546   5.462   1.936   0.623 -0.0473  0.1136  0.7406
 7694SOL     OW30547   4.012   2.835   0.043  0.2543 -0.0184  0.2545
 7694SOL    HW230548   3.968   2.878   0.116  0.5464 -1.4828  1.3174
 7694SOL    HW330549   4.105   2.851   0.059  0.3959 -1.3461  0.8905
 7694SOL    MW430550   4.019   2.843   0.054 -0.4906 -0.0732 -0.1454
 7695SOL     OW30551   6.104   4.418   1.680  0.2674 -0.5656  0.2530
 7695SOL    HW230552   6.083   4.334   1.720 -0.8212 -0.1702  0.5791
 7695SOL    HW330553   6.022   4.445   1.638  0.8786 -0.1139 -0.6721
 7695SOL    MW430554   6.090   4.411   1.680  0.2496 -0.1137 -0.7091
 7696SOL     OW30555   0.350   5.462   0.940 -0.6758  0.5127  0.5969
 7696SOL    HW230556   0.330   5.552   0.966 -1.4314  0.0475  1.7199
 7696SOL    HW330557   0.445   5.460   0.931 -0.5130  1.0910  1.9288
 7696SOL    MW430558   0.360   5.474   0.942 -0.3834  0.5261  0.3752
 7697SOL     OW30559   5.488   6.297   2.875 -0.0144  0.1720  0.6954
 7697SOL    HW230560   5.466   6.209   2.847 -0.5630  1.0113 -1.7792
 7697SOL    HW330561   5.584   6.299   2.878  0.1596  0.3067 -2.4254
 7697SOL    MW430562   5.498   6.286   2.872  0.3415  0.1150  0.5728
 7698SOL     OW30563   4.059   5.778   0.718  0.0173 -0.2099  0.1191
 7698SOL    HW230564   4.061   5.728   0.799  1.1047  0.2569  0.3964
 7698SOL    HW330565   4.150   5.779   0.687 -0.3564 -0.2812 -1.0483
 7698SOL    MW430566   4.071   5.772   0.725 -0.4951  0.2290 -0.5544
 7699SOL     OW30567   1.410   4.205   5.055  0.0908 -0.1477  0.2735
 7699SOL    HW230568   1.332   4.225   5.108  0.5448  2.5461  0.0423
 7699SOL    HW330569   1.388   4.123   5.011 -1.1985 -1.3327  2.8636
 7699SOL    MW430570   1.397   4.197   5.056  0.3018 -0.3262  0.5282
 7700SOL     OW30571   1.527   5.391   5.920 -0.6079 -0.2432  0.2590
 7700SOL    HW230572   1.596   5.399   5.854  0.3329 -0.4018  1.2011
 7700SOL    HW330573   1.511   5.297   5.928 -0.4573 -0.2498  0.5096
 7700SOL    MW430574   1.534   5.380   5.913  0.0656  0.4355  0.2045
 7701SOL     OW30575   1.913   0.415   4.825 -0.3688 -0.2779 -0.1773
 7701SOL    HW230576   1.885   0.334   4.869  1.3874 -1.6209 -1.4200
 7701SOL    HW330577   1.846   0.430   4.758  0.4816 -2.0997 -1.5253
 7701SOL    MW430578   1.900   0.406   4.822  0.3421 -1.1666 -0.3993
 7702SOL     OW30579   3.787   2.358   2.750 -0.1239 -0.3883 -0.1399
 7702SOL    HW230580   3.736   2.351   2.831  2.0575  1.0828  1.4586
 7702SOL    HW330581   3.797   2.452   2.735 -0.0505 -0.6312 -1.8727
 7702SOL    MW430582   3.782   2.369   2.759 -0.5577  0.4142  0.5565
 7703SOL     OW30583   1.866   5.774   4.332  0.1700 -0.1892 -0.5135
 7703SOL    HW230584   1.917   5.743   4.407 -1.4929 -0.1297  0.6992
 7703SOL    HW330585   1.913   5.851   4.301  0.2600  0.5145  1.2586
 7703SOL    MW430586   1.879   5.780   4.338  0.6384 -0.2958 -0.2488
 7704SOL     OW30587   2.844   0.478   2.823 -0.2180 -0.1206 -0.4651
 7704SOL    HW230588   2.814   0.569   2.819 -0.2909 -0.1509 -0.6323
 7704SOL    HW330589   2.782   0.434   2.881  0.5892  0.2290  0.6922
 7704SOL    MW430590   2.832   0.484   2.830  0.8445  0.5089 -0.8320
 7705SOL     OW30591   1.486   6.120   3.058  0.0305 -0.5975  0.2421
 7705SOL    HW230592   1.406   6.085   3.020  0.8989 -0.2020 -2.1434
 7705SOL    HW330593   1.472   6.117   3.153 -3.1734  0.4031 -0.1155
 7705SOL    MW430594   1.474   6.115   3.066 -0.6687 -0.5776  0.2870
 7706SOL     OW30595   4.431   2.115   2.724 -0.1600  0.3116 -0.0302
 7706SOL    HW230596   4.431   2.086   2.632 -1.6835 -0.7436  0.2641
 7706SOL    HW330597   4.513   2.083   2.759 -1.2131 -2.7305 -0.0569
 7706SOL    MW430598   4.441   2.107   2.716  0.6583  0.2589  0.5247
 7707SOL     OW30599   2.949   4.888   1.641 -0.3411  0.1738 -0.1766
 7707SOL    HW230600   2.859   4.883   1.609 -0.5383  0.2923  0.3387
 7707SOL    HW330601   2.992   4.950   1.582 -0.4434 -0.3030 -0.7599
 7707SOL    MW430602   2.943   4.896   1.629 -0.5855 -0.3746 -0.4101
 7708SOL     OW30603   3.069   3.574   4.774 -0.1773  0.3311 -0.4528
 7708SOL    HW230604   2.988   3.602   4.730 -0.9381 -0.3515  0.4730
 7708SOL    HW330605   3.042   3.502   4.831  0.4552  2.0436  2.1912
 7708SOL    MW430606   3.055   3.568   4.775 -0.3449 -0.0416 -0.5653
 7709SOL     OW30607   5.701   4.212   2.139 -0.5130 -0.0350 -0.1272
 7709SOL    HW230608   5.726   4.143   2.077  0.0544 -1.3719  1.5014
 7709SOL    HW330609   5.676   4.286   2.084  1.8828 -0.4477 -1.9608
 7709SOL    MW430610   5.701   4.212   2.123  0.1491 -0.7219 -0.0112
 7710SOL     OW30611   4.695   1.076   6.295 -0.4921 -0.1627  0.1414
 7710SOL    HW230612   4.624   1.119   6.247 -1.0917  0.6025  1.6300
 7710SOL    HW330613   4.736   1.018   6.231 -2.3465 -0.4921 -0.8292
 7710SOL    MW430614   4.691   1.074   6.280  0.5219  0.2163 -0.5130
 7711SOL     OW30615   2.854   1.623   1.153 -0.4244  0.3284 -0.0280
 7711SOL    HW230616   2.906   1.703   1.147 -2.4766  1.6832 -0.6712
 7711SOL    HW330617   2.907   1.564   1.208  1.8524  1.4995 -0.8514
 7711SOL    MW430618   2.868   1.626   1.160  0.3284  0.1810  0.5914
 7712SOL     OW30619   0.012   0.152   1.048 -0.3244  0.0686  0.2928
 7712SOL    HW230620  -0.055   0.084   1.042 -1.7953  1.5460 -0.8100
 7712SOL    HW330621  -0.020   0.210   1.118  0.9190 -0.3197  1.2271
 7712SOL    MW430622  -0.001   0.151   1.057 -0.3434 -0.3977 -0.5898
 7713SOL     OW30623   5.613   2.972   4.802  0.2098  0.2325  0.2491
 7713SOL    HW230624   5.593   2.930   4.886 -0.6620  0.7215  0.2966
 7713SOL    HW330625   5.649   2.902   4.748  1.1567 -0.0117  1.1475
 7713SOL    MW430626   5.615   2.957   4.806  0.2446  0.1657  0.4780
 7714SOL     OW30627   1.568   5.227   4.773  0.3429  0.0020 -0.7306
 7714SOL    HW230628   1.648   5.277   4.789  0.5361 -1.1291  2.5390
 7714SOL    HW330629   1.599   5.139   4.750  0.0771 -0.2493 -0.1656
 7714SOL    MW430630   1.583   5.222   4.772 -0.1810  0.1480  0.2033
 7715SOL     OW30631   0.257   4.946   2.397 -0.1233  0.3304 -0.2870
 7715SOL    HW230632   0.282   5.028   2.355  0.7862  1.5730  2.4319
 7715SOL    HW330633   0.317   4.938   2.471  1.5186 -4.1127 -1.7722
 7715SOL    MW430634   0.268   4.956   2.401  0.1665 -0.0672  0.6423
 7716SOL     OW30635   0.943   3.741   1.717  0.4695  0.7005  0.1893
 7716SOL    HW230636   0.890   3.696   1.783  1.9288 -2.5542 -0.6183
 7716SOL    HW330637   0.880   3.769   1.650 -0.6085  0.5177  1.1083
 7716SOL    MW430638   0.928   3.739   1.717 -0.1641 -0.5254  0.7766
 7717SOL     OW30639   0.192   5.180   0.635 -0.0477 -0.0016  0.3128
 7717SOL    HW230640   0.126   5.237   0.674 -1.0281 -2.0067  1.7458
 7717SOL    HW330641   0.239   5.143   0.710  0.9136 -0.6705 -0.5930
 7717SOL    MW430642   0.190   5.182   0.650  0.2905  0.0135 -0.1330
 7718SOL     OW30643   5.381   1.793   0.836  0.2413 -0.2889 -0.0413
 7718SOL    HW230644   5.394   1.848   0.913 -0.4870 -0.4722  0.2231
 7718SOL    HW330645   5.429   1.712   0.856 -0.8993 -0.7972  0.7402
 7718SOL    MW430646   5.389   1.789   0.849 -0.4391 -0.0308  0.4174
 7719SOL     OW30647   3.948   1.172   2.737 -0.3579  0.1803  0.4022
 7719SOL    HW230648   3.968   1.092   2.786  0.5807  0.1627  0.0132
 7719SOL    HW330649   3.856   1.188   2.755 -0.9638 -1.7840 -0.6228
 7719SOL    MW430650   3.939   1.163   2.746  0.0907 -0.1041  0.3678
 7720SOL     OW30651   5.257   1.755   2.596  0.5703 -0.0095 -0.3629
 7720SOL    HW230652   5.177   1.731   2.643  1.3745 -4.1434 -0.7586
 7720SOL    HW330653   5.235   1.746   2.504 -0.0415  4.8666 -0.9603
 7720SOL    MW430654   5.244   1.751   2.590 -0.3693 -0.2708  0.5039
 7721SOL     OW30655   3.454   5.665   1.081  0.3285  0.2537  0.4557
 7721SOL    HW230656   3.465   5.570   1.071  3.3906  0.4043  1.4905
 7721SOL    HW330657   3.421   5.675   1.171 -1.9732  0.1664 -0.3028
 7721SOL    MW430658   3.451   5.654   1.092  0.0982 -0.1330 -0.5598
 7722SOL     OW30659   5.446   1.103   2.086  0.0728 -0.0003  0.2082
 7722SOL    HW230660   5.509   1.113   2.014 -0.3630  0.3761 -0.1318
 7722SOL    HW330661   5.437   1.191   2.122  0.0384 -0.1283  0.5120
 7722SOL    MW430662   5.453   1.116   2.081 -0.3121 -0.3227 -0.3809
 7723SOL     OW30663   3.708   1.359   0.222 -0.1788 -0.0677  0.3816
 7723SOL    HW230664   3.628   1.321   0.186  0.5428  0.6213 -2.1206
 7723SOL    HW330665   3.754   1.285   0.261 -0.6410 -1.0508 -0.8660
 7723SOL    MW430666   3.703   1.345   0.222 -0.1550 -0.3664  0.2648
 7724SOL     OW30667   3.115   1.443   2.387  0.2439  0.0253  0.1924
 7724SOL    HW230668   3.098   1.385   2.461 -1.1101  0.9059  0.6117
 7724SOL    HW330669   3.127   1.529   2.427  2.0657  0.1155 -0.4311
 7724SOL    MW430670   3.115   1.447   2.402  0.3013 -0.5857 -0.5751
 7725SOL     OW30671   4.236   6.378   6.140  0.2290  1.0512 -0.2169
 7725SOL    HW230672   4.141   6.384   6.126  0.0093  0.0966  0.7116
 7725SOL    HW330673   4.249   6.417   6.226  0.9174  2.6267 -0.9977
 7725SOL    MW430674   4.225   6.384   6.149 -0.0969 -0.2097 -0.7728
 7726SOL     OW30675   0.428   3.682   2.636  0.3115 -0.3760  0.3284
 7726SOL    HW230676   0.459   3.653   2.550  1.3230  0.4591  0.4006
 7726SOL    HW330677   0.358   3.620   2.658 -0.5260 -0.1232 -1.4413
 7726SOL    MW430678   0.423   3.670   2.627 -0.3417 -0.1535  0.8135
 7727SOL     OW30679   1.127   2.307   5.587 -0.4332 -0.2291  0.0897
 7727SOL    HW230680   1.131   2.338   5.677  1.1206 -1.1914  0.3957
 7727SOL    HW330681   1.194   2.358   5.541 -0.2791 -0.6914 -0.2022
 7727SOL    MW430682   1.136   2.318   5.593 -0.0636  0.2059 -0.0860
 7728SOL     OW30683   4.222   6.331   5.779 -0.0145 -0.3085 -0.0766
 7728SOL    HW230684   4.211   6.378   5.696 -1.5200 -0.3807  0.0719
 7728SOL    HW330685   4.280   6.388   5.830 -0.5366  0.6222 -0.4899
 7728SOL    MW430686   4.228   6.345   5.774  0.3406  0.2300  0.0083
 7729SOL     OW30687   2.251   6.044   3.449 -0.3945 -0.1855 -0.0791
 7729SOL    HW230688   2.231   6.023   3.357 -0.6218 -1.4640  0.2449
 7729SOL    HW330689   2.195   5.985   3.499 -0.5132  0.7405  0.8948
 7729SOL    MW430690   2.241   6.034   3.443 -0.2592 -0.0396 -0.2252
 7730SOL     OW30691   1.783   4.632   3.459  0.2036 -0.2179  1.0110
 7730SOL    HW230692   1.718   4.672   3.401  0.9905  0.2959  0.4624
 7730SOL    HW330693   1.752   4.652   3.547 -0.4265 -0.0603  0.7644
 7730SOL    MW430694   1.770   4.640   3.463  0.5554 -0.2067 -0.1220
 7731SOL     OW30695   4.357   5.038   2.661 -0.3996  0.3470 -0.1120
 7731SOL    HW230696   4.308   4.957   2.669 -0.2083  0.2669  0.2916
 7731SOL    HW330697   4.298   5.098   2.616  0.0419 -0.4950 -1.8917
 7731SOL    MW430698   4.343   5.035   2.656  0.2621  0.2562  0.0704
 7732SOL     OW30699   0.541   6.293   1.039  0.6399 -0.0638 -0.0767
 7732SOL    HW230700   0.515   6.210   1.000  2.4844 -0.5908 -0.2486
 7732SOL    HW330701   0.626   6.276   1.079  0.0738  1.1829  1.8122
 7732SOL    MW430702   0.548   6.280   1.039 -0.2814  0.0002  0.2294
 7733SOL     OW30703   5.873   5.363   4.889 -0.5546 -0.2028  0.6164
 7733SOL    HW230704   5.860   5.434   4.826  3.4385 -1.1919 -1.7030
 7733SOL    HW330705   5.951   5.390   4.939 -0.1333 -2.0661  1.0194
 7733SOL    MW430706   5.882   5.376   4.887  0.4543  0.4655 -0.0981
 7734SOL     OW30707   4.530   4.727   1.129 -0.0510  0.2097 -0.1309
 7734SOL    HW230708   4.547   4.679   1.048  2.4792  0.7961 -0.0086
 7734SOL    HW330709   4.447   4.691   1.160 -0.6285 -0.6719 -2.4894
 7734SOL    MW430710   4.521   4.716   1.123 -0.0411  0.0153  0.4303
 7735SOL     OW30711   0.671   5.142   3.893  1.2555  0.5061 -0.0149
 7735SOL    HW230712   0.653   5.135   3.799  0.3894  1.7299  0.0267
 7735SOL    HW330713   0.766   5.153   3.899  1.1363  2.4343 -0.9261
 7735SOL    MW430714   0.681   5.143   3.882  0.3283 -0.3050  0.6905
 7736SOL     OW30715   2.122   1.521   0.961 -0.0159 -0.2025 -0.4819
 7736SOL    HW230716   2.166   1.441   0.933 -1.1998 -0.6097 -1.2305
 7736SOL    HW330717   2.064   1.494   1.032  0.5454  0.2522  0.1765
 7736SOL    MW430718   2.120   1.507   0.967  0.2126  0.0329 -0.4715
 7737SOL     OW30719   6.047   5.185   3.118  0.0993 -0.3607  0.4787
 7737SOL    HW230720   6.108   5.116   3.091  0.5773  0.4401 -0.5257
 7737SOL    HW330721   6.102   5.262   3.130 -0.3428 -0.2599  2.1527
 7737SOL    MW430722   6.062   5.186   3.116 -0.5678 -0.4167  0.2656
 7738SOL     OW30723   3.879   6.388   0.707 -0.5649  0.5435  0.0189
 7738SOL    HW230724   3.952   6.333   0.680 -0.0809  1.0329  0.3130
 7738SOL    HW330725   3.842   6.345   0.784 -0.3294  0.5096  0.1118
 7738SOL    MW430726   3.884   6.375   0.713 -0.5442  0.3421 -0.8644
 7739SOL     OW30727   3.173   1.726   2.518 -0.4534  0.2132  0.0960
 7739SOL    HW230728   3.186   1.759   2.429  1.0331  0.4734  0.3821
 7739SOL    HW330729   3.184   1.804   2.574  0.2650 -0.2444  0.6048
 7739SOL    MW430730   3.176   1.741   2.514  0.0924 -0.7542 -0.3824
 7740SOL     OW30731   6.104   3.107   3.003  0.2209  0.7067  0.7967
 7740SOL    HW230732   6.011   3.084   3.000  0.4661 -0.2625  0.0015
 7740SOL    HW330733   6.117   3.166   2.929  0.2647  0.7428  0.8329
 7740SOL    MW430734   6.093   3.112   2.993  0.1755 -0.3813  0.0112
 7741SOL     OW30735   1.856   6.327   5.327  0.2336  0.0208 -0.1067
 7741SOL    HW230736   1.909   6.324   5.247  1.0536  0.1795  0.4191
 7741SOL    HW330737   1.765   6.335   5.295  0.6989  2.8605 -1.0383
 7741SOL    MW430738   1.851   6.328   5.312 -0.3432  0.1517 -0.1236
 7742SOL     OW30739   1.661   5.082   2.804 -0.2601  0.0696  0.0554
 7742SOL    HW230740   1.662   5.035   2.720  1.0045 -0.2385  0.2175
 7742SOL    HW330741   1.752   5.080   2.833 -0.2304  2.2803  0.2786
 7742SOL    MW430742   1.673   5.075   2.797  0.0610  0.4935  0.3538
 7743SOL     OW30743   3.938   4.249   2.856  0.1968  0.3597 -0.1385
 7743SOL    HW230744   3.873   4.180   2.843 -1.8130  1.8599  1.4360
 7743SOL    HW330745   3.889   4.323   2.892  2.6405  1.8814  0.3063
 7743SOL    MW430746   3.923   4.250   2.859  0.0751  0.1227 -0.2243
 7744SOL     OW30747   5.465   0.724   4.805  0.3648 -0.4739 -0.3058
 7744SOL    HW230748   5.448   0.779   4.728 -0.8879 -0.9797 -0.4178
 7744SOL    HW330749   5.477   0.636   4.769 -0.1045 -0.6914  0.0668
 7744SOL    MW430750   5.465   0.720   4.790 -0.2168  0.4273 -1.0086
 7745SOL     OW30751   6.245   1.264   3.574  0.2565  0.2880  0.2701
 7745SOL    HW230752   6.192   1.240   3.498 -0.8281  2.0794  0.4064
 7745SOL    HW330753   6.305   1.190   3.585 -1.5343 -1.3831 -0.4928
 7745SOL    MW430754   6.246   1.251   3.565  0.4686 -0.8186 -0.1005
 7746SOL     OW30755   5.125   4.873   3.494  0.2356  0.2313  0.6510
 7746SOL    HW230756   5.162   4.884   3.407  0.9181 -1.0203  0.7546
 7746SOL    HW330757   5.194   4.905   3.553  0.4146 -0.3637  0.7747
 7746SOL    MW430758   5.139   4.878   3.491 -0.2926  0.2411 -0.0249
 7747SOL     OW30759   1.162   2.962   3.243  0.5995  0.4559 -0.0643
 7747SOL    HW230760   1.118   3.013   3.311  0.0249 -1.4648  1.0728
 7747SOL    HW330761   1.254   2.988   3.250  0.5025  0.4938  1.2766
 7747SOL    MW430762   1.169   2.972   3.253  0.2138  0.5829 -0.0588
 7748SOL     OW30763   5.129   1.430   3.040 -0.6216 -0.3206 -0.1084
 7748SOL    HW230764   5.136   1.517   3.078 -2.0509 -0.4198  0.4323
 7748SOL    HW330765   5.189   1.431   2.965  1.6215  0.1395  1.6021
 7748SOL    MW430766   5.138   1.441   3.035  0.3963  0.2923  0.2018
 7749SOL     OW30767   4.759   5.862   4.921 -0.1818  0.4258 -0.6927
 7749SOL    HW230768   4.848   5.881   4.951 -0.2555 -0.6626  0.2593
 7749SOL    HW330769   4.703   5.884   4.995 -0.5759 -0.2124 -0.7899
 7749SOL    MW430770   4.763   5.868   4.934  0.0705  0.6056  0.1754
 7750SOL     OW30771   0.140   4.613   5.159 -0.2625  0.2987  0.3140
 7750SOL    HW230772   0.130   4.684   5.223  1.4958  0.9878 -0.0925
 7750SOL    HW330773   0.218   4.638   5.109  0.2380 -1.7820 -0.0413
 7750SOL    MW430774   0.149   4.626   5.161 -0.1371  0.0737 -0.0974
 7751SOL     OW30775   6.270   0.799   0.043 -0.5238  0.1225 -0.3151
 7751SOL    HW230776   6.299   0.713   0.011 -0.3106  0.5519 -1.3218
 7751SOL    HW330777   6.206   0.828  -0.022  1.4276  1.9357 -1.5722
 7751SOL    MW430778   6.265   0.791   0.030 -0.5822  0.2868  0.3294
 7752SOL     OW30779   6.390   5.545   3.863  0.0855 -0.0781  0.5788
 7752SOL    HW230780   6.371   5.634   3.835  0.6622  0.0534  0.5954
 7752SOL    HW330781   6.306   5.499   3.856 -0.6759  0.9312  2.4165
 7752SOL    MW430782   6.376   5.551   3.858 -0.4909 -0.1226 -0.0744
 7753SOL     OW30783   0.820   2.155   4.702  0.1848  0.0124  0.8560
 7753SOL    HW230784   0.831   2.063   4.726  2.6165 -0.1667 -0.5594
 7753SOL    HW330785   0.826   2.203   4.785 -0.6459 -1.0641  1.5573
 7753SOL    MW430786   0.823   2.150   4.716 -0.2389 -0.4754 -0.0859
 7754SOL     OW30787   2.541   0.557   0.345  0.0107  0.0561 -0.1891
 7754SOL    HW230788   2.508   0.641   0.313  1.1480  0.3034 -0.7623
 7754SOL    HW330789   2.487   0.538   0.421  0.8847  2.2264  1.0808
 7754SOL    MW430790   2.530   0.566   0.351  0.0935 -0.4344 -0.1859
 7755SOL     OW30791   3.373   6.039   3.078 -0.0352  0.0823 -0.3709
 7755SOL    HW230792   3.405   5.952   3.053  0.8492  0.6767 -1.3639
 7755SOL    HW330793   3.404   6.097   3.008 -1.1406  1.1009 -0.0381
 7755SOL    MW430794   3.382   6.035   3.065  0.2334  0.0306 -0.0143
 7756SOL     OW30795   5.783   4.808   3.649  0.4309  0.2103 -0.0172
 7756SOL    HW230796   5.847   4.794   3.579  2.2790  0.7968  1.4984
 7756SOL    HW330797   5.723   4.874   3.614 -0.4325 -1.5659 -2.1130
 7756SOL    MW430798   5.783   4.815   3.635  0.3084 -0.7187  0.1420
 7757SOL     OW30799   4.488   4.814   1.978  0.2608  0.4553  0.3926
 7757SOL    HW230800   4.408   4.851   2.015 -1.2690 -1.8290 -0.3879
 7757SOL    HW330801   4.522   4.757   2.048 -1.0840 -1.6902 -0.6190
 7757SOL    MW430802   4.482   4.811   1.992  0.3739  0.2340  0.2383
 7758SOL     OW30803   1.839   2.187   0.513  0.5497  0.1791  0.5344
 7758SOL    HW230804   1.850   2.271   0.469  1.0924  0.5439  1.3313
 7758SOL    HW330805   1.897   2.127   0.467  0.5441  0.3620  0.2857
 7758SOL    MW430806   1.848   2.190   0.501 -0.1037 -0.5567  0.1891
 7759SOL     OW30807   0.979   5.662   4.133  0.2720 -0.3246  0.0299
 7759SOL    HW230808   1.021   5.704   4.207  0.6592 -0.7729  0.0709
 7759SOL    HW330809   0.921   5.596   4.173 -0.0913 -0.0484 -0.0412
 7759SOL    MW430810   0.977   5.659   4.148 -0.3672  0.7115  0.5905
 7760SOL     OW30811   4.303   3.657   1.399  0.1181  0.6992  0.3132
 7760SOL    HW230812   4.322   3.723   1.465 -0.6243  1.2736 -0.0300
 7760SOL    HW330813   4.334   3.696   1.317  1.5581 -0.2382  0.3597
 7760SOL    MW430814   4.310   3.671   1.397 -0.0384 -0.0414 -0.2654
 7761SOL     OW30815   1.577   2.474   4.151  0.1997  0.2399  0.0102
 7761SOL    HW230816   1.577   2.434   4.064 -3.4122 -0.1643  0.0413
 7761SOL    HW330817   1.586   2.400   4.211 -1.0132  0.0430 -0.0206
 7761SOL    MW430818   1.578   2.459   4.148 -0.3616  0.3090 -0.1665
 7762SOL     OW30819   4.412   4.394   3.992  0.5858 -0.0833 -0.2700
 7762SOL    HW230820   4.345   4.326   3.995  0.9343 -0.7543 -3.5769
 7762SOL    HW330821   4.378   4.464   4.048 -0.8515 -2.0304  1.4213
 7762SOL    MW430822   4.399   4.395   4.000  0.2220  0.3898 -0.4309
 7763SOL     OW30823   5.955   5.738   0.671 -0.5621 -0.2078  0.3978
 7763SOL    HW230824   5.885   5.774   0.726 -0.9346  1.1096 -0.8776
 7763SOL    HW330825   5.981   5.811   0.615  1.5678 -0.7843  0.5459
 7763SOL    MW430826   5.949   5.752   0.671  0.2461 -0.5985  0.0979
 7764SOL     OW30827   0.869   1.816   1.519 -0.3253 -0.0206  0.4836
 7764SOL    HW230828   0.941   1.806   1.582  0.4965 -0.3092 -0.4770
 7764SOL    HW330829   0.871   1.909   1.497 -0.9863  0.1974  1.2989
 7764SOL    MW430830   0.879   1.827   1.525  0.1142  0.1635  0.0431
 7765SOL     OW30831   4.914   0.078   4.680 -0.9310  0.4124 -0.3276
 7765SOL    HW230832   4.826   0.083   4.718 -0.5108 -0.1256  0.7394
 7765SOL    HW330833   4.899   0.047   4.590 -2.0122  2.6613 -0.9862
 7765SOL    MW430834   4.900   0.074   4.673  0.3520  0.1946  0.2195
 7766SOL     OW30835   4.123   1.154   1.277 -0.0851  0.3568  0.2043
 7766SOL    HW230836   4.053   1.096   1.306 -0.0343  1.3171  2.4628
 7766SOL    HW330837   4.078   1.236   1.256  0.2719  0.8180  1.1758
 7766SOL    MW430838   4.108   1.157   1.278 -0.3768  0.3930  0.6580
 7767SOL     OW30839   4.621   1.200   0.335  0.6328 -0.8655 -0.0179
 7767SOL    HW230840   4.529   1.190   0.358  0.3814  0.8051 -0.1957
 7767SOL    HW330841   4.622   1.192   0.239  0.9997 -2.8818  0.0921
 7767SOL    MW430842   4.609   1.197   0.325 -0.0016  0.4002  0.1691
 7768SOL     OW30843   4.626   6.288   2.003 -0.7527  0.4547  0.5828
 7768SOL    HW230844   4.671   6.205   1.983  0.1306  1.3742 -1.6496
 7768SOL    HW330845   4.535   6.272   1.980 -0.5165  0.1866 -0.2048
 7768SOL    MW430846   4.620   6.275   1.997 -0.0340  0.3410 -0.1299
 7769SOL     OW30847   2.685   5.676   3.695 -0.0854 -0.1272  0.3096
 7769SOL    HW230848   2.650   5.635   3.616 -1.4388  0.0764  0.7649
 7769SOL    HW330849   2.668   5.613   3.765  0.8841 -0.2065  0.4882
 7769SOL    MW430850   2.678   5.662   3.694  0.2145 -0.7274  0.4426
 7770SOL     OW30851   2.991   1.024   2.466  0.1753 -0.4432  0.3550
 7770SOL    HW230852   2.963   1.108   2.503  0.7203  0.2156 -0.6952
 7770SOL    HW330853   3.066   1.046   2.411 -0.1038 -1.5096 -0.4831
 7770SOL    MW430854   2.997   1.038   2.464  0.2359  0.8489 -0.4607
 7771SOL     OW30855   1.473   5.620   4.449 -0.7177  0.0148 -0.3278
 7771SOL    HW230856   1.518   5.696   4.487  0.4140  0.3144 -2.1220
 7771SOL    HW330857   1.538   5.550   4.453 -0.6032  0.0336 -1.5671
 7771SOL    MW430858   1.487   5.621   4.455  0.2264  0.4649 -0.1813
 7772SOL     OW30859   2.361   2.939   1.244 -0.2254  0.2233  0.0815
 7772SOL    HW230860   2.334   2.848   1.239  0.9175 -0.1199 -0.0805
 7772SOL    HW330861   2.352   2.962   1.337 -0.2510 -0.1346  0.1683
 7772SOL    MW430862   2.356   2.930   1.256  0.3828  0.2741  0.4044
 7773SOL     OW30863   3.836   5.656   3.199  0.0309 -0.3589  0.5875
 7773SOL    HW230864   3.882   5.638   3.117  0.9332  1.0301  0.7476
 7773SOL    HW330865   3.750   5.615   3.188 -0.0938  0.3097 -1.3147
 7773SOL    MW430866   3.831   5.648   3.187 -0.4942  0.6833 -0.2579
 7774SOL     OW30867   6.198   5.231   4.942  0.0499 -0.4149 -0.4160
 7774SOL    HW230868   6.158   5.311   4.975 -0.2828  0.2171 -2.2440
 7774SOL    HW330869   6.144   5.206   4.867  2.0494 -0.5076 -1.9021
 7774SOL    MW430870   6.185   5.238   4.936 -0.2108  0.2993 -0.3870
 7775SOL     OW30871   3.338   3.424   6.256 -0.4305 -0.1673  0.2656
 7775SOL    HW230872   3.328   3.333   6.283  1.3263 -0.1945  0.9395
 7775SOL    HW330873   3.425   3.427   6.215 -1.4552  0.6936 -2.0319
 7775SOL    MW430874   3.349   3.412   6.254  0.2140  0.3009  0.1133
 7776SOL     OW30875   4.650   0.329   3.015  0.2109  0.1360  0.4198
 7776SOL    HW230876   4.630   0.408   2.966  1.6905  0.6148  0.5309
 7776SOL    HW330877   4.608   0.343   3.100 -0.4757  0.2936  0.0614
 7776SOL    MW430878   4.642   0.341   3.020  0.3259 -0.3375  0.3064
 7777SOL     OW30879   4.276   3.943   2.281  0.1111  0.3194  0.1064
 7777SOL    HW230880   4.187   3.955   2.315  0.8255  2.0287  1.4950
 7777SOL    HW330881   4.311   3.868   2.330  0.5921  1.8027  2.1290
 7777SOL    MW430882   4.269   3.935   2.292 -0.2961 -0.0231 -0.2918
 7778SOL     OW30883   4.228   4.204   3.889  0.3397 -0.3849  0.1160
 7778SOL    HW230884   4.172   4.169   3.959 -1.4753  1.1673 -0.4713
 7778SOL    HW330885   4.311   4.158   3.900 -0.5414 -1.6769  2.0056
 7778SOL    MW430886   4.232   4.193   3.900  0.3030 -0.3899  0.5379
 7779SOL     OW30887   5.197   0.707   0.847 -0.8107  0.6376 -0.3320
 7779SOL    HW230888   5.200   0.736   0.939 -0.8339 -0.2443 -0.0457
 7779SOL    HW330889   5.131   0.763   0.807  0.4693  2.2796 -0.2705
 7779SOL    MW430890   5.189   0.718   0.854 -0.2596 -0.3663  0.1529
 7780SOL     OW30891   4.065   5.848   4.241 -0.2188  0.4797  0.3766
 7780SOL    HW230892   4.004   5.775   4.238 -0.1923  0.4259  1.0119
 7780SOL    HW330893   4.016   5.922   4.204 -0.1342  0.0724 -0.5618
 7780SOL    MW430894   4.051   5.848   4.236  0.2349  0.4738 -0.2805
 7781SOL     OW30895   0.540   0.422   2.201  0.0028 -0.1555 -0.1762
 7781SOL    HW230896   0.589   0.411   2.119  1.7219 -0.5676  0.8571
 7781SOL    HW330897   0.503   0.335   2.219  0.2858 -0.2633 -0.1142
 7781SOL    MW430898   0.541   0.409   2.193 -0.3178 -0.1270  0.5330
 7782SOL     OW30899   6.267   2.338   1.077 -0.4181 -0.6329 -0.3038
 7782SOL    HW230900   6.187   2.295   1.108 -0.7719 -0.2720 -0.7057
 7782SOL    HW330901   6.322   2.266   1.044  0.6095 -1.2336  2.4591
 7782SOL    MW430902   6.264   2.323   1.077  0.0307 -0.4242  0.3238
 7783SOL     OW30903   5.184   2.712   1.225 -0.0027  0.4019 -0.2695
 7783SOL    HW230904   5.181   2.769   1.302  0.8026 -0.4996  0.4507
 7783SOL    HW330905   5.276   2.710   1.200 -0.1187 -0.0781 -0.6802
 7783SOL    MW430906   5.196   2.719   1.232  0.7109 -0.6882 -0.7832
 7784SOL     OW30907   5.518   2.291   1.054  0.2014  0.3590  0.0030
 7784SOL    HW230908   5.489   2.321   1.140  0.8850  1.3481 -0.0954
 7784SOL    HW330909   5.588   2.351   1.030 -0.5908  0.6717 -1.6524
 7784SOL    MW430910   5.524   2.303   1.062 -0.1660 -0.2346 -0.8305
 7785SOL     OW30911   2.896   5.931   3.522 -0.0673 -0.1096 -0.0697
 7785SOL    HW230912   2.981   5.967   3.548 -0.8992  2.6419 -0.7841
 7785SOL    HW330913   2.844   5.931   3.602 -1.3631  4.5773 -0.5922
 7785SOL    MW430914   2.901   5.936   3.536 -0.3069 -0.2095 -0.1939
 7786SOL     OW30915   2.275   2.916   3.733  0.0483  0.0624 -0.1971
 7786SOL    HW230916   2.368   2.909   3.709  0.3007  1.9923  0.0880
 7786SOL    HW330917   2.264   3.007   3.759 -1.2518 -0.8260  2.7207
 7786SOL    MW430918   2.286   2.927   3.733 -0.6212 -0.5144 -0.6809
 7787SOL     OW30919   0.631   5.224   5.073  0.2715  0.9336 -0.0472
 7787SOL    HW230920   0.637   5.255   4.983 -1.4098  2.6118  0.3574
 7787SOL    HW330921   0.679   5.141   5.073 -0.2477  0.5525 -2.6326
 7787SOL    MW430922   0.638   5.217   5.062 -0.2413  0.3698 -0.0718
 7788SOL     OW30923   1.942   6.256   6.106 -0.2377  0.2875  0.1128
 7788SOL    HW230924   1.976   6.270   6.018  2.9350 -4.4892  0.2472
 7788SOL    HW330925   1.993   6.316   6.161  0.5960  0.5224 -0.8943
 7788SOL    MW430926   1.953   6.266   6.102  0.3024  0.3164 -0.3218
 7789SOL     OW30927   6.352   2.813   6.192  0.2541 -0.0055 -0.2098
 7789SOL    HW230928   6.404   2.787   6.268  0.6775 -1.5192 -0.9805
 7789SOL    HW330929   6.416   2.819   6.120 -0.4930 -1.1206 -0.9949
 7789SOL    MW430930   6.367   2.810   6.193  0.4997  0.0512  0.7783
 7790SOL     OW30931   3.281   4.476   1.107  0.1010 -0.6124  0.1303
 7790SOL    HW230932   3.259   4.505   1.018 -0.0251  2.0516  0.9482
 7790SOL    HW330933   3.368   4.437   1.098  0.3268  0.0991 -1.0810
 7790SOL    MW430934   3.289   4.475   1.094  0.2459 -0.5873  0.1609
 7791SOL     OW30935   3.544   0.999   4.782  0.6717 -0.2799  0.1539
 7791SOL    HW230936   3.540   0.945   4.703 -2.8156 -1.7795  1.1784
 7791SOL    HW330937   3.540   1.089   4.749 -2.2851 -0.8690 -1.4446
 7791SOL    MW430938   3.543   1.004   4.767  0.6997 -0.1756  0.5971
 7792SOL     OW30939   0.383   2.981   5.527  0.4113 -0.2032  0.2130
 7792SOL    HW230940   0.455   2.979   5.590 -0.7481  1.3010  1.6877
 7792SOL    HW330941   0.320   3.044   5.564 -0.6565  0.2139 -2.1009
 7792SOL    MW430942   0.384   2.989   5.540  0.2624 -0.6958  0.1289
 7793SOL     OW30943   5.996   6.363   3.768  0.5124 -0.2145  0.3055
 7793SOL    HW230944   6.006   6.433   3.832  1.1946 -0.4901  0.4984
 7793SOL    HW330945   6.084   6.348   3.734  0.3445 -0.8842  0.1564
 7793SOL    MW430946   6.009   6.371   3.772 -0.2211  0.0888  0.3746
 7794SOL     OW30947   4.693   5.294   5.682 -0.2727  0.1724 -0.1934
 7794SOL    HW230948   4.755   5.363   5.705  0.2649  0.0238 -1.1176
 7794SOL    HW330949   4.668   5.255   5.766  0.9510  0.1881  0.2068
 7794SOL    MW430950   4.698   5.298   5.696  0.1791 -0.2610  0.0176
 7795SOL     OW30951   0.900   2.424   3.659  0.0646 -0.7825 -0.2753
 7795SOL    HW230952   0.988   2.428   3.695  0.0995 -1.7333 -0.2296
 7795SOL    HW330953   0.847   2.383   3.728 -0.3427 -0.5354 -0.4349
 7795SOL    MW430954   0.904   2.419   3.673  0.3797 -0.2235 -0.3412
 7796SOL     OW30955   2.299   5.213   5.056 -0.0922  0.2855 -0.4704
 7796SOL    HW230956   2.203   5.216   5.062  0.0086  1.8730  1.2542
 7796SOL    HW330957   2.316   5.185   4.967 -2.1616 -0.6239 -0.6490
 7796SOL    MW430958   2.288   5.209   5.045  0.1479 -0.3478 -0.2115
 7797SOL     OW30959   2.571   3.349   3.129 -0.4320  0.0997  0.1771
 7797SOL    HW230960   2.537   3.399   3.203 -1.4663  0.5466 -0.5708
 7797SOL    HW330961   2.663   3.372   3.124 -0.9652  2.4039 -0.4696
 7797SOL    MW430962   2.578   3.359   3.138  0.3605 -0.4519  0.1140
 7798SOL     OW30963   4.104   5.299   2.815  0.1604 -0.4578 -0.4698
 7798SOL    HW230964   4.097   5.203   2.809 -0.4130 -0.5252  0.9401
 7798SOL    HW330965   4.150   5.314   2.897  2.8715  0.4388 -2.0254
 7798SOL    MW430966   4.109   5.288   2.825  0.5013  0.4662 -0.3058
 7799SOL     OW30967   5.655   1.922   3.575  0.1001 -0.6223 -0.4138
 7799SOL    HW230968   5.675   1.852   3.638 -1.9050 -0.0106  0.9895
 7799SOL    HW330969   5.624   1.994   3.629 -2.1928 -0.2430 -2.1110
 7799SOL    MW430970   5.654   1.922   3.590  1.1342 -0.5183 -0.0884
 7800SOL     OW30971   3.900   3.774   5.278 -0.3252  0.4836  0.4064
 7800SOL    HW230972   3.819   3.723   5.280 -1.3483  1.9225 -1.0632
 7800SOL    HW330973   3.871   3.864   5.293  1.1001  0.9626  0.4276
 7800SOL    MW430974   3.885   3.779   5.281  0.0722 -0.4598 -0.2716
 7801SOL     OW30975   1.125   0.583   0.783  0.3961  0.6280  0.2525
 7801SOL    HW230976   1.164   0.665   0.812 -0.1205  0.8341  0.3769
 7801SOL    HW330977   1.060   0.609   0.718 -0.5816  0.4307  1.1238
 7801SOL    MW430978   1.122   0.597   0.778 -0.1175 -0.6434  0.0612
 7802SOL     OW30979   0.827   4.460   5.200  0.4212  0.4510  0.1491
 7802SOL    HW230980   0.752   4.500   5.156 -0.2105  3.2387  3.3281
 7802SOL    HW330981   0.896   4.460   5.135 -1.5551  0.3480 -2.0676
 7802SOL    MW430982   0.826   4.465   5.186  0.0628  0.1528 -0.0386
 7803SOL     OW30983   5.909   1.666   1.788 -0.4378 -0.3750 -0.0550
 7803SOL    HW230984   5.941   1.578   1.811 -0.2553 -0.0132  1.1361
 7803SOL    HW330985   5.935   1.677   1.697 -0.9268 -1.7662 -0.3955
 7803SOL    MW430986   5.917   1.656   1.779 -0.1227  0.7081 -0.1580
 7804SOL     OW30987   4.197   6.411   1.673  0.1406 -0.4334  0.2928
 7804SOL    HW230988   4.252   6.465   1.731  1.1324 -1.3980  0.2957
 7804SOL    HW330989   4.169   6.338   1.729 -0.4270 -0.4023  0.0476
 7804SOL    MW430990   4.201   6.409   1.688 -0.3941  1.0084  0.4194
 7805SOL     OW30991   6.398   6.263   3.055  0.4951  0.3259  0.2232
 7805SOL    HW230992   6.412   6.230   3.144  1.8664 -0.5118 -0.2637
 7805SOL    HW330993   6.306   6.247   3.037  0.2384  0.3616  1.4290
 7805SOL    MW430994   6.388   6.256   3.064 -0.1794  0.2309 -0.5893
 7806SOL     OW30995   6.391   0.565   1.120  0.7373  0.6927  0.5183
 7806SOL    HW230996   6.460   0.604   1.066 -0.4020  1.8531 -0.1613
 7806SOL    HW330997   6.400   0.608   1.205  0.0275  1.8672  0.0247
 7806SOL    MW430998   6.401   0.576   1.124  0.1366 -0.1035 -0.1724
 7807SOL     OW30999   1.018   4.085   4.250  0.3702 -0.2897 -0.5188
 7807SOL    HW231000   1.013   4.099   4.345  0.9124  0.7552 -0.6280
 7807SOL    HW331001   0.954   4.146   4.214 -0.8335 -1.6479 -0.7801
 7807SOL    MW431002   1.009   4.095   4.258  0.1744 -0.1510 -0.6920
 7808SOL     OW31003   3.806   2.759   3.449 -0.0035 -0.2373  0.3685
 7808SOL    HW231004   3.828   2.735   3.359  0.0241  2.4312 -0.4289
 7808SOL    HW331005   3.736   2.699   3.473 -0.9634 -0.1644 -1.9510
 7808SOL    MW431006   3.800   2.748   3.440 -0.7049  0.1744 -0.4035
 7809SOL     OW31007   1.040   1.107   1.403 -1.0696 -1.0846 -0.2569
 7809SOL    HW231008   1.044   1.013   1.422 -0.8673 -1.1765 -0.7438
 7809SOL    HW331009   1.129   1.129   1.375 -0.9611 -0.6199  0.4259
 7809SOL    MW431010   1.052   1.097   1.402  0.0098  0.7151  0.1953
 7810SOL     OW31011   4.007   0.742   0.200 -0.5048 -0.2009  0.2407
 7810SOL    HW231012   4.087   0.794   0.206 -0.6947  0.2664 -1.0346
 7810SOL    HW331013   3.937   0.804   0.220 -0.7171  0.0041 -1.0914
 7810SOL    MW431014   4.008   0.757   0.204  0.2545  0.0780  0.4412
 7811SOL     OW31015   5.845   2.927   0.421 -0.0654  0.0186  0.3549
 7811SOL    HW231016   5.934   2.961   0.413 -0.0792  0.1880  0.9080
 7811SOL    HW331017   5.790   2.999   0.390  0.0471 -0.6731 -1.6175
 7811SOL    MW431018   5.849   2.941   0.416  0.0332 -1.0255 -0.0580
 7812SOL     OW31019   3.853   5.621   2.729 -0.1298  0.0572  0.4382
 7812SOL    HW231020   3.828   5.713   2.743  1.1650  0.7332 -1.3409
 7812SOL    HW331021   3.771   5.577   2.711 -0.5658  1.3544 -0.9735
 7812SOL    MW431022   3.839   5.628   2.729 -0.6202 -0.5846 -0.0479
 7813SOL     OW31023   4.768   0.953   1.361  0.0450 -0.0369  0.0398
 7813SOL    HW231024   4.822   1.023   1.324  0.0530 -0.7354 -1.3378
 7813SOL    HW331025   4.679   0.977   1.336 -0.1368  0.2964  0.9595
 7813SOL    MW431026   4.763   0.965   1.353  0.1083  0.7461  0.0644
 7814SOL     OW31027   2.052   3.506   1.160  0.2188  0.3785  0.3932
 7814SOL    HW231028   2.132   3.552   1.185  2.0072 -1.0401 -2.1751
 7814SOL    HW331029   1.985   3.574   1.158  1.1611  1.5303  3.1618
 7814SOL    MW431030   2.054   3.521   1.163  0.0535  0.2873 -0.6071
 7815SOL     OW31031   4.931   4.573   1.727  0.4589  0.4374 -0.4860
 7815SOL    HW231032   4.920   4.634   1.654 -0.1007  0.1651 -0.6340
 7815SOL    HW331033   4.925   4.487   1.687  0.3926  0.2858 -0.1524
 7815SOL    MW431034   4.929   4.570   1.712 -0.0055 -0.4566  0.0380
 7816SOL     OW31035   4.487   4.514   4.791 -0.0615 -0.5406 -0.1684
 7816SOL    HW231036   4.499   4.422   4.769 -0.7267 -1.1826  1.9029
 7816SOL    HW331037   4.566   4.538   4.839  0.9351  0.5524 -2.2177
 7816SOL    MW431038   4.499   4.505   4.794 -0.3866  0.6152  0.2995
 7817SOL     OW31039   1.943   4.726   2.467 -0.0262  0.4913  0.0810
 7817SOL    HW231040   1.853   4.746   2.439  0.5972  2.1426 -0.9180
 7817SOL    HW331041   1.970   4.653   2.412 -0.7738 -0.0599  0.4334
 7817SOL    MW431042   1.935   4.719   2.456  0.1849 -0.8868 -0.1144
 7818SOL     OW31043   3.937   2.679   5.181 -0.2666 -0.0289 -0.3880
 7818SOL    HW231044   3.966   2.743   5.115 -0.2034 -0.4085 -0.7319
 7818SOL    HW331045   4.013   2.666   5.237 -0.4373  0.5908  0.0083
 7818SOL    MW431046   3.951   2.686   5.179 -0.2170 -0.5420 -0.3186
 7819SOL     OW31047   3.754   5.942   0.389  0.4367 -0.0022  0.1343
 7819SOL    HW231048   3.738   6.000   0.464  1.2077  0.7884 -0.2986
 7819SOL    HW331049   3.744   5.853   0.425 -1.5178  0.3755  0.6259
 7819SOL    MW431050   3.750   5.938   0.404 -0.4223 -0.1035  0.7922
 7820SOL     OW31051   2.399   2.972   2.523 -0.0602  0.0621 -0.3529
 7820SOL    HW231052   2.374   2.923   2.445  0.4403 -1.1963  0.2697
 7820SOL    HW331053   2.316   2.987   2.568 -0.2001 -0.3022 -0.4855
 7820SOL    MW431054   2.384   2.968   2.518  0.9737 -0.4389  0.1450
 7821SOL     OW31055   5.314   5.659   2.772  0.0869  0.1822  0.6618
 7821SOL    HW231056   5.402   5.693   2.755  0.3070  0.3608  2.0046
 7821SOL    HW331057   5.284   5.708   2.850 -0.7511 -0.6511  0.8838
 7821SOL    MW431058   5.322   5.670   2.780  0.0435 -0.1932  0.3737
 7822SOL     OW31059   0.320   3.596   0.422  0.2352  0.2031  0.5703
 7822SOL    HW231060   0.226   3.584   0.434  0.0407 -1.0348 -1.6164
 7822SOL    HW331061   0.360   3.519   0.463 -0.1422 -1.8368 -2.4931
 7822SOL    MW431062   0.313   3.584   0.429 -0.3061  0.0182  0.0217
 7823SOL     OW31063   3.038   0.086   4.733  0.1743 -0.3765 -0.2763
 7823SOL    HW231064   3.025   0.163   4.789 -0.2552  0.9509 -2.1093
 7823SOL    HW331065   3.132   0.083   4.718  0.0570  0.7927 -1.4634
 7823SOL    MW431066   3.049   0.096   4.738 -0.3187  0.0719  0.1020
 7824SOL     OW31067   1.143   3.403   4.787  0.0083  0.4610 -0.3021
 7824SOL    HW231068   1.173   3.388   4.697 -0.8629  0.0467 -0.5347
 7824SOL    HW331069   1.051   3.426   4.778 -0.6668 -1.6152  0.5936
 7824SOL    MW431070   1.135   3.404   4.774 -0.0363 -0.5539 -0.2267
 7825SOL     OW31071   5.060   1.182   4.641 -0.3591 -0.1653 -0.7296
 7825SOL    HW231072   4.969   1.176   4.611 -0.4213 -1.4571 -0.3494
 7825SOL    HW331073   5.105   1.110   4.597  0.2105 -0.2715 -0.0000
 7825SOL    MW431074   5.054   1.172   4.631 -0.0703 -0.4211 -0.6931
 7826SOL     OW31075   1.943   3.821   6.291  0.2526 -0.0863  0.3935
 7826SOL    HW231076   1.907   3.821   6.380  0.2940  0.8761  0.4125
 7826SOL    HW331077   2.031   3.856   6.301  0.8190 -1.3747  0.1765
 7826SOL    MW431078   1.950   3.826   6.304  0.1357  0.5417  0.1896
 7827SOL     OW31079   6.388   5.486   5.480  0.1348 -0.8935  0.2439
 7827SOL    HW231080   6.341   5.509   5.560  1.9596  4.4002  0.1886
 7827SOL    HW331081   6.459   5.429   5.510  0.5060  0.5976  2.3929
 7827SOL    MW431082   6.391   5.482   5.495  0.0015 -0.5657  0.1933
 7828SOL     OW31083   4.516   1.412   1.424  0.5433  0.5301 -0.4187
 7828SOL    HW231084   4.518   1.379   1.334  0.7545 -1.8748  0.3905
 7828SOL    HW331085   4.423   1.413   1.447  0.6118 -1.8583  0.2663
 7828SOL    MW431086   4.504   1.408   1.415 -0.3944 -0.4014  0.1287
 7829SOL     OW31087   1.688   5.279   5.095 -0.3335  0.6166 -0.7282
 7829SOL    HW231088   1.746   5.280   5.019 -2.1957  2.3139 -2.2305
 7829SOL    HW331089   1.684   5.371   5.124  0.7761 -0.0462  1.8653
 7829SOL    MW431090   1.696   5.291   5.089 -0.1600  0.3904  0.1541
 7830SOL     OW31091   2.513   2.870   5.579  0.0636 -0.0546 -0.2138
 7830SOL    HW231092   2.558   2.954   5.586 -0.2408 -0.0173  2.7070
 7830SOL    HW331093   2.429   2.891   5.539  1.3214  0.3562 -2.8940
 7830SOL    MW431094   2.508   2.884   5.575 -0.2386  0.5140 -0.3449
 7831SOL     OW31095   3.311   2.334   5.704  0.6002  0.3943 -0.0468
 7831SOL    HW231096   3.356   2.409   5.743 -0.5986  1.3902 -0.5291
 7831SOL    HW331097   3.293   2.276   5.778  1.1471  0.7745  0.3978
 7831SOL    MW431098   3.314   2.336   5.719  0.2123  0.0431 -0.8149
 7832SOL     OW31099   5.180   6.199   0.544 -0.5671  0.2712 -0.3779
 7832SOL    HW231100   5.143   6.119   0.506  0.5785 -1.2173  1.4837
 7832SOL    HW331101   5.274   6.189   0.535 -0.2877  0.3003  1.8418
 7832SOL    MW431102   5.187   6.187   0.538 -0.0727  0.0582  0.2201
 7833SOL     OW31103   3.333   4.017   1.817 -0.7203  0.1283 -0.1027
 7833SOL    HW231104   3.428   4.013   1.825 -0.7570  1.6567  2.5281
 7833SOL    HW331105   3.317   4.085   1.752 -0.0014  0.4451  0.0414
 7833SOL    MW431106   3.343   4.026   1.810 -0.0075  0.4891  0.6418
 7834SOL     OW31107   1.613   1.081   4.426  0.3562  0.2042  0.0680
 7834SOL    HW231108   1.521   1.065   4.449  0.1008 -1.8170 -2.0032
 7834SOL    HW331109   1.663   1.020   4.479  0.4812  0.9650  0.8407
 7834SOL    MW431110   1.607   1.071   4.436  0.6200 -0.0698 -0.0043
 7835SOL     OW31111   2.437   5.757   4.000 -0.2310  0.0801  0.6738
 7835SOL    HW231112   2.344   5.778   4.006  0.0911  1.7537  0.3640
 7835SOL    HW331113   2.461   5.778   3.910  0.6775  0.7878  1.0627
 7835SOL    MW431114   2.428   5.763   3.989  0.2465 -0.1431  0.2818
 7836SOL     OW31115   4.209   5.071   5.121 -0.2816 -0.3076  0.2705
 7836SOL    HW231116   4.124   5.092   5.159 -1.8978 -1.9222 -2.1362
 7836SOL    HW331117   4.264   5.047   5.196 -1.7189  1.3555  1.9492
 7836SOL    MW431118   4.205   5.070   5.136  0.4832 -0.0934 -0.7534
 7837SOL     OW31119   0.132   5.342   3.971  0.4780 -0.1639 -0.3794
 7837SOL    HW231120   0.188   5.323   3.896  0.4722 -0.0784 -0.4048
 7837SOL    HW331121   0.073   5.411   3.942  2.0136  1.5660  0.4016
 7837SOL    MW431122   0.132   5.349   3.957  0.7553 -0.6357 -0.0059
 7838SOL     OW31123   4.320   3.654   0.910 -0.0331  0.4639  0.3202
 7838SOL    HW231124   4.332   3.735   0.860  2.1288  1.0666  1.6941
 7838SOL    HW331125   4.296   3.589   0.844  2.2550  1.3216 -1.5112
 7838SOL    MW431126   4.318   3.656   0.894  0.4252  0.1612  0.3163
 7839SOL     OW31127   1.454   3.144   3.021  0.2541 -0.1300 -0.3105
 7839SOL    HW231128   1.388   3.213   3.028 -1.4778 -1.7504  0.1434
 7839SOL    HW331129   1.493   3.157   2.935 -2.1489 -0.3301 -1.5110
 7839SOL    MW431130   1.450   3.155   3.011  0.7723 -0.4555 -0.1580
 7840SOL     OW31131   4.117   5.644   2.833  0.2626 -0.1983  0.3170
 7840SOL    HW231132   4.028   5.633   2.800  0.8063 -0.7597 -1.0212
 7840SOL    HW331133   4.121   5.736   2.860 -0.5534 -0.0231 -0.1256
 7840SOL    MW431134   4.106   5.655   2.832  0.5725  0.6353  1.0163
 7841SOL     OW31135   1.777   3.682   2.033 -0.1383 -0.5192 -0.2871
 7841SOL    HW231136   1.793   3.677   2.127  3.0045  0.4949 -0.6561
 7841SOL    HW331137   1.820   3.604   1.997  0.1366 -0.0398 -1.0146
 7841SOL    MW431138   1.784   3.671   2.040 -0.2666  0.2397 -0.4768
 7842SOL     OW31139   5.132   1.067   1.712  0.1464  0.6744 -0.0612
 7842SOL    HW231140   5.102   1.005   1.779 -0.8982 -1.3721 -2.2954
 7842SOL    HW331141   5.065   1.135   1.712  0.2029  0.7461  1.0102
 7842SOL    MW431142   5.119   1.068   1.721  0.0197  0.4371 -0.3360
 7843SOL     OW31143   4.484   5.792   2.481 -0.0737  0.5278  0.0103
 7843SOL    HW231144   4.411   5.763   2.427  0.2517  2.4892 -1.5849
 7843SOL    HW331145   4.448   5.799   2.570 -1.0896 -1.0140 -0.2540
 7843SOL    MW431146   4.470   5.789   2.486  0.1725 -0.3406  0.2469
 7844SOL     OW31147   1.541   6.474   6.246 -0.9586 -0.1715  0.3454
 7844SOL    HW231148   1.633   6.480   6.269 -0.0425  0.3110 -2.9800
 7844SOL    HW331149   1.536   6.401   6.185 -3.1128 -1.1416  1.5392
 7844SOL    MW431150   1.552   6.465   6.241 -0.5342  0.5997 -0.1427
 7845SOL     OW31151   2.267   1.236   0.352  0.8878 -0.4811 -0.3374
 7845SOL    HW231152   2.272   1.331   0.343  1.9848 -0.3132  1.5111
 7845SOL    HW331153   2.352   1.211   0.389 -0.4411 -1.7651  2.1244
 7845SOL    MW431154   2.279   1.245   0.356 -0.0533  0.1698  0.1817
 7846SOL     OW31155   2.964   5.401   2.969 -0.1521  0.3851 -0.0046
 7846SOL    HW231156   2.998   5.326   2.920  0.2933  0.9851 -0.6365
 7846SOL    HW331157   2.961   5.372   3.060 -0.3139 -0.5115 -0.2889
 7846SOL    MW431158   2.968   5.388   2.974  0.4324 -0.0825  0.0108
 7847SOL     OW31159   1.353   4.385   2.309  0.2015 -0.6058  0.1394
 7847SOL    HW231160   1.283   4.372   2.246  0.3397 -1.6920  0.2012
 7847SOL    HW331161   1.308   4.412   2.389 -0.1172 -0.9040  0.0644
 7847SOL    MW431162   1.338   4.387   2.311 -0.3941  0.1639  0.6821
 7848SOL     OW31163   3.567   4.654   0.102 -0.1304 -0.0323  0.2777
 7848SOL    HW231164   3.611   4.718   0.046 -0.8792  0.4005  0.1717
 7848SOL    HW331165   3.638   4.606   0.145  0.4446  0.1855 -0.4129
 7848SOL    MW431166   3.582   4.656   0.100 -0.0818  0.4653 -0.4302
 7849SOL     OW31167   6.041   4.773   6.060 -0.1243  0.1836 -0.4523
 7849SOL    HW231168   6.046   4.855   6.107 -2.4023 -0.0667  0.3258
 7849SOL    HW331169   6.102   4.784   5.986  0.6689  1.9875  0.4167
 7849SOL    MW431170   6.050   4.785   6.056  0.1185 -0.0475  0.3179
 7850SOL     OW31171   0.320   0.795   4.482 -0.4538 -0.0546  0.3368
 7850SOL    HW231172   0.402   0.797   4.532 -0.5239  1.1333  0.4340
 7850SOL    HW331173   0.251   0.794   4.548 -0.5249 -0.4354  0.2568
 7850SOL    MW431174   0.322   0.795   4.497  0.3013 -0.6307  0.0637
 7851SOL     OW31175   5.124   1.980   6.160  0.5291 -0.3055  0.5063
 7851SOL    HW231176   5.170   1.897   6.149  2.1877  0.5671  0.3723
 7851SOL    HW331177   5.085   1.975   6.247 -0.0898 -1.5314  0.1706
 7851SOL    MW431178   5.125   1.968   6.170  0.1792  0.1150 -0.3588
 7852SOL     OW31179   3.150   0.243   3.397  0.1063 -0.1889  0.0009
 7852SOL    HW231180   3.164   0.150   3.415  2.1040 -0.8858 -3.9908
 7852SOL    HW331181   3.067   0.246   3.350 -0.8828  0.3807  1.7213
 7852SOL    MW431182   3.141   0.231   3.393  0.1695 -0.3041 -0.8444
 7853SOL     OW31183   4.017   1.002   2.209  0.2344  0.2334  0.7485
 7853SOL    HW231184   4.048   1.086   2.243  1.4758 -0.0017  0.2554
 7853SOL    HW331185   4.097   0.953   2.189 -0.4333 -0.0543 -1.4643
 7853SOL    MW431186   4.031   1.007   2.211  0.0679  0.7878 -0.2142
 7854SOL     OW31187   4.845   1.705   0.976  0.0101 -0.6789 -0.1863
 7854SOL    HW231188   4.931   1.711   0.936 -0.0748 -0.8699 -0.4037
 7854SOL    HW331189   4.797   1.642   0.921 -0.5162  0.0015 -0.5159
 7854SOL    MW431190   4.850   1.697   0.963 -0.2093  0.0520 -0.2745
 7855SOL     OW31191   3.201   1.518   0.803  0.1379 -0.1550  0.2350
 7855SOL    HW231192   3.284   1.484   0.836 -0.0787 -3.0071 -1.7970
 7855SOL    HW331193   3.206   1.507   0.708 -2.2577  0.3766 -0.0139
 7855SOL    MW431194   3.213   1.512   0.795  0.0045  0.0764 -0.6065
 7856SOL     OW31195   0.246   3.770   3.509 -0.2457 -0.3767  0.0735
 7856SOL    HW231196   0.330   3.792   3.549  0.0436  0.4414 -0.9561
 7856SOL    HW331197   0.214   3.696   3.561  1.0066 -0.5763  0.5973
 7856SOL    MW431198   0.253   3.763   3.521  0.2593 -0.0491 -0.5906
 7857SOL     OW31199   3.679   1.403   0.900  0.5834 -0.1692 -0.5285
 7857SOL    HW231200   3.709   1.341   0.966  2.2581  0.6206 -0.4940
 7857SOL    HW331201   3.657   1.482   0.949 -2.0759 -0.8378 -0.5086
 7857SOL    MW431202   3.680   1.405   0.915  0.2512  0.4053 -0.8338
 7858SOL     OW31203   3.998   0.691   0.479 -0.2147 -0.1550  0.2302
 7858SOL    HW231204   3.999   0.658   0.389 -0.2894 -0.4287  0.3292
 7858SOL    HW331205   3.967   0.781   0.472  0.2689 -0.0104 -0.0751
 7858SOL    MW431206   3.994   0.699   0.466  0.1672  0.3735  0.4734
 7859SOL     OW31207   1.316   6.137   5.660 -0.6090 -0.4084 -0.3595
 7859SOL    HW231208   1.322   6.053   5.705 -1.2283 -1.5499 -2.2726
 7859SOL    HW331209   1.223   6.146   5.639 -1.0401  2.0771  2.0706
 7859SOL    MW431210   1.304   6.127   5.663 -0.7636 -0.5289 -0.3555
 7860SOL     OW31211   0.079   3.075   0.786  0.5080  0.4515  0.1495
 7860SOL    HW231212   0.092   3.117   0.701  0.0023  0.2990 -0.0091
 7860SOL    HW331213   0.075   3.148   0.848  0.6900  0.5737  0.0192
 7860SOL    MW431214   0.080   3.090   0.783 -0.8298  0.0897  0.1394
 7861SOL     OW31215   2.038   5.463   2.308 -0.1540 -0.1662 -0.2684
 7861SOL    HW231216   2.012   5.529   2.244  1.4182  0.0569 -0.7158
 7861SOL    HW331217   2.123   5.431   2.277 -1.4827 -3.4641 -0.8548
 7861SOL    MW431218   2.046   5.467   2.296 -0.1541  0.5694 -0.0492
 7862SOL     OW31219   4.188   3.761   5.196  0.5868  0.4727 -0.0352
 7862SOL    HW231220   4.189   3.765   5.101 -1.7310 -0.6923 -0.1968
 7862SOL    HW331221   4.096   3.747   5.218  1.1460  0.0539  2.3431
 7862SOL    MW431222   4.176   3.759   5.187 -0.1540  0.8942 -0.4359
 7863SOL     OW31223   0.633   0.449   1.281 -0.3310  0.0536  0.4160
 7863SOL    HW231224   0.598   0.535   1.305 -0.1335  0.2485 -0.0057
 7863SOL    HW331225   0.645   0.452   1.187 -1.4094 -0.8304  0.2171
 7863SOL    MW431226   0.630   0.460   1.272 -0.3279 -0.2334  0.1019
 7864SOL     OW31227   3.952   4.591   1.443 -0.3323 -0.3529 -0.1162
 7864SOL    HW231228   3.888   4.590   1.372 -0.9742  1.6455  0.3658
 7864SOL    HW331229   3.920   4.658   1.503  1.6494 -0.0509  0.6774
 7864SOL    MW431230   3.940   4.600   1.441  0.2054 -0.0246  0.0743
 7865SOL     OW31231   6.227   5.437   4.175 -0.6702 -0.6698  0.2947
 7865SOL    HW231232   6.265   5.361   4.130 -0.1381 -0.8773  1.0900
 7865SOL    HW331233   6.205   5.498   4.104  0.4544 -0.8620 -0.2368
 7865SOL    MW431234   6.229   5.435   4.159 -0.0244  0.0654  0.4218
 7866SOL     OW31235   6.305   3.125   2.028  0.1221  0.0500 -0.5958
 7866SOL    HW231236   6.329   3.152   2.116  1.6081 -3.2224  0.1566
 7866SOL    HW331237   6.211   3.108   2.033  0.0900  0.4132  0.1771
 7866SOL    MW431238   6.296   3.126   2.040  0.2464  0.3816  0.7113
 7867SOL     OW31239   5.132   6.335   0.193  0.8581 -0.4407 -0.4356
 7867SOL    HW231240   5.175   6.413   0.229 -0.0495 -0.7255  1.4092
 7867SOL    HW331241   5.056   6.369   0.145 -0.1164 -0.1737  1.2078
 7867SOL    MW431242   5.128   6.350   0.192 -0.8241 -0.2314 -0.5797
 7868SOL     OW31243   5.821   4.701   2.057 -0.2445 -0.7754  0.0476
 7868SOL    HW231244   5.759   4.772   2.043 -0.9403 -1.3550  0.1041
 7868SOL    HW331245   5.835   4.663   1.970  0.8068 -0.0351 -0.1260
 7868SOL    MW431246   5.815   4.705   2.043 -0.0469  0.1651 -0.0055
 7869SOL     OW31247   0.374   5.658   6.393 -0.1685  0.1924 -0.1139
 7869SOL    HW231248   0.287   5.650   6.432 -1.3212 -0.3890 -2.5911
 7869SOL    HW331249   0.359   5.708   6.313  1.7569 -0.0629 -0.6700
 7869SOL    MW431250   0.360   5.663   6.388 -0.5441 -0.1700 -0.2080
 7870SOL     OW31251   6.048   4.525   3.420 -0.2136 -0.2131  0.6259
 7870SOL    HW231252   6.017   4.510   3.510 -1.5926  0.7230  0.3501
 7870SOL    HW331253   6.109   4.453   3.403  0.2003 -0.3187  2.3613
 7870SOL    MW431254   6.052   4.514   3.430 -0.9056  0.4290 -0.0097
 7871SOL     OW31255   4.522   5.087   1.844  0.4113 -0.0781  0.8381
 7871SOL    HW231256   4.506   5.003   1.886  1.4631 -1.2290 -0.9352
 7871SOL    HW331257   4.604   5.117   1.883  0.8092 -0.6151  0.4417
 7871SOL    MW431258   4.531   5.080   1.855 -0.7255 -0.1205 -0.2657
 7872SOL     OW31259   2.127   2.112   3.124 -0.3677 -0.4377 -0.2896
 7872SOL    HW231260   2.068   2.095   3.051  1.3136 -0.2365 -1.7562
 7872SOL    HW331261   2.118   2.035   3.180 -0.7214 -1.2181 -1.3817
 7872SOL    MW431262   2.118   2.100   3.122  0.3091 -0.2115  0.1455
 7873SOL     OW31263   0.685   0.728   4.086  0.2998  0.5075  0.1016
 7873SOL    HW231264   0.726   0.734   4.000 -0.6553  0.9752 -0.3305
 7873SOL    HW331265   0.759   0.725   4.147  1.0000  2.2179 -0.5987
 7873SOL    MW431266   0.700   0.729   4.083 -0.0808 -0.3888 -0.2967
 7874SOL     OW31267   6.060   4.314   5.394 -0.2735  0.5696  0.3595
 7874SOL    HW231268   5.973   4.347   5.415 -1.0475 -1.0352 -0.2021
 7874SOL    HW331269   6.049   4.265   5.313  1.5458  1.8707 -0.7649
 7874SOL    MW431270   6.047   4.312   5.386 -0.0882 -0.0540  0.3592
 7875SOL     OW31271   3.191   0.611   0.844  0.2966  0.2210  0.5088
 7875SOL    HW231272   3.261   0.652   0.793 -0.7009  0.1011 -1.0156
 7875SOL    HW331273   3.115   0.613   0.786 -0.6220 -0.8522  1.6291
 7875SOL    MW431274   3.190   0.617   0.830  0.3872  0.4583  0.0495
 7876SOL     OW31275   1.844   5.981   2.516  0.5189 -0.1621  0.2563
 7876SOL    HW231276   1.774   5.918   2.499  0.8283 -0.3079 -0.5200
 7876SOL    HW331277   1.920   5.927   2.539  0.6519 -0.0546  0.0772
 7876SOL    MW431278   1.845   5.966   2.517  0.8444  0.5017  0.4974
 7877SOL     OW31279   5.882   4.949   1.115  0.2204 -0.1971 -0.1096
 7877SOL    HW231280   5.821   5.005   1.068  0.2760 -0.3039 -0.3119
 7877SOL    HW331281   5.863   4.861   1.083 -0.1210 -0.3459  0.4829
 7877SOL    MW431282   5.872   4.945   1.105 -0.2718 -0.0364  0.0638
 7878SOL     OW31283   0.282   4.892   0.697  0.2996 -0.6848  0.0472
 7878SOL    HW231284   0.356   4.950   0.682 -1.1122  1.4684  0.8293
 7878SOL    HW331285   0.228   4.900   0.618  0.1498 -1.0527  0.1050
 7878SOL    MW431286   0.284   4.900   0.685  0.4330  0.1236  0.4452
 7879SOL     OW31287   5.669   2.354   6.171 -0.3268  0.5027  0.2832
 7879SOL    HW231288   5.752   2.387   6.135  0.5748 -1.6557  0.2536
 7879SOL    HW331289   5.665   2.391   6.259  1.0437  0.0746  0.5490
 7879SOL    MW431290   5.679   2.363   6.178 -0.3207  0.2319 -0.1150
 7880SOL     OW31291   0.197   1.172   5.442  0.3000 -0.0527  0.0053
 7880SOL    HW231292   0.194   1.116   5.365  3.0569 -0.3945  0.0291
 7880SOL    HW331293   0.198   1.261   5.407  0.1035 -0.1597 -0.2735
 7880SOL    MW431294   0.197   1.176   5.427  0.0576  0.3394  0.5152
 7881SOL     OW31295   1.886   3.466   1.662  0.1001 -0.7397 -0.5012
 7881SOL    HW231296   1.976   3.464   1.630 -0.5096  0.3964 -2.4482
 7881SOL    HW331297   1.860   3.558   1.653 -1.5883 -1.2402 -1.0343
 7881SOL    MW431298   1.895   3.478   1.657  0.0238 -0.5033  0.1319
 7882SOL     OW31299   2.649   4.212   1.103 -0.1409  0.5556 -0.1179
 7882SOL    HW231300   2.738   4.181   1.086 -0.1870 -0.5820  1.4791
 7882SOL    HW331301   2.593   4.138   1.078 -0.4547  0.3667  1.0844
 7882SOL    MW431302   2.654   4.198   1.097 -0.4262  0.1255 -0.0937
 7883SOL     OW31303   5.680   1.704   4.918 -0.2210 -0.2126  0.4556
 7883SOL    HW231304   5.627   1.769   4.871  0.7204 -0.1565 -0.5775
 7883SOL    HW331305   5.770   1.735   4.908  0.0746 -0.6945  1.5433
 7883SOL    MW431306   5.685   1.717   4.910 -0.0127  0.0697 -0.6780
 7884SOL     OW31307   5.905   3.309   4.494 -0.2881  0.9065  0.3551
 7884SOL    HW231308   5.989   3.316   4.540  0.4108 -0.6662 -0.5834
 7884SOL    HW331309   5.857   3.241   4.542 -0.4780  0.8536  0.0887
 7884SOL    MW431310   5.910   3.301   4.507 -0.1982  0.0679 -0.5614
 7885SOL     OW31311   3.545   4.969   6.390  0.1781 -0.3301  0.0719
 7885SOL    HW231312   3.473   5.028   6.368  1.3273  1.8988  1.8067
 7885SOL    HW331313   3.531   4.946   6.482 -0.2077 -2.8511 -0.5293
 7885SOL    MW431314   3.534   4.974   6.399 -0.0965 -0.1595  0.4262
 7886SOL     OW31315   2.122   3.927   0.185  0.0823  0.2545 -0.3615
 7886SOL    HW231316   2.162   3.896   0.267 -0.9202 -2.4324 -0.7918
 7886SOL    HW331317   2.043   3.973   0.213  1.2208  1.9537  0.2627
 7886SOL    MW431318   2.117   3.929   0.199  0.6217  0.3135  0.2663
 7887SOL     OW31319   4.644   2.881   1.617 -0.1922  0.1754  0.2102
 7887SOL    HW231320   4.675   2.896   1.706  2.8171  2.8639 -1.1076
 7887SOL    HW331321   4.706   2.817   1.581 -0.4711  0.2555 -0.4187
 7887SOL    MW431322   4.656   2.874   1.624  0.0592 -0.3163  0.1688
 7888SOL     OW31323   1.227   1.861   1.526  0.6052  0.3769 -0.3496
 7888SOL    HW231324   1.160   1.861   1.594  1.0685 -3.4860  0.3342
 7888SOL    HW331325   1.181   1.887   1.446 -1.2231 -0.1473  0.4924
 7888SOL    MW431326   1.212   1.864   1.524 -0.1238  0.4347  0.9533
 7889SOL     OW31327   2.307   4.646   0.819 -0.2168  0.4045  0.5394
 7889SOL    HW231328   2.380   4.679   0.766 -0.7227  1.5017  0.4914
 7889SOL    HW331329   2.275   4.723   0.867 -1.1696 -0.1092  0.7636
 7889SOL    MW431330   2.312   4.661   0.818 -0.1225 -0.0006  0.2619
 7890SOL     OW31331   1.056   0.088   1.619  0.1479 -0.3658  0.1293
 7890SOL    HW231332   1.032   0.124   1.534 -1.0236  1.7047  1.2483
 7890SOL    HW331333   1.002   0.010   1.628 -0.0931 -0.3231 -0.8082
 7890SOL    MW431334   1.045   0.082   1.609 -0.2042  0.3609 -0.1793
 7891SOL     OW31335   0.295   2.635   0.906 -0.0506 -0.6429  0.1954
 7891SOL    HW231336   0.235   2.613   0.835 -0.7675 -2.2347  1.2359
 7891SOL    HW331337   0.264   2.719   0.938  0.6900  0.4434 -1.7543
 7891SOL    MW431338   0.283   2.643   0.901  0.2959 -0.3618  0.1266
 7892SOL     OW31339   3.447   3.596   0.899  0.4941 -0.1855  0.3642
 7892SOL    HW231340   3.446   3.655   0.974  0.4229  0.8771 -0.4562
 7892SOL    HW331341   3.524   3.623   0.848 -0.8420  0.8128 -1.2462
 7892SOL    MW431342   3.457   3.607   0.902  0.1617  0.4387 -0.1995
 7893SOL     OW31343   1.757   1.696   6.408 -0.6763  0.1810  0.3907
 7893SOL    HW231344   1.811   1.619   6.389  0.4945  0.8958  0.6774
 7893SOL    HW331345   1.671   1.675   6.372  0.0135 -0.6620 -0.8449
 7893SOL    MW431346   1.753   1.683   6.401  0.7545  0.3228  0.2173
 7894SOL     OW31347   6.391   6.094   3.647  0.2418 -0.0334  0.3068
 7894SOL    HW231348   6.329   6.022   3.655  0.2008 -0.0433 -0.1122
 7894SOL    HW331349   6.465   6.058   3.598 -0.7175  0.7925 -1.8666
 7894SOL    MW431350   6.393   6.080   3.642  0.4567 -0.1228  0.1404
 7895SOL     OW31351   2.494   4.676   1.901 -0.2179 -0.1141  0.0377
 7895SOL    HW231352   2.510   4.594   1.948  0.5874  0.2920  0.5018
 7895SOL    HW331353   2.398   4.684   1.898 -0.3049 -1.0684 -0.0255
 7895SOL    MW431354   2.483   4.666   1.907  0.4164  0.4285 -0.1463
 7896SOL     OW31355   5.512   1.263   6.368 -0.2169 -0.1923 -0.2162
 7896SOL    HW231356   5.537   1.345   6.410  0.9213  0.5126 -2.1383
 7896SOL    HW331357   5.417   1.259   6.377 -0.3007  1.4132 -0.1910
 7896SOL    MW431358   5.503   1.273   6.375 -0.0066  0.0142  0.0754
 7897SOL     OW31359   2.876   5.077   2.226 -0.1014 -0.0822 -0.2586
 7897SOL    HW231360   2.875   4.987   2.258  0.5965 -0.1237 -0.3386
 7897SOL    HW331361   2.963   5.110   2.249 -0.3217  0.5469 -0.2979
 7897SOL    MW431362   2.887   5.069   2.233 -0.3811  0.0440 -0.1657
 7898SOL     OW31363   4.933   0.097   4.377  0.2054  0.5851 -0.1653
 7898SOL    HW231364   4.916   0.188   4.403  1.7649  0.5293  1.2005
 7898SOL    HW331365   5.028   0.088   4.383  0.1061 -1.0503 -0.6489
 7898SOL    MW431366   4.943   0.108   4.381 -0.8085 -0.0211 -0.0259
 7899SOL     OW31367   4.226   1.913   5.226 -0.2443  0.2111  0.3435
 7899SOL    HW231368   4.185   1.827   5.229  0.6527 -0.2110  0.7279
 7899SOL    HW331369   4.319   1.896   5.240  0.2509  1.0448 -1.6884
 7899SOL    MW431370   4.233   1.900   5.228 -0.5545  0.4293  0.3705
 7900SOL     OW31371   6.231   5.284   5.243 -0.4301 -0.6744  0.8920
 7900SOL    HW231372   6.245   5.248   5.330 -0.8371 -1.1364  0.7688
 7900SOL    HW331373   6.315   5.324   5.220 -0.1774 -0.9636  1.3030
 7900SOL    MW431374   6.244   5.285   5.251 -0.5739  0.0512 -0.1158
 7901SOL     OW31375   0.534   0.580   2.573 -0.1361  0.3123 -0.4338
 7901SOL    HW231376   0.479   0.501   2.573 -1.8714  1.4819  0.1468
 7901SOL    HW331377   0.493   0.638   2.509  2.6269 -0.1674 -2.8924
 7901SOL    MW431378   0.521   0.577   2.564 -0.0097 -0.4064  0.3923
 7902SOL     OW31379   3.401   3.161   2.560  0.3335 -0.4473  0.5546
 7902SOL    HW231380   3.465   3.204   2.504 -1.6261  0.1380 -1.3601
 7902SOL    HW331381   3.433   3.071   2.567  0.7490 -0.5039 -1.4052
 7902SOL    MW431382   3.414   3.155   2.554  0.1329 -0.1203  0.2444
 7903SOL     OW31383   0.636   5.332   2.183 -0.0078  0.0825 -0.2130
 7903SOL    HW231384   0.659   5.420   2.212  1.3256 -0.8118  1.6704
 7903SOL    HW331385   0.594   5.292   2.259  2.4223 -1.9413  0.2194
 7903SOL    MW431386   0.634   5.338   2.197  0.4359  0.7949  0.2552
 7904SOL     OW31387   3.263   0.245   3.990 -0.9657 -0.7263  0.0324
 7904SOL    HW231388   3.177   0.240   3.949 -0.2725 -0.1255 -1.6147
 7904SOL    HW331389   3.310   0.169   3.955  0.3541  0.9721 -2.1954
 7904SOL    MW431390   3.258   0.234   3.980  0.8106  0.4292 -0.2100
 7905SOL     OW31391   3.341   2.766   3.764 -0.9024  0.6579 -0.5481
 7905SOL    HW231392   3.431   2.772   3.794 -0.5373  0.9368 -1.6822
 7905SOL    HW331393   3.318   2.854   3.737 -1.4189  0.5250 -0.5562
 7905SOL    MW431394   3.349   2.778   3.764 -0.0036 -0.5401 -0.1706
 7906SOL     OW31395   0.223   1.035   4.917  0.4029 -0.1301  0.3335
 7906SOL    HW231396   0.261   0.968   4.860  0.3121  1.6164 -1.9663
 7906SOL    HW331397   0.215   0.993   5.002  2.3479 -2.3039 -0.4497
 7906SOL    MW431398   0.227   1.020   4.920 -0.5453 -0.0307  0.1877
 7907SOL     OW31399   3.611   2.178   0.977  0.4052 -0.2242 -0.0664
 7907SOL    HW231400   3.651   2.092   0.971 -0.9137 -0.8277 -0.4510
 7907SOL    HW331401   3.631   2.220   0.894 -0.4812 -0.8593 -0.6180
 7907SOL    MW431402   3.619   2.172   0.965 -0.2193  0.2729  0.2045
 7908SOL     OW31403   6.001   4.180   4.030  0.2357  0.3841 -0.0004
 7908SOL    HW231404   6.005   4.275   4.018 -1.5405  0.5148  0.0856
 7908SOL    HW331405   6.092   4.152   4.037  0.9593  1.6931 -2.8131
 7908SOL    MW431406   6.013   4.189   4.029 -0.9784  0.0414  0.0367
 7909SOL     OW31407   3.618   5.519   3.877  0.1683  0.0707 -0.5998
 7909SOL    HW231408   3.585   5.600   3.838  1.5183 -0.1234 -2.2700
 7909SOL    HW331409   3.625   5.458   3.804  1.9354 -0.5994  0.0679
 7909SOL    MW431410   3.615   5.522   3.862 -0.3436  0.2838  0.7667
 7910SOL     OW31411   1.291   4.074   4.173  0.8451  0.7229  0.1812
 7910SOL    HW231412   1.195   4.077   4.179  0.7799  1.7225 -0.9509
 7910SOL    HW331413   1.308   3.996   4.120  0.7885 -0.6184  2.0620
 7910SOL    MW431414   1.281   4.064   4.167  0.3762  0.0575  0.3857
 7911SOL     OW31415   2.445   4.282   1.407 -0.1780 -0.0895  0.3045
 7911SOL    HW231416   2.452   4.200   1.358 -1.2649 -0.4415  0.7066
 7911SOL    HW331417   2.437   4.255   1.498 -1.7246  0.3897  0.3419
 7911SOL    MW431418   2.445   4.268   1.413  0.2556 -0.1454  0.2213
 7912SOL     OW31419   0.647   2.971   1.904 -0.4391  0.0804  0.6781
 7912SOL    HW231420   0.576   2.998   1.846 -0.5598 -1.2384  0.1839
 7912SOL    HW331421   0.604   2.918   1.971 -0.2313  1.1945  1.7331
 7912SOL    MW431422   0.632   2.968   1.906  0.5220  0.0099  0.0922
 7913SOL     OW31423   5.338   2.192   3.389 -0.2828 -0.5999  0.2428
 7913SOL    HW231424   5.275   2.190   3.317  0.9199  0.2839 -0.8926
 7913SOL    HW331425   5.367   2.283   3.393 -0.2416 -0.6463  1.8090
 7913SOL    MW431426   5.334   2.204   3.380 -0.6635 -0.0025  0.4420
 7914SOL     OW31427   1.851   3.733   1.637 -0.9578 -0.3397 -0.0937
 7914SOL    HW231428   1.870   3.779   1.555  0.9930  1.2795  1.1843
 7914SOL    HW331429   1.755   3.733   1.643 -1.2115 -1.3280 -2.7706
 7914SOL    MW431430   1.841   3.739   1.627 -0.6918  0.2559 -0.0695
 7915SOL     OW31431   6.360   1.838   0.263  0.0143 -0.0850 -0.2594
 7915SOL    HW231432   6.315   1.921   0.250 -0.4513 -0.1814  0.6490
 7915SOL    HW331433   6.389   1.841   0.355 -2.2076 -1.9517  0.5911
 7915SOL    MW431434   6.358   1.849   0.273  0.1142  0.5237  0.3033
 7916SOL     OW31435   5.701   0.652   1.112 -0.5519 -0.1018 -0.0814
 7916SOL    HW231436   5.784   0.687   1.144 -1.2530 -0.1835  2.0048
 7916SOL    HW331437   5.652   0.729   1.083 -0.6722  0.2418  1.0022
 7916SOL    MW431438   5.705   0.666   1.112 -0.5059  0.2384  0.0823
 7917SOL     OW31439   4.079   3.997   2.565 -0.1010  0.1543  0.5138
 7917SOL    HW231440   4.142   4.069   2.574 -0.6848  0.6883  0.4021
 7917SOL    HW331441   4.076   3.957   2.652 -0.2660  0.6856  0.7567
 7917SOL    MW431442   4.087   4.001   2.577 -0.3080  0.0949  0.3128
 7918SOL     OW31443   0.179   5.203   1.825  0.0967 -0.2289 -0.2288
 7918SOL    HW231444   0.155   5.269   1.889  0.6203  0.0084 -0.2789
 7918SOL    HW331445   0.226   5.251   1.756  1.1403 -0.7513  0.0960
 7918SOL    MW431446   0.182   5.218   1.824  0.0737  0.3265  0.0630
 7919SOL     OW31447   2.657   0.137   4.847 -0.4065  0.4188 -0.2248
 7919SOL    HW231448   2.678   0.057   4.799  2.5313  0.0251  1.4353
 7919SOL    HW331449   2.633   0.200   4.779  0.5000 -0.9715 -1.9222
 7919SOL    MW431450   2.657   0.135   4.832  0.1999  0.1726  0.3471
 7920SOL     OW31451   0.483   3.939   3.640 -0.2446  0.7763 -0.4111
 7920SOL    HW231452   0.465   3.911   3.729  0.7100 -0.8833 -0.6925
 7920SOL    HW331453   0.574   3.914   3.625 -0.9321 -0.7816 -2.4710
 7920SOL    MW431454   0.493   3.932   3.650  0.2000  0.1690  0.3313
 7921SOL     OW31455   5.421   5.395   1.332  0.1046 -0.3250 -0.2709
 7921SOL    HW231456   5.401   5.478   1.376 -1.2146 -0.4795 -0.5370
 7921SOL    HW331457   5.445   5.420   1.243  1.4287 -0.1175  0.1210
 7921SOL    MW431458   5.422   5.409   1.326 -0.9389  0.0446  0.2935
 7922SOL     OW31459   3.334   0.568   3.127  0.3045  0.2999 -0.2834
 7922SOL    HW231460   3.367   0.498   3.183  3.1552  2.0079  0.3536
 7922SOL    HW331461   3.292   0.629   3.187  0.9684  0.8258 -0.3439
 7922SOL    MW431462   3.333   0.566   3.142 -0.1156  0.3863 -0.3051
 7923SOL     OW31463   3.636   4.245   3.324  0.5746 -0.1045  0.0148
 7923SOL    HW231464   3.571   4.316   3.326  0.8071  0.1555 -0.9659
 7923SOL    HW331465   3.635   4.215   3.233  0.3986 -1.4595  0.4371
 7923SOL    MW431466   3.627   4.251   3.312  0.1044  0.1043 -0.3381
 7924SOL     OW31467   2.151   0.345   1.963 -0.2697 -0.4532  0.5715
 7924SOL    HW231468   2.073   0.291   1.948 -1.2702  1.0016  0.3517
 7924SOL    HW331469   2.120   0.416   2.019  0.8978  0.1705  0.4478
 7924SOL    MW431470   2.136   0.347   1.969 -0.0608  0.0425 -0.4045
 7925SOL     OW31471   3.408   6.134   6.194 -0.4434  0.3408 -0.3037
 7925SOL    HW231472   3.414   6.202   6.261  3.0095 -1.3790  1.3997
 7925SOL    HW331473   3.457   6.168   6.120 -0.7847  0.6279 -0.4010
 7925SOL    MW431474   3.415   6.147   6.193 -0.3185  0.1739  0.3672
 7926SOL     OW31475   0.327   3.257   2.789 -0.3800  0.4035  0.5930
 7926SOL    HW231476   0.289   3.200   2.856  0.4227  0.8320  1.4281
 7926SOL    HW331477   0.278   3.339   2.798 -0.5365  0.3338  0.3849
 7926SOL    MW431478   0.315   3.260   2.799 -0.2293 -1.0216  0.0674
 7927SOL     OW31479   3.488   3.130   0.251 -0.3244 -0.8161  0.4136
 7927SOL    HW231480   3.428   3.072   0.296  0.2628 -2.0111 -0.2979
 7927SOL    HW331481   3.488   3.099   0.160 -1.5756  1.5984 -0.5078
 7927SOL    MW431482   3.480   3.118   0.245 -0.0198  0.4663 -0.1816
 7928SOL     OW31483   4.084   0.192   5.216  0.2705  0.0434  0.8891
 7928SOL    HW231484   4.123   0.104   5.218  0.7993  0.2401 -0.0276
 7928SOL    HW331485   4.157   0.250   5.195 -0.3417  0.5256  0.0403
 7928SOL    MW431486   4.099   0.188   5.213 -0.1094 -0.0151 -0.1607
 7929SOL     OW31487   4.238   2.124   0.905 -0.1653  0.5433  0.4068
 7929SOL    HW231488   4.259   2.032   0.888 -0.7575  0.5256 -0.2795
 7929SOL    HW331489   4.297   2.150   0.977 -0.0075 -0.3700  0.6136
 7929SOL    MW431490   4.248   2.116   0.912  0.1373 -0.1332  0.4393
 7930SOL     OW31491   1.621   2.919   4.282  0.1918 -0.4927 -0.3382
 7930SOL    HW231492   1.606   2.874   4.199 -2.6006  0.8482 -0.6746
 7930SOL    HW331493   1.554   2.885   4.340  0.6707  0.2500  0.6865
 7930SOL    MW431494   1.611   2.908   4.279  0.5476  0.1888 -0.1980
 7931SOL     OW31495   1.103   5.138   1.276  0.1073 -0.0260 -0.3821
 7931SOL    HW231496   1.146   5.185   1.205  0.2442  0.0936 -0.2206
 7931SOL    HW331497   1.170   5.079   1.311  0.5787  1.1497  0.7752
 7931SOL    MW431498   1.117   5.137   1.271  0.5012 -0.2119 -0.3640
 7932SOL     OW31499   4.836   0.893   0.108 -0.5164  0.0104  0.0205
 7932SOL    HW231500   4.825   0.863   0.018 -2.1816 -0.9343  0.5066
 7932SOL    HW331501   4.826   0.988   0.103 -2.3242 -0.1833 -0.5807
 7932SOL    MW431502   4.833   0.902   0.095 -0.4655  0.3489  0.1145
 7933SOL     OW31503   5.894   6.448   5.249 -0.0277  0.0608 -0.3090
 7933SOL    HW231504   5.871   6.410   5.334  2.3182 -2.0308 -0.5033
 7933SOL    HW331505   5.850   6.391   5.185 -0.7492  0.8704 -0.5541
 7933SOL    MW431506   5.885   6.435   5.252  0.0073 -0.1622 -0.1949
 7934SOL     OW31507   0.564   6.037   1.757  0.2618  0.6873  0.5626
 7934SOL    HW231508   0.546   6.105   1.822 -2.3348 -0.4042  1.1482
 7934SOL    HW331509   0.563   6.083   1.673 -1.3794  1.4318  0.9515
 7934SOL    MW431510   0.561   6.052   1.754 -0.4907 -0.4113 -0.8189
 7935SOL     OW31511   2.164   5.177   1.338  0.2252  0.0792  0.2240
 7935SOL    HW231512   2.240   5.186   1.395  0.1308 -0.3810  0.4337
 7935SOL    HW331513   2.092   5.154   1.398  0.1112 -0.3387 -0.0666
 7935SOL    MW431514   2.164   5.175   1.353 -0.1872 -0.8213  0.6290
 7936SOL     OW31515   1.592   6.277   5.147 -0.1683 -0.4329 -0.0752
 7936SOL    HW231516   1.648   6.279   5.070  2.2846 -1.8604  1.5273
 7936SOL    HW331517   1.539   6.198   5.137  0.4577 -0.8511 -0.0943
 7936SOL    MW431518   1.592   6.267   5.136  0.2744  0.3480  0.1710
 7937SOL     OW31519   3.206   2.724   3.999 -0.1988 -0.1887 -0.1113
 7937SOL    HW231520   3.257   2.747   3.922 -1.4931  0.4899 -0.7929
 7937SOL    HW331521   3.177   2.808   4.034  2.1943 -0.2793  2.4728
 7937SOL    MW431522   3.209   2.738   3.994 -0.3195  0.2074  0.0412
 7938SOL     OW31523   2.045   5.167   6.143 -1.0328 -0.0061  0.2615
 7938SOL    HW231524   2.043   5.076   6.113 -0.3205  0.5408 -1.5574
 7938SOL    HW331525   2.084   5.162   6.230 -2.3033 -1.5650  0.7923
 7938SOL    MW431526   2.050   5.154   6.150 -0.5542  0.5166 -0.3738
 7939SOL     OW31527   0.841   1.391   2.511  0.1397 -0.4088  0.4933
 7939SOL    HW231528   0.817   1.482   2.494  0.5814 -0.2355  0.7666
 7939SOL    HW331529   0.758   1.345   2.522 -0.1100 -0.2042 -0.4670
 7939SOL    MW431530   0.827   1.397   2.510  0.2182 -0.0141 -0.1783
 7940SOL     OW31531   1.102   5.506   3.771 -0.1399  0.3285  0.8197
 7940SOL    HW231532   1.168   5.524   3.839 -1.4987  1.5598  1.8905
 7940SOL    HW331533   1.019   5.528   3.813 -1.2382 -1.1327 -0.5184
 7940SOL    MW431534   1.100   5.512   3.786 -0.0619 -0.2073 -0.2850
 7941SOL     OW31535   0.794   1.873   2.727 -0.1277 -0.2742 -0.4064
 7941SOL    HW231536   0.856   1.805   2.751 -1.0732 -0.8724  0.3760
 7941SOL    HW331537   0.849   1.944   2.693  0.9524 -0.9152 -0.0427
 7941SOL    MW431538   0.809   1.874   2.725 -0.6724  0.4868 -0.5351
 7942SOL     OW31539   4.941   3.214   4.522 -0.4631  0.0240 -0.1686
 7942SOL    HW231540   4.876   3.145   4.530 -3.4876  2.6654 -0.0770
 7942SOL    HW331541   4.928   3.250   4.434  4.0078 -2.0437 -1.9917
 7942SOL    MW431542   4.931   3.210   4.512  0.5248 -0.7350  0.6033
 7943SOL     OW31543   5.940   0.797   3.311  0.3035  0.1632  0.0032
 7943SOL    HW231544   5.846   0.813   3.315  0.1882 -0.6040  0.5409
 7943SOL    HW331545   5.961   0.800   3.218 -0.0994  1.1456 -0.0729
 7943SOL    MW431546   5.930   0.800   3.299  0.0416 -0.1217 -0.3413
 7944SOL     OW31547   3.376   0.644   2.609  0.4775  0.6834 -0.5453
 7944SOL    HW231548   3.454   0.591   2.620 -0.4903 -0.6270  0.1713
 7944SOL    HW331549   3.373   0.662   2.515  1.8318  1.0855 -0.5304
 7944SOL    MW431550   3.386   0.640   2.598  0.0019  1.0195  0.3482
 7945SOL     OW31551   1.637   1.325   0.825  0.1980  0.1558 -0.0684
 7945SOL    HW231552   1.557   1.277   0.803  0.0865  0.2168  0.2008
 7945SOL    HW331553   1.623   1.413   0.790 -1.0966  1.0626  2.4850
 7945SOL    MW431554   1.625   1.330   0.818  0.3667 -0.2922 -0.1205
 7946SOL     OW31555   5.387   1.271   5.387 -0.3684 -0.6591  0.0969
 7946SOL    HW231556   5.367   1.306   5.474  1.8982 -0.0898  0.4584
 7946SOL    HW331557   5.421   1.183   5.404 -0.3073 -0.7043 -0.2484
 7946SOL    MW431558   5.389   1.264   5.401 -0.2473 -0.2535 -0.0158
 7947SOL     OW31559   4.692   4.876   5.578  0.4356 -0.4171  0.3492
 7947SOL    HW231560   4.606   4.856   5.615  0.1419 -0.3531 -0.2929
 7947SOL    HW331561   4.714   4.799   5.526  0.1950  0.0823 -0.5051
 7947SOL    MW431562   4.683   4.863   5.576 -0.0615  0.5803 -0.2021
 7948SOL     OW31563   0.847   3.913   3.560  0.3176  0.3877  0.1371
 7948SOL    HW231564   0.857   3.953   3.646  0.5076  1.5542 -0.4064
 7948SOL    HW331565   0.840   3.987   3.500 -1.2115 -0.3992 -0.7002
 7948SOL    MW431566   0.848   3.928   3.563  0.0190 -0.6501  0.0704
 7949SOL     OW31567   5.427   2.418   5.258 -0.0786 -0.4356 -0.0586
 7949SOL    HW231568   5.445   2.462   5.341 -0.3403  0.0232 -0.2413
 7949SOL    HW331569   5.346   2.457   5.227  1.3473  1.3558 -1.8277
 7949SOL    MW431570   5.419   2.429   5.265 -0.1236  0.1005 -0.3694
 7950SOL     OW31571   2.697   1.364   5.391  0.1427  0.2943  0.2541
 7950SOL    HW231572   2.723   1.307   5.319  3.0979  1.3259  0.3656
 7950SOL    HW331573   2.686   1.450   5.350 -0.7699  0.3804  0.6548
 7950SOL    MW431574   2.699   1.368   5.376 -0.5797  0.5650 -0.9831
 7951SOL     OW31575   0.686   1.067   2.791 -0.1733  0.3115  0.5002
 7951SOL    HW231576   0.639   1.124   2.730 -0.1089 -0.1732 -0.0104
 7951SOL    HW331577   0.756   1.123   2.826  0.7895  0.1592 -1.0885
 7951SOL    MW431578   0.689   1.082   2.787  0.1594 -0.2801 -0.3318
 7952SOL     OW31579   1.576   3.640   4.446  0.2922 -0.4928  0.3412
 7952SOL    HW231580   1.510   3.575   4.421 -0.2835  0.1514  0.1424
 7952SOL    HW331581   1.564   3.652   4.540  0.4755 -0.7613  0.3977
 7952SOL    MW431582   1.566   3.633   4.455 -0.4351  0.1433  0.5183
 7953SOL     OW31583   0.443   0.686   1.670 -0.4483 -0.2481 -0.0076
 7953SOL    HW231584   0.388   0.708   1.745 -0.2065  0.7157 -0.1035
 7953SOL    HW331585   0.467   0.595   1.685  0.1895  0.1323  1.4721
 7953SOL    MW431586   0.439   0.677   1.682 -0.3484  0.0437 -0.4923
 7954SOL     OW31587   1.346   5.100   1.954  0.5345 -0.1304 -0.0658
 7954SOL    HW231588   1.260   5.141   1.952  0.9660  0.8348  0.7194
 7954SOL    HW331589   1.406   5.167   1.920  0.9605 -0.8559 -0.7925
 7954SOL    MW431590   1.343   5.114   1.949  0.2751  0.2394  0.9882
 7955SOL     OW31591   4.029   2.194   1.084  0.1595 -0.6445 -0.1845
 7955SOL    HW231592   4.088   2.151   1.022  0.8525  0.1283 -0.0768
 7955SOL    HW331593   4.050   2.155   1.169  0.0375 -0.8568 -0.2519
 7955SOL    MW431594   4.040   2.183   1.087 -0.6156 -0.1787  0.3957
 7956SOL     OW31595   1.109   3.942   6.091 -0.1892 -0.5528 -0.3478
 7956SOL    HW231596   1.075   3.880   6.155 -0.7373  1.0508  0.9973
 7956SOL    HW331597   1.131   4.020   6.143 -0.5590  0.7767 -2.0929
 7956SOL    MW431598   1.107   3.944   6.106  0.0883  0.0653 -0.0265
 7957SOL     OW31599   1.199   1.573   2.771  0.3556  0.3707 -0.5277
 7957SOL    HW231600   1.169   1.663   2.756  2.4001  1.4312  1.1744
 7957SOL    HW331601   1.245   1.577   2.855 -1.8283 -2.9093  1.0250
 7957SOL    MW431602   1.201   1.585   2.780  0.0409 -0.0724  0.1073
 7958SOL     OW31603   0.353   3.993   2.667 -0.2724 -0.0757 -0.1560
 7958SOL    HW231604   0.363   4.077   2.624 -0.3507 -0.4882 -1.0098
 7958SOL    HW331605   0.396   3.931   2.608  0.3992 -0.5491  0.7908
 7958SOL    MW431606   0.360   3.996   2.654  0.5030  0.3355  0.0852
 7959SOL     OW31607   3.613   3.410   6.196 -0.0052  0.3901 -0.1585
 7959SOL    HW231608   3.631   3.320   6.225 -1.6926 -0.2376 -0.9544
 7959SOL    HW331609   3.659   3.418   6.113  0.1324  0.2604 -0.0955
 7959SOL    MW431610   3.621   3.399   6.189  1.0964 -0.1408  0.0616
 7960SOL     OW31611   2.697   4.783   5.254 -0.1617 -0.1265  0.1123
 7960SOL    HW231612   2.791   4.778   5.271  0.4362 -3.8857 -2.8799
 7960SOL    HW331613   2.687   4.756   5.163 -4.2125 -0.5963  0.4827
 7960SOL    MW431614   2.708   4.779   5.244  0.3561  0.2805  0.5176
 7961SOL     OW31615   4.365   0.359   4.385 -0.1389 -0.0196 -0.3531
 7961SOL    HW231616   4.355   0.289   4.450  0.3364  3.2391  3.6351
 7961SOL    HW331617   4.276   0.383   4.362 -0.3445 -0.2985  0.1421
 7961SOL    MW431618   4.352   0.353   4.391 -0.0604 -0.1438  0.3932
 7962SOL     OW31619   0.750   1.544   6.344  0.6527 -0.2207 -0.2493
 7962SOL    HW231620   0.782   1.627   6.380 -0.0101  0.4079 -1.0776
 7962SOL    HW331621   0.712   1.499   6.420  1.9096 -0.2239  0.4003
 7962SOL    MW431622   0.749   1.549   6.359  0.3759  0.0258 -0.5354
 7963SOL     OW31623   6.261   2.618   0.999  0.0470 -0.0982  0.0791
 7963SOL    HW231624   6.288   2.534   1.036 -0.4446 -0.2861  0.0083
 7963SOL    HW331625   6.277   2.609   0.905  2.7531  0.9057  0.3407
 7963SOL    MW431626   6.267   2.605   0.991  0.2995 -0.0636  0.1394
 7964SOL     OW31627   0.674   3.731   3.478 -0.3046 -0.5081  0.2113
 7964SOL    HW231628   0.633   3.757   3.396  0.1284 -0.4406  0.0113
 7964SOL    HW331629   0.731   3.805   3.501  0.0139 -0.7682  0.2684
 7964SOL    MW431630   0.676   3.745   3.470 -0.4006 -0.1495  0.2938
 7965SOL     OW31631   3.499   2.565   1.692 -0.6747 -0.1889 -0.3751
 7965SOL    HW231632   3.515   2.536   1.602  0.6782 -0.5619 -0.0376
 7965SOL    HW331633   3.575   2.620   1.713  0.0097 -1.6232  1.1462
 7965SOL    MW431634   3.511   2.569   1.683 -0.5866 -0.0686 -0.5430
 7966SOL     OW31635   4.685   2.748   4.785  0.4411 -0.0043  0.4258
 7966SOL    HW231636   4.660   2.714   4.699 -0.3399  0.1629  0.5753
 7966SOL    HW331637   4.780   2.758   4.781  0.3096  1.0043 -0.7963
 7966SOL    MW431638   4.694   2.745   4.773  0.0178  0.1234 -0.4046
 7967SOL     OW31639   3.129   0.304   4.310 -0.0567 -0.1103  0.3508
 7967SOL    HW231640   3.153   0.287   4.219  0.5681  0.7403  0.3470
 7967SOL    HW331641   3.153   0.224   4.357  0.2225 -0.3027 -0.1145
 7967SOL    MW431642   3.135   0.291   4.304  0.0242  0.4616 -0.4264
 7968SOL     OW31643   4.247   5.321   1.571  0.3869 -0.7810 -0.7216
 7968SOL    HW231644   4.159   5.327   1.608  0.1098 -2.4317 -1.0035
 7968SOL    HW331645   4.296   5.392   1.613 -1.0195  0.0470 -0.4274
 7968SOL    MW431646   4.242   5.331   1.581 -0.4413 -0.0602 -0.4396
 7969SOL     OW31647   5.846   5.874   3.457  0.2773  0.1975 -0.7022
 7969SOL    HW231648   5.801   5.790   3.469  2.3463 -0.8428  0.1264
 7969SOL    HW331649   5.921   5.870   3.516  2.7276  0.9375 -3.5493
 7969SOL    MW431650   5.850   5.863   3.467  0.1699 -0.4108 -0.3599
 7970SOL     OW31651   1.907   2.188   3.871  0.0936 -0.6929  0.1680
 7970SOL    HW231652   1.912   2.093   3.885 -1.2437 -0.6158  1.4937
 7970SOL    HW331653   1.817   2.210   3.894 -0.0477  0.7026 -1.5723
 7970SOL    MW431654   1.896   2.178   3.876 -0.8199  0.1215 -0.5810
 7971SOL     OW31655   2.073   0.366   1.361 -0.9539  0.4289  0.4555
 7971SOL    HW231656   1.993   0.324   1.392 -0.3896 -1.3096 -0.3207
 7971SOL    HW331657   2.044   0.451   1.329 -2.4139  0.0425  0.6550
 7971SOL    MW431658   2.058   0.371   1.361 -0.0169  0.2162  0.5404
 7972SOL     OW31659   4.311   3.718   2.691 -0.6652  0.0518  0.4748
 7972SOL    HW231660   4.284   3.678   2.609  0.6595  0.1591 -0.0445
 7972SOL    HW331661   4.282   3.657   2.759 -1.4092 -0.2412 -0.0988
 7972SOL    MW431662   4.304   3.705   2.689 -0.5826  0.4699  0.0254
 7973SOL     OW31663   1.498   4.907   0.467 -0.7364 -0.4601 -0.4348
 7973SOL    HW231664   1.404   4.923   0.477 -0.4872  0.2843  0.7999
 7973SOL    HW331665   1.523   4.958   0.389 -1.4863 -1.2786 -1.2309
 7973SOL    MW431666   1.489   4.916   0.458  0.3758  0.6160  0.5670
 7974SOL     OW31667   1.570   3.070   0.959  0.3372  0.2917 -0.1408
 7974SOL    HW231668   1.570   2.997   0.897  1.4382  0.3449 -0.2274
 7974SOL    HW331669   1.498   3.126   0.932  0.6826  0.2082 -1.2621
 7974SOL    MW431670   1.561   3.068   0.948 -0.3672  0.4249  0.2174
 7975SOL     OW31671   2.243   3.833   0.443  0.0693  0.1380 -0.0038
 7975SOL    HW231672   2.246   3.758   0.502 -0.9322 -0.2962 -0.4844
 7975SOL    HW331673   2.316   3.888   0.471  0.7422 -0.9427  0.4418
 7975SOL    MW431674   2.253   3.830   0.454  0.0942  0.2532  0.3622
 7976SOL     OW31675   1.435   3.112   4.091 -0.4049 -0.0167 -0.5379
 7976SOL    HW231676   1.530   3.104   4.096  0.0914  4.3993  2.2622
 7976SOL    HW331677   1.404   3.076   4.174 -1.1324 -0.5557 -1.0302
 7976SOL    MW431678   1.444   3.106   4.102 -0.3676 -0.4821  0.1192
 7977SOL     OW31679   3.248   2.437   4.439 -0.0526  0.1364  0.0033
 7977SOL    HW231680   3.210   2.389   4.366 -0.0908 -0.6616  0.5475
 7977SOL    HW331681   3.195   2.516   4.446 -0.3139  0.0119 -0.5564
 7977SOL    MW431682   3.236   2.441   4.430 -0.3293 -0.1528 -0.0940
 7978SOL     OW31683   4.978   4.446   5.297 -0.0613  0.0512 -0.2434
 7978SOL    HW231684   5.034   4.458   5.374 -0.4545  1.3703 -0.1314
 7978SOL    HW331685   5.007   4.514   5.236 -2.4621  1.7422  0.3934
 7978SOL    MW431686   4.990   4.457   5.299  0.0013 -0.6469  0.2447
 7979SOL     OW31687   0.187   3.139   4.742 -0.5101 -0.4479 -0.3102
 7979SOL    HW231688   0.093   3.119   4.752 -0.6513 -0.1542 -1.0073
 7979SOL    HW331689   0.213   3.093   4.663 -0.0510 -0.5499 -0.1045
 7979SOL    MW431690   0.178   3.130   4.733 -0.4069 -0.3966  0.7812
 7980SOL     OW31691   5.156   2.942   6.035  0.2455  0.3106  0.0468
 7980SOL    HW231692   5.225   2.924   6.098  0.4217  0.5507 -0.0747
 7980SOL    HW331693   5.201   2.949   5.951  0.0876  0.5568 -0.0197
 7980SOL    MW431694   5.171   2.941   6.032  0.1665  0.1604  0.6918
 7981SOL     OW31695   3.317   4.824   4.290  0.2940  0.3099 -0.3146
 7981SOL    HW231696   3.271   4.862   4.364  0.0563 -0.0534 -0.2718
 7981SOL    HW331697   3.284   4.871   4.213  0.1777  0.3490 -0.2401
 7981SOL    MW431698   3.307   4.835   4.290  0.6242 -0.1144  0.0559
 7982SOL     OW31699   5.126   0.353   0.473  0.4789 -0.1244  0.1004
 7982SOL    HW231700   5.083   0.365   0.558 -1.3640 -0.7468 -0.6796
 7982SOL    HW331701   5.104   0.263   0.448  0.5013  0.2373 -1.2824
 7982SOL    MW431702   5.117   0.343   0.481  0.1194  0.3849 -0.2751
 7983SOL     OW31703   4.506   3.728   4.424  0.7124  0.1003 -0.1755
 7983SOL    HW231704   4.518   3.818   4.396  0.8660 -0.1650 -0.9785
 7983SOL    HW331705   4.582   3.709   4.479  0.4027  0.6300  0.4421
 7983SOL    MW431706   4.517   3.737   4.427 -0.3472 -0.0456  0.0701
 7984SOL     OW31707   5.194   2.150   0.255 -0.2061 -0.0632 -0.0665
 7984SOL    HW231708   5.159   2.107   0.176 -0.6647  0.5490 -0.2041
 7984SOL    HW331709   5.258   2.088   0.289 -0.4736 -0.6249 -0.5597
 7984SOL    MW431710   5.198   2.136   0.249 -1.1761  0.1571  0.4520
 7985SOL     OW31711   0.797   2.074   3.442 -0.1220 -0.4757 -0.1624
 7985SOL    HW231712   0.839   2.012   3.383 -0.7875  0.8589 -2.1140
 7985SOL    HW331713   0.846   2.156   3.432 -1.3032  0.2612 -0.2088
 7985SOL    MW431714   0.809   2.077   3.433  0.6760  0.0352  0.3548
 7986SOL     OW31715   4.824   6.383   4.987  0.4909 -0.1807 -0.6423
 7986SOL    HW231716   4.844   6.448   5.054 -1.2294  0.6534 -0.8902
 7986SOL    HW331717   4.737   6.407   4.955 -0.6761 -3.1769 -0.0568
 7986SOL    MW431718   4.816   6.394   4.992  0.3904 -0.1561  0.6149
 7987SOL     OW31719   3.346   0.976   0.693 -0.4229 -0.0337  0.0525
 7987SOL    HW231720   3.416   1.036   0.669  0.1135 -0.6683 -0.0114
 7987SOL    HW331721   3.388   0.913   0.752 -1.0405 -0.1855  0.3432
 7987SOL    MW431722   3.361   0.975   0.698  0.7303  0.0075 -0.0739
 7988SOL     OW31723   5.961   2.949   4.626 -0.0689 -0.5412 -0.3530
 7988SOL    HW231724   5.920   2.913   4.547  2.2452  0.0376 -1.9426
 7988SOL    HW331725   5.889   2.989   4.674 -1.5708 -0.8268 -2.2193
 7988SOL    MW431726   5.946   2.949   4.622 -0.0714 -0.6866  0.3432
 7989SOL     OW31727   3.102   3.900   2.714 -0.3457  0.3194 -0.3833
 7989SOL    HW231728   3.050   3.980   2.712  0.3940  0.8782  1.1171
 7989SOL    HW331729   3.039   3.831   2.732 -0.7049  0.9051  0.7493
 7989SOL    MW431730   3.087   3.901   2.716 -0.0680  0.4836 -0.3461
 7990SOL     OW31731   5.585   0.726   2.559 -0.0566 -0.4515 -0.0102
 7990SOL    HW231732   5.625   0.809   2.533  0.4358 -1.1713 -1.6572
 7990SOL    HW331733   5.644   0.692   2.627  0.2669  0.0782 -0.0135
 7990SOL    MW431734   5.598   0.732   2.565  0.1291  0.3184 -0.5803
 7991SOL     OW31735   1.790   4.619   2.670 -0.2226  0.0151  0.0218
 7991SOL    HW231736   1.847   4.668   2.610 -1.2912 -0.5105 -1.5020
 7991SOL    HW331737   1.710   4.605   2.619 -0.6930 -1.5808  1.1398
 7991SOL    MW431738   1.787   4.624   2.655  0.5123 -0.5994  0.0060
 7992SOL     OW31739   4.564   1.128   2.177 -0.3052 -0.1130  0.0701
 7992SOL    HW231740   4.507   1.169   2.112 -0.6770 -1.0999 -0.2400
 7992SOL    HW331741   4.515   1.135   2.260 -0.5206 -0.2349 -0.0460
 7992SOL    MW431742   4.550   1.134   2.180 -0.3602  0.5022  0.4459
 7993SOL     OW31743   1.600   6.328   5.460  0.0831 -0.5294  0.6108
 7993SOL    HW231744   1.631   6.317   5.550  0.5017 -3.1202  0.2196
 7993SOL    HW331745   1.542   6.254   5.446  1.2709 -1.1112 -1.7315
 7993SOL    MW431746   1.597   6.317   5.470 -0.6546  0.5018 -0.1466
 7994SOL     OW31747   2.329   2.965   3.452 -0.1775 -0.1406  0.5719
 7994SOL    HW231748   2.407   3.012   3.482  0.2862  1.0749 -2.2563
 7994SOL    HW331749   2.363   2.881   3.420 -0.3669 -0.5123  1.3181
 7994SOL    MW431750   2.344   2.960   3.452 -0.0918  0.1075  0.0813
 7995SOL     OW31751   4.998   0.650   2.207  0.4937  0.1036  0.1343
 7995SOL    HW231752   5.065   0.709   2.171  0.7655 -1.3869 -1.9648
 7995SOL    HW331753   5.040   0.564   2.209 -1.3566 -0.8937 -1.3342
 7995SOL    MW431754   5.012   0.647   2.203  0.6096  0.3197 -0.1488
 7996SOL     OW31755   2.335   3.111   1.942 -0.8041  0.4381 -0.0649
 7996SOL    HW231756   2.377   3.176   1.885  0.4491 -0.6414 -0.4137
 7996SOL    HW331757   2.397   3.100   2.015 -1.9536  1.1099  1.0506
 7996SOL    MW431758   2.349   3.118   1.944  0.1615  0.0554 -0.0853
 7997SOL     OW31759   2.893   5.121   4.499  0.3545  0.4306 -0.3237
 7997SOL    HW231760   2.848   5.193   4.542  0.0729  0.7234 -1.0930
 7997SOL    HW331761   2.825   5.054   4.487  0.4339  0.3444 -0.2978
 7997SOL    MW431762   2.878   5.121   4.503  0.2787  0.1034  0.1350
 7998SOL     OW31763   4.821   1.098   5.997  0.8800  0.3721  0.5208
 7998SOL    HW231764   4.736   1.097   5.953  0.9353  0.9907  0.3945
 7998SOL    HW331765   4.869   1.024   5.959  0.4983  0.1874  0.3988
 7998SOL    MW431766   4.817   1.088   5.986 -0.9545  0.3599 -0.3223
 7999SOL     OW31767   0.804   2.603   4.147  0.6932  0.2926 -0.0560
 7999SOL    HW231768   0.811   2.678   4.207  0.4896  0.0485  0.2761
 7999SOL    HW331769   0.867   2.539   4.181 -1.1691 -0.8659  1.4120
 7999SOL    MW431770   0.813   2.605   4.160  0.1825 -0.1601 -0.1078
 8000SOL     OW31771   4.597   6.470   3.082  0.3420 -0.3432  0.1352
 8000SOL    HW231772   4.602   6.452   2.988 -1.0286  0.6355 -0.1498
 8000SOL    HW331773   4.686   6.454   3.114  1.6459  2.2011 -1.8596
 8000SOL    MW431774   4.610   6.466   3.074 -0.2702 -0.1706  0.3364
 8001SOL     OW31775   3.857   1.750   3.693  0.4189  0.6556 -0.6910
 8001SOL    HW231776   3.922   1.697   3.740 -0.6879  1.2435  1.6670
 8001SOL    HW331777   3.899   1.769   3.609  2.7591 -0.0818  0.2045
 8001SOL    MW431778   3.871   1.746   3.688  0.1704  0.7465  0.3428
 8002SOL     OW31779   5.061   5.140   2.254  0.2992 -0.4235 -0.2351
 8002SOL    HW231780   5.039   5.088   2.177 -0.6819 -0.3457 -0.0208
 8002SOL    HW331781   5.154   5.159   2.245 -0.1042  0.8710 -2.1796
 8002SOL    MW431782   5.070   5.136   2.243 -0.2833  0.1467  0.4182
 8003SOL     OW31783   0.099   1.453   5.399 -0.1461  0.1483  0.1199
 8003SOL    HW231784   0.175   1.462   5.456  1.2751  0.0859 -1.6757
 8003SOL    HW331785   0.031   1.505   5.442  1.0268  0.5793  1.5501
 8003SOL    MW431786   0.100   1.461   5.412  0.2864 -0.0834  0.9040
 8004SOL     OW31787   2.429   4.617   4.134 -0.2706  0.5251 -0.7831
 8004SOL    HW231788   2.339   4.625   4.164  0.4102  1.9393  1.0877
 8004SOL    HW331789   2.453   4.527   4.153 -0.9001  0.5022 -0.0611
 8004SOL    MW431790   2.420   4.606   4.141  0.2879 -0.0084 -0.6537
 8005SOL     OW31791   3.975   2.342   5.994  0.1207  0.3864 -0.0546
 8005SOL    HW231792   4.056   2.386   6.022 -0.0896  0.2733  0.7488
 8005SOL    HW331793   3.935   2.311   6.075 -0.5688  0.1521 -0.4755
 8005SOL    MW431794   3.981   2.344   6.008  0.4521  0.0029  0.2607
 8006SOL     OW31795   3.693   3.601   0.756  0.3678  0.2711  0.1944
 8006SOL    HW231796   3.619   3.575   0.701  0.8214  0.4802 -0.5310
 8006SOL    HW331797   3.713   3.524   0.808 -0.4282  0.2465  0.4826
 8006SOL    MW431798   3.686   3.588   0.756  0.4297  0.6649 -0.3060
 8007SOL     OW31799   6.203   4.777   1.623 -0.2741 -0.3897  0.0677
 8007SOL    HW231800   6.157   4.858   1.644  0.9125  0.0967  0.9052
 8007SOL    HW331801   6.243   4.749   1.706 -0.4460 -1.7036 -0.2587
 8007SOL    MW431802   6.203   4.784   1.637  0.0002  0.0840  0.2120
 8008SOL     OW31803   4.813   2.930   0.603  0.4838 -0.3161 -0.2226
 8008SOL    HW231804   4.755   2.854   0.612  0.5011 -0.5067 -1.4537
 8008SOL    HW331805   4.894   2.904   0.647  0.5041 -1.0368 -0.6645
 8008SOL    MW431806   4.816   2.916   0.610 -0.2169 -0.0735 -0.3466
 8009SOL     OW31807   2.710   3.916   5.221 -0.4253  0.1379  0.7659
 8009SOL    HW231808   2.645   3.947   5.157 -0.2231 -0.7499  0.1185
 8009SOL    HW331809   2.657   3.886   5.295 -0.6821  0.7320  0.8369
 8009SOL    MW431810   2.694   3.916   5.222 -0.9707  0.1346  0.3016
 8010SOL     OW31811   4.195   3.693   0.484  0.1226  0.2180 -1.1658
 8010SOL    HW231812   4.157   3.608   0.463 -1.6759  0.7213 -0.1819
 8010SOL    HW331813   4.256   3.710   0.413 -1.3203 -0.7704 -2.7286
 8010SOL    MW431814   4.198   3.684   0.472 -0.7746 -0.2406  0.0816
 8011SOL     OW31815   3.754   3.992   2.851 -0.0854  0.6028  0.2496
 8011SOL    HW231816   3.707   3.992   2.935 -0.1304 -2.9749  0.3981
 8011SOL    HW331817   3.691   4.028   2.789 -0.9318  1.1344  1.3680
 8011SOL    MW431818   3.739   3.997   2.854  0.0613  0.1240  0.1591
 8012SOL     OW31819   2.750   5.515   2.372 -0.3493 -0.0185  0.8946
 8012SOL    HW231820   2.660   5.518   2.407  0.0369 -1.5797  2.1207
 8012SOL    HW331821   2.762   5.425   2.345  0.6206  0.3569  0.0276
 8012SOL    MW431822   2.740   5.504   2.373  0.2270 -0.1871  0.4170
 8013SOL     OW31823   5.394   1.351   3.476 -0.1239  0.5171  0.3486
 8013SOL    HW231824   5.413   1.258   3.464 -0.1500  0.4866  0.5392
 8013SOL    HW331825   5.326   1.370   3.411  0.8472  0.7276 -0.6460
 8013SOL    MW431826   5.387   1.341   3.466 -0.1476  0.1644  0.3389
 8014SOL     OW31827   5.039   5.151   6.430  0.1021  0.3279  0.1795
 8014SOL    HW231828   5.017   5.241   6.455  0.3660  0.6949 -0.8758
 8014SOL    HW331829   4.963   5.100   6.457  0.7010  0.5326  2.5189
 8014SOL    MW431830   5.026   5.156   6.437 -0.2091 -0.7876 -0.0488
 8015SOL     OW31831   4.065   5.632   1.266 -0.5840  0.0603  0.0358
 8015SOL    HW231832   4.082   5.538   1.265  3.1194  0.5727  1.2871
 8015SOL    HW331833   3.985   5.641   1.317 -0.7089 -2.3629  0.4083
 8015SOL    MW431834   4.057   5.621   1.272  0.2545 -0.1682 -0.2578
 8016SOL     OW31835   2.776   2.891   0.444 -0.7198  0.8159 -0.2309
 8016SOL    HW231836   2.763   2.886   0.350 -0.8546 -0.5885 -0.1608
 8016SOL    HW331837   2.812   2.978   0.459  0.0987  0.7556 -1.6760
 8016SOL    MW431838   2.779   2.902   0.434  0.4914 -0.0644 -0.5714
 8017SOL     OW31839   1.080   3.843   4.827 -0.3543  0.8825 -0.4392
 8017SOL    HW231840   1.152   3.887   4.872 -2.0855  2.8668  0.5808
 8017SOL    HW331841   1.040   3.787   4.893 -0.2712  0.4497 -0.7528
 8017SOL    MW431842   1.084   3.842   4.841  0.7211  0.4370 -0.1238
 8018SOL     OW31843   4.403   1.577   4.295 -0.4632  0.4126 -0.2519
 8018SOL    HW231844   4.491   1.613   4.284 -0.3136  0.3181  0.5375
 8018SOL    HW331845   4.413   1.484   4.278 -0.4687  0.4443 -0.4329
 8018SOL    MW431846   4.416   1.570   4.291  0.2483  0.8829  0.1272
 8019SOL     OW31847   0.933   0.072   5.217  0.5619  0.4054  0.0541
 8019SOL    HW231848   0.960   0.164   5.218 -0.8119  0.8308  1.4472
 8019SOL    HW331849   0.842   0.073   5.245  0.4308 -1.3717 -0.1841
 8019SOL    MW431850   0.925   0.084   5.221  0.1887  0.3477  0.4010
 8020SOL     OW31851   5.379   4.763   4.608  0.6735 -0.6468  0.3623
 8020SOL    HW231852   5.419   4.802   4.530  0.5247 -0.5260  0.3466
 8020SOL    HW331853   5.331   4.687   4.575  0.1214 -0.2601  0.2509
 8020SOL    MW431854   5.378   4.758   4.593  1.2390 -0.3824  0.3159
 8021SOL     OW31855   3.914   4.781   2.405  0.0617  0.3287  0.1536
 8021SOL    HW231856   3.919   4.690   2.432 -0.2197  0.3995  0.4483
 8021SOL    HW331857   3.928   4.831   2.486 -0.0882  0.5463  0.0470
 8021SOL    MW431858   3.917   4.776   2.420 -0.0040  0.2778  0.5504
 8022SOL     OW31859   4.709   1.603   4.341 -0.6030 -0.0641  0.1867
 8022SOL    HW231860   4.715   1.609   4.436 -0.0755  0.3782  0.1327
 8022SOL    HW331861   4.728   1.512   4.321 -1.3751 -0.3063  0.5503
 8022SOL    MW431862   4.713   1.592   4.351 -0.2731  0.2026  0.3826
 8023SOL     OW31863   5.863   2.551   0.690 -0.2021 -0.1261 -0.2375
 8023SOL    HW231864   5.831   2.637   0.719 -1.4331  0.0975 -2.1156
 8023SOL    HW331865   5.896   2.510   0.770  0.3045  2.0226  0.7510
 8023SOL    MW431866   5.863   2.557   0.704 -0.2424 -0.8128 -0.4277
 8024SOL     OW31867   2.825   5.371   1.668 -0.0398  0.2687  0.2218
 8024SOL    HW231868   2.867   5.455   1.646 -0.5815  0.4706 -0.0645
 8024SOL    HW331869   2.852   5.354   1.758  0.4508  0.5207  0.1267
 8024SOL    MW431870   2.834   5.380   1.677  0.2996 -0.4459 -0.9801
 8025SOL     OW31871   3.684   3.788   0.129  0.8188 -0.3345  0.6882
 8025SOL    HW231872   3.658   3.843   0.055 -0.2668 -1.1349  0.4545
 8025SOL    HW331873   3.776   3.811   0.144  0.5824  1.0662  0.1920
 8025SOL    MW431874   3.692   3.798   0.121  0.8483  0.2064  0.2035
 8026SOL     OW31875   2.278   4.219   4.065  0.1627  0.0278 -0.8141
 8026SOL    HW231876   2.355   4.272   4.084 -0.3914  0.7971 -0.6572
 8026SOL    HW331877   2.215   4.241   4.134  0.3147 -1.6913 -0.0816
 8026SOL    MW431878   2.280   4.229   4.076 -0.1663 -0.2069 -0.0834
 8027SOL     OW31879   3.282   1.464   3.383  0.1446  0.6879  0.0135
 8027SOL    HW231880   3.303   1.378   3.347 -0.3047 -0.4513  2.2734
 8027SOL    HW331881   3.225   1.505   3.317 -0.7478 -1.3042 -0.5158
 8027SOL    MW431882   3.277   1.458   3.369  0.4254  0.5306 -0.5849
 8028SOL     OW31883   5.020   0.375   0.746 -0.1013 -0.7286  0.4514
 8028SOL    HW231884   5.045   0.408   0.832 -1.5600 -1.5105  1.2154
 8028SOL    HW331885   4.928   0.399   0.737 -0.1576 -1.2665 -0.6021
 8028SOL    MW431886   5.011   0.383   0.756 -0.3862 -0.2630  0.0930
 8029SOL     OW31887   4.285   4.601   4.129 -0.2079 -0.5881  0.2584
 8029SOL    HW231888   4.355   4.659   4.098  0.5692 -0.7885  1.6086
 8029SOL    HW331889   4.205   4.645   4.099  0.4264  0.2959 -0.2243
 8029SOL    MW431890   4.284   4.615   4.121  0.3036 -0.4139 -0.1860
 8030SOL     OW31891   2.611   6.204   1.563 -0.1958  0.3187 -0.0206
 8030SOL    HW231892   2.531   6.181   1.611  0.7327 -0.3600  1.2409
 8030SOL    HW331893   2.651   6.274   1.613  0.8081 -0.4276  0.2621
 8030SOL    MW431894   2.605   6.210   1.576 -1.1844 -0.0740 -0.3811
 8031SOL     OW31895   1.642   6.200   1.196  0.3913 -0.1315  0.1072
 8031SOL    HW231896   1.676   6.273   1.247 -0.1759 -0.2269  0.6346
 8031SOL    HW331897   1.566   6.170   1.245 -0.0727 -0.3275 -0.7131
 8031SOL    MW431898   1.636   6.206   1.209  0.3199 -0.2671 -0.1120
 8032SOL     OW31899   3.378   4.866   3.828  0.1922  0.1041 -0.3731
 8032SOL    HW231900   3.342   4.881   3.915 -1.2902 -0.6661 -0.8081
 8032SOL    HW331901   3.470   4.844   3.842 -0.1811 -0.6424  1.0515
 8032SOL    MW431902   3.385   4.865   3.841  0.5158 -0.3798  0.1340
 8033SOL     OW31903   2.953   1.145   3.042 -0.8156 -0.1914  0.8844
 8033SOL    HW231904   3.036   1.112   3.007 -0.4956 -0.8134  2.1655
 8033SOL    HW331905   2.900   1.164   2.965  0.9418  1.3798 -0.0289
 8033SOL    MW431906   2.957   1.143   3.028 -0.2165 -0.7635  0.3499
 8034SOL     OW31907   4.391   0.349   2.369 -0.2504  0.6058  0.4379
 8034SOL    HW231908   4.318   0.371   2.426 -1.6789  0.4684 -1.2441
 8034SOL    HW331909   4.469   0.367   2.421 -1.4628  1.8100  1.9266
 8034SOL    MW431910   4.391   0.355   2.383 -0.0832 -0.0971  0.0096
 8035SOL     OW31911   3.131   4.608   1.313  0.2625  0.1779 -0.3960
 8035SOL    HW231912   3.143   4.583   1.221  1.1232  1.8636 -0.7914
 8035SOL    HW331913   3.038   4.595   1.330  0.2985 -1.2114 -1.1562
 8035SOL    MW431914   3.120   4.603   1.303 -0.4609  0.3475 -0.1010
 8036SOL     OW31915   5.425   3.438   5.232 -0.2056 -0.5521 -0.5045
 8036SOL    HW231916   5.490   3.370   5.217 -0.0163  0.0788 -2.8051
 8036SOL    HW331917   5.343   3.400   5.200 -0.5818 -0.5516  0.4212
 8036SOL    MW431918   5.423   3.424   5.226  0.4057 -0.1919 -0.3231
 8037SOL     OW31919   1.425   5.028   4.561 -0.7105 -0.0804 -0.0534
 8037SOL    HW231920   1.493   4.976   4.518 -0.6045  0.9356 -1.1540
 8037SOL    HW331921   1.417   4.989   4.649  0.1058 -1.2607 -0.4751
 8037SOL    MW431922   1.433   5.016   4.567 -0.1808  0.4435  0.3597
 8038SOL     OW31923   1.310   4.953   1.233  0.0821 -0.1711 -0.4862
 8038SOL    HW231924   1.293   4.909   1.317  0.1149  1.1122  0.2166
 8038SOL    HW331925   1.402   4.978   1.238 -0.6436  2.5929  0.4404
 8038SOL    MW431926   1.320   4.950   1.245  0.1526  0.1998 -0.3645
 8039SOL     OW31927   4.922   5.429   5.855 -0.0920  0.1327 -0.4888
 8039SOL    HW231928   4.990   5.371   5.821  0.3748  0.4181 -0.0516
 8039SOL    HW331929   4.895   5.389   5.938  0.8363  0.9761  0.2417
 8039SOL    MW431930   4.928   5.416   5.861  0.0210 -0.1200  0.0192
 8040SOL     OW31931   4.756   1.954   3.866 -0.2379 -0.3585  0.4046
 8040SOL    HW231932   4.832   1.896   3.858 -0.4551 -0.5294 -0.5831
 8040SOL    HW331933   4.696   1.924   3.797 -0.2539  1.1969 -0.3004
 8040SOL    MW431934   4.758   1.942   3.856  0.4591  0.0027 -0.6243
 8041SOL     OW31935   2.547   1.310   3.750 -0.4000 -0.8611  0.6788
 8041SOL    HW231936   2.509   1.394   3.726  0.5357  0.1753  2.5752
 8041SOL    HW331937   2.477   1.246   3.733 -1.0200  0.2156 -1.0965
 8041SOL    MW431938   2.533   1.313   3.745  0.0099  0.1736  0.6694
 8042SOL     OW31939   2.118   3.660   0.084 -0.2682 -0.1333 -0.5828
 8042SOL    HW231940   2.183   3.669   0.015  1.4652 -0.8456  0.8643
 8042SOL    HW331941   2.095   3.750   0.106 -0.3729  0.1115 -1.6581
 8042SOL    MW431942   2.124   3.673   0.078 -0.0817 -0.2908 -0.6937
 8043SOL     OW31943   5.293   3.362   2.402 -0.1167  0.0382  0.6886
 8043SOL    HW231944   5.275   3.381   2.494  0.5791 -0.5474  0.9494
 8043SOL    HW331945   5.325   3.272   2.402  1.3770  0.5385  0.0705
 8043SOL    MW431946   5.295   3.353   2.414 -0.6044 -0.0655  0.0211
 8044SOL     OW31947   4.205   4.228   0.512 -0.0092  0.5658  0.1146
 8044SOL    HW231948   4.150   4.225   0.433 -0.0086 -1.9988  0.1233
 8044SOL    HW331949   4.145   4.213   0.584  0.4243 -0.6860  0.2527
 8044SOL    MW431950   4.190   4.225   0.511 -0.2251 -0.4983 -0.3091
 8045SOL     OW31951   5.577   4.114   1.689  0.2526  0.5007  0.0947
 8045SOL    HW231952   5.499   4.131   1.742 -0.1919  0.3607 -0.5058
 8045SOL    HW331953   5.545   4.112   1.599  0.9496  0.4204 -0.1592
 8045SOL    MW431954   5.563   4.116   1.684 -0.0413  0.1112  0.1686
 8046SOL     OW31955   5.900   3.962   0.674 -0.6580 -0.5621 -0.0453
 8046SOL    HW231956   5.939   4.047   0.649 -0.9913 -0.1188  0.9140
 8046SOL    HW331957   5.811   3.966   0.641 -0.5151 -0.7590 -0.4630
 8046SOL    MW431958   5.894   3.974   0.666  0.5746  0.0979  0.6170
 8047SOL     OW31959   1.506   4.031   5.795  0.2334 -0.1127  0.1004
 8047SOL    HW231960   1.583   4.081   5.770  0.3056 -0.7249 -0.9498
 8047SOL    HW331961   1.433   4.093   5.787  0.2387 -0.2754 -1.7763
 8047SOL    MW431962   1.506   4.045   5.790 -0.2925  0.4852 -0.1829
 8048SOL     OW31963   3.358   4.114   3.497  0.2480  0.4157  0.1393
 8048SOL    HW231964   3.392   4.031   3.464 -0.3771  0.5488 -0.8910
 8048SOL    HW331965   3.436   4.163   3.522  0.7353  0.1843 -0.8775
 8048SOL    MW431966   3.372   4.109   3.496  0.5485  0.1559  0.0445
 8049SOL     OW31967   1.039   3.740   0.613 -0.0896  0.1911  0.1423
 8049SOL    HW231968   1.041   3.820   0.560 -2.8431  0.2369 -0.0378
 8049SOL    HW331969   1.113   3.750   0.674  0.6941  2.0326 -1.0144
 8049SOL    MW431970   1.049   3.752   0.614  0.3944 -0.0487 -0.5728
 8050SOL     OW31971   0.011   0.281   2.717  0.2878  0.1059 -0.2463
 8050SOL    HW231972   0.099   0.300   2.750  0.2911 -0.2738 -0.0302
 8050SOL    HW331973  -0.044   0.349   2.756  0.7317  1.3502 -1.6598
 8050SOL    MW431974   0.016   0.293   2.726  0.3053  0.0136 -0.5238
 8051SOL     OW31975   4.758   1.168   4.586  0.4646 -0.0551  0.3989
 8051SOL    HW231976   4.739   1.085   4.542 -1.2030  0.5173 -0.0510
 8051SOL    HW331977   4.708   1.165   4.667 -0.3770  0.8670 -0.0594
 8051SOL    MW431978   4.749   1.157   4.591  0.2310 -0.0645  0.1630
 8052SOL     OW31979   3.990   0.730   4.351  0.4279  0.2052 -0.6345
 8052SOL    HW231980   4.045   0.743   4.429 -2.6311  0.7528  1.5843
 8052SOL    HW331981   3.988   0.816   4.309  1.8608 -0.0251 -1.2573
 8052SOL    MW431982   3.997   0.743   4.355 -0.3988 -0.5280 -0.1748
 8053SOL     OW31983   2.374   4.054   1.229 -0.1357 -0.9182  0.0958
 8053SOL    HW231984   2.379   4.119   1.159  1.5957 -1.4808 -0.3550
 8053SOL    HW331985   2.285   4.062   1.263 -0.8380 -0.2140 -1.7666
 8053SOL    MW431986   2.363   4.064   1.224 -0.3405  0.0061 -0.1081
 8054SOL     OW31987   6.003   1.680   1.521  0.0933  0.5889  0.1707
 8054SOL    HW231988   5.923   1.667   1.470 -0.1293  0.9321  0.4243
 8054SOL    HW331989   6.069   1.625   1.478 -0.1415  0.7173 -0.3585
 8054SOL    MW431990   6.001   1.671   1.509 -0.7337 -0.0711  0.3129
 8055SOL     OW31991   0.473   3.376   6.376  0.4793 -0.5207  0.1913
 8055SOL    HW231992   0.484   3.395   6.469  1.1513 -0.7992  0.1709
 8055SOL    HW331993   0.553   3.409   6.335 -1.3385  3.1947 -0.8810
 8055SOL    MW431994   0.485   3.383   6.383  0.2334  0.3652  0.1819
 8056SOL     OW31995   2.760   2.416   5.653  0.1710 -0.3976  0.4176
 8056SOL    HW231996   2.804   2.491   5.614 -0.5636 -0.2002 -0.0530
 8056SOL    HW331997   2.829   2.367   5.697  1.1252 -0.9325 -1.6033
 8056SOL    MW431998   2.775   2.420   5.654  0.5465  0.0203  0.3938
 8057SOL     OW31999   5.061   5.840   3.797 -0.5544  0.2065  0.2125
 8057SOL    HW232000   5.012   5.794   3.865  0.5512 -1.1222  0.1703
 8057SOL    HW332001   5.153   5.832   3.825 -0.0411 -0.6811 -1.5919
 8057SOL    MW432002   5.067   5.833   3.809  0.3411  0.5947 -0.7735
 8058SOL     OW32003   4.187   2.721   4.400  0.3328 -0.2016 -0.9093
 8058SOL    HW232004   4.168   2.731   4.494  2.4638  0.6061 -0.4999
 8058SOL    HW332005   4.101   2.714   4.359 -0.6789 -0.0119  1.0467
 8058SOL    MW432006   4.173   2.722   4.407 -0.4985 -0.3133 -0.3925
 8059SOL     OW32007   2.789   3.087   4.378 -0.0691 -0.6303  0.4168
 8059SOL    HW232008   2.764   3.099   4.287  0.9330 -0.6891  0.1155
 8059SOL    HW332009   2.798   3.176   4.413 -0.3780 -0.6075  0.4424
 8059SOL    MW432010   2.787   3.100   4.371 -0.6176  0.1290 -0.1652
 8060SOL     OW32011   5.114   1.008   3.694 -0.1909  0.0117 -0.0587
 8060SOL    HW232012   5.045   1.062   3.733 -0.1023  0.4967 -0.5667
 8060SOL    HW332013   5.188   1.018   3.753 -1.2095 -2.3358  1.7889
 8060SOL    MW432014   5.115   1.016   3.707  0.2137 -0.6142 -0.5145
 8061SOL     OW32015   5.668   6.021   2.723  0.0568 -0.4063  0.2074
 8061SOL    HW232016   5.708   6.093   2.675 -1.8133  1.0912  0.7742
 8061SOL    HW332017   5.682   5.944   2.667  1.3798  0.5276 -0.8017
 8061SOL    MW432018   5.675   6.020   2.709 -0.5298  0.0418 -0.0129
 8062SOL     OW32019   0.635   0.315   4.398  0.3888  0.3753  0.4224
 8062SOL    HW232020   0.706   0.253   4.379  0.7176  0.6719  0.6683
 8062SOL    HW332021   0.603   0.288   4.484  0.2987  0.3301  0.3745
 8062SOL    MW432022   0.640   0.303   4.407  0.0868 -0.2530  0.0115
 8063SOL     OW32023   2.221   5.301   0.638  0.0142 -0.7866  0.2296
 8063SOL    HW232024   2.222   5.356   0.559 -1.0157 -0.7607  0.2220
 8063SOL    HW332025   2.168   5.351   0.701  0.5325 -0.9698  0.8227
 8063SOL    MW432026   2.214   5.315   0.636  0.3994  0.0424 -0.3140
 8064SOL     OW32027   5.086   4.896   0.552  0.0166 -0.5205  0.3221
 8064SOL    HW232028   5.044   4.812   0.535 -1.5303  0.3856 -0.5703
 8064SOL    HW332029   5.160   4.899   0.492  1.0379 -1.8744  1.4592
 8064SOL    MW432030   5.090   4.886   0.542  0.6139  0.1349  0.1282
 8065SOL     OW32031   6.217   5.229   1.574 -0.1072 -0.0837  0.3060
 8065SOL    HW232032   6.282   5.175   1.619  0.8071 -0.1783 -1.0704
 8065SOL    HW332033   6.268   5.289   1.520 -1.0865 -1.3323 -2.1733
 8065SOL    MW432034   6.232   5.229   1.572 -0.0977 -0.8814  0.2623
 8066SOL     OW32035   1.933   0.150   0.260  0.0979 -0.6746 -0.0112
 8066SOL    HW232036   1.871   0.184   0.196  0.2918 -0.1457  0.0784
 8066SOL    HW332037   1.977   0.227   0.294  0.3509 -0.9942  0.3964
 8066SOL    MW432038   1.930   0.165   0.256 -0.8532 -0.3049  0.3787
 8067SOL     OW32039   0.931   2.689   1.192  0.5182  0.0141  0.2526
 8067SOL    HW232040   0.893   2.602   1.182  0.5335 -0.2055  1.7977
 8067SOL    HW332041   0.911   2.734   1.110  0.1055 -1.2891 -0.3816
 8067SOL    MW432042   0.923   2.684   1.180 -0.4293 -0.3666  0.6396
 8068SOL     OW32043   3.474   1.364   2.680  0.3153  0.3333 -0.0694
 8068SOL    HW232044   3.443   1.286   2.633 -0.9460  1.0863 -0.5371
 8068SOL    HW332045   3.550   1.394   2.629  1.3204 -1.0304  0.5755
 8068SOL    MW432046   3.480   1.358   2.667 -0.7701 -0.7141 -0.2829
 8069SOL     OW32047   0.522   2.193   4.686 -0.3725  0.7467 -0.3069
 8069SOL    HW232048   0.615   2.214   4.675 -1.0505  3.5555 -1.5325
 8069SOL    HW332049   0.512   2.107   4.645  1.3847  1.1334 -1.6785
 8069SOL    MW432050   0.533   2.184   4.679  0.4461 -0.1883 -0.6988
 8070SOL     OW32051   3.543   4.102   1.031 -0.0784 -0.0188 -0.0540
 8070SOL    HW232052   3.580   4.083   0.945  2.6561 -1.4875  1.3134
 8070SOL    HW332053   3.474   4.036   1.042  2.0744 -2.3874  0.2761
 8070SOL    MW432054   3.539   4.091   1.021 -0.1851 -0.3034  0.0251
 8071SOL     OW32055   0.836   2.398   4.459  0.1137  0.1032 -0.2796
 8071SOL    HW232056   0.873   2.403   4.547 -0.3764  0.3237 -0.0826
 8071SOL    HW332057   0.900   2.442   4.404  0.1156  0.5397  0.0667
 8071SOL    MW432058   0.850   2.404   4.463  0.1779 -0.1471 -0.1445
 8072SOL     OW32059   3.756   3.252   3.677  0.1260 -0.5985  0.3097
 8072SOL    HW232060   3.736   3.314   3.748  0.3163  0.1819 -0.3054
 8072SOL    HW332061   3.835   3.208   3.706  0.0467 -0.4817  0.7133
 8072SOL    MW432062   3.763   3.255   3.690 -0.2357 -0.4666 -0.2764
 8073SOL     OW32063   5.322   2.353   5.915  0.2203  0.0424 -0.1821
 8073SOL    HW232064   5.353   2.288   5.979  2.1442  0.3896 -0.6877
 8073SOL    HW332065   5.377   2.429   5.931 -1.1459  1.1269 -0.4551
 8073SOL    MW432066   5.333   2.354   5.926  0.1680 -0.1507 -0.7723
 8074SOL     OW32067   5.789   0.985   3.457  1.3078 -0.5261  0.0973
 8074SOL    HW232068   5.862   1.044   3.474  0.2160  0.4132  1.8971
 8074SOL    HW332069   5.789   0.925   3.532 -0.5998  0.4219  0.9180
 8074SOL    MW432070   5.799   0.985   3.470 -0.0490  0.2500 -0.3396
 8075SOL     OW32071   3.546   2.369   6.391 -0.3533 -0.1843  0.5126
 8075SOL    HW232072   3.585   2.442   6.437 -1.3098 -0.4350  1.7816
 8075SOL    HW332073   3.533   2.401   6.301  2.1337  0.0798  0.1775
 8075SOL    MW432074   3.549   2.383   6.385  0.7286  0.0566 -0.2066
 8076SOL     OW32075   1.515   5.834   3.341 -0.0916 -0.2656 -0.0715
 8076SOL    HW232076   1.458   5.810   3.268  0.8973 -0.6827 -0.7264
 8076SOL    HW332077   1.501   5.928   3.353 -0.7527 -0.3202 -0.3508
 8076SOL    MW432078   1.505   5.843   3.333 -0.0347 -0.4391 -0.3238
 8077SOL     OW32079   4.689   3.992   5.251  0.3927 -0.4398  0.2644
 8077SOL    HW232080   4.735   4.076   5.243 -0.9820  0.2983 -0.1716
 8077SOL    HW332081   4.598   4.013   5.232  0.1026 -2.1330 -0.3410
 8077SOL    MW432082   4.683   4.006   5.248  0.5082 -0.0950  0.6546
 8078SOL     OW32083   3.625   4.497   5.284  0.2158 -0.0849  0.7930
 8078SOL    HW232084   3.606   4.413   5.325  1.1991 -0.6326  0.1585
 8078SOL    HW332085   3.620   4.560   5.355 -1.9374 -0.4548  1.0319
 8078SOL    MW432086   3.622   4.494   5.299  0.2189 -0.5184  0.2018
 8079SOL     OW32087   4.053   0.430   2.735 -0.0742 -0.4978  0.6538
 8079SOL    HW232088   4.143   0.461   2.733  0.3219 -1.4969  1.4821
 8079SOL    HW332089   4.002   0.506   2.761  0.4768  0.1684 -0.1666
 8079SOL    MW432090   4.058   0.444   2.738 -0.0589  0.3551 -0.3929
 8080SOL     OW32091   6.368   2.695   4.080  0.2473  0.2866  0.5898
 8080SOL    HW232092   6.408   2.709   4.165  0.2533  0.8349  0.5000
 8080SOL    HW332093   6.439   2.710   4.017  0.1074  0.4376  0.4658
 8080SOL    MW432094   6.383   2.699   4.083  0.1013  0.1102 -0.6134
 8081SOL     OW32095   4.324   0.600   3.671  0.1884  0.1880 -0.2179
 8081SOL    HW232096   4.238   0.641   3.674  0.2966  0.4296 -0.3616
 8081SOL    HW332097   4.336   0.562   3.757  0.9545  2.2398  0.6438
 8081SOL    MW432098   4.314   0.601   3.682  0.6942 -0.0038  0.0851
 8082SOL     OW32099   0.208   1.153   1.916 -0.3015  0.1919 -0.0188
 8082SOL    HW232100   0.215   1.095   1.992 -2.5564 -0.7650 -0.4595
 8082SOL    HW332101   0.115   1.152   1.894 -0.1149  2.5360 -1.2102
 8082SOL    MW432102   0.196   1.146   1.923  0.0663 -0.1562  0.4952
 8083SOL     OW32103   3.936   0.398   6.035 -0.6770 -0.2880  0.2475
 8083SOL    HW232104   3.930   0.327   6.100  0.0886  0.8355  1.6151
 8083SOL    HW332105   4.020   0.385   5.993 -0.6161 -0.3077  0.3737
 8083SOL    MW432106   3.946   0.387   6.038 -0.8088  0.4489 -0.2832
 8084SOL     OW32107   1.409   5.256   0.131 -0.6117  0.2687 -0.4904
 8084SOL    HW232108   1.363   5.269   0.214 -0.0587 -1.1000  0.0549
 8084SOL    HW332109   1.340   5.232   0.069 -0.8137 -0.3731 -0.0212
 8084SOL    MW432110   1.394   5.255   0.134 -0.2135 -0.2085  0.4194
 8085SOL     OW32111   5.200   6.207   6.282  0.3540  0.3269  0.7750
 8085SOL    HW232112   5.118   6.248   6.310  0.3775  1.1027 -0.2453
 8085SOL    HW332113   5.179   6.114   6.272 -0.8928  0.7691 -1.1689
 8085SOL    MW432114   5.187   6.200   6.285  0.0817 -0.7820  0.5577
 8086SOL     OW32115   6.370   5.062   0.098  0.2095  1.0419  0.5009
 8086SOL    HW232116   6.366   5.106   0.183 -0.6183  0.9265  0.5323
 8086SOL    HW332117   6.280   5.032   0.082  0.3418  1.0990 -0.4310
 8086SOL    MW432118   6.357   5.064   0.107 -0.8523  0.3946  0.1950
 8087SOL     OW32119   0.316   5.962   2.178 -0.2048 -0.0331  0.4019
 8087SOL    HW232120   0.325   6.056   2.192 -0.0337  0.1187 -0.6561
 8087SOL    HW332121   0.389   5.938   2.122 -0.8258 -0.6083 -0.1913
 8087SOL    MW432122   0.327   5.971   2.173 -0.3360 -0.2633  0.0243
 8088SOL     OW32123   2.263   0.670   3.698 -0.2888  0.0344 -0.9463
 8088SOL    HW232124   2.317   0.595   3.723 -0.5363  0.1832  0.0671
 8088SOL    HW332125   2.262   0.726   3.776 -2.8056 -0.4784 -0.5252
 8088SOL    MW432126   2.270   0.667   3.712  0.3312 -0.2693 -0.3487
 8089SOL     OW32127   5.068   1.779   3.259  0.1892  0.3935  0.4157
 8089SOL    HW232128   5.137   1.750   3.200 -0.5172 -0.9753  0.2331
 8089SOL    HW332129   5.112   1.791   3.343  0.5895 -0.8846  0.4140
 8089SOL    MW432130   5.083   1.777   3.262  0.1549 -0.1269 -0.3135
 8090SOL     OW32131   1.502   2.289   1.392 -0.5369 -0.0764 -0.6279
 8090SOL    HW232132   1.498   2.240   1.309  0.3865 -0.5573 -0.4103
 8090SOL    HW332133   1.559   2.364   1.372  0.2097 -0.5358 -0.2801
 8090SOL    MW432134   1.509   2.292   1.378 -0.0613  0.3170  0.3879
 8091SOL     OW32135   3.767   4.559   3.349  0.2251 -0.7453  0.5486
 8091SOL    HW232136   3.800   4.470   3.359 -0.3937 -1.0293  0.1436
 8091SOL    HW332137   3.825   4.613   3.404 -0.2494 -1.5860  1.9153
 8091SOL    MW432138   3.779   4.555   3.358 -0.2016  0.1316  0.3471
 8092SOL     OW32139   0.246   3.963   0.972  0.3839  0.0044 -0.5525
 8092SOL    HW232140   0.324   4.017   0.972  0.2089  0.2705  0.4286
 8092SOL    HW332141   0.205   3.979   0.887 -0.5270  2.6960  0.2913
 8092SOL    MW432142   0.251   3.972   0.961 -0.7855  0.0522  0.3441
 8093SOL     OW32143   0.418   0.177   2.228  0.2670  0.0009 -0.2855
 8093SOL    HW232144   0.328   0.142   2.230  0.2698 -0.5915 -3.7222
 8093SOL    HW332145   0.472   0.100   2.211  1.2127  0.6188 -0.1087
 8093SOL    MW432146   0.413   0.162   2.226 -0.4051  0.5034 -0.3581
 8094SOL     OW32147   6.182   1.159   4.282  0.2400  0.4263  0.4399
 8094SOL    HW232148   6.189   1.253   4.300  1.4375  0.3347  0.4927
 8094SOL    HW332149   6.253   1.140   4.220 -1.1815 -0.0855 -1.1435
 8094SOL    MW432150   6.192   1.169   4.276 -0.2963 -0.0079 -0.0649
 8095SOL     OW32151   1.910   4.860   5.207 -0.1785  0.4342 -0.4514
 8095SOL    HW232152   1.931   4.904   5.289 -1.7184 -1.1449  0.8430
 8095SOL    HW332153   1.816   4.873   5.196 -0.3665 -1.1557 -0.8704
 8095SOL    MW432154   1.901   4.868   5.216  0.0498 -0.5004 -1.2124
 8096SOL     OW32155   2.614   2.602   0.763 -0.0661  0.0946  0.0836
 8096SOL    HW232156   2.692   2.655   0.776  0.3951 -0.0392 -1.8444
 8096SOL    HW332157   2.541   2.662   0.775  0.3189  0.3590  1.2740
 8096SOL    MW432158   2.615   2.617   0.766 -0.0704  0.0743  0.2872
 8097SOL     OW32159   3.882   2.291   1.796  0.3723 -0.1129 -0.6406
 8097SOL    HW232160   3.881   2.333   1.710  3.5253  1.0985 -0.2040
 8097SOL    HW332161   3.812   2.335   1.844  0.0555  0.8111 -1.8841
 8097SOL    MW432162   3.873   2.302   1.791 -0.2425 -0.0665  0.5060
 8098SOL     OW32163   1.478   1.034   3.431  0.5060  0.7870 -0.0660
 8098SOL    HW232164   1.559   1.038   3.380  0.0192  1.4183 -0.8149
 8098SOL    HW332165   1.507   1.031   3.522  1.3655  3.7416 -0.1593
 8098SOL    MW432166   1.492   1.034   3.436 -0.2371  0.2492 -0.0333
 8099SOL     OW32167   5.120   3.264   0.171 -0.1396  0.2791  0.4471
 8099SOL    HW232168   5.156   3.182   0.204  1.6063  1.3883  1.4614
 8099SOL    HW332169   5.189   3.300   0.115 -0.3949  1.6114  0.9509
 8099SOL    MW432170   5.134   3.258   0.168  0.0066 -0.3160  0.6114
 8100SOL     OW32171   1.990   1.658   3.332  0.2270 -0.1789  0.0890
 8100SOL    HW232172   2.016   1.566   3.326 -1.3426 -0.5385 -1.9836
 8100SOL    HW332173   1.963   1.669   3.423  0.4732 -1.7477  0.3758
 8100SOL    MW432174   1.990   1.647   3.344  0.5384  0.5513 -0.4899
 8101SOL     OW32175   2.340   5.180   4.788 -0.6545 -0.0342 -0.2500
 8101SOL    HW232176   2.263   5.173   4.731 -0.4290  1.1703 -0.7433
 8101SOL    HW332177   2.365   5.272   4.782  1.7359 -0.6689 -1.3381
 8101SOL    MW432178   2.333   5.191   4.780  0.5879 -0.2182 -0.0567
 8102SOL     OW32179   0.340   0.882   0.435 -0.2268 -0.2176  0.3956
 8102SOL    HW232180   0.331   0.966   0.391 -0.5495  0.2227  1.2821
 8102SOL    HW332181   0.270   0.828   0.399  0.0896 -0.1675 -0.3024
 8102SOL    MW432182   0.329   0.886   0.425 -0.4299  0.6085 -0.2977
 8103SOL     OW32183   1.121   5.393   4.355  0.6348 -0.0570 -0.0351
 8103SOL    HW232184   1.063   5.433   4.419  0.9373  2.4747 -1.2176
 8103SOL    HW332185   1.151   5.312   4.397 -1.0043  0.2896  1.9912
 8103SOL    MW432186   1.117   5.388   4.369 -0.3194  0.3049 -0.2286
 8104SOL     OW32187   2.366   2.969   0.927 -0.1536  0.0921 -0.1241
 8104SOL    HW232188   2.441   2.937   0.977  0.6566  0.7034 -0.9248
 8104SOL    HW332189   2.294   2.969   0.990  0.6177 -0.0677  0.7816
 8104SOL    MW432190   2.366   2.965   0.942  0.2618  0.9971 -0.2702
 8105SOL     OW32191   2.176   3.412   3.256 -0.0844 -0.1049  0.0702
 8105SOL    HW232192   2.194   3.340   3.317 -1.3731 -1.2011 -0.7912
 8105SOL    HW332193   2.200   3.490   3.305  1.6564 -1.1037  0.9331
 8105SOL    MW432194   2.182   3.413   3.271 -0.1563 -0.0104 -0.3244
 8106SOL     OW32195   4.969   0.534   1.865  0.1004 -0.5419  0.0520
 8106SOL    HW232196   4.967   0.536   1.770  0.6165  0.4410  0.0559
 8106SOL    HW332197   4.962   0.625   1.892  0.0363 -0.8029  0.9543
 8106SOL    MW432198   4.968   0.546   1.856  0.6043 -0.3372 -0.4438
 8107SOL     OW32199   1.428   0.771   3.345 -0.1666  0.2441  0.6561
 8107SOL    HW232200   1.344   0.734   3.375  0.6106 -1.4241  0.9133
 8107SOL    HW332201   1.438   0.852   3.395 -0.8920 -0.3424  1.8086
 8107SOL    MW432202   1.418   0.777   3.356  1.0526  0.0353  0.3009
 8108SOL     OW32203   4.421   6.382   4.744 -0.0572 -0.4552  0.3619
 8108SOL    HW232204   4.407   6.437   4.821  0.5443 -0.5051  0.5081
 8108SOL    HW332205   4.442   6.296   4.779 -0.3118 -0.6098  0.1366
 8108SOL    MW432206   4.422   6.378   4.759 -0.1668 -0.2337  0.4738
 8109SOL     OW32207   6.397   6.085   4.710 -0.6228 -0.0791  0.1794
 8109SOL    HW232208   6.428   6.100   4.620  0.6984  0.6637  0.7209
 8109SOL    HW332209   6.444   6.006   4.738 -0.1737  0.3148  0.5682
 8109SOL    MW432210   6.408   6.076   4.702  0.3659  0.6614 -0.1717
 8110SOL     OW32211   5.209   6.051   0.908 -0.0545  0.2108  0.1165
 8110SOL    HW232212   5.217   6.099   0.990  0.7413  1.8371 -0.8787
 8110SOL    HW332213   5.122   6.074   0.875 -0.6808 -1.0299  0.8236
 8110SOL    MW432214   5.198   6.060   0.914 -0.5155 -0.0749 -0.6363
 8111SOL     OW32215   3.550   5.078   4.441 -0.3061  0.2382 -0.4168
 8111SOL    HW232216   3.506   5.047   4.520  0.1105  2.2473  0.6793
 8111SOL    HW332217   3.604   5.004   4.413 -0.2995 -0.4663  1.3105
 8111SOL    MW432218   3.551   5.064   4.448 -0.2399 -0.3392 -0.0316
 8112SOL     OW32219   6.059   2.844   0.972  0.2496 -0.5270 -0.6540
 8112SOL    HW232220   6.060   2.904   1.046 -1.9542 -1.0200 -0.1510
 8112SOL    HW332221   6.126   2.779   0.992  0.0012 -0.3942  0.6806
 8112SOL    MW432222   6.068   2.843   0.984 -0.1802 -0.2459  0.0504
 8113SOL     OW32223   4.040   4.541   0.620 -0.0866 -0.3193 -0.0852
 8113SOL    HW232224   4.060   4.595   0.697  0.1592 -0.2393 -0.2020
 8113SOL    HW332225   4.125   4.529   0.577 -0.2817 -0.0255 -0.5611
 8113SOL    MW432226   4.054   4.547   0.624  0.7153 -0.0513  0.5660
 8114SOL     OW32227   3.303   1.828   1.130 -0.6312  0.3828 -0.3645
 8114SOL    HW232228   3.212   1.858   1.128 -0.2736  1.5689  0.1870
 8114SOL    HW332229   3.333   1.849   1.218  0.8910  2.2957 -1.2506
 8114SOL    MW432230   3.295   1.835   1.141 -0.0366  0.2075 -0.3750
 8115SOL     OW32231   5.721   3.767   0.972 -0.9549 -0.1730 -0.0721
 8115SOL    HW232232   5.815   3.753   0.963 -0.5666  1.1720  1.4289
 8115SOL    HW332233   5.687   3.755   0.884  1.0630  2.1959 -1.3114
 8115SOL    MW432234   5.729   3.764   0.959  0.3854  0.6657 -0.1943
 8116SOL     OW32235   3.130   4.703   5.656 -0.0336  0.8299  0.2377
 8116SOL    HW232236   3.056   4.646   5.637  0.7049  0.2466 -1.0079
 8116SOL    HW332237   3.092   4.774   5.708 -1.2050 -0.1293  0.7453
 8116SOL    MW432238   3.115   4.705   5.660  0.0971  0.5958 -0.4017
 8117SOL     OW32239   5.394   2.561   2.783 -0.1308  0.5541 -0.2877
 8117SOL    HW232240   5.458   2.519   2.841 -0.1383  2.9978  1.6593
 8117SOL    HW332241   5.446   2.591   2.709  0.6513  0.8399  0.3560
 8117SOL    MW432242   5.410   2.559   2.781  0.1812 -0.2116  0.3143
 8118SOL     OW32243   2.368   4.626   5.834 -0.0419  0.2403 -0.0900
 8118SOL    HW232244   2.344   4.553   5.777  1.4054  1.8229 -2.9786
 8118SOL    HW332245   2.292   4.684   5.833 -0.0575  0.2166 -0.3437
 8118SOL    MW432246   2.355   4.624   5.826 -0.0509 -0.1483  0.1836
 8119SOL     OW32247   2.044   4.734   3.428  0.3591 -0.0314 -0.1920
 8119SOL    HW232248   1.957   4.695   3.431 -1.6591  3.8405 -0.8168
 8119SOL    HW332249   2.093   4.678   3.369 -2.2335 -1.5120 -1.1332
 8119SOL    MW432250   2.039   4.722   3.421  0.5406 -0.3552 -0.2969
 8120SOL     OW32251   0.255   1.490   0.947  0.3518  0.4011  0.5896
 8120SOL    HW232252   0.185   1.551   0.922  0.1281 -0.4782 -1.0560
 8120SOL    HW332253   0.213   1.404   0.945  1.1176  0.0085  1.0710
 8120SOL    MW432254   0.240   1.487   0.943  0.0803  0.6376 -1.1556
 8121SOL     OW32255   5.403   6.445   4.693 -0.0865  0.1808 -0.9929
 8121SOL    HW232256   5.454   6.423   4.615 -0.4357 -1.5679 -0.7848
 8121SOL    HW332257   5.349   6.367   4.708  0.5523  0.1264  1.4382
 8121SOL    MW432258   5.403   6.432   4.685  0.3663  0.0978  0.5014
 8122SOL     OW32259   5.178   3.626   0.772  0.1542 -0.0214  0.2435
 8122SOL    HW232260   5.109   3.672   0.820  0.1854 -0.1882  0.4519
 8122SOL    HW332261   5.174   3.536   0.805 -0.6218 -0.4450 -0.9342
 8122SOL    MW432262   5.168   3.620   0.783 -0.2659 -0.2907  0.1941
 8123SOL     OW32263   4.238   6.358   5.273 -0.2699 -0.4759 -0.4959
 8123SOL    HW232264   4.268   6.282   5.323 -0.0487  0.3731  0.6977
 8123SOL    HW332265   4.318   6.398   5.240 -0.4330 -1.2103 -1.8310
 8123SOL    MW432266   4.252   6.353   5.276 -0.6150  0.4936 -0.1535
 8124SOL     OW32267   1.456   4.012   2.077  0.6804 -0.0019  0.1284
 8124SOL    HW232268   1.473   3.919   2.066 -0.6587 -0.3495  0.8483
 8124SOL    HW332269   1.541   4.054   2.060  0.8737 -1.1523 -2.1816
 8124SOL    MW432270   1.469   4.005   2.073  0.0508  0.0932  0.1340
 8125SOL     OW32271  -0.006   3.601   4.529  0.1472 -0.1191  0.0477
 8125SOL    HW232272   0.040   3.525   4.565 -0.9079  0.0270  1.8243
 8125SOL    HW332273  -0.084   3.565   4.488  0.6403 -0.1478 -0.9020
 8125SOL    MW432274  -0.010   3.587   4.528  0.2775 -0.0715  0.2467
 8126SOL     OW32275   5.703   3.133   0.314  0.4995 -0.2555 -0.5266
 8126SOL    HW232276   5.692   3.096   0.226 -0.8743 -0.2832 -0.3663
 8126SOL    HW332277   5.778   3.193   0.306  0.9780 -0.9588 -1.4723
 8126SOL    MW432278   5.711   3.136   0.301  0.1762 -0.2047 -0.2151
 8127SOL     OW32279   4.484   1.022   1.318  0.5246  0.3503  0.3496
 8127SOL    HW232280   4.452   0.936   1.290  0.9347 -0.5757  2.4710
 8127SOL    HW332281   4.447   1.033   1.406  0.5883  2.3152  0.1703
 8127SOL    MW432282   4.475   1.012   1.326  0.2618  0.7205  0.3099
 8128SOL     OW32283   1.180   1.371   4.049  0.8097 -0.2379 -0.8260
 8128SOL    HW232284   1.187   1.301   3.983 -0.2594 -1.4078  0.2427
 8128SOL    HW332285   1.090   1.403   4.039  0.4660 -0.7824  0.3754
 8128SOL    MW432286   1.169   1.366   4.039 -0.1147 -0.1743  0.0986
 8129SOL     OW32287   2.657   0.337   2.976 -0.3965 -0.0937  0.1531
 8129SOL    HW232288   2.647   0.242   2.965  1.1575 -0.1607 -1.3083
 8129SOL    HW332289   2.576   0.374   2.942  0.0283 -0.8377 -1.8121
 8129SOL    MW432290   2.645   0.329   2.970  0.0307  0.2308 -0.0297
 8130SOL     OW32291   0.317   3.215   5.346  0.5624 -0.2993 -0.2421
 8130SOL    HW232292   0.272   3.178   5.270 -3.1902 -1.2760  2.1706
 8130SOL    HW332293   0.345   3.139   5.396 -2.6833 -0.0687  2.2646
 8130SOL    MW432294   0.315   3.200   5.342  0.4156  0.6274  0.4924
 8131SOL     OW32295   1.374   2.180   4.110  0.2868  0.3886 -0.6345
 8131SOL    HW232296   1.365   2.236   4.186  0.1521  0.2636 -0.5580
 8131SOL    HW332297   1.360   2.238   4.035 -2.2467  0.0417 -0.5225
 8131SOL    MW432298   1.371   2.195   4.110  0.1047 -0.0683 -0.3464
 8132SOL     OW32299   6.017   2.440   3.358 -0.9481 -0.1671 -0.3130
 8132SOL    HW232300   6.067   2.518   3.335 -1.4056  0.2376  0.0514
 8132SOL    HW332301   6.080   2.369   3.353 -0.5241  0.2283 -0.6361
 8132SOL    MW432302   6.032   2.441   3.354  0.2201  0.7555 -0.5412
 8133SOL     OW32303   4.556   5.318   3.896  0.4035  0.8999 -0.6269
 8133SOL    HW232304   4.487   5.369   3.938  0.3489  0.7025 -0.4767
 8133SOL    HW332305   4.545   5.229   3.930  2.4383  1.3708  1.5650
 8133SOL    MW432306   4.546   5.313   3.906  0.6561  0.6190  0.1312
 8134SOL     OW32307   5.848   2.946   2.681 -0.0392 -0.4860 -0.0671
 8134SOL    HW232308   5.815   2.872   2.630 -1.6696  0.3939 -0.3458
 8134SOL    HW332309   5.941   2.950   2.659  0.0515 -2.3259 -0.1699
 8134SOL    MW432310   5.856   2.937   2.671 -0.0105 -0.4636  0.3891
 8135SOL     OW32311   4.612   3.031   0.826 -0.1656 -0.1193 -0.3978
 8135SOL    HW232312   4.644   3.016   0.737 -0.7128 -0.8731 -0.4732
 8135SOL    HW332313   4.682   2.999   0.882 -0.3904 -0.9149 -0.5622
 8135SOL    MW432314   4.626   3.025   0.821 -0.5565 -0.6397  0.1154
 8136SOL     OW32315   5.479   1.304   4.190 -0.2131 -0.2398 -0.0020
 8136SOL    HW232316   5.563   1.341   4.217 -0.4690 -0.6081  1.4183
 8136SOL    HW332317   5.501   1.237   4.127  0.4745  0.3593 -0.4157
 8136SOL    MW432318   5.493   1.300   4.185 -0.2424  0.2384  0.1464
 8137SOL     OW32319   0.942   2.311   1.072 -0.4607 -0.2493  0.1149
 8137SOL    HW232320   0.889   2.247   1.023 -1.9169  0.9975 -0.0128
 8137SOL    HW332321   1.029   2.272   1.074 -1.4856 -2.7453  0.9405
 8137SOL    MW432322   0.946   2.297   1.066 -0.1967  0.4711 -0.1881
 8138SOL     OW32323   2.712   5.588   4.887 -0.1759  0.1035 -0.4673
 8138SOL    HW232324   2.672   5.660   4.838 -0.6456  0.4516  0.4038
 8138SOL    HW332325   2.651   5.572   4.959  1.2712  0.6630  0.9320
 8138SOL    MW432326   2.698   5.596   4.890  0.0507 -0.9509  0.5975
 8139SOL     OW32327   4.124   3.687   5.990  0.2382  0.1232  0.0318
 8139SOL    HW232328   4.054   3.643   5.940  0.1329  1.2222 -0.8280
 8139SOL    HW332329   4.080   3.761   6.032  0.2530 -0.9615  2.1028
 8139SOL    MW432330   4.109   3.691   5.989 -0.0810 -0.7096 -0.0850
 8140SOL     OW32331   0.847   2.085   0.967 -0.3727  0.1747  0.3087
 8140SOL    HW232332   0.764   2.062   0.925 -0.1299 -0.2015  0.0201
 8140SOL    HW332333   0.912   2.071   0.898 -0.0282  0.0902  0.6489
 8140SOL    MW432334   0.844   2.080   0.952  1.0138 -0.0936 -0.5446
 8141SOL     OW32335   5.106   0.691   5.380 -0.2222 -0.1560  0.2903
 8141SOL    HW232336   5.098   0.678   5.475  1.0128  0.7724  0.5535
 8141SOL    HW332337   5.164   0.767   5.371 -2.4302  1.4625 -1.1984
 8141SOL    MW432338   5.113   0.699   5.391  0.6422 -0.1475  0.3677
 8142SOL     OW32339   3.631   1.652   5.305  0.0296  0.5640  0.0788
 8142SOL    HW232340   3.660   1.711   5.236  0.9424  0.6329  0.5039
 8142SOL    HW332341   3.646   1.564   5.269  0.3657  0.6000  0.1234
 8142SOL    MW432342   3.637   1.648   5.291  0.0632 -0.4391  0.3586
 8143SOL     OW32343   3.810   4.820   0.846  0.1273  0.1091  0.6469
 8143SOL    HW232344   3.731   4.818   0.900 -0.5741  0.3646 -0.3496
 8143SOL    HW332345   3.819   4.911   0.819 -0.6218 -0.3242 -1.2062
 8143SOL    MW432346   3.800   4.832   0.850  0.6997 -0.1425  0.2581
 8144SOL     OW32347   6.130   5.524   2.375  0.0598  0.4572  0.0111
 8144SOL    HW232348   6.039   5.507   2.350 -0.3832  2.4683  0.0970
 8144SOL    HW332349   6.124   5.569   2.459  1.2497 -0.7754  0.8028
 8144SOL    MW432350   6.117   5.528   2.383 -0.2785  0.1461 -0.0853
 8145SOL     OW32351   3.830   2.136   2.118  0.0282 -0.4005 -0.0056
 8145SOL    HW232352   3.778   2.056   2.130 -0.5948 -0.1715 -1.0646
 8145SOL    HW332353   3.783   2.185   2.051  1.5093 -0.0890 -0.8509
 8145SOL    MW432354   3.817   2.132   2.111  0.0200 -0.1165 -0.4233
 8146SOL     OW32355   2.978   5.323   3.247  0.7063 -0.3452 -0.2649
 8146SOL    HW232356   3.034   5.328   3.324  1.5587 -0.5865 -0.8559
 8146SOL    HW332357   2.909   5.387   3.263  1.0420 -0.1848  0.5646
 8146SOL    MW432358   2.976   5.332   3.259  0.3670 -0.2498 -0.3774
 8147SOL     OW32359   3.580   3.559   4.829 -0.1403 -0.1900  0.6055
 8147SOL    HW232360   3.489   3.540   4.854 -0.2889  1.2606  1.2762
 8147SOL    HW332361   3.630   3.485   4.863 -1.0977 -1.1752 -0.0662
 8147SOL    MW432362   3.575   3.547   4.837 -0.1766  0.1540 -0.8007
 8148SOL     OW32363   5.065   5.495   3.178  0.8693  0.0872  0.3880
 8148SOL    HW232364   5.006   5.433   3.221 -0.1978  0.9779  0.2440
 8148SOL    HW332365   5.017   5.524   3.100  1.5672  0.7009  0.1750
 8148SOL    MW432366   5.051   5.491   3.173  0.0939  0.3477  0.2663
 8149SOL     OW32367   1.637   4.976   3.950  0.0191 -0.2069 -0.1776
 8149SOL    HW232368   1.668   5.066   3.963  0.6604 -0.1289 -1.9478
 8149SOL    HW332369   1.541   4.984   3.952  0.0523  0.6584 -0.9834
 8149SOL    MW432370   1.628   4.989   3.952  0.4481 -0.0880 -0.2501
 8150SOL     OW32371   2.506   4.860   5.453 -0.1447 -0.5099  0.3094
 8150SOL    HW232372   2.520   4.829   5.542  0.9706  2.4483  1.2797
 8150SOL    HW332373   2.569   4.810   5.400  1.1886 -0.3023  1.6570
 8150SOL    MW432374   2.516   4.849   5.458  0.2326 -0.1063 -0.1187
 8151SOL     OW32375   4.923   3.426   1.384 -0.3322  0.0615  0.0411
 8151SOL    HW232376   4.973   3.422   1.303  1.5180 -2.5145  1.1682
 8151SOL    HW332377   4.841   3.468   1.360  0.2382 -0.3948 -3.0974
 8151SOL    MW432378   4.919   3.431   1.370 -0.0573  0.1223 -0.2107
 8152SOL     OW32379   3.218   2.482   2.836 -0.1424  0.3811  0.0729
 8152SOL    HW232380   3.154   2.516   2.898 -0.9440  0.0961 -0.5583
 8152SOL    HW332381   3.267   2.416   2.885  0.1328  1.0840  0.7565
 8152SOL    MW432382   3.216   2.477   2.850  0.1921 -0.4891  0.0513
 8153SOL     OW32383   3.979   2.230   2.906 -0.5811 -0.5931 -0.3135
 8153SOL    HW232384   3.950   2.273   2.826  2.0746 -0.8322 -1.5216
 8153SOL    HW332385   3.958   2.137   2.892 -1.1929 -0.4752 -0.1940
 8153SOL    MW432386   3.973   2.223   2.894  0.0638 -0.4190 -0.4545
 8154SOL     OW32387   4.043   3.376   6.110  0.0991  0.3242  0.3260
 8154SOL    HW232388   4.108   3.406   6.046 -0.3512 -0.6611 -0.6327
 8154SOL    HW332389   4.056   3.433   6.185  2.2163  0.0451  0.2578
 8154SOL    MW432390   4.054   3.387   6.111  0.2767 -0.4420  0.0018
 8155SOL     OW32391   5.154   3.172   1.428 -0.4799  0.1459 -0.3529
 8155SOL    HW232392   5.232   3.120   1.410  1.3105  2.9596 -1.5209
 8155SOL    HW332393   5.149   3.176   1.524  1.5364  0.7754 -0.2204
 8155SOL    MW432394   5.164   3.166   1.438 -0.1388  0.0252  0.3674
 8156SOL     OW32395   0.837   6.351   0.089 -0.3538 -0.1148 -0.1915
 8156SOL    HW232396   0.777   6.299   0.142  0.5987 -0.7807  0.2729
 8156SOL    HW332397   0.856   6.428   0.142 -1.3323  0.4518 -0.6421
 8156SOL    MW432398   0.832   6.354   0.103 -0.0078  0.1396 -0.8813
 8157SOL     OW32399   1.361   5.019   2.582 -0.3760 -0.0857  0.2603
 8157SOL    HW232400   1.304   5.024   2.504 -0.4816  0.2644  0.3566
 8157SOL    HW332401   1.304   5.046   2.654 -0.5236 -1.2365  0.5975
 8157SOL    MW432402   1.346   5.023   2.581  0.1541 -0.4649 -0.3591
 8158SOL     OW32403   3.331   3.638   3.180 -0.2514 -0.3282  0.4340
 8158SOL    HW232404   3.283   3.719   3.163  0.9498  0.1614 -0.8424
 8158SOL    HW332405   3.270   3.569   3.157 -0.8535  0.2504  0.2551
 8158SOL    MW432406   3.317   3.640   3.175 -0.1281  0.5873 -0.3246
 8159SOL     OW32407   5.391   2.056   0.023  0.5479 -0.0061  0.0896
 8159SOL    HW232408   5.469   2.038   0.076 -0.6426 -0.2806  1.8280
 8159SOL    HW332409   5.373   2.149   0.039 -0.4895 -0.3687  1.1587
 8159SOL    MW432410   5.399   2.066   0.032  1.1994  0.0597 -0.2883
 8160SOL     OW32411   1.134   4.674   0.562  0.1262 -0.0513 -0.0719
 8160SOL    HW232412   1.089   4.598   0.528  0.5789 -0.1533 -0.4569
 8160SOL    HW332413   1.220   4.641   0.590 -0.0518  0.1206  0.7235
 8160SOL    MW432414   1.140   4.660   0.561  0.5568 -0.5461 -0.2967
 8161SOL     OW32415   0.498   0.180   4.897  0.4624  0.4456  0.0379
 8161SOL    HW232416   0.522   0.268   4.925 -2.1281  0.9500  0.9233
 8161SOL    HW332417   0.528   0.174   4.806 -1.6317  3.2861 -0.9788
 8161SOL    MW432418   0.505   0.191   4.889  0.4601 -0.1663 -0.3359
 8162SOL     OW32419   3.553   6.013   0.728 -0.0534 -0.0520  0.0746
 8162SOL    HW232420   3.470   6.008   0.776  0.4753 -1.6054  0.8973
 8162SOL    HW332421   3.602   5.937   0.758  1.4079  0.4684 -0.9149
 8162SOL    MW432422   3.548   6.002   0.738 -0.1340  0.6077 -0.1763
 8163SOL     OW32423   3.656   3.334   1.418 -0.1605  0.4498  0.4445
 8163SOL    HW232424   3.726   3.282   1.379  0.4920  1.3244  0.4172
 8163SOL    HW332425   3.693   3.421   1.426 -1.5348  1.1482 -0.3714
 8163SOL    MW432426   3.670   3.338   1.414  0.1517 -0.5197 -0.5960
 8164SOL     OW32427   5.447   1.125   4.395 -0.0581  0.1667  0.2948
 8164SOL    HW232428   5.425   1.182   4.321  1.0306  0.0735 -0.1230
 8164SOL    HW332429   5.418   1.038   4.368 -0.2817  0.2502  0.2660
 8164SOL    MW432430   5.440   1.121   4.382 -0.5289  0.2646  0.3453
 8165SOL     OW32431   5.201   4.153   1.332 -0.6593 -0.0605  0.2021
 8165SOL    HW232432   5.215   4.233   1.282  3.2044 -1.3759 -1.1742
 8165SOL    HW332433   5.191   4.085   1.265  1.4160 -1.4073  1.1619
 8165SOL    MW432434   5.201   4.154   1.316  0.2135 -0.8462  0.1962
 8166SOL     OW32435   3.537   1.342   4.268 -0.1965 -0.1838  0.5968
 8166SOL    HW232436   3.475   1.357   4.197  1.0674  0.4493 -0.4136
 8166SOL    HW332437   3.613   1.396   4.246  0.2560 -0.0139  2.4092
 8166SOL    MW432438   3.539   1.351   4.256 -0.5267  0.3883 -0.2692
 8167SOL     OW32439   3.466   5.015   1.591  0.5337  0.0172  0.5527
 8167SOL    HW232440   3.429   5.062   1.666 -1.4784  3.0412 -2.0468
 8167SOL    HW332441   3.397   4.954   1.565  0.2203  0.6507 -0.1517
 8167SOL    MW432442   3.452   5.014   1.598 -0.1376 -0.1594  0.4252
 8168SOL     OW32443   2.445   2.587   3.928  0.0977 -0.0976  0.0274
 8168SOL    HW232444   2.506   2.659   3.940 -0.0693 -0.0235  0.4393
 8168SOL    HW332445   2.418   2.593   3.837  2.1185 -1.2348 -0.7024
 8168SOL    MW432446   2.449   2.597   3.918  0.4515 -0.3584 -0.5635
 8169SOL     OW32447   5.376   4.864   0.433 -0.0762  0.5109 -0.4287
 8169SOL    HW232448   5.356   4.847   0.341  2.8711  0.8443 -1.2578
 8169SOL    HW332449   5.403   4.779   0.468 -0.4054  0.5351 -0.1161
 8169SOL    MW432450   5.377   4.851   0.426 -0.1877 -0.1020  0.5649
 8170SOL     OW32451   0.170   0.302   4.128  0.1189 -0.0635  0.0386
 8170SOL    HW232452   0.196   0.255   4.049 -1.8374  0.6831 -1.1263
 8170SOL    HW332453   0.251   0.318   4.175  1.1486 -1.9591 -1.0134
 8170SOL    MW432454   0.184   0.298   4.124  0.1833 -0.2418 -0.0020
 8171SOL     OW32455   4.310   5.452   1.339  0.4080  0.1962  0.6121
 8171SOL    HW232456   4.286   5.427   1.428 -0.4478 -0.0137  0.3369
 8171SOL    HW332457   4.382   5.393   1.316 -1.2154 -1.7509  0.1670
 8171SOL    MW432458   4.316   5.441   1.348  0.6618 -0.3730 -0.2510
 8172SOL     OW32459   1.681   5.419   1.653 -0.0432 -0.0910 -0.3420
 8172SOL    HW232460   1.640   5.482   1.594 -0.0149 -0.8200 -1.1501
 8172SOL    HW332461   1.728   5.359   1.596  1.3159  0.1254  0.5119
 8172SOL    MW432462   1.682   5.419   1.638 -0.4521  0.3166 -0.3559
 8173SOL     OW32463   0.812   6.391   5.683  0.3527  0.3800 -0.7660
 8173SOL    HW232464   0.747   6.377   5.614  1.0820 -0.5912 -1.2880
 8173SOL    HW332465   0.762   6.427   5.757 -0.5266  0.9382 -1.6173
 8173SOL    MW432466   0.797   6.394   5.684  0.1158  0.3073 -0.5138
 8174SOL     OW32467   5.694   5.387   3.322 -0.1006 -0.0327  0.0635
 8174SOL    HW232468   5.761   5.409   3.256  0.0731  1.0249  0.5826
 8174SOL    HW332469   5.681   5.293   3.311 -0.0249  0.0974 -1.4428
 8174SOL    MW432470   5.701   5.377   3.312  0.0640 -0.4089 -0.3422
 8175SOL     OW32471   5.609   0.196   4.772  0.2636 -0.5159 -0.6174
 8175SOL    HW232472   5.527   0.159   4.740  1.2276 -2.2245 -1.2152
 8175SOL    HW332473   5.582   0.260   4.839 -1.5150 -1.6721 -0.1677
 8175SOL    MW432474   5.594   0.200   4.777  0.1585  0.0153  0.0037
 8176SOL     OW32475   4.369   3.965   1.936  0.2816  0.1123 -0.1632
 8176SOL    HW232476   4.278   3.994   1.938  0.4187  0.5065  0.4400
 8176SOL    HW332477   4.372   3.891   1.997  1.0754  2.2650  2.6424
 8176SOL    MW432478   4.358   3.959   1.944  0.4983 -0.1933 -0.0711
 8177SOL     OW32479   5.398   3.696   3.744  0.6263 -0.3788 -0.3592
 8177SOL    HW232480   5.484   3.697   3.784  0.7573 -1.9663 -0.5335
 8177SOL    HW332481   5.388   3.607   3.709 -2.0396 -1.0715  1.7866
 8177SOL    MW432482   5.408   3.685   3.745  0.0577 -0.4830 -0.2552
 8178SOL     OW32483   4.440   2.162   5.163  0.1942 -0.6530 -0.5804
 8178SOL    HW232484   4.489   2.085   5.192  0.2361 -0.3987  0.0551
 8178SOL    HW332485   4.448   2.224   5.236 -1.1015 -0.6130 -0.4541
 8178SOL    MW432486   4.448   2.160   5.177  0.2024  0.9046  0.1464
 8179SOL     OW32487   4.995   4.586   4.847 -0.0009  0.1298 -0.4604
 8179SOL    HW232488   5.038   4.501   4.835 -1.5937 -0.8274  0.4078
 8179SOL    HW332489   5.007   4.630   4.762  1.3856 -0.6700 -0.7238
 8179SOL    MW432490   5.002   4.581   4.834 -0.2553 -0.0671 -0.2695
 8180SOL     OW32491   4.216   6.371   2.946  0.0718 -0.1301  0.2390
 8180SOL    HW232492   4.181   6.372   2.857 -0.3073  0.6605  0.3937
 8180SOL    HW332493   4.145   6.405   3.000  0.2707 -0.6711  0.8631
 8180SOL    MW432494   4.202   6.375   2.941  0.3646 -0.0493 -0.2712
 8181SOL     OW32495   2.622   2.843   1.060 -0.6045  0.0495  0.0931
 8181SOL    HW232496   2.623   2.749   1.075 -1.9067 -0.1582 -0.9628
 8181SOL    HW332497   2.606   2.881   1.146 -0.7394 -0.7215  0.4172
 8181SOL    MW432498   2.620   2.836   1.073  0.1987  0.6911 -0.8124
 8182SOL     OW32499   3.944   3.881   3.315 -0.2393 -0.5215 -0.2100
 8182SOL    HW232500   3.876   3.920   3.370 -0.9470 -2.1559  0.1579
 8182SOL    HW332501   4.009   3.950   3.304 -0.6333  0.2278  1.7370
 8182SOL    MW432502   3.944   3.895   3.321  0.2914  0.0856  0.4709
 8183SOL     OW32503   6.214   0.549   4.464  0.0482 -0.3581  0.0255
 8183SOL    HW232504   6.294   0.568   4.512 -0.5359 -0.5839  1.1166
 8183SOL    HW332505   6.174   0.635   4.448 -0.1781 -0.3342  0.7029
 8183SOL    MW432506   6.219   0.563   4.468 -0.1811  0.1218  0.3991
 8184SOL     OW32507   0.283   0.457   5.190  0.0438  0.9230  0.5045
 8184SOL    HW232508   0.370   0.424   5.213 -1.0947 -2.3969  0.5157
 8184SOL    HW332509   0.223   0.408   5.246 -1.8929  3.5231  0.8921
 8184SOL    MW432510   0.286   0.446   5.200  0.4264 -0.0209  0.0646
 8185SOL     OW32511   3.222   4.209   1.064  0.4244 -0.7062  0.2327
 8185SOL    HW232512   3.130   4.223   1.088  0.7582 -0.8134  1.6976
 8185SOL    HW332513   3.262   4.296   1.069  0.7293 -0.8836  1.2138
 8185SOL    MW432514   3.215   4.222   1.068  0.1760 -0.0255  0.8108
 8186SOL     OW32515   2.874   4.799   2.604  0.3531 -0.5705  0.1254
 8186SOL    HW232516   2.874   4.788   2.699  0.1230  0.0271  0.1994
 8186SOL    HW332517   2.786   4.830   2.583  0.7446  0.4320 -0.1384
 8186SOL    MW432518   2.863   4.802   2.614  0.3988 -0.0776  0.2004
 8187SOL     OW32519   4.034   1.585   3.152 -0.1348 -0.5133 -1.0190
 8187SOL    HW232520   4.063   1.676   3.150  2.0344 -1.0548  1.0318
 8187SOL    HW332521   4.107   1.536   3.114  0.1705 -1.6215  0.8625
 8187SOL    MW432522   4.047   1.590   3.147 -0.7746 -0.5602  0.4142
 8188SOL     OW32523   5.080   0.128   6.188 -0.1449 -0.0607 -0.5369
 8188SOL    HW232524   5.058   0.125   6.095 -0.1763  0.2207 -0.5391
 8188SOL    HW332525   5.169   0.163   6.191 -0.4361  0.6765 -0.4201
 8188SOL    MW432526   5.089   0.132   6.176  0.2926 -0.1502 -0.2752
 8189SOL     OW32527   1.013   2.513   2.363  0.2843  0.3346  0.4014
 8189SOL    HW232528   0.985   2.577   2.297  1.6284 -0.4257 -0.9483
 8189SOL    HW332529   1.101   2.489   2.338 -0.2111 -2.1459  0.8030
 8189SOL    MW432530   1.021   2.518   2.351  0.2231 -0.1131 -0.3026
 8190SOL     OW32531   4.135   5.883   0.319  0.7894 -0.7638 -0.1213
 8190SOL    HW232532   4.140   5.885   0.224  0.1804 -0.9252 -0.1570
 8190SOL    HW332533   4.073   5.813   0.339  0.2217 -0.1346  0.3685
 8190SOL    MW432534   4.128   5.874   0.309 -0.6129 -0.0972 -0.2631
 8191SOL     OW32535   3.601   4.079   2.072  0.3760  0.5535  0.8020
 8191SOL    HW232536   3.539   4.007   2.082  0.6231  0.0252 -0.9954
 8191SOL    HW332537   3.549   4.158   2.084 -0.4290  0.1014  0.3842
 8191SOL    MW432538   3.586   4.080   2.075 -0.0979 -0.1253  0.3873
 8192SOL     OW32539   5.035   5.939   4.973  0.0789 -0.0066  0.1446
 8192SOL    HW232540   5.068   5.943   5.063  3.6411  1.4912 -1.0706
 8192SOL    HW332541   5.024   6.030   4.947 -2.8825 -0.4120 -0.4302
 8192SOL    MW432542   5.038   5.952   4.981  0.0673  0.0786  0.3174
 8193SOL     OW32543   3.743   4.789   1.977 -0.4214 -0.3329 -0.0953
 8193SOL    HW232544   3.820   4.735   1.962  0.7989  0.8553  1.4874
 8193SOL    HW332545   3.669   4.735   1.948  0.8714 -2.0772 -0.3026
 8193SOL    MW432546   3.744   4.775   1.971 -0.0395 -0.3392 -0.0336
 8194SOL     OW32547   0.626   0.425   4.917 -0.1110 -0.1029 -0.4159
 8194SOL    HW232548   0.664   0.469   4.841  1.5262 -1.7888 -0.6434
 8194SOL    HW332549   0.576   0.494   4.961  1.6788  1.8028 -1.1528
 8194SOL    MW432550   0.625   0.440   4.913  0.1065  0.5029 -0.5388
 8195SOL     OW32551   5.217   4.283   3.593 -0.5177 -0.0506 -0.1391
 8195SOL    HW232552   5.245   4.226   3.664 -0.2843 -0.4665 -0.5637
 8195SOL    HW332553   5.277   4.264   3.521 -0.2956  0.8850 -0.2194
 8195SOL    MW432554   5.229   4.273   3.593  0.0620  0.3348 -0.4509
 8196SOL     OW32555   4.410   3.573   5.754  0.1288  0.1143 -0.1106
 8196SOL    HW232556   4.373   3.535   5.834  0.4156 -1.0850 -0.5307
 8196SOL    HW332557   4.356   3.651   5.738 -2.0415 -1.3758 -0.5172
 8196SOL    MW432558   4.398   3.578   5.762 -0.0335  0.0146  0.3872
 8197SOL     OW32559   1.178   5.936   4.182  0.3463  0.3646 -0.2500
 8197SOL    HW232560   1.255   5.972   4.139 -0.7617 -1.9507 -4.8059
 8197SOL    HW332561   1.205   5.848   4.210 -0.4868 -0.4529 -1.8606
 8197SOL    MW432562   1.192   5.929   4.180 -0.8251  0.0279 -0.5979
 8198SOL     OW32563   3.758   3.736   2.694 -0.5640 -0.0920 -0.2240
 8198SOL    HW232564   3.788   3.649   2.720 -1.8170 -0.3629  0.4175
 8198SOL    HW332565   3.761   3.787   2.775  1.0351  0.7531 -0.7788
 8198SOL    MW432566   3.762   3.731   2.708 -0.1525 -0.2488 -0.6777
 8199SOL     OW32567   0.107   3.701   2.448 -0.0451  0.2378  0.1227
 8199SOL    HW232568   0.122   3.716   2.541 -0.1013 -0.7362  0.3028
 8199SOL    HW332569   0.130   3.783   2.406  1.5348  0.1976  0.8324
 8199SOL    MW432570   0.112   3.714   2.455  0.2505 -0.4079 -0.3676
 8200SOL     OW32571   4.264   2.332   0.412  0.0350  0.0783 -0.0728
 8200SOL    HW232572   4.175   2.300   0.398 -0.0515  0.8464 -1.5011
 8200SOL    HW332573   4.314   2.254   0.437 -0.4776 -0.9435 -2.0040
 8200SOL    MW432574   4.259   2.317   0.413  0.4867  0.1826 -0.2253
 8201SOL     OW32575   5.667   0.468   4.178  0.1521  0.1362 -0.5045
 8201SOL    HW232576   5.763   0.472   4.176  0.1624 -0.2417 -1.3304
 8201SOL    HW332577   5.641   0.516   4.099 -0.3673  0.8240  0.0744
 8201SOL    MW432578   5.676   0.475   4.167 -0.3555  0.3815 -0.1821
 8202SOL     OW32579   3.366   6.466   1.086  0.5219 -0.0959 -0.2858
 8202SOL    HW232580   3.331   6.503   1.167 -0.1759  2.2451 -1.5598
 8202SOL    HW332581   3.461   6.481   1.091  0.2838  1.6391 -0.6299
 8202SOL    MW432582   3.374   6.473   1.098  0.4655  0.3801  0.1217
 8203SOL     OW32583   4.610   2.247   0.184  0.5438 -0.2972  0.2202
 8203SOL    HW232584   4.691   2.280   0.224  0.6958 -0.0926 -0.2499
 8203SOL    HW332585   4.547   2.244   0.256 -0.0349  2.7465 -0.0143
 8203SOL    MW432586   4.612   2.251   0.199 -0.4080 -0.1706  0.1983
 8204SOL     OW32587   4.639   1.997   2.833  0.0833  0.1040 -0.1332
 8204SOL    HW232588   4.610   1.909   2.808 -0.2549  0.0623  0.3705
 8204SOL    HW332589   4.733   1.988   2.847  0.1418 -0.0520 -0.5974
 8204SOL    MW432590   4.648   1.984   2.832  1.0694  0.5122  0.3508
 8205SOL     OW32591   3.926   1.423   0.761  0.1796 -1.0803 -0.2389
 8205SOL    HW232592   3.874   1.403   0.683  0.2617 -1.3784 -0.2199
 8205SOL    HW332593   3.871   1.395   0.835 -2.0000  3.4535  0.1855
 8205SOL    MW432594   3.912   1.416   0.761 -0.3534 -0.0973 -0.3870
 8206SOL     OW32595   5.927   5.693   6.093 -0.0091 -0.2170  0.1122
 8206SOL    HW232596   5.855   5.695   6.030  0.8928  0.0959 -0.9329
 8206SOL    HW332597   5.991   5.756   6.059  0.9867 -0.8437  0.7632
 8206SOL    MW432598   5.926   5.702   6.081  0.1610 -0.1432 -0.3028
 8207SOL     OW32599   1.579   0.144   2.909  0.3267 -0.8233  0.1408
 8207SOL    HW232600   1.604   0.113   2.996  0.9295  0.2430  0.3714
 8207SOL    HW332601   1.564   0.065   2.858 -0.3254 -1.4615  1.2954
 8207SOL    MW432602   1.581   0.130   2.913  0.5063 -0.2459  0.0818
 8208SOL     OW32603   5.242   4.927   3.252  0.3382  0.4928  0.1033
 8208SOL    HW232604   5.308   4.867   3.216 -2.1111 -0.5957 -2.9610
 8208SOL    HW332605   5.286   5.012   3.254  2.4718 -0.5408  0.2464
 8208SOL    MW432606   5.257   4.930   3.248  0.4240  0.0713 -0.2328
 8209SOL     OW32607   0.935   2.207   1.684  0.0824  0.1459 -0.2029
 8209SOL    HW232608   0.921   2.160   1.601  0.5184  0.3609 -0.4055
 8209SOL    HW332609   1.030   2.204   1.696  0.0561  0.4702  0.0842
 8209SOL    MW432610   0.946   2.200   1.675  0.4791  0.0681 -0.8353
 8210SOL     OW32611   1.874   1.140   1.041  0.1066 -0.1464  0.4553
 8210SOL    HW232612   1.873   1.138   0.945 -0.0444  0.1641  0.4482
 8210SOL    HW332613   1.797   1.091   1.068  1.4313 -2.3418  0.4702
 8210SOL    MW432614   1.864   1.133   1.032 -0.0983  0.0910  0.1171
 8211SOL     OW32615   5.425   4.598   2.251 -0.6679  0.3003 -0.2499
 8211SOL    HW232616   5.382   4.542   2.316 -1.0830 -0.0912 -0.8442
 8211SOL    HW332617   5.518   4.581   2.263 -0.7664 -0.1850 -0.1185
 8211SOL    MW432618   5.431   4.588   2.261  0.0029 -0.5758 -0.0502
 8212SOL     OW32619   2.836   6.016   0.412 -0.0738  0.4553  0.1286
 8212SOL    HW232620   2.852   6.108   0.434  1.3361  0.3008 -0.1958
 8212SOL    HW332621   2.751   5.996   0.453 -2.3280  2.9210 -2.8159
 8212SOL    MW432622   2.827   6.026   0.420  0.6541  0.1364  0.0515
 8213SOL     OW32623   4.822   5.158   5.218 -0.1415  0.0047  0.0810
 8213SOL    HW232624   4.802   5.251   5.229 -0.0523 -0.1303  1.5942
 8213SOL    HW332625   4.886   5.139   5.287 -1.0129 -1.4230  0.5514
 8213SOL    MW432626   4.828   5.168   5.229  0.4463 -0.2984 -0.1537
 8214SOL     OW32627   3.797   2.287   3.166 -0.6199 -0.2491 -0.6775
 8214SOL    HW232628   3.738   2.305   3.092 -1.0352 -0.7316 -0.4715
 8214SOL    HW332629   3.872   2.243   3.126 -1.8312 -2.5839 -0.5830
 8214SOL    MW432630   3.799   2.283   3.151 -0.8398  0.1912  0.5671
 8215SOL     OW32631   2.879   1.014   1.566  0.2739 -0.6352 -0.0475
 8215SOL    HW232632   2.811   0.955   1.532 -0.4496  0.5640 -0.7592
 8215SOL    HW332633   2.850   1.036   1.654  0.4838 -1.2326  0.1763
 8215SOL    MW432634   2.866   1.009   1.573  0.6402 -0.4504 -0.8895
 8216SOL     OW32635   4.685   2.105   0.917  0.1555 -0.5365 -0.0590
 8216SOL    HW232636   4.698   2.062   1.002  0.2640 -1.4970 -0.5433
 8216SOL    HW332637   4.772   2.114   0.881 -0.0208 -2.0512 -0.9580
 8216SOL    MW432638   4.698   2.100   0.924 -0.6054 -0.0043 -0.1617
 8217SOL     OW32639   2.827   0.121   5.453 -0.2465 -0.1561  0.2233
 8217SOL    HW232640   2.788   0.106   5.539 -1.2105 -0.5559 -0.2783
 8217SOL    HW332641   2.918   0.091   5.463 -0.3309 -0.1453  1.1122
 8217SOL    MW432642   2.834   0.115   5.465 -0.0333  0.1896  0.3965
 8218SOL     OW32643   1.420   1.798   4.779 -0.3032  0.0108 -0.2172
 8218SOL    HW232644   1.490   1.781   4.715  1.2635 -0.6960  1.5843
 8218SOL    HW332645   1.465   1.836   4.854 -2.0789  0.7715  0.5104
 8218SOL    MW432646   1.435   1.800   4.780  0.6100  0.5248 -0.3119
 8219SOL     OW32647   1.306   1.838   5.578 -0.4449 -0.3324 -0.3035
 8219SOL    HW232648   1.273   1.845   5.668  1.3902 -0.6109  0.4279
 8219SOL    HW332649   1.259   1.763   5.542 -1.3478 -0.1015  0.3323
 8219SOL    MW432650   1.295   1.829   5.585  0.2049 -0.1405 -0.4904
 8220SOL     OW32651   4.150   4.382   1.708 -0.6245  0.0980 -0.2725
 8220SOL    HW232652   4.196   4.304   1.677 -0.4444 -0.5076  1.3915
 8220SOL    HW332653   4.077   4.393   1.647 -1.2421 -1.9665  0.0109
 8220SOL    MW432654   4.147   4.373   1.696  0.9873  0.6042 -0.7347
 8221SOL     OW32655   1.012   1.089   2.750  0.4965  0.4024 -0.6086
 8221SOL    HW232656   0.965   1.082   2.666  1.5261 -2.3944 -1.0536
 8221SOL    HW332657   1.099   1.123   2.726  1.4238 -2.0597 -1.0545
 8221SOL    MW432658   1.018   1.093   2.735 -0.1523 -0.3014 -0.5116
 8222SOL     OW32659   0.268   0.354   1.328 -0.0839  0.0112 -0.1956
 8222SOL    HW232660   0.191   0.389   1.373 -0.3819  0.0429 -0.7231
 8222SOL    HW332661   0.256   0.260   1.327 -0.3402  0.0440 -0.6672
 8222SOL    MW432662   0.256   0.346   1.334 -0.3725  0.0782  0.0708
 8223SOL     OW32663   1.325   5.976   0.159  0.1265 -0.2495  0.4739
 8223SOL    HW232664   1.383   6.037   0.114  0.5529 -1.0929 -0.1484
 8223SOL    HW332665   1.254   5.961   0.097 -0.3528  0.1728  0.9193
 8223SOL    MW432666   1.323   5.982   0.145  0.5866 -0.3591 -0.0629
 8224SOL     OW32667   4.833   1.222   2.166 -0.0933 -0.3295  0.7959
 8224SOL    HW232668   4.802   1.282   2.234 -0.2547 -0.2592  0.6615
 8224SOL    HW332669   4.758   1.211   2.108 -0.1076 -0.7665  0.8900
 8224SOL    MW432670   4.819   1.229   2.168  0.3343  0.1151  0.1249
 8225SOL     OW32671   6.107   0.201   0.255 -0.1171 -0.2863  0.3417
 8225SOL    HW232672   6.114   0.291   0.223 -0.3709  0.1255  1.3980
 8225SOL    HW332673   6.018   0.175   0.231 -0.5729  0.2876  1.3273
 8225SOL    MW432674   6.096   0.209   0.248 -0.1616 -0.0491 -0.5057
 8226SOL     OW32675   5.069   0.806   0.228  0.3688  0.2638 -0.0135
 8226SOL    HW232676   4.983   0.829   0.192  1.4079 -0.1716 -3.0736
 8226SOL    HW332677   5.064   0.712   0.245  0.3953  0.1265 -0.7391
 8226SOL    MW432678   5.057   0.797   0.226 -0.1361  0.1657 -0.3692
 8227SOL     OW32679   4.007   0.414   3.711  0.2807  0.7318 -0.5940
 8227SOL    HW232680   3.914   0.399   3.694 -0.3985 -0.4841  3.3299
 8227SOL    HW332681   4.016   0.509   3.708 -1.0011  0.8649 -1.2845
 8227SOL    MW432682   3.996   0.425   3.708 -0.5562 -0.7797 -0.4921
 8228SOL     OW32683   1.533   4.561   2.537  0.0381 -0.3396  0.3590
 8228SOL    HW232684   1.479   4.630   2.574  1.4092  1.4238 -0.8046
 8228SOL    HW332685   1.472   4.488   2.522 -1.7281  1.0855  0.3693
 8228SOL    MW432686   1.518   4.560   2.540 -0.4611 -0.2883  0.0739
 8229SOL     OW32687   2.098   5.248   3.301 -0.6484 -0.2293  0.4697
 8229SOL    HW232688   2.030   5.297   3.347 -3.0688 -1.7270 -1.2901
 8229SOL    HW332689   2.068   5.157   3.303 -0.0711 -0.5973 -2.5961
 8229SOL    MW432690   2.085   5.243   3.307  0.4867  0.1759  0.4727
 8230SOL     OW32691   1.138   5.517   6.216 -0.3311  0.0346 -0.6284
 8230SOL    HW232692   1.225   5.549   6.191  0.4440 -1.8985 -0.6075
 8230SOL    HW332693   1.100   5.484   6.135  0.2280 -1.8583 -0.1777
 8230SOL    MW432694   1.144   5.517   6.202  0.3295 -0.7317 -0.2537
 8231SOL     OW32695   2.806   0.366   0.098 -0.5327 -0.1420  0.0627
 8231SOL    HW232696   2.851   0.301   0.045  1.2515  0.3927  0.8476
 8231SOL    HW332697   2.718   0.331   0.109 -0.0108 -1.7628 -0.6274
 8231SOL    MW432698   2.800   0.353   0.092  0.5078 -0.1263  0.4777
 8232SOL     OW32699   1.240   3.507   1.921 -0.7221 -0.0385  0.0332
 8232SOL    HW232700   1.278   3.443   1.981 -0.7992  1.2524  1.4928
 8232SOL    HW332701   1.295   3.500   1.842  1.5023  0.5414  1.4267
 8232SOL    MW432702   1.253   3.498   1.918  0.0952  0.2793  0.1147
 8233SOL     OW32703   1.975   5.630   4.552 -0.3486 -0.0429  0.4299
 8233SOL    HW232704   2.022   5.603   4.631  2.0748  0.3216 -0.7881
 8233SOL    HW332705   1.953   5.548   4.508  1.6901 -0.2438 -0.3236
 8233SOL    MW432706   1.978   5.616   4.557  0.0994  0.1036 -0.3343
 8234SOL     OW32707   5.024   1.034   2.637  0.2732  0.1210  0.2417
 8234SOL    HW232708   4.958   0.970   2.611 -0.9373  1.1657  0.6299
 8234SOL    HW332709   5.025   1.029   2.733  1.3053 -0.4022  0.2147
 8234SOL    MW432710   5.015   1.025   2.647 -0.0705 -0.8158 -0.6316
 8235SOL     OW32711   6.094   3.407   3.300  0.1909  0.5647 -0.0543
 8235SOL    HW232712   6.136   3.451   3.373  1.9150 -0.7408 -0.1926
 8235SOL    HW332713   6.154   3.421   3.226 -0.0358 -0.5835 -0.4808
 8235SOL    MW432714   6.108   3.414   3.300  0.2088  0.5373  0.3599
 8236SOL     OW32715   2.562   6.011   4.587 -0.1982 -0.4007  0.1362
 8236SOL    HW232716   2.477   6.039   4.554 -0.4751 -1.0159  0.3287
 8236SOL    HW332717   2.581   5.929   4.541  0.3590 -0.1954 -0.0149
 8236SOL    MW432718   2.553   6.004   4.577  0.1462  0.0382 -0.6930
 8237SOL     OW32719   3.334   0.328   5.198 -0.0790  0.1032 -0.1656
 8237SOL    HW232720   3.327   0.270   5.274 -2.0034 -1.4949 -1.4505
 8237SOL    HW332721   3.307   0.274   5.124  0.4141  1.9887 -1.8108
 8237SOL    MW432722   3.329   0.313   5.198 -0.1432  0.0682 -0.5517
 8238SOL     OW32723   1.660   0.947   3.660  0.2278 -0.6306  0.2913
 8238SOL    HW232724   1.665   0.989   3.746  0.3501 -2.0974  1.0390
 8238SOL    HW332725   1.749   0.952   3.626  0.2761 -0.4169  0.4446
 8238SOL    MW432726   1.672   0.953   3.667 -0.5660  0.0081  0.1810
 8239SOL     OW32727   3.385   5.680   2.819 -0.0665 -0.0254  0.0600
 8239SOL    HW232728   3.415   5.758   2.866  0.0877 -0.5882  0.9283
 8239SOL    HW332729   3.310   5.648   2.870  1.6622 -2.1077  1.4972
 8239SOL    MW432730   3.379   5.686   2.832  0.6202 -0.4468 -0.5490
 8240SOL     OW32731   2.226   5.821   4.752 -0.2760  0.1798 -0.0174
 8240SOL    HW232732   2.228   5.894   4.813 -0.3936  0.0630  0.1297
 8240SOL    HW332733   2.313   5.781   4.759 -0.3757  0.0077  0.2739
 8240SOL    MW432734   2.238   5.825   4.761  0.0893  0.2678  0.2428
 8241SOL     OW32735   5.875   3.599   5.217  0.6166 -0.4995  0.2037
 8241SOL    HW232736   5.923   3.675   5.250  1.3268 -1.3906  1.3131
 8241SOL    HW332737   5.796   3.635   5.176  1.1560  0.8455  0.3154
 8241SOL    MW432738   5.871   3.614   5.216 -0.2576 -0.2984 -0.1371
 8242SOL     OW32739   5.514   2.983   1.714  0.3855  0.1180  0.2715
 8242SOL    HW232740   5.601   3.007   1.680  0.4287  0.4913  0.6455
 8242SOL    HW332741   5.526   2.897   1.753  0.2713 -0.4622 -0.9172
 8242SOL    MW432742   5.527   2.975   1.714  0.3105  0.5041 -0.1465
 8243SOL     OW32743   6.173   3.813   0.590 -0.0775 -0.6689 -0.1632
 8243SOL    HW232744   6.203   3.749   0.654 -0.2258 -0.3354  0.2499
 8243SOL    HW332745   6.077   3.808   0.594 -0.0918 -1.2874 -1.0228
 8243SOL    MW432746   6.164   3.804   0.599 -0.6021 -0.1871 -0.1365
 8244SOL     OW32747   0.409   1.438   2.716  0.0292 -0.0217  0.4999
 8244SOL    HW232748   0.446   1.442   2.805  0.0884 -2.8212  0.6887
 8244SOL    HW332749   0.439   1.519   2.674  0.7271  0.9755  2.7309
 8244SOL    MW432750   0.417   1.449   2.722  0.6512  0.1283  0.6175
 8245SOL     OW32751   1.404   0.552   5.152  0.3894  0.0561 -0.3245
 8245SOL    HW232752   1.425   0.462   5.126 -1.2875 -0.0899 -1.3375
 8245SOL    HW332753   1.475   0.577   5.210  2.1295 -1.1135 -1.8289
 8245SOL    MW432754   1.416   0.543   5.156  0.1057 -0.1405 -0.6720
 8246SOL     OW32755   0.827   2.109   6.011  0.2755 -0.0360 -0.5833
 8246SOL    HW232756   0.806   2.029   5.962  0.4229 -0.0959 -0.5459
 8246SOL    HW332757   0.769   2.175   5.972  0.8985  0.0798 -1.3279
 8246SOL    MW432758   0.816   2.107   5.999  0.1518 -0.0536  0.5770
 8247SOL     OW32759   6.121   0.481   1.475 -0.2976 -0.2547  0.3656
 8247SOL    HW232760   6.051   0.479   1.410 -0.0135  0.8417  0.0063
 8247SOL    HW332761   6.180   0.411   1.448 -0.2226  0.1353 -0.5291
 8247SOL    MW432762   6.120   0.471   1.463 -0.3732 -0.2364 -0.5513
 8248SOL     OW32763   2.149   1.455   2.169  0.5899 -0.2467 -0.1327
 8248SOL    HW232764   2.196   1.468   2.087  0.4726 -0.4485 -0.2332
 8248SOL    HW332765   2.214   1.469   2.238  0.4218  1.1313 -0.2202
 8248SOL    MW432766   2.164   1.459   2.168 -0.6658 -0.1964 -0.3772
 8249SOL     OW32767   0.427   2.344   4.393 -0.0402 -0.1518 -0.7678
 8249SOL    HW232768   0.370   2.320   4.466 -0.4645  0.5218 -0.8704
 8249SOL    HW332769   0.500   2.283   4.399 -2.5521 -3.7498 -2.9090
 8249SOL    MW432770   0.429   2.333   4.403  0.4358 -0.0062 -0.3774
 8250SOL     OW32771   3.361   4.492   3.965 -0.6789  0.0386 -0.0467
 8250SOL    HW232772   3.425   4.436   4.009 -0.3149  0.8686  0.4967
 8250SOL    HW332773   3.290   4.432   3.940 -0.1342 -0.7229  0.1965
 8250SOL    MW432774   3.360   4.476   3.968 -0.6522  0.4239 -0.1833
 8251SOL     OW32775   3.055   6.043   2.916  0.0274  0.2263  0.5822
 8251SOL    HW232776   2.970   6.027   2.876  1.1493 -0.6057 -1.6302
 8251SOL    HW332777   3.051   5.997   3.000 -1.8020  0.5285  0.7100
 8251SOL    MW432778   3.043   6.035   2.922 -0.1212 -0.2562 -0.1982
 8252SOL     OW32779   0.432   2.256   3.714  0.4067 -0.1199  0.4918
 8252SOL    HW232780   0.459   2.331   3.767 -2.4648  1.1546  0.3869
 8252SOL    HW332781   0.384   2.295   3.640 -0.3187 -2.0151 -0.1134
 8252SOL    MW432782   0.429   2.271   3.711 -0.3304  0.3560  0.0162
 8253SOL     OW32783   3.737   3.876   4.973  0.2540  0.2618  0.0710
 8253SOL    HW232784   3.808   3.812   4.981  1.1779  1.4187  1.7621
 8253SOL    HW332785   3.771   3.955   5.014 -1.6516  1.1977 -0.0291
 8253SOL    MW432786   3.751   3.878   4.979  0.0703 -0.0937  0.2917
 8254SOL     OW32787   4.387   3.977   2.644  0.8253  0.3465  0.1209
 8254SOL    HW232788   4.379   4.012   2.733 -0.4334 -0.4738  0.3760
 8254SOL    HW332789   4.347   3.890   2.650  2.2574 -0.4047 -0.8750
 8254SOL    MW432790   4.380   3.970   2.656 -0.2927 -0.1456  0.2019
 8255SOL     OW32791   4.308   1.228   0.353  0.0017 -0.5119  0.6519
 8255SOL    HW232792   4.237   1.259   0.297  1.5667 -1.5581 -2.0850
 8255SOL    HW332793   4.276   1.145   0.388 -0.8223 -0.0632  1.0115
 8255SOL    MW432794   4.294   1.221   0.350 -1.0696  0.1917  0.3684
 8256SOL     OW32795   1.915   4.873   1.838 -0.3024 -0.2393 -0.0468
 8256SOL    HW232796   1.854   4.814   1.792  0.3468 -1.0855  0.1390
 8256SOL    HW332797   1.992   4.875   1.781 -0.1666  0.1165  0.1511
 8256SOL    MW432798   1.917   4.865   1.824 -0.0226 -0.0705  0.2728
 8257SOL     OW32799   0.142   4.314   1.945  0.3275 -0.0210  0.7531
 8257SOL    HW232800   0.082   4.377   1.984 -0.2411  0.1219 -0.3127
 8257SOL    HW332801   0.086   4.247   1.907  0.7409  0.7094 -1.2798
 8257SOL    MW432802   0.127   4.313   1.945  0.4189 -0.6476  0.5523
 8258SOL     OW32803   4.201   4.979   4.550 -0.1741 -0.6797  0.1789
 8258SOL    HW232804   4.107   4.963   4.558 -0.2398 -0.6921 -0.5874
 8258SOL    HW332805   4.216   5.061   4.597 -0.5546 -0.7132  0.3594
 8258SOL    MW432806   4.191   4.987   4.557 -0.0743 -0.2113 -0.3009
 8259SOL     OW32807   5.650   0.744   2.111 -0.3307  0.0234 -0.4056
 8259SOL    HW232808   5.561   0.779   2.126 -0.1269 -0.3722  2.2026
 8259SOL    HW332809   5.651   0.662   2.159  1.2940 -0.2496 -0.8769
 8259SOL    MW432810   5.638   0.738   2.120  0.4323 -0.1867 -0.0084
 8260SOL     OW32811   0.567   0.781   5.306  0.2804  0.1119  0.5152
 8260SOL    HW232812   0.539   0.871   5.289  2.5036  0.5359 -1.3354
 8260SOL    HW332813   0.633   0.789   5.374 -1.2021 -0.4667  2.1075
 8260SOL    MW432814   0.572   0.794   5.313  0.0679  0.4544  0.1581
 8261SOL     OW32815   2.108   5.481   1.379  1.0122 -0.2890  0.2620
 8261SOL    HW232816   2.129   5.389   1.364 -0.7800 -0.6223 -0.4820
 8261SOL    HW332817   2.020   5.491   1.344  1.4726  1.9223 -0.4260
 8261SOL    MW432818   2.099   5.470   1.372 -0.2413  0.2891  0.0961
 8262SOL     OW32819   3.184   5.461   1.406  0.3182 -0.1765  0.2998
 8262SOL    HW232820   3.245   5.535   1.400  0.7357 -0.4602  0.8822
 8262SOL    HW332821   3.232   5.395   1.456  0.0592 -0.9571 -0.4561
 8262SOL    MW432822   3.199   5.462   1.412 -0.0770 -0.4656  0.0557
 8263SOL     OW32823   5.379   1.952   4.507  0.3454  0.1169 -0.7208
 8263SOL    HW232824   5.419   1.905   4.434 -0.5462 -1.7545 -0.0697
 8263SOL    HW332825   5.420   1.915   4.585  0.7468  1.5645 -0.2014
 8263SOL    MW432826   5.390   1.941   4.508 -0.0846 -0.4782 -0.0365
 8264SOL     OW32827   5.267   5.773   3.057 -0.3333  0.5891  0.2275
 8264SOL    HW232828   5.203   5.706   3.079  0.3353  0.4884  2.0085
 8264SOL    HW332829   5.218   5.856   3.065 -0.4906  0.4611  0.6013
 8264SOL    MW432830   5.252   5.775   3.061 -0.6538  0.2163  0.0502
 8265SOL     OW32831   1.363   4.993   3.363 -0.7295 -0.5064  0.4237
 8265SOL    HW232832   1.426   5.016   3.432 -0.6596 -1.0786  0.5480
 8265SOL    HW332833   1.338   5.078   3.326 -1.6810 -0.0708  1.9478
 8265SOL    MW432834   1.368   5.008   3.368 -0.4370  0.0650  0.0242
 8266SOL     OW32835   2.058   2.233   1.323 -0.2147 -0.0517 -0.4083
 8266SOL    HW232836   2.012   2.161   1.367 -1.0936  0.7382  0.0092
 8266SOL    HW332837   2.084   2.291   1.395 -0.1065  0.3851 -0.8014
 8266SOL    MW432838   2.056   2.231   1.339  0.0154  0.2034 -0.0142
 8267SOL     OW32839   5.106   5.777   2.602  0.5023  0.1931 -0.6171
 8267SOL    HW232840   5.084   5.696   2.556 -0.9844  0.8899 -1.1928
 8267SOL    HW332841   5.161   5.748   2.675  1.7651 -1.0899 -1.9852
 8267SOL    MW432842   5.111   5.762   2.606  0.1860 -0.0503  0.0371
 8268SOL     OW32843   3.030   1.789   0.419 -0.0786 -0.3060 -0.2297
 8268SOL    HW232844   2.990   1.863   0.373  2.4537  0.4699 -1.3258
 8268SOL    HW332845   3.066   1.826   0.499  0.8393 -0.3959 -0.5851
 8268SOL    MW432846   3.029   1.804   0.423 -0.3091 -0.0220 -0.5571
 8269SOL     OW32847   0.458   0.657   5.030 -0.0676 -0.2301  0.0443
 8269SOL    HW232848   0.508   0.683   5.107 -0.3754  1.2820 -0.2316
 8269SOL    HW332849   0.378   0.618   5.065  0.3725 -0.7459  0.4817
 8269SOL    MW432850   0.454   0.655   5.045  0.1762  0.1710  0.3416
 8270SOL     OW32851   0.991   0.436   0.203 -0.1128  0.2017 -0.3921
 8270SOL    HW232852   0.962   0.348   0.229 -1.5306  0.9897  0.8410
 8270SOL    HW332853   0.987   0.435   0.107  0.5001 -1.2586 -0.4237
 8270SOL    MW432854   0.987   0.424   0.194  0.1259  0.1271 -0.4559
 8271SOL     OW32855   4.679   5.749   4.131 -0.2027  0.1993 -0.6406
 8271SOL    HW232856   4.632   5.816   4.081 -0.7063  0.8193  0.6265
 8271SOL    HW332857   4.759   5.733   4.080 -0.4715  1.1432 -1.3968
 8271SOL    MW432858   4.683   5.756   4.117  0.0786  0.2242 -0.5210
 8272SOL     OW32859   6.364   5.551   1.673 -0.2065  0.3786 -0.4596
 8272SOL    HW232860   6.314   5.509   1.743  1.3891 -0.0835  0.4554
 8272SOL    HW332861   6.437   5.594   1.718  1.2849 -0.5390 -1.8757
 8272SOL    MW432862   6.367   5.551   1.688  0.1530 -0.1555 -0.4508
 8273SOL     OW32863   6.011   5.926   2.832 -0.1178  1.1007  0.0868
 8273SOL    HW232864   5.961   6.006   2.825 -0.1115  1.0184 -1.2655
 8273SOL    HW332865   6.021   5.896   2.741 -0.2721 -0.5140  0.5659
 8273SOL    MW432866   6.006   5.932   2.819  0.5312  0.4844 -0.3747
 8274SOL     OW32867   4.308   3.210   4.189 -0.6842  0.1558  0.5325
 8274SOL    HW232868   4.267   3.142   4.243 -2.8759  0.7134 -0.3330
 8274SOL    HW332869   4.302   3.289   4.242  1.2670 -0.1455  1.2661
 8274SOL    MW432870   4.302   3.211   4.203 -0.4896  0.2510  0.1464
 8275SOL     OW32871   2.717   5.240   2.358  0.0477  0.3830  0.2733
 8275SOL    HW232872   2.743   5.235   2.450  0.6863 -0.4637  0.0524
 8275SOL    HW332873   2.784   5.192   2.311  0.1331  1.4264 -0.7285
 8275SOL    MW432874   2.729   5.233   2.364 -0.1127 -0.8041 -0.1889
 8276SOL     OW32875   1.915   5.666   2.179  0.1443  0.3239  0.3563
 8276SOL    HW232876   1.828   5.705   2.167  0.5169  1.1684  0.3193
 8276SOL    HW332877   1.949   5.656   2.090  0.1012  0.0314  0.3723
 8276SOL    MW432878   1.908   5.670   2.166  0.0868 -0.2994 -0.2672
 8277SOL     OW32879   3.599   1.550   1.477  0.2768 -0.1891 -0.3187
 8277SOL    HW232880   3.646   1.471   1.501  1.9649  0.5313 -1.0805
 8277SOL    HW332881   3.509   1.522   1.464  0.8917 -2.0382 -0.8658
 8277SOL    MW432882   3.593   1.536   1.478  0.2333 -0.4990  0.6889
 8278SOL     OW32883   5.507   0.093   5.526 -0.4160  0.0323  0.2075
 8278SOL    HW232884   5.596   0.124   5.536 -1.1175  1.9165  1.0701
 8278SOL    HW332885   5.467   0.153   5.463 -1.5121  0.2834  1.1003
 8278SOL    MW432886   5.513   0.105   5.519 -0.1708 -0.0017  0.0338
 8279SOL     OW32887   2.483   1.973   5.213 -0.3129 -0.3131  0.1776
 8279SOL    HW232888   2.426   1.915   5.162 -0.2066  1.3157 -1.9322
 8279SOL    HW332889   2.459   2.061   5.185  3.1214  0.4789 -0.7116
 8279SOL    MW432890   2.472   1.977   5.203  0.3878  0.0331 -0.2712
 8280SOL     OW32891   2.360   6.189   3.782  0.0064 -0.0817 -0.2309
 8280SOL    HW232892   2.382   6.244   3.857  0.5867 -0.9345  0.2482
 8280SOL    HW332893   2.403   6.232   3.708  0.2985  0.2085  0.1017
 8280SOL    MW432894   2.369   6.202   3.782  0.2901  0.1599  0.0731
 8281SOL     OW32895   3.942   4.505   6.403  0.0100  0.3957  0.4738
 8281SOL    HW232896   3.853   4.493   6.436  0.2365  0.4444  1.1129
 8281SOL    HW332897   3.988   4.425   6.429  0.0503  0.1949 -0.2064
 8281SOL    MW432898   3.936   4.493   6.411  0.4547 -0.4604 -0.1874
 8282SOL     OW32899   5.935   1.191   4.143  0.3354 -0.1281  0.3092
 8282SOL    HW232900   5.957   1.175   4.051 -0.9298 -0.9522  0.1277
 8282SOL    HW332901   6.020   1.208   4.185  0.9372  0.2069 -0.9883
 8282SOL    MW432902   5.949   1.191   4.136  0.5770 -0.7229  0.0732
 8283SOL     OW32903   0.529   3.902   2.433  0.2385  0.2410  0.0365
 8283SOL    HW232904   0.538   3.810   2.407 -2.1527 -0.0722  0.0698
 8283SOL    HW332905   0.510   3.947   2.351 -0.6693  0.3386  0.2896
 8283SOL    MW432906   0.528   3.896   2.418  0.4471 -0.1799  0.3214
 8284SOL     OW32907   3.379   4.221   6.016 -0.0028 -0.2246 -0.0267
 8284SOL    HW232908   3.429   4.163   5.959  0.5737  1.5337 -1.3943
 8284SOL    HW332909   3.429   4.303   6.017 -2.6316  1.5357 -1.2524
 8284SOL    MW432910   3.392   4.225   6.009 -0.1634 -0.3811 -0.4490
 8285SOL     OW32911   1.843   1.832   5.105  0.3384 -0.3030 -0.5520
 8285SOL    HW232912   1.788   1.809   5.180  1.0595  1.7727  0.7054
 8285SOL    HW332913   1.785   1.878   5.045 -0.1889 -1.7665 -1.1946
 8285SOL    MW432914   1.828   1.835   5.107  0.2055 -0.1619 -0.1989
 8286SOL     OW32915   0.363   4.589   2.157  0.1916 -0.2381 -0.5796
 8286SOL    HW232916   0.429   4.637   2.107 -0.8703  1.4025 -0.5053
 8286SOL    HW332917   0.298   4.656   2.181 -1.2431 -1.6863 -0.2247
 8286SOL    MW432918   0.363   4.604   2.154 -0.2290 -0.5487 -0.4848
 8287SOL     OW32919   4.046   3.590   0.997 -0.4789  0.1368  0.3222
 8287SOL    HW232920   4.082   3.678   1.005 -0.4522  0.3202 -1.4271
 8287SOL    HW332921   4.030   3.579   0.903  0.5916 -2.1248  0.3259
 8287SOL    MW432922   4.049   3.600   0.986 -0.2771 -0.2413  0.2288
 8288SOL     OW32923   2.424   4.202   5.077 -0.5686  0.0372  0.5278
 8288SOL    HW232924   2.329   4.203   5.093 -0.7142  0.7102 -0.3277
 8288SOL    HW332925   2.444   4.110   5.060 -1.0279 -0.1436  0.9159
 8288SOL    MW432926   2.414   4.190   5.077 -0.1119 -0.0489  0.7527
 8289SOL     OW32927   1.867   0.276   3.461  0.5229  0.6483  0.0201
 8289SOL    HW232928   1.810   0.287   3.385  0.2092  0.7314  0.2645
 8289SOL    HW332929   1.947   0.238   3.425  0.3680  0.6577 -0.3472
 8289SOL    MW432930   1.870   0.273   3.446  0.4409 -0.4489  0.0002
 8290SOL     OW32931   5.731   4.685   5.741 -0.0913  0.0611  0.1419
 8290SOL    HW232932   5.821   4.717   5.742  0.4168 -1.2985  0.0636
 8290SOL    HW332933   5.724   4.629   5.819 -0.3176 -1.2001 -0.7415
 8290SOL    MW432934   5.742   4.681   5.751 -0.0761  0.1833 -0.1885
 8291SOL     OW32935   1.345   0.470   0.645  0.3527 -0.0402  0.6162
 8291SOL    HW232936   1.339   0.417   0.566  0.4967  1.8858 -0.7528
 8291SOL    HW332937   1.254   0.491   0.667  0.3133 -0.5649  0.9675
 8291SOL    MW432938   1.332   0.466   0.637  0.9137 -0.3275 -0.1350
 8292SOL     OW32939   5.705   6.072   6.097 -0.0893 -0.5880 -0.0941
 8292SOL    HW232940   5.700   5.996   6.154  1.1307 -0.1403  0.6394
 8292SOL    HW332941   5.641   6.134   6.133  1.4773  0.1632  1.5764
 8292SOL    MW432942   5.696   6.070   6.109 -0.1496  0.4786  0.2837
 8293SOL     OW32943   5.264   3.804   0.569  0.5392 -0.2306  0.3910
 8293SOL    HW232944   5.239   3.745   0.640 -1.3308  3.0180  2.7193
 8293SOL    HW332945   5.320   3.870   0.612  1.4355  0.4805 -1.7577
 8293SOL    MW432946   5.268   3.805   0.584 -0.2642  0.5599 -0.2148
 8294SOL     OW32947   1.626   5.459   3.280 -0.6898 -0.2051  0.2270
 8294SOL    HW232948   1.612   5.368   3.255 -1.6121 -0.5618  1.9247
 8294SOL    HW332949   1.665   5.499   3.202 -0.7874 -1.9013 -0.7452
 8294SOL    MW432950   1.629   5.452   3.266 -0.6034 -0.0144  0.7450
 8295SOL     OW32951   1.024   4.942   2.874  0.0414 -0.7420 -0.2312
 8295SOL    HW232952   0.936   4.962   2.908  0.1118 -1.8677  0.6541
 8295SOL    HW332953   1.029   4.846   2.876  1.7357 -0.6582  0.8938
 8295SOL    MW432954   1.013   4.932   2.879  0.0928 -0.4694  0.3882
 8296SOL     OW32955   0.693   1.184   5.333  0.5275 -0.1785 -0.4243
 8296SOL    HW232956   0.755   1.189   5.406  0.1902  0.7184 -0.1917
 8296SOL    HW332957   0.607   1.181   5.374  0.2133  2.1952 -0.7640
 8296SOL    MW432958   0.690   1.184   5.348 -0.2538  0.1935  0.2588
 8297SOL     OW32959   5.928   5.544   1.247  0.4384  0.1087  0.0466
 8297SOL    HW232960   6.007   5.491   1.244  0.7943  0.5991  0.6314
 8297SOL    HW332961   5.950   5.622   1.197  0.4822  0.4458  0.5826
 8297SOL    MW432962   5.941   5.547   1.240 -0.7786 -0.5440  0.7882
 8298SOL     OW32963   1.782   4.288   0.509  0.3494  0.2163 -0.4902
 8298SOL    HW232964   1.692   4.262   0.489 -1.2860  3.3954  1.8671
 8298SOL    HW332965   1.807   4.232   0.582  0.5829 -1.0280 -1.4739
 8298SOL    MW432966   1.774   4.277   0.516 -0.1207  0.7490 -0.4391
 8299SOL     OW32967   3.430   4.719   1.272 -0.1069 -0.4673  0.8345
 8299SOL    HW232968   3.444   4.801   1.223  2.1553 -0.3026  1.6614
 8299SOL    HW332969   3.393   4.659   1.207  1.4376  0.1887 -0.7504
 8299SOL    MW432970   3.427   4.722   1.257 -0.1314  0.6727  0.1362
 8300SOL     OW32971   2.133   0.573   3.110 -0.5888 -0.1576 -0.1805
 8300SOL    HW232972   2.193   0.499   3.119  1.1740  1.3968  2.1713
 8300SOL    HW332973   2.187   0.642   3.071 -1.3045  0.8163  0.5359
 8300SOL    MW432974   2.148   0.572   3.106  0.4405 -0.5383 -0.6194
 8301SOL     OW32975   4.884   4.405   0.344 -0.1578 -0.3785 -0.2932
 8301SOL    HW232976   4.871   4.408   0.250  2.1209  0.2355 -0.6593
 8301SOL    HW332977   4.898   4.312   0.363  0.5456 -0.3781 -0.7692
 8301SOL    MW432978   4.884   4.393   0.334  0.4471  0.0485 -0.0378
 8302SOL     OW32979   3.349   5.295   3.802 -0.0982  0.0143 -0.8563
 8302SOL    HW232980   3.410   5.293   3.876  0.0440 -0.6868 -0.9843
 8302SOL    HW332981   3.382   5.364   3.745  0.9128 -0.7265 -1.1961
 8302SOL    MW432982   3.361   5.304   3.804  0.1515 -0.0508  0.0378
 8303SOL     OW32983   1.498   2.843   6.182 -0.3218 -0.2408 -0.1093
 8303SOL    HW232984   1.487   2.920   6.127  0.8282  0.1581  0.1952
 8303SOL    HW332985   1.537   2.777   6.124 -0.3873 -0.2685 -0.1216
 8303SOL    MW432986   1.502   2.844   6.167 -0.4690 -0.1768  0.1414
 8304SOL     OW32987   4.294   3.119   5.914 -0.5903 -0.8786  0.3182
 8304SOL    HW232988   4.229   3.150   5.977 -0.7429 -1.9542  0.7125
 8304SOL    HW332989   4.296   3.187   5.847 -2.2417 -0.8671  0.2274
 8304SOL    MW432990   4.286   3.132   5.913 -0.0117 -0.7899 -0.9693
 8305SOL     OW32991   1.414   6.187   1.354  0.1585  0.0449  0.6292
 8305SOL    HW232992   1.439   6.198   1.446 -0.1471 -1.9319  0.9781
 8305SOL    HW332993   1.323   6.159   1.357 -0.1397  0.8558 -0.3451
 8305SOL    MW432994   1.405   6.185   1.367  0.0399  0.2979  0.0699
 8306SOL     OW32995   3.408   5.828   3.526 -0.5551 -0.1560 -0.0568
 8306SOL    HW232996   3.354   5.907   3.516  0.8732  1.0363  1.0426
 8306SOL    HW332997   3.491   5.851   3.483  0.9823  0.1915  2.8210
 8306SOL    MW432998   3.412   5.842   3.519 -0.0447 -0.1438  0.1218
 8307SOL     OW32999   5.083   0.197   3.270 -0.2984 -0.0854  0.1148
 8307SOL    HW233000   5.099   0.164   3.358 -0.4076 -1.0467 -0.2139
 8307SOL    HW333001   5.154   0.160   3.217 -1.4968 -1.4148 -0.6381
 8307SOL    MW433002   5.095   0.188   3.275 -0.5162 -0.2500  0.3554
 8308SOL     OW33003   4.191   5.685   1.650  0.3891  0.3327  0.2684
 8308SOL    HW233004   4.104   5.653   1.625  0.5539 -2.2706  2.5343
 8308SOL    HW333005   4.229   5.718   1.569 -1.9946 -0.2086 -1.1642
 8308SOL    MW433006   4.184   5.685   1.636  0.3877 -0.2601 -0.0105
 8309SOL     OW33007   5.899   0.846   2.084  0.6575 -0.0826 -0.7045
 8309SOL    HW233008   5.932   0.888   2.163  0.5044 -2.3397  0.6594
 8309SOL    HW333009   5.807   0.828   2.103 -0.3363  2.2733 -2.7742
 8309SOL    MW433010   5.892   0.849   2.097  0.1836  0.1579 -0.6501
 8310SOL     OW33011   0.155   5.607   2.882 -0.3548  0.4596 -0.1525
 8310SOL    HW233012   0.235   5.556   2.874  0.1730  1.3238 -0.5042
 8310SOL    HW333013   0.094   5.565   2.821 -0.4444 -0.6856  0.7020
 8310SOL    MW433014   0.157   5.595   2.873  0.4825  0.1163 -0.0489
 8311SOL     OW33015   6.154   5.379   3.726 -0.0552  0.2043 -0.7793
 8311SOL    HW233016   6.089   5.448   3.713 -1.2727 -0.2319  2.1901
 8311SOL    HW333017   6.103   5.301   3.746  1.3528 -1.1389 -2.1814
 8311SOL    MW433018   6.139   5.378   3.727  0.7579 -0.4156  0.2112
 8312SOL     OW33019   3.882   6.187   2.003 -0.4890 -0.2156 -0.2976
 8312SOL    HW233020   3.958   6.135   2.029 -1.3491 -2.3866 -1.8108
 8312SOL    HW333021   3.905   6.221   1.916  0.0943  2.1457  0.7017
 8312SOL    MW433022   3.895   6.184   1.995  0.2531 -0.3814 -0.1422
 8313SOL     OW33023   5.156   0.706   2.903  0.4332  0.0135  0.7088
 8313SOL    HW233024   5.164   0.790   2.858  0.7643  0.0229  0.7838
 8313SOL    HW333025   5.244   0.669   2.902  0.3425 -0.2137  0.9094
 8313SOL    MW433026   5.169   0.712   2.897  0.1285 -0.3142 -0.0076
 8314SOL     OW33027   1.688   1.682   0.903  0.0806 -0.2052 -0.1878
 8314SOL    HW233028   1.681   1.773   0.876  2.4085 -0.2518 -1.2077
 8314SOL    HW333029   1.723   1.685   0.992  0.7256 -0.0832 -0.4394
 8314SOL    MW433030   1.692   1.694   0.911 -0.0752 -0.1139  0.6203
 8315SOL     OW33031   3.337   4.536   6.291  0.0289 -0.1082 -0.3245
 8315SOL    HW233032   3.361   4.443   6.294 -0.8579 -0.3334 -0.0108
 8315SOL    HW333033   3.410   4.578   6.245  1.3565 -0.6637  1.1938
 8315SOL    MW433034   3.350   4.529   6.285 -0.4388  0.6028 -0.2199
 8316SOL     OW33035   1.254   3.608   5.516  0.1104  0.2734  0.1492
 8316SOL    HW233036   1.303   3.681   5.552  0.6196 -1.0260  2.2937
 8316SOL    HW333037   1.317   3.536   5.511 -0.5924 -0.2992 -1.0081
 8316SOL    MW433038   1.269   3.608   5.520  0.3943  0.3442 -0.2715
 8317SOL     OW33039   5.057   3.652   0.258 -0.0503  0.4178 -0.1695
 8317SOL    HW233040   4.986   3.696   0.211 -1.2213 -2.9905 -1.9341
 8317SOL    HW333041   5.100   3.598   0.192  1.0548 -1.3273  1.8367
 8317SOL    MW433042   5.053   3.650   0.243 -0.0329 -0.4784  0.4847
 8318SOL     OW33043   5.947   4.048   5.080 -0.3380  0.2064  0.0983
 8318SOL    HW233044   6.018   4.047   5.144 -1.4109  2.6576  1.4787
 8318SOL    HW333045   5.869   4.071   5.131 -1.4707  1.0347 -1.8832
 8318SOL    MW433046   5.946   4.051   5.096 -0.1095  0.6683 -0.3987
 8319SOL     OW33047   2.022   5.736   0.307 -0.0803  0.3483  0.1875
 8319SOL    HW233048   1.967   5.733   0.229 -0.4042  0.3158  0.4141
 8319SOL    HW333049   2.062   5.823   0.304  1.8509 -0.5303 -1.3116
 8319SOL    MW433050   2.020   5.747   0.297  0.1093  0.1628 -0.0591
 8320SOL     OW33051   0.927   5.612   6.355  0.3902  0.0455 -0.2972
 8320SOL    HW233052   0.991   5.577   6.293  0.9931 -1.8349  1.2901
 8320SOL    HW333053   0.843   5.606   6.308  0.8320 -1.3099 -0.9699
 8320SOL    MW433054   0.924   5.607   6.341 -0.0811 -0.3326  0.2924
 8321SOL     OW33055   5.830   1.834   6.417 -0.3318  0.6811 -0.1963
 8321SOL    HW233056   5.776   1.769   6.371 -0.5715  0.1512  0.7933
 8321SOL    HW333057   5.907   1.845   6.361  0.5231 -1.7369  0.3588
 8321SOL    MW433058   5.833   1.827   6.404  0.1688 -0.5411  1.0185
 8322SOL     OW33059   2.307   5.875   1.601  0.1042  0.3356 -0.0918
 8322SOL    HW233060   2.270   5.787   1.589 -0.9537  0.7501  0.0051
 8322SOL    HW333061   2.397   5.859   1.629  1.1570 -0.7101 -3.6364
 8322SOL    MW433062   2.314   5.861   1.603 -0.4425 -1.1671  0.5484
 8323SOL     OW33063   3.811   3.794   6.173 -0.5354 -0.2220 -0.4116
 8323SOL    HW233064   3.822   3.714   6.224  0.2024 -1.3495 -2.2156
 8323SOL    HW333065   3.791   3.861   6.237 -1.5417 -1.9133  1.1393
 8323SOL    MW433066   3.810   3.792   6.188 -0.7474  0.4314  0.2800
 8324SOL     OW33067   5.551   1.049   5.005 -0.4834 -0.8178 -0.3942
 8324SOL    HW233068   5.625   1.083   5.056 -0.8149 -0.8317  0.1058
 8324SOL    HW333069   5.498   1.127   4.987 -2.1087 -1.2062  2.1591
 8324SOL    MW433070   5.554   1.064   5.010 -0.1337  0.5482 -0.8016
 8325SOL     OW33071   2.448   0.947   3.121 -0.0997  0.7330 -0.6402
 8325SOL    HW233072   2.384   0.959   3.190  1.6242 -0.3156  1.2526
 8325SOL    HW333073   2.400   0.902   3.051 -1.4979  0.3714  0.5118
 8325SOL    MW433074   2.433   0.943   3.121 -0.0563 -0.1987  0.2330
 8326SOL     OW33075   0.146   3.959   6.137 -0.0624  0.2047 -0.0732
 8326SOL    HW233076   0.181   3.988   6.052 -1.1807  0.8940 -0.3210
 8326SOL    HW333077   0.109   3.872   6.118  0.4730 -0.0295 -0.0734
 8326SOL    MW433078   0.146   3.951   6.123  0.0285  0.2494 -0.3570
 8327SOL     OW33079   0.468   2.907   0.243 -0.1691 -0.1185  0.2734
 8327SOL    HW233080   0.376   2.880   0.238 -0.4513  0.7831  0.3048
 8327SOL    HW333081   0.510   2.841   0.298 -0.5148 -1.2429 -0.7845
 8327SOL    MW433082   0.461   2.895   0.250  0.5665  0.0767 -0.5493
 8328SOL     OW33083   4.072   0.355   3.268  0.5089  0.0659 -0.1275
 8328SOL    HW233084   3.978   0.345   3.282  0.6193  0.4506  1.0016
 8328SOL    HW333085   4.110   0.350   3.356  1.5208  0.1595 -0.5459
 8328SOL    MW433086   4.064   0.353   3.282  0.0428  0.1265  0.4806
 8329SOL     OW33087   4.834   1.645   0.051  0.5004  0.0438  0.3888
 8329SOL    HW233088   4.863   1.659  -0.039  1.8163 -1.5678  0.4932
 8329SOL    HW333089   4.739   1.641   0.046  0.5759 -0.3711 -1.0027
 8329SOL    MW433090   4.825   1.646   0.038  0.1500  0.1172  0.2383
 8330SOL     OW33091   2.464   4.425   3.021 -0.2692  0.5439 -0.1848
 8330SOL    HW233092   2.378   4.387   3.033 -0.5064  0.8725 -0.8174
 8330SOL    HW333093   2.521   4.374   3.079 -0.7385 -0.1664 -0.3417
 8330SOL    MW433094   2.461   4.414   3.030  0.1342  0.0622  0.0637
 8331SOL     OW33095   2.038   4.675   0.982 -0.5386 -0.0843  0.4512
 8331SOL    HW233096   2.074   4.629   1.058 -0.7102  1.7576  1.7162
 8331SOL    HW333097   1.943   4.661   0.989 -0.5254 -0.2567  0.3143
 8331SOL    MW433098   2.030   4.667   0.993 -0.4763  0.1382  0.5697
 8332SOL     OW33099   5.991   5.840   4.859  0.1778  0.0305 -0.6007
 8332SOL    HW233100   6.056   5.773   4.838 -1.2725 -1.7797  0.3431
 8332SOL    HW333101   5.929   5.837   4.786 -0.1197  0.0308 -0.3504
 8332SOL    MW433102   5.992   5.830   4.847 -0.5101 -0.3945  0.3620
 8333SOL     OW33103   6.339   0.887   1.710 -0.0925 -0.5510 -0.3403
 8333SOL    HW233104   6.331   0.907   1.804  2.7623 -0.1931 -0.0757
 8333SOL    HW333105   6.280   0.948   1.667 -0.6837 -0.0089  1.1806
 8333SOL    MW433106   6.330   0.897   1.717 -0.6955 -0.4962  0.2392
 8334SOL     OW33107   2.034   2.069   4.877 -0.0760 -0.0415  0.3503
 8334SOL    HW233108   2.122   2.056   4.913 -0.1253 -2.0422 -0.1636
 8334SOL    HW333109   2.033   2.161   4.851  2.2073 -0.1952 -0.5002
 8334SOL    MW433110   2.045   2.079   4.879 -0.0296  0.0805  0.5140
 8335SOL     OW33111   1.462   2.135   1.169  0.5520 -0.6289  0.4137
 8335SOL    HW233112   1.520   2.061   1.187  0.1521 -1.0053  0.1729
 8335SOL    HW333113   1.485   2.163   1.080  1.4034  0.1951  0.8698
 8335SOL    MW433114   1.473   2.129   1.160  0.6868  0.0783  0.4572
 8336SOL     OW33115   5.441   1.311   4.939  0.1438 -0.4663  0.4322
 8336SOL    HW233116   5.473   1.369   4.869  1.2250 -0.8453  0.5854
 8336SOL    HW333117   5.456   1.361   5.019  0.4082 -0.6607  0.5068
 8336SOL    MW433118   5.447   1.325   4.940  0.0211 -0.3857 -0.0169
 8337SOL     OW33119   0.343   4.258   6.245 -0.3790  0.0351  0.3613
 8337SOL    HW233120   0.410   4.190   6.236 -0.9627 -0.5917  0.6308
 8337SOL    HW333121   0.390   4.340   6.229  0.0967 -0.5044 -1.1628
 8337SOL    MW433122   0.358   4.260   6.242 -0.7815 -0.0541 -0.2607
 8338SOL     OW33123   3.735   0.931   0.632 -0.2364  0.6720  0.0596
 8338SOL    HW233124   3.820   0.968   0.611 -0.0772 -0.2190 -0.9573
 8338SOL    HW333125   3.672   0.992   0.593 -0.0981  1.4152  0.9470
 8338SOL    MW433126   3.738   0.944   0.624  0.1142 -0.2258 -0.1445
 8339SOL     OW33127   1.446   2.168   4.634  0.2641 -0.4648 -0.1669
 8339SOL    HW233128   1.361   2.189   4.672 -0.8776 -0.5292 -2.5522
 8339SOL    HW333129   1.426   2.119   4.555  2.5564 -0.9063 -0.5503
 8339SOL    MW433130   1.432   2.164   4.629  0.0716  0.1339 -0.0281
 8340SOL     OW33131   1.346   3.307   2.098 -0.1743  1.0281 -0.6586
 8340SOL    HW233132   1.333   3.213   2.107  1.6928  0.8883  1.3696
 8340SOL    HW333133   1.284   3.346   2.159  0.4584  0.9787  0.0311
 8340SOL    MW433134   1.336   3.300   2.107 -0.7519 -0.5542  0.1013
 8341SOL     OW33135   3.420   1.766   0.892 -0.5286 -0.2041  0.7561
 8341SOL    HW233136   3.360   1.785   0.964 -0.4189  1.5809  0.4116
 8341SOL    HW333137   3.392   1.824   0.821 -0.0235 -1.2310 -0.3135
 8341SOL    MW433138   3.409   1.776   0.892  0.7638 -0.0797  0.2090
 8342SOL     OW33139   5.643   0.066   3.179 -0.2732 -0.1222  0.3528
 8342SOL    HW233140   5.662  -0.018   3.222 -1.5556 -1.5141 -1.6203
 8342SOL    HW333141   5.595   0.115   3.246  1.7681 -0.2957  2.0635
 8342SOL    MW433142   5.639   0.061   3.194  0.1941 -0.7403  0.6688
 8343SOL     OW33143   4.305   2.052   5.721 -0.3180 -0.2474 -0.1180
 8343SOL    HW233144   4.254   1.971   5.722 -0.8265  0.0667  1.1684
 8343SOL    HW333145   4.393   2.024   5.698 -0.0445 -1.4884  2.1330
 8343SOL    MW433146   4.310   2.038   5.718 -0.0285  0.3396  0.3813
 8344SOL     OW33147   6.215   5.161   5.771 -0.2926  0.0162 -0.4657
 8344SOL    HW233148   6.294   5.179   5.822 -0.0433 -1.7630 -0.1750
 8344SOL    HW333149   6.150   5.222   5.806  0.6249  0.6815  0.1053
 8344SOL    MW433150   6.217   5.171   5.783  0.1237 -0.3147 -0.1712
 8345SOL     OW33151   3.350   2.636   4.891 -0.0903  0.0315 -0.3705
 8345SOL    HW233152   3.352   2.605   4.982 -2.1352  0.1905 -0.2365
 8345SOL    HW333153   3.381   2.562   4.840 -1.4386 -0.9967  0.2552
 8345SOL    MW433154   3.354   2.622   4.896  0.3677  0.1122  0.0575
 8346SOL     OW33155   4.221   1.889   3.358  0.0648 -0.0613  0.2755
 8346SOL    HW233156   4.242   1.980   3.381 -2.9992  0.9662 -0.4571
 8346SOL    HW333157   4.234   1.884   3.264  0.8871 -0.6363  0.4058
 8346SOL    MW433158   4.225   1.901   3.349 -0.1239 -0.9537 -0.3073
 8347SOL     OW33159   4.466   4.075   3.947 -0.5747  0.5005  0.7329
 8347SOL    HW233160   4.481   4.016   4.021  0.7536 -0.4478 -0.2510
 8347SOL    HW333161   4.439   4.018   3.876  0.5588  1.0696 -0.1917
 8347SOL    MW433162   4.464   4.060   3.947  0.0433 -0.0147  0.3485
 8348SOL     OW33163   2.088   4.313   0.494 -0.0497 -0.4652 -0.2525
 8348SOL    HW233164   2.113   4.404   0.511 -0.0443 -0.7406  1.2911
 8348SOL    HW333165   1.994   4.317   0.481  0.1256 -0.0652 -1.5807
 8348SOL    MW433166   2.079   4.326   0.494  0.4313  0.3081 -0.1005
 8349SOL     OW33167   2.980   2.648   2.523  0.7804  0.5149 -0.5148
 8349SOL    HW233168   2.914   2.655   2.453  0.7332  2.0911 -0.3426
 8349SOL    HW333169   2.961   2.722   2.581 -1.6941 -2.7948  3.4312
 8349SOL    MW433170   2.968   2.659   2.521 -0.0112  0.1803  0.5222
 8350SOL     OW33171   3.175   3.592   0.800 -0.0352  0.1220  0.9590
 8350SOL    HW233172   3.264   3.584   0.834  0.9062 -1.3012 -1.5404
 8350SOL    HW333173   3.119   3.563   0.872  1.8575 -3.3748  1.2437
 8350SOL    MW433174   3.179   3.587   0.814 -0.2554  0.3763 -0.7157
 8351SOL     OW33175   2.622   5.522   6.160 -0.5174  0.0817 -0.1458
 8351SOL    HW233176   2.624   5.427   6.149 -0.7624  0.1913 -1.2445
 8351SOL    HW333177   2.706   5.552   6.125 -0.9315  0.3698 -0.9090
 8351SOL    MW433178   2.633   5.514   6.154 -0.0336  0.3633 -0.2332
 8352SOL     OW33179   0.562   0.328   5.267 -0.1120 -0.6617  0.1948
 8352SOL    HW233180   0.523   0.317   5.354  0.0567 -0.9597  0.2346
 8352SOL    HW333181   0.643   0.376   5.283 -0.1065 -0.6714  0.1967
 8352SOL    MW433182   0.568   0.332   5.280 -0.0300  0.5347  0.4820
 8353SOL     OW33183   4.318   3.847   0.709 -0.7067  0.4359  0.4721
 8353SOL    HW233184   4.303   3.763   0.667  3.1439 -0.3611  0.3769
 8353SOL    HW333185   4.352   3.903   0.639  1.2238  0.5471  1.4297
 8353SOL    MW433186   4.320   3.844   0.694  0.1905  0.7486 -0.3835
 8354SOL     OW33187   3.070   0.765   3.622  0.5863 -0.1856  0.0831
 8354SOL    HW233188   3.128   0.841   3.616  0.4059  0.2276  2.6953
 8354SOL    HW333189   3.088   0.728   3.708 -0.3522 -2.3031 -0.5724
 8354SOL    MW433190   3.080   0.770   3.632  0.2236  0.6706 -0.1851
 8355SOL     OW33191   1.670   4.752   2.360  0.3851 -0.8334  0.2602
 8355SOL    HW233192   1.659   4.818   2.428 -0.3518 -0.8957  0.2125
 8355SOL    HW333193   1.639   4.671   2.399 -0.6542 -0.7498 -0.3404
 8355SOL    MW433194   1.664   4.750   2.374  0.1821  0.0301  0.1949
 8356SOL     OW33195   4.932   0.866   1.554  0.1343  0.0737 -0.1701
 8356SOL    HW233196   5.015   0.906   1.580  0.3565 -0.9649  0.8433
 8356SOL    HW333197   4.901   0.919   1.482  1.1649  1.1228  0.1235
 8356SOL    MW433198   4.939   0.878   1.548 -0.3099 -0.3204  0.0581
 8357SOL     OW33199   1.234   5.208   5.701 -0.0138 -0.2586  0.2030
 8357SOL    HW233200   1.212   5.150   5.627 -0.1070 -1.9397  1.4921
 8357SOL    HW333201   1.295   5.272   5.664 -0.1334 -0.9938 -1.3545
 8357SOL    MW433202   1.239   5.209   5.686  0.3196 -0.0698  0.5517
 8358SOL     OW33203   2.814   1.854   4.926  0.2768 -0.4531  0.2968
 8358SOL    HW233204   2.859   1.829   4.845 -0.0391 -0.7413  0.2110
 8358SOL    HW333205   2.721   1.855   4.903  0.2075 -0.2553  0.5816
 8358SOL    MW433206   2.808   1.851   4.912 -0.4179  0.0982 -0.0517
 8359SOL     OW33207   4.074   5.601   5.849  0.0865 -0.5782  0.2713
 8359SOL    HW233208   4.095   5.532   5.911 -0.2803 -1.7097 -0.8212
 8359SOL    HW333209   4.135   5.589   5.776  0.2213  0.4460  0.1945
 8359SOL    MW433210   4.085   5.591   5.847  0.2065  0.1109  0.0701
 8360SOL     OW33211   0.811   0.730   5.465 -0.1857 -0.6038  0.0773
 8360SOL    HW233212   0.874   0.676   5.514  1.0939  0.1292 -0.7068
 8360SOL    HW333213   0.825   0.819   5.499 -1.4242 -0.5519  0.4963
 8360SOL    MW433214   0.821   0.734   5.476 -0.6864 -0.2376 -0.3430
 8361SOL     OW33215   0.758   0.893   5.801  0.0819 -0.3035  0.6789
 8361SOL    HW233216   0.824   0.959   5.778 -1.0678  0.4808 -0.5702
 8361SOL    HW333217   0.698   0.894   5.727 -0.4182 -2.2140  1.0095
 8361SOL    MW433218   0.759   0.902   5.788  0.0268  0.5822  0.1933
 8362SOL     OW33219   5.339   3.274   2.116 -0.3763 -0.6313 -0.2459
 8362SOL    HW233220   5.342   3.334   2.190 -0.6536 -0.8575 -0.0468
 8362SOL    HW333221   5.282   3.318   2.053  2.0010  0.8382 -1.4959
 8362SOL    MW433222   5.332   3.288   2.118  0.2529  0.1554 -0.0550
 8363SOL     OW33223   3.408   1.583   6.053 -0.0096  0.4136  0.5444
 8363SOL    HW233224   3.375   1.673   6.054 -0.0440  0.4005  0.8090
 8363SOL    HW333225   3.454   1.575   5.970  0.0979  0.7163  0.5721
 8363SOL    MW433226   3.410   1.594   6.042  0.5394 -0.2677 -0.0849
 8364SOL     OW33227   3.508   3.033   6.063 -0.3910 -0.2983  0.0265
 8364SOL    HW233228   3.540   2.951   6.024  0.8245  0.1346  0.0532
 8364SOL    HW333229   3.506   3.094   5.990 -1.2511 -0.3335  0.0182
 8364SOL    MW433230   3.512   3.030   6.048  0.1586  0.2038  0.2997
 8365SOL     OW33231   1.222   3.494   5.238 -0.2921  0.0879 -0.6400
 8365SOL    HW233232   1.194   3.573   5.191  0.3883  0.4218 -0.4966
 8365SOL    HW333233   1.243   3.525   5.326 -2.5998 -0.7032  0.2631
 8365SOL    MW433234   1.221   3.509   5.243 -0.0215  0.0222 -0.1746
 8366SOL     OW33235   3.991   4.016   6.337 -0.0968  0.3028 -0.1017
 8366SOL    HW233236   3.940   4.088   6.375  2.6606  2.1774  0.3322
 8366SOL    HW333237   4.036   4.055   6.262 -0.0904 -1.5577 -1.1253
 8366SOL    MW433238   3.990   4.031   6.332  0.2056  0.8252 -0.1427
 8367SOL     OW33239   1.599   5.161   4.281  0.2835  0.1976 -0.3556
 8367SOL    HW233240   1.551   5.079   4.273  0.2354  0.1827  0.0683
 8367SOL    HW333241   1.638   5.175   4.195 -1.0110  0.5479 -0.9149
 8367SOL    MW433242   1.598   5.152   4.268 -0.1023  0.4940  0.7527
 8368SOL     OW33243   4.690   2.637   2.256 -0.4456 -0.0040  0.1721
 8368SOL    HW233244   4.710   2.729   2.238 -0.1969  0.0812  0.8503
 8368SOL    HW333245   4.733   2.589   2.186  0.6881  0.3003  0.6291
 8368SOL    MW433246   4.698   2.643   2.244  0.0385 -0.1369 -0.1014
 8369SOL     OW33247   3.452   5.011   2.227 -0.2478  0.3557  0.4276
 8369SOL    HW233248   3.541   4.980   2.242  0.1909 -0.1094 -2.4904
 8369SOL    HW333249   3.463   5.103   2.202 -0.5930  0.3411  0.2210
 8369SOL    MW433250   3.465   5.019   2.226  0.2817  0.2404  0.3731
 8370SOL     OW33251   3.740   0.419   4.308  0.2163  0.3237  0.3708
 8370SOL    HW233252   3.806   0.376   4.253 -0.2158 -0.7105  0.6277
 8370SOL    HW333253   3.789   0.448   4.385  0.6570  0.9900 -0.1515
 8370SOL    MW433254   3.755   0.417   4.311 -1.1210 -0.5851 -0.0546
 8371SOL     OW33255   5.518   2.749   0.100 -0.1187 -0.7962  0.3139
 8371SOL    HW233256   5.558   2.834   0.082 -0.2562 -1.0126 -1.1275
 8371SOL    HW333257   5.468   2.763   0.181  0.7969  0.1578  0.7500
 8371SOL    MW433258   5.517   2.762   0.109 -0.2112  0.3497  0.0307
 8372SOL     OW33259   4.774   4.911   5.082 -0.9528 -0.0169  0.4056
 8372SOL    HW233260   4.820   4.926   4.999 -0.4789 -0.8430  0.5088
 8372SOL    HW333261   4.796   4.987   5.136 -0.1426 -0.1418  0.2613
 8372SOL    MW433262   4.783   4.923   5.078 -0.5811  0.1519  0.3276
 8373SOL     OW33263   5.257   3.520   6.053  0.1913 -0.4609  0.2398
 8373SOL    HW233264   5.246   3.561   5.967 -0.8924 -1.2433 -0.0174
 8373SOL    HW333265   5.332   3.565   6.092 -0.4108  1.1267 -0.3807
 8373SOL    MW433266   5.266   3.531   6.046  0.3530  0.4661  0.3371
 8374SOL     OW33267   2.518   3.160   2.186  0.1712 -0.2881  0.1325
 8374SOL    HW233268   2.586   3.206   2.138  1.3560 -1.1434  0.9510
 8374SOL    HW333269   2.494   3.220   2.257  0.6240 -0.3015  0.2974
 8374SOL    MW433270   2.524   3.174   2.189  0.3020 -0.1751  0.2840
 8375SOL     OW33271   3.388   1.374   2.960  0.3544  0.4605  1.0152
 8375SOL    HW233272   3.420   1.400   2.874 -0.2793 -0.1026  0.6006
 8375SOL    HW333273   3.466   1.343   3.006  0.5614 -0.0255  0.3481
 8375SOL    MW433274   3.402   1.373   2.955  0.1085 -0.8831 -0.3090
 8376SOL     OW33275   1.796   3.904   3.974  0.5526  0.1230  0.0023
 8376SOL    HW233276   1.838   3.818   3.984  0.6715  0.1445 -0.2957
 8376SOL    HW333277   1.822   3.933   3.887  0.7787  0.6090  0.2299
 8376SOL    MW433278   1.805   3.896   3.964 -0.2900 -0.3305  0.1598
 8377SOL     OW33279   5.246   5.587   5.537  0.4538 -0.0857  0.1733
 8377SOL    HW233280   5.291   5.668   5.559 -1.2790  0.8647  0.4188
 8377SOL    HW333281   5.169   5.585   5.595  1.6509 -3.1276  1.8878
 8377SOL    MW433282   5.242   5.597   5.547  0.7414  0.0203  0.2947
 8378SOL     OW33283   4.815   5.426   2.559 -0.5416  0.1897 -0.4498
 8378SOL    HW233284   4.733   5.428   2.510 -0.2959  1.2332 -0.8213
 8378SOL    HW333285   4.812   5.503   2.615 -0.7411 -0.8886  1.0833
 8378SOL    MW433286   4.804   5.436   2.560  0.0362  0.0211  0.0767
 8379SOL     OW33287   0.390   6.452   5.537 -0.6513  0.0385  0.1560
 8379SOL    HW233288   0.478   6.415   5.526  0.0673  1.0490  1.9627
 8379SOL    HW333289   0.332   6.389   5.494  0.9192 -0.7382 -0.9577
 8379SOL    MW433290   0.394   6.439   5.530  0.4566  0.0545  0.1117
 8380SOL     OW33291   0.951   4.651   0.101  0.4017  0.4396 -0.6764
 8380SOL    HW233292   0.879   4.682   0.157  0.1381  0.0312 -0.7842
 8380SOL    HW333293   0.908   4.604   0.030  0.8008 -0.5882 -0.2597
 8380SOL    MW433294   0.936   4.649   0.099  0.0162 -0.5194  0.4365
 8381SOL     OW33295   0.654   3.941   0.334 -0.2996  0.0360 -0.0675
 8381SOL    HW233296   0.623   3.882   0.403 -0.5275  0.4735  0.2036
 8381SOL    HW333297   0.749   3.930   0.333 -0.1723  0.8963  1.1111
 8381SOL    MW433298   0.663   3.932   0.343 -0.3086 -0.5224  0.4316
 8382SOL     OW33299   4.948   5.660   5.566 -0.3164  0.4405 -0.0975
 8382SOL    HW233300   4.936   5.567   5.547 -1.5772  0.3767  0.8377
 8382SOL    HW333301   4.923   5.704   5.485 -0.5740 -0.0085 -0.2660
 8382SOL    MW433302   4.943   5.653   5.553 -0.3608  0.0957 -0.7029
 8383SOL     OW33303   1.190   5.894   3.295 -0.0120  0.4379 -0.1595
 8383SOL    HW233304   1.198   5.803   3.321  1.9635  0.7700  0.5701
 8383SOL    HW333305   1.111   5.925   3.339 -2.9804 -1.7832 -3.3697
 8383SOL    MW433306   1.181   5.886   3.304 -0.6453  0.0476  0.1748
 8384SOL     OW33307   0.319   2.998   3.719  0.0060 -0.8243  0.0121
 8384SOL    HW233308   0.403   2.961   3.693  0.7352  0.6514  0.1568
 8384SOL    HW333309   0.294   3.054   3.646 -0.6114 -0.8642  0.1871
 8384SOL    MW433310   0.327   3.000   3.706 -0.3052 -0.1978 -0.3138
 8385SOL     OW33311   4.645   6.059   3.674 -0.1800  0.0175  0.1931
 8385SOL    HW233312   4.734   6.054   3.708  0.0356 -1.4010 -0.4832
 8385SOL    HW333313   4.609   5.972   3.689 -0.2109 -0.5743 -2.7119
 8385SOL    MW433314   4.652   6.047   3.680 -0.5482 -0.1573 -0.3247
 8386SOL     OW33315   6.231   6.133   4.241 -0.0378 -0.6282  0.0352
 8386SOL    HW233316   6.190   6.072   4.180 -2.8091 -1.1102  2.1839
 8386SOL    HW333317   6.250   6.210   4.188 -4.9198  0.1178 -1.1222
 8386SOL    MW433318   6.228   6.135   4.226  0.7031 -0.2271 -0.2182
 8387SOL     OW33319   4.907   0.753   4.722  0.1227 -0.2401 -0.1309
 8387SOL    HW233320   4.975   0.766   4.787  0.7739  0.0531 -0.8533
 8387SOL    HW333321   4.924   0.666   4.685  0.6819  0.2086 -0.9585
 8387SOL    MW433322   4.918   0.743   4.726  1.0402 -0.7771 -0.0169
 8388SOL     OW33323   3.972   3.830   4.539 -0.1218 -0.0610 -0.1762
 8388SOL    HW233324   4.005   3.746   4.570 -0.0641  0.0716  0.1197
 8388SOL    HW333325   3.935   3.872   4.616  0.1065  0.3114 -0.2638
 8388SOL    MW433326   3.971   3.824   4.553  0.2546 -0.2985  0.3037
 8389SOL     OW33327   4.804   4.630   5.441  0.2371  0.2122 -0.0954
 8389SOL    HW233328   4.858   4.650   5.518  0.9150  0.1156 -0.5436
 8389SOL    HW333329   4.836   4.545   5.411  0.7412  0.7564 -1.1397
 8389SOL    MW433330   4.815   4.622   5.447 -0.0547  0.4782 -0.2680
 8390SOL     OW33331   3.758   3.693   2.038  0.5920 -0.4670 -0.2774
 8390SOL    HW233332   3.666   3.681   2.015  0.9239 -1.1172 -1.3076
 8390SOL    HW333333   3.781   3.613   2.085  0.7135 -0.4295 -0.2746
 8390SOL    MW433334   3.749   3.681   2.041 -0.5725  0.3356  0.1780
 8391SOL     OW33335   2.293   2.591   1.486 -0.1080 -0.4325  0.1965
 8391SOL    HW233336   2.332   2.504   1.476  1.0875  0.0982  0.1267
 8391SOL    HW333337   2.242   2.585   1.566 -0.1831 -1.2431  0.1041
 8391SOL    MW433338   2.292   2.578   1.495  0.4355 -0.0060  0.2837
 8392SOL     OW33339   6.001   1.688   1.069 -0.0197  0.1308 -0.3207
 8392SOL    HW233340   6.053   1.767   1.081  0.4859 -0.3775  0.9942
 8392SOL    HW333341   6.015   1.663   0.978 -0.7083  1.8957 -0.9617
 8392SOL    MW433342   6.010   1.695   1.059  0.5271 -0.0122 -0.6187
 8393SOL     OW33343   5.304   5.931   1.455 -0.1773  0.1023 -0.0626
 8393SOL    HW233344   5.263   5.872   1.391  1.7052 -1.5395  0.1347
 8393SOL    HW333345   5.325   5.874   1.529  0.2642  1.3792  0.8255
 8393SOL    MW433346   5.301   5.915   1.456  0.0705  0.4913 -0.2496
 8394SOL     OW33347   1.276   6.029   2.901 -0.2412 -0.5423  0.4799
 8394SOL    HW233348   1.202   6.080   2.868  1.1368  0.3524 -1.3995
 8394SOL    HW333349   1.271   5.946   2.854  0.0355 -0.3967  0.1828
 8394SOL    MW433350   1.266   6.025   2.890 -0.0772 -0.4360  0.0693
 8395SOL     OW33351   0.577   2.151   0.037 -1.0238 -0.3615  0.1846
 8395SOL    HW233352   0.600   2.088   0.105 -1.3019  1.8166  2.4335
 8395SOL    HW333353   0.647   2.142  -0.028 -1.0634 -2.9253  0.3868
 8395SOL    MW433354   0.590   2.141   0.037 -0.0040  0.7082 -0.0119
 8396SOL     OW33355   0.126   1.314   2.364  0.1927 -0.2932  0.5528
 8396SOL    HW233356   0.163   1.292   2.450 -0.6654 -0.7643  0.8101
 8396SOL    HW333357   0.198   1.356   2.318  0.9103 -0.7551  1.2186
 8396SOL    MW433358   0.141   1.317   2.369  0.0144 -0.0825  0.3745
 8397SOL     OW33359   2.354   3.478   2.554 -0.8395 -0.1574  0.2382
 8397SOL    HW233360   2.287   3.489   2.621 -0.8478  1.2774  0.0240
 8397SOL    HW333361   2.343   3.388   2.523 -1.8391 -0.3366  1.0812
 8397SOL    MW433362   2.344   3.468   2.558 -0.8122 -0.8781  0.6519
 8398SOL     OW33363   3.314   4.963   5.027  0.1119  0.3868  0.2587
 8398SOL    HW233364   3.243   4.900   5.013  0.9288 -0.2365 -1.4718
 8398SOL    HW333365   3.297   5.033   4.963  0.7476  0.5038  0.2113
 8398SOL    MW433366   3.303   4.964   5.017 -0.7154 -0.3810 -0.2739
 8399SOL     OW33367   0.395   2.537   5.574 -0.6357 -0.2097 -0.3456
 8399SOL    HW233368   0.380   2.563   5.665 -2.0535 -0.7134 -0.4132
 8399SOL    HW333369   0.355   2.606   5.522  0.8096  0.4538 -0.6289
 8399SOL    MW433370   0.387   2.549   5.580 -0.1696  0.0355 -0.6857
 8400SOL     OW33371   2.507   4.953   1.796 -0.0720  0.3297  0.0360
 8400SOL    HW233372   2.537   4.891   1.862  1.9430  0.4192 -0.7395
 8400SOL    HW333373   2.551   4.926   1.715 -0.2735  1.8903 -0.6311
 8400SOL    MW433374   2.517   4.941   1.794 -0.0998 -0.0834 -0.2814
 8401SOL     OW33375   5.586   3.247   5.079 -0.6157  0.0191 -0.6971
 8401SOL    HW233376   5.681   3.258   5.085 -0.8855  2.1077  0.5279
 8401SOL    HW333377   5.566   3.177   5.142  0.1924 -1.3635 -1.9022
 8401SOL    MW433378   5.596   3.239   5.088  0.1585  0.1806 -0.0923
 8402SOL     OW33379   0.610   5.357   0.512 -0.4682 -0.0493  0.0243
 8402SOL    HW233380   0.594   5.425   0.577  0.5541  1.4412 -1.1942
 8402SOL    HW333381   0.559   5.282   0.541 -2.3243  1.5101  0.9805
 8402SOL    MW433382   0.601   5.356   0.524 -0.4985 -0.0386  0.0295
 8403SOL     OW33383   4.475   2.948   1.975  0.5057 -0.0571  0.2510
 8403SOL    HW233384   4.455   2.869   2.025  0.0254  2.0543  3.6785
 8403SOL    HW333385   4.567   2.966   1.994  0.6209  0.2282 -0.5329
 8403SOL    MW433386   4.484   2.940   1.984 -0.1414 -0.2965  0.3844
 8404SOL     OW33387   5.973   3.362   1.593  0.3030  0.0331 -0.2870
 8404SOL    HW233388   6.050   3.316   1.626 -0.8927 -0.6049  1.8194
 8404SOL    HW333389   5.902   3.298   1.599 -0.3695  0.4883 -2.5377
 8404SOL    MW433390   5.974   3.348   1.598 -0.4221 -0.1990  0.3549
 8405SOL     OW33391   4.613   0.523   3.395 -0.1372  0.1605 -0.4425
 8405SOL    HW233392   4.672   0.575   3.449  0.9270 -0.6328 -0.7884
 8405SOL    HW333393   4.617   0.565   3.309  0.3072 -0.1540 -0.5838
 8405SOL    MW433394   4.621   0.535   3.390 -0.4542 -0.2667 -0.0692
 8406SOL     OW33395   2.789   2.215   2.760  0.4655 -0.5780 -0.0653
 8406SOL    HW233396   2.869   2.170   2.737  0.4368 -1.3949  1.3335
 8406SOL    HW333397   2.728   2.146   2.784 -0.6201  0.0374 -0.9429
 8406SOL    MW433398   2.791   2.200   2.760  0.4014 -0.1103  0.5481
 8407SOL     OW33399   0.006   3.709   4.046 -0.0544 -0.6084 -0.2184
 8407SOL    HW233400   0.029   3.758   3.967 -0.1541 -0.9235 -0.4444
 8407SOL    HW333401   0.080   3.723   4.106 -0.6602  0.8990  0.2266
 8407SOL    MW433402   0.019   3.717   4.044  0.0395 -0.2925 -0.2914
 8408SOL     OW33403   1.015   1.282   5.997  0.5645 -0.4842  0.4921
 8408SOL    HW233404   1.093   1.253   6.043  1.1506  1.8330  1.0693
 8408SOL    HW333405   0.982   1.356   6.048  1.2965  2.3139 -2.7152
 8408SOL    MW433406   1.021   1.288   6.010 -0.6189  0.8687  0.5187
 8409SOL     OW33407   1.695   3.035   3.967 -0.2569 -0.2553  0.0557
 8409SOL    HW233408   1.644   3.029   3.886 -2.4313 -0.7711  1.3757
 8409SOL    HW333409   1.731   3.124   3.966  0.7677 -0.6443 -1.9986
 8409SOL    MW433410   1.693   3.046   3.957 -0.3559 -0.3684  0.2995
 8410SOL     OW33411   1.561   4.751   2.084  0.1104  0.4006  0.4434
 8410SOL    HW233412   1.600   4.674   2.042  1.8335  1.7302 -0.5605
 8410SOL    HW333413   1.616   4.768   2.160  0.5617  1.3657 -0.0766
 8410SOL    MW433414   1.574   4.743   2.088  0.3778 -0.0083 -0.6963
 8411SOL     OW33415   5.948   0.455   4.156  0.0167 -0.3059 -0.5575
 8411SOL    HW233416   5.921   0.408   4.077  0.1003  0.5081 -1.0922
 8411SOL    HW333417   6.043   0.446   4.159 -0.0490 -0.8877 -0.1839
 8411SOL    MW433418   5.957   0.448   4.146 -0.3159 -0.2615 -0.1136
 8412SOL     OW33419   3.625   3.961   6.337 -0.1750  0.2083  0.0131
 8412SOL    HW233420   3.536   3.969   6.302  0.4982 -2.5467 -2.9129
 8412SOL    HW333421   3.672   4.037   6.302 -0.9684  0.7751  0.1543
 8412SOL    MW433422   3.619   3.972   6.328  0.2788 -0.4801 -0.0396
 8413SOL     OW33423   3.490   1.941   0.642 -0.3944 -1.2783  0.4779
 8413SOL    HW233424   3.444   1.883   0.580  0.0655 -0.2868 -0.8420
 8413SOL    HW333425   3.561   1.887   0.676 -0.1491 -1.6135 -0.5116
 8413SOL    MW433426   3.493   1.926   0.638  0.6458  0.2768 -0.2833
 8414SOL     OW33427   5.652   5.364   1.552 -0.3781 -0.8481  0.7966
 8414SOL    HW233428   5.732   5.313   1.539 -0.0370 -0.6312  1.9045
 8414SOL    HW333429   5.585   5.318   1.503  0.0085 -2.1502  1.4511
 8414SOL    MW433430   5.654   5.351   1.544 -0.2639  0.3914  0.1781
 8415SOL     OW33431   4.838   3.653   2.249 -0.4736 -0.4555 -0.4522
 8415SOL    HW233432   4.901   3.596   2.205 -0.5707 -1.5576  0.7806
 8415SOL    HW333433   4.881   3.681   2.329  0.2688  2.7391 -1.8285
 8415SOL    MW433434   4.852   3.649   2.253 -0.1788 -0.7399  0.5876
 8416SOL     OW33435   1.253   5.002   0.512 -0.0376 -0.2457 -0.4690
 8416SOL    HW233436   1.200   5.010   0.433  0.3590  2.7478 -0.5691
 8416SOL    HW333437   1.306   5.082   0.513 -0.0613 -0.1259  2.8277
 8416SOL    MW433438   1.253   5.014   0.502 -0.0106  0.1159  0.2457
 8417SOL     OW33439   1.688   3.859   3.235 -0.0858 -0.2707  0.4707
 8417SOL    HW233440   1.632   3.931   3.264  1.8549  1.0932  1.0559
 8417SOL    HW333441   1.708   3.881   3.143 -2.1364 -1.8954 -0.4469
 8417SOL    MW433442   1.683   3.871   3.226 -0.2313 -0.4483  0.2805
 8418SOL     OW33443   2.717   0.952   0.835 -0.1462 -0.3058 -0.1371
 8418SOL    HW233444   2.749   0.885   0.896  1.9803  1.4260  0.7890
 8418SOL    HW333445   2.749   0.923   0.749  0.8809 -0.4391  0.2751
 8418SOL    MW433446   2.726   0.939   0.832  0.3633 -0.2674  0.0212
 8419SOL     OW33447   6.289   3.470   5.275 -0.8464  0.6883 -0.2817
 8419SOL    HW233448   6.287   3.565   5.261 -0.7125  0.9338  1.1733
 8419SOL    HW333449   6.332   3.460   5.360  1.0435 -0.8017 -1.3493
 8419SOL    MW433450   6.294   3.481   5.284  0.3238 -0.7813  0.6339
 8420SOL     OW33451   0.321   4.244   0.781 -0.7025 -0.0855  0.2338
 8420SOL    HW233452   0.293   4.319   0.834  0.1850  0.5311 -0.1499
 8420SOL    HW333453   0.249   4.229   0.720 -0.2963  1.3809 -0.6440
 8420SOL    MW433454   0.308   4.252   0.780  0.7297  0.0444  0.2767
 8421SOL     OW33455   0.754   0.982   4.483 -0.1383 -0.0810  0.1364
 8421SOL    HW233456   0.808   1.060   4.471 -0.8071  0.4520  0.5320
 8421SOL    HW333457   0.686   0.988   4.416  0.6771 -1.1133 -0.8230
 8421SOL    MW433458   0.752   0.993   4.473 -0.2807 -0.1120  0.6716
 8422SOL     OW33459   2.640   0.996   2.695 -0.0767 -0.6583 -0.0394
 8422SOL    HW233460   2.660   1.007   2.602 -1.4170  0.6310 -0.2172
 8422SOL    HW333461   2.679   1.073   2.737 -0.5978 -0.5510  0.2577
 8422SOL    MW433462   2.648   1.008   2.688 -0.8837 -0.4412 -0.3445
 8423SOL     OW33463   3.305   1.845   6.023 -0.3606  0.2039  0.0185
 8423SOL    HW233464   3.326   1.865   6.114 -0.2541  4.1847 -0.6839
 8423SOL    HW333465   3.209   1.849   6.019 -0.3054  2.5761 -0.3844
 8423SOL    MW433466   3.295   1.848   6.034 -0.4980 -0.0223  0.0616
 8424SOL     OW33467   2.231   3.627   3.046 -0.2792 -0.5773  0.0880
 8424SOL    HW233468   2.137   3.643   3.039 -0.3208 -0.0472  1.6006
 8424SOL    HW333469   2.240   3.563   3.116  0.5893  0.7270  1.2142
 8424SOL    MW433470   2.220   3.620   3.054  0.3832 -0.6369  0.3770
 8425SOL     OW33471   4.109   0.232   2.260 -0.1683 -0.3720  0.3955
 8425SOL    HW233472   4.168   0.229   2.185  0.6808 -1.2804  1.0810
 8425SOL    HW333473   4.025   0.201   2.225 -0.2790  0.9286 -0.5818
 8425SOL    MW433474   4.106   0.227   2.246 -0.3853  0.0072 -0.3181
 8426SOL     OW33475   1.486   5.210   2.184  0.0869  0.3156 -0.5842
 8426SOL    HW233476   1.573   5.172   2.188 -0.5189 -1.0699  0.1719
 8426SOL    HW333477   1.442   5.163   2.113 -0.9607 -1.1231  0.9332
 8426SOL    MW433478   1.491   5.199   2.175 -0.0323  0.1468 -0.3845
 8427SOL     OW33479   5.943   1.944   5.303  0.1538 -0.2211 -0.3200
 8427SOL    HW233480   5.960   2.037   5.322 -1.1300  0.1069 -0.6786
 8427SOL    HW333481   5.937   1.903   5.389 -2.4228  0.6624  0.0227
 8427SOL    MW433482   5.944   1.951   5.317 -0.3658  0.4499 -0.0175
 8428SOL     OW33483   4.398   2.815   4.670 -0.3223 -0.2993  0.3469
 8428SOL    HW233484   4.422   2.902   4.640 -0.1718 -0.2017  0.7468
 8428SOL    HW333485   4.439   2.755   4.608 -1.3116 -0.0634 -0.5662
 8428SOL    MW433486   4.406   2.819   4.658 -0.0447 -0.0144  0.2030
 8429SOL     OW33487   0.904   0.306   5.475 -0.1235  0.5730 -0.4279
 8429SOL    HW233488   0.965   0.234   5.494 -0.1392 -0.0590 -2.4579
 8429SOL    HW333489   0.948   0.384   5.509  0.8865 -0.1405 -0.0332
 8429SOL    MW433490   0.918   0.307   5.482 -0.5800 -0.6767 -0.3442
 8430SOL     OW33491   6.050   3.730   1.231 -0.5302  0.5920 -0.3143
 8430SOL    HW233492   6.036   3.663   1.164  0.5165  0.3081 -0.2695
 8430SOL    HW333493   6.144   3.729   1.247 -0.9614 -1.4968  3.2916
 8430SOL    MW433494   6.060   3.721   1.224 -0.2136 -0.1308 -0.2310
 8431SOL     OW33495   1.699   0.114   3.165 -0.4139 -0.1855 -0.4700
 8431SOL    HW233496   1.770   0.050   3.173 -0.3806 -0.2462 -1.2543
 8431SOL    HW333497   1.633   0.084   3.228 -0.3537 -0.9297 -0.7542
 8431SOL    MW433498   1.700   0.102   3.175  0.3939  0.1249 -0.4433
 8432SOL     OW33499   2.257   0.994   3.315 -0.6188  0.2544  0.5381
 8432SOL    HW233500   2.226   0.908   3.341  0.9446 -0.8285 -0.9651
 8432SOL    HW333501   2.331   1.012   3.374  0.6125 -0.5789 -0.6902
 8432SOL    MW433502   2.263   0.985   3.326 -0.6442 -0.3168  0.1176
 8433SOL     OW33503   0.555   0.736   1.245 -0.1180  0.2527  0.0648
 8433SOL    HW233504   0.521   0.804   1.187  1.9467  1.3613  0.0898
 8433SOL    HW333505   0.634   0.774   1.284 -0.5522 -1.0563  2.3987
 8433SOL    MW433506   0.561   0.750   1.243  0.3989  0.3024  0.0148
 8434SOL     OW33507   1.576   4.464   2.883 -0.0927  0.2020  0.2067
 8434SOL    HW233508   1.570   4.503   2.971 -1.2854  0.3369  0.0805
 8434SOL    HW333509   1.613   4.533   2.829  2.8786 -0.6218  1.0220
 8434SOL    MW433510   1.580   4.479   2.888 -0.0242  0.6949 -0.2735
 8435SOL     OW33511   0.403   3.573   2.096 -0.3847  0.5936  0.9590
 8435SOL    HW233512   0.445   3.583   2.011 -1.3711 -0.8151  0.2629
 8435SOL    HW333513   0.315   3.541   2.076 -0.3148 -0.7106  2.5108
 8435SOL    MW433514   0.397   3.570   2.082  0.3107 -0.7198  0.2267
 8436SOL     OW33515   4.469   2.365   5.359  0.3891  0.1530 -0.2293
 8436SOL    HW233516   4.541   2.411   5.315  2.7726 -4.4673 -1.9280
 8436SOL    HW333517   4.494   2.366   5.452 -0.2731  2.9863  0.0039
 8436SOL    MW433518   4.482   2.371   5.365 -0.1275  0.0023 -0.2940
 8437SOL     OW33519   6.089   1.633   4.726  0.2155  0.4662 -0.7582
 8437SOL    HW233520   6.100   1.580   4.647  1.6874  0.3350 -0.4989
 8437SOL    HW333521   6.084   1.570   4.797  0.9814  0.6301 -0.5486
 8437SOL    MW433522   6.090   1.618   4.725 -0.1975 -0.3761  0.1996
 8438SOL     OW33523   4.144   5.054   6.250  0.2451 -0.2862  0.5123
 8438SOL    HW233524   4.172   5.125   6.192 -1.5274 -1.8281 -2.4668
 8438SOL    HW333525   4.067   5.016   6.207 -0.9145 -1.8955  3.7007
 8438SOL    MW433526   4.138   5.058   6.236  0.7981  0.5446 -0.2004
 8439SOL     OW33527   3.712   6.116   5.607  0.5121  0.1185 -0.4539
 8439SOL    HW233528   3.624   6.128   5.644  0.0148 -1.9861 -0.8721
 8439SOL    HW333529   3.698   6.088   5.517  1.6380 -0.0567 -0.5953
 8439SOL    MW433530   3.699   6.114   5.600  0.0881 -0.0599  0.0254
 8440SOL     OW33531   5.604   3.674   5.107 -0.0733 -0.1820 -0.5898
 8440SOL    HW233532   5.596   3.667   5.012 -0.0541 -1.8717 -0.4884
 8440SOL    HW333533   5.566   3.593   5.140  2.0921 -0.7319  0.7373
 8440SOL    MW433534   5.598   3.662   5.099  0.1945  0.4565  0.0804
 8441SOL     OW33535   0.762   1.709   1.261 -0.2947  0.0066 -0.2095
 8441SOL    HW233536   0.687   1.662   1.298  0.6958 -0.0979  1.8238
 8441SOL    HW333537   0.806   1.748   1.337  2.6790 -1.3556 -1.0574
 8441SOL    MW433538   0.758   1.708   1.276 -0.3561  0.0464  0.3239
 8442SOL     OW33539   0.030   6.226   3.885 -0.0452 -0.0082  0.6047
 8442SOL    HW233540  -0.000   6.161   3.821 -0.2502  0.6357  0.0224
 8442SOL    HW333541   0.041   6.306   3.833 -0.8844  0.7131  1.5023
 8442SOL    MW433542   0.028   6.228   3.869 -0.7584 -0.1007 -0.0001
 8443SOL     OW33543   4.582   0.240   2.749 -0.2784 -0.2161  0.1394
 8443SOL    HW233544   4.627   0.250   2.833  1.9253  1.5112 -1.1479
 8443SOL    HW333545   4.499   0.288   2.761  0.6487  1.2913  0.9241
 8443SOL    MW433546   4.577   0.248   2.762 -0.1252 -0.2959  0.2367
 8444SOL     OW33547   4.414   6.148   2.825  0.1835  0.5388  0.8097
 8444SOL    HW233548   4.497   6.105   2.845 -0.2840 -0.6740  0.1799
 8444SOL    HW333549   4.373   6.162   2.911  0.1186 -0.7280  0.9960
 8444SOL    MW433550   4.420   6.144   2.839 -0.7027  0.3076  0.1883
 8445SOL     OW33551   3.786   1.354   0.521  0.1433  0.5998 -0.3629
 8445SOL    HW233552   3.694   1.375   0.537 -0.0482  0.0263 -0.6983
 8445SOL    HW333553   3.785   1.286   0.453  0.7848  0.1009  0.1090
 8445SOL    MW433554   3.774   1.348   0.514 -0.3917  0.9193  0.5474
 8446SOL     OW33555   5.855   5.990   4.281 -0.4697  0.5571 -0.0245
 8446SOL    HW233556   5.874   6.069   4.231 -1.0632  0.4086 -0.5122
 8446SOL    HW333557   5.933   5.974   4.334  0.2538  0.6305 -1.0436
 8446SOL    MW433558   5.868   5.998   4.281  0.2765  0.2276  0.1493
 8447SOL     OW33559   5.508   1.735   4.306 -0.1065  0.4271  0.5291
 8447SOL    HW233560   5.580   1.718   4.367  0.6236 -0.7350 -0.6036
 8447SOL    HW333561   5.451   1.659   4.314 -0.6042  0.7998  0.5634
 8447SOL    MW433562   5.510   1.723   4.315  0.0916  0.6775 -0.0045
 8448SOL     OW33563   1.666   1.781   4.657  0.3804  0.6626  0.4690
 8448SOL    HW233564   1.715   1.813   4.732  3.2195 -0.9625 -0.5640
 8448SOL    HW333565   1.686   1.843   4.587  0.9698  0.0205  0.0557
 8448SOL    MW433566   1.675   1.794   4.657  0.1487 -0.1181  0.4932
 8449SOL     OW33567   0.514   2.867   4.538  0.5756  0.3192  0.0229
 8449SOL    HW233568   0.564   2.786   4.553 -0.4114 -0.1508  0.8705
 8449SOL    HW333569   0.581   2.932   4.514  1.3406 -0.8363 -1.1146
 8449SOL    MW433570   0.530   2.865   4.537 -0.4850 -0.0094 -0.6968
 8450SOL     OW33571   1.252   1.121   6.056  0.4725  0.1306 -0.4515
 8450SOL    HW233572   1.344   1.101   6.046  0.6610 -0.4873  1.8544
 8450SOL    HW333573   1.221   1.061   6.124 -1.8353 -0.2228 -1.6929
 8450SOL    MW433574   1.260   1.111   6.064  0.1952  0.0402 -0.8862
 8451SOL     OW33575   2.552   5.297   2.123  0.2034 -0.6510  0.3591
 8451SOL    HW233576   2.595   5.289   2.208  0.5892  0.0912  0.2416
 8451SOL    HW333577   2.588   5.226   2.070  0.0415 -1.0486  0.7757
 8451SOL    MW433578   2.562   5.287   2.127  0.5591 -0.4311 -0.1921
 8452SOL     OW33579   5.096   2.466   3.811 -1.0767 -0.3426  0.3822
 8452SOL    HW233580   5.049   2.533   3.762  1.1221  0.5039 -0.7397
 8452SOL    HW333581   5.102   2.392   3.751  0.5823  0.2643 -0.2928
 8452SOL    MW433582   5.091   2.465   3.797 -0.1056 -0.5448 -0.3131
 8453SOL     OW33583   2.987   3.009   2.132 -0.9089 -0.1574 -0.3959
 8453SOL    HW233584   3.060   2.957   2.165 -0.2007  0.8247 -0.3731
 8453SOL    HW333585   2.913   2.983   2.187 -0.1204  0.2791  0.9347
 8453SOL    MW433586   2.987   2.998   2.144 -0.3867  0.2070 -0.1849
 8454SOL     OW33587   4.198   0.788   5.498 -0.0111  0.2898  0.3845
 8454SOL    HW233588   4.138   0.862   5.503 -0.1683  0.1645  0.3617
 8454SOL    HW333589   4.278   0.819   5.539  0.1175  0.6656 -0.1308
 8454SOL    MW433590   4.200   0.802   5.504  0.1977  0.0256 -0.4925
 8455SOL     OW33591   5.317   1.633   5.131  0.0340 -0.1269 -0.5389
 8455SOL    HW233592   5.393   1.691   5.134  0.0964 -0.2277  0.1493
 8455SOL    HW333593   5.289   1.634   5.040  0.5507  0.3144 -0.6987
 8455SOL    MW433594   5.323   1.640   5.120  0.6266 -0.5705  0.3032
 8456SOL     OW33595   5.213   1.625   4.875 -0.3109 -0.2164 -0.1882
 8456SOL    HW233596   5.151   1.662   4.813  1.0194  1.3309 -0.6646
 8456SOL    HW333597   5.286   1.595   4.820  0.8186  1.0367  0.5723
 8456SOL    MW433598   5.215   1.626   4.859  0.3446  0.4548 -0.1104
 8457SOL     OW33599   0.422   4.816   1.751 -0.1710  0.3874 -0.1430
 8457SOL    HW233600   0.467   4.765   1.683 -0.3487  1.7236 -1.3082
 8457SOL    HW333601   0.339   4.769   1.765  1.1165 -1.5872  1.3706
 8457SOL    MW433602   0.417   4.803   1.744 -1.1615 -0.2242 -0.0498
 8458SOL     OW33603   4.405   0.610   1.972 -0.5734 -0.1067 -0.2376
 8458SOL    HW233604   4.486   0.595   1.923  0.0204 -2.3278  1.2537
 8458SOL    HW333605   4.428   0.591   2.063 -2.4003  0.7990  0.4672
 8458SOL    MW433606   4.419   0.606   1.978  0.1853  0.1306 -0.2571
 8459SOL     OW33607   5.785   3.214   1.037  0.2476  0.5394  0.2909
 8459SOL    HW233608   5.873   3.218   1.073  1.4363 -0.8869 -2.1862
 8459SOL    HW333609   5.779   3.291   0.980  0.7422 -0.4527 -1.1607
 8459SOL    MW433610   5.796   3.225   1.034  0.4460  0.5132  0.6056
 8460SOL     OW33611   4.381   4.827   0.460  0.2506  0.5679 -0.0358
 8460SOL    HW233612   4.474   4.850   0.457  0.6540 -0.9263  0.1298
 8460SOL    HW333613   4.378   4.734   0.434 -1.0826  0.3015  0.9330
 8460SOL    MW433614   4.393   4.817   0.456  0.2258 -0.4560  0.0433
 8461SOL     OW33615   2.276   2.810   4.409  0.1890 -1.2267  0.0934
 8461SOL    HW233616   2.260   2.722   4.375  0.0196 -0.7277 -1.1794
 8461SOL    HW333617   2.190   2.842   4.435  0.2225 -1.3568  0.3695
 8461SOL    MW433618   2.263   2.802   4.408 -0.6363  0.1163 -0.5001
 8462SOL     OW33619   1.913   0.833   1.015  0.2143 -0.4260  0.4219
 8462SOL    HW233620   1.986   0.812   0.956  1.3052  2.4036  0.5822
 8462SOL    HW333621   1.953   0.840   1.101 -0.9697 -2.3184  1.1794
 8462SOL    MW433622   1.928   0.831   1.018 -0.5815  0.2831 -0.2901
 8463SOL     OW33623   2.360   2.590   6.364  0.6152  0.3657 -0.5033
 8463SOL    HW233624   2.386   2.588   6.272 -0.0872 -1.7822 -0.7101
 8463SOL    HW333625   2.429   2.542   6.409 -0.7398 -1.6535 -0.4549
 8463SOL    MW433626   2.373   2.583   6.358 -0.1027 -0.7394  0.1193
 8464SOL     OW33627   5.982   5.277   2.695 -0.3309  0.5980 -0.1449
 8464SOL    HW233628   6.068   5.300   2.731 -0.5549  2.0650 -0.4935
 8464SOL    HW333629   5.962   5.191   2.734  1.6727 -0.2011 -0.7683
 8464SOL    MW433630   5.991   5.268   2.705 -0.2055 -0.2047 -0.0869
 8465SOL     OW33631   0.874   5.891   5.583 -0.0155 -0.2248 -0.0865
 8465SOL    HW233632   0.894   5.831   5.511  2.2859 -0.4046  0.6109
 8465SOL    HW333633   0.779   5.901   5.580 -0.1341 -1.2953 -2.2731
 8465SOL    MW433634   0.864   5.885   5.573 -0.1335 -0.0787 -0.4341
 8466SOL     OW33635   5.300   3.373   5.595 -0.4443  0.3856 -0.2393
 8466SOL    HW233636   5.229   3.396   5.655 -0.5176  0.7217 -0.4567
 8466SOL    HW333637   5.337   3.457   5.568 -0.4512  0.2387 -0.7173
 8466SOL    MW433638   5.296   3.387   5.600 -0.4761 -0.1763 -0.3065
 8467SOL     OW33639   4.697   2.627   3.995 -0.4414 -0.3473 -0.0069
 8467SOL    HW233640   4.653   2.672   3.923 -0.2159  1.1361  0.7472
 8467SOL    HW333641   4.626   2.586   4.045 -0.6140 -1.2069 -0.9245
 8467SOL    MW433642   4.682   2.627   3.992 -0.1512  0.2075 -0.6060
 8468SOL     OW33643   0.847   3.959   4.691 -0.0850 -0.4870 -0.0840
 8468SOL    HW233644   0.918   3.928   4.747 -0.0141 -0.1580  0.0091
 8468SOL    HW333645   0.768   3.938   4.739  0.0179  1.5313  1.0664
 8468SOL    MW433646   0.846   3.952   4.704 -0.1479  0.5652 -0.3180
 8469SOL     OW33647   0.603   5.650   3.667 -0.1215  0.0565  0.4416
 8469SOL    HW233648   0.629   5.626   3.756 -0.5843  0.5676  0.7260
 8469SOL    HW333649   0.521   5.604   3.653  1.1476 -1.9661 -0.6480
 8469SOL    MW433650   0.596   5.641   3.677 -0.9332  0.1496  0.2778
 8470SOL     OW33651   2.268   1.504   5.013 -0.0345  0.3445  0.1121
 8470SOL    HW233652   2.314   1.475   5.092  0.4070  0.4579 -0.1000
 8470SOL    HW333653   2.176   1.485   5.031  0.1485 -0.3620  0.3359
 8470SOL    MW433654   2.262   1.498   5.026 -0.5511  0.5703 -0.0698
 8471SOL     OW33655   6.153   0.162   2.835  0.0854 -0.4915 -0.2572
 8471SOL    HW233656   6.244   0.170   2.807 -0.1756  1.2901 -0.7161
 8471SOL    HW333657   6.149   0.208   2.919 -0.5942  0.4617 -0.7871
 8471SOL    MW433658   6.164   0.169   2.843  0.1004 -0.4885  0.2284
 8472SOL     OW33659   3.104   1.847   5.070  0.4944 -0.1394 -0.3773
 8472SOL    HW233660   3.089   1.911   5.139 -0.6521 -1.3105  0.4988
 8472SOL    HW333661   3.199   1.833   5.071  0.6165  0.6212  0.2309
 8472SOL    MW433662   3.115   1.854   5.079 -0.3474 -0.5115  0.3272
 8473SOL     OW33663   2.118   1.322   0.684 -0.2413  0.0909 -0.1581
 8473SOL    HW233664   2.137   1.374   0.605 -1.4419  0.2726 -0.3468
 8473SOL    HW333665   2.201   1.322   0.733  0.0117  1.5328 -0.5341
 8473SOL    MW433666   2.132   1.329   0.680 -0.0433 -0.6320 -0.0558
 8474SOL     OW33667   1.417   0.454   3.730  0.4496  0.1423 -0.0296
 8474SOL    HW233668   1.468   0.490   3.804  1.2891  0.3132 -0.6746
 8474SOL    HW333669   1.484   0.421   3.670 -0.2778 -1.8199  0.1881
 8474SOL    MW433670   1.433   0.454   3.732  0.3248 -0.1280 -0.4207
 8475SOL     OW33671   6.319   3.270   2.531  0.2792 -0.4373 -0.4511
 8475SOL    HW233672   6.409   3.245   2.551  1.2249  3.1587  0.7092
 8475SOL    HW333673   6.322   3.366   2.527 -3.3027 -0.2278 -1.5085
 8475SOL    MW433674   6.331   3.280   2.533  0.4159 -0.2625 -0.0567
 8476SOL     OW33675   0.268   1.475   0.172 -0.2728 -0.2268  0.2306
 8476SOL    HW233676   0.294   1.436   0.255  0.8201  0.4556  0.2372
 8476SOL    HW333677   0.173   1.487   0.179 -1.1986 -5.0435 -0.7153
 8476SOL    MW433678   0.259   1.471   0.183  0.3176  0.6900  0.0395
 8477SOL     OW33679   0.609   5.288   4.791 -0.1650 -0.0941 -0.4637
 8477SOL    HW233680   0.678   5.228   4.762  0.5224  1.7799 -3.0434
 8477SOL    HW333681   0.545   5.287   4.720 -1.7023 -0.0575  0.8595
 8477SOL    MW433682   0.610   5.280   4.778  0.0567  0.2886 -0.1604
 8478SOL     OW33683   2.410   5.205   2.469 -0.1590 -0.3309 -0.1015
 8478SOL    HW233684   2.474   5.142   2.435 -0.1767 -1.2811  1.5440
 8478SOL    HW333685   2.458   5.257   2.533 -1.1648 -1.6316  1.8037
 8478SOL    MW433686   2.424   5.204   2.473  0.0259  0.2746 -0.3136
 8479SOL     OW33687   1.040   4.590   1.767 -0.3296 -0.2580  0.6216
 8479SOL    HW233688   1.040   4.600   1.672 -1.1738 -0.1284  0.6262
 8479SOL    HW333689   1.063   4.498   1.781  3.0205  0.4462  0.4306
 8479SOL    MW433690   1.043   4.579   1.756 -0.3871  0.3212  0.4761
 8480SOL     OW33691   5.405   0.876   0.625 -0.3235 -0.0051  0.5936
 8480SOL    HW233692   5.492   0.904   0.654  0.5387  0.0946 -1.8087
 8480SOL    HW333693   5.421   0.793   0.580 -2.0747 -1.8645  3.0995
 8480SOL    MW433694   5.419   0.869   0.623 -0.3935  0.0340 -0.3553
 8481SOL     OW33695   3.665   1.173   2.792  0.4175 -0.0351 -0.5769
 8481SOL    HW233696   3.629   1.086   2.776  1.2752 -0.3996 -0.6147
 8481SOL    HW333697   3.606   1.233   2.747 -1.0475 -0.4511  0.7175
 8481SOL    MW433698   3.653   1.170   2.784 -0.0932 -0.3450  0.1675
 8482SOL     OW33699   2.114   4.231   6.263 -0.3530 -0.3950 -0.3159
 8482SOL    HW233700   2.161   4.148   6.269  0.2894 -0.0520 -0.4298
 8482SOL    HW333701   2.081   4.247   6.351 -0.3828 -0.7122 -0.2686
 8482SOL    MW433702   2.116   4.222   6.275  0.3036 -0.7800 -0.2790
 8483SOL     OW33703   3.519   3.580   0.212  0.1325  0.2465  0.7407
 8483SOL    HW233704   3.560   3.664   0.191  0.8389 -0.6590 -1.8268
 8483SOL    HW333705   3.572   3.516   0.165 -0.8401 -1.5938  2.0458
 8483SOL    MW433706   3.532   3.583   0.203  0.7597 -0.3012 -0.0290
 8484SOL     OW33707   3.858   5.964   0.702 -0.1562  0.1971 -0.1107
 8484SOL    HW233708   3.895   6.021   0.634  1.2501  0.6826  0.9990
 8484SOL    HW333709   3.920   5.892   0.709  0.4540  0.8283  1.5391
 8484SOL    MW433710   3.871   5.962   0.694 -0.1420 -0.4306  0.0364
 8485SOL     OW33711   4.444   5.864   5.323  0.4194  0.4985 -0.4472
 8485SOL    HW233712   4.421   5.955   5.340  1.9922  0.8503 -0.0491
 8485SOL    HW333713   4.366   5.814   5.348 -0.5404  1.7294 -0.8676
 8485SOL    MW433714   4.431   5.869   5.329  0.3500  0.3932  0.0738
 8486SOL     OW33715   4.999   0.134   3.722  0.1059 -0.0709 -0.1317
 8486SOL    HW233716   5.056   0.057   3.722 -1.0194 -0.9218 -0.8509
 8486SOL    HW333717   5.043   0.196   3.781  1.4909 -0.9025 -0.2572
 8486SOL    MW433718   5.012   0.132   3.730 -0.0896 -0.3996  0.0203
 8487SOL     OW33719   1.645   0.391   3.291 -0.4338  0.2887 -0.3125
 8487SOL    HW233720   1.721   0.448   3.278 -1.1177  1.0082 -1.3978
 8487SOL    HW333721   1.608   0.383   3.203 -2.1791  0.7757  0.3462
 8487SOL    MW433722   1.650   0.398   3.277  0.0315  0.2033  0.0357
 8488SOL     OW33723   5.600   5.976   3.311 -0.0466 -0.3488 -0.1175
 8488SOL    HW233724   5.626   6.025   3.233 -0.9137 -2.9310 -2.1861
 8488SOL    HW333725   5.682   5.951   3.352  0.4192  2.3680  0.7929
 8488SOL    MW433726   5.614   5.980   3.306 -0.2007  0.7333  0.3592
 8489SOL     OW33727   5.957   4.826   5.709  0.3115  0.8331 -0.6911
 8489SOL    HW233728   5.944   4.865   5.622  0.2426  1.1402 -0.5457
 8489SOL    HW333729   6.024   4.760   5.696  0.0374  0.6240 -1.0528
 8489SOL    MW433730   5.964   4.823   5.696 -0.5399  0.1756 -0.3398
 8490SOL     OW33731   0.157   5.908   4.823  0.3494  0.4941 -0.5382
 8490SOL    HW233732   0.203   5.893   4.741 -0.1088 -0.8128 -0.5696
 8490SOL    HW333733   0.198   5.987   4.860  0.8804  0.8070 -1.7736
 8490SOL    MW433734   0.168   5.917   4.817 -1.3887  0.2342 -0.6239
 8491SOL     OW33735   5.284   2.414   0.553  0.6712  0.6541  0.0877
 8491SOL    HW233736   5.247   2.412   0.465  1.6805 -1.2779 -0.3435
 8491SOL    HW333737   5.306   2.323   0.572  0.4969  1.0275  2.3516
 8491SOL    MW433738   5.282   2.402   0.544  0.0663  0.5159  0.4946
 8492SOL     OW33739   3.905   2.090   4.091  0.3787  0.3720  0.0359
 8492SOL    HW233740   3.990   2.059   4.062 -0.5782 -1.5668 -0.8308
 8492SOL    HW333741   3.869   2.137   4.016  0.6089  1.1090  0.3709
 8492SOL    MW433742   3.911   2.092   4.077  0.1210  0.5183  0.2069
 8493SOL     OW33743   5.731   0.215   5.643  0.5216  0.2284  0.0228
 8493SOL    HW233744   5.712   0.230   5.735  1.0577  0.9375  0.0226
 8493SOL    HW333745   5.807   0.157   5.643  0.6995  0.4590  0.0318
 8493SOL    MW433746   5.739   0.209   5.655  0.8238  0.3211 -0.1459
 8494SOL     OW33747   1.326   5.705   0.996  0.0354  0.1016 -0.4412
 8494SOL    HW233748   1.323   5.687   0.902 -0.8824 -0.8138 -0.2446
 8494SOL    HW333749   1.391   5.643   1.030 -0.5749 -0.4617 -0.2870
 8494SOL    MW433750   1.334   5.695   0.988  0.2512  0.0800 -0.6248
 8495SOL     OW33751   1.124   3.140   3.928 -0.2954 -0.5340  0.0792
 8495SOL    HW233752   1.179   3.179   3.860 -0.7508  0.5270  0.3014
 8495SOL    HW333753   1.140   3.046   3.921  1.2843 -0.2701 -0.0790
 8495SOL    MW433754   1.133   3.133   3.918  0.4356  0.0124  0.2810
 8496SOL     OW33755   2.659   1.185   2.129 -0.0175  0.2746  0.6236
 8496SOL    HW233756   2.578   1.148   2.163 -0.6073 -0.4638 -1.4244
 8496SOL    HW333757   2.723   1.114   2.135  0.0607  0.3575  0.7860
 8496SOL    MW433758   2.657   1.171   2.134  0.4225 -0.4556 -0.1716
 8497SOL     OW33759   4.683   3.997   0.541 -0.0655 -0.3733 -0.2210
 8497SOL    HW233760   4.719   4.015   0.454 -0.0391  2.5724  0.3143
 8497SOL    HW333761   4.590   4.015   0.534 -0.0799 -0.1940  0.3216
 8497SOL    MW433762   4.676   4.002   0.529 -0.5604 -0.4059  0.2200
 8498SOL     OW33763   4.322   3.397   2.790 -0.2689 -0.4557  0.9213
 8498SOL    HW233764   4.304   3.381   2.883  2.0124 -2.0479  1.1942
 8498SOL    HW333765   4.405   3.351   2.774 -1.3228 -1.5138 -2.2786
 8498SOL    MW433766   4.331   3.388   2.800  0.3144 -0.5913 -0.4155
 8499SOL     OW33767   0.908   3.041   1.142  0.1746  0.1906  0.3552
 8499SOL    HW233768   0.824   3.082   1.119 -2.1831 -2.9980  2.4247
 8499SOL    HW333769   0.902   2.953   1.105  1.9365 -0.6318  1.9026
 8499SOL    MW433770   0.896   3.035   1.134  0.1143 -0.4923  0.2389
 8500SOL     OW33771   4.832   5.388   4.915 -0.4794  0.0072 -0.0040
 8500SOL    HW233772   4.828   5.378   5.011  1.5947 -1.0261  0.0186
 8500SOL    HW333773   4.911   5.439   4.900  0.6498 -1.9943 -1.2582
 8500SOL    MW433774   4.842   5.394   4.926 -0.2095  0.0678  0.3876
 8501SOL     OW33775   0.483   5.914   1.180 -0.0451 -0.5199 -0.0945
 8501SOL    HW233776   0.571   5.920   1.142  0.3645 -0.9940  0.7623
 8501SOL    HW333777   0.498   5.887   1.270 -0.9909  0.7122  0.4597
 8501SOL    MW433778   0.497   5.911   1.186 -0.1026  0.1973 -0.3547
 8502SOL     OW33779   2.358   6.142   1.654  0.0178 -0.1281  0.5568
 8502SOL    HW233780   2.284   6.166   1.710 -0.7608 -2.7152  0.7700
 8502SOL    HW333781   2.348   6.048   1.639  0.9851  0.1471 -2.7944
 8502SOL    MW433782   2.347   6.133   1.659 -0.0647  0.1136 -0.5288
 8503SOL     OW33783   1.638   5.913   0.726  0.5730 -0.4564 -0.3810
 8503SOL    HW233784   1.690   5.851   0.777  1.3538 -2.3959 -3.2769
 8503SOL    HW333785   1.607   5.862   0.650 -2.0392  1.7439 -0.9542
 8503SOL    MW433786   1.641   5.898   0.722 -0.1217  0.5484  0.6059
 8504SOL     OW33787   6.192   5.332   1.096  0.0705 -0.3907  0.3674
 8504SOL    HW233788   6.284   5.336   1.068 -0.3807  0.1589 -1.1407
 8504SOL    HW333789   6.175   5.238   1.106  0.7115 -0.5164  0.3615
 8504SOL    MW433790   6.202   5.320   1.094 -0.5258 -0.1498 -0.5967
 8505SOL     OW33791   2.492   2.975   0.576 -0.3346 -0.1830  0.2336
 8505SOL    HW233792   2.555   2.938   0.514  0.3716  0.4906  0.5312
 8505SOL    HW333793   2.473   2.903   0.636 -1.3628 -0.9825 -0.9864
 8505SOL    MW433794   2.498   2.961   0.576 -0.5973  0.3541 -0.8233
 8506SOL     OW33795   3.476   2.193   2.271 -0.0340 -0.0921 -0.3110
 8506SOL    HW233796   3.565   2.181   2.304  0.1967 -0.1432 -0.9440
 8506SOL    HW333797   3.435   2.107   2.279  0.7705 -0.7118 -2.3365
 8506SOL    MW433798   3.482   2.180   2.277  0.3471 -0.1286  0.3587
 8507SOL     OW33799   6.317   2.654   5.886 -0.0790  0.0311  0.3084
 8507SOL    HW233800   6.376   2.693   5.821  0.2440  0.8067  1.0388
 8507SOL    HW333801   6.247   2.719   5.895 -0.0791 -0.0330  0.7832
 8507SOL    MW433802   6.316   2.668   5.878 -0.3330  0.3523 -0.3206
 8508SOL     OW33803   1.412   5.932   1.189  0.4424 -0.1477  0.5949
 8508SOL    HW233804   1.401   5.872   1.115 -0.5199  1.7279 -0.8607
 8508SOL    HW333805   1.358   5.894   1.258  0.0886 -1.1196 -0.1901
 8508SOL    MW433806   1.403   5.919   1.188 -0.7233 -0.2343  0.5085
 8509SOL     OW33807   1.798   5.373   4.799 -0.0549 -0.5062  0.0283
 8509SOL    HW233808   1.776   5.459   4.763 -0.1041 -0.2412  0.6686
 8509SOL    HW333809   1.860   5.336   4.737 -0.1430 -0.0625 -0.3255
 8509SOL    MW433810   1.803   5.380   4.786 -0.2073 -0.5023  0.2469
 8510SOL     OW33811   1.092   5.219   1.856 -0.1272 -0.0569 -0.2448
 8510SOL    HW233812   1.024   5.284   1.836  0.4188  0.2106 -1.3153
 8510SOL    HW333813   1.101   5.168   1.775  1.3484  0.2944 -0.3334
 8510SOL    MW433814   1.084   5.221   1.843  0.2273  0.5036  0.1113
 8511SOL     OW33815   4.776   0.160   2.324 -0.2268 -0.1863 -0.5596
 8511SOL    HW233816   4.720   0.174   2.248 -0.7606 -0.4805 -0.2242
 8511SOL    HW333817   4.794   0.067   2.324 -2.8861 -0.8302  1.4572
 8511SOL    MW433818   4.771   0.150   2.314  0.6862  0.5659  0.3693
 8512SOL     OW33819   5.745   1.379   4.250 -0.3413 -0.0378 -0.3899
 8512SOL    HW233820   5.761   1.458   4.199  0.0513  0.3774  0.3522
 8512SOL    HW333821   5.796   1.311   4.207  0.1384  0.3491 -0.4329
 8512SOL    MW433822   5.754   1.380   4.238 -0.3420  0.3574 -0.2374
 8513SOL     OW33823   3.879   3.327   4.188  0.1286 -0.0774 -0.1132
 8513SOL    HW233824   3.789   3.297   4.199  0.0094  0.3623  0.1263
 8513SOL    HW333825   3.873   3.406   4.135  0.5760 -1.2853 -2.0794
 8513SOL    MW433826   3.866   3.333   4.183 -0.9731  0.4507  0.0707
 8514SOL     OW33827   3.559   0.066   1.436  0.0903 -0.4255  0.0471
 8514SOL    HW233828   3.579   0.156   1.412  0.5614  0.0038  1.8723
 8514SOL    HW333829   3.625   0.013   1.391  0.9999  0.3386  0.4554
 8514SOL    MW433830   3.571   0.071   1.427 -0.1530  0.5389 -0.0925
 8515SOL     OW33831   2.570   6.166   0.843  0.3032  0.6628 -0.2644
 8515SOL    HW233832   2.601   6.201   0.927  0.4987  0.8834 -0.4269
 8515SOL    HW333833   2.489   6.213   0.826  0.7344  1.2811 -0.6423
 8515SOL    MW433834   2.564   6.177   0.852 -0.0258 -0.3516  0.4151
 8516SOL     OW33835   3.002   6.473   5.168  0.1165 -0.4085  0.2704
 8516SOL    HW233836   2.966   6.522   5.095  0.0273 -1.7126 -0.5990
 8516SOL    HW333837   2.995   6.532   5.243  1.0490  1.2887 -0.9344
 8516SOL    MW433838   2.996   6.487   5.168 -0.3146  0.2686 -0.7675
 8517SOL     OW33839   1.338   4.503   5.301 -0.0399 -0.2100  0.0441
 8517SOL    HW233840   1.284   4.569   5.257 -1.0498  1.4310  3.3657
 8517SOL    HW333841   1.422   4.505   5.254 -1.0065  1.3435 -1.7334
 8517SOL    MW433842   1.342   4.512   5.289 -0.2522 -0.2500  0.0227
 8518SOL     OW33843   3.311   2.432   2.440 -0.4763 -0.4024 -0.7302
 8518SOL    HW233844   3.228   2.422   2.485 -0.3446  0.0716 -0.3698
 8518SOL    HW333845   3.376   2.397   2.501 -0.2466  0.6682 -0.3350
 8518SOL    MW433846   3.309   2.426   2.454  0.2692 -0.7467 -0.2679
 8519SOL     OW33847   3.946   2.178   4.743 -0.0285  0.3344  0.2555
 8519SOL    HW233848   3.909   2.236   4.810  0.2785  0.3576  0.4085
 8519SOL    HW333849   4.037   2.206   4.736 -0.3683  1.1829 -1.1018
 8519SOL    MW433850   3.953   2.190   4.751  0.3662 -0.4416 -0.5445
 8520SOL     OW33851   4.208   4.480   2.001  0.4260  0.0323  0.4034
 8520SOL    HW233852   4.189   4.574   1.992 -0.9494 -0.2059  0.5679
 8520SOL    HW333853   4.182   4.443   1.917 -1.0194 -0.4759  1.0391
 8520SOL    MW433854   4.202   4.488   1.989  0.6782 -0.3516  0.3416
 8521SOL     OW33855   2.328   1.967   6.311  0.3359 -0.2648  0.5954
 8521SOL    HW233856   2.278   1.958   6.392 -0.0759 -0.7508  0.2955
 8521SOL    HW333857   2.282   2.034   6.261  1.4392  1.1424  1.3713
 8521SOL    MW433858   2.315   1.974   6.315 -0.3082 -0.1180 -0.1905
 8522SOL     OW33859   5.161   1.839   0.218  0.1935  0.1560  0.1272
 8522SOL    HW233860   5.239   1.872   0.261 -0.0728  2.5002 -1.0327
 8522SOL    HW333861   5.183   1.749   0.193  3.5928  1.4890 -2.4487
 8522SOL    MW433862   5.174   1.831   0.220  0.7281  0.2065  0.4907
 8523SOL     OW33863   1.968   3.867   4.833 -0.3629 -0.0756 -0.1152
 8523SOL    HW233864   1.975   3.894   4.742  2.4062 -0.2285 -0.0474
 8523SOL    HW333865   1.912   3.933   4.874  0.0125  1.1591 -1.5083
 8523SOL    MW433866   1.962   3.879   4.827  0.7272  0.4457 -0.0344
 8524SOL     OW33867   5.215   4.382   1.181 -0.2132  0.4021  0.1510
 8524SOL    HW233868   5.208   4.444   1.254  0.4663  2.8116 -1.7247
 8524SOL    HW333869   5.130   4.387   1.137 -0.0712  0.1862 -0.1499
 8524SOL    MW433870   5.202   4.391   1.185 -0.7742  0.3067 -0.1378
 8525SOL     OW33871   3.340   3.707   4.061  0.1456  0.4053 -0.2745
 8525SOL    HW233872   3.259   3.657   4.066  0.2411  0.2368 -0.4100
 8525SOL    HW333873   3.322   3.787   4.110 -0.6066  1.0497 -1.5592
 8525SOL    MW433874   3.327   3.711   4.068  0.1704 -0.0852  0.9798
 8526SOL     OW33875   0.141   3.454   3.370 -0.0151  0.3015 -0.5595
 8526SOL    HW233876   0.138   3.462   3.465 -1.4521 -1.5370 -0.4067
 8526SOL    HW333877   0.191   3.531   3.342 -0.1193  1.2436  1.6057
 8526SOL    MW433878   0.147   3.465   3.379 -0.1212 -0.5009  0.4550
 8527SOL     OW33879   6.127   3.124   4.997  0.7544 -0.2947  0.5318
 8527SOL    HW233880   6.186   3.128   4.922  0.3657 -0.0288  0.2404
 8527SOL    HW333881   6.046   3.165   4.967  0.5960 -0.1818  1.0961
 8527SOL    MW433882   6.124   3.130   4.983  0.7170 -0.0663 -0.2358
 8528SOL     OW33883   5.970   2.145   3.992 -0.3916 -0.0689  0.3041
 8528SOL    HW233884   6.063   2.133   3.972  0.2029 -0.8655  3.1239
 8528SOL    HW333885   5.958   2.240   4.000 -0.0925  0.0982 -1.0631
 8528SOL    MW433886   5.980   2.156   3.990  0.6997 -0.1220 -0.2669
 8529SOL     OW33887   2.824   3.974   4.265 -0.0685 -0.2449 -0.0837
 8529SOL    HW233888   2.872   3.920   4.327  1.0920 -2.0583 -2.3965
 8529SOL    HW333889   2.891   4.027   4.222 -0.7959  0.7250 -0.0594
 8529SOL    MW433890   2.839   3.974   4.267  0.3288 -0.2743  0.0714
 8530SOL     OW33891   2.122   2.710   6.429 -0.2382 -0.5765  0.1745
 8530SOL    HW233892   2.119   2.805   6.433 -1.1307 -0.4784 -1.6029
 8530SOL    HW333893   2.215   2.689   6.417 -0.0703  0.0900  0.2857
 8530SOL    MW433894   2.134   2.719   6.428  0.0426 -0.1064 -0.3455
 8531SOL     OW33895   3.575   1.769   2.558 -0.6267  0.0029 -0.0947
 8531SOL    HW233896   3.647   1.749   2.498  1.2907 -1.5124  2.4562
 8531SOL    HW333897   3.544   1.855   2.531  1.6880  0.3970 -1.8009
 8531SOL    MW433898   3.581   1.778   2.547 -0.1816  0.2144  0.2445
 8532SOL     OW33899   3.527   3.965   4.393  0.0199  0.1499 -0.6454
 8532SOL    HW233900   3.511   3.977   4.486  0.2402  1.0189 -0.7125
 8532SOL    HW333901   3.590   3.893   4.388 -0.5083 -0.3539 -0.1648
 8532SOL    MW433902   3.533   3.957   4.404  0.0887  0.3238  0.4894
 8533SOL     OW33903   6.177   3.935   3.176 -0.7159 -0.1772 -0.0660
 8533SOL    HW233904   6.170   4.030   3.168 -0.7244 -0.1478  0.2674
 8533SOL    HW333905   6.088   3.903   3.163 -1.4466  0.1197  3.1923
 8533SOL    MW433906   6.165   3.943   3.174  0.0941  0.0779  0.5216
 8534SOL     OW33907   1.868   1.681   1.754  0.6907  0.0193  0.6552
 8534SOL    HW233908   1.930   1.737   1.801  0.9986 -0.6514  1.0567
 8534SOL    HW333909   1.865   1.600   1.804 -0.1271 -0.1546  0.3534
 8534SOL    MW433910   1.876   1.678   1.767  0.9753 -0.2161 -0.4152
 8535SOL     OW33911   0.814   2.335   2.477 -0.0262 -0.0043  0.4546
 8535SOL    HW233912   0.886   2.389   2.444  0.9713 -0.0437  2.4092
 8535SOL    HW333913   0.745   2.398   2.501  0.2036  0.2133  0.5438
 8535SOL    MW433914   0.814   2.351   2.476 -0.3128  0.8318  0.3300
 8536SOL     OW33915   5.852   2.676   1.229  0.1222 -1.2978  0.0382
 8536SOL    HW233916   5.802   2.598   1.205 -1.1923 -1.0655  1.8164
 8536SOL    HW333917   5.827   2.741   1.164 -2.3384 -1.0609  1.0991
 8536SOL    MW433918   5.842   2.674   1.218 -0.2852  0.5399  0.0197
 8537SOL     OW33919   4.718   4.240   2.790 -0.5633  0.0911 -0.0851
 8537SOL    HW233920   4.677   4.315   2.747  1.3421  2.4116  1.8310
 8537SOL    HW333921   4.715   4.262   2.883  1.6628 -1.3644  0.3959
 8537SOL    MW433922   4.712   4.253   2.797 -0.0668 -0.5168  0.3293
 8538SOL     OW33923   4.179   5.315   0.819 -0.5436 -0.3247  0.2169
 8538SOL    HW233924   4.146   5.240   0.770 -1.2158 -0.5600  1.0007
 8538SOL    HW333925   4.183   5.285   0.910  0.9575  0.0011  0.3006
 8538SOL    MW433926   4.176   5.301   0.825 -0.2869 -0.0555 -0.2407
 8539SOL     OW33927   0.081   2.950   1.905 -0.3529  0.6065  0.3649
 8539SOL    HW233928   0.027   3.013   1.954  1.3256  2.2820  0.1644
 8539SOL    HW333929   0.079   2.982   1.815  1.6863  1.2688  0.5184
 8539SOL    MW433930   0.073   2.963   1.900 -0.1319 -0.1668  0.3387
 8540SOL     OW33931   1.120   0.436   2.486  0.2436 -0.4085  0.0084
 8540SOL    HW233932   1.210   0.405   2.494  0.3364 -0.2978 -0.5489
 8540SOL    HW333933   1.126   0.531   2.498 -0.1679 -0.6509  2.7043
 8540SOL    MW433934   1.132   0.445   2.489 -0.3303 -0.2257 -0.3011
 8541SOL     OW33935   4.017   0.175   4.451  0.0251  0.3885 -0.7371
 8541SOL    HW233936   3.981   0.106   4.506  1.7976  0.2794  0.3523
 8541SOL    HW333937   3.988   0.257   4.492  0.7605  0.2972  0.0042
 8541SOL    MW433938   4.009   0.177   4.463  0.0215 -0.8458  0.1662
 8542SOL     OW33939   5.315   3.364   1.293 -0.3760  0.6456 -0.0739
 8542SOL    HW233940   5.265   3.305   1.350 -2.2242  0.8291 -1.4047
 8542SOL    HW333941   5.399   3.319   1.281 -1.0946 -0.8920  0.3190
 8542SOL    MW433942   5.319   3.350   1.299 -0.0065  0.4167 -0.0792
 8543SOL     OW33943   6.059   1.881   5.796  0.2073 -0.4691  0.1592
 8543SOL    HW233944   5.984   1.878   5.856  1.7460  1.0840  2.3612
 8543SOL    HW333945   6.101   1.796   5.805  0.2872 -0.3397  1.2011
 8543SOL    MW433946   6.055   1.870   5.805  0.4449  0.2116 -0.2809
 8544SOL     OW33947   5.821   4.959   3.905 -0.1325 -0.0975  0.8189
 8544SOL    HW233948   5.827   4.892   3.836  1.7587 -0.4425  1.2486
 8544SOL    HW333949   5.731   4.990   3.900 -0.1149 -0.2136 -1.7074
 8544SOL    MW433950   5.810   4.954   3.895 -0.4690 -0.6617 -0.6480
 8545SOL     OW33951   3.047   5.433   2.284 -0.0319  0.0400 -0.3234
 8545SOL    HW233952   3.119   5.466   2.230 -0.2098  1.5978  0.3419
 8545SOL    HW333953   2.972   5.432   2.225  0.2898 -0.6082 -0.7407
 8545SOL    MW433954   3.047   5.437   2.269  0.3435  0.6041  0.0324
 8546SOL     OW33955   2.733   1.318   0.060  0.1197  0.9988  0.1626
 8546SOL    HW233956   2.761   1.326  -0.031  0.7690  1.1019  0.3681
 8546SOL    HW333957   2.710   1.226   0.071  0.8626  0.8039  0.1250
 8546SOL    MW433958   2.734   1.307   0.049  0.1197  0.0396 -0.3237
 8547SOL     OW33959   1.098   6.295   5.311  0.0456 -0.2345  0.5113
 8547SOL    HW233960   1.045   6.231   5.360 -0.1643  1.9225  3.3810
 8547SOL    HW333961   1.034   6.356   5.274  0.3411 -0.5931 -0.6345
 8547SOL    MW433962   1.082   6.295   5.313  0.2407 -0.5061  0.1769
 8548SOL     OW33963   2.188   0.810   4.304 -0.0155  0.1536 -0.2371
 8548SOL    HW233964   2.101   0.835   4.332  0.2975  0.3310  0.5968
 8548SOL    HW333965   2.176   0.774   4.216 -0.8428  0.7175 -0.3618
 8548SOL    MW433966   2.175   0.809   4.296 -0.0413 -0.7348  0.0368
 8549SOL     OW33967   4.568   5.700   0.993  0.3138 -0.0328 -0.0318
 8549SOL    HW233968   4.502   5.763   0.964 -0.6025 -0.7527  0.4184
 8549SOL    HW333969   4.566   5.630   0.928  0.1926 -0.3519  0.3105
 8549SOL    MW433970   4.559   5.699   0.981 -0.5614  0.2229  0.1875
 8550SOL     OW33971   4.583   3.168   3.738 -0.5085 -0.1879 -0.4361
 8550SOL    HW233972   4.511   3.231   3.733 -1.2049 -0.9546 -0.1716
 8550SOL    HW333973   4.574   3.128   3.824 -0.8844 -1.6097 -1.1219
 8550SOL    MW433974   4.572   3.171   3.749 -0.5766  0.7430 -0.1001
 8551SOL     OW33975   4.419   5.110   0.266  0.5166  0.0960  0.0058
 8551SOL    HW233976   4.330   5.095   0.297 -0.0638  2.9687  0.0004
 8551SOL    HW333977   4.428   5.052   0.190 -1.7727  0.5598 -0.6882
 8551SOL    MW433978   4.409   5.100   0.260  0.0728  0.2791  0.4510
 8552SOL     OW33979   2.696   1.988   3.084 -0.5649 -0.1206  0.9021
 8552SOL    HW233980   2.612   2.017   3.120 -1.4432 -2.4586  0.8790
 8552SOL    HW333981   2.736   1.937   3.155 -0.0370 -0.6100  0.2652
 8552SOL    MW433982   2.690   1.985   3.098 -0.1738  0.3591  0.2209
 8553SOL     OW33983   6.353   6.434   4.762  0.0095 -0.4533 -0.1804
 8553SOL    HW233984   6.260   6.452   4.777  0.3384 -0.8123  3.0287
 8553SOL    HW333985   6.382   6.505   4.704 -2.1232 -0.0891 -0.9033
 8553SOL    MW433986   6.344   6.446   4.756 -0.6585 -0.5995  0.4091
 8554SOL     OW33987   5.183   5.432   1.007  0.1885 -0.3658 -0.0839
 8554SOL    HW233988   5.162   5.406   1.097  1.7513  1.2295  0.8138
 8554SOL    HW333989   5.277   5.447   1.008 -0.1724  2.7344 -1.0881
 8554SOL    MW433990   5.193   5.431   1.019 -0.1880 -0.1726 -0.2887
 8555SOL     OW33991   3.617   6.003   1.632 -0.1907  0.2180 -0.1094
 8555SOL    HW233992   3.648   5.944   1.700  2.9946 -0.0603 -1.6369
 8555SOL    HW333993   3.554   5.952   1.582  0.8578 -1.1552 -0.0685
 8555SOL    MW433994   3.612   5.989   1.635  0.2963 -0.1021 -0.3326
 8556SOL     OW33995   3.877   3.992   4.760 -0.2145  0.0854  0.0515
 8556SOL    HW233996   3.840   3.936   4.828  0.9344 -0.2748  0.4162
 8556SOL    HW333997   3.825   4.072   4.763 -0.3856 -0.0504  1.1502
 8556SOL    MW433998   3.865   3.995   4.770  0.0292  0.2941 -0.4068
 8557SOL     OW33999   4.953   5.825   4.663 -0.6088  0.5842  0.0623
 8557SOL    HW234000   4.886   5.874   4.710  0.4578 -0.5370  2.9420
 8557SOL    HW334001   4.904   5.770   4.602 -2.1290  1.3137  0.5806
 8557SOL    MW434002   4.938   5.824   4.661  0.4402 -0.1284  0.1088
 8558SOL     OW34003   1.156   0.996   5.216  0.1485  0.3775 -0.0241
 8558SOL    HW234004   1.169   0.924   5.278  1.7222 -0.1659 -0.9127
 8558SOL    HW334005   1.061   1.004   5.208 -0.1424 -2.5881 -0.9414
 8558SOL    MW434006   1.146   0.987   5.223 -0.5210  0.1334  0.0259
 8559SOL     OW34007   6.352   4.574   6.126  0.7689  0.2552  0.0190
 8559SOL    HW234008   6.395   4.490   6.110  0.6002 -0.2478  1.9696
 8559SOL    HW334009   6.266   4.565   6.085  1.1890 -0.0591 -0.8149
 8559SOL    MW434010   6.346   4.562   6.118  0.2316  0.0246 -0.0932
 8560SOL     OW34011   0.271   1.162   3.177 -0.3062 -0.1158 -1.0673
 8560SOL    HW234012   0.252   1.132   3.266 -1.7360  0.0289 -1.3097
 8560SOL    HW334013   0.308   1.249   3.189 -1.2091  0.2194 -0.6368
 8560SOL    MW434014   0.274   1.169   3.191  0.2119 -0.2092 -0.1039
 8561SOL     OW34015   6.273   2.611   0.697 -0.2829  0.5908  0.0108
 8561SOL    HW234016   6.282   2.704   0.676 -0.3548  0.6751  0.3596
 8561SOL    HW334017   6.202   2.581   0.641 -0.2919  0.7571 -0.0688
 8561SOL    MW434018   6.265   2.620   0.687 -0.1813  0.1193 -0.1474
 8562SOL     OW34019   0.413   6.342   4.103  0.5610  0.2721 -0.3269
 8562SOL    HW234020   0.377   6.263   4.063  0.1514  0.7330 -0.8876
 8562SOL    HW334021   0.343   6.373   4.161 -0.4112  1.6927 -2.1199
 8562SOL    MW434022   0.399   6.336   4.105  0.1430 -0.1547 -0.5293
 8563SOL     OW34023   3.923   3.049   6.034 -0.1450 -0.0956 -0.3390
 8563SOL    HW234024   3.955   3.065   5.945  1.2993 -1.8948 -0.2061
 8563SOL    HW334025   3.914   2.954   6.040 -0.6285  0.0176  1.3143
 8563SOL    MW434026   3.926   3.039   6.023  0.2920  0.2127 -0.0210
 8564SOL     OW34027   0.083   4.851   5.294  0.0229 -0.0870  0.4849
 8564SOL    HW234028   0.061   4.869   5.385 -2.7590 -0.3795 -0.0351
 8564SOL    HW334029   0.075   4.936   5.251 -0.4224 -0.2571  0.2261
 8564SOL    MW434030   0.079   4.864   5.300 -0.0541  0.1791 -0.3426
 8565SOL     OW34031   1.784   0.341   0.938  0.1709  0.2527 -0.2035
 8565SOL    HW234032   1.731   0.408   0.981 -0.0378 -0.5818  0.8951
 8565SOL    HW334033   1.865   0.338   0.988  1.2988  1.4882 -1.8534
 8565SOL    MW434034   1.788   0.349   0.951 -0.5496  0.0211  0.5783
 8566SOL     OW34035   5.523   4.120   2.330  0.2871 -0.3393  0.1124
 8566SOL    HW234036   5.585   4.140   2.260 -0.4588 -0.0581 -0.4792
 8566SOL    HW334037   5.538   4.188   2.395 -0.4521  0.6466 -0.7253
 8566SOL    MW434038   5.533   4.131   2.329  0.0647 -0.6199 -0.2800
 8567SOL     OW34039   1.519   5.080   6.193 -0.3469 -0.1534 -0.1745
 8567SOL    HW234040   1.472   5.163   6.191  0.5691  0.4575  1.5938
 8567SOL    HW334041   1.603   5.101   6.234 -0.4112 -2.0984  1.0661
 8567SOL    MW434042   1.524   5.094   6.198 -0.4871 -0.1981 -0.4698
 8568SOL     OW34043   5.282   4.973   5.895 -0.0870  0.3344  0.3823
 8568SOL    HW234044   5.349   4.905   5.899 -1.8891 -1.5892 -0.5950
 8568SOL    HW334045   5.234   4.964   5.978 -2.2889 -1.8269 -0.9903
 8568SOL    MW434046   5.285   4.963   5.907 -0.2911 -0.4145 -0.2034
 8569SOL     OW34047   4.420   3.115   2.345 -0.1566  0.6231 -0.3111
 8569SOL    HW234048   4.354   3.095   2.279  0.7618  0.0352 -1.0903
 8569SOL    HW334049   4.384   3.189   2.394 -1.3563  0.3419 -0.7378
 8569SOL    MW434050   4.407   3.122   2.343  0.0717 -0.4330  0.0106
 8570SOL     OW34051   3.377   1.708   2.798 -0.3152 -0.0355 -0.2186
 8570SOL    HW234052   3.450   1.692   2.737 -1.2501 -2.7209 -0.7936
 8570SOL    HW334053   3.351   1.798   2.782  2.1246  0.6276 -0.8206
 8570SOL    MW434054   3.383   1.718   2.788  0.2385 -0.2980 -1.2972
 8571SOL     OW34055   0.941   4.283   5.448  0.3045  0.0669 -0.0276
 8571SOL    HW234056   0.900   4.328   5.522 -1.1048 -0.2864 -0.5490
 8571SOL    HW334057   0.928   4.342   5.374  0.0158 -0.4091 -0.3623
 8571SOL    MW434058   0.934   4.297   5.448  0.6031  0.1664  0.4882
 8572SOL     OW34059   0.536   6.106   5.364  0.0370  0.4589  0.1084
 8572SOL    HW234060   0.442   6.122   5.364 -0.4233 -1.9114  0.0316
 8572SOL    HW334061   0.549   6.039   5.296  1.6100 -0.1044  0.9194
 8572SOL    MW434062   0.526   6.099   5.355  0.6721  0.0528 -0.4358
 8573SOL     OW34063   4.550   3.827   3.233 -0.6012 -0.0352 -0.2670
 8573SOL    HW234064   4.526   3.764   3.164 -1.0802 -0.2258  0.0636
 8573SOL    HW334065   4.582   3.904   3.185  2.6046 -1.4675 -0.6591
 8573SOL    MW434066   4.551   3.829   3.217  0.2393  0.4355 -0.2066
 8574SOL     OW34067   3.619   2.184   4.954 -0.0253  0.1762  0.6045
 8574SOL    HW234068   3.573   2.185   5.038 -0.7775  0.5825  0.1905
 8574SOL    HW334069   3.598   2.268   4.914 -0.6453 -0.4942 -0.5234
 8574SOL    MW434070   3.610   2.195   4.960  0.1370 -0.3521 -0.1850
 8575SOL     OW34071   0.625   2.741   3.847  0.4575  0.3741 -0.4389
 8575SOL    HW234072   0.715   2.745   3.880 -0.1198 -0.3288  1.3343
 8575SOL    HW334073   0.601   2.649   3.853 -0.1233  0.4269 -1.6774
 8575SOL    MW434074   0.634   2.729   3.852 -0.0529 -0.4913  0.3660
 8576SOL     OW34075   1.897   1.545   0.770 -0.5704 -0.5494 -0.2103
 8576SOL    HW234076   1.981   1.524   0.812  0.5032  0.0292 -1.9664
 8576SOL    HW334077   1.856   1.607   0.829  0.2483 -0.8256  0.6767
 8576SOL    MW434078   1.903   1.550   0.783 -0.1248 -0.1544  0.2625
 8577SOL     OW34079   4.082   0.499   6.251  0.3707  0.2175 -0.1479
 8577SOL    HW234080   4.038   0.456   6.178  1.0915 -0.4968 -0.1760
 8577SOL    HW334081   4.012   0.521   6.312  0.0456 -1.8135  0.2851
 8577SOL    MW434082   4.067   0.496   6.249  0.1514  0.1445 -0.1053
 8578SOL     OW34083   2.050   4.164   0.982 -0.2157 -0.4383 -0.3014
 8578SOL    HW234084   2.041   4.072   0.960 -0.5614 -0.2640 -0.9255
 8578SOL    HW334085   2.062   4.208   0.898 -2.5877  0.3721 -0.2932
 8578SOL    MW434086   2.050   4.158   0.968 -0.2109  0.0631  0.5304
 8579SOL     OW34087   4.181   3.908   4.385  0.5402  0.4159 -0.0094
 8579SOL    HW234088   4.243   3.941   4.450  0.1348  0.7876  0.1969
 8579SOL    HW334089   4.104   3.884   4.436  0.3644  0.3405 -0.3119
 8579SOL    MW434090   4.179   3.909   4.400 -0.0667 -0.0125  0.1698
 8580SOL     OW34091   0.569   5.488   0.262  0.4045 -0.8596  0.1749
 8580SOL    HW234092   0.588   5.449   0.347 -0.4649  0.4445  1.0099
 8580SOL    HW334093   0.594   5.580   0.272  0.9106 -0.8315 -1.2023
 8580SOL    MW434094   0.574   5.495   0.275 -0.5178  0.2446 -0.0303
 8581SOL     OW34095   1.979   2.899   3.332 -0.3338 -0.5299  0.2522
 8581SOL    HW234096   2.052   2.866   3.278  0.4434  0.8043  0.4386
 8581SOL    HW334097   1.918   2.936   3.269  0.3973  0.6880  0.2267
 8581SOL    MW434098   1.981   2.900   3.316 -0.7320  0.4333 -0.1068
 8582SOL     OW34099   0.652   0.432   4.047  0.1792  0.2897  0.2771
 8582SOL    HW234100   0.571   0.414   4.094  0.6488  0.0013  0.9840
 8582SOL    HW334101   0.671   0.524   4.064  0.1614  0.2787  0.3534
 8582SOL    MW434102   0.644   0.442   4.055  0.2836  0.0087 -0.1100
 8583SOL     OW34103   1.528   3.562   6.167  0.3047 -0.2383 -0.3813
 8583SOL    HW234104   1.518   3.588   6.076 -1.5323 -3.1016 -1.1246
 8583SOL    HW334105   1.622   3.567   6.183  0.8069 -0.7341 -2.8006
 8583SOL    MW434106   1.539   3.566   6.157 -0.2073 -0.6088  0.1108
 8584SOL     OW34107   4.109   5.085   1.820 -0.0226 -0.0160  0.1590
 8584SOL    HW234108   4.122   5.009   1.763 -2.0270  0.3013 -0.7901
 8584SOL    HW334109   4.170   5.151   1.786  0.4115 -0.5761 -0.1687
 8584SOL    MW434110   4.119   5.083   1.808  0.2394 -0.2538 -0.3162
 8585SOL     OW34111   0.682   0.747   0.635  0.2158  0.1477 -0.2628
 8585SOL    HW234112   0.651   0.665   0.597 -2.4437  0.3528  1.2345
 8585SOL    HW334113   0.675   0.810   0.564  0.7130 -0.5581 -0.9619
 8585SOL    MW434114   0.677   0.744   0.621  0.4601  0.2349 -0.1645
 8586SOL     OW34115   6.237   5.280   2.827 -0.5618  0.0467 -0.3486
 8586SOL    HW234116   6.242   5.292   2.921 -0.5553 -0.3453 -0.2973
 8586SOL    HW334117   6.274   5.194   2.811 -0.0571  0.3333 -0.7688
 8586SOL    MW434118   6.242   5.270   2.837  0.1299 -0.3549  0.3255
 8587SOL     OW34119   6.366   4.439   0.589 -0.1871  0.8840  0.1841
 8587SOL    HW234120   6.322   4.512   0.631 -0.5987  0.4175  0.5853
 8587SOL    HW334121   6.381   4.467   0.499 -0.2376  1.4972  0.3672
 8587SOL    MW434122   6.363   4.452   0.582 -0.1218 -0.3039  0.1453
 8588SOL     OW34123   3.250   4.789   0.570 -0.2889  0.3977 -0.0923
 8588SOL    HW234124   3.343   4.788   0.595 -0.3178 -3.1803  0.3591
 8588SOL    HW334125   3.203   4.800   0.652 -0.2799  0.2459 -0.0666
 8588SOL    MW434126   3.256   4.790   0.584  0.4259 -0.1950 -0.0507
 8589SOL     OW34127   5.754   5.526   0.319 -0.0087  0.3842  0.0240
 8589SOL    HW234128   5.814   5.480   0.378 -0.1469 -1.8048 -1.4503
 8589SOL    HW334129   5.672   5.531   0.368 -0.2302 -1.7248 -0.0257
 8589SOL    MW434130   5.751   5.521   0.333 -0.0615 -0.8209 -0.2654
 8590SOL     OW34131   4.215   1.434   0.919 -0.2365  0.7382  0.4855
 8590SOL    HW234132   4.308   1.457   0.920 -0.3174  1.2082  2.6111
 8590SOL    HW334133   4.179   1.482   0.844  0.6872  3.0577  1.4360
 8590SOL    MW434134   4.223   1.443   0.909 -0.5050 -0.3556 -0.2231
 8591SOL     OW34135   4.074   3.767   3.968 -0.1152  0.0104  0.4061
 8591SOL    HW234136   4.012   3.699   3.997  0.2378 -0.0018  1.1655
 8591SOL    HW334137   4.144   3.764   4.033  0.0935  0.8515  0.2262
 8591SOL    MW434138   4.075   3.757   3.980  0.3636 -0.1993  0.1633
 8592SOL     OW34139   2.378   6.355   0.873 -0.1631  0.0245 -0.3111
 8592SOL    HW234140   2.308   6.335   0.936  2.5103 -0.1100  2.8948
 8592SOL    HW334141   2.409   6.442   0.898  2.0117 -0.6827 -0.3667
 8592SOL    MW434142   2.373   6.364   0.885  0.1810  0.1216  0.0045
 8593SOL     OW34143   3.722   4.433   2.932  0.4142  0.0695  0.2159
 8593SOL    HW234144   3.707   4.458   2.841  0.1961  0.3991  0.3396
 8593SOL    HW334145   3.740   4.516   2.977 -2.6794  0.4141  1.1153
 8593SOL    MW434146   3.722   4.447   2.926  0.1136 -0.4247  0.1918
 8594SOL     OW34147   3.158   4.925   1.229  0.0949 -0.0316  0.1290
 8594SOL    HW234148   3.068   4.931   1.198  0.2735  1.3605 -0.1840
 8594SOL    HW334149   3.168   4.834   1.257 -1.6784  0.0179  1.0269
 8594SOL    MW434150   3.148   4.914   1.228  0.0949  0.7091  0.2115
 8595SOL     OW34151   2.074   5.543   2.592 -0.6566 -0.3891 -1.1013
 8595SOL    HW234152   2.077   5.494   2.509  0.1013 -0.3689 -1.0929
 8595SOL    HW334153   2.020   5.490   2.650  0.4878 -1.4347 -0.9623
 8595SOL    MW434154   2.068   5.530   2.588  0.1153  0.6577 -0.3222
 8596SOL     OW34155   0.853   5.221   4.412 -0.6237 -0.3199  0.5427
 8596SOL    HW234156   0.913   5.232   4.485 -0.3594  1.0085  0.1479
 8596SOL    HW334157   0.888   5.146   4.363 -0.8250 -1.2414  1.7692
 8596SOL    MW434158   0.866   5.213   4.415 -0.2089 -0.3557  0.3160
 8597SOL     OW34159   6.332   6.085   1.002  0.1896  0.2855  0.0664
 8597SOL    HW234160   6.342   6.122   0.915 -0.4427 -1.6448 -0.8759
 8597SOL    HW334161   6.381   6.003   0.999 -2.4838 -1.4513  0.4102
 8597SOL    MW434162   6.340   6.079   0.990 -0.7489  0.3593 -0.0403
 8598SOL     OW34163   2.040   1.399   3.003 -0.3508  0.0331  0.2396
 8598SOL    HW234164   1.957   1.417   3.049 -1.9722 -2.3867 -1.4437
 8598SOL    HW334165   2.088   1.342   3.064 -0.4250  0.5279  0.7701
 8598SOL    MW434166   2.035   1.394   3.017  0.1777 -0.5517 -0.1764
 8599SOL     OW34167   3.299   6.222   1.671 -0.0586 -0.2038 -0.1999
 8599SOL    HW234168   3.220   6.273   1.652 -0.4266 -0.8061 -0.3189
 8599SOL    HW334169   3.267   6.145   1.718  0.4819 -0.3502 -0.0668
 8599SOL    MW434170   3.284   6.219   1.675  0.6882 -0.0685  0.1291
 8600SOL     OW34171   2.548   5.932   5.524  0.5367 -0.5892  0.0954
 8600SOL    HW234172   2.540   5.984   5.444  2.4829 -0.6401 -0.1794
 8600SOL    HW334173   2.494   5.855   5.508  0.9329 -0.6248 -1.2055
 8600SOL    MW434174   2.540   5.929   5.511 -0.8224  0.1475  0.2055
 8601SOL     OW34175   0.273   3.929   6.395 -0.5345  0.1194 -0.5061
 8601SOL    HW234176   0.263   3.835   6.403 -1.5320  0.1275 -1.4220
 8601SOL    HW334177   0.246   3.949   6.305  0.1145  1.2181 -0.4804
 8601SOL    MW434178   0.268   3.919   6.384  0.0647  0.3571  0.0408
 8602SOL     OW34179   3.362   2.671   5.607 -0.0404 -0.2362 -0.2533
 8602SOL    HW234180   3.374   2.766   5.611  1.0508 -0.3828  0.1140
 8602SOL    HW334181   3.438   2.639   5.558 -0.9722 -0.8274 -1.3869
 8602SOL    MW434182   3.373   2.679   5.601 -0.3996  0.0484 -0.1028
 8603SOL     OW34183   1.792   0.805   3.051 -0.1681 -0.9331 -0.7810
 8603SOL    HW234184   1.830   0.721   3.078  0.4026 -0.5030 -0.2346
 8603SOL    HW334185   1.698   0.792   3.059 -0.0608 -1.3214 -0.0966
 8603SOL    MW434186   1.785   0.792   3.055  0.9165 -0.4846 -0.0683
 8604SOL     OW34187   4.744   0.438   0.718  0.4036 -0.0587 -0.1028
 8604SOL    HW234188   4.698   0.445   0.801  1.2020 -1.4664  0.4967
 8604SOL    HW334189   4.715   0.514   0.668 -1.1391  0.0833  0.9329
 8604SOL    MW434190   4.734   0.449   0.722  0.0161  0.2438  0.7994
 8605SOL     OW34191   2.756   0.574   4.739  0.6300 -0.0001  0.4706
 8605SOL    HW234192   2.680   0.518   4.755  0.8841 -0.7979 -0.9085
 8605SOL    HW334193   2.725   0.662   4.759 -0.0348 -0.5098  1.8756
 8605SOL    MW434194   2.742   0.578   4.744 -0.2437 -0.0420 -0.2557
 8606SOL     OW34195   3.857   4.793   1.611 -0.0983 -0.4989 -0.5417
 8606SOL    HW234196   3.838   4.886   1.628  0.4366 -0.6620  1.2035
 8606SOL    HW334197   3.773   4.749   1.622 -0.6248 -0.1055 -2.6622
 8606SOL    MW434198   3.844   4.800   1.615 -1.1021 -0.6455 -0.3692
 8607SOL     OW34199   5.320   5.890   2.006  0.0190  0.2214 -0.0806
 8607SOL    HW234200   5.404   5.845   2.002 -0.2128 -0.1776 -0.4339
 8607SOL    HW334201   5.256   5.820   2.017 -0.2747  0.5210  0.1392
 8607SOL    MW434202   5.323   5.875   2.007  0.3814  0.0775  0.1662
 8608SOL     OW34203   2.275   0.734   0.110  0.0458  0.0758 -0.2677
 8608SOL    HW234204   2.183   0.736   0.136 -0.7636  0.5356 -2.8824
 8608SOL    HW334205   2.281   0.797   0.038  1.9205 -1.4194 -1.5208
 8608SOL    MW434206   2.263   0.743   0.104 -0.2457 -0.1153 -0.2652
 8609SOL     OW34207   0.289   5.348   2.576 -0.3218  0.0655 -0.0318
 8609SOL    HW234208   0.249   5.420   2.528 -0.6572 -0.6395 -0.8363
 8609SOL    HW334209   0.302   5.382   2.664 -0.3027  1.1644 -0.4536
 8609SOL    MW434210   0.285   5.362   2.581 -0.1922  0.0339 -0.1327
 8610SOL     OW34211   3.266   6.013   3.813  0.2423 -0.4255  0.3462
 8610SOL    HW234212   3.342   6.028   3.758  0.1621 -0.5445  0.1993
 8610SOL    HW334213   3.264   6.087   3.874  0.7729 -0.6920  0.6934
 8610SOL    MW434214   3.275   6.025   3.814  0.3598 -0.6075 -0.7957
 8611SOL     OW34215   0.130   1.232   0.945 -0.2065 -0.5478  0.0484
 8611SOL    HW234216   0.223   1.208   0.948 -0.5721 -2.4177 -1.9654
 8611SOL    HW334217   0.088   1.173   1.007 -0.1013  0.2381  0.8919
 8611SOL    MW434218   0.137   1.221   0.954  0.4779 -0.4256 -0.5628
 8612SOL     OW34219   0.397   4.352   1.281  0.1165  0.5242 -0.6093
 8612SOL    HW234220   0.420   4.445   1.288 -0.1990  0.6291 -0.9276
 8612SOL    HW334221   0.310   4.352   1.241 -0.0171  0.1012 -0.3283
 8612SOL    MW434222   0.388   4.364   1.277 -0.3010  0.2498  0.0495
 8613SOL     OW34223   0.254   3.772   4.706  0.4555  0.1977 -0.2503
 8613SOL    HW234224   0.214   3.725   4.780 -0.4664  1.6320  0.2000
 8613SOL    HW334225   0.223   3.862   4.715  1.9438  0.8506 -1.2586
 8613SOL    MW434226   0.245   3.777   4.717 -0.0802  0.2474  0.1314
 8614SOL     OW34227   6.163   3.001   3.250  0.5862  0.4359  0.3835
 8614SOL    HW234228   6.162   3.046   3.165  4.0949  1.3348  0.6667
 8614SOL    HW334229   6.088   3.038   3.297 -0.1719  1.5179 -1.5333
 8614SOL    MW434230   6.153   3.012   3.245 -0.2388  0.0551 -0.2030
 8615SOL     OW34231   0.755   3.781   0.047  0.2471  0.2738  0.5436
 8615SOL    HW234232   0.698   3.856   0.030  0.1445  0.2876  0.9226
 8615SOL    HW334233   0.763   3.779   0.143 -1.6143 -1.5461  0.7382
 8615SOL    MW434234   0.748   3.790   0.057 -0.5631  0.1237 -0.5657
 8616SOL     OW34235   5.439   4.860   2.857  0.0491 -0.0015  0.5376
 8616SOL    HW234236   5.498   4.936   2.865  1.1369 -0.9503  2.0389
 8616SOL    HW334237   5.351   4.898   2.858  0.5338  1.5624 -2.8220
 8616SOL    MW434238   5.435   4.875   2.858 -0.3613  0.2684  0.3412
 8617SOL     OW34239   1.711   5.975   0.394 -0.0970  0.2287 -0.8116
 8617SOL    HW234240   1.699   5.941   0.305  1.2886  2.3199 -1.8725
 8617SOL    HW334241   1.745   5.901   0.443 -1.2361 -1.0780 -1.9039
 8617SOL    MW434242   1.714   5.961   0.389  0.2537 -0.3494  0.3267
 8618SOL     OW34243   0.235   0.590   3.559  0.2795 -0.0186  0.3596
 8618SOL    HW234244   0.175   0.528   3.600 -0.8619  2.6806  3.1158
 8618SOL    HW334245   0.312   0.589   3.616  0.9499 -0.0660 -0.5288
 8618SOL    MW434246   0.237   0.582   3.572 -0.0596  0.3596  0.4393
 8619SOL     OW34247   3.498   4.136   3.867 -0.5790 -0.2173 -0.3205
 8619SOL    HW234248   3.524   4.203   3.804  0.5318 -0.2084  0.1301
 8619SOL    HW334249   3.410   4.110   3.839 -0.8745  1.1365 -0.7368
 8619SOL    MW434250   3.490   4.141   3.855 -0.2376 -0.0422  0.2400
 8620SOL     OW34251   3.115   5.878   1.382  0.7870 -0.1983  0.6629
 8620SOL    HW234252   3.135   5.968   1.409  0.2222 -0.0948  0.7520
 8620SOL    HW334253   3.030   5.885   1.338  0.3454 -0.8175  1.3894
 8620SOL    MW434254   3.106   5.891   1.379 -0.0335  0.3485  0.4702
 8621SOL     OW34255   2.123   4.666   2.204  0.5682 -0.2851 -0.0140
 8621SOL    HW234256   2.143   4.612   2.281 -0.9794  0.0376  0.6462
 8621SOL    HW334257   2.039   4.708   2.224 -0.2843 -0.7774 -2.1771
 8621SOL    MW434258   2.115   4.664   2.217  0.2913 -0.1428 -0.1287
 8622SOL     OW34259   1.841   5.017   5.742 -0.4777 -0.1018 -0.2367
 8622SOL    HW234260   1.749   5.007   5.718 -0.5124 -1.4064  0.3515
 8622SOL    HW334261   1.850   4.969   5.824  0.7571 -0.1191 -0.3655
 8622SOL    MW434262   1.830   5.009   5.749  0.9755 -0.8326  0.0051
 8623SOL     OW34263   0.198   2.785   6.038  0.3089  0.4781 -0.0462
 8623SOL    HW234264   0.267   2.849   6.020  0.0213  0.8841  0.2780
 8623SOL    HW334265   0.242   2.700   6.034  0.3774  0.5435 -2.2262
 8623SOL    MW434266   0.213   2.782   6.035  0.1194  0.3621  0.4610
 8624SOL     OW34267   1.859   6.027   5.926 -0.3962  0.2100  0.3805
 8624SOL    HW234268   1.855   6.008   6.019 -1.0654  0.6325  0.4451
 8624SOL    HW334269   1.767   6.040   5.900 -0.3835 -1.4858 -0.6735
 8624SOL    MW434270   1.846   6.026   5.935  0.3023 -0.3453 -0.0949
 8625SOL     OW34271   1.439   0.539   2.732 -0.3834  0.2484 -0.3357
 8625SOL    HW234272   1.524   0.512   2.768 -0.6037 -0.3941 -0.2788
 8625SOL    HW334273   1.375   0.494   2.788 -0.7720  1.1369 -0.0591
 8625SOL    MW434274   1.442   0.529   2.744 -0.3064  0.4474  0.0489
 8626SOL     OW34275   4.822   6.392   0.338 -0.0681  0.2526  0.0523
 8626SOL    HW234276   4.821   6.303   0.304 -0.2701  0.4664 -0.5134
 8626SOL    HW334277   4.811   6.382   0.432  0.9333 -0.3758  0.1178
 8626SOL    MW434278   4.820   6.379   0.346 -0.0977 -0.0612  0.3342
 8627SOL     OW34279   2.865   3.751   1.447 -0.5639  0.2575 -0.3465
 8627SOL    HW234280   2.839   3.793   1.366 -2.4194  0.6956  0.4175
 8627SOL    HW334281   2.800   3.682   1.460  0.6280 -0.8492 -0.0053
 8627SOL    MW434282   2.853   3.747   1.438 -0.0192  0.0015  0.4085
 8628SOL     OW34283   4.610   4.533   5.768 -0.8344  0.2193  0.0300
 8628SOL    HW234284   4.578   4.445   5.785 -0.0195  0.0946  0.9972
 8628SOL    HW334285   4.551   4.590   5.819 -1.2201  0.2213 -0.4141
 8628SOL    MW434286   4.598   4.529   5.777 -0.1666 -0.2330  0.0081
 8629SOL     OW34287   0.322   4.775   2.803 -0.3777 -0.1166 -0.5077
 8629SOL    HW234288   0.275   4.692   2.801  1.5161 -1.2700 -0.0357
 8629SOL    HW334289   0.291   4.818   2.882 -0.3697 -1.0275  0.0102
 8629SOL    MW434290   0.312   4.770   2.813 -0.2219 -0.1760  0.2987
 8630SOL     OW34291   0.250   3.018   3.273 -0.3968  0.2184  0.4577
 8630SOL    HW234292   0.263   3.092   3.333  2.3252  0.5611 -0.4282
 8630SOL    HW334293   0.333   2.971   3.275 -0.6757 -0.4959 -2.0544
 8630SOL    MW434294   0.263   3.022   3.281  0.4524 -0.3955 -0.1472
 8631SOL     OW34295   0.142   1.790   3.259 -0.0555 -0.1436  0.2515
 8631SOL    HW234296   0.120   1.879   3.231  0.3526 -0.0584  0.1919
 8631SOL    HW334297   0.082   1.734   3.211 -0.7896  0.1467  0.8216
 8631SOL    MW434298   0.131   1.794   3.249 -0.4091 -0.1724 -0.0940
 8632SOL     OW34299   5.941   0.481   1.272 -0.2468 -0.0573  0.0675
 8632SOL    HW234300   5.905   0.438   1.195  0.0833  0.5603 -0.4389
 8632SOL    HW334301   5.869   0.533   1.307 -0.2581  0.0415 -0.1045
 8632SOL    MW434302   5.927   0.482   1.267 -0.0875  0.1145  0.0219
 8633SOL     OW34303   0.206   4.717   6.428 -0.1891 -0.5303  0.5429
 8633SOL    HW234304   0.198   4.809   6.455 -0.6485 -0.2261 -0.5585
 8633SOL    HW334305   0.220   4.722   6.333  0.6030 -1.5785  0.5887
 8633SOL    MW434306   0.207   4.730   6.419 -0.2462 -0.3951 -0.5329
 8634SOL     OW34307   0.364   0.987   6.081  0.2417  0.1409 -0.3094
 8634SOL    HW234308   0.380   1.021   5.992 -2.0028  0.1592 -0.7883
 8634SOL    HW334309   0.411   0.904   6.084  0.8590  0.4319 -1.2966
 8634SOL    MW434310   0.372   0.981   6.069  0.0380  0.1226 -0.1105
 8635SOL     OW34311   2.948   4.290   5.435  0.1162 -0.2161  0.2874
 8635SOL    HW234312   2.953   4.234   5.357  1.0553 -1.7578  1.4235
 8635SOL    HW334313   2.859   4.278   5.467 -0.7473  1.4829 -1.2380
 8635SOL    MW434314   2.937   4.281   5.429 -0.8070 -0.0041 -0.5138
 8636SOL     OW34315   4.108   1.624   5.273  0.0395  0.1240 -0.0673
 8636SOL    HW234316   4.032   1.575   5.305 -0.7015  0.5141 -1.1558
 8636SOL    HW334317   4.166   1.558   5.236 -0.9754  0.0185 -1.5774
 8636SOL    MW434318   4.105   1.609   5.273 -0.1632 -0.3429 -0.5096
 8637SOL     OW34319   1.192   4.271   0.631  0.3377 -0.3160 -0.1112
 8637SOL    HW234320   1.251   4.305   0.563  0.3741 -1.7046 -0.7941
 8637SOL    HW334321   1.244   4.274   0.711  0.1987  1.6210 -0.0392
 8637SOL    MW434322   1.206   4.276   0.632 -0.2101 -0.0067 -0.1171
 8638SOL     OW34323   4.436   5.084   1.577 -0.9231 -0.4443 -0.2103
 8638SOL    HW234324   4.387   5.166   1.585  0.3271  0.2995  0.0702
 8638SOL    HW334325   4.477   5.072   1.662  1.5035  0.3657 -1.1829
 8638SOL    MW434326   4.435   5.093   1.589 -0.6641  0.4255 -0.4820
 8639SOL     OW34327   2.744   5.927   4.991  0.7231 -0.5774 -0.4875
 8639SOL    HW234328   2.761   5.874   5.069  1.1587  1.1832  0.6684
 8639SOL    HW334329   2.782   6.013   5.011 -1.1886  0.6329 -1.7106
 8639SOL    MW434330   2.751   5.932   5.004 -0.5279  0.2106  0.1935
 8640SOL     OW34331   4.114   1.853   1.261 -0.2388  0.0068  0.2451
 8640SOL    HW234332   4.093   1.834   1.169 -0.7643 -0.6928  0.5083
 8640SOL    HW334333   4.162   1.776   1.291 -1.2023 -0.3360  0.9297
 8640SOL    MW434334   4.117   1.841   1.253 -0.1450  0.7267 -0.8180
 8641SOL     OW34335   4.246   1.410   4.725 -0.2016 -0.0318 -0.4748
 8641SOL    HW234336   4.164   1.390   4.680 -0.8344  0.9846  0.1757
 8641SOL    HW334337   4.286   1.479   4.672  0.5092 -0.8952 -1.0833
 8641SOL    MW434338   4.240   1.417   4.712  0.4267 -0.1438 -0.1788
 8642SOL     OW34339   2.882   1.270   1.046 -0.1242 -0.2252  0.1510
 8642SOL    HW234340   2.891   1.330   1.120  0.4508  0.1165 -0.1844
 8642SOL    HW334341   2.960   1.287   0.992 -0.5272 -0.4773 -0.5205
 8642SOL    MW434342   2.894   1.281   1.049  0.1513  0.0401  0.1590
 8643SOL     OW34343   0.673   5.567   0.937 -0.4281  0.4437  0.3658
 8643SOL    HW234344   0.675   5.473   0.955 -0.1890  0.5196  0.7535
 8643SOL    HW334345   0.765   5.593   0.932 -0.4934  0.6240  0.0831
 8643SOL    MW434346   0.685   5.558   0.939  0.3427 -0.0658 -0.1012
 8644SOL     OW34347   4.210   4.703   3.208 -0.0160 -0.8000 -0.3045
 8644SOL    HW234348   4.285   4.751   3.242 -0.8864 -0.1832  0.8342
 8644SOL    HW334349   4.245   4.618   3.183  1.2686 -0.1286 -0.8953
 8644SOL    MW434350   4.224   4.698   3.209  0.0038 -0.0098 -0.3058
 8645SOL     OW34351   2.465   1.938   4.114  0.0163 -0.1896  0.3101
 8645SOL    HW234352   2.527   1.866   4.125 -0.8702 -0.9989  0.1657
 8645SOL    HW334353   2.406   1.930   4.189 -0.1696  0.3008  0.2192
 8645SOL    MW434354   2.465   1.927   4.125 -0.0128 -0.3413  0.1633
 8646SOL     OW34355   2.865   5.174   0.117  0.0958 -0.3666  0.3046
 8646SOL    HW234356   2.907   5.088   0.121  1.2313  0.0992 -0.6477
 8646SOL    HW334357   2.935   5.233   0.086 -1.1113  0.5643 -0.7494
 8646SOL    MW434358   2.880   5.171   0.113  0.7710 -0.5121 -0.7977
 8647SOL     OW34359   1.451   0.770   4.981  0.0860  0.2174  0.0085
 8647SOL    HW234360   1.480   0.837   5.043  2.4943 -0.3384 -0.4354
 8647SOL    HW334361   1.430   0.694   5.036  0.5748  0.2751  0.2844
 8647SOL    MW434362   1.452   0.769   4.997  0.2781 -0.4327  0.3483
 8648SOL     OW34363   2.195   5.548   5.701 -0.0143 -0.0123  0.1859
 8648SOL    HW234364   2.192   5.453   5.688 -1.4977  0.2644 -1.8448
 8648SOL    HW334365   2.183   5.559   5.795  2.6787 -1.8866  0.8775
 8648SOL    MW434366   2.193   5.537   5.712 -0.1681 -0.2830  0.0053
 8649SOL     OW34367   0.524   2.734   0.028 -0.7098 -0.5147 -0.4144
 8649SOL    HW234368   0.505   2.800   0.095 -0.0814 -0.9618  0.2159
 8649SOL    HW334369   0.439   2.716  -0.012 -0.7616  1.3290 -1.2319
 8649SOL    MW434370   0.510   2.741   0.032 -0.0926  0.1546  0.4593
 8650SOL     OW34371   0.422   1.866   3.897 -0.0611  0.0974  0.1489
 8650SOL    HW234372   0.327   1.867   3.914 -0.1212 -2.8125  0.6191
 8650SOL    HW334373   0.459   1.824   3.975  1.1781 -1.8508 -1.4044
 8650SOL    MW434374   0.414   1.860   3.910  0.5468  0.2529 -0.3256
 8651SOL     OW34375   3.111   2.220   4.882  0.4191 -0.4802 -0.4225
 8651SOL    HW234376   3.019   2.203   4.902  0.3857  0.2615  0.1027
 8651SOL    HW334377   3.145   2.136   4.850 -0.5684 -0.6231 -1.1497
 8651SOL    MW434378   3.104   2.207   4.880  0.1016  0.5079 -0.0679
 8652SOL     OW34379   3.429   4.358   2.656 -0.0502 -0.5785 -1.0544
 8652SOL    HW234380   3.415   4.378   2.563 -0.3100  2.0032 -0.5411
 8652SOL    HW334381   3.400   4.437   2.702  1.5361 -1.1656  1.1207
 8652SOL    MW434382   3.423   4.371   2.650 -0.5199 -0.2692  0.1724
 8653SOL     OW34383   6.309   6.406   0.373 -0.0690 -0.1487 -0.5324
 8653SOL    HW234384   6.215   6.397   0.356 -0.5274  2.5727  0.1497
 8653SOL    HW334385   6.344   6.446   0.293  0.0228  1.1368  0.1260
 8653SOL    MW434386   6.301   6.410   0.360 -0.0602 -0.2223  0.3959
 8654SOL     OW34387   4.268   4.824   6.370  0.0605  0.1181 -0.3724
 8654SOL    HW234388   4.245   4.902   6.319  1.1180 -0.3581 -1.6174
 8654SOL    HW334389   4.278   4.755   6.305 -1.5936 -1.2915  0.7721
 8654SOL    MW434390   4.266   4.826   6.355 -0.5905 -0.1144  0.0007
 8655SOL     OW34391   2.921   2.921   1.586 -0.4787  0.2772 -0.1568
 8655SOL    HW234392   2.964   2.933   1.671 -0.2125  0.5459 -0.3303
 8655SOL    HW334393   2.992   2.911   1.524 -0.6789 -1.1491 -0.1784
 8655SOL    MW434394   2.936   2.921   1.589  0.6750  0.6633  0.5956
 8656SOL     OW34395   2.057   4.930   0.501 -0.0263  0.2070  0.5123
 8656SOL    HW234396   2.140   4.963   0.467  0.1475 -1.2833 -0.5881
 8656SOL    HW334397   2.082   4.859   0.560 -0.5297 -1.9831 -1.7680
 8656SOL    MW434398   2.072   4.925   0.505 -0.5008 -0.1039 -0.1772
 8657SOL     OW34399   0.822   6.391   2.938 -0.4452  0.2710 -0.3576
 8657SOL    HW234400   0.830   6.309   2.988  2.9066  0.6406 -0.0608
 8657SOL    HW334401   0.868   6.374   2.856 -1.2127  1.3563 -1.0434
 8657SOL    MW434402   0.829   6.378   2.934 -0.3049  0.2840  0.2663
 8658SOL     OW34403   0.234   2.066   3.384 -0.3035 -0.3471  0.1300
 8658SOL    HW234404   0.223   2.012   3.462  0.9430 -2.1924 -0.8794
 8658SOL    HW334405   0.146   2.099   3.365 -0.8646 -0.9484  1.5525
 8658SOL    MW434406   0.221   2.063   3.392  0.0406 -0.3788 -0.4094
 8659SOL     OW34407   3.467   2.507   3.151  0.0963 -0.8844 -0.0050
 8659SOL    HW234408   3.419   2.586   3.125  1.3320 -0.7603 -2.1717
 8659SOL    HW334409   3.407   2.461   3.210 -1.1187  1.0837  0.3908
 8659SOL    MW434410   3.452   2.512   3.155 -0.0731  0.5540  0.0023
 8660SOL     OW34411   3.015   6.184   0.894  0.3634 -0.3913  0.6251
 8660SOL    HW234412   3.028   6.190   0.988  0.9601 -1.7359  0.6539
 8660SOL    HW334413   3.013   6.090   0.876  0.4396 -0.1552 -0.7187
 8660SOL    MW434414   3.017   6.173   0.904  0.2892  0.0271  0.2021
 8661SOL     OW34415   3.925   0.219   1.192 -0.3357  1.2936  0.1927
 8661SOL    HW234416   3.846   0.166   1.202  0.8283 -0.1630  2.5696
 8661SOL    HW334417   3.935   0.264   1.276  1.9701  0.4716  0.4408
 8661SOL    MW434418   3.916   0.218   1.205 -0.0169 -0.0625 -0.1251
 8662SOL     OW34419   2.745   6.359   2.632  0.2744 -0.0189 -0.1807
 8662SOL    HW234420   2.751   6.437   2.687  0.2262  0.6007 -1.0309
 8662SOL    HW334421   2.728   6.393   2.544 -1.3967 -1.0492 -0.3139
 8662SOL    MW434422   2.743   6.374   2.628  0.7589 -0.1039 -0.1321
 8663SOL     OW34423   5.205   4.496   1.446 -0.7598  0.2180  0.2863
 8663SOL    HW234424   5.194   4.586   1.475 -2.6069 -0.2256  1.0552
 8663SOL    HW334425   5.162   4.443   1.513  2.0368 -1.4336  0.9547
 8663SOL    MW434426   5.198   4.501   1.458 -0.4551 -0.1030  0.2180
 8664SOL     OW34427   5.097   4.327   1.622 -0.0380 -0.0536 -0.2954
 8664SOL    HW234428   5.053   4.309   1.706 -0.3251 -0.2357 -0.4837
 8664SOL    HW334429   5.077   4.251   1.568  1.8687 -0.9391  0.1505
 8664SOL    MW434430   5.089   4.315   1.626 -0.3360 -0.0330 -0.0392
 8665SOL     OW34431   4.010   3.910   0.450 -0.4862  0.1313 -0.1922
 8665SOL    HW234432   3.925   3.894   0.491  0.0580  0.8378  1.2786
 8665SOL    HW334433   4.070   3.850   0.495 -0.3053 -0.9091 -1.7377
 8665SOL    MW434434   4.007   3.900   0.462  0.1171 -0.3871  0.3598
 8666SOL     OW34435   2.175   0.131   3.146  0.2106 -0.1346  0.6815
 8666SOL    HW234436   2.139   0.043   3.160 -1.2998  0.3972  0.2815
 8666SOL    HW334437   2.105   0.190   3.174 -0.0829  0.9434 -2.0141
 8666SOL    MW434438   2.161   0.127   3.151 -0.1468 -0.0124  0.6881
 8667SOL     OW34439   4.211   4.797   5.013  0.3644  0.4986  0.4118
 8667SOL    HW234440   4.211   4.891   5.032 -1.3589  0.2580  1.8112
 8667SOL    HW334441   4.274   4.760   5.074  1.5187  0.7853 -0.5689
 8667SOL    MW434442   4.219   4.804   5.023 -0.5993  0.3288 -0.0230
 8668SOL     OW34443   0.640   0.887   1.617 -0.1372 -0.3253 -0.0306
 8668SOL    HW234444   0.686   0.908   1.698  0.5919 -0.4254 -0.4118
 8668SOL    HW334445   0.591   0.808   1.638  0.3604 -0.5777  0.2048
 8668SOL    MW434446   0.640   0.879   1.630  0.6873 -0.4226 -0.0857
 8669SOL     OW34447   5.171   2.121   4.135 -0.3856 -0.1524 -0.3911
 8669SOL    HW234448   5.200   2.032   4.154  0.5930 -0.0292 -1.2196
 8669SOL    HW334449   5.083   2.110   4.099 -0.9632 -0.6290  1.0825
 8669SOL    MW434450   5.164   2.108   4.133  0.1075  0.1925 -0.5319
 8670SOL     OW34451   1.500   4.007   1.767 -0.2592 -1.2569  0.2173
 8670SOL    HW234452   1.504   4.045   1.855  0.7412  1.3370 -0.8444
 8670SOL    HW334453   1.410   4.022   1.739 -0.1885 -0.7216  0.2643
 8670SOL    MW434454   1.488   4.014   1.775  0.1309 -0.5486 -0.4371
 8671SOL     OW34455   2.085   3.384   0.571  0.5368  0.1390 -0.0064
 8671SOL    HW234456   2.096   3.402   0.478 -1.0889 -0.2461 -0.3018
 8671SOL    HW334457   2.088   3.289   0.578  3.0375  0.2162  0.7017
 8671SOL    MW434458   2.087   3.374   0.560  0.8325  0.0547  0.3080
 8672SOL     OW34459   0.540   2.560   5.232  0.0706 -0.0666 -0.1840
 8672SOL    HW234460   0.627   2.600   5.230  0.5905 -1.1358  0.0381
 8672SOL    HW334461   0.547   2.492   5.299 -1.1693  0.3209  0.3675
 8672SOL    MW434462   0.553   2.556   5.241 -0.2804 -0.1127 -0.0515
 8673SOL     OW34463   4.135   0.471   4.279  0.3303 -0.3139  0.2308
 8673SOL    HW234464   4.079   0.403   4.242 -0.1162 -0.2128  0.7049
 8673SOL    HW334465   4.077   0.547   4.288  0.7688  0.0601 -0.0882
 8673SOL    MW434466   4.120   0.472   4.275  0.4394 -0.3263 -0.5648
 8674SOL     OW34467   6.031   1.184   6.066  0.6556  0.4825  0.4906
 8674SOL    HW234468   6.018   1.090   6.063  0.2255  0.4964  1.3343
 8674SOL    HW334469   6.126   1.197   6.062  0.7674 -0.0414  1.2330
 8674SOL    MW434470   6.042   1.174   6.065 -0.3197  0.5926  0.0696
 8675SOL     OW34471   5.964   6.086   5.612  0.0333  0.1052 -0.0923
 8675SOL    HW234472   5.955   6.087   5.707 -0.1765  0.3668 -0.1142
 8675SOL    HW334473   6.058   6.074   5.597 -0.2101 -2.5300  0.1411
 8675SOL    MW434474   5.976   6.085   5.623 -0.4414  0.2280 -0.2278
 8676SOL     OW34475   6.374   0.904   4.647 -0.0001  0.6674 -0.3758
 8676SOL    HW234476   6.302   0.913   4.585  1.0585  1.7960 -1.5024
 8676SOL    HW334477   6.360   0.974   4.711  0.2253  1.0449 -0.7378
 8676SOL    MW434478   6.363   0.914   4.647  0.5704 -0.4375 -0.3800
 8677SOL     OW34479   0.905   6.117   1.535  0.2351  0.5061  0.2799
 8677SOL    HW234480   0.897   6.147   1.626  0.0243 -0.4038  0.5788
 8677SOL    HW334481   0.879   6.024   1.539 -2.1723  1.0500 -1.1337
 8677SOL    MW434482   0.901   6.108   1.548  0.3496 -0.1772 -0.4851
 8678SOL     OW34483   0.737   5.960   2.909 -0.1514  0.4253  0.0318
 8678SOL    HW234484   0.784   5.878   2.924  0.2865  0.1466 -2.4101
 8678SOL    HW334485   0.646   5.933   2.894 -0.1331  0.4570 -0.1340
 8678SOL    MW434486   0.731   5.946   2.909  0.0604 -0.4780 -0.2975
 8679SOL     OW34487   5.849   1.425   0.272  0.3586  0.4062 -0.0480
 8679SOL    HW234488   5.849   1.521   0.278 -0.0440  0.3480  1.1305
 8679SOL    HW334489   5.775   1.398   0.327 -0.6874 -0.5107 -1.8028
 8679SOL    MW434490   5.839   1.434   0.280 -0.0760 -0.0032 -0.3853
 8680SOL     OW34491   5.606   2.971   3.735  0.5489 -0.4349  0.6048
 8680SOL    HW234492   5.623   2.958   3.829  1.5974 -2.5616  0.1898
 8680SOL    HW334493   5.522   2.927   3.720  0.5299 -0.3558  0.4777
 8680SOL    MW434494   5.597   2.963   3.746 -0.1262 -0.7385 -0.0202
 8681SOL     OW34495   1.940   5.012   2.841 -0.4215 -0.1996 -0.3372
 8681SOL    HW234496   1.985   4.971   2.767 -1.1736  1.3605 -1.7153
 8681SOL    HW334497   2.006   5.067   2.883 -0.3682  0.0650 -0.7667
 8681SOL    MW434498   1.955   5.014   2.837  0.3659 -0.5297  0.4870
 8682SOL     OW34499   2.818   1.121   4.372  0.5805  0.3607  0.4361
 8682SOL    HW234500   2.737   1.080   4.404  0.7270  0.3583  0.8111
 8682SOL    HW334501   2.878   1.048   4.357 -0.0216  0.1980 -1.4703
 8682SOL    MW434502   2.815   1.106   4.374  0.5902  0.4060  0.0770
 8683SOL     OW34503   4.183   1.635   4.144 -0.5446  0.4064  0.4620
 8683SOL    HW234504   4.247   1.614   4.212 -1.2578  0.6429  1.2294
 8683SOL    HW334505   4.170   1.553   4.097  0.2631  0.3431  0.3431
 8683SOL    MW434506   4.189   1.621   4.147  0.2062 -0.3424 -0.1646
 8684SOL     OW34507   0.794   4.781   1.386  0.0403 -0.0622  0.2562
 8684SOL    HW234508   0.838   4.866   1.387  0.1199 -0.0693 -1.0498
 8684SOL    HW334509   0.752   4.777   1.300  2.0394 -2.3567 -0.7321
 8684SOL    MW434510   0.794   4.792   1.375 -0.0785 -0.1781 -0.2852
 8685SOL     OW34511   0.783   1.652   2.500 -0.0452  0.5025 -0.6017
 8685SOL    HW234512   0.780   1.731   2.445 -0.9853  1.0234  0.1599
 8685SOL    HW334513   0.700   1.654   2.548 -0.4054 -1.3357 -1.0695
 8685SOL    MW434514   0.772   1.663   2.499  0.1938 -0.7895 -0.0305
 8686SOL     OW34515   4.920   1.281   2.948  0.3672  0.1707 -0.8308
 8686SOL    HW234516   4.901   1.312   2.860  1.4163  1.4839 -0.6406
 8686SOL    HW334517   4.986   1.342   2.981 -0.1523 -0.1582  0.9443
 8686SOL    MW434518   4.926   1.293   2.941  0.4403 -0.2423  0.7545
 8687SOL     OW34519   3.931   0.194   6.215 -0.6581  0.7141  0.1067
 8687SOL    HW234520   3.938   0.211   6.309 -0.4728  0.7316  0.0905
 8687SOL    HW334521   3.915   0.100   6.209 -1.8740  0.8992  0.2063
 8687SOL    MW434522   3.930   0.184   6.227  0.2138 -0.2238 -0.0064
 8688SOL     OW34523   6.348   4.444   2.042 -0.2708 -0.4680  0.7398
 8688SOL    HW234524   6.283   4.374   2.043  1.0167 -1.7216  0.0970
 8688SOL    HW334525   6.359   4.467   2.135 -2.5834  0.7630  0.7886
 8688SOL    MW434526   6.341   4.438   2.055 -0.8054  0.2806  0.5719
 8689SOL     OW34527   0.152   4.406   1.673  0.2215 -0.5657 -0.4863
 8689SOL    HW234528   0.216   4.351   1.627 -0.0663 -0.8883 -0.5059
 8689SOL    HW334529   0.148   4.369   1.761  0.7502  0.0326 -0.2039
 8689SOL    MW434530   0.160   4.394   1.679  0.0352  0.3101 -0.3737
 8690SOL     OW34531   5.619   4.005   4.030  0.0544 -0.3144 -0.7752
 8690SOL    HW234532   5.533   3.990   4.070  0.0749 -2.3349 -1.3421
 8690SOL    HW334533   5.677   4.023   4.104 -0.0354 -3.3246  0.1804
 8690SOL    MW434534   5.615   4.005   4.045  0.6526  0.0292 -0.1734
 8691SOL     OW34535   4.685   5.613   4.791 -0.0631  0.1923  0.1051
 8691SOL    HW234536   4.734   5.558   4.853 -0.6129  0.8327  1.1391
 8691SOL    HW334537   4.688   5.700   4.830  1.3332  1.0572 -1.8310
 8691SOL    MW434538   4.692   5.617   4.805  0.3994  0.5800 -0.1469
 8692SOL     OW34539   3.218   1.365   5.598 -0.4102  0.3151 -0.3831
 8692SOL    HW234540   3.127   1.336   5.603 -0.5779  0.7041 -1.0709
 8692SOL    HW334541   3.260   1.325   5.674 -0.9655 -0.5382 -0.5043
 8692SOL    MW434542   3.211   1.356   5.609 -0.3624 -0.0642 -0.2265
 8693SOL     OW34543   4.367   2.346   0.745 -0.0707 -0.2536 -0.0218
 8693SOL    HW234544   4.418   2.332   0.665 -0.3495 -0.0886 -0.2307
 8693SOL    HW334545   4.331   2.260   0.766  0.3750 -0.3914  0.1845
 8693SOL    MW434546   4.369   2.333   0.737 -0.1049  0.1706  0.1772
 8694SOL     OW34547   4.535   3.228   6.042  0.6941 -0.0074 -0.2392
 8694SOL    HW234548   4.459   3.213   5.986  1.0639  2.2033 -1.4180
 8694SOL    HW334549   4.525   3.163   6.112 -0.9795 -1.3692 -1.6225
 8694SOL    MW434550   4.523   3.217   6.044  0.5201  0.1597 -0.1768
 8695SOL     OW34551   2.694   4.114   2.769  0.1529  0.3847 -0.0358
 8695SOL    HW234552   2.783   4.128   2.737  0.0350  1.1335 -0.0514
 8695SOL    HW334553   2.702   4.116   2.864  0.7348 -3.2202  0.1521
 8695SOL    MW434554   2.707   4.116   2.777 -0.0973  0.5052  0.6664
 8696SOL     OW34555   4.517   4.744   4.047  0.1559 -0.0461  0.1851
 8696SOL    HW234556   4.562   4.813   4.096  0.1817  1.3362 -1.6790
 8696SOL    HW334557   4.586   4.682   4.024  1.4689  2.4427 -3.3239
 8696SOL    MW434558   4.532   4.745   4.051  0.4699  0.3943  0.1336
 8697SOL     OW34559   2.381   2.336   1.463 -0.4031  0.1929  0.4332
 8697SOL    HW234560   2.302   2.306   1.508 -0.9713  1.0446  0.0164
 8697SOL    HW334561   2.368   2.310   1.371 -0.5313  0.9821  0.2243
 8697SOL    MW434562   2.369   2.329   1.457  0.2439 -0.6075 -0.2884
 8698SOL     OW34563   3.965   0.996   0.963 -0.0127 -0.0785  0.1347
 8698SOL    HW234564   3.988   1.029   0.876 -0.0496 -0.7509 -0.1383
 8698SOL    HW334565   3.876   0.963   0.953 -0.9662  2.0238  1.0521
 8698SOL    MW434566   3.956   0.996   0.950 -0.1261 -0.1200  0.4120
 8699SOL     OW34567   4.981   4.737   5.652 -0.1533 -0.6049  0.4960
 8699SOL    HW234568   5.040   4.812   5.657  1.2088 -1.4798 -1.2602
 8699SOL    HW334569   5.025   4.668   5.702 -0.4421 -0.8050  0.4801
 8699SOL    MW434570   4.994   4.738   5.659 -0.4345 -0.4962  0.0002
 8700SOL     OW34571   0.362   0.103   5.804 -0.1636  0.3431  0.6977
 8700SOL    HW234572   0.381   0.091   5.711 -1.4803 -0.0670  0.4614
 8700SOL    HW334573   0.448   0.104   5.846  0.4210 -0.1360 -0.4468
 8700SOL    MW434574   0.376   0.101   5.797 -0.5099 -0.2706  0.3412
 8701SOL     OW34575   2.188   6.317   0.328  0.3569  0.1121 -0.3793
 8701SOL    HW234576   2.274   6.298   0.366 -0.3741  0.7339  1.7596
 8701SOL    HW334577   2.153   6.388   0.382 -1.6380 -0.3419 -0.9696
 8701SOL    MW434578   2.195   6.324   0.340  0.2131 -0.1357 -0.3406
 8702SOL     OW34579   0.338   2.451   1.101  0.8672  0.1803  0.4371
 8702SOL    HW234580   0.426   2.449   1.062 -0.0868 -1.7964 -1.9239
 8702SOL    HW334581   0.282   2.484   1.031 -0.2610  1.9436  2.0849
 8702SOL    MW434582   0.342   2.455   1.086  0.3964 -0.0468  0.4108
 8703SOL     OW34583   5.795   0.817   4.565 -0.1852  0.5000  0.2368
 8703SOL    HW234584   5.799   0.764   4.645  1.8993  0.3274  0.0578
 8703SOL    HW334585   5.742   0.766   4.505  0.5574 -0.6991  0.5689
 8703SOL    MW434586   5.788   0.803   4.568  0.0534 -0.3178 -0.5680
 8704SOL     OW34587   3.942   2.066   6.012  0.3402  0.3706 -0.1449
 8704SOL    HW234588   4.026   2.105   5.987  1.2816 -1.3357  0.2262
 8704SOL    HW334589   3.955   2.039   6.103 -0.0682 -1.3277 -0.5750
 8704SOL    MW434590   3.955   2.068   6.021  0.2712 -0.1164  0.0095
 8705SOL     OW34591   5.138   0.571   5.629  0.0739 -0.3988 -0.1622
 8705SOL    HW234592   5.119   0.590   5.721  0.1648 -1.7877  0.1683
 8705SOL    HW334593   5.232   0.551   5.628  0.0093 -0.6908 -0.4996
 8705SOL    MW434594   5.148   0.571   5.641  0.2962  0.1471 -0.5293
 8706SOL     OW34595   6.342   1.772   4.808 -0.1138 -0.0142 -0.7182
 8706SOL    HW234596   6.406   1.760   4.738  0.7022  0.6553 -0.1047
 8706SOL    HW334597   6.265   1.723   4.779  0.6111 -0.6852 -1.5511
 8706SOL    MW434598   6.340   1.764   4.795 -0.1376 -0.8397 -0.3998
 8707SOL     OW34599   1.922   0.485   2.922 -0.4938  0.3456 -0.4895
 8707SOL    HW234600   1.931   0.393   2.898 -0.1174  0.8068 -2.2829
 8707SOL    HW334601   2.011   0.517   2.927 -0.5743  0.3512  1.3573
 8707SOL    MW434602   1.935   0.477   2.919  0.5003  0.9883  0.0674
 8708SOL     OW34603   0.378   5.127   5.089  0.6206  0.0564  0.2265
 8708SOL    HW234604   0.355   5.192   5.155 -1.7969 -1.3872  0.9699
 8708SOL    HW334605   0.462   5.155   5.055  1.1679  1.7941  2.7291
 8708SOL    MW434606   0.386   5.139   5.093  0.2490 -0.4026  0.0298
 8709SOL     OW34607   4.072   5.217   0.072  0.1924 -0.3920  0.0760
 8709SOL    HW234608   4.098   5.178  -0.012  1.0817  2.3127 -1.0196
 8709SOL    HW334609   4.012   5.153   0.111 -0.1192 -1.8247 -2.5433
 8709SOL    MW434610   4.068   5.204   0.066 -0.1378 -0.2237 -0.2257
 8710SOL     OW34611   6.214   5.137   5.479 -0.1501 -0.0828 -0.7163
 8710SOL    HW234612   6.133   5.086   5.472  0.5867 -1.4681  0.2475
 8710SOL    HW334613   6.211   5.175   5.567  0.9544 -1.4754 -0.0450
 8710SOL    MW434614   6.203   5.135   5.490  0.6794  0.3542 -0.2010
 8711SOL     OW34615   2.567   0.404   4.823 -0.0514 -0.5018  0.0982
 8711SOL    HW234616   2.485   0.425   4.778  0.0122 -0.0998  0.1706
 8711SOL    HW334617   2.551   0.427   4.914  0.9460  1.9428 -0.2720
 8711SOL    MW434618   2.554   0.410   4.829 -0.1607 -0.4968 -0.3881
 8712SOL     OW34619   3.974   5.318   3.220  0.3820  0.6020  0.1708
 8712SOL    HW234620   4.034   5.347   3.151 -0.2683  1.1351 -0.1780
 8712SOL    HW334621   3.893   5.366   3.204 -0.1681 -0.1554  0.6016
 8712SOL    MW434622   3.971   5.328   3.209  0.8701 -0.2898  0.6038
 8713SOL     OW34623   0.561   5.538   1.545  0.7212 -0.5538 -0.4912
 8713SOL    HW234624   0.584   5.471   1.481  0.4723  0.3313 -1.5282
 8713SOL    HW334625   0.612   5.515   1.623  0.1988 -2.2768 -0.6140
 8713SOL    MW434626   0.571   5.526   1.547  0.1976  0.4011  0.4140
 8714SOL     OW34627   4.137   2.101   0.603  0.3129 -0.5079 -0.7839
 8714SOL    HW234628   4.117   2.190   0.632  0.1930 -1.1629  1.2486
 8714SOL    HW334629   4.079   2.087   0.528  1.5707  1.7090 -2.3111
 8714SOL    MW434630   4.127   2.111   0.597 -0.0717  0.3262  0.0448
 8715SOL     OW34631   2.807   6.196   1.914  0.2260  0.6414 -0.2469
 8715SOL    HW234632   2.777   6.254   1.844 -0.6394 -0.4742 -0.8291
 8715SOL    HW334633   2.817   6.111   1.872  0.2160  0.0701  0.8730
 8715SOL    MW434634   2.804   6.193   1.899 -0.7255  0.0165 -0.3469
 8716SOL     OW34635   2.847   3.365   3.102  0.1392 -0.3289 -0.0853
 8716SOL    HW234636   2.907   3.402   3.037 -2.3495 -1.7920 -3.4965
 8716SOL    HW334637   2.897   3.294   3.142  1.7143  0.4934 -0.4977
 8716SOL    MW434638   2.862   3.360   3.099 -0.1502  0.1896 -0.2907
 8717SOL     OW34639   1.902   5.953   1.485 -0.0706 -0.1215  0.1727
 8717SOL    HW234640   1.823   5.968   1.433  0.1998 -0.1668 -0.2614
 8717SOL    HW334641   1.933   5.866   1.457  1.6506  0.9944 -1.7081
 8717SOL    MW434642   1.896   5.943   1.474 -0.0464 -0.2417 -0.4514
 8718SOL     OW34643   3.871   2.775   4.822  0.5170 -0.4078 -0.3296
 8718SOL    HW234644   3.823   2.707   4.774  0.4397 -1.6651  1.4291
 8718SOL    HW334645   3.954   2.784   4.775  0.1288 -1.0295 -1.1487
 8718SOL    MW434646   3.876   2.767   4.809 -0.6666  0.2323 -0.3369
 8719SOL     OW34647   4.578   2.134   4.010  0.7582  0.1597  0.1977
 8719SOL    HW234648   4.623   2.084   4.079  3.1770 -0.1165 -1.4541
 8719SOL    HW334649   4.609   2.094   3.929 -0.6666  1.5924 -1.0901
 8719SOL    MW434650   4.588   2.122   4.009  0.0399  0.2921 -0.1081
 8720SOL     OW34651   0.753   2.892   4.206 -0.0517 -0.1231  0.3204
 8720SOL    HW234652   0.725   2.973   4.248  0.3359  0.0123  0.3282
 8720SOL    HW334653   0.782   2.920   4.119  0.6154 -0.1608  0.5219
 8720SOL    MW434654   0.753   2.907   4.200  0.4322  0.3222 -0.1220
 8721SOL     OW34655   3.012   3.361   5.646  0.3823 -0.8984 -0.2590
 8721SOL    HW234656   3.008   3.353   5.550  0.1682 -2.4432 -0.1601
 8721SOL    HW334657   3.098   3.326   5.669 -0.2591 -2.2608  0.2041
 8721SOL    MW434658   3.023   3.355   5.636 -0.1488 -0.0093  0.5434
 8722SOL     OW34659   5.849   3.393   6.376  0.3482  0.4812 -0.0724
 8722SOL    HW234660   5.881   3.482   6.388  1.4634  0.3929 -1.9112
 8722SOL    HW334661   5.927   3.344   6.349 -0.6103 -0.6228 -0.8992
 8722SOL    MW434662   5.864   3.398   6.374  0.2008  0.3292  0.2665
 8723SOL     OW34663   5.162   0.293   3.550  0.0593  0.2593  0.1313
 8723SOL    HW234664   5.212   0.211   3.550 -0.6279 -0.1705 -0.5155
 8723SOL    HW334665   5.081   0.271   3.596  0.3182  0.8612  0.8814
 8723SOL    MW434666   5.158   0.279   3.556  0.5494 -0.0778 -0.0995
 8724SOL     OW34667   0.493   1.542   3.852  0.3679  0.1235 -0.2580
 8724SOL    HW234668   0.580   1.580   3.860  0.0387  0.9460 -0.4095
 8724SOL    HW334669   0.507   1.457   3.811  1.1709 -0.0963  0.4648
 8724SOL    MW434670   0.506   1.536   3.847 -0.2877  0.6521 -0.0085
 8725SOL     OW34671   6.145   1.949   2.536 -0.0559 -0.1454  0.7006
 8725SOL    HW234672   6.168   1.879   2.475 -2.6179 -0.5505  0.1025
 8725SOL    HW334673   6.075   1.913   2.590 -0.3934  1.4575  1.3907
 8725SOL    MW434674   6.139   1.935   2.535 -0.3941  0.2218  0.3996
 8726SOL     OW34675   1.636   4.962   2.560  0.0656 -0.0899  0.4095
 8726SOL    HW234676   1.669   5.024   2.496  0.4459 -0.5793  0.1270
 8726SOL    HW334677   1.540   4.968   2.553  0.0831  1.0051  0.9140
 8726SOL    MW434678   1.627   4.971   2.551 -0.5547  0.9506  0.5568
 8727SOL     OW34679   1.429   6.142   2.108 -0.8590  0.0056  0.1795
 8727SOL    HW234680   1.454   6.069   2.051 -0.0305 -0.0037  0.5337
 8727SOL    HW334681   1.363   6.190   2.059  0.8996  0.8925 -1.4634
 8727SOL    MW434682   1.424   6.138   2.094  0.2180 -0.3824 -0.1392
 8728SOL     OW34683   3.537   3.314   3.145 -0.0364  0.2429  0.9571
 8728SOL    HW234684   3.530   3.220   3.160  0.2778  0.0480 -0.0632
 8728SOL    HW334685   3.496   3.354   3.222 -0.4098 -0.7264  1.2688
 8728SOL    MW434686   3.531   3.307   3.157 -0.3404  0.4132  0.3521
 8729SOL     OW34687   4.803   0.989   2.308 -0.3982 -0.2590 -0.5589
 8729SOL    HW234688   4.730   0.945   2.264 -0.4662  0.1247 -0.8447
 8729SOL    HW334689   4.826   1.061   2.248  0.6480 -0.7703 -0.7936
 8729SOL    MW434690   4.796   0.993   2.294 -0.2693 -0.4295 -0.4830
 8730SOL     OW34691   3.991   3.962   2.312 -0.4017 -0.9219  0.0681
 8730SOL    HW234692   3.910   3.912   2.301 -0.1846 -1.0795 -0.8825
 8730SOL    HW334693   3.987   3.993   2.402 -1.9633 -0.1621 -0.2223
 8730SOL    MW434694   3.979   3.960   2.323 -0.5012  0.4880  0.4667
 8731SOL     OW34695   1.223   5.225   3.316  0.0096 -0.4425  0.5152
 8731SOL    HW234696   1.213   5.221   3.411  0.7880  0.9063  0.6907
 8731SOL    HW334697   1.137   5.202   3.281  0.1809 -2.8096  1.4655
 8731SOL    MW434698   1.211   5.221   3.324 -0.0880  0.1629  0.1696
 8732SOL     OW34699   4.332   2.010   3.758 -0.4063  0.9772 -0.4575
 8732SOL    HW234700   4.415   2.016   3.712 -0.3470  2.3264 -0.2289
 8732SOL    HW334701   4.272   2.064   3.707 -1.9474 -2.0816 -2.1614
 8732SOL    MW434702   4.335   2.018   3.745  0.0080 -0.0699 -0.4094
 8733SOL     OW34703   5.935   6.197   4.111 -0.5537 -0.9642 -0.7467
 8733SOL    HW234704   5.848   6.222   4.078 -0.1445  3.3421  0.8112
 8733SOL    HW334705   5.991   6.201   4.034 -0.8768  1.7973 -0.9427
 8733SOL    MW434706   5.931   6.201   4.096 -0.0325 -0.3373  0.2353
 8734SOL     OW34707   0.638   4.627   3.907  0.7926 -0.3733 -0.3997
 8734SOL    HW234708   0.726   4.650   3.875  0.3570  0.9890 -0.6746
 8734SOL    HW334709   0.623   4.687   3.980  0.2367 -0.8708 -0.0982
 8734SOL    MW434710   0.648   4.638   3.913 -0.0751 -0.4798 -0.4398
 8735SOL     OW34711   3.017   6.412   1.364 -0.3956  0.2813  0.0146
 8735SOL    HW234712   3.094   6.466   1.385 -0.6175  0.2834  0.8664
 8735SOL    HW334713   3.054   6.332   1.327 -0.0533  0.9241 -1.0885
 8735SOL    MW434714   3.032   6.408   1.362  0.1424  0.1567 -0.4478
 8736SOL     OW34715   4.075   1.590   2.781 -0.2812 -0.0194 -0.3430
 8736SOL    HW234716   3.980   1.586   2.796 -0.3425  0.9942 -0.4148
 8736SOL    HW334717   4.084   1.635   2.697  0.2414 -1.0229 -0.8428
 8736SOL    MW434718   4.064   1.595   2.772  0.7197 -0.3854  0.3069
 8737SOL     OW34719   1.907   6.457   2.503 -0.0079  0.7500 -0.0397
 8737SOL    HW234720   1.957   6.496   2.431  1.7403  0.5003  0.9626
 8737SOL    HW334721   1.959   6.382   2.531 -1.1933  0.1977  0.7883
 8737SOL    MW434722   1.921   6.452   2.497  0.1500 -0.2518 -0.1015
 8738SOL     OW34723   5.518   1.518   0.089 -0.0954  0.6863  0.1062
 8738SOL    HW234724   5.587   1.560   0.037 -0.7765  0.4868 -1.0003
 8738SOL    HW334725   5.530   1.553   0.177  1.8112  0.1643  0.0959
 8738SOL    MW434726   5.529   1.528   0.093 -0.2323  0.3296  0.4182
 8739SOL     OW34727   4.169   3.720   2.438  0.0062 -0.7481 -0.3031
 8739SOL    HW234728   4.111   3.784   2.480 -2.4613 -3.2799  0.4470
 8739SOL    HW334729   4.111   3.665   2.386  1.9575 -2.5367 -0.7381
 8739SOL    MW434730   4.154   3.721   2.437  0.1782  0.1783  0.0187
 8740SOL     OW34731   2.139   5.802   6.429  0.6306  0.0270 -0.2967
 8740SOL    HW234732   2.206   5.871   6.436  1.2757 -0.7281  1.6169
 8740SOL    HW334733   2.056   5.847   6.443  1.0918  0.3855  1.6055
 8740SOL    MW434734   2.137   5.817   6.432 -0.0921  0.0147 -0.3194
 8741SOL     OW34735   5.061   2.571   2.445 -0.2481 -0.5309  0.5633
 8741SOL    HW234736   5.064   2.639   2.511  0.1176 -0.2128  0.2237
 8741SOL    HW334737   5.069   2.617   2.362 -0.6537 -0.9304  0.2969
 8741SOL    MW434738   5.063   2.586   2.443  0.3800  0.3650  0.7140
 8742SOL     OW34739   6.014   1.103   0.804 -0.2011  0.1904 -0.3464
 8742SOL    HW234740   6.016   1.055   0.721  0.3911  1.2782 -1.0018
 8742SOL    HW334741   6.046   1.041   0.869 -0.2546 -0.5515 -1.0193
 8742SOL    MW434742   6.019   1.089   0.802 -0.4131  0.1640 -0.0325
 8743SOL     OW34743   1.805   5.955   1.120 -0.0881 -0.1247  0.0344
 8743SOL    HW234744   1.738   5.939   1.186 -0.0625 -0.5769 -0.0443
 8743SOL    HW334745   1.774   6.032   1.072  0.3800  0.8197  1.1907
 8743SOL    MW434746   1.792   5.963   1.122 -0.2047  0.4312 -0.1400
 8744SOL     OW34747   4.126   5.314   4.269  0.5779 -0.9491  0.2951
 8744SOL    HW234748   4.128   5.341   4.361  2.0309 -1.4687  0.4512
 8744SOL    HW334749   4.180   5.379   4.224 -0.3294 -0.5520 -0.2537
 8744SOL    MW434750   4.134   5.326   4.275  0.0885 -0.2408  0.1295
 8745SOL     OW34751   0.562   4.936   3.713 -0.6999  0.0604 -0.4959
 8745SOL    HW234752   0.567   4.912   3.620 -1.6202 -1.2027 -0.2501
 8745SOL    HW334753   0.505   4.869   3.752 -1.2816  1.2291  0.7533
 8745SOL    MW434754   0.555   4.924   3.706 -0.3183  0.4908 -0.1768
 8746SOL     OW34755   0.877   5.293   1.667 -0.0567  0.2285  0.0520
 8746SOL    HW234756   0.965   5.299   1.630  0.8718 -2.1875  1.6376
 8746SOL    HW334757   0.854   5.383   1.688  2.5012  0.8526  0.5828
 8746SOL    MW434758   0.886   5.305   1.665  0.4589 -0.1912 -0.5452
 8747SOL     OW34759   0.195   1.930   2.683 -0.0831 -0.1732 -0.2458
 8747SOL    HW234760   0.228   1.892   2.764 -1.4506 -0.8288  0.0234
 8747SOL    HW334761   0.109   1.965   2.706 -0.6611 -0.7156 -1.4982
 8747SOL    MW434762   0.188   1.930   2.697 -0.7299  0.0276  0.0177
 8748SOL     OW34763   4.021   6.293   3.738 -1.0694  0.3592  0.3390
 8748SOL    HW234764   4.085   6.238   3.782 -0.8754 -1.2515 -1.8184
 8748SOL    HW334765   3.937   6.249   3.753 -1.2552  0.7782  0.5564
 8748SOL    MW434766   4.018   6.280   3.746 -0.5568 -0.3529  0.1847
 8749SOL     OW34767   0.504   2.811   1.235 -0.0363 -0.6203 -0.0874
 8749SOL    HW234768   0.428   2.766   1.271 -0.1539  1.7519  3.0929
 8749SOL    HW334769   0.566   2.814   1.308  3.1356 -2.2205 -2.4542
 8749SOL    MW434770   0.502   2.805   1.250  0.1425 -0.1548 -0.0868
 8750SOL     OW34771   5.085   5.965   0.422  0.0860 -0.4823 -0.3083
 8750SOL    HW234772   5.150   5.915   0.472  1.3035 -1.8604 -3.0563
 8750SOL    HW334773   5.120   5.967   0.333 -2.3067  1.2098 -1.3001
 8750SOL    MW434774   5.098   5.959   0.417 -0.1112 -0.4825  0.2513
 8751SOL     OW34775   2.705   4.484   5.216  0.5015  0.3298 -0.2181
 8751SOL    HW234776   2.700   4.563   5.270  1.6227 -0.1371  0.6192
 8751SOL    HW334777   2.622   4.482   5.168  0.7770  2.4203 -0.8725
 8751SOL    MW434778   2.693   4.494   5.217 -0.0230 -0.8436 -0.3051
 8752SOL     OW34779   6.291   3.553   3.438 -0.2182 -0.4398 -0.6109
 8752SOL    HW234780   6.358   3.503   3.391 -1.2472 -2.0434 -0.4290
 8752SOL    HW334781   6.296   3.641   3.399  2.5269 -0.2401 -0.0236
 8752SOL    MW434782   6.301   3.558   3.426  0.0548  0.0458 -0.2868
 8753SOL     OW34783   1.916   1.300   4.120  0.0975  0.0300  0.5050
 8753SOL    HW234784   1.977   1.275   4.051  1.2385 -0.8305  1.7721
 8753SOL    HW334785   1.844   1.238   4.113 -0.1435  0.3988 -0.3475
 8753SOL    MW434786   1.915   1.288   4.110  0.0617  0.0519 -0.0014
 8754SOL     OW34787   3.068   6.395   5.496  0.6501  0.3475 -0.3012
 8754SOL    HW234788   3.157   6.403   5.531  0.9024 -0.3346 -0.7794
 8754SOL    HW334789   3.070   6.316   5.442 -0.4654 -0.1150  0.3187
 8754SOL    MW434790   3.080   6.386   5.493 -0.3124  0.7333 -0.1769
 8755SOL     OW34791   5.577   5.484   2.619 -0.3926  0.4268 -0.0679
 8755SOL    HW234792   5.563   5.550   2.687  0.5206  0.8254 -0.2490
 8755SOL    HW334793   5.611   5.408   2.666 -2.1159 -0.2019  0.2404
 8755SOL    MW434794   5.580   5.483   2.634 -1.0274  0.3238  0.1645
 8756SOL     OW34795   5.461   5.969   0.812  0.0333 -0.0344 -0.0086
 8756SOL    HW234796   5.420   5.977   0.726 -0.1713  0.1076  0.1021
 8756SOL    HW334797   5.394   6.000   0.874  0.4199  0.4878  0.1476
 8756SOL    MW434798   5.447   5.974   0.809 -0.2127 -0.4807  0.2146
 8757SOL     OW34799   6.054   6.147   2.332  0.0926  0.7204 -0.6600
 8757SOL    HW234800   6.093   6.223   2.376 -1.2359  1.6645 -1.0350
 8757SOL    HW334801   5.986   6.185   2.277 -0.6076 -0.7626 -0.8418
 8757SOL    MW434802   6.050   6.162   2.331 -0.0480 -0.0830  0.0513
 8758SOL     OW34803   6.244   0.606   1.716  0.3433 -0.0877 -0.0945
 8758SOL    HW234804   6.278   0.695   1.705 -2.5264  1.2972  1.2048
 8758SOL    HW334805   6.181   0.596   1.644 -0.3976 -0.4919  0.6030
 8758SOL    MW434806   6.241   0.617   1.705 -0.4205 -0.5481  0.2533
 8759SOL     OW34807   2.359   4.871   1.473 -0.3268 -0.0413  0.0530
 8759SOL    HW234808   2.321   4.875   1.385  0.4079  1.4449 -0.2226
 8759SOL    HW334809   2.420   4.797   1.469 -2.1978 -1.6663  0.1376
 8759SOL    MW434810   2.362   4.862   1.461  0.2085  0.3053  0.2465
 8760SOL     OW34811   5.537   4.704   3.414 -0.7045  0.0837 -0.2479
 8760SOL    HW234812   5.609   4.647   3.385 -1.8335 -0.8365 -1.3750
 8760SOL    HW334813   5.514   4.671   3.501 -0.0599  0.1007 -0.0650
 8760SOL    MW434814   5.543   4.692   3.421 -0.2805  0.5733  0.5607
 8761SOL     OW34815   2.581   4.742   0.671  0.2969  0.5231 -0.1341
 8761SOL    HW234816   2.659   4.687   0.663  1.1536  1.6001  0.5327
 8761SOL    HW334817   2.543   4.743   0.583  0.6286 -0.5840 -0.3038
 8761SOL    MW434818   2.586   4.735   0.658 -0.8030 -0.2833 -0.1054
 8762SOL     OW34819   6.333   1.220   1.331 -0.7233  0.0588  0.5540
 8762SOL    HW234820   6.303   1.149   1.388 -0.1596 -0.6706 -0.0439
 8762SOL    HW334821   6.267   1.225   1.262 -0.9797  0.4021  0.8187
 8762SOL    MW434822   6.320   1.211   1.329  0.2144 -0.5250 -0.4557
 8763SOL     OW34823   0.835   0.570   3.196 -0.3417  0.2259 -0.2823
 8763SOL    HW234824   0.791   0.528   3.122 -0.9183 -1.0896  0.7658
 8763SOL    HW334825   0.822   0.664   3.181  0.1004  0.0231 -2.1501
 8763SOL    MW434826   0.827   0.577   3.184 -0.2965 -0.6101 -0.4280
 8764SOL     OW34827   5.421   3.731   4.439  0.7687  0.3909  0.6389
 8764SOL    HW234828   5.422   3.819   4.476  3.3555  1.2716 -1.2777
 8764SOL    HW334829   5.354   3.735   4.370  2.2294  1.5152 -0.7692
 8764SOL    MW434830   5.412   3.743   4.435  0.2921 -0.1191  0.0663
 8765SOL     OW34831   5.470   0.733   1.536  0.2738 -0.6117  0.1252
 8765SOL    HW234832   5.423   0.662   1.580  1.6136 -1.6867 -0.1072
 8765SOL    HW334833   5.463   0.713   1.443  1.9641 -1.3523  0.1140
 8765SOL    MW434834   5.463   0.721   1.530 -0.1119 -0.3439 -0.1426
 8766SOL     OW34835   1.922   6.128   0.480 -0.2093 -0.1634  0.1113
 8766SOL    HW234836   1.853   6.062   0.473 -2.5860  2.1992 -0.0981
 8766SOL    HW334837   1.942   6.133   0.573  0.3267 -1.4164  0.0888
 8766SOL    MW434838   1.916   6.120   0.491 -0.9045  0.6694  0.2007
 8767SOL     OW34839   4.869   1.900   0.293  0.3803 -0.1485 -0.1308
 8767SOL    HW234840   4.962   1.887   0.277  0.4585  0.7433 -0.4613
 8767SOL    HW334841   4.865   1.979   0.346 -0.0854 -1.2715  1.5938
 8767SOL    MW434842   4.881   1.908   0.298 -0.3772 -0.5152  0.3366
 8768SOL     OW34843   3.204   0.558   4.288  0.1337 -0.1245 -0.2089
 8768SOL    HW234844   3.163   0.597   4.366  0.4073 -0.3263  0.0361
 8768SOL    HW334845   3.201   0.464   4.303 -0.0976 -0.1797 -0.5885
 8768SOL    MW434846   3.198   0.551   4.300 -0.3092 -0.1919  0.1317
 8769SOL     OW34847   0.905   1.185   4.384  0.1383 -0.1174 -0.1697
 8769SOL    HW234848   0.929   1.114   4.324 -0.0807  0.7517 -1.3321
 8769SOL    HW334849   0.830   1.227   4.342  0.5180  1.0548  0.2784
 8769SOL    MW434850   0.899   1.181   4.370  0.2879  0.1898 -0.2777
 8770SOL     OW34851   0.826   1.382   0.769  0.3644 -0.4493  0.4196
 8770SOL    HW234852   0.808   1.290   0.748 -0.7251 -0.0396 -0.5831
 8770SOL    HW334853   0.811   1.429   0.687  3.0858  0.3916  0.2922
 8770SOL    MW434854   0.822   1.376   0.755 -0.3638  0.8104 -0.3652
 8771SOL     OW34855   6.221   0.994   2.427 -0.4594 -0.1631 -0.3531
 8771SOL    HW234856   6.199   1.006   2.520  0.9523  1.4601 -0.1848
 8771SOL    HW334857   6.174   1.063   2.382 -1.2348 -1.0206 -0.8969
 8771SOL    MW434858   6.212   1.005   2.433 -0.3723  0.1718  0.4889
 8772SOL     OW34859   2.293   3.526   5.909  0.2377  0.6224 -0.6977
 8772SOL    HW234860   2.268   3.603   5.961 -1.1876 -1.5049  2.0575
 8772SOL    HW334861   2.388   3.524   5.915  0.2367  1.6064  0.0641
 8772SOL    MW434862   2.302   3.536   5.917  0.1670 -0.0731 -0.1373
 8773SOL     OW34863   4.597   3.200   5.081 -0.1143 -0.4736 -0.2965
 8773SOL    HW234864   4.511   3.232   5.107  0.6963 -0.1135  2.1829
 8773SOL    HW334865   4.579   3.117   5.035 -1.7398 -0.8496  0.9416
 8773SOL    MW434866   4.584   3.193   5.078  0.1046  0.4365  0.3157
 8774SOL     OW34867   5.553   6.294   6.188  0.1566  0.2530 -0.1492
 8774SOL    HW234868   5.463   6.305   6.158 -0.0550 -0.6292  0.1175
 8774SOL    HW334869   5.606   6.342   6.125 -0.5646  1.5595  0.1978
 8774SOL    MW434870   5.548   6.302   6.176  0.4915 -0.3682  0.3440
 8775SOL     OW34871   6.240   3.586   0.195 -0.3125 -0.2128 -0.2996
 8775SOL    HW234872   6.269   3.660   0.248  1.2325  0.7663 -2.3679
 8775SOL    HW334873   6.155   3.614   0.159  0.2064  0.5650 -0.9753
 8775SOL    MW434874   6.232   3.600   0.197 -0.6718 -0.1620  0.0564
 8776SOL     OW34875   5.722   2.121   5.986 -0.0036  0.0574  0.4539
 8776SOL    HW234876   5.768   2.175   5.921  1.6766  0.5334  1.9537
 8776SOL    HW334877   5.690   2.184   6.050  1.1374 -0.6043  1.7179
 8776SOL    MW434878   5.724   2.136   5.986 -0.4224  0.7279  0.3177
 8777SOL     OW34879   0.254   0.586   4.774  0.2104 -0.6868 -0.4039
 8777SOL    HW234880   0.315   0.643   4.821 -0.4068 -1.1978  1.0720
 8777SOL    HW334881   0.216   0.530   4.842 -2.1102 -0.2045 -1.2049
 8777SOL    MW434882   0.257   0.586   4.789 -0.2177  0.0329 -0.4787
 8778SOL     OW34883   4.285   1.887   1.541 -0.1495  0.0541 -0.1760
 8778SOL    HW234884   4.196   1.871   1.571  0.5889  0.3798  2.4807
 8778SOL    HW334885   4.333   1.911   1.621  2.5462 -1.0885 -1.3379
 8778SOL    MW434886   4.280   1.888   1.556  0.2647 -0.4125  0.4670
 8779SOL     OW34887   5.433   0.650   3.527  0.6187  0.3967 -0.2399
 8779SOL    HW234888   5.376   0.726   3.521  1.1910  0.8044 -0.5727
 8779SOL    HW334889   5.380   0.577   3.494 -0.3639  0.3957  1.2891
 8779SOL    MW434890   5.419   0.650   3.522  0.4667  0.4804  0.2648
 8780SOL     OW34891   1.947   1.743   2.295 -0.5237  0.1836 -0.1887
 8780SOL    HW234892   1.958   1.648   2.295  0.2408  0.2399  1.1987
 8780SOL    HW334893   1.865   1.758   2.341 -2.3579  0.1188 -3.1849
 8780SOL    MW434894   1.938   1.733   2.301  0.1867 -0.2668  0.0876
 8781SOL     OW34895   0.194   6.310   6.408 -0.1211  0.3540 -0.3768
 8781SOL    HW234896   0.110   6.267   6.390  0.3938 -0.4829 -0.8391
 8781SOL    HW334897   0.173   6.375   6.475 -1.3739  0.9956 -1.3300
 8781SOL    MW434898   0.180   6.313   6.415 -0.1070 -0.5471  0.5199
 8782SOL     OW34899   5.020   1.302   1.421 -0.0242  0.1379  0.0665
 8782SOL    HW234900   4.962   1.266   1.354 -2.0183  1.6330  0.8988
 8782SOL    HW334901   4.969   1.299   1.502  1.4929  0.4800  1.0856
 8782SOL    MW434902   5.005   1.297   1.423 -0.3120  0.3051 -0.0379
 8783SOL     OW34903   4.482   0.263   0.344  0.3543 -0.0261  0.3434
 8783SOL    HW234904   4.550   0.295   0.284  0.1744 -1.1682 -0.4974
 8783SOL    HW334905   4.518   0.279   0.431  0.6050  1.7098 -0.0288
 8783SOL    MW434906   4.495   0.269   0.348 -0.1595  0.8723 -0.3848
 8784SOL     OW34907   5.165   6.093   5.268 -0.6402 -0.0397  0.2194
 8784SOL    HW234908   5.244   6.123   5.222 -0.6916 -1.6400 -1.0118
 8784SOL    HW334909   5.198   6.045   5.343 -0.2956 -2.0340 -1.1146
 8784SOL    MW434910   5.180   6.090   5.272  0.3478  0.2074 -0.9266
 8785SOL     OW34911   3.303   0.112   2.260 -0.2109  0.2083  0.2465
 8785SOL    HW234912   3.286   0.070   2.344 -0.8281  1.0880  0.5816
 8785SOL    HW334913   3.219   0.150   2.234  0.5261  2.1642  0.5161
 8785SOL    MW434914   3.290   0.112   2.268  0.5767  0.7645  0.5089
 8786SOL     OW34915   6.095   3.797   3.823  0.2022  0.4878  0.6509
 8786SOL    HW234916   6.115   3.802   3.916 -0.6421  1.5404  0.8019
 8786SOL    HW334917   6.007   3.835   3.815 -0.1726 -0.5352 -0.4373
 8786SOL    MW434918   6.086   3.803   3.834  0.0505 -0.6058  0.2917
 8787SOL     OW34919   2.954   0.795   1.274  0.2830  0.0985 -0.4618
 8787SOL    HW234920   2.980   0.767   1.186 -0.8728  2.0789 -1.5134
 8787SOL    HW334921   2.897   0.871   1.259 -1.1549 -0.4066  1.9596
 8787SOL    MW434922   2.950   0.802   1.260  0.8033  0.5487 -0.7396
 8788SOL     OW34923   2.173   3.214   4.722  0.2872  0.1077 -0.2181
 8788SOL    HW234924   2.216   3.162   4.654  0.3271 -0.2144  0.0526
 8788SOL    HW334925   2.140   3.149   4.785 -0.0246  0.3855 -0.0907
 8788SOL    MW434926   2.174   3.198   4.721 -0.2744  0.1540 -0.0190
 8789SOL     OW34927   1.416   5.642   1.734 -0.4541 -0.1551 -0.6643
 8789SOL    HW234928   1.489   5.703   1.746 -0.9021  0.2023  0.3193
 8789SOL    HW334929   1.427   5.577   1.804  0.0175 -1.2249 -1.6977
 8789SOL    MW434930   1.427   5.641   1.745  0.0086  0.5487  0.1836
 8790SOL     OW34931   4.808   5.674   4.464 -0.2178  0.0490 -0.2703
 8790SOL    HW234932   4.873   5.714   4.406  0.5072 -0.0058  0.4882
 8790SOL    HW334933   4.738   5.739   4.469  0.3470  0.6512 -0.1034
 8790SOL    MW434934   4.807   5.688   4.457 -0.1643 -0.2246  0.3865
 8791SOL     OW34935   3.240   2.479   3.364 -0.3354 -0.3796  0.1137
 8791SOL    HW234936   3.251   2.479   3.459 -0.7018  1.1881  0.1808
 8791SOL    HW334937   3.183   2.404   3.347  0.4171 -1.1938  1.0162
 8791SOL    MW434938   3.234   2.469   3.375  0.3139  0.0266 -0.7172
 8792SOL     OW34939   5.450   5.482   5.957  0.1924 -0.2302 -0.1499
 8792SOL    HW234940   5.362   5.495   5.923 -0.6052 -0.1817  1.7783
 8792SOL    HW334941   5.507   5.489   5.881 -1.3012  1.6226 -1.1874
 8792SOL    MW434942   5.446   5.484   5.942 -0.4396  0.4116  0.9563
 8793SOL     OW34943   1.618   5.368   2.790  0.0647 -0.5710 -0.2645
 8793SOL    HW234944   1.624   5.272   2.791  1.7887 -0.5525  2.2781
 8793SOL    HW334945   1.638   5.394   2.880  0.3514  2.2198 -1.0350
 8793SOL    MW434946   1.622   5.359   2.802  0.3797  0.2239 -0.7002
 8794SOL     OW34947   4.973   4.982   2.058  0.2033  0.0457  0.1024
 8794SOL    HW234948   4.932   4.917   2.001  0.0874 -1.0917  1.4229
 8794SOL    HW334949   4.900   5.037   2.088 -0.1755 -1.0734  1.3019
 8794SOL    MW434950   4.958   4.981   2.054 -0.0186 -0.3191 -0.1702
 8795SOL     OW34951   3.251   4.254   2.425  0.5962  0.0852 -0.0954
 8795SOL    HW234952   3.192   4.295   2.362  0.8488 -0.3867 -0.6522
 8795SOL    HW334953   3.337   4.257   2.384  0.6112 -1.0577 -0.1979
 8795SOL    MW434954   3.254   4.259   2.412  0.1986  0.4209 -0.5073
 8796SOL     OW34955   2.966   3.769   4.393 -0.0287  0.4000 -0.5341
 8796SOL    HW234956   2.913   3.711   4.447  0.3863  0.0955 -0.4496
 8796SOL    HW334957   3.039   3.714   4.363  0.1913  0.7898 -0.7200
 8796SOL    MW434958   2.969   3.754   4.396 -0.1676  0.3309  0.3829
 8797SOL     OW34959   4.854   0.627   4.405  0.1193  0.1650 -0.6782
 8797SOL    HW234960   4.942   0.609   4.441  0.2440  0.0716 -1.0268
 8797SOL    HW334961   4.814   0.541   4.398 -0.4376  0.3011  0.5731
 8797SOL    MW434962   4.861   0.613   4.409  0.3914  0.6800  0.7044
 8798SOL     OW34963   3.844   5.193   2.902 -0.0682  0.0101  0.0982
 8798SOL    HW234964   3.912   5.258   2.883  0.0055  0.2307  1.0588
 8798SOL    HW334965   3.824   5.154   2.817  1.6478 -0.4337 -0.1424
 8798SOL    MW434966   3.850   5.196   2.888 -0.2746  0.0531  0.3858
 8799SOL     OW34967   6.329   4.248   4.667  0.2568  0.1021 -0.4161
 8799SOL    HW234968   6.407   4.265   4.720  0.1080  0.8074 -0.4167
 8799SOL    HW334969   6.333   4.154   4.647  0.0541 -0.2945  1.2575
 8799SOL    MW434970   6.340   4.238   4.671  0.1642 -0.1013 -0.1344
 8800SOL     OW34971   0.259   4.159   3.846 -0.5410 -0.4392  0.7100
 8800SOL    HW234972   0.191   4.158   3.914  0.3782  0.3848  1.6673
 8800SOL    HW334973   0.239   4.236   3.793 -0.9316 -0.7692  0.3674
 8800SOL    MW434974   0.247   4.169   3.848 -0.1109 -0.8627  0.1723
 8801SOL     OW34975   3.922   2.777   6.048  0.0587  0.1306  0.3444
 8801SOL    HW234976   3.827   2.773   6.044 -0.1392  3.3521 -0.9752
 8801SOL    HW334977   3.951   2.746   5.962  0.1837 -0.3704  0.5645
 8801SOL    MW434978   3.914   2.772   6.036 -0.5637  0.6834 -0.0275
 8802SOL     OW34979   6.169   6.191   4.609  0.5685 -0.2700 -0.2634
 8802SOL    HW234980   6.255   6.151   4.621  0.7717  0.1970 -0.1502
 8802SOL    HW334981   6.169   6.266   4.668 -0.0363 -0.4500 -0.0319
 8802SOL    MW434982   6.180   6.195   4.618  0.7135  0.1215 -0.8364
 8803SOL     OW34983   2.305   6.333   2.939  0.1493  0.3057  0.6320
 8803SOL    HW234984   2.217   6.363   2.961  0.7199  0.7157  2.5672
 8803SOL    HW334985   2.291   6.257   2.882 -1.4106  1.1889 -0.2206
 8803SOL    MW434986   2.292   6.327   2.934 -0.3901  0.3283  0.1418
 8804SOL     OW34987   3.101   1.801   3.391 -0.1118  0.0056  0.0891
 8804SOL    HW234988   3.194   1.820   3.401  0.2106 -1.0077 -0.8496
 8804SOL    HW334989   3.096   1.741   3.316 -1.4282 -0.7122  0.7183
 8804SOL    MW434990   3.113   1.796   3.382  0.2075 -0.0148  0.4525
 8805SOL     OW34991   0.070   0.510   4.361 -0.3969 -0.1433  0.6105
 8805SOL    HW234992   0.084   0.549   4.448  0.3457 -1.3791  1.0740
 8805SOL    HW334993   0.142   0.544   4.308 -1.4149  1.4166  0.1568
 8805SOL    MW434994   0.082   0.520   4.366 -0.3171  0.2910  0.2154
 8806SOL     OW34995   2.719   3.360   1.414 -0.3363  0.0824 -0.5676
 8806SOL    HW234996   2.783   3.374   1.344  0.0708 -0.7512 -0.3750
 8806SOL    HW334997   2.761   3.297   1.473 -0.9135  0.3226  0.1186
 8806SOL    MW434998   2.733   3.354   1.412 -0.0662  0.0120 -0.3076
 8807SOL     OW34999   6.134   0.684   2.019  0.3391  0.0318  0.3576
 8807SOL    HW235000   6.040   0.686   2.039 -0.0215  0.0653 -1.2050
 8807SOL    HW335001   6.147   0.755   1.956  1.6615  0.8119  1.4552
 8807SOL    MW435002   6.123   0.693   2.013 -0.1690 -0.0220  0.0516
 8808SOL     OW35003   4.045   4.740   0.077 -0.2155  0.2655 -0.0174
 8808SOL    HW235004   4.012   4.662   0.032 -0.1770 -1.2904  2.4851
 8808SOL    HW335005   4.125   4.763   0.029 -0.7809 -0.5907 -1.4277
 8808SOL    MW435006   4.052   4.733   0.065  0.1937 -0.0760  0.0937
 8809SOL     OW35007   3.960   1.989   0.413 -0.5823 -0.6092  0.4360
 8809SOL    HW235008   3.879   2.010   0.366 -0.4199 -0.4372  0.2344
 8809SOL    HW335009   4.021   1.962   0.344 -0.4446 -0.6678  0.5813
 8809SOL    MW435010   3.957   1.988   0.398 -0.4294 -0.2937 -0.4336
 8810SOL     OW35011   0.071   6.481   0.166 -0.1564  0.4748  0.0687
 8810SOL    HW235012  -0.012   6.476   0.119 -0.8918 -2.0050  1.4523
 8810SOL    HW335013   0.102   6.570   0.151 -2.2929  0.9998 -1.7439
 8810SOL    MW435014   0.064   6.492   0.158  0.6073  0.0970 -0.5182
 8811SOL     OW35015   2.147   4.267   5.862 -0.0683  0.3111  0.1406
 8811SOL    HW235016   2.209   4.327   5.905 -1.1032  0.7178  1.1056
 8811SOL    HW335017   2.189   4.181   5.870  0.2389  0.5319  1.0537
 8811SOL    MW435018   2.161   4.264   5.869 -0.0577  0.4525  0.2544
 8812SOL     OW35019   1.733   0.712   1.256  0.0844 -0.2799 -0.3363
 8812SOL    HW235020   1.695   0.732   1.342 -0.6467 -1.8332 -0.2761
 8812SOL    HW335021   1.821   0.681   1.275  0.0315 -0.3319 -0.1734
 8812SOL    MW435022   1.740   0.711   1.270  0.6218 -0.4885 -0.2637
 8813SOL     OW35023   5.299   0.313   6.154 -0.0901 -0.1419 -0.0531
 8813SOL    HW235024   5.337   0.388   6.200 -0.0186 -0.9120  1.1594
 8813SOL    HW335025   5.256   0.352   6.077 -0.6985  1.2218  0.9371
 8813SOL    MW435026   5.299   0.328   6.150  0.0845  0.1885  0.4722
 8814SOL     OW35027   6.037   3.464   1.079 -0.0173  0.0396 -0.0949
 8814SOL    HW235028   5.988   3.431   1.154  1.5449  1.1050  1.4912
 8814SOL    HW335029   6.097   3.392   1.056  0.1816  0.0630  0.3371
 8814SOL    MW435030   6.038   3.450   1.086  0.5395 -0.1681 -0.2244
 8815SOL     OW35031   6.330   1.691   4.199 -0.3451 -0.3018  0.2422
 8815SOL    HW235032   6.281   1.613   4.224  0.7040 -0.5441  1.6635
 8815SOL    HW335033   6.384   1.663   4.125 -1.0076 -0.5142 -0.1700
 8815SOL    MW435034   6.330   1.677   4.193 -0.0224 -0.2217 -0.3954
 8816SOL     OW35035   0.175   5.672   1.477 -0.0907 -0.3794  0.2007
 8816SOL    HW235036   0.170   5.578   1.495 -3.0959 -0.0836  1.4997
 8816SOL    HW335037   0.220   5.708   1.553 -0.0507 -0.6467  0.3045
 8816SOL    MW435038   0.180   5.664   1.489  0.1131  0.3835  0.2197
 8817SOL     OW35039   2.715   2.034   2.053  0.3138  0.2127  0.3295
 8817SOL    HW235040   2.741   2.126   2.059 -1.6539  0.8433 -0.2102
 8817SOL    HW335041   2.625   2.036   2.022  0.2860 -1.9243  0.1135
 8817SOL    MW435042   2.707   2.046   2.050  0.5510  0.1286 -0.1634
 8818SOL     OW35043   4.594   5.422   2.381  0.4027 -0.1257  0.0585
 8818SOL    HW235044   4.555   5.362   2.317  0.1868 -0.0294  0.0982
 8818SOL    HW335045   4.628   5.495   2.329 -1.8788  1.1493  0.1859
 8818SOL    MW435046   4.593   5.424   2.366  0.0556 -0.4386  0.5801
 8819SOL     OW35047   2.949   0.472   4.071 -0.2750 -0.6447 -0.5352
 8819SOL    HW235048   2.995   0.472   4.154 -1.0825 -3.0614 -0.0105
 8819SOL    HW335049   2.868   0.520   4.089  0.4565  0.6244 -0.5270
 8819SOL    MW435050   2.944   0.478   4.084  0.2476  0.1742  0.1118
 8820SOL     OW35051   0.398   4.324   0.341 -0.3474 -0.1917 -0.7489
 8820SOL    HW235052   0.427   4.335   0.250 -0.1828 -0.7041 -0.7580
 8820SOL    HW335053   0.413   4.410   0.381  1.1348 -0.4120 -0.7661
 8820SOL    MW435054   0.404   4.337   0.334 -0.0718  0.5444  0.7254
 8821SOL     OW35055   6.143   0.773   4.884 -0.2208 -0.1705 -0.0025
 8821SOL    HW235056   6.114   0.697   4.833  0.3509 -0.1436 -0.3851
 8821SOL    HW335057   6.233   0.751   4.910 -0.8705 -0.6746  1.9793
 8821SOL    MW435058   6.151   0.760   4.881  0.3177 -0.3844  0.3805
 8822SOL     OW35059   1.394   5.242   0.553 -0.7212 -0.4851 -0.3220
 8822SOL    HW235060   1.489   5.254   0.562 -0.4858 -1.5272 -1.1602
 8822SOL    HW335061   1.371   5.294   0.476 -0.3952 -2.0275 -1.5223
 8822SOL    MW435062   1.404   5.250   0.544  0.1880  0.4723  0.0306
 8823SOL     OW35063   0.606   5.969   5.612  0.6202  0.0472 -0.1853
 8823SOL    HW235064   0.603   6.046   5.669 -1.8059  1.3124 -1.8195
 8823SOL    HW335065   0.590   6.004   5.524 -3.0382 -2.4329 -0.7361
 8823SOL    MW435066   0.603   5.984   5.608 -0.0629 -0.1473  0.4072
 8824SOL     OW35067   4.930   2.156   6.057  0.0884 -0.0364 -0.2952
 8824SOL    HW235068   5.005   2.099   6.077  1.0986  1.7628  1.3154
 8824SOL    HW335069   4.969   2.240   6.035 -1.4366  1.4898  2.4245
 8824SOL    MW435070   4.945   2.159   6.056 -0.2035  0.3678  0.2425
 8825SOL     OW35071   0.150   2.025   5.402 -0.6115  0.1104 -0.1131
 8825SOL    HW235072   0.059   2.006   5.381 -0.2819 -0.3100 -1.2619
 8825SOL    HW335073   0.198   1.998   5.324  0.4920  0.3728  0.4599
 8825SOL    MW435074   0.144   2.019   5.389  0.0522 -0.1803  0.3723
 8826SOL     OW35075   3.089   3.950   6.134 -0.2129 -0.2200  0.2408
 8826SOL    HW235076   3.118   3.865   6.102  0.8393  0.3027 -0.2476
 8826SOL    HW335077   3.031   3.930   6.207  0.7951 -1.3378  0.7647
 8826SOL    MW435078   3.085   3.936   6.140  0.1691 -0.0424 -0.0807
 8827SOL     OW35079   2.951   3.172   2.456  0.3267 -0.0910  0.0481
 8827SOL    HW235080   2.929   3.090   2.413 -0.7866  0.5326 -0.6251
 8827SOL    HW335081   3.035   3.198   2.417  0.8242 -1.0147  0.4640
 8827SOL    MW435082   2.960   3.165   2.445  0.1524  0.4335  0.0568
 8828SOL     OW35083   1.669   6.330   5.732 -0.0234 -0.5699  0.4566
 8828SOL    HW235084   1.765   6.335   5.737 -0.1067  0.3175  1.3029
 8828SOL    HW335085   1.638   6.393   5.796 -1.1938 -0.1931 -0.4500
 8828SOL    MW435086   1.678   6.339   5.741 -0.6322 -0.6286  0.8337
 8829SOL     OW35087   5.348   4.634   3.137 -0.0712  0.2086 -0.1175
 8829SOL    HW235088   5.309   4.601   3.218 -0.0815 -0.7987 -0.5172
 8829SOL    HW335089   5.275   4.677   3.091  0.0817  1.3703  0.6904
 8829SOL    MW435090   5.333   4.635   3.142 -0.3925  0.6025 -0.2747
 8830SOL     OW35091   2.200   2.774   6.034 -0.5252  0.1228  0.4180
 8830SOL    HW235092   2.157   2.848   5.990 -0.7227 -0.8843 -1.1443
 8830SOL    HW335093   2.161   2.696   5.995  0.2211 -0.8360  1.5004
 8830SOL    MW435094   2.189   2.774   6.023  0.3878  0.0617 -0.8588
 8831SOL     OW35095   1.498   0.789   0.571 -0.1924 -0.0100  0.1129
 8831SOL    HW235096   1.525   0.697   0.576  0.0552  0.0127 -0.7199
 8831SOL    HW335097   1.558   0.829   0.507 -1.5650  0.2522 -1.0673
 8831SOL    MW435098   1.509   0.782   0.563 -0.6750  0.5161  0.1362
 8832SOL     OW35099   5.590   0.440   5.215 -0.2795  1.2405  0.2044
 8832SOL    HW235100   5.588   0.532   5.242 -0.6707  1.2706  0.0759
 8832SOL    HW335101   5.682   0.416   5.219 -0.3815  0.9348  2.6484
 8832SOL    MW435102   5.602   0.449   5.219 -0.2073  0.4134 -0.0396
 8833SOL     OW35103   3.945   0.199   0.549  0.1734 -0.2535 -0.2164
 8833SOL    HW235104   3.931   0.133   0.616 -1.2281 -1.3097 -1.4821
 8833SOL    HW335105   4.028   0.173   0.507  1.3701  0.7503  1.4047
 8833SOL    MW435106   3.954   0.187   0.552  0.0954 -0.0778  0.2075
 8834SOL     OW35107   0.933   3.545   4.097  0.7509  0.6336 -0.1756
 8834SOL    HW235108   0.846   3.584   4.086  0.3208 -0.2066  0.1535
 8834SOL    HW335109   0.968   3.539   4.008 -0.6433 -1.4959 -0.6610
 8834SOL    MW435110   0.926   3.550   4.084  0.0245 -0.5623 -0.2875
 8835SOL     OW35111   6.341   4.027   1.630  0.1027  0.1100 -0.1767
 8835SOL    HW235112   6.323   4.116   1.600  1.5711  0.2918 -0.5938
 8835SOL    HW335113   6.381   3.983   1.554 -1.6027 -1.2678 -0.3396
 8835SOL    MW435114   6.344   4.033   1.616  0.3436  0.1389  0.2599
 8836SOL     OW35115   0.182   6.174   2.880  0.0987  0.3069  0.3523
 8836SOL    HW235116   0.201   6.267   2.867  0.3828  0.4230  1.4633
 8836SOL    HW335117   0.090   6.172   2.908 -0.1297  0.1810 -0.3993
 8836SOL    MW435118   0.173   6.186   2.882 -0.4960  0.2662  0.1261
 8837SOL     OW35119   1.471   3.511   0.080  0.2442  0.3953 -0.6059
 8837SOL    HW235120   1.432   3.475   0.159 -0.6302  1.2220 -0.6378
 8837SOL    HW335121   1.406   3.494   0.012  1.8635 -2.1893 -1.6433
 8837SOL    MW435122   1.457   3.504   0.081  0.6440 -0.7760 -0.5286
 8838SOL     OW35123   3.555   4.777   0.947 -0.4689  0.7867 -0.4723
 8838SOL    HW235124   3.504   4.827   1.011  0.1391 -0.4060  1.0212
 8838SOL    HW335125   3.584   4.700   0.996  0.9280  0.3652 -1.9050
 8838SOL    MW435126   3.552   4.773   0.962 -0.1077  0.5468  0.4795
 8839SOL     OW35127   5.393   4.002   4.556  0.0807 -1.0568 -0.1187
 8839SOL    HW235128   5.482   4.038   4.561  0.2639 -1.6088  1.0309
 8839SOL    HW335129   5.346   4.061   4.497  0.8987 -0.0621  0.2000
 8839SOL    MW435130   5.399   4.015   4.549 -0.6685  0.1094  0.2316
 8840SOL     OW35131   1.040   3.568   2.106 -0.1223 -0.0808  0.0138
 8840SOL    HW235132   1.109   3.558   2.040  0.0574 -2.2620  0.4383
 8840SOL    HW335133   0.973   3.621   2.063  0.8784  0.2665 -1.1874
 8840SOL    MW435134   1.040   3.574   2.091  0.0334 -0.6749  0.4889
 8841SOL     OW35135   3.143   0.630   3.863  0.3940 -0.2123  0.2503
 8841SOL    HW235136   3.229   0.663   3.886  1.6935 -2.5428 -0.8229
 8841SOL    HW335137   3.095   0.627   3.946  2.5041 -1.9038  1.5214
 8841SOL    MW435138   3.148   0.634   3.877 -0.2109  0.0894  0.3303
 8842SOL     OW35139   0.482   1.757   3.223 -0.3137  0.5533  0.2361
 8842SOL    HW235140   0.387   1.748   3.228 -0.1417 -2.5138 -0.0479
 8842SOL    HW335141   0.515   1.690   3.282  1.6588  0.4388 -0.9171
 8842SOL    MW435142   0.474   1.747   3.231  0.2618  0.2597 -0.2723
 8843SOL     OW35143   1.193   4.274   5.204 -0.5914  0.4834  0.3357
 8843SOL    HW235144   1.151   4.204   5.254 -2.1463  0.5257 -0.8245
 8843SOL    HW335145   1.240   4.326   5.269  0.5939 -1.5793  1.2532
 8843SOL    MW435146   1.194   4.272   5.219  0.1832  0.4642  0.6038
 8844SOL     OW35147   3.030   1.666   3.613  0.5366  0.0015  0.0118
 8844SOL    HW235148   2.939   1.647   3.593  0.0256  0.5877  1.5959
 8844SOL    HW335149   3.059   1.725   3.544 -0.9201  1.4112  0.5439
 8844SOL    MW435150   3.022   1.671   3.601 -0.1059 -0.4802 -0.2363
 8845SOL     OW35151   3.827   5.869   2.054 -0.3938 -0.5206 -0.4722
 8845SOL    HW235152   3.892   5.938   2.055 -1.2321  0.4104 -2.6201
 8845SOL    HW335153   3.753   5.904   2.103  0.5812 -1.5249  1.8496
 8845SOL    MW435154   3.826   5.883   2.060 -0.2301 -0.9699  0.1944
 8846SOL     OW35155   4.460   5.450   1.701  0.2697  0.2850 -0.3521
 8846SOL    HW235156   4.533   5.436   1.641  2.1095 -0.6901  1.9847
 8846SOL    HW335157   4.467   5.541   1.727  0.5516  0.2330 -0.2459
 8846SOL    MW435158   4.470   5.460   1.696 -0.1228 -0.5778 -0.2536
 8847SOL     OW35159   4.007   0.734   1.621 -0.3278 -0.8058  0.0593
 8847SOL    HW235160   3.955   0.656   1.602  0.2537 -1.1632 -0.0760
 8847SOL    HW335161   4.044   0.759   1.537 -0.1354 -0.6514  0.1903
 8847SOL    MW435162   4.005   0.727   1.608  0.4270 -0.3391  0.2452
 8848SOL     OW35163   3.840   1.214   1.064  0.5794  0.0306  0.0858
 8848SOL    HW235164   3.908   1.268   1.103  0.9927 -0.7173  0.4177
 8848SOL    HW335165   3.888   1.148   1.013  0.0739  0.4596 -0.9923
 8848SOL    MW435166   3.855   1.213   1.062  0.2195  0.6152  0.3485
 8849SOL     OW35167   0.089   6.474   3.776 -0.2131  1.0427  0.3463
 8849SOL    HW235168   0.136   6.473   3.692  0.2350 -1.1227  0.5646
 8849SOL    HW335169   0.157   6.485   3.842  0.0387 -1.6072  0.6315
 8849SOL    MW435170   0.104   6.475   3.773 -0.1722  0.5364 -0.1573
 8850SOL     OW35171   2.766   5.165   1.207  0.3665  0.3958  0.9133
 8850SOL    HW235172   2.854   5.204   1.210  0.0638  1.2702 -0.3473
 8850SOL    HW335173   2.739   5.158   1.298  2.3126 -1.2866  1.4242
 8850SOL    MW435174   2.774   5.169   1.219  0.0593  0.0755 -0.3045
 8851SOL     OW35175   3.227   5.443   0.879 -0.0902 -0.2316 -0.2892
 8851SOL    HW235176   3.222   5.520   0.936  1.4500  0.0358 -0.4914
 8851SOL    HW335177   3.233   5.478   0.791  1.8697 -0.5017 -0.3091
 8851SOL    MW435178   3.227   5.458   0.875 -0.0247  0.0652  0.0427
 8852SOL     OW35179   5.006   4.530   4.262  0.1699 -0.4193  0.5779
 8852SOL    HW235180   5.064   4.588   4.213  0.8979 -0.4559  1.3875
 8852SOL    HW335181   4.963   4.587   4.326  1.0626 -0.7976  1.5340
 8852SOL    MW435182   5.008   4.545   4.264  0.2199  0.5409  0.2927
 8853SOL     OW35183   6.202   4.825   0.440  0.4811 -0.0751  0.2339
 8853SOL    HW235184   6.248   4.765   0.499  0.2331  0.3503  0.8713
 8853SOL    HW335185   6.127   4.857   0.491 -1.4214 -1.8774 -1.2323
 8853SOL    MW435186   6.198   4.821   0.455 -0.4145 -0.2782  0.1746
 8854SOL     OW35187   1.099   5.601   0.674  1.3648 -0.4938  0.1400
 8854SOL    HW235188   1.050   5.519   0.682 -0.5761  0.6029 -0.1247
 8854SOL    HW335189   1.083   5.630   0.584 -0.0976  1.4295  0.9587
 8854SOL    MW435190   1.091   5.594   0.663  0.1418  0.3319  0.6276
 8855SOL     OW35191   1.884   2.268   2.376 -0.3160 -0.0931 -0.1252
 8855SOL    HW235192   1.974   2.239   2.362 -0.2024 -0.0741  0.5746
 8855SOL    HW335193   1.834   2.223   2.308  0.2863  0.2720 -0.8318
 8855SOL    MW435194   1.889   2.258   2.365 -0.6009  0.6167  0.1982
 8856SOL     OW35195   4.773   3.692   3.329 -0.2268  0.3735 -0.2508
 8856SOL    HW235196   4.691   3.652   3.360 -0.1194  1.7710  2.0290
 8856SOL    HW335197   4.744   3.769   3.280 -0.3027 -0.0464 -0.8777
 8856SOL    MW435198   4.758   3.697   3.327 -0.2830 -0.1948 -0.0029
 8857SOL     OW35199   3.501   0.839   1.803  0.2686 -0.0333  0.1291
 8857SOL    HW235200   3.560   0.842   1.728  0.5134  0.0084  0.3204
 8857SOL    HW335201   3.445   0.764   1.787  0.1939  0.0881 -0.1891
 8857SOL    MW435202   3.501   0.830   1.791 -0.2313 -0.3436 -0.3025
 8858SOL     OW35203   1.917   5.430   2.772 -0.2620  0.2453  0.0571
 8858SOL    HW235204   1.821   5.433   2.766 -0.3321  0.0434  0.8772
 8858SOL    HW335205   1.934   5.431   2.866  0.4929 -1.0204 -0.0475
 8858SOL    MW435206   1.906   5.431   2.784 -0.6615  0.2382  0.2491
 8859SOL     OW35207   3.064   5.989   5.506  0.1395  0.9922 -0.5989
 8859SOL    HW235208   3.080   6.063   5.446 -1.2252  2.7283  1.0557
 8859SOL    HW335209   2.978   5.957   5.481  0.3846  0.4728 -0.7833
 8859SOL    MW435210   3.055   5.995   5.495 -0.5697 -0.2408 -0.5992
 8860SOL     OW35211   1.048   1.570   2.280 -0.3266  0.6803 -0.0526
 8860SOL    HW235212   1.081   1.486   2.249  3.4104  1.8592  0.2535
 8860SOL    HW335213   1.047   1.562   2.375  2.0893  1.5341  0.1083
 8860SOL    MW435214   1.052   1.558   2.289  0.0819 -0.3372  0.1287
 8861SOL     OW35215   1.776   6.347   3.905 -0.4814  0.0680 -0.2198
 8861SOL    HW235216   1.809   6.399   3.832 -0.1767  0.4267  0.1675
 8861SOL    HW335217   1.769   6.409   3.978 -1.5010 -0.1239 -0.1439
 8861SOL    MW435218   1.780   6.362   3.905  0.4604  0.4852  0.4929
 8862SOL     OW35219   2.591   4.860   2.514 -0.6850 -0.0800  0.1339
 8862SOL    HW235220   2.516   4.840   2.571 -0.0537 -0.3159  0.8997
 8862SOL    HW335221   2.557   4.924   2.452 -1.5839 -0.3378  0.3371
 8862SOL    MW435222   2.577   4.866   2.514  0.2999 -0.0741 -0.2102
 8863SOL     OW35223   2.360   1.346   0.838 -0.2240  0.4327  0.4003
 8863SOL    HW235224   2.376   1.254   0.817 -0.5714  0.0654  1.6316
 8863SOL    HW335225   2.427   1.394   0.790 -0.7564 -0.3537 -1.2000
 8863SOL    MW435226   2.371   1.340   0.829 -0.4329 -0.6492 -0.8281
 8864SOL     OW35227   0.582   5.001   4.562 -0.0302 -0.3206 -0.0514
 8864SOL    HW235228   0.674   5.008   4.586 -0.5794 -0.3179  2.3121
 8864SOL    HW335229   0.553   5.092   4.553  0.2161 -0.3238 -0.9972
 8864SOL    MW435230   0.590   5.014   4.564  0.8684  0.0218 -0.1446
 8865SOL     OW35231   5.459   6.117   0.195 -0.1186 -0.4291 -0.5410
 8865SOL    HW235232   5.371   6.081   0.208 -0.3039  0.7132  1.7595
 8865SOL    HW335233   5.446   6.190   0.135 -0.2983 -1.8338 -2.2890
 8865SOL    MW435234   5.445   6.122   0.189 -0.8015  0.4253 -0.6181
 8866SOL     OW35235   3.023   1.245   3.716  0.2432 -0.0296 -0.0759
 8866SOL    HW235236   3.030   1.228   3.810  0.2000 -0.2152 -0.1054
 8866SOL    HW335237   3.090   1.311   3.698  1.3100 -1.1049 -0.1823
 8866SOL    MW435238   3.033   1.252   3.726  0.6425 -0.1059 -0.8151
 8867SOL     OW35239   6.384   6.332   0.834 -0.1170 -0.4934  0.3294
 8867SOL    HW235240   6.320   6.390   0.877 -0.5258  0.2777 -1.2562
 8867SOL    HW335241   6.467   6.351   0.878 -0.2926  1.1422  0.0350
 8867SOL    MW435242   6.386   6.342   0.846 -0.0279  0.0422 -0.0508
 8868SOL     OW35243   1.899   1.121   3.329 -0.3758 -0.5918 -0.2803
 8868SOL    HW235244   1.857   1.196   3.371  2.5449  0.4730  1.0265
 8868SOL    HW335245   1.875   1.129   3.236 -1.4043  1.0322  0.0840
 8868SOL    MW435246   1.890   1.132   3.322 -0.7524 -0.6050 -0.4611
 8869SOL     OW35247   5.175   6.071   0.190  0.3590 -0.3264  0.3083
 8869SOL    HW235248   5.158   6.165   0.194  0.0540 -0.4199  2.3135
 8869SOL    HW335249   5.129   6.041   0.112  1.2489  1.3223 -0.8829
 8869SOL    MW435250   5.166   6.079   0.181  0.2318 -0.6381 -0.4154
 8870SOL     OW35251   2.222   5.856   1.078 -0.0438 -0.5943  0.1594
 8870SOL    HW235252   2.286   5.891   1.141  0.3467 -1.9721  0.5581
 8870SOL    HW335253   2.165   5.930   1.058  0.8513  0.3078  0.8479
 8870SOL    MW435254   2.223   5.871   1.083 -0.5281  0.4287 -0.3142
 8871SOL     OW35255   0.874   4.398   4.667  0.4556  0.1028  0.6466
 8871SOL    HW235256   0.908   4.350   4.591  1.1095  0.3443  0.7787
 8871SOL    HW335257   0.803   4.343   4.700 -1.1734  0.9183 -1.2838
 8871SOL    MW435258   0.870   4.384   4.661  0.5249  0.1004  0.3543
 8872SOL     OW35259   4.099   1.711   2.506  0.0661 -0.1245  0.6441
 8872SOL    HW235260   4.133   1.800   2.513 -1.0998  0.2979  1.0970
 8872SOL    HW335261   4.165   1.665   2.454  0.9088  0.8735  0.7892
 8872SOL    MW435262   4.113   1.717   2.500 -0.3407 -0.4084 -0.1638
 8873SOL     OW35263   0.045   4.541   4.035 -0.2995  0.1566 -0.3504
 8873SOL    HW235264   0.031   4.589   3.954 -0.4496  0.4311 -0.1621
 8873SOL    HW335265   0.036   4.606   4.104  0.6327  0.0896 -0.1543
 8873SOL    MW435266   0.042   4.556   4.033 -0.6230 -0.2644  0.5095
 8874SOL     OW35267   6.278   3.190   5.223  0.0920  0.8945  0.2057
 8874SOL    HW235268   6.218   3.186   5.149 -1.3583  2.2470  1.2304
 8874SOL    HW335269   6.290   3.283   5.239  0.5191  0.6370  1.5375
 8874SOL    MW435270   6.271   3.202   5.215  0.1429  0.4029  0.0402
 8875SOL     OW35271   6.209   2.484   1.784 -0.0488  0.0130  0.1804
 8875SOL    HW235272   6.129   2.487   1.731  0.1503 -1.3966 -0.2586
 8875SOL    HW335273   6.257   2.563   1.759 -0.7289  0.2267 -0.4947
 8875SOL    MW435274   6.205   2.494   1.773  0.4149 -0.1331  0.4493
 8876SOL     OW35275   3.681   4.499   2.054 -0.1895 -0.0769 -0.5223
 8876SOL    HW235276   3.633   4.485   2.135  0.3318 -1.3632 -0.4085
 8876SOL    HW335277   3.619   4.541   1.995 -1.1343 -0.7784 -0.0425
 8876SOL    MW435278   3.667   4.503   2.057  0.1441  0.2687 -0.0817
 8877SOL     OW35279   3.370   4.264   6.301 -0.8152  0.6790 -0.0833
 8877SOL    HW235280   3.396   4.203   6.370  0.1028  0.3080 -0.7373
 8877SOL    HW335281   3.377   4.213   6.221 -2.5587  0.8920 -0.4104
 8877SOL    MW435282   3.375   4.249   6.300 -0.4402  0.0095 -0.0171
 8878SOL     OW35283   3.440   3.202   5.833 -0.2887  0.0135  0.1273
 8878SOL    HW235284   3.418   3.130   5.774  0.6481  0.3303 -0.6193
 8878SOL    HW335285   3.355   3.231   5.868 -0.7825 -0.6405 -0.5056
 8878SOL    MW435286   3.426   3.196   5.830 -0.2177  0.0650  0.0852
 8879SOL     OW35287   3.213   4.093   1.326  0.2307 -0.7178 -0.1503
 8879SOL    HW235288   3.299   4.060   1.350 -0.0750 -2.9732 -1.8107
 8879SOL    HW335289   3.228   4.140   1.243 -0.0217 -0.4331 -0.0356
 8879SOL    MW435290   3.226   4.095   1.318 -0.5219  0.5195  0.1087
 8880SOL     OW35291   0.261   2.539   3.688 -0.3569  0.6095 -0.3522
 8880SOL    HW235292   0.221   2.625   3.677 -0.6675  0.5998  0.6141
 8880SOL    HW335293   0.264   2.502   3.600 -0.5653  1.4571 -0.7193
 8880SOL    MW435294   0.257   2.545   3.675 -0.0725 -0.3471 -0.3448
 8881NA      NA35295   0.375   3.094   4.897 -0.0626  0.1046 -0.0815
 8882NA      NA35296   3.154   0.667   2.702  0.0665 -0.2708  0.1967
 8883NA      NA35297   3.500   4.161   4.260  0.3293 -0.7160  0.1040
 8884NA      NA35298   1.555   6.323   0.987  0.0825 -0.4756 -0.3100
 8885NA      NA35299   4.415   0.450   3.483 -0.3701  0.2927 -0.4100
 8886NA      NA35300   5.821   1.036   4.672 -0.1896  0.2332  0.3890
 8887NA      NA35301   2.558   2.303   4.618  0.2595 -0.0672 -0.4646
   6.42840   6.42840   6.42840
